# vtk DataFile Version 3.0 
Exported using Morpho https://github.com/Morpho-lang/morpho 
ASCII 
DATASET UNSTRUCTURED_GRID 

POINTS 1245 float 
-0.303845 -0.952721 0 
-0.250833 -0.96803 0 
-0.195084 -0.980787 0 
-0.146308 -0.989239 0 
-0.0940719 -0.995565 0 
-0.0475118 -0.998871 0 
-0.000246339 -1 0 
0.0470875 -0.998891 0 
0.0937543 -0.995595 0 
0.146139 -0.989264 0 
0.195062 -0.980791 0 
0.250843 -0.968028 0 
0.303953 -0.952687 0 
-0.409153 -0.912466 0 
-0.356519 -0.934288 0 
-0.308871 -0.898929 0 
-0.258282 -0.916037 0 
-0.207345 -0.934859 0 
-0.154868 -0.930629 0 
-0.104343 -0.948989 0 
-0.0520099 -0.939193 0 
-8.5762e-05 -0.954582 0 
0.0518744 -0.939288 0 
0.104354 -0.949042 0 
0.154696 -0.9306 0 
0.207366 -0.934975 0 
0.258274 -0.916081 0 
0.308979 -0.898924 0 
0.356593 -0.93426 0 
0.409236 -0.912429 0 
-0.513788 -0.857917 0 
-0.461695 -0.887039 0 
-0.411157 -0.857936 0 
-0.359855 -0.879963 0 
-0.306888 -0.847481 0 
-0.254732 -0.866979 0 
-0.201991 -0.889059 0 
-0.149956 -0.874108 0 
-0.100608 -0.900088 0 
-0.0497575 -0.880388 0 
2.4595e-05 -0.904789 0 
0.0496869 -0.8804 0 
0.100612 -0.900177 0 
0.149872 -0.874171 0 
0.202071 -0.889165 0 
0.254695 -0.867031 0 
0.306946 -0.847482 0 
0.359894 -0.879943 0 
0.411236 -0.857929 0 
0.461748 -0.887011 0 
0.513842 -0.857885 0 
-0.564741 -0.825268 0 
-0.512908 -0.802945 0 
-0.462372 -0.832348 0 
-0.410124 -0.804631 0 
-0.358606 -0.827415 0 
-0.305781 -0.795641 0 
-0.25358 -0.816639 0 
-0.200756 -0.839997 0 
-0.149043 -0.818944 0 
-0.0987265 -0.846667 0 
-0.0490473 -0.822548 0 
5.00659e-05 -0.849932 0 
0.0490834 -0.822542 0 
0.0987838 -0.846676 0 
0.148997 -0.818924 0 
0.200826 -0.840131 0 
0.253508 -0.816728 0 
0.305831 -0.795701 0 
0.358581 -0.827419 0 
0.410181 -0.804654 0 
0.462414 -0.83234 0 
0.512965 -0.802929 0 
0.564777 -0.825243 0 
-0.660798 -0.750564 0 
-0.614015 -0.789295 0 
-0.561786 -0.769772 0 
-0.510673 -0.747856 0 
-0.460836 -0.778365 0 
-0.408794 -0.751554 0 
-0.357337 -0.774971 0 
-0.304815 -0.743684 0 
-0.252907 -0.765535 0 
-0.200631 -0.789263 0 
-0.149244 -0.764328 0 
-0.0986912 -0.791935 0 
-0.0492815 -0.765764 0 
4.16586e-05 -0.79382 0 
0.0492411 -0.765708 0 
0.0987508 -0.791951 0 
0.149196 -0.764326 0 
0.200666 -0.789356 0 
0.252841 -0.765599 0 
0.304862 -0.743741 0 
0.357323 -0.775038 0 
0.408863 -0.751626 0 
0.460863 -0.778382 0 
0.510716 -0.747859 0 
0.561819 -0.769761 0 
0.614041 -0.789274 0 
0.660811 -0.750552 0 
-0.707107 -0.707107 0 
-0.654819 -0.699058 0 
-0.60813 -0.73348 0 
-0.558104 -0.71337 0 
-0.509495 -0.692659 0 
-0.45935 -0.724356 0 
-0.407328 -0.698865 0 
-0.355968 -0.722823 0 
-0.303722 -0.691387 0 
-0.252254 -0.71362 0 
-0.20067 -0.737336 0 
-0.149608 -0.710068 0 
-0.0991558 -0.737129 0 
-0.0495872 -0.709825 0 
-2.23646e-05 -0.737917 0 
0.0494408 -0.709766 0 
0.0991291 -0.737116 0 
0.149502 -0.710042 0 
0.200696 -0.73743 0 
0.252186 -0.713735 0 
0.303753 -0.691518 0 
0.355952 -0.722893 0 
0.407371 -0.698945 0 
0.459374 -0.724407 0 
0.509524 -0.692668 0 
0.558131 -0.713361 0 
0.608151 -0.733462 0 
0.654824 -0.699048 0 
0.707107 -0.707107 0 
-0.750564 -0.660798 0 
-0.699058 -0.654819 0 
-0.647692 -0.647692 0 
-0.603437 -0.675718 0 
-0.55905 -0.655305 0 
-0.508501 -0.639581 0 
-0.457509 -0.671321 0 
-0.405555 -0.646545 0 
-0.354417 -0.670703 0 
-0.302427 -0.639219 0 
-0.251503 -0.661417 0 
-0.20061 -0.684911 0 
-0.149717 -0.655943 0 
-0.0995004 -0.682466 0 
-0.0498216 -0.654561 0 
-5.02113e-05 -0.682664 0 
0.0496787 -0.654499 0 
0.0994374 -0.682501 0 
0.149603 -0.655909 0 
0.200573 -0.684972 0 
0.251388 -0.661524 0 
0.302407 -0.639359 0 
0.354397 -0.670836 0 
0.405575 -0.646641 0 
0.457525 -0.67138 0 
0.508497 -0.639623 0 
0.559063 -0.655324 0 
0.603436 -0.675715 0 
0.64769 -0.64769 0 
0.699048 -0.654824 0 
0.750552 -0.660811 0 
-0.789295 -0.614015 0 
-0.73348 -0.60813 0 
-0.675718 -0.603437 0 
-0.613088 -0.613088 0 
-0.55962 -0.604068 0 
-0.506189 -0.588854 0 
-0.455505 -0.618874 0 
-0.403019 -0.594688 0 
-0.352514 -0.618952 0 
-0.300977 -0.586897 0 
-0.250543 -0.608767 0 
-0.200257 -0.632053 0 
-0.150049 -0.601979 0 
-0.0998281 -0.628222 0 
-0.0500377 -0.599914 0 
-3.12334e-05 -0.628076 0 
0.0498927 -0.599835 0 
0.0997818 -0.628253 0 
0.149924 -0.601867 0 
0.200214 -0.632118 0 
0.250423 -0.608915 0 
0.30086 -0.587085 0 
0.352457 -0.619096 0 
0.402948 -0.594743 0 
0.455483 -0.618952 0 
0.506147 -0.588901 0 
0.55964 -0.604067 0 
0.613069 -0.613069 0 
0.675715 -0.603436 0 
0.733462 -0.608151 0 
0.789274 -0.614041 0 
-0.825268 -0.564741 0 
-0.769772 -0.561786 0 
-0.71337 -0.558104 0 
-0.655305 -0.55905 0 
-0.604068 -0.55962 0 
-0.551031 -0.551031 0 
-0.497922 -0.537596 0 
-0.451508 -0.567021 0 
-0.399773 -0.542431 0 
-0.350494 -0.567003 0 
-0.301574 -0.534146 0 
-0.250874 -0.555692 0 
-0.200542 -0.579013 0 
-0.150324 -0.548268 0 
-0.100169 -0.57443 0 
-0.0500152 -0.545912 0 
-3.29278e-05 -0.574268 0 
0.0499208 -0.545788 0 
0.100058 -0.574485 0 
0.150038 -0.548073 0 
0.200377 -0.579041 0 
0.250556 -0.55585 0 
0.301273 -0.534348 0 
0.350318 -0.567174 0 
0.399615 -0.542384 0 
0.451404 -0.5671 0 
0.497945 -0.537702 0 
0.551073 -0.551073 0 
0.604067 -0.55964 0 
0.655324 -0.559063 0 
0.713361 -0.558131 0 
0.769761 -0.561819 0 
0.825243 -0.564777 0 
-0.857917 -0.513788 0 
-0.802945 -0.512908 0 
-0.747856 -0.510673 0 
-0.692659 -0.509495 0 
-0.639581 -0.508501 0 
-0.588854 -0.506189 0 
-0.537596 -0.497922 0 
-0.486157 -0.486157 0 
-0.444928 -0.512952 0 
-0.401787 -0.486784 0 
-0.351685 -0.513639 0 
-0.299695 -0.48291 0 
-0.250032 -0.503 0 
-0.200501 -0.526165 0 
-0.149489 -0.495195 0 
-0.0999281 -0.521367 0 
-0.0499712 -0.492294 0 
4.64723e-05 -0.520999 0 
0.050147 -0.492108 0 
0.099934 -0.52133 0 
0.14957 -0.494692 0 
0.200133 -0.526255 0 
0.249839 -0.503309 0 
0.299839 -0.483005 0 
0.351514 -0.513798 0 
0.401881 -0.486608 0 
0.444935 -0.513054 0 
0.486228 -0.486228 0 
0.537702 -0.497945 0 
0.588901 -0.506147 0 
0.639623 -0.508497 0 
0.692668 -0.509524 0 
0.747859 -0.510716 0 
0.802929 -0.512965 0 
0.857885 -0.513842 0 
-0.887039 -0.461695 0 
-0.832348 -0.462372 0 
-0.778365 -0.460836 0 
-0.724356 -0.45935 0 
-0.671321 -0.457509 0 
-0.618874 -0.455505 0 
-0.567021 -0.451508 0 
-0.512952 -0.444928 0 
-0.450685 -0.450685 0 
-0.397667 -0.437543 0 
-0.348492 -0.462546 0 
-0.295416 -0.432968 0 
-0.247004 -0.450633 0 
-0.198702 -0.473818 0 
-0.150161 -0.441625 0 
-0.100085 -0.468395 0 
-0.0502271 -0.439281 0 
0.000144229 -0.468374 0 
0.0504178 -0.439106 0 
0.100428 -0.468348 0 
0.150697 -0.441105 0 
0.199103 -0.473881 0 
0.247983 -0.450921 0 
0.296569 -0.432268 0 
0.348831 -0.462562 0 
0.397506 -0.4368 0 
0.450637 -0.450637 0 
0.513054 -0.444935 0 
0.5671 -0.451404 0 
0.618952 -0.455483 0 
0.67138 -0.457525 0 
0.724407 -0.459374 0 
0.778382 -0.460863 0 
0.83234 -0.462414 0 
0.887011 -0.461748 0 
-0.912466 -0.409153 0 
-0.857936 -0.411157 0 
-0.804631 -0.410124 0 
-0.751554 -0.408794 0 
-0.698865 -0.407328 0 
-0.646545 -0.405555 0 
-0.594688 -0.403019 0 
-0.542431 -0.399773 0 
-0.486784 -0.401787 0 
-0.437543 -0.397667 0 
-0.387256 -0.387256 0 
-0.344215 -0.411459 0 
-0.30136 -0.381507 0 
-0.25021 -0.395692 0 
-0.200211 -0.419975 0 
-0.150955 -0.389014 0 
-0.100617 -0.416095 0 
-0.0503197 -0.386922 0 
-4.02994e-05 -0.416525 0 
0.05006 -0.386948 0 
0.100784 -0.416323 0 
0.150432 -0.388572 0 
0.200855 -0.420694 0 
0.25086 -0.396905 0 
0.301746 -0.379789 0 
0.344135 -0.410678 0 
0.385823 -0.385823 0 
0.4368 -0.397506 0 
0.486608 -0.401881 0 
0.542384 -0.399615 0 
0.594743 -0.402948 0 
0.646641 -0.405575 0 
0.698945 -0.407371 0 
0.751626 -0.408863 0 
0.804654 -0.410181 0 
0.857929 -0.411236 0 
0.912429 -0.409236 0 
-0.934288 -0.356519 0 
-0.879963 -0.359855 0 
-0.827415 -0.358606 0 
-0.774971 -0.357337 0 
-0.722823 -0.355968 0 
-0.670703 -0.354417 0 
-0.618952 -0.352514 0 
-0.567003 -0.350494 0 
-0.513639 -0.351685 0 
-0.462546 -0.348492 0 
-0.411459 -0.344215 0 
-0.351697 -0.351697 0 
-0.29839 -0.336232 0 
-0.249846 -0.342529 0 
-0.200971 -0.367271 0 
-0.149995 -0.337521 0 
-0.100435 -0.3646 0 
-0.0498692 -0.335025 0 
-6.88684e-05 -0.365025 0 
0.0495433 -0.334795 0 
0.0996798 -0.364834 0 
0.148162 -0.337172 0 
0.199644 -0.368939 0 
0.24763 -0.345582 0 
0.295348 -0.332889 0 
0.34978 -0.34978 0 
0.410678 -0.344135 0 
0.462562 -0.348831 0 
0.513798 -0.351514 0 
0.567174 -0.350318 0 
0.619096 -0.352457 0 
0.670836 -0.354397 0 
0.722893 -0.355952 0 
0.775038 -0.357323 0 
0.827419 -0.358581 0 
0.879943 -0.359894 0 
0.93426 -0.356593 0 
-0.952721 -0.303845 0 
-0.898929 -0.308871 0 
-0.847481 -0.306888 0 
-0.795641 -0.305781 0 
-0.743684 -0.304815 0 
-0.691387 -0.303722 0 
-0.639219 -0.302427 0 
-0.586897 -0.300977 0 
-0.534146 -0.301574 0 
-0.48291 -0.299695 0 
-0.432968 -0.295416 0 
-0.381507 -0.30136 0 
-0.336232 -0.29839 0 
-0.288184 -0.288184 0 
-0.242975 -0.290577 0 
-0.198059 -0.315051 0 
-0.148383 -0.285894 0 
-0.0994753 -0.313232 0 
-0.0507184 -0.283118 0 
-0.000202902 -0.313447 0 
0.0500077 -0.282824 0 
0.0988289 -0.312817 0 
0.148102 -0.28482 0 
0.195742 -0.317413 0 
0.240766 -0.295824 0 
0.285014 -0.285014 0 
0.332889 -0.295348 0 
0.379789 -0.301746 0 
0.432268 -0.296569 0 
0.483005 -0.299839 0 
0.534348 -0.301273 0 
0.587085 -0.30086 0 
0.639359 -0.302407 0 
0.691518 -0.303753 0 
0.743741 -0.304862 0 
0.795701 -0.305831 0 
0.847482 -0.306946 0 
0.898924 -0.308979 0 
0.952687 -0.303953 0 
-0.96803 -0.250833 0 
-0.916037 -0.258282 0 
-0.866979 -0.254732 0 
-0.816639 -0.25358 0 
-0.765535 -0.252907 0 
-0.71362 -0.252254 0 
-0.661417 -0.251503 0 
-0.608767 -0.250543 0 
-0.555692 -0.250874 0 
-0.503 -0.250032 0 
-0.450633 -0.247004 0 
-0.395692 -0.25021 0 
-0.342529 -0.249846 0 
-0.290577 -0.242975 0 
-0.239946 -0.239946 0 
-0.194478 -0.26004 0 
-0.151293 -0.23238 0 
-0.101048 -0.260904 0 
-0.0503938 -0.232537 0 
-0.000203281 -0.262984 0 
0.050638 -0.232316 0 
0.100942 -0.260855 0 
0.152412 -0.232597 0 
0.195768 -0.261421 0 
0.241873 -0.241873 0 
0.295824 -0.240766 0 
0.345582 -0.24763 0 
0.396905 -0.25086 0 
0.450921 -0.247983 0 
[...]
POINT_DATA 1245 
VECTORS vectors float
0.429736 -0.171203 0.886576 
0.437733 -0.128236 0.889913 
0.451927 -0.0872984 0.887773 
0.465297 -0.0580573 0.883249 
0.47675 -0.0324439 0.87844 
0.483749 -0.0127496 0.875114 
0.487344 0.00635455 0.873187 
0.485923 0.0262507 0.873607 
0.483757 0.0487593 0.873843 
0.481563 0.0765185 0.873065 
0.480888 0.102172 0.870809 
0.482425 0.128594 0.866447 
0.483534 0.147248 0.862852 
0.432498 -0.245876 0.867462 
0.428433 -0.212402 0.878254 
0.368498 -0.158175 0.916073 
0.375257 -0.125044 0.918448 
0.391772 -0.0925832 0.915392 
0.382022 -0.0628515 0.922013 
0.407801 -0.0379069 0.912284 
0.394096 -0.0162403 0.918926 
0.417248 0.00398409 0.908784 
0.398836 0.0251426 0.916677 
0.416986 0.0483307 0.907627 
0.400383 0.0688557 0.913757 
0.419733 0.0945833 0.902706 
0.410538 0.111832 0.90496 
0.406453 0.125421 0.905022 
0.480778 0.15889 0.862326 
0.470043 0.165512 0.866986 
0.436469 -0.282433 0.85424 
0.437211 -0.268846 0.858235 
0.3707 -0.214712 0.903593 
0.36921 -0.188479 0.910033 
0.31473 -0.139357 0.938895 
0.320074 -0.112083 0.940739 
0.334457 -0.0854535 0.938529 
0.315022 -0.0570309 0.947369 
0.34267 -0.036761 0.938736 
0.319483 -0.016784 0.947443 
0.350645 0.00291688 0.936504 
0.323128 0.0186668 0.946171 
0.352666 0.0406116 0.934868 
0.328341 0.0552501 0.942942 
0.358112 0.0797463 0.930267 
0.345328 0.0934519 0.933818 
0.336443 0.106777 0.935631 
0.399295 0.136293 0.906635 
0.385128 0.145993 0.911243 
0.447603 0.172057 0.877524 
0.412459 0.184769 0.892041 
0.425936 -0.290855 0.856728 
0.366195 -0.246648 0.897254 
0.37129 -0.233446 0.898692 
0.313614 -0.185753 0.931205 
0.312381 -0.165241 0.935475 
0.264092 -0.12277 0.956652 
0.269842 -0.101067 0.957586 
0.284138 -0.0780749 0.955599 
0.256964 -0.0533655 0.964946 
0.282778 -0.0349178 0.95855 
0.257233 -0.0169387 0.966201 
0.286532 -0.000253127 0.958071 
0.26057 0.0143605 0.965348 
0.290088 0.0327644 0.956439 
0.267602 0.0454046 0.962459 
0.299201 0.0668762 0.951844 
0.285862 0.0795108 0.954967 
0.2759 0.0909646 0.956872 
0.327387 0.117813 0.937517 
0.312683 0.129897 0.940934 
0.362578 0.157244 0.918592 
0.330977 0.175627 0.927151 
0.367812 0.209318 0.906035 
0.372928 -0.315229 0.872671 
0.404073 -0.300146 0.864081 
0.352094 -0.257691 0.899792 
0.302116 -0.216494 0.928362 
0.31055 -0.203086 0.928609 
0.26068 -0.162362 0.951675 
0.263289 -0.14347 0.953989 
0.219853 -0.108281 0.969505 
0.225933 -0.0894796 0.970025 
0.236086 -0.0710861 0.969128 
0.210356 -0.0487608 0.976408 
0.22992 -0.0331026 0.972646 
0.206479 -0.0174785 0.978295 
0.230865 -0.00248409 0.972983 
0.208407 0.00986376 0.977993 
0.235121 0.0260528 0.971617 
0.215744 0.0371522 0.975743 
0.246996 0.0563718 0.967376 
0.232947 0.0673426 0.970155 
0.223083 0.0789702 0.971595 
0.265034 0.103641 0.958653 
0.251444 0.11719 0.960751 
0.290824 0.145409 0.945663 
0.264189 0.166305 0.950025 
0.294141 0.203518 0.933842 
0.320121 0.248423 0.914226 
0.277897 0.298986 0.912897 
0.335355 -0.339977 0.878608 
0.308955 -0.291218 0.905394 
0.329831 -0.270143 0.904563 
0.287037 -0.228758 0.930204 
0.247581 -0.191911 0.949671 
0.257093 -0.177157 0.95001 
0.216145 -0.141485 0.966056 
0.218245 -0.125085 0.967845 
0.181623 -0.093921 0.978873 
0.185764 -0.0793285 0.979387 
0.194666 -0.0642108 0.978766 
0.169442 -0.0442258 0.984547 
0.185193 -0.0310932 0.98221 
0.164116 -0.0170653 0.986293 
0.184281 -0.00421237 0.982864 
0.165108 0.00640712 0.986255 
0.188329 0.0206493 0.981889 
0.172336 0.0300419 0.98458 
0.199458 0.047012 0.978778 
0.188539 0.0575026 0.980381 
0.177703 0.0686113 0.981689 
0.21348 0.0913089 0.972671 
0.200627 0.10682 0.973827 
0.232734 0.134485 0.963197 
0.210401 0.158039 0.964756 
0.235163 0.194321 0.952333 
0.258841 0.240103 0.935602 
0.233628 0.286945 0.929021 
0.246533 0.357198 0.900906 
0.299299 -0.372292 0.878532 
0.278291 -0.315799 0.907097 
0.255371 -0.267398 0.929131 
0.266674 -0.243677 0.932473 
0.232124 -0.207146 0.950373 
0.203269 -0.171592 0.96397 
0.210533 -0.15669 0.964948 
0.177046 -0.123952 0.976366 
0.179048 -0.110091 0.977661 
0.147484 -0.0827944 0.985593 
0.151591 -0.0698565 0.985972 
0.158954 -0.0569085 0.985644 
0.135945 -0.0397976 0.989917 
0.14848 -0.0289294 0.988492 
0.129725 -0.0166033 0.991411 
0.14632 -0.00590065 0.98922 
0.129823 0.00375493 0.99153 
0.149386 0.0158546 0.988652 
0.13579 0.0243081 0.990439 
0.159755 0.0396953 0.986358 
0.149081 0.048852 0.987617 
0.141889 0.0600168 0.988061 
0.170387 0.0815467 0.981997 
0.160092 0.0969778 0.982327 
0.185934 0.124922 0.974589 
0.169683 0.148758 0.974207 
0.188286 0.187245 0.964099 
0.209015 0.228845 0.950759 
0.19791 0.26916 0.942541 
0.212403 0.334729 0.918064 
0.229944 0.41159 0.881884 
0.270598 -0.405864 0.872955 
0.248655 -0.336716 0.908181 
0.227413 -0.277116 0.933536 
0.215453 -0.22931 0.949209 
0.192613 -0.189863 0.962732 
0.166532 -0.155238 0.973739 
0.172363 -0.138631 0.975229 
0.143467 -0.109809 0.983544 
0.146819 -0.0953291 0.984559 
0.119181 -0.0721855 0.990245 
0.122598 -0.0608572 0.990589 
0.127721 -0.0505968 0.990519 
0.108054 -0.0356313 0.993506 
0.117253 -0.0263077 0.992754 
0.101915 -0.0160486 0.994664 
0.114505 -0.00664549 0.9934 
0.10145 0.00131001 0.99484 
0.116899 0.0118703 0.993073 
0.106088 0.0196616 0.994162 
0.125821 0.0327454 0.991512 
0.117768 0.0421644 0.992146 
0.11047 0.0522932 0.992503 
0.134428 0.0728242 0.988244 
0.127159 0.0880763 0.987964 
0.148449 0.115824 0.982114 
0.138378 0.139583 0.980494 
0.155399 0.17863 0.971567 
0.169856 0.227169 0.958928 
0.180234 0.290981 0.939599 
0.19982 0.367159 0.908442 
0.224741 0.453449 0.862482 
0.24831 -0.437701 0.864153 
0.227187 -0.363712 0.903382 
0.20675 -0.299217 0.931517 
0.189685 -0.245973 0.950535 
0.175334 -0.206033 0.962709 
0.15592 -0.169183 0.973173 
0.134938 -0.136959 0.981343 
0.14018 -0.122188 0.982558 
0.116367 -0.0956814 0.988587 
0.118171 -0.0841923 0.989418 
0.0959452 -0.0633654 0.993368 
0.0975489 -0.053963 0.993767 
0.102079 -0.0445899 0.993776 
0.0848433 -0.0316198 0.995892 
0.0925455 -0.0241562 0.995415 
0.0788202 -0.0147846 0.996779 
0.0896111 -0.00736832 0.99595 
0.0777489 -6.87955e-05 0.996973 
0.0909449 0.00879126 0.995817 
0.081614 0.0154817 0.996544 
0.0982216 0.0274701 0.994785 
0.0910684 0.0360528 0.995192 
0.0867498 0.046399 0.995149 
0.106481 0.0649503 0.992191 
0.0999924 0.0794069 0.991815 
0.118577 0.105857 0.987286 
0.111536 0.125569 0.985795 
0.126403 0.16309 0.97848 
0.142025 0.206368 0.968112 
0.153127 0.256426 0.954357 
0.171651 0.322361 0.930924 
0.195907 0.39951 0.895551 
0.224487 0.483994 0.845787 
0.231489 -0.464532 0.854765 
0.209689 -0.38792 0.897524 
0.189571 -0.320869 0.927958 
0.171322 -0.264155 0.949142 
0.155872 -0.217768 0.963474 
0.141158 -0.181019 0.973297 
0.124313 -0.148016 0.981141 
0.109082 -0.118096 0.986993 
0.110779 -0.107901 0.98797 
0.0929789 -0.0853173 0.992006 
0.0947804 -0.074594 0.9927 
0.0762286 -0.0558219 0.995527 
0.0776797 -0.0468135 0.995879 
0.0808904 -0.0395074 0.99594 
0.0666486 -0.0280388 0.997382 
0.0722552 -0.0219623 0.997144 
0.0615006 -0.0141674 0.998006 
0.0694122 -0.00790229 0.997557 
0.0603597 -0.00169458 0.998175 
0.070186 0.00600646 0.997516 
0.0627372 0.0122898 0.997954 
0.0758008 0.0230246 0.996857 
0.0708235 0.0308623 0.997011 
0.0666871 0.0407132 0.996943 
0.0826677 0.0586038 0.994853 
0.0780394 0.0729696 0.994276 
0.0936059 0.094262 0.991137 
0.0887362 0.111605 0.989783 
0.102529 0.143003 0.984397 
0.115227 0.18207 0.976511 
0.12931 0.226293 0.965438 
0.14612 0.281036 0.948508 
0.167328 0.347034 0.922805 
0.19425 0.422547 0.88528 
0.224945 0.504305 0.833712 
0.218193 -0.485114 0.846791 
0.195725 -0.407337 0.892058 
0.174855 -0.338677 0.924513 
0.155985 -0.279027 0.94753 
0.140025 -0.229636 0.963151 
0.12469 -0.188386 0.974147 
0.111577 -0.152946 0.981916 
0.0965935 -0.123471 0.987636 
0.0875101 -0.0972008 0.99141 
0.0750007 -0.0757081 0.994305 
0.0761307 -0.0654284 0.994949 
0.0611187 -0.0481858 0.996967 
0.0610462 -0.0411238 0.997287 
0.0635098 -0.0342321 0.997394 
0.0516901 -0.0251953 0.998345 
0.0561311 -0.0194883 0.998233 
0.0468261 -0.0133114 0.998814 
0.0531292 -0.0074829 0.99856 
0.0454426 -0.00266768 0.998963 
0.0533574 0.00439076 0.998566 
0.0475903 0.00940721 0.998823 
0.0580787 0.0188381 0.998134 
0.053874 0.0263493 0.9982 
0.0523436 0.0350688 0.998013 
0.0650988 0.0519591 0.996525 
0.0617696 0.0650884 0.995966 
0.0724486 0.0878242 0.993498 
0.0799231 0.117969 0.989796 
0.0918074 0.153814 0.983825 
0.105716 0.193613 0.975366 
0.12078 0.241447 0.962868 
0.140701 0.297696 0.944235 
0.164413 0.363281 0.917058 
0.192432 0.436784 0.878743 
0.224077 0.516561 0.82641 
0.206871 -0.499453 0.84128 
0.183767 -0.421216 0.888148 
0.161975 -0.351258 0.922162 
0.143616 -0.291003 0.945881 
0.126629 -0.239216 0.962674 
0.112269 -0.195306 0.974295 
0.0991393 -0.159297 0.98224 
0.0872986 -0.128262 0.987891 
0.0784288 -0.102014 0.991686 
0.0688324 -0.0825797 0.994205 
0.0596717 -0.0654748 0.996068 
0.0604449 -0.0566597 0.996562 
0.0491349 -0.0445572 0.997798 
0.0479368 -0.0357716 0.99821 
0.0498565 -0.0303962 0.998294 
0.0405961 -0.0217962 0.998938 
0.0438157 -0.0178986 0.998879 
0.0369339 -0.0117009 0.999249 
0.0416077 -0.00789597 0.999103 
0.0355089 -0.00273313 0.999366 
0.0412418 0.00245575 0.999146 
0.036202 0.00788385 0.999313 
0.044366 0.0161514 0.998885 
0.0411753 0.022863 0.99889 
0.0403319 0.0322654 0.998665 
0.0497699 0.0452323 0.997736 
0.0481349 0.0554827 0.997299 
0.0560174 0.0746325 0.995636 
0.063604 0.0980574 0.993146 
0.0724771 0.127131 0.989234 
0.0839218 0.161918 0.983229 
0.0980318 0.203 0.974259 
0.115236 0.251268 0.961033 
0.135684 0.307452 0.94184 
0.16073 0.371693 0.914336 
0.189609 0.443702 0.875886 
0.221828 0.522099 0.823532 
0.196005 -0.507851 0.83885 
0.172412 -0.429469 0.886471 
0.151127 -0.360144 0.920574 
0.131639 -0.298603 0.945255 
0.115176 -0.245883 0.962432 
0.10088 -0.201051 0.974372 
0.0880644 -0.163236 0.982649 
0.0775342 -0.13129 0.988307 
0.0679921 -0.105446 0.992098 
0.0601469 -0.0838863 0.994658 
0.0523211 -0.0661569 0.996437 
0.047729 -0.0513684 0.997539 
0.0402652 -0.0385236 0.998446 
0.0379076 -0.0318896 0.998772 
0.0391441 -0.0271343 0.998865 
0.0319679 -0.0197946 0.999293 
0.0340977 -0.016307 0.999285 
0.0281492 -0.0114392 0.999538 
0.0315155 -0.00781013 0.999473 
0.0269009 -0.00392063 0.99963 
0.031398 0.00103618 0.999506 
0.0279239 0.00524793 0.999596 
0.0339811 0.0127906 0.999341 
0.0315931 0.019542 0.99931 
0.031727 0.0271553 0.999128 
0.037916 0.0412085 0.998431 
0.0418346 0.058733 0.997397 
0.0484966 0.0793889 0.995663 
0.0560872 0.102374 0.993164 
0.0650285 0.132675 0.989024 
0.076857 0.166692 0.983009 
0.0911748 0.208323 0.973801 
0.108757 0.255582 0.960651 
0.130153 0.311209 0.941387 
0.155552 0.373699 0.914414 
0.185191 0.444119 0.87662 
0.218356 0.520994 0.825158 
0.184358 -0.510651 0.83979 
0.161857 -0.434053 0.886228 
0.139576 -0.365051 0.920465 
0.121149 -0.303508 0.945095 
0.104788 -0.250626 0.962396 
0.0905072 -0.20432 0.974711 
0.078718 -0.165411 0.983078 
0.0677704 -0.133088 0.988785 
0.059795 -0.105768 0.992591 
0.0521376 -0.0842213 0.995082 
0.045106 -0.0665773 0.996761 
0.0418352 -0.0529253 0.997722 
0.0365073 -0.0429738 0.998409 
0.0323245 -0.033231 0.998925 
0.0300839 -0.0271513 0.999179 
0.0309376 -0.0230065 0.999257 
0.0256831 -0.0173331 0.99952 
0.027372 -0.0139025 0.999529 
0.0232418 -0.0102354 0.999677 
0.0257274 -0.00678887 0.999646 
0.0217796 -0.00365746 0.999756 
0.024665 0.000656664 0.999696 
0.0218864 0.00426371 0.999751 
0.0260561 0.0108072 0.999602 
0.0246282 0.0156744 0.999574 
0.0248025 0.0224095 0.999441 
0.0283497 0.0331304 0.999049 
0.0321866 0.0454002 0.99845 
0.0359298 0.061291 0.997473 
0.041887 0.0807255 0.995856 
0.0490943 0.105461 0.993211 
0.0580919 0.133597 0.989332 
0.0697703 0.169472 0.983062 
0.0838984 0.20893 0.974325 
0.101876 0.257343 0.960935 
0.122839 0.309783 0.942839 
0.148526 0.3716 0.916435 
0.178721 0.438882 0.880591 
0.212599 0.512441 0.831989 
0.170637 -0.50895 0.843714 
0.149655 -0.436557 0.887142 
0.129095 -0.368649 0.920561 
0.110844 -0.310061 0.944233 
0.0952254 -0.255702 0.962054 
0.0817899 -0.209663 0.974347 
0.0699215 -0.169838 0.982988 
0.0604592 -0.135656 0.98891 
0.0521569 -0.108081 0.992773 
0.0449481 -0.0849333 0.995372 
0.0395066 -0.0661062 0.99703 
0.0344014 -0.0514895 0.998081 
0.0310875 -0.0394589 0.998737 
0.0272336 -0.0304131 0.999166 
0.0241542 -0.023686 0.999428 
0.0248527 -0.020228 0.999486 
0.020917 -0.0152125 0.999665 
0.0216537 -0.0130629 0.99968 
0.0187634 -0.00902073 0.999783 
0.0196472 -0.00708733 0.999782 
0.0177533 -0.00347146 0.999836 
0.0193198 -0.000374871 0.999813 
0.0175387 0.00398881 0.999838 
0.0202034 0.00861879 0.999759 
0.0193989 0.0139278 0.999715 
0.0206415 0.0226063 0.999531 
0.0234207 0.0325111 0.999197 
0.0268673 0.0459377 0.998583 
0.0305024 0.0626988 0.997566 
0.0361301 0.0830997 0.995886 
0.0431212 0.107386 0.993282 
0.0516441 0.137361 0.989174 
0.0628237 0.171258 0.983221 
0.0768943 0.212376 0.974158 
0.0932851 0.256792 0.961954 
0.114509 0.310042 0.943802 
0.138882 0.365463 0.920407 
0.169038 0.430584 0.88658 
0.201612 0.496196 0.844477 
0.151921 -0.503083 0.850781 
0.137583 -0.440302 0.887246 
0.118229 -0.378995 0.917815 
0.100802 -0.317394 0.942921 
0.0863112 -0.264693 0.960462 
0.0732098 -0.216851 0.973456 
0.0626878 -0.175371 0.982505 
0.0531041 -0.140859 0.988604 
0.04558 -0.111532 0.992715 
0.0396783 -0.0875457 0.99537 
0.0340612 -0.0684707 0.997072 
0.0300229 -0.052702 0.998159 
0.0272914 -0.0406016 0.998803 
0.0235564 -0.0313887 0.99923 
0.0218891 -0.0235224 0.999484 
0.0203124 -0.0182325 0.999627 
0.0178578 -0.0136325 0.999748 
0.0188253 -0.011541 0.999756 
0.0158836 -0.00826901 0.99984 
0.0174953 -0.00626037 0.999827 
0.0148211 -0.00376418 0.999883 
0.0161824 -0.00050081 0.999869 
0.0150414 0.00270983 0.999883 
0.0159752 0.0082623 0.999838 
0.0164576 0.0153035 0.999747 
0.0177386 0.0240148 0.999554 
0.0199428 0.0354494 0.999172 
0.0226496 0.0488917 0.998547 
0.0263152 0.0657553 0.997489 
0.030957 0.0867003 0.995753 
0.0372371 0.111535 0.993063 
0.0453711 0.141085 0.988957 
0.0552333 0.175892 0.982859 
0.0680865 0.215283 0.974175 
0.0840982 0.260751 0.961736 
0.102838 0.309087 0.945457 
0.126627 0.364816 0.922429 
0.155782 0.421157 0.893509 
0.179211 0.472165 0.863101 
0.13222 -0.495693 0.858374 
0.11427 -0.415263 0.902496 
0.0933507 -0.341377 0.935279 
0.0780362 -0.280744 0.956605 
0.0652585 -0.227642 0.971556 
0.0546448 -0.184159 0.981376 
0.0460922 -0.146716 0.988104 
0.0393754 -0.115822 0.992489 
0.0336022 -0.0909956 0.995284 
0.0289477 -0.070313 0.997105 
0.0260978 -0.0540687 0.998196 
0.0226873 -0.041793 0.998869 
0.0211302 -0.0317072 0.999274 
0.0191602 -0.0245445 0.999515 
0.017748 -0.0188897 0.999664 
0.0169133 -0.0147705 0.999748 
0.0157767 -0.0115939 0.999808 
0.0155967 -0.00972713 0.999831 
0.0149231 -0.0076119 0.99986 
0.0148264 -0.00565723 0.999874 
0.0135655 -0.00319291 0.999903 
0.014303 -0.000768152 0.999897 
0.0123651 0.00146148 0.999922 
0.0136188 0.00585823 0.99989 
0.0137568 0.0104461 0.999851 
0.0138932 0.0172673 0.999754 
0.0150078 0.0263166 0.999541 
0.0165089 0.0370613 0.999177 
0.018783 0.0514034 0.998501 
0.0213668 0.0690304 0.997386 
0.025688 0.0902076 0.995592 
0.0306268 0.116104 0.992765 
0.0373747 0.146478 0.988508 
0.0464076 0.181975 0.982207 
0.0572879 0.222693 0.973204 
0.0719089 0.26959 0.960286 
0.0919506 0.322932 0.941945 
0.119583 0.385359 0.914985 
0.147733 0.449035 0.881217 
0.107905 -0.486891 0.866772 
0.097844 -0.424498 0.900126 
0.0822624 -0.358368 0.929949 
0.0677502 -0.29661 0.952592 
0.0557624 -0.241932 0.968689 
0.0464733 -0.195305 0.979641 
0.0387244 -0.155721 0.987042 
0.0324704 -0.12359 0.991802 
0.027708 -0.0965927 0.994938 
0.0243977 -0.0749504 0.996889 
0.0212249 -0.058156 0.998082 
0.0193476 -0.0440389 0.998842 
0.0181467 -0.0339959 0.999257 
0.0163998 -0.0258207 0.999532 
0.0161061 -0.0196432 0.999677 
0.0152795 -0.0154392 0.999764 
0.0143595 -0.0115749 0.99983 
0.0141119 -0.00902198 0.99986 
0.0128747 -0.00652558 0.999896 
0.0134149 -0.0050457 0.999897 
0.0123018 -0.002685 0.999921 
0.0125019 -0.00049867 0.999922 
0.012454 0.00348784 0.999916 
0.0111876 0.00736683 0.99991 
0.0120263 0.0131779 0.999841 
0.0117538 0.020405 0.999723 
0.0124238 0.0298721 0.999477 
0.0132995 0.0419867 0.99903 
0.0147035 0.0565446 0.998292 
0.0166843 0.0750561 0.99704 
0.0192178 0.0973961 0.99506 
0.0232001 0.123762 0.992041 
0.0278635 0.155266 0.98748 
0.0343698 0.191628 0.980866 
0.0431756 0.233053 0.971505 
0.0543134 0.279829 0.958512 
0.0694164 0.329661 0.941544 
0.0915249 0.383007 0.9192 
0.0999024 0.426451 0.898976 
0.0843608 -0.479475 0.873491 
0.0713317 -0.394886 0.915957 
0.0564104 -0.323372 0.944589 
0.0455248 -0.260788 0.964322 
0.0366327 -0.209876 0.977042 
0.029632 -0.167484 0.985429 
0.0246814 -0.132352 0.990895 
0.021049 -0.103404 0.994417 
0.0179394 -0.0808249 0.996567 
0.0163032 -0.0614307 0.997978 
0.0153026 -0.047264 0.998765 
0.0140887 -0.0357325 0.999262 
0.0140313 -0.0269196 0.999539 
0.013755 -0.0206708 0.999692 
0.013231 -0.0153722 0.999794 
0.0134913 -0.0122933 0.999833 
0.0130172 -0.00936781 0.999871 
0.0131443 -0.00744008 0.999886 
0.0135976 -0.00512741 0.999894 
0.0122919 -0.004912 0.999912 
0.0124978 -0.00309513 0.999917 
0.0117437 -0.00115701 0.99993 
0.0109726 0.00156075 0.999939 
0.010222 0.00464325 0.999937 
0.0105788 0.00968765 0.999897 
0.00944356 0.01522 0.99984 
0.00956746 0.0232597 0.999684 
0.00919819 0.0334012 0.9994 
0.00949072 0.0460403 0.998894 
0.00961961 0.0622466 0.998014 
0.0103643 0.0816957 0.996603 
0.0115509 0.105584 0.994343 
0.0129452 0.133911 0.990909 
0.0156889 0.16697 0.985837 
0.018715 0.205694 0.978437 
0.0233089 0.249423 0.968114 
0.0310187 0.300443 0.953295 
0.040887 0.354589 0.934128 
0.0494839 0.414795 0.908568 
0.0598023 -0.47048 0.880382 
0.0497239 -0.406375 0.912352 
0.0406232 -0.340579 0.939338 
0.0315139 -0.280084 0.959458 
0.0242073 -0.226798 0.973641 
0.018994 -0.181547 0.983199 
0.0151623 -0.144139 0.989441 
0.0121664 -0.113898 0.993418 
0.0109123 -0.0886304 0.996005 
0.0102768 -0.0684468 0.997602 
0.00954545 -0.0529371 0.998552 
0.0101426 -0.0396801 0.999161 
0.0104936 -0.030629 0.999476 
0.0105897 -0.0225423 0.99969 
0.0114657 -0.0174617 0.999782 
0.0116848 -0.0131981 0.999845 
0.0116553 -0.00980218 0.999884 
0.0126319 -0.00786286 0.999889 
0.0108442 -0.00618296 0.999922 
0.0105811 -0.0035218 0.999938 
0.0110257 -0.00120818 0.999938 
0.010311 0.000480194 0.999947 
0.0103637 0.00375261 0.999939 
0.0089065 0.00760128 0.999931 
0.00821939 0.0125296 0.999888 
0.00734684 0.0196443 0.99978 
0.00634797 0.0281935 0.999582 
0.00538692 0.0396452 0.999199 
0.00436581 0.0534865 0.998559 
0.00352928 0.0711116 0.997462 
0.00222294 0.0923668 0.995723 
0.00153121 0.117769 0.99304 
0.000301725 0.148223 0.988954 
-0.000730444 0.183398 0.983038 
-0.00155902 0.224129 0.974558 
-0.00304206 0.269368 0.963032 
-0.00433437 0.317543 0.948234 
-0.0053223 0.366038 0.930585 
-0.00738588 0.410892 0.911654 
0.0334044 -0.460108 0.887235 
0.0210467 -0.375033 0.926773 
0.0145528 -0.306247 0.951841 
0.00928641 -0.246612 0.96907 
0.00521832 -0.197959 0.980196 
0.00250834 -0.158149 0.987412 
0.0017269 -0.124774 0.992184 
0.00157735 -0.0976635 0.995218 
0.00171315 -0.0762069 0.997091 
0.00326837 -0.0578156 0.998322 
0.0044442 -0.0445598 0.998997 
0.00554074 -0.0330741 0.999438 
0.00749103 -0.0253327 0.999651 
0.00843091 -0.018505 0.999793 
0.0092839 -0.0141119 0.999857 
0.0106734 -0.0106348 0.999886 
0.0103131 -0.00833477 0.999912 
0.0116644 -0.00553479 0.999917 
0.0122247 -0.00492899 0.999913 
0.0111633 -0.00243684 0.999935 
0.0112351 -0.00299182 0.999932 
0.0104094 0.000189074 0.999946 
0.00926723 0.00204542 0.999955 
0.00824092 0.00543367 0.999951 
0.00725499 0.00970802 0.999927 
0.00583589 0.0157288 0.999859 
0.00410468 0.0229557 0.999728 
0.00244205 0.0330864 0.99945 
0.000387507 0.0456096 0.998959 
-0.00198391 0.0613982 0.998111 
-0.00465442 0.0807892 0.99672 
-0.00762845 0.10463 0.994482 
-0.0115877 0.132796 0.991076 