# vtk DataFile Version 3.0 
Exported using Morpho https://github.com/Morpho-lang/morpho 
ASCII 
DATASET UNSTRUCTURED_GRID 

POINTS 1245 float 
-0.303845 -0.952721 0 
-0.250833 -0.96803 0 
-0.195084 -0.980787 0 
-0.146308 -0.989239 0 
-0.0940719 -0.995565 0 
-0.0475118 -0.998871 0 
-0.000246339 -1 0 
0.0470875 -0.998891 0 
0.0937543 -0.995595 0 
0.146139 -0.989264 0 
0.195062 -0.980791 0 
0.250843 -0.968028 0 
0.303953 -0.952687 0 
-0.409153 -0.912466 0 
-0.356519 -0.934288 0 
-0.308871 -0.898929 0 
-0.258282 -0.916037 0 
-0.207345 -0.934859 0 
-0.154868 -0.930629 0 
-0.104343 -0.948989 0 
-0.0520099 -0.939193 0 
-8.5762e-05 -0.954582 0 
0.0518744 -0.939288 0 
0.104354 -0.949042 0 
0.154696 -0.9306 0 
0.207366 -0.934975 0 
0.258274 -0.916081 0 
0.308979 -0.898924 0 
0.356593 -0.93426 0 
0.409236 -0.912429 0 
-0.513788 -0.857917 0 
-0.461695 -0.887039 0 
-0.411157 -0.857936 0 
-0.359855 -0.879963 0 
-0.306888 -0.847481 0 
-0.254732 -0.866979 0 
-0.201991 -0.889059 0 
-0.149956 -0.874108 0 
-0.100608 -0.900088 0 
-0.0497575 -0.880388 0 
2.4595e-05 -0.904789 0 
0.0496869 -0.8804 0 
0.100612 -0.900177 0 
0.149872 -0.874171 0 
0.202071 -0.889165 0 
0.254695 -0.867031 0 
0.306946 -0.847482 0 
0.359894 -0.879943 0 
0.411236 -0.857929 0 
0.461748 -0.887011 0 
0.513842 -0.857885 0 
-0.564741 -0.825268 0 
-0.512908 -0.802945 0 
-0.462372 -0.832348 0 
-0.410124 -0.804631 0 
-0.358606 -0.827415 0 
-0.305781 -0.795641 0 
-0.25358 -0.816639 0 
-0.200756 -0.839997 0 
-0.149043 -0.818944 0 
-0.0987265 -0.846667 0 
-0.0490473 -0.822548 0 
5.00659e-05 -0.849932 0 
0.0490834 -0.822542 0 
0.0987838 -0.846676 0 
0.148997 -0.818924 0 
0.200826 -0.840131 0 
0.253508 -0.816728 0 
0.305831 -0.795701 0 
0.358581 -0.827419 0 
0.410181 -0.804654 0 
0.462414 -0.83234 0 
0.512965 -0.802929 0 
0.564777 -0.825243 0 
-0.660798 -0.750564 0 
-0.614015 -0.789295 0 
-0.561786 -0.769772 0 
-0.510673 -0.747856 0 
-0.460836 -0.778365 0 
-0.408794 -0.751554 0 
-0.357337 -0.774971 0 
-0.304815 -0.743684 0 
-0.252907 -0.765535 0 
-0.200631 -0.789263 0 
-0.149244 -0.764328 0 
-0.0986912 -0.791935 0 
-0.0492815 -0.765764 0 
4.16586e-05 -0.79382 0 
0.0492411 -0.765708 0 
0.0987508 -0.791951 0 
0.149196 -0.764326 0 
0.200666 -0.789356 0 
0.252841 -0.765599 0 
0.304862 -0.743741 0 
0.357323 -0.775038 0 
0.408863 -0.751626 0 
0.460863 -0.778382 0 
0.510716 -0.747859 0 
0.561819 -0.769761 0 
0.614041 -0.789274 0 
0.660811 -0.750552 0 
-0.707107 -0.707107 0 
-0.654819 -0.699058 0 
-0.60813 -0.73348 0 
-0.558104 -0.71337 0 
-0.509495 -0.692659 0 
-0.45935 -0.724356 0 
-0.407328 -0.698865 0 
-0.355968 -0.722823 0 
-0.303722 -0.691387 0 
-0.252254 -0.71362 0 
-0.20067 -0.737336 0 
-0.149608 -0.710068 0 
-0.0991558 -0.737129 0 
-0.0495872 -0.709825 0 
-2.23646e-05 -0.737917 0 
0.0494408 -0.709766 0 
0.0991291 -0.737116 0 
0.149502 -0.710042 0 
0.200696 -0.73743 0 
0.252186 -0.713735 0 
0.303753 -0.691518 0 
0.355952 -0.722893 0 
0.407371 -0.698945 0 
0.459374 -0.724407 0 
0.509524 -0.692668 0 
0.558131 -0.713361 0 
0.608151 -0.733462 0 
0.654824 -0.699048 0 
0.707107 -0.707107 0 
-0.750564 -0.660798 0 
-0.699058 -0.654819 0 
-0.647692 -0.647692 0 
-0.603437 -0.675718 0 
-0.55905 -0.655305 0 
-0.508501 -0.639581 0 
-0.457509 -0.671321 0 
-0.405555 -0.646545 0 
-0.354417 -0.670703 0 
-0.302427 -0.639219 0 
-0.251503 -0.661417 0 
-0.20061 -0.684911 0 
-0.149717 -0.655943 0 
-0.0995004 -0.682466 0 
-0.0498216 -0.654561 0 
-5.02113e-05 -0.682664 0 
0.0496787 -0.654499 0 
0.0994374 -0.682501 0 
0.149603 -0.655909 0 
0.200573 -0.684972 0 
0.251388 -0.661524 0 
0.302407 -0.639359 0 
0.354397 -0.670836 0 
0.405575 -0.646641 0 
0.457525 -0.67138 0 
0.508497 -0.639623 0 
0.559063 -0.655324 0 
0.603436 -0.675715 0 
0.64769 -0.64769 0 
0.699048 -0.654824 0 
0.750552 -0.660811 0 
-0.789295 -0.614015 0 
-0.73348 -0.60813 0 
-0.675718 -0.603437 0 
-0.613088 -0.613088 0 
-0.55962 -0.604068 0 
-0.506189 -0.588854 0 
-0.455505 -0.618874 0 
-0.403019 -0.594688 0 
-0.352514 -0.618952 0 
-0.300977 -0.586897 0 
-0.250543 -0.608767 0 
-0.200257 -0.632053 0 
-0.150049 -0.601979 0 
-0.0998281 -0.628222 0 
-0.0500377 -0.599914 0 
-3.12334e-05 -0.628076 0 
0.0498927 -0.599835 0 
0.0997818 -0.628253 0 
0.149924 -0.601867 0 
0.200214 -0.632118 0 
0.250423 -0.608915 0 
0.30086 -0.587085 0 
0.352457 -0.619096 0 
0.402948 -0.594743 0 
0.455483 -0.618952 0 
0.506147 -0.588901 0 
0.55964 -0.604067 0 
0.613069 -0.613069 0 
0.675715 -0.603436 0 
0.733462 -0.608151 0 
0.789274 -0.614041 0 
-0.825268 -0.564741 0 
-0.769772 -0.561786 0 
-0.71337 -0.558104 0 
-0.655305 -0.55905 0 
-0.604068 -0.55962 0 
-0.551031 -0.551031 0 
-0.497922 -0.537596 0 
-0.451508 -0.567021 0 
-0.399773 -0.542431 0 
-0.350494 -0.567003 0 
-0.301574 -0.534146 0 
-0.250874 -0.555692 0 
-0.200542 -0.579013 0 
-0.150324 -0.548268 0 
-0.100169 -0.57443 0 
-0.0500152 -0.545912 0 
-3.29278e-05 -0.574268 0 
0.0499208 -0.545788 0 
0.100058 -0.574485 0 
0.150038 -0.548073 0 
0.200377 -0.579041 0 
0.250556 -0.55585 0 
0.301273 -0.534348 0 
0.350318 -0.567174 0 
0.399615 -0.542384 0 
0.451404 -0.5671 0 
0.497945 -0.537702 0 
0.551073 -0.551073 0 
0.604067 -0.55964 0 
0.655324 -0.559063 0 
0.713361 -0.558131 0 
0.769761 -0.561819 0 
0.825243 -0.564777 0 
-0.857917 -0.513788 0 
-0.802945 -0.512908 0 
-0.747856 -0.510673 0 
-0.692659 -0.509495 0 
-0.639581 -0.508501 0 
-0.588854 -0.506189 0 
-0.537596 -0.497922 0 
-0.486157 -0.486157 0 
-0.444928 -0.512952 0 
-0.401787 -0.486784 0 
-0.351685 -0.513639 0 
-0.299695 -0.48291 0 
-0.250032 -0.503 0 
-0.200501 -0.526165 0 
-0.149489 -0.495195 0 
-0.0999281 -0.521367 0 
-0.0499712 -0.492294 0 
4.64723e-05 -0.520999 0 
0.050147 -0.492108 0 
0.099934 -0.52133 0 
0.14957 -0.494692 0 
0.200133 -0.526255 0 
0.249839 -0.503309 0 
0.299839 -0.483005 0 
0.351514 -0.513798 0 
0.401881 -0.486608 0 
0.444935 -0.513054 0 
0.486228 -0.486228 0 
0.537702 -0.497945 0 
0.588901 -0.506147 0 
0.639623 -0.508497 0 
0.692668 -0.509524 0 
0.747859 -0.510716 0 
0.802929 -0.512965 0 
0.857885 -0.513842 0 
-0.887039 -0.461695 0 
-0.832348 -0.462372 0 
-0.778365 -0.460836 0 
-0.724356 -0.45935 0 
-0.671321 -0.457509 0 
-0.618874 -0.455505 0 
-0.567021 -0.451508 0 
-0.512952 -0.444928 0 
-0.450685 -0.450685 0 
-0.397667 -0.437543 0 
-0.348492 -0.462546 0 
-0.295416 -0.432968 0 
-0.247004 -0.450633 0 
-0.198702 -0.473818 0 
-0.150161 -0.441625 0 
-0.100085 -0.468395 0 
-0.0502271 -0.439281 0 
0.000144229 -0.468374 0 
0.0504178 -0.439106 0 
0.100428 -0.468348 0 
0.150697 -0.441105 0 
0.199103 -0.473881 0 
0.247983 -0.450921 0 
0.296569 -0.432268 0 
0.348831 -0.462562 0 
0.397506 -0.4368 0 
0.450637 -0.450637 0 
0.513054 -0.444935 0 
0.5671 -0.451404 0 
0.618952 -0.455483 0 
0.67138 -0.457525 0 
0.724407 -0.459374 0 
0.778382 -0.460863 0 
0.83234 -0.462414 0 
0.887011 -0.461748 0 
-0.912466 -0.409153 0 
-0.857936 -0.411157 0 
-0.804631 -0.410124 0 
-0.751554 -0.408794 0 
-0.698865 -0.407328 0 
-0.646545 -0.405555 0 
-0.594688 -0.403019 0 
-0.542431 -0.399773 0 
-0.486784 -0.401787 0 
-0.437543 -0.397667 0 
-0.387256 -0.387256 0 
-0.344215 -0.411459 0 
-0.30136 -0.381507 0 
-0.25021 -0.395692 0 
-0.200211 -0.419975 0 
-0.150955 -0.389014 0 
-0.100617 -0.416095 0 
-0.0503197 -0.386922 0 
-4.02994e-05 -0.416525 0 
0.05006 -0.386948 0 
0.100784 -0.416323 0 
0.150432 -0.388572 0 
0.200855 -0.420694 0 
0.25086 -0.396905 0 
0.301746 -0.379789 0 
0.344135 -0.410678 0 
0.385823 -0.385823 0 
0.4368 -0.397506 0 
0.486608 -0.401881 0 
0.542384 -0.399615 0 
0.594743 -0.402948 0 
0.646641 -0.405575 0 
0.698945 -0.407371 0 
0.751626 -0.408863 0 
0.804654 -0.410181 0 
0.857929 -0.411236 0 
0.912429 -0.409236 0 
-0.934288 -0.356519 0 
-0.879963 -0.359855 0 
-0.827415 -0.358606 0 
-0.774971 -0.357337 0 
-0.722823 -0.355968 0 
-0.670703 -0.354417 0 
-0.618952 -0.352514 0 
-0.567003 -0.350494 0 
-0.513639 -0.351685 0 
-0.462546 -0.348492 0 
-0.411459 -0.344215 0 
-0.351697 -0.351697 0 
-0.29839 -0.336232 0 
-0.249846 -0.342529 0 
-0.200971 -0.367271 0 
-0.149995 -0.337521 0 
-0.100435 -0.3646 0 
-0.0498692 -0.335025 0 
-6.88684e-05 -0.365025 0 
0.0495433 -0.334795 0 
0.0996798 -0.364834 0 
0.148162 -0.337172 0 
0.199644 -0.368939 0 
0.24763 -0.345582 0 
0.295348 -0.332889 0 
0.34978 -0.34978 0 
0.410678 -0.344135 0 
0.462562 -0.348831 0 
0.513798 -0.351514 0 
0.567174 -0.350318 0 
0.619096 -0.352457 0 
0.670836 -0.354397 0 
0.722893 -0.355952 0 
0.775038 -0.357323 0 
0.827419 -0.358581 0 
0.879943 -0.359894 0 
0.93426 -0.356593 0 
-0.952721 -0.303845 0 
-0.898929 -0.308871 0 
-0.847481 -0.306888 0 
-0.795641 -0.305781 0 
-0.743684 -0.304815 0 
-0.691387 -0.303722 0 
-0.639219 -0.302427 0 
-0.586897 -0.300977 0 
-0.534146 -0.301574 0 
-0.48291 -0.299695 0 
-0.432968 -0.295416 0 
-0.381507 -0.30136 0 
-0.336232 -0.29839 0 
-0.288184 -0.288184 0 
-0.242975 -0.290577 0 
-0.198059 -0.315051 0 
-0.148383 -0.285894 0 
-0.0994753 -0.313232 0 
-0.0507184 -0.283118 0 
-0.000202902 -0.313447 0 
0.0500077 -0.282824 0 
0.0988289 -0.312817 0 
0.148102 -0.28482 0 
0.195742 -0.317413 0 
0.240766 -0.295824 0 
0.285014 -0.285014 0 
0.332889 -0.295348 0 
0.379789 -0.301746 0 
0.432268 -0.296569 0 
0.483005 -0.299839 0 
0.534348 -0.301273 0 
0.587085 -0.30086 0 
0.639359 -0.302407 0 
0.691518 -0.303753 0 
0.743741 -0.304862 0 
0.795701 -0.305831 0 
0.847482 -0.306946 0 
0.898924 -0.308979 0 
0.952687 -0.303953 0 
-0.96803 -0.250833 0 
-0.916037 -0.258282 0 
-0.866979 -0.254732 0 
-0.816639 -0.25358 0 
-0.765535 -0.252907 0 
-0.71362 -0.252254 0 
-0.661417 -0.251503 0 
-0.608767 -0.250543 0 
-0.555692 -0.250874 0 
-0.503 -0.250032 0 
-0.450633 -0.247004 0 
-0.395692 -0.25021 0 
-0.342529 -0.249846 0 
-0.290577 -0.242975 0 
-0.239946 -0.239946 0 
-0.194478 -0.26004 0 
-0.151293 -0.23238 0 
-0.101048 -0.260904 0 
-0.0503938 -0.232537 0 
-0.000203281 -0.262984 0 
0.050638 -0.232316 0 
0.100942 -0.260855 0 
0.152412 -0.232597 0 
0.195768 -0.261421 0 
0.241873 -0.241873 0 
0.295824 -0.240766 0 
0.345582 -0.24763 0 
0.396905 -0.25086 0 
0.450921 -0.247983 0 
[...]
POINT_DATA 1245 
VECTORS vectors float
0.508568 -0.181594 0.841655 
0.515219 -0.146743 0.844402 
0.522637 -0.109403 0.845507 
0.529326 -0.0776967 0.844853 
0.536164 -0.0447906 0.842925 
0.541836 -0.017311 0.840306 
0.546891 0.00880497 0.837158 
0.548367 0.0337816 0.835555 
0.549119 0.0584112 0.833701 
0.549108 0.0856337 0.831353 
0.547719 0.109347 0.829486 
0.544271 0.134511 0.828056 
0.537628 0.156258 0.828577 
0.495402 -0.245583 0.833226 
0.502121 -0.21492 0.837666 
0.442138 -0.169221 0.880839 
0.450289 -0.139778 0.881874 
0.464099 -0.110621 0.878849 
0.451242 -0.0780679 0.88898 
0.47245 -0.0496872 0.879956 
0.458538 -0.0214191 0.888416 
0.481174 0.00551034 0.876608 
0.464788 0.0303296 0.884903 
0.484803 0.0571251 0.872756 
0.467993 0.0782295 0.880263 
0.48584 0.104521 0.867776 
0.472275 0.123839 0.872709 
0.462651 0.143019 0.874928 
0.527018 0.176552 0.831313 
0.511508 0.196541 0.836499 
0.4758 -0.29766 0.827655 
0.487191 -0.273074 0.829503 
0.429946 -0.224212 0.874572 
0.436724 -0.197075 0.877744 
0.383741 -0.152811 0.91071 
0.391789 -0.12677 0.91128 
0.406965 -0.100093 0.907943 
0.384031 -0.0695027 0.920701 
0.410378 -0.0461365 0.910748 
0.386471 -0.0207894 0.922067 
0.416985 0.0033415 0.908907 
0.390856 0.0236812 0.920147 
0.420415 0.0484876 0.906035 
0.39604 0.0663561 0.915832 
0.42399 0.0918572 0.900997 
0.407996 0.110307 0.906296 
0.395855 0.129119 0.90919 
0.451235 0.162138 0.877552 
0.435413 0.182417 0.881555 
0.489971 0.218009 0.844038 
0.462108 0.243038 0.852871 
0.460055 -0.320166 0.828156 
0.410032 -0.271394 0.870758 
0.421638 -0.248777 0.87197 
0.371015 -0.202823 0.906207 
0.376828 -0.179027 0.908818 
0.329957 -0.138961 0.933712 
0.338957 -0.115491 0.933686 
0.353597 -0.0920028 0.930862 
0.325807 -0.0640338 0.943265 
0.350743 -0.0427461 0.935496 
0.324735 -0.0201952 0.945589 
0.353932 0.000562168 0.935271 
0.327923 0.0193537 0.944506 
0.357834 0.0412767 0.932872 
0.334343 0.0577521 0.94068 
0.365207 0.0819579 0.927311 
0.34917 0.0993583 0.931777 
0.336847 0.117207 0.934236 
0.383942 0.148191 0.911388 
0.369274 0.168564 0.913905 
0.415302 0.20427 0.886453 
0.390111 0.229979 0.891585 
0.429314 0.273407 0.860778 
0.41435 -0.365091 0.83368 
0.439381 -0.342226 0.830558 
0.393821 -0.292733 0.871328 
0.349863 -0.247238 0.903587 
0.362087 -0.225952 0.904344 
0.317489 -0.184603 0.93012 
0.324521 -0.161767 0.931943 
0.282881 -0.126338 0.950798 
0.291293 -0.105405 0.950809 
0.303958 -0.0843102 0.948947 
0.276444 -0.0590893 0.959212 
0.297064 -0.0399734 0.954021 
0.272606 -0.0199551 0.961919 
0.297767 -0.00106142 0.954638 
0.274574 0.0158223 0.961436 
0.301923 0.0356246 0.952666 
0.281454 0.0513235 0.958201 
0.312021 0.073634 0.947218 
0.296571 0.0900211 0.950758 
0.284897 0.107233 0.952541 
0.325038 0.136276 0.935831 
0.311405 0.156648 0.937277 
0.349999 0.191435 0.91698 
0.327822 0.216726 0.919545 
0.361407 0.259958 0.895437 
0.394184 0.310036 0.865157 
0.360576 0.351227 0.864074 
0.38464 -0.391083 0.836126 
0.356161 -0.339171 0.870697 
0.37355 -0.31336 0.873078 
0.333699 -0.267205 0.904017 
0.297327 -0.226572 0.927503 
0.309318 -0.205417 0.928508 
0.271477 -0.167767 0.94771 
0.2775 -0.146999 0.949413 
0.241245 -0.11462 0.963672 
0.248684 -0.0959731 0.963818 
0.259567 -0.0776544 0.962598 
0.233312 -0.0542726 0.970886 
0.250458 -0.0374229 0.967404 
0.228124 -0.0189949 0.973447 
0.249542 -0.00216723 0.968361 
0.229271 0.0132861 0.973272 
0.253466 0.03129 0.966838 
0.236155 0.045669 0.970642 
0.263722 0.0662102 0.962324 
0.250985 0.0820015 0.964511 
0.239519 0.0985682 0.965875 
0.274547 0.125588 0.953337 
0.262072 0.146271 0.953899 
0.294736 0.179183 0.938629 
0.274951 0.205416 0.939258 
0.303376 0.245123 0.920803 
0.332708 0.293123 0.896317 
0.310887 0.332989 0.890206 
0.330287 0.396271 0.856668 
0.353486 -0.419205 0.836251 
0.329282 -0.363783 0.871341 
0.304835 -0.313861 0.899204 
0.314441 -0.287609 0.904659 
0.281273 -0.247497 0.927163 
0.253204 -0.209012 0.944564 
0.263005 -0.188193 0.946262 
0.230927 -0.153206 0.960833 
0.236268 -0.134214 0.962374 
0.204708 -0.104727 0.973204 
0.211101 -0.0877937 0.973513 
0.220643 -0.0709678 0.972769 
0.196401 -0.0500606 0.979245 
0.210778 -0.0349595 0.976909 
0.190722 -0.0180875 0.981477 
0.209019 -0.00307687 0.977907 
0.191186 0.0114582 0.981487 
0.212225 0.0276915 0.976828 
0.197295 0.0412053 0.979478 
0.222185 0.0604611 0.973128 
0.210499 0.0747952 0.974729 
0.201658 0.0909106 0.975228 
0.231183 0.11646 0.965915 
0.220709 0.136387 0.965757 
0.248064 0.168316 0.954009 
0.232742 0.194169 0.952958 
0.254308 0.234032 0.93838 
0.27947 0.276525 0.919473 
0.268506 0.31252 0.911173 
0.286754 0.371869 0.882885 
0.306497 0.439283 0.844447 
0.324396 -0.446914 0.833688 
0.300078 -0.382003 0.874086 
0.276925 -0.323679 0.904735 
0.264152 -0.27395 0.924757 
0.2413 -0.231861 0.942346 
0.215924 -0.193862 0.956971 
0.223732 -0.172601 0.959246 
0.195571 -0.140696 0.970545 
0.201078 -0.122009 0.971947 
0.172973 -0.0957358 0.980263 
0.178629 -0.0798876 0.980668 
0.186295 -0.0650521 0.980338 
0.164894 -0.046081 0.985234 
0.176446 -0.0322418 0.983782 
0.159316 -0.0171547 0.987079 
0.174176 -0.00326343 0.984709 
0.15938 0.00987137 0.987168 
0.176871 0.0247298 0.983923 
0.164451 0.0376505 0.985667 
0.18598 0.0547958 0.981024 
0.176411 0.0691373 0.981886 
0.168381 0.0840302 0.982134 
0.193928 0.108285 0.975021 
0.185626 0.127397 0.974327 
0.208923 0.158417 0.965016 
0.198122 0.183657 0.962818 
0.217783 0.224027 0.949938 
0.235193 0.270765 0.933472 
0.245399 0.330246 0.911437 
0.266007 0.398823 0.877599 
0.289521 0.475164 0.830901 
0.297213 -0.473948 0.828877 
0.275828 -0.405887 0.871306 
0.254578 -0.344641 0.903555 
0.237109 -0.29173 0.926646 
0.222706 -0.250801 0.942073 
0.202992 -0.211747 0.956011 
0.182228 -0.176599 0.967267 
0.189353 -0.158152 0.969089 
0.165283 -0.128466 0.977843 
0.169767 -0.112129 0.979084 
0.145863 -0.0883018 0.985356 
0.150053 -0.0738421 0.985917 
0.15673 -0.0598773 0.985825 
0.137725 -0.0424544 0.98956 
0.147716 -0.0300814 0.988572 
0.132248 -0.015737 0.991092 
0.145454 -0.0034927 0.989359 
0.131823 0.00900204 0.991232 
0.147367 0.022473 0.988826 
0.136383 0.0343603 0.99006 
0.155247 0.0505132 0.986583 
0.146782 0.0639837 0.987097 
0.140771 0.0788071 0.986901 
0.162906 0.10072 0.981487 
0.15532 0.118707 0.980706 
0.176122 0.147715 0.973222 
0.167267 0.169459 0.971239 
0.184167 0.207079 0.960834 
0.200572 0.250096 0.947219 
0.2128 0.296968 0.930874 
0.229782 0.357981 0.905014 
0.252097 0.428022 0.867897 
0.276513 0.504509 0.817931 
0.27276 -0.498288 0.822989 
0.252802 -0.427868 0.867767 
0.233325 -0.364899 0.901337 
0.215538 -0.310101 0.925949 
0.200081 -0.264092 0.943516 
0.185566 -0.225923 0.956308 
0.168948 -0.190842 0.966973 
0.152822 -0.159176 0.97535 
0.157791 -0.14432 0.976869 
0.138032 -0.119936 0.983139 
0.142861 -0.104131 0.98425 
0.122497 -0.0815308 0.989114 
0.12582 -0.067758 0.989736 
0.131462 -0.055204 0.989783 
0.114912 -0.0390681 0.992607 
0.123252 -0.02782 0.991985 
0.110157 -0.0149247 0.993802 
0.121068 -0.00355224 0.992638 
0.109711 0.00792183 0.993932 
0.122514 0.0204128 0.992257 
0.113079 0.0317362 0.993079 
0.129052 0.046888 0.990529 
0.122385 0.0594092 0.990703 
0.117166 0.0736921 0.990374 
0.135756 0.0951093 0.986167 
0.128992 0.112657 0.985226 
0.146796 0.136362 0.979723 
0.140267 0.154664 0.977959 
0.154553 0.187571 0.970016 
0.168555 0.225962 0.959443 
0.181972 0.268592 0.945909 
0.197883 0.320174 0.926462 
0.216936 0.381288 0.898642 
0.240236 0.450852 0.859662 
0.265809 0.526421 0.807606 
0.250759 -0.518574 0.817436 
0.231551 -0.446574 0.864266 
0.212762 -0.382213 0.899247 
0.195177 -0.325256 0.925264 
0.179837 -0.276768 0.943959 
0.165377 -0.235011 0.95782 
0.152046 -0.198605 0.968214 
0.137888 -0.165981 0.976441 
0.12958 -0.135837 0.982221 
0.116547 -0.110959 0.986968 
0.119944 -0.0958812 0.98814 
0.102813 -0.0746455 0.991896 
0.104744 -0.0621755 0.992554 
0.109644 -0.0505266 0.992686 
0.0951065 -0.0365067 0.994797 
0.102356 -0.0255836 0.994419 
0.0907099 -0.013956 0.99578 
0.100082 -0.00301714 0.994975 
0.0900671 0.0073933 0.995908 
0.101067 0.019184 0.994695 
0.0931059 0.0296094 0.995216 
0.107029 0.0432544 0.993315 
0.101021 0.0553195 0.993345 
0.0978447 0.0682373 0.99286 
0.113463 0.0886367 0.989581 
0.108306 0.105162 0.98854 
0.119953 0.130452 0.984172 
0.126817 0.162854 0.978466 
0.139148 0.198553 0.970162 
0.152494 0.237984 0.959223 
0.166651 0.283655 0.944334 
0.184395 0.336878 0.923315 
0.205091 0.398202 0.894076 
0.229076 0.466615 0.85428 
0.255609 0.541 0.801239 
0.230538 -0.534277 0.813265 
0.211881 -0.461274 0.861587 
0.193175 -0.395554 0.897898 
0.176665 -0.337952 0.924434 
0.16145 -0.287439 0.944094 
0.147755 -0.24395 0.958466 
0.135533 -0.206554 0.969003 
0.123992 -0.173861 0.976933 
0.115637 -0.144767 0.982685 
0.106621 -0.121758 0.986817 
0.0964676 -0.100887 0.99021 
0.100158 -0.0880854 0.991065 
0.0859842 -0.071791 0.993707 
0.0863429 -0.0584081 0.994552 
0.0908085 -0.0472034 0.994749 
0.0785944 -0.0337481 0.996335 
0.0848448 -0.0240828 0.996103 
0.075073 -0.0126356 0.997098 
0.0832783 -0.0032356 0.996521 
0.0744253 0.00714958 0.997201 
0.0837883 0.017712 0.996326 
0.0763045 0.0280753 0.996689 
0.088187 0.0410377 0.995258 
0.0830518 0.0526701 0.995152 
0.0806398 0.0660905 0.99455 
0.0937467 0.0823601 0.992184 
0.089231 0.0951567 0.991455 
0.0984727 0.117355 0.988196 
0.106336 0.142165 0.984115 
0.114333 0.172995 0.978264 
0.125257 0.207894 0.970098 
0.138374 0.248214 0.958771 
0.153661 0.294677 0.943162 
0.171568 0.34803 0.92165 
0.192986 0.408538 0.892106 
0.217554 0.475829 0.852207 
0.244464 0.548819 0.799397 
0.211088 -0.545441 0.811133 
0.192913 -0.471768 0.86036 
0.175026 -0.406177 0.896876 
0.158579 -0.347041 0.924346 
0.14383 -0.296037 0.944286 
0.131105 -0.251103 0.959041 
0.119299 -0.212854 0.969774 
0.109191 -0.179227 0.977729 
0.100882 -0.150517 0.983447 
0.0927407 -0.125946 0.987693 
0.0852704 -0.104517 0.990861 
0.0814755 -0.0843411 0.9931 
0.0723788 -0.0670848 0.995119 
0.0708715 -0.0544923 0.995996 
0.0747195 -0.0444767 0.996212 
0.064478 -0.0316853 0.997416 
0.0698145 -0.0225923 0.997304 
0.0609468 -0.0121254 0.998067 
0.0679649 -0.00299395 0.997683 
0.0602921 0.0062425 0.998161 
0.0685761 0.0164198 0.997511 
0.0624222 0.0256157 0.997721 
0.0724782 0.0381452 0.99664 
0.0679155 0.0490683 0.996484 
0.067003 0.0611629 0.995876 
0.0752412 0.0790929 0.994024 
0.0787201 0.100694 0.991798 
0.0855064 0.123457 0.988659 
0.0930298 0.148873 0.984471 
0.101018 0.179674 0.978526 
0.111954 0.214644 0.970255 
0.124628 0.254996 0.958877 
0.140044 0.301399 0.943158 
0.158215 0.354102 0.921727 
0.179639 0.413591 0.892565 
0.204362 0.479354 0.853496 
0.231071 0.550732 0.80206 
0.191528 -0.552433 0.811255 
0.17492 -0.479616 0.859867 
0.156975 -0.413469 0.896885 
0.141363 -0.35475 0.924213 
0.127555 -0.302412 0.944604 
0.115123 -0.256851 0.95957 
0.104335 -0.216982 0.970584 
0.0946313 -0.18308 0.978533 
0.0871085 -0.153427 0.984313 
0.0797987 -0.128764 0.988459 
0.0728403 -0.107435 0.99154 
0.0697455 -0.0896093 0.993532 
0.065027 -0.0750123 0.99506 
0.0593373 -0.0608339 0.996383 
0.0571732 -0.0499102 0.997116 
0.0608841 -0.0406857 0.997315 
0.0522663 -0.0294573 0.998199 
0.0571325 -0.0205476 0.998155 
0.049606 -0.0113704 0.998704 
0.0559417 -0.00240553 0.998431 
0.0489424 0.00628345 0.998782 
0.0557722 0.0157343 0.99832 
0.0502508 0.0245265 0.998435 
0.0587216 0.0356233 0.997639 
0.0552051 0.0449934 0.997461 
0.0545814 0.0557071 0.996954 
0.0594655 0.0699225 0.995778 
0.0641418 0.0856899 0.994255 
0.0672436 0.104777 0.99222 
0.0733376 0.126912 0.989199 
0.080172 0.153097 0.984954 
0.0882001 0.183151 0.97912 
0.0985758 0.218715 0.970797 
0.110974 0.258865 0.959518 
0.126085 0.305222 0.943897 
0.143601 0.356968 0.923013 
0.164461 0.41496 0.894853 
0.188936 0.478904 0.857294 
0.214178 0.547581 0.808877 
0.171113 -0.555846 0.813484 
0.156578 -0.48552 0.860089 
0.139724 -0.421374 0.896059 
0.124905 -0.36323 0.923289 
0.111979 -0.310683 0.943895 
0.10039 -0.264208 0.959227 
0.0902046 -0.22375 0.970463 
0.0815719 -0.188163 0.978744 
0.0740777 -0.15803 0.984652 
0.0675081 -0.131827 0.988971 
0.0615693 -0.109417 0.992087 
0.0574625 -0.0898684 0.994295 
0.0535694 -0.0732037 0.995877 
0.0490266 -0.0586096 0.997076 
0.0456946 -0.046624 0.997867 
0.0484141 -0.0376847 0.998116 
0.0412106 -0.028168 0.998753 
0.0455926 -0.0199126 0.998762 
0.0393752 -0.0104408 0.99917 
0.0443269 -0.00252148 0.999014 
0.0387985 0.006329 0.999227 
0.0443605 0.0150093 0.998903 
0.039596 0.0244429 0.998917 
0.0462331 0.0336003 0.998365 
0.0434771 0.0432409 0.998118 
0.0450295 0.0566289 0.997379 
0.0489827 0.0708939 0.99628 
0.0529102 0.0877348 0.994738 
0.0561565 0.107925 0.992572 
0.0617081 0.13094 0.989468 
0.0681549 0.157373 0.985185 
0.0757252 0.188623 0.979126 
0.0855173 0.223785 0.970879 
0.0973562 0.264489 0.959462 
0.110941 0.30952 0.944399 
0.127875 0.360526 0.923942 
0.146956 0.415618 0.897589 
0.170394 0.476471 0.86252 
0.192222 0.540262 0.819248 
0.147544 -0.555595 0.818258 
0.138846 -0.494684 0.85791 
0.122702 -0.433881 0.892576 
0.10891 -0.37487 0.920658 
0.0969844 -0.321986 0.941764 
0.0862025 -0.274082 0.957835 
0.0772033 -0.231956 0.969658 
0.0687717 -0.195647 0.97826 
0.0621806 -0.164065 0.984488 
0.0564708 -0.137143 0.98894 
0.0511486 -0.114289 0.99213 
0.0471587 -0.0941914 0.994437 
0.0443276 -0.0771179 0.996036 
0.04038 -0.0627192 0.997214 
0.0377482 -0.0489809 0.998086 
0.0368875 -0.0369264 0.998637 
0.0324851 -0.0263676 0.999124 
0.0362476 -0.0184149 0.999173 
0.0303003 -0.00948621 0.999496 
0.0357256 -0.00209327 0.999359 
0.0298279 0.00545346 0.99954 
0.0351559 0.0145378 0.999276 
0.0311035 0.0227504 0.999257 
0.0350248 0.0338042 0.998815 
0.0350099 0.0463825 0.99831 
0.0368067 0.0602048 0.997507 
0.0397049 0.0755606 0.99635 
0.0427649 0.0928484 0.994761 
0.0461737 0.11306 0.992515 
0.0507344 0.136626 0.989323 
0.0565091 0.163797 0.984874 
0.0636026 0.195018 0.978735 
0.072071 0.231149 0.970245 
0.0826751 0.271525 0.958874 
0.0953132 0.317257 0.943538 
0.109632 0.366531 0.923924 
0.127447 0.420823 0.898145 
0.149002 0.477004 0.866179 
0.161534 0.529306 0.832912 
0.125137 -0.553007 0.823726 
0.112493 -0.473595 0.873529 
0.095623 -0.401618 0.910801 
0.0829918 -0.340804 0.936464 
0.0726544 -0.287943 0.954887 
0.0637016 -0.243088 0.96791 
0.0564298 -0.204146 0.977313 
0.0503515 -0.17097 0.983989 
0.0451832 -0.142981 0.988693 
0.0405234 -0.118806 0.99209 
0.0375657 -0.0981716 0.99446 
0.034333 -0.0810998 0.996114 
0.0321177 -0.0659318 0.997307 
0.0298336 -0.0532127 0.998137 
0.0285741 -0.0416036 0.998726 
0.0269677 -0.0321577 0.999119 
0.023995 -0.0230436 0.999446 
0.027375 -0.0166729 0.999486 
0.0226599 -0.00964135 0.999697 
0.0267518 -0.00175182 0.999641 
0.0221914 0.00633388 0.999734 
0.0266929 0.0133041 0.999555 
0.0226436 0.0199829 0.999544 
0.0254307 0.0293137 0.999247 
0.0266379 0.0387574 0.998894 
0.0268203 0.0504914 0.998364 
0.0282547 0.0641277 0.997542 
0.0304598 0.0791894 0.996394 
0.0329266 0.0971908 0.994721 
0.0355409 0.11831 0.99234 
0.0397156 0.142409 0.989011 
0.0443063 0.170718 0.984323 
0.050248 0.203292 0.977828 
0.0578402 0.240531 0.968917 
0.0665619 0.283181 0.956754 
0.0778554 0.331657 0.940182 
0.0923249 0.387097 0.917405 
0.112286 0.450847 0.88551 
0.127859 0.519435 0.84489 
0.0989445 -0.548358 0.83037 
0.0927651 -0.486166 0.868929 
0.0795901 -0.421525 0.903317 
0.0678733 -0.359872 0.93053 
0.0580984 -0.304717 0.950669 
0.0504018 -0.257 0.965096 
0.0438308 -0.215867 0.975439 
0.0383053 -0.181251 0.982691 
0.0339477 -0.151467 0.987879 
0.0305478 -0.126298 0.991522 
0.0274239 -0.10528 0.994064 
0.02521 -0.0866829 0.995917 
0.0235696 -0.0714742 0.997164 
0.0215466 -0.0580044 0.998084 
0.0208111 -0.0460961 0.99872 
0.0195066 -0.0359593 0.999163 
0.0179588 -0.0266928 0.999482 
0.0183012 -0.0170445 0.999687 
0.0153615 -0.00878853 0.999843 
0.0194009 -0.00167042 0.99981 
0.0150443 0.00599984 0.999869 
0.0175708 0.0139788 0.999748 
0.0170494 0.0242444 0.999561 
0.0176145 0.0334207 0.999286 
0.0185703 0.0440951 0.998855 
0.0187708 0.0562894 0.998238 
0.0199776 0.0702946 0.997326 
0.0214031 0.0864987 0.996022 
0.0230978 0.104884 0.994216 
0.0252612 0.126694 0.99162 
0.0279751 0.152003 0.987984 
0.0317501 0.18104 0.982963 
0.0359574 0.214963 0.97596 
0.0415433 0.253819 0.966359 
0.0484723 0.297936 0.953354 
0.0567522 0.347907 0.93581 
0.0676879 0.402006 0.913132 
0.0823903 0.458522 0.884856 
0.0844434 0.510385 0.85579 
0.0743483 -0.543421 0.836162 
0.0642954 -0.460637 0.885257 
0.0522386 -0.388716 0.919875 
0.0430903 -0.32642 0.944242 
0.0358561 -0.274249 0.96099 
0.0299592 -0.23014 0.972696 
0.0255947 -0.192759 0.980912 
0.0221823 -0.160948 0.986714 
0.0191032 -0.134748 0.990696 
0.0171014 -0.111494 0.993618 
0.0156422 -0.0925887 0.995582 
0.0141394 -0.0761531 0.996996 
0.0132792 -0.061997 0.997988 
0.0127054 -0.0499399 0.998671 
0.0119906 -0.0391395 0.999162 
0.0110112 -0.0301258 0.999485 
0.0114163 -0.0212055 0.99971 
0.0108314 -0.0139436 0.999844 
0.00882447 -0.00610841 0.999942 
0.0126073 -0.0014335 0.999919 
0.00852153 0.00343585 0.999958 
0.0104168 0.0113687 0.999881 
0.0104317 0.0189488 0.999766 
0.00968541 0.0276671 0.99957 
0.0105147 0.0376423 0.999236 
0.0103118 0.0483594 0.998777 
0.0105917 0.0611858 0.99807 
0.0110103 0.0759707 0.997049 
0.0118226 0.092721 0.995622 
0.0125115 0.112707 0.99355 
0.013705 0.135582 0.990671 
0.0153207 0.162466 0.986595 
0.0171085 0.193629 0.980926 
0.0198684 0.229483 0.97311 
0.022744 0.271246 0.962241 
0.0267043 0.319011 0.947375 
0.0323021 0.374433 0.926691 
0.039349 0.436522 0.898833 
0.0427559 0.506575 0.861135 
0.0485582 -0.536905 0.842244 
0.0402737 -0.472939 0.880174 
0.0325376 -0.409113 0.911903 
0.0251525 -0.347903 0.937193 
0.0192495 -0.293531 0.955756 
0.0148723 -0.246826 0.968946 
0.0114977 -0.207172 0.978237 
0.0087239 -0.174055 0.984697 
0.00719703 -0.145564 0.989323 
0.00605938 -0.121499 0.992573 
0.00491626 -0.101545 0.994819 
0.00472638 -0.0836905 0.996481 
0.00439994 -0.06924 0.99759 
0.00414904 -0.0558792 0.998429 
0.00411711 -0.0450305 0.998977 
0.00405957 -0.0351034 0.999375 
0.00402537 -0.0256317 0.999663 
0.00404632 -0.0182893 0.999825 
0.00346941 -0.0108352 0.999935 
0.00301939 -0.00095444 0.999995 
0.0033257 0.00862235 0.999957 
0.00337293 0.0159741 0.999867 
0.00326109 0.0240744 0.999705 
0.00284262 0.0336721 0.999429 
0.00237866 0.0437119 0.999041 
0.0022019 0.0557231 0.998444 
0.00187195 0.0691042 0.997608 
0.00156776 0.0848616 0.996392 
0.00131494 0.102752 0.994706 
0.00127594 0.123927 0.99229 
0.000840207 0.14843 0.988923 
0.00103681 0.176773 0.984251 
0.000816366 0.209977 0.977706 
0.000843189 0.248237 0.968699 
0.000988806 0.292274 0.956334 
0.000619257 0.342184 0.939633 
0.000410349 0.396851 0.917883 
-0.000269205 0.451751 0.892144 
-0.00136087 0.506449 0.862269 
0.0207216 -0.527174 0.849505 
0.00931202 -0.444995 0.895485 
0.00449308 -0.375419 0.926844 
0.000357606 -0.315978 0.948766 
-0.00286572 -0.265631 0.964071 
-0.00510903 -0.22355 0.974679 
-0.00601654 -0.187552 0.982236 
-0.00659627 -0.157101 0.987561 
-0.00696662 -0.131779 0.991255 
-0.00634243 -0.109255 0.993994 
-0.00610094 -0.091027 0.99583 
-0.00562396 -0.0747413 0.997187 
-0.00472212 -0.0612595 0.998111 
-0.00435746 -0.0488944 0.998794 
-0.00402031 -0.0386786 0.999244 
-0.00309179 -0.02949 0.99956 
-0.00355368 -0.0211138 0.999771 
-0.00287323 -0.0132214 0.999908 
-7.32912e-05 -0.00605844 0.999982 
-0.00520156 -0.000686237 0.999986 
-0.000315526 0.00347109 0.999994 
-0.00316265 0.011878 0.999924 
-0.00403271 0.0190503 0.99981 
-0.00389875 0.0281027 0.999597 
-0.00499042 0.0377506 0.999275 
-0.00570252 0.0488933 0.998788 
-0.00669195 0.0612961 0.998097 
-0.00765217 0.0760386 0.997076 
-0.00878456 0.092901 0.995637 
-0.0101621 0.112564 0.993592 
-0.0116789 0.135423 0.990719 
-0.0133366 0.162234 0.986662 
-0.0156707 0.193203 0.981034 
-0.0177835 0.229194 0.973218 
-0.0212119 0.270862 0.962385 
-0.0247867 0.319168 0.947374 
-0.0308586 0.374505 0.926711 
-0.0389706 0.437944 0.898157 