# vtk DataFile Version 3.0 
Exported using Morpho https://github.com/Morpho-lang/morpho 
ASCII 
DATASET UNSTRUCTURED_GRID 

POINTS 1245 float 
-0.303845 -0.952721 0 
-0.250833 -0.96803 0 
-0.195084 -0.980787 0 
-0.146308 -0.989239 0 
-0.0940719 -0.995565 0 
-0.0475118 -0.998871 0 
-0.000246339 -1 0 
0.0470875 -0.998891 0 
0.0937543 -0.995595 0 
0.146139 -0.989264 0 
0.195062 -0.980791 0 
0.250843 -0.968028 0 
0.303953 -0.952687 0 
-0.409153 -0.912466 0 
-0.356519 -0.934288 0 
-0.308871 -0.898929 0 
-0.258282 -0.916037 0 
-0.207345 -0.934859 0 
-0.154868 -0.930629 0 
-0.104343 -0.948989 0 
-0.0520099 -0.939193 0 
-8.5762e-05 -0.954582 0 
0.0518744 -0.939288 0 
0.104354 -0.949042 0 
0.154696 -0.9306 0 
0.207366 -0.934975 0 
0.258274 -0.916081 0 
0.308979 -0.898924 0 
0.356593 -0.93426 0 
0.409236 -0.912429 0 
-0.513788 -0.857917 0 
-0.461695 -0.887039 0 
-0.411157 -0.857936 0 
-0.359855 -0.879963 0 
-0.306888 -0.847481 0 
-0.254732 -0.866979 0 
-0.201991 -0.889059 0 
-0.149956 -0.874108 0 
-0.100608 -0.900088 0 
-0.0497575 -0.880388 0 
2.4595e-05 -0.904789 0 
0.0496869 -0.8804 0 
0.100612 -0.900177 0 
0.149872 -0.874171 0 
0.202071 -0.889165 0 
0.254695 -0.867031 0 
0.306946 -0.847482 0 
0.359894 -0.879943 0 
0.411236 -0.857929 0 
0.461748 -0.887011 0 
0.513842 -0.857885 0 
-0.564741 -0.825268 0 
-0.512908 -0.802945 0 
-0.462372 -0.832348 0 
-0.410124 -0.804631 0 
-0.358606 -0.827415 0 
-0.305781 -0.795641 0 
-0.25358 -0.816639 0 
-0.200756 -0.839997 0 
-0.149043 -0.818944 0 
-0.0987265 -0.846667 0 
-0.0490473 -0.822548 0 
5.00659e-05 -0.849932 0 
0.0490834 -0.822542 0 
0.0987838 -0.846676 0 
0.148997 -0.818924 0 
0.200826 -0.840131 0 
0.253508 -0.816728 0 
0.305831 -0.795701 0 
0.358581 -0.827419 0 
0.410181 -0.804654 0 
0.462414 -0.83234 0 
0.512965 -0.802929 0 
0.564777 -0.825243 0 
-0.660798 -0.750564 0 
-0.614015 -0.789295 0 
-0.561786 -0.769772 0 
-0.510673 -0.747856 0 
-0.460836 -0.778365 0 
-0.408794 -0.751554 0 
-0.357337 -0.774971 0 
-0.304815 -0.743684 0 
-0.252907 -0.765535 0 
-0.200631 -0.789263 0 
-0.149244 -0.764328 0 
-0.0986912 -0.791935 0 
-0.0492815 -0.765764 0 
4.16586e-05 -0.79382 0 
0.0492411 -0.765708 0 
0.0987508 -0.791951 0 
0.149196 -0.764326 0 
0.200666 -0.789356 0 
0.252841 -0.765599 0 
0.304862 -0.743741 0 
0.357323 -0.775038 0 
0.408863 -0.751626 0 
0.460863 -0.778382 0 
0.510716 -0.747859 0 
0.561819 -0.769761 0 
0.614041 -0.789274 0 
0.660811 -0.750552 0 
-0.707107 -0.707107 0 
-0.654819 -0.699058 0 
-0.60813 -0.73348 0 
-0.558104 -0.71337 0 
-0.509495 -0.692659 0 
-0.45935 -0.724356 0 
-0.407328 -0.698865 0 
-0.355968 -0.722823 0 
-0.303722 -0.691387 0 
-0.252254 -0.71362 0 
-0.20067 -0.737336 0 
-0.149608 -0.710068 0 
-0.0991558 -0.737129 0 
-0.0495872 -0.709825 0 
-2.23646e-05 -0.737917 0 
0.0494408 -0.709766 0 
0.0991291 -0.737116 0 
0.149502 -0.710042 0 
0.200696 -0.73743 0 
0.252186 -0.713735 0 
0.303753 -0.691518 0 
0.355952 -0.722893 0 
0.407371 -0.698945 0 
0.459374 -0.724407 0 
0.509524 -0.692668 0 
0.558131 -0.713361 0 
0.608151 -0.733462 0 
0.654824 -0.699048 0 
0.707107 -0.707107 0 
-0.750564 -0.660798 0 
-0.699058 -0.654819 0 
-0.647692 -0.647692 0 
-0.603437 -0.675718 0 
-0.55905 -0.655305 0 
-0.508501 -0.639581 0 
-0.457509 -0.671321 0 
-0.405555 -0.646545 0 
-0.354417 -0.670703 0 
-0.302427 -0.639219 0 
-0.251503 -0.661417 0 
-0.20061 -0.684911 0 
-0.149717 -0.655943 0 
-0.0995004 -0.682466 0 
-0.0498216 -0.654561 0 
-5.02113e-05 -0.682664 0 
0.0496787 -0.654499 0 
0.0994374 -0.682501 0 
0.149603 -0.655909 0 
0.200573 -0.684972 0 
0.251388 -0.661524 0 
0.302407 -0.639359 0 
0.354397 -0.670836 0 
0.405575 -0.646641 0 
0.457525 -0.67138 0 
0.508497 -0.639623 0 
0.559063 -0.655324 0 
0.603436 -0.675715 0 
0.64769 -0.64769 0 
0.699048 -0.654824 0 
0.750552 -0.660811 0 
-0.789295 -0.614015 0 
-0.73348 -0.60813 0 
-0.675718 -0.603437 0 
-0.613088 -0.613088 0 
-0.55962 -0.604068 0 
-0.506189 -0.588854 0 
-0.455505 -0.618874 0 
-0.403019 -0.594688 0 
-0.352514 -0.618952 0 
-0.300977 -0.586897 0 
-0.250543 -0.608767 0 
-0.200257 -0.632053 0 
-0.150049 -0.601979 0 
-0.0998281 -0.628222 0 
-0.0500377 -0.599914 0 
-3.12334e-05 -0.628076 0 
0.0498927 -0.599835 0 
0.0997818 -0.628253 0 
0.149924 -0.601867 0 
0.200214 -0.632118 0 
0.250423 -0.608915 0 
0.30086 -0.587085 0 
0.352457 -0.619096 0 
0.402948 -0.594743 0 
0.455483 -0.618952 0 
0.506147 -0.588901 0 
0.55964 -0.604067 0 
0.613069 -0.613069 0 
0.675715 -0.603436 0 
0.733462 -0.608151 0 
0.789274 -0.614041 0 
-0.825268 -0.564741 0 
-0.769772 -0.561786 0 
-0.71337 -0.558104 0 
-0.655305 -0.55905 0 
-0.604068 -0.55962 0 
-0.551031 -0.551031 0 
-0.497922 -0.537596 0 
-0.451508 -0.567021 0 
-0.399773 -0.542431 0 
-0.350494 -0.567003 0 
-0.301574 -0.534146 0 
-0.250874 -0.555692 0 
-0.200542 -0.579013 0 
-0.150324 -0.548268 0 
-0.100169 -0.57443 0 
-0.0500152 -0.545912 0 
-3.29278e-05 -0.574268 0 
0.0499208 -0.545788 0 
0.100058 -0.574485 0 
0.150038 -0.548073 0 
0.200377 -0.579041 0 
0.250556 -0.55585 0 
0.301273 -0.534348 0 
0.350318 -0.567174 0 
0.399615 -0.542384 0 
0.451404 -0.5671 0 
0.497945 -0.537702 0 
0.551073 -0.551073 0 
0.604067 -0.55964 0 
0.655324 -0.559063 0 
0.713361 -0.558131 0 
0.769761 -0.561819 0 
0.825243 -0.564777 0 
-0.857917 -0.513788 0 
-0.802945 -0.512908 0 
-0.747856 -0.510673 0 
-0.692659 -0.509495 0 
-0.639581 -0.508501 0 
-0.588854 -0.506189 0 
-0.537596 -0.497922 0 
-0.486157 -0.486157 0 
-0.444928 -0.512952 0 
-0.401787 -0.486784 0 
-0.351685 -0.513639 0 
-0.299695 -0.48291 0 
-0.250032 -0.503 0 
-0.200501 -0.526165 0 
-0.149489 -0.495195 0 
-0.0999281 -0.521367 0 
-0.0499712 -0.492294 0 
4.64723e-05 -0.520999 0 
0.050147 -0.492108 0 
0.099934 -0.52133 0 
0.14957 -0.494692 0 
0.200133 -0.526255 0 
0.249839 -0.503309 0 
0.299839 -0.483005 0 
0.351514 -0.513798 0 
0.401881 -0.486608 0 
0.444935 -0.513054 0 
0.486228 -0.486228 0 
0.537702 -0.497945 0 
0.588901 -0.506147 0 
0.639623 -0.508497 0 
0.692668 -0.509524 0 
0.747859 -0.510716 0 
0.802929 -0.512965 0 
0.857885 -0.513842 0 
-0.887039 -0.461695 0 
-0.832348 -0.462372 0 
-0.778365 -0.460836 0 
-0.724356 -0.45935 0 
-0.671321 -0.457509 0 
-0.618874 -0.455505 0 
-0.567021 -0.451508 0 
-0.512952 -0.444928 0 
-0.450685 -0.450685 0 
-0.397667 -0.437543 0 
-0.348492 -0.462546 0 
-0.295416 -0.432968 0 
-0.247004 -0.450633 0 
-0.198702 -0.473818 0 
-0.150161 -0.441625 0 
-0.100085 -0.468395 0 
-0.0502271 -0.439281 0 
0.000144229 -0.468374 0 
0.0504178 -0.439106 0 
0.100428 -0.468348 0 
0.150697 -0.441105 0 
0.199103 -0.473881 0 
0.247983 -0.450921 0 
0.296569 -0.432268 0 
0.348831 -0.462562 0 
0.397506 -0.4368 0 
0.450637 -0.450637 0 
0.513054 -0.444935 0 
0.5671 -0.451404 0 
0.618952 -0.455483 0 
0.67138 -0.457525 0 
0.724407 -0.459374 0 
0.778382 -0.460863 0 
0.83234 -0.462414 0 
0.887011 -0.461748 0 
-0.912466 -0.409153 0 
-0.857936 -0.411157 0 
-0.804631 -0.410124 0 
-0.751554 -0.408794 0 
-0.698865 -0.407328 0 
-0.646545 -0.405555 0 
-0.594688 -0.403019 0 
-0.542431 -0.399773 0 
-0.486784 -0.401787 0 
-0.437543 -0.397667 0 
-0.387256 -0.387256 0 
-0.344215 -0.411459 0 
-0.30136 -0.381507 0 
-0.25021 -0.395692 0 
-0.200211 -0.419975 0 
-0.150955 -0.389014 0 
-0.100617 -0.416095 0 
-0.0503197 -0.386922 0 
-4.02994e-05 -0.416525 0 
0.05006 -0.386948 0 
0.100784 -0.416323 0 
0.150432 -0.388572 0 
0.200855 -0.420694 0 
0.25086 -0.396905 0 
0.301746 -0.379789 0 
0.344135 -0.410678 0 
0.385823 -0.385823 0 
0.4368 -0.397506 0 
0.486608 -0.401881 0 
0.542384 -0.399615 0 
0.594743 -0.402948 0 
0.646641 -0.405575 0 
0.698945 -0.407371 0 
0.751626 -0.408863 0 
0.804654 -0.410181 0 
0.857929 -0.411236 0 
0.912429 -0.409236 0 
-0.934288 -0.356519 0 
-0.879963 -0.359855 0 
-0.827415 -0.358606 0 
-0.774971 -0.357337 0 
-0.722823 -0.355968 0 
-0.670703 -0.354417 0 
-0.618952 -0.352514 0 
-0.567003 -0.350494 0 
-0.513639 -0.351685 0 
-0.462546 -0.348492 0 
-0.411459 -0.344215 0 
-0.351697 -0.351697 0 
-0.29839 -0.336232 0 
-0.249846 -0.342529 0 
-0.200971 -0.367271 0 
-0.149995 -0.337521 0 
-0.100435 -0.3646 0 
-0.0498692 -0.335025 0 
-6.88684e-05 -0.365025 0 
0.0495433 -0.334795 0 
0.0996798 -0.364834 0 
0.148162 -0.337172 0 
0.199644 -0.368939 0 
0.24763 -0.345582 0 
0.295348 -0.332889 0 
0.34978 -0.34978 0 
0.410678 -0.344135 0 
0.462562 -0.348831 0 
0.513798 -0.351514 0 
0.567174 -0.350318 0 
0.619096 -0.352457 0 
0.670836 -0.354397 0 
0.722893 -0.355952 0 
0.775038 -0.357323 0 
0.827419 -0.358581 0 
0.879943 -0.359894 0 
0.93426 -0.356593 0 
-0.952721 -0.303845 0 
-0.898929 -0.308871 0 
-0.847481 -0.306888 0 
-0.795641 -0.305781 0 
-0.743684 -0.304815 0 
-0.691387 -0.303722 0 
-0.639219 -0.302427 0 
-0.586897 -0.300977 0 
-0.534146 -0.301574 0 
-0.48291 -0.299695 0 
-0.432968 -0.295416 0 
-0.381507 -0.30136 0 
-0.336232 -0.29839 0 
-0.288184 -0.288184 0 
-0.242975 -0.290577 0 
-0.198059 -0.315051 0 
-0.148383 -0.285894 0 
-0.0994753 -0.313232 0 
-0.0507184 -0.283118 0 
-0.000202902 -0.313447 0 
0.0500077 -0.282824 0 
0.0988289 -0.312817 0 
0.148102 -0.28482 0 
0.195742 -0.317413 0 
0.240766 -0.295824 0 
0.285014 -0.285014 0 
0.332889 -0.295348 0 
0.379789 -0.301746 0 
0.432268 -0.296569 0 
0.483005 -0.299839 0 
0.534348 -0.301273 0 
0.587085 -0.30086 0 
0.639359 -0.302407 0 
0.691518 -0.303753 0 
0.743741 -0.304862 0 
0.795701 -0.305831 0 
0.847482 -0.306946 0 
0.898924 -0.308979 0 
0.952687 -0.303953 0 
-0.96803 -0.250833 0 
-0.916037 -0.258282 0 
-0.866979 -0.254732 0 
-0.816639 -0.25358 0 
-0.765535 -0.252907 0 
-0.71362 -0.252254 0 
-0.661417 -0.251503 0 
-0.608767 -0.250543 0 
-0.555692 -0.250874 0 
-0.503 -0.250032 0 
-0.450633 -0.247004 0 
-0.395692 -0.25021 0 
-0.342529 -0.249846 0 
-0.290577 -0.242975 0 
-0.239946 -0.239946 0 
-0.194478 -0.26004 0 
-0.151293 -0.23238 0 
-0.101048 -0.260904 0 
-0.0503938 -0.232537 0 
-0.000203281 -0.262984 0 
0.050638 -0.232316 0 
0.100942 -0.260855 0 
0.152412 -0.232597 0 
0.195768 -0.261421 0 
0.241873 -0.241873 0 
0.295824 -0.240766 0 
0.345582 -0.24763 0 
0.396905 -0.25086 0 
0.450921 -0.247983 0 
[...]
POINT_DATA 1245 
VECTORS vectors float
0.479093 -0.178717 0.859377 
0.485995 -0.141197 0.86248 
0.495078 -0.102392 0.862794 
0.503658 -0.0711768 0.860966 
0.512326 -0.0400979 0.857855 
0.518618 -0.0152128 0.854871 
0.523408 0.00827206 0.852042 
0.52458 0.0317393 0.850769 
0.52447 0.0554244 0.849623 
0.524186 0.0825144 0.847597 
0.523413 0.106486 0.845399 
0.521736 0.131471 0.842916 
0.517648 0.151544 0.842066 
0.471792 -0.245339 0.846889 
0.474781 -0.214072 0.853672 
0.41521 -0.165028 0.894632 
0.42125 -0.135232 0.896806 
0.435395 -0.105228 0.894068 
0.424513 -0.072561 0.902509 
0.446516 -0.0461097 0.893587 
0.433094 -0.0194803 0.901138 
0.456976 0.00603137 0.889458 
0.439102 0.0282891 0.897992 
0.459707 0.0542618 0.886412 
0.442788 0.074666 0.893512 
0.461405 0.10045 0.881485 
0.44972 0.118406 0.885287 
0.441528 0.135475 0.886961 
0.50963 0.168447 0.843743 
0.495497 0.18368 0.848967 
0.46037 -0.291784 0.838404 
0.467862 -0.27116 0.841176 
0.407605 -0.220201 0.886211 
0.410563 -0.194498 0.890847 
0.356475 -0.148562 0.922418 
0.364636 -0.121778 0.923153 
0.379941 -0.094983 0.920121 
0.356508 -0.065799 0.931972 
0.384338 -0.0425596 0.922211 
0.360528 -0.0192983 0.932549 
0.391043 0.00263198 0.920369 
0.365405 0.0222815 0.930582 
0.394649 0.045486 0.917705 
0.370634 0.0620217 0.926706 
0.399357 0.0868468 0.912673 
0.384194 0.10354 0.917428 
0.373928 0.119659 0.919706 
0.431292 0.151451 0.88941 
0.416611 0.167339 0.893551 
0.473615 0.199613 0.857813 
0.443226 0.219915 0.869016 
0.446816 -0.309312 0.839453 
0.392946 -0.262205 0.881387 
0.402398 -0.242852 0.882666 
0.348413 -0.196999 0.916406 
0.353321 -0.173186 0.919332 
0.305228 -0.133076 0.942935 
0.312595 -0.110313 0.943459 
0.326018 -0.0871372 0.941339 
0.299921 -0.060174 0.952064 
0.324121 -0.0399661 0.945171 
0.298883 -0.0193703 0.954093 
0.327912 0.000529324 0.944708 
0.302219 0.0170983 0.953085 
0.332117 0.0379598 0.942474 
0.309183 0.0530357 0.949523 
0.340908 0.0759975 0.93702 
0.325381 0.0913077 0.941164 
0.313458 0.107004 0.943554 
0.362471 0.136016 0.922016 
0.347277 0.153372 0.925135 
0.394883 0.185798 0.899748 
0.367235 0.208477 0.906463 
0.405793 0.24807 0.879655 
0.399211 -0.346305 0.848942 
0.426096 -0.326621 0.843659 
0.377938 -0.279455 0.882648 
0.331937 -0.235547 0.91342 
0.342469 -0.217034 0.914118 
0.296593 -0.175635 0.938715 
0.300368 -0.155359 0.941086 
0.258952 -0.119308 0.958493 
0.265897 -0.099775 0.958824 
0.278119 -0.079968 0.957212 
0.250414 -0.0553386 0.966556 
0.271136 -0.0377113 0.961802 
0.246891 -0.0188649 0.96886 
0.272199 -0.00163646 0.96224 
0.249166 0.0136392 0.968365 
0.276625 0.0321198 0.960441 
0.256724 0.0456463 0.965406 
0.286912 0.0667504 0.955629 
0.273211 0.0811351 0.958526 
0.261329 0.0961275 0.960451 
0.302695 0.122995 0.945118 
0.288423 0.141237 0.947029 
0.327876 0.172718 0.928798 
0.303112 0.197092 0.932351 
0.335667 0.237211 0.911624 
0.365542 0.285555 0.88591 
0.32825 0.330458 0.884901 
0.366672 -0.371452 0.85298 
0.338701 -0.320611 0.884585 
0.357359 -0.29704 0.885473 
0.31594 -0.252847 0.914467 
0.278472 -0.213296 0.93646 
0.288953 -0.195251 0.937221 
0.249989 -0.158107 0.955253 
0.254914 -0.13913 0.956902 
0.218013 -0.107519 0.970005 
0.224633 -0.0899901 0.970279 
0.23477 -0.0725389 0.969341 
0.209 -0.0508333 0.976594 
0.225642 -0.0352757 0.973571 
0.203779 -0.0184726 0.978843 
0.224781 -0.00320028 0.974404 
0.205007 0.0107729 0.978701 
0.228868 0.0271531 0.973079 
0.211915 0.0399486 0.976471 
0.239929 0.0591665 0.968986 
0.226616 0.0724577 0.971285 
0.216927 0.0869575 0.972307 
0.251146 0.112478 0.961392 
0.239047 0.130513 0.962197 
0.270568 0.161904 0.948989 
0.250456 0.186202 0.950053 
0.276633 0.225462 0.934153 
0.303757 0.272212 0.913035 
0.280448 0.314558 0.906864 
0.296945 0.380935 0.875621 
0.333308 -0.400816 0.853377 
0.310344 -0.34493 0.885839 
0.286458 -0.296482 0.911065 
0.296369 -0.270858 0.915861 
0.263172 -0.231922 0.936458 
0.234049 -0.195266 0.952414 
0.243644 -0.175889 0.953782 
0.210244 -0.142663 0.967184 
0.214982 -0.124501 0.96865 
0.183051 -0.0963607 0.97837 
0.188555 -0.080926 0.978723 
0.196676 -0.0660496 0.978241 
0.173251 -0.0462042 0.983793 
0.186475 -0.0325727 0.98192 
0.167449 -0.0175645 0.985724 
0.184652 -0.00392326 0.982796 
0.167958 0.00849493 0.985758 
0.188166 0.0232033 0.981863 
0.174153 0.0349454 0.984098 
0.19845 0.0521178 0.978724 
0.187866 0.0653613 0.980017 
0.178253 0.0791173 0.980799 
0.207729 0.103057 0.972743 
0.197448 0.121416 0.972765 
0.224041 0.151627 0.962712 
0.208296 0.176966 0.961923 
0.228176 0.21581 0.949401 
0.252238 0.257484 0.93278 
0.240127 0.296396 0.924385 
0.257417 0.357057 0.897913 
0.275465 0.42862 0.860467 
0.303804 -0.43079 0.849778 
0.280721 -0.364362 0.887939 
0.258185 -0.30584 0.916408 
0.245952 -0.25645 0.934741 
0.222819 -0.21623 0.950577 
0.197663 -0.178902 0.963807 
0.204131 -0.159917 0.965794 
0.176404 -0.128456 0.9759 
0.179846 -0.112813 0.977204 
0.152623 -0.086875 0.984459 
0.15683 -0.073225 0.984907 
0.163991 -0.0596551 0.984656 
0.142899 -0.0421577 0.988839 
0.154095 -0.0302795 0.987592 
0.136985 -0.0164333 0.990437 
0.151838 -0.00463317 0.988395 
0.136848 0.00701253 0.990567 
0.154384 0.0201121 0.987806 
0.142187 0.0308188 0.98936 
0.163369 0.0468404 0.985453 
0.153948 0.0586384 0.986337 
0.146975 0.0723412 0.986491 
0.171996 0.0947076 0.980534 
0.163116 0.112471 0.980175 
0.18594 0.141817 0.972273 
0.174865 0.166487 0.970415 
0.193603 0.206778 0.959042 
0.209888 0.253344 0.944332 
0.21911 0.315144 0.923404 
0.239278 0.387007 0.89049 
0.262883 0.467334 0.844092 
0.278027 -0.460046 0.843243 
0.257203 -0.38955 0.884363 
0.236391 -0.327434 0.914826 
0.219409 -0.273963 0.936378 
0.204948 -0.234067 0.950373 
0.185179 -0.195768 0.963008 
0.164577 -0.161639 0.97303 
0.170474 -0.145179 0.974608 
0.146352 -0.116773 0.982316 
0.150396 -0.10149 0.983403 
0.126537 -0.0793838 0.98878 
0.130247 -0.0661705 0.989271 
0.135851 -0.0542398 0.989243 
0.117636 -0.0385073 0.99231 
0.126421 -0.0277124 0.991589 
0.112306 -0.0156288 0.993551 
0.123981 -0.00477337 0.992273 
0.111947 0.00546225 0.993699 
0.125888 0.0174772 0.99189 
0.115898 0.0276393 0.992876 
0.133568 0.0421203 0.990144 
0.126107 0.0537002 0.990562 
0.119939 0.0667127 0.990537 
0.141104 0.0872501 0.986142 
0.134498 0.103843 0.985458 
0.154103 0.131803 0.979224 
0.145897 0.153128 0.977377 
0.161996 0.189995 0.968328 
0.176941 0.233876 0.95603 
0.189758 0.281412 0.940638 
0.20667 0.344836 0.915629 
0.229092 0.417671 0.879243 
0.254933 0.497928 0.828901 
0.256473 -0.485811 0.835589 
0.236284 -0.412924 0.879582 
0.216418 -0.348144 0.912118 
0.198995 -0.292448 0.935348 
0.183305 -0.246933 0.951537 
0.168902 -0.208777 0.963268 
0.152596 -0.17447 0.972766 
0.135433 -0.144996 0.980119 
0.140801 -0.129829 0.981488 
0.120841 -0.10746 0.986838 
0.124793 -0.0929725 0.987817 
0.105089 -0.0717888 0.991868 
0.107311 -0.0601898 0.992402 
0.111965 -0.0492088 0.992493 
0.0962294 -0.0348463 0.994749 
0.103676 -0.0253099 0.994289 
0.0909378 -0.0142161 0.995755 
0.101062 -0.00466591 0.994869 
0.0901462 0.00483671 0.995917 
0.102377 0.0154523 0.994626 
0.0937781 0.0245989 0.995289 
0.108972 0.037929 0.993321 
0.102418 0.0490858 0.99353 
0.0986888 0.0612448 0.993232 
0.115802 0.0814594 0.989926 
0.109757 0.0977036 0.989145 
0.126195 0.120738 0.984631 
0.120866 0.137693 0.983073 
0.134016 0.171033 0.976108 
0.14828 0.209151 0.966576 
0.161294 0.252866 0.953962 
0.177035 0.305457 0.935604 
0.197499 0.369043 0.908186 
0.221689 0.441174 0.869609 
0.249215 0.519785 0.817139 
0.238214 -0.50657 0.828638 
0.217732 -0.432058 0.875168 
0.198132 -0.365737 0.909385 
0.180736 -0.30816 0.934009 
0.164482 -0.258925 0.95179 
0.150583 -0.217291 0.964422 
0.136448 -0.182071 0.973772 
0.123116 -0.149434 0.981077 
0.114196 -0.120986 0.986064 
0.100705 -0.0980315 0.990075 
0.10337 -0.0843911 0.991056 
0.0867541 -0.065024 0.994105 
0.0880777 -0.0539182 0.994653 
0.0920511 -0.0445478 0.994757 
0.0785052 -0.0317141 0.996409 
0.0846368 -0.023504 0.996135 
0.0742887 -0.0131639 0.99715 
0.0825836 -0.00496859 0.996572 
0.0734701 0.00413527 0.997289 
0.0833088 0.0135404 0.996432 
0.075719 0.0226658 0.996872 
0.0885576 0.0344688 0.995474 
0.083447 0.0445179 0.995517 
0.0801343 0.0561735 0.9952 
0.0948045 0.0752132 0.992651 
0.0906812 0.089976 0.991807 
0.101723 0.114783 0.988169 
0.108842 0.146558 0.983196 
0.121193 0.181502 0.975894 
0.133893 0.221384 0.965951 
0.149387 0.268024 0.95176 
0.167222 0.322534 0.93167 
0.189207 0.385784 0.902979 
0.215036 0.456629 0.863279 
0.243789 0.533565 0.809861 
0.221821 -0.521705 0.823784 
0.201129 -0.446404 0.871935 
0.181875 -0.379468 0.907152 
0.163931 -0.320136 0.933081 
0.148513 -0.269419 0.951503 
0.134609 -0.225955 0.964793 
0.121906 -0.188761 0.974427 
0.110442 -0.156901 0.98142 
0.101203 -0.129338 0.986423 
0.0925679 -0.107361 0.989901 
0.0827231 -0.087198 0.99275 
0.0851212 -0.0767469 0.99341 
0.0719378 -0.0610568 0.995539 
0.071703 -0.0501913 0.996162 
0.0748912 -0.0409291 0.996351 
0.0637607 -0.0296252 0.997525 
0.0688296 -0.0214551 0.997398 
0.0596977 -0.0126325 0.998137 
0.0665606 -0.00442791 0.997773 
0.0589131 0.00314434 0.998258 
0.0671048 0.0124863 0.997668 
0.0611098 0.0201513 0.997928 
0.0714852 0.0317419 0.996936 
0.0670971 0.0417638 0.996872 
0.0655102 0.0533998 0.996422 
0.0773644 0.0684735 0.994649 
0.0736301 0.0802746 0.99405 
0.082343 0.1017 0.991401 
0.0901684 0.125107 0.988037 
0.0981095 0.155711 0.982918 
0.1097 0.19081 0.975478 
0.122922 0.231275 0.965092 
0.138789 0.278601 0.950326 
0.158213 0.333232 0.929476 
0.180979 0.395447 0.900482 
0.207661 0.464763 0.860739 
0.237267 0.540024 0.807514 
0.206018 -0.531588 0.821566 
0.185867 -0.456522 0.870081 
0.16596 -0.388596 0.906339 
0.148709 -0.329337 0.932429 
0.133475 -0.27719 0.951499 
0.119681 -0.232563 0.96519 
0.107997 -0.194158 0.975007 
0.0971802 -0.161725 0.982039 
0.0890208 -0.133513 0.987041 
0.0804826 -0.110264 0.990638 
0.0729163 -0.0904787 0.993225 
0.0685267 -0.0722839 0.995027 
0.0601855 -0.0565216 0.996586 
0.0579392 -0.0459224 0.997263 
0.0610459 -0.0373297 0.997437 
0.0518132 -0.0266873 0.9983 
0.0560811 -0.0195136 0.998236 
0.0487047 -0.0110849 0.998752 
0.054459 -0.00416926 0.998507 
0.0477924 0.00322162 0.998852 
0.0544206 0.0111785 0.998456 
0.0490837 0.0186268 0.998621 
0.0576016 0.0292901 0.99791 
0.0541419 0.0379368 0.997812 
0.0534969 0.0485721 0.997386 
0.0609322 0.0650545 0.99602 
0.064673 0.0851574 0.994266 
0.0715149 0.106537 0.991734 
0.079011 0.13206 0.988088 
0.0874788 0.161641 0.982965 
0.0985202 0.196948 0.975451 
0.112175 0.237365 0.964922 
0.128487 0.284541 0.950015 
0.148075 0.33822 0.929344 
0.171369 0.399012 0.90079 
0.198581 0.466706 0.86183 
0.228477 0.539933 0.810105 
0.189666 -0.536923 0.822034 
0.17026 -0.462343 0.870201 
0.151233 -0.395652 0.905863 
0.134107 -0.335551 0.932427 
0.119214 -0.283111 0.951649 
0.106261 -0.237139 0.965647 
0.0947609 -0.198098 0.975591 
0.0850851 -0.164137 0.982761 
0.0767807 -0.136063 0.98772 
0.0694056 -0.112095 0.991271 
0.0627387 -0.09227 0.993756 
0.0587237 -0.0758456 0.995389 
0.0545647 -0.062852 0.99653 
0.0487131 -0.0503897 0.997541 
0.0466827 -0.0409352 0.998071 
0.0492655 -0.0342616 0.998198 
0.041696 -0.0243941 0.998833 
0.0451168 -0.0183331 0.998813 
0.0386203 -0.0105092 0.999199 
0.0431243 -0.00437632 0.99906 
0.0377959 0.00276139 0.999282 
0.0434143 0.0097142 0.99901 
0.039036 0.0170292 0.999093 
0.0462741 0.0259838 0.998591 
0.043409 0.0341454 0.998474 
0.0431068 0.043379 0.998128 
0.0476002 0.0560113 0.997295 
0.0521687 0.0704621 0.996149 
0.0553063 0.0883996 0.994549 
0.0613701 0.109911 0.992045 
0.0684929 0.134632 0.988526 
0.0768705 0.16513 0.983272 
0.0877947 0.199657 0.975925 
0.101262 0.240655 0.965314 
0.117213 0.286722 0.950816 
0.136809 0.339715 0.930525 
0.159739 0.398418 0.903187 
0.186855 0.46383 0.865995 
0.216094 0.533957 0.817431 
0.171715 -0.538086 0.825214 
0.155082 -0.466835 0.87064 
0.136128 -0.402124 0.905409 
0.120247 -0.342702 0.931717 
0.106102 -0.29046 0.950986 
0.0937446 -0.243806 0.965283 
0.0831618 -0.203414 0.975555 
0.0735772 -0.168986 0.982868 
0.0661042 -0.139203 0.988055 
0.0594424 -0.114477 0.991646 
0.0528997 -0.0933771 0.994224 
0.0490521 -0.0754048 0.995946 
0.0448119 -0.0605015 0.997162 
0.0402983 -0.0479949 0.998034 
0.037687 -0.0377017 0.998578 
0.0387625 -0.030751 0.998775 
0.0332656 -0.0231773 0.999178 
0.0364278 -0.0167577 0.999196 
0.0311191 -0.00989435 0.999467 
0.0355255 -0.00360488 0.999362 
0.0302705 0.00257004 0.999538 
0.034835 0.00977796 0.999345 
0.0309774 0.0164333 0.999385 
0.0360861 0.0244522 0.999049 
0.0340626 0.0322048 0.998901 
0.0357809 0.0434389 0.998415 
0.0391614 0.0565644 0.997631 
0.0428196 0.0721249 0.996476 
0.0465644 0.0907767 0.994782 
0.0520275 0.112834 0.992251 
0.0586251 0.138886 0.988572 
0.0669247 0.168849 0.983367 
0.0772748 0.204488 0.975814 
0.0897913 0.244123 0.965578 
0.105612 0.290342 0.951077 
0.123436 0.34032 0.932172 
0.145628 0.397083 0.906155 
0.171808 0.458108 0.872135 
0.198153 0.522572 0.829249 
0.150233 -0.535453 0.831096 
0.139417 -0.4752 0.868762 
0.121606 -0.411815 0.903117 
0.106756 -0.354117 0.929088 
0.0934337 -0.300098 0.949321 
0.0820476 -0.252507 0.96411 
0.0717447 -0.211125 0.974822 
0.0634724 -0.174917 0.982535 
0.0562695 -0.144579 0.987892 
0.0501018 -0.118854 0.991647 
0.0448178 -0.0969707 0.994278 
0.0410207 -0.0786436 0.996058 
0.0371971 -0.0635954 0.997282 
0.0344351 -0.0503998 0.998135 
0.0309606 -0.0392969 0.998748 
0.0301157 -0.0294911 0.999111 
0.0265299 -0.0210521 0.999426 
0.0286387 -0.0153564 0.999472 
0.0248274 -0.00850711 0.999656 
0.0276457 -0.00342277 0.999612 
0.0242618 0.00233885 0.999703 
0.0273914 0.00883897 0.999586 
0.0244873 0.0154387 0.999581 
0.0276464 0.0240968 0.999327 
0.0276967 0.0343935 0.999025 
0.0293123 0.0468312 0.998473 
0.0321167 0.0601128 0.997675 
0.0351781 0.0761723 0.996474 
0.038368 0.0954471 0.994695 
0.0434408 0.117676 0.992101 
0.0493777 0.144009 0.988344 
0.0566795 0.174821 0.982967 
0.0663849 0.209976 0.97545 
0.0777839 0.250367 0.965021 
0.0915776 0.294996 0.9511 
0.108759 0.345185 0.932212 
0.1285 0.397843 0.90841 
0.153366 0.455576 0.876886 
0.170285 0.506067 0.845517 
0.12907 -0.531405 0.837227 
0.114035 -0.451358 0.885026 
0.0958592 -0.37912 0.920369 
0.0817623 -0.317573 0.944702 
0.0703098 -0.265683 0.961493 
0.0610181 -0.220623 0.973449 
0.0529243 -0.182731 0.981737 
0.0463063 -0.150596 0.98751 
0.0410357 -0.12325 0.991527 
0.0366206 -0.100846 0.994228 
0.0326314 -0.0818285 0.996112 
0.0303948 -0.0658484 0.997367 
0.0274788 -0.0532252 0.998204 
0.0254516 -0.0420255 0.998792 
0.0244634 -0.0326482 0.999167 
0.022652 -0.0252822 0.999424 
0.0202392 -0.0182394 0.999629 
0.0227494 -0.0138978 0.999645 
0.0185893 -0.00851356 0.999791 
0.0214555 -0.00317861 0.999765 
0.0180983 0.00279324 0.999832 
0.0213511 0.00780934 0.999742 
0.0190829 0.0129646 0.999734 
0.0204091 0.0199934 0.999592 
0.0214311 0.0280258 0.999377 
0.0218531 0.0378105 0.999046 
0.0229943 0.0494032 0.998514 
0.025059 0.0634494 0.99767 
0.0273363 0.0798518 0.996432 
0.0303658 0.0994973 0.994574 
0.0341358 0.122935 0.991827 
0.0393884 0.150025 0.987897 
0.0457297 0.181674 0.982295 
0.0536267 0.218266 0.974415 
0.0640288 0.260001 0.963483 
0.0765715 0.307535 0.948451 
0.0928468 0.361757 0.927638 
0.11709 0.425184 0.897501 
0.137261 0.491304 0.860104 
0.103571 -0.525185 0.844662 
0.0960484 -0.461804 0.881766 
0.0814907 -0.397939 0.913785 
0.0686064 -0.335756 0.939447 
0.0582482 -0.280865 0.957978 
0.0493626 -0.233606 0.971078 
0.0422089 -0.193529 0.980186 
0.0365958 -0.159296 0.986552 
0.0320059 -0.131032 0.990861 
0.0279642 -0.107386 0.993824 
0.0253466 -0.0870488 0.995882 
0.0230824 -0.0710167 0.997208 
0.0209583 -0.0570347 0.998152 
0.0197836 -0.0456007 0.998764 
0.0185537 -0.0358656 0.999184 
0.0174365 -0.0276275 0.999466 
0.016336 -0.0207703 0.999651 
0.0163806 -0.0135572 0.999774 
0.0145067 -0.00779914 0.999864 
0.0173223 -0.002921 0.999846 
0.0139744 0.00258615 0.999899 
0.0152215 0.00846427 0.999848 
0.0142302 0.0159337 0.999772 
0.0155367 0.0235723 0.999601 
0.0155185 0.0320164 0.999367 
0.0159971 0.0425368 0.998967 
0.016822 0.0550257 0.998343 
0.0182438 0.0693814 0.997423 
0.0197549 0.086795 0.99603 
0.0218088 0.107262 0.993992 
0.0248997 0.131198 0.991043 
0.0283456 0.159585 0.986777 
0.0333169 0.192203 0.98079 
0.0393376 0.22992 0.972414 
0.0467868 0.272993 0.960878 
0.0567323 0.321052 0.945361 
0.0701846 0.374514 0.924561 
0.0857762 0.427101 0.900126 
0.091852 0.477374 0.873886 
0.0796124 -0.518798 0.851182 
0.0680757 -0.436375 0.897186 
0.0551472 -0.362842 0.930218 
0.0446492 -0.301705 0.952355 
0.0367375 -0.249812 0.967597 
0.0306579 -0.206324 0.978003 
0.0256027 -0.16997 0.985117 
0.0217175 -0.139782 0.989944 
0.0191579 -0.113856 0.993313 
0.0168315 -0.0932527 0.9955 
0.0151688 -0.075271 0.997048 
0.0143523 -0.060762 0.998049 
0.0131965 -0.0486942 0.998727 
0.0127223 -0.0382952 0.999185 
0.0123667 -0.0302035 0.999467 
0.011533 -0.0225464 0.999679 
0.0117682 -0.0164983 0.999795 
0.0111002 -0.0111042 0.999877 
0.0104703 -0.00619748 0.999926 
0.0114365 -0.00206937 0.999932 
0.0103994 0.000532529 0.999946 
0.0103527 0.00657183 0.999925 
0.0106643 0.0119829 0.999871 
0.0101081 0.0190605 0.999767 
0.009843 0.0263777 0.999604 
0.0100645 0.0357326 0.999311 
0.00984894 0.0466609 0.998862 
0.0102481 0.0596819 0.998165 
0.0105824 0.0752589 0.997108 
0.0113693 0.0934637 0.995558 
0.0123043 0.115513 0.99323 
0.0137192 0.140998 0.989915 
0.0158642 0.170903 0.98516 
0.0181512 0.205867 0.978412 
0.0217775 0.245879 0.969056 
0.0260988 0.292337 0.955959 
0.0317042 0.344618 0.938208 
0.0414488 0.405088 0.913338 
0.0457006 0.47003 0.881466 
0.0543879 -0.51184 0.857357 
0.0454028 -0.446143 0.89381 
0.0365565 -0.383445 0.92284 
0.0287191 -0.32189 0.946341 
0.0221402 -0.267796 0.963221 
0.0168996 -0.222001 0.9749 
0.0131076 -0.183598 0.982914 
0.0107382 -0.150983 0.988478 
0.00868799 -0.124334 0.992202 
0.0074105 -0.101868 0.99477 
0.00709244 -0.0826412 0.996554 
0.00648763 -0.0676208 0.99769 
0.00641101 -0.0540388 0.998518 
0.00663903 -0.0434544 0.999033 
0.00656641 -0.0339878 0.999401 
0.0066578 -0.0264577 0.999628 
0.00674402 -0.0195936 0.999785 
0.00696609 -0.013993 0.999878 
0.00636751 -0.00838648 0.999945 
0.00516745 -0.00162092 0.999985 
0.00559775 0.00481663 0.999973 
0.00634459 0.0100847 0.999929 
0.00521618 0.0157802 0.999862 
0.00510071 0.0234348 0.999712 
0.00451608 0.031965 0.999479 
0.00385198 0.0415552 0.999129 
0.00332985 0.0537502 0.998549 
0.00279471 0.0676295 0.997707 
0.00234393 0.0844188 0.996428 
0.00167831 0.104025 0.994573 
0.00152017 0.127346 0.991857 
0.000879373 0.154733 0.987956 
0.000756199 0.1865 0.982455 
0.000459963 0.223513 0.974701 
-9.85728e-06 0.26597 0.963981 
-0.000218242 0.314018 0.949417 
-0.00106902 0.36606 0.930591 
-0.00219802 0.417419 0.908711 
-0.00346567 0.469009 0.883187 
0.0272143 -0.501257 0.86487 
0.0155561 -0.418392 0.908133 
0.00947279 -0.348174 0.937382 
0.00447799 -0.289304 0.957227 
0.000849571 -0.239953 0.970784 
-0.0013204 -0.198342 0.980132 
-0.00298249 -0.16392 0.986469 
-0.00351083 -0.135 0.990839 
-0.00306292 -0.110295 0.993894 
-0.00308577 -0.0905181 0.99589 
-0.00227776 -0.0730188 0.997328 
-0.00118986 -0.0593709 0.998235 
-0.000601239 -0.0470676 0.998892 
0.000285294 -0.0374339 0.999299 
0.000933712 -0.0290175 0.999578 
0.00177329 -0.0220379 0.999756 
0.0018397 -0.0154419 0.999879 
0.00190829 -0.0109397 0.999938 
0.00485589 -0.00551765 0.999973 
-0.000284115 -0.00187367 0.999998 
0.00478947 0.00119799 0.999988 
0.00158949 0.0067282 0.999976 
0.00102707 0.0126451 0.99992 
0.000910265 0.0192068 0.999815 
-0.000529295 0.0270069 0.999635 
-0.00165837 0.0358108 0.999357 
-0.00253971 0.0470394 0.99889 
-0.00412554 0.0597497 0.998205 
-0.00564246 0.0751277 0.997158 
-0.00723013 0.0934251 0.9956 
-0.00922031 0.115236 0.993295 
-0.0115971 0.140548 0.990006 
-0.0138859 0.170528 0.985255 
-0.0173769 0.205399 0.978524 
-0.0208409 0.245788 0.9691 
-0.0261792 0.292232 0.955989 