# vtk DataFile Version 3.0 
Exported using Morpho https://github.com/Morpho-lang/morpho 
ASCII 
DATASET UNSTRUCTURED_GRID 

POINTS 1245 float 
-0.303845 -0.952721 0 
-0.250833 -0.96803 0 
-0.195084 -0.980787 0 
-0.146308 -0.989239 0 
-0.0940719 -0.995565 0 
-0.0475118 -0.998871 0 
-0.000246339 -1 0 
0.0470875 -0.998891 0 
0.0937543 -0.995595 0 
0.146139 -0.989264 0 
0.195062 -0.980791 0 
0.250843 -0.968028 0 
0.303953 -0.952687 0 
-0.409153 -0.912466 0 
-0.356519 -0.934288 0 
-0.308871 -0.898929 0 
-0.258282 -0.916037 0 
-0.207345 -0.934859 0 
-0.154868 -0.930629 0 
-0.104343 -0.948989 0 
-0.0520099 -0.939193 0 
-8.5762e-05 -0.954582 0 
0.0518744 -0.939288 0 
0.104354 -0.949042 0 
0.154696 -0.9306 0 
0.207366 -0.934975 0 
0.258274 -0.916081 0 
0.308979 -0.898924 0 
0.356593 -0.93426 0 
0.409236 -0.912429 0 
-0.513788 -0.857917 0 
-0.461695 -0.887039 0 
-0.411157 -0.857936 0 
-0.359855 -0.879963 0 
-0.306888 -0.847481 0 
-0.254732 -0.866979 0 
-0.201991 -0.889059 0 
-0.149956 -0.874108 0 
-0.100608 -0.900088 0 
-0.0497575 -0.880388 0 
2.4595e-05 -0.904789 0 
0.0496869 -0.8804 0 
0.100612 -0.900177 0 
0.149872 -0.874171 0 
0.202071 -0.889165 0 
0.254695 -0.867031 0 
0.306946 -0.847482 0 
0.359894 -0.879943 0 
0.411236 -0.857929 0 
0.461748 -0.887011 0 
0.513842 -0.857885 0 
-0.564741 -0.825268 0 
-0.512908 -0.802945 0 
-0.462372 -0.832348 0 
-0.410124 -0.804631 0 
-0.358606 -0.827415 0 
-0.305781 -0.795641 0 
-0.25358 -0.816639 0 
-0.200756 -0.839997 0 
-0.149043 -0.818944 0 
-0.0987265 -0.846667 0 
-0.0490473 -0.822548 0 
5.00659e-05 -0.849932 0 
0.0490834 -0.822542 0 
0.0987838 -0.846676 0 
0.148997 -0.818924 0 
0.200826 -0.840131 0 
0.253508 -0.816728 0 
0.305831 -0.795701 0 
0.358581 -0.827419 0 
0.410181 -0.804654 0 
0.462414 -0.83234 0 
0.512965 -0.802929 0 
0.564777 -0.825243 0 
-0.660798 -0.750564 0 
-0.614015 -0.789295 0 
-0.561786 -0.769772 0 
-0.510673 -0.747856 0 
-0.460836 -0.778365 0 
-0.408794 -0.751554 0 
-0.357337 -0.774971 0 
-0.304815 -0.743684 0 
-0.252907 -0.765535 0 
-0.200631 -0.789263 0 
-0.149244 -0.764328 0 
-0.0986912 -0.791935 0 
-0.0492815 -0.765764 0 
4.16586e-05 -0.79382 0 
0.0492411 -0.765708 0 
0.0987508 -0.791951 0 
0.149196 -0.764326 0 
0.200666 -0.789356 0 
0.252841 -0.765599 0 
0.304862 -0.743741 0 
0.357323 -0.775038 0 
0.408863 -0.751626 0 
0.460863 -0.778382 0 
0.510716 -0.747859 0 
0.561819 -0.769761 0 
0.614041 -0.789274 0 
0.660811 -0.750552 0 
-0.707107 -0.707107 0 
-0.654819 -0.699058 0 
-0.60813 -0.73348 0 
-0.558104 -0.71337 0 
-0.509495 -0.692659 0 
-0.45935 -0.724356 0 
-0.407328 -0.698865 0 
-0.355968 -0.722823 0 
-0.303722 -0.691387 0 
-0.252254 -0.71362 0 
-0.20067 -0.737336 0 
-0.149608 -0.710068 0 
-0.0991558 -0.737129 0 
-0.0495872 -0.709825 0 
-2.23646e-05 -0.737917 0 
0.0494408 -0.709766 0 
0.0991291 -0.737116 0 
0.149502 -0.710042 0 
0.200696 -0.73743 0 
0.252186 -0.713735 0 
0.303753 -0.691518 0 
0.355952 -0.722893 0 
0.407371 -0.698945 0 
0.459374 -0.724407 0 
0.509524 -0.692668 0 
0.558131 -0.713361 0 
0.608151 -0.733462 0 
0.654824 -0.699048 0 
0.707107 -0.707107 0 
-0.750564 -0.660798 0 
-0.699058 -0.654819 0 
-0.647692 -0.647692 0 
-0.603437 -0.675718 0 
-0.55905 -0.655305 0 
-0.508501 -0.639581 0 
-0.457509 -0.671321 0 
-0.405555 -0.646545 0 
-0.354417 -0.670703 0 
-0.302427 -0.639219 0 
-0.251503 -0.661417 0 
-0.20061 -0.684911 0 
-0.149717 -0.655943 0 
-0.0995004 -0.682466 0 
-0.0498216 -0.654561 0 
-5.02113e-05 -0.682664 0 
0.0496787 -0.654499 0 
0.0994374 -0.682501 0 
0.149603 -0.655909 0 
0.200573 -0.684972 0 
0.251388 -0.661524 0 
0.302407 -0.639359 0 
0.354397 -0.670836 0 
0.405575 -0.646641 0 
0.457525 -0.67138 0 
0.508497 -0.639623 0 
0.559063 -0.655324 0 
0.603436 -0.675715 0 
0.64769 -0.64769 0 
0.699048 -0.654824 0 
0.750552 -0.660811 0 
-0.789295 -0.614015 0 
-0.73348 -0.60813 0 
-0.675718 -0.603437 0 
-0.613088 -0.613088 0 
-0.55962 -0.604068 0 
-0.506189 -0.588854 0 
-0.455505 -0.618874 0 
-0.403019 -0.594688 0 
-0.352514 -0.618952 0 
-0.300977 -0.586897 0 
-0.250543 -0.608767 0 
-0.200257 -0.632053 0 
-0.150049 -0.601979 0 
-0.0998281 -0.628222 0 
-0.0500377 -0.599914 0 
-3.12334e-05 -0.628076 0 
0.0498927 -0.599835 0 
0.0997818 -0.628253 0 
0.149924 -0.601867 0 
0.200214 -0.632118 0 
0.250423 -0.608915 0 
0.30086 -0.587085 0 
0.352457 -0.619096 0 
0.402948 -0.594743 0 
0.455483 -0.618952 0 
0.506147 -0.588901 0 
0.55964 -0.604067 0 
0.613069 -0.613069 0 
0.675715 -0.603436 0 
0.733462 -0.608151 0 
0.789274 -0.614041 0 
-0.825268 -0.564741 0 
-0.769772 -0.561786 0 
-0.71337 -0.558104 0 
-0.655305 -0.55905 0 
-0.604068 -0.55962 0 
-0.551031 -0.551031 0 
-0.497922 -0.537596 0 
-0.451508 -0.567021 0 
-0.399773 -0.542431 0 
-0.350494 -0.567003 0 
-0.301574 -0.534146 0 
-0.250874 -0.555692 0 
-0.200542 -0.579013 0 
-0.150324 -0.548268 0 
-0.100169 -0.57443 0 
-0.0500152 -0.545912 0 
-3.29278e-05 -0.574268 0 
0.0499208 -0.545788 0 
0.100058 -0.574485 0 
0.150038 -0.548073 0 
0.200377 -0.579041 0 
0.250556 -0.55585 0 
0.301273 -0.534348 0 
0.350318 -0.567174 0 
0.399615 -0.542384 0 
0.451404 -0.5671 0 
0.497945 -0.537702 0 
0.551073 -0.551073 0 
0.604067 -0.55964 0 
0.655324 -0.559063 0 
0.713361 -0.558131 0 
0.769761 -0.561819 0 
0.825243 -0.564777 0 
-0.857917 -0.513788 0 
-0.802945 -0.512908 0 
-0.747856 -0.510673 0 
-0.692659 -0.509495 0 
-0.639581 -0.508501 0 
-0.588854 -0.506189 0 
-0.537596 -0.497922 0 
-0.486157 -0.486157 0 
-0.444928 -0.512952 0 
-0.401787 -0.486784 0 
-0.351685 -0.513639 0 
-0.299695 -0.48291 0 
-0.250032 -0.503 0 
-0.200501 -0.526165 0 
-0.149489 -0.495195 0 
-0.0999281 -0.521367 0 
-0.0499712 -0.492294 0 
4.64723e-05 -0.520999 0 
0.050147 -0.492108 0 
0.099934 -0.52133 0 
0.14957 -0.494692 0 
0.200133 -0.526255 0 
0.249839 -0.503309 0 
0.299839 -0.483005 0 
0.351514 -0.513798 0 
0.401881 -0.486608 0 
0.444935 -0.513054 0 
0.486228 -0.486228 0 
0.537702 -0.497945 0 
0.588901 -0.506147 0 
0.639623 -0.508497 0 
0.692668 -0.509524 0 
0.747859 -0.510716 0 
0.802929 -0.512965 0 
0.857885 -0.513842 0 
-0.887039 -0.461695 0 
-0.832348 -0.462372 0 
-0.778365 -0.460836 0 
-0.724356 -0.45935 0 
-0.671321 -0.457509 0 
-0.618874 -0.455505 0 
-0.567021 -0.451508 0 
-0.512952 -0.444928 0 
-0.450685 -0.450685 0 
-0.397667 -0.437543 0 
-0.348492 -0.462546 0 
-0.295416 -0.432968 0 
-0.247004 -0.450633 0 
-0.198702 -0.473818 0 
-0.150161 -0.441625 0 
-0.100085 -0.468395 0 
-0.0502271 -0.439281 0 
0.000144229 -0.468374 0 
0.0504178 -0.439106 0 
0.100428 -0.468348 0 
0.150697 -0.441105 0 
0.199103 -0.473881 0 
0.247983 -0.450921 0 
0.296569 -0.432268 0 
0.348831 -0.462562 0 
0.397506 -0.4368 0 
0.450637 -0.450637 0 
0.513054 -0.444935 0 
0.5671 -0.451404 0 
0.618952 -0.455483 0 
0.67138 -0.457525 0 
0.724407 -0.459374 0 
0.778382 -0.460863 0 
0.83234 -0.462414 0 
0.887011 -0.461748 0 
-0.912466 -0.409153 0 
-0.857936 -0.411157 0 
-0.804631 -0.410124 0 
-0.751554 -0.408794 0 
-0.698865 -0.407328 0 
-0.646545 -0.405555 0 
-0.594688 -0.403019 0 
-0.542431 -0.399773 0 
-0.486784 -0.401787 0 
-0.437543 -0.397667 0 
-0.387256 -0.387256 0 
-0.344215 -0.411459 0 
-0.30136 -0.381507 0 
-0.25021 -0.395692 0 
-0.200211 -0.419975 0 
-0.150955 -0.389014 0 
-0.100617 -0.416095 0 
-0.0503197 -0.386922 0 
-4.02994e-05 -0.416525 0 
0.05006 -0.386948 0 
0.100784 -0.416323 0 
0.150432 -0.388572 0 
0.200855 -0.420694 0 
0.25086 -0.396905 0 
0.301746 -0.379789 0 
0.344135 -0.410678 0 
0.385823 -0.385823 0 
0.4368 -0.397506 0 
0.486608 -0.401881 0 
0.542384 -0.399615 0 
0.594743 -0.402948 0 
0.646641 -0.405575 0 
0.698945 -0.407371 0 
0.751626 -0.408863 0 
0.804654 -0.410181 0 
0.857929 -0.411236 0 
0.912429 -0.409236 0 
-0.934288 -0.356519 0 
-0.879963 -0.359855 0 
-0.827415 -0.358606 0 
-0.774971 -0.357337 0 
-0.722823 -0.355968 0 
-0.670703 -0.354417 0 
-0.618952 -0.352514 0 
-0.567003 -0.350494 0 
-0.513639 -0.351685 0 
-0.462546 -0.348492 0 
-0.411459 -0.344215 0 
-0.351697 -0.351697 0 
-0.29839 -0.336232 0 
-0.249846 -0.342529 0 
-0.200971 -0.367271 0 
-0.149995 -0.337521 0 
-0.100435 -0.3646 0 
-0.0498692 -0.335025 0 
-6.88684e-05 -0.365025 0 
0.0495433 -0.334795 0 
0.0996798 -0.364834 0 
0.148162 -0.337172 0 
0.199644 -0.368939 0 
0.24763 -0.345582 0 
0.295348 -0.332889 0 
0.34978 -0.34978 0 
0.410678 -0.344135 0 
0.462562 -0.348831 0 
0.513798 -0.351514 0 
0.567174 -0.350318 0 
0.619096 -0.352457 0 
0.670836 -0.354397 0 
0.722893 -0.355952 0 
0.775038 -0.357323 0 
0.827419 -0.358581 0 
0.879943 -0.359894 0 
0.93426 -0.356593 0 
-0.952721 -0.303845 0 
-0.898929 -0.308871 0 
-0.847481 -0.306888 0 
-0.795641 -0.305781 0 
-0.743684 -0.304815 0 
-0.691387 -0.303722 0 
-0.639219 -0.302427 0 
-0.586897 -0.300977 0 
-0.534146 -0.301574 0 
-0.48291 -0.299695 0 
-0.432968 -0.295416 0 
-0.381507 -0.30136 0 
-0.336232 -0.29839 0 
-0.288184 -0.288184 0 
-0.242975 -0.290577 0 
-0.198059 -0.315051 0 
-0.148383 -0.285894 0 
-0.0994753 -0.313232 0 
-0.0507184 -0.283118 0 
-0.000202902 -0.313447 0 
0.0500077 -0.282824 0 
0.0988289 -0.312817 0 
0.148102 -0.28482 0 
0.195742 -0.317413 0 
0.240766 -0.295824 0 
0.285014 -0.285014 0 
0.332889 -0.295348 0 
0.379789 -0.301746 0 
0.432268 -0.296569 0 
0.483005 -0.299839 0 
0.534348 -0.301273 0 
0.587085 -0.30086 0 
0.639359 -0.302407 0 
0.691518 -0.303753 0 
0.743741 -0.304862 0 
0.795701 -0.305831 0 
0.847482 -0.306946 0 
0.898924 -0.308979 0 
0.952687 -0.303953 0 
-0.96803 -0.250833 0 
-0.916037 -0.258282 0 
-0.866979 -0.254732 0 
-0.816639 -0.25358 0 
-0.765535 -0.252907 0 
-0.71362 -0.252254 0 
-0.661417 -0.251503 0 
-0.608767 -0.250543 0 
-0.555692 -0.250874 0 
-0.503 -0.250032 0 
-0.450633 -0.247004 0 
-0.395692 -0.25021 0 
-0.342529 -0.249846 0 
-0.290577 -0.242975 0 
-0.239946 -0.239946 0 
-0.194478 -0.26004 0 
-0.151293 -0.23238 0 
-0.101048 -0.260904 0 
-0.0503938 -0.232537 0 
-0.000203281 -0.262984 0 
0.050638 -0.232316 0 
0.100942 -0.260855 0 
0.152412 -0.232597 0 
0.195768 -0.261421 0 
0.241873 -0.241873 0 
0.295824 -0.240766 0 
0.345582 -0.24763 0 
0.396905 -0.25086 0 
0.450921 -0.247983 0 
[...]
POINT_DATA 1245 
VECTORS vectors float
-0.253293 -0.352513 0.54384 
-0.444105 -0.463915 0.861182 
-0.189711 0.116759 0.83443 
-0.469689 0.379945 0.659064 
-0.36002 -0.220888 0.795824 
0.418703 -0.305886 0.710317 
-0.0837105 -0.281473 0.591334 
-0.0940347 -0.432298 0.872685 
0.0724406 -0.297106 0.784346 
-0.391552 0.157157 0.58333 
0.203135 -0.449189 0.834833 
0.452008 0.209916 0.884784 
0.424305 -0.0803597 0.62189 
-0.380226 0.195098 0.578591 
-0.427613 0.225352 0.577108 
-0.00772381 0.10314 0.660654 
0.301709 0.0684728 0.525889 
-0.328557 0.0964085 0.748018 
-0.499878 -0.0328923 0.558627 
0.403842 0.305478 0.592732 
0.439327 0.222195 0.538539 
-0.330846 0.481584 0.641465 
-0.226184 0.150454 0.58131 
0.176201 -0.252191 0.623298 
0.0450411 -0.257438 0.776785 
-0.187052 -0.0935177 0.926224 
-0.488421 -0.0305588 0.632945 
-0.142711 -0.302147 0.86988 
-0.435268 0.496641 0.684589 
0.208449 0.0289238 0.965328 
-0.0181355 -0.315104 0.781737 
0.066781 -0.306486 0.849487 
0.0424662 0.402025 0.620859 
0.119058 0.126004 0.578312 
0.15559 0.428128 0.658183 
-0.329212 0.464364 0.875131 
0.147792 -0.435207 0.965291 
0.283458 0.137295 0.616195 
-0.321987 -0.0759765 0.978452 
-0.48436 -0.47688 0.798175 
0.347388 0.404553 0.895435 
-0.314904 -0.351068 0.748314 
0.333009 -0.21623 0.890282 
0.260652 -0.0940928 0.697922 
0.274421 0.244572 0.528623 
0.266529 0.209987 0.880527 
-0.325562 -0.0229295 0.937826 
0.422199 0.201835 0.641806 
-0.435943 -0.455565 0.835533 
0.252929 -0.182182 0.699509 
-0.410074 -0.235697 0.524115 
0.386546 0.391691 0.824494 
-0.134237 0.470448 0.734647 
-0.160944 -0.457432 0.926529 
-0.157822 -0.0354651 0.542359 
-0.322236 -0.13485 0.511647 
0.436875 -0.275687 0.783278 
-0.0373695 0.0881727 0.757229 
-0.0136288 0.220476 0.866412 
0.309498 -0.210795 0.869111 
0.252899 -0.0581092 0.960997 
-0.398292 0.309252 0.612225 
-0.157973 0.488217 0.603829 
-0.192793 0.149745 0.551805 
0.0696327 0.0815108 0.591004 
-0.462454 0.494466 0.889344 
0.290449 0.164346 0.781413 
0.490139 0.038388 0.859841 
-0.396465 -0.398095 0.818408 
0.450735 0.322599 0.657639 
0.272939 -0.381068 0.938531 
0.270967 0.492514 0.911267 
-0.265334 -0.0923695 0.876235 
0.227436 0.398504 0.847477 
-0.155363 -0.0823255 0.98068 
0.0546746 -0.0832927 0.591346 
0.344416 0.459557 0.837673 
-0.402084 -0.203243 0.898721 
0.497599 0.0726625 0.924787 
0.282232 -0.126407 0.810134 
0.362131 0.186 0.61301 
-0.288905 -0.204589 0.668587 
-0.1659 0.109675 0.618705 
-0.423041 -0.49118 0.742117 
0.186736 -0.267545 0.789541 
0.196103 -0.283654 0.601278 
0.446402 -0.275863 0.666232 
-0.00744835 -0.382252 0.704369 
0.358306 -0.129585 0.814967 
-0.127729 0.0601734 0.744962 
-0.428411 -0.208825 0.846173 
0.244518 -0.207605 0.880897 
-0.278817 0.386287 0.866361 
0.148964 0.286726 0.983489 
-0.167897 0.178847 0.749572 
0.293411 -0.179148 0.788126 
-0.444812 0.497048 0.500898 
-0.234255 -0.453755 0.974392 
-0.33949 -0.20742 0.556848 
-0.236578 -0.316038 0.524987 
-0.487964 0.48738 0.804815 
-0.0953431 0.128032 0.75829 
-0.245141 -0.0830632 0.820632 
0.431607 0.0331099 0.813406 
0.206319 0.3407 0.683774 
-0.219365 -0.413928 0.515394 
-0.233611 0.317462 0.825421 
0.356207 0.0615309 0.774365 
-0.201399 0.469223 0.818919 
-0.126475 -0.128961 0.568596 
0.263963 0.183224 0.524939 
-0.0877517 -0.474664 0.995753 
0.110673 -0.499645 0.744496 
-0.127389 -0.224261 0.692108 
-0.0713938 0.442503 0.747676 
-0.349249 -0.11466 0.586801 
0.335134 0.387258 0.852401 
0.314451 -0.169642 0.748029 
0.438571 -0.407982 0.505626 
-0.442106 -0.129236 0.628307 
-0.398859 -0.0472641 0.998324 
0.285059 -0.449425 0.708486 
-0.17927 0.169308 0.860829 
0.0319923 0.105512 0.553877 
0.203039 0.00681573 0.659522 
0.290378 0.319822 0.523815 
-0.339182 -0.141946 0.876428 
-0.165068 -0.407287 0.838575 
0.168184 0.012334 0.920378 
-0.462753 -0.0844583 0.513574 
0.214601 0.229228 0.54958 
0.176464 0.318519 0.734014 
0.147582 0.221038 0.882843 
-0.316336 -0.00566473 0.701162 
-0.443093 0.264618 0.507998 
0.149934 0.0749359 0.561446 
0.0534077 -0.192671 0.672657 
-0.319795 -0.234217 0.802963 
-0.482651 -0.0996222 0.504092 
0.474889 0.265683 0.764937 
0.335712 -0.238673 0.870899 
0.263883 0.404659 0.780333 
0.0914442 -0.42024 0.766527 
-0.0595667 0.230491 0.8311 
0.213107 0.248202 0.833489 
-0.356149 -0.101008 0.649896 
-0.0946889 -0.169708 0.679074 
0.306701 0.0515987 0.845382 
0.0778215 0.128673 0.896096 
0.167891 0.349932 0.686244 
-0.168342 -0.432335 0.619662 
-0.066624 0.298641 0.893602 
0.458804 0.0288246 0.586326 
-0.333143 -0.127895 0.660878 
0.0806567 -0.130731 0.860492 
-0.349232 -0.0520939 0.832184 
-0.0754358 0.189669 0.850604 
-0.113594 -0.032542 0.692125 
-0.157879 0.37542 0.658376 
-0.460668 0.480191 0.620165 
-0.237721 0.474467 0.757895 
0.416185 -0.0101449 0.534471 
-0.49328 0.456878 0.992581 
-0.217374 -0.0327937 0.681493 
0.226829 -0.388713 0.919875 
0.0858244 0.3282 0.76099 
-0.106523 -0.291925 0.869565 
-0.0116877 -0.269987 0.58367 
-0.175291 -0.402058 0.522367 
0.261694 0.232555 0.53277 
-0.434996 -0.332151 0.907522 
0.427887 -0.320804 0.741736 
0.00350882 -0.33803 0.998167 
0.273581 0.261801 0.961357 
-0.177941 0.467063 0.927734 
-0.496007 0.0182782 0.728901 
-0.479079 0.438084 0.832078 
0.309 -0.476591 0.814698 
-0.469067 0.0750802 0.884226 
0.439013 -0.200481 0.90547 
0.149495 -0.477168 0.990787 
0.0617115 0.380906 0.580381 
0.218135 -0.182854 0.937179 
-0.422712 0.122299 0.6917 
0.221901 -0.325276 0.836371 
0.22093 -0.133539 0.752492 
-0.0736026 0.126236 0.903745 
0.108878 -0.138429 0.755612 
-0.368123 0.4982 0.562282 
0.0126167 -0.16708 0.752864 
-0.23544 0.337676 0.791606 
-0.394742 -0.284058 0.736679 
-0.142682 -0.405485 0.752921 
-0.489418 -0.15779 0.683143 
-0.110272 0.129133 0.974053 
-0.290979 0.00360912 0.716348 
0.0702036 -0.414133 0.729173 
0.214428 -0.322887 0.731172 
-0.21723 0.257745 0.522567 
0.368517 -0.283742 0.576296 
0.11267 0.177585 0.72468 
-0.222103 -0.460743 0.777661 
-0.0928287 0.299293 0.905986 
0.156824 0.259311 0.813374 
0.110485 -0.0755785 0.579637 
-0.308458 -0.0167247 0.556888 
0.203397 -0.492799 0.602111 
-0.414586 0.305014 0.869545 
0.15539 -0.347693 0.627809 
-0.477235 0.274274 0.627939 
0.470597 0.189542 0.587976 
-0.191875 0.0122425 0.508416 
-0.3278 -0.366755 0.907753 
0.248898 0.210084 0.518129 
0.298116 0.4323 0.939109 
0.0346716 -0.274357 0.554725 
-0.0185374 0.0231269 0.929444 
-0.184729 -0.110067 0.928526 
-0.275064 -0.000973267 0.698865 
-0.141667 -0.187813 0.50396 
-0.22211 -0.324899 0.615562 
-0.0541722 0.151248 0.775452 
0.220086 0.198748 0.741336 
-0.441476 -0.351386 0.753673 
0.0244534 -0.473945 0.75395 
-0.495957 -0.314024 0.843422 
0.384796 -0.101053 0.50913 
0.483288 -0.240431 0.513159 
-0.326975 0.231672 0.531902 
-0.283651 0.46148 0.629794 
-0.484782 0.284614 0.845201 
-0.229883 0.0725019 0.683705 
-0.139823 -0.265792 0.888904 
-0.234702 -0.454244 0.73142 
-0.293863 0.286668 0.931482 
0.0726132 -0.463388 0.735231 
0.254724 -0.233048 0.618045 
0.490799 -0.415666 0.76612 
0.16174 0.205215 0.804601 
-0.185442 0.0879069 0.640028 
-0.128827 -0.262654 0.922913 
-0.0110843 -0.331234 0.803408 
0.480201 -0.312852 0.92318 
0.133787 0.0913761 0.913594 
0.134439 0.319822 0.539176 
0.0509089 -0.0353909 0.895532 
-0.419641 0.0956504 0.604938 
0.486894 0.11086 0.819023 
0.266153 -0.1112 0.930002 
0.350032 0.0889266 0.782488 
-0.36759 0.148698 0.918762 
0.299503 0.26996 0.51083 
0.139863 -0.0839468 0.692735 
0.397924 -0.186021 0.570977 
-0.48966 -0.192975 0.526218 
-0.218823 -0.189566 0.772151 
0.220098 0.249878 0.600253 
0.20479 0.341759 0.776552 
-0.057073 -0.0803406 0.892856 
-0.438947 0.0769343 0.873035 
-0.333397 0.0378676 0.786708 
-0.130383 0.231456 0.538392 
0.381584 -0.470639 0.526057 
-0.340401 0.292753 0.955496 
0.0715247 -0.0825866 0.57251 
0.476414 -0.448407 0.737193 
0.389063 0.47305 0.706256 
0.238033 -0.486159 0.980453 
0.327061 -0.227113 0.77578 
-0.110941 0.12842 0.759834 
-0.00795985 0.252714 0.60183 
0.497915 0.138543 0.754688 
-0.0151264 -0.326357 0.526011 
-0.0333736 0.102271 0.729082 
0.0450248 0.2446 0.601004 
-0.30892 0.0300748 0.54703 
-0.417983 0.245466 0.739295 
0.207657 -0.280835 0.801752 
-0.299261 -0.239237 0.534556 
-0.408845 0.0463013 0.506011 
0.0344815 0.011009 0.716412 
-0.140214 -0.266192 0.775995 
-0.465875 0.0968763 0.744851 
-0.00776187 0.0860753 0.875278 
0.0648972 0.172429 0.536196 
-0.150965 -0.153361 0.694591 
0.309467 -0.0962522 0.750814 
0.226754 -0.480694 0.520231 
0.120617 0.0976283 0.833091 
0.209034 0.260775 0.561661 
-0.160307 -0.184614 0.618029 
-0.134963 -0.257367 0.571426 
-0.244415 0.38435 0.801392 
0.242687 -0.268735 0.674123 
0.287051 0.433362 0.908842 
-0.214758 0.111718 0.793279 
0.0663476 -0.0752714 0.606736 
0.312785 -0.277893 0.542511 
0.477124 -0.305444 0.691013 
0.259849 0.178987 0.55587 
0.225716 -0.111496 0.657554 
-0.330395 -0.439458 0.865913 
0.0293555 -0.377309 0.743017 
0.492925 0.0107927 0.927267 
-0.421303 -0.0967041 0.924515 
-0.205553 -0.485418 0.637659 
0.483184 0.230185 0.915825 
0.0743129 -0.270813 0.630919 
-0.402971 0.288642 0.528372 
-0.0438905 0.124336 0.588105 
0.357468 0.361147 0.582954 
0.000743876 0.151552 0.664005 
0.278133 0.358944 0.619709 
0.000555695 -0.11853 0.994641 
-0.0331564 0.0895033 0.759092 
-0.0956612 0.19191 0.744404 
-0.231532 0.340327 0.5117 
0.299272 -0.119335 0.726481 
0.267998 0.238713 0.772299 
0.273825 0.0538923 0.527924 
-0.115984 0.483532 0.927247 
0.0390592 -0.0716229 0.648924 
0.00573508 -0.0756498 0.956817 
-0.19212 0.297801 0.500351 
-0.378101 -0.399844 0.669514 
0.00567989 -0.202664 0.626756 
-0.278219 0.168743 0.790322 
-0.0906567 0.0796589 0.564437 
-0.354435 -0.02575 0.937483 
-0.0078512 0.282378 0.879147 
0.0353011 -0.152336 0.838228 
0.387868 0.24204 0.506273 
-0.414154 -0.156229 0.855052 
0.0829857 -0.21761 0.668538 
-0.262326 -0.258038 0.997284 
0.0799066 -0.38229 0.730469 
0.0192225 -0.343628 0.566397 
-0.488117 -0.249093 0.584892 
-0.471096 0.105363 0.750744 
0.112069 -0.357185 0.540483 
-0.154946 -0.375481 0.851345 
-0.20106 0.341869 0.703476 
-0.157092 0.210823 0.697815 
-0.0354149 0.103133 0.75398 
0.044594 0.488737 0.526788 
-0.211258 -0.0846042 0.800897 
0.108577 0.292334 0.92399 
0.473283 0.359985 0.91278 
0.16369 -0.485804 0.659567 
-0.337949 -0.04583 0.756008 
0.0728111 -0.411026 0.637225 
-0.494491 -0.415882 0.763941 
0.407961 -0.102662 0.753485 
0.18603 -0.00420865 0.960842 
0.0526396 -0.252823 0.577471 
0.227574 0.448218 0.528754 
-0.270263 0.382198 0.978556 
0.370968 0.218619 0.783716 
-0.142109 0.0951692 0.894091 
-0.178772 0.160642 0.843299 
-0.278677 -0.300576 0.521407 
0.0365497 -0.0940431 0.89676 
-0.126613 -0.0500242 0.839184 
-0.291836 0.472988 0.776298 
0.370985 0.242317 0.60627 
0.479662 0.165021 0.70062 
0.401781 0.220292 0.740753 
-0.388871 0.271623 0.87561 
0.390224 0.392711 0.673447 
-0.0048289 0.47362 0.523721 
0.430541 0.234523 0.871731 
0.00195144 0.442031 0.51027 
-0.211452 -0.338976 0.500226 
0.103877 -0.111788 0.607491 
-0.391952 -0.486749 0.768386 
0.122347 0.12797 0.896691 
0.39656 -0.460431 0.716674 
0.142579 -0.438317 0.644357 
0.292728 -0.313303 0.720947 
0.459537 0.439719 0.918574 
0.492392 0.0726763 0.93779 
-0.415226 0.0419061 0.861696 
0.0096144 0.00759548 0.679265 
-0.434897 0.0112855 0.85565 
0.243019 -0.0257095 0.689979 
-0.293785 -0.224013 0.902989 
0.0215944 0.0345693 0.756911 
0.0787799 0.0910189 0.900076 
0.206788 0.447178 0.776707 
0.471863 0.075638 0.716188 
0.483347 -0.31359 0.852403 
-0.489389 -0.35635 0.875862 
-0.0986238 -0.25769 0.534456 
0.455331 0.257344 0.717885 
-0.177081 -0.129277 0.749486 
0.058736 -0.415912 0.863847 
-0.0449122 0.109569 0.63852 
0.0104555 -0.491035 0.682393 
-0.477813 -0.169179 0.747948 
-0.0645009 -0.45725 0.671687 
-0.141247 -0.116671 0.804907 
0.267901 0.469006 0.738415 
-0.0438022 -0.227353 0.59403 
-0.304191 -0.101348 0.617846 
-0.101013 -0.245901 0.943063 
0.292335 0.375602 0.85832 
-0.00438664 -0.0744316 0.625198 
-0.198068 0.245164 0.650109 
-0.187934 -0.223135 0.9188 
0.118018 -0.279027 0.904202 
0.146001 0.340896 0.64571 
0.216383 0.18297 0.926842 
-0.158271 0.0538995 0.921701 
0.366247 -0.200624 0.75198 
-0.258792 0.113413 0.998619 
-0.0064233 -0.438131 0.631201 
-0.0916876 -0.262162 0.999899 
0.174647 0.025124 0.805592 
0.395461 0.483579 0.521265 
0.39171 0.492589 0.905047 
0.279658 -0.259112 0.565636 
0.451196 0.316683 0.813604 
-0.252108 0.22336 0.965299 
-0.150255 0.23082 0.77873 
0.445434 -0.122589 0.822707 
0.214038 0.138587 0.867433 
0.163393 -0.446224 0.809601 
-0.24895 0.269219 0.765357 
0.423534 -0.127715 0.832357 
0.348561 -0.0930259 0.61372 
-0.474302 0.385158 0.527443 
-0.355839 -0.25486 0.662036 
0.422045 -0.290286 0.581468 
0.148275 0.0558426 0.641111 
0.266084 -0.295466 0.654684 
-0.191245 0.00666985 0.711249 
0.0598921 -0.261017 0.720997 
0.10639 -0.0353763 0.523302 
0.214234 0.0183326 0.994634 
-0.460794 0.460292 0.80751 
0.403907 -0.460745 0.82912 
0.312405 -0.0229859 0.500469 
-0.401554 -0.303311 0.720995 
0.422245 0.401314 0.644609 
0.491558 -0.308099 0.997537 
0.0760371 0.402789 0.569423 
0.0145152 0.187826 0.745981 
0.154379 -0.201089 0.952055 
0.250368 -0.339127 0.807625 
0.0450708 -0.227691 0.567077 
-0.491979 0.497722 0.619987 
0.453857 0.195551 0.786978 
0.320075 -0.100365 0.792136 
0.133574 0.377927 0.838917 
-0.474142 -0.112524 0.510939 
0.449553 0.203569 0.676847 
0.397484 -0.146888 0.741435 
0.0831854 -0.199875 0.652091 
-0.241223 -0.160168 0.575152 
0.318502 -0.292452 0.678439 
-0.350975 -0.479753 0.914207 
0.31355 -0.293183 0.937503 
0.111865 -0.40405 0.909629 
-0.192823 -0.460909 0.904888 
0.116002 -0.452374 0.968277 
0.0389909 -0.148863 0.646706 
0.179453 -0.39809 0.529757 
0.382411 -0.0629818 0.580415 
0.0952493 -0.153704 0.953317 
0.120681 0.239642 0.836448 
0.405056 0.426801 0.629012 
-0.239001 -0.43979 0.7163 
-0.289838 -0.244238 0.501627 
0.0193877 0.460644 0.608039 
-0.0808034 0.00773305 0.69256 
0.438032 0.294646 0.592458 
0.0245499 0.258376 0.878873 
-0.309427 -0.0984259 0.572213 
-0.410783 -0.493311 0.739368 
0.184782 -0.0848483 0.59564 
0.291761 -0.217028 0.560717 
0.476044 0.499261 0.838134 
0.0983707 0.149794 0.639951 
-0.346783 -0.235214 0.77827 
-0.406063 -0.373497 0.820968 
-0.234579 0.257513 0.709868 
0.0184364 -0.0947202 0.599247 
-0.359558 -0.260778 0.948521 
0.334554 -0.148859 0.811792 
0.0633443 0.394108 0.60321 
-0.270507 0.208774 0.894317 
-0.325713 -0.237263 0.545358 
0.144246 -0.110925 0.915965 
0.113732 0.0380655 0.878564 
0.361221 0.0221437 0.788928 
-0.435755 0.456495 0.655956 
-0.218093 0.22047 0.848594 
0.254172 -0.0526077 0.900802 
0.264238 0.453586 0.545158 
0.233737 0.255019 0.600755 
-0.43227 0.0624474 0.910049 
0.25052 0.285066 0.811795 
0.0300236 -0.45547 0.64093 
0.434329 -0.350335 0.75771 
0.496977 -0.0963759 0.56806 
0.0315527 0.0948924 0.535398 
0.123596 0.335515 0.662639 
0.268681 0.27617 0.537305 
-0.274808 0.171799 0.6849 
0.215624 -0.161156 0.671435 
0.390071 -0.264695 0.752096 
-0.232913 -0.424867 0.714925 
-0.243796 0.113454 0.875113 
0.385048 -0.0532413 0.705248 
0.306104 -0.311423 0.515754 
-0.292543 0.32257 0.777704 
-0.202143 0.312752 0.801509 
0.214202 -0.188167 0.970237 
0.162015 0.1574 0.989809 
-0.286751 0.447393 0.658202 
0.287161 -0.0517296 0.911556 
0.245633 -0.404794 0.856551 
-0.11817 0.107037 0.713031 
-0.125755 0.427816 0.748778 
0.285394 0.392924 0.883608 
0.276951 0.482751 0.890586 
-0.474619 -0.39008 0.984507 
0.346789 -0.131775 0.658217 
0.0257999 -0.0717549 0.757262 
0.168144 -0.377942 0.765485 
-0.259166 -0.0015516 0.541633 
0.255048 -0.39347 0.775829 
-0.188447 0.281867 0.822822 
-0.438961 -0.124747 0.519648 
-0.318509 0.120488 0.962539 
-0.0548095 0.312411 0.784242 
0.205414 0.0705789 0.875133 
0.453717 -0.490595 0.803637 
-0.082871 0.151211 0.901458 
-0.0897564 0.164697 0.741291 
-0.173603 0.0462279 0.572193 
-0.40024 -0.497581 0.642604 
-0.0747643 -0.00113157 0.936253 
0.453612 -0.26126 0.990458 
0.298831 -0.345589 0.910128 
0.0565023 0.237043 0.733247 
0.118899 0.34962 0.750113 
0.378079 -0.226418 0.681066 
-0.408177 0.121608 0.778097 
0.218855 0.406714 0.804592 
-0.412414 0.0117171 0.966021 
-0.283739 -0.16647 0.771323 
-0.266992 0.30826 0.721628 
-0.156121 -0.291428 0.583663 
0.456406 -0.225442 0.645142 
0.232929 0.429095 0.794356 
-0.0575122 0.242402 0.822892 
0.0446416 0.269694 0.513894 
0.276117 0.389299 0.661055 
0.155858 -0.22986 0.850591 
0.205536 -0.202675 0.547574 
-0.17886 0.0557425 0.769143 
0.414786 -0.305707 0.642362 
0.272021 -0.489393 0.942184 
0.4229 0.172364 0.56321 
-0.101175 0.39999 0.87789 
-0.120975 -0.491289 0.544044 
0.18599 0.0164139 0.516369 
0.0721557 -0.408518 0.69871 
-0.45987 0.143653 0.98829 
-0.0738281 0.392306 0.970012 
0.166756 -0.105452 0.525794 
-0.378283 -0.479191 0.709874 
0.369249 -0.346352 0.915459 
-0.0517247 0.208649 0.840607 
-0.196415 0.465813 0.682986 
0.0249035 -0.314901 0.882134 
0.248787 -0.0944227 0.583535 
0.384087 0.0555093 0.898768 
0.286344 -0.475698 0.603777 
0.0474941 -0.136983 0.821063 
-0.499985 0.326626 0.944588 
0.445723 -0.494565 0.684704 
0.370162 -0.0120343 0.927556 
0.130038 -0.255085 0.741138 
0.119199 -0.44354 0.964304 
0.439146 0.262861 0.774263 
0.203585 -0.410073 0.719974 
0.363533 0.307387 0.645073 
0.294978 -0.481325 0.531134 
0.187963 -0.46915 0.544995 
-0.278611 0.419542 0.742351 
-0.266308 0.262939 0.507668 
-0.28467 -0.381375 0.655354 
-0.186811 -0.219206 0.847033 
-0.166773 -0.420731 0.583934 
0.0342993 0.284238 0.964087 
-0.261457 -0.177169 0.947707 
-0.361224 0.479764 0.755201 
-0.128002 -0.440157 0.752449 
-0.124465 -0.247062 0.898251 
-0.23322 -0.109101 0.658742 
-0.15143 -0.455866 0.857559 
-0.216728 -0.00207005 0.706922 
0.113964 0.082741 0.928885 
0.112673 -0.343988 0.915042 
0.301551 -0.399449 0.853573 
0.328397 0.236732 0.975704 
-0.210044 -0.356183 0.828095 
-0.0554535 -0.282996 0.840142 
-0.233852 -0.00608055 0.57823 
0.0818018 0.182936 0.940874 
0.313841 0.470905 0.896015 
0.47232 -0.252482 0.595714 
-0.134389 0.317447 0.583638 
-0.448943 0.354664 0.598075 
-0.178699 -0.445772 0.74572 
-0.368759 -0.0822921 0.99424 
0.474313 -0.132903 0.602907 
0.206597 0.397766 0.576761 
-0.414628 0.151951 0.826499 
-0.38462 0.0663681 0.642055 
-0.270376 -0.0942281 0.65585 
0.358731 -0.170684 0.949586 
-0.259442 0.0415873 0.772211 
-0.450201 0.161752 0.70683 
0.200519 -0.200269 0.71964 
0.143132 0.282303 0.83923 
0.30056 -0.0947902 0.817274 
-0.418374 -0.190566 0.525966 
0.0255719 -0.427828 0.543217 
-0.464848 -0.0542142 0.910559 
-0.434204 -0.00848651 0.948156 
0.0363715 0.216049 0.991196 
-0.176661 -0.0959491 0.804077 
-0.179752 0.0187748 0.856884 
-0.40653 -0.331751 0.936977 
0.497589 0.485253 0.533142 
-0.454136 0.482642 0.661257 
-0.123586 0.057938 0.52162 
0.153785 -0.267998 0.55805 
-0.132928 0.0979323 0.864763 
-0.421895 0.470104 0.817521 
0.353236 0.228995 0.552905 
-0.391019 0.456717 0.881286 
0.137229 0.232535 0.742301 
-0.322565 0.207087 0.861864 
-0.0676593 -0.0569978 0.854131 
0.406454 -0.198679 0.562748 
0.132821 0.398254 0.558254 
-0.495556 -0.0859337 0.538287 
-0.26134 -0.328617 0.918625 
0.427615 -0.371347 0.570367 
-0.248857 -0.440532 0.8976 
-0.345187 -0.0430252 0.704472 
0.33045 -0.462669 0.994897 
0.28587 0.15842 0.90491 
0.237212 -0.084088 0.998617 
0.30521 -0.361192 0.646291 
0.12377 -0.00483138 0.728954 
0.400946 0.342299 0.85672 
0.224358 0.261854 0.923829 
0.416502 0.0100507 0.556275 
-0.326204 0.261155 0.576556 
-0.282801 -0.482441 0.863225 
0.170149 -0.0324905 0.626814 
0.158932 0.205573 0.628403 
0.0158571 -0.242093 0.920543 
0.384732 -0.355701 0.780801 
-0.257631 -0.154537 0.675065 
0.387973 -0.10352 0.868661 
-0.195893 -0.177825 0.607602 
-0.33725 0.364262 0.803658 
-0.283033 -0.188616 0.783791 
-0.476252 0.16908 0.663474 
-0.18429 -0.24599 0.999229 
-0.377581 -0.360875 0.896223 
0.172971 0.491397 0.554579 
0.451743 0.194221 0.784453 
0.0523757 -0.448753 0.688061 
0.107534 -0.122515 0.565427 
0.311356 0.0352802 0.558509 
0.484085 -0.281015 0.832172 
0.371444 -0.484666 0.779294 
-0.223865 -0.464296 0.580162 
0.155843 0.116608 0.54037 