# vtk DataFile Version 3.0 
Exported using Morpho https://github.com/Morpho-lang/morpho 
ASCII 
DATASET UNSTRUCTURED_GRID 

POINTS 1245 float 
-0.303845 -0.952721 0 
-0.250833 -0.96803 0 
-0.195084 -0.980787 0 
-0.146308 -0.989239 0 
-0.0940719 -0.995565 0 
-0.0475118 -0.998871 0 
-0.000246339 -1 0 
0.0470875 -0.998891 0 
0.0937543 -0.995595 0 
0.146139 -0.989264 0 
0.195062 -0.980791 0 
0.250843 -0.968028 0 
0.303953 -0.952687 0 
-0.409153 -0.912466 0 
-0.356519 -0.934288 0 
-0.308871 -0.898929 0 
-0.258282 -0.916037 0 
-0.207345 -0.934859 0 
-0.154868 -0.930629 0 
-0.104343 -0.948989 0 
-0.0520099 -0.939193 0 
-8.5762e-05 -0.954582 0 
0.0518744 -0.939288 0 
0.104354 -0.949042 0 
0.154696 -0.9306 0 
0.207366 -0.934975 0 
0.258274 -0.916081 0 
0.308979 -0.898924 0 
0.356593 -0.93426 0 
0.409236 -0.912429 0 
-0.513788 -0.857917 0 
-0.461695 -0.887039 0 
-0.411157 -0.857936 0 
-0.359855 -0.879963 0 
-0.306888 -0.847481 0 
-0.254732 -0.866979 0 
-0.201991 -0.889059 0 
-0.149956 -0.874108 0 
-0.100608 -0.900088 0 
-0.0497575 -0.880388 0 
2.4595e-05 -0.904789 0 
0.0496869 -0.8804 0 
0.100612 -0.900177 0 
0.149872 -0.874171 0 
0.202071 -0.889165 0 
0.254695 -0.867031 0 
0.306946 -0.847482 0 
0.359894 -0.879943 0 
0.411236 -0.857929 0 
0.461748 -0.887011 0 
0.513842 -0.857885 0 
-0.564741 -0.825268 0 
-0.512908 -0.802945 0 
-0.462372 -0.832348 0 
-0.410124 -0.804631 0 
-0.358606 -0.827415 0 
-0.305781 -0.795641 0 
-0.25358 -0.816639 0 
-0.200756 -0.839997 0 
-0.149043 -0.818944 0 
-0.0987265 -0.846667 0 
-0.0490473 -0.822548 0 
5.00659e-05 -0.849932 0 
0.0490834 -0.822542 0 
0.0987838 -0.846676 0 
0.148997 -0.818924 0 
0.200826 -0.840131 0 
0.253508 -0.816728 0 
0.305831 -0.795701 0 
0.358581 -0.827419 0 
0.410181 -0.804654 0 
0.462414 -0.83234 0 
0.512965 -0.802929 0 
0.564777 -0.825243 0 
-0.660798 -0.750564 0 
-0.614015 -0.789295 0 
-0.561786 -0.769772 0 
-0.510673 -0.747856 0 
-0.460836 -0.778365 0 
-0.408794 -0.751554 0 
-0.357337 -0.774971 0 
-0.304815 -0.743684 0 
-0.252907 -0.765535 0 
-0.200631 -0.789263 0 
-0.149244 -0.764328 0 
-0.0986912 -0.791935 0 
-0.0492815 -0.765764 0 
4.16586e-05 -0.79382 0 
0.0492411 -0.765708 0 
0.0987508 -0.791951 0 
0.149196 -0.764326 0 
0.200666 -0.789356 0 
0.252841 -0.765599 0 
0.304862 -0.743741 0 
0.357323 -0.775038 0 
0.408863 -0.751626 0 
0.460863 -0.778382 0 
0.510716 -0.747859 0 
0.561819 -0.769761 0 
0.614041 -0.789274 0 
0.660811 -0.750552 0 
-0.707107 -0.707107 0 
-0.654819 -0.699058 0 
-0.60813 -0.73348 0 
-0.558104 -0.71337 0 
-0.509495 -0.692659 0 
-0.45935 -0.724356 0 
-0.407328 -0.698865 0 
-0.355968 -0.722823 0 
-0.303722 -0.691387 0 
-0.252254 -0.71362 0 
-0.20067 -0.737336 0 
-0.149608 -0.710068 0 
-0.0991558 -0.737129 0 
-0.0495872 -0.709825 0 
-2.23646e-05 -0.737917 0 
0.0494408 -0.709766 0 
0.0991291 -0.737116 0 
0.149502 -0.710042 0 
0.200696 -0.73743 0 
0.252186 -0.713735 0 
0.303753 -0.691518 0 
0.355952 -0.722893 0 
0.407371 -0.698945 0 
0.459374 -0.724407 0 
0.509524 -0.692668 0 
0.558131 -0.713361 0 
0.608151 -0.733462 0 
0.654824 -0.699048 0 
0.707107 -0.707107 0 
-0.750564 -0.660798 0 
-0.699058 -0.654819 0 
-0.647692 -0.647692 0 
-0.603437 -0.675718 0 
-0.55905 -0.655305 0 
-0.508501 -0.639581 0 
-0.457509 -0.671321 0 
-0.405555 -0.646545 0 
-0.354417 -0.670703 0 
-0.302427 -0.639219 0 
-0.251503 -0.661417 0 
-0.20061 -0.684911 0 
-0.149717 -0.655943 0 
-0.0995004 -0.682466 0 
-0.0498216 -0.654561 0 
-5.02113e-05 -0.682664 0 
0.0496787 -0.654499 0 
0.0994374 -0.682501 0 
0.149603 -0.655909 0 
0.200573 -0.684972 0 
0.251388 -0.661524 0 
0.302407 -0.639359 0 
0.354397 -0.670836 0 
0.405575 -0.646641 0 
0.457525 -0.67138 0 
0.508497 -0.639623 0 
0.559063 -0.655324 0 
0.603436 -0.675715 0 
0.64769 -0.64769 0 
0.699048 -0.654824 0 
0.750552 -0.660811 0 
-0.789295 -0.614015 0 
-0.73348 -0.60813 0 
-0.675718 -0.603437 0 
-0.613088 -0.613088 0 
-0.55962 -0.604068 0 
-0.506189 -0.588854 0 
-0.455505 -0.618874 0 
-0.403019 -0.594688 0 
-0.352514 -0.618952 0 
-0.300977 -0.586897 0 
-0.250543 -0.608767 0 
-0.200257 -0.632053 0 
-0.150049 -0.601979 0 
-0.0998281 -0.628222 0 
-0.0500377 -0.599914 0 
-3.12334e-05 -0.628076 0 
0.0498927 -0.599835 0 
0.0997818 -0.628253 0 
0.149924 -0.601867 0 
0.200214 -0.632118 0 
0.250423 -0.608915 0 
0.30086 -0.587085 0 
0.352457 -0.619096 0 
0.402948 -0.594743 0 
0.455483 -0.618952 0 
0.506147 -0.588901 0 
0.55964 -0.604067 0 
0.613069 -0.613069 0 
0.675715 -0.603436 0 
0.733462 -0.608151 0 
0.789274 -0.614041 0 
-0.825268 -0.564741 0 
-0.769772 -0.561786 0 
-0.71337 -0.558104 0 
-0.655305 -0.55905 0 
-0.604068 -0.55962 0 
-0.551031 -0.551031 0 
-0.497922 -0.537596 0 
-0.451508 -0.567021 0 
-0.399773 -0.542431 0 
-0.350494 -0.567003 0 
-0.301574 -0.534146 0 
-0.250874 -0.555692 0 
-0.200542 -0.579013 0 
-0.150324 -0.548268 0 
-0.100169 -0.57443 0 
-0.0500152 -0.545912 0 
-3.29278e-05 -0.574268 0 
0.0499208 -0.545788 0 
0.100058 -0.574485 0 
0.150038 -0.548073 0 
0.200377 -0.579041 0 
0.250556 -0.55585 0 
0.301273 -0.534348 0 
0.350318 -0.567174 0 
0.399615 -0.542384 0 
0.451404 -0.5671 0 
0.497945 -0.537702 0 
0.551073 -0.551073 0 
0.604067 -0.55964 0 
0.655324 -0.559063 0 
0.713361 -0.558131 0 
0.769761 -0.561819 0 
0.825243 -0.564777 0 
-0.857917 -0.513788 0 
-0.802945 -0.512908 0 
-0.747856 -0.510673 0 
-0.692659 -0.509495 0 
-0.639581 -0.508501 0 
-0.588854 -0.506189 0 
-0.537596 -0.497922 0 
-0.486157 -0.486157 0 
-0.444928 -0.512952 0 
-0.401787 -0.486784 0 
-0.351685 -0.513639 0 
-0.299695 -0.48291 0 
-0.250032 -0.503 0 
-0.200501 -0.526165 0 
-0.149489 -0.495195 0 
-0.0999281 -0.521367 0 
-0.0499712 -0.492294 0 
4.64723e-05 -0.520999 0 
0.050147 -0.492108 0 
0.099934 -0.52133 0 
0.14957 -0.494692 0 
0.200133 -0.526255 0 
0.249839 -0.503309 0 
0.299839 -0.483005 0 
0.351514 -0.513798 0 
0.401881 -0.486608 0 
0.444935 -0.513054 0 
0.486228 -0.486228 0 
0.537702 -0.497945 0 
0.588901 -0.506147 0 
0.639623 -0.508497 0 
0.692668 -0.509524 0 
0.747859 -0.510716 0 
0.802929 -0.512965 0 
0.857885 -0.513842 0 
-0.887039 -0.461695 0 
-0.832348 -0.462372 0 
-0.778365 -0.460836 0 
-0.724356 -0.45935 0 
-0.671321 -0.457509 0 
-0.618874 -0.455505 0 
-0.567021 -0.451508 0 
-0.512952 -0.444928 0 
-0.450685 -0.450685 0 
-0.397667 -0.437543 0 
-0.348492 -0.462546 0 
-0.295416 -0.432968 0 
-0.247004 -0.450633 0 
-0.198702 -0.473818 0 
-0.150161 -0.441625 0 
-0.100085 -0.468395 0 
-0.0502271 -0.439281 0 
0.000144229 -0.468374 0 
0.0504178 -0.439106 0 
0.100428 -0.468348 0 
0.150697 -0.441105 0 
0.199103 -0.473881 0 
0.247983 -0.450921 0 
0.296569 -0.432268 0 
0.348831 -0.462562 0 
0.397506 -0.4368 0 
0.450637 -0.450637 0 
0.513054 -0.444935 0 
0.5671 -0.451404 0 
0.618952 -0.455483 0 
0.67138 -0.457525 0 
0.724407 -0.459374 0 
0.778382 -0.460863 0 
0.83234 -0.462414 0 
0.887011 -0.461748 0 
-0.912466 -0.409153 0 
-0.857936 -0.411157 0 
-0.804631 -0.410124 0 
-0.751554 -0.408794 0 
-0.698865 -0.407328 0 
-0.646545 -0.405555 0 
-0.594688 -0.403019 0 
-0.542431 -0.399773 0 
-0.486784 -0.401787 0 
-0.437543 -0.397667 0 
-0.387256 -0.387256 0 
-0.344215 -0.411459 0 
-0.30136 -0.381507 0 
-0.25021 -0.395692 0 
-0.200211 -0.419975 0 
-0.150955 -0.389014 0 
-0.100617 -0.416095 0 
-0.0503197 -0.386922 0 
-4.02994e-05 -0.416525 0 
0.05006 -0.386948 0 
0.100784 -0.416323 0 
0.150432 -0.388572 0 
0.200855 -0.420694 0 
0.25086 -0.396905 0 
0.301746 -0.379789 0 
0.344135 -0.410678 0 
0.385823 -0.385823 0 
0.4368 -0.397506 0 
0.486608 -0.401881 0 
0.542384 -0.399615 0 
0.594743 -0.402948 0 
0.646641 -0.405575 0 
0.698945 -0.407371 0 
0.751626 -0.408863 0 
0.804654 -0.410181 0 
0.857929 -0.411236 0 
0.912429 -0.409236 0 
-0.934288 -0.356519 0 
-0.879963 -0.359855 0 
-0.827415 -0.358606 0 
-0.774971 -0.357337 0 
-0.722823 -0.355968 0 
-0.670703 -0.354417 0 
-0.618952 -0.352514 0 
-0.567003 -0.350494 0 
-0.513639 -0.351685 0 
-0.462546 -0.348492 0 
-0.411459 -0.344215 0 
-0.351697 -0.351697 0 
-0.29839 -0.336232 0 
-0.249846 -0.342529 0 
-0.200971 -0.367271 0 
-0.149995 -0.337521 0 
-0.100435 -0.3646 0 
-0.0498692 -0.335025 0 
-6.88684e-05 -0.365025 0 
0.0495433 -0.334795 0 
0.0996798 -0.364834 0 
0.148162 -0.337172 0 
0.199644 -0.368939 0 
0.24763 -0.345582 0 
0.295348 -0.332889 0 
0.34978 -0.34978 0 
0.410678 -0.344135 0 
0.462562 -0.348831 0 
0.513798 -0.351514 0 
0.567174 -0.350318 0 
0.619096 -0.352457 0 
0.670836 -0.354397 0 
0.722893 -0.355952 0 
0.775038 -0.357323 0 
0.827419 -0.358581 0 
0.879943 -0.359894 0 
0.93426 -0.356593 0 
-0.952721 -0.303845 0 
-0.898929 -0.308871 0 
-0.847481 -0.306888 0 
-0.795641 -0.305781 0 
-0.743684 -0.304815 0 
-0.691387 -0.303722 0 
-0.639219 -0.302427 0 
-0.586897 -0.300977 0 
-0.534146 -0.301574 0 
-0.48291 -0.299695 0 
-0.432968 -0.295416 0 
-0.381507 -0.30136 0 
-0.336232 -0.29839 0 
-0.288184 -0.288184 0 
-0.242975 -0.290577 0 
-0.198059 -0.315051 0 
-0.148383 -0.285894 0 
-0.0994753 -0.313232 0 
-0.0507184 -0.283118 0 
-0.000202902 -0.313447 0 
0.0500077 -0.282824 0 
0.0988289 -0.312817 0 
0.148102 -0.28482 0 
0.195742 -0.317413 0 
0.240766 -0.295824 0 
0.285014 -0.285014 0 
0.332889 -0.295348 0 
0.379789 -0.301746 0 
0.432268 -0.296569 0 
0.483005 -0.299839 0 
0.534348 -0.301273 0 
0.587085 -0.30086 0 
0.639359 -0.302407 0 
0.691518 -0.303753 0 
0.743741 -0.304862 0 
0.795701 -0.305831 0 
0.847482 -0.306946 0 
0.898924 -0.308979 0 
0.952687 -0.303953 0 
-0.96803 -0.250833 0 
-0.916037 -0.258282 0 
-0.866979 -0.254732 0 
-0.816639 -0.25358 0 
-0.765535 -0.252907 0 
-0.71362 -0.252254 0 
-0.661417 -0.251503 0 
-0.608767 -0.250543 0 
-0.555692 -0.250874 0 
-0.503 -0.250032 0 
-0.450633 -0.247004 0 
-0.395692 -0.25021 0 
-0.342529 -0.249846 0 
-0.290577 -0.242975 0 
-0.239946 -0.239946 0 
-0.194478 -0.26004 0 
-0.151293 -0.23238 0 
-0.101048 -0.260904 0 
-0.0503938 -0.232537 0 
-0.000203281 -0.262984 0 
0.050638 -0.232316 0 
0.100942 -0.260855 0 
0.152412 -0.232597 0 
0.195768 -0.261421 0 
0.241873 -0.241873 0 
0.295824 -0.240766 0 
0.345582 -0.24763 0 
0.396905 -0.25086 0 
0.450921 -0.247983 0 
[...]
POINT_DATA 1245 
VECTORS vectors float
0.489044 -0.179876 0.853511 
0.495853 -0.143281 0.856504 
0.504232 -0.104972 0.857165 
0.51207 -0.073525 0.855791 
0.520111 -0.0416527 0.853082 
0.526201 -0.0158465 0.850213 
0.531103 0.00854951 0.847264 
0.532551 0.032621 0.845769 
0.532784 0.0566108 0.844356 
0.532685 0.0836521 0.842169 
0.531766 0.107453 0.840047 
0.529463 0.132387 0.837939 
0.524458 0.152935 0.837589 
0.479785 -0.245414 0.842365 
0.484057 -0.214409 0.848362 
0.424502 -0.166382 0.890008 
0.430851 -0.136986 0.891966 
0.444849 -0.10726 0.88916 
0.433432 -0.0744031 0.89811 
0.455006 -0.0475349 0.889219 
0.441433 -0.0200937 0.897069 
0.465168 0.0061253 0.885201 
0.447585 0.0290013 0.893771 
0.468244 0.0553145 0.881866 
0.451356 0.0759229 0.889108 
0.469692 0.101749 0.876947 
0.457469 0.120117 0.881075 
0.448689 0.137859 0.882991 
0.51554 0.170936 0.839642 
0.500857 0.187796 0.844911 
0.465509 -0.293758 0.83487 
0.474327 -0.2718 0.83734 
0.415179 -0.221484 0.882367 
0.419216 -0.195574 0.886571 
0.365381 -0.150225 0.918656 
0.373852 -0.123497 0.91923 
0.38912 -0.0968076 0.916086 
0.365526 -0.0672506 0.928369 
0.393043 -0.0437036 0.918481 
0.369183 -0.0197893 0.929146 
0.399593 0.00275052 0.916688 
0.374016 0.022883 0.92714 
0.403314 0.0465487 0.913877 
0.379186 0.0634354 0.923143 
0.40772 0.0885155 0.908807 
0.392154 0.10574 0.913802 
0.381415 0.122675 0.916228 
0.437915 0.15491 0.885569 
0.423044 0.172133 0.889609 
0.479061 0.205587 0.853367 
0.449546 0.227479 0.863807 
0.451235 -0.313011 0.83571 
0.398613 -0.265365 0.877889 
0.408878 -0.244851 0.879128 
0.35583 -0.199163 0.913082 
0.36148 -0.174982 0.915813 
0.313649 -0.13507 0.939883 
0.321405 -0.112152 0.940277 
0.335086 -0.0887751 0.937996 
0.308702 -0.0614967 0.949169 
0.332918 -0.0409025 0.942068 
0.307546 -0.019732 0.951329 
0.336568 0.000652223 0.941659 
0.310842 0.0177872 0.950295 
0.340742 0.0390698 0.939345 
0.317683 0.0546653 0.94662 
0.349223 0.0779587 0.933791 
0.33342 0.0939385 0.938087 
0.321243 0.110386 0.940541 
0.369723 0.139972 0.918538 
0.3545 0.158409 0.92154 
0.401643 0.191904 0.895464 
0.374804 0.215555 0.901697 
0.413635 0.256428 0.873585 
0.404367 -0.352675 0.843865 
0.430568 -0.331936 0.839303 
0.383269 -0.283926 0.878915 
0.338023 -0.239487 0.910157 
0.349086 -0.219984 0.910904 
0.303808 -0.178511 0.93586 
0.308294 -0.15767 0.938134 
0.266996 -0.121642 0.95599 
0.274383 -0.101695 0.956228 
0.286796 -0.081601 0.95451 
0.258996 -0.0565828 0.96422 
0.279783 -0.0385359 0.95929 
0.255405 -0.0191568 0.966644 
0.28077 -0.00143918 0.959774 
0.257626 0.0144063 0.966137 
0.285131 0.033342 0.957909 
0.26506 0.0474601 0.963063 
0.295214 0.0689876 0.952937 
0.281232 0.0840494 0.955952 
0.269204 0.0997899 0.957899 
0.310286 0.127263 0.942086 
0.296115 0.146335 0.943876 
0.335427 0.178707 0.924961 
0.311288 0.203644 0.92824 
0.344303 0.24458 0.906441 
0.375062 0.293616 0.879271 
0.338954 0.337277 0.878268 
0.3728 -0.378077 0.847395 
0.344628 -0.326794 0.880021 
0.36285 -0.302588 0.881352 
0.321891 -0.257742 0.911019 
0.284805 -0.217741 0.933528 
0.295667 -0.198829 0.934371 
0.257109 -0.161441 0.952802 
0.262501 -0.141868 0.954446 
0.225738 -0.110051 0.967952 
0.232662 -0.0921001 0.968187 
0.243114 -0.074212 0.967155 
0.217173 -0.0520871 0.974742 
0.234009 -0.0360438 0.971566 
0.21198 -0.0186996 0.977095 
0.233131 -0.00291413 0.972441 
0.213191 0.0116397 0.976941 
0.237168 0.0285191 0.97105 
0.220039 0.0419251 0.97459 
0.248057 0.0616179 0.966784 
0.234613 0.0755867 0.969146 
0.224713 0.0907692 0.970188 
0.258942 0.116862 0.958797 
0.246855 0.135603 0.959518 
0.278508 0.167679 0.945683 
0.25875 0.19234 0.946601 
0.285419 0.23205 0.929886 
0.313318 0.279131 0.907699 
0.290479 0.320588 0.90158 
0.30786 0.386017 0.869605 
0.340141 -0.406965 0.847752 
0.316781 -0.351169 0.881096 
0.29267 -0.30249 0.907108 
0.302447 -0.276462 0.912192 
0.269336 -0.237159 0.933388 
0.240444 -0.199986 0.949838 
0.250298 -0.179934 0.951302 
0.217143 -0.146331 0.965109 
0.222255 -0.127618 0.9666 
0.190333 -0.0991594 0.976699 
0.196201 -0.0831721 0.97703 
0.204638 -0.0677784 0.976488 
0.181032 -0.0474786 0.98233 
0.194506 -0.0333232 0.980335 
0.175272 -0.0177516 0.98436 
0.192694 -0.00357773 0.981252 
0.175791 0.00945987 0.984382 
0.196178 0.0246863 0.980257 
0.181962 0.0370615 0.982607 
0.206393 0.0547493 0.976936 
0.195603 0.0686329 0.978279 
0.185925 0.0830333 0.979049 
0.215492 0.10752 0.970568 
0.20519 0.126446 0.97052 
0.232013 0.157211 0.959924 
0.216377 0.18279 0.959046 
0.236733 0.221903 0.945895 
0.26135 0.26365 0.928539 
0.24934 0.30196 0.920136 
0.267091 0.361908 0.893132 
0.285518 0.432222 0.855373 
0.310712 -0.436169 0.84452 
0.287258 -0.370273 0.883392 
0.264467 -0.311821 0.912592 
0.252125 -0.26221 0.931493 
0.229011 -0.221564 0.947873 
0.203881 -0.183859 0.961576 
0.210662 -0.164244 0.963662 
0.182985 -0.132418 0.974157 
0.186843 -0.116116 0.975503 
0.159505 -0.08983 0.983102 
0.164047 -0.0755936 0.983552 
0.171484 -0.0614865 0.983266 
0.150212 -0.0434848 0.987697 
0.161665 -0.0310234 0.986358 
0.144359 -0.016606 0.989386 
0.159454 -0.00422033 0.987196 
0.144261 0.00804222 0.989507 
0.162014 0.0217006 0.98655 
0.149622 0.0330519 0.988191 
0.170997 0.0495913 0.984023 
0.161431 0.0620276 0.984933 
0.154255 0.0763199 0.985079 
0.17951 0.0991981 0.978742 
0.170584 0.117457 0.978317 
0.193677 0.147251 0.969952 
0.182565 0.172153 0.968005 
0.201659 0.212538 0.956118 
0.218305 0.259048 0.94087 
0.227683 0.320178 0.91959 
0.247951 0.391074 0.88633 
0.271475 0.470109 0.839821 
0.284398 -0.464721 0.838542 
0.263456 -0.395005 0.880092 
0.242496 -0.333268 0.911114 
0.225421 -0.279885 0.933193 
0.210918 -0.239777 0.947639 
0.191162 -0.20117 0.960722 
0.170543 -0.166687 0.971149 
0.176779 -0.149663 0.972805 
0.152615 -0.120867 0.980867 
0.156962 -0.105029 0.982004 
0.13296 -0.0824963 0.987682 
0.136944 -0.0686999 0.988194 
0.14288 -0.0561429 0.988146 
0.124412 -0.0398795 0.991429 
0.133526 -0.0284736 0.990636 
0.119144 -0.0157728 0.992752 
0.131144 -0.00431866 0.991354 
0.118836 0.0065674 0.992892 
0.133082 0.0191591 0.99092 
0.122851 0.0299615 0.991973 
0.140811 0.0449879 0.989014 
0.133145 0.0571801 0.989446 
0.126852 0.0707771 0.989393 
0.148324 0.0917682 0.984672 
0.141529 0.108812 0.983936 
0.161436 0.137162 0.977305 
0.153049 0.158657 0.975399 
0.16938 0.195692 0.965927 
0.184628 0.239406 0.953204 
0.197409 0.286645 0.937478 
0.214289 0.349378 0.912149 
0.236515 0.421269 0.875553 
0.261893 0.50042 0.825222 
0.261861 -0.49006 0.831427 
0.241844 -0.418013 0.875657 
0.222032 -0.353785 0.908591 
0.204597 -0.298343 0.932272 
0.188926 -0.252801 0.948893 
0.174524 -0.214508 0.961004 
0.158183 -0.179937 0.970876 
0.1411 -0.150022 0.978562 
0.146649 -0.134536 0.979997 
0.126613 -0.111753 0.985637 
0.130878 -0.0967054 0.986671 
0.110969 -0.0750429 0.990987 
0.1135 -0.0627985 0.991551 
0.118467 -0.0512186 0.991636 
0.102463 -0.036264 0.994076 
0.110227 -0.0260973 0.993564 
0.0972317 -0.0143685 0.995158 
0.107686 -0.00418994 0.994176 
0.0965068 0.005979 0.995314 
0.10906 0.0171903 0.993887 
0.100209 0.0269973 0.9946 
0.115742 0.0408827 0.992438 
0.108995 0.0526414 0.992648 
0.105034 0.0653642 0.992318 
0.122503 0.0860326 0.988732 
0.116229 0.102742 0.987894 
0.133019 0.126008 0.983071 
0.127378 0.143272 0.981452 
0.140762 0.17665 0.974156 
0.155084 0.214767 0.964274 
0.168158 0.258259 0.951328 
0.183775 0.310419 0.932666 
0.203961 0.373357 0.904988 
0.227742 0.444656 0.866265 
0.254633 0.522356 0.813822 
0.242401 -0.510723 0.824866 
0.222351 -0.43701 0.87154 
0.202979 -0.371272 0.906067 
0.185712 -0.314023 0.931075 
0.169556 -0.264921 0.949246 
0.155665 -0.22324 0.962254 
0.141622 -0.187764 0.971951 
0.128222 -0.154905 0.979573 
0.119481 -0.125902 0.984821 
0.105956 -0.102457 0.989078 
0.108984 -0.088241 0.990119 
0.0921094 -0.0683258 0.993402 
0.093687 -0.0566364 0.993989 
0.0979723 -0.0465976 0.994098 
0.0840941 -0.0332124 0.995904 
0.0905969 -0.0242999 0.995591 
0.0799165 -0.0133375 0.996712 
0.0886122 -0.00444724 0.996056 
0.0791701 0.00530292 0.996847 
0.0894045 0.0153627 0.995877 
0.0815286 0.0251182 0.996354 
0.0947752 0.0374844 0.994793 
0.0894308 0.0481274 0.99483 
0.0859514 0.0603292 0.994471 
0.101012 0.079828 0.991677 
0.0965636 0.0950273 0.99078 
0.107814 0.120136 0.986886 
0.114859 0.152173 0.981657 
0.127233 0.187242 0.974039 
0.139938 0.226993 0.96379 
0.155267 0.273402 0.949286 
0.17288 0.327479 0.928908 
0.194464 0.390135 0.899988 
0.219749 0.460257 0.860159 
0.24779 0.5364 0.806768 
0.224778 -0.526054 0.820209 
0.204694 -0.451455 0.868498 
0.18581 -0.385049 0.903998 
0.168157 -0.326092 0.930262 
0.152875 -0.275546 0.949054 
0.139116 -0.232062 0.962701 
0.126465 -0.19477 0.972662 
0.115063 -0.162629 0.979955 
0.105969 -0.134637 0.985212 
0.0973087 -0.11229 0.988899 
0.0874532 -0.091681 0.991941 
0.0901445 -0.0806636 0.992657 
0.0766714 -0.0645978 0.994962 
0.0766349 -0.0530097 0.995649 
0.0801871 -0.0430889 0.995848 
0.0687011 -0.0311542 0.997151 
0.0741584 -0.0223047 0.996997 
0.0647045 -0.0127823 0.997823 
0.0719816 -0.00391539 0.997398 
0.063991 0.00436892 0.997941 
0.072589 0.0143386 0.997259 
0.0662673 0.0226918 0.997544 
0.0770886 0.0348582 0.996415 
0.0724275 0.0454659 0.996337 
0.0706513 0.0576932 0.995831 
0.0828996 0.0731042 0.993873 
0.0789016 0.0853402 0.993223 
0.0877392 0.107051 0.990375 
0.095592 0.130771 0.986793 
0.103456 0.16152 0.981432 
0.114989 0.196655 0.973706 
0.128073 0.23702 0.963026 
0.143716 0.284101 0.947962 
0.162766 0.338353 0.926836 
0.18505 0.40004 0.897621 
0.2111 0.468714 0.857755 
0.239901 0.543241 0.804572 
0.207814 -0.536354 0.818009 
0.188384 -0.461852 0.86672 
0.16899 -0.394427 0.903255 
0.152055 -0.335485 0.929693 
0.137097 -0.2835 0.949122 
0.123472 -0.238922 0.963157 
0.111895 -0.200399 0.973304 
0.101197 -0.167739 0.980624 
0.0930934 -0.139214 0.985877 
0.0846305 -0.115555 0.989689 
0.0770461 -0.0952867 0.992464 
0.0728187 -0.0764371 0.994412 
0.0643326 -0.0600688 0.996119 
0.062196 -0.0488708 0.996867 
0.0656566 -0.0395945 0.997056 
0.0560525 -0.0282964 0.998027 
0.0607148 -0.0204093 0.997946 
0.0529464 -0.011296 0.998533 
0.0591565 -0.00367109 0.998242 
0.0521123 0.00440308 0.998632 
0.0592068 0.0130401 0.998161 
0.0535328 0.0211363 0.998342 
0.0625316 0.0324145 0.997516 
0.0587895 0.0416881 0.9974 
0.0580033 0.0528383 0.996917 
0.065679 0.0698211 0.995395 
0.0693427 0.0904316 0.993486 
0.0762346 0.112185 0.990759 
0.0837141 0.137876 0.986905 
0.0920638 0.167697 0.98153 
0.102973 0.202966 0.973756 
0.11643 0.243372 0.96292 
0.132412 0.290294 0.947732 
0.151574 0.3437 0.926766 
0.17428 0.404018 0.897995 
0.200779 0.471141 0.858903 
0.229709 0.543705 0.807229 
0.190445 -0.542254 0.818347 
0.17186 -0.468126 0.866789 
0.153316 -0.401849 0.90278 
0.136645 -0.341983 0.929718 
0.122048 -0.289724 0.949297 
0.109314 -0.243734 0.963662 
0.0980036 -0.204606 0.973926 
0.088399 -0.170446 0.981394 
0.0802332 -0.142032 0.986605 
0.0729063 -0.117689 0.990371 
0.0662091 -0.0974305 0.993038 
0.0623769 -0.0804577 0.994804 
0.0581538 -0.0669709 0.996059 
0.0522105 -0.0539274 0.997179 
0.0502319 -0.0438791 0.997773 
0.0531654 -0.0365286 0.997917 
0.045208 -0.0260292 0.998638 
0.0490613 -0.0192174 0.998611 
0.0421603 -0.0107376 0.999053 
0.0471527 -0.00383977 0.99888 
0.0413865 0.00397698 0.999135 
0.0474894 0.0116191 0.998804 
0.0427321 0.0195797 0.998895 
0.0504883 0.0291473 0.998299 
0.0473495 0.0378476 0.998161 
0.0469173 0.0475975 0.997764 
0.0515847 0.0607283 0.99682 
0.0562484 0.0755795 0.995552 
0.0593002 0.0939411 0.99381 
0.0653739 0.115739 0.991126 
0.0724367 0.140755 0.987391 
0.0806857 0.171346 0.981901 
0.091446 0.206034 0.974263 
0.104629 0.246903 0.963375 
0.120229 0.292951 0.948538 
0.139281 0.345613 0.927983 
0.16156 0.404062 0.900351 
0.187841 0.468927 0.863031 
0.215891 0.538552 0.814464 
0.171668 -0.544099 0.821271 
0.155817 -0.473179 0.867077 
0.137409 -0.408707 0.902262 
0.121947 -0.349588 0.928933 
0.108146 -0.297354 0.948623 
0.0960672 -0.250737 0.963277 
0.0856518 -0.210229 0.973893 
0.076225 -0.175573 0.981511 
0.0688604 -0.145503 0.986958 
0.0622313 -0.120384 0.990775 
0.0557503 -0.098821 0.993542 
0.0519305 -0.0802848 0.995418 
0.0477463 -0.0647675 0.996757 
0.0431531 -0.051644 0.997733 
0.0404756 -0.0406711 0.998352 
0.041884 -0.0330763 0.998575 
0.0359695 -0.0248954 0.999043 
0.0395596 -0.0177421 0.99906 
0.0338575 -0.0101383 0.999375 
0.0387355 -0.00313386 0.999245 
0.0330885 0.00379282 0.999445 
0.0381174 0.0116886 0.999205 
0.0338776 0.0190732 0.999244 
0.0394669 0.0276217 0.998839 
0.0371925 0.0359664 0.998661 
0.0389325 0.0478358 0.998096 
0.0424362 0.0614303 0.997209 
0.0461512 0.0774634 0.995926 
0.0498366 0.0965438 0.99408 
0.0552824 0.118932 0.991362 
0.0618137 0.145232 0.987465 
0.0699591 0.175423 0.982004 
0.0801062 0.211122 0.974172 
0.0923363 0.250879 0.963605 
0.107696 0.296967 0.948795 
0.124979 0.346969 0.929512 
0.146397 0.403399 0.903237 
0.171672 0.464189 0.868941 
0.196596 0.528385 0.82593 
0.149541 -0.542217 0.826824 
0.139419 -0.481997 0.86501 
0.122102 -0.419027 0.899727 
0.107659 -0.361325 0.926204 
0.0947242 -0.307427 0.946845 
0.0836081 -0.259779 0.962042 
0.0735382 -0.218247 0.973119 
0.0654116 -0.181853 0.981148 
0.0583088 -0.151199 0.986782 
0.0522431 -0.125087 0.990769 
0.0469511 -0.102772 0.993596 
0.0432063 -0.0838966 0.995537 
0.0394288 -0.0682578 0.996888 
0.0365872 -0.0544362 0.997847 
0.033102 -0.0426136 0.998543 
0.0323452 -0.0319843 0.998965 
0.0284889 -0.0227867 0.999334 
0.0310574 -0.0163542 0.999384 
0.0267727 -0.00874819 0.999603 
0.0301449 -0.0029373 0.999541 
0.0262599 0.00349103 0.999649 
0.0298946 0.0107481 0.999495 
0.0266497 0.0180187 0.999482 
0.0301221 0.0273894 0.999171 
0.0301228 0.0384126 0.998808 
0.0317786 0.0514647 0.998169 
0.0346728 0.065286 0.997264 
0.0377585 0.0817898 0.995934 
0.0409205 0.101472 0.993996 
0.0459582 0.124055 0.991211 
0.0518129 0.150658 0.987227 
0.0589811 0.181707 0.981582 
0.0684544 0.217042 0.973759 
0.0795315 0.257551 0.962986 
0.0928777 0.302322 0.94867 
0.109408 0.352497 0.929395 
0.128335 0.405277 0.905141 
0.15223 0.46274 0.873326 
0.167712 0.513605 0.841476 
0.127992 -0.538731 0.832699 
0.1137 -0.458857 0.881205 
0.0959865 -0.386771 0.917167 
0.0823104 -0.32531 0.942018 
0.0711592 -0.273295 0.959295 
0.0621019 -0.22813 0.971648 
0.0541662 -0.18999 0.980291 
0.0476792 -0.157541 0.986361 
0.0424624 -0.129832 0.990626 
0.0380726 -0.106963 0.993534 
0.0341283 -0.0874245 0.995586 
0.0318613 -0.0708719 0.996976 
0.0289593 -0.057622 0.997918 
0.0268748 -0.0457677 0.998591 
0.0259046 -0.0356445 0.999029 
0.024043 -0.0275928 0.99933 
0.0214458 -0.0198609 0.999573 
0.024314 -0.0148397 0.999594 
0.0197569 -0.0088746 0.999765 
0.0230991 -0.00273247 0.999729 
0.0192959 0.00398736 0.999806 
0.0230863 0.00965949 0.999687 
0.0203709 0.0153614 0.999674 
0.0220289 0.0230871 0.999491 
0.0231394 0.031706 0.999229 
0.0235349 0.0421271 0.998835 
0.0247399 0.0543082 0.998218 
0.0268664 0.0688426 0.997266 
0.0291776 0.0857256 0.995891 
0.0321825 0.10579 0.993868 
0.0359473 0.129577 0.990918 
0.0411202 0.156994 0.986743 
0.0473291 0.188914 0.980852 
0.0550296 0.225773 0.972624 
0.0650956 0.26775 0.961287 
0.0771478 0.315567 0.945762 
0.0927481 0.37007 0.924362 
0.115857 0.433716 0.89357 
0.134416 0.500495 0.855241 
0.102263 -0.533057 0.839877 
0.0951852 -0.469815 0.877618 
0.0810459 -0.405995 0.910274 
0.0684983 -0.343852 0.936522 
0.0584295 -0.288886 0.955579 
0.049785 -0.241465 0.969132 
0.042796 -0.201134 0.978628 
0.0372872 -0.166617 0.985316 
0.0327573 -0.137958 0.989896 
0.0287562 -0.113874 0.993079 
0.026115 -0.0930501 0.995319 
0.023853 -0.0764354 0.996789 
0.02171 -0.0618697 0.997848 
0.0204586 -0.0497755 0.998551 
0.0192547 -0.0393262 0.999041 
0.0180697 -0.0304021 0.999374 
0.0168523 -0.0227751 0.999599 
0.0170045 -0.0146691 0.999748 
0.0148445 -0.00813954 0.999857 
0.0181609 -0.00247235 0.999832 
0.0143916 0.00374808 0.999889 
0.0159674 0.0103744 0.999819 
0.0149741 0.0186986 0.999713 
0.0163329 0.0269791 0.999503 
0.0164524 0.0360736 0.999214 
0.016931 0.0471943 0.998742 
0.0178345 0.0602442 0.998024 
0.0193202 0.0751062 0.996988 
0.0208678 0.0929605 0.995451 
0.0229392 0.113847 0.993233 
0.0260212 0.138151 0.990069 
0.0294408 0.166873 0.985539 
0.0343144 0.199828 0.97923 
0.0401711 0.237884 0.970463 
0.047373 0.281346 0.958436 
0.0569029 0.329875 0.942308 
0.0696873 0.383819 0.920775 
0.0845007 0.437087 0.895441 
0.0896059 0.488288 0.86807 
0.0781363 -0.527047 0.846237 
0.0670438 -0.444708 0.893163 
0.0544293 -0.371345 0.926898 
0.0442374 -0.310068 0.949685 
0.0365417 -0.258029 0.965446 
0.0306138 -0.214301 0.976288 
0.0256644 -0.177629 0.983763 
0.0218391 -0.147052 0.988888 
0.019271 -0.120714 0.9925 
0.0169378 -0.0995777 0.994886 
0.015249 -0.0810676 0.996592 
0.0143582 -0.0659433 0.99772 
0.0131765 -0.0532267 0.998496 
0.0126518 -0.042154 0.999031 
0.012226 -0.0333213 0.99937 
0.0113454 -0.0249641 0.999624 
0.0115949 -0.0181319 0.999768 
0.0109127 -0.0120213 0.999868 
0.00993555 -0.00626989 0.999931 
0.0115848 -0.00172944 0.999931 
0.00984151 0.00144271 0.999951 
0.0102451 0.00821102 0.999914 
0.0106132 0.0143168 0.999841 
0.0100307 0.0220886 0.999706 
0.00993785 0.0300947 0.999498 
0.0101659 0.0400526 0.999146 
0.010055 0.0515939 0.998618 
0.0105181 0.0651576 0.99782 
0.0109391 0.0812326 0.996635 
0.0117818 0.0998973 0.994928 
0.0127761 0.122352 0.992405 
0.0142352 0.148226 0.988851 
0.0163876 0.178499 0.983804 
0.018676 0.213842 0.97669 
0.0222335 0.254296 0.966871 
0.0264125 0.301258 0.953177 
0.03182 0.35432 0.934583 
0.0410261 0.415615 0.908615 
0.0447007 0.482023 0.875018 
0.0527723 -0.520312 0.852344 
0.0439817 -0.454911 0.88945 
0.0353766 -0.392139 0.919226 
0.027762 -0.330597 0.943364 
0.0213766 -0.276372 0.960813 
0.0162895 -0.230322 0.972978 
0.0125895 -0.191606 0.981391 
0.0102394 -0.158633 0.987284 
0.008196 -0.131537 0.991277 
0.00688947 -0.10859 0.994063 
0.00648689 -0.0888478 0.996024 
0.00583707 -0.0732178 0.997299 
0.00568829 -0.0590494 0.998239 
0.00581322 -0.0477605 0.998842 
0.00571905 -0.0376242 0.999276 
0.00572268 -0.0293743 0.999552 
0.00575211 -0.0217174 0.999748 
0.00598446 -0.0153965 0.999864 
0.0053563 -0.00910112 0.999944 
0.00431582 -0.00132985 0.99999 
0.00473607 0.00614712 0.99997 
0.0053886 0.0121331 0.999912 
0.00440747 0.0185166 0.999819 
0.00430637 0.0268797 0.999629 
0.00382129 0.0360488 0.999343 
0.00323313 0.0462586 0.998924 
0.00280524 0.0590158 0.998253 
0.00236741 0.0734263 0.997298 
0.00201783 0.0906795 0.995878 
0.00145356 0.110729 0.99385 
0.00138815 0.134446 0.99092 
0.000860425 0.162207 0.986756 
0.000833234 0.19436 0.98093 
0.000639494 0.231771 0.97277 
0.00028767 0.274737 0.961519 
0.000177864 0.323402 0.946262 
-0.000568719 0.376239 0.926523 
-0.00155997 0.428719 0.903437 
-0.00276127 0.481382 0.876507 
0.0253685 -0.509889 0.859866 
0.0138434 -0.427265 0.90402 
0.00799814 -0.357221 0.933986 
0.00320515 -0.298171 0.954507 
-0.000283394 -0.24861 0.968604 
-0.00238786 -0.206702 0.978401 
-0.00401403 -0.171887 0.985108 
-0.00456458 -0.142535 0.989779 
-0.00419896 -0.117362 0.99308 
-0.00428568 -0.0970211 0.995273 
-0.00358098 -0.0789805 0.99687 
-0.00261729 -0.0646752 0.997903 
-0.00208007 -0.0517448 0.998658 
-0.00131765 -0.041385 0.999142 
-0.000762749 -0.0322636 0.999479 
0.000106644 -0.0245394 0.999699 
-9.18398e-06 -0.017187 0.999852 
0.000159273 -0.0119177 0.999929 
0.00322508 -0.0056776 0.999979 
-0.00219576 -0.00156967 0.999996 
0.00313916 0.00202605 0.999993 
-0.000111641 0.00833651 0.999965 
-0.000697242 0.0149219 0.999888 
-0.0006761 0.0222199 0.999753 
-0.00206866 0.0306931 0.999527 
-0.00312255 0.0401487 0.999189 
-0.00388669 0.0519723 0.998641 
-0.00535603 0.0652536 0.997854 
-0.0067541 0.0811387 0.99668 
-0.00820213 0.0999021 0.994963 
-0.0100448 0.122125 0.992464 
-0.0122593 0.147828 0.988937 
-0.014373 0.178163 0.983896 
-0.0176329 0.213402 0.976805 
-0.0208426 0.254201 0.966927 
-0.0258216 0.301127 0.953234 
-0.0320817 0.355321 0.934194 