# vtk DataFile Version 3.0 
Exported using Morpho https://github.com/Morpho-lang/morpho 
ASCII 
DATASET UNSTRUCTURED_GRID 

POINTS 1245 float 
-0.303845 -0.952721 0 
-0.250833 -0.96803 0 
-0.195084 -0.980787 0 
-0.146308 -0.989239 0 
-0.0940719 -0.995565 0 
-0.0475118 -0.998871 0 
-0.000246339 -1 0 
0.0470875 -0.998891 0 
0.0937543 -0.995595 0 
0.146139 -0.989264 0 
0.195062 -0.980791 0 
0.250843 -0.968028 0 
0.303953 -0.952687 0 
-0.409153 -0.912466 0 
-0.356519 -0.934288 0 
-0.308871 -0.898929 0 
-0.258282 -0.916037 0 
-0.207345 -0.934859 0 
-0.154868 -0.930629 0 
-0.104343 -0.948989 0 
-0.0520099 -0.939193 0 
-8.5762e-05 -0.954582 0 
0.0518744 -0.939288 0 
0.104354 -0.949042 0 
0.154696 -0.9306 0 
0.207366 -0.934975 0 
0.258274 -0.916081 0 
0.308979 -0.898924 0 
0.356593 -0.93426 0 
0.409236 -0.912429 0 
-0.513788 -0.857917 0 
-0.461695 -0.887039 0 
-0.411157 -0.857936 0 
-0.359855 -0.879963 0 
-0.306888 -0.847481 0 
-0.254732 -0.866979 0 
-0.201991 -0.889059 0 
-0.149956 -0.874108 0 
-0.100608 -0.900088 0 
-0.0497575 -0.880388 0 
2.4595e-05 -0.904789 0 
0.0496869 -0.8804 0 
0.100612 -0.900177 0 
0.149872 -0.874171 0 
0.202071 -0.889165 0 
0.254695 -0.867031 0 
0.306946 -0.847482 0 
0.359894 -0.879943 0 
0.411236 -0.857929 0 
0.461748 -0.887011 0 
0.513842 -0.857885 0 
-0.564741 -0.825268 0 
-0.512908 -0.802945 0 
-0.462372 -0.832348 0 
-0.410124 -0.804631 0 
-0.358606 -0.827415 0 
-0.305781 -0.795641 0 
-0.25358 -0.816639 0 
-0.200756 -0.839997 0 
-0.149043 -0.818944 0 
-0.0987265 -0.846667 0 
-0.0490473 -0.822548 0 
5.00659e-05 -0.849932 0 
0.0490834 -0.822542 0 
0.0987838 -0.846676 0 
0.148997 -0.818924 0 
0.200826 -0.840131 0 
0.253508 -0.816728 0 
0.305831 -0.795701 0 
0.358581 -0.827419 0 
0.410181 -0.804654 0 
0.462414 -0.83234 0 
0.512965 -0.802929 0 
0.564777 -0.825243 0 
-0.660798 -0.750564 0 
-0.614015 -0.789295 0 
-0.561786 -0.769772 0 
-0.510673 -0.747856 0 
-0.460836 -0.778365 0 
-0.408794 -0.751554 0 
-0.357337 -0.774971 0 
-0.304815 -0.743684 0 
-0.252907 -0.765535 0 
-0.200631 -0.789263 0 
-0.149244 -0.764328 0 
-0.0986912 -0.791935 0 
-0.0492815 -0.765764 0 
4.16586e-05 -0.79382 0 
0.0492411 -0.765708 0 
0.0987508 -0.791951 0 
0.149196 -0.764326 0 
0.200666 -0.789356 0 
0.252841 -0.765599 0 
0.304862 -0.743741 0 
0.357323 -0.775038 0 
0.408863 -0.751626 0 
0.460863 -0.778382 0 
0.510716 -0.747859 0 
0.561819 -0.769761 0 
0.614041 -0.789274 0 
0.660811 -0.750552 0 
-0.707107 -0.707107 0 
-0.654819 -0.699058 0 
-0.60813 -0.73348 0 
-0.558104 -0.71337 0 
-0.509495 -0.692659 0 
-0.45935 -0.724356 0 
-0.407328 -0.698865 0 
-0.355968 -0.722823 0 
-0.303722 -0.691387 0 
-0.252254 -0.71362 0 
-0.20067 -0.737336 0 
-0.149608 -0.710068 0 
-0.0991558 -0.737129 0 
-0.0495872 -0.709825 0 
-2.23646e-05 -0.737917 0 
0.0494408 -0.709766 0 
0.0991291 -0.737116 0 
0.149502 -0.710042 0 
0.200696 -0.73743 0 
0.252186 -0.713735 0 
0.303753 -0.691518 0 
0.355952 -0.722893 0 
0.407371 -0.698945 0 
0.459374 -0.724407 0 
0.509524 -0.692668 0 
0.558131 -0.713361 0 
0.608151 -0.733462 0 
0.654824 -0.699048 0 
0.707107 -0.707107 0 
-0.750564 -0.660798 0 
-0.699058 -0.654819 0 
-0.647692 -0.647692 0 
-0.603437 -0.675718 0 
-0.55905 -0.655305 0 
-0.508501 -0.639581 0 
-0.457509 -0.671321 0 
-0.405555 -0.646545 0 
-0.354417 -0.670703 0 
-0.302427 -0.639219 0 
-0.251503 -0.661417 0 
-0.20061 -0.684911 0 
-0.149717 -0.655943 0 
-0.0995004 -0.682466 0 
-0.0498216 -0.654561 0 
-5.02113e-05 -0.682664 0 
0.0496787 -0.654499 0 
0.0994374 -0.682501 0 
0.149603 -0.655909 0 
0.200573 -0.684972 0 
0.251388 -0.661524 0 
0.302407 -0.639359 0 
0.354397 -0.670836 0 
0.405575 -0.646641 0 
0.457525 -0.67138 0 
0.508497 -0.639623 0 
0.559063 -0.655324 0 
0.603436 -0.675715 0 
0.64769 -0.64769 0 
0.699048 -0.654824 0 
0.750552 -0.660811 0 
-0.789295 -0.614015 0 
-0.73348 -0.60813 0 
-0.675718 -0.603437 0 
-0.613088 -0.613088 0 
-0.55962 -0.604068 0 
-0.506189 -0.588854 0 
-0.455505 -0.618874 0 
-0.403019 -0.594688 0 
-0.352514 -0.618952 0 
-0.300977 -0.586897 0 
-0.250543 -0.608767 0 
-0.200257 -0.632053 0 
-0.150049 -0.601979 0 
-0.0998281 -0.628222 0 
-0.0500377 -0.599914 0 
-3.12334e-05 -0.628076 0 
0.0498927 -0.599835 0 
0.0997818 -0.628253 0 
0.149924 -0.601867 0 
0.200214 -0.632118 0 
0.250423 -0.608915 0 
0.30086 -0.587085 0 
0.352457 -0.619096 0 
0.402948 -0.594743 0 
0.455483 -0.618952 0 
0.506147 -0.588901 0 
0.55964 -0.604067 0 
0.613069 -0.613069 0 
0.675715 -0.603436 0 
0.733462 -0.608151 0 
0.789274 -0.614041 0 
-0.825268 -0.564741 0 
-0.769772 -0.561786 0 
-0.71337 -0.558104 0 
-0.655305 -0.55905 0 
-0.604068 -0.55962 0 
-0.551031 -0.551031 0 
-0.497922 -0.537596 0 
-0.451508 -0.567021 0 
-0.399773 -0.542431 0 
-0.350494 -0.567003 0 
-0.301574 -0.534146 0 
-0.250874 -0.555692 0 
-0.200542 -0.579013 0 
-0.150324 -0.548268 0 
-0.100169 -0.57443 0 
-0.0500152 -0.545912 0 
-3.29278e-05 -0.574268 0 
0.0499208 -0.545788 0 
0.100058 -0.574485 0 
0.150038 -0.548073 0 
0.200377 -0.579041 0 
0.250556 -0.55585 0 
0.301273 -0.534348 0 
0.350318 -0.567174 0 
0.399615 -0.542384 0 
0.451404 -0.5671 0 
0.497945 -0.537702 0 
0.551073 -0.551073 0 
0.604067 -0.55964 0 
0.655324 -0.559063 0 
0.713361 -0.558131 0 
0.769761 -0.561819 0 
0.825243 -0.564777 0 
-0.857917 -0.513788 0 
-0.802945 -0.512908 0 
-0.747856 -0.510673 0 
-0.692659 -0.509495 0 
-0.639581 -0.508501 0 
-0.588854 -0.506189 0 
-0.537596 -0.497922 0 
-0.486157 -0.486157 0 
-0.444928 -0.512952 0 
-0.401787 -0.486784 0 
-0.351685 -0.513639 0 
-0.299695 -0.48291 0 
-0.250032 -0.503 0 
-0.200501 -0.526165 0 
-0.149489 -0.495195 0 
-0.0999281 -0.521367 0 
-0.0499712 -0.492294 0 
4.64723e-05 -0.520999 0 
0.050147 -0.492108 0 
0.099934 -0.52133 0 
0.14957 -0.494692 0 
0.200133 -0.526255 0 
0.249839 -0.503309 0 
0.299839 -0.483005 0 
0.351514 -0.513798 0 
0.401881 -0.486608 0 
0.444935 -0.513054 0 
0.486228 -0.486228 0 
0.537702 -0.497945 0 
0.588901 -0.506147 0 
0.639623 -0.508497 0 
0.692668 -0.509524 0 
0.747859 -0.510716 0 
0.802929 -0.512965 0 
0.857885 -0.513842 0 
-0.887039 -0.461695 0 
-0.832348 -0.462372 0 
-0.778365 -0.460836 0 
-0.724356 -0.45935 0 
-0.671321 -0.457509 0 
-0.618874 -0.455505 0 
-0.567021 -0.451508 0 
-0.512952 -0.444928 0 
-0.450685 -0.450685 0 
-0.397667 -0.437543 0 
-0.348492 -0.462546 0 
-0.295416 -0.432968 0 
-0.247004 -0.450633 0 
-0.198702 -0.473818 0 
-0.150161 -0.441625 0 
-0.100085 -0.468395 0 
-0.0502271 -0.439281 0 
0.000144229 -0.468374 0 
0.0504178 -0.439106 0 
0.100428 -0.468348 0 
0.150697 -0.441105 0 
0.199103 -0.473881 0 
0.247983 -0.450921 0 
0.296569 -0.432268 0 
0.348831 -0.462562 0 
0.397506 -0.4368 0 
0.450637 -0.450637 0 
0.513054 -0.444935 0 
0.5671 -0.451404 0 
0.618952 -0.455483 0 
0.67138 -0.457525 0 
0.724407 -0.459374 0 
0.778382 -0.460863 0 
0.83234 -0.462414 0 
0.887011 -0.461748 0 
-0.912466 -0.409153 0 
-0.857936 -0.411157 0 
-0.804631 -0.410124 0 
-0.751554 -0.408794 0 
-0.698865 -0.407328 0 
-0.646545 -0.405555 0 
-0.594688 -0.403019 0 
-0.542431 -0.399773 0 
-0.486784 -0.401787 0 
-0.437543 -0.397667 0 
-0.387256 -0.387256 0 
-0.344215 -0.411459 0 
-0.30136 -0.381507 0 
-0.25021 -0.395692 0 
-0.200211 -0.419975 0 
-0.150955 -0.389014 0 
-0.100617 -0.416095 0 
-0.0503197 -0.386922 0 
-4.02994e-05 -0.416525 0 
0.05006 -0.386948 0 
0.100784 -0.416323 0 
0.150432 -0.388572 0 
0.200855 -0.420694 0 
0.25086 -0.396905 0 
0.301746 -0.379789 0 
0.344135 -0.410678 0 
0.385823 -0.385823 0 
0.4368 -0.397506 0 
0.486608 -0.401881 0 
0.542384 -0.399615 0 
0.594743 -0.402948 0 
0.646641 -0.405575 0 
0.698945 -0.407371 0 
0.751626 -0.408863 0 
0.804654 -0.410181 0 
0.857929 -0.411236 0 
0.912429 -0.409236 0 
-0.934288 -0.356519 0 
-0.879963 -0.359855 0 
-0.827415 -0.358606 0 
-0.774971 -0.357337 0 
-0.722823 -0.355968 0 
-0.670703 -0.354417 0 
-0.618952 -0.352514 0 
-0.567003 -0.350494 0 
-0.513639 -0.351685 0 
-0.462546 -0.348492 0 
-0.411459 -0.344215 0 
-0.351697 -0.351697 0 
-0.29839 -0.336232 0 
-0.249846 -0.342529 0 
-0.200971 -0.367271 0 
-0.149995 -0.337521 0 
-0.100435 -0.3646 0 
-0.0498692 -0.335025 0 
-6.88684e-05 -0.365025 0 
0.0495433 -0.334795 0 
0.0996798 -0.364834 0 
0.148162 -0.337172 0 
0.199644 -0.368939 0 
0.24763 -0.345582 0 
0.295348 -0.332889 0 
0.34978 -0.34978 0 
0.410678 -0.344135 0 
0.462562 -0.348831 0 
0.513798 -0.351514 0 
0.567174 -0.350318 0 
0.619096 -0.352457 0 
0.670836 -0.354397 0 
0.722893 -0.355952 0 
0.775038 -0.357323 0 
0.827419 -0.358581 0 
0.879943 -0.359894 0 
0.93426 -0.356593 0 
-0.952721 -0.303845 0 
-0.898929 -0.308871 0 
-0.847481 -0.306888 0 
-0.795641 -0.305781 0 
-0.743684 -0.304815 0 
-0.691387 -0.303722 0 
-0.639219 -0.302427 0 
-0.586897 -0.300977 0 
-0.534146 -0.301574 0 
-0.48291 -0.299695 0 
-0.432968 -0.295416 0 
-0.381507 -0.30136 0 
-0.336232 -0.29839 0 
-0.288184 -0.288184 0 
-0.242975 -0.290577 0 
-0.198059 -0.315051 0 
-0.148383 -0.285894 0 
-0.0994753 -0.313232 0 
-0.0507184 -0.283118 0 
-0.000202902 -0.313447 0 
0.0500077 -0.282824 0 
0.0988289 -0.312817 0 
0.148102 -0.28482 0 
0.195742 -0.317413 0 
0.240766 -0.295824 0 
0.285014 -0.285014 0 
0.332889 -0.295348 0 
0.379789 -0.301746 0 
0.432268 -0.296569 0 
0.483005 -0.299839 0 
0.534348 -0.301273 0 
0.587085 -0.30086 0 
0.639359 -0.302407 0 
0.691518 -0.303753 0 
0.743741 -0.304862 0 
0.795701 -0.305831 0 
0.847482 -0.306946 0 
0.898924 -0.308979 0 
0.952687 -0.303953 0 
-0.96803 -0.250833 0 
-0.916037 -0.258282 0 
-0.866979 -0.254732 0 
-0.816639 -0.25358 0 
-0.765535 -0.252907 0 
-0.71362 -0.252254 0 
-0.661417 -0.251503 0 
-0.608767 -0.250543 0 
-0.555692 -0.250874 0 
-0.503 -0.250032 0 
-0.450633 -0.247004 0 
-0.395692 -0.25021 0 
-0.342529 -0.249846 0 
-0.290577 -0.242975 0 
-0.239946 -0.239946 0 
-0.194478 -0.26004 0 
-0.151293 -0.23238 0 
-0.101048 -0.260904 0 
-0.0503938 -0.232537 0 
-0.000203281 -0.262984 0 
0.050638 -0.232316 0 
0.100942 -0.260855 0 
0.152412 -0.232597 0 
0.195768 -0.261421 0 
0.241873 -0.241873 0 
0.295824 -0.240766 0 
0.345582 -0.24763 0 
0.396905 -0.25086 0 
0.450921 -0.247983 0 
[...]
POINT_DATA 1245 
VECTORS vectors float
0.420499 -0.169819 0.891259 
0.429547 -0.125362 0.894301 
0.444943 -0.0838929 0.891621 
0.45882 -0.0555582 0.886791 
0.471015 -0.0308916 0.881584 
0.477576 -0.0123063 0.878504 
0.480679 0.00551472 0.876879 
0.479254 0.0255325 0.877305 
0.476251 0.0475258 0.878024 
0.473802 0.0753766 0.8774 
0.473035 0.101318 0.875199 
0.474955 0.128377 0.870596 
0.477238 0.146971 0.866397 
0.425601 -0.246259 0.870758 
0.419996 -0.212105 0.882391 
0.361524 -0.156221 0.919182 
0.366687 -0.122817 0.922202 
0.382437 -0.0910625 0.919483 
0.375654 -0.0601509 0.924806 
0.400324 -0.0370081 0.915626 
0.38729 -0.0158178 0.921822 
0.411136 0.00513889 0.911559 
0.3908 0.0238046 0.920168 
0.410209 0.0480176 0.910727 
0.392495 0.0676306 0.917264 
0.412231 0.0942013 0.906196 
0.403811 0.11044 0.908152 
0.399812 0.124274 0.908133 
0.475839 0.157591 0.865299 
0.465668 0.162614 0.869891 
0.432498 -0.280787 0.856799 
0.431863 -0.268752 0.860968 
0.364624 -0.213473 0.906355 
0.360807 -0.188296 0.913435 
0.305929 -0.138156 0.941977 
0.312285 -0.110648 0.943523 
0.328851 -0.0825734 0.940765 
0.30637 -0.0562031 0.950252 
0.336437 -0.0351124 0.941051 
0.312226 -0.0160271 0.949873 
0.343055 0.00202958 0.939313 
0.316388 0.0190219 0.948439 
0.344657 0.0393998 0.937902 
0.320952 0.0545224 0.945525 
0.350207 0.078047 0.933415 
0.337724 0.0925153 0.936688 
0.330519 0.104002 0.938052 
0.393388 0.133987 0.909557 
0.3801 0.141827 0.914007 
0.443001 0.167167 0.880798 
0.406968 0.178587 0.895815 
0.422402 -0.287583 0.859577 
0.361235 -0.244161 0.899941 
0.366152 -0.231936 0.901187 
0.30651 -0.184752 0.933766 
0.306819 -0.162865 0.93773 
0.25749 -0.121178 0.958653 
0.26306 -0.0986577 0.959722 
0.275209 -0.0765571 0.958331 
0.25098 -0.0515593 0.966618 
0.275166 -0.0337785 0.960803 
0.250317 -0.0167569 0.968019 
0.279123 0.000124625 0.960255 
0.253097 0.0133656 0.967349 
0.28253 0.0318672 0.958729 
0.259984 0.0439961 0.96461 
0.292497 0.0655919 0.954014 
0.278648 0.0771485 0.95729 
0.268495 0.0887629 0.959183 
0.320894 0.115089 0.940096 
0.306145 0.126094 0.943597 
0.35649 0.152707 0.921735 
0.324285 0.170047 0.93055 
0.360982 0.202938 0.910224 
0.367991 -0.309866 0.876679 
0.400014 -0.295522 0.867557 
0.347455 -0.2537 0.902725 
0.297278 -0.213067 0.930714 
0.30513 -0.200331 0.931001 
0.255659 -0.159168 0.953574 
0.255615 -0.141783 0.956326 
0.213622 -0.105338 0.971221 
0.218076 -0.088042 0.971952 
0.229485 -0.0696477 0.970817 
0.202288 -0.0474825 0.978174 
0.222713 -0.032304 0.974349 
0.19896 -0.0167752 0.979864 
0.223687 -0.00242427 0.974658 
0.200905 0.00939256 0.979566 
0.227767 0.0253478 0.973386 
0.208619 0.0354604 0.977354 
0.238788 0.0544069 0.969546 
0.226731 0.0650547 0.971782 
0.215831 0.0756717 0.973494 
0.259063 0.0997049 0.9607 
0.244537 0.11317 0.963013 
0.285013 0.140145 0.948223 
0.257094 0.161312 0.952828 
0.287185 0.197367 0.937321 
0.312233 0.242269 0.918595 
0.269389 0.293656 0.917167 
0.329555 -0.33473 0.882807 
0.30345 -0.285929 0.908935 
0.325139 -0.265379 0.907667 
0.281512 -0.224972 0.932812 
0.242055 -0.187916 0.951891 
0.250774 -0.174753 0.952142 
0.209516 -0.138761 0.967909 
0.211876 -0.123168 0.969504 
0.174284 -0.0924806 0.980343 
0.179411 -0.077219 0.980739 
0.187953 -0.0622172 0.980205 
0.163071 -0.043032 0.985675 
0.178637 -0.0303584 0.983447 
0.157422 -0.0169191 0.987387 
0.177405 -0.0046559 0.984127 
0.158271 0.00574363 0.987379 
0.181192 0.0193346 0.983258 
0.165029 0.0284503 0.985878 
0.192812 0.0452122 0.980194 
0.18036 0.0546247 0.982083 
0.171949 0.0652501 0.982943 
0.206397 0.0880386 0.9745 
0.19445 0.10204 0.975591 
0.225617 0.130073 0.965494 
0.20393 0.152366 0.967056 
0.22777 0.189509 0.955095 
0.250938 0.234749 0.939108 
0.225751 0.281682 0.932573 
0.237763 0.353278 0.9048 
0.293096 -0.367642 0.882572 
0.272405 -0.310538 0.910693 
0.249979 -0.262856 0.931889 
0.260795 -0.239226 0.935284 
0.227314 -0.20214 0.952611 
0.197042 -0.168216 0.965856 
0.205482 -0.152594 0.966691 
0.170784 -0.121305 0.977813 
0.173679 -0.106182 0.979061 
0.141779 -0.0797138 0.986683 
0.145397 -0.0674738 0.98707 
0.151887 -0.0555575 0.986835 
0.129403 -0.038491 0.990845 
0.141234 -0.0279625 0.989581 
0.12316 -0.0164435 0.992251 
0.138978 -0.00594153 0.990278 
0.123172 0.00263108 0.992382 
0.142131 0.0144304 0.989743 
0.129069 0.0223244 0.991384 
0.152491 0.0368167 0.987619 
0.143035 0.0462764 0.988635 
0.13391 0.0563075 0.989393 
0.163127 0.07764 0.983545 
0.153246 0.0928158 0.98382 
0.178941 0.120383 0.976467 
0.163024 0.144341 0.976007 
0.180784 0.181955 0.966545 
0.202121 0.223688 0.953473 
0.190065 0.265596 0.945163 
0.205379 0.330279 0.921268 
0.221994 0.408763 0.88523 
0.264743 -0.401778 0.876633 
0.243016 -0.331857 0.91149 
0.221662 -0.272481 0.93628 
0.209851 -0.223972 0.951735 
0.186765 -0.185779 0.964679 
0.161534 -0.150324 0.975351 
0.166504 -0.134802 0.976783 
0.13858 -0.105258 0.984742 
0.139965 -0.0933127 0.98575 
0.113476 -0.0693535 0.991117 
0.116008 -0.059068 0.99149 
0.121735 -0.0486703 0.991369 
0.101671 -0.0342996 0.994227 
0.111375 -0.0258944 0.993441 
0.095244 -0.0156558 0.995331 
0.108499 -0.00727861 0.99407 
0.0945082 0.000502855 0.995524 
0.110491 0.0104376 0.993822 
0.0992899 0.0172213 0.99491 
0.119208 0.030457 0.992402 
0.110599 0.0385443 0.993117 
0.104841 0.0488706 0.993288 
0.128671 0.0687209 0.989303 
0.120387 0.0836907 0.989193 
0.142075 0.110968 0.983616 
0.131624 0.13427 0.982164 
0.148894 0.174442 0.973345 
0.163813 0.22143 0.961319 
0.172802 0.286885 0.942251 
0.193265 0.363908 0.911164 
0.218485 0.451139 0.865296 
0.24322 -0.433842 0.86754 
0.221951 -0.359118 0.906516 
0.201337 -0.294728 0.93413 
0.184475 -0.24048 0.952963 
0.170132 -0.201474 0.964605 
0.150242 -0.164661 0.974841 
0.12976 -0.132192 0.982694 
0.133913 -0.11898 0.983825 
0.110194 -0.0925974 0.989587 
0.112757 -0.0805339 0.990354 
0.0898815 -0.0608784 0.99409 
0.09229 -0.0511702 0.994417 
0.0961516 -0.0429499 0.99444 
0.0794232 -0.030564 0.996372 
0.086338 -0.0234398 0.99599 
0.0736354 -0.0152055 0.997169 
0.0832902 -0.00793352 0.996494 
0.0726099 -0.0016963 0.997359 
0.0845985 0.00699691 0.996391 
0.0758131 0.0132966 0.997033 
0.0916293 0.0247537 0.995485 
0.0853018 0.0327904 0.995815 
0.0799352 0.0424607 0.995895 
0.0994946 0.0607084 0.993184 
0.0941363 0.0748113 0.992744 
0.112434 0.100908 0.988522 
0.10547 0.121323 0.986994 
0.120855 0.157452 0.980104 
0.134562 0.202491 0.969995 
0.14818 0.25153 0.956439 
0.165803 0.318612 0.933272 
0.190169 0.396124 0.898288 
0.219763 0.48155 0.848418 
0.227283 -0.460601 0.858015 
0.205358 -0.383638 0.900361 
0.184543 -0.316 0.930638 
0.166666 -0.258805 0.951442 
0.150532 -0.213267 0.965328 
0.135955 -0.175678 0.975015 
0.119807 -0.142596 0.982503 
0.102251 -0.115418 0.98804 
0.106792 -0.102126 0.989023 
0.0873502 -0.0820291 0.992795 
0.0898448 -0.0708291 0.993434 
0.0715796 -0.0525287 0.996051 
0.0721849 -0.0448005 0.996385 
0.0752868 -0.0374212 0.99646 
0.0612129 -0.026828 0.997764 
0.0667807 -0.0210949 0.997545 
0.0555933 -0.0139999 0.998355 
0.0635637 -0.00817018 0.997944 
0.0540796 -0.00271791 0.998533 
0.0641146 0.00441503 0.997933 
0.0568389 0.00969093 0.998336 
0.0698232 0.0198938 0.997361 
0.064343 0.0275515 0.997547 
0.0619345 0.0366403 0.997407 
0.0770703 0.0544294 0.995539 
0.0725208 0.068062 0.995042 
0.0872087 0.0900943 0.992108 
0.0838678 0.105243 0.990904 
0.0960232 0.138619 0.98568 
0.110397 0.176874 0.978023 
0.123409 0.221808 0.967249 
0.140311 0.276615 0.950683 
0.162714 0.343251 0.925042 
0.189635 0.419068 0.887931 
0.221083 0.501218 0.836602 
0.214789 -0.481127 0.849931 
0.191738 -0.402777 0.89499 
0.170557 -0.33359 0.927161 
0.152019 -0.274249 0.949567 
0.134931 -0.224204 0.965156 
0.12078 -0.182693 0.975723 
0.106016 -0.148716 0.983181 
0.0930504 -0.117209 0.988738 
0.0832351 -0.0918789 0.992285 
0.0702246 -0.071714 0.99495 
0.0710083 -0.061507 0.995578 
0.0561981 -0.0456035 0.997378 
0.056388 -0.037975 0.997686 
0.0586904 -0.032743 0.997739 
0.0472935 -0.0234693 0.998605 
0.0512817 -0.0194124 0.998496 
0.042886 -0.0130285 0.998995 
0.0486502 -0.00886479 0.998777 
0.0413895 -0.00364721 0.999136 
0.0485875 0.0019491 0.998817 
0.0425418 0.00741243 0.999067 
0.0527561 0.0160303 0.998479 
0.0488874 0.022673 0.998547 
0.0465293 0.0313225 0.998426 
0.0588775 0.0477512 0.997122 
0.0567982 0.0602409 0.996567 
0.0667648 0.083469 0.994271 
0.0746005 0.113917 0.990686 
0.0871124 0.148254 0.985105 
0.100057 0.188921 0.976881 
0.116638 0.236664 0.964565 
0.135835 0.293304 0.94632 
0.160049 0.359189 0.919439 
0.188655 0.433027 0.881417 
0.220531 0.513061 0.829539 
0.204048 -0.495324 0.844404 
0.180361 -0.416335 0.891143 
0.159062 -0.346677 0.924399 
0.139315 -0.285418 0.948223 
0.122953 -0.233625 0.964522 
0.107996 -0.190307 0.975766 
0.0949244 -0.153406 0.983593 
0.0830511 -0.123063 0.988918 
0.0731045 -0.0978959 0.992508 
0.0648364 -0.0780509 0.994839 
0.0551916 -0.0606113 0.996634 
0.0562529 -0.0536288 0.996975 
0.045143 -0.0401325 0.998174 
0.0438947 -0.0340358 0.998456 
0.0453031 -0.0285935 0.998564 
0.0364776 -0.0213611 0.999106 
0.039308 -0.0172679 0.999078 
0.0322041 -0.0126685 0.999401 
0.0364091 -0.00843294 0.999301 
0.0307383 -0.00493078 0.999515 
0.0362137 0.000710503 0.999344 
0.0319594 0.00458966 0.999479 
0.0393818 0.012756 0.999143 
0.03651 0.0196402 0.99914 
0.0358512 0.0278538 0.998969 
0.0454553 0.0411286 0.998119 
0.0431314 0.0504334 0.997796 
0.0512945 0.0703694 0.996201 
0.0590595 0.0920797 0.993999 
0.0675601 0.121997 0.990228 
0.0795961 0.156885 0.984404 
0.0936669 0.197937 0.975729 
0.110727 0.246407 0.96282 
0.131988 0.302828 0.943861 
0.156941 0.367435 0.916712 
0.186219 0.4397 0.878627 
0.218542 0.518636 0.826593 
0.194037 -0.503541 0.841901 
0.170318 -0.425099 0.888978 
0.147828 -0.354504 0.923295 
0.128827 -0.293216 0.947327 
0.111934 -0.240351 0.964211 
0.0971944 -0.195127 0.97595 
0.0847292 -0.157428 0.983889 
0.0732667 -0.126108 0.989307 
0.0649087 -0.0996775 0.9929 
0.0559769 -0.0788544 0.995313 
0.0489869 -0.0619148 0.996879 
0.0439357 -0.0478222 0.997889 
0.0366367 -0.0362316 0.998672 
0.034378 -0.0289526 0.998989 
0.0354835 -0.0247457 0.999064 
0.0287662 -0.0182183 0.99942 
0.0307558 -0.0153049 0.99941 
0.0257988 -0.0109532 0.999607 
0.0286928 -0.00811477 0.999555 
0.0241854 -0.00459555 0.999697 
0.027771 -0.000504169 0.999614 
0.0242951 0.0034229 0.999699 
0.0296321 0.010479 0.999506 
0.0276665 0.0157001 0.999494 
0.0277886 0.0236276 0.999335 
0.0336021 0.0371196 0.998746 
0.0378139 0.054372 0.997804 
0.04428 0.0736076 0.996304 
0.0519963 0.0982669 0.993801 
0.0610781 0.126495 0.990085 
0.0728374 0.16213 0.984078 
0.0874453 0.202494 0.975372 
0.105278 0.251126 0.962212 
0.126733 0.305983 0.943564 
0.152418 0.369377 0.916695 
0.182381 0.440141 0.879212 
0.215815 0.517656 0.827922 
0.183313 -0.506283 0.842659 
0.159568 -0.428911 0.889142 
0.138064 -0.359405 0.922912 
0.118498 -0.298224 0.947112 
0.101989 -0.244335 0.964312 
0.0878157 -0.198535 0.976152 
0.0752212 -0.159675 0.9843 
0.0652211 -0.126833 0.989778 
0.056158 -0.100628 0.993338 
0.0487254 -0.0788788 0.995693 
0.0424438 -0.061683 0.997193 
0.0375129 -0.0489463 0.998097 
0.0343873 -0.0386457 0.998661 
0.0293052 -0.0302164 0.999114 
0.0271974 -0.0246036 0.999327 
0.0280216 -0.0218554 0.999368 
0.02303 -0.0160268 0.999606 
0.024021 -0.0142997 0.999609 
0.0199681 -0.010311 0.999747 
0.0215783 -0.0084382 0.999732 
0.018704 -0.00499781 0.999813 
0.0211796 -0.00192111 0.999774 
0.0188481 0.00199458 0.99982 
0.0227071 0.00730552 0.999715 
0.0212639 0.0126297 0.999694 
0.0215972 0.0190026 0.999586 
0.0248597 0.0285989 0.999282 
0.0287535 0.0407923 0.998754 
0.0323176 0.0562691 0.997892 
0.0383153 0.0761223 0.996362 
0.045683 0.0992082 0.994018 
0.0547069 0.129198 0.990109 
0.0663518 0.162851 0.984417 
0.0810373 0.204678 0.975469 
0.0985254 0.250731 0.96303 
0.120405 0.305934 0.944408 
0.146073 0.365931 0.919107 
0.176711 0.435078 0.882882 
0.211316 0.509058 0.834389 
0.1701 -0.503747 0.846939 
0.149159 -0.430236 0.890308 
0.127327 -0.364394 0.922499 
0.109195 -0.30267 0.94682 
0.093275 -0.250403 0.963638 
0.0793885 -0.203218 0.97591 
0.0679067 -0.163356 0.984227 
0.0575007 -0.13008 0.989835 
0.0495361 -0.101898 0.993561 
0.0428481 -0.0794986 0.995914 
0.0362271 -0.0613407 0.997459 
0.032659 -0.0467222 0.998374 
0.0282404 -0.0361149 0.998949 
0.024726 -0.027344 0.99932 
0.0227885 -0.0214445 0.99951 
0.0221957 -0.0183519 0.999585 
0.0193057 -0.0145622 0.999708 
0.0201169 -0.0122981 0.999722 
0.0171987 -0.00958159 0.999806 
0.0187087 -0.00727411 0.999799 
0.0156875 -0.00494491 0.999865 
0.0172859 -0.00164404 0.999849 
0.0154658 0.00136537 0.999879 
0.0174995 0.00616053 0.999828 
0.0167869 0.0108139 0.999801 
0.0181091 0.0183564 0.999667 
0.0206596 0.0287607 0.999373 
0.0238601 0.0413713 0.998859 
0.027815 0.0575513 0.997955 
0.0332448 0.07763 0.996428 
0.0401147 0.102238 0.993951 
0.0490354 0.131024 0.990166 
0.0602362 0.166378 0.984221 
0.0739203 0.205465 0.975869 
0.0916714 0.252748 0.96318 
0.111906 0.302667 0.946504 
0.137523 0.362074 0.921949 
0.168013 0.424744 0.889587 
0.201724 0.491872 0.846977 
0.152063 -0.496735 0.854477 
0.137573 -0.436533 0.889108 
0.116931 -0.370368 0.921496 
0.100039 -0.312755 0.944551 
0.0846944 -0.25776 0.96249 
0.0719146 -0.210191 0.975012 
0.0604502 -0.16946 0.983681 
0.0514608 -0.134152 0.989624 
0.043831 -0.105489 0.993454 
0.037262 -0.0820612 0.99593 
0.0322922 -0.0628327 0.997502 
0.0283985 -0.0480538 0.998441 
0.0247351 -0.0367364 0.999019 
0.0227223 -0.0276831 0.999358 
0.0197053 -0.021182 0.999581 
0.0186791 -0.016366 0.999692 
0.0168541 -0.0125174 0.99978 
0.0165098 -0.0108653 0.999805 
0.0153844 -0.00822413 0.999848 
0.0150897 -0.00699278 0.999862 
0.0143249 -0.0045847 0.999887 
0.0144918 -0.00215798 0.999893 
0.0132572 0.00105879 0.999912 
0.0144222 0.0057101 0.99988 
0.0144959 0.0119279 0.999824 
0.0157097 0.0207416 0.999661 
0.0177842 0.03074 0.999369 
0.0206042 0.0440728 0.998816 
0.0238827 0.0608129 0.997863 
0.0289797 0.0809487 0.996297 
0.0351607 0.105723 0.993774 
0.0429487 0.135255 0.98988 
0.0535247 0.169637 0.984052 
0.0662358 0.209579 0.975546 
0.0819448 0.2538 0.963779 
0.102068 0.304606 0.946994 
0.12584 0.356924 0.925618 
0.155474 0.417118 0.895456 
0.180355 0.46588 0.866273 
0.132675 -0.489645 0.861769 
0.113738 -0.408646 0.905578 
0.0933246 -0.335579 0.937378 
0.0770228 -0.273152 0.958882 
0.0641083 -0.221777 0.972988 
0.0536549 -0.176992 0.982749 
0.0448889 -0.140253 0.989098 
0.0377053 -0.109799 0.993238 
0.0323587 -0.0845619 0.995893 
0.0279959 -0.0649715 0.997494 
0.0240724 -0.0492574 0.998496 
0.022265 -0.0370442 0.999066 
0.0196066 -0.0284576 0.999403 
0.0182054 -0.0215021 0.999603 
0.0173598 -0.0167324 0.999709 
0.0160445 -0.0134948 0.99978 
0.0147922 -0.0103882 0.999837 
0.0153888 -0.00979699 0.999834 
0.0133833 -0.00737684 0.999883 
0.0135876 -0.00624458 0.999888 
0.012648 -0.00393598 0.999912 
0.0127388 -0.00253674 0.999916 
0.0128422 2.15822e-05 0.999918 
0.0121044 0.00315278 0.999922 
0.0124765 0.00786585 0.999891 
0.0128995 0.0139581 0.999819 
0.0135676 0.021981 0.999666 
0.0151735 0.0329436 0.999342 
0.0171378 0.0462938 0.998781 
0.0201709 0.0633965 0.997785 
0.0238185 0.0846623 0.996125 
0.0292479 0.109942 0.993508 
0.0359652 0.140187 0.989472 
0.0445501 0.175527 0.983466 
0.0562703 0.216378 0.974687 
0.0709859 0.26273 0.962255 
0.0904252 0.316193 0.944376 
0.120394 0.378812 0.917609 
0.149317 0.441948 0.884526 
0.108079 -0.48065 0.870227 
0.0985323 -0.416492 0.903784 
0.0817413 -0.352298 0.932311 
0.0673543 -0.289714 0.954741 
0.0556471 -0.234947 0.970414 
0.0456869 -0.188271 0.981054 
0.0378741 -0.149325 0.988062 
0.0318539 -0.116525 0.992677 
0.027159 -0.0904688 0.995529 
0.0231549 -0.0694252 0.997318 
0.0209085 -0.0521901 0.998418 
0.0188976 -0.0398841 0.999026 
0.0171593 -0.0297268 0.999411 
0.0166257 -0.0225462 0.999608 
0.0154867 -0.0173196 0.99973 
0.014912 -0.0132372 0.999801 
0.0145702 -0.0108557 0.999835 
0.0141414 -0.00848497 0.999864 
0.0136444 -0.00665997 0.999885 
0.0140719 -0.00602208 0.999883 
0.0124511 -0.00378944 0.999915 
0.0120011 -0.00175562 0.999926 
0.0108739 0.00127682 0.99994 
0.0117578 0.00531665 0.999917 
0.010872 0.0100339 0.999891 
0.0112762 0.0168683 0.999794 
0.0116359 0.02581 0.999599 
0.012624 0.0369265 0.999238 
0.0138655 0.0514735 0.998578 
0.0156917 0.0692953 0.997473 
0.0186334 0.0910573 0.995671 
0.0219899 0.117612 0.992816 
0.0270773 0.14856 0.988533 
0.0335956 0.184769 0.982208 
0.0419212 0.226182 0.973183 
0.0536675 0.272247 0.96073 
0.0704151 0.323612 0.943566 
0.0898948 0.372995 0.923468 
0.101256 0.41847 0.902569 
0.0850244 -0.472394 0.877277 
0.0712125 -0.389494 0.918272 
0.0570667 -0.314845 0.947426 
0.045089 -0.254265 0.966083 
0.036383 -0.202791 0.978546 
0.0297543 -0.160334 0.986614 
0.0243993 -0.125521 0.991791 
0.0205059 -0.0973467 0.995039 
0.0181952 -0.0738781 0.997101 
0.0161886 -0.0564633 0.998273 
0.0149094 -0.0419284 0.999009 
0.0147009 -0.0313952 0.999399 
0.0139326 -0.0235322 0.999626 
0.0138562 -0.017447 0.999752 
0.0140735 -0.0137964 0.999806 
0.013502 -0.0103111 0.999856 
0.0136659 -0.00853368 0.99987 
0.0130126 -0.00688422 0.999892 
0.015531 -0.00678599 0.999856 
0.0107047 -0.00383704 0.999935 
0.0156411 -0.00484956 0.999866 
0.0116504 -0.00192838 0.99993 
0.0114972 -0.000172367 0.999934 
0.0111795 0.00316094 0.999933 
0.00988272 0.00657514 0.99993 
0.0101266 0.0122489 0.999874 
0.00929326 0.0193363 0.99977 
0.00936589 0.0288594 0.99954 
0.00921879 0.0411219 0.999112 
0.00964638 0.056385 0.998363 
0.0101221 0.0758558 0.997067 
0.0110626 0.0991276 0.995013 
0.0128661 0.127104 0.991806 
0.0147487 0.160256 0.986965 
0.0183254 0.198331 0.979964 
0.022999 0.242538 0.969869 
0.0293111 0.291161 0.956225 
0.0418251 0.347794 0.936638 
0.0493294 0.405073 0.912953 
0.0604101 -0.464251 0.883641 
0.0506762 -0.396866 0.916477 
0.0406122 -0.334795 0.941415 
0.0319701 -0.272853 0.961524 
0.0247767 -0.219161 0.975374 
0.0190528 -0.174405 0.98449 
0.0150957 -0.137385 0.990403 
0.0129505 -0.106604 0.994217 
0.0111741 -0.0823876 0.996538 
0.010332 -0.0627946 0.997973 
0.0107136 -0.0468211 0.998846 
0.0105715 -0.0356236 0.999309 
0.0110718 -0.0259257 0.999603 
0.011971 -0.0197618 0.999733 
0.0120525 -0.0145187 0.999822 
0.0126577 -0.0112674 0.999856 
0.0129491 -0.00879909 0.999877 
0.0133332 -0.00728197 0.999885 
0.0116938 -0.00471946 0.99992 
0.00807151 -0.00250832 0.999964 
0.00966072 -0.00172064 0.999952 
0.0124366 -0.0005048 0.999923 
0.00992551 0.00163927 0.999949 
0.0099614 0.00525824 0.999937 
0.00887174 0.00995181 0.999911 
0.00791716 0.0156622 0.999846 
0.00699417 0.0241779 0.999683 
0.00596606 0.0345134 0.999386 
0.00500265 0.048209 0.998825 
0.00375672 0.0650085 0.997878 
0.00289331 0.0859234 0.996298 
0.00145666 0.111245 0.993792 
0.000463351 0.141091 0.989997 
-0.000765182 0.176334 0.98433 
-0.00224906 0.216493 0.976282 
-0.00332948 0.261748 0.965131 
-0.00482288 0.310056 0.950706 
-0.00678818 0.355441 0.934674 
-0.00792272 0.40152 0.915816 
0.0341255 -0.452651 0.891035 
0.0219422 -0.369113 0.929126 
0.0153126 -0.2975 0.954599 
0.00964549 -0.239549 0.970836 
0.00576273 -0.190871 0.981598 
0.0036554 -0.150476 0.988607 
0.00220754 -0.117948 0.993017 
0.00212999 -0.0912423 0.995826 
0.00328282 -0.0692494 0.997594 
0.00395969 -0.0527926 0.998598 
0.00550192 -0.0387755 0.999233 
0.00739901 -0.0292862 0.999544 
0.00840635 -0.0210245 0.999744 
0.00994131 -0.0159016 0.999824 
0.0110961 -0.011724 0.99987 
0.0116324 -0.00910039 0.999891 
0.0126184 -0.00658231 0.999899 
0.0118443 -0.00610147 0.999911 
0.0156757 -0.00534997 0.999863 
0.00932613 -0.00320105 0.999951 
0.015712 -0.00349419 0.99987 
0.0110326 -0.00143824 0.999938 
0.0106364 0.000903494 0.999943 
0.0100005 0.00339088 0.999944 
0.00837317 0.00724718 0.999939 
0.00704133 0.0120152 0.999903 
0.00564668 0.0193986 0.999796 
0.00365646 0.0283192 0.999592 
0.00156305 0.0402871 0.999187 
-0.000772408 0.0555429 0.998456 
-0.00358167 0.0747126 0.997199 
-0.00701248 0.0977853 0.995183 