# vtk DataFile Version 3.0 
Exported using Morpho https://github.com/Morpho-lang/morpho 
ASCII 
DATASET UNSTRUCTURED_GRID 

POINTS 1245 float 
-0.303845 -0.952721 0 
-0.250833 -0.96803 0 
-0.195084 -0.980787 0 
-0.146308 -0.989239 0 
-0.0940719 -0.995565 0 
-0.0475118 -0.998871 0 
-0.000246339 -1 0 
0.0470875 -0.998891 0 
0.0937543 -0.995595 0 
0.146139 -0.989264 0 
0.195062 -0.980791 0 
0.250843 -0.968028 0 
0.303953 -0.952687 0 
-0.409153 -0.912466 0 
-0.356519 -0.934288 0 
-0.308871 -0.898929 0 
-0.258282 -0.916037 0 
-0.207345 -0.934859 0 
-0.154868 -0.930629 0 
-0.104343 -0.948989 0 
-0.0520099 -0.939193 0 
-8.5762e-05 -0.954582 0 
0.0518744 -0.939288 0 
0.104354 -0.949042 0 
0.154696 -0.9306 0 
0.207366 -0.934975 0 
0.258274 -0.916081 0 
0.308979 -0.898924 0 
0.356593 -0.93426 0 
0.409236 -0.912429 0 
-0.513788 -0.857917 0 
-0.461695 -0.887039 0 
-0.411157 -0.857936 0 
-0.359855 -0.879963 0 
-0.306888 -0.847481 0 
-0.254732 -0.866979 0 
-0.201991 -0.889059 0 
-0.149956 -0.874108 0 
-0.100608 -0.900088 0 
-0.0497575 -0.880388 0 
2.4595e-05 -0.904789 0 
0.0496869 -0.8804 0 
0.100612 -0.900177 0 
0.149872 -0.874171 0 
0.202071 -0.889165 0 
0.254695 -0.867031 0 
0.306946 -0.847482 0 
0.359894 -0.879943 0 
0.411236 -0.857929 0 
0.461748 -0.887011 0 
0.513842 -0.857885 0 
-0.564741 -0.825268 0 
-0.512908 -0.802945 0 
-0.462372 -0.832348 0 
-0.410124 -0.804631 0 
-0.358606 -0.827415 0 
-0.305781 -0.795641 0 
-0.25358 -0.816639 0 
-0.200756 -0.839997 0 
-0.149043 -0.818944 0 
-0.0987265 -0.846667 0 
-0.0490473 -0.822548 0 
5.00659e-05 -0.849932 0 
0.0490834 -0.822542 0 
0.0987838 -0.846676 0 
0.148997 -0.818924 0 
0.200826 -0.840131 0 
0.253508 -0.816728 0 
0.305831 -0.795701 0 
0.358581 -0.827419 0 
0.410181 -0.804654 0 
0.462414 -0.83234 0 
0.512965 -0.802929 0 
0.564777 -0.825243 0 
-0.660798 -0.750564 0 
-0.614015 -0.789295 0 
-0.561786 -0.769772 0 
-0.510673 -0.747856 0 
-0.460836 -0.778365 0 
-0.408794 -0.751554 0 
-0.357337 -0.774971 0 
-0.304815 -0.743684 0 
-0.252907 -0.765535 0 
-0.200631 -0.789263 0 
-0.149244 -0.764328 0 
-0.0986912 -0.791935 0 
-0.0492815 -0.765764 0 
4.16586e-05 -0.79382 0 
0.0492411 -0.765708 0 
0.0987508 -0.791951 0 
0.149196 -0.764326 0 
0.200666 -0.789356 0 
0.252841 -0.765599 0 
0.304862 -0.743741 0 
0.357323 -0.775038 0 
0.408863 -0.751626 0 
0.460863 -0.778382 0 
0.510716 -0.747859 0 
0.561819 -0.769761 0 
0.614041 -0.789274 0 
0.660811 -0.750552 0 
-0.707107 -0.707107 0 
-0.654819 -0.699058 0 
-0.60813 -0.73348 0 
-0.558104 -0.71337 0 
-0.509495 -0.692659 0 
-0.45935 -0.724356 0 
-0.407328 -0.698865 0 
-0.355968 -0.722823 0 
-0.303722 -0.691387 0 
-0.252254 -0.71362 0 
-0.20067 -0.737336 0 
-0.149608 -0.710068 0 
-0.0991558 -0.737129 0 
-0.0495872 -0.709825 0 
-2.23646e-05 -0.737917 0 
0.0494408 -0.709766 0 
0.0991291 -0.737116 0 
0.149502 -0.710042 0 
0.200696 -0.73743 0 
0.252186 -0.713735 0 
0.303753 -0.691518 0 
0.355952 -0.722893 0 
0.407371 -0.698945 0 
0.459374 -0.724407 0 
0.509524 -0.692668 0 
0.558131 -0.713361 0 
0.608151 -0.733462 0 
0.654824 -0.699048 0 
0.707107 -0.707107 0 
-0.750564 -0.660798 0 
-0.699058 -0.654819 0 
-0.647692 -0.647692 0 
-0.603437 -0.675718 0 
-0.55905 -0.655305 0 
-0.508501 -0.639581 0 
-0.457509 -0.671321 0 
-0.405555 -0.646545 0 
-0.354417 -0.670703 0 
-0.302427 -0.639219 0 
-0.251503 -0.661417 0 
-0.20061 -0.684911 0 
-0.149717 -0.655943 0 
-0.0995004 -0.682466 0 
-0.0498216 -0.654561 0 
-5.02113e-05 -0.682664 0 
0.0496787 -0.654499 0 
0.0994374 -0.682501 0 
0.149603 -0.655909 0 
0.200573 -0.684972 0 
0.251388 -0.661524 0 
0.302407 -0.639359 0 
0.354397 -0.670836 0 
0.405575 -0.646641 0 
0.457525 -0.67138 0 
0.508497 -0.639623 0 
0.559063 -0.655324 0 
0.603436 -0.675715 0 
0.64769 -0.64769 0 
0.699048 -0.654824 0 
0.750552 -0.660811 0 
-0.789295 -0.614015 0 
-0.73348 -0.60813 0 
-0.675718 -0.603437 0 
-0.613088 -0.613088 0 
-0.55962 -0.604068 0 
-0.506189 -0.588854 0 
-0.455505 -0.618874 0 
-0.403019 -0.594688 0 
-0.352514 -0.618952 0 
-0.300977 -0.586897 0 
-0.250543 -0.608767 0 
-0.200257 -0.632053 0 
-0.150049 -0.601979 0 
-0.0998281 -0.628222 0 
-0.0500377 -0.599914 0 
-3.12334e-05 -0.628076 0 
0.0498927 -0.599835 0 
0.0997818 -0.628253 0 
0.149924 -0.601867 0 
0.200214 -0.632118 0 
0.250423 -0.608915 0 
0.30086 -0.587085 0 
0.352457 -0.619096 0 
0.402948 -0.594743 0 
0.455483 -0.618952 0 
0.506147 -0.588901 0 
0.55964 -0.604067 0 
0.613069 -0.613069 0 
0.675715 -0.603436 0 
0.733462 -0.608151 0 
0.789274 -0.614041 0 
-0.825268 -0.564741 0 
-0.769772 -0.561786 0 
-0.71337 -0.558104 0 
-0.655305 -0.55905 0 
-0.604068 -0.55962 0 
-0.551031 -0.551031 0 
-0.497922 -0.537596 0 
-0.451508 -0.567021 0 
-0.399773 -0.542431 0 
-0.350494 -0.567003 0 
-0.301574 -0.534146 0 
-0.250874 -0.555692 0 
-0.200542 -0.579013 0 
-0.150324 -0.548268 0 
-0.100169 -0.57443 0 
-0.0500152 -0.545912 0 
-3.29278e-05 -0.574268 0 
0.0499208 -0.545788 0 
0.100058 -0.574485 0 
0.150038 -0.548073 0 
0.200377 -0.579041 0 
0.250556 -0.55585 0 
0.301273 -0.534348 0 
0.350318 -0.567174 0 
0.399615 -0.542384 0 
0.451404 -0.5671 0 
0.497945 -0.537702 0 
0.551073 -0.551073 0 
0.604067 -0.55964 0 
0.655324 -0.559063 0 
0.713361 -0.558131 0 
0.769761 -0.561819 0 
0.825243 -0.564777 0 
-0.857917 -0.513788 0 
-0.802945 -0.512908 0 
-0.747856 -0.510673 0 
-0.692659 -0.509495 0 
-0.639581 -0.508501 0 
-0.588854 -0.506189 0 
-0.537596 -0.497922 0 
-0.486157 -0.486157 0 
-0.444928 -0.512952 0 
-0.401787 -0.486784 0 
-0.351685 -0.513639 0 
-0.299695 -0.48291 0 
-0.250032 -0.503 0 
-0.200501 -0.526165 0 
-0.149489 -0.495195 0 
-0.0999281 -0.521367 0 
-0.0499712 -0.492294 0 
4.64723e-05 -0.520999 0 
0.050147 -0.492108 0 
0.099934 -0.52133 0 
0.14957 -0.494692 0 
0.200133 -0.526255 0 
0.249839 -0.503309 0 
0.299839 -0.483005 0 
0.351514 -0.513798 0 
0.401881 -0.486608 0 
0.444935 -0.513054 0 
0.486228 -0.486228 0 
0.537702 -0.497945 0 
0.588901 -0.506147 0 
0.639623 -0.508497 0 
0.692668 -0.509524 0 
0.747859 -0.510716 0 
0.802929 -0.512965 0 
0.857885 -0.513842 0 
-0.887039 -0.461695 0 
-0.832348 -0.462372 0 
-0.778365 -0.460836 0 
-0.724356 -0.45935 0 
-0.671321 -0.457509 0 
-0.618874 -0.455505 0 
-0.567021 -0.451508 0 
-0.512952 -0.444928 0 
-0.450685 -0.450685 0 
-0.397667 -0.437543 0 
-0.348492 -0.462546 0 
-0.295416 -0.432968 0 
-0.247004 -0.450633 0 
-0.198702 -0.473818 0 
-0.150161 -0.441625 0 
-0.100085 -0.468395 0 
-0.0502271 -0.439281 0 
0.000144229 -0.468374 0 
0.0504178 -0.439106 0 
0.100428 -0.468348 0 
0.150697 -0.441105 0 
0.199103 -0.473881 0 
0.247983 -0.450921 0 
0.296569 -0.432268 0 
0.348831 -0.462562 0 
0.397506 -0.4368 0 
0.450637 -0.450637 0 
0.513054 -0.444935 0 
0.5671 -0.451404 0 
0.618952 -0.455483 0 
0.67138 -0.457525 0 
0.724407 -0.459374 0 
0.778382 -0.460863 0 
0.83234 -0.462414 0 
0.887011 -0.461748 0 
-0.912466 -0.409153 0 
-0.857936 -0.411157 0 
-0.804631 -0.410124 0 
-0.751554 -0.408794 0 
-0.698865 -0.407328 0 
-0.646545 -0.405555 0 
-0.594688 -0.403019 0 
-0.542431 -0.399773 0 
-0.486784 -0.401787 0 
-0.437543 -0.397667 0 
-0.387256 -0.387256 0 
-0.344215 -0.411459 0 
-0.30136 -0.381507 0 
-0.25021 -0.395692 0 
-0.200211 -0.419975 0 
-0.150955 -0.389014 0 
-0.100617 -0.416095 0 
-0.0503197 -0.386922 0 
-4.02994e-05 -0.416525 0 
0.05006 -0.386948 0 
0.100784 -0.416323 0 
0.150432 -0.388572 0 
0.200855 -0.420694 0 
0.25086 -0.396905 0 
0.301746 -0.379789 0 
0.344135 -0.410678 0 
0.385823 -0.385823 0 
0.4368 -0.397506 0 
0.486608 -0.401881 0 
0.542384 -0.399615 0 
0.594743 -0.402948 0 
0.646641 -0.405575 0 
0.698945 -0.407371 0 
0.751626 -0.408863 0 
0.804654 -0.410181 0 
0.857929 -0.411236 0 
0.912429 -0.409236 0 
-0.934288 -0.356519 0 
-0.879963 -0.359855 0 
-0.827415 -0.358606 0 
-0.774971 -0.357337 0 
-0.722823 -0.355968 0 
-0.670703 -0.354417 0 
-0.618952 -0.352514 0 
-0.567003 -0.350494 0 
-0.513639 -0.351685 0 
-0.462546 -0.348492 0 
-0.411459 -0.344215 0 
-0.351697 -0.351697 0 
-0.29839 -0.336232 0 
-0.249846 -0.342529 0 
-0.200971 -0.367271 0 
-0.149995 -0.337521 0 
-0.100435 -0.3646 0 
-0.0498692 -0.335025 0 
-6.88684e-05 -0.365025 0 
0.0495433 -0.334795 0 
0.0996798 -0.364834 0 
0.148162 -0.337172 0 
0.199644 -0.368939 0 
0.24763 -0.345582 0 
0.295348 -0.332889 0 
0.34978 -0.34978 0 
0.410678 -0.344135 0 
0.462562 -0.348831 0 
0.513798 -0.351514 0 
0.567174 -0.350318 0 
0.619096 -0.352457 0 
0.670836 -0.354397 0 
0.722893 -0.355952 0 
0.775038 -0.357323 0 
0.827419 -0.358581 0 
0.879943 -0.359894 0 
0.93426 -0.356593 0 
-0.952721 -0.303845 0 
-0.898929 -0.308871 0 
-0.847481 -0.306888 0 
-0.795641 -0.305781 0 
-0.743684 -0.304815 0 
-0.691387 -0.303722 0 
-0.639219 -0.302427 0 
-0.586897 -0.300977 0 
-0.534146 -0.301574 0 
-0.48291 -0.299695 0 
-0.432968 -0.295416 0 
-0.381507 -0.30136 0 
-0.336232 -0.29839 0 
-0.288184 -0.288184 0 
-0.242975 -0.290577 0 
-0.198059 -0.315051 0 
-0.148383 -0.285894 0 
-0.0994753 -0.313232 0 
-0.0507184 -0.283118 0 
-0.000202902 -0.313447 0 
0.0500077 -0.282824 0 
0.0988289 -0.312817 0 
0.148102 -0.28482 0 
0.195742 -0.317413 0 
0.240766 -0.295824 0 
0.285014 -0.285014 0 
0.332889 -0.295348 0 
0.379789 -0.301746 0 
0.432268 -0.296569 0 
0.483005 -0.299839 0 
0.534348 -0.301273 0 
0.587085 -0.30086 0 
0.639359 -0.302407 0 
0.691518 -0.303753 0 
0.743741 -0.304862 0 
0.795701 -0.305831 0 
0.847482 -0.306946 0 
0.898924 -0.308979 0 
0.952687 -0.303953 0 
-0.96803 -0.250833 0 
-0.916037 -0.258282 0 
-0.866979 -0.254732 0 
-0.816639 -0.25358 0 
-0.765535 -0.252907 0 
-0.71362 -0.252254 0 
-0.661417 -0.251503 0 
-0.608767 -0.250543 0 
-0.555692 -0.250874 0 
-0.503 -0.250032 0 
-0.450633 -0.247004 0 
-0.395692 -0.25021 0 
-0.342529 -0.249846 0 
-0.290577 -0.242975 0 
-0.239946 -0.239946 0 
-0.194478 -0.26004 0 
-0.151293 -0.23238 0 
-0.101048 -0.260904 0 
-0.0503938 -0.232537 0 
-0.000203281 -0.262984 0 
0.050638 -0.232316 0 
0.100942 -0.260855 0 
0.152412 -0.232597 0 
0.195768 -0.261421 0 
0.241873 -0.241873 0 
0.295824 -0.240766 0 
0.345582 -0.24763 0 
0.396905 -0.25086 0 
0.450921 -0.247983 0 
[...]
POINT_DATA 1245 
VECTORS vectors float
0.5016 -0.181022 0.845948 
0.508163 -0.145637 0.848858 
0.515903 -0.107942 0.849819 
0.52301 -0.0762679 0.848907 
0.530227 -0.0437353 0.846727 
0.536101 -0.0167398 0.843988 
0.541196 0.00888581 0.84085 
0.542601 0.0334557 0.839324 
0.543285 0.0578527 0.837553 
0.543269 0.08499 0.835246 
0.542041 0.108667 0.833296 
0.539032 0.13368 0.831609 
0.532956 0.15497 0.831831 
0.489777 -0.245536 0.836559 
0.495647 -0.214797 0.841544 
0.435481 -0.168459 0.884295 
0.443465 -0.138767 0.885484 
0.457309 -0.109401 0.882553 
0.444642 -0.0769612 0.892396 
0.466162 -0.048735 0.883356 
0.452372 -0.0209283 0.891584 
0.47512 0.00553491 0.879904 
0.458739 0.0300157 0.888064 
0.478741 0.0565019 0.876136 
0.462043 0.0773917 0.883475 
0.480126 0.103527 0.871069 
0.466886 0.12247 0.875796 
0.457682 0.141061 0.877855 
0.522882 0.174425 0.834368 
0.507687 0.193247 0.839589 
0.472067 -0.296278 0.830284 
0.482575 -0.272593 0.832355 
0.424552 -0.22335 0.877423 
0.430662 -0.196358 0.880894 
0.377484 -0.151719 0.913503 
0.385165 -0.125697 0.914247 
0.400216 -0.0990191 0.911056 
0.377521 -0.0685546 0.92346 
0.403939 -0.0454029 0.913659 
0.38015 -0.0204487 0.924699 
0.410791 0.00337612 0.911723 
0.384638 0.0232869 0.922774 
0.414307 0.0478261 0.90888 
0.390008 0.0653465 0.91849 
0.418177 0.0906217 0.903834 
0.402464 0.108579 0.908974 
0.390532 0.126806 0.911814 
0.446553 0.159392 0.880445 
0.430791 0.178726 0.884577 
0.486034 0.213424 0.847479 
0.45752 0.237352 0.856936 
0.456845 -0.317614 0.830911 
0.405975 -0.269181 0.873342 
0.416986 -0.24738 0.874601 
0.365777 -0.201292 0.908674 
0.370931 -0.177876 0.911466 
0.323897 -0.137629 0.936028 
0.332606 -0.11433 0.93611 
0.347134 -0.090945 0.933395 
0.319379 -0.0631958 0.945518 
0.344362 -0.0421328 0.937891 
0.318445 -0.0199361 0.947732 
0.347684 0.000489629 0.937612 
0.321755 0.018909 0.946634 
0.351703 0.0405164 0.935234 
0.32834 0.056578 0.942864 
0.359324 0.0804949 0.929735 
0.343508 0.0973788 0.934088 
0.331369 0.114619 0.936513 
0.378818 0.145128 0.914021 
0.364098 0.164731 0.916677 
0.410434 0.199623 0.889772 
0.384621 0.224664 0.895317 
0.423628 0.267166 0.865541 
0.410782 -0.360633 0.837378 
0.436213 -0.338547 0.833729 
0.390023 -0.289622 0.874071 
0.345505 -0.244489 0.906008 
0.357358 -0.22391 0.90673 
0.312277 -0.18265 0.932267 
0.318942 -0.160164 0.934143 
0.277105 -0.124793 0.952701 
0.28526 -0.104092 0.952781 
0.297662 -0.08324 0.951035 
0.270309 -0.0582589 0.961009 
0.290808 -0.0394275 0.955969 
0.266491 -0.0197758 0.963634 
0.291593 -0.00120241 0.956542 
0.26853 0.0152746 0.96315 
0.295863 0.0347472 0.954598 
0.275529 0.0500157 0.959991 
0.3062 0.0719862 0.949242 
0.290845 0.087852 0.952728 
0.279312 0.104514 0.954496 
0.319577 0.133083 0.938168 
0.305902 0.152813 0.939719 
0.344514 0.186949 0.919978 
0.32188 0.211819 0.922782 
0.355092 0.254462 0.899533 
0.387249 0.304014 0.87041 
0.35268 0.346113 0.86938 
0.380416 -0.386366 0.840241 
0.35203 -0.334806 0.874059 
0.369668 -0.309482 0.876109 
0.329503 -0.263748 0.906568 
0.29283 -0.223464 0.929685 
0.304567 -0.202885 0.930632 
0.266443 -0.165433 0.949547 
0.272069 -0.145091 0.951276 
0.235776 -0.112826 0.965236 
0.242893 -0.0945546 0.965434 
0.253566 -0.0765435 0.964285 
0.227404 -0.0534275 0.972334 
0.244412 -0.0369068 0.968969 
0.22222 -0.0188435 0.974814 
0.243542 -0.00236268 0.969887 
0.223414 0.012665 0.974641 
0.247551 0.0303203 0.9684 
0.23039 0.0442369 0.972092 
0.257925 0.064406 0.964016 
0.24537 0.0797075 0.966147 
0.233909 0.0957686 0.96753 
0.268993 0.12231 0.955344 
0.256416 0.142519 0.956002 
0.288995 0.174869 0.941224 
0.268884 0.200891 0.94199 
0.296928 0.240211 0.924193 
0.32568 0.287961 0.900561 
0.303407 0.328545 0.894429 
0.322085 0.392485 0.86152 
0.348716 -0.414763 0.840457 
0.324784 -0.359332 0.874869 
0.300451 -0.309583 0.902157 
0.310194 -0.283623 0.907379 
0.276867 -0.243849 0.929453 
0.24871 -0.205649 0.946494 
0.258236 -0.185391 0.948127 
0.226031 -0.150615 0.962406 
0.231039 -0.132107 0.963934 
0.199472 -0.102816 0.974495 
0.205627 -0.0862546 0.974822 
0.214958 -0.0697713 0.974128 
0.190824 -0.0491839 0.980391 
0.205039 -0.0344581 0.978147 
0.185114 -0.0179586 0.982553 
0.203283 -0.00333542 0.979114 
0.185589 0.0107848 0.982568 
0.206527 0.0266349 0.978078 
0.19173 0.0396924 0.980645 
0.216557 0.0585736 0.974511 
0.204942 0.0724098 0.976092 
0.196254 0.0880723 0.97659 
0.225651 0.113187 0.967611 
0.215143 0.132699 0.967525 
0.2423 0.164196 0.956206 
0.226823 0.189887 0.955246 
0.248043 0.229575 0.941154 
0.272696 0.271979 0.922856 
0.261644 0.308417 0.914561 
0.279401 0.368393 0.886691 
0.298775 0.436742 0.848522 
0.319473 -0.443024 0.837656 
0.295444 -0.377776 0.877495 
0.272503 -0.319394 0.907595 
0.259801 -0.269894 0.927179 
0.236946 -0.228062 0.944375 
0.211487 -0.190411 0.958654 
0.2191 -0.16957 0.960855 
0.190846 -0.137978 0.971874 
0.196144 -0.119655 0.973247 
0.168059 -0.0936809 0.981315 
0.173495 -0.0782219 0.981723 
0.180905 -0.0638023 0.981429 
0.159668 -0.0451646 0.986137 
0.170993 -0.0317181 0.984762 
0.154053 -0.0170443 0.987916 
0.168705 -0.00354425 0.98566 
0.15411 0.0091392 0.988011 
0.171419 0.0236034 0.984915 
0.159171 0.0360751 0.986592 
0.180545 0.0528137 0.982148 
0.171115 0.0667193 0.982989 
0.163126 0.081167 0.983261 
0.188492 0.10503 0.976442 
0.180264 0.123786 0.975798 
0.203306 0.154458 0.966855 
0.192526 0.179578 0.96472 
0.211848 0.21981 0.952263 
0.228893 0.266702 0.936204 
0.238993 0.326669 0.914423 
0.259362 0.396026 0.880849 
0.282806 0.473435 0.834194 
0.292583 -0.470631 0.832407 
0.271343 -0.402004 0.874509 
0.250246 -0.340474 0.906341 
0.232849 -0.287562 0.929026 
0.218475 -0.246742 0.944133 
0.198783 -0.207929 0.957732 
0.177992 -0.173066 0.968693 
0.184924 -0.154955 0.97046 
0.160872 -0.125565 0.978955 
0.165074 -0.109676 0.980164 
0.141314 -0.0861031 0.986213 
0.145244 -0.0721023 0.986765 
0.151706 -0.0585374 0.986691 
0.132856 -0.0414823 0.990267 
0.142645 -0.029545 0.989333 
0.127328 -0.0156049 0.991738 
0.140345 -0.00380108 0.990095 
0.12687 0.0082581 0.991885 
0.142243 0.0213006 0.989603 
0.131412 0.0327264 0.990787 
0.150093 0.0484771 0.987483 
0.141737 0.0615091 0.987992 
0.135879 0.0759179 0.987812 
0.157777 0.0974821 0.982651 
0.150248 0.115152 0.981919 
0.170802 0.143876 0.974744 
0.162067 0.165466 0.972808 
0.178719 0.203053 0.96272 
0.194964 0.246111 0.949431 
0.207015 0.293313 0.933334 
0.22403 0.354886 0.907671 
0.246413 0.425732 0.870651 
0.271072 0.503172 0.820572 
0.268806 -0.49537 0.826046 
0.248775 -0.424295 0.870681 
0.229327 -0.360925 0.903959 
0.211544 -0.30595 0.928248 
0.196121 -0.259916 0.945505 
0.1816 -0.221903 0.958009 
0.164963 -0.187031 0.968404 
0.148924 -0.155527 0.976541 
0.153568 -0.141111 0.97801 
0.133973 -0.116885 0.984068 
0.138508 -0.101538 0.985142 
0.118288 -0.0792686 0.98981 
0.121409 -0.0659043 0.990412 
0.126821 -0.0538102 0.990465 
0.110468 -0.0380608 0.993151 
0.118555 -0.027271 0.992573 
0.105687 -0.014804 0.994289 
0.116335 -0.00388708 0.993202 
0.105205 0.007135 0.994425 
0.117753 0.0191907 0.992857 
0.108506 0.0300741 0.993641 
0.124229 0.0448131 0.991241 
0.117723 0.0568989 0.991415 
0.112582 0.0707938 0.991117 
0.130924 0.0918547 0.987128 
0.124335 0.109104 0.986224 
0.141899 0.132569 0.980964 
0.135507 0.150793 0.979234 
0.14969 0.183557 0.971545 
0.163514 0.222021 0.961233 
0.17693 0.264832 0.947924 
0.192889 0.316789 0.928676 
0.212076 0.378466 0.900992 
0.235673 0.448762 0.862016 
0.261705 0.525137 0.809779 
0.247712 -0.515794 0.820119 
0.228233 -0.443171 0.866896 
0.209307 -0.378365 0.901682 
0.191632 -0.321128 0.927445 
0.176282 -0.27256 0.945852 
0.161753 -0.230858 0.959448 
0.148456 -0.194547 0.969594 
0.134212 -0.162232 0.977583 
0.12581 -0.132439 0.983174 
0.112822 -0.107852 0.987744 
0.115968 -0.0931979 0.988871 
0.099005 -0.0723034 0.992457 
0.100739 -0.0602979 0.993084 
0.105394 -0.0490651 0.993219 
0.0910862 -0.0354663 0.995211 
0.0980833 -0.0249814 0.994865 
0.0866326 -0.0138316 0.996144 
0.0957452 -0.00332736 0.9954 
0.0859463 0.00658067 0.996278 
0.0966951 0.0179539 0.995152 
0.0889496 0.0278802 0.995646 
0.102586 0.0411437 0.993873 
0.096736 0.0527917 0.993909 
0.0937212 0.0653181 0.993454 
0.109065 0.0853722 0.990362 
0.104069 0.10161 0.989366 
0.115591 0.126643 0.98519 
0.122486 0.158841 0.979677 
0.13474 0.194565 0.971591 
0.148119 0.234062 0.960872 
0.16232 0.279976 0.946185 
0.180267 0.333574 0.925328 
0.20126 0.395417 0.896181 
0.225672 0.464461 0.856358 
0.252814 0.539523 0.803119 
0.228475 -0.531389 0.815736 
0.209379 -0.457847 0.864023 
0.19038 -0.391679 0.900191 
0.173724 -0.333822 0.92649 
0.158364 -0.283159 0.945908 
0.14461 -0.239648 0.96003 
0.132325 -0.202371 0.970328 
0.120743 -0.169842 0.978046 
0.112337 -0.140998 0.983616 
0.103252 -0.118309 0.987594 
0.0931353 -0.0977773 0.990841 
0.0965669 -0.0853162 0.991663 
0.0826253 -0.0693506 0.994165 
0.0827991 -0.0563893 0.99497 
0.0870316 -0.0456682 0.995158 
0.0750578 -0.0326114 0.996646 
0.0810333 -0.0234646 0.996435 
0.0715221 -0.0124484 0.997361 
0.0794259 -0.00357064 0.996834 
0.0708214 0.00637309 0.997469 
0.0798836 0.0164326 0.996669 
0.0726158 0.0263659 0.997011 
0.0841913 0.0388882 0.99569 
0.079243 0.0500776 0.995597 
0.076959 0.0631036 0.995035 
0.0897569 0.0790979 0.992818 
0.0854776 0.0916315 0.992118 
0.094605 0.11356 0.989017 
0.102423 0.138244 0.985088 
0.110493 0.168924 0.979416 
0.121446 0.203818 0.971447 
0.134663 0.244252 0.960316 
0.150148 0.290927 0.94489 
0.168329 0.344622 0.923527 
0.190174 0.405568 0.894063 
0.215287 0.473399 0.854134 
0.242933 0.546957 0.801137 
0.209954 -0.542245 0.813566 
0.191209 -0.468116 0.862732 
0.172992 -0.402189 0.899065 
0.156253 -0.342762 0.926337 
0.141329 -0.291635 0.946031 
0.128483 -0.246668 0.960545 
0.116564 -0.208492 0.971053 
0.10642 -0.174999 0.9788 
0.0979854 -0.146558 0.984337 
0.0898344 -0.122254 0.988425 
0.0823363 -0.101129 0.99146 
0.0784229 -0.0814168 0.99359 
0.069407 -0.0645613 0.995497 
0.0678374 -0.0524206 0.996318 
0.071405 -0.0428995 0.996524 
0.0614198 -0.0305517 0.997644 
0.0664588 -0.0219609 0.997547 
0.0578363 -0.0119788 0.998254 
0.0645373 -0.00333688 0.99791 
0.0571429 0.00541035 0.998351 
0.0651215 0.0151262 0.997763 
0.059221 0.0238542 0.99796 
0.06895 0.0359397 0.996973 
0.0645826 0.0464755 0.99683 
0.0637857 0.0581736 0.996267 
0.0718471 0.0757452 0.994535 
0.0753751 0.0969739 0.992429 
0.0821291 0.119543 0.989426 
0.0896726 0.144736 0.985399 
0.0977471 0.175502 0.979615 
0.108789 0.210408 0.971542 
0.12164 0.250887 0.960343 
0.137314 0.297429 0.944818 
0.155876 0.350419 0.923531 
0.177803 0.410254 0.894471 
0.203174 0.476454 0.855402 
0.230764 0.548289 0.80382 
0.191203 -0.548787 0.813802 
0.173996 -0.47566 0.862249 
0.155607 -0.409188 0.899084 
0.139704 -0.350268 0.926172 
0.125649 -0.297824 0.946316 
0.113028 -0.252236 0.961042 
0.102137 -0.212424 0.971825 
0.0923069 -0.178692 0.979566 
0.0847209 -0.149231 0.985166 
0.0773655 -0.12485 0.989155 
0.0703613 -0.103827 0.992103 
0.067206 -0.0863863 0.993992 
0.0624356 -0.0721232 0.99544 
0.0568379 -0.0583405 0.996677 
0.0546248 -0.047841 0.99736 
0.05807 -0.0390351 0.997549 
0.0497312 -0.0282874 0.998362 
0.0543111 -0.0198486 0.998327 
0.0470798 -0.0111716 0.998829 
0.0530962 -0.00268786 0.998586 
0.046364 0.00547476 0.99891 
0.052858 0.0144751 0.998497 
0.0475928 0.0227667 0.998607 
0.0556978 0.0334671 0.997887 
0.052379 0.0424072 0.997726 
0.0518431 0.0527517 0.997261 
0.0566143 0.0666468 0.996169 
0.0612215 0.0821158 0.994741 
0.0643938 0.100908 0.99281 
0.0704923 0.122797 0.989925 
0.0773646 0.148867 0.985826 
0.0855112 0.178737 0.980174 
0.0960429 0.214342 0.972025 
0.10865 0.254442 0.960965 
0.124122 0.300977 0.945519 
0.142062 0.352825 0.924842 
0.163529 0.41111 0.896798 
0.188731 0.475352 0.859314 
0.215017 0.544324 0.810851 
0.171449 -0.551691 0.816237 
0.15627 -0.481164 0.86259 
0.139047 -0.416729 0.898333 
0.123867 -0.358499 0.925276 
0.110668 -0.305819 0.945636 
0.098878 -0.259375 0.960702 
0.0885138 -0.218994 0.971703 
0.0797886 -0.183529 0.979771 
0.0721919 -0.153638 0.985487 
0.0655331 -0.127694 0.989646 
0.0596155 -0.105599 0.99262 
0.0553914 -0.0864453 0.994716 
0.0514907 -0.0702049 0.996203 
0.0469952 -0.0560351 0.997322 
0.0436402 -0.044506 0.998055 
0.0461709 -0.0360418 0.998283 
0.0392306 -0.0269055 0.998868 
0.0432723 -0.0192042 0.998879 
0.0373577 -0.0102091 0.99925 
0.0419228 -0.00284967 0.999117 
0.036754 0.00552278 0.999309 
0.0419607 0.0136766 0.999026 
0.0374896 0.0226449 0.99904 
0.0437901 0.0313854 0.998548 
0.0412275 0.0406273 0.998323 
0.0427588 0.0535882 0.997647 
0.0466338 0.0674738 0.996631 
0.0505338 0.0839959 0.995184 
0.0538209 0.103894 0.993131 
0.0593985 0.126673 0.990164 
0.0659269 0.152902 0.98604 
0.0736128 0.184051 0.980156 
0.0835907 0.219073 0.972121 
0.0957159 0.25981 0.960904 
0.109635 0.304762 0.946098 
0.127115 0.355915 0.925833 
0.146807 0.411009 0.899733 
0.171046 0.472127 0.864777 
0.194036 0.535928 0.821664 
0.148371 -0.550896 0.821279 
0.139125 -0.489834 0.860643 
0.122635 -0.428958 0.894961 
0.108474 -0.369728 0.922786 
0.0962723 -0.316877 0.943568 
0.0852343 -0.268986 0.959365 
0.0760741 -0.226933 0.970935 
0.067492 -0.190806 0.979305 
0.0607895 -0.159424 0.985337 
0.0550321 -0.132763 0.989619 
0.0496524 -0.110237 0.992664 
0.0456059 -0.0905086 0.994851 
0.0427732 -0.0738349 0.996353 
0.038786 -0.0598851 0.997451 
0.0362254 -0.0466299 0.998255 
0.0352666 -0.0351572 0.998759 
0.0310185 -0.0251234 0.999203 
0.0345253 -0.0176903 0.999247 
0.0288264 -0.00929422 0.999541 
0.0339363 -0.00238661 0.999421 
0.0283081 0.00466558 0.999588 
0.0333211 0.0132297 0.999357 
0.0295343 0.0209477 0.999344 
0.0332093 0.0315148 0.998951 
0.033255 0.0435867 0.998496 
0.0350281 0.0569453 0.997763 
0.0378691 0.071964 0.996688 
0.0409145 0.0889176 0.995198 
0.0443747 0.108823 0.99307 
0.048958 0.132163 0.990018 
0.0548142 0.159116 0.985737 
0.0620584 0.19016 0.97979 
0.0707047 0.22616 0.971521 
0.0816021 0.26639 0.960405 
0.094656 0.312054 0.945337 
0.109472 0.361159 0.926056 
0.127984 0.415471 0.900558 
0.150353 0.471599 0.868901 
0.163969 0.523597 0.836038 
0.126267 -0.547851 0.826992 
0.113072 -0.468328 0.87629 
0.0957908 -0.396188 0.913159 
0.0828507 -0.335392 0.938429 
0.0722458 -0.282531 0.956534 
0.0630832 -0.237829 0.969256 
0.0556611 -0.199035 0.97841 
0.0494868 -0.166076 0.98487 
0.0442264 -0.138384 0.989391 
0.0395195 -0.114504 0.992636 
0.0365565 -0.094239 0.994878 
0.0332508 -0.0775847 0.996431 
0.0310758 -0.0628224 0.997541 
0.0287874 -0.050578 0.998305 
0.0274787 -0.0394755 0.998843 
0.0259313 -0.0304915 0.999199 
0.0231124 -0.0219006 0.999493 
0.0261546 -0.0159462 0.999531 
0.021827 -0.00936923 0.999718 
0.0255339 -0.00202691 0.999672 
0.0212993 0.00551134 0.999758 
0.0254373 0.0120559 0.999604 
0.0215963 0.0183063 0.999599 
0.0242587 0.0271877 0.999336 
0.0253845 0.0361842 0.999023 
0.0255737 0.0474781 0.998545 
0.0269936 0.0607186 0.99779 
0.0291511 0.0753976 0.996727 
0.0316166 0.0930819 0.995156 
0.0342415 0.113904 0.992901 
0.0384701 0.137724 0.989723 
0.0431226 0.165808 0.985215 
0.0491896 0.198152 0.978936 
0.0569896 0.235178 0.97028 
0.0659734 0.277596 0.95843 
0.077672 0.325822 0.942235 
0.0927565 0.380987 0.919916 
0.113522 0.444447 0.888583 
0.130321 0.512443 0.848775 
0.100307 -0.542787 0.833859 
0.0937267 -0.480575 0.871931 
0.0802563 -0.415769 0.905922 
0.0682334 -0.354122 0.932707 
0.0581858 -0.299033 0.952467 
0.0502934 -0.251443 0.966564 
0.0435658 -0.210473 0.976629 
0.0379174 -0.176115 0.983639 
0.033481 -0.146586 0.988631 
0.0300603 -0.121726 0.992108 
0.0268833 -0.101092 0.994514 
0.0246663 -0.0828531 0.996256 
0.0230434 -0.0680881 0.997413 
0.0210023 -0.0550576 0.998262 
0.0202919 -0.0436359 0.998841 
0.0190101 -0.0340134 0.999241 
0.0175074 -0.0252254 0.999528 
0.0177863 -0.0162288 0.99971 
0.0150003 -0.00851161 0.999851 
0.018707 -0.00193094 0.999823 
0.0146586 0.00522601 0.999879 
0.0169972 0.0126625 0.999775 
0.0165438 0.022343 0.999613 
0.0169351 0.0310276 0.999375 
0.0178986 0.0412772 0.998987 
0.0180604 0.0530317 0.998429 
0.0192331 0.0666428 0.997592 
0.0206152 0.0825053 0.996377 
0.022303 0.100551 0.994682 
0.0244721 0.122069 0.99222 
0.0271932 0.147106 0.988747 
0.0310403 0.175866 0.983925 
0.0353279 0.20953 0.977164 
0.0410631 0.248091 0.967866 
0.0482358 0.29187 0.955241 
0.0568375 0.34145 0.93818 
0.0682152 0.395015 0.916138 
0.0836808 0.451164 0.888509 
0.0862661 0.502131 0.860478 
0.0758728 -0.537591 0.839785 
0.0654477 -0.454602 0.888287 
0.0530652 -0.38272 0.922339 
0.0436688 -0.320414 0.94627 
0.0362155 -0.268391 0.962629 
0.0301452 -0.224482 0.974012 
0.0256769 -0.187337 0.98196 
0.022203 -0.155794 0.98754 
0.0190606 -0.129955 0.991337 
0.0170607 -0.107014 0.994111 
0.0156111 -0.0885335 0.995951 
0.0140904 -0.0725062 0.997268 
0.0132887 -0.0587962 0.998182 
0.0127141 -0.0472408 0.998803 
0.0120074 -0.0368969 0.999247 
0.0111208 -0.0284289 0.999534 
0.0114492 -0.0200354 0.999734 
0.0109301 -0.0132733 0.999852 
0.00917272 -0.00598281 0.99994 
0.0124686 -0.00169573 0.999921 
0.00882301 0.00284486 0.999957 
0.010457 0.010227 0.999893 
0.0103777 0.0173426 0.999796 
0.00965212 0.0255347 0.999627 
0.0104445 0.0350796 0.99933 
0.0101594 0.0453313 0.99892 
0.0104263 0.0577497 0.998277 
0.010778 0.0721449 0.997336 
0.0115561 0.088537 0.996006 
0.0122019 0.108207 0.994054 
0.0133799 0.13076 0.991324 
0.0149858 0.157361 0.987427 
0.0167696 0.188229 0.981982 
0.019583 0.22376 0.974448 
0.0225109 0.265171 0.963939 
0.0265784 0.312454 0.949561 
0.0324146 0.367359 0.929514 
0.0397255 0.428591 0.902625 
0.043575 0.497653 0.866281 
0.0502599 -0.530799 0.846006 
0.0417513 -0.466765 0.883395 
0.0337802 -0.402764 0.91468 
0.0261415 -0.341626 0.939472 
0.0200276 -0.287393 0.957603 
0.0155009 -0.240871 0.970433 
0.012021 -0.201457 0.979424 
0.00915896 -0.168653 0.985633 
0.00761814 -0.140463 0.990057 
0.0064865 -0.116752 0.99314 
0.00532914 -0.0972086 0.99525 
0.00519255 -0.079721 0.996804 
0.00490006 -0.0657527 0.997824 
0.0046562 -0.0528174 0.998593 
0.00469627 -0.0424795 0.999086 
0.00465638 -0.0330421 0.999443 
0.00462886 -0.0241016 0.999699 
0.00472421 -0.0172764 0.99984 
0.00404038 -0.0103479 0.999938 
0.00356829 -0.00114579 0.999993 
0.00390939 0.00771949 0.999963 
0.00395111 0.0145348 0.999887 
0.0038344 0.0221963 0.999746 
0.00332753 0.0312721 0.999505 
0.00283316 0.040857 0.999161 
0.00259888 0.0524606 0.99862 
0.00220583 0.0654241 0.997855 
0.00183875 0.0808262 0.996727 
0.00152395 0.0983637 0.995149 
0.00143145 0.119234 0.992865 
0.000921613 0.143432 0.98966 
0.00107879 0.171474 0.985188 
0.000788812 0.204381 0.978891 
0.0007544 0.242288 0.970204 
0.0008457 0.285925 0.958252 
0.000382673 0.335302 0.942111 
8.33895e-05 0.389287 0.921116 
-0.000682323 0.44349 0.896279 
-0.0019126 0.497282 0.867587 
0.0226556 -0.520913 0.853309 
0.0109817 -0.438438 0.898694 
0.00590442 -0.368905 0.929448 
0.00154143 -0.30953 0.950889 
-0.00184784 -0.259381 0.965773 
-0.00421726 -0.217577 0.976034 
-0.00516438 -0.181865 0.98331 
-0.00576147 -0.151746 0.988403 
-0.00615015 -0.126816 0.991907 
-0.005458 -0.10464 0.994495 
-0.00517467 -0.0868729 0.996206 
-0.00467371 -0.0709797 0.997467 
-0.00367908 -0.058003 0.99831 
-0.00328293 -0.0461011 0.998931 
-0.00289611 -0.0363922 0.999333 
-0.00193444 -0.0277167 0.999614 
-0.00236303 -0.0199005 0.999799 
-0.00162944 -0.0124598 0.999921 
0.00100854 -0.00593209 0.999982 
-0.00379053 -0.000827719 0.999992 
0.000724634 0.00287584 0.999996 
-0.00197558 0.0108039 0.99994 
-0.00287629 0.0174644 0.999843 
-0.00284569 0.0260113 0.999658 
-0.00393493 0.0351856 0.999373 
-0.00471052 0.0458951 0.998935 
-0.00579085 0.0578514 0.998308 
-0.00680918 0.0722158 0.997366 
-0.00802969 0.0887146 0.996025 
-0.00950062 0.108046 0.9941 
-0.0111077 0.130585 0.991375 
-0.0128649 0.157118 0.987496 
-0.0153376 0.18779 0.982089 
-0.0175759 0.223478 0.97455 
-0.0212159 0.264805 0.964069 
-0.0250212 0.312689 0.949526 
-0.0314853 0.367513 0.929485 
-0.0401119 0.430217 0.901834 