# vtk DataFile Version 3.0 
Exported using Morpho https://github.com/Morpho-lang/morpho 
ASCII 
DATASET UNSTRUCTURED_GRID 

POINTS 1245 float 
-0.303845 -0.952721 0 
-0.250833 -0.96803 0 
-0.195084 -0.980787 0 
-0.146308 -0.989239 0 
-0.0940719 -0.995565 0 
-0.0475118 -0.998871 0 
-0.000246339 -1 0 
0.0470875 -0.998891 0 
0.0937543 -0.995595 0 
0.146139 -0.989264 0 
0.195062 -0.980791 0 
0.250843 -0.968028 0 
0.303953 -0.952687 0 
-0.409153 -0.912466 0 
-0.356519 -0.934288 0 
-0.308871 -0.898929 0 
-0.258282 -0.916037 0 
-0.207345 -0.934859 0 
-0.154868 -0.930629 0 
-0.104343 -0.948989 0 
-0.0520099 -0.939193 0 
-8.5762e-05 -0.954582 0 
0.0518744 -0.939288 0 
0.104354 -0.949042 0 
0.154696 -0.9306 0 
0.207366 -0.934975 0 
0.258274 -0.916081 0 
0.308979 -0.898924 0 
0.356593 -0.93426 0 
0.409236 -0.912429 0 
-0.513788 -0.857917 0 
-0.461695 -0.887039 0 
-0.411157 -0.857936 0 
-0.359855 -0.879963 0 
-0.306888 -0.847481 0 
-0.254732 -0.866979 0 
-0.201991 -0.889059 0 
-0.149956 -0.874108 0 
-0.100608 -0.900088 0 
-0.0497575 -0.880388 0 
2.4595e-05 -0.904789 0 
0.0496869 -0.8804 0 
0.100612 -0.900177 0 
0.149872 -0.874171 0 
0.202071 -0.889165 0 
0.254695 -0.867031 0 
0.306946 -0.847482 0 
0.359894 -0.879943 0 
0.411236 -0.857929 0 
0.461748 -0.887011 0 
0.513842 -0.857885 0 
-0.564741 -0.825268 0 
-0.512908 -0.802945 0 
-0.462372 -0.832348 0 
-0.410124 -0.804631 0 
-0.358606 -0.827415 0 
-0.305781 -0.795641 0 
-0.25358 -0.816639 0 
-0.200756 -0.839997 0 
-0.149043 -0.818944 0 
-0.0987265 -0.846667 0 
-0.0490473 -0.822548 0 
5.00659e-05 -0.849932 0 
0.0490834 -0.822542 0 
0.0987838 -0.846676 0 
0.148997 -0.818924 0 
0.200826 -0.840131 0 
0.253508 -0.816728 0 
0.305831 -0.795701 0 
0.358581 -0.827419 0 
0.410181 -0.804654 0 
0.462414 -0.83234 0 
0.512965 -0.802929 0 
0.564777 -0.825243 0 
-0.660798 -0.750564 0 
-0.614015 -0.789295 0 
-0.561786 -0.769772 0 
-0.510673 -0.747856 0 
-0.460836 -0.778365 0 
-0.408794 -0.751554 0 
-0.357337 -0.774971 0 
-0.304815 -0.743684 0 
-0.252907 -0.765535 0 
-0.200631 -0.789263 0 
-0.149244 -0.764328 0 
-0.0986912 -0.791935 0 
-0.0492815 -0.765764 0 
4.16586e-05 -0.79382 0 
0.0492411 -0.765708 0 
0.0987508 -0.791951 0 
0.149196 -0.764326 0 
0.200666 -0.789356 0 
0.252841 -0.765599 0 
0.304862 -0.743741 0 
0.357323 -0.775038 0 
0.408863 -0.751626 0 
0.460863 -0.778382 0 
0.510716 -0.747859 0 
0.561819 -0.769761 0 
0.614041 -0.789274 0 
0.660811 -0.750552 0 
-0.707107 -0.707107 0 
-0.654819 -0.699058 0 
-0.60813 -0.73348 0 
-0.558104 -0.71337 0 
-0.509495 -0.692659 0 
-0.45935 -0.724356 0 
-0.407328 -0.698865 0 
-0.355968 -0.722823 0 
-0.303722 -0.691387 0 
-0.252254 -0.71362 0 
-0.20067 -0.737336 0 
-0.149608 -0.710068 0 
-0.0991558 -0.737129 0 
-0.0495872 -0.709825 0 
-2.23646e-05 -0.737917 0 
0.0494408 -0.709766 0 
0.0991291 -0.737116 0 
0.149502 -0.710042 0 
0.200696 -0.73743 0 
0.252186 -0.713735 0 
0.303753 -0.691518 0 
0.355952 -0.722893 0 
0.407371 -0.698945 0 
0.459374 -0.724407 0 
0.509524 -0.692668 0 
0.558131 -0.713361 0 
0.608151 -0.733462 0 
0.654824 -0.699048 0 
0.707107 -0.707107 0 
-0.750564 -0.660798 0 
-0.699058 -0.654819 0 
-0.647692 -0.647692 0 
-0.603437 -0.675718 0 
-0.55905 -0.655305 0 
-0.508501 -0.639581 0 
-0.457509 -0.671321 0 
-0.405555 -0.646545 0 
-0.354417 -0.670703 0 
-0.302427 -0.639219 0 
-0.251503 -0.661417 0 
-0.20061 -0.684911 0 
-0.149717 -0.655943 0 
-0.0995004 -0.682466 0 
-0.0498216 -0.654561 0 
-5.02113e-05 -0.682664 0 
0.0496787 -0.654499 0 
0.0994374 -0.682501 0 
0.149603 -0.655909 0 
0.200573 -0.684972 0 
0.251388 -0.661524 0 
0.302407 -0.639359 0 
0.354397 -0.670836 0 
0.405575 -0.646641 0 
0.457525 -0.67138 0 
0.508497 -0.639623 0 
0.559063 -0.655324 0 
0.603436 -0.675715 0 
0.64769 -0.64769 0 
0.699048 -0.654824 0 
0.750552 -0.660811 0 
-0.789295 -0.614015 0 
-0.73348 -0.60813 0 
-0.675718 -0.603437 0 
-0.613088 -0.613088 0 
-0.55962 -0.604068 0 
-0.506189 -0.588854 0 
-0.455505 -0.618874 0 
-0.403019 -0.594688 0 
-0.352514 -0.618952 0 
-0.300977 -0.586897 0 
-0.250543 -0.608767 0 
-0.200257 -0.632053 0 
-0.150049 -0.601979 0 
-0.0998281 -0.628222 0 
-0.0500377 -0.599914 0 
-3.12334e-05 -0.628076 0 
0.0498927 -0.599835 0 
0.0997818 -0.628253 0 
0.149924 -0.601867 0 
0.200214 -0.632118 0 
0.250423 -0.608915 0 
0.30086 -0.587085 0 
0.352457 -0.619096 0 
0.402948 -0.594743 0 
0.455483 -0.618952 0 
0.506147 -0.588901 0 
0.55964 -0.604067 0 
0.613069 -0.613069 0 
0.675715 -0.603436 0 
0.733462 -0.608151 0 
0.789274 -0.614041 0 
-0.825268 -0.564741 0 
-0.769772 -0.561786 0 
-0.71337 -0.558104 0 
-0.655305 -0.55905 0 
-0.604068 -0.55962 0 
-0.551031 -0.551031 0 
-0.497922 -0.537596 0 
-0.451508 -0.567021 0 
-0.399773 -0.542431 0 
-0.350494 -0.567003 0 
-0.301574 -0.534146 0 
-0.250874 -0.555692 0 
-0.200542 -0.579013 0 
-0.150324 -0.548268 0 
-0.100169 -0.57443 0 
-0.0500152 -0.545912 0 
-3.29278e-05 -0.574268 0 
0.0499208 -0.545788 0 
0.100058 -0.574485 0 
0.150038 -0.548073 0 
0.200377 -0.579041 0 
0.250556 -0.55585 0 
0.301273 -0.534348 0 
0.350318 -0.567174 0 
0.399615 -0.542384 0 
0.451404 -0.5671 0 
0.497945 -0.537702 0 
0.551073 -0.551073 0 
0.604067 -0.55964 0 
0.655324 -0.559063 0 
0.713361 -0.558131 0 
0.769761 -0.561819 0 
0.825243 -0.564777 0 
-0.857917 -0.513788 0 
-0.802945 -0.512908 0 
-0.747856 -0.510673 0 
-0.692659 -0.509495 0 
-0.639581 -0.508501 0 
-0.588854 -0.506189 0 
-0.537596 -0.497922 0 
-0.486157 -0.486157 0 
-0.444928 -0.512952 0 
-0.401787 -0.486784 0 
-0.351685 -0.513639 0 
-0.299695 -0.48291 0 
-0.250032 -0.503 0 
-0.200501 -0.526165 0 
-0.149489 -0.495195 0 
-0.0999281 -0.521367 0 
-0.0499712 -0.492294 0 
4.64723e-05 -0.520999 0 
0.050147 -0.492108 0 
0.099934 -0.52133 0 
0.14957 -0.494692 0 
0.200133 -0.526255 0 
0.249839 -0.503309 0 
0.299839 -0.483005 0 
0.351514 -0.513798 0 
0.401881 -0.486608 0 
0.444935 -0.513054 0 
0.486228 -0.486228 0 
0.537702 -0.497945 0 
0.588901 -0.506147 0 
0.639623 -0.508497 0 
0.692668 -0.509524 0 
0.747859 -0.510716 0 
0.802929 -0.512965 0 
0.857885 -0.513842 0 
-0.887039 -0.461695 0 
-0.832348 -0.462372 0 
-0.778365 -0.460836 0 
-0.724356 -0.45935 0 
-0.671321 -0.457509 0 
-0.618874 -0.455505 0 
-0.567021 -0.451508 0 
-0.512952 -0.444928 0 
-0.450685 -0.450685 0 
-0.397667 -0.437543 0 
-0.348492 -0.462546 0 
-0.295416 -0.432968 0 
-0.247004 -0.450633 0 
-0.198702 -0.473818 0 
-0.150161 -0.441625 0 
-0.100085 -0.468395 0 
-0.0502271 -0.439281 0 
0.000144229 -0.468374 0 
0.0504178 -0.439106 0 
0.100428 -0.468348 0 
0.150697 -0.441105 0 
0.199103 -0.473881 0 
0.247983 -0.450921 0 
0.296569 -0.432268 0 
0.348831 -0.462562 0 
0.397506 -0.4368 0 
0.450637 -0.450637 0 
0.513054 -0.444935 0 
0.5671 -0.451404 0 
0.618952 -0.455483 0 
0.67138 -0.457525 0 
0.724407 -0.459374 0 
0.778382 -0.460863 0 
0.83234 -0.462414 0 
0.887011 -0.461748 0 
-0.912466 -0.409153 0 
-0.857936 -0.411157 0 
-0.804631 -0.410124 0 
-0.751554 -0.408794 0 
-0.698865 -0.407328 0 
-0.646545 -0.405555 0 
-0.594688 -0.403019 0 
-0.542431 -0.399773 0 
-0.486784 -0.401787 0 
-0.437543 -0.397667 0 
-0.387256 -0.387256 0 
-0.344215 -0.411459 0 
-0.30136 -0.381507 0 
-0.25021 -0.395692 0 
-0.200211 -0.419975 0 
-0.150955 -0.389014 0 
-0.100617 -0.416095 0 
-0.0503197 -0.386922 0 
-4.02994e-05 -0.416525 0 
0.05006 -0.386948 0 
0.100784 -0.416323 0 
0.150432 -0.388572 0 
0.200855 -0.420694 0 
0.25086 -0.396905 0 
0.301746 -0.379789 0 
0.344135 -0.410678 0 
0.385823 -0.385823 0 
0.4368 -0.397506 0 
0.486608 -0.401881 0 
0.542384 -0.399615 0 
0.594743 -0.402948 0 
0.646641 -0.405575 0 
0.698945 -0.407371 0 
0.751626 -0.408863 0 
0.804654 -0.410181 0 
0.857929 -0.411236 0 
0.912429 -0.409236 0 
-0.934288 -0.356519 0 
-0.879963 -0.359855 0 
-0.827415 -0.358606 0 
-0.774971 -0.357337 0 
-0.722823 -0.355968 0 
-0.670703 -0.354417 0 
-0.618952 -0.352514 0 
-0.567003 -0.350494 0 
-0.513639 -0.351685 0 
-0.462546 -0.348492 0 
-0.411459 -0.344215 0 
-0.351697 -0.351697 0 
-0.29839 -0.336232 0 
-0.249846 -0.342529 0 
-0.200971 -0.367271 0 
-0.149995 -0.337521 0 
-0.100435 -0.3646 0 
-0.0498692 -0.335025 0 
-6.88684e-05 -0.365025 0 
0.0495433 -0.334795 0 
0.0996798 -0.364834 0 
0.148162 -0.337172 0 
0.199644 -0.368939 0 
0.24763 -0.345582 0 
0.295348 -0.332889 0 
0.34978 -0.34978 0 
0.410678 -0.344135 0 
0.462562 -0.348831 0 
0.513798 -0.351514 0 
0.567174 -0.350318 0 
0.619096 -0.352457 0 
0.670836 -0.354397 0 
0.722893 -0.355952 0 
0.775038 -0.357323 0 
0.827419 -0.358581 0 
0.879943 -0.359894 0 
0.93426 -0.356593 0 
-0.952721 -0.303845 0 
-0.898929 -0.308871 0 
-0.847481 -0.306888 0 
-0.795641 -0.305781 0 
-0.743684 -0.304815 0 
-0.691387 -0.303722 0 
-0.639219 -0.302427 0 
-0.586897 -0.300977 0 
-0.534146 -0.301574 0 
-0.48291 -0.299695 0 
-0.432968 -0.295416 0 
-0.381507 -0.30136 0 
-0.336232 -0.29839 0 
-0.288184 -0.288184 0 
-0.242975 -0.290577 0 
-0.198059 -0.315051 0 
-0.148383 -0.285894 0 
-0.0994753 -0.313232 0 
-0.0507184 -0.283118 0 
-0.000202902 -0.313447 0 
0.0500077 -0.282824 0 
0.0988289 -0.312817 0 
0.148102 -0.28482 0 
0.195742 -0.317413 0 
0.240766 -0.295824 0 
0.285014 -0.285014 0 
0.332889 -0.295348 0 
0.379789 -0.301746 0 
0.432268 -0.296569 0 
0.483005 -0.299839 0 
0.534348 -0.301273 0 
0.587085 -0.30086 0 
0.639359 -0.302407 0 
0.691518 -0.303753 0 
0.743741 -0.304862 0 
0.795701 -0.305831 0 
0.847482 -0.306946 0 
0.898924 -0.308979 0 
0.952687 -0.303953 0 
-0.96803 -0.250833 0 
-0.916037 -0.258282 0 
-0.866979 -0.254732 0 
-0.816639 -0.25358 0 
-0.765535 -0.252907 0 
-0.71362 -0.252254 0 
-0.661417 -0.251503 0 
-0.608767 -0.250543 0 
-0.555692 -0.250874 0 
-0.503 -0.250032 0 
-0.450633 -0.247004 0 
-0.395692 -0.25021 0 
-0.342529 -0.249846 0 
-0.290577 -0.242975 0 
-0.239946 -0.239946 0 
-0.194478 -0.26004 0 
-0.151293 -0.23238 0 
-0.101048 -0.260904 0 
-0.0503938 -0.232537 0 
-0.000203281 -0.262984 0 
0.050638 -0.232316 0 
0.100942 -0.260855 0 
0.152412 -0.232597 0 
0.195768 -0.261421 0 
0.241873 -0.241873 0 
0.295824 -0.240766 0 
0.345582 -0.24763 0 
0.396905 -0.25086 0 
0.450921 -0.247983 0 
[...]
POINT_DATA 1245 
VECTORS vectors float
0.446877 -0.174009 0.877509 
0.454137 -0.13322 0.880916 
0.466309 -0.0929628 0.879723 
0.477964 -0.0627953 0.876132 
0.488486 -0.0351443 0.871863 
0.495432 -0.0135272 0.868542 
0.499646 0.00716207 0.8662 
0.499069 0.0281377 0.866105 
0.49777 0.0510641 0.865805 
0.496333 0.0786226 0.864565 
0.495723 0.103582 0.862281 
0.496233 0.129265 0.858512 
0.495395 0.148239 0.855926 
0.445928 -0.245445 0.860759 
0.444497 -0.212936 0.870104 
0.384133 -0.160872 0.909155 
0.391163 -0.128716 0.911276 
0.406687 -0.0971568 0.908387 
0.396121 -0.0665763 0.915782 
0.420814 -0.0406205 0.906237 
0.407303 -0.0173933 0.913127 
0.430447 0.004381 0.902605 
0.412776 0.0263066 0.910453 
0.431503 0.0503003 0.900708 
0.41504 0.0707401 0.907049 
0.43426 0.0964688 0.895607 
0.423991 0.113835 0.898484 
0.418577 0.128505 0.899044 
0.490557 0.16171 0.856273 
0.4786 0.171423 0.861137 
0.444388 -0.285573 0.849098 
0.447525 -0.269388 0.852732 
0.383143 -0.21657 0.897942 
0.383628 -0.190251 0.903678 
0.329365 -0.142349 0.933411 
0.335017 -0.115635 0.935089 
0.349488 -0.0890166 0.932703 
0.329207 -0.0600194 0.942348 
0.356527 -0.0390116 0.93347 
0.333289 -0.0177748 0.942657 
0.364482 0.00300392 0.931206 
0.337387 0.0196871 0.94116 
0.367125 0.0422231 0.929213 
0.342901 0.057527 0.937608 
0.372384 0.0820062 0.924449 
0.358917 0.0966702 0.92835 
0.349143 0.11105 0.930466 
0.41031 0.141136 0.900958 
0.395658 0.153194 0.905531 
0.456435 0.181339 0.871082 
0.423005 0.19659 0.884545 
0.43293 -0.297208 0.851022 
0.375292 -0.251849 0.892036 
0.381714 -0.236555 0.893497 
0.325672 -0.189271 0.926345 
0.325858 -0.168252 0.930327 
0.277825 -0.1264 0.95228 
0.2843 -0.104366 0.953038 
0.29856 -0.0814034 0.950913 
0.271193 -0.0558917 0.960901 
0.296817 -0.0368081 0.954225 
0.271262 -0.0177604 0.962342 
0.300629 -0.000190691 0.953741 
0.274783 0.015352 0.961384 
0.304507 0.0344987 0.951885 
0.281881 0.047882 0.958254 
0.313397 0.0698883 0.947047 
0.299459 0.0834285 0.950455 
0.288966 0.0962352 0.95249 
0.339407 0.123813 0.932455 
0.324656 0.137652 0.935762 
0.373682 0.166709 0.912453 
0.343412 0.186572 0.920467 
0.380824 0.222157 0.897563 
0.382158 -0.325768 0.864772 
0.411684 -0.30923 0.857259 
0.360926 -0.265147 0.894108 
0.312167 -0.222987 0.923487 
0.321321 -0.207894 0.923869 
0.272542 -0.167127 0.947518 
0.276194 -0.147363 0.949737 
0.233054 -0.112257 0.965963 
0.239553 -0.0930751 0.966412 
0.250166 -0.0741317 0.965361 
0.22409 -0.0511763 0.973224 
0.243846 -0.0347477 0.969191 
0.220301 -0.0181401 0.975263 
0.244881 -0.00227154 0.969551 
0.222394 0.0110745 0.974894 
0.24932 0.0280226 0.968016 
0.229788 0.0401349 0.972413 
0.260985 0.0599089 0.963482 
0.246557 0.0720306 0.966448 
0.236297 0.084794 0.967974 
0.277754 0.110277 0.954302 
0.264121 0.125234 0.956325 
0.30323 0.154765 0.940266 
0.277471 0.176489 0.944384 
0.308103 0.214861 0.926772 
0.335472 0.2607 0.905259 
0.29473 0.309472 0.90408 
0.346339 -0.350463 0.870186 
0.319313 -0.301204 0.898507 
0.339306 -0.27926 0.898268 
0.297034 -0.236849 0.925026 
0.25817 -0.199246 0.94533 
0.26813 -0.183113 0.94582 
0.227834 -0.147093 0.962526 
0.230648 -0.12983 0.964337 
0.194116 -0.0984447 0.976026 
0.198889 -0.0830315 0.976498 
0.208171 -0.0672793 0.975776 
0.182727 -0.0465012 0.982063 
0.198777 -0.0325761 0.979503 
0.177497 -0.0175397 0.983965 
0.197984 -0.00382263 0.980198 
0.178677 0.00787384 0.983876 
0.202173 0.0229111 0.979082 
0.185977 0.0333819 0.981987 
0.213192 0.0510297 0.975677 
0.201968 0.0626809 0.977384 
0.190878 0.0749589 0.978748 
0.226489 0.0984152 0.969029 
0.213581 0.115022 0.97013 
0.24576 0.143622 0.958632 
0.223786 0.167787 0.960087 
0.249238 0.204609 0.946581 
0.273978 0.250762 0.928469 
0.249257 0.296277 0.922004 
0.263389 0.36511 0.892928 
0.311077 -0.381682 0.870373 
0.289382 -0.325621 0.900127 
0.266093 -0.276993 0.923293 
0.277021 -0.252858 0.926996 
0.242671 -0.215644 0.945837 
0.213973 -0.179513 0.960203 
0.221634 -0.163424 0.961338 
0.18846 -0.130244 0.973406 
0.191068 -0.11536 0.974774 
0.159497 -0.0876164 0.983303 
0.164022 -0.0738458 0.983689 
0.17183 -0.0600539 0.983295 
0.148553 -0.0420958 0.988008 
0.161512 -0.0303175 0.986405 
0.142511 -0.0169239 0.989649 
0.159547 -0.00530524 0.987176 
0.14281 0.00548223 0.989735 
0.162769 0.0184501 0.986492 
0.148927 0.0280237 0.988451 
0.173142 0.044207 0.983904 
0.162213 0.054431 0.985253 
0.15472 0.0666634 0.985707 
0.183354 0.0889173 0.979017 
0.172928 0.105281 0.979292 
0.198973 0.133922 0.970811 
0.18278 0.15818 0.970346 
0.201881 0.196847 0.959424 
0.223336 0.2386 0.945088 
0.212177 0.278018 0.936849 
0.227244 0.342364 0.911673 
0.245092 0.417251 0.875118 
0.281874 -0.414084 0.865495 
0.259614 -0.345945 0.901622 
0.238084 -0.286744 0.927951 
0.225957 -0.238671 0.944447 
0.203122 -0.198716 0.958777 
0.177136 -0.163517 0.970508 
0.18334 -0.145906 0.972162 
0.154528 -0.116551 0.98109 
0.158315 -0.101109 0.982198 
0.130509 -0.0773732 0.988423 
0.134361 -0.0650318 0.988796 
0.139951 -0.0538067 0.988695 
0.119942 -0.0379217 0.992056 
0.129617 -0.0275968 0.99118 
0.113974 -0.016243 0.993351 
0.12705 -0.00584124 0.991879 
0.113745 0.00327933 0.993505 
0.129642 0.0147583 0.991451 
0.118573 0.0237091 0.992662 
0.138709 0.0375848 0.98962 
0.130363 0.0481069 0.990299 
0.122852 0.0592228 0.990656 
0.147067 0.0804445 0.98585 
0.139566 0.0964841 0.985501 
0.161129 0.124814 0.979009 
0.150827 0.148875 0.977286 
0.168212 0.188106 0.967637 
0.183117 0.236235 0.954286 
0.193298 0.299183 0.934412 
0.212873 0.373804 0.902749 
0.237193 0.458119 0.85666 
0.25823 -0.445234 0.85737 
0.237332 -0.372435 0.897199 
0.216921 -0.308652 0.92611 
0.199869 -0.255574 0.945904 
0.185564 -0.215468 0.958718 
0.166102 -0.178266 0.969862 
0.14514 -0.145501 0.978654 
0.150737 -0.129936 0.979998 
0.126846 -0.102806 0.98658 
0.129095 -0.0903162 0.987511 
0.106502 -0.0688178 0.991928 
0.108568 -0.0583457 0.992375 
0.113508 -0.0479417 0.99238 
0.0958766 -0.0339393 0.994814 
0.104094 -0.0254043 0.994243 
0.0899752 -0.0148441 0.995833 
0.101377 -0.00640576 0.994827 
0.0891284 0.0021068 0.996018 
0.102952 0.0119352 0.994615 
0.0932907 0.01977 0.995443 
0.110446 0.0326101 0.993347 
0.103 0.0422503 0.993784 
0.0983584 0.0535358 0.99371 
0.118558 0.0727159 0.990281 
0.111741 0.0879055 0.989842 
0.130701 0.114785 0.984755 
0.123186 0.134916 0.98317 
0.138352 0.172401 0.975262 
0.154012 0.215562 0.964268 
0.165176 0.264971 0.950004 
0.183211 0.329966 0.926044 
0.206859 0.405787 0.89025 
0.234244 0.488892 0.840306 
0.239792 -0.47193 0.8484 
0.218577 -0.396412 0.891673 
0.198801 -0.330172 0.922749 
0.180759 -0.273873 0.944627 
0.165407 -0.22759 0.959606 
0.150771 -0.190641 0.970012 
0.133975 -0.157272 0.978425 
0.118614 -0.126971 0.984789 
0.120879 -0.115885 0.98588 
0.102661 -0.0928879 0.99037 
0.105017 -0.0810888 0.991159 
0.0860213 -0.0614689 0.994395 
0.0877871 -0.0513764 0.994813 
0.0914852 -0.0429158 0.994881 
0.0767117 -0.030349 0.996591 
0.0828867 -0.023143 0.99629 
0.0716756 -0.0141646 0.997327 
0.0802638 -0.00679133 0.996751 
0.0707762 0.000614369 0.997492 
0.0812941 0.00933833 0.996646 
0.073456 0.0167464 0.997158 
0.0871938 0.0284104 0.995786 
0.0818987 0.037217 0.995946 
0.0774755 0.0480333 0.995837 
0.0940075 0.0666023 0.993341 
0.0888925 0.0816008 0.992693 
0.104872 0.103337 0.989102 
0.0995885 0.120895 0.987657 
0.113401 0.152512 0.981774 
0.12622 0.191425 0.973358 
0.140069 0.2353 0.961777 
0.156623 0.289464 0.944288 
0.177232 0.354567 0.91808 
0.203292 0.429114 0.880076 
0.232812 0.51002 0.828057 
0.224951 -0.492656 0.840647 
0.203186 -0.415897 0.886422 
0.182862 -0.348046 0.91947 
0.164329 -0.288901 0.94315 
0.148633 -0.239738 0.959392 
0.133507 -0.198434 0.970979 
0.120425 -0.162802 0.979282 
0.105557 -0.132783 0.985508 
0.0965931 -0.105692 0.989696 
0.0839574 -0.0834376 0.99297 
0.085462 -0.07211 0.993729 
0.0699124 -0.0539544 0.996093 
0.0702129 -0.0456761 0.996486 
0.0731192 -0.037725 0.996609 
0.0606634 -0.0275389 0.997778 
0.0657154 -0.020627 0.997625 
0.0558556 -0.0132446 0.998351 
0.0628847 -0.00625176 0.998001 
0.054715 -0.000238464 0.998502 
0.0633925 0.00786815 0.997958 
0.0572115 0.0139958 0.998264 
0.0685259 0.0243534 0.997352 
0.0639358 0.032809 0.997415 
0.0621065 0.0423821 0.997169 
0.0754587 0.0599756 0.995344 
0.071714 0.0738359 0.994689 
0.0825315 0.0970333 0.991853 
0.0898145 0.127596 0.987751 
0.101701 0.163412 0.981302 
0.115461 0.203117 0.972323 
0.130224 0.250521 0.959313 
0.149692 0.306255 0.940106 
0.172783 0.371134 0.912363 
0.200027 0.443864 0.873484 
0.23085 0.522892 0.820544 
0.212118 -0.507232 0.835298 
0.189831 -0.430019 0.882637 
0.168645 -0.36085 0.917249 
0.150747 -0.301166 0.941581 
0.134171 -0.249608 0.959007 
0.119994 -0.205843 0.9712 
0.107104 -0.16957 0.979681 
0.0953174 -0.138227 0.985803 
0.0865709 -0.111361 0.990002 
0.0770286 -0.0911799 0.992851 
0.0675449 -0.0732735 0.995022 
0.0689046 -0.063549 0.995597 
0.0569285 -0.0504106 0.997105 
0.0559087 -0.0406489 0.997608 
0.0583681 -0.0339156 0.997719 
0.0483828 -0.0241501 0.998537 
0.0522499 -0.0190255 0.998453 
0.0447425 -0.0115854 0.998931 
0.0502326 -0.00664303 0.998715 
0.043547 -0.000297867 0.999051 
0.0501579 0.00599008 0.998723 
0.044591 0.0124932 0.998927 
0.0536618 0.0217425 0.998322 
0.0500903 0.0294722 0.99831 
0.0488992 0.0396504 0.998016 
0.0591845 0.053387 0.996818 
0.0568969 0.0640974 0.99632 
0.0650788 0.0838727 0.994349 
0.0726729 0.1076 0.991535 
0.0813378 0.136997 0.987226 
0.0926181 0.171766 0.980774 
0.106521 0.212723 0.971289 
0.123353 0.260639 0.957524 
0.143314 0.316339 0.937758 
0.167764 0.379947 0.909668 
0.196011 0.451163 0.87065 
0.227615 0.528558 0.817813 
0.199658 -0.51601 0.832989 
0.17703 -0.438637 0.881055 
0.156438 -0.370175 0.915695 
0.137549 -0.309027 0.941054 
0.121444 -0.256778 0.95881 
0.10755 -0.211883 0.971359 
0.0949199 -0.174075 0.980147 
0.0845179 -0.141758 0.986287 
0.0751995 -0.115351 0.990474 
0.0672267 -0.0931439 0.99338 
0.0594637 -0.074533 0.995444 
0.0549181 -0.0585343 0.996774 
0.0469074 -0.0447325 0.997897 
0.0447671 -0.0365899 0.998327 
0.046427 -0.0307676 0.998448 
0.0385168 -0.0221135 0.999013 
0.0413114 -0.0174346 0.998994 
0.0346729 -0.0113196 0.999335 
0.0388743 -0.00651586 0.999223 
0.0336127 -0.00153311 0.999434 
0.0390472 0.00456201 0.999227 
0.0350427 0.00975218 0.999338 
0.0420822 0.0183905 0.998945 
0.0392402 0.0259872 0.998892 
0.0392147 0.0345447 0.998634 
0.0458769 0.0494232 0.997724 
0.0497239 0.0677888 0.99646 
0.0563741 0.0889003 0.994444 
0.0639678 0.112339 0.991609 
0.0726864 0.142766 0.987084 
0.0843556 0.176958 0.980597 
0.0983647 0.218326 0.970906 
0.115579 0.265455 0.95717 
0.136467 0.320484 0.937372 
0.161264 0.382445 0.909796 
0.190232 0.451882 0.871559 
0.222571 0.527462 0.819906 
0.186372 -0.519528 0.83388 
0.165044 -0.443871 0.880761 
0.14357 -0.375396 0.915678 
0.125712 -0.314612 0.940859 
0.109874 -0.26179 0.95885 
0.0959769 -0.215757 0.971719 
0.0844149 -0.176621 0.980652 
0.073711 -0.144051 0.986821 
0.0658184 -0.116206 0.991042 
0.058202 -0.0939982 0.99387 
0.0510848 -0.0754953 0.995837 
0.0477493 -0.0609766 0.996996 
0.0425345 -0.0497761 0.997854 
0.0378989 -0.0390537 0.998518 
0.0355495 -0.0318974 0.998859 
0.0369783 -0.0265588 0.998963 
0.0309254 -0.0196345 0.999329 
0.0332898 -0.0149916 0.999333 
0.0283987 -0.0101755 0.999545 
0.0317905 -0.00552996 0.999479 
0.0271685 -0.00133092 0.99963 
0.0309766 0.00410467 0.999512 
0.0276474 0.00867284 0.99958 
0.0328304 0.0162474 0.999329 
0.0309924 0.0219774 0.999278 
0.0310454 0.0295185 0.999082 
0.0349212 0.0409971 0.998549 
0.0389645 0.0540649 0.997777 
0.0425948 0.0706183 0.996594 
0.0486097 0.0906119 0.994699 
0.0557323 0.115699 0.99172 
0.0645697 0.144161 0.987445 
0.0760305 0.180009 0.980722 
0.0898603 0.219562 0.971451 
0.107423 0.267539 0.95754 
0.127822 0.319846 0.938808 
0.152785 0.380754 0.911967 
0.1821 0.447278 0.875661 
0.214525 0.519491 0.827108 
0.171218 -0.518877 0.837527 
0.151546 -0.446924 0.881642 
0.131769 -0.379937 0.915579 
0.114159 -0.321433 0.940026 
0.0990969 -0.267541 0.958437 
0.0860199 -0.221452 0.97137 
0.0744748 -0.181572 0.980553 
0.0651948 -0.147101 0.986971 
0.0570233 -0.119028 0.991252 
0.0498831 -0.0951899 0.994209 
0.0443034 -0.0755679 0.996156 
0.0393311 -0.0597404 0.997439 
0.0357337 -0.0467241 0.998268 
0.0316856 -0.0362586 0.99884 
0.0284014 -0.028335 0.999195 
0.0295102 -0.0236718 0.999284 
0.0247757 -0.0176108 0.999538 
0.0262445 -0.0142011 0.999555 
0.0226456 -0.00899575 0.999703 
0.0243537 -0.00588574 0.999686 
0.021782 -0.00122935 0.999762 
0.0242407 0.00297328 0.999702 
0.0218995 0.00833225 0.999725 
0.0254919 0.0139134 0.999578 
0.0243328 0.0200929 0.999502 
0.0256764 0.029775 0.999227 
0.0287857 0.0406538 0.998759 
0.032377 0.0548047 0.997972 
0.0359356 0.0723526 0.996732 
0.0415766 0.0933202 0.994768 
0.0485089 0.118034 0.991824 
0.0568675 0.148319 0.987303 
0.0678572 0.182389 0.980882 
0.0816064 0.223433 0.971297 
0.0975136 0.267878 0.958505 
0.118121 0.320589 0.939825 
0.141548 0.375839 0.91581 
0.170568 0.439862 0.881719 
0.201039 0.504834 0.83948 
0.151544 -0.514211 0.844169 
0.138373 -0.451812 0.881316 
0.119625 -0.390634 0.91274 
0.102921 -0.329599 0.938494 
0.0889364 -0.276966 0.956755 
0.0762604 -0.229161 0.970397 
0.0660652 -0.187604 0.980021 
0.0566575 -0.152794 0.986633 
0.0492987 -0.122982 0.991184 
0.0434017 -0.098362 0.994204 
0.0377814 -0.0784339 0.996203 
0.0336305 -0.0616659 0.99753 
0.0308577 -0.0483433 0.998354 
0.0269062 -0.0379395 0.998918 
0.0249907 -0.0286724 0.999276 
0.023461 -0.0218624 0.999486 
0.0205206 -0.0159559 0.999662 
0.0220748 -0.0126399 0.999676 
0.0184352 -0.00826716 0.999796 
0.0209283 -0.00515894 0.999768 
0.0175269 -0.00176262 0.999845 
0.0198384 0.00270608 0.9998 
0.0181251 0.00680466 0.999813 
0.0197624 0.0135448 0.999713 
0.0202051 0.0217309 0.99956 
0.021657 0.0315334 0.999268 
0.0240299 0.0438848 0.998748 
0.0268481 0.058201 0.997944 
0.0305174 0.0757932 0.996656 
0.0351571 0.0973487 0.994629 
0.0413885 0.122673 0.991584 
0.0494075 0.152533 0.987063 
0.0590556 0.187604 0.980468 
0.0715984 0.227083 0.97124 
0.087094 0.27255 0.958192 
0.105037 0.320907 0.941268 
0.127815 0.3762 0.91768 
0.155501 0.432385 0.88818 
0.176716 0.483481 0.857331 
0.131412 -0.507797 0.851395 
0.114459 -0.427544 0.896719 
0.0943428 -0.354107 0.930434 
0.0795061 -0.293491 0.95265 
0.0671918 -0.240509 0.968318 
0.0568443 -0.19685 0.978784 
0.0485307 -0.15913 0.986064 
0.0419084 -0.127791 0.990915 
0.0362044 -0.102317 0.994093 
0.0314573 -0.0808182 0.996232 
0.0285703 -0.0635393 0.99757 
0.0250517 -0.0501606 0.998427 
0.0233177 -0.0388195 0.998974 
0.0211872 -0.0303698 0.999314 
0.019706 -0.0233455 0.999533 
0.0186749 -0.0180436 0.999663 
0.0171287 -0.0136057 0.999761 
0.0176219 -0.0108296 0.999786 
0.0161842 -0.00776904 0.999839 
0.0169231 -0.00464375 0.999846 
0.0150653 -0.00119085 0.999886 
0.0165594 0.00213369 0.999861 
0.0141998 0.00516126 0.999886 
0.015856 0.0105823 0.999818 
0.01626 0.0161645 0.999737 
0.0164376 0.0240466 0.999576 
0.0176676 0.0341479 0.999261 
0.0193438 0.045861 0.998761 
0.0216888 0.0610642 0.997898 
0.02429 0.0795237 0.996537 
0.0286607 0.101319 0.994441 
0.0335712 0.127745 0.991239 
0.0402447 0.158537 0.986532 
0.0491291 0.194309 0.979709 
0.0596708 0.235338 0.97008 
0.0737803 0.282387 0.956459 
0.0928539 0.336068 0.93725 
0.119005 0.398497 0.909416 
0.144666 0.463111 0.874414 
0.106812 -0.499751 0.859558 
0.0974807 -0.437469 0.893934 
0.0822728 -0.371584 0.924747 
0.068287 -0.309936 0.948302 
0.0566587 -0.255241 0.965216 
0.0476497 -0.20848 0.976865 
0.0400868 -0.168635 0.984863 
0.0338986 -0.136065 0.99012 
0.0291558 -0.108475 0.993671 
0.0257984 -0.0860378 0.995958 
0.0225346 -0.068315 0.997409 
0.0205214 -0.0530825 0.998379 
0.0191881 -0.0418349 0.99894 
0.0172669 -0.0323886 0.999326 
0.0168526 -0.0248864 0.999548 
0.015874 -0.0193667 0.999686 
0.014782 -0.014333 0.999788 
0.0146458 -0.0103671 0.999839 
0.0130417 -0.00677114 0.999892 
0.0143145 -0.00424729 0.999889 
0.0125469 -0.000941073 0.999921 
0.0132999 0.00235199 0.999909 
0.0132348 0.00755488 0.999884 
0.0122988 0.0124977 0.999846 
0.0132327 0.0193891 0.999724 
0.0130526 0.0277134 0.999531 
0.0138653 0.0382318 0.999173 
0.0148583 0.0513402 0.998571 
0.0163498 0.0667806 0.997634 
0.0184032 0.0860605 0.99612 
0.0210103 0.109072 0.993812 
0.0250622 0.135962 0.990397 
0.0297017 0.167923 0.985353 
0.0361559 0.204697 0.978157 
0.044728 0.246533 0.968102 
0.0553939 0.293829 0.954251 
0.0697442 0.344294 0.936268 
0.090525 0.398294 0.91278 
0.0975585 0.443257 0.89107 
0.0830797 -0.492795 0.86617 
0.0705338 -0.408546 0.910008 
0.0561478 -0.33706 0.939807 
0.045501 -0.274574 0.960489 
0.0368682 -0.223504 0.974005 
0.0299869 -0.180867 0.98305 
0.0250923 -0.14534 0.989064 
0.0214579 -0.115789 0.993042 
0.0182402 -0.0925008 0.995546 
0.0164826 -0.0721514 0.997257 
0.0153334 -0.0569241 0.998261 
0.0139607 -0.0442074 0.998925 
0.01372 -0.0341142 0.999324 
0.0133246 -0.0265444 0.999559 
0.0127326 -0.0199475 0.99972 
0.0127253 -0.0156544 0.999796 
0.0124158 -0.0114642 0.999857 
0.0124187 -0.00850964 0.999887 
0.0126401 -0.00527662 0.999906 
0.0119982 -0.00407593 0.99992 
0.0117491 -0.0018855 0.999929 
0.0113067 0.00126139 0.999935 
0.0106481 0.00489537 0.999931 
0.00994856 0.00907036 0.999909 
0.0104288 0.0152067 0.99983 
0.00946095 0.0218522 0.999716 
0.0096163 0.0310186 0.999473 
0.00939185 0.0422781 0.999062 
0.00980622 0.0558907 0.998389 
0.0100517 0.0730273 0.997279 
0.0109257 0.0932348 0.995584 
0.0122624 0.117786 0.992963 
0.0138038 0.14667 0.989089 
0.0166837 0.180202 0.983488 
0.0197753 0.219448 0.975424 
0.024362 0.263806 0.964268 
0.0317752 0.3156 0.94836 
0.0410932 0.371125 0.927673 
0.0486672 0.433248 0.89996 
0.05825 -0.484283 0.87297 
0.0485583 -0.420203 0.90613 
0.0396152 -0.354802 0.934102 
0.0307448 -0.294224 0.955242 
0.0236231 -0.240821 0.970282 
0.0184819 -0.195374 0.980555 
0.0146502 -0.157575 0.987398 
0.011582 -0.12684 0.991856 
0.0102187 -0.100877 0.994846 
0.00941915 -0.0798386 0.996763 
0.0084989 -0.0633578 0.997955 
0.00891355 -0.0489391 0.998762 
0.00908111 -0.0386786 0.99921 
0.0090531 -0.02929 0.99953 
0.00974498 -0.0229375 0.999689 
0.00990262 -0.0174127 0.999799 
0.00987616 -0.012709 0.99987 
0.010724 -0.00976303 0.999895 
0.00900934 -0.0069164 0.999935 
0.0085056 -0.00285754 0.99996 
0.00914945 0.000689516 0.999958 
0.00885241 0.00337977 0.999955 
0.00879622 0.00764949 0.999932 
0.00753742 0.0126803 0.999891 
0.00686441 0.0187207 0.999801 
0.00611525 0.0270037 0.999617 
0.00522289 0.0366819 0.999313 
0.00436247 0.0491988 0.998779 
0.00348979 0.0640027 0.997944 
0.00284736 0.0824937 0.996588 
0.00171765 0.104467 0.994527 
0.00131125 0.130462 0.991452 
0.000354026 0.161432 0.986884 
-0.000352556 0.197127 0.980378 
-0.000859177 0.238385 0.97117 
-0.00205285 0.284405 0.958702 
-0.00304781 0.333768 0.94265 
-0.00404241 0.383432 0.92356 
-0.00597028 0.43025 0.90269 
0.0317043 -0.474062 0.87992 
0.0193874 -0.389514 0.920817 
0.0131682 -0.320524 0.947149 
0.00795515 -0.261072 0.965287 
0.00393256 -0.212163 0.977226 
0.00117606 -0.172026 0.985092 
0.000297493 -0.138184 0.990407 
-3.89634e-05 -0.110407 0.993886 
-0.000140044 -0.0881921 0.996103 
0.0012163 -0.0688029 0.99763 
0.00211945 -0.0544652 0.998513 
0.00302458 -0.0417915 0.999122 
0.00478853 -0.0327548 0.999452 
0.0055783 -0.0246122 0.999682 
0.0063508 -0.0189365 0.999801 
0.00767697 -0.0142505 0.999869 
0.00733966 -0.010745 0.999915 
0.00859217 -0.0068949 0.999939 
0.00987266 -0.00517274 0.999938 
0.0076607 -0.00204553 0.999969 
0.00908178 -0.00185666 0.999957 
0.00761582 0.00240461 0.999968 
0.00649997 0.00524441 0.999965 
0.00569908 0.00980399 0.999936 
0.00464884 0.0152458 0.999873 
0.00333653 0.0224576 0.999742 
0.00166523 0.0308802 0.999522 
0.000128048 0.0421573 0.999111 
-0.00178731 0.0557416 0.998444 
-0.00398378 0.0724736 0.997362 
-0.00639524 0.0926456 0.995679 
-0.00905117 0.117148 0.993073 
-0.0126392 0.14585 0.989226 
-0.0160526 0.179668 0.983596 
-0.0212943 0.218949 0.975504 