# vtk DataFile Version 3.0 
Exported using Morpho https://github.com/Morpho-lang/morpho 
ASCII 
DATASET UNSTRUCTURED_GRID 

POINTS 1245 float 
-0.303845 -0.952721 0 
-0.250833 -0.96803 0 
-0.195084 -0.980787 0 
-0.146308 -0.989239 0 
-0.0940719 -0.995565 0 
-0.0475118 -0.998871 0 
-0.000246339 -1 0 
0.0470875 -0.998891 0 
0.0937543 -0.995595 0 
0.146139 -0.989264 0 
0.195062 -0.980791 0 
0.250843 -0.968028 0 
0.303953 -0.952687 0 
-0.409153 -0.912466 0 
-0.356519 -0.934288 0 
-0.308871 -0.898929 0 
-0.258282 -0.916037 0 
-0.207345 -0.934859 0 
-0.154868 -0.930629 0 
-0.104343 -0.948989 0 
-0.0520099 -0.939193 0 
-8.5762e-05 -0.954582 0 
0.0518744 -0.939288 0 
0.104354 -0.949042 0 
0.154696 -0.9306 0 
0.207366 -0.934975 0 
0.258274 -0.916081 0 
0.308979 -0.898924 0 
0.356593 -0.93426 0 
0.409236 -0.912429 0 
-0.513788 -0.857917 0 
-0.461695 -0.887039 0 
-0.411157 -0.857936 0 
-0.359855 -0.879963 0 
-0.306888 -0.847481 0 
-0.254732 -0.866979 0 
-0.201991 -0.889059 0 
-0.149956 -0.874108 0 
-0.100608 -0.900088 0 
-0.0497575 -0.880388 0 
2.4595e-05 -0.904789 0 
0.0496869 -0.8804 0 
0.100612 -0.900177 0 
0.149872 -0.874171 0 
0.202071 -0.889165 0 
0.254695 -0.867031 0 
0.306946 -0.847482 0 
0.359894 -0.879943 0 
0.411236 -0.857929 0 
0.461748 -0.887011 0 
0.513842 -0.857885 0 
-0.564741 -0.825268 0 
-0.512908 -0.802945 0 
-0.462372 -0.832348 0 
-0.410124 -0.804631 0 
-0.358606 -0.827415 0 
-0.305781 -0.795641 0 
-0.25358 -0.816639 0 
-0.200756 -0.839997 0 
-0.149043 -0.818944 0 
-0.0987265 -0.846667 0 
-0.0490473 -0.822548 0 
5.00659e-05 -0.849932 0 
0.0490834 -0.822542 0 
0.0987838 -0.846676 0 
0.148997 -0.818924 0 
0.200826 -0.840131 0 
0.253508 -0.816728 0 
0.305831 -0.795701 0 
0.358581 -0.827419 0 
0.410181 -0.804654 0 
0.462414 -0.83234 0 
0.512965 -0.802929 0 
0.564777 -0.825243 0 
-0.660798 -0.750564 0 
-0.614015 -0.789295 0 
-0.561786 -0.769772 0 
-0.510673 -0.747856 0 
-0.460836 -0.778365 0 
-0.408794 -0.751554 0 
-0.357337 -0.774971 0 
-0.304815 -0.743684 0 
-0.252907 -0.765535 0 
-0.200631 -0.789263 0 
-0.149244 -0.764328 0 
-0.0986912 -0.791935 0 
-0.0492815 -0.765764 0 
4.16586e-05 -0.79382 0 
0.0492411 -0.765708 0 
0.0987508 -0.791951 0 
0.149196 -0.764326 0 
0.200666 -0.789356 0 
0.252841 -0.765599 0 
0.304862 -0.743741 0 
0.357323 -0.775038 0 
0.408863 -0.751626 0 
0.460863 -0.778382 0 
0.510716 -0.747859 0 
0.561819 -0.769761 0 
0.614041 -0.789274 0 
0.660811 -0.750552 0 
-0.707107 -0.707107 0 
-0.654819 -0.699058 0 
-0.60813 -0.73348 0 
-0.558104 -0.71337 0 
-0.509495 -0.692659 0 
-0.45935 -0.724356 0 
-0.407328 -0.698865 0 
-0.355968 -0.722823 0 
-0.303722 -0.691387 0 
-0.252254 -0.71362 0 
-0.20067 -0.737336 0 
-0.149608 -0.710068 0 
-0.0991558 -0.737129 0 
-0.0495872 -0.709825 0 
-2.23646e-05 -0.737917 0 
0.0494408 -0.709766 0 
0.0991291 -0.737116 0 
0.149502 -0.710042 0 
0.200696 -0.73743 0 
0.252186 -0.713735 0 
0.303753 -0.691518 0 
0.355952 -0.722893 0 
0.407371 -0.698945 0 
0.459374 -0.724407 0 
0.509524 -0.692668 0 
0.558131 -0.713361 0 
0.608151 -0.733462 0 
0.654824 -0.699048 0 
0.707107 -0.707107 0 
-0.750564 -0.660798 0 
-0.699058 -0.654819 0 
-0.647692 -0.647692 0 
-0.603437 -0.675718 0 
-0.55905 -0.655305 0 
-0.508501 -0.639581 0 
-0.457509 -0.671321 0 
-0.405555 -0.646545 0 
-0.354417 -0.670703 0 
-0.302427 -0.639219 0 
-0.251503 -0.661417 0 
-0.20061 -0.684911 0 
-0.149717 -0.655943 0 
-0.0995004 -0.682466 0 
-0.0498216 -0.654561 0 
-5.02113e-05 -0.682664 0 
0.0496787 -0.654499 0 
0.0994374 -0.682501 0 
0.149603 -0.655909 0 
0.200573 -0.684972 0 
0.251388 -0.661524 0 
0.302407 -0.639359 0 
0.354397 -0.670836 0 
0.405575 -0.646641 0 
0.457525 -0.67138 0 
0.508497 -0.639623 0 
0.559063 -0.655324 0 
0.603436 -0.675715 0 
0.64769 -0.64769 0 
0.699048 -0.654824 0 
0.750552 -0.660811 0 
-0.789295 -0.614015 0 
-0.73348 -0.60813 0 
-0.675718 -0.603437 0 
-0.613088 -0.613088 0 
-0.55962 -0.604068 0 
-0.506189 -0.588854 0 
-0.455505 -0.618874 0 
-0.403019 -0.594688 0 
-0.352514 -0.618952 0 
-0.300977 -0.586897 0 
-0.250543 -0.608767 0 
-0.200257 -0.632053 0 
-0.150049 -0.601979 0 
-0.0998281 -0.628222 0 
-0.0500377 -0.599914 0 
-3.12334e-05 -0.628076 0 
0.0498927 -0.599835 0 
0.0997818 -0.628253 0 
0.149924 -0.601867 0 
0.200214 -0.632118 0 
0.250423 -0.608915 0 
0.30086 -0.587085 0 
0.352457 -0.619096 0 
0.402948 -0.594743 0 
0.455483 -0.618952 0 
0.506147 -0.588901 0 
0.55964 -0.604067 0 
0.613069 -0.613069 0 
0.675715 -0.603436 0 
0.733462 -0.608151 0 
0.789274 -0.614041 0 
-0.825268 -0.564741 0 
-0.769772 -0.561786 0 
-0.71337 -0.558104 0 
-0.655305 -0.55905 0 
-0.604068 -0.55962 0 
-0.551031 -0.551031 0 
-0.497922 -0.537596 0 
-0.451508 -0.567021 0 
-0.399773 -0.542431 0 
-0.350494 -0.567003 0 
-0.301574 -0.534146 0 
-0.250874 -0.555692 0 
-0.200542 -0.579013 0 
-0.150324 -0.548268 0 
-0.100169 -0.57443 0 
-0.0500152 -0.545912 0 
-3.29278e-05 -0.574268 0 
0.0499208 -0.545788 0 
0.100058 -0.574485 0 
0.150038 -0.548073 0 
0.200377 -0.579041 0 
0.250556 -0.55585 0 
0.301273 -0.534348 0 
0.350318 -0.567174 0 
0.399615 -0.542384 0 
0.451404 -0.5671 0 
0.497945 -0.537702 0 
0.551073 -0.551073 0 
0.604067 -0.55964 0 
0.655324 -0.559063 0 
0.713361 -0.558131 0 
0.769761 -0.561819 0 
0.825243 -0.564777 0 
-0.857917 -0.513788 0 
-0.802945 -0.512908 0 
-0.747856 -0.510673 0 
-0.692659 -0.509495 0 
-0.639581 -0.508501 0 
-0.588854 -0.506189 0 
-0.537596 -0.497922 0 
-0.486157 -0.486157 0 
-0.444928 -0.512952 0 
-0.401787 -0.486784 0 
-0.351685 -0.513639 0 
-0.299695 -0.48291 0 
-0.250032 -0.503 0 
-0.200501 -0.526165 0 
-0.149489 -0.495195 0 
-0.0999281 -0.521367 0 
-0.0499712 -0.492294 0 
4.64723e-05 -0.520999 0 
0.050147 -0.492108 0 
0.099934 -0.52133 0 
0.14957 -0.494692 0 
0.200133 -0.526255 0 
0.249839 -0.503309 0 
0.299839 -0.483005 0 
0.351514 -0.513798 0 
0.401881 -0.486608 0 
0.444935 -0.513054 0 
0.486228 -0.486228 0 
0.537702 -0.497945 0 
0.588901 -0.506147 0 
0.639623 -0.508497 0 
0.692668 -0.509524 0 
0.747859 -0.510716 0 
0.802929 -0.512965 0 
0.857885 -0.513842 0 
-0.887039 -0.461695 0 
-0.832348 -0.462372 0 
-0.778365 -0.460836 0 
-0.724356 -0.45935 0 
-0.671321 -0.457509 0 
-0.618874 -0.455505 0 
-0.567021 -0.451508 0 
-0.512952 -0.444928 0 
-0.450685 -0.450685 0 
-0.397667 -0.437543 0 
-0.348492 -0.462546 0 
-0.295416 -0.432968 0 
-0.247004 -0.450633 0 
-0.198702 -0.473818 0 
-0.150161 -0.441625 0 
-0.100085 -0.468395 0 
-0.0502271 -0.439281 0 
0.000144229 -0.468374 0 
0.0504178 -0.439106 0 
0.100428 -0.468348 0 
0.150697 -0.441105 0 
0.199103 -0.473881 0 
0.247983 -0.450921 0 
0.296569 -0.432268 0 
0.348831 -0.462562 0 
0.397506 -0.4368 0 
0.450637 -0.450637 0 
0.513054 -0.444935 0 
0.5671 -0.451404 0 
0.618952 -0.455483 0 
0.67138 -0.457525 0 
0.724407 -0.459374 0 
0.778382 -0.460863 0 
0.83234 -0.462414 0 
0.887011 -0.461748 0 
-0.912466 -0.409153 0 
-0.857936 -0.411157 0 
-0.804631 -0.410124 0 
-0.751554 -0.408794 0 
-0.698865 -0.407328 0 
-0.646545 -0.405555 0 
-0.594688 -0.403019 0 
-0.542431 -0.399773 0 
-0.486784 -0.401787 0 
-0.437543 -0.397667 0 
-0.387256 -0.387256 0 
-0.344215 -0.411459 0 
-0.30136 -0.381507 0 
-0.25021 -0.395692 0 
-0.200211 -0.419975 0 
-0.150955 -0.389014 0 
-0.100617 -0.416095 0 
-0.0503197 -0.386922 0 
-4.02994e-05 -0.416525 0 
0.05006 -0.386948 0 
0.100784 -0.416323 0 
0.150432 -0.388572 0 
0.200855 -0.420694 0 
0.25086 -0.396905 0 
0.301746 -0.379789 0 
0.344135 -0.410678 0 
0.385823 -0.385823 0 
0.4368 -0.397506 0 
0.486608 -0.401881 0 
0.542384 -0.399615 0 
0.594743 -0.402948 0 
0.646641 -0.405575 0 
0.698945 -0.407371 0 
0.751626 -0.408863 0 
0.804654 -0.410181 0 
0.857929 -0.411236 0 
0.912429 -0.409236 0 
-0.934288 -0.356519 0 
-0.879963 -0.359855 0 
-0.827415 -0.358606 0 
-0.774971 -0.357337 0 
-0.722823 -0.355968 0 
-0.670703 -0.354417 0 
-0.618952 -0.352514 0 
-0.567003 -0.350494 0 
-0.513639 -0.351685 0 
-0.462546 -0.348492 0 
-0.411459 -0.344215 0 
-0.351697 -0.351697 0 
-0.29839 -0.336232 0 
-0.249846 -0.342529 0 
-0.200971 -0.367271 0 
-0.149995 -0.337521 0 
-0.100435 -0.3646 0 
-0.0498692 -0.335025 0 
-6.88684e-05 -0.365025 0 
0.0495433 -0.334795 0 
0.0996798 -0.364834 0 
0.148162 -0.337172 0 
0.199644 -0.368939 0 
0.24763 -0.345582 0 
0.295348 -0.332889 0 
0.34978 -0.34978 0 
0.410678 -0.344135 0 
0.462562 -0.348831 0 
0.513798 -0.351514 0 
0.567174 -0.350318 0 
0.619096 -0.352457 0 
0.670836 -0.354397 0 
0.722893 -0.355952 0 
0.775038 -0.357323 0 
0.827419 -0.358581 0 
0.879943 -0.359894 0 
0.93426 -0.356593 0 
-0.952721 -0.303845 0 
-0.898929 -0.308871 0 
-0.847481 -0.306888 0 
-0.795641 -0.305781 0 
-0.743684 -0.304815 0 
-0.691387 -0.303722 0 
-0.639219 -0.302427 0 
-0.586897 -0.300977 0 
-0.534146 -0.301574 0 
-0.48291 -0.299695 0 
-0.432968 -0.295416 0 
-0.381507 -0.30136 0 
-0.336232 -0.29839 0 
-0.288184 -0.288184 0 
-0.242975 -0.290577 0 
-0.198059 -0.315051 0 
-0.148383 -0.285894 0 
-0.0994753 -0.313232 0 
-0.0507184 -0.283118 0 
-0.000202902 -0.313447 0 
0.0500077 -0.282824 0 
0.0988289 -0.312817 0 
0.148102 -0.28482 0 
0.195742 -0.317413 0 
0.240766 -0.295824 0 
0.285014 -0.285014 0 
0.332889 -0.295348 0 
0.379789 -0.301746 0 
0.432268 -0.296569 0 
0.483005 -0.299839 0 
0.534348 -0.301273 0 
0.587085 -0.30086 0 
0.639359 -0.302407 0 
0.691518 -0.303753 0 
0.743741 -0.304862 0 
0.795701 -0.305831 0 
0.847482 -0.306946 0 
0.898924 -0.308979 0 
0.952687 -0.303953 0 
-0.96803 -0.250833 0 
-0.916037 -0.258282 0 
-0.866979 -0.254732 0 
-0.816639 -0.25358 0 
-0.765535 -0.252907 0 
-0.71362 -0.252254 0 
-0.661417 -0.251503 0 
-0.608767 -0.250543 0 
-0.555692 -0.250874 0 
-0.503 -0.250032 0 
-0.450633 -0.247004 0 
-0.395692 -0.25021 0 
-0.342529 -0.249846 0 
-0.290577 -0.242975 0 
-0.239946 -0.239946 0 
-0.194478 -0.26004 0 
-0.151293 -0.23238 0 
-0.101048 -0.260904 0 
-0.0503938 -0.232537 0 
-0.000203281 -0.262984 0 
0.050638 -0.232316 0 
0.100942 -0.260855 0 
0.152412 -0.232597 0 
0.195768 -0.261421 0 
0.241873 -0.241873 0 
0.295824 -0.240766 0 
0.345582 -0.24763 0 
0.396905 -0.25086 0 
0.450921 -0.247983 0 
[...]
POINT_DATA 1245 
VECTORS vectors float
0.410993 -0.167838 0.896055 
0.419975 -0.122172 0.899275 
0.43679 -0.0806822 0.895938 
0.452259 -0.0527237 0.890327 
0.464393 -0.029677 0.885132 
0.471237 -0.0119985 0.881925 
0.473964 0.0057889 0.880525 
0.471589 0.0245361 0.881477 
0.468746 0.0465959 0.882103 
0.465648 0.0741954 0.881854 
0.464532 0.100552 0.879829 
0.466932 0.128195 0.874952 
0.470385 0.146929 0.870144 
0.418068 -0.246849 0.874234 
0.410846 -0.212099 0.88669 
0.351374 -0.155314 0.923262 
0.358216 -0.120851 0.925784 
0.376492 -0.0869051 0.922335 
0.367007 -0.058745 0.928361 
0.394339 -0.0347087 0.918309 
0.379953 -0.0147915 0.924888 
0.402829 0.00342658 0.915269 
0.383982 0.0244122 0.923018 
0.401136 0.0462463 0.91485 
0.384476 0.0670315 0.920698 
0.403682 0.092506 0.910211 
0.395657 0.110176 0.911766 
0.393318 0.12248 0.911208 
0.470343 0.1566 0.868478 
0.461243 0.159312 0.872854 
0.428255 -0.279214 0.85944 
0.426462 -0.268667 0.863683 
0.357407 -0.213126 0.909306 
0.353962 -0.186618 0.916452 
0.299416 -0.13604 0.944374 
0.304278 -0.107917 0.946451 
0.31797 -0.08157 0.944585 
0.300454 -0.0533627 0.952303 
0.327777 -0.0342164 0.944135 
0.304863 -0.0154804 0.95227 
0.335882 0.00331175 0.941898 
0.30759 0.0176165 0.951356 
0.337158 0.0392361 0.94063 
0.312482 0.0527996 0.948455 
0.342636 0.0776942 0.93625 
0.330573 0.0900232 0.939477 
0.322489 0.102625 0.940994 
0.387578 0.131394 0.912425 
0.373793 0.138507 0.917112 
0.438135 0.161826 0.884223 
0.400617 0.172184 0.899921 
0.418435 -0.28403 0.862693 
0.356632 -0.241186 0.902576 
0.360261 -0.230337 0.903967 
0.301076 -0.181999 0.936071 
0.297772 -0.162338 0.940733 
0.249456 -0.118731 0.96108 
0.254384 -0.097587 0.962167 
0.269302 -0.074184 0.960194 
0.241609 -0.0505675 0.969055 
0.268026 -0.0326731 0.962858 
0.242216 -0.0157562 0.970094 
0.271445 -0.000162086 0.962454 
0.245284 0.0136466 0.969355 
0.27453 0.031101 0.961076 
0.25215 0.042905 0.966737 
0.283542 0.0636884 0.956842 
0.27106 0.0755318 0.959594 
0.261887 0.0852651 0.961325 
0.314497 0.111415 0.942697 
0.299881 0.121594 0.946196 
0.350611 0.146974 0.924916 
0.317514 0.164091 0.933948 
0.353599 0.196079 0.914615 
0.362773 -0.304154 0.880844 
0.395727 -0.29051 0.871208 
0.342562 -0.249883 0.905654 
0.291268 -0.209698 0.933376 
0.299097 -0.198166 0.933419 
0.247851 -0.15754 0.955903 
0.249837 -0.139316 0.958213 
0.205702 -0.104177 0.973054 
0.211789 -0.0853865 0.973578 
0.221102 -0.0675742 0.972907 
0.196148 -0.0459659 0.979496 
0.215184 -0.0311018 0.976078 
0.191837 -0.0166782 0.981285 
0.215846 -0.00257437 0.976424 
0.193439 0.00861833 0.981075 
0.219781 0.0239299 0.975256 
0.200422 0.033961 0.979121 
0.231981 0.0526367 0.971295 
0.217905 0.0622115 0.973985 
0.20886 0.0727513 0.975236 
0.251187 0.0966424 0.963102 
0.237881 0.108549 0.96521 
0.277273 0.135499 0.951189 
0.249993 0.155483 0.955682 
0.279182 0.191781 0.940892 
0.304 0.23571 0.923052 
0.260427 0.287785 0.921606 
0.323228 -0.329 0.88729 
0.297579 -0.280795 0.91247 
0.319377 -0.260577 0.911097 
0.276249 -0.220156 0.935531 
0.236164 -0.184214 0.954092 
0.245455 -0.170724 0.954256 
0.203827 -0.135463 0.96959 
0.205111 -0.119824 0.971376 
0.168616 -0.0886983 0.981683 
0.171807 -0.075241 0.982253 
0.180346 -0.0608294 0.981721 
0.155295 -0.0416119 0.986991 
0.17067 -0.0292959 0.984893 
0.149807 -0.016406 0.988579 
0.169558 -0.00445781 0.98551 
0.150438 0.00479909 0.988608 
0.173339 0.0182028 0.984694 
0.157556 0.0262977 0.98716 
0.184384 0.0425111 0.981935 
0.174167 0.0518112 0.983352 
0.163082 0.0616136 0.984687 
0.199483 0.0834394 0.976342 
0.186557 0.09808 0.977536 
0.218849 0.124599 0.967771 
0.195976 0.147757 0.969413 
0.220261 0.183275 0.958069 
0.242979 0.228798 0.942663 
0.217249 0.277091 0.935961 
0.228855 0.348513 0.908936 
0.286407 -0.362581 0.886852 
0.266123 -0.305633 0.914203 
0.243533 -0.257248 0.935155 
0.25544 -0.233998 0.938081 
0.220439 -0.198359 0.955019 
0.191802 -0.162994 0.967804 
0.198426 -0.149697 0.968617 
0.164868 -0.116988 0.979353 
0.166016 -0.104638 0.980556 
0.134532 -0.0775742 0.987868 
0.138345 -0.0654355 0.98822 
0.145435 -0.0532529 0.987934 
0.122595 -0.0371861 0.99176 
0.134754 -0.0273427 0.990502 
0.116058 -0.0162083 0.99311 
0.132264 -0.00657923 0.991193 
0.115802 0.00188053 0.993271 
0.134994 0.012953 0.990762 
0.121458 0.0201238 0.992392 
0.145196 0.0347524 0.988792 
0.13453 0.0424883 0.989998 
0.128233 0.052641 0.990346 
0.156466 0.073405 0.984952 
0.14629 0.0878205 0.985336 
0.171995 0.115131 0.978347 
0.155662 0.138471 0.978057 
0.173994 0.17706 0.968698 
0.193847 0.218481 0.956394 
0.183062 0.259477 0.94824 
0.196635 0.326739 0.924433 
0.213825 0.405692 0.888647 
0.258518 -0.397352 0.8805 
0.23676 -0.327137 0.914836 
0.215715 -0.266921 0.939266 
0.203921 -0.219574 0.954046 
0.18112 -0.180361 0.966781 
0.154774 -0.146509 0.977026 
0.160515 -0.130841 0.978323 
0.131282 -0.102667 0.986014 
0.134683 -0.0887098 0.98691 
0.106996 -0.0663815 0.992041 
0.110192 -0.0560367 0.992329 
0.114674 -0.0470058 0.99229 
0.0954542 -0.0330608 0.994885 
0.103922 -0.0247246 0.994278 
0.0890948 -0.0159222 0.995896 
0.100908 -0.00749471 0.994868 
0.0883037 -0.00101156 0.996093 
0.103048 0.0085406 0.99464 
0.0924988 0.0151166 0.995598 
0.111665 0.0271706 0.993374 
0.104095 0.0355267 0.993933 
0.0966983 0.0443712 0.994324 
0.12053 0.0643309 0.990623 
0.113802 0.0787668 0.990376 
0.134759 0.106039 0.985188 
0.125131 0.1296 0.983639 
0.141781 0.168228 0.975499 
0.155701 0.217717 0.963513 
0.166711 0.282239 0.944748 
0.186123 0.3602 0.914119 
0.211742 0.448886 0.86814 
0.237949 -0.429726 0.871043 
0.216376 -0.354527 0.909666 
0.195741 -0.289131 0.937064 
0.178432 -0.235899 0.955256 
0.16399 -0.195894 0.966816 
0.144731 -0.159367 0.976553 
0.123646 -0.127782 0.984065 
0.128849 -0.113574 0.985139 
0.105105 -0.0876234 0.990593 
0.106316 -0.0774894 0.991308 
0.0847137 -0.0571174 0.994767 
0.0856544 -0.0491241 0.995113 
0.0899072 -0.0407845 0.995115 
0.0729886 -0.0290064 0.996911 
0.0802347 -0.0227894 0.996515 
0.0666865 -0.0147397 0.997665 
0.0769876 -0.00850278 0.996996 
0.0652372 -0.00253462 0.997867 
0.0778888 0.00517726 0.996949 
0.0687191 0.0105088 0.997581 
0.0848489 0.0215857 0.99616 
0.0778121 0.0289667 0.996547 
0.0741368 0.0383126 0.996512 
0.0934551 0.05626 0.994033 
0.0871411 0.0699569 0.993737 
0.105453 0.0960788 0.989772 
0.0990506 0.115172 0.988395 
0.113536 0.153172 0.981656 
0.129703 0.196252 0.971937 
0.14017 0.247462 0.958705 
0.159576 0.314289 0.935819 
0.184687 0.39304 0.900783 
0.21482 0.478841 0.851213 
0.22293 -0.456413 0.861388 
0.200243 -0.378749 0.903577 
0.179705 -0.310906 0.933297 
0.160977 -0.253824 0.953761 
0.145464 -0.207046 0.967457 
0.13056 -0.170671 0.97664 
0.113454 -0.138065 0.983904 
0.0989329 -0.107828 0.989235 
0.0993008 -0.0994749 0.990073 
0.0824177 -0.076674 0.993644 
0.0835271 -0.0673845 0.994225 
0.0654827 -0.0495032 0.996625 
0.0669086 -0.0415712 0.996893 
0.0695825 -0.0357716 0.996935 
0.0559456 -0.025542 0.998107 
0.0608658 -0.0208218 0.997929 
0.0507319 -0.0144348 0.998608 
0.0577662 -0.00940888 0.998286 
0.0493191 -0.00459679 0.998772 
0.0581572 0.00206302 0.998305 
0.0510376 0.00715833 0.998671 
0.0632411 0.01689 0.997855 
0.0587584 0.0235864 0.997994 
0.0545738 0.0324338 0.997983 
0.0701835 0.0495846 0.996301 
0.0661346 0.0634211 0.995793 
0.0815235 0.0840338 0.993122 
0.0768301 0.101757 0.991838 
0.0911358 0.132505 0.986984 
0.103418 0.17204 0.979646 
0.118125 0.216619 0.969083 
0.135235 0.272092 0.952721 
0.156931 0.338998 0.927606 
0.185065 0.415465 0.890584 
0.217236 0.497729 0.839687 
0.210997 -0.476596 0.853426 
0.187894 -0.398 0.897938 
0.166346 -0.328584 0.929711 
0.146874 -0.268284 0.952078 
0.130724 -0.218745 0.966986 
0.114694 -0.177529 0.977409 
0.101869 -0.141911 0.984624 
0.0862604 -0.113471 0.98979 
0.0772701 -0.0879181 0.993126 
0.0650768 -0.06698 0.99563 
0.0659559 -0.0579788 0.996137 
0.0516768 -0.0415343 0.9978 
0.0511749 -0.0362265 0.998032 
0.0532227 -0.0302538 0.998124 
0.042098 -0.0228329 0.998853 
0.0458832 -0.0182792 0.99878 
0.0370809 -0.0137361 0.999218 
0.0425323 -0.00894894 0.999055 
0.0353122 -0.00576491 0.99936 
0.0423304 0.000422712 0.999104 
0.0371059 0.00398624 0.999303 
0.0464999 0.0124393 0.998841 
0.0426816 0.0190567 0.998907 
0.0417256 0.0267773 0.99877 
0.0538937 0.0429461 0.997623 
0.0507298 0.055424 0.997173 
0.0615561 0.0775246 0.995088 
0.0692871 0.107193 0.991821 
0.0811442 0.143537 0.986313 
0.09556 0.18336 0.97839 
0.110644 0.231826 0.966444 
0.131309 0.288571 0.948412 
0.155654 0.354817 0.921888 
0.184446 0.428911 0.884316 
0.216867 0.509104 0.832936 
0.20094 -0.490834 0.847764 
0.177267 -0.411625 0.893947 
0.154653 -0.340717 0.927359 
0.136069 -0.280053 0.950292 
0.11832 -0.227989 0.966448 
0.103747 -0.183622 0.977507 
0.0902536 -0.148106 0.984845 
0.0782966 -0.11719 0.990018 
0.0695091 -0.0913532 0.99339 
0.0595475 -0.0728934 0.99556 
0.0509781 -0.0568342 0.997081 
0.0510912 -0.0486703 0.997507 
0.0405967 -0.0384101 0.998437 
0.0394221 -0.0300731 0.99877 
0.0408364 -0.0265417 0.998813 
0.0324755 -0.019173 0.999289 
0.0349726 -0.0168947 0.999245 
0.0289853 -0.0119589 0.999508 
0.0327027 -0.00963503 0.999419 
0.0272174 -0.00550101 0.999614 
0.031739 -0.00175738 0.999495 
0.0271405 0.00279483 0.999628 
0.0342039 0.00985839 0.999366 
0.0314136 0.015382 0.999388 
0.0308938 0.0241884 0.99923 
0.0391701 0.0360775 0.998581 
0.0385254 0.0460725 0.998195 
0.0460206 0.0642924 0.996869 
0.0536638 0.0878139 0.99469 
0.063011 0.116389 0.991203 
0.0745814 0.151315 0.985668 
0.0889685 0.192652 0.977226 
0.106644 0.241382 0.964553 
0.127441 0.298039 0.946008 
0.153116 0.362823 0.919193 
0.18243 0.435511 0.881504 
0.214875 0.514832 0.829925 
0.191729 -0.499147 0.84504 
0.167211 -0.419431 0.892255 
0.145424 -0.349357 0.925636 
0.125129 -0.28734 0.94962 
0.108263 -0.234014 0.966187 
0.0934524 -0.189322 0.977458 
0.0803064 -0.151338 0.985214 
0.0698056 -0.119593 0.990366 
0.0596726 -0.0944878 0.993736 
0.0523136 -0.0734845 0.995923 
0.0441933 -0.0566824 0.997414 
0.0398124 -0.0432435 0.998271 
0.0332318 -0.0313121 0.998957 
0.030589 -0.0269488 0.999169 
0.031497 -0.0233266 0.999232 
0.0252361 -0.0176162 0.999526 
0.0265962 -0.0154243 0.999527 
0.0213488 -0.0120733 0.999699 
0.0237095 -0.00966412 0.999672 
0.019903 -0.00690572 0.999778 
0.0232825 -0.0031527 0.999724 
0.0204065 9.08105e-05 0.999792 
0.0252702 0.00638137 0.99966 
0.0232571 0.0124653 0.999652 
0.0235691 0.0190239 0.999541 
0.0291704 0.0320969 0.999059 
0.0330546 0.0487249 0.998265 
0.0398116 0.0691648 0.996811 
0.0474234 0.0912413 0.994699 
0.056703 0.122028 0.990906 
0.0687736 0.155526 0.985435 
0.0833556 0.19789 0.976674 
0.101273 0.244994 0.964221 
0.123146 0.301534 0.945469 
0.149063 0.364355 0.919253 
0.179119 0.435881 0.882 
0.212727 0.514375 0.830762 
0.182059 -0.50125 0.845933 
0.158482 -0.42353 0.891911 
0.135087 -0.354017 0.925431 
0.116253 -0.291339 0.94953 
0.0992632 -0.238632 0.966024 
0.084364 -0.191767 0.977808 
0.0724357 -0.153074 0.985556 
0.0609111 -0.121061 0.990774 
0.0531269 -0.0940146 0.994152 
0.0454135 -0.0732989 0.996276 
0.0383467 -0.0566276 0.997659 
0.0357111 -0.0437495 0.998404 
0.0296704 -0.0357578 0.99892 
0.0264969 -0.0269448 0.999286 
0.0244996 -0.0221611 0.999454 
0.024718 -0.0191856 0.99951 
0.0205107 -0.0152766 0.999673 
0.0215803 -0.0128172 0.999685 
0.0185201 -0.0107189 0.999771 
0.0199725 -0.00825853 0.999766 
0.0166184 -0.00633857 0.999842 
0.0182758 -0.00306145 0.999828 
0.0160195 -0.000474323 0.999872 
0.0188119 0.00500376 0.999811 
0.017929 0.00891182 0.9998 
0.0180173 0.0145458 0.999732 
0.0212122 0.0248176 0.999467 
0.0246525 0.0359705 0.999049 
0.0285888 0.051172 0.998281 
0.034483 0.0698049 0.996964 
0.0417906 0.0945539 0.994642 
0.0509872 0.121947 0.991226 
0.0629162 0.158499 0.985352 
0.077245 0.197377 0.97728 
0.0957343 0.246943 0.964289 
0.117055 0.298815 0.947105 
0.143451 0.362313 0.920951 
0.174393 0.43013 0.885762 
0.209704 0.505548 0.836926 
0.170166 -0.498462 0.850047 
0.147483 -0.425794 0.892719 
0.126273 -0.356095 0.925879 
0.107227 -0.298206 0.94846 
0.0909339 -0.242648 0.965843 
0.0771089 -0.196895 0.977388 
0.0647299 -0.157041 0.985468 
0.0552656 -0.122893 0.99088 
0.0467196 -0.0960083 0.994284 
0.0393455 -0.0734498 0.996522 
0.034391 -0.0554117 0.997871 
0.0287513 -0.0424993 0.998683 
0.0262893 -0.0313231 0.999164 
0.0226786 -0.024304 0.999447 
0.0197508 -0.0189855 0.999625 
0.020348 -0.0169323 0.99965 
0.0172628 -0.013046 0.999766 
0.0171596 -0.0124009 0.999776 
0.0151938 -0.00939202 0.99984 
0.0149135 -0.00881499 0.99985 
0.0140686 -0.00590561 0.999884 
0.014389 -0.00409656 0.999888 
0.0132174 -0.00037911 0.999913 
0.0147804 0.00298973 0.999886 
0.0142823 0.00745139 0.99987 
0.0153607 0.0153395 0.999764 
0.0175908 0.023628 0.999566 
0.0208968 0.0364446 0.999117 
0.0245253 0.052274 0.998332 
0.0302158 0.0720426 0.996944 
0.0372896 0.0957655 0.994705 
0.045868 0.125706 0.991007 
0.0572015 0.159159 0.985594 
0.0716933 0.200938 0.976977 
0.0882566 0.244607 0.965597 
0.11034 0.299441 0.947713 
0.135448 0.354094 0.925349 
0.166787 0.421339 0.891434 
0.201781 0.487461 0.849509 
0.152381 -0.491277 0.85757 
0.136613 -0.427432 0.893666 
0.116924 -0.367269 0.922736 
0.0984682 -0.303865 0.947613 
0.0835505 -0.251554 0.96423 
0.0698046 -0.203516 0.97658 
0.0590701 -0.161835 0.985048 
0.04908 -0.127776 0.990588 
0.0413928 -0.0988326 0.994243 
0.0356742 -0.0754355 0.996512 
0.029932 -0.057458 0.997899 
0.0260893 -0.0427384 0.998746 
0.0237302 -0.0321572 0.999201 
0.0199888 -0.0245727 0.999498 
0.0190935 -0.0183167 0.99965 
0.0174421 -0.0149206 0.999737 
0.0155368 -0.0118169 0.999809 
0.0161701 -0.0110373 0.999808 
0.0137562 -0.00876203 0.999867 
0.0147462 -0.00771783 0.999861 
0.0124854 -0.00597186 0.999904 
0.0127641 -0.00376418 0.999911 
0.0122425 -0.00138738 0.999924 
0.0120868 0.00292432 0.999923 
0.0126243 0.00881949 0.999881 
0.0136306 0.0160573 0.999778 
0.0156432 0.0266725 0.999522 
0.0181193 0.0389365 0.999077 
0.0218578 0.0548637 0.998255 
0.0263774 0.0752101 0.996819 
0.0327241 0.0995042 0.994499 
0.0410139 0.128736 0.99083 
0.0508724 0.163393 0.985248 
0.0640463 0.202592 0.977167 
0.0806697 0.248421 0.965287 
0.0999214 0.296155 0.949899 
0.124807 0.353361 0.927124 
0.155633 0.408907 0.899207 
0.181374 0.460303 0.869036 
0.132761 -0.482596 0.865722 
0.11404 -0.402265 0.908393 
0.0920617 -0.327609 0.940317 
0.076499 -0.267357 0.960556 
0.0632297 -0.213482 0.974899 
0.0522347 -0.170413 0.983987 
0.0433901 -0.133051 0.990159 
0.0366574 -0.102501 0.994057 
0.030685 -0.0785334 0.996439 
0.026089 -0.0586074 0.99794 
0.0236114 -0.0435889 0.99877 
0.0200294 -0.0328336 0.99926 
0.01908 -0.0241498 0.999526 
0.0172967 -0.018733 0.999675 
0.0159435 -0.0147263 0.999764 
0.0155381 -0.0119143 0.999808 
0.0149051 -0.0102264 0.999837 
0.0139012 -0.00905864 0.999862 
0.0143943 -0.0079367 0.999865 
0.0131872 -0.00691738 0.999889 
0.0125499 -0.00519861 0.999908 
0.0125714 -0.00347872 0.999915 
0.0104857 -0.00202334 0.999943 
0.0116857 0.00150107 0.999931 
0.0113561 0.00483895 0.999924 
0.0113057 0.0105063 0.999881 
0.012302 0.0184188 0.999755 
0.0135258 0.0277638 0.999523 
0.0158083 0.0411606 0.999027 
0.0182607 0.0577234 0.998166 
0.0226814 0.0781012 0.996687 
0.027483 0.103515 0.994248 
0.0342713 0.1335 0.990456 
0.0434744 0.168771 0.984696 
0.054438 0.209119 0.976374 
0.0695315 0.256055 0.964158 
0.0907256 0.308931 0.946747 
0.119442 0.37144 0.920742 
0.150202 0.433905 0.88835 
0.108581 -0.473208 0.874233 
0.0977395 -0.411096 0.906337 
0.0822006 -0.344211 0.935287 
0.0671065 -0.282451 0.956932 
0.0546795 -0.227687 0.972198 
0.0452454 -0.181042 0.982434 
0.0372694 -0.141487 0.989238 
0.0308854 -0.109988 0.993453 
0.0260789 -0.0834172 0.996173 
0.0229917 -0.0626223 0.997772 
0.0197239 -0.0471685 0.998692 
0.0181017 -0.0341154 0.999254 
0.0172855 -0.0258358 0.999517 
0.0155856 -0.0192105 0.999694 
0.0157442 -0.014591 0.99977 
0.0150628 -0.0120554 0.999814 
0.0142319 -0.00922429 0.999856 
0.0139946 -0.00824107 0.999868 
0.0128158 -0.00652989 0.999897 
0.0133451 -0.00606923 0.999893 
0.0123313 -0.00413329 0.999915 
0.0122004 -0.00308376 0.999921 
0.0122219 -2.50539e-05 0.999925 
0.0100018 0.00256809 0.999947 
0.0111181 0.00724694 0.999912 
0.0105084 0.0131449 0.999858 
0.0110317 0.0212693 0.999713 
0.0117338 0.0322035 0.999412 
0.0130874 0.0454997 0.998879 
0.0150517 0.0631368 0.997891 
0.0173697 0.0847624 0.99625 
0.0213475 0.110463 0.993651 
0.025874 0.141646 0.989579 
0.0323042 0.177609 0.983571 
0.0413847 0.218617 0.974933 
0.0527688 0.265009 0.962801 
0.0681435 0.313749 0.947058 
0.0923416 0.367305 0.925505 
0.101327 0.408466 0.907132 
0.0852664 -0.465644 0.880855 
0.0720457 -0.38014 0.922119 
0.056337 -0.309282 0.9493 
0.0456038 -0.245957 0.968207 
0.0363775 -0.195231 0.980082 
0.0291722 -0.15296 0.987802 
0.0242706 -0.118112 0.992704 
0.0206888 -0.0896791 0.995756 
0.0175398 -0.0681794 0.997519 
0.0161501 -0.0495504 0.998641 
0.0154512 -0.0369308 0.999198 
0.0142441 -0.0268433 0.999538 
0.0146363 -0.0196072 0.999701 
0.0145413 -0.0151156 0.99978 
0.0138559 -0.0111022 0.999842 
0.0147059 -0.00959974 0.999846 
0.0137692 -0.00774799 0.999875 
0.0141229 -0.00677745 0.999877 
0.0168751 -0.00551195 0.999842 
0.0116821 -0.00561638 0.999916 
0.0152713 -0.00463306 0.999873 
0.012396 -0.00320075 0.999918 
0.0113916 -0.00114021 0.999934 
0.010527 0.000649664 0.999944 
0.0110557 0.00477875 0.999927 
0.00940147 0.00883703 0.999917 
0.00973797 0.0155422 0.999832 
0.00908503 0.0241941 0.999666 
0.00934659 0.0355172 0.999325 
0.00928425 0.0506192 0.998675 
0.00999472 0.0690392 0.997564 
0.0110565 0.0922298 0.995676 
0.0120828 0.120032 0.992697 
0.0147958 0.152578 0.988181 
0.0174482 0.190926 0.981449 
0.021912 0.233957 0.972 
0.0301584 0.284704 0.958141 
0.0397868 0.336709 0.940768 
0.0496205 0.395575 0.917092 
0.061359 -0.455833 0.887948 
0.0505906 -0.39247 0.918373 
0.041611 -0.325214 0.944725 
0.0321336 -0.265126 0.963678 
0.0246227 -0.211896 0.976982 
0.019528 -0.166617 0.985828 
0.0157935 -0.12945 0.99146 
0.0126825 -0.0998536 0.994921 
0.0117392 -0.0751573 0.997103 
0.0113823 -0.0558774 0.998373 
0.0106029 -0.0418168 0.999069 
0.0116346 -0.0296958 0.999491 
0.0121586 -0.0225297 0.999672 
0.0122282 -0.0157983 0.9998 
0.0135189 -0.0124255 0.999831 
0.0137002 -0.00948017 0.999861 
0.0133256 -0.00729903 0.999885 
0.0152554 -0.00652733 0.999862 
0.0110873 -0.00547317 0.999924 
0.00977692 -0.00319577 0.999947 
0.0118834 -0.00220166 0.999927 
0.0119687 -0.00208078 0.999926 
0.012146 0.00065043 0.999926 
0.010354 0.00306026 0.999942 
0.00976597 0.00662878 0.99993 
0.00883094 0.0124983 0.999883 
0.00770608 0.0194058 0.999782 
0.00669724 0.0296085 0.999539 
0.00553014 0.0420562 0.9991 
0.0045986 0.058636 0.998269 
0.00300907 0.0790417 0.996867 
0.00208489 0.103743 0.994602 
0.000367972 0.133802 0.991008 
-0.00113418 0.168441 0.985711 
-0.0023352 0.208816 0.977952 
-0.00436351 0.253269 0.967386 
-0.00605982 0.300123 0.953881 
-0.00678315 0.348144 0.937417 
-0.00923005 0.390556 0.920533 
0.0351766 -0.445421 0.89463 
0.0226129 -0.359308 0.932945 
0.0157545 -0.291565 0.956421 
0.0105991 -0.231131 0.972865 
0.00647785 -0.182612 0.983164 
0.00374326 -0.143239 0.989681 
0.00329891 -0.110096 0.993915 
0.00343463 -0.0836521 0.996489 
0.00368281 -0.0632453 0.997991 
0.00569881 -0.0456602 0.998941 
0.0071236 -0.0340999 0.999393 
0.00823471 -0.023807 0.999683 
0.0105793 -0.0180318 0.999781 
0.0115371 -0.0125611 0.999855 
0.0123014 -0.00970948 0.999877 
0.0139971 -0.00746848 0.999874 
0.0130213 -0.00652234 0.999894 
0.0148983 -0.00416397 0.99988 
0.0164598 -0.00548872 0.999849 
0.0136768 -0.00199287 0.999904 
0.0148723 -0.00466946 0.999878 
0.0130961 -0.00128868 0.999913 
0.0118272 -0.000579395 0.99993 
0.010654 0.00167056 0.999942 
0.00993098 0.00459225 0.99994 
0.00854029 0.00933181 0.99992 
0.00676831 0.0148152 0.999867 
0.00509253 0.0235856 0.999709 
0.00301236 0.0346961 0.999393 
0.000504572 0.0492186 0.998788 
-0.00243933 0.0676178 0.997708 
-0.00568133 0.0907977 0.995853 