# vtk DataFile Version 3.0 
Exported using Morpho https://github.com/Morpho-lang/morpho 
ASCII 
DATASET UNSTRUCTURED_GRID 

POINTS 1245 float 
-0.303845 -0.952721 0 
-0.250833 -0.96803 0 
-0.195084 -0.980787 0 
-0.146308 -0.989239 0 
-0.0940719 -0.995565 0 
-0.0475118 -0.998871 0 
-0.000246339 -1 0 
0.0470875 -0.998891 0 
0.0937543 -0.995595 0 
0.146139 -0.989264 0 
0.195062 -0.980791 0 
0.250843 -0.968028 0 
0.303953 -0.952687 0 
-0.409153 -0.912466 0 
-0.356519 -0.934288 0 
-0.308871 -0.898929 0 
-0.258282 -0.916037 0 
-0.207345 -0.934859 0 
-0.154868 -0.930629 0 
-0.104343 -0.948989 0 
-0.0520099 -0.939193 0 
-8.5762e-05 -0.954582 0 
0.0518744 -0.939288 0 
0.104354 -0.949042 0 
0.154696 -0.9306 0 
0.207366 -0.934975 0 
0.258274 -0.916081 0 
0.308979 -0.898924 0 
0.356593 -0.93426 0 
0.409236 -0.912429 0 
-0.513788 -0.857917 0 
-0.461695 -0.887039 0 
-0.411157 -0.857936 0 
-0.359855 -0.879963 0 
-0.306888 -0.847481 0 
-0.254732 -0.866979 0 
-0.201991 -0.889059 0 
-0.149956 -0.874108 0 
-0.100608 -0.900088 0 
-0.0497575 -0.880388 0 
2.4595e-05 -0.904789 0 
0.0496869 -0.8804 0 
0.100612 -0.900177 0 
0.149872 -0.874171 0 
0.202071 -0.889165 0 
0.254695 -0.867031 0 
0.306946 -0.847482 0 
0.359894 -0.879943 0 
0.411236 -0.857929 0 
0.461748 -0.887011 0 
0.513842 -0.857885 0 
-0.564741 -0.825268 0 
-0.512908 -0.802945 0 
-0.462372 -0.832348 0 
-0.410124 -0.804631 0 
-0.358606 -0.827415 0 
-0.305781 -0.795641 0 
-0.25358 -0.816639 0 
-0.200756 -0.839997 0 
-0.149043 -0.818944 0 
-0.0987265 -0.846667 0 
-0.0490473 -0.822548 0 
5.00659e-05 -0.849932 0 
0.0490834 -0.822542 0 
0.0987838 -0.846676 0 
0.148997 -0.818924 0 
0.200826 -0.840131 0 
0.253508 -0.816728 0 
0.305831 -0.795701 0 
0.358581 -0.827419 0 
0.410181 -0.804654 0 
0.462414 -0.83234 0 
0.512965 -0.802929 0 
0.564777 -0.825243 0 
-0.660798 -0.750564 0 
-0.614015 -0.789295 0 
-0.561786 -0.769772 0 
-0.510673 -0.747856 0 
-0.460836 -0.778365 0 
-0.408794 -0.751554 0 
-0.357337 -0.774971 0 
-0.304815 -0.743684 0 
-0.252907 -0.765535 0 
-0.200631 -0.789263 0 
-0.149244 -0.764328 0 
-0.0986912 -0.791935 0 
-0.0492815 -0.765764 0 
4.16586e-05 -0.79382 0 
0.0492411 -0.765708 0 
0.0987508 -0.791951 0 
0.149196 -0.764326 0 
0.200666 -0.789356 0 
0.252841 -0.765599 0 
0.304862 -0.743741 0 
0.357323 -0.775038 0 
0.408863 -0.751626 0 
0.460863 -0.778382 0 
0.510716 -0.747859 0 
0.561819 -0.769761 0 
0.614041 -0.789274 0 
0.660811 -0.750552 0 
-0.707107 -0.707107 0 
-0.654819 -0.699058 0 
-0.60813 -0.73348 0 
-0.558104 -0.71337 0 
-0.509495 -0.692659 0 
-0.45935 -0.724356 0 
-0.407328 -0.698865 0 
-0.355968 -0.722823 0 
-0.303722 -0.691387 0 
-0.252254 -0.71362 0 
-0.20067 -0.737336 0 
-0.149608 -0.710068 0 
-0.0991558 -0.737129 0 
-0.0495872 -0.709825 0 
-2.23646e-05 -0.737917 0 
0.0494408 -0.709766 0 
0.0991291 -0.737116 0 
0.149502 -0.710042 0 
0.200696 -0.73743 0 
0.252186 -0.713735 0 
0.303753 -0.691518 0 
0.355952 -0.722893 0 
0.407371 -0.698945 0 
0.459374 -0.724407 0 
0.509524 -0.692668 0 
0.558131 -0.713361 0 
0.608151 -0.733462 0 
0.654824 -0.699048 0 
0.707107 -0.707107 0 
-0.750564 -0.660798 0 
-0.699058 -0.654819 0 
-0.647692 -0.647692 0 
-0.603437 -0.675718 0 
-0.55905 -0.655305 0 
-0.508501 -0.639581 0 
-0.457509 -0.671321 0 
-0.405555 -0.646545 0 
-0.354417 -0.670703 0 
-0.302427 -0.639219 0 
-0.251503 -0.661417 0 
-0.20061 -0.684911 0 
-0.149717 -0.655943 0 
-0.0995004 -0.682466 0 
-0.0498216 -0.654561 0 
-5.02113e-05 -0.682664 0 
0.0496787 -0.654499 0 
0.0994374 -0.682501 0 
0.149603 -0.655909 0 
0.200573 -0.684972 0 
0.251388 -0.661524 0 
0.302407 -0.639359 0 
0.354397 -0.670836 0 
0.405575 -0.646641 0 
0.457525 -0.67138 0 
0.508497 -0.639623 0 
0.559063 -0.655324 0 
0.603436 -0.675715 0 
0.64769 -0.64769 0 
0.699048 -0.654824 0 
0.750552 -0.660811 0 
-0.789295 -0.614015 0 
-0.73348 -0.60813 0 
-0.675718 -0.603437 0 
-0.613088 -0.613088 0 
-0.55962 -0.604068 0 
-0.506189 -0.588854 0 
-0.455505 -0.618874 0 
-0.403019 -0.594688 0 
-0.352514 -0.618952 0 
-0.300977 -0.586897 0 
-0.250543 -0.608767 0 
-0.200257 -0.632053 0 
-0.150049 -0.601979 0 
-0.0998281 -0.628222 0 
-0.0500377 -0.599914 0 
-3.12334e-05 -0.628076 0 
0.0498927 -0.599835 0 
0.0997818 -0.628253 0 
0.149924 -0.601867 0 
0.200214 -0.632118 0 
0.250423 -0.608915 0 
0.30086 -0.587085 0 
0.352457 -0.619096 0 
0.402948 -0.594743 0 
0.455483 -0.618952 0 
0.506147 -0.588901 0 
0.55964 -0.604067 0 
0.613069 -0.613069 0 
0.675715 -0.603436 0 
0.733462 -0.608151 0 
0.789274 -0.614041 0 
-0.825268 -0.564741 0 
-0.769772 -0.561786 0 
-0.71337 -0.558104 0 
-0.655305 -0.55905 0 
-0.604068 -0.55962 0 
-0.551031 -0.551031 0 
-0.497922 -0.537596 0 
-0.451508 -0.567021 0 
-0.399773 -0.542431 0 
-0.350494 -0.567003 0 
-0.301574 -0.534146 0 
-0.250874 -0.555692 0 
-0.200542 -0.579013 0 
-0.150324 -0.548268 0 
-0.100169 -0.57443 0 
-0.0500152 -0.545912 0 
-3.29278e-05 -0.574268 0 
0.0499208 -0.545788 0 
0.100058 -0.574485 0 
0.150038 -0.548073 0 
0.200377 -0.579041 0 
0.250556 -0.55585 0 
0.301273 -0.534348 0 
0.350318 -0.567174 0 
0.399615 -0.542384 0 
0.451404 -0.5671 0 
0.497945 -0.537702 0 
0.551073 -0.551073 0 
0.604067 -0.55964 0 
0.655324 -0.559063 0 
0.713361 -0.558131 0 
0.769761 -0.561819 0 
0.825243 -0.564777 0 
-0.857917 -0.513788 0 
-0.802945 -0.512908 0 
-0.747856 -0.510673 0 
-0.692659 -0.509495 0 
-0.639581 -0.508501 0 
-0.588854 -0.506189 0 
-0.537596 -0.497922 0 
-0.486157 -0.486157 0 
-0.444928 -0.512952 0 
-0.401787 -0.486784 0 
-0.351685 -0.513639 0 
-0.299695 -0.48291 0 
-0.250032 -0.503 0 
-0.200501 -0.526165 0 
-0.149489 -0.495195 0 
-0.0999281 -0.521367 0 
-0.0499712 -0.492294 0 
4.64723e-05 -0.520999 0 
0.050147 -0.492108 0 
0.099934 -0.52133 0 
0.14957 -0.494692 0 
0.200133 -0.526255 0 
0.249839 -0.503309 0 
0.299839 -0.483005 0 
0.351514 -0.513798 0 
0.401881 -0.486608 0 
0.444935 -0.513054 0 
0.486228 -0.486228 0 
0.537702 -0.497945 0 
0.588901 -0.506147 0 
0.639623 -0.508497 0 
0.692668 -0.509524 0 
0.747859 -0.510716 0 
0.802929 -0.512965 0 
0.857885 -0.513842 0 
-0.887039 -0.461695 0 
-0.832348 -0.462372 0 
-0.778365 -0.460836 0 
-0.724356 -0.45935 0 
-0.671321 -0.457509 0 
-0.618874 -0.455505 0 
-0.567021 -0.451508 0 
-0.512952 -0.444928 0 
-0.450685 -0.450685 0 
-0.397667 -0.437543 0 
-0.348492 -0.462546 0 
-0.295416 -0.432968 0 
-0.247004 -0.450633 0 
-0.198702 -0.473818 0 
-0.150161 -0.441625 0 
-0.100085 -0.468395 0 
-0.0502271 -0.439281 0 
0.000144229 -0.468374 0 
0.0504178 -0.439106 0 
0.100428 -0.468348 0 
0.150697 -0.441105 0 
0.199103 -0.473881 0 
0.247983 -0.450921 0 
0.296569 -0.432268 0 
0.348831 -0.462562 0 
0.397506 -0.4368 0 
0.450637 -0.450637 0 
0.513054 -0.444935 0 
0.5671 -0.451404 0 
0.618952 -0.455483 0 
0.67138 -0.457525 0 
0.724407 -0.459374 0 
0.778382 -0.460863 0 
0.83234 -0.462414 0 
0.887011 -0.461748 0 
-0.912466 -0.409153 0 
-0.857936 -0.411157 0 
-0.804631 -0.410124 0 
-0.751554 -0.408794 0 
-0.698865 -0.407328 0 
-0.646545 -0.405555 0 
-0.594688 -0.403019 0 
-0.542431 -0.399773 0 
-0.486784 -0.401787 0 
-0.437543 -0.397667 0 
-0.387256 -0.387256 0 
-0.344215 -0.411459 0 
-0.30136 -0.381507 0 
-0.25021 -0.395692 0 
-0.200211 -0.419975 0 
-0.150955 -0.389014 0 
-0.100617 -0.416095 0 
-0.0503197 -0.386922 0 
-4.02994e-05 -0.416525 0 
0.05006 -0.386948 0 
0.100784 -0.416323 0 
0.150432 -0.388572 0 
0.200855 -0.420694 0 
0.25086 -0.396905 0 
0.301746 -0.379789 0 
0.344135 -0.410678 0 
0.385823 -0.385823 0 
0.4368 -0.397506 0 
0.486608 -0.401881 0 
0.542384 -0.399615 0 
0.594743 -0.402948 0 
0.646641 -0.405575 0 
0.698945 -0.407371 0 
0.751626 -0.408863 0 
0.804654 -0.410181 0 
0.857929 -0.411236 0 
0.912429 -0.409236 0 
-0.934288 -0.356519 0 
-0.879963 -0.359855 0 
-0.827415 -0.358606 0 
-0.774971 -0.357337 0 
-0.722823 -0.355968 0 
-0.670703 -0.354417 0 
-0.618952 -0.352514 0 
-0.567003 -0.350494 0 
-0.513639 -0.351685 0 
-0.462546 -0.348492 0 
-0.411459 -0.344215 0 
-0.351697 -0.351697 0 
-0.29839 -0.336232 0 
-0.249846 -0.342529 0 
-0.200971 -0.367271 0 
-0.149995 -0.337521 0 
-0.100435 -0.3646 0 
-0.0498692 -0.335025 0 
-6.88684e-05 -0.365025 0 
0.0495433 -0.334795 0 
0.0996798 -0.364834 0 
0.148162 -0.337172 0 
0.199644 -0.368939 0 
0.24763 -0.345582 0 
0.295348 -0.332889 0 
0.34978 -0.34978 0 
0.410678 -0.344135 0 
0.462562 -0.348831 0 
0.513798 -0.351514 0 
0.567174 -0.350318 0 
0.619096 -0.352457 0 
0.670836 -0.354397 0 
0.722893 -0.355952 0 
0.775038 -0.357323 0 
0.827419 -0.358581 0 
0.879943 -0.359894 0 
0.93426 -0.356593 0 
-0.952721 -0.303845 0 
-0.898929 -0.308871 0 
-0.847481 -0.306888 0 
-0.795641 -0.305781 0 
-0.743684 -0.304815 0 
-0.691387 -0.303722 0 
-0.639219 -0.302427 0 
-0.586897 -0.300977 0 
-0.534146 -0.301574 0 
-0.48291 -0.299695 0 
-0.432968 -0.295416 0 
-0.381507 -0.30136 0 
-0.336232 -0.29839 0 
-0.288184 -0.288184 0 
-0.242975 -0.290577 0 
-0.198059 -0.315051 0 
-0.148383 -0.285894 0 
-0.0994753 -0.313232 0 
-0.0507184 -0.283118 0 
-0.000202902 -0.313447 0 
0.0500077 -0.282824 0 
0.0988289 -0.312817 0 
0.148102 -0.28482 0 
0.195742 -0.317413 0 
0.240766 -0.295824 0 
0.285014 -0.285014 0 
0.332889 -0.295348 0 
0.379789 -0.301746 0 
0.432268 -0.296569 0 
0.483005 -0.299839 0 
0.534348 -0.301273 0 
0.587085 -0.30086 0 
0.639359 -0.302407 0 
0.691518 -0.303753 0 
0.743741 -0.304862 0 
0.795701 -0.305831 0 
0.847482 -0.306946 0 
0.898924 -0.308979 0 
0.952687 -0.303953 0 
-0.96803 -0.250833 0 
-0.916037 -0.258282 0 
-0.866979 -0.254732 0 
-0.816639 -0.25358 0 
-0.765535 -0.252907 0 
-0.71362 -0.252254 0 
-0.661417 -0.251503 0 
-0.608767 -0.250543 0 
-0.555692 -0.250874 0 
-0.503 -0.250032 0 
-0.450633 -0.247004 0 
-0.395692 -0.25021 0 
-0.342529 -0.249846 0 
-0.290577 -0.242975 0 
-0.239946 -0.239946 0 
-0.194478 -0.26004 0 
-0.151293 -0.23238 0 
-0.101048 -0.260904 0 
-0.0503938 -0.232537 0 
-0.000203281 -0.262984 0 
0.050638 -0.232316 0 
0.100942 -0.260855 0 
0.152412 -0.232597 0 
0.195768 -0.261421 0 
0.241873 -0.241873 0 
0.295824 -0.240766 0 
0.345582 -0.24763 0 
0.396905 -0.25086 0 
0.450921 -0.247983 0 
[...]
POINT_DATA 1245 
VECTORS vectors float
0.514641 -0.181998 0.837867 
0.52141 -0.147586 0.840446 
0.528602 -0.110563 0.841639 
0.534966 -0.0788668 0.841185 
0.541489 -0.0457004 0.839465 
0.546973 -0.0178585 0.83696 
0.551955 0.00863872 0.833829 
0.553442 0.0339496 0.832196 
0.554202 0.0587909 0.830303 
0.554146 0.086127 0.827952 
0.55259 0.109928 0.826172 
0.548758 0.135289 0.824962 
0.541642 0.157486 0.825725 
0.500299 -0.245605 0.830288 
0.50775 -0.214974 0.834252 
0.447958 -0.16982 0.877778 
0.456272 -0.140583 0.878665 
0.47009 -0.111597 0.875535 
0.45709 -0.0789755 0.885907 
0.47805 -0.0504989 0.87688 
0.464014 -0.0218649 0.885558 
0.486536 0.00542942 0.873643 
0.4701 0.0305422 0.882085 
0.490084 0.0576045 0.86977 
0.473152 0.0789381 0.877437 
0.490767 0.1054 0.864892 
0.476927 0.125093 0.869995 
0.466954 0.144818 0.872343 
0.530595 0.178544 0.828608 
0.514843 0.199565 0.833733 
0.479079 -0.298856 0.825329 
0.491226 -0.273488 0.826983 
0.434658 -0.224941 0.872052 
0.442012 -0.197662 0.87496 
0.389214 -0.153721 0.90823 
0.397606 -0.127644 0.908635 
0.412908 -0.100973 0.905158 
0.389781 -0.0702934 0.918221 
0.416082 -0.0467577 0.908124 
0.392057 -0.0210936 0.919699 
0.42245 0.00327757 0.90638 
0.396312 0.0239957 0.917802 
0.425749 0.0490332 0.903512 
0.40129 0.0672289 0.913481 
0.42903 0.0929562 0.898494 
0.412794 0.111864 0.903929 
0.400486 0.131215 0.906859 
0.455309 0.164648 0.874977 
0.439463 0.185761 0.878843 
0.493435 0.222156 0.840933 
0.466161 0.248136 0.849189 
0.462877 -0.322373 0.825724 
0.413587 -0.27331 0.868474 
0.425709 -0.249981 0.869644 
0.375595 -0.20414 0.904022 
0.381988 -0.179995 0.906469 
0.335268 -0.140086 0.93165 
0.344528 -0.116466 0.931523 
0.359284 -0.0928798 0.928595 
0.331468 -0.0647384 0.941243 
0.356374 -0.0432657 0.933341 
0.330275 -0.0204206 0.943664 
0.35943 0.000613274 0.933172 
0.333334 0.0197306 0.942602 
0.363193 0.041927 0.93077 
0.339582 0.0587847 0.938738 
0.370325 0.0832567 0.925163 
0.354102 0.101133 0.929722 
0.341627 0.11953 0.932203 
0.388421 0.150957 0.909033 
0.373814 0.172012 0.911414 
0.419588 0.208451 0.883456 
0.394961 0.234735 0.888203 
0.434343 0.278979 0.856456 
0.41745 -0.368958 0.830425 
0.442152 -0.345408 0.827765 
0.397144 -0.295428 0.868907 
0.353676 -0.24962 0.901445 
0.366225 -0.227716 0.902233 
0.32205 -0.186283 0.928214 
0.329402 -0.163141 0.929989 
0.287939 -0.127661 0.949102 
0.296587 -0.106518 0.949047 
0.30949 -0.0852155 0.947077 
0.281837 -0.0597917 0.957597 
0.30257 -0.0404369 0.952269 
0.277979 -0.0201051 0.960377 
0.303191 -0.000941805 0.952929 
0.279869 0.0162997 0.9599 
0.307224 0.0363897 0.950941 
0.28663 0.0524744 0.956603 
0.317096 0.0750959 0.945416 
0.301571 0.091954 0.948999 
0.289782 0.10966 0.95079 
0.329821 0.139139 0.933734 
0.316243 0.160078 0.935075 
0.354837 0.195449 0.91427 
0.333077 0.221107 0.916609 
0.367005 0.264859 0.891716 
0.400331 0.315404 0.860381 
0.367605 0.35578 0.859237 
0.388301 -0.395192 0.832494 
0.359754 -0.342967 0.867727 
0.376935 -0.316728 0.870404 
0.337363 -0.270207 0.901762 
0.301256 -0.22927 0.92557 
0.313471 -0.20761 0.926625 
0.27588 -0.169787 0.946078 
0.282253 -0.148641 0.947755 
0.246035 -0.116163 0.962275 
0.253759 -0.09719 0.962372 
0.264835 -0.0785992 0.961085 
0.238497 -0.0549959 0.969585 
0.25577 -0.037862 0.965996 
0.233306 -0.0191216 0.972215 
0.254808 -0.00199524 0.96699 
0.234403 0.0138311 0.972041 
0.258643 0.032141 0.965438 
0.241196 0.0469321 0.969341 
0.268788 0.06781 0.960809 
0.255893 0.0840368 0.963046 
0.244434 0.101052 0.964386 
0.279418 0.128512 0.95153 
0.267048 0.149607 0.951999 
0.299798 0.18303 0.93628 
0.280324 0.209434 0.936779 
0.309097 0.249495 0.917721 
0.338956 0.297719 0.892453 
0.317566 0.336927 0.886359 
0.337637 0.399619 0.852236 
0.357631 -0.423088 0.832524 
0.333197 -0.367663 0.868218 
0.308653 -0.317591 0.896587 
0.318144 -0.291073 0.902253 
0.285117 -0.250671 0.925134 
0.257128 -0.211933 0.942852 
0.267174 -0.190622 0.944607 
0.235207 -0.155451 0.959433 
0.240844 -0.136033 0.960983 
0.20929 -0.106377 0.97205 
0.215899 -0.089117 0.97234 
0.225629 -0.0719946 0.97155 
0.201292 -0.0508125 0.978212 
0.215813 -0.0353863 0.975793 
0.195639 -0.0181945 0.980507 
0.214046 -0.00284673 0.97682 
0.196088 0.012049 0.980512 
0.217211 0.0286192 0.975705 
0.202164 0.0425363 0.978428 
0.227106 0.0621256 0.971886 
0.215363 0.0769052 0.973501 
0.206393 0.0934185 0.973999 
0.236038 0.119364 0.964385 
0.225608 0.139655 0.964156 
0.25315 0.171976 0.952019 
0.237981 0.197957 0.950883 
0.259872 0.23798 0.935859 
0.285505 0.280545 0.916396 
0.274637 0.316131 0.908095 
0.293355 0.374909 0.879424 
0.313468 0.441471 0.840739 
0.3287 -0.450316 0.830164 
0.304121 -0.385695 0.871062 
0.280781 -0.327413 0.902199 
0.267948 -0.27748 0.92261 
0.245099 -0.235165 0.940544 
0.219797 -0.196861 0.955476 
0.227777 -0.175233 0.957816 
0.199701 -0.143051 0.969359 
0.205393 -0.124048 0.970786 
0.177274 -0.0975134 0.979319 
0.183123 -0.0813283 0.97972 
0.191018 -0.0661295 0.979356 
0.169472 -0.0468717 0.98442 
0.181226 -0.0326927 0.982898 
0.163924 -0.0172464 0.986322 
0.17897 -0.00301608 0.98385 
0.163991 0.0105131 0.986406 
0.181643 0.0257181 0.983028 
0.16907 0.039031 0.984831 
0.190736 0.0565415 0.980012 
0.181047 0.0712637 0.980889 
0.172989 0.0865499 0.981114 
0.198703 0.111159 0.973736 
0.190345 0.13058 0.972994 
0.213882 0.161912 0.963348 
0.203074 0.187247 0.961093 
0.223055 0.227735 0.947831 
0.240808 0.274332 0.930996 
0.251139 0.333354 0.908738 
0.27199 0.401212 0.874672 
0.295614 0.476564 0.827949 
0.301285 -0.476833 0.825746 
0.279757 -0.409269 0.868467 
0.258364 -0.348272 0.901086 
0.240828 -0.29536 0.924535 
0.226396 -0.254335 0.940244 
0.206665 -0.215067 0.954482 
0.185923 -0.17967 0.965998 
0.19322 -0.160927 0.967868 
0.169137 -0.130986 0.97685 
0.173871 -0.114254 0.978118 
0.149842 -0.0902093 0.984586 
0.154262 -0.0753481 0.985153 
0.161131 -0.061035 0.985044 
0.14199 -0.0432965 0.988921 
0.152158 -0.0305436 0.987884 
0.136559 -0.0158523 0.990505 
0.149926 -0.00322187 0.988692 
0.136163 0.00964942 0.990639 
0.151852 0.0234983 0.988124 
0.140733 0.0357892 0.9894 
0.159758 0.0522999 0.98577 
0.151203 0.0661535 0.986287 
0.14506 0.0813399 0.986074 
0.16741 0.103567 0.980432 
0.159782 0.121827 0.979606 
0.180812 0.151093 0.971843 
0.171861 0.172956 0.96982 
0.188994 0.210604 0.959128 
0.205562 0.253572 0.945223 
0.21796 0.300135 0.928661 
0.234938 0.360621 0.902639 
0.257216 0.429909 0.865458 
0.281445 0.5055 0.815634 
0.276252 -0.500798 0.820297 
0.256338 -0.430964 0.865194 
0.236824 -0.36835 0.899017 
0.219025 -0.313709 0.923913 
0.203535 -0.267724 0.941752 
0.189025 -0.229418 0.954797 
0.172422 -0.194154 0.965699 
0.156223 -0.162346 0.974289 
0.161475 -0.147106 0.975851 
0.141577 -0.122583 0.982308 
0.146663 -0.106381 0.98345 
0.126177 -0.0834933 0.988488 
0.129679 -0.0693658 0.989127 
0.135522 -0.0564123 0.989167 
0.118802 -0.0399426 0.992114 
0.127364 -0.0282954 0.991452 
0.11407 -0.0150294 0.993359 
0.125211 -0.0032598 0.992125 
0.113652 0.00860675 0.993483 
0.126679 0.0214786 0.991711 
0.117081 0.0331844 0.992568 
0.133275 0.0487005 0.989882 
0.126468 0.061604 0.990056 
0.121186 0.0762215 0.989699 
0.139997 0.0979577 0.985294 
0.133085 0.115765 0.984321 
0.151111 0.139679 0.978599 
0.144462 0.158045 0.976807 
0.158852 0.19107 0.968637 
0.173021 0.229387 0.957834 
0.186454 0.271841 0.944106 
0.202331 0.323065 0.924495 
0.221276 0.383651 0.896576 
0.244321 0.452524 0.85763 
0.269486 0.52733 0.805792 
0.253444 -0.520938 0.815101 
0.234463 -0.4495 0.861961 
0.215783 -0.385541 0.897104 
0.198273 -0.328837 0.923338 
0.182935 -0.28042 0.942284 
0.168535 -0.23862 0.956377 
0.155174 -0.202131 0.966987 
0.141089 -0.169238 0.975424 
0.132869 -0.138787 0.981368 
0.119795 -0.113657 0.986271 
0.12342 -0.0982102 0.987483 
0.106141 -0.0766789 0.99139 
0.108246 -0.0638057 0.992074 
0.113363 -0.0517955 0.992203 
0.0986259 -0.0374105 0.994421 
0.106098 -0.0261096 0.994013 
0.0942816 -0.0140661 0.995446 
0.103882 -0.00275204 0.994586 
0.0936768 0.00809674 0.99557 
0.104896 0.0202513 0.994277 
0.0967443 0.0311129 0.994823 
0.110919 0.0450941 0.992806 
0.104777 0.0575211 0.992831 
0.101458 0.0707815 0.992319 
0.117325 0.0914882 0.98887 
0.112026 0.108255 0.987791 
0.123793 0.133771 0.98325 
0.130634 0.166343 0.977376 
0.143038 0.202016 0.968881 
0.15636 0.24137 0.957754 
0.170485 0.286811 0.942695 
0.188048 0.339676 0.921552 
0.208475 0.400511 0.892261 
0.23207 0.46833 0.852532 
0.258034 0.542081 0.799729 
0.232335 -0.536721 0.811141 
0.21406 -0.464208 0.85947 
0.195609 -0.398894 0.895891 
0.179222 -0.341522 0.922628 
0.164131 -0.291149 0.942493 
0.150491 -0.247681 0.957082 
0.13832 -0.210187 0.967827 
0.126821 -0.177349 0.975943 
0.118512 -0.148039 0.981855 
0.109556 -0.124754 0.986121 
0.0993795 -0.103585 0.989643 
0.103291 -0.0904901 0.990526 
0.0889202 -0.0739117 0.993293 
0.0894419 -0.0601613 0.994173 
0.0941129 -0.0485389 0.994378 
0.0816906 -0.0347403 0.996052 
0.0881818 -0.0246227 0.9958 
0.078182 -0.0128055 0.996857 
0.0866495 -0.00294721 0.996235 
0.0775809 0.0078169 0.996955 
0.0872059 0.0188215 0.996012 
0.0795364 0.0295548 0.996394 
0.0916866 0.0429059 0.994863 
0.0863878 0.054922 0.994747 
0.083868 0.0686882 0.994107 
0.0972445 0.0851965 0.991607 
0.0925272 0.0982257 0.990853 
0.101868 0.120656 0.987454 
0.109775 0.145573 0.983238 
0.117709 0.176525 0.977233 
0.12861 0.211421 0.968897 
0.141637 0.251624 0.957405 
0.156743 0.297884 0.941646 
0.174396 0.350915 0.920024 
0.195417 0.411011 0.890439 
0.219471 0.477803 0.85061 
0.245679 0.550279 0.798019 
0.212036 -0.548153 0.809054 
0.194369 -0.474894 0.85831 
0.176774 -0.409604 0.894972 
0.160582 -0.350741 0.922602 
0.145993 -0.299843 0.942751 
0.133372 -0.254951 0.957712 
0.12167 -0.216635 0.968641 
0.111595 -0.182899 0.976778 
0.103398 -0.153953 0.982653 
0.0952718 -0.129152 0.987038 
0.0878242 -0.10746 0.990323 
0.0841379 -0.0868818 0.992659 
0.0749773 -0.0692745 0.994776 
0.073524 -0.0562958 0.995703 
0.0776212 -0.0458469 0.995928 
0.0671572 -0.0326736 0.997207 
0.0727549 -0.0231435 0.997081 
0.0636751 -0.0122575 0.997895 
0.0709707 -0.00270129 0.997475 
0.063055 0.00696008 0.997986 
0.0716035 0.0175387 0.997279 
0.0652277 0.0271416 0.997501 
0.0755683 0.0400594 0.996336 
0.070837 0.0513182 0.996167 
0.0698223 0.0637554 0.99552 
0.0782154 0.0819997 0.993558 
0.081651 0.103924 0.991228 
0.0884701 0.126856 0.987968 
0.0959736 0.152461 0.983638 
0.103886 0.183291 0.977554 
0.114721 0.218302 0.969115 
0.127233 0.258538 0.957586 
0.142405 0.304799 0.94171 
0.160211 0.357243 0.920169 
0.181159 0.416411 0.890945 
0.205267 0.481782 0.85191 
0.231135 0.552766 0.800641 
0.191734 -0.555545 0.809078 
0.175666 -0.483005 0.857816 
0.158117 -0.417161 0.894972 
0.14277 -0.358615 0.922503 
0.129182 -0.306388 0.9431 
0.11692 -0.260849 0.958273 
0.106228 -0.22094 0.969485 
0.0966392 -0.186888 0.977616 
0.0891772 -0.15707 0.983553 
0.0819109 -0.132162 0.987838 
0.0749972 -0.110569 0.991035 
0.0719613 -0.0924067 0.993118 
0.0672888 -0.0775236 0.994717 
0.0615216 -0.063001 0.996115 
0.0594055 -0.0517085 0.996894 
0.0633487 -0.0421238 0.997102 
0.0544899 -0.0304778 0.998049 
0.059606 -0.0211628 0.997998 
0.0518232 -0.0115502 0.998589 
0.0584345 -0.00216981 0.998289 
0.051204 0.00697727 0.998664 
0.0583272 0.0168181 0.998156 
0.0525822 0.0260467 0.998277 
0.0613732 0.0374887 0.997411 
0.0576833 0.0472337 0.997217 
0.0569814 0.0582686 0.996673 
0.0619653 0.072765 0.995422 
0.0667028 0.0887906 0.993814 
0.06974 0.108134 0.991687 
0.0758272 0.130482 0.988547 
0.0826263 0.156766 0.984173 
0.0905431 0.186976 0.978183 
0.100773 0.222503 0.96971 
0.112973 0.262684 0.958246 
0.127745 0.308887 0.942481 
0.14486 0.360532 0.92143 
0.165148 0.418276 0.893181 
0.188934 0.481959 0.855581 
0.21319 0.550408 0.807218 
0.170713 -0.559414 0.811119 
0.15676 -0.489272 0.857927 
0.140238 -0.425377 0.894085 
0.125747 -0.367326 0.921553 
0.113068 -0.314894 0.942368 
0.101668 -0.2684 0.957927 
0.0916452 -0.227877 0.969368 
0.0830994 -0.192187 0.977834 
0.0757032 -0.161844 0.983908 
0.0692165 -0.135416 0.988368 
0.0632651 -0.112734 0.991609 
0.0592648 -0.0928415 0.993916 
0.0553849 -0.0758072 0.995583 
0.0508034 -0.0608492 0.996853 
0.0474963 -0.0484652 0.997695 
0.0503804 -0.0391162 0.997964 
0.0429518 -0.0292705 0.998648 
0.0476309 -0.0205335 0.998654 
0.0411496 -0.0106512 0.999096 
0.0464431 -0.002244 0.998918 
0.0405977 0.00701853 0.999151 
0.0464708 0.0161598 0.998789 
0.0414485 0.0259937 0.998802 
0.0483775 0.0355168 0.998197 
0.045452 0.0455028 0.99793 
0.0470231 0.0592623 0.997134 
0.0510414 0.0738571 0.995962 
0.0549905 0.0909784 0.994333 
0.0582001 0.111422 0.992067 
0.063724 0.134641 0.988843 
0.0700927 0.161254 0.984421 
0.0775535 0.19259 0.97821 
0.087169 0.227877 0.96978 
0.0987374 0.268552 0.958191 
0.112008 0.313654 0.942908 
0.128428 0.364543 0.922288 
0.146936 0.419639 0.895719 
0.169623 0.480287 0.860554 
0.190374 0.54411 0.817131 
0.146689 -0.55965 0.815643 
0.138489 -0.498872 0.855539 
0.122662 -0.438144 0.890496 
0.109205 -0.379328 0.918795 
0.0975355 -0.326419 0.940179 
0.0869905 -0.278507 0.956486 
0.0781409 -0.236322 0.968528 
0.0698542 -0.199853 0.977333 
0.0633666 -0.168099 0.983731 
0.0577069 -0.140948 0.988334 
0.0524405 -0.117808 0.991651 
0.0485091 -0.0973901 0.994063 
0.0456807 -0.0799717 0.99575 
0.0417763 -0.0651796 0.996999 
0.0390835 -0.0510263 0.997932 
0.0383131 -0.0384675 0.998525 
0.0337782 -0.027453 0.999052 
0.0377654 -0.0190521 0.999105 
0.0316057 -0.00966006 0.999454 
0.0373006 -0.00184737 0.999302 
0.0311735 0.00612937 0.999495 
0.0367694 0.0156625 0.999201 
0.0324883 0.0243071 0.999177 
0.0366221 0.0357826 0.998688 
0.0365534 0.0488008 0.998139 
0.0383677 0.0630286 0.997274 
0.0413153 0.0786775 0.996044 
0.0443848 0.0962563 0.994366 
0.0477427 0.116739 0.992014 
0.0522799 0.140502 0.988699 
0.0579743 0.167864 0.984104 
0.0649237 0.199247 0.977796 
0.0732237 0.235494 0.969113 
0.0835506 0.276009 0.957517 
0.0957985 0.321813 0.941944 
0.109658 0.371253 0.922034 
0.126822 0.425555 0.896002 
0.147627 0.481802 0.863755 
0.159179 0.534422 0.830093 
0.123996 -0.557472 0.820884 
0.111859 -0.478166 0.871117 
0.0953661 -0.406337 0.908733 
0.0830248 -0.345513 0.934734 
0.0729366 -0.292655 0.953432 
0.064185 -0.247665 0.966717 
0.0570549 -0.208594 0.976337 
0.0510719 -0.175228 0.983202 
0.0459934 -0.146977 0.98807 
0.041385 -0.122546 0.9916 
0.0384354 -0.10159 0.994084 
0.0352763 -0.0841514 0.995828 
0.033029 -0.0686354 0.997095 
0.0307531 -0.0555027 0.997985 
0.0295417 -0.0434547 0.998619 
0.0278853 -0.033609 0.999046 
0.0247827 -0.0240443 0.999404 
0.0284554 -0.0173103 0.999445 
0.0234037 -0.00988727 0.999677 
0.0278299 -0.00152399 0.999612 
0.0229842 0.0070362 0.999711 
0.0278073 0.0143778 0.99951 
0.0235727 0.021427 0.999492 
0.0264691 0.0311484 0.999164 
0.0277448 0.0409818 0.998775 
0.0279195 0.0530988 0.998199 
0.0293649 0.0670787 0.997315 
0.0316076 0.0824761 0.996092 
0.0340719 0.100755 0.994328 
0.0366732 0.122134 0.991836 
0.0407916 0.146484 0.988372 
0.0453215 0.174993 0.983526 
0.0511418 0.207775 0.976839 
0.0585356 0.245214 0.9677 
0.0670133 0.288081 0.955258 
0.0779279 0.3368 0.938346 
0.0918342 0.392506 0.915153 
0.111061 0.456551 0.882738 
0.125542 0.525705 0.841352 
0.0975747 -0.5532 0.827314 
0.0917697 -0.491031 0.866295 
0.0788761 -0.426544 0.901021 
0.0674478 -0.36489 0.928605 
0.0579343 -0.309679 0.949075 
0.0504254 -0.261848 0.963791 
0.0440066 -0.220571 0.974378 
0.0386037 -0.185725 0.981843 
0.0343257 -0.155717 0.987205 
0.0309518 -0.130276 0.990994 
0.0278843 -0.108918 0.99366 
0.0256804 -0.0900135 0.995609 
0.0240287 -0.0744162 0.996938 
0.0220287 -0.060565 0.997921 
0.0212748 -0.048235 0.998609 
0.0199539 -0.0376534 0.999092 
0.0183683 -0.027971 0.99944 
0.0187694 -0.0177581 0.999666 
0.0156964 -0.00903708 0.999836 
0.0200292 -0.00145145 0.999798 
0.0154034 0.00666238 0.999859 
0.0180906 0.0151116 0.999722 
0.0175075 0.0258835 0.999512 
0.0182224 0.035488 0.999204 
0.0191702 0.0465306 0.998733 
0.0194018 0.0591079 0.998063 
0.0206349 0.0734583 0.997085 
0.0220961 0.0899597 0.9957 
0.0237917 0.108646 0.993796 
0.0259443 0.130715 0.99108 
0.0286468 0.156265 0.9873 
0.0323479 0.185555 0.982101 
0.0364771 0.219717 0.974881 
0.0419194 0.258848 0.965008 
0.0486208 0.303283 0.951659 
0.0566068 0.353622 0.933674 
0.0671413 0.408221 0.910411 
0.0811584 0.465087 0.881537 
0.0827602 0.517766 0.85151 
0.0728113 -0.54851 0.832968 
0.0631237 -0.465914 0.882575 
0.0513823 -0.393969 0.917687 
0.0424786 -0.331679 0.942436 
0.0354588 -0.279375 0.959527 
0.0297345 -0.235085 0.97152 
0.0254749 -0.197491 0.979974 
0.0221284 -0.165445 0.985971 
0.0191182 -0.13892 0.990119 
0.0171225 -0.115395 0.993172 
0.0156622 -0.0961143 0.995247 
0.0141834 -0.0793224 0.996748 
0.0132769 -0.064779 0.997811 
0.0127084 -0.052285 0.998551 
0.011989 -0.0410908 0.999083 
0.0109356 -0.031601 0.999441 
0.0114052 -0.0222284 0.999688 
0.010766 -0.0145321 0.999836 
0.00854479 -0.00622415 0.999944 
0.0127457 -0.00121658 0.999918 
0.00827829 0.00393975 0.999958 
0.0103995 0.0123481 0.99987 
0.0104989 0.0203321 0.999738 
0.00973188 0.0295075 0.999517 
0.0105919 0.0398545 0.999149 
0.0104574 0.0509773 0.998645 
0.0107477 0.0641593 0.997882 
0.0112211 0.0792836 0.996789 
0.0120585 0.0963505 0.995274 
0.0127825 0.116613 0.993095 
0.0139833 0.139778 0.990084 
0.0156015 0.166916 0.985848 
0.0173876 0.198349 0.979977 
0.0200908 0.234504 0.971908 
0.0229156 0.276594 0.960714 
0.0267738 0.324806 0.945402 
0.0321569 0.380713 0.924134 
0.0389742 0.44358 0.895387 
0.0420081 0.514528 0.856444 
0.0468432 -0.542265 0.838901 
0.0387911 -0.478373 0.8773 
0.0312973 -0.414696 0.909421 
0.0241681 -0.353422 0.935152 
0.0184766 -0.29892 0.954099 
0.0142509 -0.252046 0.96761 
0.0109861 -0.212175 0.97717 
0.00830678 -0.178773 0.983855 
0.00680199 -0.150015 0.98866 
0.00566876 -0.125637 0.99206 
0.00454946 -0.105316 0.994428 
0.00431775 -0.0871446 0.996186 
0.00396875 -0.0722688 0.997377 
0.00371626 -0.0585409 0.998278 
0.00362699 -0.0472458 0.998877 
0.00355589 -0.0368954 0.999313 
0.00351557 -0.0269657 0.99963 
0.0034801 -0.0191721 0.99981 
0.00298984 -0.0112655 0.999932 
0.00256564 -0.000797637 0.999996 
0.00284252 0.009397 0.999952 
0.00288697 0.0172121 0.999848 
0.00278106 0.025692 0.999666 
0.0024354 0.0357424 0.999358 
0.00199936 0.0461793 0.998931 
0.00186772 0.0585422 0.998283 
0.00159063 0.0722899 0.997382 
0.00133907 0.088357 0.996088 
0.0011368 0.10656 0.994306 
0.00113912 0.128005 0.991773 
0.000766937 0.152781 0.98826 
0.00099085 0.181399 0.983409 
0.000829213 0.214877 0.976641 
0.000905916 0.253463 0.967345 
0.00109623 0.297875 0.954604 
0.00081158 0.348274 0.937392 
0.000684632 0.403559 0.914953 
9.44721e-05 0.4591 0.888385 
-0.000862149 0.514591 0.857436 
0.01879 -0.532716 0.846085 
0.00767423 -0.450795 0.892594 
0.00312262 -0.381181 0.924495 
-0.000779942 -0.321662 0.946854 
-0.00383203 -0.271131 0.962535 
-0.00594335 -0.228791 0.973457 
-0.00680305 -0.192533 0.981267 
-0.00735407 -0.161782 0.986799 
-0.00769459 -0.136106 0.990664 
-0.00712478 -0.113278 0.993538 
-0.00691001 -0.0946393 0.995488 
-0.00644732 -0.078012 0.996932 
-0.0056223 -0.064087 0.997928 
-0.00528042 -0.0513208 0.998668 
-0.00498424 -0.0406649 0.99916 
-0.00407871 -0.0310305 0.99951 
-0.00457373 -0.0221681 0.999744 
-0.00393304 -0.0138895 0.999896 
-0.00099545 -0.00617448 0.99998 
-0.00640522 -0.0005707 0.999979 
-0.00120573 0.00397846 0.999991 
-0.00417595 0.0127982 0.999909 
-0.0050205 0.0204175 0.999779 
-0.00479819 0.0299053 0.999541 
-0.00589335 0.0399641 0.999184 
-0.00655473 0.0514812 0.998652 
-0.00746385 0.0642747 0.997904 
-0.00837787 0.0793462 0.996812 
-0.00943671 0.0965275 0.995286 
-0.0107339 0.116484 0.993135 
-0.0121756 0.139628 0.990129 
-0.0137501 0.16669 0.985913 
-0.0159618 0.197932 0.980086 
-0.0179692 0.234202 0.972022 
-0.0212072 0.276188 0.96087 
-0.0245796 0.324883 0.945435 
-0.0302932 0.380701 0.924202 
-0.0379457 0.444792 0.89483 
-0.0428259 0.516308 0.855332 
-0.0116571 -0.522578 0.852512 