# vtk DataFile Version 3.0 
Exported using Morpho https://github.com/Morpho-lang/morpho 
ASCII 
DATASET UNSTRUCTURED_GRID 

POINTS 1245 float 
-0.303845 -0.952721 0 
-0.250833 -0.96803 0 
-0.195084 -0.980787 0 
-0.146308 -0.989239 0 
-0.0940719 -0.995565 0 
-0.0475118 -0.998871 0 
-0.000246339 -1 0 
0.0470875 -0.998891 0 
0.0937543 -0.995595 0 
0.146139 -0.989264 0 
0.195062 -0.980791 0 
0.250843 -0.968028 0 
0.303953 -0.952687 0 
-0.409153 -0.912466 0 
-0.356519 -0.934288 0 
-0.308871 -0.898929 0 
-0.258282 -0.916037 0 
-0.207345 -0.934859 0 
-0.154868 -0.930629 0 
-0.104343 -0.948989 0 
-0.0520099 -0.939193 0 
-8.5762e-05 -0.954582 0 
0.0518744 -0.939288 0 
0.104354 -0.949042 0 
0.154696 -0.9306 0 
0.207366 -0.934975 0 
0.258274 -0.916081 0 
0.308979 -0.898924 0 
0.356593 -0.93426 0 
0.409236 -0.912429 0 
-0.513788 -0.857917 0 
-0.461695 -0.887039 0 
-0.411157 -0.857936 0 
-0.359855 -0.879963 0 
-0.306888 -0.847481 0 
-0.254732 -0.866979 0 
-0.201991 -0.889059 0 
-0.149956 -0.874108 0 
-0.100608 -0.900088 0 
-0.0497575 -0.880388 0 
2.4595e-05 -0.904789 0 
0.0496869 -0.8804 0 
0.100612 -0.900177 0 
0.149872 -0.874171 0 
0.202071 -0.889165 0 
0.254695 -0.867031 0 
0.306946 -0.847482 0 
0.359894 -0.879943 0 
0.411236 -0.857929 0 
0.461748 -0.887011 0 
0.513842 -0.857885 0 
-0.564741 -0.825268 0 
-0.512908 -0.802945 0 
-0.462372 -0.832348 0 
-0.410124 -0.804631 0 
-0.358606 -0.827415 0 
-0.305781 -0.795641 0 
-0.25358 -0.816639 0 
-0.200756 -0.839997 0 
-0.149043 -0.818944 0 
-0.0987265 -0.846667 0 
-0.0490473 -0.822548 0 
5.00659e-05 -0.849932 0 
0.0490834 -0.822542 0 
0.0987838 -0.846676 0 
0.148997 -0.818924 0 
0.200826 -0.840131 0 
0.253508 -0.816728 0 
0.305831 -0.795701 0 
0.358581 -0.827419 0 
0.410181 -0.804654 0 
0.462414 -0.83234 0 
0.512965 -0.802929 0 
0.564777 -0.825243 0 
-0.660798 -0.750564 0 
-0.614015 -0.789295 0 
-0.561786 -0.769772 0 
-0.510673 -0.747856 0 
-0.460836 -0.778365 0 
-0.408794 -0.751554 0 
-0.357337 -0.774971 0 
-0.304815 -0.743684 0 
-0.252907 -0.765535 0 
-0.200631 -0.789263 0 
-0.149244 -0.764328 0 
-0.0986912 -0.791935 0 
-0.0492815 -0.765764 0 
4.16586e-05 -0.79382 0 
0.0492411 -0.765708 0 
0.0987508 -0.791951 0 
0.149196 -0.764326 0 
0.200666 -0.789356 0 
0.252841 -0.765599 0 
0.304862 -0.743741 0 
0.357323 -0.775038 0 
0.408863 -0.751626 0 
0.460863 -0.778382 0 
0.510716 -0.747859 0 
0.561819 -0.769761 0 
0.614041 -0.789274 0 
0.660811 -0.750552 0 
-0.707107 -0.707107 0 
-0.654819 -0.699058 0 
-0.60813 -0.73348 0 
-0.558104 -0.71337 0 
-0.509495 -0.692659 0 
-0.45935 -0.724356 0 
-0.407328 -0.698865 0 
-0.355968 -0.722823 0 
-0.303722 -0.691387 0 
-0.252254 -0.71362 0 
-0.20067 -0.737336 0 
-0.149608 -0.710068 0 
-0.0991558 -0.737129 0 
-0.0495872 -0.709825 0 
-2.23646e-05 -0.737917 0 
0.0494408 -0.709766 0 
0.0991291 -0.737116 0 
0.149502 -0.710042 0 
0.200696 -0.73743 0 
0.252186 -0.713735 0 
0.303753 -0.691518 0 
0.355952 -0.722893 0 
0.407371 -0.698945 0 
0.459374 -0.724407 0 
0.509524 -0.692668 0 
0.558131 -0.713361 0 
0.608151 -0.733462 0 
0.654824 -0.699048 0 
0.707107 -0.707107 0 
-0.750564 -0.660798 0 
-0.699058 -0.654819 0 
-0.647692 -0.647692 0 
-0.603437 -0.675718 0 
-0.55905 -0.655305 0 
-0.508501 -0.639581 0 
-0.457509 -0.671321 0 
-0.405555 -0.646545 0 
-0.354417 -0.670703 0 
-0.302427 -0.639219 0 
-0.251503 -0.661417 0 
-0.20061 -0.684911 0 
-0.149717 -0.655943 0 
-0.0995004 -0.682466 0 
-0.0498216 -0.654561 0 
-5.02113e-05 -0.682664 0 
0.0496787 -0.654499 0 
0.0994374 -0.682501 0 
0.149603 -0.655909 0 
0.200573 -0.684972 0 
0.251388 -0.661524 0 
0.302407 -0.639359 0 
0.354397 -0.670836 0 
0.405575 -0.646641 0 
0.457525 -0.67138 0 
0.508497 -0.639623 0 
0.559063 -0.655324 0 
0.603436 -0.675715 0 
0.64769 -0.64769 0 
0.699048 -0.654824 0 
0.750552 -0.660811 0 
-0.789295 -0.614015 0 
-0.73348 -0.60813 0 
-0.675718 -0.603437 0 
-0.613088 -0.613088 0 
-0.55962 -0.604068 0 
-0.506189 -0.588854 0 
-0.455505 -0.618874 0 
-0.403019 -0.594688 0 
-0.352514 -0.618952 0 
-0.300977 -0.586897 0 
-0.250543 -0.608767 0 
-0.200257 -0.632053 0 
-0.150049 -0.601979 0 
-0.0998281 -0.628222 0 
-0.0500377 -0.599914 0 
-3.12334e-05 -0.628076 0 
0.0498927 -0.599835 0 
0.0997818 -0.628253 0 
0.149924 -0.601867 0 
0.200214 -0.632118 0 
0.250423 -0.608915 0 
0.30086 -0.587085 0 
0.352457 -0.619096 0 
0.402948 -0.594743 0 
0.455483 -0.618952 0 
0.506147 -0.588901 0 
0.55964 -0.604067 0 
0.613069 -0.613069 0 
0.675715 -0.603436 0 
0.733462 -0.608151 0 
0.789274 -0.614041 0 
-0.825268 -0.564741 0 
-0.769772 -0.561786 0 
-0.71337 -0.558104 0 
-0.655305 -0.55905 0 
-0.604068 -0.55962 0 
-0.551031 -0.551031 0 
-0.497922 -0.537596 0 
-0.451508 -0.567021 0 
-0.399773 -0.542431 0 
-0.350494 -0.567003 0 
-0.301574 -0.534146 0 
-0.250874 -0.555692 0 
-0.200542 -0.579013 0 
-0.150324 -0.548268 0 
-0.100169 -0.57443 0 
-0.0500152 -0.545912 0 
-3.29278e-05 -0.574268 0 
0.0499208 -0.545788 0 
0.100058 -0.574485 0 
0.150038 -0.548073 0 
0.200377 -0.579041 0 
0.250556 -0.55585 0 
0.301273 -0.534348 0 
0.350318 -0.567174 0 
0.399615 -0.542384 0 
0.451404 -0.5671 0 
0.497945 -0.537702 0 
0.551073 -0.551073 0 
0.604067 -0.55964 0 
0.655324 -0.559063 0 
0.713361 -0.558131 0 
0.769761 -0.561819 0 
0.825243 -0.564777 0 
-0.857917 -0.513788 0 
-0.802945 -0.512908 0 
-0.747856 -0.510673 0 
-0.692659 -0.509495 0 
-0.639581 -0.508501 0 
-0.588854 -0.506189 0 
-0.537596 -0.497922 0 
-0.486157 -0.486157 0 
-0.444928 -0.512952 0 
-0.401787 -0.486784 0 
-0.351685 -0.513639 0 
-0.299695 -0.48291 0 
-0.250032 -0.503 0 
-0.200501 -0.526165 0 
-0.149489 -0.495195 0 
-0.0999281 -0.521367 0 
-0.0499712 -0.492294 0 
4.64723e-05 -0.520999 0 
0.050147 -0.492108 0 
0.099934 -0.52133 0 
0.14957 -0.494692 0 
0.200133 -0.526255 0 
0.249839 -0.503309 0 
0.299839 -0.483005 0 
0.351514 -0.513798 0 
0.401881 -0.486608 0 
0.444935 -0.513054 0 
0.486228 -0.486228 0 
0.537702 -0.497945 0 
0.588901 -0.506147 0 
0.639623 -0.508497 0 
0.692668 -0.509524 0 
0.747859 -0.510716 0 
0.802929 -0.512965 0 
0.857885 -0.513842 0 
-0.887039 -0.461695 0 
-0.832348 -0.462372 0 
-0.778365 -0.460836 0 
-0.724356 -0.45935 0 
-0.671321 -0.457509 0 
-0.618874 -0.455505 0 
-0.567021 -0.451508 0 
-0.512952 -0.444928 0 
-0.450685 -0.450685 0 
-0.397667 -0.437543 0 
-0.348492 -0.462546 0 
-0.295416 -0.432968 0 
-0.247004 -0.450633 0 
-0.198702 -0.473818 0 
-0.150161 -0.441625 0 
-0.100085 -0.468395 0 
-0.0502271 -0.439281 0 
0.000144229 -0.468374 0 
0.0504178 -0.439106 0 
0.100428 -0.468348 0 
0.150697 -0.441105 0 
0.199103 -0.473881 0 
0.247983 -0.450921 0 
0.296569 -0.432268 0 
0.348831 -0.462562 0 
0.397506 -0.4368 0 
0.450637 -0.450637 0 
0.513054 -0.444935 0 
0.5671 -0.451404 0 
0.618952 -0.455483 0 
0.67138 -0.457525 0 
0.724407 -0.459374 0 
0.778382 -0.460863 0 
0.83234 -0.462414 0 
0.887011 -0.461748 0 
-0.912466 -0.409153 0 
-0.857936 -0.411157 0 
-0.804631 -0.410124 0 
-0.751554 -0.408794 0 
-0.698865 -0.407328 0 
-0.646545 -0.405555 0 
-0.594688 -0.403019 0 
-0.542431 -0.399773 0 
-0.486784 -0.401787 0 
-0.437543 -0.397667 0 
-0.387256 -0.387256 0 
-0.344215 -0.411459 0 
-0.30136 -0.381507 0 
-0.25021 -0.395692 0 
-0.200211 -0.419975 0 
-0.150955 -0.389014 0 
-0.100617 -0.416095 0 
-0.0503197 -0.386922 0 
-4.02994e-05 -0.416525 0 
0.05006 -0.386948 0 
0.100784 -0.416323 0 
0.150432 -0.388572 0 
0.200855 -0.420694 0 
0.25086 -0.396905 0 
0.301746 -0.379789 0 
0.344135 -0.410678 0 
0.385823 -0.385823 0 
0.4368 -0.397506 0 
0.486608 -0.401881 0 
0.542384 -0.399615 0 
0.594743 -0.402948 0 
0.646641 -0.405575 0 
0.698945 -0.407371 0 
0.751626 -0.408863 0 
0.804654 -0.410181 0 
0.857929 -0.411236 0 
0.912429 -0.409236 0 
-0.934288 -0.356519 0 
-0.879963 -0.359855 0 
-0.827415 -0.358606 0 
-0.774971 -0.357337 0 
-0.722823 -0.355968 0 
-0.670703 -0.354417 0 
-0.618952 -0.352514 0 
-0.567003 -0.350494 0 
-0.513639 -0.351685 0 
-0.462546 -0.348492 0 
-0.411459 -0.344215 0 
-0.351697 -0.351697 0 
-0.29839 -0.336232 0 
-0.249846 -0.342529 0 
-0.200971 -0.367271 0 
-0.149995 -0.337521 0 
-0.100435 -0.3646 0 
-0.0498692 -0.335025 0 
-6.88684e-05 -0.365025 0 
0.0495433 -0.334795 0 
0.0996798 -0.364834 0 
0.148162 -0.337172 0 
0.199644 -0.368939 0 
0.24763 -0.345582 0 
0.295348 -0.332889 0 
0.34978 -0.34978 0 
0.410678 -0.344135 0 
0.462562 -0.348831 0 
0.513798 -0.351514 0 
0.567174 -0.350318 0 
0.619096 -0.352457 0 
0.670836 -0.354397 0 
0.722893 -0.355952 0 
0.775038 -0.357323 0 
0.827419 -0.358581 0 
0.879943 -0.359894 0 
0.93426 -0.356593 0 
-0.952721 -0.303845 0 
-0.898929 -0.308871 0 
-0.847481 -0.306888 0 
-0.795641 -0.305781 0 
-0.743684 -0.304815 0 
-0.691387 -0.303722 0 
-0.639219 -0.302427 0 
-0.586897 -0.300977 0 
-0.534146 -0.301574 0 
-0.48291 -0.299695 0 
-0.432968 -0.295416 0 
-0.381507 -0.30136 0 
-0.336232 -0.29839 0 
-0.288184 -0.288184 0 
-0.242975 -0.290577 0 
-0.198059 -0.315051 0 
-0.148383 -0.285894 0 
-0.0994753 -0.313232 0 
-0.0507184 -0.283118 0 
-0.000202902 -0.313447 0 
0.0500077 -0.282824 0 
0.0988289 -0.312817 0 
0.148102 -0.28482 0 
0.195742 -0.317413 0 
0.240766 -0.295824 0 
0.285014 -0.285014 0 
0.332889 -0.295348 0 
0.379789 -0.301746 0 
0.432268 -0.296569 0 
0.483005 -0.299839 0 
0.534348 -0.301273 0 
0.587085 -0.30086 0 
0.639359 -0.302407 0 
0.691518 -0.303753 0 
0.743741 -0.304862 0 
0.795701 -0.305831 0 
0.847482 -0.306946 0 
0.898924 -0.308979 0 
0.952687 -0.303953 0 
-0.96803 -0.250833 0 
-0.916037 -0.258282 0 
-0.866979 -0.254732 0 
-0.816639 -0.25358 0 
-0.765535 -0.252907 0 
-0.71362 -0.252254 0 
-0.661417 -0.251503 0 
-0.608767 -0.250543 0 
-0.555692 -0.250874 0 
-0.503 -0.250032 0 
-0.450633 -0.247004 0 
-0.395692 -0.25021 0 
-0.342529 -0.249846 0 
-0.290577 -0.242975 0 
-0.239946 -0.239946 0 
-0.194478 -0.26004 0 
-0.151293 -0.23238 0 
-0.101048 -0.260904 0 
-0.0503938 -0.232537 0 
-0.000203281 -0.262984 0 
0.050638 -0.232316 0 
0.100942 -0.260855 0 
0.152412 -0.232597 0 
0.195768 -0.261421 0 
0.241873 -0.241873 0 
0.295824 -0.240766 0 
0.345582 -0.24763 0 
0.396905 -0.25086 0 
0.450921 -0.247983 0 
[...]
POINT_DATA 1245 
VECTORS vectors float
0.122543 -0.0266693 0.992105 
0.00137874 -0.105532 0.994415 
-0.0760906 0.0402306 0.996289 
0.0314638 0.158599 0.986842 
0.191686 0.163486 0.967744 
0.219824 0.0388472 0.974766 
0.218266 -0.0894899 0.971778 
0.130997 -0.118881 0.984229 
0.0630681 -0.0330254 0.997463 
0.0727792 0.0195774 0.997156 
0.116651 0.104049 0.987708 
0.174959 0.0266891 0.984214 
0.121251 0.110096 0.986497 
-0.0234567 -0.0391071 0.99896 
0.086253 0.0270693 0.995905 
-0.0104431 -0.0153981 0.999827 
-0.0497225 -0.0436415 0.997809 
-0.078604 -0.00936639 0.996862 
-0.0507616 0.0434731 0.997764 
0.0293673 0.0781994 0.996505 
0.0387194 -0.0139214 0.999153 
0.0824546 -0.0855874 0.992913 
0.0351899 -0.0735464 0.996671 
0.0160115 -0.0195671 0.99968 
0.0147237 0.00837296 0.999857 
0.0665307 0.0380758 0.997058 
0.0944447 0.0358605 0.994884 
0.105604 0.055961 0.992832 
0.224382 0.0849943 0.970788 
0.234475 0.0906107 0.96789 
0.232428 -0.172641 0.957169 
0.0309719 -0.174414 0.984185 
-0.0211401 -0.0463257 0.998703 
-0.0141707 -0.00907887 0.999858 
-0.0487253 -0.0164881 0.998676 
-0.0703219 -0.0394811 0.996743 
-0.0849382 -0.0166034 0.996248 
-0.0608026 0.00869704 0.998112 
-0.0263899 0.0190836 0.99947 
0.0082863 -0.0345331 0.999369 
0.0295607 -0.0796705 0.996383 
0.0101013 -0.0512238 0.998636 
-0.00868036 -0.0232428 0.999692 
-0.0108611 -0.0202128 0.999737 
0.0182027 -0.00208825 0.999832 
0.0512898 0.00913451 0.998642 
0.0561996 0.0294545 0.997985 
0.119932 0.0558185 0.991212 
0.100055 0.0335594 0.994416 
0.172363 -0.0226262 0.984774 
0.0990411 -0.0453371 0.99405 
0.256199 -0.0542742 0.965099 
0.127279 -0.0583009 0.990152 
0.0503979 -0.0773454 0.99573 
-0.0322514 -0.0232146 0.99921 
-0.0436898 -0.00695149 0.999021 
-0.0230721 -0.0105067 0.999679 
-0.0237131 -0.0295195 0.999283 
-0.0462224 -0.0170336 0.998786 
-0.0292784 0.00424954 0.999562 
-0.0250064 -9.64305e-05 0.999687 
-0.000333854 -0.0209726 0.99978 
0.0220936 -0.0469828 0.998651 
0.00322443 -0.0208208 0.999778 
-0.00307037 -0.0197572 0.9998 
0.0088771 -0.0253599 0.999639 
0.0136845 -0.0259768 0.999569 
0.0432109 -0.00655263 0.999044 
0.0388644 0.013089 0.999159 
0.0405215 0.0301309 0.998724 
0.0275465 -0.00134952 0.99962 
0.0672643 -0.0299726 0.997285 
-0.00104246 -0.0311846 0.999513 
-0.0422425 -0.0372033 0.998414 
0.0676821 0.0233965 0.997433 
0.141691 0.0558758 0.988333 
0.108816 -0.00396723 0.994054 
0.0541779 -0.00990262 0.998482 
0.0165175 -0.0261628 0.999521 
-0.025176 -0.0200746 0.999481 
-0.030125 -0.01026 0.999493 
0.0195997 -0.0270819 0.999441 
0.0272966 -0.025496 0.999302 
0.0119324 -0.007772 0.999899 
-0.00184038 0.00269562 0.999995 
-0.0291417 -0.00385211 0.999568 
-0.0290262 -0.0219013 0.999339 
-0.00751146 -0.0186012 0.999799 
-0.0199889 -0.0119034 0.999729 
-0.00250418 -0.0126897 0.999916 
0.0138204 -0.00912475 0.999863 
0.0397726 -0.0209842 0.998988 
0.0614098 -0.0046602 0.998102 
0.0398238 0.00730504 0.99918 
0.00820985 0.00864104 0.999929 
-0.0134673 -0.0165528 0.999772 
0.00295552 -0.0405599 0.999173 
-0.0677855 -0.0104736 0.997645 
-0.094613 0.0225456 0.995259 
-0.106638 0.0545775 0.992799 
-0.254809 0.0602864 0.96511 
0.0901364 -0.0302547 0.99547 
0.0476479 0.0220528 0.998621 
0.060337 0.0287606 0.997764 
0.0441373 0.00395711 0.999018 
0.0157815 0.00410413 0.999867 
0.00240016 -0.00352659 0.999991 
0.00379701 -0.0280435 0.999599 
0.0130375 -0.036915 0.999233 
0.037822 -0.0579168 0.997605 
0.0324753 -0.0448999 0.998463 
0.0302447 -0.0159472 0.999415 
0.00197163 -0.0233873 0.999725 
-0.0243331 -0.0243936 0.999406 
-0.00871416 -0.0578677 0.998286 
-0.0196862 -0.0285779 0.999398 
-0.0212639 -0.0213424 0.999546 
-0.0246044 -0.00652014 0.999676 
-0.0105036 0.0067725 0.999922 
0.04509 -0.00311324 0.998978 
0.0587409 0.00116412 0.998273 
0.0347277 0.00598465 0.999379 
-0.00307799 0.00379185 0.999988 
-0.0273102 -0.00460976 0.999616 
-0.050293 -0.0303825 0.998272 
-0.111217 -0.00400721 0.993788 
-0.145267 0.0290514 0.988966 
-0.180137 0.0555678 0.982071 
-0.221339 0.10434 0.969599 
-0.218754 0.287906 0.932339 
0.0404057 -0.0421426 0.998294 
0.0382971 -0.0112185 0.999203 
0.0144214 0.0197662 0.999701 
0.0193314 0.0142077 0.999712 
-0.00622955 -0.00469755 0.99997 
-0.0266525 -0.0102394 0.999592 
-0.00696327 -0.000455751 0.999976 
0.00931136 -0.0356779 0.99932 
0.0380252 -0.0616489 0.997373 
0.03285 -0.0707503 0.996953 
0.0109893 -0.0654883 0.997793 
0.00658159 -0.0443244 0.998996 
-0.0025501 -0.0480197 0.998843 
-0.000991233 -0.0598162 0.998209 
0.0168985 -0.0753082 0.997017 
0.00914776 -0.0537587 0.998512 
-0.0141924 -0.0215997 0.999666 
-0.0348039 -0.00206516 0.999392 
-0.0211096 0.00983115 0.999729 
0.0236519 0.00491816 0.999708 
0.0406702 -0.00305061 0.999168 
0.036568 -0.000241771 0.999331 
0.011943 0.00974978 0.999881 
0.00844263 0.0105394 0.999909 
-0.0546145 -0.0124089 0.99843 
-0.077654 -0.00833104 0.996946 
-0.13091 0.00979734 0.991346 
-0.178889 0.0389552 0.983098 
-0.18075 0.0621748 0.981562 
-0.150532 0.165774 0.974607 
-0.0178474 0.290876 0.956594 
-0.0441778 -0.0829965 0.99557 
0.0140471 -0.0362657 0.999243 
0.0228193 -0.00626962 0.99972 
-0.0151271 0.0112643 0.999822 
-0.0391435 -0.0184759 0.999063 
-0.0469716 -0.041459 0.998035 
-0.0289734 -0.0194229 0.999391 
0.00612242 -0.0488792 0.998786 
0.037274 -0.0677682 0.997005 
0.040863 -0.057851 0.997489 
0.0160049 -0.0572889 0.998229 
-0.00304174 -0.0559191 0.998431 
0.00349352 -0.0334103 0.999436 
0.00428261 -0.0527536 0.998598 
-0.00852129 -0.0321204 0.999448 
-0.000152463 -0.0387092 0.999251 
-0.0396609 -0.0119693 0.999142 
-0.0355299 -0.00459888 0.999358 
-0.0126152 0.0047438 0.999909 
0.0144669 0.00320729 0.99989 
0.0294839 -0.00658034 0.999544 
0.0289445 -0.000724847 0.999581 
0.0401772 0.012124 0.999119 
0.0408334 0.010905 0.999106 
-0.00663612 -0.00516127 0.999965 
-0.0285573 -0.0103064 0.999539 
-0.0719481 0.00150602 0.997407 
-0.126278 0.0218169 0.991755 
-0.151813 0.0663655 0.986179 
-0.0755408 0.147789 0.98613 
0.066049 0.234476 0.969876 
0.0249674 -0.175732 0.984121 
0.00151682 -0.063344 0.997991 
0.0282106 -0.0435387 0.998653 
0.0228729 -0.0273147 0.999365 
-0.00829715 -0.0220982 0.999721 
-0.0276262 -0.0548224 0.998114 
-0.0215807 -0.0745481 0.996984 
-0.0214927 -0.0516494 0.998434 
0.022731 -0.067946 0.99743 
0.0423696 -0.0672231 0.996838 
0.0370262 -0.0361262 0.998661 
0.0319029 -0.0261926 0.999148 
0.0161591 -0.0350292 0.999256 
0.020253 -0.0100152 0.999745 
-0.0020797 -0.0111675 0.999935 
-0.0328508 0.00912296 0.999419 
-0.0447498 -0.000456154 0.998998 
-0.0590955 -0.0123081 0.998176 
-0.0392657 -0.0187728 0.999052 
0.00244609 0.00182809 0.999995 
0.020436 0.0128663 0.999708 
0.0219188 0.0126133 0.99968 
0.0182354 0.0193121 0.999647 
0.0384348 0.0150764 0.999147 
0.0277833 0.00160762 0.999613 
0.00793254 -0.0136206 0.999876 
-0.0378362 -0.0163062 0.999151 
-0.0425223 0.0056273 0.99908 
-0.0767967 0.0198189 0.99685 
-0.12311 0.0364093 0.991725 
-0.123754 0.068096 0.989974 
-0.0638771 0.138131 0.988352 
-0.0435012 0.179225 0.982846 
0.0818562 -0.243161 0.966526 
0.00752538 -0.112922 0.993575 
-0.0138839 -0.0683535 0.997565 
0.0125074 -0.0837868 0.996405 
0.0114038 -0.0798197 0.996744 
-0.00841649 -0.0792325 0.996821 
-0.0152083 -0.0929771 0.995552 
0.00404019 -0.0867634 0.996221 
0.0123636 -0.0762389 0.997013 
0.0316164 -0.0748444 0.996694 
0.032972 -0.0647878 0.997354 
0.0078972 -0.00858634 0.999932 
0.0208223 0.0052695 0.999769 
0.0293196 -0.00940509 0.999526 
0.0297634 -0.00836099 0.999522 
0.00486291 0.00415298 0.99998 
-0.0283383 0.00962543 0.999552 
-0.0593003 0.0133671 0.998151 
-0.0446587 -0.0144332 0.998898 
-0.0261845 -0.031505 0.999161 
0.0214303 0.00311587 0.999765 
0.0308364 0.0354395 0.998896 
0.0268935 0.0427468 0.998724 
0.02773 0.0362018 0.99896 
0.0302465 0.0233983 0.999269 
0.0165767 -0.0127091 0.999782 
-0.0203643 -0.0292471 0.999365 
-0.0665981 -0.0317858 0.997273 
-0.0735251 -0.00314494 0.997288 
-0.0686527 0.0135901 0.997548 
-0.0878895 0.020706 0.995915 
-0.105745 0.032771 0.993853 
-0.0944113 0.0804837 0.992275 
-0.0774221 0.1704 0.982329 
-0.0976484 0.297812 0.949617 
0.130954 -0.249882 0.95938 
0.0309182 -0.152405 0.987834 
-0.0396173 -0.0921716 0.994955 
-0.0401177 -0.105739 0.993584 
-0.0192197 -0.128637 0.991506 
-0.0250364 -0.120191 0.992435 
-0.0329635 -0.108478 0.993552 
-0.0113006 -0.0913309 0.995756 
0.0329372 -0.0752461 0.996621 
0.0443084 -0.0536634 0.997576 
0.0149419 -0.039627 0.999103 
0.00740008 0.0207722 0.999757 
0.0150246 0.0248006 0.99958 
0.0278496 0.00271289 0.999608 
0.017174 -0.0104676 0.999798 
0.00634677 -0.00602903 0.999962 
-0.0232226 -0.00289504 0.999726 
-0.0436256 0.0107791 0.99899 
-0.0197143 -0.00543393 0.999791 
-0.00606257 -0.03016 0.999527 
0.0214114 0.00103727 0.99977 
0.0379541 0.0474838 0.998151 
0.0333637 0.0488178 0.99825 
0.037829 0.0267145 0.998927 
0.0389751 0.0212606 0.999014 
0.0288642 -0.0197076 0.999389 
-0.0194978 -0.0447316 0.998809 
-0.0670645 -0.0280871 0.997353 
-0.0767492 -0.0129555 0.996966 
-0.0668838 -0.0108863 0.997701 
-0.0574448 0.00317319 0.998344 
-0.0489293 0.0419092 0.997923 
-0.0413787 0.12038 0.991865 
-0.0338685 0.239114 0.970401 
-0.00487684 0.40506 0.914277 
0.139025 -0.215116 0.966642 
0.0568124 -0.150638 0.986955 
-0.0119018 -0.0911306 0.995768 
-0.0299966 -0.0878577 0.995681 
-0.00957303 -0.126738 0.99189 
0.00785503 -0.1381 0.990387 
0.0057817 -0.11509 0.993338 
0.0049026 -0.086313 0.996256 
0.0307832 -0.0733948 0.996828 
0.0655945 -0.0588527 0.996109 
0.0710711 -0.0205215 0.99726 
0.0316678 0.000713844 0.999498 
0.0455188 0.0255839 0.998636 
0.0408104 0.0242991 0.998871 
0.0275884 0.00729323 0.999593 
0.000797866 0.00136767 0.999999 
-0.0112838 -0.00731915 0.99991 
-0.00643281 -0.0205261 0.999769 
-0.0160097 0.00100288 0.999871 
0.0108959 -0.00144689 0.99994 
0.00326933 -0.01924 0.99981 
0.0103307 0.00148452 0.999946 
0.0231053 0.0356246 0.999098 
0.0225793 0.0173297 0.999595 
0.029507 -0.00780194 0.999534 
0.0408019 0.00526074 0.999153 
0.0334371 -0.0161771 0.99931 
0.0206794 -0.0433746 0.998845 
-0.0109254 -0.0395404 0.999158 
-0.0379966 -0.0234154 0.999003 
-0.0470256 -0.0351389 0.998275 
-0.0325943 -0.0329198 0.998926 
-0.00801917 0.00659138 0.999946 
0.00829928 0.0684617 0.997619 
0.0222452 0.152162 0.988105 
0.0570994 0.252712 0.965855 
0.161017 0.36025 0.918855 
0.116481 -0.139534 0.983342 
0.0601074 -0.128836 0.989843 
0.0207794 -0.0806919 0.996522 
0.0128904 -0.0516184 0.998584 
0.0301048 -0.085922 0.995847 
0.0547313 -0.131389 0.989819 
0.0651217 -0.121944 0.990398 
0.0523324 -0.0786716 0.995526 
0.0477144 -0.0643535 0.996786 
0.0703796 -0.071461 0.994957 
0.0832417 -0.0447828 0.995523 
0.072227 0.012848 0.997305 
0.0702443 0.0235112 0.997253 
0.0672858 0.0146278 0.997627 
0.0369568 0.00926869 0.999274 
0.0141653 0.00939505 0.999856 
-0.00603132 -0.00334899 0.999976 
0.0472159 -0.0486482 0.997699 
0.0268259 -0.0282718 0.99924 
0.0380462 -0.0112054 0.999213 
0.0156261 -0.000743788 0.999878 
0.0345747 0.0112125 0.999339 
0.0140424 0.014519 0.999796 
0.0165959 -0.0124668 0.999785 
0.0171438 -0.0273726 0.999478 
0.0260127 -0.0138862 0.999565 
0.0232027 -0.014849 0.99962 
0.0158006 -0.0228404 0.999614 
-0.00291224 -0.0155692 0.999875 
-0.0236522 -0.0285129 0.999314 
-0.0310686 -0.0511117 0.99821 
-0.0113626 -0.0258213 0.999602 
0.0219639 0.0318342 0.999252 
0.046757 0.0864093 0.995162 
0.072944 0.144033 0.986881 
0.119972 0.204466 0.971494 
0.20536 0.244851 0.947563 
-0.00888745 -0.161369 0.986854 
0.0138885 -0.128771 0.991577 
0.0127267 -0.0976158 0.995143 
0.0179817 -0.0546654 0.998343 
0.0284459 -0.0540148 0.998135 
0.0452141 -0.104156 0.993533 
0.0562439 -0.122101 0.990923 
0.0425196 -0.0809661 0.99581 
0.0318879 -0.0517778 0.998149 
0.0452249 -0.0660476 0.996791 
0.0591749 -0.0594638 0.996475 
0.0644493 -0.00756933 0.997892 
0.0635511 0.0308363 0.997502 
0.0687779 0.0297336 0.997189 
0.0694516 0.0129 0.997502 
0.0500179 0.00926193 0.998705 
0.0514453 -0.00195969 0.998674 
0.0450449 -0.0144412 0.998881 
0.102732 -0.0667289 0.992468 
0.0724554 -0.0614471 0.995477 
0.0563374 -0.026386 0.998063 
0.0412014 0.00815347 0.999118 
0.089304 -0.000608677 0.996004 
0.048418 0.00642837 0.998806 
0.0374054 -0.00752406 0.999272 
0.0238904 -0.0123206 0.999639 
0.0182662 -0.020448 0.999624 
0.0121871 -0.0137756 0.999831 
-0.00424766 -0.0137332 0.999897 
-0.0120962 -0.0123099 0.999851 
-0.017604 -0.0165838 0.999707 
-0.0240238 -0.0363054 0.999052 
-0.0234181 -0.0288626 0.999309 
0.00652647 0.0240588 0.999689 
0.0466055 0.0688896 0.996535 
0.0676621 0.0898508 0.993654 
0.0836052 0.119867 0.989263 
0.113863 0.157566 0.980922 
0.141103 0.171989 0.974941 
-0.0434867 -0.158776 0.986356 
-0.0182815 -0.12046 0.99255 
-0.00192488 -0.112698 0.993627 
0.000671377 -0.0987549 0.995112 
-0.00578039 -0.0760512 0.997087 
0.000474484 -0.0882609 0.996097 
0.016482 -0.111646 0.993611 
0.0101002 -0.0907848 0.995819 
-0.000319523 -0.0525671 0.998617 
0.0218317 -0.0455274 0.998725 
0.0495893 -0.0385626 0.998025 
0.0504319 0.0119037 0.998657 
0.0514278 0.0552515 0.997147 
0.062566 0.0400405 0.997237 
0.0689732 0.00369786 0.997612 
0.0636842 -0.00403518 0.997962 
0.0699107 -0.0291091 0.997128 
0.0872399 -0.0338351 0.995613 
0.114519 -0.0639003 0.991364 
0.0979707 -0.0695279 0.992758 
0.0846659 -0.0409834 0.995566 
0.0782735 -0.0160058 0.996803 
0.121632 -0.0448536 0.991561 
0.0929906 -0.0093472 0.995623 
0.0524701 0.00724772 0.998596 
0.0361918 -0.000700594 0.999345 
0.0194532 -0.0306926 0.99934 
-0.0151283 -0.0407746 0.999054 
-0.0455473 -0.0375925 0.998255 
-0.0368148 -0.0329371 0.998779 
-0.0128271 -0.0309195 0.99944 
-0.00232449 -0.0114739 0.999931 
0.0024951 0.0331177 0.999448 
0.0275171 0.0708292 0.997109 
0.0498078 0.0746338 0.995966 
0.0542994 0.078991 0.995395 
0.0630373 0.109196 0.992019 
0.0772556 0.156206 0.984699 
0.0375808 0.234191 0.971464 
0.0278218 -0.286038 0.957814 
0.0211736 -0.133191 0.990864 
0.0336284 -0.0993236 0.994487 
0.0249901 -0.109284 0.993696 
0.0017733 -0.103133 0.994666 
-0.0117101 -0.0865864 0.996176 
-0.00144606 -0.0904854 0.995897 
0.00179458 -0.0886069 0.996065 
-0.0042011 -0.0651088 0.997869 
0.0216606 -0.045773 0.998717 
0.0654416 -0.029069 0.997433 
0.0716564 0.0142587 0.997327 
0.056079 0.0563282 0.996836 
0.056505 0.0431527 0.997469 
0.0716482 -0.0154049 0.997311 
0.0754302 -0.0435716 0.996199 
0.0787841 -0.0536705 0.995446 
0.0897578 -0.049434 0.994736 
0.103006 -0.0612742 0.992792 
0.108494 -0.0599829 0.992286 
0.116731 -0.0535386 0.991719 
0.113966 -0.0519839 0.992124 
0.121261 -0.0652422 0.990474 
0.0758164 -0.0297652 0.996677 
0.0498533 0.00195793 0.998755 
0.0478252 -0.0299573 0.998406 
2.01025e-05 -0.0699532 0.99755 
-0.0580947 -0.0699781 0.995855 
-0.0729788 -0.0565167 0.995731 
-0.0408264 -0.0476797 0.998028 
-0.00150117 -0.0218105 0.999761 
0.0130926 0.0204558 0.999705 
0.0141711 0.0454502 0.998866 
0.0197279 0.0445539 0.998812 
0.025307 0.0469984 0.998574 
0.0406986 0.0731433 0.996491 
0.0742567 0.11955 0.990047 
0.102322 0.188653 0.976699 
0.159543 0.306675 0.938348 
0.209206 -0.287575 0.93463 
0.104622 -0.113857 0.987973 
0.0591359 -0.0656743 0.996087 
0.0210035 -0.077738 0.996753 
0.000572062 -0.0675093 0.997718 
-0.00298052 -0.0572585 0.998355 
-0.00183454 -0.0618964 0.998081 
0.000369017 -0.0549012 0.998492 
0.0259065 -0.0391659 0.998897 
0.067708 -0.0254253 0.997381 
0.0800583 0.00137781 0.996789 
0.0558968 0.0307681 0.997962 
0.0401523 0.0229176 0.998931 
0.0544062 -0.0269044 0.998156 
0.0822071 -0.0685985 0.994252 
0.0934874 -0.0724688 0.99298 
0.101189 -0.0624972 0.992902 
0.0904532 -0.0607776 0.994044 
0.102785 -0.0739104 0.991954 
0.110859 -0.0599283 0.992028 
0.124847 -0.0595111 0.99039 
0.134119 -0.0590782 0.989203 
0.12161 -0.0480131 0.991416 
0.084669 -0.0480721 0.995249 
0.0594688 -0.0328571 0.997689 
0.0621359 -0.0381798 0.997337 
0.0399424 -0.070633 0.996702 
-0.0206399 -0.0914438 0.995596 
-0.0696733 -0.0702523 0.995093 
-0.0792195 -0.047696 0.995716 
-0.0595206 -0.032938 0.997684 
-0.0294165 -0.00632318 0.999547 
-0.00814985 0.00949493 0.999922 
-0.00221517 0.00448324 0.999987 
0.000873372 0.0164528 0.999864 
0.0214336 0.0523554 0.998398 
0.0647347 0.0824047 0.994494 
0.117277 0.12567 0.985116 
0.208004 0.181129 0.961211 
0.246956 -0.160545 0.955635 
0.166155 -0.0976534 0.981252 
0.090841 -0.0290184 0.995443 
0.0282201 -0.021602 0.999368 
0.00364076 -0.0326258 0.999461 
0.0019219 -0.0271093 0.999631 
-0.00591645 -0.0299353 0.999534 
-0.00841758 -0.0320315 0.999451 
0.0116835 -0.0137923 0.999837 
0.0382318 0.00086223 0.999269 
0.0474071 -3.5059e-05 0.998876 
0.0419972 0.0010001 0.999117 
0.0337645 -0.00103672 0.999429 
0.0374723 -0.0231341 0.99903 
0.057394 -0.0569982 0.996723 
0.0841516 -0.0674649 0.994166 
0.110747 -0.0625768 0.991877 
0.120732 -0.0780337 0.989613 
0.116482 -0.0817047 0.989826 
0.108905 -0.0638213 0.992001 
0.10985 -0.0504543 0.992667 
0.118997 -0.0432607 0.991952 
0.0976231 -0.0365752 0.994551 
0.0675188 -0.0592607 0.995957 
0.0522987 -0.0689904 0.996246 
0.0407786 -0.0770633 0.996192 
0.0174357 -0.10101 0.994733 
-0.0189867 -0.0931091 0.995475 
-0.0554065 -0.0505237 0.997185 
-0.0851409 -0.018314 0.996201 
-0.0901623 -0.003412 0.995921 
-0.0650011 0.00149488 0.997884 
-0.0351559 -0.00731049 0.999355 
-0.0209635 -0.00562635 0.999764 
0.000148489 0.0263615 0.999652 
0.0426071 0.0500797 0.997836 
0.0818021 0.0472549 0.995528 
0.120975 0.053901 0.991191 
0.177418 0.0467467 0.983025 
0.163472 -0.068694 0.984153 
0.112879 -0.0320417 0.993092 
0.0498365 0.00617327 0.998738 
0.00921306 -0.00383065 0.99995 
0.00538174 -0.0148291 0.999876 
-0.0028917 -0.0123356 0.99992 
-0.0224179 -0.0163827 0.999614 
-0.0161959 -0.00571938 0.999852 
-0.00020769 0.0230121 0.999735 
-0.00554931 0.0266732 0.999629 
0.0033376 -9.86764e-05 0.999994 
0.0390847 -0.0176783 0.99908 
0.0600995 -0.0177454 0.998035 
0.0502532 -0.0235207 0.99846 
0.0447923 -0.0376375 0.998287 
0.0731931 -0.0528294 0.995918 
0.127743 -0.0787927 0.988673 
0.140556 -0.092966 0.985698 
0.111778 -0.0696032 0.991293 
0.101706 -0.0546648 0.993311 
0.0915133 -0.0407553 0.99497 
0.105279 -0.0377514 0.993726 
0.105057 -0.0354373 0.993835 
0.080976 -0.0670839 0.994456 
0.0388322 -0.0984141 0.994388 
0.0157944 -0.0932066 0.995522 
0.0232935 -0.0911935 0.995561 
0.0237721 -0.105236 0.994163 
-0.00315473 -0.078919 0.996876 
-0.0481538 -0.0263682 0.998492 
-0.0843569 0.00526177 0.996422 
-0.0895884 0.0139903 0.995881 
-0.067097 0.0139139 0.997649 
-0.0464793 0.00748677 0.998891 
-0.0363752 0.00168054 0.999337 
0.00416245 0.000628166 0.999991 
0.0567019 -0.0037947 0.998384 
0.0894004 -0.019188 0.995811 
0.14753 -0.0551012 0.987522 
0.0354488 -0.0640794 0.997315 
0.0570988 -0.0422553 0.997474 
0.0509113 -0.00514146 0.99869 
0.0299112 0.00740017 0.999525 
0.0144877 -0.00645157 0.999874 
0.00128373 -0.00460936 0.999989 
-0.0267227 0.00699683 0.999618 
-0.0404214 0.00020483 0.999183 
-0.0247263 0.00850715 0.999658 
-0.0297694 0.0375265 0.998852 
-0.0445365 0.0333512 0.998451 
-0.00446839 0.0020948 0.999988 
0.0574951 -0.00491268 0.998334 
0.0677212 0.0104669 0.997649 
0.0357071 0.00584667 0.999345 
0.0249814 -0.025008 0.999375 
0.0735968 -0.062183 0.995348 
0.130618 -0.0792511 0.98826 
0.138838 -0.075552 0.987429 
0.0862801 -0.04839 0.995095 
0.0984669 -0.0400142 0.994336 
0.124732 -0.0453917 0.991152 
0.117509 -0.0659612 0.990879 
0.0661429 -0.107314 0.992023 
0.025232 -0.112597 0.99332 
0.0279561 -0.0927021 0.995301 
0.0380142 -0.0873449 0.995453 
0.0148416 -0.0770869 0.996914 
-0.0275527 -0.0452325 0.998596 
-0.0608176 -0.0114971 0.998083 
-0.0760634 0.0108913 0.997043 
-0.0743162 0.0296126 0.996795 
-0.0597771 0.0478776 0.997063 
-0.0552089 0.0382939 0.99774 
-0.0484413 -0.00923993 0.998783 
-0.0127556 -0.0418518 0.999042 
0.0186157 -0.0400364 0.999025 
0.0283656 -0.0509593 0.998298 
0.0270888 -0.0856822 0.995954 
-0.00575497 -0.163843 0.98647 
0.0125841 -0.0626903 0.997954 
0.0320621 0.0105671 0.99943 
0.0290684 0.0210378 0.999356 
0.00668591 0.0102525 0.999925 