# vtk DataFile Version 3.0 
Exported using Morpho https://github.com/Morpho-lang/morpho 
ASCII 
DATASET UNSTRUCTURED_GRID 

POINTS 1245 float 
-0.303845 -0.952721 0 
-0.250833 -0.96803 0 
-0.195084 -0.980787 0 
-0.146308 -0.989239 0 
-0.0940719 -0.995565 0 
-0.0475118 -0.998871 0 
-0.000246339 -1 0 
0.0470875 -0.998891 0 
0.0937543 -0.995595 0 
0.146139 -0.989264 0 
0.195062 -0.980791 0 
0.250843 -0.968028 0 
0.303953 -0.952687 0 
-0.409153 -0.912466 0 
-0.356519 -0.934288 0 
-0.308871 -0.898929 0 
-0.258282 -0.916037 0 
-0.207345 -0.934859 0 
-0.154868 -0.930629 0 
-0.104343 -0.948989 0 
-0.0520099 -0.939193 0 
-8.5762e-05 -0.954582 0 
0.0518744 -0.939288 0 
0.104354 -0.949042 0 
0.154696 -0.9306 0 
0.207366 -0.934975 0 
0.258274 -0.916081 0 
0.308979 -0.898924 0 
0.356593 -0.93426 0 
0.409236 -0.912429 0 
-0.513788 -0.857917 0 
-0.461695 -0.887039 0 
-0.411157 -0.857936 0 
-0.359855 -0.879963 0 
-0.306888 -0.847481 0 
-0.254732 -0.866979 0 
-0.201991 -0.889059 0 
-0.149956 -0.874108 0 
-0.100608 -0.900088 0 
-0.0497575 -0.880388 0 
2.4595e-05 -0.904789 0 
0.0496869 -0.8804 0 
0.100612 -0.900177 0 
0.149872 -0.874171 0 
0.202071 -0.889165 0 
0.254695 -0.867031 0 
0.306946 -0.847482 0 
0.359894 -0.879943 0 
0.411236 -0.857929 0 
0.461748 -0.887011 0 
0.513842 -0.857885 0 
-0.564741 -0.825268 0 
-0.512908 -0.802945 0 
-0.462372 -0.832348 0 
-0.410124 -0.804631 0 
-0.358606 -0.827415 0 
-0.305781 -0.795641 0 
-0.25358 -0.816639 0 
-0.200756 -0.839997 0 
-0.149043 -0.818944 0 
-0.0987265 -0.846667 0 
-0.0490473 -0.822548 0 
5.00659e-05 -0.849932 0 
0.0490834 -0.822542 0 
0.0987838 -0.846676 0 
0.148997 -0.818924 0 
0.200826 -0.840131 0 
0.253508 -0.816728 0 
0.305831 -0.795701 0 
0.358581 -0.827419 0 
0.410181 -0.804654 0 
0.462414 -0.83234 0 
0.512965 -0.802929 0 
0.564777 -0.825243 0 
-0.660798 -0.750564 0 
-0.614015 -0.789295 0 
-0.561786 -0.769772 0 
-0.510673 -0.747856 0 
-0.460836 -0.778365 0 
-0.408794 -0.751554 0 
-0.357337 -0.774971 0 
-0.304815 -0.743684 0 
-0.252907 -0.765535 0 
-0.200631 -0.789263 0 
-0.149244 -0.764328 0 
-0.0986912 -0.791935 0 
-0.0492815 -0.765764 0 
4.16586e-05 -0.79382 0 
0.0492411 -0.765708 0 
0.0987508 -0.791951 0 
0.149196 -0.764326 0 
0.200666 -0.789356 0 
0.252841 -0.765599 0 
0.304862 -0.743741 0 
0.357323 -0.775038 0 
0.408863 -0.751626 0 
0.460863 -0.778382 0 
0.510716 -0.747859 0 
0.561819 -0.769761 0 
0.614041 -0.789274 0 
0.660811 -0.750552 0 
-0.707107 -0.707107 0 
-0.654819 -0.699058 0 
-0.60813 -0.73348 0 
-0.558104 -0.71337 0 
-0.509495 -0.692659 0 
-0.45935 -0.724356 0 
-0.407328 -0.698865 0 
-0.355968 -0.722823 0 
-0.303722 -0.691387 0 
-0.252254 -0.71362 0 
-0.20067 -0.737336 0 
-0.149608 -0.710068 0 
-0.0991558 -0.737129 0 
-0.0495872 -0.709825 0 
-2.23646e-05 -0.737917 0 
0.0494408 -0.709766 0 
0.0991291 -0.737116 0 
0.149502 -0.710042 0 
0.200696 -0.73743 0 
0.252186 -0.713735 0 
0.303753 -0.691518 0 
0.355952 -0.722893 0 
0.407371 -0.698945 0 
0.459374 -0.724407 0 
0.509524 -0.692668 0 
0.558131 -0.713361 0 
0.608151 -0.733462 0 
0.654824 -0.699048 0 
0.707107 -0.707107 0 
-0.750564 -0.660798 0 
-0.699058 -0.654819 0 
-0.647692 -0.647692 0 
-0.603437 -0.675718 0 
-0.55905 -0.655305 0 
-0.508501 -0.639581 0 
-0.457509 -0.671321 0 
-0.405555 -0.646545 0 
-0.354417 -0.670703 0 
-0.302427 -0.639219 0 
-0.251503 -0.661417 0 
-0.20061 -0.684911 0 
-0.149717 -0.655943 0 
-0.0995004 -0.682466 0 
-0.0498216 -0.654561 0 
-5.02113e-05 -0.682664 0 
0.0496787 -0.654499 0 
0.0994374 -0.682501 0 
0.149603 -0.655909 0 
0.200573 -0.684972 0 
0.251388 -0.661524 0 
0.302407 -0.639359 0 
0.354397 -0.670836 0 
0.405575 -0.646641 0 
0.457525 -0.67138 0 
0.508497 -0.639623 0 
0.559063 -0.655324 0 
0.603436 -0.675715 0 
0.64769 -0.64769 0 
0.699048 -0.654824 0 
0.750552 -0.660811 0 
-0.789295 -0.614015 0 
-0.73348 -0.60813 0 
-0.675718 -0.603437 0 
-0.613088 -0.613088 0 
-0.55962 -0.604068 0 
-0.506189 -0.588854 0 
-0.455505 -0.618874 0 
-0.403019 -0.594688 0 
-0.352514 -0.618952 0 
-0.300977 -0.586897 0 
-0.250543 -0.608767 0 
-0.200257 -0.632053 0 
-0.150049 -0.601979 0 
-0.0998281 -0.628222 0 
-0.0500377 -0.599914 0 
-3.12334e-05 -0.628076 0 
0.0498927 -0.599835 0 
0.0997818 -0.628253 0 
0.149924 -0.601867 0 
0.200214 -0.632118 0 
0.250423 -0.608915 0 
0.30086 -0.587085 0 
0.352457 -0.619096 0 
0.402948 -0.594743 0 
0.455483 -0.618952 0 
0.506147 -0.588901 0 
0.55964 -0.604067 0 
0.613069 -0.613069 0 
0.675715 -0.603436 0 
0.733462 -0.608151 0 
0.789274 -0.614041 0 
-0.825268 -0.564741 0 
-0.769772 -0.561786 0 
-0.71337 -0.558104 0 
-0.655305 -0.55905 0 
-0.604068 -0.55962 0 
-0.551031 -0.551031 0 
-0.497922 -0.537596 0 
-0.451508 -0.567021 0 
-0.399773 -0.542431 0 
-0.350494 -0.567003 0 
-0.301574 -0.534146 0 
-0.250874 -0.555692 0 
-0.200542 -0.579013 0 
-0.150324 -0.548268 0 
-0.100169 -0.57443 0 
-0.0500152 -0.545912 0 
-3.29278e-05 -0.574268 0 
0.0499208 -0.545788 0 
0.100058 -0.574485 0 
0.150038 -0.548073 0 
0.200377 -0.579041 0 
0.250556 -0.55585 0 
0.301273 -0.534348 0 
0.350318 -0.567174 0 
0.399615 -0.542384 0 
0.451404 -0.5671 0 
0.497945 -0.537702 0 
0.551073 -0.551073 0 
0.604067 -0.55964 0 
0.655324 -0.559063 0 
0.713361 -0.558131 0 
0.769761 -0.561819 0 
0.825243 -0.564777 0 
-0.857917 -0.513788 0 
-0.802945 -0.512908 0 
-0.747856 -0.510673 0 
-0.692659 -0.509495 0 
-0.639581 -0.508501 0 
-0.588854 -0.506189 0 
-0.537596 -0.497922 0 
-0.486157 -0.486157 0 
-0.444928 -0.512952 0 
-0.401787 -0.486784 0 
-0.351685 -0.513639 0 
-0.299695 -0.48291 0 
-0.250032 -0.503 0 
-0.200501 -0.526165 0 
-0.149489 -0.495195 0 
-0.0999281 -0.521367 0 
-0.0499712 -0.492294 0 
4.64723e-05 -0.520999 0 
0.050147 -0.492108 0 
0.099934 -0.52133 0 
0.14957 -0.494692 0 
0.200133 -0.526255 0 
0.249839 -0.503309 0 
0.299839 -0.483005 0 
0.351514 -0.513798 0 
0.401881 -0.486608 0 
0.444935 -0.513054 0 
0.486228 -0.486228 0 
0.537702 -0.497945 0 
0.588901 -0.506147 0 
0.639623 -0.508497 0 
0.692668 -0.509524 0 
0.747859 -0.510716 0 
0.802929 -0.512965 0 
0.857885 -0.513842 0 
-0.887039 -0.461695 0 
-0.832348 -0.462372 0 
-0.778365 -0.460836 0 
-0.724356 -0.45935 0 
-0.671321 -0.457509 0 
-0.618874 -0.455505 0 
-0.567021 -0.451508 0 
-0.512952 -0.444928 0 
-0.450685 -0.450685 0 
-0.397667 -0.437543 0 
-0.348492 -0.462546 0 
-0.295416 -0.432968 0 
-0.247004 -0.450633 0 
-0.198702 -0.473818 0 
-0.150161 -0.441625 0 
-0.100085 -0.468395 0 
-0.0502271 -0.439281 0 
0.000144229 -0.468374 0 
0.0504178 -0.439106 0 
0.100428 -0.468348 0 
0.150697 -0.441105 0 
0.199103 -0.473881 0 
0.247983 -0.450921 0 
0.296569 -0.432268 0 
0.348831 -0.462562 0 
0.397506 -0.4368 0 
0.450637 -0.450637 0 
0.513054 -0.444935 0 
0.5671 -0.451404 0 
0.618952 -0.455483 0 
0.67138 -0.457525 0 
0.724407 -0.459374 0 
0.778382 -0.460863 0 
0.83234 -0.462414 0 
0.887011 -0.461748 0 
-0.912466 -0.409153 0 
-0.857936 -0.411157 0 
-0.804631 -0.410124 0 
-0.751554 -0.408794 0 
-0.698865 -0.407328 0 
-0.646545 -0.405555 0 
-0.594688 -0.403019 0 
-0.542431 -0.399773 0 
-0.486784 -0.401787 0 
-0.437543 -0.397667 0 
-0.387256 -0.387256 0 
-0.344215 -0.411459 0 
-0.30136 -0.381507 0 
-0.25021 -0.395692 0 
-0.200211 -0.419975 0 
-0.150955 -0.389014 0 
-0.100617 -0.416095 0 
-0.0503197 -0.386922 0 
-4.02994e-05 -0.416525 0 
0.05006 -0.386948 0 
0.100784 -0.416323 0 
0.150432 -0.388572 0 
0.200855 -0.420694 0 
0.25086 -0.396905 0 
0.301746 -0.379789 0 
0.344135 -0.410678 0 
0.385823 -0.385823 0 
0.4368 -0.397506 0 
0.486608 -0.401881 0 
0.542384 -0.399615 0 
0.594743 -0.402948 0 
0.646641 -0.405575 0 
0.698945 -0.407371 0 
0.751626 -0.408863 0 
0.804654 -0.410181 0 
0.857929 -0.411236 0 
0.912429 -0.409236 0 
-0.934288 -0.356519 0 
-0.879963 -0.359855 0 
-0.827415 -0.358606 0 
-0.774971 -0.357337 0 
-0.722823 -0.355968 0 
-0.670703 -0.354417 0 
-0.618952 -0.352514 0 
-0.567003 -0.350494 0 
-0.513639 -0.351685 0 
-0.462546 -0.348492 0 
-0.411459 -0.344215 0 
-0.351697 -0.351697 0 
-0.29839 -0.336232 0 
-0.249846 -0.342529 0 
-0.200971 -0.367271 0 
-0.149995 -0.337521 0 
-0.100435 -0.3646 0 
-0.0498692 -0.335025 0 
-6.88684e-05 -0.365025 0 
0.0495433 -0.334795 0 
0.0996798 -0.364834 0 
0.148162 -0.337172 0 
0.199644 -0.368939 0 
0.24763 -0.345582 0 
0.295348 -0.332889 0 
0.34978 -0.34978 0 
0.410678 -0.344135 0 
0.462562 -0.348831 0 
0.513798 -0.351514 0 
0.567174 -0.350318 0 
0.619096 -0.352457 0 
0.670836 -0.354397 0 
0.722893 -0.355952 0 
0.775038 -0.357323 0 
0.827419 -0.358581 0 
0.879943 -0.359894 0 
0.93426 -0.356593 0 
-0.952721 -0.303845 0 
-0.898929 -0.308871 0 
-0.847481 -0.306888 0 
-0.795641 -0.305781 0 
-0.743684 -0.304815 0 
-0.691387 -0.303722 0 
-0.639219 -0.302427 0 
-0.586897 -0.300977 0 
-0.534146 -0.301574 0 
-0.48291 -0.299695 0 
-0.432968 -0.295416 0 
-0.381507 -0.30136 0 
-0.336232 -0.29839 0 
-0.288184 -0.288184 0 
-0.242975 -0.290577 0 
-0.198059 -0.315051 0 
-0.148383 -0.285894 0 
-0.0994753 -0.313232 0 
-0.0507184 -0.283118 0 
-0.000202902 -0.313447 0 
0.0500077 -0.282824 0 
0.0988289 -0.312817 0 
0.148102 -0.28482 0 
0.195742 -0.317413 0 
0.240766 -0.295824 0 
0.285014 -0.285014 0 
0.332889 -0.295348 0 
0.379789 -0.301746 0 
0.432268 -0.296569 0 
0.483005 -0.299839 0 
0.534348 -0.301273 0 
0.587085 -0.30086 0 
0.639359 -0.302407 0 
0.691518 -0.303753 0 
0.743741 -0.304862 0 
0.795701 -0.305831 0 
0.847482 -0.306946 0 
0.898924 -0.308979 0 
0.952687 -0.303953 0 
-0.96803 -0.250833 0 
-0.916037 -0.258282 0 
-0.866979 -0.254732 0 
-0.816639 -0.25358 0 
-0.765535 -0.252907 0 
-0.71362 -0.252254 0 
-0.661417 -0.251503 0 
-0.608767 -0.250543 0 
-0.555692 -0.250874 0 
-0.503 -0.250032 0 
-0.450633 -0.247004 0 
-0.395692 -0.25021 0 
-0.342529 -0.249846 0 
-0.290577 -0.242975 0 
-0.239946 -0.239946 0 
-0.194478 -0.26004 0 
-0.151293 -0.23238 0 
-0.101048 -0.260904 0 
-0.0503938 -0.232537 0 
-0.000203281 -0.262984 0 
0.050638 -0.232316 0 
0.100942 -0.260855 0 
0.152412 -0.232597 0 
0.195768 -0.261421 0 
0.241873 -0.241873 0 
0.295824 -0.240766 0 
0.345582 -0.24763 0 
0.396905 -0.25086 0 
0.450921 -0.247983 0 
[...]
POINT_DATA 1245 
VECTORS vectors float
0.454192 -0.175304 0.873486 
0.461648 -0.135174 0.876704 
0.472957 -0.0951643 0.875931 
0.483646 -0.0648326 0.87286 
0.493928 -0.0361557 0.868751 
0.500575 -0.0138583 0.865582 
0.504841 0.00716677 0.863183 
0.505018 0.0290806 0.862619 
0.50377 0.0520615 0.862268 
0.502748 0.0794978 0.86077 
0.502192 0.104192 0.858456 
0.502122 0.129691 0.855017 
0.500525 0.148829 0.852833 
0.451921 -0.245341 0.857657 
0.451512 -0.21313 0.866437 
0.392137 -0.1614 0.905637 
0.397626 -0.130346 0.908242 
0.412318 -0.0996193 0.905577 
0.402989 -0.0675909 0.912706 
0.426152 -0.0423684 0.903659 
0.413012 -0.0179849 0.910548 
0.437069 0.00558895 0.899411 
0.418255 0.0263169 0.907948 
0.438471 0.0514969 0.897269 
0.421336 0.0715486 0.904078 
0.440558 0.0974956 0.892414 
0.430255 0.114587 0.895405 
0.423683 0.130138 0.896413 
0.494987 0.163061 0.853463 
0.482383 0.174184 0.858467 
0.447984 -0.286934 0.846746 
0.452062 -0.26978 0.850211 
0.38894 -0.217091 0.89532 
0.38913 -0.191746 0.901006 
0.334565 -0.144205 0.931274 
0.341952 -0.117221 0.932378 
0.357571 -0.0900338 0.929536 
0.334586 -0.0619293 0.940328 
0.363299 -0.039558 0.930832 
0.339479 -0.018031 0.940441 
0.370201 0.00227569 0.928949 
0.344227 0.0207498 0.938657 
0.373178 0.042784 0.926773 
0.349366 0.0586204 0.935151 
0.378437 0.0828869 0.921909 
0.364355 0.0984586 0.92604 
0.355321 0.11261 0.927936 
0.414923 0.143479 0.898473 
0.40079 0.156045 0.902783 
0.460312 0.185428 0.868176 
0.42771 0.201783 0.881106 
0.436107 -0.300006 0.848415 
0.379102 -0.254353 0.889711 
0.386543 -0.237966 0.891043 
0.330194 -0.191619 0.924259 
0.333176 -0.168692 0.927651 
0.284498 -0.128011 0.950092 
0.291009 -0.105508 0.950885 
0.303861 -0.082821 0.94911 
0.278513 -0.056696 0.958758 
0.302728 -0.0374995 0.952339 
0.277735 -0.0183973 0.960482 
0.30674 0.000226453 0.951793 
0.281002 0.0154017 0.959584 
0.310793 0.035229 0.949824 
0.288094 0.0490621 0.956345 
0.32021 0.0713352 0.944657 
0.305394 0.0850409 0.948421 
0.294174 0.0989522 0.950616 
0.344558 0.126692 0.930177 
0.329519 0.141371 0.933505 
0.378306 0.17124 0.909704 
0.348698 0.191531 0.917456 
0.386526 0.228029 0.893644 
0.386126 -0.330494 0.861209 
0.414979 -0.31327 0.854198 
0.364793 -0.268316 0.89159 
0.316944 -0.225777 0.921179 
0.326225 -0.209732 0.921732 
0.278824 -0.168495 0.945445 
0.280907 -0.149532 0.948014 
0.239209 -0.113401 0.964323 
0.245084 -0.0948636 0.96485 
0.256896 -0.0757192 0.963468 
0.229438 -0.0521238 0.971927 
0.250022 -0.0355495 0.967587 
0.226055 -0.0180867 0.973947 
0.251176 -0.00208976 0.967939 
0.228341 0.0117525 0.97351 
0.25561 0.0291262 0.966341 
0.236081 0.0412227 0.970859 
0.266314 0.0613496 0.961932 
0.253307 0.0741151 0.964543 
0.241832 0.0872705 0.966386 
0.283937 0.112787 0.952187 
0.2695 0.128986 0.954323 
0.309347 0.158398 0.937664 
0.283143 0.181365 0.941773 
0.314585 0.219579 0.923483 
0.342277 0.266287 0.901076 
0.302322 0.314212 0.899929 
0.351096 -0.355281 0.866318 
0.32379 -0.305426 0.895475 
0.343643 -0.283284 0.895355 
0.301181 -0.240726 0.922681 
0.26281 -0.202286 0.943404 
0.272426 -0.186361 0.943956 
0.232465 -0.149787 0.961001 
0.236242 -0.132278 0.962649 
0.199032 -0.10114 0.97476 
0.204942 -0.0846326 0.975108 
0.214345 -0.0682586 0.97437 
0.188988 -0.0476213 0.980824 
0.205168 -0.0332864 0.978161 
0.183662 -0.0178749 0.982827 
0.204269 -0.00388508 0.978907 
0.184842 0.00861594 0.98273 
0.208364 0.023781 0.977762 
0.191811 0.0350578 0.980806 
0.219763 0.0531648 0.974104 
0.206817 0.0648126 0.976231 
0.197647 0.0776556 0.977192 
0.231908 0.101876 0.967388 
0.219828 0.118191 0.968352 
0.251122 0.147995 0.956575 
0.230218 0.171412 0.957923 
0.255287 0.209636 0.943865 
0.280582 0.25565 0.925157 
0.256323 0.300108 0.918822 
0.270829 0.368804 0.889177 
0.316192 -0.386013 0.866612 
0.294218 -0.329757 0.897049 
0.270939 -0.281751 0.920439 
0.281214 -0.25706 0.924575 
0.247847 -0.218991 0.943724 
0.2182 -0.183568 0.958484 
0.227197 -0.165849 0.959623 
0.193222 -0.133516 0.972028 
0.197077 -0.116705 0.973417 
0.165145 -0.0893347 0.982215 
0.169788 -0.0752701 0.982602 
0.17717 -0.0616651 0.982247 
0.154178 -0.0429898 0.987107 
0.166802 -0.0306728 0.985513 
0.148245 -0.0171023 0.988803 
0.164894 -0.00479365 0.9863 
0.148653 0.00605684 0.988871 
0.168384 0.0195023 0.985528 
0.154834 0.0296591 0.987495 
0.178778 0.0456301 0.982831 
0.168691 0.0572773 0.984003 
0.159287 0.0694568 0.984786 
0.188577 0.0921535 0.977725 
0.178408 0.109129 0.977886 
0.204522 0.138078 0.969074 
0.188604 0.162809 0.968464 
0.207443 0.201048 0.957365 
0.230225 0.24265 0.9424 
0.218041 0.282909 0.934035 
0.234379 0.345312 0.90875 
0.251759 0.419849 0.871977 
0.286841 -0.417845 0.862048 
0.264527 -0.350015 0.898618 
0.242572 -0.291218 0.925392 
0.230575 -0.242303 0.942403 
0.207435 -0.203048 0.956944 
0.182228 -0.166612 0.969037 
0.187979 -0.149148 0.970783 
0.160136 -0.11858 0.979946 
0.162617 -0.104535 0.981136 
0.135687 -0.0794787 0.987559 
0.139114 -0.0672687 0.987989 
0.145615 -0.0550491 0.987809 
0.124977 -0.0388446 0.991399 
0.135526 -0.028423 0.990366 
0.118891 -0.016054 0.992778 
0.133101 -0.00570292 0.991086 
0.1186 0.00436501 0.992933 
0.135536 0.0160996 0.990642 
0.123809 0.0251926 0.991986 
0.144477 0.039975 0.9887 
0.135427 0.0502086 0.989514 
0.128956 0.0624566 0.989682 
0.153427 0.0836541 0.984613 
0.144741 0.100202 0.984383 
0.166975 0.128541 0.977546 
0.156083 0.15261 0.975883 
0.174062 0.192737 0.965689 
0.189618 0.239451 0.952212 
0.198634 0.302812 0.932121 
0.218791 0.37691 0.900038 
0.24289 0.460217 0.853935 
0.26264 -0.448592 0.854275 
0.241884 -0.37622 0.894399 
0.221314 -0.313146 0.923558 
0.20448 -0.259408 0.943873 
0.190111 -0.219968 0.956803 
0.170307 -0.182385 0.968365 
0.149755 -0.149073 0.97742 
0.154849 -0.134003 0.978808 
0.130865 -0.106531 0.98566 
0.134191 -0.0926381 0.986616 
0.110723 -0.0715869 0.99127 
0.113793 -0.0598502 0.9917 
0.118607 -0.0494834 0.991708 
0.101022 -0.0351136 0.994264 
0.109006 -0.0258575 0.993705 
0.0955241 -0.0153438 0.995309 
0.10638 -0.00599375 0.994307 
0.094976 0.00260003 0.995476 
0.108143 0.0131902 0.994048 
0.098717 0.0217443 0.994878 
0.115646 0.0349097 0.992677 
0.108681 0.0449819 0.993058 
0.102849 0.0565524 0.993088 
0.123286 0.0760419 0.989453 
0.117172 0.091532 0.988885 
0.136117 0.118599 0.983568 
0.128398 0.139494 0.981863 
0.144052 0.175977 0.973797 
0.158369 0.22028 0.962495 
0.171403 0.268475 0.947915 
0.188527 0.333476 0.923716 
0.211623 0.408421 0.887923 
0.238811 0.491078 0.837742 
0.243516 -0.475116 0.845556 
0.222746 -0.400303 0.888899 
0.202624 -0.334225 0.920455 
0.185133 -0.277903 0.9426 
0.169344 -0.232419 0.95776 
0.154912 -0.19457 0.968579 
0.138687 -0.160871 0.977183 
0.121357 -0.132437 0.983734 
0.12629 -0.118088 0.98494 
0.106542 -0.0967228 0.989593 
0.109776 -0.0836386 0.990431 
0.0906214 -0.0636675 0.993848 
0.0921059 -0.0536848 0.994301 
0.0960268 -0.0442141 0.994396 
0.0809773 -0.0313741 0.996222 
0.0876292 -0.023429 0.995878 
0.0755459 -0.0139597 0.997045 
0.0848097 -0.0059801 0.996379 
0.0745422 0.00183958 0.997216 
0.085916 0.0109824 0.996242 
0.0779206 0.0184897 0.996788 
0.0922332 0.0304723 0.995271 
0.0861617 0.0401333 0.995472 
0.082994 0.0509341 0.995248 
0.0992453 0.0700715 0.992593 
0.0938 0.0851621 0.991942 
0.109422 0.107685 0.988145 
0.104897 0.12386 0.98674 
0.117543 0.15713 0.980558 
0.131749 0.195252 0.971864 
0.144694 0.239467 0.960062 
0.160841 0.293025 0.942479 
0.182053 0.358016 0.915795 
0.20732 0.431936 0.877753 
0.236427 0.512428 0.825542 
0.228005 -0.495942 0.837887 
0.206428 -0.419614 0.883918 
0.186209 -0.351954 0.917308 
0.168414 -0.293594 0.940978 
0.151885 -0.244037 0.957798 
0.137923 -0.2025 0.969521 
0.12356 -0.167874 0.978034 
0.110387 -0.135782 0.98457 
0.101056 -0.1087 0.988925 
0.087709 -0.086953 0.992344 
0.089498 -0.0747614 0.993177 
0.0735777 -0.0568003 0.995671 
0.0743245 -0.0471655 0.996118 
0.0775436 -0.0394874 0.996207 
0.0648536 -0.0280868 0.997499 
0.0700702 -0.0216196 0.997308 
0.0605402 -0.0128877 0.998083 
0.0678128 -0.00640295 0.997678 
0.0595029 0.00106043 0.998228 
0.0683137 0.00885485 0.997625 
0.0614237 0.0164025 0.997977 
0.0732114 0.0268353 0.996955 
0.068662 0.0354206 0.997011 
0.0657744 0.0457404 0.996786 
0.0794678 0.0636621 0.994802 
0.0761734 0.0773879 0.994087 
0.0867238 0.101466 0.991052 
0.0940724 0.132604 0.986695 
0.106416 0.16724 0.980156 
0.119167 0.207417 0.970967 
0.135081 0.254544 0.957581 
0.153486 0.310011 0.938262 
0.176431 0.374534 0.910273 
0.203509 0.446911 0.871123 
0.233807 0.525522 0.818023 
0.214364 -0.510593 0.832672 
0.192256 -0.43365 0.880332 
0.172088 -0.365476 0.914775 
0.153416 -0.305286 0.939821 
0.137638 -0.254136 0.957325 
0.12334 -0.210741 0.96973 
0.110518 -0.173754 0.978568 
0.0988925 -0.142583 0.98483 
0.0893308 -0.116072 0.989216 
0.0807944 -0.0950212 0.992191 
0.0709896 -0.0760002 0.994578 
0.0727358 -0.0669743 0.9951 
0.0603249 -0.0522271 0.996812 
0.0596176 -0.0432386 0.997284 
0.0619593 -0.0356105 0.997443 
0.0517435 -0.0259274 0.998324 
0.0558537 -0.0194762 0.998249 
0.0475464 -0.0124044 0.998792 
0.0533499 -0.00587962 0.998559 
0.0465449 -5.46728e-05 0.998916 
0.0536773 0.00770767 0.998529 
0.0484629 0.0137051 0.998731 
0.0576839 0.0238552 0.99805 
0.053968 0.0324636 0.998015 
0.0528162 0.0426274 0.997694 
0.0637066 0.0569108 0.996345 
0.0606027 0.0676193 0.995869 
0.0690424 0.0883676 0.993692 
0.0768107 0.111015 0.990846 
0.0849605 0.141264 0.98632 
0.0967008 0.176244 0.979585 
0.110266 0.21693 0.96994 
0.126661 0.264777 0.955955 
0.146928 0.320236 0.935874 
0.170752 0.383604 0.907575 
0.198769 0.454346 0.868367 
0.229975 0.531306 0.815368 
0.201203 -0.519552 0.830411 
0.179384 -0.443096 0.878344 
0.158284 -0.374013 0.913816 
0.140273 -0.313932 0.939026 
0.124352 -0.261457 0.957171 
0.110167 -0.216654 0.970012 
0.0981998 -0.178571 0.979014 
0.0871166 -0.146667 0.985342 
0.0788439 -0.119246 0.989729 
0.0701336 -0.0970252 0.992808 
0.0627004 -0.0784456 0.994945 
0.0579547 -0.0619267 0.996397 
0.0499945 -0.0477759 0.997606 
0.0475815 -0.0386275 0.99812 
0.0498112 -0.0318124 0.998252 
0.0415502 -0.0228362 0.998875 
0.0448401 -0.0174586 0.998842 
0.0384445 -0.0107489 0.999203 
0.0430398 -0.00559178 0.999058 
0.0373029 0.000108003 0.999304 
0.0427379 0.00639003 0.999066 
0.0382236 0.0122556 0.999194 
0.0455019 0.0213959 0.998735 
0.0427165 0.0285206 0.99868 
0.042422 0.0379267 0.99838 
0.0492325 0.0531609 0.997372 
0.0531665 0.0720204 0.995985 
0.059856 0.0924779 0.993914 
0.0674115 0.117583 0.990772 
0.0761463 0.14657 0.986265 
0.0874981 0.181961 0.979405 
0.101586 0.222356 0.969659 
0.118624 0.270136 0.955487 
0.139128 0.324391 0.935636 
0.163656 0.386316 0.907732 
0.192333 0.455363 0.869283 
0.224178 0.530305 0.817631 
0.18724 -0.523617 0.831124 
0.165916 -0.447917 0.878545 
0.145763 -0.380129 0.913376 
0.127566 -0.319532 0.938949 
0.111981 -0.266573 0.957287 
0.0985064 -0.220686 0.970358 
0.0865601 -0.181809 0.979517 
0.0767334 -0.14836 0.985952 
0.068111 -0.121109 0.9903 
0.06067 -0.098095 0.993326 
0.0541095 -0.0793652 0.995376 
0.0496763 -0.064387 0.996688 
0.0457786 -0.052581 0.997567 
0.0401933 -0.0416628 0.998323 
0.0380618 -0.0337447 0.998705 
0.0398196 -0.0287442 0.998793 
0.0332542 -0.0205048 0.999237 
0.0356209 -0.016298 0.999232 
0.0301372 -0.010123 0.999495 
0.0334324 -0.00586082 0.999424 
0.0291653 -0.000393949 0.999575 
0.0335377 0.00486922 0.999426 
0.0300754 0.010615 0.999491 
0.0359767 0.0180491 0.99919 
0.0337691 0.0249019 0.999119 
0.0337752 0.0328749 0.998889 
0.0378021 0.0442574 0.998305 
0.0421131 0.057736 0.997443 
0.0454514 0.0746217 0.996176 
0.0514857 0.0954153 0.994105 
0.0587229 0.119423 0.991105 
0.0673888 0.14967 0.986437 
0.0786609 0.183803 0.979811 
0.0927297 0.225113 0.96991 
0.109437 0.271194 0.956283 
0.130177 0.32505 0.936694 
0.154484 0.384347 0.910171 
0.183362 0.45122 0.873372 
0.215155 0.522777 0.824871 
0.171266 -0.523181 0.834835 
0.152778 -0.45104 0.87933 
0.132556 -0.385799 0.91301 
0.115691 -0.325539 0.938424 
0.100755 -0.273295 0.956639 
0.0877445 -0.226508 0.970049 
0.0767819 -0.186396 0.97947 
0.0668504 -0.152507 0.986039 
0.0591458 -0.123444 0.990587 
0.0524409 -0.0997012 0.993635 
0.0458088 -0.079793 0.995758 
0.0419628 -0.0632332 0.997116 
0.0376119 -0.0499678 0.998042 
0.0333837 -0.0390011 0.998681 
0.0309698 -0.0304644 0.999056 
0.0312692 -0.0251344 0.999195 
0.0268241 -0.0190969 0.999458 
0.0289397 -0.0145061 0.999476 
0.0246265 -0.00945544 0.999652 
0.0278211 -0.00494352 0.999601 
0.0235519 -0.000563259 0.999722 
0.0269158 0.00492857 0.999626 
0.0239907 0.00986073 0.999664 
0.0278728 0.0165375 0.999475 
0.0264543 0.0228705 0.999388 
0.0280767 0.0325369 0.999076 
0.0311403 0.044505 0.998524 
0.0346373 0.0588651 0.997665 
0.0384957 0.0764684 0.996329 
0.0439719 0.0976967 0.994244 
0.050703 0.123126 0.991095 
0.0593121 0.152552 0.986514 
0.0700878 0.188036 0.979658 
0.0832061 0.227407 0.970238 
0.0999884 0.27399 0.956521 
0.118996 0.323948 0.938561 
0.142843 0.381673 0.913193 
0.171017 0.443359 0.879878 
0.200601 0.508764 0.837209 
0.151328 -0.518731 0.841438 
0.138876 -0.458405 0.877826 
0.119876 -0.393945 0.911283 
0.104094 -0.336251 0.936002 
0.0898773 -0.281905 0.955223 
0.0778728 -0.23441 0.969014 
0.0670592 -0.193369 0.978832 
0.0584617 -0.157608 0.98577 
0.0510623 -0.12803 0.990455 
0.0446964 -0.103278 0.993648 
0.0394874 -0.0824937 0.995809 
0.0355993 -0.0655804 0.997212 
0.0317511 -0.0520338 0.99814 
0.0292161 -0.0404714 0.998753 
0.025844 -0.0312053 0.999179 
0.0248239 -0.0234773 0.999416 
0.0219331 -0.0169527 0.999616 
0.022937 -0.0130655 0.999652 
0.0202666 -0.00808082 0.999762 
0.0217461 -0.00476212 0.999752 
0.0195399 -0.000604856 0.999809 
0.021437 0.00405849 0.999762 
0.0193315 0.00904191 0.999772 
0.0216893 0.015956 0.999637 
0.021828 0.024474 0.999462 
0.0233253 0.0353792 0.999102 
0.0258698 0.0473169 0.998545 
0.0288495 0.0622644 0.997643 
0.0320909 0.0805048 0.996237 
0.0372015 0.101863 0.994103 
0.0432888 0.127533 0.990889 
0.0508578 0.15777 0.986165 
0.0610237 0.192537 0.97939 
0.0730997 0.232676 0.969803 
0.0878564 0.27706 0.956828 
0.106447 0.327393 0.938873 
0.12804 0.379872 0.916135 
0.155084 0.43848 0.885259 
0.175438 0.488242 0.854893 
0.13107 -0.513329 0.848124 
0.114264 -0.432849 0.894196 
0.0950361 -0.360242 0.928005 
0.0799635 -0.298428 0.951077 
0.0678444 -0.246807 0.966687 
0.058028 -0.201969 0.977671 
0.0496131 -0.164649 0.985104 
0.0427312 -0.133269 0.990158 
0.0373859 -0.106834 0.993574 
0.0329525 -0.0855922 0.995785 
0.028935 -0.0679048 0.997272 
0.0268064 -0.0534168 0.998212 
0.0239264 -0.0423881 0.998815 
0.0220876 -0.0328783 0.999215 
0.0210868 -0.0253922 0.999455 
0.0194379 -0.0197491 0.999616 
0.0174993 -0.0144138 0.999743 
0.0191308 -0.0117467 0.999748 
0.0159625 -0.00776021 0.999842 
0.017659 -0.00438398 0.999834 
0.0153845 -0.000192708 0.999882 
0.0172718 0.00321169 0.999846 
0.0160837 0.00707383 0.999846 
0.0165729 0.0123958 0.999786 
0.0173575 0.018979 0.999669 
0.0178218 0.0271893 0.999471 
0.018788 0.0373164 0.999127 
0.0206812 0.0501216 0.998529 
0.0228508 0.0653089 0.997603 
0.0259009 0.0839152 0.996136 
0.0296519 0.106468 0.993874 
0.03503 0.132778 0.990527 
0.0416157 0.163796 0.985616 
0.0499061 0.199789 0.978567 
0.060998 0.241042 0.968596 
0.0746185 0.28799 0.954722 
0.0924091 0.341725 0.935246 
0.119258 0.40476 0.906613 
0.143318 0.469517 0.871214 
0.106075 -0.505785 0.856113 
0.0975376 -0.442099 0.891648 
0.0819823 -0.378103 0.922126 
0.0683614 -0.315804 0.946359 
0.0573625 -0.261057 0.963617 
0.0479688 -0.214142 0.975624 
0.0404868 -0.174636 0.9838 
0.034672 -0.141086 0.98939 
0.0300002 -0.113776 0.993053 
0.0259314 -0.0912205 0.995493 
0.0234188 -0.0721396 0.99712 
0.021207 -0.0575782 0.998116 
0.0191899 -0.0451113 0.998798 
0.0182341 -0.0353665 0.999208 
0.0169901 -0.0274511 0.999479 
0.0160653 -0.0209448 0.999652 
0.0152682 -0.0160015 0.999755 
0.015057 -0.0109806 0.999826 
0.0138698 -0.00708251 0.999879 
0.0154371 -0.00412249 0.999872 
0.0131026 -0.000304115 0.999914 
0.0135542 0.00377135 0.999901 
0.012563 0.00918286 0.999879 
0.0137063 0.015235 0.99979 
0.0133474 0.0220812 0.999667 
0.0138077 0.0310904 0.999421 
0.0144335 0.0421568 0.999007 
0.0156763 0.0552344 0.99835 
0.0170794 0.0715191 0.997293 
0.0190575 0.0909338 0.995675 
0.0221154 0.11397 0.993238 
0.0255773 0.141554 0.9896 
0.0306947 0.173411 0.984371 
0.0370295 0.210391 0.976916 
0.0449882 0.252634 0.966516 
0.0558414 0.299705 0.952396 
0.0708305 0.35213 0.933267 
0.0882764 0.403251 0.910822 
0.0967396 0.451347 0.887089 
0.0824723 -0.498495 0.86296 
0.0699022 -0.415906 0.906717 
0.0563231 -0.341967 0.938022 
0.0451556 -0.281133 0.958606 
0.0368163 -0.22954 0.972603 
0.0304418 -0.186587 0.981967 
0.0252113 -0.150969 0.988217 
0.0212643 -0.121695 0.99234 
0.0187735 -0.0968115 0.995126 
0.016537 -0.0775147 0.996854 
0.014999 -0.0609019 0.998031 
0.014399 -0.0479636 0.998745 
0.0133654 -0.0375579 0.999205 
0.0130376 -0.0288891 0.999498 
0.0128883 -0.0226456 0.99966 
0.0121673 -0.0167612 0.999785 
0.0123849 -0.0126261 0.999844 
0.0117509 -0.00897522 0.999891 
0.0119064 -0.00609849 0.999911 
0.011297 -0.00296467 0.999932 
0.0118981 -0.00171343 0.999928 
0.0107844 0.00257248 0.999939 
0.0109099 0.00629661 0.999921 
0.0104247 0.0116796 0.999877 
0.00973669 0.0173073 0.999803 
0.00993822 0.0251398 0.999635 
0.00946081 0.0345204 0.999359 
0.00969759 0.0461608 0.998887 
0.0098121 0.0604543 0.998123 
0.0104356 0.077505 0.996937 
0.0111967 0.0985257 0.995072 
0.0124536 0.123076 0.992319 
0.0145127 0.152128 0.988254 
0.0167314 0.186236 0.982363 
0.0204374 0.225295 0.974076 
0.0250337 0.270657 0.96235 
0.0310726 0.321204 0.9465 
0.042093 0.379821 0.924102 
0.0478433 0.44129 0.896088 
0.0574675 -0.491018 0.869252 
0.0481175 -0.424647 0.90408 
0.0387533 -0.362188 0.931299 
0.0304887 -0.300561 0.953275 
0.0235555 -0.246734 0.968797 
0.0180427 -0.201495 0.979323 
0.0141191 -0.163784 0.986395 
0.0117751 -0.132017 0.991178 
0.00979395 -0.106432 0.994272 
0.00865804 -0.0851558 0.99633 
0.00859089 -0.0672482 0.997699 
0.00815919 -0.0537494 0.998521 
0.00829847 -0.0416977 0.999096 
0.00880154 -0.0328855 0.99942 
0.00880468 -0.0251378 0.999645 
0.00911754 -0.0194075 0.99977 
0.00935717 -0.0144922 0.999851 
0.00951401 -0.0106718 0.999898 
0.00902472 -0.00672818 0.999937 
0.00740903 -0.00237875 0.99997 
0.00781083 0.0015624 0.999968 
0.0088099 0.00511177 0.999948 
0.00730388 0.00913378 0.999932 
0.0071598 0.0150366 0.999861 
0.00633098 0.0219602 0.999739 
0.00549724 0.0299907 0.999535 
0.00475085 0.0407362 0.999159 
0.00397254 0.0532563 0.998573 
0.00326986 0.0688478 0.997622 
0.00234402 0.0873421 0.996176 
0.00190971 0.109688 0.993964 
0.000964141 0.136183 0.990683 
0.000539374 0.167072 0.985945 
-6.71275e-05 0.203215 0.979134 
-0.00087662 0.24455 0.969636 
-0.00137253 0.291241 0.956649 
-0.00246094 0.341498 0.939879 
-0.00391209 0.390174 0.920733 
-0.00522368 0.439203 0.898373 
0.0307117 -0.480116 0.876667 
0.0188789 -0.396814 0.917705 
0.012437 -0.326101 0.945253 
0.00707815 -0.267652 0.96349 
0.0032365 -0.218708 0.975785 
0.00100621 -0.177747 0.984076 
-0.000636035 -0.144217 0.989546 
-0.00102844 -0.116303 0.993213 
-0.000325273 -0.0927562 0.995689 
-0.000101071 -0.0743464 0.997232 
0.000999436 -0.058244 0.998302 
0.00242094 -0.0462465 0.998927 
0.00318271 -0.0355608 0.999362 
0.00437333 -0.0277579 0.999605 
0.00526413 -0.0211144 0.999763 
0.00600906 -0.0159985 0.999854 
0.0065301 -0.0112637 0.999915 
0.00631971 -0.00860814 0.999943 
0.00895553 -0.00516772 0.999947 
0.00449678 -0.00264338 0.999986 
0.00894161 -0.000819474 0.99996 
0.00584791 0.00282997 0.999979 
0.00532929 0.00710006 0.999961 
0.00489136 0.011862 0.999918 
0.00334724 0.0179791 0.999833 
0.00205882 0.0251404 0.999682 
0.000890591 0.0348369 0.999393 
-0.000952013 0.046082 0.998937 
-0.00275799 0.060152 0.998185 
-0.00469989 0.0772608 0.997 
-0.00706303 0.0980295 0.995158 
-0.00986449 0.122403 0.992431 
-0.0126357 0.151562 0.988367 
-0.0167244 0.18561 0.982481 