# vtk DataFile Version 3.0 
Exported using Morpho https://github.com/Morpho-lang/morpho 
ASCII 
DATASET UNSTRUCTURED_GRID 

POINTS 1245 float 
-0.303845 -0.952721 0 
-0.250833 -0.96803 0 
-0.195084 -0.980787 0 
-0.146308 -0.989239 0 
-0.0940719 -0.995565 0 
-0.0475118 -0.998871 0 
-0.000246339 -1 0 
0.0470875 -0.998891 0 
0.0937543 -0.995595 0 
0.146139 -0.989264 0 
0.195062 -0.980791 0 
0.250843 -0.968028 0 
0.303953 -0.952687 0 
-0.409153 -0.912466 0 
-0.356519 -0.934288 0 
-0.308871 -0.898929 0 
-0.258282 -0.916037 0 
-0.207345 -0.934859 0 
-0.154868 -0.930629 0 
-0.104343 -0.948989 0 
-0.0520099 -0.939193 0 
-8.5762e-05 -0.954582 0 
0.0518744 -0.939288 0 
0.104354 -0.949042 0 
0.154696 -0.9306 0 
0.207366 -0.934975 0 
0.258274 -0.916081 0 
0.308979 -0.898924 0 
0.356593 -0.93426 0 
0.409236 -0.912429 0 
-0.513788 -0.857917 0 
-0.461695 -0.887039 0 
-0.411157 -0.857936 0 
-0.359855 -0.879963 0 
-0.306888 -0.847481 0 
-0.254732 -0.866979 0 
-0.201991 -0.889059 0 
-0.149956 -0.874108 0 
-0.100608 -0.900088 0 
-0.0497575 -0.880388 0 
2.4595e-05 -0.904789 0 
0.0496869 -0.8804 0 
0.100612 -0.900177 0 
0.149872 -0.874171 0 
0.202071 -0.889165 0 
0.254695 -0.867031 0 
0.306946 -0.847482 0 
0.359894 -0.879943 0 
0.411236 -0.857929 0 
0.461748 -0.887011 0 
0.513842 -0.857885 0 
-0.564741 -0.825268 0 
-0.512908 -0.802945 0 
-0.462372 -0.832348 0 
-0.410124 -0.804631 0 
-0.358606 -0.827415 0 
-0.305781 -0.795641 0 
-0.25358 -0.816639 0 
-0.200756 -0.839997 0 
-0.149043 -0.818944 0 
-0.0987265 -0.846667 0 
-0.0490473 -0.822548 0 
5.00659e-05 -0.849932 0 
0.0490834 -0.822542 0 
0.0987838 -0.846676 0 
0.148997 -0.818924 0 
0.200826 -0.840131 0 
0.253508 -0.816728 0 
0.305831 -0.795701 0 
0.358581 -0.827419 0 
0.410181 -0.804654 0 
0.462414 -0.83234 0 
0.512965 -0.802929 0 
0.564777 -0.825243 0 
-0.660798 -0.750564 0 
-0.614015 -0.789295 0 
-0.561786 -0.769772 0 
-0.510673 -0.747856 0 
-0.460836 -0.778365 0 
-0.408794 -0.751554 0 
-0.357337 -0.774971 0 
-0.304815 -0.743684 0 
-0.252907 -0.765535 0 
-0.200631 -0.789263 0 
-0.149244 -0.764328 0 
-0.0986912 -0.791935 0 
-0.0492815 -0.765764 0 
4.16586e-05 -0.79382 0 
0.0492411 -0.765708 0 
0.0987508 -0.791951 0 
0.149196 -0.764326 0 
0.200666 -0.789356 0 
0.252841 -0.765599 0 
0.304862 -0.743741 0 
0.357323 -0.775038 0 
0.408863 -0.751626 0 
0.460863 -0.778382 0 
0.510716 -0.747859 0 
0.561819 -0.769761 0 
0.614041 -0.789274 0 
0.660811 -0.750552 0 
-0.707107 -0.707107 0 
-0.654819 -0.699058 0 
-0.60813 -0.73348 0 
-0.558104 -0.71337 0 
-0.509495 -0.692659 0 
-0.45935 -0.724356 0 
-0.407328 -0.698865 0 
-0.355968 -0.722823 0 
-0.303722 -0.691387 0 
-0.252254 -0.71362 0 
-0.20067 -0.737336 0 
-0.149608 -0.710068 0 
-0.0991558 -0.737129 0 
-0.0495872 -0.709825 0 
-2.23646e-05 -0.737917 0 
0.0494408 -0.709766 0 
0.0991291 -0.737116 0 
0.149502 -0.710042 0 
0.200696 -0.73743 0 
0.252186 -0.713735 0 
0.303753 -0.691518 0 
0.355952 -0.722893 0 
0.407371 -0.698945 0 
0.459374 -0.724407 0 
0.509524 -0.692668 0 
0.558131 -0.713361 0 
0.608151 -0.733462 0 
0.654824 -0.699048 0 
0.707107 -0.707107 0 
-0.750564 -0.660798 0 
-0.699058 -0.654819 0 
-0.647692 -0.647692 0 
-0.603437 -0.675718 0 
-0.55905 -0.655305 0 
-0.508501 -0.639581 0 
-0.457509 -0.671321 0 
-0.405555 -0.646545 0 
-0.354417 -0.670703 0 
-0.302427 -0.639219 0 
-0.251503 -0.661417 0 
-0.20061 -0.684911 0 
-0.149717 -0.655943 0 
-0.0995004 -0.682466 0 
-0.0498216 -0.654561 0 
-5.02113e-05 -0.682664 0 
0.0496787 -0.654499 0 
0.0994374 -0.682501 0 
0.149603 -0.655909 0 
0.200573 -0.684972 0 
0.251388 -0.661524 0 
0.302407 -0.639359 0 
0.354397 -0.670836 0 
0.405575 -0.646641 0 
0.457525 -0.67138 0 
0.508497 -0.639623 0 
0.559063 -0.655324 0 
0.603436 -0.675715 0 
0.64769 -0.64769 0 
0.699048 -0.654824 0 
0.750552 -0.660811 0 
-0.789295 -0.614015 0 
-0.73348 -0.60813 0 
-0.675718 -0.603437 0 
-0.613088 -0.613088 0 
-0.55962 -0.604068 0 
-0.506189 -0.588854 0 
-0.455505 -0.618874 0 
-0.403019 -0.594688 0 
-0.352514 -0.618952 0 
-0.300977 -0.586897 0 
-0.250543 -0.608767 0 
-0.200257 -0.632053 0 
-0.150049 -0.601979 0 
-0.0998281 -0.628222 0 
-0.0500377 -0.599914 0 
-3.12334e-05 -0.628076 0 
0.0498927 -0.599835 0 
0.0997818 -0.628253 0 
0.149924 -0.601867 0 
0.200214 -0.632118 0 
0.250423 -0.608915 0 
0.30086 -0.587085 0 
0.352457 -0.619096 0 
0.402948 -0.594743 0 
0.455483 -0.618952 0 
0.506147 -0.588901 0 
0.55964 -0.604067 0 
0.613069 -0.613069 0 
0.675715 -0.603436 0 
0.733462 -0.608151 0 
0.789274 -0.614041 0 
-0.825268 -0.564741 0 
-0.769772 -0.561786 0 
-0.71337 -0.558104 0 
-0.655305 -0.55905 0 
-0.604068 -0.55962 0 
-0.551031 -0.551031 0 
-0.497922 -0.537596 0 
-0.451508 -0.567021 0 
-0.399773 -0.542431 0 
-0.350494 -0.567003 0 
-0.301574 -0.534146 0 
-0.250874 -0.555692 0 
-0.200542 -0.579013 0 
-0.150324 -0.548268 0 
-0.100169 -0.57443 0 
-0.0500152 -0.545912 0 
-3.29278e-05 -0.574268 0 
0.0499208 -0.545788 0 
0.100058 -0.574485 0 
0.150038 -0.548073 0 
0.200377 -0.579041 0 
0.250556 -0.55585 0 
0.301273 -0.534348 0 
0.350318 -0.567174 0 
0.399615 -0.542384 0 
0.451404 -0.5671 0 
0.497945 -0.537702 0 
0.551073 -0.551073 0 
0.604067 -0.55964 0 
0.655324 -0.559063 0 
0.713361 -0.558131 0 
0.769761 -0.561819 0 
0.825243 -0.564777 0 
-0.857917 -0.513788 0 
-0.802945 -0.512908 0 
-0.747856 -0.510673 0 
-0.692659 -0.509495 0 
-0.639581 -0.508501 0 
-0.588854 -0.506189 0 
-0.537596 -0.497922 0 
-0.486157 -0.486157 0 
-0.444928 -0.512952 0 
-0.401787 -0.486784 0 
-0.351685 -0.513639 0 
-0.299695 -0.48291 0 
-0.250032 -0.503 0 
-0.200501 -0.526165 0 
-0.149489 -0.495195 0 
-0.0999281 -0.521367 0 
-0.0499712 -0.492294 0 
4.64723e-05 -0.520999 0 
0.050147 -0.492108 0 
0.099934 -0.52133 0 
0.14957 -0.494692 0 
0.200133 -0.526255 0 
0.249839 -0.503309 0 
0.299839 -0.483005 0 
0.351514 -0.513798 0 
0.401881 -0.486608 0 
0.444935 -0.513054 0 
0.486228 -0.486228 0 
0.537702 -0.497945 0 
0.588901 -0.506147 0 
0.639623 -0.508497 0 
0.692668 -0.509524 0 
0.747859 -0.510716 0 
0.802929 -0.512965 0 
0.857885 -0.513842 0 
-0.887039 -0.461695 0 
-0.832348 -0.462372 0 
-0.778365 -0.460836 0 
-0.724356 -0.45935 0 
-0.671321 -0.457509 0 
-0.618874 -0.455505 0 
-0.567021 -0.451508 0 
-0.512952 -0.444928 0 
-0.450685 -0.450685 0 
-0.397667 -0.437543 0 
-0.348492 -0.462546 0 
-0.295416 -0.432968 0 
-0.247004 -0.450633 0 
-0.198702 -0.473818 0 
-0.150161 -0.441625 0 
-0.100085 -0.468395 0 
-0.0502271 -0.439281 0 
0.000144229 -0.468374 0 
0.0504178 -0.439106 0 
0.100428 -0.468348 0 
0.150697 -0.441105 0 
0.199103 -0.473881 0 
0.247983 -0.450921 0 
0.296569 -0.432268 0 
0.348831 -0.462562 0 
0.397506 -0.4368 0 
0.450637 -0.450637 0 
0.513054 -0.444935 0 
0.5671 -0.451404 0 
0.618952 -0.455483 0 
0.67138 -0.457525 0 
0.724407 -0.459374 0 
0.778382 -0.460863 0 
0.83234 -0.462414 0 
0.887011 -0.461748 0 
-0.912466 -0.409153 0 
-0.857936 -0.411157 0 
-0.804631 -0.410124 0 
-0.751554 -0.408794 0 
-0.698865 -0.407328 0 
-0.646545 -0.405555 0 
-0.594688 -0.403019 0 
-0.542431 -0.399773 0 
-0.486784 -0.401787 0 
-0.437543 -0.397667 0 
-0.387256 -0.387256 0 
-0.344215 -0.411459 0 
-0.30136 -0.381507 0 
-0.25021 -0.395692 0 
-0.200211 -0.419975 0 
-0.150955 -0.389014 0 
-0.100617 -0.416095 0 
-0.0503197 -0.386922 0 
-4.02994e-05 -0.416525 0 
0.05006 -0.386948 0 
0.100784 -0.416323 0 
0.150432 -0.388572 0 
0.200855 -0.420694 0 
0.25086 -0.396905 0 
0.301746 -0.379789 0 
0.344135 -0.410678 0 
0.385823 -0.385823 0 
0.4368 -0.397506 0 
0.486608 -0.401881 0 
0.542384 -0.399615 0 
0.594743 -0.402948 0 
0.646641 -0.405575 0 
0.698945 -0.407371 0 
0.751626 -0.408863 0 
0.804654 -0.410181 0 
0.857929 -0.411236 0 
0.912429 -0.409236 0 
-0.934288 -0.356519 0 
-0.879963 -0.359855 0 
-0.827415 -0.358606 0 
-0.774971 -0.357337 0 
-0.722823 -0.355968 0 
-0.670703 -0.354417 0 
-0.618952 -0.352514 0 
-0.567003 -0.350494 0 
-0.513639 -0.351685 0 
-0.462546 -0.348492 0 
-0.411459 -0.344215 0 
-0.351697 -0.351697 0 
-0.29839 -0.336232 0 
-0.249846 -0.342529 0 
-0.200971 -0.367271 0 
-0.149995 -0.337521 0 
-0.100435 -0.3646 0 
-0.0498692 -0.335025 0 
-6.88684e-05 -0.365025 0 
0.0495433 -0.334795 0 
0.0996798 -0.364834 0 
0.148162 -0.337172 0 
0.199644 -0.368939 0 
0.24763 -0.345582 0 
0.295348 -0.332889 0 
0.34978 -0.34978 0 
0.410678 -0.344135 0 
0.462562 -0.348831 0 
0.513798 -0.351514 0 
0.567174 -0.350318 0 
0.619096 -0.352457 0 
0.670836 -0.354397 0 
0.722893 -0.355952 0 
0.775038 -0.357323 0 
0.827419 -0.358581 0 
0.879943 -0.359894 0 
0.93426 -0.356593 0 
-0.952721 -0.303845 0 
-0.898929 -0.308871 0 
-0.847481 -0.306888 0 
-0.795641 -0.305781 0 
-0.743684 -0.304815 0 
-0.691387 -0.303722 0 
-0.639219 -0.302427 0 
-0.586897 -0.300977 0 
-0.534146 -0.301574 0 
-0.48291 -0.299695 0 
-0.432968 -0.295416 0 
-0.381507 -0.30136 0 
-0.336232 -0.29839 0 
-0.288184 -0.288184 0 
-0.242975 -0.290577 0 
-0.198059 -0.315051 0 
-0.148383 -0.285894 0 
-0.0994753 -0.313232 0 
-0.0507184 -0.283118 0 
-0.000202902 -0.313447 0 
0.0500077 -0.282824 0 
0.0988289 -0.312817 0 
0.148102 -0.28482 0 
0.195742 -0.317413 0 
0.240766 -0.295824 0 
0.285014 -0.285014 0 
0.332889 -0.295348 0 
0.379789 -0.301746 0 
0.432268 -0.296569 0 
0.483005 -0.299839 0 
0.534348 -0.301273 0 
0.587085 -0.30086 0 
0.639359 -0.302407 0 
0.691518 -0.303753 0 
0.743741 -0.304862 0 
0.795701 -0.305831 0 
0.847482 -0.306946 0 
0.898924 -0.308979 0 
0.952687 -0.303953 0 
-0.96803 -0.250833 0 
-0.916037 -0.258282 0 
-0.866979 -0.254732 0 
-0.816639 -0.25358 0 
-0.765535 -0.252907 0 
-0.71362 -0.252254 0 
-0.661417 -0.251503 0 
-0.608767 -0.250543 0 
-0.555692 -0.250874 0 
-0.503 -0.250032 0 
-0.450633 -0.247004 0 
-0.395692 -0.25021 0 
-0.342529 -0.249846 0 
-0.290577 -0.242975 0 
-0.239946 -0.239946 0 
-0.194478 -0.26004 0 
-0.151293 -0.23238 0 
-0.101048 -0.260904 0 
-0.0503938 -0.232537 0 
-0.000203281 -0.262984 0 
0.050638 -0.232316 0 
0.100942 -0.260855 0 
0.152412 -0.232597 0 
0.195768 -0.261421 0 
0.241873 -0.241873 0 
0.295824 -0.240766 0 
0.345582 -0.24763 0 
0.396905 -0.25086 0 
0.450921 -0.247983 0 
[...]
POINT_DATA 1245 
VECTORS vectors float
0.493587 -0.180247 0.850813 
0.500103 -0.144202 0.853875 
0.50829 -0.106108 0.854624 
0.515933 -0.0745235 0.853381 
0.523607 -0.0425073 0.850899 
0.529695 -0.0161463 0.848034 
0.534785 0.0088565 0.844942 
0.536043 0.0329341 0.843548 
0.53658 0.057078 0.841917 
0.536493 0.0841704 0.839696 
0.535422 0.107878 0.837667 
0.532918 0.132805 0.83568 
0.527521 0.15363 0.835535 
0.483307 -0.245468 0.840333 
0.488185 -0.214596 0.845945 
0.427855 -0.167503 0.888191 
0.435666 -0.137505 0.889544 
0.449605 -0.107882 0.886689 
0.437185 -0.0756133 0.896187 
0.459097 -0.0476144 0.887109 
0.445422 -0.0203854 0.895089 
0.468277 0.00548862 0.883565 
0.451843 0.0295805 0.891607 
0.471773 0.0557078 0.879959 
0.455174 0.0764075 0.887118 
0.473496 0.102405 0.874823 
0.460644 0.120979 0.879302 
0.451946 0.138931 0.88116 
0.518106 0.172158 0.837811 
0.503311 0.18965 0.843037 
0.467821 -0.294683 0.83325 
0.477296 -0.272043 0.835573 
0.418372 -0.22234 0.880642 
0.423703 -0.195496 0.884453 
0.370321 -0.150417 0.916644 
0.377613 -0.124387 0.917571 
0.392542 -0.0977118 0.914529 
0.370143 -0.0674173 0.926525 
0.396661 -0.0445342 0.916884 
0.372992 -0.0200645 0.927618 
0.403763 0.00337518 0.914858 
0.377546 0.0227988 0.92571 
0.407307 0.0470309 0.91208 
0.383068 0.0641803 0.921488 
0.411471 0.0892363 0.907044 
0.396083 0.106662 0.911998 
0.384413 0.124251 0.914762 
0.441173 0.156384 0.883691 
0.425515 0.174641 0.88794 
0.481555 0.208341 0.851292 
0.452315 0.230994 0.861425 
0.453196 -0.314657 0.834029 
0.401344 -0.266625 0.876261 
0.41167 -0.245764 0.877569 
0.35978 -0.199516 0.911456 
0.364184 -0.176514 0.914447 
0.316976 -0.136055 0.938624 
0.325356 -0.112951 0.938821 
0.339782 -0.0896716 0.936219 
0.312072 -0.0621997 0.94802 
0.337124 -0.0414079 0.940549 
0.311296 -0.0196366 0.95011 
0.340577 0.000392701 0.940217 
0.314714 0.0183863 0.949008 
0.344682 0.0396297 0.937883 
0.321455 0.0552433 0.945312 
0.352557 0.078846 0.932463 
0.337001 0.09517 0.936682 
0.325087 0.11173 0.939061 
0.372951 0.141731 0.916962 
0.358191 0.160461 0.919756 
0.404897 0.194444 0.893448 
0.378393 0.218714 0.899435 
0.41718 0.260162 0.870791 
0.406662 -0.355491 0.841577 
0.432584 -0.334289 0.83733 
0.385679 -0.28603 0.877176 
0.34052 -0.241318 0.908742 
0.351951 -0.221549 0.909421 
0.306318 -0.180385 0.934682 
0.312557 -0.158299 0.936616 
0.270503 -0.122991 0.95483 
0.278379 -0.102545 0.954982 
0.290489 -0.0819758 0.95336 
0.263324 -0.0572783 0.963006 
0.283694 -0.0387843 0.95813 
0.259526 -0.0195617 0.965538 
0.284558 -0.00136778 0.958658 
0.261627 0.0146457 0.965058 
0.288929 0.0337405 0.956756 
0.268739 0.0485273 0.96199 
0.299517 0.0701268 0.95151 
0.28428 0.0854133 0.954929 
0.272918 0.101462 0.956672 
0.313334 0.129515 0.94077 
0.299632 0.148519 0.942424 
0.338282 0.181928 0.923292 
0.315146 0.206315 0.926346 
0.347947 0.248292 0.904037 
0.379397 0.297253 0.876184 
0.343781 0.340373 0.875192 
0.375528 -0.380957 0.844897 
0.34727 -0.32979 0.877862 
0.365208 -0.305014 0.879539 
0.324693 -0.259766 0.909448 
0.287678 -0.219883 0.932144 
0.299129 -0.199965 0.933025 
0.26068 -0.162737 0.951611 
0.26586 -0.142876 0.953365 
0.229526 -0.110744 0.966982 
0.23628 -0.092902 0.967234 
0.246724 -0.0752387 0.966161 
0.220668 -0.0524408 0.973938 
0.237525 -0.0363009 0.970703 
0.215487 -0.0186639 0.976328 
0.236697 -0.00258553 0.97158 
0.216721 0.0119553 0.97616 
0.240785 0.0292137 0.970139 
0.223788 0.0426095 0.973706 
0.251283 0.0623678 0.965902 
0.238936 0.0771169 0.967968 
0.227497 0.0926068 0.969365 
0.262651 0.118626 0.957571 
0.249978 0.138295 0.958324 
0.282471 0.170026 0.944088 
0.262018 0.19579 0.944993 
0.289643 0.234685 0.927917 
0.317754 0.28216 0.905217 
0.29501 0.323533 0.899053 
0.312911 0.388215 0.866819 
0.343219 -0.409692 0.845194 
0.319606 -0.354235 0.878846 
0.295408 -0.304683 0.905485 
0.305316 -0.279041 0.910449 
0.27181 -0.239656 0.932032 
0.243559 -0.201779 0.948664 
0.252777 -0.182158 0.950222 
0.220426 -0.147625 0.964168 
0.225058 -0.129667 0.965679 
0.193484 -0.100605 0.975932 
0.199376 -0.0844655 0.976276 
0.208469 -0.0683778 0.975636 
0.18446 -0.0481633 0.981659 
0.19849 -0.0338706 0.979517 
0.178713 -0.0178059 0.98374 
0.19673 -0.0036279 0.980451 
0.179192 0.010014 0.983763 
0.200008 0.0254281 0.979464 
0.185361 0.0379678 0.981937 
0.210113 0.056428 0.976047 
0.198586 0.0697069 0.977601 
0.190077 0.0848535 0.978095 
0.219336 0.109492 0.969486 
0.208806 0.128529 0.969474 
0.235756 0.159549 0.958626 
0.220122 0.185043 0.957761 
0.240972 0.22454 0.9442 
0.265074 0.266841 0.92657 
0.253948 0.30376 0.918281 
0.271194 0.364427 0.890869 
0.29021 0.433809 0.852988 
0.313839 -0.438586 0.842109 
0.29013 -0.372942 0.881328 
0.267425 -0.314482 0.910815 
0.254806 -0.265236 0.929905 
0.231949 -0.223698 0.946657 
0.206398 -0.18644 0.960541 
0.21379 -0.16608 0.962658 
0.185436 -0.134842 0.973361 
0.190498 -0.116939 0.974698 
0.162439 -0.0913057 0.982485 
0.167627 -0.0762971 0.982894 
0.174749 -0.0623536 0.982637 
0.153698 -0.0441042 0.987133 
0.164769 -0.0311117 0.985841 
0.14804 -0.0169146 0.988837 
0.162457 -0.00386622 0.986708 
0.148082 0.00829953 0.98894 
0.165185 0.0223148 0.98601 
0.153129 0.0342716 0.987612 
0.174326 0.0505568 0.983389 
0.165059 0.0639632 0.984207 
0.157123 0.0779061 0.984501 
0.182294 0.101335 0.978008 
0.174158 0.119682 0.977418 
0.19693 0.149968 0.96888 
0.18619 0.17494 0.966814 
0.205152 0.215011 0.954821 
0.221809 0.262079 0.93921 
0.231829 0.322558 0.917721 
0.251973 0.392766 0.884446 
0.2754 0.471329 0.837857 
0.287321 -0.466822 0.836375 
0.266221 -0.397553 0.878111 
0.245284 -0.335696 0.909475 
0.227964 -0.282781 0.931701 
0.213616 -0.242082 0.946448 
0.193954 -0.203538 0.959664 
0.173133 -0.169002 0.97029 
0.17985 -0.151273 0.971993 
0.155816 -0.122223 0.980195 
0.159702 -0.106846 0.981366 
0.136108 -0.0835689 0.987163 
0.139745 -0.070093 0.987704 
0.145966 -0.0569884 0.987647 
0.127293 -0.0403624 0.991044 
0.136852 -0.0289252 0.990169 
0.121709 -0.0154573 0.992446 
0.134506 -0.00415629 0.990904 
0.121211 0.00739808 0.992599 
0.136382 0.0199543 0.990455 
0.125728 0.0308517 0.991585 
0.144196 0.0461502 0.988472 
0.135969 0.0586797 0.988974 
0.130292 0.0726155 0.988813 
0.151924 0.0937928 0.983932 
0.144473 0.111095 0.983253 
0.164758 0.139506 0.976418 
0.156173 0.160902 0.974536 
0.172559 0.198456 0.9648 
0.18865 0.241543 0.951876 
0.200517 0.289103 0.936062 
0.217605 0.35127 0.910636 
0.240098 0.422975 0.873754 
0.265068 0.501427 0.823596 
0.26433 -0.491979 0.82951 
0.24419 -0.420175 0.87397 
0.224754 -0.356353 0.906917 
0.206968 -0.301179 0.930836 
0.191579 -0.255116 0.947741 
0.177048 -0.21728 0.959918 
0.160388 -0.182647 0.970008 
0.14445 -0.151326 0.977872 
0.148725 -0.137415 0.979284 
0.129322 -0.11337 0.9851 
0.133521 -0.0985472 0.986134 
0.113468 -0.0766608 0.99058 
0.116365 -0.0637682 0.991157 
0.121517 -0.0522039 0.991216 
0.105388 -0.0369031 0.993746 
0.113188 -0.0266402 0.993216 
0.100575 -0.014669 0.994821 
0.110924 -0.00427503 0.99382 
0.100051 0.00622556 0.994963 
0.112307 0.0177836 0.993514 
0.103275 0.0281602 0.994254 
0.118713 0.042431 0.992022 
0.112391 0.0540212 0.992195 
0.107346 0.0674661 0.99193 
0.12541 0.0881295 0.988183 
0.119029 0.105035 0.98732 
0.13633 0.128229 0.98233 
0.130095 0.146358 0.98064 
0.144181 0.178949 0.973236 
0.157816 0.217488 0.96322 
0.17125 0.260486 0.950169 
0.187272 0.312835 0.931162 
0.206629 0.375112 0.903657 
0.230569 0.44618 0.864732 
0.257122 0.523405 0.812364 
0.244254 -0.51253 0.823197 
0.224452 -0.439218 0.86989 
0.205353 -0.373917 0.904443 
0.187571 -0.31637 0.929907 
0.172199 -0.267715 0.947985 
0.15759 -0.226077 0.961278 
0.144332 -0.189874 0.971142 
0.129989 -0.157915 0.978859 
0.121486 -0.128524 0.984237 
0.108547 -0.104274 0.988607 
0.111416 -0.0901063 0.98968 
0.0946473 -0.069606 0.993074 
0.0961591 -0.0581366 0.993667 
0.100537 -0.0473833 0.993804 
0.086493 -0.034271 0.995663 
0.0932018 -0.0242956 0.995351 
0.0819775 -0.0136952 0.99654 
0.0907927 -0.00369525 0.995863 
0.08124 0.00563674 0.996679 
0.0916997 0.0165302 0.995649 
0.0841977 0.0258856 0.996113 
0.0975059 0.0387154 0.994482 
0.0918397 0.0498836 0.994524 
0.0890089 0.061963 0.994102 
0.104046 0.0816298 0.991217 
0.0992349 0.0975279 0.990273 
0.110626 0.122271 0.986312 
0.117563 0.154227 0.981016 
0.129738 0.189971 0.97318 
0.143159 0.229525 0.962717 
0.157419 0.275695 0.948268 
0.175595 0.329685 0.927617 
0.196918 0.392075 0.89861 
0.221796 0.461789 0.858811 
0.249592 0.537575 0.80543 
0.226099 -0.527984 0.818604 
0.206502 -0.453848 0.866821 
0.187168 -0.387187 0.902803 
0.170341 -0.329046 0.928823 
0.154811 -0.278225 0.947958 
0.140993 -0.234688 0.961791 
0.12863 -0.197553 0.971816 
0.117006 -0.165212 0.979293 
0.108545 -0.136656 0.984654 
0.0993809 -0.114337 0.988459 
0.0893203 -0.0941924 0.991539 
0.0924492 -0.0821261 0.992325 
0.0787812 -0.0665434 0.994669 
0.0787468 -0.0540652 0.995427 
0.082714 -0.043906 0.995606 
0.0710181 -0.0313126 0.996983 
0.0766795 -0.0227605 0.996796 
0.0674662 -0.0122474 0.997646 
0.0750223 -0.00396471 0.997174 
0.0667039 0.00546425 0.997758 
0.0754195 0.014952 0.99704 
0.0684026 0.0243855 0.99736 
0.0796246 0.0364094 0.99616 
0.0748892 0.0470871 0.99608 
0.0727574 0.0596652 0.995563 
0.085199 0.0753407 0.993511 
0.0811975 0.0875786 0.992843 
0.0901923 0.109192 0.98992 
0.0979631 0.133732 0.986164 
0.106118 0.164229 0.980698 
0.117109 0.199109 0.972955 
0.130434 0.239655 0.962056 
0.146138 0.28655 0.946854 
0.164617 0.340605 0.925683 
0.186919 0.40202 0.896349 
0.212609 0.470435 0.85644 
0.241025 0.544619 0.803304 
0.208593 -0.538491 0.816405 
0.189213 -0.463857 0.865468 
0.170624 -0.397552 0.901576 
0.153552 -0.337816 0.928602 
0.138438 -0.286546 0.948012 
0.125448 -0.241558 0.962244 
0.113407 -0.20346 0.972493 
0.103225 -0.170128 0.98 
0.0946488 -0.141995 0.985332 
0.0864959 -0.117999 0.989239 
0.0789633 -0.0972252 0.992125 
0.0749223 -0.0780501 0.99413 
0.0660094 -0.0616518 0.995913 
0.0643665 -0.0500433 0.996671 
0.0676197 -0.0410858 0.996865 
0.0579301 -0.0292544 0.997892 
0.06263 -0.0212416 0.997811 
0.0542917 -0.0118202 0.998455 
0.0606292 -0.00374287 0.998153 
0.0535537 0.00444137 0.998555 
0.0611779 0.013626 0.998034 
0.055567 0.0218169 0.998217 
0.0649185 0.0333939 0.997332 
0.0607771 0.0434837 0.997204 
0.0601099 0.0547226 0.996691 
0.0679687 0.0718862 0.995094 
0.0715518 0.0926857 0.993121 
0.0782752 0.115034 0.990273 
0.0858378 0.139966 0.986429 
0.0940087 0.170687 0.98083 
0.105162 0.205506 0.972989 
0.118207 0.246126 0.962003 
0.134155 0.292802 0.946715 
0.153135 0.346109 0.925612 
0.17559 0.406314 0.896703 
0.201641 0.473008 0.857674 
0.230149 0.545373 0.805978 
0.190728 -0.544531 0.816768 
0.172856 -0.471049 0.865005 
0.15397 -0.40423 0.901605 
0.137749 -0.345074 0.928412 
0.123415 -0.292531 0.948259 
0.110587 -0.246905 0.962709 
0.0995859 -0.207172 0.973223 
0.089615 -0.17363 0.980725 
0.0819643 -0.144398 0.986119 
0.0745608 -0.120337 0.989929 
0.0675117 -0.0996698 0.992728 
0.0642959 -0.0826704 0.994501 
0.0594658 -0.0688007 0.995857 
0.053979 -0.0554726 0.997 
0.0517172 -0.0454611 0.997626 
0.0548581 -0.0371431 0.997803 
0.0468431 -0.0269493 0.998539 
0.0510942 -0.0190584 0.998512 
0.0442032 -0.0109558 0.998962 
0.0498485 -0.00303016 0.998752 
0.0434253 0.00452857 0.999046 
0.0495334 0.0130082 0.998688 
0.0445617 0.0207262 0.998792 
0.0522471 0.0309707 0.998154 
0.049154 0.0394186 0.998013 
0.0487162 0.0493394 0.997593 
0.0533589 0.0628696 0.996594 
0.0578875 0.0779936 0.995272 
0.0611367 0.0964486 0.993459 
0.0672361 0.118055 0.990728 
0.0741491 0.143988 0.986798 
0.0824216 0.173644 0.981353 
0.0931196 0.209292 0.973409 
0.105947 0.249325 0.962607 
0.121803 0.296065 0.94737 
0.14019 0.348013 0.926949 
0.162299 0.406647 0.899053 
0.188263 0.471228 0.861685 
0.215654 0.540578 0.813184 
0.171699 -0.546867 0.819424 
0.155805 -0.476118 0.865469 
0.138175 -0.411347 0.900945 
0.122596 -0.353038 0.927542 
0.109098 -0.300203 0.947616 
0.0970899 -0.253805 0.96237 
0.0865303 -0.213511 0.973101 
0.0777073 -0.178191 0.980923 
0.0700038 -0.148574 0.98642 
0.0632502 -0.122933 0.990397 
0.0573641 -0.101198 0.993211 
0.0530112 -0.0825036 0.99518 
0.0491123 -0.0667493 0.99656 
0.044674 -0.0530766 0.997591 
0.0412998 -0.0420718 0.998261 
0.0436137 -0.0341585 0.998464 
0.0369816 -0.0254628 0.998991 
0.0406337 -0.0183992 0.999005 
0.0350661 -0.00995772 0.999335 
0.0391937 -0.00324063 0.999226 
0.0344321 0.00457749 0.999397 
0.0392327 0.0121303 0.999156 
0.0350947 0.0205585 0.999173 
0.0410066 0.0288236 0.998743 
0.0386636 0.0376057 0.998544 
0.0401714 0.0500762 0.997937 
0.0439514 0.0635249 0.997012 
0.0478165 0.079685 0.995673 
0.051149 0.0992446 0.993748 
0.0567498 0.121755 0.990937 
0.0633623 0.147752 0.986993 
0.0711702 0.178781 0.981311 
0.0813423 0.213646 0.973519 
0.0937694 0.254424 0.962536 
0.108044 0.299287 0.948026 
0.1261 0.350627 0.927987 
0.146445 0.40573 0.902185 
0.171537 0.467187 0.867359 
0.195782 0.53105 0.824412 
0.149159 -0.545465 0.824754 
0.139303 -0.484225 0.863783 
0.122434 -0.42328 0.897688 
0.107867 -0.363801 0.92521 
0.0953673 -0.310991 0.945616 
0.0840524 -0.263119 0.961095 
0.0747187 -0.22115 0.972373 
0.0659808 -0.185231 0.980478 
0.0591594 -0.154079 0.986286 
0.0533584 -0.127718 0.990374 
0.0479204 -0.105568 0.993257 
0.0438216 -0.086266 0.995308 
0.0409891 -0.0700575 0.9967 
0.0369683 -0.0566214 0.997711 
0.0344914 -0.0439288 0.998439 
0.0334264 -0.0331287 0.998892 
0.0293584 -0.0236998 0.999288 
0.032573 -0.0168696 0.999327 
0.0271652 -0.00908516 0.99959 
0.0319056 -0.00273915 0.999487 
0.0265942 0.00374575 0.999639 
0.0312358 0.0117069 0.999443 
0.0277572 0.0188596 0.999437 
0.0311456 0.0288646 0.999098 
0.0312594 0.0403539 0.998696 
0.0330004 0.0531822 0.998039 
0.0357752 0.067813 0.997056 
0.0387995 0.0843828 0.995678 
0.0423105 0.10394 0.993683 
0.0469146 0.127022 0.99079 
0.0528526 0.153727 0.986699 
0.0602528 0.184577 0.980969 
0.0690868 0.220431 0.972953 
0.0802928 0.260508 0.962127 
0.093789 0.30611 0.947365 
0.109142 0.355047 0.928456 
0.128401 0.409418 0.903267 
0.151653 0.46551 0.871953 
0.166473 0.51723 0.8395 
0.12738 -0.541906 0.83073 
0.113579 -0.462263 0.879439 
0.0958471 -0.389942 0.915838 
0.0825775 -0.329172 0.940652 
0.0716845 -0.27631 0.958391 
0.0623035 -0.231782 0.97077 
0.0547223 -0.193157 0.979641 
0.0484523 -0.160447 0.985855 
0.0430984 -0.133091 0.990166 
0.0383514 -0.109552 0.993241 
0.0353866 -0.0897122 0.995339 
0.032011 -0.0735343 0.996779 
0.0298866 -0.059246 0.997796 
0.0275998 -0.0475476 0.998488 
0.0262419 -0.0370309 0.99897 
0.0247638 -0.0285811 0.999285 
0.0221264 -0.0205976 0.999543 
0.0247798 -0.0151208 0.999579 
0.0208966 -0.00907091 0.99974 
0.0241603 -0.0023605 0.999705 
0.020297 0.00454734 0.999784 
0.0240242 0.0106043 0.999655 
0.0204174 0.0163602 0.999658 
0.0229368 0.0247245 0.999431 
0.0239657 0.0332084 0.999161 
0.0241606 0.0439961 0.99874 
0.0255612 0.0567805 0.998059 
0.0276588 0.0710228 0.997091 
0.0301177 0.0883449 0.995635 
0.03275 0.108827 0.993521 
0.0370284 0.132334 0.990513 
0.0417424 0.160167 0.986207 
0.0479374 0.192257 0.980173 
0.0559537 0.229058 0.971803 
0.0652182 0.271227 0.960303 
0.0773494 0.319201 0.944525 
0.093105 0.374082 0.92271 
0.114753 0.437263 0.891982 
0.132929 0.504644 0.853033 
0.101659 -0.536379 0.837832 
0.094642 -0.474152 0.875342 
0.0808603 -0.409167 0.90887 
0.06851 -0.34753 0.935163 
0.0581772 -0.292515 0.954489 
0.0500807 -0.24507 0.968211 
0.0431925 -0.204282 0.977959 
0.0374224 -0.170212 0.984697 
0.0329097 -0.140974 0.989466 
0.0294753 -0.116469 0.992757 
0.0262511 -0.0962687 0.995009 
0.0240401 -0.0784466 0.996628 
0.0224428 -0.0641894 0.997685 
0.0203911 -0.0516667 0.998456 
0.0197136 -0.0408075 0.998973 
0.0184627 -0.0317801 0.999324 
0.0170139 -0.0235436 0.999578 
0.0172237 -0.0152989 0.999735 
0.0146151 -0.0082049 0.99986 
0.0179445 -0.00224174 0.999836 
0.0142488 0.00432238 0.999889 
0.0163664 0.0111335 0.999804 
0.0159873 0.0201384 0.999669 
0.0161778 0.0282585 0.99947 
0.0171475 0.0380179 0.99913 
0.0172618 0.0492671 0.998636 
0.0183908 0.0624273 0.99788 
0.0197202 0.0778966 0.996766 
0.0213931 0.0955576 0.995194 
0.0235614 0.116745 0.992882 
0.0262836 0.141477 0.989593 
0.0301988 0.169933 0.984993 
0.0345679 0.203314 0.978503 
0.0404569 0.24156 0.969542 
0.0478894 0.284982 0.957336 
0.0568433 0.334147 0.940805 
0.0687095 0.387147 0.919454 
0.0850254 0.442912 0.892524 
0.0882405 0.492893 0.865604 
0.0773778 -0.530905 0.843891 
0.0665703 -0.447697 0.891704 
0.0538481 -0.375869 0.925107 
0.0442007 -0.313549 0.948543 
0.0365236 -0.26169 0.964461 
0.0302806 -0.218001 0.975479 
0.0257109 -0.18112 0.983125 
0.0221819 -0.14988 0.988455 
0.0189853 -0.124441 0.992045 
0.0169976 -0.101864 0.994653 
0.0155687 -0.0838654 0.996355 
0.0140391 -0.0683079 0.997566 
0.01331 -0.0551126 0.998391 
0.0127417 -0.0441345 0.998944 
0.0120469 -0.0343213 0.999338 
0.0112756 -0.0264788 0.999586 
0.011513 -0.0186989 0.999759 
0.0110725 -0.0125118 0.99986 
0.00960598 -0.00584757 0.999937 
0.0123333 -0.00201308 0.999922 
0.00919584 0.00215234 0.999955 
0.0105271 0.00889698 0.999905 
0.0103443 0.0154791 0.999827 
0.00963771 0.0230657 0.999687 
0.0103862 0.0321123 0.99943 
0.0100026 0.0418301 0.999075 
0.0102532 0.0537796 0.9985 
0.0105236 0.0677262 0.997648 
0.0112569 0.0837121 0.996426 
0.0118495 0.103021 0.994609 
0.0130014 0.125215 0.992044 
0.0145881 0.151501 0.988349 
0.0163597 0.182046 0.983154 
0.0192209 0.217229 0.975931 
0.0222015 0.258262 0.96582 
0.0263809 0.305028 0.951978 
0.0324819 0.359382 0.932625 
0.0400974 0.419671 0.90679 
0.044473 0.487629 0.871917 
0.0519363 -0.523829 0.850239 
0.043211 -0.459736 0.887004 
0.0350145 -0.395531 0.917785 
0.0271256 -0.334478 0.942013 
0.0208027 -0.280396 0.959659 
0.0161308 -0.234069 0.972086 
0.0125523 -0.194921 0.980739 
0.00961134 -0.162461 0.986668 
0.00806729 -0.13461 0.990866 
0.00695526 -0.111299 0.993763 
0.00579689 -0.0922173 0.995722 
0.00572748 -0.075156 0.997155 
0.00548328 -0.0617354 0.998077 
0.00525409 -0.0492949 0.99877 
0.00538294 -0.0395425 0.999203 
0.00536622 -0.030672 0.999515 
0.00534538 -0.0223484 0.999736 
0.00553679 -0.0161154 0.999855 
0.0047212 -0.00979696 0.999941 
0.00423228 -0.00137865 0.99999 
0.0046149 0.0066684 0.999967 
0.00463841 0.0128631 0.999907 
0.00451922 0.0200175 0.999789 
0.00390546 0.0284919 0.999586 
0.00337795 0.0375547 0.999289 
0.0030716 0.0486854 0.998809 
0.00260354 0.0611721 0.998124 
0.00216171 0.0761655 0.997093 
0.00177103 0.0933035 0.995636 
0.00161018 0.113828 0.993499 
0.00101352 0.137687 0.990475 
0.00111549 0.165399 0.986226 
0.000742549 0.197982 0.980205 
0.000632359 0.235507 0.971872 
0.000657082 0.278718 0.960373 
9.0535e-05 0.327518 0.944845 
-0.000308773 0.380749 0.924678 
-0.00115338 0.434192 0.90082 
-0.00252373 0.486944 0.87343 
0.0245731 -0.51382 0.857546 
0.0126728 -0.431008 0.902259 
0.00734858 -0.361529 0.932332 
0.00276791 -0.302202 0.95324 
-0.000779289 -0.252268 0.967657 
-0.00326561 -0.210762 0.977532 
-0.00424125 -0.175362 0.984495 
-0.00484062 -0.145614 0.98933 
-0.00523177 -0.121116 0.992625 
-0.00445531 -0.0993391 0.995044 
-0.00411082 -0.0820906 0.996616 
-0.00357306 -0.0666506 0.99777 
-0.0024674 -0.0542504 0.998524 
-0.00202831 -0.0428848 0.999078 
-0.00158208 -0.033761 0.999429 
-0.000575012 -0.0256764 0.99967 
-0.000971209 -0.0185052 0.999828 
-0.000168628 -0.0115922 0.999933 
0.00227841 -0.00579531 0.999981 
-0.00213602 -0.000999776 0.999997 
0.00193989 0.00217824 0.999996 
-0.000585174 0.00955156 0.999954 
-0.00152177 0.0156264 0.999877 
-0.0016126 0.0235865 0.99972 
-0.00270028 0.0322144 0.999477 
-0.00355433 0.042422 0.999093 
-0.0047371 0.053867 0.998537 
-0.00582784 0.0677956 0.997682 
-0.00715326 0.0838785 0.99645 
-0.00873302 0.102834 0.99466 
-0.0104485 0.125016 0.9921 
-0.0123252 0.151237 0.988421 
-0.0149562 0.181586 0.983261 
-0.0173446 0.216948 0.976029 
-0.0212212 0.257909 0.965936 
-0.025291 0.305332 0.95191 
-0.0321839 0.359611 0.932547 
-0.0413893 0.421484 0.905891 
-0.0484065 0.490042 0.870354 