# vtk DataFile Version 3.0 
Exported using Morpho https://github.com/Morpho-lang/morpho 
ASCII 
DATASET UNSTRUCTURED_GRID 

POINTS 1245 float 
-0.303845 -0.952721 0 
-0.250833 -0.96803 0 
-0.195084 -0.980787 0 
-0.146308 -0.989239 0 
-0.0940719 -0.995565 0 
-0.0475118 -0.998871 0 
-0.000246339 -1 0 
0.0470875 -0.998891 0 
0.0937543 -0.995595 0 
0.146139 -0.989264 0 
0.195062 -0.980791 0 
0.250843 -0.968028 0 
0.303953 -0.952687 0 
-0.409153 -0.912466 0 
-0.356519 -0.934288 0 
-0.308871 -0.898929 0 
-0.258282 -0.916037 0 
-0.207345 -0.934859 0 
-0.154868 -0.930629 0 
-0.104343 -0.948989 0 
-0.0520099 -0.939193 0 
-8.5762e-05 -0.954582 0 
0.0518744 -0.939288 0 
0.104354 -0.949042 0 
0.154696 -0.9306 0 
0.207366 -0.934975 0 
0.258274 -0.916081 0 
0.308979 -0.898924 0 
0.356593 -0.93426 0 
0.409236 -0.912429 0 
-0.513788 -0.857917 0 
-0.461695 -0.887039 0 
-0.411157 -0.857936 0 
-0.359855 -0.879963 0 
-0.306888 -0.847481 0 
-0.254732 -0.866979 0 
-0.201991 -0.889059 0 
-0.149956 -0.874108 0 
-0.100608 -0.900088 0 
-0.0497575 -0.880388 0 
2.4595e-05 -0.904789 0 
0.0496869 -0.8804 0 
0.100612 -0.900177 0 
0.149872 -0.874171 0 
0.202071 -0.889165 0 
0.254695 -0.867031 0 
0.306946 -0.847482 0 
0.359894 -0.879943 0 
0.411236 -0.857929 0 
0.461748 -0.887011 0 
0.513842 -0.857885 0 
-0.564741 -0.825268 0 
-0.512908 -0.802945 0 
-0.462372 -0.832348 0 
-0.410124 -0.804631 0 
-0.358606 -0.827415 0 
-0.305781 -0.795641 0 
-0.25358 -0.816639 0 
-0.200756 -0.839997 0 
-0.149043 -0.818944 0 
-0.0987265 -0.846667 0 
-0.0490473 -0.822548 0 
5.00659e-05 -0.849932 0 
0.0490834 -0.822542 0 
0.0987838 -0.846676 0 
0.148997 -0.818924 0 
0.200826 -0.840131 0 
0.253508 -0.816728 0 
0.305831 -0.795701 0 
0.358581 -0.827419 0 
0.410181 -0.804654 0 
0.462414 -0.83234 0 
0.512965 -0.802929 0 
0.564777 -0.825243 0 
-0.660798 -0.750564 0 
-0.614015 -0.789295 0 
-0.561786 -0.769772 0 
-0.510673 -0.747856 0 
-0.460836 -0.778365 0 
-0.408794 -0.751554 0 
-0.357337 -0.774971 0 
-0.304815 -0.743684 0 
-0.252907 -0.765535 0 
-0.200631 -0.789263 0 
-0.149244 -0.764328 0 
-0.0986912 -0.791935 0 
-0.0492815 -0.765764 0 
4.16586e-05 -0.79382 0 
0.0492411 -0.765708 0 
0.0987508 -0.791951 0 
0.149196 -0.764326 0 
0.200666 -0.789356 0 
0.252841 -0.765599 0 
0.304862 -0.743741 0 
0.357323 -0.775038 0 
0.408863 -0.751626 0 
0.460863 -0.778382 0 
0.510716 -0.747859 0 
0.561819 -0.769761 0 
0.614041 -0.789274 0 
0.660811 -0.750552 0 
-0.707107 -0.707107 0 
-0.654819 -0.699058 0 
-0.60813 -0.73348 0 
-0.558104 -0.71337 0 
-0.509495 -0.692659 0 
-0.45935 -0.724356 0 
-0.407328 -0.698865 0 
-0.355968 -0.722823 0 
-0.303722 -0.691387 0 
-0.252254 -0.71362 0 
-0.20067 -0.737336 0 
-0.149608 -0.710068 0 
-0.0991558 -0.737129 0 
-0.0495872 -0.709825 0 
-2.23646e-05 -0.737917 0 
0.0494408 -0.709766 0 
0.0991291 -0.737116 0 
0.149502 -0.710042 0 
0.200696 -0.73743 0 
0.252186 -0.713735 0 
0.303753 -0.691518 0 
0.355952 -0.722893 0 
0.407371 -0.698945 0 
0.459374 -0.724407 0 
0.509524 -0.692668 0 
0.558131 -0.713361 0 
0.608151 -0.733462 0 
0.654824 -0.699048 0 
0.707107 -0.707107 0 
-0.750564 -0.660798 0 
-0.699058 -0.654819 0 
-0.647692 -0.647692 0 
-0.603437 -0.675718 0 
-0.55905 -0.655305 0 
-0.508501 -0.639581 0 
-0.457509 -0.671321 0 
-0.405555 -0.646545 0 
-0.354417 -0.670703 0 
-0.302427 -0.639219 0 
-0.251503 -0.661417 0 
-0.20061 -0.684911 0 
-0.149717 -0.655943 0 
-0.0995004 -0.682466 0 
-0.0498216 -0.654561 0 
-5.02113e-05 -0.682664 0 
0.0496787 -0.654499 0 
0.0994374 -0.682501 0 
0.149603 -0.655909 0 
0.200573 -0.684972 0 
0.251388 -0.661524 0 
0.302407 -0.639359 0 
0.354397 -0.670836 0 
0.405575 -0.646641 0 
0.457525 -0.67138 0 
0.508497 -0.639623 0 
0.559063 -0.655324 0 
0.603436 -0.675715 0 
0.64769 -0.64769 0 
0.699048 -0.654824 0 
0.750552 -0.660811 0 
-0.789295 -0.614015 0 
-0.73348 -0.60813 0 
-0.675718 -0.603437 0 
-0.613088 -0.613088 0 
-0.55962 -0.604068 0 
-0.506189 -0.588854 0 
-0.455505 -0.618874 0 
-0.403019 -0.594688 0 
-0.352514 -0.618952 0 
-0.300977 -0.586897 0 
-0.250543 -0.608767 0 
-0.200257 -0.632053 0 
-0.150049 -0.601979 0 
-0.0998281 -0.628222 0 
-0.0500377 -0.599914 0 
-3.12334e-05 -0.628076 0 
0.0498927 -0.599835 0 
0.0997818 -0.628253 0 
0.149924 -0.601867 0 
0.200214 -0.632118 0 
0.250423 -0.608915 0 
0.30086 -0.587085 0 
0.352457 -0.619096 0 
0.402948 -0.594743 0 
0.455483 -0.618952 0 
0.506147 -0.588901 0 
0.55964 -0.604067 0 
0.613069 -0.613069 0 
0.675715 -0.603436 0 
0.733462 -0.608151 0 
0.789274 -0.614041 0 
-0.825268 -0.564741 0 
-0.769772 -0.561786 0 
-0.71337 -0.558104 0 
-0.655305 -0.55905 0 
-0.604068 -0.55962 0 
-0.551031 -0.551031 0 
-0.497922 -0.537596 0 
-0.451508 -0.567021 0 
-0.399773 -0.542431 0 
-0.350494 -0.567003 0 
-0.301574 -0.534146 0 
-0.250874 -0.555692 0 
-0.200542 -0.579013 0 
-0.150324 -0.548268 0 
-0.100169 -0.57443 0 
-0.0500152 -0.545912 0 
-3.29278e-05 -0.574268 0 
0.0499208 -0.545788 0 
0.100058 -0.574485 0 
0.150038 -0.548073 0 
0.200377 -0.579041 0 
0.250556 -0.55585 0 
0.301273 -0.534348 0 
0.350318 -0.567174 0 
0.399615 -0.542384 0 
0.451404 -0.5671 0 
0.497945 -0.537702 0 
0.551073 -0.551073 0 
0.604067 -0.55964 0 
0.655324 -0.559063 0 
0.713361 -0.558131 0 
0.769761 -0.561819 0 
0.825243 -0.564777 0 
-0.857917 -0.513788 0 
-0.802945 -0.512908 0 
-0.747856 -0.510673 0 
-0.692659 -0.509495 0 
-0.639581 -0.508501 0 
-0.588854 -0.506189 0 
-0.537596 -0.497922 0 
-0.486157 -0.486157 0 
-0.444928 -0.512952 0 
-0.401787 -0.486784 0 
-0.351685 -0.513639 0 
-0.299695 -0.48291 0 
-0.250032 -0.503 0 
-0.200501 -0.526165 0 
-0.149489 -0.495195 0 
-0.0999281 -0.521367 0 
-0.0499712 -0.492294 0 
4.64723e-05 -0.520999 0 
0.050147 -0.492108 0 
0.099934 -0.52133 0 
0.14957 -0.494692 0 
0.200133 -0.526255 0 
0.249839 -0.503309 0 
0.299839 -0.483005 0 
0.351514 -0.513798 0 
0.401881 -0.486608 0 
0.444935 -0.513054 0 
0.486228 -0.486228 0 
0.537702 -0.497945 0 
0.588901 -0.506147 0 
0.639623 -0.508497 0 
0.692668 -0.509524 0 
0.747859 -0.510716 0 
0.802929 -0.512965 0 
0.857885 -0.513842 0 
-0.887039 -0.461695 0 
-0.832348 -0.462372 0 
-0.778365 -0.460836 0 
-0.724356 -0.45935 0 
-0.671321 -0.457509 0 
-0.618874 -0.455505 0 
-0.567021 -0.451508 0 
-0.512952 -0.444928 0 
-0.450685 -0.450685 0 
-0.397667 -0.437543 0 
-0.348492 -0.462546 0 
-0.295416 -0.432968 0 
-0.247004 -0.450633 0 
-0.198702 -0.473818 0 
-0.150161 -0.441625 0 
-0.100085 -0.468395 0 
-0.0502271 -0.439281 0 
0.000144229 -0.468374 0 
0.0504178 -0.439106 0 
0.100428 -0.468348 0 
0.150697 -0.441105 0 
0.199103 -0.473881 0 
0.247983 -0.450921 0 
0.296569 -0.432268 0 
0.348831 -0.462562 0 
0.397506 -0.4368 0 
0.450637 -0.450637 0 
0.513054 -0.444935 0 
0.5671 -0.451404 0 
0.618952 -0.455483 0 
0.67138 -0.457525 0 
0.724407 -0.459374 0 
0.778382 -0.460863 0 
0.83234 -0.462414 0 
0.887011 -0.461748 0 
-0.912466 -0.409153 0 
-0.857936 -0.411157 0 
-0.804631 -0.410124 0 
-0.751554 -0.408794 0 
-0.698865 -0.407328 0 
-0.646545 -0.405555 0 
-0.594688 -0.403019 0 
-0.542431 -0.399773 0 
-0.486784 -0.401787 0 
-0.437543 -0.397667 0 
-0.387256 -0.387256 0 
-0.344215 -0.411459 0 
-0.30136 -0.381507 0 
-0.25021 -0.395692 0 
-0.200211 -0.419975 0 
-0.150955 -0.389014 0 
-0.100617 -0.416095 0 
-0.0503197 -0.386922 0 
-4.02994e-05 -0.416525 0 
0.05006 -0.386948 0 
0.100784 -0.416323 0 
0.150432 -0.388572 0 
0.200855 -0.420694 0 
0.25086 -0.396905 0 
0.301746 -0.379789 0 
0.344135 -0.410678 0 
0.385823 -0.385823 0 
0.4368 -0.397506 0 
0.486608 -0.401881 0 
0.542384 -0.399615 0 
0.594743 -0.402948 0 
0.646641 -0.405575 0 
0.698945 -0.407371 0 
0.751626 -0.408863 0 
0.804654 -0.410181 0 
0.857929 -0.411236 0 
0.912429 -0.409236 0 
-0.934288 -0.356519 0 
-0.879963 -0.359855 0 
-0.827415 -0.358606 0 
-0.774971 -0.357337 0 
-0.722823 -0.355968 0 
-0.670703 -0.354417 0 
-0.618952 -0.352514 0 
-0.567003 -0.350494 0 
-0.513639 -0.351685 0 
-0.462546 -0.348492 0 
-0.411459 -0.344215 0 
-0.351697 -0.351697 0 
-0.29839 -0.336232 0 
-0.249846 -0.342529 0 
-0.200971 -0.367271 0 
-0.149995 -0.337521 0 
-0.100435 -0.3646 0 
-0.0498692 -0.335025 0 
-6.88684e-05 -0.365025 0 
0.0495433 -0.334795 0 
0.0996798 -0.364834 0 
0.148162 -0.337172 0 
0.199644 -0.368939 0 
0.24763 -0.345582 0 
0.295348 -0.332889 0 
0.34978 -0.34978 0 
0.410678 -0.344135 0 
0.462562 -0.348831 0 
0.513798 -0.351514 0 
0.567174 -0.350318 0 
0.619096 -0.352457 0 
0.670836 -0.354397 0 
0.722893 -0.355952 0 
0.775038 -0.357323 0 
0.827419 -0.358581 0 
0.879943 -0.359894 0 
0.93426 -0.356593 0 
-0.952721 -0.303845 0 
-0.898929 -0.308871 0 
-0.847481 -0.306888 0 
-0.795641 -0.305781 0 
-0.743684 -0.304815 0 
-0.691387 -0.303722 0 
-0.639219 -0.302427 0 
-0.586897 -0.300977 0 
-0.534146 -0.301574 0 
-0.48291 -0.299695 0 
-0.432968 -0.295416 0 
-0.381507 -0.30136 0 
-0.336232 -0.29839 0 
-0.288184 -0.288184 0 
-0.242975 -0.290577 0 
-0.198059 -0.315051 0 
-0.148383 -0.285894 0 
-0.0994753 -0.313232 0 
-0.0507184 -0.283118 0 
-0.000202902 -0.313447 0 
0.0500077 -0.282824 0 
0.0988289 -0.312817 0 
0.148102 -0.28482 0 
0.195742 -0.317413 0 
0.240766 -0.295824 0 
0.285014 -0.285014 0 
0.332889 -0.295348 0 
0.379789 -0.301746 0 
0.432268 -0.296569 0 
0.483005 -0.299839 0 
0.534348 -0.301273 0 
0.587085 -0.30086 0 
0.639359 -0.302407 0 
0.691518 -0.303753 0 
0.743741 -0.304862 0 
0.795701 -0.305831 0 
0.847482 -0.306946 0 
0.898924 -0.308979 0 
0.952687 -0.303953 0 
-0.96803 -0.250833 0 
-0.916037 -0.258282 0 
-0.866979 -0.254732 0 
-0.816639 -0.25358 0 
-0.765535 -0.252907 0 
-0.71362 -0.252254 0 
-0.661417 -0.251503 0 
-0.608767 -0.250543 0 
-0.555692 -0.250874 0 
-0.503 -0.250032 0 
-0.450633 -0.247004 0 
-0.395692 -0.25021 0 
-0.342529 -0.249846 0 
-0.290577 -0.242975 0 
-0.239946 -0.239946 0 
-0.194478 -0.26004 0 
-0.151293 -0.23238 0 
-0.101048 -0.260904 0 
-0.0503938 -0.232537 0 
-0.000203281 -0.262984 0 
0.050638 -0.232316 0 
0.100942 -0.260855 0 
0.152412 -0.232597 0 
0.195768 -0.261421 0 
0.241873 -0.241873 0 
0.295824 -0.240766 0 
0.345582 -0.24763 0 
0.396905 -0.25086 0 
0.450921 -0.247983 0 
[...]
POINT_DATA 1245 
VECTORS vectors float
0.222648 -0.119613 0.967533 
0.220553 -0.0754816 0.97245 
0.240715 -0.0135125 0.970502 
0.284665 -0.00034337 0.958627 
0.335286 0.0208583 0.941885 
0.331706 0.0106789 0.943322 
0.34807 -0.00849569 0.93743 
0.330462 -0.00830594 0.943783 
0.288004 -0.0069371 0.957604 
0.267962 0.0317867 0.962905 
0.259787 0.0925667 0.961219 
0.288338 0.119093 0.950094 
0.302546 0.143573 0.94226 
0.243036 -0.204574 0.9482 
0.232298 -0.170775 0.957535 
0.162445 -0.112527 0.98028 
0.160877 -0.0771343 0.983956 
0.190173 -0.0314359 0.981247 
0.187908 -0.0159983 0.982056 
0.220283 0.000962361 0.975436 
0.200075 -0.00586306 0.979763 
0.243546 -0.0164493 0.96975 
0.218347 -0.000449841 0.975871 
0.218904 0.0123205 0.975669 
0.197794 0.0350697 0.979616 
0.221234 0.0728903 0.972493 
0.24523 0.0916576 0.965122 
0.25595 0.0868369 0.962782 
0.355117 0.113288 0.927932 
0.36173 0.0986533 0.927048 
0.313842 -0.220406 0.923539 
0.276386 -0.212544 0.937249 
0.206481 -0.15592 0.965948 
0.187647 -0.137957 0.9725 
0.120367 -0.0858431 0.989011 
0.116603 -0.0684454 0.990817 
0.139226 -0.0312194 0.989768 
0.125341 -0.0124455 0.992036 
0.149426 1.86797e-05 0.988773 
0.151382 -0.00257242 0.988472 
0.175329 -0.0126763 0.984428 
0.140285 0.00157929 0.99011 
0.160542 0.0164259 0.986892 
0.135068 0.016033 0.990707 
0.161417 0.0429121 0.985953 
0.172883 0.0570533 0.983289 
0.172214 0.0558681 0.983474 
0.248508 0.0752355 0.965703 
0.232247 0.0679963 0.970277 
0.323367 0.0604834 0.944339 
0.266241 0.0354528 0.963254 
0.317835 -0.2135 0.923796 
0.234764 -0.16415 0.958092 
0.225501 -0.162588 0.96058 
0.147768 -0.118957 0.981842 
0.137948 -0.0981213 0.985567 
0.0834985 -0.0582545 0.994804 
0.085337 -0.0584673 0.994635 
0.0978733 -0.0297335 0.994755 
0.0716476 -0.0194455 0.99724 
0.109103 -0.00949741 0.993985 
0.103642 -0.00890213 0.994575 
0.125181 -0.00716186 0.992108 
0.0842712 0.00175388 0.996441 
0.112076 0.0114742 0.993633 
0.102576 0.01612 0.994595 
0.106157 0.0250325 0.994034 
0.110291 0.03565 0.99326 
0.11816 0.0314961 0.992495 
0.155478 0.0508104 0.986532 
0.147717 0.0433714 0.988078 
0.212073 0.0390274 0.976474 
0.162832 0.0440099 0.985672 
0.162038 0.051091 0.985461 
0.246373 -0.161618 0.955604 
0.295336 -0.177401 0.938779 
0.220783 -0.158612 0.962339 
0.157723 -0.116284 0.980613 
0.153933 -0.123585 0.980322 
0.0925856 -0.0962119 0.991046 
0.090336 -0.0722198 0.993289 
0.0635436 -0.0465347 0.996894 
0.0641994 -0.0451798 0.996914 
0.0670377 -0.0251438 0.997434 
0.0457414 -0.0105734 0.998897 
0.0563637 -0.0171905 0.998262 
0.0437222 -0.00494803 0.999031 
0.0663927 -0.00103748 0.997793 
0.0455489 -0.00015964 0.998962 
0.0774521 0.00638852 0.996976 
0.070898 0.0187006 0.997308 
0.0838176 0.0232729 0.996209 
0.0848318 0.0198875 0.996197 
0.0821169 0.0174039 0.996471 
0.10309 0.0303215 0.99421 
0.0897687 0.0286531 0.99555 
0.133488 0.0255154 0.990722 
0.0899026 0.0531872 0.994529 
0.103483 0.0881967 0.990713 
0.0985465 0.116272 0.988316 
0.0494852 0.193566 0.979838 
0.186418 -0.180906 0.965671 
0.176404 -0.146539 0.973349 
0.199899 -0.14948 0.968347 
0.154566 -0.122302 0.980383 
0.114813 -0.0809085 0.990087 
0.10474 -0.0840459 0.990942 
0.0797786 -0.0726591 0.994161 
0.0758647 -0.0620731 0.995184 
0.0506792 -0.0374404 0.998013 
0.0377669 -0.038191 0.998557 
0.0444928 -0.0202108 0.998805 
0.0304397 -0.00561809 0.999521 
0.0281934 -0.00800403 0.99957 
0.0304558 -0.00945803 0.999491 
0.0361144 0.00442283 0.999338 
0.0303867 -0.00170471 0.999537 
0.039218 0.00188643 0.999229 
0.0292125 0.00993427 0.999524 
0.0574883 0.0149678 0.998234 
0.0537248 0.00926802 0.998513 
0.036144 0.0106742 0.99929 
0.0557531 0.0162329 0.998313 
0.0398905 0.025407 0.998881 
0.0664013 0.0251116 0.997477 
0.0310688 0.0504886 0.998241 
0.0528435 0.0887127 0.994655 
0.0653589 0.130053 0.989351 
0.039729 0.184399 0.982048 
0.0480648 0.280818 0.958557 
0.129843 -0.231879 0.96404 
0.132516 -0.173687 0.975844 
0.12031 -0.125322 0.984794 
0.143867 -0.123144 0.981905 
0.109702 -0.100484 0.988872 
0.0771879 -0.0687942 0.99464 
0.079914 -0.0565996 0.995194 
0.0569388 -0.0527178 0.996985 
0.0618623 -0.0541984 0.996612 
0.0235959 -0.0306597 0.999251 
0.0152662 -0.0329937 0.999339 
0.0205058 -0.0240579 0.9995 
0.0186343 -0.0140927 0.999727 
0.0254757 -0.015519 0.999555 
0.0246736 -0.0289386 0.999277 
0.0348083 -0.00788058 0.999363 
0.0213278 -0.00208797 0.99977 
0.0186234 -0.00152139 0.999825 
0.0150638 -0.000898121 0.999886 
0.0259033 0.00170969 0.999663 
0.0230337 0.0019932 0.999733 
0.0193175 0.00701234 0.999789 
0.0226739 0.00994692 0.999693 
0.0248765 0.0203898 0.999483 
0.0287006 0.0287403 0.999175 
0.0154157 0.0477056 0.998742 
0.0204304 0.0752242 0.996957 
0.032164 0.114988 0.992846 
0.0221224 0.16113 0.986685 
0.0413823 0.239294 0.970065 
0.0815624 0.321612 0.943352 
0.101013 -0.293398 0.950639 
0.111771 -0.212708 0.970702 
0.093988 -0.147401 0.984601 
0.0799418 -0.0924831 0.9925 
0.0640714 -0.0792992 0.99479 
0.0405066 -0.0654163 0.997036 
0.0451431 -0.0480504 0.997824 
0.0262969 -0.0406307 0.998828 
0.0309332 -0.0410762 0.998677 
0.0174947 -0.023544 0.99957 
0.0139703 -0.0272192 0.999532 
0.0123665 -0.0303047 0.999464 
0.0127969 -0.0134219 0.999828 
0.0128568 -0.0189287 0.999738 
0.00519051 -0.0210844 0.999764 
0.0146253 -0.0113767 0.999828 
0.00681381 -0.00473118 0.999966 
0.0126111 -0.00774315 0.99989 
0.0139338 -0.00827231 0.999869 
0.019108 -0.0055701 0.999802 
0.0180864 -0.00162047 0.999835 
0.0078687 0.00299832 0.999965 
0.0154388 0.00640306 0.99986 
0.0129813 0.0112522 0.999852 
0.0213778 0.0273601 0.999397 
0.0132792 0.0491993 0.998701 
0.0142675 0.073792 0.997172 
0.0110821 0.11661 0.993116 
0.0199435 0.186872 0.982182 
0.0580153 0.26271 0.963129 
0.0932388 0.358322 0.928931 
0.129546 -0.349829 0.927813 
0.0989658 -0.23975 0.965777 
0.0926673 -0.183053 0.978726 
0.0685259 -0.123761 0.989943 
0.0563091 -0.0774119 0.995408 
0.0508631 -0.067031 0.996454 
0.0350247 -0.0520255 0.998031 
0.0248156 -0.0393185 0.998919 
0.026391 -0.0305283 0.999185 
0.0236995 -0.0343013 0.99913 
0.0227743 -0.0220765 0.999497 
0.0163462 -0.0214569 0.999636 
0.0154083 -0.0281844 0.999484 
0.0108771 -0.00951386 0.999896 
0.00714892 -0.00580026 0.999958 
0.011135 -0.0118154 0.999868 
0.00476196 -0.00520277 0.999975 
0.0117654 -0.013679 0.999837 
0.00562922 -0.0204064 0.999776 
0.00731657 -0.0102131 0.999921 
0.0164638 -0.00372055 0.999858 
0.00634177 -0.00650613 0.999959 
-0.00549544 -0.00156125 0.999984 
0.000801893 0.00776406 0.99997 
-0.00983379 0.00380658 0.999944 
0.000993414 0.0156223 0.999877 
-0.0071956 0.0402994 0.999162 
0.00797 0.071168 0.997432 
0.0106263 0.102128 0.994715 
0.00768955 0.152203 0.988319 
0.032286 0.209709 0.977231 
0.0650511 0.292892 0.95393 
0.091565 0.394337 0.914393 
0.147419 -0.373122 0.915996 
0.0935335 -0.265288 0.959622 
0.0693267 -0.192538 0.978837 
0.0684015 -0.157582 0.985134 
0.0564693 -0.108566 0.992484 
0.05025 -0.0768366 0.995777 
0.0410327 -0.0626271 0.997193 
0.0289313 -0.0326196 0.999049 
0.02484 -0.0281441 0.999295 
0.0237407 -0.035068 0.999103 
0.0269486 -0.0382218 0.998906 
0.012859 -0.0228779 0.999656 
0.00907113 -0.013919 0.999862 
0.00750823 -0.0233825 0.999698 
0.017617 -0.0136864 0.999751 
0.0209081 -0.00548458 0.999766 
0.0283806 -0.0197992 0.999401 
0.0199241 -0.0111693 0.999739 
0.0216151 -0.0124825 0.999688 
0.0116982 -0.0247258 0.999626 
0.0181886 -0.00924445 0.999792 
0.0114807 -0.00136912 0.999933 
0.00385625 -0.0126675 0.999912 
-0.00226235 -0.0107933 0.999939 
-0.00752794 0.00782998 0.999941 
-0.00484144 0.000805737 0.999988 
-0.0157001 0.00655449 0.999855 
-0.0215468 0.0328701 0.999227 
-0.0173157 0.0546824 0.998354 
-0.00592526 0.0776703 0.996961 
0.00191496 0.118073 0.993003 
0.0172487 0.167912 0.985651 
0.0433417 0.229651 0.972307 
0.0727811 0.318798 0.945024 
0.10905 0.414095 0.903678 
0.158033 -0.376733 0.912742 
0.10929 -0.288169 0.951322 
0.0664001 -0.207608 0.975956 
0.0507067 -0.160833 0.985678 
0.0419873 -0.121189 0.991741 
0.0241431 -0.0849084 0.996096 
0.0161539 -0.0695338 0.997449 
0.00985732 -0.0479676 0.9988 
0.0192405 -0.029871 0.999369 
0.0202969 -0.0363558 0.999133 
0.0158899 -0.0407704 0.999042 
0.0153844 -0.0181298 0.999717 
0.0149986 -0.0112839 0.999824 
0.0104901 -0.0190007 0.999764 
0.0275819 -0.0206248 0.999407 
0.0350314 -0.0129206 0.999303 
0.0234449 -0.0220784 0.999481 
0.0189477 -0.0113613 0.999756 
0.0181825 -0.00231331 0.999832 
0.0206524 -0.0197298 0.999592 
0.0255172 -0.0191112 0.999492 
0.0205189 -0.00238226 0.999787 
0.0125209 -0.0124115 0.999845 
0.00929122 -0.0166825 0.999818 
0.00218779 0.00030016 0.999998 
-0.0010224 -0.00398545 0.999992 
-0.00461443 0.00707287 0.999964 
-0.0200496 0.0336202 0.999234 
-0.0275105 0.0466864 0.998531 
-0.015851 0.073858 0.997143 
0.00564144 0.12664 0.991933 
0.0332582 0.17814 0.983443 
0.0592278 0.245973 0.967465 
0.0888526 0.334711 0.938122 
0.122749 0.422586 0.897972 
0.152618 -0.358169 0.921099 
0.115071 -0.289892 0.950117 
0.0794209 -0.216253 0.973102 
0.0568491 -0.161673 0.985206 
0.0430673 -0.120632 0.991763 
0.0345401 -0.0789393 0.996281 
0.0288127 -0.0607056 0.99774 
0.0195215 -0.0503238 0.998542 
0.0152734 -0.0360051 0.999235 
0.0253124 -0.0304082 0.999217 
0.0333088 -0.0234838 0.999169 
0.0196539 -0.0261711 0.999464 
0.0267834 -0.0260185 0.999303 
0.0316732 -0.0158267 0.999373 
0.0273483 -0.0217511 0.999389 
0.0275974 -0.0241254 0.999328 
0.0314795 -0.014465 0.9994 
0.0225403 -0.0218615 0.999507 
0.0158787 -0.00960289 0.999828 
0.0345485 -0.00584667 0.999386 
0.0255998 -0.0256903 0.999342 
0.0158912 -0.0277415 0.999489 
0.0172324 -0.00434894 0.999842 
0.0119284 -0.0129617 0.999845 
0.0122972 -0.0216039 0.999691 
-0.000959373 -0.00897399 0.999959 
-0.00996962 -0.00769341 0.999921 
-0.00386337 -0.0138376 0.999897 
-0.00479764 0.00858272 0.999952 
-0.0123775 0.037153 0.999233 
-0.0144716 0.0502366 0.998632 
-0.0016565 0.0852567 0.996358 
0.0196439 0.134774 0.990682 
0.0394451 0.182136 0.982482 
0.0691059 0.252852 0.965034 
0.106278 0.337937 0.935149 
0.139193 0.419428 0.897054 
0.138066 -0.350918 0.926172 
0.102445 -0.286733 0.952517 
0.0758203 -0.219758 0.972604 
0.0614172 -0.157158 0.985662 
0.0483852 -0.11876 0.991743 
0.0384267 -0.0908855 0.99512 
0.0413368 -0.0633465 0.997135 
0.0388159 -0.044114 0.998272 
0.0261174 -0.0371377 0.998969 
0.0288238 -0.0385233 0.998842 
0.0340696 -0.0304061 0.998957 
0.035814 -0.0182307 0.999192 
0.0325888 -0.0287349 0.999056 
0.0337619 -0.0258551 0.999095 
0.0335983 -0.027333 0.999062 
0.0316799 -0.027282 0.999126 
0.0263507 -0.0136963 0.999559 
0.0361202 -0.0280032 0.998955 
0.0341495 -0.022409 0.999165 
0.0452161 -0.0183821 0.998808 
0.0310052 -0.028035 0.999126 
0.0231567 -0.0221098 0.999487 
0.00653361 -0.010114 0.999928 
0.00899724 -0.0254271 0.999636 
0.0123355 -0.0323109 0.999402 
0.00204047 -0.00982423 0.99995 
-0.00268503 -0.00837593 0.999961 
-0.00372348 -0.010116 0.999942 
-0.00783647 0.0188333 0.999792 
-0.00541121 0.0419547 0.999105 
0.000250906 0.0462698 0.998929 
0.0102659 0.0831126 0.996487 
0.024275 0.128374 0.991429 
0.0443228 0.176165 0.983362 
0.0826777 0.245579 0.965844 
0.125797 0.32786 0.936313 
0.166545 0.413797 0.895005 
0.110576 -0.375219 0.920317 
0.0867624 -0.291452 0.952643 
0.0660797 -0.228321 0.971341 
0.061051 -0.15929 0.985342 
0.049544 -0.11017 0.992677 
0.0319719 -0.0875204 0.99565 
0.0253876 -0.06935 0.997269 
0.0186236 -0.0442818 0.998845 
0.0155242 -0.0288095 0.999464 
0.0179605 -0.0356094 0.999204 
0.0180364 -0.0376741 0.999127 
0.0259799 -0.0237504 0.99938 
0.0289249 -0.024288 0.999286 
0.0307959 -0.0255532 0.999199 
0.032452 -0.018607 0.9993 
0.0371925 -0.0254437 0.998984 
0.0478751 -0.0278023 0.998466 
0.0397848 -0.0155498 0.999087 
0.0520149 -0.0255195 0.99832 
0.050753 -0.0356204 0.998076 
0.0355664 -0.0230247 0.999102 
0.0321424 -0.0190429 0.999302 
0.0475933 -0.0209122 0.998648 
0.0240748 -0.0151795 0.999595 
0.0197317 -0.026503 0.999454 
0.0136487 -0.0300044 0.999457 
0.0140143 -0.0187257 0.999726 
0.0116484 -0.00593283 0.999915 
0.00745598 -0.00693866 0.999948 
-0.00783421 6.97265e-05 0.999969 
-0.0139319 0.0234613 0.999628 
-0.00534213 0.0242722 0.999691 
0.00208241 0.0361249 0.999345 
0.0187286 0.0820881 0.996449 
0.0437285 0.132227 0.990254 
0.0632359 0.172087 0.98305 
0.091514 0.239356 0.96661 
0.131949 0.31338 0.940416 
0.180285 0.386918 0.904319 
0.103292 -0.380138 0.919144 
0.0744362 -0.289143 0.954387 
0.0595124 -0.224754 0.972597 
0.0527156 -0.177261 0.982751 
0.0379786 -0.11878 0.992194 
0.0279755 -0.0836873 0.996099 
0.0287538 -0.0646757 0.997492 
0.0194499 -0.0428048 0.998894 
0.00630272 -0.0263364 0.999633 
0.0128102 -0.0235171 0.999641 
0.0175386 -0.025284 0.999526 
0.0147922 -0.0205562 0.999679 
0.0300822 -0.0153403 0.99943 
0.0354591 -0.0168039 0.99923 
0.0344148 -0.00657539 0.999386 
0.0446695 -0.0183982 0.998832 
0.0498875 -0.0244192 0.998456 
0.0518576 -0.0190174 0.998473 
0.0523541 -0.0135121 0.998537 
0.0487875 -0.0312058 0.998322 
0.0373445 -0.0215177 0.999071 
0.0339316 -0.0233764 0.999151 
0.0538441 -0.0396357 0.997762 
0.0468336 -0.0246935 0.998597 
0.0178138 -0.0146999 0.999733 
0.0187004 -0.0147262 0.999717 
0.0161218 -0.0257955 0.999537 
0.0105324 -0.0198567 0.999747 
-0.000413124 -0.0109647 0.99994 
-0.00984796 0.000929886 0.999951 
-0.00494354 0.0143602 0.999885 
0.00118065 0.0265462 0.999647 
0.00301479 0.0547272 0.998497 
0.0259105 0.0994409 0.994706 
0.0513282 0.131572 0.989977 
0.0641084 0.178149 0.981913 
0.0877521 0.236059 0.967768 
0.131082 0.304966 0.943299 
0.171527 0.366554 0.914449 
0.109956 -0.386679 0.915636 
0.0804691 -0.289809 0.953696 
0.0678854 -0.224767 0.972045 
0.0617075 -0.178872 0.981935 
0.0440607 -0.136039 0.989723 
0.0258943 -0.0903832 0.99557 
0.0325005 -0.0626182 0.997508 
0.0325588 -0.044468 0.99848 
0.0132917 -0.0323907 0.999387 
0.0129617 -0.0289247 0.999498 
0.0265426 -0.0250738 0.999333 
0.0290698 -0.0191976 0.999393 
0.0353441 -0.0203694 0.999168 
0.0427789 -0.0212682 0.998858 
0.040406 -0.0144969 0.999078 
0.0402601 -0.0163896 0.999055 
0.0449441 -0.0194959 0.998799 
0.0485116 -0.0158047 0.998698 
0.0480192 -0.014301 0.998744 
0.0518927 -0.0170813 0.998507 
0.0515039 -0.0243629 0.998376 
0.0443441 -0.0330812 0.998468 
0.0443796 -0.0397642 0.998223 
0.0180266 -0.0302834 0.999379 
0.0150367 -0.012165 0.999813 
0.0252996 -0.0232408 0.99941 
0.00572024 -0.0325432 0.999454 
-0.00932747 -0.0189674 0.999777 
-0.0103757 -0.00828174 0.999912 
-0.00711876 -0.00521115 0.999961 
0.00431021 0.0151262 0.999876 
0.00565861 0.0410949 0.999139 
0.00259968 0.0593371 0.998235 
0.0178332 0.0807793 0.996572 
0.0368385 0.120661 0.99201 
0.0604204 0.170998 0.983417 
0.105905 0.229733 0.967474 
0.150683 0.284544 0.946747 
0.181469 0.342792 0.921717 
0.131396 -0.367944 0.920517 
0.0878266 -0.261173 0.961288 
0.0623488 -0.184992 0.98076 
0.0467952 -0.142467 0.988693 
0.0270896 -0.0946872 0.995138 
0.0160329 -0.0637461 0.997837 
0.0163381 -0.0456527 0.998824 
0.0122188 -0.0306099 0.999457 
0.0114644 -0.0285018 0.999528 
0.0255291 -0.0274873 0.999296 
0.0352274 -0.0201103 0.999177 
0.0307793 -0.0196556 0.999333 
0.0314301 -0.0230409 0.99924 
0.0356448 -0.0252713 0.999045 
0.0416516 -0.0257119 0.998801 
0.0463974 -0.0198982 0.998725 
0.0506621 -0.0131353 0.998629 
0.044893 -0.016927 0.998848 
0.0467377 -0.0274557 0.99853 
0.0439616 -0.0181625 0.998868 
0.0482128 -0.0357602 0.998197 
0.0547043 -0.0295341 0.998066 
0.0461625 -0.0180104 0.998772 
0.030322 -0.0274399 0.999163 
0.0229824 -0.0294345 0.999302 
0.0338093 -0.0256 0.9991 
0.0201202 -0.0252184 0.999479 
-0.00451549 -0.0215005 0.999759 
-0.00847799 -0.00248785 0.999961 
-0.0119118 -0.00630641 0.999909 
-0.014626 -0.00920559 0.999851 
-0.00464702 0.0162875 0.999857 
0.00264133 0.031762 0.999492 
0.00562056 0.0370018 0.999299 
0.0152887 0.0733321 0.99719 
0.0338061 0.127628 0.991246 
0.0697546 0.165492 0.983741 
0.120509 0.223086 0.967321 
0.170048 0.302772 0.93777 
0.144147 -0.333616 0.931623 
0.112676 -0.262908 0.958219 
0.0797599 -0.186126 0.979283 
0.0444736 -0.131777 0.990281 
0.0281281 -0.092323 0.995332 
0.0201518 -0.0611938 0.997922 
0.0095152 -0.0452935 0.998928 
0.00893225 -0.0285379 0.999553 
0.0188843 -0.0104216 0.999767 
0.0251877 -0.0116817 0.999614 
0.0259737 -0.0173756 0.999512 
0.0264623 -0.0106813 0.999593 
0.0217 -0.00731108 0.999738 
0.0206535 -0.0120279 0.999714 
0.0331815 -0.0231417 0.999181 
0.0445047 -0.0214182 0.99878 
0.0541591 -0.0109545 0.998472 
0.0596721 -0.0249156 0.997907 
0.0529251 -0.023813 0.998315 
0.0605036 -0.0267785 0.997809 
0.0439667 -0.0326397 0.9985 
0.0428363 -0.0300629 0.99863 
0.0458281 -0.0108469 0.99889 
0.0437016 -0.0334626 0.998484 
0.0382301 -0.0362991 0.998609 
0.0190053 -0.0190043 0.999639 
0.00890915 -0.0248982 0.99965 
0.00953155 -0.0185805 0.999782 
0.00399024 -0.00388705 0.999984 
-0.0152352 -0.00627949 0.999864 
-0.0244056 -0.0001006 0.999702 
-0.013504 0.0176545 0.999753 
-0.000361597 0.0231936 0.999731 
0.00711045 0.043686 0.99902 
0.0201263 0.0952107 0.995254 
0.0388382 0.13216 0.990467 
0.056117 0.153223 0.986597 
0.0937198 0.204041 0.974466 
0.133446 0.249186 0.959218 
0.110828 -0.297147 0.948378 
0.0897966 -0.214991 0.972479 
0.0531693 -0.144133 0.988129 
0.024898 -0.0934138 0.995316 
0.0221812 -0.0617346 0.997846 
0.0200719 -0.0425736 0.998892 
0.00900441 -0.0307847 0.999485 
0.0142073 -0.0101957 0.999847 
0.0215308 0.00145218 0.999767 
0.0137283 -0.00755267 0.999877 
0.019512 -0.0158781 0.999684 
0.0346637 -0.00700916 0.999374 
0.0360002 -0.000896154 0.999351 
0.0317426 -0.00908061 0.999455 
0.0335172 -0.0143297 0.999335 
0.0462806 -0.0140947 0.998829 
0.0583184 -0.0220927 0.998054 
0.0608493 -0.0298671 0.9977 
0.105774 -0.0280446 0.993995 
0.018901 0.00473279 0.99981 
0.107241 -0.0308095 0.993756 
0.0360215 -0.0339723 0.998773 
0.0296165 -0.0218428 0.999323 
0.0359007 -0.0293181 0.998925 
0.0263147 -0.042297 0.998758 
0.00659738 -0.0205339 0.999767 
0.00605775 -0.0121068 0.999908 
0.0141194 -0.0330725 0.999353 
0.0144901 -0.0226867 0.999638 
0.00233658 -0.000951462 0.999997 
-0.0121497 0.00290474 0.999922 
-0.0211396 0.0107869 0.999718 
-0.0167826 0.0221488 0.999614 
-0.00893825 0.0333261 0.999405 
-0.00987499 0.0582779 0.998252 
0.0100569 0.0926239 0.99565 
0.0362411 0.130193 0.990826 
0.0466439 0.168887 0.984531 
0.0887018 0.20572 0.974583 
0.0725069 -0.259072 0.963133 
0.0569464 -0.217682 0.974357 
0.0445175 -0.158834 0.986301 
0.0264101 -0.107436 0.993861 
0.0143117 -0.0727599 0.997247 
0.0164275 -0.0440762 0.998893 
0.00797393 -0.0230178 0.999703 
-0.00437121 -0.0177378 0.999833 
0.00691298 -0.00980543 0.999928 
0.0112175 0.00106599 0.999937 
0.00503163 -0.0029645 0.999983 
0.0252371 -0.00704542 0.999657 
0.0457063 -0.00139269 0.998954 
0.0405083 0.0021341 0.999177 
0.0364987 -0.00488208 0.999322 
0.0408565 -0.0100793 0.999114 
0.0424829 -0.015622 0.998975 
0.0706319 -0.02931 0.997072 
0.0196585 -0.0160422 0.999678 
-0.0359316 0.0125177 0.999276 
0.0224193 -0.0123632 0.999672 
0.0614884 -0.0315721 0.997608 
0.0389141 -0.0236733 0.998962 
0.0305035 -0.0377312 0.998822 
0.0151052 -0.0289336 0.999467 
0.0150204 -0.0124102 0.99981 
0.0162764 -0.0212934 0.999641 
0.00517638 -0.0206272 0.999774 
-0.00428986 -0.00409231 0.999982 
-0.00710914 0.00478769 0.999963 
-0.0161092 0.00809443 0.999837 
-0.0230148 0.0142749 0.999633 
-0.0161304 0.0319418 0.99936 
-0.0215028 0.0508661 0.998474 
-0.0326204 0.057738 0.997799 
-0.0122283 0.0831393 0.996463 
0.00257695 0.134999 0.990842 
-0.000730129 0.171879 0.985118 
0.00421168 0.180561 0.983555 
0.0310641 -0.25502 0.966437 
0.0148904 -0.190568 0.981561 
0.0205904 -0.118247 0.992771 
0.0178983 -0.074835 0.997035 
0.00959056 -0.0576601 0.99829 
0.0074009 -0.0201969 0.999769 
-0.00276413 0.00201526 0.999994 
-0.00398925 -0.0119546 0.999921 
0.00663252 -0.00964066 0.999932 
0.000798071 0.0109858 0.999939 
0.00128552 0.00653478 0.999978 
0.0194762 0.00427735 0.999801 
0.0231446 0.0104955 0.999677 
0.0248034 0.00633094 0.999672 
0.0385985 -0.00425233 0.999246 