# vtk DataFile Version 3.0 
Exported using Morpho https://github.com/Morpho-lang/morpho 
ASCII 
DATASET UNSTRUCTURED_GRID 

POINTS 1245 float 
-0.303845 -0.952721 0 
-0.250833 -0.96803 0 
-0.195084 -0.980787 0 
-0.146308 -0.989239 0 
-0.0940719 -0.995565 0 
-0.0475118 -0.998871 0 
-0.000246339 -1 0 
0.0470875 -0.998891 0 
0.0937543 -0.995595 0 
0.146139 -0.989264 0 
0.195062 -0.980791 0 
0.250843 -0.968028 0 
0.303953 -0.952687 0 
-0.409153 -0.912466 0 
-0.356519 -0.934288 0 
-0.308871 -0.898929 0 
-0.258282 -0.916037 0 
-0.207345 -0.934859 0 
-0.154868 -0.930629 0 
-0.104343 -0.948989 0 
-0.0520099 -0.939193 0 
-8.5762e-05 -0.954582 0 
0.0518744 -0.939288 0 
0.104354 -0.949042 0 
0.154696 -0.9306 0 
0.207366 -0.934975 0 
0.258274 -0.916081 0 
0.308979 -0.898924 0 
0.356593 -0.93426 0 
0.409236 -0.912429 0 
-0.513788 -0.857917 0 
-0.461695 -0.887039 0 
-0.411157 -0.857936 0 
-0.359855 -0.879963 0 
-0.306888 -0.847481 0 
-0.254732 -0.866979 0 
-0.201991 -0.889059 0 
-0.149956 -0.874108 0 
-0.100608 -0.900088 0 
-0.0497575 -0.880388 0 
2.4595e-05 -0.904789 0 
0.0496869 -0.8804 0 
0.100612 -0.900177 0 
0.149872 -0.874171 0 
0.202071 -0.889165 0 
0.254695 -0.867031 0 
0.306946 -0.847482 0 
0.359894 -0.879943 0 
0.411236 -0.857929 0 
0.461748 -0.887011 0 
0.513842 -0.857885 0 
-0.564741 -0.825268 0 
-0.512908 -0.802945 0 
-0.462372 -0.832348 0 
-0.410124 -0.804631 0 
-0.358606 -0.827415 0 
-0.305781 -0.795641 0 
-0.25358 -0.816639 0 
-0.200756 -0.839997 0 
-0.149043 -0.818944 0 
-0.0987265 -0.846667 0 
-0.0490473 -0.822548 0 
5.00659e-05 -0.849932 0 
0.0490834 -0.822542 0 
0.0987838 -0.846676 0 
0.148997 -0.818924 0 
0.200826 -0.840131 0 
0.253508 -0.816728 0 
0.305831 -0.795701 0 
0.358581 -0.827419 0 
0.410181 -0.804654 0 
0.462414 -0.83234 0 
0.512965 -0.802929 0 
0.564777 -0.825243 0 
-0.660798 -0.750564 0 
-0.614015 -0.789295 0 
-0.561786 -0.769772 0 
-0.510673 -0.747856 0 
-0.460836 -0.778365 0 
-0.408794 -0.751554 0 
-0.357337 -0.774971 0 
-0.304815 -0.743684 0 
-0.252907 -0.765535 0 
-0.200631 -0.789263 0 
-0.149244 -0.764328 0 
-0.0986912 -0.791935 0 
-0.0492815 -0.765764 0 
4.16586e-05 -0.79382 0 
0.0492411 -0.765708 0 
0.0987508 -0.791951 0 
0.149196 -0.764326 0 
0.200666 -0.789356 0 
0.252841 -0.765599 0 
0.304862 -0.743741 0 
0.357323 -0.775038 0 
0.408863 -0.751626 0 
0.460863 -0.778382 0 
0.510716 -0.747859 0 
0.561819 -0.769761 0 
0.614041 -0.789274 0 
0.660811 -0.750552 0 
-0.707107 -0.707107 0 
-0.654819 -0.699058 0 
-0.60813 -0.73348 0 
-0.558104 -0.71337 0 
-0.509495 -0.692659 0 
-0.45935 -0.724356 0 
-0.407328 -0.698865 0 
-0.355968 -0.722823 0 
-0.303722 -0.691387 0 
-0.252254 -0.71362 0 
-0.20067 -0.737336 0 
-0.149608 -0.710068 0 
-0.0991558 -0.737129 0 
-0.0495872 -0.709825 0 
-2.23646e-05 -0.737917 0 
0.0494408 -0.709766 0 
0.0991291 -0.737116 0 
0.149502 -0.710042 0 
0.200696 -0.73743 0 
0.252186 -0.713735 0 
0.303753 -0.691518 0 
0.355952 -0.722893 0 
0.407371 -0.698945 0 
0.459374 -0.724407 0 
0.509524 -0.692668 0 
0.558131 -0.713361 0 
0.608151 -0.733462 0 
0.654824 -0.699048 0 
0.707107 -0.707107 0 
-0.750564 -0.660798 0 
-0.699058 -0.654819 0 
-0.647692 -0.647692 0 
-0.603437 -0.675718 0 
-0.55905 -0.655305 0 
-0.508501 -0.639581 0 
-0.457509 -0.671321 0 
-0.405555 -0.646545 0 
-0.354417 -0.670703 0 
-0.302427 -0.639219 0 
-0.251503 -0.661417 0 
-0.20061 -0.684911 0 
-0.149717 -0.655943 0 
-0.0995004 -0.682466 0 
-0.0498216 -0.654561 0 
-5.02113e-05 -0.682664 0 
0.0496787 -0.654499 0 
0.0994374 -0.682501 0 
0.149603 -0.655909 0 
0.200573 -0.684972 0 
0.251388 -0.661524 0 
0.302407 -0.639359 0 
0.354397 -0.670836 0 
0.405575 -0.646641 0 
0.457525 -0.67138 0 
0.508497 -0.639623 0 
0.559063 -0.655324 0 
0.603436 -0.675715 0 
0.64769 -0.64769 0 
0.699048 -0.654824 0 
0.750552 -0.660811 0 
-0.789295 -0.614015 0 
-0.73348 -0.60813 0 
-0.675718 -0.603437 0 
-0.613088 -0.613088 0 
-0.55962 -0.604068 0 
-0.506189 -0.588854 0 
-0.455505 -0.618874 0 
-0.403019 -0.594688 0 
-0.352514 -0.618952 0 
-0.300977 -0.586897 0 
-0.250543 -0.608767 0 
-0.200257 -0.632053 0 
-0.150049 -0.601979 0 
-0.0998281 -0.628222 0 
-0.0500377 -0.599914 0 
-3.12334e-05 -0.628076 0 
0.0498927 -0.599835 0 
0.0997818 -0.628253 0 
0.149924 -0.601867 0 
0.200214 -0.632118 0 
0.250423 -0.608915 0 
0.30086 -0.587085 0 
0.352457 -0.619096 0 
0.402948 -0.594743 0 
0.455483 -0.618952 0 
0.506147 -0.588901 0 
0.55964 -0.604067 0 
0.613069 -0.613069 0 
0.675715 -0.603436 0 
0.733462 -0.608151 0 
0.789274 -0.614041 0 
-0.825268 -0.564741 0 
-0.769772 -0.561786 0 
-0.71337 -0.558104 0 
-0.655305 -0.55905 0 
-0.604068 -0.55962 0 
-0.551031 -0.551031 0 
-0.497922 -0.537596 0 
-0.451508 -0.567021 0 
-0.399773 -0.542431 0 
-0.350494 -0.567003 0 
-0.301574 -0.534146 0 
-0.250874 -0.555692 0 
-0.200542 -0.579013 0 
-0.150324 -0.548268 0 
-0.100169 -0.57443 0 
-0.0500152 -0.545912 0 
-3.29278e-05 -0.574268 0 
0.0499208 -0.545788 0 
0.100058 -0.574485 0 
0.150038 -0.548073 0 
0.200377 -0.579041 0 
0.250556 -0.55585 0 
0.301273 -0.534348 0 
0.350318 -0.567174 0 
0.399615 -0.542384 0 
0.451404 -0.5671 0 
0.497945 -0.537702 0 
0.551073 -0.551073 0 
0.604067 -0.55964 0 
0.655324 -0.559063 0 
0.713361 -0.558131 0 
0.769761 -0.561819 0 
0.825243 -0.564777 0 
-0.857917 -0.513788 0 
-0.802945 -0.512908 0 
-0.747856 -0.510673 0 
-0.692659 -0.509495 0 
-0.639581 -0.508501 0 
-0.588854 -0.506189 0 
-0.537596 -0.497922 0 
-0.486157 -0.486157 0 
-0.444928 -0.512952 0 
-0.401787 -0.486784 0 
-0.351685 -0.513639 0 
-0.299695 -0.48291 0 
-0.250032 -0.503 0 
-0.200501 -0.526165 0 
-0.149489 -0.495195 0 
-0.0999281 -0.521367 0 
-0.0499712 -0.492294 0 
4.64723e-05 -0.520999 0 
0.050147 -0.492108 0 
0.099934 -0.52133 0 
0.14957 -0.494692 0 
0.200133 -0.526255 0 
0.249839 -0.503309 0 
0.299839 -0.483005 0 
0.351514 -0.513798 0 
0.401881 -0.486608 0 
0.444935 -0.513054 0 
0.486228 -0.486228 0 
0.537702 -0.497945 0 
0.588901 -0.506147 0 
0.639623 -0.508497 0 
0.692668 -0.509524 0 
0.747859 -0.510716 0 
0.802929 -0.512965 0 
0.857885 -0.513842 0 
-0.887039 -0.461695 0 
-0.832348 -0.462372 0 
-0.778365 -0.460836 0 
-0.724356 -0.45935 0 
-0.671321 -0.457509 0 
-0.618874 -0.455505 0 
-0.567021 -0.451508 0 
-0.512952 -0.444928 0 
-0.450685 -0.450685 0 
-0.397667 -0.437543 0 
-0.348492 -0.462546 0 
-0.295416 -0.432968 0 
-0.247004 -0.450633 0 
-0.198702 -0.473818 0 
-0.150161 -0.441625 0 
-0.100085 -0.468395 0 
-0.0502271 -0.439281 0 
0.000144229 -0.468374 0 
0.0504178 -0.439106 0 
0.100428 -0.468348 0 
0.150697 -0.441105 0 
0.199103 -0.473881 0 
0.247983 -0.450921 0 
0.296569 -0.432268 0 
0.348831 -0.462562 0 
0.397506 -0.4368 0 
0.450637 -0.450637 0 
0.513054 -0.444935 0 
0.5671 -0.451404 0 
0.618952 -0.455483 0 
0.67138 -0.457525 0 
0.724407 -0.459374 0 
0.778382 -0.460863 0 
0.83234 -0.462414 0 
0.887011 -0.461748 0 
-0.912466 -0.409153 0 
-0.857936 -0.411157 0 
-0.804631 -0.410124 0 
-0.751554 -0.408794 0 
-0.698865 -0.407328 0 
-0.646545 -0.405555 0 
-0.594688 -0.403019 0 
-0.542431 -0.399773 0 
-0.486784 -0.401787 0 
-0.437543 -0.397667 0 
-0.387256 -0.387256 0 
-0.344215 -0.411459 0 
-0.30136 -0.381507 0 
-0.25021 -0.395692 0 
-0.200211 -0.419975 0 
-0.150955 -0.389014 0 
-0.100617 -0.416095 0 
-0.0503197 -0.386922 0 
-4.02994e-05 -0.416525 0 
0.05006 -0.386948 0 
0.100784 -0.416323 0 
0.150432 -0.388572 0 
0.200855 -0.420694 0 
0.25086 -0.396905 0 
0.301746 -0.379789 0 
0.344135 -0.410678 0 
0.385823 -0.385823 0 
0.4368 -0.397506 0 
0.486608 -0.401881 0 
0.542384 -0.399615 0 
0.594743 -0.402948 0 
0.646641 -0.405575 0 
0.698945 -0.407371 0 
0.751626 -0.408863 0 
0.804654 -0.410181 0 
0.857929 -0.411236 0 
0.912429 -0.409236 0 
-0.934288 -0.356519 0 
-0.879963 -0.359855 0 
-0.827415 -0.358606 0 
-0.774971 -0.357337 0 
-0.722823 -0.355968 0 
-0.670703 -0.354417 0 
-0.618952 -0.352514 0 
-0.567003 -0.350494 0 
-0.513639 -0.351685 0 
-0.462546 -0.348492 0 
-0.411459 -0.344215 0 
-0.351697 -0.351697 0 
-0.29839 -0.336232 0 
-0.249846 -0.342529 0 
-0.200971 -0.367271 0 
-0.149995 -0.337521 0 
-0.100435 -0.3646 0 
-0.0498692 -0.335025 0 
-6.88684e-05 -0.365025 0 
0.0495433 -0.334795 0 
0.0996798 -0.364834 0 
0.148162 -0.337172 0 
0.199644 -0.368939 0 
0.24763 -0.345582 0 
0.295348 -0.332889 0 
0.34978 -0.34978 0 
0.410678 -0.344135 0 
0.462562 -0.348831 0 
0.513798 -0.351514 0 
0.567174 -0.350318 0 
0.619096 -0.352457 0 
0.670836 -0.354397 0 
0.722893 -0.355952 0 
0.775038 -0.357323 0 
0.827419 -0.358581 0 
0.879943 -0.359894 0 
0.93426 -0.356593 0 
-0.952721 -0.303845 0 
-0.898929 -0.308871 0 
-0.847481 -0.306888 0 
-0.795641 -0.305781 0 
-0.743684 -0.304815 0 
-0.691387 -0.303722 0 
-0.639219 -0.302427 0 
-0.586897 -0.300977 0 
-0.534146 -0.301574 0 
-0.48291 -0.299695 0 
-0.432968 -0.295416 0 
-0.381507 -0.30136 0 
-0.336232 -0.29839 0 
-0.288184 -0.288184 0 
-0.242975 -0.290577 0 
-0.198059 -0.315051 0 
-0.148383 -0.285894 0 
-0.0994753 -0.313232 0 
-0.0507184 -0.283118 0 
-0.000202902 -0.313447 0 
0.0500077 -0.282824 0 
0.0988289 -0.312817 0 
0.148102 -0.28482 0 
0.195742 -0.317413 0 
0.240766 -0.295824 0 
0.285014 -0.285014 0 
0.332889 -0.295348 0 
0.379789 -0.301746 0 
0.432268 -0.296569 0 
0.483005 -0.299839 0 
0.534348 -0.301273 0 
0.587085 -0.30086 0 
0.639359 -0.302407 0 
0.691518 -0.303753 0 
0.743741 -0.304862 0 
0.795701 -0.305831 0 
0.847482 -0.306946 0 
0.898924 -0.308979 0 
0.952687 -0.303953 0 
-0.96803 -0.250833 0 
-0.916037 -0.258282 0 
-0.866979 -0.254732 0 
-0.816639 -0.25358 0 
-0.765535 -0.252907 0 
-0.71362 -0.252254 0 
-0.661417 -0.251503 0 
-0.608767 -0.250543 0 
-0.555692 -0.250874 0 
-0.503 -0.250032 0 
-0.450633 -0.247004 0 
-0.395692 -0.25021 0 
-0.342529 -0.249846 0 
-0.290577 -0.242975 0 
-0.239946 -0.239946 0 
-0.194478 -0.26004 0 
-0.151293 -0.23238 0 
-0.101048 -0.260904 0 
-0.0503938 -0.232537 0 
-0.000203281 -0.262984 0 
0.050638 -0.232316 0 
0.100942 -0.260855 0 
0.152412 -0.232597 0 
0.195768 -0.261421 0 
0.241873 -0.241873 0 
0.295824 -0.240766 0 
0.345582 -0.24763 0 
0.396905 -0.25086 0 
0.450921 -0.247983 0 
[...]
POINT_DATA 1245 
VECTORS vectors float
0.524592 -0.182422 0.83158 
0.531646 -0.148671 0.833816 
0.538589 -0.112195 0.835065 
0.544507 -0.0806098 0.834873 
0.55055 -0.0471714 0.833468 
0.555695 -0.0188783 0.831172 
0.560475 0.0081312 0.828132 
0.561861 0.0339372 0.826535 
0.562514 0.0591419 0.82467 
0.56226 0.0867546 0.822397 
0.560366 0.110829 0.820797 
0.555887 0.13668 0.819944 
0.548037 0.159748 0.821058 
0.508291 -0.245562 0.825433 
0.516931 -0.214911 0.828611 
0.457522 -0.170629 0.872674 
0.466148 -0.141704 0.873285 
0.480068 -0.112985 0.869925 
0.466883 -0.0803263 0.880663 
0.487489 -0.051788 0.871592 
0.473208 -0.0226428 0.880659 
0.495504 0.00514821 0.868591 
0.478879 0.0307338 0.877343 
0.498708 0.0582251 0.864812 
0.481517 0.0800319 0.872775 
0.498684 0.106856 0.860172 
0.48441 0.127281 0.865533 
0.473907 0.147987 0.868051 
0.536351 0.182146 0.824106 
0.520286 0.204902 0.829046 
0.484482 -0.300778 0.821468 
0.497838 -0.274129 0.822806 
0.442381 -0.22606 0.867869 
0.450673 -0.198514 0.870337 
0.398217 -0.155096 0.904085 
0.40722 -0.128925 0.904185 
0.422778 -0.102273 0.900444 
0.399363 -0.0715013 0.914001 
0.425625 -0.0477325 0.90364 
0.401372 -0.0216119 0.91566 
0.43154 0.00308611 0.902088 
0.40532 0.0244344 0.913848 
0.434492 0.0498416 0.899295 
0.409843 0.0686341 0.90957 
0.437199 0.094798 0.894355 
0.420574 0.114534 0.9 
0.408025 0.134842 0.902958 
0.461936 0.169049 0.870654 
0.446132 0.191554 0.874228 
0.49917 0.229337 0.835604 
0.472933 0.256851 0.84283 
0.467537 -0.325931 0.821692 
0.419431 -0.276401 0.864685 
0.432395 -0.251901 0.865783 
0.383109 -0.206233 0.900386 
0.390466 -0.18148 0.902553 
0.344014 -0.141831 0.928191 
0.353721 -0.117962 0.927883 
0.368717 -0.094202 0.924756 
0.340864 -0.0658261 0.937805 
0.365745 -0.0440802 0.929671 
0.33947 -0.0207892 0.940387 
0.368542 0.000664122 0.929611 
0.342258 0.0203177 0.939386 
0.371988 0.0429558 0.927243 
0.348156 0.0604915 0.935483 
0.378663 0.0854359 0.921583 
0.362147 0.104157 0.926283 
0.349454 0.123498 0.928779 
0.395767 0.155724 0.905052 
0.381308 0.177926 0.907164 
0.426705 0.215623 0.87831 
0.403071 0.242831 0.882364 
0.44278 0.288432 0.848972 
0.422509 -0.375225 0.825041 
0.446706 -0.350549 0.823146 
0.402604 -0.299786 0.864892 
0.359936 -0.25347 0.897886 
0.373023 -0.230547 0.898722 
0.329545 -0.188969 0.925036 
0.337423 -0.165319 0.926723 
0.296264 -0.129754 0.946251 
0.305326 -0.108254 0.946074 
0.318639 -0.0866243 0.94391 
0.290763 -0.0608854 0.954856 
0.311699 -0.0411641 0.949289 
0.286866 -0.020334 0.957755 
0.312158 -0.00075491 0.95003 
0.288591 0.01708 0.9573 
0.315932 0.0376402 0.948035 
0.295116 0.0543835 0.953912 
0.325391 0.0775488 0.942394 
0.309762 0.0952209 0.946034 
0.297806 0.113773 0.947823 
0.337692 0.144023 0.930173 
0.32426 0.165908 0.931306 
0.362894 0.202283 0.90961 
0.341875 0.228528 0.911535 
0.376415 0.273149 0.885269 
0.410676 0.32447 0.852094 
0.379499 0.363436 0.85082 
0.394254 -0.401879 0.826473 
0.365622 -0.349135 0.862801 
0.382476 -0.322194 0.86597 
0.343371 -0.275074 0.898015 
0.307697 -0.233641 0.922353 
0.320285 -0.211154 0.923489 
0.283107 -0.17304 0.943349 
0.290066 -0.151264 0.944977 
0.253919 -0.11863 0.959923 
0.262116 -0.0991251 0.959932 
0.273538 -0.080081 0.958522 
0.247059 -0.0561414 0.967373 
0.264555 -0.0385506 0.9636 
0.241862 -0.0193131 0.970118 
0.263498 -0.00170855 0.964658 
0.242854 0.0147338 0.969951 
0.267155 0.0335479 0.96307 
0.249473 0.0490359 0.967139 
0.277096 0.0704948 0.958253 
0.263948 0.0874558 0.960564 
0.252531 0.105227 0.96185 
0.287457 0.133458 0.94845 
0.275305 0.155232 0.948741 
0.30823 0.189541 0.932239 
0.289334 0.216185 0.932496 
0.31872 0.256855 0.912383 
0.349508 0.305455 0.885744 
0.328909 0.343497 0.879675 
0.35018 0.405171 0.844518 
0.364393 -0.429429 0.826322 
0.339593 -0.373985 0.863025 
0.314893 -0.323673 0.892232 
0.324207 -0.296698 0.898254 
0.29141 -0.255833 0.921754 
0.263561 -0.21667 0.939994 
0.274016 -0.194547 0.941842 
0.242231 -0.159079 0.957088 
0.248364 -0.138954 0.958649 
0.21682 -0.109031 0.970104 
0.223802 -0.0912284 0.970356 
0.233848 -0.0736273 0.969481 
0.209358 -0.0520061 0.976455 
0.224117 -0.0360546 0.973895 
0.203744 -0.0183517 0.978852 
0.222324 -0.0024552 0.97497 
0.204156 0.0130291 0.978852 
0.225404 0.030156 0.973799 
0.210165 0.0447472 0.976641 
0.235187 0.064898 0.969781 
0.223363 0.0804354 0.971411 
0.214197 0.0976062 0.971902 
0.244059 0.124242 0.961769 
0.233739 0.145128 0.961407 
0.261631 0.178124 0.948589 
0.246754 0.204283 0.947302 
0.26924 0.244574 0.931501 
0.295714 0.287247 0.911066 
0.285052 0.322093 0.902774 
0.304638 0.379867 0.873439 
0.325475 0.444937 0.834325 
0.335766 -0.455869 0.824285 
0.310745 -0.391715 0.866024 
0.287092 -0.333491 0.897977 
0.274163 -0.283218 0.919034 
0.251319 -0.240536 0.93754 
0.226139 -0.201729 0.952978 
0.234405 -0.179501 0.955423 
0.206474 -0.146859 0.967368 
0.212475 -0.127343 0.968833 
0.184339 -0.100378 0.977724 
0.19051 -0.0836485 0.978115 
0.198792 -0.0678553 0.97769 
0.177006 -0.0481381 0.983032 
0.189103 -0.0334102 0.981389 
0.171507 -0.0173787 0.98503 
0.186867 -0.00259993 0.982382 
0.17157 0.0115771 0.985104 
0.189491 0.0273549 0.981501 
0.176662 0.0413114 0.983404 
0.198555 0.0594446 0.978285 
0.18868 0.0747911 0.979186 
0.180589 0.0907327 0.979365 
0.206603 0.115948 0.97153 
0.198176 0.13587 0.970704 
0.222152 0.167732 0.960476 
0.211363 0.193193 0.958124 
0.231929 0.23386 0.944203 
0.250306 0.280208 0.926731 
0.260917 0.338378 0.904114 
0.282252 0.404959 0.869679 
0.306168 0.478545 0.822956 
0.30802 -0.481506 0.820534 
0.286221 -0.414763 0.863741 
0.264571 -0.354176 0.896973 
0.246918 -0.301266 0.921016 
0.232432 -0.260083 0.937194 
0.212676 -0.22046 0.951928 
0.19197 -0.184656 0.963872 
0.19956 -0.165427 0.965821 
0.17545 -0.135071 0.975179 
0.180604 -0.11769 0.976489 
0.156373 -0.0932966 0.983282 
0.161176 -0.0777772 0.983856 
0.168372 -0.0628955 0.983715 
0.149003 -0.0446533 0.987828 
0.159468 -0.0312789 0.986707 
0.143655 -0.0160336 0.989498 
0.157283 -0.00276727 0.98755 
0.143306 0.0107126 0.98962 
0.159223 0.0251894 0.986921 
0.14789 0.0381436 0.988268 
0.167175 0.055256 0.984378 
0.158484 0.0697376 0.984896 
0.152138 0.0855184 0.984653 
0.174859 0.108285 0.978621 
0.167184 0.126978 0.977715 
0.18862 0.156688 0.96947 
0.179535 0.178705 0.967384 
0.197088 0.216394 0.956206 
0.213983 0.259239 0.94181 
0.226694 0.305244 0.924898 
0.243727 0.364766 0.898634 
0.265996 0.432686 0.861411 
0.289971 0.506653 0.811924 
0.282053 -0.504798 0.815858 
0.262176 -0.435953 0.860935 
0.242571 -0.373939 0.89517 
0.224737 -0.319565 0.920528 
0.209185 -0.273623 0.938814 
0.194681 -0.235094 0.952276 
0.178101 -0.199533 0.96357 
0.161787 -0.167488 0.972509 
0.167501 -0.151626 0.974142 
0.147384 -0.126874 0.980908 
0.152892 -0.110024 0.982099 
0.13221 -0.086671 0.987425 
0.136014 -0.0719665 0.98809 
0.142194 -0.058364 0.988117 
0.125195 -0.0413549 0.99127 
0.134125 -0.0290579 0.990538 
0.120498 -0.0151907 0.992597 
0.132018 -0.00277287 0.991243 
0.120125 0.00973203 0.992711 
0.133524 0.023229 0.990773 
0.123662 0.0355574 0.991687 
0.140225 0.0516787 0.98877 
0.13319 0.0652137 0.988943 
0.127818 0.080368 0.988536 
0.147008 0.102645 0.983795 
0.139868 0.120868 0.982766 
0.158283 0.145128 0.97667 
0.151439 0.163581 0.974837 
0.166038 0.196775 0.966287 
0.180509 0.234945 0.955101 
0.194007 0.277064 0.941062 
0.209838 0.327619 0.921213 
0.228631 0.387241 0.893181 
0.251262 0.454852 0.854387 
0.275737 0.528267 0.803059 
0.2579 -0.524643 0.811318 
0.239263 -0.454168 0.858187 
0.220737 -0.390894 0.893575 
0.203342 -0.334627 0.92015 
0.187993 -0.286337 0.939505 
0.173687 -0.244476 0.953973 
0.160281 -0.20785 0.96494 
0.146313 -0.174528 0.973721 
0.138246 -0.143573 0.979936 
0.125102 -0.118035 0.985098 
0.129119 -0.101985 0.986371 
0.111596 -0.0799753 0.99053 
0.113994 -0.0664472 0.991257 
0.119471 -0.0538495 0.991376 
0.104408 -0.0388724 0.993775 
0.112248 -0.0269636 0.993314 
0.100156 -0.0142426 0.99487 
0.110134 -0.00232295 0.993914 
0.0996152 0.00924224 0.994983 
0.111197 0.0219921 0.993555 
0.102727 0.0335673 0.994143 
0.117321 0.0481075 0.991928 
0.110965 0.0611197 0.991943 
0.107414 0.0749422 0.991386 
0.123708 0.0961643 0.987648 
0.118176 0.113305 0.986507 
0.130165 0.139193 0.981673 
0.136983 0.172019 0.975523 
0.149523 0.207627 0.966713 
0.162815 0.246809 0.955289 
0.1769 0.291824 0.939971 
0.194156 0.344021 0.918669 
0.214119 0.40396 0.889364 
0.237027 0.470702 0.849858 
0.261968 0.543313 0.797611 
0.235271 -0.540521 0.807765 
0.217613 -0.46885 0.856051 
0.199577 -0.404242 0.892613 
0.183382 -0.347267 0.919661 
0.168486 -0.297149 0.939848 
0.154947 -0.25372 0.954787 
0.142851 -0.216082 0.965869 
0.131429 -0.183006 0.974287 
0.123202 -0.153345 0.980462 
0.114346 -0.129616 0.984949 
0.10415 -0.107956 0.988685 
0.108414 -0.0943914 0.989614 
0.0937337 -0.0773534 0.992588 
0.0945238 -0.063004 0.993527 
0.0995374 -0.050707 0.993741 
0.0867767 -0.0363565 0.995564 
0.0936655 -0.0254993 0.995277 
0.0832919 -0.0130901 0.996439 
0.0921866 -0.00247636 0.995739 
0.0827692 0.00889327 0.996529 
0.0928232 0.0206285 0.995469 
0.0848578 0.0319548 0.995881 
0.0974476 0.0459521 0.994179 
0.0918811 0.0585884 0.994045 
0.0891937 0.07292 0.993341 
0.103015 0.0898169 0.990616 
0.0979772 0.10323 0.98982 
0.107484 0.126026 0.986187 
0.115471 0.151116 0.981749 
0.123301 0.18224 0.975492 
0.134175 0.217108 0.966882 
0.147041 0.257076 0.955139 
0.161832 0.302951 0.939165 
0.179034 0.355392 0.917411 
0.199339 0.414741 0.887836 
0.222457 0.480647 0.848229 
0.247371 0.552231 0.796146 
0.213495 -0.552379 0.80579 
0.196678 -0.479839 0.855028 
0.179568 -0.415064 0.891895 
0.163795 -0.356694 0.91975 
0.149484 -0.305976 0.94023 
0.137027 -0.261183 0.955514 
0.125508 -0.222755 0.966762 
0.115496 -0.188856 0.975189 
0.107485 -0.159528 0.981325 
0.0993975 -0.134353 0.985936 
0.091986 -0.112236 0.989415 
0.0884878 -0.0910071 0.991911 
0.0792353 -0.0728238 0.994192 
0.0778724 -0.0592291 0.995202 
0.0823868 -0.0480679 0.995441 
0.0715609 -0.0342812 0.996847 
0.0775898 -0.0240391 0.996696 
0.0681677 -0.0124768 0.997596 
0.075921 -0.0022309 0.997111 
0.0676079 0.00811999 0.997679 
0.0765863 0.0193526 0.996875 
0.0698467 0.0296171 0.997118 
0.0806533 0.0431718 0.995807 
0.0756515 0.054973 0.995618 
0.0744681 0.0679625 0.994905 
0.0831172 0.0867233 0.992759 
0.0864829 0.109169 0.990254 
0.093365 0.132374 0.986793 
0.100832 0.158276 0.982233 
0.108613 0.18914 0.975925 
0.119264 0.224183 0.967222 
0.131493 0.264212 0.955459 
0.146218 0.310192 0.939362 
0.163365 0.362179 0.917681 
0.183438 0.420774 0.888425 
0.206419 0.485482 0.849529 
0.230728 0.555828 0.798636 
0.191889 -0.560436 0.805662 
0.176738 -0.48837 0.854552 
0.159857 -0.42307 0.891884 
0.144967 -0.364816 0.919725 
0.131748 -0.31281 0.940634 
0.119783 -0.267307 0.956138 
0.109265 -0.227357 0.967662 
0.0998721 -0.193058 0.976091 
0.0925227 -0.162985 0.982281 
0.0853385 -0.137673 0.986795 
0.0785066 -0.115657 0.990182 
0.0755813 -0.0969457 0.992416 
0.0709873 -0.0816014 0.994134 
0.0650982 -0.066521 0.995659 
0.0630725 -0.0546276 0.996513 
0.0673973 -0.0444638 0.996735 
0.0581499 -0.0321393 0.99779 
0.0636762 -0.0221736 0.997724 
0.0554767 -0.0118516 0.99839 
0.0625338 -0.00180096 0.998041 
0.0549295 0.00809061 0.998457 
0.0625356 0.0185628 0.99787 
0.0564244 0.0285015 0.998 
0.0657439 0.0405074 0.997014 
0.0617682 0.0508626 0.996794 
0.0609355 0.0624193 0.996188 
0.0660863 0.0773773 0.994809 
0.0709272 0.0938202 0.993059 
0.0738513 0.113581 0.99078 
0.0799226 0.136272 0.987442 
0.0866562 0.162706 0.982862 
0.0943728 0.193159 0.976618 
0.104339 0.228618 0.967909 
0.116174 0.268821 0.956158 
0.130334 0.314772 0.940177 
0.146711 0.36622 0.91889 
0.165959 0.423572 0.89053 
0.188473 0.486825 0.852924 
0.210933 0.554968 0.804685 
0.16979 -0.565071 0.807382 
0.156836 -0.495261 0.85447 
0.140888 -0.431788 0.890904 
0.126964 -0.373927 0.918727 
0.114715 -0.321694 0.939869 
0.10365 -0.275192 0.955786 
0.0939128 -0.234565 0.967553 
0.0855253 -0.198721 0.976317 
0.0783116 -0.168032 0.982666 
0.0719706 -0.141245 0.987355 
0.0660143 -0.118119 0.990803 
0.0621976 -0.0976678 0.993274 
0.0583536 -0.0800331 0.995083 
0.0537152 -0.0644911 0.996472 
0.0504595 -0.0514549 0.9974 
0.0536122 -0.041447 0.997701 
0.0458266 -0.0310691 0.998466 
0.0509915 -0.0215493 0.998467 
0.0440806 -0.0110083 0.998967 
0.0499433 -0.00180605 0.99875 
0.0435741 0.00811846 0.999017 
0.0499592 0.0180165 0.998589 
0.044512 0.0284912 0.998602 
0.0519156 0.0386159 0.997905 
0.0487118 0.0491606 0.997602 
0.0503151 0.0635235 0.996711 
0.0544332 0.0786551 0.995415 
0.0584128 0.096238 0.993643 
0.0615599 0.11709 0.991211 
0.0670257 0.140643 0.987789 
0.0732505 0.167551 0.983138 
0.0805095 0.19902 0.976683 
0.0898 0.234509 0.967957 
0.100875 0.275143 0.956096 
0.113573 0.320362 0.940462 
0.129059 0.371087 0.919586 
0.146527 0.426205 0.892681 
0.167853 0.486574 0.857363 
0.186679 0.550547 0.813664 
0.14494 -0.56614 0.811466 
0.137607 -0.505587 0.851731 
0.122337 -0.445012 0.887129 
0.109467 -0.386533 0.915756 
0.0982561 -0.333602 0.93758 
0.0881329 -0.285689 0.954261 
0.0795522 -0.243415 0.966654 
0.071537 -0.206687 0.975788 
0.0652341 -0.174656 0.982466 
0.059679 -0.147135 0.987314 
0.0545163 -0.123524 0.990843 
0.0507021 -0.102586 0.993431 
0.0478822 -0.0846114 0.995263 
0.0440673 -0.069171 0.996631 
0.0412781 -0.0543538 0.997668 
0.0406662 -0.0409767 0.998332 
0.0359186 -0.0292221 0.998927 
0.0402789 -0.0200999 0.998986 
0.0337805 -0.00995494 0.99938 
0.0399057 -0.00146338 0.999202 
0.0334154 0.00721062 0.999416 
0.0394367 0.0174667 0.999069 
0.0347884 0.026816 0.999035 
0.0392651 0.0389739 0.998468 
0.0391071 0.052706 0.997844 
0.0409432 0.0675986 0.996872 
0.0439705 0.0837236 0.995518 
0.0470487 0.101777 0.993694 
0.0503088 0.122708 0.991167 
0.0547983 0.146794 0.987648 
0.0603388 0.174472 0.982812 
0.0670216 0.206134 0.976226 
0.0750127 0.242579 0.967227 
0.0848319 0.283347 0.955258 
0.0963736 0.329294 0.939296 
0.109411 0.379054 0.918884 
0.125406 0.433434 0.892417 
0.144881 0.489845 0.859687 
0.154742 0.543114 0.825277 
0.121707 -0.564667 0.816296 
0.110477 -0.485556 0.867197 
0.0946543 -0.413996 0.905344 
0.0828435 -0.353173 0.931883 
0.0732056 -0.300328 0.951023 
0.0648303 -0.255121 0.964733 
0.0579596 -0.215842 0.974707 
0.0521622 -0.182164 0.981884 
0.0472535 -0.153477 0.987022 
0.0427546 -0.128631 0.99077 
0.0398264 -0.107151 0.993445 
0.0368104 -0.089105 0.995342 
0.0345195 -0.0730331 0.996732 
0.032267 -0.0592239 0.997723 
0.0311461 -0.046464 0.998434 
0.0294114 -0.0359714 0.99892 
0.0261079 -0.0256847 0.999329 
0.0302529 -0.0183552 0.999374 
0.0246571 -0.0103052 0.999643 
0.0296263 -0.00117598 0.99956 
0.0243135 0.00815099 0.999671 
0.0296713 0.0160999 0.99943 
0.0251256 0.0237449 0.999402 
0.0282035 0.0341016 0.99902 
0.0295858 0.044571 0.998568 
0.0297445 0.0573107 0.997913 
0.0312039 0.0718485 0.996927 
0.0334992 0.0877991 0.995575 
0.0359503 0.106536 0.993659 
0.0385212 0.12834 0.990982 
0.0425261 0.153114 0.987293 
0.0469389 0.181964 0.982184 
0.0525306 0.215104 0.975177 
0.0595582 0.252903 0.965657 
0.0675976 0.296162 0.952743 
0.0778278 0.345337 0.935246 
0.0907443 0.401547 0.911332 
0.108682 0.466168 0.877995 
0.121312 0.536376 0.835215 
0.0948331 -0.561067 0.82232 
0.0897177 -0.498948 0.861975 
0.0773529 -0.434737 0.897229 
0.0664584 -0.373094 0.92541 
0.0574364 -0.317796 0.946418 
0.0502799 -0.269776 0.96161 
0.0441516 -0.228261 0.972598 
0.0389873 -0.193027 0.980419 
0.034867 -0.162649 0.986068 
0.0315556 -0.136763 0.990101 
0.0286041 -0.114834 0.992973 
0.0264347 -0.0954354 0.995085 
0.0247733 -0.0791979 0.996551 
0.0228278 -0.0647262 0.997642 
0.0220523 -0.0517118 0.998419 
0.0207127 -0.0404118 0.998968 
0.0190687 -0.0300521 0.999366 
0.0195737 -0.0189259 0.999629 
0.0162851 -0.00945716 0.999823 
0.0211047 -0.00111066 0.999777 
0.0160386 0.00771696 0.999842 
0.0189834 0.0169278 0.999676 
0.0182959 0.0285168 0.999426 
0.01925 0.0388183 0.999061 
0.020183 0.0504582 0.998522 
0.0204587 0.0636597 0.997762 
0.0217271 0.078578 0.996671 
0.0232415 0.0955643 0.995152 
0.0249262 0.114753 0.993081 
0.0270478 0.137255 0.990166 
0.0297187 0.163213 0.986143 
0.033273 0.192946 0.980645 
0.0372548 0.227525 0.973059 
0.0424294 0.267145 0.962722 
0.0487211 0.312162 0.948779 
0.0561913 0.363168 0.930028 
0.0660274 0.418674 0.905733 
0.0788719 0.47619 0.875798 
0.0797603 0.530288 0.844057 
0.0697298 -0.556848 0.827682 
0.0607578 -0.474582 0.878112 
0.0496247 -0.402613 0.914024 
0.0411978 -0.34033 0.939403 
0.0345918 -0.287801 0.957065 
0.0292055 -0.243199 0.969537 
0.0251542 -0.205244 0.978388 
0.021947 -0.172803 0.984712 
0.0190828 -0.145726 0.989141 
0.0171167 -0.121761 0.992412 
0.015672 -0.101853 0.994676 
0.0142514 -0.0844768 0.996324 
0.0132817 -0.069303 0.997507 
0.0127318 -0.0560958 0.998344 
0.0120109 -0.044266 0.998948 
0.0108538 -0.0339986 0.999363 
0.011423 -0.023903 0.999649 
0.0107039 -0.0155001 0.999823 
0.00813927 -0.00642672 0.999946 
0.013011 -0.000887212 0.999915 
0.00792429 0.00473643 0.999957 
0.0104127 0.0139107 0.999849 
0.0106522 0.0225502 0.999689 
0.00984749 0.0324686 0.999424 
0.0107542 0.0434146 0.998999 
0.0107232 0.0552 0.998418 
0.0110286 0.068964 0.997558 
0.011583 0.0846417 0.996344 
0.012451 0.102237 0.994682 
0.0132257 0.122957 0.992324 
0.0144247 0.146615 0.989088 
0.0160323 0.17419 0.984582 
0.0178035 0.206092 0.978371 
0.02039 0.242784 0.969866 
0.0231196 0.285459 0.958112 
0.0267889 0.334469 0.942026 
0.0318031 0.391255 0.919732 
0.0382409 0.455476 0.889427 
0.04069 0.527964 0.848292 
0.0434186 -0.551138 0.833283 
0.0358542 -0.487394 0.872446 
0.028856 -0.42395 0.905226 
0.0222407 -0.362564 0.931693 
0.0169694 -0.307832 0.951289 
0.0130473 -0.260654 0.965344 
0.0100082 -0.220409 0.975356 
0.00752709 -0.186511 0.982424 
0.00608321 -0.157303 0.987532 
0.00498096 -0.1324 0.991184 
0.00392724 -0.111458 0.993761 
0.00363872 -0.0927751 0.99568 
0.00326948 -0.077192 0.997011 
0.00302395 -0.0628706 0.998017 
0.00285597 -0.050843 0.998703 
0.00276565 -0.0398092 0.999203 
0.00271595 -0.0291421 0.999572 
0.00260845 -0.0206117 0.999784 
0.00224545 -0.0119789 0.999926 
0.00187898 -0.000564345 0.999998 
0.00210866 0.0106322 0.999941 
0.00213488 0.019194 0.999813 
0.00204093 0.0282865 0.999598 
0.00180435 0.0390704 0.999235 
0.00141763 0.0501581 0.99874 
0.00134753 0.0630865 0.998007 
0.00115167 0.0774402 0.996996 
0.000980709 0.0940145 0.99557 
0.000853524 0.112739 0.993624 
0.000910641 0.134637 0.990895 
0.000640599 0.15988 0.987136 
0.000893332 0.188977 0.981981 
0.00082448 0.222937 0.974833 
0.000975241 0.262101 0.96504 
0.00123279 0.307189 0.951648 
0.0010955 0.358458 0.933545 
0.00110939 0.414814 0.909905 
0.00069593 0.471484 0.881874 
-8.4179e-06 0.528287 0.849066 
0.0149938 -0.542016 0.840235 
0.00452464 -0.460507 0.887645 
0.000524233 -0.390818 0.920468 
-0.00290915 -0.331119 0.943584 
-0.00561168 -0.280259 0.959908 
-0.00745122 -0.237452 0.971371 
-0.00819909 -0.200738 0.979611 
-0.00866953 -0.169473 0.985497 
-0.00892851 -0.143184 0.989656 
-0.00843547 -0.119855 0.992756 
-0.0082415 -0.100524 0.9949 
-0.00778767 -0.0833377 0.996491 
-0.00707681 -0.0686806 0.997614 
-0.00676277 -0.0552648 0.998449 
-0.00652676 -0.0438923 0.999015 
-0.00564437 -0.0335336 0.999422 
-0.00620262 -0.0238805 0.999696 
-0.00561091 -0.0149895 0.999872 
-0.0024558 -0.00637687 0.999977 
-0.0083124 -0.000400989 0.999965 
-0.00262198 0.00478024 0.999985 
-0.00578198 0.0142622 0.999882 
-0.00658905 0.0226131 0.999723 
-0.00622537 0.0327991 0.999443 
-0.00732992 0.0435255 0.999025 
-0.0079197 0.0556465 0.998419 
-0.0086955 0.0690833 0.997573 
-0.00954421 0.0846916 0.996361 
-0.0104909 0.102399 0.994688 
-0.0116592 0.122846 0.992357 
-0.0129851 0.146476 0.989129 
-0.014431 0.173967 0.984646 
-0.0164374 0.205685 0.97848 
-0.0182799 0.242454 0.969991 
-0.0211902 0.285012 0.95829 
-0.0242259 0.334392 0.942123 
-0.0293157 0.39108 0.91989 
-0.036186 0.456276 0.889102 
-0.0399528 0.529281 0.847506 
-0.0157957 -0.532411 0.846339 