# vtk DataFile Version 3.0 
Exported using Morpho https://github.com/Morpho-lang/morpho 
ASCII 
DATASET UNSTRUCTURED_GRID 

POINTS 1245 float 
-0.303845 -0.952721 0 
-0.250833 -0.96803 0 
-0.195084 -0.980787 0 
-0.146308 -0.989239 0 
-0.0940719 -0.995565 0 
-0.0475118 -0.998871 0 
-0.000246339 -1 0 
0.0470875 -0.998891 0 
0.0937543 -0.995595 0 
0.146139 -0.989264 0 
0.195062 -0.980791 0 
0.250843 -0.968028 0 
0.303953 -0.952687 0 
-0.409153 -0.912466 0 
-0.356519 -0.934288 0 
-0.308871 -0.898929 0 
-0.258282 -0.916037 0 
-0.207345 -0.934859 0 
-0.154868 -0.930629 0 
-0.104343 -0.948989 0 
-0.0520099 -0.939193 0 
-8.5762e-05 -0.954582 0 
0.0518744 -0.939288 0 
0.104354 -0.949042 0 
0.154696 -0.9306 0 
0.207366 -0.934975 0 
0.258274 -0.916081 0 
0.308979 -0.898924 0 
0.356593 -0.93426 0 
0.409236 -0.912429 0 
-0.513788 -0.857917 0 
-0.461695 -0.887039 0 
-0.411157 -0.857936 0 
-0.359855 -0.879963 0 
-0.306888 -0.847481 0 
-0.254732 -0.866979 0 
-0.201991 -0.889059 0 
-0.149956 -0.874108 0 
-0.100608 -0.900088 0 
-0.0497575 -0.880388 0 
2.4595e-05 -0.904789 0 
0.0496869 -0.8804 0 
0.100612 -0.900177 0 
0.149872 -0.874171 0 
0.202071 -0.889165 0 
0.254695 -0.867031 0 
0.306946 -0.847482 0 
0.359894 -0.879943 0 
0.411236 -0.857929 0 
0.461748 -0.887011 0 
0.513842 -0.857885 0 
-0.564741 -0.825268 0 
-0.512908 -0.802945 0 
-0.462372 -0.832348 0 
-0.410124 -0.804631 0 
-0.358606 -0.827415 0 
-0.305781 -0.795641 0 
-0.25358 -0.816639 0 
-0.200756 -0.839997 0 
-0.149043 -0.818944 0 
-0.0987265 -0.846667 0 
-0.0490473 -0.822548 0 
5.00659e-05 -0.849932 0 
0.0490834 -0.822542 0 
0.0987838 -0.846676 0 
0.148997 -0.818924 0 
0.200826 -0.840131 0 
0.253508 -0.816728 0 
0.305831 -0.795701 0 
0.358581 -0.827419 0 
0.410181 -0.804654 0 
0.462414 -0.83234 0 
0.512965 -0.802929 0 
0.564777 -0.825243 0 
-0.660798 -0.750564 0 
-0.614015 -0.789295 0 
-0.561786 -0.769772 0 
-0.510673 -0.747856 0 
-0.460836 -0.778365 0 
-0.408794 -0.751554 0 
-0.357337 -0.774971 0 
-0.304815 -0.743684 0 
-0.252907 -0.765535 0 
-0.200631 -0.789263 0 
-0.149244 -0.764328 0 
-0.0986912 -0.791935 0 
-0.0492815 -0.765764 0 
4.16586e-05 -0.79382 0 
0.0492411 -0.765708 0 
0.0987508 -0.791951 0 
0.149196 -0.764326 0 
0.200666 -0.789356 0 
0.252841 -0.765599 0 
0.304862 -0.743741 0 
0.357323 -0.775038 0 
0.408863 -0.751626 0 
0.460863 -0.778382 0 
0.510716 -0.747859 0 
0.561819 -0.769761 0 
0.614041 -0.789274 0 
0.660811 -0.750552 0 
-0.707107 -0.707107 0 
-0.654819 -0.699058 0 
-0.60813 -0.73348 0 
-0.558104 -0.71337 0 
-0.509495 -0.692659 0 
-0.45935 -0.724356 0 
-0.407328 -0.698865 0 
-0.355968 -0.722823 0 
-0.303722 -0.691387 0 
-0.252254 -0.71362 0 
-0.20067 -0.737336 0 
-0.149608 -0.710068 0 
-0.0991558 -0.737129 0 
-0.0495872 -0.709825 0 
-2.23646e-05 -0.737917 0 
0.0494408 -0.709766 0 
0.0991291 -0.737116 0 
0.149502 -0.710042 0 
0.200696 -0.73743 0 
0.252186 -0.713735 0 
0.303753 -0.691518 0 
0.355952 -0.722893 0 
0.407371 -0.698945 0 
0.459374 -0.724407 0 
0.509524 -0.692668 0 
0.558131 -0.713361 0 
0.608151 -0.733462 0 
0.654824 -0.699048 0 
0.707107 -0.707107 0 
-0.750564 -0.660798 0 
-0.699058 -0.654819 0 
-0.647692 -0.647692 0 
-0.603437 -0.675718 0 
-0.55905 -0.655305 0 
-0.508501 -0.639581 0 
-0.457509 -0.671321 0 
-0.405555 -0.646545 0 
-0.354417 -0.670703 0 
-0.302427 -0.639219 0 
-0.251503 -0.661417 0 
-0.20061 -0.684911 0 
-0.149717 -0.655943 0 
-0.0995004 -0.682466 0 
-0.0498216 -0.654561 0 
-5.02113e-05 -0.682664 0 
0.0496787 -0.654499 0 
0.0994374 -0.682501 0 
0.149603 -0.655909 0 
0.200573 -0.684972 0 
0.251388 -0.661524 0 
0.302407 -0.639359 0 
0.354397 -0.670836 0 
0.405575 -0.646641 0 
0.457525 -0.67138 0 
0.508497 -0.639623 0 
0.559063 -0.655324 0 
0.603436 -0.675715 0 
0.64769 -0.64769 0 
0.699048 -0.654824 0 
0.750552 -0.660811 0 
-0.789295 -0.614015 0 
-0.73348 -0.60813 0 
-0.675718 -0.603437 0 
-0.613088 -0.613088 0 
-0.55962 -0.604068 0 
-0.506189 -0.588854 0 
-0.455505 -0.618874 0 
-0.403019 -0.594688 0 
-0.352514 -0.618952 0 
-0.300977 -0.586897 0 
-0.250543 -0.608767 0 
-0.200257 -0.632053 0 
-0.150049 -0.601979 0 
-0.0998281 -0.628222 0 
-0.0500377 -0.599914 0 
-3.12334e-05 -0.628076 0 
0.0498927 -0.599835 0 
0.0997818 -0.628253 0 
0.149924 -0.601867 0 
0.200214 -0.632118 0 
0.250423 -0.608915 0 
0.30086 -0.587085 0 
0.352457 -0.619096 0 
0.402948 -0.594743 0 
0.455483 -0.618952 0 
0.506147 -0.588901 0 
0.55964 -0.604067 0 
0.613069 -0.613069 0 
0.675715 -0.603436 0 
0.733462 -0.608151 0 
0.789274 -0.614041 0 
-0.825268 -0.564741 0 
-0.769772 -0.561786 0 
-0.71337 -0.558104 0 
-0.655305 -0.55905 0 
-0.604068 -0.55962 0 
-0.551031 -0.551031 0 
-0.497922 -0.537596 0 
-0.451508 -0.567021 0 
-0.399773 -0.542431 0 
-0.350494 -0.567003 0 
-0.301574 -0.534146 0 
-0.250874 -0.555692 0 
-0.200542 -0.579013 0 
-0.150324 -0.548268 0 
-0.100169 -0.57443 0 
-0.0500152 -0.545912 0 
-3.29278e-05 -0.574268 0 
0.0499208 -0.545788 0 
0.100058 -0.574485 0 
0.150038 -0.548073 0 
0.200377 -0.579041 0 
0.250556 -0.55585 0 
0.301273 -0.534348 0 
0.350318 -0.567174 0 
0.399615 -0.542384 0 
0.451404 -0.5671 0 
0.497945 -0.537702 0 
0.551073 -0.551073 0 
0.604067 -0.55964 0 
0.655324 -0.559063 0 
0.713361 -0.558131 0 
0.769761 -0.561819 0 
0.825243 -0.564777 0 
-0.857917 -0.513788 0 
-0.802945 -0.512908 0 
-0.747856 -0.510673 0 
-0.692659 -0.509495 0 
-0.639581 -0.508501 0 
-0.588854 -0.506189 0 
-0.537596 -0.497922 0 
-0.486157 -0.486157 0 
-0.444928 -0.512952 0 
-0.401787 -0.486784 0 
-0.351685 -0.513639 0 
-0.299695 -0.48291 0 
-0.250032 -0.503 0 
-0.200501 -0.526165 0 
-0.149489 -0.495195 0 
-0.0999281 -0.521367 0 
-0.0499712 -0.492294 0 
4.64723e-05 -0.520999 0 
0.050147 -0.492108 0 
0.099934 -0.52133 0 
0.14957 -0.494692 0 
0.200133 -0.526255 0 
0.249839 -0.503309 0 
0.299839 -0.483005 0 
0.351514 -0.513798 0 
0.401881 -0.486608 0 
0.444935 -0.513054 0 
0.486228 -0.486228 0 
0.537702 -0.497945 0 
0.588901 -0.506147 0 
0.639623 -0.508497 0 
0.692668 -0.509524 0 
0.747859 -0.510716 0 
0.802929 -0.512965 0 
0.857885 -0.513842 0 
-0.887039 -0.461695 0 
-0.832348 -0.462372 0 
-0.778365 -0.460836 0 
-0.724356 -0.45935 0 
-0.671321 -0.457509 0 
-0.618874 -0.455505 0 
-0.567021 -0.451508 0 
-0.512952 -0.444928 0 
-0.450685 -0.450685 0 
-0.397667 -0.437543 0 
-0.348492 -0.462546 0 
-0.295416 -0.432968 0 
-0.247004 -0.450633 0 
-0.198702 -0.473818 0 
-0.150161 -0.441625 0 
-0.100085 -0.468395 0 
-0.0502271 -0.439281 0 
0.000144229 -0.468374 0 
0.0504178 -0.439106 0 
0.100428 -0.468348 0 
0.150697 -0.441105 0 
0.199103 -0.473881 0 
0.247983 -0.450921 0 
0.296569 -0.432268 0 
0.348831 -0.462562 0 
0.397506 -0.4368 0 
0.450637 -0.450637 0 
0.513054 -0.444935 0 
0.5671 -0.451404 0 
0.618952 -0.455483 0 
0.67138 -0.457525 0 
0.724407 -0.459374 0 
0.778382 -0.460863 0 
0.83234 -0.462414 0 
0.887011 -0.461748 0 
-0.912466 -0.409153 0 
-0.857936 -0.411157 0 
-0.804631 -0.410124 0 
-0.751554 -0.408794 0 
-0.698865 -0.407328 0 
-0.646545 -0.405555 0 
-0.594688 -0.403019 0 
-0.542431 -0.399773 0 
-0.486784 -0.401787 0 
-0.437543 -0.397667 0 
-0.387256 -0.387256 0 
-0.344215 -0.411459 0 
-0.30136 -0.381507 0 
-0.25021 -0.395692 0 
-0.200211 -0.419975 0 
-0.150955 -0.389014 0 
-0.100617 -0.416095 0 
-0.0503197 -0.386922 0 
-4.02994e-05 -0.416525 0 
0.05006 -0.386948 0 
0.100784 -0.416323 0 
0.150432 -0.388572 0 
0.200855 -0.420694 0 
0.25086 -0.396905 0 
0.301746 -0.379789 0 
0.344135 -0.410678 0 
0.385823 -0.385823 0 
0.4368 -0.397506 0 
0.486608 -0.401881 0 
0.542384 -0.399615 0 
0.594743 -0.402948 0 
0.646641 -0.405575 0 
0.698945 -0.407371 0 
0.751626 -0.408863 0 
0.804654 -0.410181 0 
0.857929 -0.411236 0 
0.912429 -0.409236 0 
-0.934288 -0.356519 0 
-0.879963 -0.359855 0 
-0.827415 -0.358606 0 
-0.774971 -0.357337 0 
-0.722823 -0.355968 0 
-0.670703 -0.354417 0 
-0.618952 -0.352514 0 
-0.567003 -0.350494 0 
-0.513639 -0.351685 0 
-0.462546 -0.348492 0 
-0.411459 -0.344215 0 
-0.351697 -0.351697 0 
-0.29839 -0.336232 0 
-0.249846 -0.342529 0 
-0.200971 -0.367271 0 
-0.149995 -0.337521 0 
-0.100435 -0.3646 0 
-0.0498692 -0.335025 0 
-6.88684e-05 -0.365025 0 
0.0495433 -0.334795 0 
0.0996798 -0.364834 0 
0.148162 -0.337172 0 
0.199644 -0.368939 0 
0.24763 -0.345582 0 
0.295348 -0.332889 0 
0.34978 -0.34978 0 
0.410678 -0.344135 0 
0.462562 -0.348831 0 
0.513798 -0.351514 0 
0.567174 -0.350318 0 
0.619096 -0.352457 0 
0.670836 -0.354397 0 
0.722893 -0.355952 0 
0.775038 -0.357323 0 
0.827419 -0.358581 0 
0.879943 -0.359894 0 
0.93426 -0.356593 0 
-0.952721 -0.303845 0 
-0.898929 -0.308871 0 
-0.847481 -0.306888 0 
-0.795641 -0.305781 0 
-0.743684 -0.304815 0 
-0.691387 -0.303722 0 
-0.639219 -0.302427 0 
-0.586897 -0.300977 0 
-0.534146 -0.301574 0 
-0.48291 -0.299695 0 
-0.432968 -0.295416 0 
-0.381507 -0.30136 0 
-0.336232 -0.29839 0 
-0.288184 -0.288184 0 
-0.242975 -0.290577 0 
-0.198059 -0.315051 0 
-0.148383 -0.285894 0 
-0.0994753 -0.313232 0 
-0.0507184 -0.283118 0 
-0.000202902 -0.313447 0 
0.0500077 -0.282824 0 
0.0988289 -0.312817 0 
0.148102 -0.28482 0 
0.195742 -0.317413 0 
0.240766 -0.295824 0 
0.285014 -0.285014 0 
0.332889 -0.295348 0 
0.379789 -0.301746 0 
0.432268 -0.296569 0 
0.483005 -0.299839 0 
0.534348 -0.301273 0 
0.587085 -0.30086 0 
0.639359 -0.302407 0 
0.691518 -0.303753 0 
0.743741 -0.304862 0 
0.795701 -0.305831 0 
0.847482 -0.306946 0 
0.898924 -0.308979 0 
0.952687 -0.303953 0 
-0.96803 -0.250833 0 
-0.916037 -0.258282 0 
-0.866979 -0.254732 0 
-0.816639 -0.25358 0 
-0.765535 -0.252907 0 
-0.71362 -0.252254 0 
-0.661417 -0.251503 0 
-0.608767 -0.250543 0 
-0.555692 -0.250874 0 
-0.503 -0.250032 0 
-0.450633 -0.247004 0 
-0.395692 -0.25021 0 
-0.342529 -0.249846 0 
-0.290577 -0.242975 0 
-0.239946 -0.239946 0 
-0.194478 -0.26004 0 
-0.151293 -0.23238 0 
-0.101048 -0.260904 0 
-0.0503938 -0.232537 0 
-0.000203281 -0.262984 0 
0.050638 -0.232316 0 
0.100942 -0.260855 0 
0.152412 -0.232597 0 
0.195768 -0.261421 0 
0.241873 -0.241873 0 
0.295824 -0.240766 0 
0.345582 -0.24763 0 
0.396905 -0.25086 0 
0.450921 -0.247983 0 
[...]
POINT_DATA 1245 
VECTORS vectors float
0.461276 -0.176184 0.869588 
0.468126 -0.137024 0.872973 
0.478836 -0.0973964 0.872485 
0.489126 -0.0666351 0.869664 
0.498776 -0.0374348 0.865922 
0.505539 -0.0142309 0.862686 
0.510157 0.00784633 0.860045 
0.510271 0.0297898 0.859498 
0.509665 0.0530584 0.858735 
0.508778 0.0803949 0.857136 
0.508103 0.104825 0.854894 
0.50768 0.130082 0.851669 
0.505328 0.149497 0.849879 
0.457361 -0.24532 0.854774 
0.457988 -0.213468 0.862947 
0.397468 -0.163052 0.903013 
0.404708 -0.131637 0.904922 
0.419566 -0.100756 0.902116 
0.408376 -0.0695428 0.910161 
0.432147 -0.042854 0.900784 
0.418683 -0.018316 0.907948 
0.441791 0.00479467 0.897105 
0.424633 0.0273614 0.904952 
0.443834 0.0520226 0.894598 
0.427399 0.072429 0.901157 
0.446419 0.0981768 0.889422 
0.4353 0.115772 0.892811 
0.428819 0.131401 0.893783 
0.498946 0.164497 0.850878 
0.486041 0.176655 0.855895 
0.451345 -0.288318 0.844488 
0.456481 -0.270061 0.847757 
0.393831 -0.218275 0.89289 
0.395873 -0.191853 0.898041 
0.341831 -0.144883 0.928526 
0.347883 -0.118496 0.93002 
0.362465 -0.0918605 0.927459 
0.341468 -0.0624257 0.937818 
0.368524 -0.0407968 0.928723 
0.345194 -0.0185177 0.938349 
0.376321 0.00312978 0.926484 
0.349566 0.0206437 0.936684 
0.379394 0.0436806 0.924204 
0.355215 0.0595254 0.932888 
0.384406 0.0840726 0.919328 
0.370348 0.0995578 0.923543 
0.359925 0.114857 0.925884 
0.419707 0.145494 0.895923 
0.404697 0.159465 0.900439 
0.46401 0.189309 0.865365 
0.431904 0.206806 0.87789 
0.438989 -0.302599 0.846004 
0.383135 -0.256347 0.887409 
0.390735 -0.239315 0.88885 
0.336008 -0.19237 0.922005 
0.337468 -0.170812 0.92571 
0.28966 -0.129432 0.948338 
0.296726 -0.107085 0.94894 
0.310974 -0.0840813 0.946692 
0.283492 -0.0579196 0.957224 
0.30892 -0.0382981 0.950316 
0.283325 -0.0183797 0.958848 
0.312696 -3.97248e-05 0.949853 
0.286903 0.0162557 0.957822 
0.316755 0.0360415 0.947823 
0.293977 0.0500665 0.9545 
0.325404 0.0725347 0.942789 
0.310955 0.0868691 0.946447 
0.300011 0.100815 0.948594 
0.349628 0.129061 0.927957 
0.334842 0.144383 0.931147 
0.383136 0.174907 0.906981 
0.353997 0.196091 0.914458 
0.391861 0.233413 0.889923 
0.389815 -0.334829 0.857866 
0.418093 -0.316958 0.851314 
0.368451 -0.271536 0.889107 
0.32077 -0.228574 0.919163 
0.330584 -0.212046 0.919647 
0.282762 -0.171189 0.94379 
0.28723 -0.150713 0.94593 
0.244396 -0.115586 0.962762 
0.251277 -0.0960547 0.963137 
0.26232 -0.0766245 0.961934 
0.235913 -0.0531225 0.970321 
0.255844 -0.0360496 0.966046 
0.232151 -0.0186177 0.972502 
0.256882 -0.00202232 0.966441 
0.234311 0.0121477 0.972086 
0.261386 0.0297465 0.964776 
0.241686 0.0426757 0.969416 
0.272784 0.0629597 0.960013 
0.258092 0.0760401 0.963123 
0.247479 0.0897773 0.964725 
0.288583 0.115986 0.950404 
0.274905 0.132161 0.952345 
0.313838 0.16283 0.93541 
0.28884 0.185335 0.939267 
0.320105 0.224758 0.920335 
0.348714 0.271492 0.897046 
0.30939 0.318589 0.895979 
0.355465 -0.35961 0.862743 
0.327975 -0.309843 0.892429 
0.347278 -0.287103 0.892732 
0.305492 -0.243821 0.920449 
0.267166 -0.205533 0.941477 
0.277547 -0.188247 0.942089 
0.237811 -0.15188 0.959363 
0.241308 -0.133854 0.961173 
0.204833 -0.102253 0.973441 
0.210188 -0.0861083 0.973862 
0.219808 -0.0697872 0.973044 
0.194175 -0.0483652 0.979774 
0.210469 -0.0337625 0.977017 
0.188981 -0.0179037 0.981817 
0.20971 -0.00345968 0.977757 
0.190237 0.00912404 0.981696 
0.213933 0.0248306 0.976533 
0.197521 0.0361983 0.97963 
0.224829 0.0544527 0.972875 
0.213281 0.0670498 0.974687 
0.202052 0.0803072 0.976077 
0.237511 0.104477 0.96575 
0.224626 0.122008 0.966777 
0.256871 0.151494 0.954498 
0.235294 0.176154 0.955828 
0.261366 0.213543 0.941322 
0.287085 0.260051 0.92193 
0.26286 0.304356 0.915572 
0.278053 0.37194 0.885634 
0.320988 -0.389974 0.863069 
0.298704 -0.334185 0.893922 
0.275115 -0.285328 0.918095 
0.285723 -0.260787 0.922146 
0.251593 -0.222938 0.941807 
0.223017 -0.186299 0.956847 
0.231108 -0.169154 0.958111 
0.198181 -0.13558 0.970743 
0.201377 -0.119771 0.972164 
0.169796 -0.0916338 0.98121 
0.174713 -0.0771473 0.981592 
0.182898 -0.0626531 0.981133 
0.159397 -0.0439848 0.986234 
0.172688 -0.0314349 0.984475 
0.153465 -0.01719 0.988004 
0.170826 -0.00478915 0.98529 
0.153866 0.00689811 0.988068 
0.174117 0.0206052 0.984509 
0.160047 0.0310971 0.98662 
0.184445 0.047953 0.981672 
0.173323 0.0590991 0.98309 
0.165526 0.0722165 0.983558 
0.194324 0.0951412 0.976313 
0.18383 0.112311 0.976521 
0.210103 0.141614 0.967369 
0.194023 0.166253 0.966807 
0.213598 0.20512 0.955145 
0.235779 0.247021 0.939888 
0.224574 0.285704 0.931633 
0.240203 0.348958 0.905832 
0.258297 0.422203 0.868923 
0.291545 -0.42134 0.858764 
0.268925 -0.354005 0.895745 
0.247081 -0.29509 0.922969 
0.234806 -0.246717 0.940211 
0.211962 -0.206309 0.955253 
0.186091 -0.170529 0.967621 
0.192636 -0.152081 0.969414 
0.163942 -0.122186 0.978874 
0.168097 -0.105984 0.980057 
0.140194 -0.0816844 0.986749 
0.144433 -0.0685133 0.98714 
0.150467 -0.0564594 0.987002 
0.130145 -0.0398255 0.990695 
0.14024 -0.0286752 0.989702 
0.124287 -0.0164245 0.99211 
0.137781 -0.0052045 0.990449 
0.124184 0.00487031 0.992247 
0.140463 0.0171201 0.989938 
0.12912 0.0270057 0.991261 
0.149592 0.0415899 0.987873 
0.140972 0.0530011 0.988594 
0.133315 0.0649728 0.988942 
0.157795 0.086819 0.983648 
0.150084 0.103551 0.983235 
0.171959 0.132426 0.976163 
0.161487 0.156764 0.974344 
0.179274 0.19622 0.964032 
0.194638 0.244006 0.950041 
0.204681 0.306246 0.929688 
0.224321 0.379566 0.897558 
0.248224 0.462219 0.851315 
0.266891 -0.451746 0.85129 
0.246049 -0.379988 0.891666 
0.225559 -0.316806 0.92128 
0.208466 -0.263811 0.941778 
0.194169 -0.22355 0.955156 
0.174646 -0.185984 0.966907 
0.153719 -0.152706 0.976243 
0.159635 -0.136484 0.977696 
0.13569 -0.108784 0.984761 
0.1384 -0.0954182 0.985769 
0.115489 -0.0733666 0.990596 
0.118008 -0.0619751 0.991077 
0.123319 -0.0507318 0.991069 
0.105362 -0.0358963 0.993786 
0.113996 -0.0264651 0.993129 
0.0995609 -0.0149749 0.994919 
0.111419 -0.00566312 0.993757 
0.0988543 0.00381161 0.995095 
0.11313 0.0144674 0.993475 
0.103176 0.0232498 0.994391 
0.120755 0.0368207 0.991999 
0.11307 0.0473466 0.992458 
0.108118 0.0594304 0.99236 
0.128741 0.0791821 0.988512 
0.121699 0.0950101 0.988009 
0.141024 0.122308 0.982422 
0.133147 0.142832 0.98075 
0.148633 0.180307 0.972316 
0.164355 0.223439 0.960761 
0.175672 0.272297 0.946041 
0.193339 0.336495 0.921624 
0.216545 0.411158 0.88547 
0.243076 0.493005 0.83538 
0.247072 -0.478136 0.842818 
0.226266 -0.403658 0.88649 
0.206671 -0.338127 0.918127 
0.188755 -0.282173 0.940612 
0.173426 -0.235973 0.956159 
0.158836 -0.198786 0.967086 
0.142083 -0.165059 0.975996 
0.126552 -0.134457 0.982805 
0.129402 -0.122525 0.983993 
0.110809 -0.0992082 0.988878 
0.113701 -0.0864816 0.989744 
0.0943591 -0.0661555 0.993338 
0.0964347 -0.0551871 0.993808 
0.100566 -0.0457639 0.993877 
0.0853629 -0.0323248 0.995825 
0.0920295 -0.0241764 0.995463 
0.0804011 -0.0142488 0.996661 
0.0895419 -0.00594734 0.995965 
0.0796477 0.0024291 0.99682 
0.0907213 0.0120156 0.995804 
0.0825319 0.0203446 0.996381 
0.0968121 0.0327941 0.994762 
0.0912125 0.0424407 0.994927 
0.0865907 0.0540627 0.994776 
0.103585 0.0732405 0.99192 
0.0980709 0.0888021 0.99121 
0.114426 0.11096 0.987216 
0.108837 0.128687 0.985695 
0.122687 0.16058 0.979368 
0.135704 0.199374 0.970482 
0.149378 0.242994 0.958457 
0.165739 0.296651 0.940494 
0.185917 0.36097 0.913857 
0.211293 0.434592 0.875491 
0.23989 0.514573 0.823206 
0.230763 -0.498896 0.835375 
0.209601 -0.423099 0.881507 
0.18969 -0.355978 0.91504 
0.171415 -0.297296 0.939272 
0.15586 -0.248296 0.956063 
0.140907 -0.206908 0.96816 
0.127788 -0.171114 0.976929 
0.113068 -0.140535 0.983598 
0.104222 -0.112743 0.988143 
0.0914819 -0.0898685 0.991743 
0.0933619 -0.0776608 0.992599 
0.0774073 -0.0587698 0.995266 
0.0780614 -0.0494882 0.99572 
0.0813882 -0.0406719 0.995852 
0.068428 -0.0295561 0.997218 
0.0739885 -0.0216829 0.997023 
0.0636968 -0.0132985 0.997881 
0.0712964 -0.0053675 0.997441 
0.0627104 0.00166633 0.99803 
0.0719679 0.0106308 0.99735 
0.0653986 0.0177344 0.997702 
0.0773573 0.0288513 0.996586 
0.0724395 0.0381205 0.996644 
0.0703166 0.0484458 0.996348 
0.0841792 0.0666499 0.994219 
0.0801054 0.0811333 0.993479 
0.0910694 0.104777 0.990317 
0.0982281 0.135748 0.985862 
0.11017 0.171539 0.978998 
0.123808 0.211206 0.969569 
0.138386 0.258255 0.956114 
0.157458 0.313521 0.936436 
0.180023 0.377733 0.908245 
0.206588 0.449675 0.868973 
0.236601 0.527874 0.815701 
0.216467 -0.513726 0.830198 
0.194949 -0.437406 0.877879 
0.174314 -0.368958 0.912954 
0.156757 -0.309737 0.937811 
0.140516 -0.258386 0.955768 
0.126459 -0.214714 0.968455 
0.113744 -0.17818 0.977402 
0.102 -0.14655 0.98393 
0.0933356 -0.119166 0.988478 
0.0838895 -0.0983312 0.991612 
0.0741832 -0.0797333 0.994052 
0.0760738 -0.0692813 0.994692 
0.0635592 -0.0553336 0.996443 
0.0627847 -0.0447558 0.997023 
0.0657012 -0.036932 0.997156 
0.0551613 -0.0262635 0.998132 
0.0595757 -0.0200875 0.998022 
0.0515434 -0.0116721 0.998603 
0.0576833 -0.00572303 0.998319 
0.0505036 0.00158233 0.998723 
0.0577924 0.00883584 0.99829 
0.0517865 0.0162352 0.998526 
0.0615508 0.0263235 0.997757 
0.0576372 0.034947 0.997726 
0.0561532 0.0458192 0.99737 
0.0671246 0.0601736 0.995928 
0.0642938 0.0713151 0.99538 
0.072732 0.0916492 0.993132 
0.0803631 0.115618 0.990038 
0.0888628 0.145344 0.985382 
0.100042 0.180139 0.97854 
0.11377 0.220993 0.968617 
0.130274 0.26862 0.954396 
0.149814 0.323876 0.934163 
0.173683 0.386886 0.905623 
0.201271 0.457336 0.866218 
0.232111 0.533814 0.813122 
0.202579 -0.522956 0.827936 
0.180867 -0.446416 0.876356 
0.160863 -0.378624 0.911464 
0.14251 -0.317861 0.937366 
0.1267 -0.265948 0.955625 
0.1131 -0.221002 0.968693 
0.100636 -0.183141 0.977922 
0.0903072 -0.150509 0.984475 
0.0812036 -0.123584 0.989006 
0.0731412 -0.100828 0.992212 
0.0654484 -0.0815233 0.99452 
0.0610062 -0.0645318 0.996049 
0.0526483 -0.0499352 0.997364 
0.0506734 -0.0406426 0.997888 
0.052772 -0.0338822 0.998032 
0.0442932 -0.0242072 0.998725 
0.0476617 -0.0185104 0.998692 
0.0404882 -0.011368 0.999115 
0.0453591 -0.0055639 0.998955 
0.0395469 0.000381992 0.999218 
0.0456902 0.00742769 0.998928 
0.0412098 0.0135066 0.999059 
0.048996 0.0230514 0.998533 
0.0457627 0.0313852 0.998459 
0.045565 0.0407624 0.998129 
0.0526029 0.0563325 0.997025 
0.0563817 0.0754299 0.995556 
0.0630392 0.0969134 0.993294 
0.070635 0.120799 0.990161 
0.0791828 0.151315 0.985309 
0.0907091 0.185704 0.97841 
0.104448 0.226846 0.968314 
0.121317 0.273874 0.954083 
0.141701 0.328386 0.933854 
0.165889 0.389864 0.905807 
0.194128 0.458472 0.867247 
0.225529 0.533027 0.815487 
0.18794 -0.527174 0.828714 
0.167617 -0.452224 0.876013 
0.14689 -0.384218 0.911482 
0.129507 -0.323991 0.937154 
0.114115 -0.271223 0.955728 
0.100534 -0.225358 0.969075 
0.0891381 -0.186028 0.978493 
0.0786505 -0.153188 0.985062 
0.0708127 -0.124911 0.989638 
0.0632494 -0.102131 0.992758 
0.0561157 -0.0829403 0.994973 
0.0527668 -0.0676735 0.996311 
0.0476774 -0.0555588 0.997316 
0.0427271 -0.0440372 0.998116 
0.0403619 -0.0359931 0.998537 
0.0423012 -0.0297104 0.998663 
0.0356228 -0.0217619 0.999128 
0.0385604 -0.0161173 0.999126 
0.033046 -0.0103009 0.999401 
0.0371527 -0.00464876 0.999299 
0.0319787 0.000541856 0.999488 
0.0365158 0.00691233 0.999309 
0.0326981 0.0123985 0.999388 
0.0386773 0.0208023 0.999035 
0.0364669 0.0273323 0.998961 
0.0363872 0.0355832 0.998704 
0.0405105 0.0476846 0.998041 
0.0447135 0.0613975 0.997111 
0.0482361 0.0785239 0.995745 
0.0542913 0.0990063 0.993605 
0.0613525 0.124361 0.990338 
0.0700401 0.153172 0.985714 
0.081297 0.188966 0.978613 
0.0948572 0.228664 0.968873 
0.111979 0.276252 0.954539 
0.131846 0.328476 0.935265 
0.156069 0.38864 0.908076 
0.184513 0.454562 0.871395 
0.215586 0.525778 0.822849 
0.171618 -0.527401 0.832103 
0.153063 -0.455812 0.876817 
0.133921 -0.389564 0.911211 
0.116893 -0.331092 0.93633 
0.102292 -0.277565 0.955245 
0.0895209 -0.23139 0.968733 
0.0782594 -0.191409 0.978385 
0.0691076 -0.156685 0.985228 
0.0610604 -0.128148 0.989874 
0.0540104 -0.103747 0.993136 
0.048315 -0.0834678 0.995339 
0.0435077 -0.0667032 0.996824 
0.0397529 -0.0528594 0.99781 
0.0355693 -0.0413298 0.998512 
0.0322112 -0.0324415 0.998954 
0.0336729 -0.0267728 0.999074 
0.0283316 -0.0198835 0.999401 
0.0304517 -0.0153659 0.999418 
0.0262555 -0.00917388 0.999613 
0.0286901 -0.0049887 0.999576 
0.0254796 0.00060676 0.999675 
0.0286647 0.00580848 0.999572 
0.0258017 0.0120731 0.999594 
0.0301255 0.01847 0.999375 
0.0286249 0.0254244 0.999267 
0.030031 0.0359504 0.998902 
0.0333717 0.0476307 0.998307 
0.0370618 0.0623875 0.997364 
0.0405581 0.0805662 0.995924 
0.0461997 0.102007 0.99371 
0.0530604 0.127106 0.990469 
0.0612729 0.157627 0.985596 
0.0720601 0.191916 0.978762 
0.0854697 0.232872 0.968744 
0.100942 0.277424 0.95543 
0.120888 0.329667 0.936326 
0.143469 0.384853 0.911759 
0.171427 0.447993 0.877448 
0.200109 0.512514 0.835036 
0.151096 -0.523711 0.838389 
0.138921 -0.461689 0.876096 
0.120701 -0.40056 0.908286 
0.10463 -0.340035 0.934574 
0.0910707 -0.287374 0.953479 
0.0787803 -0.239567 0.967678 
0.0688337 -0.197909 0.9778 
0.0596034 -0.162783 0.98486 
0.0523865 -0.132562 0.989789 
0.0464967 -0.107407 0.993127 
0.0409046 -0.0867786 0.995388 
0.0367235 -0.0692123 0.996926 
0.0339161 -0.0549549 0.997913 
0.0298909 -0.0435929 0.998602 
0.0277799 -0.0332362 0.999061 
0.0263599 -0.0251789 0.999335 
0.0230522 -0.0181871 0.999569 
0.0251071 -0.0138014 0.999589 
0.0209148 -0.00842182 0.999746 
0.0241106 -0.00433764 0.9997 
0.02012 -5.41789e-05 0.999798 
0.0231778 0.00547041 0.999716 
0.0209381 0.0104446 0.999726 
0.0231357 0.0181837 0.999567 
0.0234956 0.0273617 0.999349 
0.0250569 0.0380888 0.99896 
0.027559 0.0511535 0.99831 
0.0304556 0.0661744 0.997343 
0.0340978 0.0843702 0.995851 
0.0387404 0.106406 0.993568 
0.0449086 0.132149 0.990212 
0.0527834 0.162294 0.98533 
0.0622264 0.197594 0.978307 
0.0744309 0.237211 0.968603 
0.089401 0.282683 0.955038 
0.10663 0.331156 0.937532 
0.128446 0.386079 0.913479 
0.154858 0.4422 0.883447 
0.174183 0.493363 0.852205 
0.130503 -0.518154 0.845272 
0.114461 -0.438077 0.891621 
0.0950502 -0.365007 0.92614 
0.0806468 -0.304354 0.949139 
0.0687364 -0.251446 0.965428 
0.0586472 -0.207554 0.976464 
0.050534 -0.169577 0.98422 
0.043993 -0.137833 0.989478 
0.0383691 -0.11179 0.992991 
0.0335851 -0.0896454 0.995407 
0.0306562 -0.0715511 0.996966 
0.0271354 -0.0572882 0.997989 
0.0252598 -0.0449946 0.998668 
0.02305 -0.0355179 0.999103 
0.021573 -0.0273959 0.999392 
0.0203916 -0.0211177 0.999569 
0.0185071 -0.015597 0.999707 
0.0196341 -0.0120132 0.999735 
0.0174795 -0.00806882 0.999815 
0.0189786 -0.00387817 0.999812 
0.0165421 0.000565648 0.999863 
0.0186967 0.00470221 0.999814 
0.0159773 0.00851714 0.999836 
0.0179098 0.0148233 0.99973 
0.018519 0.0212799 0.999602 
0.0187135 0.0300482 0.999373 
0.0200087 0.0409864 0.998959 
0.0218247 0.0534885 0.99833 
0.0242156 0.0693586 0.997298 
0.0268372 0.0884617 0.995718 
0.0312093 0.110777 0.993355 
0.0360866 0.137634 0.989826 
0.0426561 0.168801 0.984727 
0.0513385 0.204846 0.977447 
0.0615494 0.24618 0.967268 
0.0751364 0.293427 0.953024 
0.0932841 0.347418 0.933059 
0.118144 0.40995 0.904424 
0.141593 0.475328 0.86834 
0.105592 -0.510845 0.853164 
0.0969428 -0.448588 0.888465 
0.0821143 -0.382966 0.920106 
0.0685991 -0.321347 0.944474 
0.057322 -0.266586 0.962105 
0.0485571 -0.219651 0.974369 
0.0411681 -0.179546 0.982888 
0.0350672 -0.146546 0.988582 
0.0303641 -0.118457 0.992495 
0.0269596 -0.0953754 0.995076 
0.0236708 -0.0768817 0.996759 
0.0215694 -0.0608125 0.997916 
0.0201322 -0.048609 0.998615 
0.0181358 -0.0381792 0.999106 
0.0176254 -0.0296197 0.999406 
0.0165458 -0.0230109 0.999598 
0.0153344 -0.0169968 0.999738 
0.0152963 -0.01175 0.999814 
0.0133937 -0.0071293 0.999885 
0.015268 -0.00359617 0.999877 
0.0129436 0.000641065 0.999916 
0.0141261 0.0049734 0.999888 
0.0139913 0.0112963 0.999838 
0.0133902 0.0171894 0.999763 
0.0143494 0.0249661 0.999585 
0.0142598 0.0341926 0.999314 
0.015178 0.0455415 0.998847 
0.0162767 0.059404 0.998101 
0.0178354 0.0755429 0.996983 
0.0199393 0.0954229 0.995237 
0.0226024 0.118967 0.992641 
0.0266556 0.146318 0.988878 
0.031249 0.178682 0.98341 
0.0375892 0.215854 0.975702 
0.045877 0.258105 0.965027 
0.0560793 0.305892 0.950413 
0.0697326 0.357023 0.931489 
0.0892244 0.411508 0.907028 
0.09509 0.457906 0.8839 
0.0817189 -0.504326 0.859638 
0.0696473 -0.420375 0.904674 
0.055745 -0.3488 0.935538 
0.0453399 -0.28639 0.95704 
0.0369579 -0.235116 0.971264 
0.0302229 -0.192202 0.98089 
0.02539 -0.156293 0.987384 
0.0217593 -0.126234 0.991762 
0.0185029 -0.102305 0.994581 
0.0166501 -0.0812409 0.996555 
0.0153892 -0.0651481 0.997757 
0.0139338 -0.0515201 0.998575 
0.0135334 -0.0404376 0.99909 
0.0130611 -0.0317983 0.999409 
0.012433 -0.0241833 0.99963 
0.0121814 -0.0188169 0.999749 
0.0120387 -0.0135366 0.999836 
0.0119153 -0.00962627 0.999883 
0.0116257 -0.00540465 0.999918 
0.0120211 -0.00341675 0.999922 
0.0109045 -0.00067558 0.99994 
0.0110084 0.0035266 0.999933 
0.0104742 0.00802033 0.999913 
0.00978995 0.0132091 0.999865 
0.0103534 0.0202378 0.999742 
0.00956026 0.027826 0.999567 
0.0097402 0.0378715 0.999235 
0.00966397 0.0499889 0.998703 
0.0101793 0.0643548 0.997875 
0.0105348 0.0821906 0.996561 
0.0115109 0.103011 0.994614 
0.0129471 0.128094 0.991678 
0.0145909 0.15746 0.987418 
0.0175117 0.191448 0.981347 
0.0206136 0.231178 0.972693 
0.0251243 0.276178 0.960778 
0.0321842 0.328665 0.943898 
0.0410106 0.385534 0.921782 
0.0476087 0.449354 0.892084 
0.0567269 -0.496246 0.866326 
0.0473266 -0.432121 0.900573 
0.0385427 -0.367092 0.929386 
0.0299197 -0.306379 0.951439 
0.0229906 -0.25281 0.967243 
0.0179398 -0.20714 0.978147 
0.0141394 -0.168964 0.985521 
0.0110636 -0.137742 0.990406 
0.00961375 -0.111208 0.993751 
0.0086881 -0.0894713 0.995952 
0.00765886 -0.0721846 0.997362 
0.00790939 -0.0569099 0.998348 
0.00793343 -0.0456608 0.998925 
0.00782559 -0.0352895 0.999346 
0.00834224 -0.0278823 0.999576 
0.00844304 -0.0213199 0.999737 
0.0084292 -0.0155083 0.999844 
0.0090698 -0.0115939 0.999892 
0.00765546 -0.00772264 0.999941 
0.00715696 -0.00240085 0.999972 
0.0077157 0.00244525 0.999967 
0.00754497 0.00617013 0.999953 
0.00745557 0.0112989 0.999908 
0.0063883 0.0173713 0.999829 
0.00574887 0.0243429 0.999687 
0.00512751 0.0335272 0.999425 
0.00435465 0.0440959 0.999018 
0.00361057 0.0574108 0.998344 
0.00288537 0.0729583 0.997331 
0.00239945 0.0920999 0.995747 
0.0014374 0.114654 0.993404 
0.00122047 0.141156 0.989987 
0.00046781 0.172584 0.984995 
-1.93745e-05 0.208781 0.977962 
-0.000325895 0.250556 0.968102 
-0.00130695 0.297337 0.954772 
-0.00210246 0.347798 0.937567 
-0.00309164 0.398524 0.917153 
-0.00487841 0.447126 0.894458 
0.0300222 -0.486066 0.873406 
0.017743 -0.402007 0.915465 
0.0117453 -0.332833 0.942913 
0.00663666 -0.273485 0.961854 
0.00269979 -0.224305 0.974515 
-3.31756e-05 -0.183806 0.982962 
-0.000982538 -0.14953 0.988757 
-0.00144276 -0.121173 0.99263 
-0.00168028 -0.0982829 0.995157 
-0.000515181 -0.0781368 0.996943 
0.000186339 -0.0629008 0.99802 
0.000955959 -0.0493372 0.998782 
0.0025229 -0.0392454 0.999226 
0.00319314 -0.0300829 0.999542 
0.00387699 -0.0233362 0.99972 
0.00510677 -0.0176158 0.999832 
0.00477853 -0.0130131 0.999904 
0.0058974 -0.00824735 0.999949 
0.0075357 -0.00532931 0.999957 
0.00468356 -0.00173707 0.999988 
0.00690793 -0.000659819 0.999976 
0.00512566 0.00450686 0.999977 
0.00405563 0.00829517 0.999957 
0.00346504 0.0138822 0.999898 
0.00239036 0.0203047 0.999791 
0.00120373 0.0284578 0.999594 
-0.00034686 0.0378366 0.999284 
-0.00175513 0.0499701 0.998749 
-0.00350646 0.0643592 0.997921 
-0.0055235 0.0818054 0.996633 
-0.00771401 0.102602 0.994693 
-0.0101176 0.127631 0.99177 
-0.0133972 0.156809 0.987538 
-0.0164632 0.191048 0.981443 
-0.0212699 0.230773 0.972775 