# vtk DataFile Version 3.0 
Exported using Morpho https://github.com/Morpho-lang/morpho 
ASCII 
DATASET UNSTRUCTURED_GRID 

POINTS 2174 float 
-8.32618 -2.88146 0 
-8.11405 -2.88146 0 
-7.90192 -2.88146 0 
-7.68979 -2.88146 0 
-7.47765 -2.88146 0 
-7.26552 -2.88146 0 
-7.05339 -2.88146 0 
-6.84126 -2.88146 0 
-6.62913 -2.88146 0 
-6.41699 -2.88146 0 
-6.20486 -2.88146 0 
-5.99273 -2.88146 0 
-5.7806 -2.88146 0 
-5.56847 -2.88146 0 
-5.35633 -2.88146 0 
-5.1442 -2.88146 0 
-4.93207 -2.88146 0 
-4.71994 -2.88146 0 
-4.50781 -2.88146 0 
-4.29567 -2.88146 0 
-4.08354 -2.88146 0 
-3.87141 -2.88146 0 
-3.65928 -2.88146 0 
-3.44715 -2.88146 0 
-3.23501 -2.88146 0 
-3.02288 -2.88146 0 
-2.81075 -2.88146 0 
-2.59862 -2.88146 0 
-2.38649 -2.88146 0 
-2.17435 -2.88146 0 
-1.96222 -2.88146 0 
-1.75009 -2.88146 0 
-1.53796 -2.88146 0 
-1.32583 -2.88146 0 
-1.11369 -2.88146 0 
-0.901561 -2.88146 0 
-0.689429 -2.88146 0 
-0.477297 -2.88146 0 
-0.265165 -2.88146 0 
-0.053033 -2.88146 0 
0.159099 -2.88146 0 
0.371231 -2.88146 0 
0.583363 -2.88146 0 
0.795495 -2.88146 0 
1.00763 -2.88146 0 
1.21976 -2.88146 0 
1.43189 -2.88146 0 
1.64402 -2.88146 0 
1.85616 -2.88146 0 
2.06829 -2.88146 0 
2.28042 -2.88146 0 
2.49255 -2.88146 0 
2.70468 -2.88146 0 
2.91682 -2.88146 0 
3.12895 -2.88146 0 
3.34108 -2.88146 0 
3.55321 -2.88146 0 
3.76534 -2.88146 0 
3.97748 -2.88146 0 
4.18961 -2.88146 0 
4.40174 -2.88146 0 
4.61387 -2.88146 0 
4.826 -2.88146 0 
5.03814 -2.88146 0 
5.25027 -2.88146 0 
5.4624 -2.88146 0 
5.67453 -2.88146 0 
5.88666 -2.88146 0 
6.0988 -2.88146 0 
6.31093 -2.88146 0 
6.52306 -2.88146 0 
6.73519 -2.88146 0 
6.94732 -2.88146 0 
7.15946 -2.88146 0 
7.37159 -2.88146 0 
7.58372 -2.88146 0 
7.79585 -2.88146 0 
8.00798 -2.88146 0 
8.22012 -2.88146 0 
8.53831 -2.88146 0 
-8.53831 -2.72299 0 
-8.2968 -2.66369 0 
-8.07044 -2.66104 0 
-7.84382 -2.66337 0 
-7.61457 -2.66657 0 
-7.3906 -2.66566 0 
-7.16266 -2.66617 0 
-6.9426 -2.67351 0 
-6.7152 -2.67186 0 
-6.49217 -2.67149 0 
-6.27118 -2.67041 0 
-6.05063 -2.67021 0 
-5.83243 -2.66932 0 
-5.61467 -2.66981 0 
-5.39745 -2.66937 0 
-5.18108 -2.66953 0 
-4.96459 -2.66869 0 
-4.74982 -2.66857 0 
-4.53537 -2.66882 0 
-4.32223 -2.6691 0 
-4.10856 -2.66881 0 
-3.89877 -2.67272 0 
-3.68251 -2.67107 0 
-3.46934 -2.67016 0 
-3.25824 -2.6707 0 
-3.04667 -2.67173 0 
-2.83427 -2.66991 0 
-2.62433 -2.66935 0 
-2.41315 -2.66889 0 
-2.20093 -2.66649 0 
-1.99011 -2.66594 0 
-1.7772 -2.66548 0 
-1.56109 -2.66281 0 
-1.34467 -2.66156 0 
-1.12375 -2.65444 0 
-0.907266 -2.65528 0 
-0.69304 -2.64506 0 
-0.488976 -2.65231 0 
-0.271345 -2.65926 0 
-0.0527231 -2.65447 0 
0.178126 -2.67679 0 
0.396968 -2.66405 0 
0.586642 -2.63552 0 
0.786127 -2.66223 0 
1.00494 -2.65635 0 
1.21689 -2.66201 0 
1.43247 -2.66399 0 
1.64646 -2.66723 0 
1.87538 -2.68087 0 
2.0832 -2.66703 0 
2.30193 -2.67563 0 
2.51213 -2.66965 0 
2.72486 -2.67015 0 
2.93759 -2.66988 0 
3.14998 -2.66997 0 
3.36176 -2.66934 0 
3.57395 -2.6694 0 
3.78577 -2.66939 0 
3.99829 -2.67015 0 
4.21109 -2.67025 0 
4.42327 -2.66936 0 
4.63667 -2.67094 0 
4.84836 -2.66915 0 
5.06115 -2.67067 0 
5.27268 -2.66993 0 
5.48395 -2.66992 0 
5.69536 -2.67004 0 
5.9058 -2.66934 0 
6.11809 -2.67089 0 
6.32947 -2.67033 0 
6.54251 -2.67108 0 
6.75388 -2.66863 0 
6.96772 -2.66885 0 
7.18134 -2.66666 0 
7.39608 -2.66381 0 
7.60923 -2.6573 0 
7.82098 -2.6524 0 
8.03271 -2.63958 0 
8.2918 -2.70905 0 
8.53831 -2.66933 0 
-8.42984 -2.4882 0 
-8.18742 -2.44485 0 
-7.96115 -2.44652 0 
-7.73218 -2.45574 0 
-7.50892 -2.44991 0 
-7.28147 -2.46011 0 
-7.05651 -2.45222 0 
-6.84092 -2.47082 0 
-6.61542 -2.46368 0 
-6.39739 -2.46116 0 
-6.1788 -2.46148 0 
-5.96387 -2.45821 0 
-5.74905 -2.45839 0 
-5.5356 -2.45826 0 
-5.32254 -2.45738 0 
-5.10966 -2.45794 0 
-4.89796 -2.45521 0 
-4.68654 -2.45576 0 
-4.47746 -2.45469 0 
-4.26628 -2.4573 0 
-4.05994 -2.45308 0 
-3.84688 -2.46641 0 
-3.6333 -2.46061 0 
-3.42346 -2.4575 0 
-3.21289 -2.45973 0 
-3.0022 -2.46144 0 
-2.79415 -2.45563 0 
-2.58398 -2.45643 0 
-2.37222 -2.45585 0 
-2.16136 -2.44985 0 
-1.94793 -2.45029 0 
-1.72935 -2.45139 0 
-1.50861 -2.44564 0 
-1.28325 -2.44547 0 
-1.05423 -2.43214 0 
-0.832755 -2.43129 0 
-0.615953 -2.40083 0 
-0.394002 -2.44043 0 
-0.165896 -2.4446 0 
0.0482686 -2.29274 0 
0.0889275 -2.47514 0 
0.318309 -2.4648 0 
0.534866 -2.38769 0 
0.740878 -2.42512 0 
0.948855 -2.44063 0 
1.1741 -2.43746 0 
1.38973 -2.44938 0 
1.60904 -2.45184 0 
1.82976 -2.48834 0 
2.05728 -2.45135 0 
2.27123 -2.47171 0 
2.48807 -2.45658 0 
2.69923 -2.45934 0 
2.91289 -2.45895 0 
3.12656 -2.45825 0 
3.3385 -2.45696 0 
3.55021 -2.45741 0 
3.76242 -2.45674 0 
3.9738 -2.45848 0 
4.18592 -2.45938 0 
4.39882 -2.45771 0 
4.61251 -2.46072 0 
4.82502 -2.45711 0 
5.03851 -2.46028 0 
5.25018 -2.45724 0 
5.46177 -2.45831 0 
5.67166 -2.45715 0 
5.88253 -2.45716 0 
6.0921 -2.45926 0 
6.30406 -2.45952 0 
6.51518 -2.46036 0 
6.72837 -2.45654 0 
6.94117 -2.45707 0 
7.15668 -2.45359 0 
7.37268 -2.44929 0 
7.59065 -2.43672 0 
7.80873 -2.42241 0 
8.05197 -2.4325 0 
8.29154 -2.50145 0 
8.53831 -2.4572 0 
-8.53831 -2.26693 0 
-8.31339 -2.26384 0 
-8.06218 -2.23226 0 
-7.82362 -2.244 0 
-7.59482 -2.23758 0 
-7.35774 -2.25044 0 
-7.12958 -2.24697 0 
-6.89429 -2.24781 0 
-6.685 -2.26373 0 
-6.45444 -2.25069 0 
-6.23325 -2.25312 0 
-6.01339 -2.24649 0 
-5.79684 -2.24691 0 
-5.58091 -2.2455 0 
-5.36713 -2.24483 0 
-5.15313 -2.24527 0 
-4.9408 -2.24185 0 
-4.72848 -2.24181 0 
-4.51837 -2.23797 0 
-4.31022 -2.244 0 
-4.10253 -2.23472 0 
-3.89495 -2.25401 0 
-3.68605 -2.25339 0 
-3.47263 -2.24473 0 
-3.26285 -2.2471 0 
-3.05326 -2.2491 0 
-2.84667 -2.24143 0 
-2.63824 -2.24278 0 
-2.42765 -2.24326 0 
-2.21662 -2.23572 0 
-2.00229 -2.23512 0 
-1.78416 -2.2396 0 
-1.56153 -2.23394 0 
-1.33195 -2.23394 0 
-1.09976 -2.225 0 
-0.85835 -2.20923 0 
-0.630557 -2.17265 0 
-0.412006 -2.22 0 
-0.191526 -2.23633 0 
-0.0330726 -2.08764 0 
0.0711759 -1.88994 0 
0.301969 -2.25753 0 
0.525951 -2.17019 0 
0.756311 -2.19741 0 
0.982672 -2.2288 0 
1.20802 -2.21965 0 
1.4277 -2.2366 0 
1.64471 -2.23781 0 
1.85521 -2.28788 0 
2.06474 -2.22964 0 
2.27054 -2.26364 0 
2.47992 -2.24252 0 
2.69239 -2.24583 0 
2.90392 -2.2487 0 
3.11872 -2.24821 0 
3.3333 -2.24445 0 
3.54491 -2.24486 0 
3.75654 -2.24474 0 
3.96896 -2.24537 0 
4.17969 -2.24693 0 
4.39116 -2.24662 0 
4.60464 -2.25065 0 
4.8189 -2.24566 0 
5.03086 -2.24987 0 
5.24517 -2.24602 0 
5.45585 -2.24469 0 
5.66687 -2.24497 0 
5.8755 -2.24297 0 
6.0857 -2.24758 0 
6.29474 -2.24693 0 
6.50656 -2.24985 0 
6.71761 -2.24442 0 
6.93168 -2.24567 0 
7.14591 -2.24141 0 
7.36293 -2.23555 0 
7.58028 -2.21859 0 
7.82024 -2.2212 0 
8.06254 -2.223 0 
8.29916 -2.28733 0 
8.53831 -2.24506 0 
-8.42553 -2.04087 0 
-8.20366 -2.04739 0 
-7.9547 -2.03058 0 
-7.73423 -2.02514 0 
-7.49853 -2.03768 0 
-7.27882 -2.03639 0 
-7.0489 -2.04479 0 
-6.84089 -2.02133 0 
-6.62746 -2.0591 0 
-6.43011 -2.01377 0 
-6.23439 -2.04424 0 
-6.02709 -2.02885 0 
-5.81194 -2.03514 0 
-5.59562 -2.03461 0 
-5.37891 -2.03215 0 
-5.1646 -2.03392 0 
-4.94965 -2.0291 0 
-4.73587 -2.02977 0 
-4.52195 -2.02359 0 
-4.31026 -2.02811 0 
-4.09136 -2.02908 0 
-3.87317 -2.0407 0 
-3.6574 -2.04469 0 
-3.44233 -2.03344 0 
-3.22939 -2.03599 0 
-3.02259 -2.03213 0 
-2.81107 -2.02752 0 
-2.59765 -2.03064 0 
-2.38498 -2.02792 0 
-2.1662 -2.02319 0 
-1.94219 -2.02553 0 
-1.7182 -2.02753 0 
-1.48246 -2.02625 0 
-1.24571 -2.02179 0 
-0.999055 -2.01703 0 
-0.758229 -1.98313 0 
-0.48522 -1.97765 0 
-0.276619 -2.01762 0 
-0.122809 -1.87252 0 
-0.0366491 -1.65241 0 
0.0865379 -1.63711 0 
0.192845 -2.09262 0 
0.415891 -1.99981 0 
0.710181 -1.98706 0 
0.944634 -2.01385 0 
1.17559 -2.00988 0 
1.41167 -2.01822 0 
1.63111 -2.02061 0 
1.85201 -2.07209 0 
2.06028 -2.01006 0 
2.27481 -2.04571 0 
2.49162 -2.03037 0 
2.70467 -2.03251 0 
2.92066 -2.0393 0 
3.13602 -2.03845 0 
3.34824 -2.03165 0 
3.55996 -2.03223 0 
3.77287 -2.03309 0 
3.98332 -2.0316 0 
4.19417 -2.03359 0 
4.40226 -2.02924 0 
4.60847 -2.04058 0 
4.81485 -2.02868 0 
5.0238 -2.03846 0 
5.23497 -2.03568 0 
5.44932 -2.03301 0 
5.66052 -2.03073 0 
5.8705 -2.03003 0 
6.07982 -2.03347 0 
6.28955 -2.03518 0 
6.50018 -2.03758 0 
6.71246 -2.03313 0 
6.92576 -2.03382 0 
7.14147 -2.02908 0 
7.35843 -2.02086 0 
7.59346 -2.01598 0 
7.8349 -2.01989 0 
8.07219 -2.00932 0 
8.30348 -2.07068 0 
8.53831 -2.03293 0 
-8.53831 -1.82989 0 
-8.30397 -1.82052 0 
-8.06793 -1.8436 0 
-7.82374 -1.8077 0 
-7.58277 -1.83417 0 
-7.34509 -1.81968 0 
-7.11422 -1.8409 0 
-6.89106 -1.79967 0 
-6.66972 -1.83441 0 
-6.44674 -1.80664 0 
-6.22133 -1.8158 0 
-6.00272 -1.81722 0 
-5.78888 -1.82191 0 
-5.57388 -1.82303 0 
-5.36008 -1.81955 0 
-5.14681 -1.8222 0 
-4.93286 -1.81724 0 
-4.72042 -1.81759 0 
-4.50805 -1.81062 0 
-4.29405 -1.8206 0 
-4.07834 -1.82206 0 
-3.87303 -1.82283 0 
-3.66744 -1.83671 0 
-3.46564 -1.8132 0 
-3.26254 -1.82498 0 
-3.05243 -1.81435 0 
-2.8478 -1.81506 0 
-2.63577 -1.81827 0 
-2.42362 -1.81401 0 
-2.21022 -1.81385 0 
-1.98855 -1.81818 0 
-1.76293 -1.81507 0 
-1.53718 -1.82131 0 
-1.30079 -1.81412 0 
-1.06128 -1.81575 0 
-0.824723 -1.78289 0 
-0.571728 -1.79838 0 
-0.310953 -1.77626 0 
-0.163185 -1.60437 0 
0.19111 -1.56863 0 
0.254571 -1.85373 0 
0.578577 -1.84019 0 
0.866538 -1.79397 0 
1.09654 -1.80464 0 
1.34599 -1.81323 0 
1.58794 -1.80209 0 
1.823 -1.85757 0 
2.05746 -1.80374 0 
2.27831 -1.83423 0 
2.49079 -1.81384 0 
2.69842 -1.81843 0 
2.90931 -1.82896 0 
3.12316 -1.82844 0 
3.33626 -1.8192 0 
3.54767 -1.81922 0 
3.75884 -1.82177 0 
3.97202 -1.81758 0 
4.18285 -1.81996 0 
4.39446 -1.81393 0 
4.60545 -1.82252 0 
4.81827 -1.81641 0 
5.03005 -1.82452 0 
5.24365 -1.82585 0 
5.45555 -1.81992 0 
5.66447 -1.81693 0 
5.87467 -1.8162 0 
6.0832 -1.82 0 
6.29142 -1.81998 0 
6.49948 -1.82604 0 
6.70886 -1.81896 0 
6.92088 -1.82253 0 
7.13565 -1.81655 0 
7.35803 -1.81213 0 
7.58398 -1.81256 0 
7.82201 -1.81681 0 
8.0633 -1.80002 0 
8.30196 -1.85043 0 
8.53831 -1.8208 0 
-8.53831 -1.61256 0 
-8.29649 -1.60901 0 
-8.0549 -1.63471 0 
-7.81662 -1.59481 0 
[...]
POINT_DATA 2174 
VECTORS vectors float
-3.889e-05 0.000338849 1 
6.58883e-05 -0.00974539 0.999953 
0.000107648 -0.0133692 0.999911 
4.73077e-05 -0.0138758 0.999904 
8.76163e-05 -0.0133036 0.999911 
6.62709e-05 -0.0120082 0.999928 
7.26816e-05 -0.0104191 0.999946 
7.25016e-05 -0.00879286 0.999961 
7.44154e-05 -0.00721026 0.999974 
7.10745e-05 -0.00566393 0.999984 
7.39827e-05 -0.00416667 0.999991 
7.24784e-05 -0.00272441 0.999996 
7.34122e-05 -0.00132573 0.999999 
7.27981e-05 6.11454e-05 1 
7.33653e-05 0.00148908 0.999999 
7.26691e-05 0.0030295 0.999995 
7.2841e-05 0.0047694 0.999989 
7.21038e-05 0.00680852 0.999977 
7.16262e-05 0.00926755 0.999957 
7.10015e-05 0.0122946 0.999924 
7.05452e-05 0.0160705 0.999871 
6.73194e-05 0.0208281 0.999783 
6.96955e-05 0.0268755 0.999639 
6.36707e-05 0.0345881 0.999402 
6.30843e-05 0.0444618 0.999011 
5.93735e-05 0.0571369 0.998366 
5.53635e-05 0.0734339 0.9973 
4.92354e-05 0.0943789 0.995536 
4.28812e-05 0.121285 0.992618 
3.40256e-05 0.155781 0.987792 
2.30679e-05 0.199802 0.979836 
8.38381e-06 0.2556 0.966783 
-5.95185e-06 0.32552 0.945535 
-2.99314e-05 0.411448 0.911433 
-4.62137e-05 0.514115 0.857721 
-7.08831e-05 0.631216 0.775607 
-7.48338e-05 0.752246 0.658882 
-7.79336e-05 0.868422 0.495826 
-5.89214e-05 0.956911 0.290383 
-1.58471e-06 0.998495 0.0548385 
2.73756e-05 0.982404 -0.18677 
7.37919e-05 0.913001 -0.407956 
8.51356e-05 0.806419 -0.591345 
6.64457e-05 0.684996 -0.728547 
6.63212e-05 0.564511 -0.825426 
2.72259e-05 0.455472 -0.89025 
2.41685e-05 0.363072 -0.931761 
-1.01903e-05 0.285428 -0.9584 
-6.32444e-06 0.22335 -0.974738 
-3.94388e-05 0.174405 -0.984674 
-3.2134e-05 0.135863 -0.990728 
-5.0772e-05 0.105779 -0.99439 
-5.07313e-05 0.0823308 -0.996605 
-5.86154e-05 0.0640867 -0.997944 
-6.06413e-05 0.0498893 -0.998755 
-6.44823e-05 0.0388294 -0.999246 
-6.62235e-05 0.0301938 -0.999544 
-6.80102e-05 0.023432 -0.999725 
-7.00498e-05 0.0181139 -0.999836 
-6.97467e-05 0.0139075 -0.999903 
-7.25724e-05 0.0105558 -0.999944 
-7.08868e-05 0.00785015 -0.999969 
-7.34306e-05 0.00563163 -0.999984 
-7.24133e-05 0.0037671 -0.999993 
-7.30053e-05 0.00214673 -0.999998 
-7.36813e-05 0.000680182 -1 
-7.23844e-05 -0.000715276 -1 
-7.39753e-05 -0.00210151 -0.999998 
-7.20678e-05 -0.00352606 -0.999994 
-7.41176e-05 -0.00501192 -0.999987 
-7.17191e-05 -0.00656444 -0.999978 
-7.3442e-05 -0.00817406 -0.999967 
-7.18933e-05 -0.00983278 -0.999952 
-7.54148e-05 -0.0115453 -0.999933 
-5.34149e-05 -0.0131977 -0.999913 
-0.00012084 -0.0144399 -0.999896 
-1.56807e-05 -0.0149405 -0.999888 
-9.73611e-05 -0.0146155 -0.999893 
-1.03266e-05 -0.0105458 -0.999944 
-9.14572e-05 0.000177695 -1 
8.70908e-06 -9.64745e-05 1 
0.00268929 -0.00520471 0.999983 
0.00395134 -0.0105569 0.999936 
0.0049503 -0.0133089 0.999899 
0.00527151 -0.013414 0.999896 
0.00552879 -0.0124616 0.999907 
0.00564802 -0.0110454 0.999923 
0.00571303 -0.00945791 0.999939 
0.00584192 -0.00775754 0.999953 
0.00590037 -0.00614595 0.999964 
0.00597119 -0.00459726 0.999972 
0.00602328 -0.0031016 0.999977 
0.00606191 -0.00166278 0.99998 
0.00608825 -0.000238407 0.999981 
0.00610087 0.00122014 0.999981 
0.00610639 0.00277869 0.999977 
0.00610173 0.00453114 0.999971 
0.00607826 0.00656248 0.99996 
0.0060468 0.00900255 0.999941 
0.00601364 0.0119819 0.99991 
0.00593998 0.0157079 0.999859 
0.00586884 0.0203025 0.999777 
0.00584267 0.0263199 0.999636 
0.00576317 0.0339008 0.999409 
0.00570141 0.0434978 0.999037 
0.00567566 0.0558193 0.998425 
0.00570278 0.0717028 0.99741 
0.00579176 0.0918323 0.995758 
0.00600521 0.117772 0.993023 
0.0064026 0.151139 0.988492 
0.00698716 0.193387 0.981098 
0.00786163 0.247462 0.968866 
0.00915703 0.316453 0.948564 
0.010685 0.401877 0.915631 
0.0126997 0.506668 0.862048 
0.0138212 0.624354 0.78102 
0.0148339 0.749025 0.662376 
0.0123906 0.861069 0.508337 
0.00763374 0.954293 0.298776 
0.00167215 0.998468 0.0553056 
-0.00452768 0.977996 -0.208574 
-0.010078 0.900719 -0.434285 
-0.0150381 0.80346 -0.595168 
-0.0133911 0.688885 -0.724747 
-0.0132059 0.5641 -0.825601 
-0.0114675 0.455261 -0.890284 
-0.0097899 0.360502 -0.932707 
-0.00836507 0.283949 -0.958803 
-0.00690603 0.218431 -0.975828 
-0.00662512 0.171468 -0.985167 
-0.00602213 0.132723 -0.991135 
-0.00584439 0.103625 -0.994599 
-0.00571622 0.0806785 -0.996724 
-0.00567576 0.0628154 -0.998009 
-0.00567737 0.0489242 -0.998786 
-0.00572785 0.0381203 -0.999257 
-0.00578776 0.0296558 -0.999543 
-0.00585365 0.0230312 -0.999718 
-0.00591717 0.0177978 -0.999824 
-0.00597513 0.0136509 -0.999889 
-0.00604002 0.0103496 -0.999928 
-0.0060732 0.00766748 -0.999952 
-0.00612183 0.00547906 -0.999966 
-0.00613785 0.00362174 -0.999975 
-0.00615411 0.00201269 -0.999979 
-0.0061608 0.000548157 -0.999981 
-0.00614984 -0.000846918 -0.999981 
-0.00613823 -0.00222535 -0.999979 
-0.00609478 -0.0036446 -0.999975 
-0.00605197 -0.0051105 -0.999969 
-0.00597883 -0.0066484 -0.99996 
-0.00591177 -0.008231 -0.999949 
-0.00580584 -0.00988358 -0.999934 
-0.00568381 -0.0115195 -0.999917 
-0.0055349 -0.0129808 -0.9999 
-0.00528832 -0.0140884 -0.999887 
-0.00477353 -0.01442 -0.999885 
-0.00433724 -0.0128121 -0.999909 
-0.00242871 -0.0091115 -0.999956 
8.93146e-05 -0.000125019 -1 
0.0017134 -0.00514461 0.999985 
0.00436354 -0.00851259 0.999954 
0.00674093 -0.0127723 0.999896 
0.00744831 -0.0135516 0.99988 
0.00805199 -0.0129194 0.999884 
0.00827365 -0.0116881 0.999897 
0.00874139 -0.0102713 0.999909 
0.00858149 -0.00865925 0.999926 
0.00891032 -0.00699915 0.999936 
0.00908307 -0.00546401 0.999944 
0.00919224 -0.00397041 0.99995 
0.00933085 -0.0025395 0.999953 
0.00939584 -0.00113209 0.999955 
0.00944311 0.000282041 0.999955 
0.00948454 0.00175738 0.999953 
0.00947983 0.00336177 0.999949 
0.00952144 0.00517319 0.999941 
0.00949096 0.00729712 0.999928 
0.00947534 0.00982881 0.999907 
0.00939939 0.0129649 0.999872 
0.00940442 0.0167744 0.999815 
0.00908819 0.0217126 0.999723 
0.00914986 0.0279897 0.999566 
0.00918088 0.0358379 0.999315 
0.009155 0.0458788 0.998905 
0.00922135 0.0587164 0.998232 
0.00955197 0.0748881 0.997146 
0.00994409 0.0957624 0.995355 
0.0106564 0.122646 0.992393 
0.0119147 0.156751 0.987566 
0.0135772 0.200758 0.979547 
0.015951 0.258001 0.966013 
0.0194588 0.330633 0.943559 
0.0235071 0.422754 0.90594 
0.0286313 0.534839 0.844469 
0.0317403 0.659391 0.75113 
0.034157 0.783892 0.619957 
0.0248438 0.902508 0.429956 
0.0117077 0.98209 0.188047 
-0.00607501 0.997848 -0.0652822 
-0.00592606 0.993906 -0.110069 
-0.0200818 0.931288 -0.363731 
-0.0335315 0.823514 -0.566303 
-0.0323838 0.706914 -0.706557 
-0.029334 0.587059 -0.809012 
-0.0257434 0.468543 -0.883065 
-0.0209986 0.372508 -0.927791 
-0.0173378 0.29179 -0.956325 
-0.0133313 0.228304 -0.973499 
-0.0124962 0.174734 -0.984536 
-0.0106952 0.136744 -0.990549 
-0.0101253 0.105844 -0.994331 
-0.00956249 0.0827877 -0.996521 
-0.00926312 0.0645107 -0.997874 
-0.00914147 0.050257 -0.998694 
-0.00912549 0.0392185 -0.999189 
-0.00914207 0.0305798 -0.999491 
-0.00921018 0.02378 -0.999675 
-0.00925105 0.0184385 -0.999787 
-0.00931178 0.0141864 -0.999856 
-0.00940862 0.0107771 -0.999898 
-0.00943931 0.0080177 -0.999923 
-0.00954225 0.00575759 -0.999938 
-0.00954681 0.00384651 -0.999947 
-0.0096239 0.00219815 -0.999951 
-0.00961814 0.00070281 -0.999953 
-0.00963089 -0.000701431 -0.999953 
-0.00959008 -0.00208832 -0.999952 
-0.00950168 -0.00348178 -0.999949 
-0.00940175 -0.00493379 -0.999944 
-0.00928254 -0.00643653 -0.999936 
-0.00917422 -0.00801239 -0.999926 
-0.00895814 -0.00964679 -0.999913 
-0.00872045 -0.011281 -0.999898 
-0.00839983 -0.0126773 -0.999884 
-0.00801102 -0.0137749 -0.999873 
-0.0074197 -0.0143182 -0.99987 
-0.00564967 -0.0119521 -0.999913 
-0.00288839 -0.00796774 -0.999964 
0.000124992 -5.84393e-05 -1 
9.2613e-05 0.000139472 1 
0.00399428 -0.00625484 0.999972 
0.0076688 -0.0120351 0.999898 
0.00917763 -0.0137618 0.999863 
0.00991723 -0.013238 0.999863 
0.0104221 -0.0121038 0.999872 
0.0108296 -0.0107988 0.999883 
0.0111205 -0.00907918 0.999897 
0.0112904 -0.00751796 0.999908 
0.0114801 -0.00587987 0.999917 
0.0116477 -0.00437833 0.999923 
0.0117391 -0.00290215 0.999927 
0.0118283 -0.00147879 0.999929 
0.0118891 -4.26598e-05 0.999929 
0.0119244 0.00143646 0.999928 
0.0119274 0.00303302 0.999924 
0.0119268 0.0048125 0.999917 
0.0118912 0.00688365 0.999906 
0.0118663 0.00933875 0.999886 
0.0118038 0.0123094 0.999855 
0.0117584 0.0159211 0.999804 
0.0116605 0.0205131 0.999722 
0.0116259 0.0262448 0.999588 
0.0116659 0.0336635 0.999365 
0.0117521 0.0429643 0.999007 
0.0119643 0.0547893 0.998426 
0.0124383 0.0695487 0.997501 
0.0131409 0.0885041 0.995989 
0.0142864 0.112883 0.993506 
0.0161681 0.143846 0.989468 
0.0188273 0.183953 0.982755 
0.0224855 0.236009 0.971491 
0.0278975 0.302864 0.952625 
0.0347364 0.389631 0.920316 
0.0432207 0.496694 0.866849 
0.0521069 0.627017 0.777261 
0.058822 0.76024 0.646974 
0.0454198 0.885932 0.461586 
0.0238611 0.974127 0.224739 
0.00548825 0.999386 0.0346095 
-0.0290849 0.99338 -0.111128 
-0.0335387 0.932976 -0.358372 
-0.0567596 0.815615 -0.575804 
-0.0549741 0.679849 -0.731288 
-0.0463198 0.552953 -0.831924 
-0.0392934 0.438653 -0.897797 
-0.0311378 0.347306 -0.937235 
-0.0252635 0.273549 -0.961526 
-0.0194794 0.21681 -0.976019 
-0.0179213 0.169249 -0.98541 
-0.0150646 0.134234 -0.990835 
-0.0139108 0.105321 -0.994341 
-0.0128165 0.0823677 -0.99652 
-0.012172 0.0645086 -0.997843 
-0.0118208 0.0503199 -0.998663 
-0.011673 0.0392382 -0.999162 
-0.0116117 0.0306729 -0.999462 
-0.011629 0.0239234 -0.999646 
-0.0116789 0.0185695 -0.999759 
-0.0117438 0.0143415 -0.999828 
-0.0118167 0.0109295 -0.99987 
-0.011893 0.00817157 -0.999896 
-0.0119529 0.00585446 -0.999911 
-0.0119844 0.00394039 -0.99992 
-0.0120317 0.00224823 -0.999925 
-0.0120301 0.000737438 -0.999927 
-0.0120073 -0.000693736 -0.999928 
-0.0119688 -0.00207905 -0.999926 
-0.0118735 -0.00347893 -0.999923 
-0.0117734 -0.00490543 -0.999919 
-0.0116171 -0.00640589 -0.999912 
-0.0114456 -0.00795419 -0.999903 
-0.0111814 -0.00959563 -0.999891 
-0.0108824 -0.0112184 -0.999878 
-0.0104133 -0.0125186 -0.999867 
-0.00984928 -0.0136141 -0.999859 
-0.00894199 -0.0144039 -0.999856 
-0.00741138 -0.011891 -0.999902 
-0.00399032 -0.00756617 -0.999963 
0.000152517 3.45422e-05 -1 
0.00230486 -0.00596509 0.99998 
0.00586085 -0.00878619 0.999944 
0.0081194 -0.013526 0.999876 
0.00911245 -0.0138215 0.999863 
0.00984767 -0.0128758 0.999869 
0.0103115 -0.0117883 0.999877 
0.0107177 -0.0103233 0.999889 
0.0108749 -0.00873778 0.999903 
0.0112505 -0.00716859 0.999911 
0.0112327 -0.00578835 0.99992 
0.0114706 -0.00443753 0.999924 
0.0115433 -0.00305878 0.999929 
0.0116413 -0.0016273 0.999931 
0.0117036 -0.000175015 0.999931 
0.0117351 0.00133543 0.99993 
0.0117578 0.00294079 0.999927 
0.0117388 0.00473977 0.99992 
0.0117188 0.00681352 0.999908 
0.0116658 0.009288 0.999889 
0.0116351 0.0122601 0.999857 
0.0116455 0.0161151 0.999802 
0.0116369 0.0208559 0.999715 
0.0117481 0.0269346 0.999568 
0.011859 0.0344139 0.999337 
0.0121743 0.0439863 0.998958 
0.0126948 0.0556966 0.998367 
0.0135741 0.0708253 0.997396 
0.0149221 0.090328 0.9958 
0.0169934 0.114966 0.993224 
0.020173 0.147178 0.988904 
0.024732 0.189619 0.981546 
0.0310925 0.243845 0.969316 
0.0402402 0.316395 0.947774 
0.0522246 0.408136 0.911426 
0.0666637 0.526293 0.847686 
0.0838308 0.657687 0.748612 
0.0868436 0.823695 0.560343 
0.0588883 0.937586 0.34273 
0.0446533 0.984981 0.166787 
0.0328019 0.997636 0.0603907 
-0.101116 0.977843 -0.183301 
-0.0372625 0.967546 -0.249932 
-0.077428 0.861351 -0.502075 
-0.0845541 0.681083 -0.727308 
-0.0694272 0.549469 -0.832625 
-0.0563329 0.433484 -0.899399 
-0.0433163 0.337391 -0.940367 
-0.0339548 0.265273 -0.963575 
-0.025559 0.209675 -0.977437 
-0.0220853 0.163668 -0.986268 
-0.0180145 0.129313 -0.99144 
-0.0156857 0.100752 -0.994788 
-0.0140532 0.0792104 -0.996759 
-0.0129737 0.0620096 -0.997991 
-0.0123171 0.048509 -0.998747 
-0.0119328 0.0380434 -0.999205 
-0.01173 0.0298283 -0.999486 
-0.0116434 0.0232943 -0.999661 
-0.0116247 0.0181672 -0.999767 
-0.011658 0.0140614 -0.999833 
-0.0117055 0.010804 -0.999873 
-0.0117735 0.00813481 -0.999898 
-0.0117808 0.00592036 -0.999913 
-0.0118593 0.00401897 -0.999922 
-0.0118494 0.00232525 -0.999927 
-0.0118281 0.000765563 -0.99993 
-0.0117862 -0.000687393 -0.99993 
-0.0117231 -0.00209752 -0.999929 
-0.0116484 -0.00350053 -0.999926 
-0.0115189 -0.00492607 -0.999922 
-0.0114008 -0.00642832 -0.999914 
-0.0111487 -0.00796658 -0.999906 
-0.0108996 -0.00961141 -0.999894 
-0.0105307 -0.0112379 -0.999881 
-0.0100313 -0.0125419 -0.999871 
-0.00941778 -0.0136658 -0.999862 
-0.00858802 -0.0144482 -0.999859 
-0.0070977 -0.0118895 -0.999904 
-0.00422558 -0.00766137 -0.999962 
0.000210599 -3.46867e-05 -1 
3.1766e-05 3.98027e-05 1 
0.00395924 -0.00718039 0.999966 
0.00663282 -0.0120225 0.999906 
0.00789939 -0.0140399 0.99987 
0.00884946 -0.0133776 0.999871 
0.00933537 -0.0122704 0.999881 
0.00986845 -0.0108894 0.999892 
0.00997577 -0.009184 0.999908 
0.0103856 -0.0075415 0.999918 
0.0104907 -0.00598258 0.999927 
0.0106625 -0.00441752 0.999933 
0.0108136 -0.00295828 0.999937 
0.0109331 -0.00152924 0.999939 
0.0110095 -6.75792e-05 0.999939 
0.0110414 0.00144387 0.999938 
0.011076 0.00306428 0.999934 
0.011065 0.00487678 0.999927 
0.0110637 0.00695637 0.999915 
0.0110303 0.00942498 0.999895 
0.0110627 0.012449 0.999861 
0.0111002 0.016219 0.999807 
0.0111838 0.0206761 0.999724 
0.0113419 0.0261737 0.999593 
0.0115692 0.0329328 0.999391 
0.0120174 0.0413965 0.999071 
0.0127345 0.0523271 0.998549 
0.0138435 0.0657559 0.99774 
0.0155614 0.0833258 0.996401 
0.0181365 0.105407 0.994264 
0.0218841 0.133561 0.990799 
0.0273993 0.170874 0.984912 
0.0354587 0.218864 0.975111 
0.0462975 0.280505 0.958735 
0.0620447 0.360808 0.930574 
0.0818308 0.463758 0.882175 
0.108451 0.580503 0.807004 
0.126309 0.736421 0.664628 
0.122333 0.893609 0.431853 
0.167756 0.935509 0.310936 
-0.207124 0.898266 -0.38758 
-0.0895624 0.928617 -0.360067 
-0.115875 0.734803 -0.66831 
-0.10181 0.553504 -0.8266 
-0.0783868 0.441104 -0.894026 
-0.0578635 0.340398 -0.938499 
-0.0434745 0.260776 -0.96442 
-0.0316144 0.205424 -0.978162 
-0.0253369 0.156167 -0.987406 
-0.0201265 0.123292 -0.992166 
-0.0170766 0.0970782 -0.99513 
-0.0148521 0.0770499 -0.996917 
-0.0133445 0.0610097 -0.998048 
-0.0123719 0.0480216 -0.99877 
-0.0117515 0.0377524 -0.999218 
-0.011388 0.0297314 -0.999493 
-0.0111948 0.0233622 -0.999664 
-0.0110871 0.018224 -0.999772 
-0.0110656 0.0141547 -0.999839 
-0.0110504 0.0108443 -0.99988 
-0.0110883 0.00813421 -0.999905 
-0.0111171 0.00588083 -0.999921 
-0.0111436 0.00394666 -0.99993 
-0.011162 0.00224106 -0.999935 
-0.0111295 0.000690777 -0.999938 
-0.0110814 -0.000761457 -0.999938 
-0.0110046 -0.00218812 -0.999937 
-0.010957 -0.00360541 -0.999933 
-0.0108136 -0.00502976 -0.999929 
-0.0106655 -0.00649883 -0.999922 
-0.0104227 -0.00803858 -0.999913 
-0.0101851 -0.00967413 -0.999901 
-0.00978237 -0.0112969 -0.999888 
-0.00930949 -0.0127049 -0.999876 
-0.00866344 -0.01368 -0.999869 
-0.0078586 -0.0144687 -0.999864 
-0.00655303 -0.0120959 -0.999905 
-0.00394033 -0.00770819 -0.999963 
0.000173408 -1.57973e-05 -1 
-0.00016549 -4.70608e-05 1 
0.00368064 -0.0078157 0.999963 
0.00611665 -0.0121445 0.999908 
0.00720427 -0.0141887 0.999873 
0.00807427 -0.0135134 0.999876 
0.0084743 -0.0124719 0.999886 
0.00898134 -0.0110593 0.999899 
0.00908789 -0.00931862 0.999915 
0.0094886 -0.00757175 0.999926 
0.00956599 -0.00593888 0.999937 
0.00977185 -0.00441396 0.999943 
0.00988227 -0.00296536 0.999947 
0.0100192 -0.00150802 0.999949 
0.010099 -2.90147e-05 0.999949 
0.0101246 0.00150383 0.999948 
0.0101739 0.00314993 0.999943 
0.0101523 0.00496636 0.999936 
0.0101664 0.00706131 0.999923 
0.0101496 0.00953509 0.999903 
0.0102426 0.0125641 0.999869 
0.0102717 0.0161501 0.999817 
0.0104283 0.0206267 0.999733 
0.0107074 0.0261609 0.9996 
0.0109885 0.0328782 0.999399 
0.0116991 0.04167 0.999063 
0.0126513 0.0522821 0.998552 
0.014226 0.066252 0.997702 
0.0165421 0.0836945 0.996354 
0.0200224 0.105913 0.994174 
0.0252279 0.135475 0.99046 
0.0327732 0.172985 0.984379 
0.0439212 0.221054 0.974272 
0.0593245 0.283812 0.957043 
0.0822827 0.366177 0.9269 
0.112219 0.458522 0.881569 
0.154149 0.595216 0.788642 
0.190938 0.755482 0.626729 
0.281998 0.798067 0.532509 
-0.303049 0.755566 -0.580759 
-0.147162 0.836351 -0.528073 
-0.148148 0.635066 -0.758118 
-0.122596 0.482269 -0.867402 
-0.0885217 0.386259 -0.918133 
-0.0644074 0.301552 -0.951272 
-0.0473592 0.233125 -0.971293 
-0.0347779 0.188669 -0.981425 
-0.0272245 0.144653 -0.989108 
-0.0213535 0.115271 -0.993105 
-0.0176254 0.0913147 -0.995666 
-0.0149527 0.0725652 -0.997252 
-0.0131728 0.0575571 -0.998255 
-0.0119862 0.0455253 -0.998891 
-0.0111905 0.0359441 -0.999291 
-0.010722 0.0284338 -0.999538 
-0.0104606 0.0223885 -0.999695 
-0.0102752 0.0175716 -0.999793 
-0.010214 0.0136765 -0.999854 
-0.010163 0.0104881 -0.999893 
-0.0102139 0.00790151 -0.999917 
-0.0101646 0.0057057 -0.999932 
-0.0102474 0.00383332 -0.99994 
-0.0102276 0.0021626 -0.999945 
-0.0101724 0.000639568 -0.999948 
-0.0101241 -0.000832263 -0.999948 
-0.0100692 -0.00226133 -0.999947 
-0.00996619 -0.00368789 -0.999944 
-0.00986073 -0.0051327 -0.999938 
-0.00969806 -0.00659377 -0.999931 
-0.00947053 -0.008152 -0.999922 
-0.00923306 -0.00978919 -0.999909 
-0.00889784 -0.0114664 -0.999895 
-0.00845463 -0.0128355 -0.999882 
-0.00788727 -0.0138628 -0.999873 
-0.00709364 -0.014541 -0.999869 
-0.00583358 -0.0120125 -0.999911 
-0.00359443 -0.00775557 -0.999963 
0.000124909 -1.41597e-05 -1 
-8.87329e-05 -6.39349e-06 1 
0.0031594 -0.0078092 0.999965 
0.0053772 -0.0120547 0.999913 
0.00624763 -0.01434 0.999878 
0.00702484 -0.0135898 0.999883 
0.00733985 -0.0125236 0.999895 
0.00784368 -0.0110906 0.999908 
0.00783513 -0.00940035 0.999925 
0.00830623 -0.00773325 0.999936 
0.00831165 -0.00617651 0.999946 
0.00852097 -0.0046401 0.999953 
0.00856548 -0.003134 0.999958 
0.00872559 -0.00167325 0.999961 
0.00881964 -0.00018445 0.999961 
0.00882681 0.00135169 0.99996 
0.00889813 0.00298962 0.999956 
0.0088776 0.0047828 0.999949 
0.00890398 0.0068438 0.999937 
0.00888647 0.00925483 0.999918 
0.00903057 0.01216 0.999885 
0.00903972 0.0155968 0.999837 
0.00924427 0.0198598 0.99976 
0.00958861 0.0250773 0.99964 
0.00989368 0.0312188 0.999464 
0.0107184 0.039154 0.999176 
0.0116896 0.0486246 0.998749 
0.0134182 0.0611975 0.998035 
0.0158459 0.076584 0.996937 
0.0194144 0.0958365 0.995208 
0.0248277 0.121362 0.992298 
0.0326722 0.153205 0.987654 
0.0436912 0.192092 0.980404 
0.0602225 0.243883 0.967933 
0.0833958 0.309064 0.947378 
0.117999 0.381405 0.916846 
0.162773 0.484263 0.859648 
0.230855 0.613914 0.754862 
0.350399 0.623882 0.698564 
-0.213764 0.7038 -0.677474 
-0.179458 0.534769 -0.825722 
-0.133122 0.406884 -0.903728 
-0.0944812 0.333103 -0.938145 
-0.066785 0.262386 -0.962649 
-0.0491544 0.206782 -0.977151 
-0.0364127 0.171389 -0.98453 
-0.0288639 0.136069 -0.990279 
-0.0226314 0.112311 -0.993415 
-0.0180583 0.0891792 -0.995852 
-0.0148361 0.0710433 -0.997363 
-0.0127576 0.056763 -0.998306 
-0.0112942 0.0449473 -0.998926 
-0.0102974 0.0355502 -0.999315 
-0.00969552 0.0281592 -0.999556 
-0.00936444 0.0222917 -0.999708 
-0.00909277 0.0174945 -0.999806 
-0.00899391 0.0136632 -0.999866 
-0.00890388 0.0104885 -0.999905 
-0.0088963 0.00786539 -0.999929 
-0.00889715 0.00566797 -0.999944 
-0.00891135 0.00375497 -0.999953 
-0.00889052 0.00210631 -0.999958 
-0.00884645 0.000549082 -0.999961 
-0.00877939 -0.000919618 -0.999961 
-0.00874153 -0.00239281 -0.999959 
-0.00864076 -0.00382815 -0.999955 
-0.00852358 -0.00528457 -0.99995 
-0.00841324 -0.00677682 -0.999942 
-0.00817461 -0.0083158 -0.999932 
-0.00797869 -0.00992692 -0.999919 
-0.00767286 -0.0116004 -0.999903 
-0.00730442 -0.0129902 -0.999889 
-0.00693007 -0.0139677 -0.999878 
-0.00627615 -0.0146815 -0.999873 
-0.00512587 -0.0123569 -0.999911 
-0.00316782 -0.00783983 -0.999964 
0.000112782 -1.56153e-05 -1 