# vtk DataFile Version 3.0 
Exported using Morpho https://github.com/Morpho-lang/morpho 
ASCII 
DATASET UNSTRUCTURED_GRID 

POINTS 2162 float 
-8.32618 -2.88146 0 
-8.11405 -2.88146 0 
-7.90192 -2.88146 0 
-7.68979 -2.88146 0 
-7.47765 -2.88146 0 
-7.26552 -2.88146 0 
-7.05339 -2.88146 0 
-6.84126 -2.88146 0 
-6.62913 -2.88146 0 
-6.41699 -2.88146 0 
-6.20486 -2.88146 0 
-5.99273 -2.88146 0 
-5.7806 -2.88146 0 
-5.56847 -2.88146 0 
-5.35633 -2.88146 0 
-5.1442 -2.88146 0 
-4.93207 -2.88146 0 
-4.71994 -2.88146 0 
-4.50781 -2.88146 0 
-4.29567 -2.88146 0 
-4.08354 -2.88146 0 
-3.87141 -2.88146 0 
-3.65928 -2.88146 0 
-3.44715 -2.88146 0 
-3.23501 -2.88146 0 
-3.02288 -2.88146 0 
-2.81075 -2.88146 0 
-2.59862 -2.88146 0 
-2.38649 -2.88146 0 
-2.17435 -2.88146 0 
-1.96222 -2.88146 0 
-1.75009 -2.88146 0 
-1.53796 -2.88146 0 
-1.32583 -2.88146 0 
-1.11369 -2.88146 0 
-0.901561 -2.88146 0 
-0.689429 -2.88146 0 
-0.477297 -2.88146 0 
-0.265165 -2.88146 0 
-0.053033 -2.88146 0 
0.159099 -2.88146 0 
0.371231 -2.88146 0 
0.583363 -2.88146 0 
0.795495 -2.88146 0 
1.00763 -2.88146 0 
1.21976 -2.88146 0 
1.43189 -2.88146 0 
1.64402 -2.88146 0 
1.85616 -2.88146 0 
2.06829 -2.88146 0 
2.28042 -2.88146 0 
2.49255 -2.88146 0 
2.70468 -2.88146 0 
2.91682 -2.88146 0 
3.12895 -2.88146 0 
3.34108 -2.88146 0 
3.55321 -2.88146 0 
3.76534 -2.88146 0 
3.97748 -2.88146 0 
4.18961 -2.88146 0 
4.40174 -2.88146 0 
4.61387 -2.88146 0 
4.826 -2.88146 0 
5.03814 -2.88146 0 
5.25027 -2.88146 0 
5.4624 -2.88146 0 
5.67453 -2.88146 0 
5.88666 -2.88146 0 
6.0988 -2.88146 0 
6.31093 -2.88146 0 
6.52306 -2.88146 0 
6.73519 -2.88146 0 
6.94732 -2.88146 0 
7.15946 -2.88146 0 
7.37159 -2.88146 0 
7.58372 -2.88146 0 
7.79585 -2.88146 0 
8.00798 -2.88146 0 
8.22012 -2.88146 0 
8.53831 -2.88146 0 
-8.53831 -2.71981 0 
-8.31309 -2.65385 0 
-8.08405 -2.6624 0 
-7.85543 -2.66328 0 
-7.6373 -2.66245 0 
-7.41135 -2.67017 0 
-7.18253 -2.66854 0 
-6.95996 -2.67205 0 
-6.73548 -2.67225 0 
-6.51531 -2.66876 0 
-6.29552 -2.66996 0 
-6.07685 -2.66939 0 
-5.85849 -2.67061 0 
-5.64067 -2.67054 0 
-5.42382 -2.67038 0 
-5.20777 -2.6701 0 
-4.99233 -2.66936 0 
-4.77821 -2.66936 0 
-4.56406 -2.66932 0 
-4.35066 -2.66945 0 
-4.13723 -2.66949 0 
-3.92406 -2.67008 0 
-3.71057 -2.67121 0 
-3.49578 -2.67039 0 
-3.28318 -2.6709 0 
-3.06866 -2.67032 0 
-2.85518 -2.66994 0 
-2.64149 -2.67011 0 
-2.42771 -2.67011 0 
-2.21207 -2.66833 0 
-1.99653 -2.66648 0 
-1.78209 -2.6662 0 
-1.56567 -2.66452 0 
-1.34952 -2.6671 0 
-1.13123 -2.66514 0 
-0.912522 -2.66053 0 
-0.693413 -2.6566 0 
-0.475884 -2.65371 0 
-0.261166 -2.64524 0 
-0.0407307 -2.65624 0 
0.175903 -2.64951 0 
0.396165 -2.66254 0 
0.605278 -2.65404 0 
0.82547 -2.66326 0 
1.03999 -2.65983 0 
1.25728 -2.6667 0 
1.47633 -2.66652 0 
1.68683 -2.66546 0 
1.90403 -2.66844 0 
2.1206 -2.66999 0 
2.33175 -2.66747 0 
2.54692 -2.66998 0 
2.76066 -2.66942 0 
2.97278 -2.66866 0 
3.18557 -2.66904 0 
3.39815 -2.66891 0 
3.60954 -2.66935 0 
3.82239 -2.67022 0 
4.03455 -2.6693 0 
4.24517 -2.66798 0 
4.45597 -2.66878 0 
4.66759 -2.66937 0 
4.87785 -2.6693 0 
5.08936 -2.67001 0 
5.30092 -2.66998 0 
5.50973 -2.66793 0 
5.7219 -2.67138 0 
5.93184 -2.67004 0 
6.14273 -2.67032 0 
6.35268 -2.67034 0 
6.56324 -2.66959 0 
6.7743 -2.66973 0 
6.98574 -2.66831 0 
7.19969 -2.66817 0 
7.41186 -2.66311 0 
7.63083 -2.66621 0 
7.84494 -2.65584 0 
8.06415 -2.65287 0 
8.3095 -2.7151 0 
8.53831 -2.66933 0 
-8.42843 -2.46286 0 
-8.18092 -2.44545 0 
-7.95165 -2.45304 0 
-7.72842 -2.43757 0 
-7.51137 -2.45656 0 
-7.28606 -2.46684 0 
-7.0549 -2.45875 0 
-6.83642 -2.4667 0 
-6.61812 -2.45889 0 
-6.39951 -2.45872 0 
-6.18442 -2.45809 0 
-5.96835 -2.45946 0 
-5.75391 -2.46032 0 
-5.53997 -2.45979 0 
-5.32706 -2.45911 0 
-5.11475 -2.45848 0 
-4.90368 -2.45633 0 
-4.69286 -2.45727 0 
-4.48324 -2.45595 0 
-4.27304 -2.45714 0 
-4.06331 -2.45676 0 
-3.85245 -2.45889 0 
-3.64073 -2.4613 0 
-3.43043 -2.45743 0 
-3.21892 -2.46076 0 
-3.00742 -2.45819 0 
-2.79566 -2.4582 0 
-2.58469 -2.45772 0 
-2.37151 -2.45893 0 
-2.1564 -2.45549 0 
-1.94283 -2.45091 0 
-1.72737 -2.4521 0 
-1.50745 -2.45093 0 
-1.29043 -2.45383 0 
-1.07259 -2.44911 0 
-0.849727 -2.44369 0 
-0.628104 -2.43565 0 
-0.409426 -2.42911 0 
-0.210546 -2.37636 0 
-0.0372351 -2.43391 0 
0.140155 -2.38062 0 
0.331354 -2.44009 0 
0.536895 -2.42626 0 
0.753509 -2.44707 0 
0.970656 -2.4413 0 
1.19067 -2.44959 0 
1.40646 -2.45827 0 
1.62549 -2.44326 0 
1.83385 -2.45808 0 
2.05356 -2.45996 0 
2.26636 -2.45102 0 
2.47761 -2.45935 0 
2.69213 -2.45799 0 
2.90452 -2.45509 0 
3.116 -2.45662 0 
3.32849 -2.45694 0 
3.5405 -2.45534 0 
3.75143 -2.45916 0 
3.96412 -2.45802 0 
4.17608 -2.45436 0 
4.38734 -2.45477 0 
4.59847 -2.45746 0 
4.81031 -2.45566 0 
5.02146 -2.45879 0 
5.23496 -2.45949 0 
5.44692 -2.4538 0 
5.66009 -2.46155 0 
5.87295 -2.45884 0 
6.08607 -2.46054 0 
6.30024 -2.45877 0 
6.51252 -2.45945 0 
6.72773 -2.45864 0 
6.94246 -2.45689 0 
7.16018 -2.45836 0 
7.37982 -2.44854 0 
7.60314 -2.4574 0 
7.83032 -2.43662 0 
8.05732 -2.43741 0 
8.29334 -2.49836 0 
8.53831 -2.4572 0 
-8.53831 -2.26634 0 
-8.28725 -2.25479 0 
-8.03442 -2.24147 0 
-7.807 -2.22829 0 
-7.57013 -2.22936 0 
-7.35311 -2.25685 0 
-7.12395 -2.26354 0 
-6.88113 -2.25187 0 
-6.66704 -2.24913 0 
-6.44424 -2.24912 0 
-6.22345 -2.24473 0 
-6.00628 -2.24858 0 
-5.78818 -2.24848 0 
-5.57253 -2.24859 0 
-5.3569 -2.24753 0 
-5.14199 -2.24696 0 
-4.92779 -2.24408 0 
-4.71442 -2.2442 0 
-4.50179 -2.24248 0 
-4.29088 -2.24328 0 
-4.07919 -2.24372 0 
-3.86805 -2.24607 0 
-3.65559 -2.25043 0 
-3.44317 -2.24411 0 
-3.2317 -2.2489 0 
-3.01979 -2.24618 0 
-2.80681 -2.24604 0 
-2.5938 -2.24368 0 
-2.38251 -2.24697 0 
-2.16789 -2.24506 0 
-1.94911 -2.23645 0 
-1.73298 -2.2387 0 
-1.5142 -2.24247 0 
-1.28661 -2.23897 0 
-1.05816 -2.24002 0 
-0.830123 -2.23143 0 
-0.60607 -2.21822 0 
-0.390264 -2.1965 0 
-0.197394 -2.10895 0 
-0.0225321 -2.16272 0 
0.162949 -2.11801 0 
0.345154 -2.20165 0 
0.567013 -2.21103 0 
0.781373 -2.23042 0 
1.00853 -2.23194 0 
1.22503 -2.23481 0 
1.4413 -2.24694 0 
1.65232 -2.22116 0 
1.87025 -2.25261 0 
2.08103 -2.24397 0 
2.29366 -2.236 0 
2.50571 -2.24841 0 
2.71666 -2.24411 0 
2.92705 -2.24069 0 
3.13818 -2.24396 0 
3.3482 -2.24363 0 
3.55772 -2.24106 0 
3.76811 -2.24717 0 
3.97809 -2.24478 0 
4.18841 -2.24041 0 
4.39812 -2.24084 0 
4.60819 -2.2446 0 
4.81803 -2.24201 0 
5.03118 -2.24862 0 
5.2415 -2.24695 0 
5.45749 -2.2442 0 
5.66879 -2.25112 0 
5.88257 -2.24935 0 
6.09739 -2.25254 0 
6.30193 -2.2416 0 
6.50974 -2.24812 0 
6.72122 -2.25043 0 
6.93858 -2.24572 0 
7.15478 -2.2488 0 
7.37483 -2.23721 0 
7.59909 -2.2484 0 
7.82881 -2.22353 0 
8.06676 -2.23118 0 
8.3019 -2.28346 0 
8.53831 -2.24506 0 
-8.42563 -2.05988 0 
-8.18435 -2.05 0 
-7.96073 -2.01967 0 
-7.72758 -2.02244 0 
-7.50535 -2.01172 0 
-7.29253 -2.05002 0 
-7.06001 -2.0679 0 
-6.851 -2.02744 0 
-6.63445 -2.03829 0 
-6.41912 -2.0368 0 
-6.20529 -2.03077 0 
-5.99144 -2.03692 0 
-5.77976 -2.03516 0 
-5.56724 -2.03642 0 
-5.35373 -2.03594 0 
-5.14088 -2.03525 0 
-4.93152 -2.0289 0 
-4.72092 -2.03334 0 
-4.50797 -2.02966 0 
-4.29506 -2.03079 0 
-4.08391 -2.03028 0 
-3.8718 -2.03404 0 
-3.65941 -2.03878 0 
-3.44454 -2.03403 0 
-3.2294 -2.0363 0 
-3.01472 -2.03493 0 
-2.80005 -2.03439 0 
-2.58795 -2.02929 0 
-2.37269 -2.03526 0 
-2.15056 -2.03671 0 
-1.92982 -2.02423 0 
-1.70829 -2.02833 0 
-1.47552 -2.04032 0 
-1.23997 -2.03638 0 
-1.00733 -2.0342 0 
-0.778267 -2.01894 0 
-0.547163 -2.00333 0 
-0.342352 -1.94666 0 
0.327396 -1.94675 0 
0.51991 -1.99859 0 
0.747923 -2.00925 0 
0.962053 -2.03072 0 
1.19633 -2.02032 0 
1.41619 -2.03248 0 
1.63185 -2.00808 0 
1.85427 -2.04123 0 
2.06976 -2.02793 0 
2.28096 -2.02339 0 
2.49769 -2.03418 0 
2.70853 -2.03043 0 
2.92084 -2.02647 0 
3.13288 -2.03065 0 
3.34471 -2.02915 0 
3.55634 -2.02731 0 
3.76686 -2.03346 0 
3.97864 -2.03162 0 
4.18959 -2.02602 0 
4.40067 -2.02714 0 
4.61144 -2.03062 0 
4.82628 -2.03189 0 
5.03577 -2.03467 0 
5.25482 -2.04095 0 
5.46673 -2.03176 0 
5.68052 -2.04266 0 
5.89733 -2.04273 0 
6.09976 -2.03325 0 
6.30741 -2.02715 0 
6.51713 -2.03467 0 
6.73289 -2.04237 0 
6.94769 -2.03394 0 
7.16328 -2.0366 0 
7.38917 -2.02739 0 
7.61657 -2.04021 0 
7.84173 -2.00738 0 
8.07077 -2.02339 0 
8.30478 -2.06564 0 
8.53831 -2.03293 0 
-8.53831 -1.83105 0 
-8.30569 -1.85357 0 
-8.07263 -1.81623 0 
-7.82848 -1.81899 0 
-7.59195 -1.80313 0 
-7.35055 -1.81695 0 
-7.13301 -1.86684 0 
-6.91436 -1.81631 0 
-6.688 -1.82202 0 
-6.47017 -1.8233 0 
-6.25274 -1.81839 0 
-6.03275 -1.82275 0 
-5.81818 -1.82093 0 
-5.60396 -1.82328 0 
-5.38935 -1.82508 0 
-5.17318 -1.82358 0 
-4.96004 -1.8148 0 
-4.74774 -1.81926 0 
-4.53564 -1.81938 0 
-4.32081 -1.81881 0 
-4.10704 -1.81796 0 
-3.8944 -1.82091 0 
-3.68155 -1.8268 0 
-3.46939 -1.82405 0 
-3.2537 -1.82566 0 
-3.04019 -1.82413 0 
-2.82599 -1.82266 0 
-2.6137 -1.8142 0 
-2.40307 -1.82097 0 
-2.19099 -1.83 0 
-1.97236 -1.81686 0 
-1.75098 -1.81641 0 
-1.53074 -1.83809 0 
-1.30279 -1.83752 0 
-1.07337 -1.83196 0 
-0.852354 -1.81696 0 
-0.626542 -1.80937 0 
-0.416442 -1.7503 0 
0.407253 -1.7384 0 
0.622029 -1.80716 0 
0.851805 -1.80296 0 
1.07416 -1.8328 0 
1.31924 -1.81805 0 
1.53233 -1.80569 0 
1.77759 -1.82568 0 
1.99254 -1.82032 0 
2.21218 -1.80911 0 
2.43344 -1.82346 0 
2.64973 -1.8157 0 
2.86243 -1.81498 0 
3.07968 -1.81731 0 
3.29321 -1.81688 0 
3.50681 -1.81551 0 
3.72214 -1.81788 0 
3.93207 -1.82004 0 
4.14494 -1.8141 0 
4.35911 -1.81313 0 
4.57113 -1.81598 0 
4.78244 -1.82272 0 
4.99791 -1.81877 0 
5.20932 -1.83612 0 
5.42607 -1.82203 0 
5.64324 -1.83121 0 
5.85522 -1.83813 0 
6.06928 -1.81365 0 
6.27198 -1.81292 0 
6.48282 -1.82198 0 
6.69701 -1.83311 0 
6.91234 -1.82432 0 
7.13165 -1.82191 0 
7.34904 -1.82421 0 
7.58809 -1.83103 0 
7.82329 -1.80137 0 
8.0642 -1.81089 0 
8.29997 -1.8455 0 
8.53831 -1.8208 0 
-8.53831 -1.61379 0 
-8.30422 -1.6387 0 
-8.06799 -1.6028 0 
-7.83312 -1.61527 0 
-7.59868 -1.59153 0 
-7.36856 -1.61698 0 
-7.12092 -1.65092 0 
-6.88018 -1.6097 0 
-6.65714 -1.60806 0 
[...]
POINT_DATA 2162 
VECTORS vectors float
-6.63186e-05 -0.000843679 1 
4.72272e-05 -0.0108198 0.999941 
-9.30323e-05 -0.0134641 0.999909 
-3.8947e-05 -0.0136802 0.999906 
-5.06466e-05 -0.0129829 0.999916 
-4.90603e-05 -0.0116871 0.999932 
-4.89577e-05 -0.010218 0.999948 
-4.89852e-05 -0.00876336 0.999962 
-4.91303e-05 -0.00734018 0.999973 
-4.92522e-05 -0.00593798 0.999982 
-4.92652e-05 -0.00457393 0.99999 
-4.93187e-05 -0.00326146 0.999995 
-4.93809e-05 -0.00200101 0.999998 
-4.93955e-05 -0.000774103 1 
-4.93929e-05 0.000461052 1 
-4.92886e-05 0.00176284 0.999998 
-4.91737e-05 0.00320335 0.999995 
-4.89479e-05 0.00486554 0.999988 
-4.86605e-05 0.00684778 0.999977 
-4.82674e-05 0.00927064 0.999957 
-4.77384e-05 0.012284 0.999925 
-4.70325e-05 0.0160777 0.999871 
-4.61242e-05 0.0208958 0.999782 
-4.49828e-05 0.0270583 0.999634 
-4.34788e-05 0.0349794 0.999388 
-4.1488e-05 0.0451964 0.998978 
-3.90528e-05 0.0584149 0.998292 
-3.57853e-05 0.0755501 0.997142 
-3.16434e-05 0.0977956 0.995207 
-2.65887e-05 0.126697 0.991941 
-1.95065e-05 0.164223 0.986423 
-1.18282e-05 0.212837 0.977088 
-1.21757e-06 0.275469 0.96131 
1.00515e-05 0.355178 0.934799 
2.13788e-05 0.454468 0.890763 
3.11395e-05 0.573549 0.819171 
3.38973e-05 0.707125 0.707088 
1.97801e-05 0.840615 0.541633 
3.23233e-05 0.946913 0.321491 
-1.28031e-05 0.998353 0.0573679 
-6.74487e-07 0.976724 -0.214499 
-2.96949e-05 0.890092 -0.455781 
-2.88746e-05 0.765105 -0.643905 
-3.2473e-05 0.629731 -0.776814 
-2.76491e-05 0.503598 -0.863938 
-1.36586e-05 0.395606 -0.91842 
-4.2311e-06 0.30767 -0.951493 
7.46778e-06 0.238027 -0.971258 
1.65311e-05 0.18376 -0.982971 
2.36594e-05 0.141787 -0.989897 
2.95028e-05 0.109443 -0.993993 
3.42527e-05 0.0845429 -0.99642 
3.76117e-05 0.0653638 -0.997861 
4.05449e-05 0.0505748 -0.99872 
4.26249e-05 0.0391515 -0.999233 
4.43347e-05 0.0303043 -0.999541 
4.56625e-05 0.0234278 -0.999726 
4.66389e-05 0.0180612 -0.999837 
4.74396e-05 0.0138485 -0.999904 
4.80623e-05 0.0105141 -0.999945 
4.85148e-05 0.00784652 -0.999969 
4.88134e-05 0.00568329 -0.999984 
4.91739e-05 0.00389157 -0.999992 
4.92371e-05 0.0023629 -0.999997 
4.94288e-05 0.00101075 -0.999999 
4.94499e-05 -0.000245489 -1 
4.94688e-05 -0.00146877 -0.999999 
4.94042e-05 -0.0027088 -0.999996 
4.93986e-05 -0.00400338 -0.999992 
4.93342e-05 -0.00536227 -0.999986 
4.91677e-05 -0.0067815 -0.999977 
4.91809e-05 -0.00824637 -0.999966 
4.88413e-05 -0.00975183 -0.999952 
4.90071e-05 -0.0113056 -0.999936 
4.93181e-05 -0.0128663 -0.999917 
4.78451e-05 -0.0142076 -0.999899 
4.82131e-05 -0.0148709 -0.999889 
4.9596e-05 -0.0149999 -0.999887 
7.069e-05 -0.0125149 -0.999922 
-3.82871e-06 -0.00131354 -0.999999 
-2.98712e-05 0.000183374 1 
0.00469249 -0.00735356 0.999962 
0.0062936 -0.0117413 0.999911 
0.00699114 -0.013401 0.999886 
0.00733888 -0.0132123 0.999886 
0.00748898 -0.0123073 0.999896 
0.00765902 -0.0109504 0.999911 
0.00773453 -0.00945952 0.999925 
0.00783178 -0.00794695 0.999938 
0.00794567 -0.00650088 0.999947 
0.00799075 -0.00510008 0.999955 
0.00804957 -0.00375268 0.999961 
0.00807988 -0.00245322 0.999964 
0.00811654 -0.00118782 0.999966 
0.0081419 7.41003e-05 0.999967 
0.00815628 0.00138496 0.999966 
0.00816278 0.00281371 0.999963 
0.00815091 0.00443581 0.999957 
0.00812923 0.00635642 0.999947 
0.00809663 0.00868351 0.99993 
0.00805638 0.0115682 0.999901 
0.00800187 0.0151874 0.999853 
0.00794092 0.0197845 0.999773 
0.00790214 0.0256994 0.999638 
0.00786704 0.0332221 0.999417 
0.0078773 0.0430104 0.999044 
0.00794442 0.0556119 0.998421 
0.00810326 0.0719619 0.997374 
0.00843027 0.0931954 0.995612 
0.00906197 0.121052 0.992605 
0.0101091 0.157278 0.987503 
0.0116977 0.204047 0.978891 
0.0141827 0.265012 0.964141 
0.01743 0.342998 0.939174 
0.0221443 0.441603 0.896937 
0.0279588 0.56129 0.827147 
0.0328438 0.69774 0.715598 
0.0330579 0.834913 0.549388 
0.0249327 0.945574 0.324452 
0.00342231 0.99907 0.0429908 
-0.0188678 0.970592 -0.239991 
-0.0295557 0.872757 -0.48726 
-0.0336312 0.74478 -0.666462 
-0.0288895 0.605303 -0.795471 
-0.0243078 0.481247 -0.876248 
-0.0187812 0.375785 -0.926516 
-0.0150385 0.289999 -0.956909 
-0.0124311 0.225101 -0.974256 
-0.0104876 0.173012 -0.984864 
-0.00928075 0.133005 -0.991072 
-0.00864236 0.102964 -0.994648 
-0.00818391 0.0793736 -0.996811 
-0.00797671 0.061338 -0.998085 
-0.00789676 0.0475242 -0.998839 
-0.00787514 0.0368002 -0.999292 
-0.00789885 0.0284895 -0.999563 
-0.00793663 0.02205 -0.999725 
-0.00798308 0.0169775 -0.999824 
-0.00804824 0.0129989 -0.999883 
-0.00811449 0.0098608 -0.999918 
-0.00815109 0.00733464 -0.99994 
-0.00818216 0.0052647 -0.999953 
-0.00821076 0.00354629 -0.99996 
-0.00822501 0.00205686 -0.999964 
-0.00823262 0.000723127 -0.999966 
-0.00825576 -0.000511493 -0.999966 
-0.00820122 -0.00173983 -0.999965 
-0.00818901 -0.00297175 -0.999962 
-0.00815038 -0.00425288 -0.999958 
-0.00809826 -0.00558385 -0.999952 
-0.00805019 -0.00697678 -0.999943 
-0.00796127 -0.00842187 -0.999933 
-0.00786366 -0.00991316 -0.99992 
-0.00771887 -0.0114341 -0.999905 
-0.00756533 -0.0128273 -0.999889 
-0.00728751 -0.0139811 -0.999876 
-0.00688445 -0.0145068 -0.999871 
-0.00610586 -0.0136599 -0.999888 
-0.0045019 -0.0105411 -0.999934 
0.00017761 0.000180149 -1 
0.0036414 -0.00741901 0.999966 
0.00675554 -0.0111521 0.999915 
0.00838885 -0.0134668 0.999874 
0.00923157 -0.0133865 0.999868 
0.00955148 -0.012635 0.999875 
0.00979575 -0.0115194 0.999886 
0.0101331 -0.0100547 0.999898 
0.0102451 -0.00857258 0.999911 
0.010451 -0.00712517 0.99992 
0.0105635 -0.00573044 0.999928 
0.0106623 -0.00440455 0.999933 
0.0107347 -0.00311304 0.999938 
0.0107972 -0.00185856 0.99994 
0.0108546 -0.000612759 0.999941 
0.0108927 0.00065598 0.99994 
0.0109119 0.0020019 0.999938 
0.0109286 0.00348871 0.999934 
0.0109121 0.00520564 0.999927 
0.0109053 0.00723945 0.999914 
0.0108679 0.00972414 0.999894 
0.0108455 0.0127972 0.999859 
0.0108064 0.0166726 0.999803 
0.0107889 0.021599 0.999708 
0.0108664 0.0278179 0.999554 
0.0109508 0.0358431 0.999297 
0.0112164 0.0461118 0.998873 
0.0116455 0.0593514 0.998169 
0.0123726 0.0763496 0.997004 
0.0135133 0.0985287 0.995042 
0.0154452 0.127439 0.991726 
0.0184361 0.164508 0.986203 
0.0226663 0.212881 0.976815 
0.0290482 0.276399 0.960604 
0.0375509 0.356808 0.933423 
0.0493059 0.455923 0.888653 
0.0633238 0.579031 0.812843 
0.0757083 0.717976 0.691938 
0.0756328 0.857078 0.509605 
0.0609903 0.956057 0.286768 
0.00763782 0.999124 0.0411443 
-0.0462687 0.975943 -0.21306 
-0.0674229 0.894458 -0.44204 
-0.0785234 0.766605 -0.637299 
-0.0664701 0.630106 -0.773659 
-0.0549539 0.501528 -0.863394 
-0.0417624 0.392988 -0.918595 
-0.0314956 0.306639 -0.951305 
-0.0253026 0.235962 -0.971433 
-0.0197226 0.184493 -0.982636 
-0.0162788 0.141861 -0.989753 
-0.0143237 0.109855 -0.993844 
-0.0127267 0.0854059 -0.996265 
-0.0118553 0.066109 -0.997742 
-0.0113594 0.0513232 -0.998617 
-0.0110341 0.0399034 -0.999143 
-0.0108743 0.030978 -0.999461 
-0.0108225 0.0240137 -0.999653 
-0.0107814 0.0185977 -0.999769 
-0.0108079 0.0142888 -0.999839 
-0.0108739 0.0108836 -0.999882 
-0.0109083 0.0081617 -0.999907 
-0.0109313 0.00595354 -0.999923 
-0.0109795 0.00411195 -0.999931 
-0.0109737 0.00254337 -0.999937 
-0.0109723 0.00114088 -0.999939 
-0.0110208 -0.000145664 -0.999939 
-0.0109275 -0.00139383 -0.999939 
-0.0109144 -0.0026389 -0.999937 
-0.0108339 -0.0039103 -0.999934 
-0.010744 -0.00522767 -0.999929 
-0.0106608 -0.00660702 -0.999921 
-0.0105277 -0.00805369 -0.999912 
-0.0103525 -0.0095536 -0.999901 
-0.0100942 -0.0110984 -0.999887 
-0.00979725 -0.0124715 -0.999874 
-0.00928282 -0.0136599 -0.999864 
-0.00867739 -0.0143431 -0.999859 
-0.00749267 -0.0135971 -0.999879 
-0.00493517 -0.0104528 -0.999933 
-0.000223015 -0.000156693 -1 
-0.000172454 -9.3454e-05 1 
0.00592774 -0.0100769 0.999932 
0.00834386 -0.0135161 0.999874 
0.00934479 -0.013701 0.999862 
0.010007 -0.0129031 0.999867 
0.0104961 -0.0119083 0.999874 
0.0108405 -0.0105277 0.999886 
0.0110793 -0.00887438 0.999899 
0.0112571 -0.00744025 0.999909 
0.0113974 -0.00601634 0.999917 
0.0115187 -0.00466114 0.999923 
0.0116257 -0.00336707 0.999927 
0.0117125 -0.00208937 0.999929 
0.0117786 -0.000826628 0.99993 
0.0118215 0.000463682 0.99993 
0.0118423 0.00182389 0.999928 
0.0118342 0.00331683 0.999924 
0.0118478 0.0050339 0.999917 
0.0118448 0.00705983 0.999905 
0.0118394 0.00949925 0.999885 
0.0118473 0.0125236 0.999851 
0.0118807 0.0162988 0.999797 
0.0119692 0.0211104 0.999706 
0.0121135 0.0271223 0.999559 
0.0124271 0.0349165 0.999313 
0.0129227 0.0447348 0.998915 
0.0137412 0.0574307 0.998255 
0.0150512 0.0737209 0.997165 
0.0169922 0.0944886 0.995381 
0.0200396 0.1215 0.992389 
0.0248431 0.156765 0.987323 
0.0315422 0.201812 0.978916 
0.0412009 0.26028 0.964654 
0.055729 0.337212 0.939778 
0.0753337 0.435912 0.896831 
0.101061 0.55475 0.825856 
0.128963 0.689667 0.71255 
0.147053 0.82717 0.542369 
0.161261 0.926031 0.341265 
0.0122319 0.999605 0.0252936 
-0.146918 0.9389 -0.311259 
-0.142049 0.848042 -0.510536 
-0.13168 0.703953 -0.697933 
-0.104363 0.574715 -0.811672 
-0.0793157 0.451942 -0.888514 
-0.0593893 0.355983 -0.932603 
-0.0439986 0.279522 -0.959131 
-0.0345634 0.21712 -0.975533 
-0.0260165 0.169681 -0.985156 
-0.0212473 0.132436 -0.990964 
-0.0179375 0.103105 -0.994509 
-0.0155253 0.0805454 -0.99663 
-0.014078 0.0628699 -0.997922 
-0.0131416 0.0491174 -0.998707 
-0.0125353 0.0383539 -0.999186 
-0.0121957 0.0299879 -0.999476 
-0.0119709 0.0233317 -0.999656 
-0.0118932 0.0181644 -0.999764 
-0.0118407 0.0140161 -0.999832 
-0.0118319 0.0107098 -0.999873 
-0.0118316 0.00804683 -0.999898 
-0.0118855 0.0058902 -0.999912 
-0.011896 0.00407015 -0.999921 
-0.0119062 0.00248758 -0.999926 
-0.0119062 0.00109892 -0.999929 
-0.0118961 -0.000223443 -0.999929 
-0.0118605 -0.00147191 -0.999929 
-0.0118086 -0.00273031 -0.999927 
-0.0117282 -0.00401205 -0.999923 
-0.0116271 -0.00527096 -0.999919 
-0.0115128 -0.00660442 -0.999912 
-0.0113267 -0.008006 -0.999904 
-0.0110899 -0.00951639 -0.999893 
-0.0107825 -0.0110228 -0.999881 
-0.0104038 -0.0124318 -0.999869 
-0.00983768 -0.0134982 -0.999861 
-0.00904346 -0.0142702 -0.999857 
-0.00785743 -0.0136247 -0.999876 
-0.00556552 -0.0103737 -0.999931 
4.00772e-05 -9.87756e-05 -1 
0.00369915 -0.00847158 0.999957 
0.00673836 -0.0120183 0.999905 
0.00808561 -0.0140346 0.999869 
0.00896248 -0.0136224 0.999867 
0.00952244 -0.0127431 0.999873 
0.0101054 -0.011666 0.999881 
0.010512 -0.0101589 0.999893 
0.0105876 -0.00870789 0.999906 
0.0108123 -0.00725737 0.999915 
0.0109662 -0.00589321 0.999923 
0.0110832 -0.00459415 0.999928 
0.0112183 -0.00332615 0.999932 
0.0113077 -0.00208426 0.999934 
0.0113856 -0.000829879 0.999935 
0.0114389 0.000460638 0.999934 
0.0114758 0.00182012 0.999932 
0.0114948 0.00329091 0.999929 
0.0115046 0.00496846 0.999921 
0.0115048 0.00697106 0.99991 
0.0115302 0.00939384 0.999889 
0.0115767 0.0123466 0.999857 
0.0116768 0.0160377 0.999803 
0.0118424 0.0206674 0.999716 
0.0121655 0.0266524 0.999571 
0.012631 0.0341514 0.999337 
0.0134399 0.0438035 0.99895 
0.0146779 0.0560807 0.998318 
0.0165656 0.0714548 0.997306 
0.0193517 0.0915501 0.995612 
0.0236696 0.118035 0.992727 
0.0303101 0.151102 0.988053 
0.0396917 0.194341 0.980131 
0.0536666 0.253479 0.965851 
0.0749833 0.327939 0.941718 
0.104637 0.420467 0.901254 
0.146402 0.527589 0.83679 
0.201449 0.652425 0.730588 
0.281839 0.744396 0.605344 
-0.278682 0.747217 -0.603327 
-0.204658 0.659172 -0.723607 
-0.150545 0.533607 -0.832226 
-0.109179 0.434259 -0.894147 
-0.0789739 0.336396 -0.938403 
-0.0571203 0.265559 -0.962401 
-0.043532 0.207331 -0.977302 
-0.0320169 0.163188 -0.986075 
-0.0253307 0.127218 -0.991551 
-0.0206696 0.0998996 -0.994783 
-0.0173062 0.0781956 -0.996788 
-0.0151998 0.061375 -0.997999 
-0.0137841 0.0480721 -0.998749 
-0.0128514 0.0376792 -0.999207 
-0.0122523 0.0294475 -0.999491 
-0.0119231 0.0230537 -0.999663 
-0.0116948 0.017932 -0.999771 
-0.0115923 0.0138772 -0.999837 
-0.0115282 0.0106322 -0.999877 
-0.0115225 0.00801186 -0.999902 
-0.0114966 0.00583492 -0.999917 
-0.0115179 0.00399645 -0.999926 
-0.0115284 0.00244834 -0.999931 
-0.0115406 0.00100007 -0.999933 
-0.0114908 -0.000306811 -0.999934 
-0.0114806 -0.00158035 -0.999933 
-0.0114183 -0.00286559 -0.999931 
-0.0113 -0.0040795 -0.999928 
-0.0111768 -0.00535532 -0.999923 
-0.0110136 -0.00666608 -0.999917 
-0.0108515 -0.00810914 -0.999908 
-0.0105743 -0.00961333 -0.999898 
-0.0102628 -0.011131 -0.999885 
-0.0098051 -0.0125363 -0.999873 
-0.00926033 -0.0135997 -0.999865 
-0.00837628 -0.0142989 -0.999863 
-0.00735728 -0.0136149 -0.99988 
-0.00536082 -0.0104036 -0.999932 
2.06328e-05 -0.000112489 -1 
-0.00020509 2.88558e-05 1 
0.00497443 -0.0102355 0.999935 
0.00678005 -0.0134649 0.999886 
0.0078926 -0.0140617 0.99987 
0.0085048 -0.0132201 0.999876 
0.00911685 -0.0121015 0.999885 
0.00969684 -0.0107438 0.999895 
0.00972548 -0.00920343 0.99991 
0.00996646 -0.00765961 0.999921 
0.0101521 -0.00626352 0.999929 
0.0102852 -0.0049366 0.999935 
0.0104359 -0.00362957 0.999939 
0.010536 -0.00236577 0.999942 
0.0106304 -0.00109433 0.999943 
0.010702 0.000205531 0.999943 
0.0107443 0.00157703 0.999941 
0.0107465 0.00304666 0.999938 
0.0107909 0.00470089 0.999931 
0.0108213 0.00663001 0.999919 
0.0108673 0.00897481 0.999901 
0.0109479 0.0118267 0.99987 
0.0111012 0.0153397 0.999821 
0.0113584 0.0197343 0.999741 
0.011743 0.0252229 0.999613 
0.0123679 0.0322514 0.999403 
0.0133289 0.0410482 0.999068 
0.0147952 0.052199 0.998527 
0.0169723 0.0660381 0.997673 
0.0201256 0.0835685 0.996299 
0.0247032 0.105881 0.994072 
0.0317222 0.133999 0.990474 
0.0419178 0.170227 0.984513 
0.0562345 0.217999 0.974327 
0.0780989 0.277313 0.9576 
0.109989 0.348219 0.930938 
0.155189 0.427451 0.890619 
0.221344 0.519664 0.825201 
0.322118 0.5695 0.756247 
-0.320373 0.562304 -0.762348 
-0.21742 0.515811 -0.828654 
-0.152397 0.418637 -0.895276 
-0.107104 0.344458 -0.932672 
-0.0748339 0.265793 -0.961121 
-0.055409 0.211319 -0.975845 
-0.0394375 0.164097 -0.985656 
-0.0302573 0.12962 -0.991102 
-0.0237878 0.101497 -0.994551 
-0.0192247 0.0798523 -0.996621 
-0.0162775 0.0626699 -0.997902 
-0.0143041 0.0494204 -0.998676 
-0.0129662 0.0387445 -0.999165 
-0.012107 0.030427 -0.999464 
-0.0115592 0.0238451 -0.999649 
-0.0112199 0.0185779 -0.999764 
-0.0110284 0.0144775 -0.999834 
-0.0108926 0.0111272 -0.999879 
-0.0108278 0.00840131 -0.999906 
-0.0108024 0.00617914 -0.999923 
-0.0108136 0.00432265 -0.999932 
-0.0107881 0.00269177 -0.999938 
-0.0108459 0.00126688 -0.99994 
-0.0107608 -9.42981e-05 -0.999942 
-0.010754 -0.00140536 -0.999941 
-0.0107171 -0.00267067 -0.999939 
-0.0105207 -0.00395932 -0.999937 
-0.0104008 -0.00518995 -0.999932 
-0.0102755 -0.00650629 -0.999926 
-0.0101234 -0.0079152 -0.999917 
-0.00984175 -0.00941767 -0.999907 
-0.00952246 -0.0109859 -0.999894 
-0.00914278 -0.0123819 -0.999882 
-0.00857007 -0.0135015 -0.999872 
-0.00771102 -0.014311 -0.999868 
-0.00672712 -0.0136806 -0.999884 
-0.00499733 -0.0104662 -0.999933 
1.4485e-05 -0.000108225 -1 
4.26906e-05 -0.00021477 1 
0.00450076 -0.0104153 0.999936 
0.00607007 -0.01354 0.99989 
0.0070454 -0.0141444 0.999875 
0.00756375 -0.0133849 0.999882 
0.00815665 -0.0122907 0.999891 
0.00869968 -0.0107124 0.999905 
0.00873621 -0.00901554 0.999921 
0.00894552 -0.0075219 0.999932 
0.00913023 -0.00612131 0.99994 
0.00929373 -0.00475342 0.999946 
0.00940978 -0.00346685 0.99995 
0.00950919 -0.00218272 0.999952 
0.00960919 -0.000887257 0.999953 
0.00969197 0.000444176 0.999953 
0.00970468 0.00181525 0.999951 
0.00971155 0.00332695 0.999947 
0.00977054 0.00500723 0.99994 
0.00984033 0.00700469 0.999927 
0.00991126 0.0093846 0.999907 
0.0100361 0.0122808 0.999874 
0.0102659 0.0158497 0.999822 
0.0106069 0.020199 0.99974 
0.0111436 0.0257762 0.999606 
0.011927 0.0325927 0.999398 
0.0131243 0.0411636 0.999066 
0.014855 0.0516267 0.998556 
0.0173929 0.0645648 0.997762 
0.0210502 0.0808195 0.996506 
0.0263656 0.10169 0.994467 
0.0343422 0.127557 0.991236 
0.0450181 0.1569 0.986588 
0.0599667 0.196896 0.978589 
0.0818671 0.244231 0.966255 
0.112217 0.293409 0.949378 
0.154539 0.349603 0.924065 
0.218288 0.412653 0.884346 
0.312599 0.4438 0.839835 
-0.308703 0.440028 -0.843254 
-0.212436 0.410009 -0.886997 
-0.143311 0.336364 -0.930764 
-0.100207 0.28079 -0.954524 
-0.0719158 0.219913 -0.972865 
-0.0505667 0.175245 -0.983225 
-0.0376736 0.138864 -0.989595 
-0.0287394 0.110572 -0.993452 
-0.0222477 0.0867698 -0.99598 
-0.0181295 0.0691273 -0.997443 
-0.0152347 0.0546146 -0.998391 
-0.013302 0.0432139 -0.998977 
-0.0119988 0.0341324 -0.999345 
-0.0111453 0.0269443 -0.999575 
-0.0105992 0.0211563 -0.99972 
-0.0102308 0.0165994 -0.99981 
-0.0100323 0.0129672 -0.999866 
-0.00988609 0.00992753 -0.999902 
-0.00979573 0.00746089 -0.999924 
-0.00976918 0.00543251 -0.999938 
-0.00978766 0.00370639 -0.999945 
-0.00976214 0.00214403 -0.99995 
-0.00981201 0.000797666 -0.999952 
-0.00974515 -0.000585672 -0.999952 
-0.00970177 -0.00185851 -0.999951 
-0.00963754 -0.00308956 -0.999949 
-0.0093557 -0.00434261 -0.999947 
-0.00928937 -0.0056094 -0.999941 
-0.00919536 -0.00694517 -0.999934 
-0.00902215 -0.00833248 -0.999925 
-0.00874718 -0.00985302 -0.999913 
-0.00841623 -0.0113739 -0.9999 
-0.00813984 -0.0128109 -0.999885 
-0.0075774 -0.0138266 -0.999876 
-0.00672804 -0.0144298 -0.999873 
-0.00597835 -0.0136564 -0.999889 
-0.00441367 -0.0104053 -0.999936 
1.51884e-05 -0.000109048 -1 
-2.59072e-05 -6.62647e-05 1 
0.00393363 -0.0104799 0.999937 
0.00524077 -0.0136261 0.999893 
0.00607944 -0.0142115 0.999881 
0.00646085 -0.0134376 0.999889 
0.00699676 -0.0123325 0.999899 
0.007602 -0.0109032 0.999912 
0.0074979 -0.00941846 0.999928 
0.00766855 -0.00788257 0.99994 
0.00784286 -0.00645883 0.999948 
0.00804271 -0.00511229 0.999955 
0.00812141 -0.00379594 0.99996 
0.00822028 -0.0025171 0.999963 
0.00832018 -0.00122545 0.999965 
0.00841788 8.50805e-05 0.999965 
0.00842287 0.00142935 0.999964 
0.00845069 0.0028698 0.99996 
0.00848214 0.00450142 0.999954 
0.00858914 0.00634305 0.999943 
0.00867092 0.00854634 0.999926 
0.00879924 0.0112036 0.999899 
0.00903232 0.01447 0.999855 
0.00935817 0.0184392 0.999786 
0.00992105 0.0233398 0.999678 
0.0106693 0.029481 0.999508 
0.011828 0.0370225 0.999244 
0.013477 0.0462361 0.99884 
0.0158622 0.0574517 0.998222 
0.0193995 0.0716088 0.997244 
0.0244415 0.089191 0.995715 
0.0315454 0.110523 0.993373 
0.0416569 0.135128 0.989952 
0.0564663 0.169044 0.98399 
0.0767636 0.20658 0.975414 
0.103891 0.243898 0.96422 
0.14238 0.285129 0.947855 
0.198768 0.330347 0.922693 
0.276694 0.348156 0.895672 
-0.274501 0.348695 -0.896137 
-0.189385 0.328108 -0.925461 
-0.135379 0.277736 -0.951071 
-0.10055 0.245452 -0.96418 
-0.0742372 0.197788 -0.97743 
-0.0558825 0.170118 -0.983838 
-0.0409096 0.135632 -0.989914 
-0.030684 0.108831 -0.993587 
-0.0236181 0.0875834 -0.995877 
-0.0185677 0.0694206 -0.997415 
-0.0153146 0.0558735 -0.99832 
-0.0129603 0.0443498 -0.998932 
-0.0114076 0.0353691 -0.999309 
-0.0103435 0.0280766 -0.999552 
-0.00966522 0.0222284 -0.999706 
-0.00917567 0.0175364 -0.999804 
-0.00887525 0.013746 -0.999866 
-0.00873092 0.0106908 -0.999905 
-0.00858861 0.00809781 -0.99993 
-0.00850624 0.00595391 -0.999946 
-0.00850587 0.00415893 -0.999955 
-0.00853388 0.00259364 -0.99996 
-0.00848382 0.00113059 -0.999963 
-0.00858212 -0.000170278 -0.999963 
-0.00844103 -0.00154571 -0.999963 
-0.00835068 -0.00282251 -0.999961 
-0.0081434 -0.00403574 -0.999959 
-0.00802343 -0.0053693 -0.999953 
-0.00797645 -0.00669695 -0.999946 
-0.00779899 -0.00809595 -0.999937 
-0.00760048 -0.00956924 -0.999925 
-0.00725675 -0.0111255 -0.999912 
-0.00715765 -0.0126349 -0.999895 
-0.00658487 -0.0136973 -0.999885 
-0.00585247 -0.0144559 -0.999878 
-0.00508549 -0.0136525 -0.999894 
-0.0037913 -0.010449 -0.999938 
1.55649e-05 -0.000108557 -1 
-1.25919e-05 -0.000115685 1 
0.00326163 -0.0104881 0.99994 
0.0042948 -0.0135917 0.999898 
0.00501411 -0.0143012 0.999885 
0.00534273 -0.0135675 0.999894 
0.0057796 -0.0124076 0.999906 