# vtk DataFile Version 3.0 
Exported using Morpho https://github.com/Morpho-lang/morpho 
ASCII 
DATASET UNSTRUCTURED_GRID 

POINTS 2168 float 
-8.32618 -2.88146 0 
-8.11405 -2.88146 0 
-7.90192 -2.88146 0 
-7.68979 -2.88146 0 
-7.47765 -2.88146 0 
-7.26552 -2.88146 0 
-7.05339 -2.88146 0 
-6.84126 -2.88146 0 
-6.62913 -2.88146 0 
-6.41699 -2.88146 0 
-6.20486 -2.88146 0 
-5.99273 -2.88146 0 
-5.7806 -2.88146 0 
-5.56847 -2.88146 0 
-5.35633 -2.88146 0 
-5.1442 -2.88146 0 
-4.93207 -2.88146 0 
-4.71994 -2.88146 0 
-4.50781 -2.88146 0 
-4.29567 -2.88146 0 
-4.08354 -2.88146 0 
-3.87141 -2.88146 0 
-3.65928 -2.88146 0 
-3.44715 -2.88146 0 
-3.23501 -2.88146 0 
-3.02288 -2.88146 0 
-2.81075 -2.88146 0 
-2.59862 -2.88146 0 
-2.38649 -2.88146 0 
-2.17435 -2.88146 0 
-1.96222 -2.88146 0 
-1.75009 -2.88146 0 
-1.53796 -2.88146 0 
-1.32583 -2.88146 0 
-1.11369 -2.88146 0 
-0.901561 -2.88146 0 
-0.689429 -2.88146 0 
-0.477297 -2.88146 0 
-0.265165 -2.88146 0 
-0.053033 -2.88146 0 
0.159099 -2.88146 0 
0.371231 -2.88146 0 
0.583363 -2.88146 0 
0.795495 -2.88146 0 
1.00763 -2.88146 0 
1.21976 -2.88146 0 
1.43189 -2.88146 0 
1.64402 -2.88146 0 
1.85616 -2.88146 0 
2.06829 -2.88146 0 
2.28042 -2.88146 0 
2.49255 -2.88146 0 
2.70468 -2.88146 0 
2.91682 -2.88146 0 
3.12895 -2.88146 0 
3.34108 -2.88146 0 
3.55321 -2.88146 0 
3.76534 -2.88146 0 
3.97748 -2.88146 0 
4.18961 -2.88146 0 
4.40174 -2.88146 0 
4.61387 -2.88146 0 
4.826 -2.88146 0 
5.03814 -2.88146 0 
5.25027 -2.88146 0 
5.4624 -2.88146 0 
5.67453 -2.88146 0 
5.88666 -2.88146 0 
6.0988 -2.88146 0 
6.31093 -2.88146 0 
6.52306 -2.88146 0 
6.73519 -2.88146 0 
6.94732 -2.88146 0 
7.15946 -2.88146 0 
7.37159 -2.88146 0 
7.58372 -2.88146 0 
7.79585 -2.88146 0 
8.00798 -2.88146 0 
8.22012 -2.88146 0 
8.53831 -2.88146 0 
-8.53831 -2.71989 0 
-8.30752 -2.65648 0 
-8.08119 -2.65984 0 
-7.85324 -2.66311 0 
-7.62984 -2.66316 0 
-7.40609 -2.66853 0 
-7.17633 -2.66908 0 
-6.95296 -2.67164 0 
-6.72835 -2.67226 0 
-6.50523 -2.67073 0 
-6.28403 -2.67012 0 
-6.06534 -2.6693 0 
-5.84712 -2.66986 0 
-5.62887 -2.67065 0 
-5.41107 -2.67089 0 
-5.19408 -2.67078 0 
-4.97762 -2.67023 0 
-4.76217 -2.67087 0 
-4.54621 -2.67161 0 
-4.32964 -2.67127 0 
-4.1139 -2.67115 0 
-3.89775 -2.67104 0 
-3.6819 -2.67318 0 
-3.46347 -2.6719 0 
-3.24676 -2.67174 0 
-3.02941 -2.6693 0 
-2.81321 -2.6678 0 
-2.59512 -2.66909 0 
-2.37635 -2.66983 0 
-2.15526 -2.67045 0 
-1.93599 -2.66832 0 
-1.71316 -2.66821 0 
-1.49066 -2.66714 0 
-1.26168 -2.66993 0 
-1.03837 -2.6584 0 
-0.817389 -2.65585 0 
-0.591482 -2.65685 0 
-0.374977 -2.6499 0 
-0.188908 -2.45557 0 
-0.146069 -2.66742 0 
0.0835836 -2.66205 0 
0.311965 -2.6512 0 
0.534302 -2.63995 0 
0.755277 -2.65243 0 
0.98017 -2.65681 0 
1.20396 -2.65762 0 
1.42178 -2.66483 0 
1.64404 -2.66282 0 
1.86695 -2.67208 0 
2.08451 -2.67168 0 
2.29917 -2.67057 0 
2.51314 -2.67038 0 
2.72794 -2.67169 0 
2.94147 -2.67086 0 
3.15398 -2.66978 0 
3.36644 -2.67004 0 
3.57826 -2.66916 0 
3.79064 -2.67009 0 
4.00113 -2.66828 0 
4.21298 -2.66953 0 
4.42394 -2.66907 0 
4.63624 -2.67058 0 
4.84858 -2.67051 0 
5.05761 -2.66735 0 
5.26859 -2.66904 0 
5.47929 -2.66958 0 
5.69383 -2.67399 0 
5.90324 -2.67051 0 
6.11882 -2.67503 0 
6.32689 -2.66838 0 
6.54278 -2.67437 0 
6.75443 -2.67048 0 
6.96652 -2.66815 0 
7.18086 -2.66728 0 
7.39634 -2.66524 0 
7.61264 -2.66059 0 
7.82516 -2.65508 0 
8.03863 -2.64718 0 
8.29466 -2.70968 0 
8.53831 -2.66933 0 
-8.42859 -2.4704 0 
-8.18469 -2.44027 0 
-7.95722 -2.4488 0 
-7.7328 -2.4455 0 
-7.51149 -2.4505 0 
-7.28736 -2.46641 0 
-7.05764 -2.45835 0 
-6.83884 -2.46497 0 
-6.61842 -2.46371 0 
-6.39845 -2.46103 0 
-6.18325 -2.4575 0 
-5.96971 -2.45762 0 
-5.7559 -2.45963 0 
-5.54312 -2.46025 0 
-5.33167 -2.45974 0 
-5.1214 -2.45913 0 
-4.91172 -2.45801 0 
-4.70215 -2.45984 0 
-4.49184 -2.46135 0 
-4.28258 -2.45967 0 
-4.07271 -2.4602 0 
-3.86224 -2.46022 0 
-3.65041 -2.46502 0 
-3.44031 -2.46095 0 
-3.23165 -2.46027 0 
-3.02756 -2.44814 0 
-2.82357 -2.45459 0 
-2.61492 -2.4581 0 
-2.40096 -2.45833 0 
-2.18725 -2.46155 0 
-1.96989 -2.4558 0 
-1.75322 -2.45917 0 
-1.53046 -2.45501 0 
-1.30641 -2.46473 0 
-1.07953 -2.44498 0 
-0.85288 -2.43335 0 
-0.631132 -2.44107 0 
-0.407983 -2.41707 0 
-0.195823 -2.23841 0 
0.0381044 -2.45167 0 
0.0182613 -2.23934 0 
0.267701 -2.43723 0 
0.498387 -2.41091 0 
0.729852 -2.42156 0 
0.95344 -2.43496 0 
1.18011 -2.43912 0 
1.40606 -2.44274 0 
1.62097 -2.45315 0 
1.8462 -2.4638 0 
2.06534 -2.46205 0 
2.28007 -2.45862 0 
2.49263 -2.45928 0 
2.70508 -2.46166 0 
2.91856 -2.4611 0 
3.13134 -2.45792 0 
3.34379 -2.45843 0 
3.55468 -2.45636 0 
3.76644 -2.4583 0 
3.97677 -2.45391 0 
4.18682 -2.457 0 
4.39705 -2.45564 0 
4.6075 -2.45929 0 
4.81897 -2.45991 0 
5.03046 -2.45223 0 
5.23974 -2.45568 0 
5.44937 -2.45684 0 
5.66099 -2.46711 0 
5.87364 -2.45864 0 
6.0855 -2.47049 0 
6.29958 -2.45481 0 
6.51186 -2.46861 0 
6.72701 -2.45984 0 
6.94043 -2.45557 0 
7.15536 -2.455 0 
7.37312 -2.45203 0 
7.59286 -2.44549 0 
7.81638 -2.42739 0 
8.05625 -2.44178 0 
8.2947 -2.50109 0 
8.53831 -2.4572 0 
-8.53831 -2.26633 0 
-8.29784 -2.25235 0 
-8.04291 -2.23415 0 
-7.81168 -2.23306 0 
-7.57897 -2.23253 0 
-7.3486 -2.25251 0 
-7.12275 -2.26044 0 
-6.88082 -2.24955 0 
-6.66323 -2.25462 0 
-6.4394 -2.25407 0 
-6.21549 -2.24559 0 
-5.99669 -2.24479 0 
-5.77983 -2.24836 0 
-5.56254 -2.24926 0 
-5.34726 -2.2472 0 
-5.13368 -2.24582 0 
-4.92204 -2.24433 0 
-4.71062 -2.24631 0 
-4.49992 -2.24899 0 
-4.28867 -2.24584 0 
-4.07903 -2.24703 0 
-3.86879 -2.24776 0 
-3.65737 -2.25333 0 
-3.44693 -2.24722 0 
-3.23795 -2.24334 0 
-3.02769 -2.23499 0 
-2.81738 -2.23641 0 
-2.60432 -2.24652 0 
-2.39207 -2.24466 0 
-2.17593 -2.25044 0 
-1.95831 -2.24248 0 
-1.73434 -2.25094 0 
-1.51727 -2.23383 0 
-1.30599 -2.25589 0 
-1.09238 -2.22374 0 
-0.871265 -2.22299 0 
-0.636262 -2.2238 0 
-0.414546 -2.19218 0 
-0.234947 -2.01816 0 
-0.0467291 -2.01197 0 
0.142842 -2.01378 0 
0.243358 -2.2264 0 
0.459712 -2.18755 0 
0.699789 -2.20533 0 
0.943807 -2.20941 0 
1.16928 -2.22043 0 
1.3975 -2.22844 0 
1.62472 -2.23083 0 
1.83511 -2.25728 0 
2.05918 -2.2504 0 
2.27345 -2.24592 0 
2.48503 -2.2448 0 
2.69533 -2.24956 0 
2.90635 -2.24972 0 
3.11868 -2.24818 0 
3.33256 -2.2469 0 
3.54584 -2.24365 0 
3.75755 -2.24626 0 
3.97006 -2.24038 0 
4.18109 -2.24315 0 
4.39194 -2.24223 0 
4.60274 -2.24632 0 
4.81366 -2.24826 0 
5.02774 -2.24174 0 
5.24103 -2.24164 0 
5.45417 -2.24661 0 
5.66694 -2.25798 0 
5.87995 -2.24868 0 
6.0915 -2.26284 0 
6.30166 -2.24141 0 
6.51112 -2.26068 0 
6.72139 -2.24755 0 
6.93354 -2.24363 0 
7.14836 -2.24226 0 
7.36517 -2.23953 0 
7.58969 -2.23369 0 
7.82451 -2.22122 0 
8.06182 -2.23468 0 
8.29958 -2.28538 0 
8.53831 -2.24506 0 
-8.42617 -2.04783 0 
-8.19121 -2.04488 0 
-7.96017 -2.01823 0 
-7.736 -2.01994 0 
-7.50662 -2.02578 0 
-7.29361 -2.03838 0 
-7.06724 -2.06069 0 
-6.85823 -2.02722 0 
-6.64566 -2.04149 0 
-6.4362 -2.03377 0 
-6.22698 -2.03614 0 
-6.01142 -2.03124 0 
-5.79909 -2.03503 0 
-5.58849 -2.03825 0 
-5.37708 -2.03551 0 
-5.16535 -2.03313 0 
-4.95512 -2.03045 0 
-4.74552 -2.03265 0 
-4.53574 -2.03497 0 
-4.32736 -2.03375 0 
-4.11659 -2.03267 0 
-3.90759 -2.03455 0 
-3.696 -2.04123 0 
-3.48568 -2.03518 0 
-3.27487 -2.0299 0 
-3.06541 -2.02429 0 
-2.85155 -2.02313 0 
-2.63716 -2.0341 0 
-2.42292 -2.03147 0 
-2.20598 -2.03906 0 
-1.98709 -2.03352 0 
-1.75903 -2.04413 0 
-1.53185 -2.02107 0 
-1.3 -2.03146 0 
-1.06625 -2.00828 0 
-0.817294 -2.02378 0 
-0.573763 -2.01589 0 
-0.366606 -1.91194 0 
-0.160349 -1.73814 0 
-0.0409358 -1.77947 0 
0.111948 -1.75523 0 
0.327987 -1.97352 0 
0.566852 -1.98219 0 
0.803355 -1.99811 0 
1.0306 -1.98726 0 
1.25028 -2.00501 0 
1.47128 -2.01574 0 
1.6835 -2.01085 0 
1.89148 -2.04725 0 
2.09912 -2.03165 0 
2.30511 -2.0285 0 
2.50935 -2.02736 0 
2.71547 -2.03434 0 
2.92148 -2.0352 0 
3.13182 -2.03722 0 
3.34177 -2.03461 0 
3.55244 -2.0302 0 
3.76275 -2.0335 0 
3.97259 -2.02542 0 
4.18289 -2.02978 0 
4.39404 -2.02907 0 
4.60573 -2.03331 0 
4.82027 -2.03871 0 
5.03421 -2.03084 0 
5.2485 -2.0317 0 
5.46166 -2.03583 0 
5.67331 -2.0491 0 
5.88333 -2.03514 0 
6.09164 -2.05257 0 
6.29882 -2.02585 0 
6.50755 -2.04853 0 
6.71764 -2.03453 0 
6.92882 -2.03089 0 
7.14384 -2.02887 0 
7.36933 -2.03149 0 
7.59966 -2.02791 0 
7.83115 -2.01182 0 
8.06617 -2.02587 0 
8.30177 -2.06886 0 
8.53831 -2.03293 0 
-8.53831 -1.82847 0 
-8.30171 -1.83768 0 
-8.06635 -1.81946 0 
-7.82358 -1.80583 0 
-7.58353 -1.81909 0 
-7.34531 -1.81209 0 
-7.1213 -1.8527 0 
-6.8991 -1.81069 0 
-6.67554 -1.82093 0 
-6.46054 -1.81935 0 
-6.24044 -1.82075 0 
-6.02115 -1.81975 0 
-5.80161 -1.82137 0 
-5.58529 -1.82384 0 
-5.36957 -1.82332 0 
-5.15617 -1.81968 0 
-4.94245 -1.81735 0 
-4.72888 -1.82041 0 
-4.51774 -1.82072 0 
-4.30365 -1.82224 0 
-4.09104 -1.81936 0 
-3.87506 -1.82525 0 
-3.66314 -1.82826 0 
-3.44824 -1.82246 0 
-3.23522 -1.8155 0 
-3.0185 -1.81475 0 
-2.79828 -1.81622 0 
-2.58412 -1.82195 0 
-2.36295 -1.82305 0 
-2.14487 -1.82683 0 
-1.91115 -1.8339 0 
-1.69038 -1.82798 0 
-1.44335 -1.82049 0 
-1.21311 -1.81749 0 
-0.94662 -1.82352 0 
-0.701794 -1.82406 0 
-0.480522 -1.77691 0 
-0.259133 -1.64041 0 
0.234022 -1.65702 0 
0.428239 -1.77567 0 
0.689924 -1.78673 0 
0.92993 -1.77717 0 
1.1753 -1.77996 0 
1.40584 -1.80014 0 
1.63189 -1.7932 0 
1.85863 -1.82228 0 
2.06822 -1.81569 0 
2.28173 -1.80958 0 
2.49303 -1.80943 0 
2.70181 -1.81643 0 
2.91264 -1.81887 0 
3.12067 -1.82411 0 
3.33146 -1.82208 0 
3.54442 -1.81754 0 
3.75812 -1.81905 0 
3.97148 -1.81267 0 
4.18318 -1.81588 0 
4.3928 -1.81378 0 
4.60236 -1.82074 0 
4.81445 -1.8289 0 
5.02949 -1.82146 0 
5.24466 -1.82218 0 
5.45927 -1.82584 0 
5.67351 -1.83786 0 
5.88112 -1.81964 0 
6.08861 -1.83875 0 
6.29664 -1.81021 0 
6.50489 -1.83559 0 
6.71367 -1.82043 0 
6.92724 -1.818 0 
7.14742 -1.81898 0 
7.36971 -1.82514 0 
7.59596 -1.8184 0 
7.82927 -1.80331 0 
8.06609 -1.81547 0 
8.30159 -1.85095 0 
8.53831 -1.8208 0 
-8.53831 -1.61344 0 
-8.30432 -1.62454 0 
-8.06736 -1.6104 0 
-7.82638 -1.59821 0 
-7.58776 -1.61365 0 
[...]
POINT_DATA 2168 
VECTORS vectors float
-6.33286e-05 -0.000857272 1 
4.11238e-05 -0.0116717 0.999932 
-9.0482e-05 -0.0143625 0.999897 
-3.54487e-05 -0.014462 0.999895 
-5.10889e-05 -0.0134111 0.99991 
-4.66099e-05 -0.0118917 0.999929 
-4.76077e-05 -0.0103451 0.999946 
-4.75378e-05 -0.00883639 0.999961 
-4.77373e-05 -0.00733398 0.999973 
-4.77955e-05 -0.00583533 0.999983 
-4.78029e-05 -0.00437002 0.99999 
-4.79011e-05 -0.00295333 0.999996 
-4.79157e-05 -0.00158391 0.999999 
-4.79382e-05 -0.000236968 1 
-4.79069e-05 0.00113922 0.999999 
-4.77902e-05 0.00261401 0.999997 
-4.76576e-05 0.00427098 0.999991 
-4.73543e-05 0.0062062 0.999981 
-4.70115e-05 0.00853429 0.999964 
-4.6562e-05 0.0113989 0.999935 
-4.58496e-05 0.0149757 0.999888 
-4.51669e-05 0.0194894 0.99981 
-4.37635e-05 0.0252215 0.999682 
-4.30833e-05 0.0325487 0.99947 
-3.98437e-05 0.0419434 0.99912 
-3.93974e-05 0.0540541 0.998538 
-3.55587e-05 0.0698548 0.997557 
-3.127e-05 0.0896986 0.995969 
-2.77842e-05 0.11544 0.993314 
-2.1073e-05 0.148606 0.988896 
-1.39258e-05 0.191177 0.981556 
-4.71199e-06 0.245465 0.969405 
5.63052e-06 0.31406 0.949403 
1.73017e-05 0.399207 0.916861 
2.7552e-05 0.501754 0.865011 
3.59909e-05 0.619583 0.784931 
3.5509e-05 0.745326 0.6667 
3.27597e-05 0.864127 0.503274 
1.5673e-05 0.955439 0.295188 
5.14933e-06 0.998421 0.0561783 
-1.2626e-05 0.981833 -0.189746 
-2.48213e-05 0.909768 -0.415117 
-3.63006e-05 0.800057 -0.599924 
-3.52085e-05 0.674842 -0.737962 
-3.34216e-05 0.552068 -0.833799 
-1.93276e-05 0.442402 -0.896817 
-1.31998e-05 0.349878 -0.936795 
4.72369e-07 0.275123 -0.961409 
1.23764e-05 0.214085 -0.976815 
1.58397e-05 0.166436 -0.986052 
2.55355e-05 0.129301 -0.991605 
2.98273e-05 0.100401 -0.994947 
3.41375e-05 0.0779501 -0.996957 
3.72971e-05 0.0605309 -0.998166 
3.99713e-05 0.0470084 -0.998894 
4.17607e-05 0.0364959 -0.999334 
4.35446e-05 0.0283061 -0.999599 
4.44501e-05 0.0219031 -0.99976 
4.5708e-05 0.0168762 -0.999858 
4.6143e-05 0.0129023 -0.999917 
4.68824e-05 0.00973597 -0.999953 
4.73018e-05 0.00717945 -0.999974 
4.73469e-05 0.00508188 -0.999987 
4.80551e-05 0.00330744 -0.999995 
4.76138e-05 0.00175627 -0.999998 
4.84463e-05 0.000340891 -1 
4.74277e-05 -0.00100764 -0.999999 
4.87315e-05 -0.00235993 -0.999997 
4.72654e-05 -0.00375409 -0.999993 
4.85762e-05 -0.0052123 -0.999986 
4.7434e-05 -0.00672789 -0.999977 
4.78608e-05 -0.00827337 -0.999966 
4.75158e-05 -0.00984459 -0.999952 
4.78443e-05 -0.0114503 -0.999934 
4.53588e-05 -0.0131131 -0.999914 
5.37896e-05 -0.0147314 -0.999891 
3.25543e-05 -0.0157469 -0.999876 
6.61927e-05 -0.0156851 -0.999877 
5.14002e-05 -0.0136727 -0.999907 
7.80472e-06 -0.00128219 -0.999999 
-1.94436e-05 0.000186153 1 
0.00527691 -0.00854692 0.99995 
0.00711374 -0.013034 0.99989 
0.00770712 -0.0141238 0.999871 
0.00809588 -0.0138492 0.999871 
0.00821456 -0.0126928 0.999886 
0.00840219 -0.0111237 0.999903 
0.00849706 -0.00950836 0.999919 
0.00858462 -0.0079182 0.999932 
0.00869723 -0.00637102 0.999942 
0.00878093 -0.00486512 0.99995 
0.00886399 -0.0034172 0.999955 
0.00890339 -0.00200983 0.999958 
0.00892572 -0.000619586 0.99996 
0.00894498 0.000792064 0.99996 
0.00895342 0.00228661 0.999957 
0.00895613 0.00394751 0.999952 
0.00891385 0.00586696 0.999943 
0.00884801 0.00817549 0.999927 
0.00878927 0.0110231 0.999901 
0.00871208 0.0145694 0.999856 
0.0086167 0.0190619 0.999781 
0.00845452 0.0247775 0.999657 
0.00834827 0.0322095 0.999446 
0.00821529 0.0417045 0.999096 
0.00809804 0.0539345 0.998512 
0.00804117 0.0697979 0.997529 
0.00797501 0.0905271 0.995862 
0.00798746 0.117384 0.993054 
0.00813978 0.152556 0.988261 
0.00859002 0.197641 0.980237 
0.00926837 0.256499 0.9665 
0.0103782 0.331282 0.943475 
0.0116235 0.427484 0.903948 
0.0140572 0.53992 0.841599 
0.0155135 0.666378 0.745453 
0.0150239 0.799525 0.600444 
0.0123162 0.911246 0.411679 
0.0162248 0.975528 0.219278 
0.00503139 0.986253 0.165166 
-0.00326932 0.99451 -0.104587 
-0.0111336 0.933181 -0.359235 
-0.0162344 0.824556 -0.565547 
-0.0159696 0.695924 -0.717938 
-0.0145395 0.56526 -0.824785 
-0.0127916 0.448728 -0.893577 
-0.0108193 0.353317 -0.935441 
-0.00972362 0.273952 -0.961694 
-0.00861905 0.211485 -0.977343 
-0.00821371 0.163665 -0.986482 
-0.00803955 0.126922 -0.99188 
-0.0079862 0.0984491 -0.99511 
-0.00799587 0.0762704 -0.997055 
-0.00811144 0.0591823 -0.998214 
-0.00825035 0.0459809 -0.998908 
-0.00837113 0.0357093 -0.999327 
-0.0085122 0.0277224 -0.999579 
-0.00861324 0.0214496 -0.999733 
-0.00875411 0.0165612 -0.999825 
-0.00882227 0.0126616 -0.999881 
-0.00890951 0.00955851 -0.999915 
-0.00894482 0.00703073 -0.999935 
-0.00900594 0.00494604 -0.999947 
-0.00909897 0.00320362 -0.999953 
-0.00908097 0.00166024 -0.999957 
-0.0090719 0.000248315 -0.999959 
-0.00899014 -0.00112675 -0.999959 
-0.00903932 -0.00246427 -0.999956 
-0.00891832 -0.0038741 -0.999953 
-0.00899269 -0.00527897 -0.999946 
-0.00879783 -0.00679238 -0.999938 
-0.00878482 -0.00830825 -0.999927 
-0.00870143 -0.00987254 -0.999913 
-0.00853517 -0.0115002 -0.999897 
-0.00833139 -0.0131113 -0.999879 
-0.00811595 -0.0144669 -0.999862 
-0.00774386 -0.0152477 -0.999854 
-0.00695164 -0.0149351 -0.999864 
-0.00441065 -0.0114807 -0.999924 
0.000174187 0.000173124 -1 
0.00440687 -0.00707421 0.999965 
0.00807701 -0.0127948 0.999886 
0.00948325 -0.0141153 0.999855 
0.010226 -0.0140737 0.999849 
0.0107242 -0.0132457 0.999855 
0.011018 -0.0118806 0.999869 
0.0113075 -0.0102253 0.999884 
0.0114576 -0.00863146 0.999897 
0.0115979 -0.00710149 0.999908 
0.0117239 -0.00561264 0.999916 
0.0118483 -0.00419412 0.999921 
0.0119389 -0.00281545 0.999925 
0.0120041 -0.00144768 0.999927 
0.012055 -7.65405e-05 0.999927 
0.0120831 0.00133656 0.999926 
0.0120873 0.0028525 0.999923 
0.0120748 0.00455278 0.999917 
0.0120266 0.0065342 0.999906 
0.0119614 0.00892081 0.999889 
0.0118976 0.0118324 0.999859 
0.0118064 0.0154598 0.999811 
0.0117163 0.0200303 0.999731 
0.0115926 0.0258556 0.999598 
0.0115546 0.03322 0.999381 
0.0115332 0.0425801 0.999026 
0.0116582 0.0541044 0.998467 
0.0117513 0.0688752 0.997556 
0.0120206 0.0879709 0.996051 
0.0126072 0.11318 0.993494 
0.0135319 0.145534 0.989261 
0.0152201 0.187689 0.982111 
0.0174186 0.241479 0.97025 
0.0208626 0.311448 0.950034 
0.0245864 0.401132 0.91569 
0.0309433 0.508556 0.860473 
0.0365817 0.634897 0.77173 
0.0367886 0.768179 0.639177 
0.0336052 0.889869 0.454976 
0.0325395 0.970647 0.238299 
-0.00413481 0.998583 -0.0530557 
-0.00472097 0.999492 -0.0315163 
-0.0242576 0.946773 -0.320987 
-0.0383465 0.83541 -0.548288 
-0.0390946 0.700171 -0.712904 
-0.0343219 0.570304 -0.820717 
-0.0288403 0.45217 -0.891465 
-0.0236701 0.353446 -0.935156 
-0.0193235 0.277502 -0.960531 
-0.0160771 0.214155 -0.976667 
-0.0142361 0.165811 -0.986055 
-0.0130709 0.12884 -0.991579 
-0.0122871 0.100331 -0.994878 
-0.0118117 0.0781219 -0.996874 
-0.0115944 0.0607457 -0.998086 
-0.0115386 0.0472656 -0.998816 
-0.011536 0.0367766 -0.999257 
-0.0116064 0.0286352 -0.999523 
-0.0116719 0.0222147 -0.999685 
-0.0117917 0.0171873 -0.999783 
-0.0118703 0.0132094 -0.999842 
-0.0119665 0.0100128 -0.999878 
-0.0120308 0.00742541 -0.9999 
-0.012096 0.00528286 -0.999913 
-0.0121473 0.00345565 -0.99992 
-0.0121748 0.00188727 -0.999924 
-0.0121563 0.000448127 -0.999926 
-0.0121197 -0.000930128 -0.999926 
-0.0121108 -0.00229174 -0.999924 
-0.0120005 -0.00367123 -0.999921 
-0.0119819 -0.00508174 -0.999915 
-0.0118171 -0.00655076 -0.999909 
-0.0116871 -0.00804921 -0.999899 
-0.0115277 -0.00962458 -0.999887 
-0.0112778 -0.0112757 -0.999873 
-0.0109398 -0.0129096 -0.999857 
-0.0104261 -0.0141745 -0.999845 
-0.00973039 -0.0149121 -0.999841 
-0.00858498 -0.0149123 -0.999852 
-0.00609591 -0.0115209 -0.999915 
-0.00021505 -0.000168659 -1 
-0.000146056 -8.74197e-05 1 
0.00669634 -0.0115322 0.999911 
0.00884399 -0.0143344 0.999858 
0.00989439 -0.0143592 0.999848 
0.0106173 -0.0136659 0.99985 
0.0111503 -0.0123673 0.999861 
0.0114978 -0.0107322 0.999876 
0.0117309 -0.00892691 0.999891 
0.0119185 -0.00740211 0.999902 
0.0120545 -0.00588753 0.99991 
0.0122029 -0.00443158 0.999916 
0.0123229 -0.0030272 0.999919 
0.0124247 -0.00163636 0.999921 
0.0124978 -0.000225754 0.999922 
0.0125311 0.00122389 0.999921 
0.0125414 0.0027711 0.999918 
0.0125318 0.00448902 0.999911 
0.0125069 0.00648342 0.999901 
0.0124675 0.00886118 0.999883 
0.0124174 0.0117741 0.999854 
0.0123678 0.0153567 0.999806 
0.0123309 0.0198528 0.999727 
0.0123199 0.0255622 0.999597 
0.0123773 0.0327523 0.999387 
0.0125268 0.0417961 0.999048 
0.0129135 0.0535108 0.998484 
0.0134367 0.068179 0.997583 
0.0143015 0.0875485 0.996058 
0.0157589 0.112047 0.993578 
0.0178396 0.144136 0.989397 
0.0212525 0.185165 0.982478 
0.0256522 0.239955 0.970445 
0.0327715 0.306195 0.951405 
0.0390873 0.388304 0.920702 
0.0508278 0.485167 0.872943 
0.0604057 0.605014 0.79392 
0.0654235 0.746605 0.662042 
0.062908 0.874249 0.481384 
0.0719215 0.947329 0.312083 
0.0150591 0.998239 0.0573824 
-0.0526072 0.976068 -0.211009 
-0.0422807 0.949762 -0.310105 
-0.0672453 0.841778 -0.535618 
-0.0670157 0.698878 -0.712094 
-0.0582464 0.555982 -0.829151 
-0.0468806 0.441418 -0.896076 
-0.0368115 0.344856 -0.937933 
-0.0291308 0.267291 -0.963175 
-0.0229329 0.211242 -0.977165 
-0.0192639 0.162941 -0.986448 
-0.0167347 0.127038 -0.991757 
-0.0149919 0.0993537 -0.994939 
-0.0138055 0.0778456 -0.99687 
-0.0130909 0.0608995 -0.998058 
-0.0126705 0.0475517 -0.998788 
-0.0124386 0.0370407 -0.999236 
-0.0123386 0.0288311 -0.999508 
-0.012311 0.0224293 -0.999673 
-0.0123171 0.0173213 -0.999774 
-0.0124002 0.0133571 -0.999834 
-0.012425 0.0101147 -0.999872 
-0.012516 0.00752603 -0.999893 
-0.0125412 0.00535409 -0.999907 
-0.0125926 0.00350574 -0.999915 
-0.0125816 0.00188021 -0.999919 
-0.0126052 0.000405571 -0.99992 
-0.0125947 -0.000994132 -0.99992 
-0.0125313 -0.00237356 -0.999919 
-0.0124678 -0.00374266 -0.999915 
-0.0123368 -0.00512811 -0.999911 
-0.0122259 -0.00654666 -0.999904 
-0.0120327 -0.00802152 -0.999895 
-0.0117929 -0.00957608 -0.999885 
-0.0114961 -0.0112472 -0.999871 
-0.0110606 -0.0128576 -0.999856 
-0.0104728 -0.0141544 -0.999845 
-0.00959743 -0.0149162 -0.999843 
-0.00845738 -0.0148885 -0.999853 
-0.0065313 -0.0115275 -0.999912 
6.22957e-05 -0.000102019 -1 
0.0044921 -0.00794981 0.999958 
0.00735889 -0.013649 0.99988 
0.00869675 -0.0147452 0.999853 
0.00961514 -0.0144153 0.99985 
0.0102871 -0.0134914 0.999856 
0.0107595 -0.0121198 0.999869 
0.0111688 -0.0103715 0.999884 
0.011293 -0.00880109 0.999897 
0.0115386 -0.00731861 0.999907 
0.0117026 -0.0059296 0.999914 
0.011837 -0.00456045 0.99992 
0.0119484 -0.00317895 0.999924 
0.012069 -0.0018113 0.999926 
0.0121747 -0.00043412 0.999926 
0.0121998 0.000995321 0.999925 
0.0122151 0.00252233 0.999922 
0.0122139 0.00420351 0.999917 
0.0122124 0.00613117 0.999907 
0.0122007 0.00841698 0.99989 
0.0121797 0.0111646 0.999863 
0.0121696 0.0145847 0.99982 
0.0121966 0.0188036 0.999749 
0.0122856 0.0241696 0.999632 
0.0124492 0.0308774 0.999446 
0.0127728 0.0393753 0.999143 
0.0133396 0.0500805 0.998656 
0.0142539 0.0639475 0.997851 
0.0156313 0.0818523 0.996522 
0.0177745 0.104518 0.994364 
0.0208599 0.134024 0.990759 
0.0255596 0.171657 0.984825 
0.0321376 0.22276 0.974343 
0.0424761 0.285611 0.957404 
0.054823 0.369176 0.927741 
0.0732841 0.470977 0.879096 
0.0900428 0.607847 0.788933 
0.103023 0.755782 0.646668 
0.121466 0.865732 0.485544 
0.150696 0.945071 0.290056 
0.0322397 0.997457 0.0635543 
-0.118363 0.966681 -0.226977 
-0.0999073 0.890761 -0.443354 
-0.108983 0.747048 -0.655775 
-0.0935263 0.604983 -0.790726 
-0.0768144 0.480027 -0.873884 
-0.0589733 0.382551 -0.92205 
-0.0451067 0.301394 -0.952432 
-0.0354753 0.237749 -0.970678 
-0.0274831 0.189656 -0.981466 
-0.0227473 0.149396 -0.988516 
-0.0192091 0.118109 -0.992815 
-0.0167254 0.0935587 -0.995473 
-0.0149764 0.0740063 -0.997145 
-0.0138372 0.0584875 -0.998192 
-0.0130936 0.0459756 -0.998857 
-0.0126319 0.0360897 -0.999269 
-0.0123614 0.0282677 -0.999524 
-0.0122455 0.0221275 -0.99968 
-0.0121552 0.0171935 -0.999778 
-0.0121522 0.0132643 -0.999838 
-0.012162 0.0100834 -0.999875 
-0.0121872 0.00747515 -0.999898 
-0.0122615 0.00530562 -0.999911 
-0.0122385 0.00344639 -0.999919 
-0.0122659 0.00181726 -0.999923 
-0.0122943 0.000331503 -0.999924 
-0.0122787 -0.0010747 -0.999924 
-0.0121718 -0.00245017 -0.999923 
-0.0121342 -0.00379945 -0.999919 
-0.0119298 -0.00516349 -0.999916 
-0.0118494 -0.0065608 -0.999908 
-0.0116218 -0.00803826 -0.9999 
-0.011336 -0.00956764 -0.99989 
-0.0109705 -0.011219 -0.999877 
-0.0105832 -0.0130029 -0.999859 
-0.00995287 -0.0142855 -0.999848 
-0.00907362 -0.0149817 -0.999847 
-0.00796274 -0.014893 -0.999857 
-0.00624293 -0.0115007 -0.999914 
2.01578e-05 -0.000117238 -1 
-0.000206347 2.30205e-05 1 
0.00576468 -0.011672 0.999915 
0.00748 -0.0147438 0.999863 
0.00847379 -0.0147816 0.999855 
0.00928094 -0.0140531 0.999858 
0.00971328 -0.0125856 0.999874 
0.0103016 -0.0108733 0.999888 
0.0103313 -0.00916336 0.999905 
0.0106071 -0.0075821 0.999915 
0.0107907 -0.00614449 0.999923 
0.0109547 -0.00471588 0.999929 
0.0110836 -0.00330993 0.999933 
0.0111996 -0.00188814 0.999935 
0.0112795 -0.000458775 0.999936 
0.0113497 0.00101426 0.999935 
0.0113681 0.00256707 0.999932 
0.0113741 0.00428919 0.999926 
0.011397 0.00626808 0.999915 
0.0114036 0.00858225 0.999898 
0.0114273 0.0114228 0.999869 
0.0114584 0.0148892 0.999823 
0.0115849 0.0192835 0.999747 
0.0117848 0.0246867 0.999626 
0.0121035 0.0315603 0.999429 
0.0126477 0.0401465 0.999114 
0.0135636 0.0512396 0.998594 
0.0150059 0.0656175 0.997732 
0.0171031 0.0834716 0.996363 
0.0203033 0.10688 0.994065 
0.0248593 0.136309 0.990354 
0.0318208 0.176807 0.983731 
0.0415308 0.22531 0.973402 
0.0567985 0.294045 0.954102 
0.076252 0.375564 0.923654 
0.104632 0.496775 0.861549 
0.134801 0.631806 0.763315 
0.171779 0.753409 0.634718 
0.249381 0.840217 0.481502 
-0.234902 0.856677 -0.459266 
-0.172832 0.781321 -0.599722 
-0.141326 0.62138 -0.770658 
-0.110087 0.489399 -0.865083 
-0.0811077 0.380816 -0.921087 
-0.0594678 0.300593 -0.951897 
-0.0449102 0.234753 -0.971017 
-0.0335536 0.184896 -0.982185 
-0.026708 0.146351 -0.988872 
-0.0216879 0.115294 -0.993095 
-0.0181629 0.0911373 -0.995673 
-0.0157459 0.0723019 -0.997258 
-0.0141132 0.0571373 -0.998267 
-0.0130676 0.0453328 -0.998886 
-0.0123424 0.0356699 -0.999287 
-0.0118801 0.0279577 -0.999539 
-0.0116105 0.0218288 -0.999694 
-0.0114754 0.0170144 -0.999789 
-0.0113913 0.0131162 -0.999849 
-0.0113897 0.0100442 -0.999885 
-0.011401 0.00748432 -0.999907 
-0.0114363 0.00532592 -0.99992 
-0.0114417 0.00347291 -0.999929 
-0.0114328 0.00182247 -0.999933 
-0.0114338 0.000312086 -0.999935 
-0.0114311 -0.00112538 -0.999934 
-0.0112837 -0.00250245 -0.999933 
-0.0112856 -0.0038525 -0.999929 
-0.0110041 -0.00522194 -0.999926 
-0.0109736 -0.00660064 -0.999918 
-0.0106794 -0.00804486 -0.999911 
-0.0104246 -0.00961477 -0.999899 
-0.0101274 -0.0113612 -0.999884 
-0.00975741 -0.013099 -0.999867 
-0.00917062 -0.0143937 -0.999854 
-0.00832896 -0.0150764 -0.999852 
-0.00731966 -0.0149544 -0.999861 
-0.00576554 -0.0115175 -0.999917 
2.67664e-05 -0.000112557 -1 
5.76994e-05 -0.000208524 1 
0.00508752 -0.0114833 0.999921 
0.00657147 -0.0148233 0.999869 
0.00743833 -0.0149901 0.99986 
0.00812295 -0.0141661 0.999867 
0.00852157 -0.0127386 0.999883 
0.00905553 -0.0108425 0.9999 
0.00905522 -0.00905226 0.999918 
0.00929853 -0.00751659 0.999929 
0.0095311 -0.00602771 0.999936 
0.00970185 -0.00458612 0.999942 
0.00982207 -0.00316489 0.999947 
0.00992914 -0.00173746 0.999949 
0.0100178 -0.00029625 0.99995 
0.0100564 0.00117906 0.999949 
0.0100823 0.00276008 0.999945 
0.0101012 0.00451702 0.999939 
0.0101235 0.00649376 0.999928 
0.0101786 0.00886235 0.999909 
0.0102266 0.0116864 0.999879 
0.0103419 0.0152305 0.999831 
0.0105203 0.0194973 0.999755 
0.0108463 0.0248721 0.999632 
0.0112865 0.0315012 0.99944 
0.0120444 0.0399055 0.999131 
0.0132599 0.0506898 0.998626 
0.0150016 0.0637196 0.997855 
0.0176415 0.0807608 0.996577 
0.0214028 0.101465 0.994609 
0.0270729 0.130158 0.991124 
0.0349103 0.163301 0.985959 
0.0456269 0.203735 0.977962 
0.0601729 0.256897 0.964564 
0.0838836 0.32517 0.941928 
0.112309 0.418208 0.901382 
0.158536 0.532479 0.831464 
0.218732 0.645291 0.731953 
0.329154 0.680753 0.654395 
-0.319844 0.698798 -0.639829 
-0.210439 0.627279 -0.749825 
-0.154557 0.492768 -0.856324 
-0.108597 0.385441 -0.91632 
-0.0759005 0.29798 -0.95155 
-0.0551172 0.234004 -0.970672 
-0.0395078 0.181771 -0.982547 
-0.030112 0.1424 -0.989351 
-0.0235199 0.112277 -0.993399 
-0.0189368 0.0882631 -0.995917 
-0.0158289 0.0696977 -0.997443 
-0.0137646 0.0550929 -0.998386 
-0.0123697 0.0433413 -0.998984 
-0.0114936 0.034182 -0.99935 
-0.0108998 0.0267884 -0.999582 
-0.0105484 0.0209617 -0.999725 
-0.0102959 0.0163456 -0.999813 
-0.0101861 0.0126755 -0.999868 
-0.0101238 0.00967097 -0.999902 
-0.0101552 0.00717422 -0.999923 
-0.0102035 0.00506479 -0.999935 
-0.0101613 0.00321947 -0.999943 
-0.0101505 0.00158722 -0.999947 
-0.0101638 6.30406e-05 -0.999948 
-0.0101341 -0.00132875 -0.999948 
-0.00988256 -0.00267637 -0.999948 
-0.00996632 -0.00397419 -0.999942 
-0.00959343 -0.00529393 -0.99994 
-0.0096577 -0.00663828 -0.999931 
-0.00938334 -0.00810433 -0.999923 
-0.0091248 -0.00963994 -0.999912 
-0.00885514 -0.0113326 -0.999897 
-0.00855255 -0.0131287 -0.999877 
-0.00807549 -0.0144965 -0.999862 
-0.00732827 -0.0151936 -0.999858 
-0.00644702 -0.0150477 -0.999866 
-0.00508193 -0.0115654 -0.99992 
2.68226e-05 -0.000114108 -1 
-3.85975e-05 -8.42665e-05 1 
0.00436562 -0.0116155 0.999923 
0.00561967 -0.0150032 0.999872 
0.00630907 -0.01502 0.999867 
0.00690123 -0.0142268 0.999875 
0.00712239 -0.0128303 0.999892 
0.00771813 -0.0111049 0.999909 
0.0076063 -0.0095129 0.999926 
0.00783658 -0.00792657 0.999938 
0.00808151 -0.00643239 0.999947 
0.00827933 -0.00500605 0.999953 
0.00839671 -0.00358621 0.999958 
0.00849797 -0.00215238 0.999962 
0.00857812 -0.000711602 0.999963 
0.0086222 0.000739761 0.999963 
0.00866777 0.00227381 0.99996 
0.00870591 0.00395752 0.999954 
0.00871122 0.00585797 0.999945 
0.00879805 0.00805287 0.999929 
0.00885507 0.0106704 0.999904 
0.00901491 0.0138691 0.999863 
0.00918165 0.0178029 0.999799 
0.00954104 0.0226231 0.999699 
0.0100082 0.028489 0.999544 
0.0107728 0.0359238 0.999296 
0.011994 0.0453145 0.998901 
0.0137097 0.0567075 0.998297 
0.0163547 0.0713067 0.99732 
0.0200273 0.0888294 0.995845 
0.0255443 0.112315 0.993344 
0.0332394 0.139864 0.989613 
0.0440329 0.172977 0.983941 
0.0592501 0.215773 0.974644 
0.0798422 0.267489 0.960247 
0.114192 0.341837 0.932796 
0.156694 0.428018 0.890083 
0.228168 0.51411 0.82682 
0.351702 0.552031 0.756021 
-0.35084 0.533192 -0.769817 
-0.238286 0.517563 -0.821796 
-0.171262 0.414978 -0.893567 
-0.121417 0.344793 -0.930793 
-0.0840472 0.273128 -0.958299 
-0.0592634 0.213075 -0.975237 
-0.0429831 0.172025 -0.984154 
-0.0317314 0.13404 -0.990468 
-0.0242512 0.106586 -0.994008 
-0.0191099 0.0848422 -0.996211 
-0.0155678 0.0674837 -0.997599 
-0.0131972 0.0537824 -0.998465 
-0.0116121 0.0428285 -0.999015 
-0.0105368 0.033962 -0.999368 
-0.00983982 0.0269413 -0.999589 
-0.00938084 0.0212109 -0.999731 
-0.00904393 0.0166366 -0.999821 
-0.00885634 0.0129331 -0.999877 
-0.00876885 0.00996724 -0.999912 
-0.00877341 0.00745531 -0.999934 
-0.00881298 0.00534034 -0.999947 
-0.00879368 0.00350724 -0.999955 
-0.00874521 0.00181847 -0.99996 
-0.00879157 0.000276083 -0.999961 
-0.0086548 -0.00120688 -0.999962 
-0.00845733 -0.00261357 -0.999961 
-0.00847638 -0.00401403 -0.999956 
-0.00816282 -0.00540445 -0.999952 
-0.00821135 -0.00677885 -0.999943 
-0.00794916 -0.00824361 -0.999934 
-0.0077306 -0.00982284 -0.999922 
-0.00747721 -0.0115363 -0.999905 
-0.00722202 -0.0132194 -0.999887 
-0.00682728 -0.014604 -0.99987 
-0.00619322 -0.0153021 -0.999864 
-0.00549571 -0.0151562 -0.99987 
-0.00432586 -0.0116604 -0.999923 
2.63943e-05 -0.000113619 -1 
-2.41439e-05 -0.000115287 1 
0.00359528 -0.0115969 0.999926 
0.0046335 -0.0150444 0.999876 