# vtk DataFile Version 3.0 
Exported using Morpho https://github.com/Morpho-lang/morpho 
ASCII 
DATASET UNSTRUCTURED_GRID 

POINTS 2222 float 
-8.32618 -2.88146 0 
-8.11405 -2.88146 0 
-7.90192 -2.88146 0 
-7.68979 -2.88146 0 
-7.47765 -2.88146 0 
-7.26552 -2.88146 0 
-7.05339 -2.88146 0 
-6.84126 -2.88146 0 
-6.62913 -2.88146 0 
-6.41699 -2.88146 0 
-6.20486 -2.88146 0 
-5.99273 -2.88146 0 
-5.7806 -2.88146 0 
-5.56847 -2.88146 0 
-5.35633 -2.88146 0 
-5.1442 -2.88146 0 
-4.93207 -2.88146 0 
-4.71994 -2.88146 0 
-4.50781 -2.88146 0 
-4.29567 -2.88146 0 
-4.08354 -2.88146 0 
-3.87141 -2.88146 0 
-3.65928 -2.88146 0 
-3.44715 -2.88146 0 
-3.23501 -2.88146 0 
-3.02288 -2.88146 0 
-2.81075 -2.88146 0 
-2.59862 -2.88146 0 
-2.38649 -2.88146 0 
-2.17435 -2.88146 0 
-1.96222 -2.88146 0 
-1.75009 -2.88146 0 
-1.53796 -2.88146 0 
-1.32583 -2.88146 0 
-1.11369 -2.88146 0 
-0.901561 -2.88146 0 
-0.689429 -2.88146 0 
-0.477297 -2.88146 0 
-0.265165 -2.88146 0 
-0.053033 -2.88146 0 
0.159099 -2.88146 0 
0.371231 -2.88146 0 
0.583363 -2.88146 0 
0.795495 -2.88146 0 
1.00763 -2.88146 0 
1.21976 -2.88146 0 
1.43189 -2.88146 0 
1.64402 -2.88146 0 
1.85616 -2.88146 0 
2.06829 -2.88146 0 
2.28042 -2.88146 0 
2.49255 -2.88146 0 
2.70468 -2.88146 0 
2.91682 -2.88146 0 
3.12895 -2.88146 0 
3.34108 -2.88146 0 
3.55321 -2.88146 0 
3.76534 -2.88146 0 
3.97748 -2.88146 0 
4.18961 -2.88146 0 
4.40174 -2.88146 0 
4.61387 -2.88146 0 
4.826 -2.88146 0 
5.03814 -2.88146 0 
5.25027 -2.88146 0 
5.4624 -2.88146 0 
5.67453 -2.88146 0 
5.88666 -2.88146 0 
6.0988 -2.88146 0 
6.31093 -2.88146 0 
6.52306 -2.88146 0 
6.73519 -2.88146 0 
6.94732 -2.88146 0 
7.15946 -2.88146 0 
7.37159 -2.88146 0 
7.58372 -2.88146 0 
7.79585 -2.88146 0 
8.00798 -2.88146 0 
8.22012 -2.88146 0 
8.53831 -2.88146 0 
-8.53831 -2.741 0 
-8.28046 -2.66814 0 
-8.05546 -2.65584 0 
-7.83181 -2.67283 0 
-7.59815 -2.67156 0 
-7.36838 -2.66199 0 
-7.13711 -2.68744 0 
-6.90061 -2.67353 0 
-6.67911 -2.66784 0 
-6.45818 -2.66692 0 
-6.23858 -2.66784 0 
-6.0211 -2.66774 0 
-5.80391 -2.66843 0 
-5.58715 -2.66731 0 
-5.37426 -2.66866 0 
-5.15905 -2.6685 0 
-4.9461 -2.66951 0 
-4.73253 -2.66987 0 
-4.519 -2.66865 0 
-4.30669 -2.66984 0 
-4.0942 -2.67023 0 
-3.88048 -2.67026 0 
-3.66717 -2.66895 0 
-3.455 -2.6689 0 
-3.2432 -2.66954 0 
-3.03093 -2.66982 0 
-2.81823 -2.66982 0 
-2.6056 -2.66942 0 
-2.39416 -2.67129 0 
-2.18101 -2.67026 0 
-1.96899 -2.67106 0 
-1.7571 -2.67361 0 
-1.54148 -2.6715 0 
-1.3271 -2.67622 0 
-1.1115 -2.6758 0 
-0.898029 -2.67336 0 
-0.682561 -2.67236 0 
-0.46895 -2.66036 0 
-0.246039 -2.67028 0 
-0.0374435 -2.65966 0 
0.182515 -2.66702 0 
0.391859 -2.66055 0 
0.611513 -2.67223 0 
0.836034 -2.67992 0 
1.04692 -2.67187 0 
1.26328 -2.67651 0 
1.47838 -2.6755 0 
1.69078 -2.67287 0 
1.90417 -2.67413 0 
2.11678 -2.67199 0 
2.33001 -2.67309 0 
2.54124 -2.66989 0 
2.75372 -2.6702 0 
2.96527 -2.66893 0 
3.17773 -2.669 0 
3.38983 -2.66861 0 
3.60136 -2.66809 0 
3.81365 -2.66847 0 
4.02441 -2.66782 0 
4.23625 -2.66977 0 
4.44738 -2.67078 0 
4.66204 -2.67428 0 
4.87154 -2.67054 0 
5.08208 -2.66945 0 
5.28839 -2.66592 0 
5.50354 -2.67393 0 
5.7123 -2.66899 0 
5.9214 -2.66882 0 
6.137 -2.67476 0 
6.34582 -2.66922 0 
6.56191 -2.67554 0 
6.77195 -2.66833 0 
6.98742 -2.67138 0 
7.20014 -2.66569 0 
7.41412 -2.66279 0 
7.63041 -2.65971 0 
7.84467 -2.65716 0 
8.05796 -2.64574 0 
8.30753 -2.71724 0 
8.53831 -2.66933 0 
-8.43209 -2.51487 0 
-8.18774 -2.44415 0 
-7.95566 -2.44244 0 
-7.73851 -2.47264 0 
-7.50156 -2.46438 0 
-7.27906 -2.42481 0 
-7.10337 -2.4946 0 
-6.90009 -2.45002 0 
-6.68792 -2.45691 0 
-6.46687 -2.45694 0 
-6.24315 -2.45711 0 
-6.02313 -2.45485 0 
-5.80667 -2.45724 0 
-5.58931 -2.45659 0 
-5.37243 -2.45327 0 
-5.16202 -2.45824 0 
-4.94581 -2.45662 0 
-4.73394 -2.45873 0 
-4.51863 -2.45746 0 
-4.30626 -2.45801 0 
-4.09032 -2.46066 0 
-3.87671 -2.45957 0 
-3.66396 -2.45661 0 
-3.45194 -2.45622 0 
-3.23954 -2.45749 0 
-3.02626 -2.45863 0 
-2.81318 -2.45847 0 
-2.60146 -2.45707 0 
-2.38916 -2.46083 0 
-2.17724 -2.45867 0 
-1.96585 -2.45936 0 
-1.74981 -2.46693 0 
-1.53599 -2.46018 0 
-1.32301 -2.47155 0 
-1.11183 -2.46586 0 
-0.899019 -2.4588 0 
-0.691245 -2.46143 0 
-0.492693 -2.42316 0 
-0.289084 -2.46106 0 
-0.0726851 -2.43395 0 
0.138905 -2.45431 0 
0.354839 -2.43567 0 
0.566639 -2.46158 0 
0.786937 -2.48171 0 
1.00662 -2.45912 0 
1.21758 -2.47062 0 
1.4312 -2.47017 0 
1.64442 -2.46366 0 
1.85635 -2.46524 0 
2.0664 -2.46329 0 
2.27953 -2.46372 0 
2.48903 -2.45856 0 
2.70048 -2.45898 0 
2.91149 -2.45616 0 
3.12276 -2.45702 0 
3.33507 -2.45591 0 
3.54671 -2.45453 0 
3.75864 -2.45614 0 
3.97088 -2.4536 0 
4.18251 -2.4574 0 
4.39405 -2.45868 0 
4.60723 -2.46834 0 
4.82048 -2.45875 0 
5.03057 -2.45877 0 
5.24044 -2.4482 0 
5.4516 -2.4673 0 
5.66432 -2.45651 0 
5.87472 -2.45546 0 
6.08863 -2.47005 0 
6.30323 -2.45717 0 
6.5186 -2.4709 0 
6.73359 -2.45719 0 
6.951 -2.46385 0 
7.16899 -2.45298 0 
7.38738 -2.44742 0 
7.60702 -2.44359 0 
7.83077 -2.43142 0 
8.06268 -2.43286 0 
8.29688 -2.50537 0 
8.53831 -2.4572 0 
-8.53831 -2.27396 0 
-8.3242 -2.28198 0 
-8.05154 -2.23849 0 
-7.80217 -2.23912 0 
-7.58728 -2.27588 0 
-7.33863 -2.23454 0 
-7.06629 -2.25541 0 
-6.83758 -2.23527 0 
-6.61739 -2.24403 0 
-6.39188 -2.24969 0 
-6.17198 -2.24496 0 
-5.95536 -2.24163 0 
-5.74181 -2.24549 0 
-5.52925 -2.24405 0 
-5.32029 -2.23642 0 
-5.11058 -2.24759 0 
-4.90206 -2.2421 0 
-4.69042 -2.24935 0 
-4.48235 -2.24289 0 
-4.26973 -2.24974 0 
-4.05989 -2.24824 0 
-3.85081 -2.24634 0 
-3.64161 -2.24266 0 
-3.43247 -2.24279 0 
-3.22186 -2.24571 0 
-3.01123 -2.24654 0 
-2.80143 -2.24547 0 
-2.59187 -2.24406 0 
-2.38222 -2.24851 0 
-2.17262 -2.2449 0 
-1.96117 -2.24489 0 
-1.75288 -2.25857 0 
-1.54656 -2.24065 0 
-1.33871 -2.26236 0 
-1.12634 -2.25307 0 
-0.914758 -2.24884 0 
-0.695462 -2.23623 0 
-0.475927 -2.19937 0 
-0.261442 -2.23792 0 
-0.0472072 -2.20603 0 
0.161873 -2.23345 0 
0.368053 -2.20095 0 
0.570986 -2.24348 0 
0.784769 -2.27696 0 
1.00092 -2.24629 0 
1.21452 -2.25778 0 
1.42426 -2.26218 0 
1.63246 -2.24899 0 
1.84149 -2.25562 0 
2.05402 -2.25111 0 
2.26401 -2.25635 0 
2.47855 -2.24518 0 
2.68776 -2.24825 0 
2.90049 -2.24388 0 
3.11262 -2.24452 0 
3.32483 -2.24441 0 
3.53869 -2.2417 0 
3.75173 -2.24367 0 
3.9648 -2.24164 0 
4.17935 -2.24518 0 
4.39213 -2.24698 0 
4.60488 -2.26001 0 
4.81781 -2.24767 0 
5.0285 -2.24641 0 
5.24038 -2.23571 0 
5.45279 -2.25787 0 
5.66493 -2.24473 0 
5.8734 -2.24046 0 
6.08199 -2.26322 0 
6.29057 -2.24383 0 
6.50245 -2.26455 0 
6.71735 -2.24879 0 
6.93488 -2.25739 0 
7.15417 -2.24423 0 
7.37492 -2.23633 0 
7.59852 -2.23065 0 
7.82443 -2.22014 0 
8.05944 -2.22019 0 
8.29736 -2.28872 0 
8.53831 -2.24506 0 
-8.42643 -2.04027 0 
-8.21283 -2.07327 0 
-7.95974 -2.03733 0 
-7.74265 -2.01196 0 
-7.52634 -2.07526 0 
-7.3613 -1.96403 0 
-7.16796 -2.07764 0 
-6.92131 -2.03581 0 
-6.68656 -2.02686 0 
-6.46171 -2.04109 0 
-6.23854 -2.03528 0 
-6.01787 -2.03081 0 
-5.79831 -2.03145 0 
-5.58432 -2.03176 0 
-5.3717 -2.02308 0 
-5.15603 -2.03203 0 
-4.9465 -2.02915 0 
-4.73214 -2.03881 0 
-4.51963 -2.03002 0 
-4.30494 -2.03967 0 
-4.09061 -2.03645 0 
-3.87661 -2.03296 0 
-3.66498 -2.02982 0 
-3.45149 -2.02891 0 
-3.2392 -2.03343 0 
-3.02575 -2.0347 0 
-2.81216 -2.03272 0 
-2.59956 -2.03035 0 
-2.38774 -2.03426 0 
-2.17179 -2.0334 0 
-1.95957 -2.03108 0 
-1.74695 -2.04128 0 
-1.5362 -2.02264 0 
-1.32546 -2.0488 0 
-1.11291 -2.03727 0 
-0.891811 -2.03902 0 
-0.669815 -2.0199 0 
-0.468965 -1.94722 0 
-0.272365 -2.01305 0 
-0.0653677 -1.97119 0 
0.147625 -2.00016 0 
0.367818 -1.97988 0 
0.593208 -2.01447 0 
0.798138 -2.06254 0 
1.00663 -2.02114 0 
1.2153 -2.04263 0 
1.42661 -2.04594 0 
1.63966 -2.03403 0 
1.85298 -2.04488 0 
2.06491 -2.03841 0 
2.2788 -2.04797 0 
2.48919 -2.03101 0 
2.70156 -2.03753 0 
2.9146 -2.03216 0 
3.12668 -2.03224 0 
3.34048 -2.03337 0 
3.5545 -2.02987 0 
3.76692 -2.03122 0 
3.98366 -2.03208 0 
4.1968 -2.03363 0 
4.40534 -2.03152 0 
4.61338 -2.05041 0 
4.82224 -2.03361 0 
5.03377 -2.03497 0 
5.24321 -2.02 0 
5.45189 -2.04832 0 
5.66141 -2.03062 0 
5.87251 -2.02769 0 
6.08306 -2.05047 0 
6.29328 -2.03039 0 
6.50375 -2.05605 0 
6.716 -2.03696 0 
6.93082 -2.05058 0 
7.14901 -2.03465 0 
7.36822 -2.02419 0 
7.59001 -2.01925 0 
7.82399 -2.01275 0 
8.06177 -2.01129 0 
8.29943 -2.07424 0 
8.53831 -2.03293 0 
-8.53831 -1.8323 0 
-8.30253 -1.82318 0 
-8.08417 -1.86086 0 
-7.84738 -1.80012 0 
-7.59278 -1.83477 0 
-7.33904 -1.76338 0 
-7.11736 -1.87193 0 
-6.88821 -1.82718 0 
-6.67656 -1.80377 0 
-6.46495 -1.82925 0 
-6.24701 -1.82352 0 
-6.03034 -1.8194 0 
-5.8148 -1.82128 0 
-5.59965 -1.81742 0 
-5.38992 -1.80971 0 
-5.17799 -1.82129 0 
-4.96601 -1.81394 0 
-4.75644 -1.8278 0 
-4.54661 -1.81939 0 
-4.33235 -1.82916 0 
-4.11998 -1.82614 0 
-3.90661 -1.82306 0 
-3.69246 -1.81636 0 
-3.48106 -1.81784 0 
-3.26629 -1.82015 0 
-3.05425 -1.82335 0 
-2.8407 -1.82252 0 
-2.62612 -1.81893 0 
-2.41147 -1.82136 0 
-2.19845 -1.82585 0 
-1.97832 -1.81622 0 
-1.76329 -1.82624 0 
-1.54437 -1.80697 0 
-1.33015 -1.83255 0 
-1.11567 -1.81886 0 
-0.903078 -1.82734 0 
-0.692013 -1.79169 0 
-0.473691 -1.71392 0 
-0.255785 -1.77019 0 
-0.0414298 -1.7338 0 
0.168969 -1.77015 0 
0.364547 -1.72651 0 
0.566904 -1.79885 0 
0.802344 -1.83383 0 
1.01581 -1.79458 0 
1.22592 -1.82193 0 
1.44188 -1.83097 0 
1.64884 -1.81032 0 
1.85263 -1.83225 0 
2.05344 -1.81491 0 
2.25793 -1.83672 0 
2.46825 -1.81977 0 
2.68293 -1.82559 0 
2.89463 -1.82219 0 
3.10964 -1.81993 0 
3.32239 -1.82251 0 
3.53664 -1.81956 0 
3.75231 -1.81815 0 
3.96511 -1.82475 0 
4.18443 -1.82208 0 
4.39778 -1.81575 0 
4.60774 -1.83576 0 
4.81866 -1.81898 0 
5.02672 -1.82248 0 
5.24196 -1.80983 0 
5.45594 -1.83565 0 
5.66989 -1.81953 0 
5.87596 -1.81035 0 
6.08231 -1.83916 0 
6.29214 -1.81663 0 
6.50324 -1.84475 0 
6.71748 -1.82559 0 
6.93273 -1.84074 0 
7.15 -1.8224 0 
7.36822 -1.81021 0 
7.59937 -1.81269 0 
7.83381 -1.80494 0 
8.06784 -1.79962 0 
8.30178 -1.85965 0 
8.53831 -1.8208 0 
-8.53831 -1.61566 0 
-8.29778 -1.60952 0 
[...]
POINT_DATA 2222 
VECTORS vectors float
1.9137e-05 -0.000755868 1 
0.000114284 -0.0108672 0.999941 
-2.06721e-05 -0.0131206 0.999914 
2.83574e-05 -0.0135024 0.999909 
1.30497e-05 -0.0127864 0.999918 
1.71773e-05 -0.0113275 0.999936 
1.73898e-05 -0.00969835 0.999953 
1.66383e-05 -0.00804717 0.999968 
1.69743e-05 -0.00641257 0.999979 
1.68994e-05 -0.00477714 0.999989 
1.69723e-05 -0.00312701 0.999995 
1.69782e-05 -0.00146431 0.999999 
1.68466e-05 0.000226034 1 
1.72778e-05 0.00198207 0.999998 
1.65713e-05 0.0038658 0.999993 
1.72585e-05 0.00596748 0.999982 
1.65036e-05 0.00839652 0.999965 
1.70271e-05 0.0112724 0.999936 
1.62437e-05 0.0147458 0.999891 
1.63485e-05 0.0190309 0.999819 
1.6146e-05 0.0243046 0.999705 
1.5579e-05 0.0308828 0.999523 
1.52145e-05 0.0391145 0.999235 
1.46133e-05 0.0494307 0.998778 
1.39096e-05 0.062373 0.998053 
1.30695e-05 0.0786191 0.996905 
1.18164e-05 0.0990031 0.995087 
1.04618e-05 0.124542 0.992214 
8.66583e-06 0.156432 0.987689 
6.86702e-06 0.196155 0.980573 
1.94017e-06 0.245362 0.969432 
4.59664e-06 0.30584 0.952083 
-9.53658e-06 0.379301 0.925273 
-1.12852e-05 0.467566 0.883958 
-8.71083e-06 0.566147 0.824305 
-2.79554e-05 0.675083 0.737742 
-2.72291e-05 0.786656 0.617392 
-2.59649e-05 0.887458 0.460888 
-2.09079e-05 0.962872 0.26996 
-3.77832e-06 0.998434 0.0559462 
1.2106e-05 0.986585 -0.163248 
2.48771e-05 0.929966 -0.367645 
2.82887e-05 0.839972 -0.54263 
2.56609e-05 0.732109 -0.681188 
2.00171e-05 0.620524 -0.784188 
1.23989e-05 0.515171 -0.857088 
7.11787e-06 0.421514 -0.906822 
2.36533e-06 0.341309 -0.939951 
-2.11032e-06 0.274471 -0.961595 
-5.10274e-06 0.219751 -0.975556 
-7.58242e-06 0.175401 -0.984497 
-9.69011e-06 0.139724 -0.990191 
-1.11446e-05 0.111131 -0.993806 
-1.24988e-05 0.0882923 -0.996095 
-1.34805e-05 0.0700755 -0.997542 
-1.42785e-05 0.0555601 -0.998455 
-1.49633e-05 0.0439919 -0.999032 
-1.53679e-05 0.0347649 -0.999396 
-1.59056e-05 0.0273916 -0.999625 
-1.60267e-05 0.0214837 -0.999769 
-1.65547e-05 0.016728 -0.99986 
-1.65381e-05 0.0128724 -0.999917 
-1.70091e-05 0.00970928 -0.999953 
-1.65567e-05 0.00707366 -0.999975 
-1.72435e-05 0.00481943 -0.999988 
-1.67578e-05 0.00283343 -0.999996 
-1.71935e-05 0.00102592 -0.999999 
-1.70877e-05 -0.00070415 -1 
-1.66201e-05 -0.00238911 -0.999997 
-1.75832e-05 -0.00407098 -0.999992 
-1.63681e-05 -0.00575526 -0.999983 
-1.75469e-05 -0.00743932 -0.999972 
-1.65648e-05 -0.00913542 -0.999958 
-1.73306e-05 -0.0108678 -0.999941 
-1.65927e-05 -0.0126129 -0.99992 
-1.25985e-05 -0.0141169 -0.9999 
-2.77017e-05 -0.0146583 -0.999893 
-8.66474e-06 -0.0144666 -0.999895 
7.54706e-08 -0.0125809 -0.999921 
-3.6688e-05 -0.00118634 -0.999999 
3.55912e-05 0.000258425 1 
0.00543739 -0.00865811 0.999948 
0.00700574 -0.0120364 0.999903 
0.00735968 -0.0131092 0.999887 
0.00762962 -0.0128084 0.999889 
0.00782345 -0.0117652 0.9999 
0.00780949 -0.0102426 0.999917 
0.00802737 -0.0083921 0.999933 
0.00822459 -0.00668919 0.999944 
0.00834114 -0.005008 0.999953 
0.0083737 -0.00333118 0.999959 
0.00840249 -0.00165064 0.999963 
0.00842782 6.56723e-05 0.999964 
0.0084528 0.00185718 0.999963 
0.00841494 0.00375311 0.999958 
0.00838728 0.00589037 0.999947 
0.00830734 0.0083335 0.999931 
0.00821562 0.0112437 0.999903 
0.0080827 0.0147224 0.999859 
0.00791232 0.0190398 0.999787 
0.00768509 0.0243115 0.999675 
0.00740659 0.0309435 0.999494 
0.00708318 0.0392344 0.999205 
0.00668509 0.0495652 0.998749 
0.0062007 0.0624917 0.998026 
0.00562324 0.0787439 0.996879 
0.00493899 0.0991704 0.995058 
0.00413923 0.124746 0.99218 
0.00320775 0.156465 0.987678 
0.00214566 0.19625 0.980552 
0.000956218 0.245199 0.969472 
-0.000330108 0.305314 0.952252 
-0.00167236 0.378989 0.9254 
-0.0029301 0.4671 0.8842 
-0.00397069 0.568122 0.822935 
-0.00462385 0.677335 0.735661 
-0.00464547 0.790668 0.612227 
-0.00380675 0.890808 0.454365 
-0.00235105 0.967872 0.251432 
-0.000396135 0.999213 0.0396709 
0.0017225 0.982305 -0.187281 
0.00334137 0.922239 -0.386606 
0.00447533 0.826376 -0.563101 
0.00475394 0.711111 -0.703063 
0.00423799 0.601128 -0.799141 
0.00331147 0.496236 -0.868181 
0.00206944 0.404415 -0.914573 
0.000743301 0.327103 -0.944988 
-0.000565894 0.2627 -0.964877 
-0.0017933 0.210266 -0.977643 
-0.00289548 0.167672 -0.985839 
-0.00387135 0.133758 -0.991006 
-0.00470868 0.106384 -0.994314 
-0.00542774 0.0846094 -0.996399 
-0.0060355 0.0671485 -0.997725 
-0.00654634 0.0532524 -0.99856 
-0.0069777 0.0421969 -0.999085 
-0.00733249 0.0333344 -0.999417 
-0.00763009 0.0262951 -0.999625 
-0.0078512 0.0206092 -0.999757 
-0.00803774 0.0160399 -0.999839 
-0.00816559 0.0122621 -0.999891 
-0.00832466 0.00922663 -0.999923 
-0.00843952 0.00667028 -0.999942 
-0.00852833 0.00451202 -0.999953 
-0.00848247 0.00251636 -0.999961 
-0.0085402 0.000740333 -0.999963 
-0.00855009 -0.000953778 -0.999963 
-0.0084652 -0.00265212 -0.999961 
-0.00847904 -0.00428281 -0.999955 
-0.00836746 -0.00597932 -0.999947 
-0.00835924 -0.00763463 -0.999936 
-0.00821947 -0.0093617 -0.999922 
-0.00810568 -0.0110585 -0.999906 
-0.00793245 -0.0126002 -0.999889 
-0.00770463 -0.0137258 -0.999876 
-0.00724869 -0.0142792 -0.999872 
-0.00647289 -0.013679 -0.999885 
-0.00460232 -0.0108279 -0.999931 
0.00021787 0.000330797 -1 
0.00385444 -0.00670781 0.99997 
0.00739523 -0.0117781 0.999903 
0.00885355 -0.0131891 0.999874 
0.00927043 -0.0128281 0.999875 
0.00977262 -0.0123089 0.999876 
0.0104711 -0.0111933 0.999883 
0.0101589 -0.00995285 0.999899 
0.0106856 -0.00836971 0.999908 
0.0107284 -0.00670628 0.99992 
0.0107904 -0.00502553 0.999929 
0.0108677 -0.00333111 0.999935 
0.0109579 -0.00164376 0.999939 
0.0109835 6.65997e-05 0.99994 
0.0110013 0.0018778 0.999938 
0.0110147 0.00383726 0.999932 
0.0109249 0.00595717 0.999923 
0.0108312 0.00847061 0.999905 
0.0106625 0.0113761 0.999878 
0.0105083 0.0149951 0.999832 
0.0102289 0.0192895 0.999762 
0.00990437 0.0247726 0.999644 
0.00953156 0.0315202 0.999458 
0.00908581 0.0399201 0.999162 
0.00853611 0.0503879 0.998693 
0.00787423 0.0635171 0.99795 
0.00710015 0.0800505 0.996766 
0.00621496 0.100767 0.994891 
0.00520966 0.126526 0.99195 
0.00405944 0.158693 0.98732 
0.00280123 0.19848 0.980101 
0.00144617 0.247336 0.968929 
-3.9346e-06 0.309586 0.950872 
-0.00136755 0.382872 0.9238 
-0.00265649 0.469254 0.883059 
-0.00358279 0.568664 0.822562 
-0.00407869 0.678024 0.735028 
-0.00405917 0.785735 0.61855 
-0.00320452 0.880578 0.473891 
-0.00226006 0.956128 0.292939 
-0.000550182 0.997077 0.0764063 
0.00110498 0.98969 -0.143223 
0.00256914 0.935131 -0.354294 
0.00370342 0.847624 -0.530585 
0.00425214 0.73743 -0.67541 
0.00387045 0.621721 -0.783229 
0.00317825 0.518321 -0.85518 
0.00203964 0.425169 -0.905111 
0.00068835 0.344031 -0.938958 
-0.000713945 0.277573 -0.960704 
-0.00209467 0.223236 -0.974762 
-0.00341861 0.17834 -0.983963 
-0.00462016 0.142768 -0.989745 
-0.0056937 0.11382 -0.993485 
-0.00664739 0.0906947 -0.995857 
-0.00746517 0.072151 -0.997366 
-0.00818019 0.0572737 -0.998325 
-0.00879075 0.0454364 -0.998929 
-0.00929396 0.0359537 -0.99931 
-0.00974269 0.0283649 -0.99955 
-0.0100874 0.0222798 -0.999701 
-0.0103824 0.0173821 -0.999795 
-0.0105815 0.0133894 -0.999854 
-0.0108033 0.0100824 -0.999891 
-0.0109674 0.00739582 -0.999913 
-0.0110984 0.00507915 -0.999926 
-0.0110607 0.00304089 -0.999934 
-0.0111647 0.00117215 -0.999937 
-0.0111504 -0.000560543 -0.999938 
-0.0110474 -0.00225731 -0.999936 
-0.0110564 -0.00391305 -0.999931 
-0.0108907 -0.00559424 -0.999925 
-0.0108501 -0.00728273 -0.999915 
-0.0106139 -0.00903635 -0.999903 
-0.0103988 -0.0107779 -0.999888 
-0.010048 -0.0122747 -0.999874 
-0.0095795 -0.0133011 -0.999866 
-0.00892686 -0.0140017 -0.999862 
-0.00775368 -0.0137818 -0.999875 
-0.00535227 -0.0107116 -0.999928 
-0.000526375 -4.87039e-05 -1 
2.30364e-05 1.07878e-05 1 
0.00602713 -0.0101147 0.999931 
0.00818543 -0.0132615 0.999879 
0.00916393 -0.0130228 0.999873 
0.00989664 -0.0125563 0.999872 
0.0103663 -0.0115573 0.999879 
0.0107474 -0.00967608 0.999895 
0.0109477 -0.00786387 0.999909 
0.0110894 -0.00614735 0.99992 
0.0112433 -0.00444294 0.999927 
0.0113311 -0.0027804 0.999932 
0.0113938 -0.00110835 0.999934 
0.0114379 0.000614887 0.999934 
0.0114411 0.0024484 0.999932 
0.0113933 0.0044224 0.999925 
0.0113337 0.00663953 0.999914 
0.0112059 0.00919914 0.999895 
0.0110382 0.0122668 0.999864 
0.0108074 0.0159301 0.999815 
0.0105211 0.0204749 0.999735 
0.0101642 0.0260442 0.999609 
0.00973237 0.0329209 0.999411 
0.00921704 0.0414784 0.999097 
0.00862243 0.0521252 0.998603 
0.00793585 0.0654915 0.997822 
0.00714477 0.0821973 0.99659 
0.00625279 0.102977 0.994664 
0.0052716 0.128856 0.991649 
0.00420843 0.161134 0.986924 
0.00307798 0.200611 0.979666 
0.00191536 0.249886 0.968273 
0.000755839 0.3091 0.951029 
-0.000172891 0.379622 0.925142 
-0.00116851 0.463649 0.886018 
-0.00170772 0.561201 0.827678 
-0.00196872 0.668641 0.743582 
-0.00173943 0.782271 0.622936 
-0.0010435 0.887159 0.461463 
-0.000821618 0.963483 0.267767 
-0.000127878 0.998734 0.0503082 
0.00054488 0.98595 -0.167043 
0.000824928 0.930246 -0.366935 
0.00167561 0.844947 -0.534848 
0.00231733 0.737532 -0.675308 
0.00183828 0.624705 -0.780859 
0.00149738 0.519835 -0.854265 
0.00080861 0.427831 -0.903858 
-0.000220258 0.349569 -0.936911 
-0.00125436 0.282957 -0.959132 
-0.00242897 0.227182 -0.973849 
-0.00357382 0.182356 -0.983226 
-0.00471209 0.145438 -0.989356 
-0.0057369 0.116366 -0.99319 
-0.00668692 0.0926765 -0.995674 
-0.00753419 0.0737527 -0.997248 
-0.00828081 0.0586167 -0.998246 
-0.00893132 0.0464461 -0.998881 
-0.00949172 0.0367481 -0.999279 
-0.00996869 0.0289917 -0.99953 
-0.0103735 0.0227178 -0.999688 
-0.0107077 0.0176902 -0.999786 
-0.0110117 0.0136403 -0.999846 
-0.0112231 0.0103269 -0.999884 
-0.0113356 0.00754539 -0.999907 
-0.0114657 0.00518283 -0.999921 
-0.0115623 0.00308618 -0.999928 
-0.0115872 0.00119604 -0.999932 
-0.0115691 -0.000541265 -0.999933 
-0.0115548 -0.0022002 -0.999931 
-0.0114873 -0.00381687 -0.999927 
-0.0114001 -0.00546463 -0.99992 
-0.0112142 -0.00714046 -0.999912 
-0.0110185 -0.00893052 -0.999899 
-0.0106786 -0.0106957 -0.999886 
-0.0102109 -0.0121805 -0.999874 
-0.00962234 -0.0131458 -0.999867 
-0.00880594 -0.0138081 -0.999866 
-0.00778734 -0.0138271 -0.999874 
-0.005977 -0.0109306 -0.999922 
-0.000216596 2.17201e-05 -1 
0.00445689 -0.00816197 0.999957 
0.00650614 -0.0120964 0.999906 
0.00788143 -0.0135852 0.999877 
0.00866799 -0.0129945 0.999878 
0.00955313 -0.0125243 0.999876 
0.00967837 -0.0118889 0.999882 
0.0102595 -0.0105557 0.999892 
0.0104449 -0.00857616 0.999909 
0.0106098 -0.00669166 0.999921 
0.0108242 -0.00497843 0.999929 
0.0109463 -0.00329595 0.999935 
0.0110394 -0.00160516 0.999938 
0.0111099 0.000156234 0.999938 
0.0111355 0.00199368 0.999936 
0.0110997 0.00398761 0.99993 
0.0110508 0.00624388 0.999919 
0.0109259 0.00877326 0.999902 
0.010772 0.0118156 0.999872 
0.0105246 0.0154727 0.999825 
0.0102451 0.0199632 0.999748 
0.00987714 0.0255258 0.999625 
0.00943726 0.0324278 0.99943 
0.0089244 0.0409304 0.999122 
0.00833203 0.0516256 0.998632 
0.00766837 0.0649018 0.997862 
0.00691434 0.0815935 0.996642 
0.00607917 0.102474 0.994717 
0.00518723 0.128375 0.991712 
0.00426052 0.160328 0.987055 
0.00332367 0.201277 0.979529 
0.00245534 0.250976 0.96799 
0.00162988 0.310901 0.950441 
0.00114242 0.382789 0.923835 
0.000561194 0.468021 0.883717 
0.000504026 0.565955 0.824436 
0.000484901 0.679505 0.733671 
0.000779567 0.794258 0.60758 
0.00145017 0.888893 0.458112 
0.000573513 0.960031 0.279892 
0.000244774 0.997566 0.069734 
-0.000389142 0.988169 -0.153366 
-0.00100919 0.929775 -0.368128 
-0.000874524 0.833046 -0.553204 
-0.000281641 0.729015 -0.684497 
-0.00071959 0.62032 -0.784348 
-0.000543676 0.518707 -0.854952 
-0.000802072 0.425455 -0.904979 
-0.00138226 0.345921 -0.938262 
-0.00203594 0.279963 -0.960009 
-0.00287852 0.224763 -0.974409 
-0.0037992 0.18014 -0.983634 
-0.00472659 0.144469 -0.989498 
-0.00564025 0.115372 -0.993306 
-0.00649409 0.0919695 -0.995741 
-0.00728046 0.0732989 -0.997283 
-0.00799665 0.0582279 -0.998271 
-0.00862336 0.0461819 -0.998896 
-0.00917636 0.0366087 -0.999288 
-0.00966433 0.0287826 -0.999539 
-0.0100747 0.0226136 -0.999694 
-0.0104129 0.0177512 -0.999788 
-0.0107115 0.0137246 -0.999848 
-0.0108808 0.010424 -0.999886 
-0.0110809 0.00763577 -0.999909 
-0.0111594 0.0052556 -0.999924 
-0.0112941 0.00315333 -0.999931 
-0.0112851 0.00125284 -0.999936 
-0.0112661 -0.000532574 -0.999936 
-0.0112722 -0.00221899 -0.999934 
-0.011135 -0.00385285 -0.999931 
-0.011068 -0.0054808 -0.999924 
-0.0108367 -0.00716011 -0.999916 
-0.0106323 -0.00892647 -0.999904 
-0.0102555 -0.0107309 -0.99989 
-0.00978266 -0.0122495 -0.999877 
-0.00913057 -0.0131063 -0.999872 
-0.00822072 -0.0137422 -0.999872 
-0.00715808 -0.013765 -0.99988 
-0.00578547 -0.0109098 -0.999924 
-0.00024948 1.45237e-07 -1 
-3.50969e-05 0.000120548 1 
0.00532683 -0.0106098 0.99993 
0.00685817 -0.0133797 0.999887 
0.00776582 -0.0134535 0.999879 
0.00878039 -0.0128238 0.999879 
0.00917326 -0.0118631 0.999888 
0.00988293 -0.010241 0.999899 
0.0100133 -0.00836492 0.999915 
0.0101453 -0.00668375 0.999926 
0.0103697 -0.00504101 0.999934 
0.0104827 -0.00338977 0.999939 
0.0105746 -0.00172294 0.999943 
0.0106494 1.95334e-05 0.999943 
0.0106637 0.00188638 0.999941 
0.0106232 0.00387144 0.999936 
0.0105962 0.0061023 0.999925 
0.0104583 0.00866593 0.999908 
0.0103401 0.0116294 0.999879 
0.0100938 0.0151993 0.999834 
0.00983714 0.019619 0.999759 
0.00948107 0.0250244 0.999642 
0.00905704 0.0317499 0.999455 
0.00855155 0.0401544 0.999157 
0.00800936 0.0504684 0.998694 
0.00738934 0.063543 0.997952 
0.00671758 0.0796463 0.996801 
0.00598028 0.099874 0.994982 
0.00520513 0.12521 0.992117 
0.00443757 0.156746 0.987629 
0.00371755 0.195644 0.980668 
0.00309274 0.245305 0.969441 
0.00259868 0.304462 0.952521 
0.00245842 0.378174 0.925731 
0.00230786 0.463955 0.885856 
0.0026404 0.562834 0.826566 
0.00286488 0.66986 0.742482 
0.00342469 0.780454 0.625204 
0.00395908 0.885217 0.465161 
0.00214876 0.963854 0.266423 
0.000416026 0.998978 0.0452004 
-0.00145034 0.984236 -0.176854 
-0.00333749 0.929652 -0.368423 
-0.00326536 0.843727 -0.536763 
-0.00295809 0.723821 -0.689982 
-0.00314638 0.612869 -0.790179 
-0.00255089 0.510306 -0.859989 
-0.00235097 0.417985 -0.908451 
-0.00257376 0.34231 -0.939583 
-0.00280561 0.27912 -0.960252 
-0.00334388 0.227413 -0.973793 
-0.00394177 0.184596 -0.982807 
-0.00467302 0.148051 -0.988969 
-0.0054405 0.11815 -0.992981 
-0.00618382 0.0944664 -0.995509 
-0.00690043 0.0751887 -0.997145 
-0.00756639 0.0598923 -0.998176 
-0.00815989 0.0475637 -0.998835 
-0.00869325 0.0376347 -0.999254 
-0.00917914 0.029759 -0.999515 
-0.00957906 0.0232609 -0.999684 
-0.00988316 0.0181457 -0.999787 
-0.0102394 0.014048 -0.999849 
-0.010414 0.01068 -0.999889 
-0.0105731 0.00784245 -0.999913 
-0.0106569 0.00536247 -0.999929 
-0.0108269 0.00317228 -0.999936 
-0.0108048 0.0011999 -0.999941 
-0.0107619 -0.000568411 -0.999942 
-0.0108114 -0.00223678 -0.999939 
-0.0106351 -0.00387655 -0.999936 
-0.0105984 -0.00550894 -0.999929 
-0.010339 -0.00721485 -0.999921 
-0.0101481 -0.00899413 -0.999908 
-0.00975409 -0.0108178 -0.999894 
-0.00925997 -0.0123294 -0.999881 
-0.00865357 -0.0132659 -0.999875 
-0.00774863 -0.0138229 -0.999874 
-0.00669378 -0.0137246 -0.999883 
-0.00536735 -0.0108495 -0.999927 
-0.000249532 8.8294e-06 -1 
0.000305291 -8.74829e-05 1 
0.00486196 -0.0108876 0.999929 
0.00635883 -0.0135134 0.999888 
0.00708402 -0.013525 0.999883 
0.00805665 -0.0129706 0.999883 
0.00820921 -0.0120325 0.999894 
0.00909788 -0.0101297 0.999907 
0.00901275 -0.00824156 0.999925 
0.00916381 -0.00638722 0.999938 
0.00942763 -0.00471812 0.999944 
0.00952517 -0.00302818 0.99995 
0.00960704 -0.00129596 0.999953 
0.00966687 0.000514963 0.999953 
0.00962011 0.00243845 0.999951 
0.00959442 0.00459967 0.999943 
0.0095511 0.00693307 0.99993 
0.00940994 0.00972051 0.999908 
0.00927305 0.0128128 0.999875 
0.00905942 0.0167616 0.999818 
0.00879369 0.0214006 0.999732 
0.00844213 0.0271964 0.999594 
0.00802969 0.034366 0.999377 
0.0075381 0.043295 0.999034 
0.00705819 0.0543835 0.998495 
0.00650422 0.0681168 0.997656 
0.00593542 0.0850981 0.996355 
0.00533203 0.106345 0.994315 
0.00473435 0.133092 0.991092 
0.00421053 0.165706 0.986166 
0.00378172 0.20675 0.978386 
0.00355092 0.258842 0.965913 
0.00351247 0.321555 0.946884 
0.00409883 0.391691 0.920088 
0.00427547 0.471379 0.881921 
0.00525467 0.57075 0.821107 
0.00594006 0.68071 0.732529 
0.00681981 0.799062 0.60121 
0.00559837 0.933109 0.35955 
0.00266656 0.987669 0.156533 
0.00113985 0.999201 0.0399552 
-0.00185377 0.994466 -0.105039 
-0.00556917 0.950162 -0.311708 
-0.00677902 0.859207 -0.511583 
-0.00588791 0.75336 -0.657582 
-0.00608631 0.634472 -0.772922 
-0.00499101 0.521397 -0.8533 
-0.00408566 0.430221 -0.902715 
-0.00383447 0.349803 -0.936815 
-0.00358693 0.282684 -0.959207 
-0.00373596 0.225701 -0.974189 
-0.00409588 0.179955 -0.983666 
-0.00458531 0.143266 -0.989674 
-0.00514811 0.115215 -0.993327 
-0.00575174 0.0920128 -0.995741 
-0.0063217 0.0735771 -0.997269 
-0.00689381 0.0587493 -0.998249 
-0.00741208 0.0466872 -0.998882 
-0.00785706 0.0371368 -0.999279 
-0.00835586 0.0292371 -0.999538 
-0.00866304 0.0230447 -0.999697 
-0.0089297 0.0180842 -0.999797 
-0.00928185 0.0139758 -0.999859 
-0.00934737 0.010637 -0.9999 
-0.00960664 0.00775036 -0.999924 
-0.00959619 0.0052917 -0.99994 
-0.00985049 0.00314264 -0.999947 
-0.00972947 0.00120377 -0.999952 
-0.00968926 -0.000641177 -0.999953 
-0.00979093 -0.00235533 -0.999949 
-0.00955878 -0.00400749 -0.999946 
-0.00961052 -0.00562153 -0.999938 
-0.009296 -0.00730624 -0.99993 
-0.00917965 -0.00906572 -0.999917 
-0.0087705 -0.0108931 -0.999902 
-0.00834984 -0.0124744 -0.999887 
-0.00783923 -0.0133685 -0.99988 
-0.00701831 -0.0139167 -0.999879 
-0.00606079 -0.0138331 -0.999886 
-0.00487195 -0.0108778 -0.999929 
-0.000213392 6.42395e-06 -1 
0.00015993 4.91673e-05 1 
0.00412941 -0.0108378 0.999933 
0.00549543 -0.0136005 0.999892 
0.00607042 -0.013632 0.999889 
0.00698223 -0.0129901 0.999891 
0.00689935 -0.0120214 0.999904 
0.00790286 -0.0104758 0.999914 
0.00766633 -0.00877927 0.999932 
0.00787514 -0.00696176 0.999945 
0.0080097 -0.00511249 0.999955 
0.00817973 -0.00348126 0.99996 
0.0082641 -0.00175303 0.999964 
0.00831065 6.54247e-05 0.999965 
0.00827201 0.00196779 0.999964 
0.008282 0.00408575 0.999957 
0.00819837 0.00645363 0.999946 
0.00814651 0.00907197 0.999926 
0.00792689 0.0122116 0.999894 
0.00785955 0.0157799 0.999845 
0.00758045 0.0202899 0.999765 
0.00732109 0.0256552 0.999644 
0.00697074 0.0324231 0.99945 
0.006566 0.0407462 0.999148 
0.00615456 0.0513335 0.998663 
0.00571193 0.0641869 0.997922 
0.00525728 0.0802588 0.99676 
0.00481805 0.0999356 0.994982 
0.00440875 0.124631 0.992193 
0.00406567 0.155523 0.987824 
0.00389546 0.193503 0.981092 
0.00392443 0.240317 0.970686 
0.00431794 0.303454 0.952836 
0.00529454 0.382716 0.923851 
0.00660626 0.483036 0.875575 
0.00831904 0.585745 0.810452 
0.0096124 0.700347 0.713738 
0.00964907 0.847964 0.529966 
0.0121719 0.902069 0.43142 
0.0076154 0.964272 0.264804 
0.00528929 0.998328 0.057559 
-0.00569825 0.983243 -0.182211 
-0.0113344 0.922765 -0.385197 
-0.0108485 0.849834 -0.526939 
-0.0096163 0.738392 -0.674303 
-0.00920507 0.622436 -0.782617 
-0.00727483 0.515468 -0.856878 
-0.00578889 0.416355 -0.909184 
-0.00482346 0.335666 -0.941969 
-0.00415722 0.269546 -0.962978 
-0.00397214 0.21904 -0.975708 
-0.00402235 0.178709 -0.983894 
-0.00420696 0.145861 -0.989296 
-0.00454046 0.118037 -0.992999 
-0.00496932 0.0948829 -0.995476 
-0.00539761 0.0758581 -0.997104 
-0.00585601 0.0606362 -0.998143 
-0.00629606 0.0484365 -0.998806 
-0.00665511 0.0384711 -0.999238 
-0.00714059 0.0305261 -0.999508 
-0.00738374 0.0240176 -0.999684 
-0.00758158 0.0187855 -0.999795 
-0.00793337 0.0145027 -0.999863 
-0.00801986 0.0109907 -0.999907 
-0.0082527 0.00801298 -0.999934 
-0.00823423 0.00546921 -0.999951 
-0.0084766 0.00319773 -0.999959 
-0.0083619 0.00115547 -0.999964 