# vtk DataFile Version 3.0 
Exported using Morpho https://github.com/Morpho-lang/morpho 
ASCII 
DATASET UNSTRUCTURED_GRID 

POINTS 2220 float 
-8.32618 -2.88146 0 
-8.11405 -2.88146 0 
-7.90192 -2.88146 0 
-7.68979 -2.88146 0 
-7.47765 -2.88146 0 
-7.26552 -2.88146 0 
-7.05339 -2.88146 0 
-6.84126 -2.88146 0 
-6.62913 -2.88146 0 
-6.41699 -2.88146 0 
-6.20486 -2.88146 0 
-5.99273 -2.88146 0 
-5.7806 -2.88146 0 
-5.56847 -2.88146 0 
-5.35633 -2.88146 0 
-5.1442 -2.88146 0 
-4.93207 -2.88146 0 
-4.71994 -2.88146 0 
-4.50781 -2.88146 0 
-4.29567 -2.88146 0 
-4.08354 -2.88146 0 
-3.87141 -2.88146 0 
-3.65928 -2.88146 0 
-3.44715 -2.88146 0 
-3.23501 -2.88146 0 
-3.02288 -2.88146 0 
-2.81075 -2.88146 0 
-2.59862 -2.88146 0 
-2.38649 -2.88146 0 
-2.17435 -2.88146 0 
-1.96222 -2.88146 0 
-1.75009 -2.88146 0 
-1.53796 -2.88146 0 
-1.32583 -2.88146 0 
-1.11369 -2.88146 0 
-0.901561 -2.88146 0 
-0.689429 -2.88146 0 
-0.477297 -2.88146 0 
-0.265165 -2.88146 0 
-0.053033 -2.88146 0 
0.159099 -2.88146 0 
0.371231 -2.88146 0 
0.583363 -2.88146 0 
0.795495 -2.88146 0 
1.00763 -2.88146 0 
1.21976 -2.88146 0 
1.43189 -2.88146 0 
1.64402 -2.88146 0 
1.85616 -2.88146 0 
2.06829 -2.88146 0 
2.28042 -2.88146 0 
2.49255 -2.88146 0 
2.70468 -2.88146 0 
2.91682 -2.88146 0 
3.12895 -2.88146 0 
3.34108 -2.88146 0 
3.55321 -2.88146 0 
3.76534 -2.88146 0 
3.97748 -2.88146 0 
4.18961 -2.88146 0 
4.40174 -2.88146 0 
4.61387 -2.88146 0 
4.826 -2.88146 0 
5.03814 -2.88146 0 
5.25027 -2.88146 0 
5.4624 -2.88146 0 
5.67453 -2.88146 0 
5.88666 -2.88146 0 
6.0988 -2.88146 0 
6.31093 -2.88146 0 
6.52306 -2.88146 0 
6.73519 -2.88146 0 
6.94732 -2.88146 0 
7.15946 -2.88146 0 
7.37159 -2.88146 0 
7.58372 -2.88146 0 
7.79585 -2.88146 0 
8.00798 -2.88146 0 
8.22012 -2.88146 0 
8.53831 -2.88146 0 
-8.53831 -2.74098 0 
-8.32646 -2.63755 0 
-8.10342 -2.65768 0 
-7.87478 -2.66912 0 
-7.6326 -2.68428 0 
-7.39334 -2.68032 0 
-7.15115 -2.68295 0 
-6.91412 -2.67811 0 
-6.68498 -2.66914 0 
-6.46177 -2.66668 0 
-6.23911 -2.66483 0 
-6.02193 -2.6657 0 
-5.8057 -2.66452 0 
-5.59026 -2.66545 0 
-5.37659 -2.66667 0 
-5.16236 -2.66417 0 
-4.95204 -2.66519 0 
-4.74526 -2.67206 0 
-4.53221 -2.67054 0 
-4.32144 -2.67259 0 
-4.11267 -2.67324 0 
-3.89795 -2.67158 0 
-3.69108 -2.67019 0 
-3.4833 -2.66994 0 
-3.27322 -2.67189 0 
-3.06224 -2.66885 0 
-2.85141 -2.66871 0 
-2.64062 -2.66885 0 
-2.43033 -2.67044 0 
-2.21814 -2.67364 0 
-2.00179 -2.66819 0 
-1.78758 -2.66544 0 
-1.5783 -2.66968 0 
-1.35983 -2.67053 0 
-1.1434 -2.66609 0 
-0.928633 -2.67406 0 
-0.706419 -2.66102 0 
-0.492639 -2.66721 0 
-0.278956 -2.67357 0 
-0.0472825 -2.66395 0 
0.173684 -2.6664 0 
0.381844 -2.6559 0 
0.592679 -2.65982 0 
0.814259 -2.67186 0 
1.03631 -2.67609 0 
1.25139 -2.67204 0 
1.47486 -2.67838 0 
1.69245 -2.67629 0 
1.90175 -2.66629 0 
2.11233 -2.66788 0 
2.3269 -2.67033 0 
2.53894 -2.66891 0 
2.74945 -2.66909 0 
2.96229 -2.66945 0 
3.17475 -2.67003 0 
3.38279 -2.66843 0 
3.59408 -2.67187 0 
3.80885 -2.67474 0 
4.01508 -2.66909 0 
4.234 -2.67794 0 
4.43958 -2.66792 0 
4.65943 -2.67889 0 
4.86644 -2.66875 0 
5.07607 -2.66886 0 
5.28398 -2.667 0 
5.49373 -2.66903 0 
5.70493 -2.67102 0 
5.91468 -2.67016 0 
6.12693 -2.67267 0 
6.3356 -2.66892 0 
6.54949 -2.67251 0 
6.75857 -2.66704 0 
6.97235 -2.66848 0 
7.18603 -2.6659 0 
7.40077 -2.66331 0 
7.61688 -2.66026 0 
7.83148 -2.65809 0 
8.04593 -2.64834 0 
8.29862 -2.71054 0 
8.53831 -2.66933 0 
-8.53831 -2.49986 0 
-8.14031 -2.4414 0 
-7.91398 -2.45232 0 
-7.69022 -2.48893 0 
-7.45128 -2.48836 0 
-7.37401 -2.3055 0 
-7.19918 -2.49602 0 
-6.94694 -2.48583 0 
-6.70617 -2.46649 0 
-6.4737 -2.4565 0 
-6.24801 -2.45608 0 
-6.02067 -2.45049 0 
-5.79883 -2.45138 0 
-5.58011 -2.45182 0 
-5.36032 -2.45523 0 
-5.14274 -2.44951 0 
-4.93132 -2.44842 0 
-4.71473 -2.46555 0 
-4.49459 -2.46332 0 
-4.28489 -2.46101 0 
-4.06074 -2.47261 0 
-3.85128 -2.45668 0 
-3.64263 -2.45661 0 
-3.42744 -2.46092 0 
-3.21568 -2.46073 0 
-2.99926 -2.45777 0 
-2.78409 -2.45711 0 
-2.57014 -2.45683 0 
-2.35461 -2.462 0 
-2.13885 -2.46601 0 
-1.91644 -2.45693 0 
-1.70189 -2.44749 0 
-1.48273 -2.46587 0 
-1.2622 -2.45768 0 
-1.03591 -2.45851 0 
-0.823141 -2.46113 0 
-0.590297 -2.44731 0 
-0.378664 -2.45021 0 
-0.153905 -2.47628 0 
-0.0561009 -2.27601 0 
0.0897189 -2.4567 0 
0.305149 -2.43024 0 
0.516837 -2.43122 0 
0.730744 -2.46027 0 
0.952264 -2.47251 0 
1.17117 -2.46375 0 
1.3972 -2.48024 0 
1.62334 -2.47349 0 
1.8358 -2.45366 0 
2.04961 -2.45149 0 
2.26128 -2.46095 0 
2.47671 -2.45718 0 
2.68949 -2.45455 0 
2.9004 -2.45974 0 
3.11686 -2.45958 0 
3.32873 -2.45203 0 
3.53722 -2.4606 0 
3.751 -2.47066 0 
3.96396 -2.4539 0 
4.17786 -2.47919 0 
4.39409 -2.4528 0 
4.60915 -2.4806 0 
4.82675 -2.45521 0 
5.03591 -2.45598 0 
5.24538 -2.45106 0 
5.45453 -2.4555 0 
5.66429 -2.45972 0 
5.87563 -2.4587 0 
6.08781 -2.46369 0 
6.29955 -2.45649 0 
6.51289 -2.46521 0 
6.72731 -2.45342 0 
6.94175 -2.45824 0 
7.15969 -2.45334 0 
7.37911 -2.4487 0 
7.59943 -2.44357 0 
7.82191 -2.43333 0 
8.06084 -2.44172 0 
8.29754 -2.49994 0 
8.53831 -2.4572 0 
-8.53831 -2.26752 0 
-8.33849 -2.37295 0 
-8.06793 -2.22902 0 
-7.84059 -2.24741 0 
-7.6267 -2.2876 0 
-7.26992 -2.12086 0 
-7.12481 -2.3087 0 
-6.88937 -2.28369 0 
-6.69457 -2.22206 0 
-6.5031 -2.25238 0 
-6.2747 -2.24513 0 
-6.05439 -2.2437 0 
-5.8308 -2.24006 0 
-5.61218 -2.23811 0 
-5.39755 -2.24411 0 
-5.18279 -2.24012 0 
-4.96596 -2.23158 0 
-4.755 -2.25304 0 
-4.54518 -2.26202 0 
-4.32744 -2.24526 0 
-4.11757 -2.27447 0 
-3.90294 -2.24463 0 
-3.69767 -2.23942 0 
-3.4915 -2.25147 0 
-3.28192 -2.24633 0 
-3.07462 -2.25064 0 
-2.85949 -2.24674 0 
-2.64772 -2.2445 0 
-2.4353 -2.24971 0 
-2.22449 -2.25291 0 
-2.01287 -2.25731 0 
-1.79576 -2.23521 0 
-1.57254 -2.24855 0 
-1.36493 -2.25032 0 
-1.14006 -2.2539 0 
-0.927408 -2.23501 0 
-0.713229 -2.25571 0 
-0.493905 -2.21793 0 
-0.271877 -2.25357 0 
-0.0518174 -2.05836 0 
0.157904 -2.22482 0 
0.371268 -2.20168 0 
0.58572 -2.21672 0 
0.79156 -2.25343 0 
0.996793 -2.25873 0 
1.20315 -2.2477 0 
1.41509 -2.28201 0 
1.61913 -2.25839 0 
1.83064 -2.2365 0 
2.03794 -2.23909 0 
2.25286 -2.24555 0 
2.46117 -2.24837 0 
2.67814 -2.2424 0 
2.89198 -2.24525 0 
3.10201 -2.25365 0 
3.32172 -2.23992 0 
3.5358 -2.24493 0 
3.74325 -2.26327 0 
3.96546 -2.25021 0 
4.18466 -2.27499 0 
4.39897 -2.24128 0 
4.60992 -2.27788 0 
4.81993 -2.24424 0 
5.03356 -2.24266 0 
5.23811 -2.23185 0 
5.44385 -2.24035 0 
5.65363 -2.24694 0 
5.86295 -2.24718 0 
6.07515 -2.25463 0 
6.28775 -2.24543 0 
6.50129 -2.25673 0 
6.71539 -2.24331 0 
6.93149 -2.24798 0 
7.14842 -2.24456 0 
7.36919 -2.23764 0 
7.59125 -2.22926 0 
7.82201 -2.22606 0 
8.05837 -2.23413 0 
8.2977 -2.28212 0 
8.53831 -2.24506 0 
-8.42283 -2.03341 0 
-8.26619 -2.14869 0 
-7.96971 -2.02596 0 
-7.74901 -2.03401 0 
-7.52366 -2.11177 0 
-7.39383 -1.93803 0 
-7.03953 -2.09865 0 
-6.84328 -2.02775 0 
-6.63309 -1.98679 0 
-6.42816 -2.04294 0 
-6.20651 -2.0307 0 
-5.98674 -2.0334 0 
-5.76742 -2.02745 0 
-5.55212 -2.0242 0 
-5.34152 -2.02954 0 
-5.1244 -2.02975 0 
-4.90349 -2.02393 0 
-4.69793 -2.04098 0 
-4.48739 -2.05459 0 
-4.28393 -2.01913 0 
-4.09283 -2.06729 0 
-3.88474 -2.02603 0 
-3.67471 -2.02501 0 
-3.46635 -2.03899 0 
-3.25673 -2.03073 0 
-3.03933 -2.0443 0 
-2.82222 -2.03564 0 
-2.60437 -2.0354 0 
-2.39187 -2.03729 0 
-2.17734 -2.04112 0 
-1.96269 -2.04506 0 
-1.72003 -2.03837 0 
-1.50951 -2.02588 0 
-1.28321 -2.05046 0 
-1.06904 -2.02817 0 
-0.838173 -2.02754 0 
-0.633157 -2.02832 0 
-0.440741 -1.94036 0 
-0.282776 -2.04336 0 
-0.0624677 -1.85076 0 
0.174448 -2.00532 0 
0.374002 -1.96038 0 
0.577195 -2.00064 0 
0.805108 -2.03106 0 
1.01522 -2.03701 0 
1.26141 -2.05577 0 
1.46113 -2.05183 0 
1.67631 -2.04258 0 
1.89288 -2.01591 0 
2.10771 -2.03057 0 
2.31463 -2.02665 0 
2.52579 -2.03796 0 
2.74179 -2.0311 0 
2.95104 -2.03081 0 
3.16178 -2.04467 0 
3.38183 -2.03041 0 
3.59148 -2.03195 0 
3.80095 -2.05948 0 
3.99588 -2.01395 0 
4.18154 -2.07107 0 
4.38601 -2.02455 0 
4.59999 -2.06771 0 
4.81916 -2.03724 0 
5.02273 -2.02201 0 
5.23549 -2.02054 0 
5.44982 -2.02389 0 
5.6569 -2.03291 0 
5.8652 -2.03242 0 
6.07391 -2.04455 0 
6.284 -2.0327 0 
6.49638 -2.04734 0 
6.71137 -2.03356 0 
6.92879 -2.03857 0 
7.14869 -2.03585 0 
7.3687 -2.02701 0 
7.59547 -2.02044 0 
7.82913 -2.01943 0 
8.07007 -2.02717 0 
8.30418 -2.06808 0 
8.53831 -2.03293 0 
-8.53831 -1.83101 0 
-8.30588 -1.80839 0 
-8.13614 -1.92053 0 
-7.86994 -1.80597 0 
-7.61926 -1.8667 0 
-7.35174 -1.73993 0 
-7.15019 -1.90601 0 
-6.94509 -1.8266 0 
-6.72806 -1.78459 0 
-6.48407 -1.80183 0 
-6.27872 -1.82461 0 
-6.04922 -1.82176 0 
-5.82713 -1.81933 0 
-5.60455 -1.81159 0 
-5.38652 -1.81109 0 
-5.17364 -1.82294 0 
-4.9518 -1.82309 0 
-4.72461 -1.81956 0 
-4.51884 -1.84136 0 
-4.28808 -1.8222 0 
-4.06054 -1.84628 0 
-3.84267 -1.8124 0 
-3.63333 -1.81127 0 
-3.42976 -1.82295 0 
-3.23335 -1.79848 0 
-3.04345 -1.83753 0 
-2.84633 -1.81143 0 
-2.64093 -1.82835 0 
-2.42309 -1.82266 0 
-2.21182 -1.82836 0 
-1.99652 -1.83066 0 
-1.77776 -1.85408 0 
-1.53842 -1.80412 0 
-1.32209 -1.84188 0 
-1.10304 -1.81079 0 
-0.881188 -1.82474 0 
-0.653879 -1.79264 0 
-0.441683 -1.7079 0 
-0.2303 -1.77714 0 
-0.0455004 -1.5765 0 
0.120987 -1.7706 0 
0.31973 -1.72287 0 
0.534441 -1.75234 0 
0.74271 -1.81642 0 
0.961241 -1.80767 0 
1.1836 -1.86834 0 
1.41212 -1.82017 0 
1.61678 -1.83164 0 
1.82645 -1.81345 0 
2.05836 -1.81459 0 
2.26756 -1.80585 0 
2.4766 -1.82053 0 
2.68589 -1.82426 0 
2.90272 -1.81422 0 
3.11476 -1.82761 0 
3.3239 -1.83158 0 
3.54893 -1.81744 0 
3.76405 -1.84069 0 
3.98609 -1.81067 0 
4.20907 -1.84445 0 
4.41999 -1.80241 0 
4.61433 -1.86328 0 
4.81405 -1.81375 0 
5.02516 -1.81003 0 
5.23647 -1.8071 0 
5.44885 -1.81316 0 
5.66263 -1.81717 0 
5.86933 -1.81642 0 
6.07737 -1.83111 0 
6.28859 -1.81945 0 
6.49936 -1.83722 0 
6.71351 -1.82157 0 
6.92887 -1.83015 0 
7.14689 -1.82535 0 
7.37088 -1.81777 0 
7.59551 -1.80826 0 
7.8222 -1.81209 0 
8.05786 -1.82445 0 
8.30549 -1.84995 0 
8.53831 -1.8208 0 
-8.53831 -1.61493 0 
-8.29993 -1.59948 0 
[...]
POINT_DATA 2220 
VECTORS vectors float
-6.07711e-05 -0.00102696 0.999999 
1.92918e-05 -0.0114908 0.999934 
-0.000121187 -0.013904 0.999903 
-6.54194e-05 -0.0140535 0.999901 
-8.30209e-05 -0.0129275 0.999916 
-7.61441e-05 -0.0113211 0.999936 
-7.83249e-05 -0.00970976 0.999953 
-7.78922e-05 -0.00813654 0.999967 
-7.82289e-05 -0.00653607 0.999979 
-7.79914e-05 -0.00490359 0.999988 
-7.82434e-05 -0.0032506 0.999995 
-7.78661e-05 -0.00157801 0.999999 
-7.82631e-05 0.000123729 1 
-7.79448e-05 0.00188665 0.999998 
-7.76936e-05 0.0037657 0.999993 
-7.76362e-05 0.00585448 0.999983 
-7.71488e-05 0.00826022 0.999966 
-7.60303e-05 0.0110932 0.999938 
-7.60267e-05 0.014521 0.999895 
-7.40279e-05 0.0187281 0.999825 
-7.28651e-05 0.0239353 0.999714 
-7.10054e-05 0.0304333 0.999537 
-6.80885e-05 0.0385682 0.999256 
-6.54203e-05 0.0487804 0.99881 
-6.1033e-05 0.0616097 0.9981 
-5.64309e-05 0.0777476 0.996973 
-5.00534e-05 0.0980194 0.995185 
-4.25148e-05 0.123449 0.992351 
-3.31946e-05 0.155277 0.987871 
-2.15109e-05 0.194963 0.980811 
-7.87826e-06 0.244215 0.969721 
8.1029e-06 0.304772 0.952425 
2.67181e-05 0.378204 0.925722 
4.45753e-05 0.465459 0.885069 
6.22282e-05 0.56588 0.824488 
7.2967e-05 0.675734 0.737146 
7.39927e-05 0.787592 0.616197 
6.41396e-05 0.888703 0.458484 
3.82045e-05 0.963762 0.266765 
9.08008e-06 0.998659 0.0517782 
-2.46564e-05 0.985885 -0.167424 
-5.3427e-05 0.92834 -0.371732 
-6.97937e-05 0.837479 -0.546469 
-7.47367e-05 0.728771 -0.684758 
-6.80019e-05 0.616628 -0.787255 
-5.30576e-05 0.511092 -0.859526 
-3.51173e-05 0.417415 -0.908716 
-1.63945e-05 0.33746 -0.94134 
7.14425e-07 0.270993 -0.962581 
1.54762e-05 0.216675 -0.976244 
2.80948e-05 0.172759 -0.984964 
3.84859e-05 0.13747 -0.990506 
4.67098e-05 0.109222 -0.994017 
5.37469e-05 0.0866805 -0.996236 
5.89741e-05 0.0687253 -0.997636 
6.32623e-05 0.0544404 -0.998517 
6.7518e-05 0.0430674 -0.999072 
6.87194e-05 0.0340167 -0.999421 
7.32988e-05 0.0267866 -0.999641 
7.22131e-05 0.0210012 -0.999779 
7.6394e-05 0.0163513 -0.999866 
7.5111e-05 0.0125731 -0.999921 
7.74605e-05 0.0094836 -0.999955 
7.7203e-05 0.00688821 -0.999976 
7.79479e-05 0.00466608 -0.999989 
7.82507e-05 0.00269852 -0.999996 
7.80297e-05 0.000896803 -1 
7.88228e-05 -0.00082503 -1 
7.79271e-05 -0.00251464 -0.999997 
7.89545e-05 -0.00419913 -0.999991 
7.78785e-05 -0.00587056 -0.999983 
7.85615e-05 -0.00751835 -0.999972 
7.79349e-05 -0.00914578 -0.999958 
7.83551e-05 -0.0107922 -0.999942 
7.40507e-05 -0.012525 -0.999922 
8.82505e-05 -0.0142525 -0.999898 
6.01872e-05 -0.01537 -0.999882 
9.40132e-05 -0.0153614 -0.999882 
8.18264e-05 -0.0136547 -0.999907 
2.17661e-05 -0.00147911 -0.999999 
-0.000107553 0.000417657 1 
0.00560785 -0.00818492 0.999951 
0.00734132 -0.012623 0.999893 
0.00788209 -0.0138076 0.999874 
0.00801437 -0.0134261 0.999878 
0.00829701 -0.0121129 0.999892 
0.00840618 -0.0103471 0.999911 
0.00861518 -0.00854394 0.999926 
0.00885178 -0.00682133 0.999938 
0.00893816 -0.00514413 0.999947 
0.00903907 -0.00344961 0.999953 
0.00907798 -0.00177286 0.999957 
0.0091268 -5.41005e-05 0.999958 
0.00912518 0.00173137 0.999957 
0.00910081 0.00362974 0.999952 
0.00913693 0.00574252 0.999942 
0.00909716 0.00811955 0.999926 
0.00889739 0.0108644 0.999901 
0.00880094 0.0142765 0.999859 
0.00860328 0.0184034 0.999794 
0.00838209 0.0234492 0.99969 
0.00812141 0.0299149 0.999519 
0.00782557 0.0376887 0.999259 
0.00741074 0.0474294 0.998847 
0.00685831 0.0597508 0.99819 
0.00629707 0.0752909 0.997142 
0.00558316 0.0947427 0.995486 
0.00474937 0.119091 0.992872 
0.00376954 0.14942 0.988767 
0.00262016 0.18754 0.982254 
0.00135607 0.235941 0.971766 
-3.76574e-05 0.294997 0.955498 
-0.00146295 0.364968 0.931019 
-0.00290943 0.452147 0.891939 
-0.00416622 0.552313 0.833626 
-0.0049014 0.662037 0.749455 
-0.00512952 0.778891 0.627138 
-0.00445796 0.881832 0.471543 
-0.00296629 0.959815 0.280618 
-0.000745798 0.998934 0.0461657 
0.0015145 0.983174 -0.182666 
0.00327696 0.92416 -0.381992 
0.00438425 0.83281 -0.553542 
0.00470404 0.719183 -0.694805 
0.00427751 0.602681 -0.797971 
0.0033114 0.497667 -0.867362 
0.00194102 0.401808 -0.915722 
0.000512597 0.322842 -0.946453 
-0.000876929 0.260047 -0.965596 
-0.00215921 0.208365 -0.978049 
-0.00332803 0.16575 -0.986162 
-0.00437139 0.131961 -0.991245 
-0.00524555 0.105077 -0.99445 
-0.00600155 0.0833595 -0.996501 
-0.00665091 0.0660875 -0.997792 
-0.00721399 0.05261 -0.998589 
-0.00760312 0.0416649 -0.999103 
-0.00794894 0.0327977 -0.99943 
-0.00834319 0.0259966 -0.999627 
-0.00843394 0.0201977 -0.99976 
-0.00881682 0.0158305 -0.999836 
-0.00875733 0.0120147 -0.999889 
-0.00908231 0.00907056 -0.999918 
-0.00915213 0.00655596 -0.999937 
-0.00923173 0.00440079 -0.999948 
-0.00922655 0.0024667 -0.999954 
-0.00921282 0.000673064 -0.999957 
-0.00923497 -0.0010231 -0.999957 
-0.00916831 -0.0026971 -0.999954 
-0.00920644 -0.00432121 -0.999948 
-0.00907935 -0.00597617 -0.999941 
-0.00909717 -0.00757661 -0.99993 
-0.008942 -0.0092272 -0.999917 
-0.00881253 -0.0109098 -0.999902 
-0.00861358 -0.0125847 -0.999884 
-0.00837955 -0.0140139 -0.999867 
-0.00797957 -0.0148708 -0.999858 
-0.00722064 -0.0147239 -0.999866 
-0.00475465 -0.011465 -0.999923 
0.000153098 0.000187869 -1 
0.000354067 -0.000384038 1 
0.00870841 -0.0132623 0.999874 
0.00986265 -0.0138504 0.999855 
0.0104716 -0.013476 0.999854 
0.0108779 -0.0124227 0.999864 
0.0110983 -0.0120076 0.999866 
0.0111103 -0.0106809 0.999881 
0.0113283 -0.00873104 0.999898 
0.0115019 -0.0068952 0.99991 
0.0116166 -0.00516865 0.999919 
0.0116714 -0.00347414 0.999926 
0.0117227 -0.00173316 0.99993 
0.0117858 2.26926e-05 0.999931 
0.011811 0.00185419 0.999929 
0.0117817 0.00384583 0.999923 
0.011763 0.00605295 0.999912 
0.0116968 0.00852416 0.999895 
0.0114976 0.0115028 0.999868 
0.0113314 0.0151962 0.99982 
0.0110916 0.0195304 0.999748 
0.0107189 0.0252594 0.999623 
0.0103638 0.0320115 0.999434 
0.00986388 0.040356 0.999137 
0.00925 0.0511211 0.99865 
0.00854437 0.064456 0.997884 
0.00770384 0.0815953 0.996636 
0.00673004 0.103022 0.994656 
0.00562657 0.12976 0.991529 
0.00436481 0.163438 0.986544 
0.00296293 0.205507 0.978651 
0.00143096 0.259518 0.965737 
-6.87598e-05 0.32359 0.946197 
-0.00169524 0.402516 0.915411 
-0.00301157 0.496608 0.86797 
-0.00406206 0.606647 0.794961 
-0.00453211 0.71773 0.696307 
-0.00412895 0.836563 0.547856 
-0.00327562 0.927303 0.374296 
-0.00184482 0.987669 0.156545 
-0.000933449 0.998465 0.0553712 
0.000228201 0.995273 -0.0971198 
0.00164146 0.949968 -0.312344 
0.00276576 0.867893 -0.496743 
0.00374186 0.762906 -0.646498 
0.00382677 0.646528 -0.762881 
0.00301013 0.535761 -0.844364 
0.00195571 0.434927 -0.900464 
0.000415083 0.347837 -0.937555 
-0.00113516 0.279789 -0.960061 
-0.00259964 0.224162 -0.974548 
-0.00394784 0.179218 -0.983801 
-0.00523212 0.14241 -0.989794 
-0.00636743 0.113301 -0.99354 
-0.00734774 0.0901735 -0.995899 
-0.0082266 0.0712632 -0.997424 
-0.00899159 0.0565829 -0.998357 
-0.00960643 0.0449923 -0.998941 
-0.0101317 0.035524 -0.999317 
-0.0106035 0.0279478 -0.999553 
-0.0109192 0.0219053 -0.9997 
-0.0112971 0.0169923 -0.999792 
-0.0114487 0.0130359 -0.999849 
-0.0117026 0.00976147 -0.999884 
-0.0118285 0.00714092 -0.999905 
-0.0119001 0.00486211 -0.999917 
-0.0119669 0.00286745 -0.999924 
-0.0119918 0.00103796 -0.999928 
-0.0119937 -0.000696714 -0.999928 
-0.0119427 -0.00237144 -0.999926 
-0.011917 -0.004001 -0.999921 
-0.0118088 -0.00563939 -0.999914 
-0.0117002 -0.00725623 -0.999905 
-0.011524 -0.00893432 -0.999894 
-0.0112907 -0.0106777 -0.999879 
-0.0109392 -0.0123828 -0.999863 
-0.0104683 -0.0137348 -0.999851 
-0.00975982 -0.0145122 -0.999847 
-0.0086765 -0.0147952 -0.999853 
-0.00626907 -0.0116771 -0.999912 
-0.000434314 -0.000187691 -1 
-9.15824e-05 0.00011832 1 
0.00661724 -0.0104767 0.999923 
0.00871661 -0.0142522 0.99986 
0.00974956 -0.0139048 0.999856 
0.0105424 -0.0133219 0.999856 
0.0108488 -0.0113703 0.999877 
0.0114181 -0.0101424 0.999883 
0.0115565 -0.00826976 0.999899 
0.0115775 -0.0067939 0.99991 
0.0117107 -0.00536284 0.999917 
0.0117796 -0.0036593 0.999924 
0.0118404 -0.00199147 0.999928 
0.0118949 -0.000228888 0.999929 
0.0119265 0.00160465 0.999928 
0.0119339 0.00355243 0.999922 
0.0118871 0.00572002 0.999913 
0.0117895 0.0082339 0.999897 
0.0116832 0.0110929 0.99987 
0.011505 0.01451 0.999829 
0.0111952 0.0188627 0.999759 
0.0109536 0.0240569 0.999651 
0.0104646 0.0306661 0.999475 
0.00996282 0.0385056 0.999209 
0.00940547 0.0482487 0.998791 
0.00870949 0.0606545 0.998121 
0.00795115 0.0759541 0.99708 
0.0070366 0.0957905 0.995377 
0.00604314 0.120269 0.992723 
0.00495988 0.150886 0.988539 
0.00380675 0.188642 0.982039 
0.00260039 0.235465 0.971879 
0.00146719 0.294618 0.955614 
0.00025653 0.368769 0.929521 
-0.000672463 0.450974 0.892537 
-0.0014502 0.554125 0.832432 
-0.00160749 0.662055 0.749454 
-0.00199458 0.774343 0.632763 
-0.00137941 0.880005 0.474962 
-0.00137949 0.961352 0.27532 
-0.000839832 0.99868 0.0513601 
-0.000542519 0.985781 -0.168033 
-0.000445176 0.926859 -0.375409 
5.70634e-05 0.834658 -0.550769 
0.000859299 0.730568 -0.68284 
0.000927628 0.622871 -0.782324 
0.000480979 0.521145 -0.853468 
0.000166829 0.426715 -0.904386 
-0.000895018 0.349619 -0.936892 
-0.00204323 0.282739 -0.959195 
-0.00309188 0.227918 -0.973675 
-0.00421042 0.18184 -0.983319 
-0.00528004 0.145749 -0.989307 
-0.00633003 0.115611 -0.993274 
-0.0072814 0.0918608 -0.995745 
-0.00813327 0.0731784 -0.997286 
-0.0088902 0.0576913 -0.998295 
-0.00955668 0.0456408 -0.998912 
-0.0101293 0.0362306 -0.999292 
-0.0106131 0.0283416 -0.999542 
-0.0110777 0.0220479 -0.999696 
-0.0113425 0.0171917 -0.999788 
-0.0116673 0.0132285 -0.999844 
-0.0118242 0.0100535 -0.99988 
-0.0119292 0.00728463 -0.999902 
-0.0120293 0.00503441 -0.999915 
-0.0121163 0.00302277 -0.999922 
-0.012172 0.00115575 -0.999925 
-0.0121267 -0.000587936 -0.999926 
-0.012123 -0.00227197 -0.999924 
-0.0119977 -0.00388994 -0.99992 
-0.0119298 -0.00551465 -0.999914 
-0.0117617 -0.00714884 -0.999905 
-0.0115886 -0.00885794 -0.999894 
-0.0112781 -0.0106158 -0.99988 
-0.010846 -0.012357 -0.999865 
-0.010237 -0.0136473 -0.999854 
-0.009451 -0.0144672 -0.999851 
-0.00835557 -0.0147624 -0.999856 
-0.00661116 -0.0118672 -0.999908 
-0.000166436 -0.000120124 -1 
0.00469471 -0.00914118 0.999947 
0.00713207 -0.0123269 0.999899 
0.00860544 -0.0144203 0.999859 
0.00951562 -0.0138426 0.999859 
0.0103619 -0.0130373 0.999861 
0.0101611 -0.0124186 0.999871 
0.0110786 -0.00949126 0.999894 
0.0110762 -0.0079133 0.999907 
0.0111005 -0.00632463 0.999918 
0.011353 -0.00480302 0.999924 
0.0114176 -0.00315569 0.99993 
0.0115029 -0.00147766 0.999933 
0.0115504 0.000294962 0.999933 
0.0115691 0.00216756 0.999931 
0.0115691 0.00416416 0.999924 
0.0115157 0.00646904 0.999913 
0.0113974 0.00918886 0.999893 
0.0112906 0.0121713 0.999862 
0.0111317 0.0158518 0.999812 
0.0107528 0.0201976 0.999738 
0.0105557 0.0250599 0.99963 
0.0100153 0.0317131 0.999447 
0.00950822 0.039985 0.999155 
0.00895992 0.0501614 0.998701 
0.00825468 0.062913 0.997985 
0.00753942 0.0796533 0.996794 
0.0066559 0.100277 0.994937 
0.00575731 0.126589 0.991939 
0.00483786 0.158568 0.987336 
0.00389957 0.198627 0.980067 
0.0029955 0.248209 0.968702 
0.00213333 0.317674 0.948198 
0.00166165 0.391418 0.920211 
0.00101952 0.48558 0.874192 
0.00111071 0.587309 0.809362 
0.00103113 0.707037 0.707176 
0.000865872 0.813521 0.581535 
0.00149044 0.901234 0.433331 
-4.51548e-05 0.957751 0.287599 
-0.000667741 0.99801 0.0630589 
-0.00188108 0.982542 -0.186032 
-0.00314436 0.924844 -0.380335 
-0.00293117 0.836972 -0.547237 
-0.00241458 0.720172 -0.693791 
-0.00211864 0.611039 -0.791598 
-0.00180756 0.492155 -0.870506 
-0.00203286 0.407424 -0.913237 
-0.00252843 0.329707 -0.94408 
-0.00326766 0.264689 -0.964328 
-0.00396269 0.211998 -0.977262 
-0.00476681 0.170732 -0.985306 
-0.00561857 0.136581 -0.990613 
-0.00648377 0.108556 -0.994069 
-0.00728114 0.0868035 -0.996199 
-0.00805571 0.0691798 -0.997572 
-0.00874115 0.0545647 -0.998472 
-0.00934776 0.0434375 -0.999012 
-0.00996477 0.0344939 -0.999355 
-0.0102632 0.0278072 -0.999561 
-0.0107492 0.0224391 -0.99969 
-0.0109343 0.0177443 -0.999783 
-0.0113228 0.0136158 -0.999843 
-0.0114593 0.0102222 -0.999882 
-0.0115668 0.00755714 -0.999905 
-0.011676 0.00515837 -0.999919 
-0.0117544 0.00302296 -0.999926 
-0.0118057 0.00114633 -0.99993 
-0.0117866 -0.000611023 -0.99993 
-0.0117662 -0.00227276 -0.999928 
-0.0116352 -0.00387681 -0.999925 
-0.0115574 -0.00547581 -0.999918 
-0.0113495 -0.00711724 -0.99991 
-0.0111468 -0.00883543 -0.999899 
-0.0108259 -0.0106651 -0.999885 
-0.0103746 -0.0124455 -0.999869 
-0.00974543 -0.0137554 -0.999858 
-0.0089281 -0.0145115 -0.999855 
-0.00781374 -0.0147631 -0.99986 
-0.00624386 -0.0117339 -0.999912 
-0.000212866 -0.000136128 -1 
-6.71217e-05 4.54024e-05 1 
0.00565678 -0.0118983 0.999913 
0.0074346 -0.0141671 0.999872 
0.00821579 -0.0143111 0.999864 
0.00934451 -0.0136659 0.999863 
0.00925613 -0.0121886 0.999883 
0.0103544 -0.0104628 0.999892 
0.0101969 -0.00875181 0.99991 
0.0101442 -0.00705967 0.999924 
0.0103873 -0.00524043 0.999932 
0.0106124 -0.00372014 0.999937 
0.0106892 -0.00198786 0.999941 
0.0107464 -0.000207724 0.999942 
0.0107385 0.00171853 0.999941 
0.0107261 0.00377722 0.999935 
0.0107394 0.00600928 0.999924 
0.0106374 0.00868285 0.999906 
0.0104498 0.011938 0.999874 
0.0103487 0.0154519 0.999827 
0.009972 0.0203744 0.999743 
0.00970666 0.0263462 0.999606 
0.00910177 0.0335702 0.999395 
0.00863809 0.0422684 0.999069 
0.00817454 0.0527367 0.998575 
0.00750936 0.0650598 0.997853 
0.0070644 0.0796441 0.996798 
0.00634592 0.0983618 0.99513 
0.00569182 0.122039 0.992509 
0.00496524 0.153469 0.988141 
0.0043304 0.191304 0.981521 
0.00377678 0.238926 0.97103 
0.00328484 0.298566 0.954383 
0.00343958 0.377854 0.925859 
0.00322455 0.466034 0.884761 
0.00388893 0.566334 0.824167 
0.00395197 0.681243 0.732046 
0.00431689 0.799123 0.601151 
0.00448939 0.898548 0.438852 
0.00152149 0.971228 0.238148 
-0.000596877 0.99895 0.045805 
-0.00304708 0.991148 -0.132728 
-0.00584633 0.942572 -0.333953 
-0.00687828 0.854149 -0.519983 
-0.00593663 0.750253 -0.661125 
-0.00566763 0.634299 -0.773067 
-0.00415185 0.525892 -0.850541 
-0.00428518 0.424016 -0.905644 
-0.00394368 0.348272 -0.937385 
-0.00407705 0.281924 -0.959428 
-0.00436461 0.222547 -0.974912 
-0.00481548 0.179147 -0.98381 
-0.00536715 0.143989 -0.989565 
-0.0060045 0.11549 -0.993291 
-0.00665555 0.0918114 -0.995754 
-0.0073409 0.0732211 -0.997289 
-0.00796868 0.0585273 -0.998254 
-0.00850004 0.0459286 -0.998909 
-0.00910312 0.03626 -0.999301 
-0.00944547 0.0284581 -0.99955 
-0.00999469 0.0220813 -0.999706 
-0.0100966 0.0172983 -0.999799 
-0.0106322 0.013566 -0.999851 
-0.0105728 0.0104588 -0.999889 
-0.0107118 0.00765156 -0.999913 
-0.010823 0.00524214 -0.999928 
-0.0108986 0.00308111 -0.999936 
-0.0109228 0.00110853 -0.99994 
-0.0109337 -0.000660108 -0.99994 
-0.0109207 -0.0023254 -0.999938 
-0.0107741 -0.00394391 -0.999934 
-0.0107349 -0.00552171 -0.999927 
-0.01048 -0.00715454 -0.999919 
-0.0103059 -0.00885859 -0.999908 
-0.0100022 -0.0107084 -0.999893 
-0.00958282 -0.0125741 -0.999875 
-0.00901857 -0.0139291 -0.999862 
-0.00828807 -0.0145967 -0.999859 
-0.00729362 -0.0148541 -0.999863 
-0.00573063 -0.0116244 -0.999916 
-0.000184837 -0.000128657 -1 
0.0002752 -0.000252357 1 
0.00503727 -0.0117428 0.999918 
0.00691589 -0.0146397 0.999869 
0.00730919 -0.0144181 0.999869 
0.00838824 -0.0137421 0.99987 
0.00789264 -0.0126999 0.999888 
0.00909449 -0.0104449 0.999904 
0.00884467 -0.00854981 0.999924 
0.00899757 -0.00661125 0.999938 
0.0090278 -0.00500289 0.999947 
0.00940549 -0.00336437 0.99995 
0.00944357 -0.00164233 0.999954 
0.00948655 0.00018514 0.999955 
0.00943872 0.00215025 0.999953 
0.00941008 0.00426059 0.999947 
0.00948845 0.00663333 0.999933 
0.00940872 0.00950056 0.999911 
0.0091156 0.0127147 0.999878 
0.00918167 0.0166399 0.999819 
0.00858556 0.0210644 0.999741 
0.00864214 0.0260872 0.999622 
0.00800154 0.0327158 0.999433 
0.00758631 0.0409985 0.99913 
0.00713484 0.0514088 0.998652 
0.00659197 0.0647802 0.997878 
0.00613534 0.081409 0.996662 
0.00557953 0.101807 0.994789 
0.00515307 0.127222 0.991861 
0.00472955 0.158442 0.987357 
0.00444818 0.197392 0.980314 
0.00432988 0.247999 0.968751 
0.00433584 0.311499 0.950237 
0.0053849 0.381045 0.924541 
0.0056452 0.46247 0.886617 
0.00700878 0.563421 0.82614 
0.0075222 0.678928 0.734166 
0.00830504 0.795054 0.606482 
0.00917336 0.886618 0.462412 
0.0043046 0.96246 0.271391 
-0.00571193 0.995348 -0.0961782 
-0.00585073 0.984688 -0.174228 
-0.010955 0.927135 -0.374568 
-0.0114518 0.846153 -0.532817 
-0.0102304 0.733228 -0.679906 
-0.00938635 0.618059 -0.786076 
-0.00693735 0.515975 -0.856576 
-0.00664176 0.424433 -0.905435 
-0.00558175 0.343864 -0.939003 
-0.00493769 0.270393 -0.962737 
-0.00482007 0.217862 -0.975968 
-0.00487886 0.175119 -0.984535 
-0.00514605 0.141004 -0.989996 
-0.00557244 0.11261 -0.993624 
-0.00600185 0.0898205 -0.99594 
-0.00651901 0.0719948 -0.997384 
-0.00715037 0.0569748 -0.99835 
-0.00751566 0.0448465 -0.998966 
-0.00810476 0.0356282 -0.999332 
-0.00817044 0.0285703 -0.999558 
-0.00881224 0.0227772 -0.999702 
-0.00878787 0.0179663 -0.9998 
-0.00932693 0.0136951 -0.999863 
-0.00926292 0.0102977 -0.999904 
-0.00938159 0.00749956 -0.999928 
-0.00950673 0.00501602 -0.999942 
-0.00959528 0.0028408 -0.99995 
-0.00957522 0.000926707 -0.999954 
-0.00958711 -0.000893804 -0.999954 
-0.00962355 -0.002574 -0.99995 
-0.0094041 -0.00415863 -0.999947 
-0.0094208 -0.00569342 -0.999939 
-0.00910261 -0.00727737 -0.999932 
-0.00898833 -0.00893457 -0.99992 
-0.00873514 -0.0108513 -0.999903 
-0.00834655 -0.0127149 -0.999884 
-0.00782948 -0.0140529 -0.999871 
-0.00723243 -0.0147461 -0.999865 
-0.00637792 -0.0148717 -0.999869 
-0.0050312 -0.0117101 -0.999919 
-0.000157677 -0.000132967 -1 
9.45806e-05 -8.72255e-05 1 
0.00424793 -0.0118236 0.999921 
0.00583796 -0.0147279 0.999874 
0.00599606 -0.0146824 0.999874 
0.00687347 -0.0138862 0.99988 
0.00656233 -0.0125506 0.9999 
0.00773176 -0.0108644 0.999911 
0.00747812 -0.00899625 0.999932 
0.00769161 -0.00712489 0.999945 
0.00759104 -0.00536039 0.999957 
0.00793422 -0.00365842 0.999962 
0.00804776 -0.00199668 0.999966 
0.00807761 -0.00014893 0.999967 
0.00804192 0.00181063 0.999966 
0.00799781 0.00395428 0.99996 
0.00808537 0.00631244 0.999947 
0.00812027 0.00895993 0.999927 
0.00778451 0.0121672 0.999896 
0.00783928 0.0161253 0.999839 
0.00733764 0.020892 0.999755 
0.00723897 0.0268765 0.999613 
0.00668326 0.0339767 0.9994 
0.00636651 0.042759 0.999065 
0.00601981 0.0536456 0.998542 
0.00553447 0.0665652 0.997767 
0.00529883 0.0817685 0.996637 
0.00489319 0.100831 0.994892 
0.004695 0.124831 0.992167 
0.00448956 0.154968 0.987909 
0.00451402 0.192184 0.981349 
0.00476193 0.238214 0.971201 
0.00530738 0.300309 0.953827 
0.00687543 0.374932 0.927027 
0.00837293 0.47112 0.88203 
0.0105896 0.58608 0.810184 
0.0120635 0.700478 0.713572 
0.0143493 0.803453 0.595196 
0.00975698 0.948314 0.317183 
0.00231146 0.992902 0.118913 
0.0107892 0.992871 0.118706 
-0.00598953 0.99822 -0.0593434 
-0.0143766 0.950655 -0.309917 
-0.0183668 0.852986 -0.52161 
-0.0155949 0.751696 -0.659325 
-0.0138295 0.634709 -0.772628 
-0.0101698 0.515536 -0.856808 
-0.00862074 0.414098 -0.910191 
-0.00654893 0.326276 -0.945252 
-0.00561525 0.263436 -0.964661 
-0.00503004 0.211337 -0.9774 
-0.00475958 0.170083 -0.985418 
-0.00479938 0.136591 -0.990616 
-0.00501161 0.109558 -0.993968 
-0.00524296 0.0879067 -0.996115 
-0.0056235 0.0709186 -0.997466 
-0.00614099 0.0571869 -0.998345 
-0.00632106 0.0461762 -0.998913 
-0.00682622 0.0368206 -0.999299 
-0.00691721 0.029205 -0.99955 
-0.00746682 0.0227741 -0.999713 
-0.00738958 0.017995 -0.999811 
-0.00799583 0.0140629 -0.999869 
-0.00787536 0.0107762 -0.999911 
-0.00797486 0.00788552 -0.999937 
-0.00812933 0.00535566 -0.999953 
-0.00819414 0.00306257 -0.999962 
-0.00813107 0.00104919 -0.999966 
-0.00817206 -0.000778554 -0.999966 