# vtk DataFile Version 3.0 
Exported using Morpho https://github.com/Morpho-lang/morpho 
ASCII 
DATASET UNSTRUCTURED_GRID 

POINTS 2205 float 
-8.32618 -2.88146 0 
-8.11405 -2.88146 0 
-7.90192 -2.88146 0 
-7.68979 -2.88146 0 
-7.47765 -2.88146 0 
-7.26552 -2.88146 0 
-7.05339 -2.88146 0 
-6.84126 -2.88146 0 
-6.62913 -2.88146 0 
-6.41699 -2.88146 0 
-6.20486 -2.88146 0 
-5.99273 -2.88146 0 
-5.7806 -2.88146 0 
-5.56847 -2.88146 0 
-5.35633 -2.88146 0 
-5.1442 -2.88146 0 
-4.93207 -2.88146 0 
-4.71994 -2.88146 0 
-4.50781 -2.88146 0 
-4.29567 -2.88146 0 
-4.08354 -2.88146 0 
-3.87141 -2.88146 0 
-3.65928 -2.88146 0 
-3.44715 -2.88146 0 
-3.23501 -2.88146 0 
-3.02288 -2.88146 0 
-2.81075 -2.88146 0 
-2.59862 -2.88146 0 
-2.38649 -2.88146 0 
-2.17435 -2.88146 0 
-1.96222 -2.88146 0 
-1.75009 -2.88146 0 
-1.53796 -2.88146 0 
-1.32583 -2.88146 0 
-1.11369 -2.88146 0 
-0.901561 -2.88146 0 
-0.689429 -2.88146 0 
-0.477297 -2.88146 0 
-0.265165 -2.88146 0 
-0.053033 -2.88146 0 
0.159099 -2.88146 0 
0.371231 -2.88146 0 
0.583363 -2.88146 0 
0.795495 -2.88146 0 
1.00763 -2.88146 0 
1.21976 -2.88146 0 
1.43189 -2.88146 0 
1.64402 -2.88146 0 
1.85616 -2.88146 0 
2.06829 -2.88146 0 
2.28042 -2.88146 0 
2.49255 -2.88146 0 
2.70468 -2.88146 0 
2.91682 -2.88146 0 
3.12895 -2.88146 0 
3.34108 -2.88146 0 
3.55321 -2.88146 0 
3.76534 -2.88146 0 
3.97748 -2.88146 0 
4.18961 -2.88146 0 
4.40174 -2.88146 0 
4.61387 -2.88146 0 
4.826 -2.88146 0 
5.03814 -2.88146 0 
5.25027 -2.88146 0 
5.4624 -2.88146 0 
5.67453 -2.88146 0 
5.88666 -2.88146 0 
6.0988 -2.88146 0 
6.31093 -2.88146 0 
6.52306 -2.88146 0 
6.73519 -2.88146 0 
6.94732 -2.88146 0 
7.15946 -2.88146 0 
7.37159 -2.88146 0 
7.58372 -2.88146 0 
7.79585 -2.88146 0 
8.00798 -2.88146 0 
8.22012 -2.88146 0 
8.53831 -2.88146 0 
-8.53831 -2.74122 0 
-8.31577 -2.65908 0 
-8.08463 -2.65415 0 
-7.85461 -2.66706 0 
-7.61868 -2.66942 0 
-7.38431 -2.66998 0 
-7.15547 -2.67556 0 
-6.92416 -2.67222 0 
-6.69932 -2.66904 0 
-6.47927 -2.6682 0 
-6.25867 -2.66968 0 
-6.04021 -2.67008 0 
-5.82011 -2.66987 0 
-5.60464 -2.67106 0 
-5.38575 -2.66624 0 
-5.17312 -2.66904 0 
-4.95746 -2.66848 0 
-4.74501 -2.67393 0 
-4.52666 -2.67403 0 
-4.31181 -2.67082 0 
-4.0981 -2.67086 0 
-3.88337 -2.66941 0 
-3.67376 -2.67474 0 
-3.45458 -2.66794 0 
-3.24612 -2.67129 0 
-3.03138 -2.66997 0 
-2.81921 -2.6739 0 
-2.59966 -2.66822 0 
-2.38929 -2.67107 0 
-2.17632 -2.6733 0 
-1.95984 -2.67129 0 
-1.74867 -2.6683 0 
-1.53524 -2.66713 0 
-1.32235 -2.66542 0 
-1.11207 -2.66461 0 
-0.894555 -2.66898 0 
-0.686336 -2.65794 0 
-0.469365 -2.66641 0 
-0.254907 -2.66252 0 
-0.0362774 -2.66756 0 
0.168178 -2.65609 0 
0.390119 -2.66755 0 
0.593056 -2.65313 0 
0.814134 -2.67045 0 
1.02619 -2.6663 0 
1.24347 -2.67197 0 
1.45345 -2.66904 0 
1.67704 -2.68009 0 
1.88304 -2.66691 0 
2.09571 -2.67057 0 
2.3109 -2.67307 0 
2.52172 -2.66931 0 
2.73548 -2.67135 0 
2.94673 -2.66977 0 
3.15886 -2.67003 0 
3.37234 -2.67163 0 
3.58687 -2.67322 0 
3.79995 -2.67178 0 
4.01354 -2.6717 0 
4.22463 -2.6693 0 
4.43637 -2.66916 0 
4.64817 -2.66799 0 
4.85914 -2.66762 0 
5.07163 -2.66883 0 
5.28264 -2.66834 0 
5.49511 -2.66953 0 
5.70645 -2.66993 0 
5.91749 -2.66949 0 
6.12767 -2.66866 0 
6.33776 -2.66787 0 
6.54651 -2.66623 0 
6.7577 -2.6669 0 
6.97034 -2.66744 0 
7.18437 -2.66651 0 
7.39788 -2.66373 0 
7.61271 -2.6606 0 
7.82861 -2.65442 0 
8.04961 -2.65168 0 
8.30417 -2.71866 0 
8.53831 -2.66933 0 
-8.53831 -2.49986 0 
-8.30036 -2.44539 0 
-8.05564 -2.43913 0 
-7.81231 -2.46816 0 
-7.5612 -2.47095 0 
-7.3211 -2.46573 0 
-7.08761 -2.47608 0 
-6.85724 -2.4642 0 
-6.63731 -2.45583 0 
-6.41613 -2.45902 0 
-6.20032 -2.45779 0 
-5.98005 -2.46289 0 
-5.76729 -2.4564 0 
-5.55251 -2.46193 0 
-5.33952 -2.45052 0 
-5.1268 -2.45823 0 
-4.91472 -2.45573 0 
-4.69782 -2.47008 0 
-4.48847 -2.46341 0 
-4.27706 -2.45967 0 
-4.06371 -2.46142 0 
-3.85755 -2.45381 0 
-3.6414 -2.47104 0 
-3.43616 -2.44995 0 
-3.22331 -2.46206 0 
-3.01124 -2.45786 0 
-2.79034 -2.47099 0 
-2.57863 -2.45364 0 
-2.36586 -2.46083 0 
-2.14791 -2.46777 0 
-1.93734 -2.45729 0 
-1.72258 -2.45584 0 
-1.50779 -2.45221 0 
-1.29864 -2.4445 0 
-1.07977 -2.45486 0 
-0.874411 -2.44545 0 
-0.673819 -2.4207 0 
-0.47545 -2.45203 0 
-0.277195 -2.42929 0 
-0.0718677 -2.45677 0 
0.143597 -2.4265 0 
0.352324 -2.45963 0 
0.57066 -2.42051 0 
0.778337 -2.45995 0 
0.993592 -2.45093 0 
1.20902 -2.46439 0 
1.42521 -2.45407 0 
1.6385 -2.48408 0 
1.85865 -2.44911 0 
2.06513 -2.45912 0 
2.27713 -2.46564 0 
2.49023 -2.45654 0 
2.70136 -2.46141 0 
2.91323 -2.45663 0 
3.1227 -2.45814 0 
3.33442 -2.46173 0 
3.54781 -2.46551 0 
3.76152 -2.46288 0 
3.97564 -2.46302 0 
4.18884 -2.45655 0 
4.3999 -2.45667 0 
4.61101 -2.45526 0 
4.82396 -2.45336 0 
5.03505 -2.45639 0 
5.24807 -2.45516 0 
5.45953 -2.45806 0 
5.67371 -2.45845 0 
5.88446 -2.45699 0 
6.09673 -2.45645 0 
6.307 -2.45339 0 
6.51797 -2.45079 0 
6.72753 -2.45254 0 
6.94184 -2.45541 0 
7.15821 -2.45433 0 
7.37837 -2.44874 0 
7.59806 -2.44389 0 
7.82065 -2.43549 0 
8.04993 -2.43571 0 
8.28783 -2.50992 0 
8.53831 -2.4572 0 
-8.53831 -2.26731 0 
-8.29607 -2.24003 0 
-8.05385 -2.22329 0 
-7.82437 -2.26098 0 
-7.5937 -2.28257 0 
-7.33414 -2.26803 0 
-7.08726 -2.27374 0 
-6.87052 -2.24869 0 
-6.65136 -2.24274 0 
-6.43142 -2.24983 0 
-6.20967 -2.24324 0 
-5.99501 -2.25659 0 
-5.77352 -2.24111 0 
-5.56247 -2.25029 0 
-5.34338 -2.24101 0 
-5.1283 -2.2458 0 
-4.91884 -2.23853 0 
-4.71337 -2.26354 0 
-4.49909 -2.24733 0 
-4.29667 -2.24819 0 
-4.08625 -2.25162 0 
-3.87607 -2.23546 0 
-3.67133 -2.26185 0 
-3.46523 -2.23282 0 
-3.25826 -2.24841 0 
-3.05011 -2.24648 0 
-2.83381 -2.26667 0 
-2.6194 -2.24469 0 
-2.40253 -2.24732 0 
-2.18998 -2.26087 0 
-1.97659 -2.24453 0 
-1.76306 -2.24541 0 
-1.54492 -2.24072 0 
-1.32728 -2.22409 0 
-1.11231 -2.24233 0 
-0.897247 -2.21814 0 
-0.689695 -2.18888 0 
-0.484996 -2.21792 0 
-0.264813 -2.21417 0 
-0.0474865 -2.23591 0 
0.16885 -2.20612 0 
0.38058 -2.24216 0 
0.593809 -2.19127 0 
0.795773 -2.24327 0 
1.01941 -2.2422 0 
1.23527 -2.25471 0 
1.44905 -2.24054 0 
1.65819 -2.27998 0 
1.86745 -2.23137 0 
2.07525 -2.24325 0 
2.28302 -2.2558 0 
2.4904 -2.23964 0 
2.69738 -2.24984 0 
2.90439 -2.24016 0 
3.11205 -2.24331 0 
3.32073 -2.2504 0 
3.53283 -2.25636 0 
3.74564 -2.25425 0 
3.95953 -2.25477 0 
4.17367 -2.24691 0 
4.38742 -2.24288 0 
4.5976 -2.24174 0 
4.80796 -2.24134 0 
5.02244 -2.24259 0 
5.23246 -2.24287 0 
5.44631 -2.24595 0 
5.65747 -2.24841 0 
5.87271 -2.24533 0 
6.08267 -2.24417 0 
6.29556 -2.24174 0 
6.50624 -2.23601 0 
6.71823 -2.23797 0 
6.92899 -2.2429 0 
7.14557 -2.24381 0 
7.36486 -2.23845 0 
7.58972 -2.22915 0 
7.82139 -2.22403 0 
8.06111 -2.22956 0 
8.29905 -2.29982 0 
8.53831 -2.24506 0 
-8.42033 -2.03878 0 
-8.18023 -2.03284 0 
-7.91021 -2.02873 0 
-7.69054 -2.05734 0 
-7.4567 -2.09597 0 
-7.35117 -1.92589 0 
-7.17581 -2.08333 0 
-6.94468 -2.03753 0 
-6.72179 -2.03011 0 
-6.49668 -2.03497 0 
-6.27853 -2.03674 0 
-6.05196 -2.03865 0 
-5.84056 -2.0409 0 
-5.61291 -2.03209 0 
-5.40231 -2.03949 0 
-5.17443 -2.03402 0 
-4.96127 -2.02911 0 
-4.73865 -2.04359 0 
-4.53367 -2.0445 0 
-4.31257 -2.0271 0 
-4.10864 -2.04255 0 
-3.89359 -2.02675 0 
-3.67486 -2.04529 0 
-3.45644 -2.0226 0 
-3.24689 -2.03301 0 
-3.04448 -2.02162 0 
-2.84824 -2.05975 0 
-2.64279 -2.02891 0 
-2.43409 -2.0404 0 
-2.21426 -2.04677 0 
-2.00679 -2.03374 0 
-1.79155 -2.03169 0 
-1.57615 -2.03164 0 
-1.35534 -2.01408 0 
-1.12713 -2.02494 0 
-0.909578 -1.99757 0 
-0.689733 -1.96358 0 
-0.479128 -1.98633 0 
-0.280197 -2.00321 0 
-0.0514807 -2.02088 0 
0.170779 -1.98862 0 
0.383431 -2.02361 0 
0.575554 -1.95314 0 
0.784792 -2.01167 0 
0.988094 -2.03867 0 
1.21831 -2.04213 0 
1.43274 -2.02922 0 
1.65421 -2.06706 0 
1.86057 -2.01232 0 
2.06991 -2.02725 0 
2.28023 -2.03983 0 
2.4899 -2.02399 0 
2.69883 -2.03291 0 
2.90757 -2.02392 0 
3.11825 -2.02903 0 
3.32736 -2.03573 0 
3.53573 -2.04641 0 
3.74474 -2.04064 0 
3.95443 -2.04616 0 
4.16366 -2.0326 0 
4.3723 -2.03373 0 
4.58677 -2.02671 0 
4.7963 -2.02724 0 
5.00712 -2.03226 0 
5.22237 -2.0284 0 
5.43236 -2.03463 0 
5.64636 -2.03677 0 
5.85765 -2.03632 0 
6.07322 -2.03212 0 
6.2834 -2.03011 0 
6.49642 -2.02489 0 
6.70961 -2.02455 0 
6.92331 -2.02936 0 
7.13708 -2.03277 0 
7.3569 -2.02857 0 
7.58061 -2.02038 0 
7.81104 -2.01809 0 
8.05178 -2.02292 0 
8.2958 -2.08541 0 
8.53831 -2.03293 0 
-8.53831 -1.831 0 
-8.30544 -1.81933 0 
-8.06149 -1.84918 0 
-7.8232 -1.80622 0 
-7.59738 -1.86268 0 
-7.36378 -1.73031 0 
-7.11365 -1.86388 0 
-6.87932 -1.82041 0 
-6.65177 -1.82206 0 
-6.43314 -1.81976 0 
-6.20991 -1.83245 0 
-5.99655 -1.81997 0 
-5.77797 -1.83722 0 
-5.56332 -1.81522 0 
-5.34374 -1.83954 0 
-5.12958 -1.81805 0 
-4.9049 -1.83135 0 
-4.70004 -1.82244 0 
-4.48674 -1.83792 0 
-4.27785 -1.8073 0 
-4.07038 -1.83149 0 
-3.86464 -1.80563 0 
-3.666 -1.84036 0 
-3.45772 -1.80889 0 
-3.24432 -1.81455 0 
-3.02523 -1.81661 0 
-2.80736 -1.83876 0 
-2.58759 -1.81732 0 
-2.36799 -1.83964 0 
-2.16232 -1.82325 0 
-1.94674 -1.82015 0 
-1.72896 -1.81776 0 
-1.51051 -1.81612 0 
-1.27021 -1.81375 0 
-1.05055 -1.80056 0 
-0.822006 -1.77204 0 
-0.579714 -1.7452 0 
-0.38283 -1.75135 0 
-0.168743 -1.81181 0 
-0.0551396 -1.59937 0 
0.0535165 -1.80197 0 
0.302806 -1.78865 0 
0.482744 -1.74331 0 
0.735217 -1.78206 0 
0.950991 -1.80537 0 
1.15872 -1.84298 0 
1.3866 -1.81664 0 
1.61515 -1.85797 0 
1.83794 -1.80873 0 
2.06245 -1.8107 0 
2.27304 -1.8252 0 
2.48793 -1.81515 0 
2.70719 -1.8169 0 
2.92095 -1.81132 0 
3.13076 -1.81409 0 
3.33683 -1.81723 0 
3.54158 -1.83212 0 
3.75316 -1.82801 0 
3.964 -1.83295 0 
4.17329 -1.81752 0 
4.38814 -1.82431 0 
4.59857 -1.81168 0 
4.81119 -1.81408 0 
5.02639 -1.82319 0 
5.23837 -1.81424 0 
5.45194 -1.82504 0 
5.66315 -1.82406 0 
5.87725 -1.82806 0 
6.08679 -1.81802 0 
6.29739 -1.8187 0 
6.51048 -1.81354 0 
6.72277 -1.81316 0 
6.93465 -1.8157 0 
7.15083 -1.82212 0 
7.37072 -1.81747 0 
7.59639 -1.81157 0 
7.83239 -1.81461 0 
8.06697 -1.81342 0 
8.29981 -1.87647 0 
8.53831 -1.8208 0 
-8.53831 -1.61491 0 
[...]
POINT_DATA 2205 
VECTORS vectors float
-1.87995e-05 -0.000476028 1 
7.3671e-05 -0.0108483 0.999941 
-4.69306e-05 -0.0132171 0.999913 
-1.33445e-05 -0.0132969 0.999912 
-1.08729e-05 -0.0123498 0.999924 
-1.45198e-05 -0.0109246 0.99994 
-1.42561e-05 -0.00943674 0.999955 
-1.32467e-05 -0.00798989 0.999968 
-1.40771e-05 -0.00656954 0.999978 
-1.36083e-05 -0.00514082 0.999987 
-1.41205e-05 -0.00369607 0.999993 
-1.39295e-05 -0.00223403 0.999998 
-1.29229e-05 -0.000744051 1 
-1.57139e-05 0.00078949 1 
-1.13862e-05 0.00242513 0.999997 
-1.61965e-05 0.0042241 0.999991 
-1.16376e-05 0.00627401 0.99998 
-1.4642e-05 0.00868813 0.999962 
-1.37261e-05 0.0115996 0.999933 
-1.19508e-05 0.0151931 0.999885 
-1.51836e-05 0.0196657 0.999807 
-9.48015e-06 0.0252845 0.99968 
-1.64901e-05 0.0323485 0.999477 
-7.77776e-06 0.0413258 0.999146 
-1.47736e-05 0.0526956 0.998611 
-7.23809e-06 0.0671455 0.997743 
-1.22966e-05 0.0854798 0.99634 
-6.97344e-06 0.10882 0.994061 
-5.25758e-06 0.138375 0.99038 
-7.36274e-06 0.175813 0.984424 
-1.2989e-06 0.223312 0.974747 
1.6341e-06 0.281243 0.959637 
1.69638e-06 0.35312 0.935578 
9.7017e-06 0.440006 0.897995 
5.45936e-06 0.541535 0.840678 
1.91705e-05 0.654511 0.756053 
5.69725e-06 0.771391 0.636361 
1.21117e-05 0.879131 0.476581 
8.12996e-06 0.960125 0.279572 
-7.67119e-06 0.998399 0.0565594 
1.0625e-05 0.985136 -0.171777 
-2.38519e-05 0.923379 -0.383889 
4.14765e-06 0.826755 -0.562562 
-2.31249e-05 0.712259 -0.701917 
-6.29082e-06 0.595908 -0.803052 
-9.67947e-06 0.48782 -0.872944 
-6.91292e-06 0.393516 -0.919318 
7.99608e-07 0.314247 -0.949341 
-1.58415e-06 0.249438 -0.968391 
4.87661e-06 0.197155 -0.980372 
6.19404e-06 0.155471 -0.98784 
6.29169e-06 0.122379 -0.992483 
9.99256e-06 0.0962117 -0.995361 
9.4787e-06 0.0755659 -0.997141 
1.1082e-05 0.0593086 -0.99824 
1.12448e-05 0.04652 -0.998917 
1.27585e-05 0.0364552 -0.999335 
1.17716e-05 0.0285168 -0.999593 
1.3687e-05 0.0222343 -0.999753 
1.24867e-05 0.0172423 -0.999851 
1.38004e-05 0.013246 -0.999912 
1.34947e-05 0.0100177 -0.99995 
1.32819e-05 0.00736718 -0.999973 
1.43291e-05 0.00514857 -0.999987 
1.32889e-05 0.00323756 -0.999995 
1.4079e-05 0.00152982 -0.999999 
1.37697e-05 -5.32635e-05 -1 
1.39889e-05 -0.00157475 -0.999999 
1.35722e-05 -0.00307329 -0.999995 
1.43444e-05 -0.00456274 -0.99999 
1.33957e-05 -0.00604905 -0.999982 
1.41138e-05 -0.00753084 -0.999972 
1.34564e-05 -0.00902549 -0.999959 
1.46273e-05 -0.0105826 -0.999944 
1.33749e-05 -0.0122117 -0.999925 
6.94906e-06 -0.013753 -0.999905 
4.02826e-05 -0.0146303 -0.999893 
-3.24493e-05 -0.0149657 -0.999888 
6.91839e-05 -0.0122413 -0.999925 
-7.37554e-05 -0.000871956 -1 
-1.10948e-05 0.000207691 1 
0.00542652 -0.00864138 0.999948 
0.00660943 -0.0110449 0.999917 
0.00745545 -0.0130859 0.999887 
0.00779902 -0.0127331 0.999889 
0.0079447 -0.0115449 0.999902 
0.00808612 -0.0100372 0.999917 
0.00819717 -0.00844068 0.999931 
0.0082618 -0.00692482 0.999942 
0.00833961 -0.00546432 0.99995 
0.00837843 -0.00399329 0.999957 
0.00842592 -0.00251557 0.999961 
0.00843032 -0.000993272 0.999964 
0.00847129 0.000552175 0.999964 
0.00846703 0.00222669 0.999962 
0.00846606 0.0040172 0.999956 
0.00839432 0.00608306 0.999946 
0.00834023 0.00847697 0.999929 
0.00824482 0.0114527 0.9999 
0.00813141 0.0150669 0.999853 
0.00802712 0.019543 0.999777 
0.00780237 0.0251988 0.999652 
0.00765093 0.032138 0.999454 
0.00735772 0.0413767 0.999117 
0.00708485 0.0525005 0.998596 
0.00671887 0.0670593 0.997726 
0.00635412 0.0853213 0.996333 
0.00588819 0.109444 0.993976 
0.00537689 0.138741 0.990314 
0.00481516 0.176173 0.984347 
0.00422968 0.223944 0.974593 
0.00369091 0.282516 0.959255 
0.00309528 0.355071 0.934834 
0.00256981 0.442291 0.896868 
0.00205096 0.542723 0.839909 
0.00139397 0.658354 0.752708 
0.00153705 0.772251 0.635315 
0.000702134 0.882488 0.470335 
0.000450289 0.962806 0.270193 
-5.00682e-05 0.999264 0.038369 
-0.000631534 0.983245 -0.182288 
-0.000635063 0.915407 -0.402528 
-0.0016949 0.820903 -0.571065 
-0.00122579 0.701504 -0.712664 
-0.00193636 0.585922 -0.810365 
-0.00219927 0.476931 -0.878938 
-0.0028746 0.385505 -0.922701 
-0.00327267 0.304206 -0.952601 
-0.00411741 0.243061 -0.970002 
-0.00466258 0.192165 -0.981352 
-0.00520234 0.151119 -0.988502 
-0.00572281 0.119164 -0.992858 
-0.00619094 0.0935911 -0.995591 
-0.00658248 0.0736027 -0.997266 
-0.00694993 0.0578087 -0.998303 
-0.00726087 0.045302 -0.998947 
-0.00752706 0.0354141 -0.999344 
-0.00775296 0.0276731 -0.999587 
-0.00795087 0.0215334 -0.999737 
-0.00809596 0.0167061 -0.999828 
-0.00823673 0.0128204 -0.999884 
-0.0083352 0.00967074 -0.999918 
-0.00841118 0.00708571 -0.99994 
-0.00846871 0.00489454 -0.999952 
-0.0085007 0.00301095 -0.999959 
-0.00852622 0.00131051 -0.999963 
-0.00852445 -0.000259659 -0.999964 
-0.00851945 -0.00176162 -0.999962 
-0.00850774 -0.00322659 -0.999959 
-0.00847487 -0.00467841 -0.999953 
-0.00842727 -0.00611755 -0.999946 
-0.00836385 -0.00758104 -0.999936 
-0.00826686 -0.00908743 -0.999925 
-0.00813229 -0.0106541 -0.99991 
-0.00795086 -0.0121922 -0.999894 
-0.00771888 -0.0135149 -0.999879 
-0.00728957 -0.0143209 -0.999871 
-0.00642731 -0.0135993 -0.999887 
-0.0055076 -0.0113476 -0.99992 
0.000118911 0.000348146 -1 
7.84405e-05 -0.000161356 1 
0.00514784 -0.00964257 0.99994 
0.00779055 -0.0124891 0.999892 
0.00861981 -0.013264 0.999875 
0.00925293 -0.0124177 0.99988 
0.00972206 -0.0111213 0.999891 
0.00988086 -0.00954262 0.999906 
0.0101662 -0.00791268 0.999917 
0.0104136 -0.00644133 0.999925 
0.0104934 -0.00498861 0.999932 
0.0105874 -0.00356225 0.999938 
0.0106109 -0.00208044 0.999942 
0.0107388 -0.000604268 0.999942 
0.0107043 0.000962133 0.999942 
0.010812 0.0026345 0.999938 
0.0107331 0.00449816 0.999932 
0.0106951 0.00660962 0.999921 
0.0104833 0.00917612 0.999903 
0.010465 0.0121832 0.999871 
0.0103543 0.015903 0.99982 
0.0101599 0.0205646 0.999737 
0.0100355 0.0262169 0.999606 
0.00957767 0.0336295 0.999388 
0.00954353 0.0425487 0.999049 
0.00909027 0.0542008 0.998489 
0.00880754 0.0689189 0.997583 
0.00830099 0.0884522 0.996046 
0.00820369 0.112221 0.993649 
0.00783489 0.142513 0.989762 
0.00751486 0.18173 0.98332 
0.00759381 0.229278 0.973331 
0.00767649 0.289717 0.957081 
0.00797813 0.363987 0.93137 
0.00856666 0.450842 0.892563 
0.00857566 0.556963 0.830493 
0.00897466 0.667079 0.744933 
0.00929041 0.776404 0.630167 
0.00686047 0.877666 0.479224 
0.00486904 0.955529 0.294856 
0.000970531 0.997013 0.0772218 
-0.00291538 0.987395 -0.15825 
-0.00570045 0.929097 -0.369791 
-0.00893296 0.829379 -0.558615 
-0.008581 0.718941 -0.695018 
-0.00897917 0.600452 -0.79961 
-0.0082426 0.491147 -0.871038 
-0.00813527 0.394856 -0.918707 
-0.00719311 0.316603 -0.948531 
-0.00779895 0.248745 -0.968538 
-0.00764246 0.198534 -0.980064 
-0.00771729 0.157188 -0.987539 
-0.00806596 0.123512 -0.99231 
-0.00832602 0.0976562 -0.995185 
-0.00867225 0.0766929 -0.997017 
-0.00898817 0.0605286 -0.998126 
-0.00927196 0.047611 -0.998823 
-0.00953303 0.0373354 -0.999257 
-0.00982134 0.0291894 -0.999526 
-0.0100418 0.0227453 -0.999691 
-0.0102962 0.0176364 -0.999791 
-0.0104459 0.013587 -0.999853 
-0.0105814 0.010305 -0.999891 
-0.0107045 0.00758388 -0.999914 
-0.0107472 0.00531948 -0.999928 
-0.0108227 0.00335178 -0.999936 
-0.0108213 0.00161277 -0.99994 
-0.0108306 -6.60157e-06 -0.999941 
-0.0108351 -0.00151534 -0.99994 
-0.0107984 -0.00298824 -0.999937 
-0.010768 -0.00442685 -0.999932 
-0.0107069 -0.00586551 -0.999925 
-0.0105619 -0.00730818 -0.999918 
-0.0103547 -0.00882946 -0.999907 
-0.0101233 -0.0104198 -0.999894 
-0.00983358 -0.0119834 -0.99988 
-0.00941241 -0.0132933 -0.999867 
-0.0087595 -0.014187 -0.999861 
-0.00752939 -0.0135334 -0.99988 
-0.00460194 -0.0106954 -0.999932 
-0.000177928 -0.000150993 -1 
-5.17733e-05 -6.91902e-05 1 
0.00577123 -0.00986277 0.999935 
0.00840152 -0.0132336 0.999877 
0.00950371 -0.0134647 0.999864 
0.0102068 -0.0126058 0.999868 
0.0106755 -0.0112551 0.99988 
0.0109669 -0.00952696 0.999894 
0.0111525 -0.00800869 0.999906 
0.0112731 -0.00650948 0.999915 
0.0114042 -0.00506361 0.999922 
0.0115034 -0.00360904 0.999927 
0.011596 -0.00217665 0.99993 
0.0116405 -0.000647101 0.999932 
0.0116569 0.000895568 0.999932 
0.0116953 0.00263455 0.999928 
0.0116392 0.00452395 0.999922 
0.0116272 0.00665619 0.99991 
0.0115544 0.00907499 0.999892 
0.0114281 0.0121318 0.999861 
0.0112821 0.015653 0.999814 
0.0110998 0.0201614 0.999735 
0.0108914 0.0257936 0.999608 
0.0106899 0.0326689 0.999409 
0.0104303 0.0412005 0.999096 
0.0102196 0.052184 0.998585 
0.00999872 0.0658018 0.997783 
0.00981235 0.0841159 0.996408 
0.00979246 0.106559 0.994258 
0.00987369 0.135839 0.990682 
0.0100462 0.172099 0.985028 
0.0108268 0.217433 0.976015 
0.0117711 0.27426 0.961584 
0.0132412 0.345889 0.938182 
0.0154679 0.432378 0.90156 
0.016431 0.534648 0.844915 
0.0186337 0.646733 0.762489 
0.019785 0.761505 0.647857 
0.0156638 0.869168 0.494269 
0.00988258 0.95804 0.286463 
0.00165236 0.99866 0.0517202 
-0.00715077 0.98212 -0.188121 
-0.0127022 0.915535 -0.402038 
-0.0191072 0.812303 -0.582922 
-0.0177719 0.702508 -0.711454 
-0.0172322 0.580455 -0.81411 
-0.0152802 0.473441 -0.880693 
-0.0140454 0.381591 -0.924224 
-0.0116753 0.306752 -0.951718 
-0.0115499 0.24391 -0.969729 
-0.0105681 0.19451 -0.980844 
-0.00999116 0.154806 -0.987894 
-0.0098892 0.122837 -0.992378 
-0.00980028 0.0976203 -0.995175 
-0.00992943 0.0774978 -0.996943 
-0.0100569 0.0612168 -0.998074 
-0.0102822 0.0484375 -0.998773 
-0.0105459 0.0381695 -0.999216 
-0.0107572 0.0298641 -0.999496 
-0.0109943 0.0233598 -0.999667 
-0.0111533 0.0180923 -0.999774 
-0.011322 0.0139317 -0.999839 
-0.0114583 0.0106048 -0.999878 
-0.0115704 0.00785859 -0.999902 
-0.011655 0.00550887 -0.999917 
-0.0117169 0.00352819 -0.999925 
-0.011752 0.001736 -0.999929 
-0.0117595 0.000116382 -0.999931 
-0.011732 -0.00143488 -0.99993 
-0.011677 -0.00288941 -0.999928 
-0.011595 -0.00433725 -0.999923 
-0.01148 -0.0057642 -0.999917 
-0.0113415 -0.0072189 -0.99991 
-0.0111642 -0.0087241 -0.9999 
-0.010901 -0.0103383 -0.999887 
-0.0105176 -0.0119075 -0.999874 
-0.00994446 -0.0131748 -0.999864 
-0.00919946 -0.0141226 -0.999858 
-0.00803435 -0.0135653 -0.999876 
-0.0055586 -0.0109203 -0.999925 
6.96646e-05 -2.77043e-05 -1 
0.00330607 -0.0103811 0.999941 
0.00673293 -0.0116433 0.99991 
0.00840453 -0.0138964 0.999868 
0.00924498 -0.0131829 0.99987 
0.00998549 -0.012091 0.999877 
0.0095452 -0.0115869 0.999887 
0.0103773 -0.0102363 0.999894 
0.0104483 -0.00854209 0.999909 
0.0106121 -0.00698203 0.999919 
0.0107888 -0.00548906 0.999927 
0.0109225 -0.0040673 0.999932 
0.0110336 -0.00257249 0.999936 
0.0111176 -0.00113131 0.999938 
0.0111333 0.000511725 0.999938 
0.0111884 0.00215786 0.999935 
0.0111513 0.00412971 0.999929 
0.0111039 0.00623998 0.999919 
0.0110812 0.00882395 0.9999 
0.0109903 0.0116733 0.999871 
0.0107956 0.0154305 0.999823 
0.0107018 0.0196987 0.999749 
0.0104644 0.0252729 0.999626 
0.0103719 0.0324945 0.999418 
0.0101712 0.041539 0.999085 
0.0101028 0.0525085 0.998569 
0.0100913 0.065727 0.997787 
0.0102032 0.0819617 0.996583 
0.0105324 0.102817 0.994644 
0.0110516 0.129373 0.991534 
0.0119888 0.164843 0.986247 
0.0135395 0.20648 0.978357 
0.0157059 0.260558 0.965331 
0.0185271 0.327695 0.944602 
0.0225841 0.411129 0.911297 
0.0260044 0.515811 0.856308 
0.0303187 0.629256 0.776607 
0.0330491 0.751602 0.658788 
0.0276908 0.865528 0.500094 
0.0180047 0.950552 0.310044 
0.00322611 0.998322 0.0578116 
-0.0123821 0.980692 -0.195165 
-0.0224361 0.910021 -0.413955 
-0.0330363 0.812645 -0.581822 
-0.030753 0.698377 -0.715069 
-0.027583 0.587455 -0.808786 
-0.0240354 0.472158 -0.881186 
-0.020959 0.379509 -0.924951 
-0.0167096 0.302176 -0.953106 
-0.0153252 0.240589 -0.970506 
-0.0131641 0.192082 -0.981291 
-0.0117293 0.152821 -0.988184 
-0.0109632 0.121195 -0.992568 
-0.0104158 0.0962996 -0.995298 
-0.0101809 0.0764262 -0.997023 
-0.0101092 0.0605673 -0.998113 
-0.0101297 0.0478538 -0.998803 
-0.0102796 0.0379224 -0.999228 
-0.010432 0.0299743 -0.999496 
-0.0105842 0.0235082 -0.999668 
-0.010728 0.0184373 -0.999772 
-0.0108604 0.0142907 -0.999839 
-0.010959 0.0108428 -0.999881 
-0.0110612 0.0080644 -0.999906 
-0.0111564 0.00571248 -0.999921 
-0.011196 0.00364715 -0.999931 
-0.0112453 0.00185654 -0.999935 
-0.0112509 0.000191209 -0.999937 
-0.011219 -0.00134555 -0.999936 
-0.0111441 -0.00284225 -0.999934 
-0.0110511 -0.00426686 -0.99993 
-0.0109122 -0.00570396 -0.999924 
-0.010752 -0.00716296 -0.999917 
-0.0105642 -0.00869733 -0.999906 
-0.0103071 -0.0103193 -0.999894 
-0.00990684 -0.0119328 -0.99988 
-0.00933627 -0.0132133 -0.999869 
-0.00857322 -0.0141222 -0.999864 
-0.00747634 -0.0137046 -0.999878 
-0.00545369 -0.0109011 -0.999926 
9.48231e-06 -4.54871e-05 -1 
-3.45005e-05 -8.34412e-05 1 
0.00470866 -0.0102445 0.999936 
0.00703897 -0.0136219 0.999882 
0.00785819 -0.0138695 0.999873 
0.00875947 -0.0129403 0.999878 
0.00860515 -0.0117416 0.999894 
0.00957947 -0.00984471 0.999906 
0.0095873 -0.00809483 0.999921 
0.00979864 -0.00653119 0.999931 
0.00993563 -0.00509573 0.999938 
0.0101328 -0.00364335 0.999942 
0.0101655 -0.00222801 0.999946 
0.010343 -0.000714199 0.999946 
0.0102454 0.000874165 0.999947 
0.0104135 0.00265009 0.999942 
0.0102629 0.00456474 0.999937 
0.0103104 0.00688328 0.999923 
0.010203 0.00936526 0.999904 
0.0102046 0.0124621 0.99987 
0.00992647 0.0160992 0.999821 
0.00995103 0.0206299 0.999738 
0.009727 0.0260841 0.999612 
0.00978195 0.0326564 0.999419 
0.00964938 0.041187 0.999105 
0.00969764 0.0520144 0.998599 
0.00993947 0.0662997 0.99775 
0.0103933 0.0843137 0.996385 
0.0112075 0.106842 0.994213 
0.0124199 0.13622 0.990601 
0.0143196 0.169884 0.98536 
0.0170579 0.214221 0.976636 
0.0208553 0.270252 0.962564 
0.025792 0.340066 0.940048 
0.032348 0.434974 0.899862 
0.0393033 0.538514 0.841699 
0.0465313 0.660322 0.74954 
0.049101 0.79732 0.601557 
0.0404351 0.90128 0.431347 
0.0178621 0.980085 0.197771 
0.00935831 0.997599 0.0686136 
-0.00656054 0.997836 -0.065429 
-0.0320042 0.936437 -0.349374 
-0.0472757 0.849121 -0.526078 
-0.0474977 0.709258 -0.703347 
-0.0421005 0.58993 -0.806356 
-0.0343855 0.487216 -0.872604 
-0.0292218 0.385111 -0.922407 
-0.0223738 0.305863 -0.951813 
-0.0190707 0.239481 -0.970714 
-0.015617 0.188294 -0.981988 
-0.0132579 0.15028 -0.988555 
-0.0117754 0.119007 -0.992824 
-0.0107149 0.0934627 -0.995565 
-0.0101258 0.074051 -0.997203 
-0.00981903 0.0589069 -0.998215 
-0.00970174 0.0470037 -0.998848 
-0.00970664 0.0373728 -0.999254 
-0.00976932 0.0295218 -0.999516 
-0.00988795 0.0232318 -0.999681 
-0.00993765 0.0182111 -0.999785 
-0.0100784 0.0140408 -0.999851 
-0.0101172 0.0107095 -0.999891 
-0.0102132 0.00792193 -0.999916 
-0.0103248 0.00554276 -0.999931 
-0.0103256 0.00351532 -0.999941 
-0.0103974 0.00169399 -0.999945 
-0.0103828 4.52015e-05 -0.999946 
-0.0103623 -0.00151424 -0.999945 
-0.0102436 -0.00296932 -0.999943 
-0.0101493 -0.00439241 -0.999939 
-0.0099937 -0.00582588 -0.999933 
-0.00982886 -0.00728047 -0.999925 
-0.00963451 -0.00881376 -0.999915 
-0.00939908 -0.0104735 -0.999901 
-0.00902448 -0.0121045 -0.999886 
-0.00849663 -0.0134035 -0.999874 
-0.00777317 -0.0142894 -0.999868 
-0.00672844 -0.0136336 -0.999884 
-0.00497997 -0.0108771 -0.999928 
1.28258e-05 -4.25819e-05 -1 
5.08017e-05 -8.86316e-05 1 
0.0043196 -0.0107785 0.999933 
0.00620872 -0.0135087 0.999889 
0.00685455 -0.0140095 0.999878 
0.00773163 -0.0130666 0.999885 
0.00744491 -0.0117246 0.999904 
0.00852123 -0.00999758 0.999914 
0.00841951 -0.00833542 0.99993 
0.00860884 -0.00674116 0.99994 
0.00869368 -0.00524497 0.999948 
0.0089579 -0.0038202 0.999953 
0.00891886 -0.00235638 0.999957 
0.00914394 -0.000862294 0.999958 
0.00904016 0.000717312 0.999959 
0.00924389 0.00245858 0.999954 
0.00908811 0.00436423 0.999949 
0.00921876 0.00656181 0.999936 
0.00898133 0.00914632 0.999918 
0.00906078 0.0121358 0.999885 
0.00882112 0.0158333 0.999836 
0.00883369 0.0204168 0.999753 
0.00871152 0.0259868 0.999624 
0.00880056 0.0330254 0.999416 
0.0088233 0.04216 0.999072 
0.0090965 0.053498 0.998527 
0.0095221 0.0668861 0.997715 
0.0102757 0.0832892 0.996472 
0.0112076 0.100504 0.994874 
0.012712 0.124572 0.992129 
0.0150584 0.154505 0.987877 
0.0183322 0.19243 0.98114 
0.0230108 0.241006 0.970251 
0.0293437 0.301693 0.952953 
0.0371086 0.381363 0.92368 
0.0484297 0.47662 0.877774 
0.0596478 0.58646 0.807779 
0.0692207 0.720383 0.690114 
0.0452465 0.950046 0.308814 
0.0482925 0.980875 0.188554 
-0.0227207 0.995333 -0.0937832 
-0.0299315 0.976059 -0.215436 
-0.0666453 0.901992 -0.426577 
-0.0690408 0.775577 -0.627465 
-0.0648751 0.644368 -0.761959 
-0.0543981 0.532586 -0.844626 
-0.0430213 0.442087 -0.89594 
-0.0364339 0.35843 -0.932845 
-0.0274317 0.296719 -0.954571 
-0.0222736 0.232277 -0.972395 
-0.0174718 0.181884 -0.983165 
-0.0141673 0.143062 -0.989612 
-0.0119744 0.112512 -0.993578 
-0.0105647 0.0890435 -0.995972 
-0.00966763 0.0707802 -0.997445 
-0.00914509 0.056546 -0.998358 
-0.00887164 0.0452167 -0.998938 
-0.00883635 0.0359578 -0.999314 
-0.00880111 0.0283557 -0.999559 
-0.00883586 0.0224434 -0.999709 
-0.00886699 0.0174233 -0.999809 
-0.00893712 0.0135295 -0.999869 
-0.00896344 0.0102307 -0.999907 
-0.00906869 0.00747614 -0.999931 
-0.00913313 0.00520963 -0.999945 
-0.00914536 0.00316633 -0.999953 
-0.00918511 0.00140238 -0.999957 
-0.00919178 -0.000257876 -0.999958 
-0.00911875 -0.00175768 -0.999957 
-0.00900345 -0.00321134 -0.999954 
-0.00890898 -0.00462947 -0.99995 
-0.00874427 -0.00604962 -0.999943 
-0.0085628 -0.00748963 -0.999935 
-0.00840027 -0.00904749 -0.999924 
-0.00818375 -0.0107126 -0.999909 
-0.00784746 -0.0123368 -0.999893 
-0.00740672 -0.0136348 -0.99988 
-0.00677829 -0.0144471 -0.999873 
-0.00585615 -0.0135341 -0.999891 
-0.0043452 -0.0109933 -0.99993 
9.63273e-06 -4.0289e-05 -1 
-3.1537e-05 1.94917e-05 1 
0.00365037 -0.0109083 0.999934 
0.00529161 -0.0135556 0.999894 
0.00576368 -0.0140917 0.999884 
0.00656615 -0.013145 0.999892 
0.00622596 -0.0118069 0.999911 
0.00721477 -0.0100285 0.999924 
0.00710434 -0.00829528 0.99994 
0.00732377 -0.00674321 0.99995 
0.00738349 -0.00527639 0.999959 
0.00763541 -0.00385322 0.999963 
0.00759722 -0.00241887 0.999968 
0.00781454 -0.000915632 0.999969 
0.00773338 0.000705088 0.99997 
0.00793387 0.00248039 0.999965 
0.00781735 0.0044874 0.999959 
0.00793176 0.00675999 0.999946 
0.0076958 0.00935029 0.999927 
0.00779633 0.0123199 0.999894 
0.00748924 0.0156739 0.999849 
0.00766622 0.0197329 0.999776 
0.007533 0.0248383 0.999663 
0.00772175 0.0312376 0.999482 
0.00784933 0.039136 0.999203 
0.00815938 0.0497401 0.998729 
0.00862124 0.0618931 0.998046 
0.00958288 0.0774394 0.996951 
0.0110023 0.0975079 0.995174 
0.0133226 0.124407 0.992142 
0.016521 0.154442 0.987864 
0.0210251 0.193102 0.980953 
0.0274457 0.241233 0.970079 
0.0365318 0.305876 0.95137 
0.048047 0.384522 0.921864 
0.0652046 0.478025 0.875923 
0.0830094 0.600623 0.795212 
0.103795 0.727089 0.678652 
0.075114 0.845408 0.528813 
0.103838 0.886649 0.450635 
0.0632668 0.990798 0.119653 
-0.0921794 0.98053 -0.173392 
-0.0856428 0.939306 -0.33222 
-0.100843 0.785593 -0.61047 
-0.0899235 0.645312 -0.758608 
-0.0720887 0.517866 -0.852419 
-0.0545421 0.419182 -0.906262 
-0.042605 0.334755 -0.941341 
-0.0313392 0.277762 -0.960139 
-0.0253817 0.223961 -0.974268 
-0.0195253 0.181586 -0.983181 
-0.015213 0.142822 -0.989631 
-0.0123903 0.11379 -0.993428 
-0.0104405 0.0898522 -0.9959 
-0.00918462 0.0715396 -0.997395 
-0.00839728 0.05717 -0.998329 
-0.00794264 0.0458269 -0.998918 
-0.00779698 0.0367472 -0.999294 
-0.00771586 0.0293877 -0.999538 
-0.00763317 0.0231843 -0.999702 
-0.00768131 0.0183183 -0.999803 
-0.00765799 0.0141578 -0.99987 
-0.0077102 0.0108645 -0.999911 
-0.00778917 0.0079851 -0.999938 
-0.00780771 0.00558523 -0.999954 
-0.00786604 0.0035459 -0.999963 
-0.00784396 0.00165611 -0.999968 
-0.00788901 -5.35738e-06 -0.999969 
-0.00777817 -0.00157287 -0.999969 
-0.0076992 -0.00302026 -0.999966 
-0.0076128 -0.00445627 -0.999961 
-0.00746469 -0.00587403 -0.999955 