# vtk DataFile Version 3.0 
Exported using Morpho https://github.com/Morpho-lang/morpho 
ASCII 
DATASET UNSTRUCTURED_GRID 

POINTS 2176 float 
-8.32618 -2.88146 0 
-8.11405 -2.88146 0 
-7.90192 -2.88146 0 
-7.68979 -2.88146 0 
-7.47765 -2.88146 0 
-7.26552 -2.88146 0 
-7.05339 -2.88146 0 
-6.84126 -2.88146 0 
-6.62913 -2.88146 0 
-6.41699 -2.88146 0 
-6.20486 -2.88146 0 
-5.99273 -2.88146 0 
-5.7806 -2.88146 0 
-5.56847 -2.88146 0 
-5.35633 -2.88146 0 
-5.1442 -2.88146 0 
-4.93207 -2.88146 0 
-4.71994 -2.88146 0 
-4.50781 -2.88146 0 
-4.29567 -2.88146 0 
-4.08354 -2.88146 0 
-3.87141 -2.88146 0 
-3.65928 -2.88146 0 
-3.44715 -2.88146 0 
-3.23501 -2.88146 0 
-3.02288 -2.88146 0 
-2.81075 -2.88146 0 
-2.59862 -2.88146 0 
-2.38649 -2.88146 0 
-2.17435 -2.88146 0 
-1.96222 -2.88146 0 
-1.75009 -2.88146 0 
-1.53796 -2.88146 0 
-1.32583 -2.88146 0 
-1.11369 -2.88146 0 
-0.901561 -2.88146 0 
-0.689429 -2.88146 0 
-0.477297 -2.88146 0 
-0.265165 -2.88146 0 
-0.053033 -2.88146 0 
0.159099 -2.88146 0 
0.371231 -2.88146 0 
0.583363 -2.88146 0 
0.795495 -2.88146 0 
1.00763 -2.88146 0 
1.21976 -2.88146 0 
1.43189 -2.88146 0 
1.64402 -2.88146 0 
1.85616 -2.88146 0 
2.06829 -2.88146 0 
2.28042 -2.88146 0 
2.49255 -2.88146 0 
2.70468 -2.88146 0 
2.91682 -2.88146 0 
3.12895 -2.88146 0 
3.34108 -2.88146 0 
3.55321 -2.88146 0 
3.76534 -2.88146 0 
3.97748 -2.88146 0 
4.18961 -2.88146 0 
4.40174 -2.88146 0 
4.61387 -2.88146 0 
4.826 -2.88146 0 
5.03814 -2.88146 0 
5.25027 -2.88146 0 
5.4624 -2.88146 0 
5.67453 -2.88146 0 
5.88666 -2.88146 0 
6.0988 -2.88146 0 
6.31093 -2.88146 0 
6.52306 -2.88146 0 
6.73519 -2.88146 0 
6.94732 -2.88146 0 
7.15946 -2.88146 0 
7.37159 -2.88146 0 
7.58372 -2.88146 0 
7.79585 -2.88146 0 
8.00798 -2.88146 0 
8.22012 -2.88146 0 
8.53831 -2.88146 0 
-8.53831 -2.72133 0 
-8.30174 -2.65872 0 
-8.0761 -2.65961 0 
-7.84866 -2.6613 0 
-7.62449 -2.66315 0 
-7.39856 -2.66971 0 
-7.16771 -2.67013 0 
-6.9435 -2.67182 0 
-6.71728 -2.67244 0 
-6.49432 -2.67004 0 
-6.27258 -2.67021 0 
-6.05163 -2.67052 0 
-5.83117 -2.67031 0 
-5.61207 -2.67133 0 
-5.39301 -2.67012 0 
-5.17643 -2.67126 0 
-4.9593 -2.66956 0 
-4.74422 -2.6701 0 
-4.52824 -2.67087 0 
-4.31163 -2.67106 0 
-4.09458 -2.6704 0 
-3.87941 -2.67029 0 
-3.6637 -2.66917 0 
-3.45102 -2.67055 0 
-3.23792 -2.67177 0 
-3.02385 -2.66983 0 
-2.81342 -2.67248 0 
-2.59876 -2.67175 0 
-2.38557 -2.67056 0 
-2.17711 -2.66506 0 
-1.96859 -2.66665 0 
-1.75593 -2.66673 0 
-1.53822 -2.66291 0 
-1.32646 -2.65835 0 
-1.10943 -2.65935 0 
-0.897741 -2.65543 0 
-0.687248 -2.64764 0 
-0.476615 -2.65367 0 
-0.25769 -2.66254 0 
-0.0433297 -2.64699 0 
0.159373 -2.6366 0 
0.368652 -2.67199 0 
0.591599 -2.68397 0 
0.798577 -2.64708 0 
1.00649 -2.65884 0 
1.22165 -2.66209 0 
1.44658 -2.66714 0 
1.66511 -2.66857 0 
1.88517 -2.67347 0 
2.10013 -2.67234 0 
2.31722 -2.67316 0 
2.52722 -2.66784 0 
2.73899 -2.66942 0 
2.94939 -2.66887 0 
3.16139 -2.67094 0 
3.37261 -2.67036 0 
3.58205 -2.6689 0 
3.79211 -2.66914 0 
4.0028 -2.66968 0 
4.21748 -2.67329 0 
4.42637 -2.66885 0 
4.64317 -2.67541 0 
4.85145 -2.66802 0 
5.06284 -2.67006 0 
5.27338 -2.66923 0 
5.4852 -2.67141 0 
5.69795 -2.67272 0 
5.90707 -2.66955 0 
6.12215 -2.67396 0 
6.3298 -2.66731 0 
6.54575 -2.67441 0 
6.75785 -2.671 0 
6.97025 -2.66805 0 
7.18361 -2.66653 0 
7.39888 -2.66565 0 
7.61544 -2.66142 0 
7.82696 -2.65469 0 
8.03962 -2.64685 0 
8.29493 -2.70939 0 
8.53831 -2.66933 0 
-8.42949 -2.47892 0 
-8.18655 -2.43893 0 
-7.96235 -2.44578 0 
-7.73834 -2.44385 0 
-7.51685 -2.45255 0 
-7.29183 -2.46756 0 
-7.0654 -2.45911 0 
-6.84507 -2.46634 0 
-6.62701 -2.46143 0 
-6.40913 -2.45968 0 
-6.1931 -2.45988 0 
-5.97761 -2.46068 0 
-5.76299 -2.45992 0 
-5.55015 -2.46125 0 
-5.33892 -2.45784 0 
-5.12994 -2.45957 0 
-4.92153 -2.45569 0 
-4.71155 -2.45813 0 
-4.50001 -2.46016 0 
-4.28645 -2.46157 0 
-4.07609 -2.45851 0 
-3.86351 -2.45975 0 
-3.65495 -2.45554 0 
-3.44565 -2.45837 0 
-3.23592 -2.46107 0 
-3.03017 -2.45163 0 
-2.82639 -2.45775 0 
-2.62044 -2.46424 0 
-2.40658 -2.46088 0 
-2.19361 -2.44899 0 
-1.98544 -2.44741 0 
-1.77755 -2.45089 0 
-1.56326 -2.45291 0 
-1.34157 -2.43706 0 
-1.12381 -2.44172 0 
-0.90077 -2.42648 0 
-0.680342 -2.41797 0 
-0.458341 -2.43365 0 
-0.23788 -2.44185 0 
-0.0928301 -2.33004 0 
0.0772376 -2.39516 0 
0.31419 -2.44931 0 
0.542463 -2.48174 0 
0.745259 -2.41813 0 
0.964454 -2.43065 0 
1.18358 -2.44105 0 
1.40179 -2.46302 0 
1.63699 -2.45627 0 
1.85695 -2.46667 0 
2.07623 -2.46178 0 
2.29028 -2.46776 0 
2.50769 -2.45266 0 
2.71659 -2.45627 0 
2.92573 -2.45456 0 
3.13417 -2.45921 0 
3.3436 -2.45842 0 
3.55289 -2.45436 0 
3.76026 -2.45531 0 
3.96858 -2.45685 0 
4.17987 -2.46621 0 
4.39257 -2.45511 0 
4.60491 -2.47119 0 
4.81902 -2.45423 0 
5.02993 -2.45802 0 
5.24048 -2.45702 0 
5.45242 -2.46067 0 
5.66404 -2.4644 0 
5.87588 -2.45678 0 
6.08762 -2.46815 0 
6.30098 -2.45253 0 
6.51305 -2.46827 0 
6.72764 -2.46133 0 
6.94152 -2.45671 0 
7.158 -2.45295 0 
7.37477 -2.45208 0 
7.59375 -2.44732 0 
7.8175 -2.42638 0 
8.05701 -2.44142 0 
8.2951 -2.50038 0 
8.53831 -2.4572 0 
-8.53831 -2.26692 0 
-8.30534 -2.25727 0 
-8.04909 -2.22803 0 
-7.81926 -2.23138 0 
-7.58423 -2.23416 0 
-7.35368 -2.25585 0 
-7.12735 -2.25768 0 
-6.88817 -2.2548 0 
-6.66755 -2.25092 0 
-6.44465 -2.24981 0 
-6.22138 -2.24863 0 
-6.00102 -2.25022 0 
-5.78119 -2.25009 0 
-5.56183 -2.24934 0 
-5.34635 -2.24523 0 
-5.13203 -2.24355 0 
-4.91948 -2.24166 0 
-4.70516 -2.24626 0 
-4.48707 -2.25155 0 
-4.27413 -2.24858 0 
-4.05681 -2.24919 0 
-3.84479 -2.24547 0 
-3.63157 -2.24273 0 
-3.42029 -2.24582 0 
-3.20899 -2.24648 0 
-2.99972 -2.23432 0 
-2.79245 -2.24209 0 
-2.57934 -2.25626 0 
-2.36268 -2.25006 0 
-2.14925 -2.23204 0 
-1.93722 -2.2291 0 
-1.71951 -2.23806 0 
-1.49996 -2.23905 0 
-1.26892 -2.2219 0 
-1.04732 -2.22139 0 
-0.816238 -2.20669 0 
-0.579829 -2.20284 0 
-0.364736 -2.21274 0 
-0.174549 -2.10469 0 
0.00948322 -1.84075 0 
0.0317001 -2.07935 0 
0.223723 -2.24224 0 
0.480999 -2.27531 0 
0.721058 -2.21037 0 
0.956923 -2.20927 0 
1.17994 -2.22377 0 
1.40645 -2.24269 0 
1.61949 -2.26313 0 
1.86812 -2.25709 0 
2.0843 -2.24979 0 
2.30259 -2.26107 0 
2.51472 -2.23777 0 
2.72375 -2.24165 0 
2.93357 -2.24051 0 
3.14233 -2.24598 0 
3.35177 -2.24501 0 
3.55925 -2.2385 0 
3.76723 -2.24071 0 
3.97844 -2.24449 0 
4.18818 -2.25641 0 
4.39575 -2.23866 0 
4.60358 -2.26323 0 
4.81426 -2.24148 0 
5.02604 -2.24712 0 
5.24011 -2.24449 0 
5.45168 -2.25122 0 
5.66613 -2.25448 0 
5.87705 -2.24454 0 
6.0878 -2.25943 0 
6.29893 -2.23986 0 
6.51042 -2.25983 0 
6.72301 -2.25125 0 
6.93441 -2.24339 0 
7.14817 -2.24298 0 
7.36938 -2.23834 0 
7.59443 -2.2356 0 
7.82607 -2.21832 0 
8.06212 -2.23437 0 
8.29987 -2.28437 0 
8.53831 -2.24506 0 
-8.42686 -2.04527 0 
-8.19887 -2.04668 0 
-7.96326 -2.01194 0 
-7.73831 -2.02213 0 
-7.50697 -2.02906 0 
-7.29487 -2.04104 0 
-7.06605 -2.0577 0 
-6.85344 -2.03639 0 
-6.63847 -2.03758 0 
-6.4213 -2.03877 0 
-6.21194 -2.02756 0 
-6.00375 -2.03818 0 
-5.79077 -2.03919 0 
-5.57687 -2.04015 0 
-5.36296 -2.03203 0 
-5.15283 -2.03064 0 
-4.94366 -2.02689 0 
-4.73492 -2.03278 0 
-4.52451 -2.04256 0 
-4.31199 -2.03539 0 
-4.10146 -2.04066 0 
-3.88883 -2.03271 0 
-3.67858 -2.03103 0 
-3.46774 -2.03032 0 
-3.26002 -2.03424 0 
-3.0531 -2.02216 0 
-2.84181 -2.02155 0 
-2.63502 -2.0403 0 
-2.42715 -2.04462 0 
-2.21345 -2.02442 0 
-1.99631 -2.01391 0 
-1.7768 -2.02434 0 
-1.55653 -2.02458 0 
-1.33468 -2.0225 0 
-1.09487 -2.00352 0 
-0.869438 -2.00041 0 
-0.628594 -2.00075 0 
-0.385285 -1.98322 0 
-0.178423 -1.86089 0 
-0.000273743 -1.59034 0 
0.237609 -2.03154 0 
0.199358 -1.82164 0 
0.463817 -2.09064 0 
0.675112 -1.99634 0 
0.911484 -1.9997 0 
1.14719 -2.00335 0 
1.3746 -2.02857 0 
1.60428 -2.03567 0 
1.81448 -2.0767 0 
2.06669 -2.03624 0 
2.28175 -2.05186 0 
2.49035 -2.02383 0 
2.70276 -2.02587 0 
2.9116 -2.02812 0 
3.124 -2.03144 0 
3.33291 -2.0325 0 
3.54415 -2.02365 0 
3.75427 -2.02505 0 
3.96254 -2.0331 0 
4.17694 -2.04226 0 
4.39305 -2.03027 0 
4.61124 -2.04997 0 
4.82664 -2.02963 0 
5.04195 -2.03805 0 
5.25593 -2.03328 0 
5.47145 -2.0438 0 
5.68146 -2.04213 0 
5.88922 -2.02764 0 
6.09458 -2.04841 0 
6.30036 -2.02189 0 
6.50773 -2.04943 0 
6.71794 -2.03811 0 
6.92986 -2.03014 0 
7.14423 -2.02957 0 
7.36118 -2.02979 0 
7.58822 -2.02702 0 
7.8245 -2.01335 0 
8.06407 -2.02538 0 
8.30055 -2.06743 0 
8.53831 -2.03293 0 
-8.53831 -1.82871 0 
-8.30575 -1.8306 0 
-8.0758 -1.82266 0 
-7.82355 -1.80489 0 
-7.58684 -1.82371 0 
-7.35113 -1.81169 0 
-7.13164 -1.85078 0 
-6.9085 -1.82075 0 
-6.69035 -1.82055 0 
-6.47136 -1.82566 0 
-6.25398 -1.81292 0 
-6.03448 -1.81938 0 
-5.8204 -1.82446 0 
-5.60638 -1.82801 0 
-5.39202 -1.8223 0 
-5.1757 -1.81621 0 
-4.96475 -1.81213 0 
-4.75385 -1.81684 0 
-4.54331 -1.82834 0 
-4.33324 -1.82499 0 
-4.11787 -1.82711 0 
-3.90707 -1.82265 0 
-3.69237 -1.81825 0 
-3.48 -1.8175 0 
-3.26758 -1.81839 0 
-3.05381 -1.81019 0 
-2.8385 -1.81167 0 
-2.62284 -1.82335 0 
-2.41005 -1.83194 0 
-2.18973 -1.81346 0 
-1.96239 -1.80676 0 
-1.74138 -1.81246 0 
-1.51812 -1.80922 0 
-1.28028 -1.81879 0 
-1.04431 -1.78572 0 
-0.801225 -1.79844 0 
-0.547716 -1.80194 0 
-0.325384 -1.74705 0 
-0.127628 -1.56084 0 
0.106165 -1.5644 0 
0.428419 -1.89202 0 
0.546184 -1.74768 0 
0.769157 -1.79224 0 
1.00093 -1.78683 0 
1.23121 -1.79397 0 
1.45231 -1.8191 0 
1.67432 -1.82098 0 
1.89178 -1.8844 0 
2.07608 -1.78072 0 
2.25894 -1.83739 0 
2.46309 -1.8055 0 
2.67566 -1.81402 0 
2.89207 -1.81351 0 
3.10429 -1.82189 0 
3.3212 -1.81871 0 
3.53294 -1.81324 0 
3.74966 -1.81242 0 
3.96304 -1.8168 0 
4.17142 -1.83333 0 
4.38404 -1.81706 0 
4.59831 -1.84289 0 
4.81171 -1.81849 0 
5.0262 -1.82832 0 
5.24033 -1.82384 0 
5.45662 -1.83507 0 
5.67084 -1.82856 0 
5.8832 -1.81564 0 
6.0945 -1.83158 0 
6.30114 -1.80371 0 
6.50752 -1.83531 0 
6.71639 -1.82384 0 
6.9294 -1.81685 0 
7.144 -1.81551 0 
7.36966 -1.82213 0 
7.60006 -1.82103 0 
7.8325 -1.80334 0 
8.06624 -1.81806 0 
8.30252 -1.85076 0 
8.53831 -1.8208 0 
-8.53831 -1.61362 0 
-8.30693 -1.61431 0 
[...]
POINT_DATA 2176 
VECTORS vectors float
9.58435e-06 -0.000681701 1 
0.000255018 -0.0105905 0.999944 
6.92726e-05 -0.0132091 0.999913 
0.000120982 -0.0133319 0.999911 
0.000111481 -0.0128633 0.999917 
0.000110573 -0.0116831 0.999932 
0.000111981 -0.0101638 0.999948 
0.000111739 -0.00860318 0.999963 
0.000112098 -0.00709472 0.999975 
0.000112254 -0.00562565 0.999984 
0.000112356 -0.00418881 0.999991 
0.000112467 -0.00278112 0.999996 
0.000112761 -0.00138896 0.999999 
0.000112379 1.2387e-05 1 
0.000112849 0.00146919 0.999999 
0.00011202 0.00304548 0.999995 
0.000112165 0.00482715 0.999988 
0.000111159 0.00691652 0.999976 
0.000110483 0.00943437 0.999955 
0.000109182 0.0125336 0.999921 
0.000108093 0.0164033 0.999865 
0.000105597 0.0212778 0.999774 
0.000103743 0.0274644 0.999623 
0.000100519 0.0353395 0.999375 
9.5574e-05 0.0453975 0.998969 
9.29798e-05 0.0583101 0.998299 
8.18978e-05 0.0749783 0.997185 
7.51875e-05 0.0965023 0.995333 
6.99406e-05 0.123431 0.992353 
4.97603e-05 0.157902 0.987455 
3.56643e-05 0.202809 0.979218 
8.48716e-06 0.259331 0.965788 
-1.31764e-05 0.330418 0.943835 
-3.51536e-05 0.415722 0.909492 
-8.51294e-05 0.517883 0.855451 
-9.82757e-05 0.633992 0.77334 
-0.000134548 0.755386 0.65528 
-0.000129831 0.871115 0.491079 
-8.57615e-05 0.957736 0.287649 
-1.66274e-05 0.998502 0.0547218 
5.92955e-05 0.982872 -0.184292 
0.000108377 0.915125 -0.40317 
0.000132793 0.811301 -0.584629 
0.000139514 0.68834 -0.725388 
6.74574e-05 0.568793 -0.822481 
6.42898e-05 0.460938 -0.887432 
3.25572e-05 0.366531 -0.930406 
-7.64711e-06 0.289169 -0.957278 
-2.35043e-05 0.226911 -0.973916 
-4.53907e-05 0.177443 -0.984131 
-5.863e-05 0.138459 -0.990368 
-7.22801e-05 0.107932 -0.994158 
-8.02128e-05 0.0840758 -0.996459 
-8.86505e-05 0.0654796 -0.997854 
-9.38661e-05 0.0509808 -0.9987 
-9.86411e-05 0.0396791 -0.999212 
-0.000102377 0.030851 -0.999524 
-0.000104529 0.0239331 -0.999714 
-0.000107849 0.0184895 -0.999829 
-0.000107495 0.0141918 -0.999899 
-0.000111859 0.0107612 -0.999942 
-0.000109248 0.00798997 -0.999968 
-0.000113165 0.005721 -0.999984 
-0.000111391 0.00380449 -0.999993 
-0.000113009 0.00214257 -0.999998 
-0.000112962 0.000637547 -1 
-0.000112105 -0.000779123 -1 
-0.000114241 -0.00217713 -0.999998 
-0.000110716 -0.0035844 -0.999994 
-0.000114622 -0.00502455 -0.999987 
-0.000110797 -0.00651005 -0.999979 
-0.000113145 -0.00803222 -0.999968 
-0.000111255 -0.00961954 -0.999954 
-0.000112026 -0.0112743 -0.999936 
-0.000110746 -0.0128525 -0.999917 
-0.000110986 -0.014001 -0.999902 
-0.000108797 -0.0143925 -0.999896 
-0.000142346 -0.0147609 -0.999891 
-5.30456e-05 -0.0121687 -0.999926 
-9.97493e-05 -0.000906172 -1 
-1.05088e-05 0.000293238 1 
0.00408353 -0.00692566 0.999968 
0.0056572 -0.0113652 0.999919 
0.0063506 -0.0131735 0.999893 
0.00668963 -0.0129557 0.999894 
0.00684267 -0.0120973 0.999903 
0.00697534 -0.0107882 0.999917 
0.00707097 -0.0092443 0.999932 
0.0071642 -0.00763346 0.999945 
0.00726497 -0.00608706 0.999955 
0.00732291 -0.00459323 0.999963 
0.00736854 -0.00313794 0.999968 
0.00740926 -0.00170287 0.999971 
0.00742571 -0.000264316 0.999972 
0.00745504 0.00123258 0.999971 
0.00744492 0.00283264 0.999968 
0.00744506 0.00463998 0.999962 
0.00740395 0.00673524 0.99995 
0.00735007 0.00927048 0.99993 
0.00728972 0.0124052 0.999896 
0.00721783 0.0163394 0.99984 
0.00713485 0.021268 0.999748 
0.00704722 0.0275561 0.999595 
0.00692049 0.0354576 0.999347 
0.00679278 0.0455704 0.998938 
0.00668243 0.0585601 0.998262 
0.00657021 0.0750804 0.997156 
0.00654219 0.0965252 0.995309 
0.00659582 0.124077 0.992251 
0.00683005 0.15848 0.987339 
0.00704562 0.201705 0.979421 
0.00749347 0.257472 0.966257 
0.00830696 0.328703 0.944397 
0.00943811 0.414509 0.909996 
0.010323 0.519008 0.854707 
0.0112852 0.635118 0.772333 
0.0116865 0.755875 0.654611 
0.00965868 0.869216 0.494338 
0.00567054 0.959515 0.281599 
0.000967144 0.999029 0.0440405 
-0.00441622 0.982703 -0.185136 
-0.0071266 0.915375 -0.402539 
-0.00859048 0.804855 -0.59341 
-0.0119494 0.685328 -0.728137 
-0.0107182 0.567918 -0.823015 
-0.00962571 0.457511 -0.889152 
-0.00843847 0.35999 -0.932918 
-0.00763195 0.282336 -0.959285 
-0.00695798 0.219765 -0.975528 
-0.00668374 0.171379 -0.985182 
-0.0065314 0.133033 -0.99109 
-0.00658124 0.104043 -0.994551 
-0.00659985 0.0811491 -0.99668 
-0.00668986 0.0633847 -0.997967 
-0.0067794 0.0493948 -0.998756 
-0.00690578 0.0385093 -0.999234 
-0.00703987 0.0300519 -0.999524 
-0.00714918 0.0233756 -0.999701 
-0.00724684 0.0180922 -0.99981 
-0.00729956 0.0138366 -0.999878 
-0.00742167 0.0105222 -0.999917 
-0.00741761 0.00773883 -0.999943 
-0.00752401 0.00554 -0.999956 
-0.00754405 0.00364801 -0.999965 
-0.00757072 0.00200442 -0.999969 
-0.00755609 0.000503426 -0.999971 
-0.00753527 -0.000918977 -0.999971 
-0.0075521 -0.00229042 -0.999969 
-0.00748174 -0.00370853 -0.999965 
-0.00749991 -0.00510518 -0.999959 
-0.00737247 -0.00660714 -0.999951 
-0.00730137 -0.00811778 -0.99994 
-0.00721167 -0.0096814 -0.999927 
-0.00708625 -0.0112451 -0.999912 
-0.00693174 -0.0126333 -0.999896 
-0.00670996 -0.013689 -0.999884 
-0.00625477 -0.0142648 -0.999879 
-0.00553231 -0.013467 -0.999894 
-0.00408542 -0.010126 -0.99994 
0.000291529 0.000340438 -1 
0.00296298 -0.00650058 0.999974 
0.00633667 -0.0105001 0.999925 
0.00808284 -0.0132263 0.99988 
0.00886494 -0.0132837 0.999872 
0.0092235 -0.0123943 0.999881 
0.00941021 -0.0114068 0.999891 
0.00979205 -0.0100517 0.999902 
0.00990832 -0.00850813 0.999915 
0.0101115 -0.00696805 0.999925 
0.0102473 -0.00548306 0.999932 
0.0103397 -0.00405116 0.999938 
0.0104147 -0.00265162 0.999942 
0.0104935 -0.00125951 0.999944 
0.0105291 0.000155036 0.999945 
0.010604 0.00163707 0.999942 
0.0106013 0.00323963 0.999939 
0.0106056 0.00503806 0.999931 
0.0105244 0.00715961 0.999919 
0.0104343 0.00973024 0.999898 
0.0103361 0.0129208 0.999863 
0.0102894 0.0168349 0.999805 
0.0101807 0.0218043 0.99971 
0.0101515 0.0279655 0.999557 
0.0100449 0.0357979 0.999309 
0.00997121 0.0457836 0.998902 
0.0101228 0.0582887 0.998248 
0.0101211 0.073819 0.99722 
0.0102501 0.0938249 0.995536 
0.010748 0.120376 0.99267 
0.011757 0.154075 0.987989 
0.0129869 0.195812 0.980555 
0.0145818 0.248311 0.968571 
0.016828 0.315917 0.948638 
0.0205692 0.402055 0.915384 
0.0235783 0.504511 0.863083 
0.0273247 0.62418 0.780803 
0.0285237 0.752158 0.658365 
0.0235508 0.874015 0.485327 
0.014053 0.964125 0.265075 
0.00834384 0.994474 0.104654 
-0.00585904 0.995446 -0.095142 
-0.0175071 0.934649 -0.355139 
-0.0220421 0.826753 -0.562134 
-0.0287851 0.708492 -0.705131 
-0.0262843 0.583484 -0.811699 
-0.0225456 0.469834 -0.882467 
-0.0182177 0.373694 -0.927373 
-0.0156643 0.288123 -0.957465 
-0.0132566 0.225211 -0.97422 
-0.0119542 0.174869 -0.984519 
-0.0108798 0.136552 -0.990573 
-0.010566 0.105942 -0.994316 
-0.0101768 0.0830697 -0.996492 
-0.0100527 0.0650947 -0.997828 
-0.00996167 0.0510391 -0.998647 
-0.0100131 0.0399454 -0.999152 
-0.0101427 0.0312338 -0.999461 
-0.0102283 0.024418 -0.99965 
-0.0102998 0.0189767 -0.999767 
-0.0103181 0.0146483 -0.999839 
-0.0104982 0.0111037 -0.999883 
-0.0104276 0.00828067 -0.999911 
-0.0106511 0.00591868 -0.999926 
-0.0106691 0.00397119 -0.999935 
-0.0107097 0.00227996 -0.99994 
-0.0106858 0.000742811 -0.999943 
-0.0106466 -0.000694143 -0.999943 
-0.01067 -0.00208482 -0.999941 
-0.0105137 -0.00347792 -0.999939 
-0.0105807 -0.00488938 -0.999932 
-0.0103348 -0.00636326 -0.999926 
-0.010239 -0.00787152 -0.999917 
-0.0100508 -0.00941657 -0.999905 
-0.00984052 -0.010974 -0.999891 
-0.00951905 -0.0123022 -0.999879 
-0.00905413 -0.0133729 -0.99987 
-0.00840194 -0.0141488 -0.999865 
-0.00708597 -0.0131825 -0.999888 
-0.00450649 -0.0095324 -0.999944 
-0.000519387 0.000107303 -1 
2.72186e-05 -1.29965e-05 1 
0.0054914 -0.00909492 0.999944 
0.00821971 -0.0131618 0.99988 
0.0093123 -0.0136329 0.999864 
0.00993817 -0.0126577 0.99987 
0.0104571 -0.0116892 0.999877 
0.0108233 -0.0104684 0.999887 
0.0110814 -0.00882964 0.9999 
0.0112768 -0.00726125 0.99991 
0.0114205 -0.00573245 0.999918 
0.0115262 -0.0042452 0.999925 
0.0116419 -0.00282068 0.999928 
0.0117198 -0.0013968 0.99993 
0.0117691 6.49782e-05 0.999931 
0.0117958 0.00158435 0.999929 
0.011775 0.00323223 0.999925 
0.0117762 0.00509041 0.999918 
0.0117369 0.0072777 0.999905 
0.0116813 0.00995885 0.999882 
0.0116154 0.0131815 0.999846 
0.0115439 0.0172791 0.999784 
0.0114833 0.0223112 0.999685 
0.0114594 0.0287029 0.999522 
0.0114733 0.0367479 0.999259 
0.0115745 0.0469679 0.998829 
0.0118705 0.0597495 0.998143 
0.0122841 0.07591 0.997039 
0.0129295 0.0971754 0.995183 
0.0141871 0.124606 0.992105 
0.0162907 0.158815 0.987174 
0.0190281 0.202156 0.979168 
0.0225007 0.258821 0.965663 
0.0273448 0.330344 0.943465 
0.0346161 0.42266 0.905627 
0.0412038 0.530553 0.84665 
0.0479684 0.658403 0.751136 
0.0484171 0.797153 0.601832 
0.0381068 0.910647 0.411424 
0.0285404 0.9771 0.21086 
-0.0048309 0.999796 -0.0195877 
-0.00686404 0.998937 -0.045592 
-0.0250551 0.962901 -0.268688 
-0.038474 0.850983 -0.523783 
-0.0485081 0.709427 -0.703108 
-0.0444663 0.57322 -0.818194 
-0.036829 0.459454 -0.887437 
-0.029258 0.362232 -0.931629 
-0.0233136 0.287461 -0.957509 
-0.0191413 0.216832 -0.976021 
-0.0164947 0.169636 -0.985369 
-0.014388 0.132482 -0.991081 
-0.0132728 0.103286 -0.994563 
-0.0124075 0.0812941 -0.996613 
-0.0118997 0.0638386 -0.997889 
-0.0115981 0.0501803 -0.998673 
-0.0114731 0.0393669 -0.999159 
-0.0114537 0.0309154 -0.999456 
-0.0114815 0.0242184 -0.999641 
-0.0115625 0.0188404 -0.999756 
-0.0116174 0.0145392 -0.999827 
-0.0117012 0.0111232 -0.99987 
-0.0117568 0.00834484 -0.999896 
-0.0118419 0.00602601 -0.999912 
-0.0118608 0.00404017 -0.999921 
-0.0118846 0.00230003 -0.999927 
-0.0118916 0.000748374 -0.999929 
-0.0118607 -0.000719854 -0.999929 
-0.0118382 -0.0021147 -0.999928 
-0.0117621 -0.00349269 -0.999925 
-0.011674 -0.00489743 -0.99992 
-0.0115383 -0.00634897 -0.999913 
-0.0113588 -0.00785654 -0.999905 
-0.0111158 -0.00939925 -0.999894 
-0.0107965 -0.010898 -0.999882 
-0.0103526 -0.0121495 -0.999873 
-0.00982782 -0.0132517 -0.999864 
-0.00903246 -0.0142776 -0.999857 
-0.00780163 -0.0133155 -0.999881 
-0.00537037 -0.00941745 -0.999941 
-0.000271983 0.000110411 -1 
0.00343204 -0.00762064 0.999965 
0.00645834 -0.0112027 0.999916 
0.00785514 -0.0138933 0.999873 
0.00871 -0.0134828 0.999871 
0.00936508 -0.0124032 0.999879 
0.00988143 -0.0114933 0.999885 
0.0103223 -0.0101496 0.999895 
0.0104675 -0.00864151 0.999908 
0.0106718 -0.00710408 0.999918 
0.0108441 -0.00561736 0.999925 
0.0109456 -0.00423776 0.999931 
0.0110762 -0.00287801 0.999935 
0.0111634 -0.00149364 0.999937 
0.0112265 -6.23429e-05 0.999937 
0.0112321 0.0014502 0.999936 
0.0112324 0.00306634 0.999932 
0.0112177 0.00487307 0.999925 
0.0112198 0.00696044 0.999913 
0.0112232 0.00946439 0.999892 
0.0111644 0.0125405 0.999859 
0.0111535 0.0163059 0.999805 
0.0111289 0.021042 0.999717 
0.0111795 0.0269261 0.999575 
0.0113215 0.0343692 0.999345 
0.0116086 0.0436791 0.998978 
0.0120589 0.0551496 0.998405 
0.0128352 0.0700235 0.997463 
0.0139881 0.0890006 0.995933 
0.0156862 0.112574 0.99352 
0.0185086 0.1429 0.989564 
0.0225764 0.182115 0.983018 
0.0278285 0.233276 0.972012 
0.035098 0.29768 0.95402 
0.0445163 0.378443 0.924553 
0.0577489 0.484575 0.872841 
0.0693041 0.604754 0.793391 
0.0756361 0.748377 0.658947 
0.0689969 0.886597 0.457368 
0.054935 0.969563 0.2386 
0.000208725 0.99999 -0.00440183 
-0.046727 0.952099 -0.302197 
-0.0713549 0.955905 -0.284876 
-0.0592471 0.848327 -0.526148 
-0.0755555 0.714293 -0.695756 
-0.0669412 0.576007 -0.814699 
-0.0544483 0.454937 -0.888858 
-0.0417881 0.359816 -0.932087 
-0.0325379 0.280419 -0.959326 
-0.0250277 0.223873 -0.974297 
-0.0205819 0.167133 -0.98572 
-0.0170835 0.131604 -0.991155 
-0.0150887 0.103488 -0.994516 
-0.0134901 0.0813594 -0.996594 
-0.0124709 0.0642021 -0.997859 
-0.0118227 0.0504288 -0.998658 
-0.011447 0.039727 -0.999145 
-0.0112261 0.0311461 -0.999452 
-0.0111341 0.0244088 -0.99964 
-0.011139 0.019097 -0.999756 
-0.0111785 0.0147105 -0.999829 
-0.0111891 0.0111654 -0.999875 
-0.0112949 0.00826834 -0.999902 
-0.0112594 0.00590105 -0.999919 
-0.0113306 0.0039122 -0.999928 
-0.0113302 0.00217669 -0.999933 
-0.0113705 0.000593942 -0.999935 
-0.0113494 -0.000853161 -0.999935 
-0.0112284 -0.00223237 -0.999934 
-0.0112137 -0.00357321 -0.999931 
-0.011014 -0.00494796 -0.999927 
-0.0109686 -0.00636883 -0.99992 
-0.0107354 -0.00787155 -0.999911 
-0.0104628 -0.0094414 -0.999901 
-0.0101137 -0.0109342 -0.999889 
-0.00967618 -0.0121439 -0.999879 
-0.00905553 -0.0131287 -0.999873 
-0.00828097 -0.0142617 -0.999864 
-0.00730293 -0.0134318 -0.999883 
-0.00520812 -0.00957441 -0.999941 
-0.000227084 0.000102481 -1 
2.76553e-06 0.000168719 1 
0.00468345 -0.00944013 0.999944 
0.00653704 -0.0131704 0.999892 
0.0075603 -0.0138705 0.999875 
0.00837881 -0.0129024 0.999882 
0.00887645 -0.0118821 0.99989 
0.00943687 -0.0106813 0.999898 
0.00960929 -0.00911424 0.999912 
0.0098381 -0.00753562 0.999923 
0.0100479 -0.00601265 0.999931 
0.0101613 -0.00456209 0.999938 
0.0103089 -0.003129 0.999942 
0.0104218 -0.00173467 0.999944 
0.010508 -0.000300931 0.999945 
0.0105389 0.00121209 0.999944 
0.0105456 0.00286536 0.99994 
0.0105403 0.00466459 0.999934 
0.0105504 0.00673578 0.999922 
0.0105759 0.00918374 0.999902 
0.0105565 0.0121292 0.999871 
0.0105776 0.0158454 0.999819 
0.0106218 0.0203535 0.999736 
0.0107467 0.0260929 0.999602 
0.0110006 0.0332262 0.999387 
0.0114322 0.0421833 0.999044 
0.0121742 0.0536362 0.998486 
0.0133409 0.0683014 0.997576 
0.015013 0.0868026 0.996112 
0.0174876 0.110313 0.993743 
0.0214452 0.140268 0.989881 
0.0272278 0.179969 0.983295 
0.0348516 0.229774 0.97262 
0.0455392 0.292689 0.955123 
0.0597361 0.378735 0.923576 
0.0804858 0.478608 0.874332 
0.0992723 0.610926 0.785439 
0.111332 0.766153 0.632942 
0.114095 0.89013 0.441193 
0.12761 0.962337 0.240047 
-0.111713 0.970986 -0.211437 
-0.0901775 0.847246 -0.523491 
-0.123211 0.749812 -0.650077 
-0.101972 0.623051 -0.775506 
-0.0829819 0.495813 -0.864456 
-0.0638059 0.391792 -0.917838 
-0.0480454 0.312138 -0.948821 
-0.0368584 0.245693 -0.968647 
-0.0275411 0.196821 -0.980052 
-0.0240899 0.156222 -0.987428 
-0.0196035 0.129392 -0.9914 
-0.0167809 0.102651 -0.994576 
-0.0144431 0.0811315 -0.996599 
-0.0128937 0.0637286 -0.997884 
-0.0119032 0.0503333 -0.998662 
-0.0112718 0.0394378 -0.999158 
-0.0108922 0.0310165 -0.99946 
-0.0106765 0.0242052 -0.99965 
-0.0105839 0.0188743 -0.999766 
-0.01058 0.0146818 -0.999836 
-0.0105403 0.0112399 -0.999881 
-0.0106562 0.00840284 -0.999908 
-0.0106015 0.00605086 -0.999925 
-0.0106697 0.00404781 -0.999935 
-0.0106324 0.00228176 -0.999941 
-0.0106771 0.000674897 -0.999943 
-0.0106217 -0.000817905 -0.999943 
-0.0105132 -0.00224047 -0.999942 
-0.0104864 -0.00362533 -0.999938 
-0.0102629 -0.00501001 -0.999935 
-0.0102269 -0.00642436 -0.999927 
-0.00998094 -0.00792167 -0.999919 
-0.00968449 -0.00949261 -0.999908 
-0.00933055 -0.0110037 -0.999896 
-0.0089182 -0.0122914 -0.999885 
-0.00826577 -0.013254 -0.999878 
-0.00743128 -0.0142794 -0.99987 
-0.00656416 -0.0134171 -0.999888 
-0.00477271 -0.00959369 -0.999943 
-0.000253351 0.000109376 -1 
0.000274985 -2.4768e-05 1 
0.00426024 -0.00953429 0.999945 
0.00605021 -0.0133752 0.999892 
0.0068964 -0.0140327 0.999878 
0.00765732 -0.0129927 0.999886 
0.0081388 -0.011965 0.999895 
0.00863889 -0.0105577 0.999907 
0.00876847 -0.0089898 0.999921 
0.00901526 -0.00737539 0.999932 
0.00920982 -0.00584769 0.99994 
0.00934569 -0.00432397 0.999947 
0.00947649 -0.00288628 0.999951 
0.00958744 -0.00146283 0.999953 
0.00967176 -6.40309e-06 0.999953 
0.00970888 0.00157019 0.999952 
0.00968316 0.00325061 0.999948 
0.00968723 0.00512905 0.99994 
0.00972654 0.00730351 0.999926 
0.00976405 0.00981044 0.999904 
0.00981062 0.0129745 0.999868 
0.0098532 0.016761 0.999811 
0.00998689 0.021527 0.999718 
0.0102106 0.0274626 0.999571 
0.010631 0.0349046 0.999334 
0.01131 0.0441955 0.998959 
0.0123969 0.0561601 0.998345 
0.0140801 0.0714403 0.997345 
0.016499 0.0903462 0.995774 
0.01998 0.114069 0.993272 
0.0256005 0.146366 0.988899 
0.0337604 0.186805 0.981817 
0.0446615 0.236802 0.970531 
0.060512 0.307013 0.94978 
0.0821427 0.387062 0.918387 
0.114047 0.501923 0.85736 
0.144725 0.646183 0.749334 
0.183583 0.775296 0.604329 
0.243 0.857507 0.453468 
-0.243427 0.861351 -0.44589 
-0.137192 0.877279 -0.459956 
-0.148718 0.618863 -0.771292 
-0.114412 0.497469 -0.859904 
-0.0849938 0.391173 -0.916384 
-0.0619204 0.30817 -0.949314 
-0.0461959 0.246906 -0.967938 
-0.0331757 0.193677 -0.980504 
-0.0262213 0.147445 -0.988723 
-0.0204654 0.116847 -0.992939 
-0.0167877 0.0923969 -0.995581 
-0.0142604 0.0735189 -0.997192 
-0.0125578 0.0583508 -0.998217 
-0.01146 0.046348 -0.99886 
-0.0107123 0.036719 -0.999268 
-0.010257 0.0288626 -0.999531 
-0.00997201 0.0226972 -0.999693 
-0.00982798 0.0178673 -0.999792 
-0.00984795 0.0140071 -0.999853 
-0.00967076 0.0108911 -0.999894 
-0.00987697 0.00835757 -0.999916 
-0.00976441 0.00607373 -0.999934 
-0.00981217 0.00405575 -0.999944 
-0.00980007 0.00231247 -0.999949 
-0.00985212 0.000732611 -0.999951 
-0.00975235 -0.000788654 -0.999952 
-0.00962124 -0.00221097 -0.999951 
-0.00961173 -0.00360573 -0.999947 
-0.00935838 -0.00503155 -0.999944 
-0.00933765 -0.00649823 -0.999935 
-0.00909774 -0.00802637 -0.999926 
-0.00879649 -0.00959623 -0.999915 
-0.00850523 -0.0111753 -0.999901 
-0.00812925 -0.0123762 -0.99989 
-0.00756171 -0.0133732 -0.999882 
-0.00675994 -0.0143477 -0.999874 
-0.00590296 -0.013385 -0.999893 
-0.00430776 -0.00958663 -0.999945 
-0.000241965 0.00010851 -1 
0.000190326 0.000167606 1 
0.00390046 -0.00974865 0.999945 
0.00539524 -0.0135524 0.999894 
0.00603783 -0.0141275 0.999882 
0.00673424 -0.0131001 0.999892 
0.00698032 -0.0121801 0.999901 
0.00756303 -0.0109741 0.999911 
0.00758744 -0.00941635 0.999927 
0.00779274 -0.00779045 0.999939 
0.00798269 -0.00626138 0.999949 
0.00817075 -0.00479274 0.999955 
0.00826867 -0.00332664 0.99996 
0.00836425 -0.00190092 0.999963 
0.00843848 -0.000455993 0.999964 
0.00852694 0.00103997 0.999963 
0.00849233 0.00266449 0.99996 
0.00848377 0.00446676 0.999954 
0.00853506 0.00652017 0.999942 
0.00855726 0.00888461 0.999924 
0.00868983 0.0116907 0.999894 
0.00872567 0.0151391 0.999847 
0.00888456 0.0193909 0.999773 
0.00912059 0.0246205 0.999655 
0.00954235 0.0312244 0.999467 
0.0102209 0.0394174 0.999171 
0.0112839 0.0495999 0.998705 
0.0129625 0.0629341 0.997933 
0.0154178 0.0793516 0.996727 
0.0189345 0.0995436 0.994853 
0.0240402 0.125446 0.991809 
0.0319727 0.158901 0.986777 
0.0435468 0.200409 0.978744 
0.0596403 0.257273 0.964497 
0.082928 0.321151 0.94339 
0.115397 0.410079 0.90472 
0.16491 0.52994 0.831846 
0.226005 0.63088 0.742234 
0.329156 0.703853 0.629482 
-0.332569 0.69943 -0.63261 
-0.197805 0.737371 -0.645877 
-0.184135 0.543186 -0.819172 
-0.132021 0.435213 -0.890595 
-0.0939777 0.344932 -0.933911 
-0.0676429 0.275353 -0.95896 
-0.0493924 0.22098 -0.974027 
-0.0365623 0.184032 -0.98224 
-0.0296703 0.14717 -0.988666 
-0.0224752 0.117592 -0.992808 
-0.0178392 0.0939492 -0.995417 
-0.0145202 0.0743004 -0.99713 
-0.0123704 0.0592166 -0.998169 
-0.010957 0.0471326 -0.998829 
-0.0100011 0.0375727 -0.999244 
-0.00941513 0.0297341 -0.999514 
-0.00898403 0.0233467 -0.999687 
-0.00871845 0.0183361 -0.999794 
-0.00865732 0.0143406 -0.99986 
-0.00853984 0.0109008 -0.999904 
-0.008671 0.00807591 -0.99993 
-0.00856942 0.00570388 -0.999947 
-0.00861892 0.00379784 -0.999956 
-0.00856591 0.00209492 -0.999961 
-0.00868779 0.000516542 -0.999962 
-0.00854134 -0.000962891 -0.999963 
-0.00835171 -0.00237075 -0.999962 
-0.00840539 -0.00371795 -0.999958 
-0.00808135 -0.00510069 -0.999954 
-0.0081561 -0.00652101 -0.999945 
-0.00791575 -0.00805083 -0.999936 
-0.00766176 -0.00967108 -0.999924 
-0.00736635 -0.0112145 -0.99991 
-0.00709295 -0.0124799 -0.999897 
-0.00663127 -0.0133963 -0.999888 
-0.00593574 -0.0144267 -0.999878 
-0.00519848 -0.0135431 -0.999895 
-0.00377638 -0.00963488 -0.999946 