# vtk DataFile Version 3.0 
Exported using Morpho https://github.com/Morpho-lang/morpho 
ASCII 
DATASET UNSTRUCTURED_GRID 

POINTS 1978 float 
-8.48528 -2.82843 1.64471e-13 
-8.2713 -2.82843 1.89546e-13 
-7.97245 -2.82843 1.26686e-13 
-7.72366 -2.82843 2.93887e-14 
-7.49769 -2.82843 -7.84063e-14 
-7.28149 -2.82843 5.44393e-14 
-7.05886 -2.82843 -1.4502e-13 
-6.74769 -2.82843 -9.0934e-14 
-6.54818 -2.82843 -5.90374e-14 
-6.34291 -2.82843 -6.48893e-14 
-6.12458 -2.82843 -6.59786e-14 
-5.91293 -2.82843 -9.66351e-14 
-5.70093 -2.82843 -8.40441e-14 
-5.48843 -2.82843 -1.16018e-13 
-5.2784 -2.82843 -1.37594e-13 
-5.06778 -2.82843 -1.37298e-13 
-4.85635 -2.82843 -1.37803e-13 
-4.64669 -2.82843 -1.45122e-13 
-4.43485 -2.82843 -2.59894e-13 
-4.22493 -2.82843 2.55686e-14 
-4.01628 -2.82843 2.69163e-13 
-3.8069 -2.82843 6.0522e-13 
-3.59605 -2.82843 7.97205e-13 
-3.38672 -2.82843 6.8374e-13 
-3.17642 -2.82843 -7.71271e-13 
-2.96703 -2.82843 -3.29159e-12 
-2.76628 -2.82843 -6.67145e-12 
-2.56628 -2.82843 -1.30974e-11 
-2.33804 -2.82843 -7.59543e-12 
-2.11126 -2.82843 3.65573e-11 
-1.87456 -2.82843 1.9961e-10 
-1.64541 -2.82843 5.26696e-10 
-1.42532 -2.82843 8.77221e-10 
-1.24024 -2.82843 2.57506e-09 
-1.07285 -2.82843 4.58093e-09 
-0.920743 -2.82843 2.02074e-08 
-0.777535 -2.82843 -5.63325e-08 
-0.665887 -2.82843 2.69675e-08 
-0.455474 -2.82842 1.75018e-06 
0.0684363 -2.82842 -9.39471e-07 
0.518525 -2.82843 -3.87725e-07 
0.711829 -2.82843 1.67186e-08 
0.816745 -2.82843 1.96878e-08 
0.917066 -2.82843 -7.70445e-09 
1.07109 -2.82843 -6.35487e-09 
1.23595 -2.82843 4.52719e-10 
1.44668 -2.82843 -6.55155e-10 
1.663 -2.82843 -4.84812e-10 
1.88716 -2.82843 -1.58288e-10 
2.13266 -2.82843 -1.08184e-11 
2.37077 -2.82843 9.84712e-12 
2.56473 -2.82843 6.81988e-12 
2.76363 -2.82843 6.11192e-12 
2.97298 -2.82843 3.42443e-12 
3.18664 -2.82843 6.96161e-13 
3.39995 -2.82843 -5.33427e-13 
3.61446 -2.82843 -7.92304e-13 
3.82584 -2.82843 -5.52849e-13 
4.03542 -2.82843 -2.39926e-13 
4.2434 -2.82843 -9.00887e-14 
4.45211 -2.82843 1.79045e-13 
4.66192 -2.82843 1.9181e-13 
4.87273 -2.82843 1.8689e-13 
5.08335 -2.82843 1.66846e-13 
5.29521 -2.82843 1.38717e-13 
5.50719 -2.82843 1.07651e-13 
5.71984 -2.82843 9.71911e-14 
5.93444 -2.82843 8.8561e-14 
6.15034 -2.82843 7.7447e-14 
6.36589 -2.82843 6.43716e-14 
6.58529 -2.82843 6.55878e-14 
6.80902 -2.82843 1.02162e-13 
7.03504 -2.82843 9.39483e-14 
7.26402 -2.82843 2.48638e-14 
7.49952 -2.82843 3.84989e-14 
7.7398 -2.82843 -7.39965e-14 
7.98848 -2.82843 -9.41449e-14 
8.22792 -2.82843 -1.40493e-13 
8.48528 -2.82843 -1.79162e-13 
-8.48528 -2.59957 -8.76401e-14 
-8.2448 -2.57252 3.33904e-17 
-8.02798 -2.64371 -3.86998e-18 
-7.74613 -2.61452 1.15785e-17 
-7.50078 -2.5899 2.72098e-17 
-7.27408 -2.59175 -2.14176e-17 
-7.05303 -2.58184 3.48378e-17 
-6.85115 -2.66509 1.04674e-16 
-6.6117 -2.5666 7.45114e-17 
-6.40709 -2.58265 4.4799e-17 
-6.19387 -2.59627 7.49568e-17 
-5.97611 -2.59542 8.46534e-17 
-5.76038 -2.59758 6.31156e-17 
-5.54419 -2.59942 3.75217e-17 
-5.32832 -2.59804 -1.57617e-17 
-5.11392 -2.59943 -7.99142e-17 
-4.89838 -2.5999 -9.80226e-17 
-4.68346 -2.59766 -1.01785e-16 
-4.4696 -2.60125 5.75103e-17 
-4.25324 -2.60051 3.6636e-16 
-4.03719 -2.59992 8.53231e-16 
-3.82027 -2.60012 1.59468e-15 
-3.59897 -2.59397 -1.80484e-14 
-3.37692 -2.59691 3.01146e-14 
-3.15209 -2.59603 3.30824e-16 
-2.92735 -2.58706 -5.92163e-14 
-2.70362 -2.57713 -6.04508e-14 
-2.46523 -2.58805 6.45786e-13 
-2.21935 -2.57518 1.44555e-12 
-1.97396 -2.57709 3.53553e-12 
-1.73289 -2.58441 9.23163e-12 
-1.50641 -2.59574 2.44308e-11 
-1.30539 -2.59777 4.75907e-11 
-1.1344 -2.63942 1.09195e-10 
-0.9763 -2.65068 1.72344e-10 
-0.83174 -2.69434 3.60741e-10 
-0.704401 -2.68417 3.23433e-10 
-0.576974 -2.76047 7.45172e-10 
-0.362287 -2.80405 -4.5811e-09 
0.00966189 -2.72268 2.16947e-10 
0.446251 -2.79859 1.09221e-09 
0.630367 -2.74904 -7.986e-10 
0.754758 -2.67484 -5.25428e-10 
0.869087 -2.61669 -1.42022e-10 
0.994339 -2.65936 -1.47491e-10 
1.14647 -2.62024 -1.23501e-10 
1.33318 -2.62797 -6.53353e-11 
1.54795 -2.59065 -2.25941e-11 
1.77068 -2.57791 -7.69835e-12 
2.01901 -2.59032 -3.95897e-12 
2.27336 -2.59259 -1.50888e-12 
2.51156 -2.5594 -4.15231e-13 
2.73082 -2.58369 5.53452e-14 
2.95484 -2.59514 -1.49794e-14 
3.18103 -2.59594 -1.88619e-14 
3.406 -2.59666 -3.2256e-14 
3.62914 -2.60043 1.7e-14 
3.84634 -2.59988 -1.40708e-15 
4.05948 -2.59836 -7.27907e-16 
4.27113 -2.59837 -3.01076e-16 
4.48259 -2.5985 -4.29568e-17 
4.69391 -2.59844 8.86104e-17 
4.9052 -2.59763 1.08744e-16 
5.11741 -2.59847 6.87287e-17 
5.32971 -2.59784 1.34204e-17 
5.54281 -2.59766 -3.16942e-17 
5.75694 -2.59815 -6.15109e-17 
5.97165 -2.59722 -7.61071e-17 
6.18649 -2.59422 -7.81626e-17 
6.40376 -2.59501 -7.48444e-17 
6.6243 -2.59587 -6.35655e-17 
6.84665 -2.59469 -4.59359e-17 
7.07212 -2.59491 -2.94128e-17 
7.303 -2.59894 -1.87273e-17 
7.53862 -2.60131 -9.55054e-18 
7.77991 -2.60676 -4.76224e-18 
8.01724 -2.60522 -3.33954e-18 
8.26452 -2.61029 -2.20111e-17 
8.48528 -2.58114 1.15411e-13 
-8.48528 -2.37043 -1.38466e-13 
-8.27158 -2.31696 4.19957e-19 
-8.04315 -2.39442 3.09426e-18 
-7.81755 -2.42795 -2.29822e-18 
-7.59751 -2.1793 -3.1328e-17 
-7.55148 -2.37862 1.16979e-17 
-7.29999 -2.36475 4.44263e-18 
-7.0564 -2.35724 -2.58104e-17 
-6.80715 -2.43215 -2.35567e-18 
-6.56298 -2.32429 -2.61119e-17 
-6.34425 -2.34978 -2.11985e-17 
-6.12348 -2.36486 -1.23939e-17 
-5.90182 -2.36612 -5.69053e-17 
-5.68069 -2.37041 -4.72673e-17 
-5.46089 -2.37159 -6.24035e-17 
-5.2419 -2.37029 -7.20727e-17 
-5.02426 -2.37299 -8.08021e-17 
-4.80811 -2.37085 -7.34183e-17 
-4.59132 -2.37004 -2.97989e-17 
-4.37658 -2.37463 -9.60042e-18 
-4.1603 -2.37347 -1.17588e-17 
-3.94424 -2.37269 -2.85725e-17 
-3.72618 -2.37302 9.0207e-17 
-3.50294 -2.36791 3.13719e-16 
-3.27965 -2.36807 4.64444e-16 
-3.05367 -2.3623 -4.17549e-18 
-2.82287 -2.34535 -2.83716e-14 
-2.57783 -2.34942 -6.42074e-14 
-2.33153 -2.34314 -1.36738e-13 
-2.07512 -2.3348 4.7789e-13 
-1.82075 -2.34227 5.31701e-13 
-1.58377 -2.35788 -3.09577e-13 
-1.36964 -2.37258 -5.10454e-13 
-1.17089 -2.41963 -3.84871e-12 
-1.02155 -2.46406 2.48638e-12 
-0.858901 -2.53439 -1.52581e-11 
-0.602689 -2.62131 2.71824e-10 
-0.392128 -2.67075 -1.84794e-09 
-0.161516 -2.75427 1.41464e-09 
-0.0652917 -2.79212 9.92709e-10 
0.168375 -2.78648 -5.14768e-10 
0.567535 -2.65867 -4.78645e-10 
0.681156 -2.58068 8.7793e-11 
0.803574 -2.49649 -1.50937e-10 
0.986519 -2.46855 -3.19565e-11 
1.15156 -2.42281 8.3387e-12 
1.34415 -2.41303 -5.51256e-13 
1.5468 -2.34914 -4.63879e-12 
1.76505 -2.32695 -2.37929e-12 
1.99707 -2.35415 1.40031e-13 
2.25229 -2.35537 1.73833e-14 
2.49737 -2.32631 8.61186e-14 
2.74142 -2.34419 7.14555e-14 
2.97177 -2.36282 -7.00099e-16 
3.20261 -2.36938 -8.81943e-16 
3.42938 -2.37318 -5.35164e-16 
3.64897 -2.37288 -1.86502e-16 
3.8638 -2.37046 -4.27849e-17 
4.07666 -2.36868 -1.60141e-17 
4.2889 -2.36884 4.17427e-18 
4.50025 -2.36811 4.1553e-17 
4.71182 -2.36769 7.20113e-17 
4.92452 -2.36748 8.00623e-17 
5.13705 -2.36758 7.56442e-17 
5.35106 -2.36739 6.31416e-17 
5.56567 -2.36699 5.1298e-17 
5.77983 -2.36604 4.17667e-17 
5.99445 -2.36332 3.30452e-17 
6.2114 -2.36041 2.48947e-17 
6.43023 -2.36121 1.71195e-17 
6.64994 -2.36015 1.04041e-17 
6.87325 -2.35977 6.21978e-18 
7.10172 -2.36327 3.95672e-18 
7.33451 -2.37001 2.51115e-18 
7.57284 -2.37652 4.85948e-19 
7.80693 -2.37612 7.09841e-19 
8.04531 -2.3866 -5.97508e-18 
8.26792 -2.36097 -8.18102e-18 
8.48528 -2.3308 1.32324e-13 
-8.48528 -2.11624 -8.83057e-14 
-8.27411 -2.05332 -9.83778e-18 
-8.05931 -2.15483 1.28232e-17 
-7.82736 -2.18953 9.20208e-18 
-7.58469 -1.96745 -5.51405e-18 
-7.33575 -2.15171 2.45002e-17 
-7.08414 -2.14421 -9.81139e-20 
-6.81838 -2.22029 -4.14437e-17 
-6.5777 -2.11032 -3.63413e-17 
-6.33276 -2.11199 -2.34575e-17 
-6.11728 -2.13266 -6.13777e-17 
-5.89847 -2.1345 -3.67196e-17 
-5.6795 -2.14253 -5.61885e-17 
-5.46183 -2.14134 -6.5282e-17 
-5.24519 -2.1426 -6.24692e-17 
-5.02731 -2.14491 -5.57648e-17 
-4.81104 -2.14168 -4.80178e-17 
-4.59593 -2.14239 -2.71534e-17 
-4.37924 -2.14512 -3.5044e-18 
-4.16458 -2.1459 -1.20761e-17 
-3.94789 -2.14402 -7.0199e-17 
-3.73079 -2.14532 -1.011e-16 
-3.51033 -2.14114 2.29996e-16 
-3.28569 -2.13735 8.92938e-16 
-3.05744 -2.13103 -1.77057e-14 
-2.81742 -2.11793 -1.5484e-14 
-2.57326 -2.11529 1.32531e-14 
-2.32394 -2.10952 -8.5221e-14 
-2.08158 -2.09358 -6.44342e-14 
-1.83931 -2.11396 -3.08639e-14 
-1.59456 -2.1226 4.18034e-13 
-1.38381 -2.14417 1.82324e-12 
-1.19277 -2.21635 3.82026e-12 
-1.22703 -1.99059 7.28194e-12 
-1.02252 -2.24143 -3.02292e-11 
-0.89438 -2.37042 -2.28239e-11 
-0.732625 -2.5411 9.79022e-11 
-0.487818 -2.6924 9.12468e-10 
-0.0936218 -2.65778 2.12122e-09 
0.107801 -2.68664 2.36844e-10 
0.37137 -2.74971 -7.99617e-10 
0.473398 -2.64437 -4.75681e-10 
0.566395 -2.51693 -1.53049e-10 
0.831376 -2.36741 1.85763e-11 
0.967524 -2.28838 -5.40033e-11 
1.09614 -2.21043 -6.96648e-12 
1.28911 -2.20236 -6.86535e-12 
1.4814 -2.12698 2.05684e-12 
1.70046 -2.08588 2.01631e-12 
1.93526 -2.09883 2.72521e-13 
2.1711 -2.126 -1.68695e-14 
2.41446 -2.09601 -1.56014e-14 
2.66456 -2.10756 -5.90642e-14 
2.90133 -2.12641 -8.35675e-16 
3.13135 -2.13966 -1.33559e-15 
3.35794 -2.14532 -3.9114e-16 
3.58035 -2.14477 -1.51942e-17 
3.79923 -2.1407 1.21892e-16 
4.01488 -2.13903 7.9551e-17 
4.22983 -2.13942 1.88206e-17 
4.44395 -2.13788 1.26769e-17 
4.65785 -2.13743 2.71054e-17 
4.87253 -2.1378 4.65046e-17 
5.08829 -2.13677 7.31588e-17 
5.30443 -2.1378 5.35853e-17 
5.52248 -2.13706 6.40667e-17 
5.74086 -2.13402 5.65219e-17 
5.95834 -2.1308 1.92803e-16 
6.17724 -2.12833 4.4858e-17 
6.39931 -2.12747 2.57532e-17 
6.62202 -2.12419 3.97755e-17 
6.84575 -2.12484 3.58188e-17 
7.07364 -2.1305 5.74769e-19 
7.30659 -2.13899 4.9409e-18 
7.54323 -2.14915 -8.70706e-18 
7.78342 -2.1449 1.44516e-17 
8.02169 -2.1538 -5.62974e-18 
8.25006 -2.1165 5.07898e-18 
8.48528 -2.09907 1.13166e-13 
-8.48528 -1.86014 -2.96386e-14 
-8.26927 -1.79124 -8.93846e-18 
-8.0591 -1.90575 -4.18181e-18 
[...]
POINT_DATA 1978 
VECTORS vectors float
-0.000135601 0.0016611 0.999999 
4.58311e-05 0.00133455 0.999999 
4.82689e-05 0.000635659 1 
6.61315e-05 -0.000172602 1 
6.12864e-05 -0.000958547 1 
7.9283e-05 -0.00192935 0.999998 
8.88064e-05 -0.00300549 0.999995 
0.000109457 -0.0047479 0.999989 
0.00010763 -0.00591569 0.999983 
8.1711e-05 -0.00710435 0.999975 
7.63505e-05 -0.00839621 0.999965 
6.71365e-05 -0.00960011 0.999954 
5.80932e-05 -0.0107993 0.999942 
4.63407e-05 -0.0119922 0.999928 
2.28942e-05 -0.0131214 0.999914 
-1.35461e-05 -0.0140961 0.999901 
-5.6007e-05 -0.0148805 0.999889 
-0.000113789 -0.0153936 0.999882 
-0.000188308 -0.0155777 0.999879 
-0.000276357 -0.0153545 0.999882 
-0.000372477 -0.0146531 0.999893 
-0.000473933 -0.0133263 0.999911 
-0.000591338 -0.0111352 0.999938 
-0.000680102 -0.00781392 0.999969 
-0.000848785 -0.00264644 0.999996 
-0.00110394 0.0052416 0.999986 
-0.00128898 0.0150006 0.999887 
-0.001451 0.0279536 0.999608 
-0.00156556 0.0470984 0.998889 
-0.00176281 0.0710761 0.997469 
-0.00199891 0.103644 0.994612 
-0.00270968 0.146349 0.989229 
-0.00480793 0.205505 0.978644 
-0.00807407 0.279422 0.960134 
-0.0107522 0.362667 0.931857 
-0.0131363 0.456775 0.889485 
-0.0163842 0.550836 0.834453 
-0.0165935 0.654583 0.755808 
-0.00654818 0.820457 0.57167 
-0.0140196 0.991928 -0.12602 
0.0124129 0.782069 -0.623067 
0.0215565 0.634387 -0.772714 
0.0251223 0.535641 -0.844072 
0.0178245 0.469246 -0.882888 
0.0119078 0.372128 -0.928105 
0.00836954 0.278379 -0.960435 
0.00411017 0.198204 -0.980152 
0.00295649 0.14268 -0.989764 
0.00207919 0.101414 -0.994842 
0.00170176 0.0679944 -0.997684 
0.00160541 0.0439225 -0.999034 
0.00161078 0.0282168 -0.999601 
0.00133897 0.015424 -0.99988 
0.000981104 0.00441806 -0.99999 
0.000802099 -0.00311321 -0.999995 
0.000690296 -0.0080851 -0.999967 
0.000573057 -0.0114513 -0.999934 
0.000458863 -0.0135341 -0.999908 
0.000359626 -0.014736 -0.999891 
0.000265936 -0.0153519 -0.999882 
0.000181522 -0.015513 -0.99988 
0.000109576 -0.0152937 -0.999883 
5.14487e-05 -0.0147393 -0.999891 
8.78834e-06 -0.0139306 -0.999903 
-2.11266e-05 -0.0129424 -0.999916 
-4.20466e-05 -0.0118452 -0.99993 
-5.68037e-05 -0.0106823 -0.999943 
-6.69658e-05 -0.00947477 -0.999955 
-7.7616e-05 -0.00823471 -0.999966 
-8.6713e-05 -0.00696714 -0.999976 
-8.84178e-05 -0.00566855 -0.999984 
-8.57499e-05 -0.00438195 -0.99999 
-8.0456e-05 -0.00315022 -0.999995 
-7.14339e-05 -0.00200702 -0.999998 
-6.21472e-05 -0.000961896 -1 
-5.33486e-05 -3.84847e-05 -1 
-2.72054e-05 0.000733878 -1 
-4.609e-05 0.00126401 -0.999999 
0.000131456 0.0016775 -0.999999 
-0.000538747 0.00125194 0.999999 
-0.000231645 0.000965461 1 
2.77952e-05 0.000643291 1 
3.25459e-05 -0.000186875 1 
-2.45156e-05 -0.00108683 0.999999 
-1.63149e-05 -0.00200721 0.999998 
-4.45178e-05 -0.00297352 0.999996 
0.000198217 -0.00403791 0.999992 
-0.000105964 -0.00533396 0.999986 
-0.000153223 -0.00647304 0.999979 
-0.000192294 -0.00768556 0.99997 
-0.000318392 -0.00889566 0.99996 
-0.000443956 -0.0100713 0.999949 
-0.000594867 -0.0112103 0.999937 
-0.000815544 -0.0122592 0.999925 
-0.00109962 -0.0131612 0.999913 
-0.00146637 -0.0138463 0.999903 
-0.00195273 -0.0142517 0.999897 
-0.00253387 -0.0143861 0.999893 
-0.0032533 -0.014116 0.999895 
-0.00401081 -0.0133517 0.999903 
-0.00470485 -0.01194 0.999918 
-0.00522584 -0.00963916 0.99994 
-0.00542769 -0.00609075 0.999967 
-0.00521879 -0.000746747 0.999986 
-0.00474157 0.00758885 0.99996 
-0.00407787 0.0192705 0.999806 
-0.00332889 0.0358798 0.999351 
-0.000564388 0.058334 0.998297 
0.00283918 0.0877794 0.996136 
0.00664531 0.128825 0.991645 
0.0078775 0.182138 0.983242 
0.0131884 0.247138 0.968891 
0.015766 0.327797 0.944617 
0.0192724 0.414285 0.909943 
0.0152741 0.52674 0.849889 
0.0315481 0.610322 0.791525 
0.00528978 0.718728 0.695272 
0.00717916 0.8825 0.470258 
-0.0289075 0.99844 -0.0477738 
-0.00389842 0.833622 -0.552322 
0.0127054 0.683447 -0.72989 
-0.0128525 0.570169 -0.821427 
-0.0296992 0.490069 -0.871178 
-0.0116286 0.417183 -0.908748 
-0.0101288 0.325936 -0.945338 
-0.00460642 0.239761 -0.970821 
-0.00698911 0.170247 -0.985377 
-0.00530014 0.120589 -0.992688 
-0.000818625 0.0812938 -0.99669 
0.00181879 0.0524121 -0.998624 
0.00258573 0.0317958 -0.999491 
0.00409827 0.0167934 -0.999851 
0.004765 0.00561809 -0.999973 
0.00514391 -0.00185124 -0.999985 
0.00535165 -0.00679232 -0.999963 
0.00517802 -0.0100564 -0.999936 
0.00464857 -0.0121728 -0.999915 
0.00395861 -0.0134351 -0.999902 
0.00321438 -0.014106 -0.999895 
0.00252566 -0.0143285 -0.999894 
0.00193928 -0.0141903 -0.999897 
0.00147154 -0.0137486 -0.999904 
0.00110156 -0.0130639 -0.999914 
0.000828144 -0.0121859 -0.999925 
0.000620449 -0.0111729 -0.999937 
0.000454052 -0.0100726 -0.999949 
0.00032017 -0.00891762 -0.99996 
0.000213042 -0.00773072 -0.99997 
0.000117503 -0.00651939 -0.999979 
4.98534e-05 -0.00529016 -0.999986 
1.74229e-05 -0.00408239 -0.999992 
6.21418e-06 -0.00292378 -0.999996 
-3.74183e-06 -0.00183772 -0.999998 
-3.76281e-06 -0.000858185 -1 
3.18346e-05 -1.10684e-05 -1 
0.000123911 0.000619474 -1 
0.000234562 0.00107664 -0.999999 
0.000551727 0.00123543 -0.999999 
-0.000478538 0.000908989 0.999999 
-0.000353254 0.000827438 1 
-0.000293716 0.000537334 1 
-0.000237818 3.37331e-05 1 
-0.000408342 -0.000620978 1 
-0.00027917 -0.000784728 1 
-0.000329638 -0.00179867 0.999998 
-0.000373309 -0.00296802 0.999996 
-0.000330196 -0.00426191 0.999991 
-0.000615644 -0.00539364 0.999985 
-0.000683988 -0.00657935 0.999978 
-0.000795593 -0.00777164 0.99997 
-0.000991371 -0.00892869 0.99996 
-0.00119839 -0.0100661 0.999949 
-0.00145685 -0.0111032 0.999937 
-0.001794 -0.0120058 0.999926 
-0.00221558 -0.0127035 0.999917 
-0.00275556 -0.0130869 0.999911 
-0.00343215 -0.0132153 0.999907 
-0.00420571 -0.0130745 0.999906 
-0.00511009 -0.0125023 0.999909 
-0.00597766 -0.0113758 0.999917 
-0.00660585 -0.00954396 0.999933 
-0.0067644 -0.00686876 0.999954 
-0.00619578 -0.0030655 0.999976 
-0.00482814 0.0025433 0.999985 
-0.00275772 0.0110419 0.999935 
-0.00022788 0.0242069 0.999707 
0.00344953 0.0420123 0.999111 
0.0103416 0.0663696 0.997742 
0.0193981 0.100095 0.994789 
0.030073 0.146134 0.988808 
0.0431044 0.202908 0.978249 
0.0564965 0.279125 0.958591 
0.0741432 0.359687 0.930123 
0.0632095 0.472177 0.879235 
0.0791904 0.671137 0.737092 
0.0683509 0.828343 0.556036 
-0.0050352 0.98843 0.151593 
-0.00912618 0.997559 0.069223 
-0.0239937 0.963925 -0.26509 
-0.0313471 0.7115 -0.701987 
-0.065535 0.636101 -0.768818 
-0.0824159 0.506267 -0.85843 
-0.0619432 0.387702 -0.919701 
-0.053345 0.291822 -0.954984 
-0.0389818 0.216624 -0.975477 
-0.0316633 0.15585 -0.987273 
-0.0224617 0.110481 -0.993624 
-0.0122666 0.0771159 -0.996947 
-0.00526515 0.0496679 -0.998752 
-0.00167466 0.0290412 -0.999577 
0.00189276 0.0149154 -0.999887 
0.00395252 0.0047799 -0.999981 
0.00551737 -0.00179016 -0.999983 
0.00647884 -0.00601958 -0.999961 
0.00669632 -0.00887403 -0.999938 
0.0062788 -0.0108329 -0.999922 
0.00549936 -0.0121102 -0.999912 
0.00460909 -0.0128441 -0.999907 
0.00377253 -0.0131537 -0.999906 
0.00305915 -0.0131296 -0.999909 
0.00247411 -0.0128234 -0.999915 
0.00201086 -0.0122693 -0.999923 
0.00164468 -0.0115007 -0.999933 
0.00135591 -0.0105686 -0.999943 
0.00112111 -0.00953297 -0.999954 
0.000926262 -0.00843226 -0.999964 
0.000756539 -0.00729072 -0.999973 
0.000606387 -0.00612928 -0.999981 
0.000494107 -0.00496839 -0.999988 
0.000410415 -0.00382213 -0.999993 
0.00034603 -0.00271383 -0.999996 
0.000296666 -0.00167892 -0.999999 
0.000259471 -0.000749805 -1 
0.000257645 9.06215e-07 -1 
0.000299778 0.000590693 -1 
0.000358242 0.00087903 -1 
0.000454331 0.0008969 -1 
-0.000239676 0.000872223 1 
-0.000273939 0.000874773 1 
-0.000325751 0.000549571 1 
-0.000344727 5.1958e-05 1 
-0.000545727 -0.000585325 1 
-0.000519246 -0.001556 0.999999 
-0.000619065 -0.00268526 0.999996 
-0.000659841 -0.0040089 0.999992 
-0.000945306 -0.00512654 0.999986 
-0.00113615 -0.00635828 0.999979 
-0.00130227 -0.00746048 0.999971 
-0.0015285 -0.00855225 0.999962 
-0.00179766 -0.00960281 0.999952 
-0.00212204 -0.0105466 0.999942 
-0.00250821 -0.0113319 0.999933 
-0.00298864 -0.0118917 0.999925 
-0.00361116 -0.0121646 0.99992 
-0.00434584 -0.0121541 0.999917 
-0.00521706 -0.0118805 0.999916 
-0.00618383 -0.0112469 0.999918 
-0.00711835 -0.0100898 0.999924 
-0.00768262 -0.00838789 0.999935 
-0.00757686 -0.00604079 0.999953 
-0.00654492 -0.00288672 0.999974 
-0.00446725 0.00172883 0.999989 
-0.00133368 0.00874315 0.999961 
0.00302673 0.0198663 0.999798 
0.00945673 0.0357236 0.999317 
0.0192365 0.0559336 0.998249 
0.0317612 0.0854495 0.995836 
0.047333 0.123752 0.991184 
0.0656465 0.173577 0.98263 
0.0921105 0.242544 0.965758 
0.0970997 0.175132 0.979745 
0.121143 0.306207 0.944226 
0.117517 0.409807 0.904571 
0.103329 0.564192 0.819152 
0.0365768 0.787723 0.614943 
0.00292317 0.987808 0.155649 
-0.048001 0.980192 -0.192142 
-0.0237394 0.862365 -0.50573 
-0.069487 0.767966 -0.636711 
-0.11856 0.655595 -0.745747 
-0.137703 0.440722 -0.887019 
-0.11125 0.362007 -0.925513 
-0.102102 0.276763 -0.955499 
-0.0729403 0.208357 -0.975329 
-0.0576501 0.143449 -0.987977 
-0.0410814 0.100287 -0.99411 
-0.0259916 0.071227 -0.997121 
-0.0145788 0.0487278 -0.998706 
-0.00753822 0.0289454 -0.999553 
-0.00149951 0.0151523 -0.999884 
0.0022871 0.00595713 -0.99998 
0.00500932 -0.00036243 -0.999987 
0.00680517 -0.00435475 -0.999967 
0.00764472 -0.00702631 -0.999946 
0.00757544 -0.00898873 -0.999931 
0.00690155 -0.0104261 -0.999922 
0.00595003 -0.0114027 -0.999917 
0.00500334 -0.0119415 -0.999916 
0.00416525 -0.0121316 -0.999918 
0.00346386 -0.0120359 -0.999922 
0.00289406 -0.0116611 -0.999928 
0.00242915 -0.0110575 -0.999936 
0.00205475 -0.0102375 -0.999946 
0.00174648 -0.0092785 -0.999955 
0.00148774 -0.00823889 -0.999965 
0.00126317 -0.00715291 -0.999974 
0.00106688 -0.00604168 -0.999981 
0.000909751 -0.00491522 -0.999988 
0.000773985 -0.00380569 -0.999992 
0.000652532 -0.00273027 -0.999996 
0.00054602 -0.00171869 -0.999998 
0.000452021 -0.000817905 -1 
0.000379183 -5.86921e-05 -1 
0.000326561 0.000507896 -1 
0.000297124 0.000843073 -1 
0.000245075 0.000873167 -1 
-6.59051e-05 0.00108049 0.999999 
-0.000176906 0.00103024 0.999999 
-0.000330684 0.000669937 1 
-0.000435442 0.000151615 1 
-0.000680817 -0.00148951 0.999999 
-0.000802319 -0.0024916 0.999997 
-0.000769418 -0.00214896 0.999997 
-0.000887442 -0.00375552 0.999993 
-0.00111254 -0.0045301 0.999989 
-0.00130443 -0.00566999 0.999983 
-0.00156041 -0.00677464 0.999976 
-0.00180887 -0.00779945 0.999968 
-0.00210154 -0.00881015 0.999959 
-0.00246215 -0.00971456 0.99995 
-0.00288151 -0.0104629 0.999941 
-0.00338219 -0.0110048 0.999934 
-0.00400997 -0.0112377 0.999929 
-0.00475815 -0.011188 0.999926 
-0.00562455 -0.0108935 0.999925 
-0.00661274 -0.0102865 0.999925 
-0.00760466 -0.00931426 0.999928 
-0.0083865 -0.00788435 0.999934 
-0.00856275 -0.00607343 0.999945 
-0.00780615 -0.00379944 0.999962 
-0.0058712 -0.000662336 0.999983 
-0.00267493 0.00410746 0.999988 
0.0021925 0.0117034 0.999929 
0.00915176 0.0225821 0.999703 
0.0190047 0.0363341 0.999159 
0.0324067 0.0570197 0.997847 
0.0487172 0.0836928 0.9953 
0.0706513 0.118034 0.990493 
0.104408 0.127984 0.986265 
0.150373 0.16795 0.974259 
0.136159 0.220296 0.965883 
0.169992 0.352091 0.920399 
0.140094 0.489241 0.860823 
0.105272 0.861764 0.496267 
0.0714899 0.819391 0.568759 
-0.0412863 0.995068 -0.0901982 
-0.0529312 0.923392 -0.38019 
-0.132661 0.778853 -0.613016 
-0.145956 0.561184 -0.814721 
-0.207315 0.364085 -0.907999 
-0.166468 0.298829 -0.939676 
-0.130102 0.217216 -0.967415 
-0.0954643 0.164475 -0.981751 
-0.0701976 0.111577 -0.991273 
-0.048175 0.077237 -0.995848 
-0.0310515 0.0537498 -0.998072 
-0.0183577 0.0361502 -0.999178 
-0.00865446 0.0206204 -0.99975 
-0.0019279 0.0104613 -0.999943 
0.00272577 0.00340491 -0.999991 
0.00583807 -0.00129685 -0.999982 
0.00774019 -0.00427116 -0.999961 
0.00853119 -0.0063507 -0.999943 
0.00835322 -0.00799214 -0.999933 
0.00757511 -0.00932759 -0.999928 
0.00657932 -0.0102941 -0.999925 
0.00561206 -0.0108887 -0.999925 
0.00475231 -0.0111628 -0.999926 
0.0040188 -0.0111624 -0.99993 
0.00340348 -0.0108664 -0.999935 
0.00289744 -0.0103766 -0.999942 
0.00247478 -0.00962852 -0.999951 
0.00212026 -0.00873429 -0.99996 
0.00181327 -0.00775099 -0.999968 
0.00154329 -0.00671284 -0.999976 
0.00131323 -0.00565494 -0.999983 
0.00111896 -0.0045729 -0.999989 
0.000948871 -0.00349666 -0.999993 
0.000805161 -0.00246096 -0.999997 
0.000680185 -0.00149297 -0.999999 
0.000566795 -0.000633846 -1 
0.000453866 9.02439e-05 -1 
0.000349035 0.000617377 -1 
0.000215088 0.000974983 -1 
6.92501e-05 0.0010732 -0.999999 
2.25558e-05 0.00123553 0.999999 
-9.21281e-05 0.0011255 0.999999 
-0.000260007 0.000721152 1 
-0.000392318 0.000196178 1 
-0.000529575 -0.000493914 1 
-0.000643691 -0.00130925 0.999999 
-0.000917928 -0.00299225 0.999995 
-0.000941428 -0.00321826 0.999994 
-0.00112703 -0.00412544 0.999991 
-0.00136943 -0.00524176 0.999985 
-0.00164522 -0.00628692 0.999979 
-0.00196041 -0.00730392 0.999971 
-0.00228753 -0.00827712 0.999963 
-0.00265945 -0.00910853 0.999955 
-0.00310165 -0.009791 0.999947 
-0.00362463 -0.0102625 0.999941 
-0.00425293 -0.0104209 0.999937 
-0.00498586 -0.0103103 0.999934 
-0.00582593 -0.00994902 0.999934 
-0.00676213 -0.00932521 0.999934 
-0.00772702 -0.00839606 0.999935 
-0.00855276 -0.00719857 0.999938 
-0.0089409 -0.00569566 0.999944 
-0.00857385 -0.00397213 0.999955 
-0.00714446 -0.00176934 0.999973 
-0.00443613 0.00137961 0.999989 
1.35752e-06 0.00631871 0.99998 
0.00663327 0.0134166 0.999888 
0.0164088 0.0226272 0.999609 
0.03027 0.0374026 0.998842 
0.0479701 0.0564442 0.997253 
0.0706188 0.080526 0.994248 
0.103241 0.0832593 0.991166 
0.140032 0.101177 0.984964 
0.176304 0.27445 0.945301 
0.195879 0.418575 0.886807 
0.142848 0.693822 0.705836 
0.177356 0.563461 0.806881 
0.0256991 0.924602 0.380067 
-0.0490431 0.857277 -0.512514 
-0.0854903 0.944778 -0.316365 
-0.185604 0.691338 -0.698286 
-0.21118 0.481131 -0.850833 
-0.231553 0.239261 -0.942941 
-0.180055 0.204612 -0.96214 
-0.136814 0.145451 -0.97986 
-0.100587 0.111342 -0.988679 
-0.0687432 0.0733689 -0.994933 
-0.0481223 0.0501055 -0.997584 
-0.0318034 0.0375993 -0.998787 
-0.0183062 0.0250937 -0.999518 
-0.00796109 0.0137153 -0.999874 
-0.000625408 0.00618215 -0.999981 
0.00398133 0.00136282 -0.999991 
0.00683326 -0.00196613 -0.999975 
0.00841008 -0.00414723 -0.999956 
0.00891215 -0.00575482 -0.999944 
0.00857865 -0.00712402 -0.999938 
0.00780335 -0.00831749 -0.999935 
0.00684799 -0.00925816 -0.999934 
0.00593188 -0.0099127 -0.999933 
0.00508662 -0.0102634 -0.999934 
0.004359 -0.0103933 -0.999937 
0.00372046 -0.0102049 -0.999941 
0.00317978 -0.00979038 -0.999947 
0.0027219 -0.00912197 -0.999955 
0.00232963 -0.00827962 -0.999963 
0.00199017 -0.007365 -0.999971 
0.0016836 -0.00637215 -0.999978 
0.00141214 -0.00533943 -0.999985 
0.00117442 -0.00429548 -0.99999 
0.000969349 -0.00326912 -0.999994 
0.000791418 -0.00226913 -0.999997 
0.000639343 -0.00133547 -0.999999 
0.000506476 -0.000504792 -1 
0.000375605 0.000199424 -1 
0.000255469 0.000725842 -1 
0.000108187 0.00109576 -0.999999 
-2.17593e-05 0.0012143 -0.999999 
8.38494e-05 0.00135735 0.999999 
-3.2113e-05 0.00124124 0.999999 
-0.00018396 0.000788343 1 
-0.000315444 0.000231566 1 
-0.000448882 -0.000429592 1 
-0.000568537 -0.00111123 0.999999 
-0.000725605 -0.00196766 0.999998 
-0.000950141 -0.00295132 0.999995 
-0.00116698 -0.00402935 0.999991 
-0.00143264 -0.00507135 0.999986 
-0.00173101 -0.00609428 0.99998 
-0.00204412 -0.00701729 0.999973 
-0.00237937 -0.0079089 0.999966 
-0.00277044 -0.00871908 0.999958 
-0.0032067 -0.00929907 0.999952 
-0.00373214 -0.00968931 0.999946 
-0.00433438 -0.00973619 0.999943 
-0.00503942 -0.00953133 0.999942 
-0.00581081 -0.00908808 0.999942 
-0.00663451 -0.00844297 0.999942 
-0.00740327 -0.0075553 0.999944 
-0.0080862 -0.00653067 0.999946 
-0.00835903 -0.00532766 0.999951 
-0.00802707 -0.00399194 0.99996 
-0.0066997 -0.00241116 0.999975 
-0.00404518 -0.000158004 0.999992 
0.000395994 0.00320936 0.999995 
0.00743389 0.00770765 0.999943 
0.0185591 0.0141799 0.999727 
0.0337066 0.0251557 0.999115 
0.0539585 0.0386546 0.997795 
0.07852 0.0499348 0.995661 
0.112817 0.0432976 0.992672 
0.15256 0.0516972 0.986941 
0.205079 0.21415 0.95503 
0.23908 0.312836 0.919225 
0.276946 0.251415 0.927411 
0.247144 0.438259 0.864204 
0.230993 0.598206 0.767328 
0.0318611 0.957381 0.287067 
-0.0831848 0.866604 -0.492014 
-0.237285 0.603554 -0.761195 
-0.282916 0.352608 -0.891979 
-0.237347 0.159567 -0.95823 
-0.183316 0.133518 -0.973945 
-0.138899 0.0882008 -0.986371 
-0.0988334 0.0682215 -0.992763 
-0.0720593 0.0408713 -0.996563 
-0.0501426 0.0262788 -0.998396 
-0.0325062 0.0209598 -0.999252 
-0.018785 0.0150345 -0.999711 
-0.0080898 0.00746837 -0.999939 
-0.000613297 0.0023606 -0.999997 
0.00395271 -0.000625471 -0.999992 
0.00659815 -0.00279598 -0.999974 
0.00795946 -0.00432562 -0.999959 
0.00833828 -0.00552761 -0.99995 
0.0080504 -0.00657652 -0.999946 
0.00743431 -0.00757212 -0.999944 
0.00666346 -0.0084402 -0.999942 
0.00585597 -0.00908804 -0.999942 
0.00511054 -0.00954519 -0.999941 
0.00440371 -0.00970632 -0.999943 
0.00379237 -0.00962248 -0.999947 
0.00325721 -0.00926391 -0.999952 
0.00280117 -0.00867636 -0.999958 
0.00240549 -0.0078995 -0.999966 
0.00205467 -0.00700902 -0.999973 
0.00174009 -0.00605881 -0.99998 
0.00145305 -0.00505684 -0.999986 
0.00119615 -0.00405103 -0.999991 
0.000965315 -0.00305096 -0.999995 
0.000760543 -0.00207758 -0.999998 
0.000581899 -0.00116893 -0.999999 
0.000425135 -0.00036282 -1 
0.000283284 0.000321412 -1 
0.000157792 0.00083466 -1 
2.11204e-05 0.00120547 -0.999999 
-0.000107387 0.00131571 -0.999999 
0.00012626 0.0014758 0.999999 
1.63147e-05 0.00140499 0.999999 
-0.000130873 0.000967597 1 
-0.000268179 0.000422783 1 
-0.000412906 -0.000265957 1 
-0.000568118 -0.00102188 0.999999 
-0.000756034 -0.00194979 0.999998 
-0.000962207 -0.0028554 0.999995 
-0.00118952 -0.003872 0.999992 
-0.0014445 -0.00485884 0.999987 
-0.00172021 -0.0058099 0.999982 
-0.00202825 -0.0067582 0.999975 
-0.00235831 -0.00762027 0.999968 
-0.00271825 -0.00834463 0.999962 
-0.00314089 -0.00891968 0.999955 
-0.00361693 -0.00920124 0.999951 
-0.00418574 -0.00922383 0.999949 
-0.00482008 -0.00895235 0.999948 
-0.00548988 -0.00846772 0.999949 
-0.0061394 -0.00780804 0.999951 
-0.00672622 -0.00705596 0.999953 
-0.00714283 -0.00623671 0.999955 
-0.00723285 -0.00540526 0.999959 
-0.00678239 -0.00459441 0.999966 
-0.00546078 -0.00374444 0.999978 
-0.00287843 -0.00259611 0.999993 
0.00153155 -0.000834592 0.999999 
0.00898965 0.00146158 0.999959 
0.0195696 0.00333889 0.999803 
0.0336272 0.00950563 0.999389 
0.0538762 0.0157173 0.998424 
0.081865 0.0186213 0.996469 
0.126684 0.0073392 0.991916 
0.173146 -0.000865222 0.984896 
0.230879 0.155488 0.960478 
0.183458 0.120558 0.975607 
0.241419 0.0900893 0.96623 
0.313036 0.398731 0.861987 
0.218065 0.723464 0.655018 
0.0400844 0.974787 0.219506 
-0.141323 0.882272 -0.449027 
-0.302695 0.441598 -0.844611 
-0.197406 0.372791 -0.906674 
-0.236299 0.0929819 -0.967221 
-0.184906 0.0737707 -0.979984 
-0.134709 0.0401037 -0.990073 
-0.100258 0.0260725 -0.99462 
-0.0717537 0.00999858 -0.997372 
-0.0491514 0.00402722 -0.998783 
-0.032581 0.00505684 -0.999456 
-0.0191007 0.00427724 -0.999808 
-0.00900214 0.000747151 -0.999959 
-0.00187299 -0.0015739 -0.999997 
0.00276742 -0.00301179 -0.999992 
0.00540102 -0.00408463 -0.999977 
0.0067656 -0.00493268 -0.999965 
0.00721666 -0.00565929 -0.999958 
0.00712608 -0.00636146 -0.999954 
0.00672359 -0.00710307 -0.999952 
0.00617212 -0.00787678 -0.99995 
0.0055281 -0.00852211 -0.999948 
0.00487573 -0.00898403 -0.999948 
0.00423948 -0.00919869 -0.999949 
0.00367488 -0.00917371 -0.999951 
0.00317478 -0.00886041 -0.999956 
0.00275124 -0.00833732 -0.999961 
0.00237288 -0.0075951 -0.999968 
0.00204312 -0.00675138 -0.999975 
0.0017433 -0.00583405 -0.999981 