# vtk DataFile Version 3.0 
Exported using Morpho https://github.com/Morpho-lang/morpho 
ASCII 
DATASET UNSTRUCTURED_GRID 

POINTS 1978 float 
-8.48528 -2.82843 9.31615e-14 
-8.2713 -2.82843 1.07364e-13 
-7.97245 -2.82843 7.17575e-14 
-7.72366 -2.82843 1.66462e-14 
-7.49769 -2.82843 -4.44055e-14 
-7.28149 -2.82843 3.08223e-14 
-7.05886 -2.82843 -8.21311e-14 
-6.74769 -2.82843 -5.15085e-14 
-6.54818 -2.82843 -3.34433e-14 
-6.34291 -2.82843 -3.67551e-14 
-6.12458 -2.82843 -3.73732e-14 
-5.91293 -2.82843 -5.47361e-14 
-5.70093 -2.82843 -4.7606e-14 
-5.48843 -2.82843 -6.57158e-14 
-5.2784 -2.82843 -7.79376e-14 
-5.06778 -2.82843 -7.77697e-14 
-4.85635 -2.82843 -7.80566e-14 
-4.64669 -2.82843 -8.2216e-14 
-4.43485 -2.82843 -1.47112e-13 
-4.22493 -2.82843 1.45374e-14 
-4.01628 -2.82843 1.5265e-13 
-3.8069 -2.82843 3.42779e-13 
-3.59605 -2.82843 4.51007e-13 
-3.38672 -2.82843 3.82809e-13 
-3.17642 -2.82843 -4.44797e-13 
-2.96703 -2.82843 -1.87701e-12 
-2.76628 -2.82843 -3.81656e-12 
-2.56628 -2.82843 -7.27387e-12 
-2.33804 -2.82843 -3.57491e-12 
-2.11126 -2.82843 2.37802e-11 
-1.87456 -2.82843 1.25309e-10 
-1.64541 -2.82843 3.74451e-10 
-1.42532 -2.82843 1.02895e-09 
-1.24024 -2.82843 2.84192e-09 
-1.07285 -2.82843 5.98773e-09 
-0.920746 -2.82843 1.22101e-08 
-0.777536 -2.82843 1.8093e-08 
-0.665883 -2.82843 4.62635e-08 
-0.455469 -2.82842 2.35892e-07 
0.0684394 -2.82842 -7.17761e-08 
0.518516 -2.82843 -1.3527e-07 
0.71182 -2.82843 -2.10152e-08 
0.816748 -2.82843 -1.3857e-08 
0.917075 -2.82843 -1.01277e-08 
1.0711 -2.82843 -5.73359e-09 
1.23595 -2.82843 -2.09949e-09 
1.44668 -2.82843 -7.52991e-10 
1.663 -2.82843 -3.20379e-10 
1.88716 -2.82843 -1.01108e-10 
2.13266 -2.82843 -9.36674e-12 
2.37077 -2.82843 5.13271e-12 
2.56473 -2.82843 3.88627e-12 
2.76363 -2.82843 3.45107e-12 
2.97298 -2.82843 1.94645e-12 
3.18664 -2.82843 4.02767e-13 
3.39995 -2.82843 -2.98891e-13 
3.61446 -2.82843 -4.47868e-13 
3.82584 -2.82843 -3.13214e-13 
4.03542 -2.82843 -1.36107e-13 
4.2434 -2.82843 -5.10351e-14 
4.45211 -2.82843 1.01345e-13 
4.66192 -2.82843 1.08646e-13 
4.87273 -2.82843 1.0586e-13 
5.08335 -2.82843 9.45073e-14 
5.29521 -2.82843 7.85735e-14 
5.50719 -2.82843 6.09771e-14 
5.71984 -2.82843 5.50521e-14 
5.93444 -2.82843 5.01636e-14 
6.15034 -2.82843 4.38683e-14 
6.36589 -2.82843 3.64626e-14 
6.58529 -2.82843 3.71525e-14 
6.80902 -2.82843 5.78662e-14 
7.03504 -2.82843 5.32133e-14 
7.26402 -2.82843 1.40863e-14 
7.49952 -2.82843 2.18044e-14 
7.7398 -2.82843 -4.1912e-14 
7.98848 -2.82843 -5.33266e-14 
8.22792 -2.82843 -7.95794e-14 
8.48528 -2.82843 -1.01483e-13 
-8.48528 -2.59957 -4.96422e-14 
-8.24401 -2.5736 1.89134e-17 
-8.02359 -2.64177 -2.19208e-18 
-7.74421 -2.61579 6.55843e-18 
-7.49886 -2.59208 1.54125e-17 
-7.27334 -2.59057 -1.21316e-17 
-7.05273 -2.58007 1.97332e-17 
-6.85219 -2.66528 5.92907e-17 
-6.61216 -2.56753 4.22056e-17 
-6.40763 -2.58258 2.53756e-17 
-6.19461 -2.59659 4.24579e-17 
-5.97676 -2.59582 4.79504e-17 
-5.76082 -2.59783 3.57507e-17 
-5.54458 -2.59984 2.12535e-17 
-5.32895 -2.59807 -8.92795e-18 
-5.11443 -2.59952 -4.5266e-17 
-4.89887 -2.59998 -5.55231e-17 
-4.68404 -2.59778 -5.76542e-17 
-4.47032 -2.60144 3.25757e-17 
-4.25403 -2.60068 2.07518e-16 
-4.03807 -2.60007 4.83297e-16 
-3.82138 -2.6005 9.03276e-16 
-3.60049 -2.59533 1.03378e-14 
-3.37857 -2.59689 1.24455e-14 
-3.15349 -2.59611 1.87389e-16 
-2.92782 -2.58766 -1.64391e-14 
-2.70351 -2.57733 -1.67818e-14 
-2.46483 -2.58796 -2.10699e-13 
-2.21873 -2.57428 -4.71636e-13 
-1.97413 -2.57618 -1.15353e-12 
-1.73239 -2.58323 -3.01198e-12 
-1.50445 -2.59155 -7.97096e-12 
-1.30299 -2.59682 -1.55273e-11 
-1.13145 -2.63727 -3.56268e-11 
-0.972958 -2.6502 -5.62303e-11 
-0.828181 -2.69614 -1.17698e-10 
-0.700157 -2.68567 -1.05526e-10 
-0.575883 -2.76044 -2.43125e-10 
-0.36025 -2.8026 1.49466e-09 
0.0108574 -2.72122 -7.07826e-11 
0.447365 -2.7985 -3.56354e-10 
0.627333 -2.75148 2.60557e-10 
0.756787 -2.67868 1.7143e-10 
0.861405 -2.61068 4.63373e-11 
0.987129 -2.66001 4.81215e-11 
1.14313 -2.62091 4.02942e-11 
1.33186 -2.62439 2.13168e-11 
1.54719 -2.58679 7.37173e-12 
1.77097 -2.5769 2.51172e-12 
2.01947 -2.58996 1.29168e-12 
2.27451 -2.59151 4.923e-13 
2.51373 -2.55868 1.39727e-13 
2.73195 -2.58582 1.53644e-14 
2.9549 -2.59315 8.5799e-15 
3.1827 -2.59336 1.08037e-14 
3.40915 -2.59998 -1.33305e-14 
3.63068 -2.60051 -9.7373e-15 
3.84737 -2.60006 -7.97014e-16 
4.06022 -2.59858 -4.1231e-16 
4.2716 -2.59849 -1.70539e-16 
4.48287 -2.59853 -2.43321e-17 
4.69414 -2.59853 5.01918e-17 
4.90542 -2.59772 6.15961e-17 
5.11762 -2.59864 3.89301e-17 
5.32991 -2.59807 7.60172e-18 
5.54297 -2.59792 -1.79526e-17 
5.757 -2.59841 -3.48417e-17 
5.97165 -2.59744 -4.31095e-17 
6.18642 -2.59438 -4.42738e-17 
6.40364 -2.59517 -4.23943e-17 
6.62423 -2.5961 -3.60055e-17 
6.84664 -2.59489 -2.60196e-17 
7.07214 -2.59506 -1.66603e-17 
7.30307 -2.59906 -1.06078e-17 
7.53882 -2.60144 -5.40973e-18 
7.78023 -2.60662 -2.69749e-18 
8.0174 -2.60516 -1.89162e-18 
8.26513 -2.6105 -1.24678e-17 
8.48528 -2.58114 6.53723e-14 
-8.48528 -2.37043 -7.84316e-14 
-8.27213 -2.3161 2.37877e-19 
-8.0449 -2.39496 1.75269e-18 
-7.81604 -2.42636 -1.30179e-18 
-7.59659 -2.17873 -1.77451e-17 
-7.55389 -2.38192 6.62604e-18 
-7.3028 -2.36391 2.51644e-18 
-7.05739 -2.356 -1.46198e-17 
-6.80587 -2.43198 -1.33433e-18 
-6.56164 -2.32453 -1.47906e-17 
-6.34316 -2.3498 -1.20075e-17 
-6.1227 -2.36536 -7.02031e-18 
-5.90104 -2.3668 -3.2233e-17 
-5.67981 -2.37099 -2.67737e-17 
-5.46107 -2.37147 -3.53473e-17 
-5.24178 -2.37076 -4.08243e-17 
-5.02371 -2.37328 -4.57689e-17 
-4.80734 -2.37099 -4.15865e-17 
-4.59052 -2.37022 -1.6879e-17 
-4.37589 -2.37489 -5.43798e-18 
-4.1597 -2.3737 -6.66056e-18 
-3.94385 -2.37293 -1.61844e-17 
-3.72626 -2.37375 5.10961e-17 
-3.50418 -2.36905 1.777e-16 
-3.28094 -2.36795 2.63076e-16 
-3.0549 -2.36316 -2.36513e-18 
-2.82449 -2.34603 -1.17252e-14 
-2.57998 -2.3492 -1.78247e-14 
-2.33416 -2.34277 -3.79601e-14 
-2.0784 -2.33188 -1.5592e-13 
-1.82436 -2.34102 -1.73477e-13 
-1.58585 -2.35523 1.04174e-13 
-1.36553 -2.36975 1.66545e-13 
-1.16712 -2.41718 1.25571e-12 
-1.01573 -2.46332 -8.11224e-13 
-0.851603 -2.53909 4.97823e-12 
-0.597177 -2.62092 -8.86875e-11 
-0.38699 -2.67302 6.02924e-10 
-0.158647 -2.75386 -4.61551e-10 
-0.0632905 -2.79273 -3.23889e-10 
0.169991 -2.78689 1.67952e-10 
0.575091 -2.65275 1.56166e-10 
0.676815 -2.57334 -2.8644e-11 
0.802703 -2.48976 4.92459e-11 
0.984397 -2.47317 1.04264e-11 
1.14805 -2.42266 -2.72065e-12 
1.34031 -2.40861 1.79857e-13 
1.5458 -2.34584 1.51349e-12 
1.76554 -2.32591 7.76287e-13 
1.99838 -2.35327 3.88742e-14 
2.25367 -2.35416 -9.95685e-15 
2.49776 -2.3247 2.39074e-14 
2.74065 -2.34383 1.98368e-14 
2.97521 -2.36581 -3.96558e-16 
3.20512 -2.36937 -4.99561e-16 
3.43007 -2.37433 -3.03134e-16 
3.64922 -2.37296 -1.05641e-16 
3.864 -2.37094 -2.42347e-17 
4.07674 -2.36898 -9.07088e-18 
4.28884 -2.36892 2.36444e-18 
4.50024 -2.36823 2.35369e-17 
4.71184 -2.36785 4.07895e-17 
4.92461 -2.36767 4.53498e-17 
5.13719 -2.36789 4.28473e-17 
5.35121 -2.36779 3.57654e-17 
5.56575 -2.36735 2.90568e-17 
5.77987 -2.36643 2.3658e-17 
5.99446 -2.36363 1.87178e-17 
6.21135 -2.36061 1.41011e-17 
6.43022 -2.36155 9.69703e-18 
6.64994 -2.36055 5.89321e-18 
6.87323 -2.36009 3.52308e-18 
7.10169 -2.36351 2.24121e-18 
7.33454 -2.37026 1.42239e-18 
7.57305 -2.37676 2.75257e-19 
7.80718 -2.37572 4.02076e-19 
8.04628 -2.38745 -3.38447e-18 
8.26834 -2.36063 -4.63399e-18 
8.48528 -2.3308 7.49524e-14 
-8.48528 -2.11624 -5.00191e-14 
-8.27395 -2.05259 -5.57243e-18 
-8.05943 -2.15454 7.26344e-18 
-7.82825 -2.1912 5.21235e-18 
-7.58421 -1.9659 -3.12333e-18 
-7.33785 -2.15064 1.38777e-17 
-7.08628 -2.14435 -5.55749e-20 
-6.81875 -2.22067 -2.3475e-17 
-6.57623 -2.11109 -2.05849e-17 
-6.33142 -2.11175 -1.32871e-17 
-6.11686 -2.1331 -3.47663e-17 
-5.89856 -2.13499 -2.07991e-17 
-5.67975 -2.1424 -3.1827e-17 
-5.46131 -2.1418 -3.69778e-17 
-5.24499 -2.14318 -3.53845e-17 
-5.02735 -2.14543 -3.15869e-17 
-4.81111 -2.14192 -2.71988e-17 
-4.59593 -2.14255 -1.53806e-17 
-4.3792 -2.1453 -1.98501e-18 
-4.16454 -2.14622 -6.84027e-18 
-3.94768 -2.14428 -3.9763e-17 
-3.73057 -2.14596 -5.72662e-17 
-3.51021 -2.14168 1.30277e-16 
-3.28629 -2.13753 5.05788e-16 
-3.05828 -2.13173 1.01415e-14 
-2.81877 -2.11843 8.86895e-15 
-2.57438 -2.11526 -7.59115e-15 
-2.32507 -2.10855 -2.36583e-14 
-2.08039 -2.09257 -1.78876e-14 
-1.83554 -2.11184 -1.27551e-14 
-1.591 -2.12001 -1.4067e-13 
-1.38092 -2.14688 -5.94863e-13 
-1.18514 -2.21134 -1.24643e-12 
-1.23038 -1.99079 -2.37586e-12 
-1.0189 -2.24111 9.86279e-12 
-0.889709 -2.37311 7.4467e-12 
-0.723303 -2.54455 -3.19423e-11 
-0.48436 -2.69461 -2.97709e-10 
-0.0914287 -2.65627 -6.92086e-10 
0.109917 -2.68886 -7.72746e-11 
0.370504 -2.7486 2.60889e-10 
0.475497 -2.64496 1.55199e-10 
0.562022 -2.51174 4.99349e-11 
0.82425 -2.35906 -6.06085e-12 
0.959867 -2.29457 1.76195e-11 
1.10085 -2.21377 2.27294e-12 
1.28853 -2.20096 2.23994e-12 
1.48008 -2.12516 -6.71081e-13 
1.6995 -2.08452 -6.57857e-13 
1.93483 -2.09761 -9.17044e-14 
2.17135 -2.12474 9.66255e-15 
2.41522 -2.09444 8.93619e-15 
2.66611 -2.10798 -1.63969e-14 
2.90245 -2.13003 -4.73353e-16 
3.1315 -2.14023 -7.56522e-16 
3.35792 -2.14542 -2.21554e-16 
3.57967 -2.14517 -8.60651e-18 
3.79867 -2.14132 6.90434e-17 
4.01422 -2.13942 4.50602e-17 
4.22909 -2.13948 1.06606e-17 
4.44322 -2.13812 7.18057e-18 
4.65729 -2.13763 1.53534e-17 
4.87213 -2.13809 2.63417e-17 
5.08815 -2.13711 4.14395e-17 
5.30442 -2.13824 3.03524e-17 
5.52252 -2.13744 3.62894e-17 
5.74093 -2.13439 3.20158e-17 
5.9584 -2.13114 1.0921e-16 
6.17729 -2.1285 2.5409e-17 
6.3993 -2.12778 1.45874e-17 
6.62192 -2.12453 2.25301e-17 
6.84546 -2.12516 2.02889e-17 
7.07321 -2.13074 3.25567e-19 
7.30604 -2.13926 2.79868e-18 
7.54265 -2.14943 -4.93196e-18 
7.78278 -2.14457 8.18585e-18 
8.02136 -2.1551 -3.18886e-18 
8.25004 -2.11638 2.8769e-18 
8.48528 -2.09907 6.41009e-14 
-8.48528 -1.86014 -1.67882e-14 
-8.26933 -1.79088 -5.06303e-18 
-8.05865 -1.90576 -2.36871e-18 
[...]
POINT_DATA 1978 
VECTORS vectors float
-0.000136165 0.00166151 0.999998 
4.62113e-05 0.00133455 0.999999 
4.92427e-05 0.000635659 1 
6.71707e-05 -0.000172602 1 
6.22976e-05 -0.000958546 0.999999 
8.04856e-05 -0.00192935 0.999998 
9.05265e-05 -0.00300549 0.999995 
0.000111344 -0.0047479 0.999988 
0.000109102 -0.00591569 0.999982 
8.29757e-05 -0.00710435 0.999974 
7.74948e-05 -0.0083962 0.999964 
6.81362e-05 -0.00960011 0.999954 
5.89527e-05 -0.0107993 0.999941 
4.69999e-05 -0.0119922 0.999928 
2.32e-05 -0.0131214 0.999914 
-1.37625e-05 -0.0140961 0.9999 
-5.68726e-05 -0.0148805 0.999889 
-0.000115517 -0.0153936 0.999881 
-0.00019113 -0.0155777 0.999878 
-0.000280439 -0.0153545 0.999882 
-0.000377961 -0.0146531 0.999892 
-0.000480971 -0.0133263 0.999911 
-0.000599994 -0.0111352 0.999938 
-0.000690327 -0.00781392 0.999969 
-0.00086151 -0.00264644 0.999996 
-0.00111965 0.0052416 0.999985 
-0.00130706 0.0150006 0.999887 
-0.00147276 0.0279536 0.999608 
-0.00159083 0.0470984 0.998889 
-0.00179167 0.0710761 0.99747 
-0.00203293 0.103644 0.994613 
-0.00275599 0.146349 0.989231 
-0.00487799 0.205505 0.978646 
-0.00817199 0.279422 0.960134 
-0.0108715 0.362666 0.931854 
-0.0132732 0.456773 0.889482 
-0.016525 0.550833 0.834449 
-0.0167543 0.654582 0.755806 
-0.00678693 0.820457 0.57167 
-0.0143138 0.991926 -0.12602 
0.0125735 0.782071 -0.623068 
0.0217646 0.634384 -0.77271 
0.0252894 0.535637 -0.844065 
0.0179808 0.469243 -0.882882 
0.0120446 0.372126 -0.928102 
0.00847609 0.278379 -0.960435 
0.00417944 0.198204 -0.980154 
0.00300289 0.14268 -0.989766 
0.00211476 0.101414 -0.994843 
0.00173153 0.0679945 -0.997685 
0.00163007 0.0439225 -0.999034 
0.00163235 0.0282168 -0.9996 
0.00135792 0.015424 -0.99988 
0.000996115 0.00441805 -0.99999 
0.000814302 -0.00311321 -0.999995 
0.000700657 -0.0080851 -0.999967 
0.000581644 -0.0114513 -0.999934 
0.000465688 -0.0135341 -0.999908 
0.000364917 -0.014736 -0.999891 
0.000269851 -0.0153519 -0.999882 
0.000184221 -0.015513 -0.999879 
0.000111229 -0.0152937 -0.999883 
5.22491e-05 -0.0147393 -0.999891 
8.95009e-06 -0.0139306 -0.999903 
-2.14186e-05 -0.0129424 -0.999916 
-4.26585e-05 -0.0118452 -0.99993 
-5.76451e-05 -0.0106823 -0.999943 
-6.79801e-05 -0.00947476 -0.999955 
-7.87887e-05 -0.0082347 -0.999966 
-8.80197e-05 -0.00696714 -0.999975 
-8.97835e-05 -0.00566855 -0.999984 
-8.70986e-05 -0.00438195 -0.99999 
-8.17328e-05 -0.00315022 -0.999995 
-7.25994e-05 -0.00200702 -0.999998 
-6.31881e-05 -0.000961895 -0.999999 
-5.42148e-05 -3.84847e-05 -1 
-2.78018e-05 0.000733877 -0.999999 
-4.63057e-05 0.00126401 -0.999999 
0.000132109 0.00167794 -0.999998 
-0.00053876 0.00125262 0.999999 
-0.000231645 0.00096546 0.999999 
2.77952e-05 0.00064329 0.999999 
3.25459e-05 -0.000186874 0.999999 
-2.45156e-05 -0.00108683 0.999999 
-1.63149e-05 -0.00200721 0.999997 
-4.45178e-05 -0.00297352 0.999995 
0.000198217 -0.00403791 0.999991 
-0.000105964 -0.00533396 0.999985 
-0.000153223 -0.00647304 0.999978 
-0.000192294 -0.00768555 0.99997 
-0.000318392 -0.00889565 0.99996 
-0.000443956 -0.0100713 0.999949 
-0.000594866 -0.0112103 0.999936 
-0.000815544 -0.0122592 0.999924 
-0.00109962 -0.0131612 0.999912 
-0.00146637 -0.0138462 0.999903 
-0.00195273 -0.0142517 0.999896 
-0.00253387 -0.0143861 0.999893 
-0.0032533 -0.014116 0.999895 
-0.00401081 -0.0133517 0.999902 
-0.00470485 -0.01194 0.999917 
-0.00522584 -0.00963915 0.999939 
-0.00542769 -0.00609075 0.999966 
-0.00521879 -0.000746746 0.999986 
-0.00474156 0.00758884 0.999959 
-0.00407787 0.0192705 0.999805 
-0.00332889 0.0358797 0.99935 
-0.000564388 0.0583339 0.998296 
0.00283918 0.0877794 0.996135 
0.00664531 0.128825 0.991644 
0.0078775 0.182138 0.983241 
0.0131884 0.247138 0.96889 
0.015766 0.327797 0.944616 
0.0192724 0.414285 0.909943 
0.0152741 0.52674 0.849889 
0.0315481 0.610322 0.791525 
0.00528978 0.718728 0.695272 
0.00717916 0.882499 0.470258 
-0.0289076 0.99844 -0.0477738 
-0.00389842 0.83362 -0.552322 
0.0127054 0.683447 -0.72989 
-0.0128525 0.570169 -0.821426 
-0.0296992 0.490069 -0.871177 
-0.0116286 0.417183 -0.908748 
-0.0101288 0.325936 -0.945337 
-0.00460642 0.239761 -0.970821 
-0.00698911 0.170246 -0.985376 
-0.00530014 0.120589 -0.992688 
-0.000818625 0.0812937 -0.996689 
0.00181879 0.052412 -0.998623 
0.00258572 0.0317958 -0.99949 
0.00409826 0.0167934 -0.99985 
0.004765 0.00561809 -0.999972 
0.00514391 -0.00185124 -0.999984 
0.00535165 -0.00679231 -0.999962 
0.00517801 -0.0100564 -0.999935 
0.00464857 -0.0121727 -0.999915 
0.00395861 -0.0134351 -0.999901 
0.00321438 -0.014106 -0.999895 
0.00252566 -0.0143285 -0.999894 
0.00193928 -0.0141903 -0.999897 
0.00147154 -0.0137486 -0.999904 
0.00110156 -0.0130639 -0.999914 
0.000828144 -0.0121859 -0.999925 
0.000620449 -0.0111729 -0.999937 
0.000454052 -0.0100726 -0.999949 
0.00032017 -0.00891761 -0.99996 
0.000213042 -0.00773072 -0.99997 
0.000117503 -0.00651938 -0.999978 
4.98533e-05 -0.00529016 -0.999985 
1.74229e-05 -0.00408239 -0.999991 
6.21417e-06 -0.00292378 -0.999995 
-3.74183e-06 -0.00183772 -0.999998 
-3.76281e-06 -0.000858185 -0.999999 
3.18346e-05 -1.10684e-05 -0.999999 
0.000123911 0.000619474 -0.999999 
0.000234562 0.00107663 -0.999999 
0.000551742 0.00123616 -0.999999 
-0.000478552 0.000909531 0.999999 
-0.000353254 0.000827438 0.999999 
-0.000293715 0.000537334 0.999999 
-0.000237817 3.37331e-05 0.999999 
-0.000408342 -0.000620978 0.999999 
-0.00027917 -0.000784727 0.999999 
-0.000329638 -0.00179867 0.999998 
-0.000373309 -0.00296802 0.999995 
-0.000330195 -0.00426191 0.99999 
-0.000615644 -0.00539364 0.999985 
-0.000683987 -0.00657935 0.999978 
-0.000795593 -0.00777163 0.999969 
-0.000991371 -0.00892869 0.999959 
-0.00119838 -0.0100661 0.999948 
-0.00145685 -0.0111032 0.999937 
-0.001794 -0.0120057 0.999926 
-0.00221558 -0.0127035 0.999916 
-0.00275556 -0.0130869 0.99991 
-0.00343215 -0.0132153 0.999906 
-0.00420571 -0.0130745 0.999905 
-0.00511009 -0.0125022 0.999908 
-0.00597765 -0.0113758 0.999917 
-0.00660585 -0.00954396 0.999932 
-0.0067644 -0.00686875 0.999953 
-0.00619577 -0.0030655 0.999976 
-0.00482813 0.00254329 0.999985 
-0.00275771 0.0110419 0.999935 
-0.00022788 0.0242069 0.999706 
0.00344953 0.0420122 0.99911 
0.0103416 0.0663695 0.997741 
0.0193981 0.100095 0.994788 
0.0300729 0.146134 0.988807 
0.0431044 0.202908 0.978248 
0.0564965 0.279125 0.958591 
0.0741432 0.359687 0.930123 
0.0632095 0.472177 0.879235 
0.0791904 0.671137 0.737092 
0.0683509 0.828343 0.556036 
-0.00503519 0.98843 0.151593 
-0.00912618 0.99756 0.069223 
-0.0239937 0.963926 -0.265091 
-0.0313471 0.711499 -0.701986 
-0.065535 0.6361 -0.768817 
-0.0824159 0.506267 -0.85843 
-0.0619432 0.387702 -0.919701 
-0.053345 0.291821 -0.954984 
-0.0389818 0.216624 -0.975476 
-0.0316633 0.155849 -0.987273 
-0.0224617 0.110481 -0.993624 
-0.0122665 0.0771158 -0.996946 
-0.00526515 0.0496678 -0.998751 
-0.00167466 0.0290411 -0.999576 
0.00189275 0.0149154 -0.999886 
0.00395251 0.00477989 -0.99998 
0.00551737 -0.00179016 -0.999983 
0.00647883 -0.00601958 -0.99996 
0.00669632 -0.00887402 -0.999938 
0.0062788 -0.0108329 -0.999921 
0.00549935 -0.0121102 -0.999911 
0.00460908 -0.0128441 -0.999906 
0.00377253 -0.0131537 -0.999906 
0.00305915 -0.0131296 -0.999909 
0.00247411 -0.0128234 -0.999914 
0.00201086 -0.0122692 -0.999922 
0.00164468 -0.0115007 -0.999932 
0.00135591 -0.0105686 -0.999943 
0.00112111 -0.00953296 -0.999953 
0.000926261 -0.00843226 -0.999963 
0.000756538 -0.00729072 -0.999973 
0.000606387 -0.00612927 -0.99998 
0.000494106 -0.00496838 -0.999987 
0.000410415 -0.00382212 -0.999992 
0.00034603 -0.00271382 -0.999996 
0.000296666 -0.00167892 -0.999998 
0.000259471 -0.000749804 -0.999999 
0.000257645 9.06215e-07 -0.999999 
0.000299778 0.000590693 -0.999999 
0.000358242 0.000879029 -0.999999 
0.000454345 0.000897438 -0.999999 
-0.000239684 0.000872769 0.999999 
-0.000273939 0.000874772 0.999999 
-0.000325751 0.000549571 0.999999 
-0.000344727 5.1958e-05 0.999999 
-0.000545727 -0.000585325 0.999999 
-0.000519245 -0.00155599 0.999998 
-0.000619065 -0.00268526 0.999996 
-0.000659841 -0.0040089 0.999991 
-0.000945305 -0.00512654 0.999986 
-0.00113615 -0.00635827 0.999979 
-0.00130227 -0.00746047 0.999971 
-0.0015285 -0.00855224 0.999962 
-0.00179766 -0.00960281 0.999952 
-0.00212204 -0.0105466 0.999942 
-0.00250821 -0.0113319 0.999932 
-0.00298864 -0.0118917 0.999924 
-0.00361116 -0.0121646 0.999919 
-0.00434584 -0.0121541 0.999916 
-0.00521705 -0.0118805 0.999915 
-0.00618382 -0.0112469 0.999917 
-0.00711835 -0.0100898 0.999923 
-0.00768261 -0.00838788 0.999935 
-0.00757686 -0.00604079 0.999952 
-0.00654492 -0.00288672 0.999974 
-0.00446725 0.00172883 0.999988 
-0.00133367 0.00874314 0.99996 
0.00302673 0.0198663 0.999797 
0.00945672 0.0357236 0.999316 
0.0192365 0.0559335 0.998248 
0.0317612 0.0854495 0.995835 
0.047333 0.123752 0.991183 
0.0656465 0.173577 0.98263 
0.0921105 0.242544 0.965757 
0.0970996 0.175132 0.979745 
0.121143 0.306207 0.944225 
0.117517 0.409806 0.904571 
0.103329 0.564192 0.819152 
0.0365768 0.787724 0.614943 
0.00292317 0.987807 0.155649 
-0.048001 0.980193 -0.192143 
-0.0237394 0.862365 -0.50573 
-0.0694871 0.767966 -0.636711 
-0.11856 0.655595 -0.745747 
-0.137703 0.440722 -0.887019 
-0.11125 0.362007 -0.925513 
-0.102102 0.276763 -0.955498 
-0.0729403 0.208357 -0.975329 
-0.0576501 0.143449 -0.987977 
-0.0410814 0.100287 -0.994109 
-0.0259916 0.071227 -0.997121 
-0.0145788 0.0487278 -0.998705 
-0.00753822 0.0289454 -0.999552 
-0.00149951 0.0151523 -0.999883 
0.0022871 0.00595713 -0.999979 
0.00500932 -0.00036243 -0.999987 
0.00680516 -0.00435475 -0.999967 
0.00764472 -0.00702631 -0.999946 
0.00757543 -0.00898872 -0.99993 
0.00690154 -0.0104261 -0.999921 
0.00595003 -0.0114027 -0.999917 
0.00500333 -0.0119415 -0.999916 
0.00416525 -0.0121316 -0.999917 
0.00346386 -0.0120359 -0.999921 
0.00289406 -0.0116611 -0.999927 
0.00242915 -0.0110575 -0.999935 
0.00205475 -0.0102375 -0.999945 
0.00174648 -0.00927849 -0.999955 
0.00148774 -0.00823888 -0.999964 
0.00126317 -0.00715291 -0.999973 
0.00106688 -0.00604167 -0.999981 
0.00090975 -0.00491521 -0.999987 
0.000773984 -0.00380569 -0.999992 
0.000652531 -0.00273027 -0.999995 
0.00054602 -0.00171869 -0.999998 
0.000452021 -0.000817904 -0.999999 
0.000379183 -5.86921e-05 -0.999999 
0.000326561 0.000507895 -0.999999 
0.000297123 0.000843073 -0.999999 
0.000245083 0.000873672 -0.999999 
-6.59077e-05 0.00108113 0.999999 
-0.000176906 0.00103024 0.999999 
-0.000330683 0.000669937 0.999999 
-0.000435442 0.000151615 0.999999 
-0.000680817 -0.00148951 0.999998 
-0.000802319 -0.0024916 0.999996 
-0.000769418 -0.00214895 0.999997 
-0.000887442 -0.00375552 0.999992 
-0.00111254 -0.00453009 0.999989 
-0.00130443 -0.00566998 0.999982 
-0.00156041 -0.00677464 0.999975 
-0.00180887 -0.00779944 0.999967 
-0.00210154 -0.00881014 0.999958 
-0.00246215 -0.00971456 0.999949 
-0.00288151 -0.0104629 0.999941 
-0.00338219 -0.0110048 0.999933 
-0.00400997 -0.0112376 0.999928 
-0.00475815 -0.011188 0.999926 
-0.00562454 -0.0108935 0.999924 
-0.00661274 -0.0102865 0.999925 
-0.00760465 -0.00931425 0.999927 
-0.00838649 -0.00788434 0.999933 
-0.00856275 -0.00607342 0.999944 
-0.00780614 -0.00379943 0.999962 
-0.0058712 -0.000662335 0.999982 
-0.00267493 0.00410746 0.999987 
0.0021925 0.0117034 0.999928 
0.00915176 0.0225821 0.999702 
0.0190047 0.0363341 0.999158 
0.0324067 0.0570197 0.997846 
0.0487172 0.0836928 0.995299 
0.0706512 0.118034 0.990493 
0.104408 0.127984 0.986265 
0.150373 0.16795 0.974259 
0.136159 0.220296 0.965883 
0.169992 0.352091 0.920399 
0.140094 0.489241 0.860823 
0.105273 0.861765 0.496268 
0.07149 0.819392 0.568759 
-0.0412863 0.995067 -0.0901981 
-0.0529312 0.923393 -0.380191 
-0.132661 0.778854 -0.613017 
-0.145956 0.561184 -0.814721 
-0.207315 0.364085 -0.907999 
-0.166468 0.298829 -0.939675 
-0.130102 0.217216 -0.967414 
-0.0954643 0.164475 -0.98175 
-0.0701975 0.111577 -0.991273 
-0.048175 0.0772369 -0.995848 
-0.0310515 0.0537497 -0.998071 
-0.0183577 0.0361502 -0.999177 
-0.00865446 0.0206203 -0.999749 
-0.0019279 0.0104613 -0.999943 
0.00272577 0.00340491 -0.99999 
0.00583806 -0.00129685 -0.999982 
0.00774018 -0.00427116 -0.99996 
0.00853119 -0.00635069 -0.999943 
0.00835322 -0.00799214 -0.999933 
0.0075751 -0.00932759 -0.999927 
0.00657931 -0.0102941 -0.999925 
0.00561205 -0.0108887 -0.999924 
0.00475231 -0.0111628 -0.999926 
0.00401879 -0.0111624 -0.999929 
0.00340347 -0.0108664 -0.999935 
0.00289744 -0.0103766 -0.999941 
0.00247478 -0.00962851 -0.99995 
0.00212026 -0.00873429 -0.999959 
0.00181327 -0.00775099 -0.999968 
0.00154329 -0.00671283 -0.999976 
0.00131322 -0.00565494 -0.999983 
0.00111896 -0.00457289 -0.999988 
0.00094887 -0.00349666 -0.999993 
0.00080516 -0.00246096 -0.999996 
0.000680184 -0.00149297 -0.999998 
0.000566795 -0.000633846 -0.999999 
0.000453866 9.02438e-05 -0.999999 
0.000349035 0.000617377 -0.999999 
0.000215088 0.000974983 -0.999999 
6.92527e-05 0.0010738 -0.999999 
2.25563e-05 0.00123621 0.999999 
-9.2128e-05 0.0011255 0.999999 
-0.000260007 0.000721151 0.999999 
-0.000392318 0.000196178 0.999999 
-0.000529575 -0.000493913 0.999999 
-0.000643691 -0.00130925 0.999998 
-0.000917927 -0.00299225 0.999995 
-0.000941428 -0.00321826 0.999994 
-0.00112703 -0.00412543 0.99999 
-0.00136943 -0.00524176 0.999985 
-0.00164522 -0.00628692 0.999978 
-0.00196041 -0.00730391 0.999971 
-0.00228753 -0.00827712 0.999963 
-0.00265945 -0.00910853 0.999954 
-0.00310165 -0.009791 0.999947 
-0.00362463 -0.0102625 0.99994 
-0.00425293 -0.0104209 0.999936 
-0.00498586 -0.0103103 0.999934 
-0.00582593 -0.00994902 0.999933 
-0.00676212 -0.0093252 0.999933 
-0.00772702 -0.00839606 0.999934 
-0.00855276 -0.00719856 0.999937 
-0.0089409 -0.00569565 0.999943 
-0.00857384 -0.00397213 0.999955 
-0.00714445 -0.00176933 0.999972 
-0.00443612 0.00137961 0.999989 
1.35752e-06 0.00631871 0.999979 
0.00663327 0.0134166 0.999887 
0.0164088 0.0226272 0.999609 
0.03027 0.0374026 0.998841 
0.0479701 0.0564442 0.997252 
0.0706187 0.080526 0.994247 
0.103241 0.0832593 0.991165 
0.140032 0.101177 0.984964 
0.176304 0.27445 0.945301 
0.195879 0.418575 0.886807 
0.142848 0.693823 0.705837 
0.177356 0.563461 0.806881 
0.0256991 0.924601 0.380067 
-0.0490431 0.857277 -0.512514 
-0.0854904 0.944778 -0.316365 
-0.185604 0.691339 -0.698286 
-0.21118 0.481131 -0.850833 
-0.231553 0.239261 -0.942941 
-0.180055 0.204612 -0.96214 
-0.136814 0.145451 -0.97986 
-0.100587 0.111342 -0.988678 
-0.0687432 0.0733688 -0.994932 
-0.0481223 0.0501055 -0.997583 
-0.0318034 0.0375993 -0.998786 
-0.0183062 0.0250937 -0.999517 
-0.00796108 0.0137153 -0.999874 
-0.000625408 0.00618215 -0.99998 
0.00398133 0.00136282 -0.99999 
0.00683325 -0.00196613 -0.999974 
0.00841008 -0.00414723 -0.999955 
0.00891214 -0.00575481 -0.999943 
0.00857864 -0.00712402 -0.999937 
0.00780335 -0.00831748 -0.999934 
0.00684798 -0.00925815 -0.999933 
0.00593187 -0.00991269 -0.999933 
0.00508661 -0.0102634 -0.999934 
0.004359 -0.0103933 -0.999936 
0.00372046 -0.0102049 -0.99994 
0.00317978 -0.00979037 -0.999947 
0.00272189 -0.00912197 -0.999954 
0.00232963 -0.00827961 -0.999962 
0.00199017 -0.007365 -0.99997 
0.0016836 -0.00637215 -0.999978 
0.00141214 -0.00533943 -0.999984 
0.00117442 -0.00429548 -0.999989 
0.000969349 -0.00326912 -0.999994 
0.000791418 -0.00226913 -0.999997 
0.000639342 -0.00133547 -0.999998 
0.000506476 -0.000504792 -0.999999 
0.000375605 0.000199424 -0.999999 
0.000255469 0.000725842 -0.999999 
0.000108187 0.00109575 -0.999999 
-2.17599e-05 0.00121496 -0.999999 
8.38516e-05 0.00135805 0.999999 
-3.2113e-05 0.00124124 0.999999 
-0.00018396 0.000788343 0.999999 
-0.000315443 0.000231565 0.999999 
-0.000448882 -0.000429592 0.999999 
-0.000568537 -0.00111123 0.999999 
-0.000725604 -0.00196766 0.999997 
-0.00095014 -0.00295132 0.999995 
-0.00116698 -0.00402935 0.999991 
-0.00143264 -0.00507135 0.999986 
-0.00173101 -0.00609427 0.999979 
-0.00204412 -0.00701728 0.999973 
-0.00237936 -0.00790889 0.999965 
-0.00277044 -0.00871908 0.999958 
-0.00320669 -0.00929906 0.999951 
-0.00373214 -0.00968931 0.999946 
-0.00433438 -0.00973618 0.999943 
-0.00503941 -0.00953132 0.999941 
-0.0058108 -0.00908807 0.999941 
-0.00663451 -0.00844297 0.999942 
-0.00740327 -0.0075553 0.999943 
-0.0080862 -0.00653066 0.999945 
-0.00835903 -0.00532766 0.99995 
-0.00802707 -0.00399194 0.999959 
-0.00669969 -0.00241116 0.999974 
-0.00404518 -0.000158003 0.999991 
0.000395994 0.00320935 0.999994 
0.00743389 0.00770765 0.999942 
0.018559 0.0141799 0.999726 
0.0337066 0.0251557 0.999115 
0.0539585 0.0386546 0.997794 
0.07852 0.0499348 0.995661 
0.112817 0.0432975 0.992672 
0.15256 0.0516972 0.986941 
0.205079 0.21415 0.95503 
0.23908 0.312836 0.919225 
0.276946 0.251415 0.927411 
0.247145 0.438259 0.864204 
0.230993 0.598206 0.767328 
0.0318609 0.957377 0.287066 
-0.0831847 0.866604 -0.492013 
-0.237285 0.603555 -0.761197 
-0.282916 0.352607 -0.891978 
-0.237347 0.159567 -0.95823 
-0.183316 0.133518 -0.973944 
-0.138899 0.0882007 -0.986371 
-0.0988333 0.0682214 -0.992762 
-0.0720593 0.0408712 -0.996562 
-0.0501426 0.0262788 -0.998396 
-0.0325062 0.0209598 -0.999251 
-0.018785 0.0150345 -0.99971 
-0.00808979 0.00746837 -0.999939 
-0.000613296 0.00236059 -0.999996 
0.00395271 -0.000625471 -0.999991 
0.00659815 -0.00279598 -0.999974 
0.00795946 -0.00432562 -0.999958 
0.00833828 -0.0055276 -0.999949 
0.00805039 -0.00657651 -0.999945 
0.00743431 -0.00757212 -0.999943 
0.00666346 -0.0084402 -0.999942 
0.00585597 -0.00908803 -0.999941 
0.00511054 -0.00954519 -0.999941 
0.00440371 -0.00970631 -0.999943 
0.00379236 -0.00962248 -0.999946 
0.00325721 -0.00926391 -0.999951 
0.00280116 -0.00867635 -0.999958 
0.00240549 -0.00789949 -0.999965 
0.00205467 -0.00700901 -0.999973 
0.00174009 -0.00605881 -0.99998 
0.00145305 -0.00505684 -0.999986 
0.00119615 -0.00405103 -0.999991 
0.000965315 -0.00305096 -0.999994 
0.000760542 -0.00207758 -0.999997 
0.000581898 -0.00116893 -0.999999 
0.000425134 -0.000362819 -0.999999 
0.000283284 0.000321412 -0.999999 
0.000157792 0.000834659 -0.999999 
2.11204e-05 0.00120547 -0.999999 
-0.00010739 0.00131641 -0.999999 
0.000126264 0.00147658 0.999999 
1.63147e-05 0.00140499 0.999998 
-0.000130873 0.000967597 0.999999 
-0.000268179 0.000422783 0.999999 
-0.000412905 -0.000265956 0.999999 
-0.000568118 -0.00102188 0.999999 
-0.000756033 -0.00194979 0.999997 
-0.000962206 -0.00285539 0.999995 
-0.00118952 -0.003872 0.999991 
-0.0014445 -0.00485884 0.999986 
-0.00172021 -0.0058099 0.999981 
-0.00202825 -0.00675819 0.999975 
-0.00235831 -0.00762027 0.999968 
-0.00271824 -0.00834462 0.999961 
-0.00314088 -0.00891967 0.999955 
-0.00361692 -0.00920123 0.99995 
-0.00418574 -0.00922383 0.999948 
-0.00482008 -0.00895235 0.999948 
-0.00548988 -0.00846772 0.999949 
-0.0061394 -0.00780804 0.99995 
-0.00672622 -0.00705596 0.999952 
-0.00714283 -0.00623671 0.999954 
-0.00723284 -0.00540525 0.999959 
-0.00678238 -0.00459441 0.999966 
-0.00546078 -0.00374444 0.999977 
-0.00287843 -0.0025961 0.999992 
0.00153155 -0.000834591 0.999998 
0.00898964 0.00146158 0.999958 
0.0195696 0.00333889 0.999802 
0.0336272 0.00950562 0.999389 
0.0538762 0.0157173 0.998423 
0.0818649 0.0186213 0.996469 
0.126683 0.0073392 0.991916 
0.173146 -0.000865222 0.984895 
0.230879 0.155488 0.960478 
0.183458 0.120558 0.975607 
0.241418 0.0900893 0.96623 
0.313035 0.39873 0.861986 
0.218064 0.723462 0.655016 
0.0400843 0.974784 0.219505 
-0.141322 0.882266 -0.449024 
-0.302694 0.441596 -0.844607 
-0.197406 0.372791 -0.906675 
-0.236299 0.0929819 -0.967221 
-0.184906 0.0737707 -0.979983 
-0.134709 0.0401036 -0.990073 
-0.100257 0.0260725 -0.994619 
-0.0717536 0.00999857 -0.997372 
-0.0491514 0.00402722 -0.998783 
-0.032581 0.00505683 -0.999456 
-0.0191007 0.00427724 -0.999808 
-0.00900213 0.000747151 -0.999959 
-0.00187299 -0.0015739 -0.999996 
0.00276742 -0.00301178 -0.999991 
0.00540102 -0.00408463 -0.999976 
0.0067656 -0.00493268 -0.999964 
0.00721666 -0.00565929 -0.999957 
0.00712608 -0.00636145 -0.999954 