# vtk DataFile Version 3.0 
Exported using Morpho https://github.com/Morpho-lang/morpho 
ASCII 
DATASET UNSTRUCTURED_GRID 

POINTS 1978 float 
-8.48528 -2.82843 2.16826e-12 
-8.2713 -2.82843 2.49895e-12 
-7.97245 -2.82843 1.67e-12 
-7.72366 -2.82843 3.874e-13 
-7.49769 -2.82843 -1.03352e-12 
-7.28149 -2.82843 7.17039e-13 
-7.05886 -2.82843 -1.91142e-12 
-6.74769 -2.82843 -1.19903e-12 
-6.54818 -2.82843 -7.8037e-13 
-6.34291 -2.82843 -8.58398e-13 
-6.12458 -2.82843 -8.7452e-13 
-5.91293 -2.82843 -1.28092e-12 
-5.70093 -2.82843 -1.11811e-12 
-5.48843 -2.82843 -1.54355e-12 
-5.2784 -2.82843 -1.83228e-12 
-5.06778 -2.82843 -1.83173e-12 
-4.85635 -2.82843 -1.83969e-12 
-4.64669 -2.82843 -1.93339e-12 
-4.43485 -2.82843 -3.43047e-12 
-4.22493 -2.82843 3.60576e-13 
-4.01628 -2.82843 3.62291e-12 
-3.8069 -2.82843 8.11199e-12 
-3.59605 -2.82843 1.06895e-11 
-3.38672 -2.82843 9.10263e-12 
-3.17642 -2.82843 -1.03189e-11 
-2.96703 -2.82843 -4.39906e-11 
-2.76628 -2.82843 -8.96653e-11 
-2.56628 -2.82843 -1.71038e-10 
-2.33804 -2.82843 -8.42687e-11 
-2.11126 -2.82843 5.59544e-10 
-1.87456 -2.82843 2.9483e-09 
-1.64541 -2.82843 8.80844e-09 
-1.42532 -2.82843 2.42035e-08 
-1.24024 -2.82843 6.68795e-08 
-1.07285 -2.82843 1.40903e-07 
-0.920747 -2.82842 2.8749e-07 
-0.777537 -2.82843 4.25776e-07 
-0.665881 -2.82842 1.08882e-06 
-0.455468 -2.82836 5.5626e-06 
0.0684399 -2.82836 -1.68795e-06 
0.518513 -2.82841 -3.18623e-06 
0.711818 -2.82843 -4.94309e-07 
0.816749 -2.82843 -3.26061e-07 
0.917077 -2.82843 -2.384e-07 
1.0711 -2.82843 -1.34965e-07 
1.23595 -2.82843 -4.93886e-08 
1.44668 -2.82843 -1.7708e-08 
1.663 -2.82843 -7.53615e-09 
1.88716 -2.82843 -2.37795e-09 
2.13266 -2.82843 -2.20409e-10 
2.37077 -2.82843 1.20664e-10 
2.56473 -2.82843 9.13633e-11 
2.76363 -2.82843 8.1072e-11 
2.97298 -2.82843 4.56171e-11 
3.18664 -2.82843 9.31538e-12 
3.39995 -2.82843 -7.15533e-12 
3.61446 -2.82843 -1.06155e-11 
3.82584 -2.82843 -7.41621e-12 
4.03542 -2.82843 -3.22951e-12 
4.2434 -2.82843 -1.20483e-12 
4.45211 -2.82843 2.36719e-12 
4.66192 -2.82843 2.54921e-12 
4.87273 -2.82843 2.48731e-12 
5.08335 -2.82843 2.22107e-12 
5.29521 -2.82843 1.84633e-12 
5.50719 -2.82843 1.4327e-12 
5.71984 -2.82843 1.29118e-12 
5.93444 -2.82843 1.17439e-12 
6.15034 -2.82843 1.02552e-12 
6.36589 -2.82843 8.51386e-13 
6.58529 -2.82843 8.66175e-13 
6.80902 -2.82843 1.34751e-12 
7.03504 -2.82843 1.23885e-12 
7.26402 -2.82843 3.2802e-13 
7.49952 -2.82843 5.07511e-13 
7.7398 -2.82843 -9.75411e-13 
7.98848 -2.82843 -1.24115e-12 
8.22792 -2.82843 -1.85226e-12 
8.48528 -2.82843 -2.36195e-12 
-8.48528 -2.59957 -1.15546e-12 
-8.24348 -2.57052 2.35223e-16 
-8.02426 -2.64451 6.61893e-17 
-7.73256 -2.61609 6.35657e-17 
-7.49285 -2.59455 5.35689e-17 
-7.27254 -2.58651 -9.05212e-16 
-7.05457 -2.57441 -4.34295e-16 
-6.86215 -2.66414 -2.7788e-15 
-6.61273 -2.57225 -1.69943e-15 
-6.40851 -2.58173 -2.09886e-15 
-6.19552 -2.59796 -2.40208e-15 
-5.97717 -2.596 -2.23854e-15 
-5.761 -2.59796 -2.00618e-15 
-5.54517 -2.60034 -1.03441e-15 
-5.32984 -2.59864 6.18173e-16 
-5.11537 -2.59945 2.22757e-15 
-4.89985 -2.59999 4.11916e-15 
-4.68502 -2.59812 2.87745e-15 
-4.47142 -2.60197 -1.35553e-15 
-4.25531 -2.60108 -1.08214e-14 
-4.0398 -2.60036 -2.5932e-14 
-3.82361 -2.60072 -4.91837e-14 
-3.60376 -2.59876 -8.0497e-14 
-3.38257 -2.59609 -9.78746e-14 
-3.1563 -2.59605 -1.6254e-14 
-2.92839 -2.58819 3.6529e-13 
-2.7024 -2.5757 1.50556e-12 
-2.46352 -2.58828 4.62893e-12 
-2.21708 -2.57239 1.03592e-11 
-1.97382 -2.57545 2.53273e-11 
-1.7312 -2.57796 6.61371e-11 
-1.50353 -2.58794 1.75055e-10 
-1.30005 -2.59316 3.40274e-10 
-1.12499 -2.62876 7.82751e-10 
-0.966398 -2.64844 1.23503e-09 
-0.816741 -2.69209 2.58985e-09 
-0.689722 -2.68125 2.30505e-09 
-0.577325 -2.76021 5.34113e-09 
-0.369851 -2.80542 -3.34526e-08 
0.0093031 -2.71342 1.60271e-09 
0.44264 -2.79877 7.8117e-09 
0.633717 -2.7513 -5.70252e-09 
0.75007 -2.67071 -3.77392e-09 
0.85825 -2.61405 -1.01739e-09 
0.987851 -2.66212 -1.05414e-09 
1.13925 -2.61066 -8.84144e-10 
1.33077 -2.61465 -4.67009e-10 
1.54799 -2.58677 -1.61693e-10 
1.77106 -2.5763 -5.51183e-11 
2.01905 -2.58948 -2.83695e-11 
2.27393 -2.58969 -1.08143e-11 
2.51372 -2.55488 -3.06992e-12 
2.73542 -2.58909 -1.37921e-12 
2.9621 -2.59496 -2.65421e-13 
3.18802 -2.59527 5.18402e-14 
3.41284 -2.60127 1.04323e-13 
3.63236 -2.60053 7.62672e-14 
3.84829 -2.60035 4.33301e-14 
4.06093 -2.59901 2.20674e-14 
4.27211 -2.59876 8.81261e-15 
4.48326 -2.59866 9.11277e-16 
4.69456 -2.59871 -3.04048e-15 
4.90585 -2.59788 -3.57718e-15 
5.11808 -2.59888 -2.28111e-15 
5.33033 -2.59849 -5.44533e-16 
5.54324 -2.59841 8.6156e-16 
5.75707 -2.59891 1.7892e-15 
5.97163 -2.59789 2.2602e-15 
6.18619 -2.59472 2.34126e-15 
6.40325 -2.59548 2.22757e-15 
6.62403 -2.59645 1.88641e-15 
6.84664 -2.59523 1.34306e-15 
7.07217 -2.59525 8.07529e-16 
7.30309 -2.59926 4.10942e-16 
7.53905 -2.60166 1.37599e-16 
7.78123 -2.6072 -2.33994e-17 
8.01737 -2.60216 -2.59493e-17 
8.26738 -2.6115 -1.71704e-16 
8.48528 -2.58114 1.52159e-12 
-8.48528 -2.37043 -1.82539e-12 
-8.27013 -2.3136 -4.03616e-17 
-8.04496 -2.39373 -5.61432e-17 
-7.81689 -2.42875 -9.97656e-17 
-7.59759 -2.17566 -4.68179e-16 
-7.56601 -2.3896 2.91003e-16 
-7.30275 -2.35671 3.23898e-16 
-7.05662 -2.35456 -3.18713e-17 
-6.79669 -2.43417 1.16387e-15 
-6.55919 -2.32395 7.97599e-16 
-6.34189 -2.34952 7.79581e-16 
-6.12256 -2.36658 6.29134e-16 
-5.9007 -2.3677 1.38775e-15 
-5.67919 -2.37125 1.48182e-15 
-5.46061 -2.3723 1.90675e-15 
-5.24123 -2.37158 2.32224e-15 
-5.02247 -2.37364 2.055e-15 
-4.80565 -2.3713 2.11896e-15 
-4.58885 -2.37069 1.5288e-15 
-4.37459 -2.37555 2.73802e-16 
-4.15864 -2.37413 3.41347e-16 
-3.943 -2.37329 8.32047e-16 
-3.72564 -2.3747 -3.21316e-15 
-3.50646 -2.37155 -8.8439e-15 
-3.28322 -2.36744 -1.44786e-14 
-3.05727 -2.3646 -2.3386e-17 
-2.82692 -2.34688 9.12429e-14 
-2.58241 -2.34771 3.94769e-13 
-2.33848 -2.34242 1.90488e-12 
-2.08395 -2.32697 3.42414e-12 
-1.83219 -2.33838 3.80376e-12 
-1.58988 -2.34886 -2.31897e-12 
-1.36427 -2.36339 -3.34737e-12 
-1.16443 -2.40947 -2.71132e-11 
-1.00879 -2.45805 1.67118e-11 
-0.84035 -2.54829 -9.96387e-11 
-0.583974 -2.62223 2.14591e-09 
-0.38408 -2.67158 -1.31635e-08 
-0.151497 -2.75834 1.01777e-08 
-0.0512803 -2.79302 6.96012e-09 
0.17458 -2.78642 -3.71054e-09 
0.565502 -2.66812 -3.4437e-09 
0.672088 -2.57906 6.17515e-10 
0.787104 -2.48322 -1.08757e-09 
0.967918 -2.47501 -2.29606e-10 
1.14326 -2.41749 5.99018e-11 
1.3434 -2.39542 -4.61263e-12 
1.54793 -2.33983 -3.26e-11 
1.76801 -2.32463 -1.70391e-11 
1.9997 -2.3522 -1.95119e-12 
2.25481 -2.35111 -7.46795e-13 
2.50009 -2.31932 -5.28329e-13 
2.74356 -2.35131 1.80784e-13 
2.97699 -2.36662 3.11151e-14 
3.2066 -2.37141 2.61635e-14 
3.43044 -2.37492 1.65397e-14 
3.6499 -2.37362 5.78091e-15 
3.86479 -2.37176 1.36702e-15 
4.07711 -2.36946 5.28081e-16 
4.28889 -2.36917 -9.60626e-17 
4.50027 -2.36845 -1.25124e-15 
4.71185 -2.36812 -2.17443e-15 
4.92473 -2.36804 -2.42596e-15 
5.1374 -2.36841 -2.29107e-15 
5.3514 -2.36849 -1.92106e-15 
5.56576 -2.36806 -1.56894e-15 
5.77992 -2.36733 -1.29312e-15 
5.99445 -2.36418 -1.02759e-15 
6.21114 -2.36096 -7.73236e-16 
6.43019 -2.36229 -5.35917e-16 
6.65005 -2.36126 -3.31812e-16 
6.87331 -2.36058 -1.93397e-16 
7.10162 -2.36381 -1.16483e-16 
7.33434 -2.37068 -7.59643e-17 
7.57303 -2.3774 -2.69646e-17 
7.80699 -2.37504 3.15503e-17 
8.04987 -2.38753 -6.52972e-18 
8.27054 -2.35952 -1.68455e-17 
8.48528 -2.3308 1.74437e-12 
-8.48528 -2.11624 -1.16408e-12 
-8.27384 -2.05288 -1.02213e-16 
-8.0564 -2.15069 1.38751e-16 
-7.83034 -2.19825 9.78964e-17 
-7.58402 -1.96694 1.52291e-17 
-7.34544 -2.14966 3.80426e-16 
-7.08416 -2.14411 2.97475e-16 
-6.81767 -2.22233 1.48868e-16 
-6.57453 -2.1119 6.79531e-16 
-6.3302 -2.11126 1.31728e-15 
-6.11638 -2.13371 1.64479e-15 
-5.89852 -2.13646 1.26191e-15 
-5.67897 -2.14272 1.87705e-15 
-5.46102 -2.14232 2.00483e-15 
-5.24536 -2.14412 2.09306e-15 
-5.02794 -2.14638 2.05809e-15 
-4.81161 -2.14248 9.87614e-16 
-4.59615 -2.14286 5.77592e-16 
-4.37932 -2.14567 1.24245e-16 
-4.16468 -2.14681 3.86579e-16 
-3.94746 -2.14482 2.1428e-15 
-3.72996 -2.14683 3.32049e-15 
-3.50951 -2.14327 -7.42981e-15 
-3.28648 -2.13747 -2.78333e-14 
-3.05913 -2.13311 -7.94301e-14 
-2.82186 -2.11953 -2.7361e-13 
-2.57731 -2.11468 -5.71214e-13 
-2.32833 -2.10766 -1.16657e-12 
-2.08056 -2.09023 3.97423e-13 
-1.83058 -2.10871 -9.54601e-13 
-1.58583 -2.11773 3.07835e-12 
-1.37048 -2.14872 1.30823e-11 
-1.16147 -2.20455 2.76141e-11 
-1.23586 -1.9911 5.19247e-11 
-0.997109 -2.24221 -2.20101e-10 
-0.882947 -2.38363 -1.69582e-10 
-0.698953 -2.53649 6.96751e-10 
-0.476281 -2.70925 6.55778e-09 
-0.0967564 -2.6539 1.51767e-08 
0.111757 -2.69297 1.69041e-09 
0.3766 -2.74766 -5.72859e-09 
0.482826 -2.63523 -3.43436e-09 
0.57192 -2.51161 -1.07917e-09 
0.816721 -2.34466 1.42051e-10 
0.948083 -2.30141 -3.84122e-10 
1.09136 -2.21699 -5.0508e-11 
1.27665 -2.19738 -4.9224e-11 
1.47892 -2.11759 1.39867e-11 
1.70053 -2.08124 1.4407e-11 
1.93422 -2.09659 2.01388e-12 
2.1714 -2.12285 -2.99377e-13 
2.41603 -2.09072 6.72741e-13 
2.67048 -2.11147 3.62873e-13 
2.90315 -2.13308 2.91742e-14 
3.13211 -2.14128 3.77989e-14 
3.35752 -2.14607 1.20794e-14 
3.57926 -2.14584 5.27644e-16 
3.79781 -2.14258 -3.72429e-15 
4.01299 -2.13988 -2.43086e-15 
4.2275 -2.13961 -5.94898e-16 
4.4417 -2.13851 -4.06362e-16 
4.65623 -2.13797 -8.37012e-16 
4.87145 -2.13868 -1.44391e-15 
5.08797 -2.13784 -1.4095e-15 
5.3046 -2.1391 -2.21494e-15 
5.52281 -2.13801 -1.86596e-15 
5.74114 -2.13531 -1.74775e-15 
5.95861 -2.13176 2.98319e-16 
6.17752 -2.1286 -1.38543e-15 
6.39935 -2.12846 -1.33641e-15 
6.62183 -2.12527 -8.21519e-16 
6.84514 -2.1257 -4.7401e-16 
7.07269 -2.13108 -5.07882e-16 
7.30515 -2.13961 -1.57602e-16 
7.5412 -2.14987 -1.59494e-16 
7.78078 -2.14393 1.93042e-16 
8.01993 -2.15771 -4.08146e-17 
8.25003 -2.11559 4.88116e-17 
8.48528 -2.09907 1.4918e-12 
-8.48528 -1.86014 -3.90719e-13 
-8.2709 -1.79085 -1.11634e-16 
-8.06022 -1.90489 -7.96092e-17 
-7.83919 -1.9558 -2.53e-18 
[...]
POINT_DATA 1978 
VECTORS vectors float
-0.000136313 0.00166162 0.999999 
4.63118e-05 0.00133455 0.999999 
4.95001e-05 0.000635659 1 
6.74453e-05 -0.000172602 1 
6.25648e-05 -0.000958547 0.999999 
8.08033e-05 -0.00192935 0.999998 
9.09813e-05 -0.00300549 0.999995 
0.000111843 -0.0047479 0.999989 
0.000109491 -0.00591569 0.999982 
8.33097e-05 -0.00710435 0.999975 
7.7797e-05 -0.00839621 0.999965 
6.84001e-05 -0.00960011 0.999954 
5.91797e-05 -0.0107993 0.999942 
4.71739e-05 -0.0119922 0.999928 
2.32807e-05 -0.0131214 0.999914 
-1.38196e-05 -0.0140961 0.999901 
-5.71011e-05 -0.0148805 0.999889 
-0.000115973 -0.0153936 0.999881 
-0.000191875 -0.0155777 0.999879 
-0.000281516 -0.0153545 0.999882 
-0.000379409 -0.0146531 0.999893 
-0.000482829 -0.0133263 0.999911 
-0.000602279 -0.0111352 0.999938 
-0.000693027 -0.00781392 0.999969 
-0.000864869 -0.00264644 0.999996 
-0.0011238 0.0052416 0.999986 
-0.00131184 0.0150006 0.999887 
-0.00147851 0.0279536 0.999608 
-0.0015975 0.0470984 0.998889 
-0.0017993 0.0710761 0.997469 
-0.00204191 0.103644 0.994613 
-0.00276822 0.146349 0.98923 
-0.00489648 0.205505 0.978644 
-0.00819782 0.279422 0.960133 
-0.0109029 0.362666 0.931855 
-0.0133093 0.456774 0.889483 
-0.0165621 0.550834 0.83445 
-0.0167971 0.654581 0.755805 
-0.006851 0.820456 0.571669 
-0.0143924 0.991924 -0.126019 
0.0126159 0.782068 -0.623066 
0.0218196 0.634384 -0.77271 
0.0253335 0.535638 -0.844067 
0.018022 0.469244 -0.882884 
0.0120807 0.372127 -0.928103 
0.0085042 0.278378 -0.960434 
0.00419773 0.198204 -0.980152 
0.00301515 0.14268 -0.989765 
0.00212416 0.101414 -0.994842 
0.0017394 0.0679944 -0.997684 
0.00163658 0.0439225 -0.999034 
0.00163804 0.0282168 -0.9996 
0.00136292 0.015424 -0.99988 
0.00100008 0.00441806 -0.99999 
0.000817524 -0.00311321 -0.999995 
0.000703393 -0.0080851 -0.999967 
0.000583911 -0.0114513 -0.999934 
0.00046749 -0.0135341 -0.999908 
0.000366313 -0.014736 -0.999891 
0.000270884 -0.0153519 -0.999882 
0.000184933 -0.015513 -0.99988 
0.000111665 -0.0152937 -0.999883 
5.24604e-05 -0.0147393 -0.999891 
8.99285e-06 -0.0139306 -0.999903 
-2.14957e-05 -0.0129424 -0.999916 
-4.28201e-05 -0.0118452 -0.99993 
-5.78673e-05 -0.0106823 -0.999943 
-6.8248e-05 -0.00947477 -0.999955 
-7.90983e-05 -0.0082347 -0.999966 
-8.83648e-05 -0.00696714 -0.999976 
-9.01442e-05 -0.00566855 -0.999984 
-8.74548e-05 -0.00438195 -0.99999 
-8.20701e-05 -0.00315022 -0.999995 
-7.29073e-05 -0.00200702 -0.999998 
-6.34632e-05 -0.000961896 -0.999999 
-5.44437e-05 -3.84847e-05 -1 
-2.79593e-05 0.000733878 -1 
-4.63625e-05 0.00126401 -0.999999 
0.000132281 0.00167806 -0.999999 
-0.000538764 0.0012528 0.999999 
-0.000231645 0.000965461 0.999999 
2.77953e-05 0.000643291 1 
3.2546e-05 -0.000186875 1 
-2.45156e-05 -0.00108683 0.999999 
-1.63149e-05 -0.00200721 0.999998 
-4.45178e-05 -0.00297352 0.999995 
0.000198217 -0.00403791 0.999992 
-0.000105964 -0.00533396 0.999986 
-0.000153223 -0.00647304 0.999979 
-0.000192294 -0.00768556 0.99997 
-0.000318392 -0.00889566 0.99996 
-0.000443956 -0.0100713 0.999949 
-0.000594867 -0.0112103 0.999937 
-0.000815544 -0.0122592 0.999924 
-0.00109962 -0.0131612 0.999913 
-0.00146637 -0.0138463 0.999903 
-0.00195273 -0.0142517 0.999896 
-0.00253387 -0.0143861 0.999893 
-0.0032533 -0.014116 0.999895 
-0.00401081 -0.0133517 0.999903 
-0.00470485 -0.01194 0.999918 
-0.00522584 -0.00963916 0.99994 
-0.00542769 -0.00609075 0.999967 
-0.00521879 -0.000746747 0.999986 
-0.00474157 0.00758885 0.99996 
-0.00407787 0.0192705 0.999806 
-0.00332889 0.0358798 0.99935 
-0.000564388 0.058334 0.998297 
0.00283918 0.0877794 0.996136 
0.00664531 0.128825 0.991645 
0.0078775 0.182138 0.983241 
0.0131884 0.247138 0.96889 
0.015766 0.327797 0.944617 
0.0192724 0.414285 0.909943 
0.0152741 0.52674 0.849889 
0.0315481 0.610322 0.791525 
0.00528978 0.718728 0.695272 
0.00717917 0.8825 0.470258 
-0.0289076 0.99844 -0.0477738 
-0.00389842 0.833621 -0.552322 
0.0127054 0.683447 -0.72989 
-0.0128525 0.570169 -0.821426 
-0.0296992 0.490069 -0.871178 
-0.0116286 0.417183 -0.908748 
-0.0101288 0.325936 -0.945338 
-0.00460642 0.239761 -0.970821 
-0.00698911 0.170246 -0.985377 
-0.00530014 0.120589 -0.992688 
-0.000818624 0.0812938 -0.99669 
0.00181879 0.0524121 -0.998624 
0.00258573 0.0317958 -0.999491 
0.00409827 0.0167934 -0.99985 
0.004765 0.00561809 -0.999973 
0.00514391 -0.00185124 -0.999985 
0.00535165 -0.00679232 -0.999963 
0.00517802 -0.0100564 -0.999936 
0.00464857 -0.0121728 -0.999915 
0.00395861 -0.0134351 -0.999902 
0.00321438 -0.014106 -0.999895 
0.00252566 -0.0143285 -0.999894 
0.00193928 -0.0141903 -0.999897 
0.00147154 -0.0137486 -0.999904 
0.00110156 -0.0130639 -0.999914 
0.000828144 -0.0121859 -0.999925 
0.000620449 -0.0111729 -0.999937 
0.000454052 -0.0100726 -0.999949 
0.00032017 -0.00891762 -0.99996 
0.000213042 -0.00773072 -0.99997 
0.000117503 -0.00651939 -0.999979 
4.98533e-05 -0.00529016 -0.999986 
1.74229e-05 -0.00408239 -0.999992 
6.21416e-06 -0.00292378 -0.999996 
-3.74184e-06 -0.00183772 -0.999998 
-3.76283e-06 -0.000858185 -1 
3.18346e-05 -1.10684e-05 -1 
0.000123911 0.000619474 -1 
0.000234562 0.00107664 -0.999999 
0.000551746 0.00123635 -0.999999 
-0.000478556 0.000909672 0.999999 
-0.000353254 0.000827438 0.999999 
-0.000293716 0.000537334 1 
-0.000237818 3.37331e-05 1 
-0.000408342 -0.000620978 1 
-0.00027917 -0.000784728 1 
-0.000329638 -0.00179867 0.999998 
-0.000373309 -0.00296802 0.999995 
-0.000330196 -0.00426191 0.999991 
-0.000615644 -0.00539364 0.999985 
-0.000683988 -0.00657935 0.999978 
-0.000795593 -0.00777164 0.999969 
-0.000991371 -0.00892869 0.99996 
-0.00119838 -0.0100661 0.999949 
-0.00145685 -0.0111032 0.999937 
-0.001794 -0.0120058 0.999926 
-0.00221558 -0.0127035 0.999917 
-0.00275556 -0.0130869 0.99991 
-0.00343215 -0.0132153 0.999907 
-0.00420571 -0.0130745 0.999906 
-0.00511009 -0.0125023 0.999909 
-0.00597766 -0.0113758 0.999917 
-0.00660585 -0.00954396 0.999933 
-0.0067644 -0.00686876 0.999953 
-0.00619577 -0.0030655 0.999976 
-0.00482814 0.0025433 0.999985 
-0.00275771 0.0110419 0.999935 
-0.00022788 0.0242069 0.999707 
0.00344953 0.0420123 0.999111 
0.0103416 0.0663696 0.997741 
0.0193981 0.100095 0.994789 
0.030073 0.146134 0.988808 
0.0431044 0.202908 0.978249 
0.0564965 0.279125 0.958591 
0.0741432 0.359687 0.930123 
0.0632095 0.472177 0.879235 
0.0791904 0.671137 0.737092 
0.0683509 0.828343 0.556036 
-0.0050352 0.98843 0.151593 
-0.00912618 0.997559 0.069223 
-0.0239937 0.963925 -0.26509 
-0.0313471 0.7115 -0.701987 
-0.065535 0.636101 -0.768818 
-0.0824159 0.506267 -0.85843 
-0.0619432 0.387702 -0.919701 
-0.053345 0.291821 -0.954984 
-0.0389818 0.216624 -0.975476 
-0.0316633 0.15585 -0.987273 
-0.0224617 0.110481 -0.993624 
-0.0122666 0.0771158 -0.996947 
-0.00526515 0.0496679 -0.998752 
-0.00167466 0.0290412 -0.999577 
0.00189276 0.0149154 -0.999887 
0.00395252 0.0047799 -0.999981 
0.00551737 -0.00179016 -0.999983 
0.00647884 -0.00601958 -0.999961 
0.00669632 -0.00887403 -0.999938 
0.0062788 -0.0108329 -0.999922 
0.00549936 -0.0121102 -0.999911 
0.00460908 -0.0128441 -0.999907 
0.00377253 -0.0131537 -0.999906 
0.00305915 -0.0131296 -0.999909 
0.00247411 -0.0128234 -0.999915 
0.00201086 -0.0122693 -0.999923 
0.00164468 -0.0115007 -0.999932 
0.00135591 -0.0105686 -0.999943 
0.00112111 -0.00953297 -0.999954 
0.000926262 -0.00843226 -0.999964 
0.000756539 -0.00729072 -0.999973 
0.000606387 -0.00612928 -0.999981 
0.000494107 -0.00496839 -0.999987 
0.000410415 -0.00382213 -0.999992 
0.00034603 -0.00271383 -0.999996 
0.000296666 -0.00167892 -0.999998 
0.000259471 -0.000749805 -1 
0.000257645 9.06221e-07 -1 
0.000299778 0.000590693 -1 
0.000358242 0.00087903 -0.999999 
0.000454348 0.000897579 -0.999999 
-0.000239686 0.000872912 1 
-0.000273939 0.000874773 0.999999 
-0.000325751 0.000549571 1 
-0.000344727 5.1958e-05 1 
-0.000545727 -0.000585325 1 
-0.000519246 -0.001556 0.999999 
-0.000619065 -0.00268526 0.999996 
-0.000659841 -0.0040089 0.999992 
-0.000945305 -0.00512654 0.999986 
-0.00113615 -0.00635828 0.999979 
-0.00130227 -0.00746048 0.999971 
-0.0015285 -0.00855224 0.999962 
-0.00179766 -0.00960281 0.999952 
-0.00212204 -0.0105466 0.999942 
-0.00250821 -0.0113319 0.999933 
-0.00298864 -0.0118917 0.999925 
-0.00361116 -0.0121646 0.999919 
-0.00434584 -0.0121541 0.999917 
-0.00521706 -0.0118805 0.999916 
-0.00618383 -0.0112469 0.999918 
-0.00711835 -0.0100898 0.999924 
-0.00768261 -0.00838788 0.999935 
-0.00757686 -0.00604079 0.999953 
-0.00654492 -0.00288672 0.999974 
-0.00446725 0.00172883 0.999988 
-0.00133368 0.00874314 0.999961 
0.00302673 0.0198663 0.999798 
0.00945672 0.0357236 0.999317 
0.0192365 0.0559336 0.998249 
0.0317612 0.0854495 0.995836 
0.047333 0.123752 0.991184 
0.0656465 0.173577 0.98263 
0.0921105 0.242544 0.965758 
0.0970997 0.175132 0.979745 
0.121143 0.306207 0.944225 
0.117517 0.409807 0.904571 
0.103329 0.564192 0.819152 
0.0365768 0.787723 0.614943 
0.00292317 0.987808 0.155649 
-0.048001 0.980193 -0.192142 
-0.0237394 0.862365 -0.50573 
-0.069487 0.767966 -0.636711 
-0.11856 0.655595 -0.745747 
-0.137703 0.440722 -0.887019 
-0.11125 0.362007 -0.925513 
-0.102102 0.276763 -0.955499 
-0.0729403 0.208357 -0.975329 
-0.0576501 0.143449 -0.987977 
-0.0410814 0.100287 -0.99411 
-0.0259916 0.071227 -0.997121 
-0.0145788 0.0487278 -0.998706 
-0.00753822 0.0289454 -0.999552 
-0.00149951 0.0151523 -0.999884 
0.0022871 0.00595713 -0.99998 
0.00500932 -0.00036243 -0.999987 
0.00680517 -0.00435475 -0.999967 
0.00764472 -0.00702631 -0.999946 
0.00757544 -0.00898872 -0.999931 
0.00690155 -0.0104261 -0.999922 
0.00595003 -0.0114027 -0.999917 
0.00500334 -0.0119415 -0.999916 
0.00416525 -0.0121316 -0.999918 
0.00346386 -0.0120359 -0.999921 
0.00289406 -0.0116611 -0.999928 
0.00242915 -0.0110575 -0.999936 
0.00205475 -0.0102375 -0.999945 
0.00174648 -0.0092785 -0.999955 
0.00148774 -0.00823888 -0.999965 
0.00126317 -0.00715291 -0.999974 
0.00106688 -0.00604168 -0.999981 
0.00090975 -0.00491522 -0.999987 
0.000773984 -0.00380569 -0.999992 
0.000652531 -0.00273027 -0.999996 
0.00054602 -0.00171869 -0.999998 
0.000452021 -0.000817905 -0.999999 
0.000379183 -5.86921e-05 -1 
0.000326561 0.000507896 -1 
0.000297124 0.000843073 -0.999999 
0.000245085 0.000873804 -1 
-6.59084e-05 0.0010813 0.999999 
-0.000176906 0.00103024 0.999999 
-0.000330684 0.000669937 1 
-0.000435442 0.000151615 1 
-0.000680817 -0.00148951 0.999999 
-0.000802319 -0.0024916 0.999996 
-0.000769418 -0.00214896 0.999997 
-0.000887442 -0.00375552 0.999992 
-0.00111254 -0.00453009 0.999989 
-0.00130443 -0.00566999 0.999983 
-0.00156041 -0.00677464 0.999976 
-0.00180887 -0.00779945 0.999968 
-0.00210154 -0.00881015 0.999959 
-0.00246215 -0.00971456 0.99995 
-0.00288151 -0.0104629 0.999941 
-0.00338219 -0.0110048 0.999934 
-0.00400997 -0.0112377 0.999929 
-0.00475815 -0.011188 0.999926 
-0.00562455 -0.0108935 0.999925 
-0.00661274 -0.0102865 0.999925 
-0.00760466 -0.00931426 0.999928 
-0.0083865 -0.00788435 0.999934 
-0.00856275 -0.00607343 0.999945 
-0.00780615 -0.00379944 0.999962 
-0.0058712 -0.000662336 0.999982 
-0.00267493 0.00410746 0.999988 
0.0021925 0.0117034 0.999929 
0.00915176 0.0225821 0.999703 
0.0190047 0.0363341 0.999159 
0.0324067 0.0570197 0.997847 
0.0487172 0.0836928 0.9953 
0.0706513 0.118034 0.990493 
0.104408 0.127984 0.986265 
0.150373 0.16795 0.974259 
0.136159 0.220296 0.965883 
0.169992 0.352091 0.920399 
0.140094 0.489241 0.860823 
0.105272 0.861764 0.496267 
0.0714899 0.819391 0.568759 
-0.0412863 0.995067 -0.0901982 
-0.0529312 0.923392 -0.38019 
-0.132661 0.778853 -0.613016 
-0.145956 0.561184 -0.814721 
-0.207315 0.364085 -0.907999 
-0.166468 0.298829 -0.939675 
-0.130102 0.217216 -0.967415 
-0.0954643 0.164475 -0.981751 
-0.0701976 0.111577 -0.991273 
-0.048175 0.077237 -0.995848 
-0.0310515 0.0537497 -0.998071 
-0.0183577 0.0361502 -0.999178 
-0.00865446 0.0206204 -0.99975 
-0.0019279 0.0104613 -0.999943 
0.00272577 0.00340491 -0.99999 
0.00583806 -0.00129685 -0.999982 
0.00774019 -0.00427116 -0.999961 
0.00853119 -0.0063507 -0.999943 
0.00835322 -0.00799214 -0.999933 
0.00757511 -0.00932759 -0.999928 
0.00657932 -0.0102941 -0.999925 
0.00561206 -0.0108887 -0.999925 
0.00475231 -0.0111628 -0.999926 
0.0040188 -0.0111624 -0.99993 
0.00340348 -0.0108664 -0.999935 
0.00289744 -0.0103766 -0.999942 
0.00247478 -0.00962851 -0.99995 
0.00212026 -0.00873429 -0.99996 
0.00181327 -0.00775099 -0.999968 
0.00154329 -0.00671284 -0.999976 
0.00131323 -0.00565494 -0.999983 
0.00111896 -0.00457289 -0.999989 
0.000948871 -0.00349666 -0.999993 
0.000805161 -0.00246096 -0.999997 
0.000680184 -0.00149297 -0.999999 
0.000566795 -0.000633846 -1 
0.000453866 9.02439e-05 -1 
0.000349035 0.000617377 -1 
0.000215088 0.000974983 -0.999999 
6.92533e-05 0.00107395 -0.999999 
2.25564e-05 0.00123639 0.999999 
-9.2128e-05 0.0011255 0.999999 
-0.000260007 0.000721152 1 
-0.000392318 0.000196178 1 
-0.000529575 -0.000493913 1 
-0.000643691 -0.00130925 0.999999 
-0.000917927 -0.00299225 0.999995 
-0.000941428 -0.00321826 0.999994 
-0.00112703 -0.00412544 0.999991 
-0.00136943 -0.00524176 0.999985 
-0.00164522 -0.00628692 0.999979 
-0.00196041 -0.00730392 0.999971 
-0.00228753 -0.00827712 0.999963 
-0.00265945 -0.00910853 0.999955 
-0.00310165 -0.009791 0.999947 
-0.00362463 -0.0102625 0.999941 
-0.00425293 -0.0104209 0.999937 
-0.00498586 -0.0103103 0.999934 
-0.00582593 -0.00994902 0.999933 
-0.00676212 -0.00932521 0.999934 
-0.00772702 -0.00839606 0.999935 
-0.00855276 -0.00719857 0.999937 
-0.0089409 -0.00569566 0.999944 
-0.00857385 -0.00397213 0.999955 
-0.00714446 -0.00176934 0.999973 
-0.00443613 0.00137961 0.999989 
1.35735e-06 0.00631871 0.99998 
0.00663327 0.0134166 0.999888 
0.0164088 0.0226272 0.999609 
0.03027 0.0374026 0.998842 
0.0479701 0.0564442 0.997253 
0.0706187 0.080526 0.994248 
0.103241 0.0832593 0.991165 
0.140032 0.101177 0.984964 
0.176304 0.27445 0.945301 
0.195879 0.418575 0.886807 
0.142848 0.693822 0.705836 
0.177356 0.563461 0.806881 
0.0256991 0.924602 0.380067 
-0.0490431 0.857277 -0.512514 
-0.0854904 0.944778 -0.316365 
-0.185604 0.691338 -0.698286 
-0.21118 0.481131 -0.850833 
-0.231553 0.239261 -0.942941 
-0.180055 0.204612 -0.96214 
-0.136814 0.145451 -0.97986 
-0.100587 0.111342 -0.988678 
-0.0687432 0.0733689 -0.994933 
-0.0481223 0.0501055 -0.997584 
-0.0318034 0.0375993 -0.998787 
-0.0183062 0.0250937 -0.999517 
-0.00796109 0.0137153 -0.999874 
-0.000625408 0.00618215 -0.999981 
0.00398133 0.00136282 -0.999991 
0.00683325 -0.00196613 -0.999975 
0.00841008 -0.00414723 -0.999956 
0.00891215 -0.00575482 -0.999944 
0.00857864 -0.00712402 -0.999938 
0.00780335 -0.00831749 -0.999935 
0.00684799 -0.00925816 -0.999934 
0.00593188 -0.0099127 -0.999933 
0.00508662 -0.0102634 -0.999934 
0.004359 -0.0103933 -0.999936 
0.00372046 -0.0102049 -0.999941 
0.00317978 -0.00979037 -0.999947 
0.0027219 -0.00912197 -0.999955 
0.00232963 -0.00827962 -0.999963 
0.00199017 -0.007365 -0.999971 
0.0016836 -0.00637215 -0.999978 
0.00141214 -0.00533943 -0.999985 
0.00117442 -0.00429548 -0.99999 
0.000969349 -0.00326912 -0.999994 
0.000791418 -0.00226913 -0.999997 
0.000639343 -0.00133547 -0.999999 
0.000506476 -0.000504792 -1 
0.000375605 0.000199424 -1 
0.000255469 0.000725842 -1 
0.000108187 0.00109576 -0.999999 
-2.17601e-05 0.00121513 -0.999999 
8.38522e-05 0.00135823 0.999999 
-3.2113e-05 0.00124124 0.999999 
-0.00018396 0.000788343 1 
-0.000315444 0.000231566 1 
-0.000448882 -0.000429592 1 
-0.000568537 -0.00111123 0.999999 
-0.000725605 -0.00196766 0.999998 
-0.000950141 -0.00295132 0.999995 
-0.00116698 -0.00402935 0.999991 
-0.00143264 -0.00507135 0.999986 
-0.00173101 -0.00609428 0.99998 
-0.00204412 -0.00701729 0.999973 
-0.00237936 -0.0079089 0.999966 
-0.00277044 -0.00871908 0.999958 
-0.0032067 -0.00929907 0.999951 
-0.00373214 -0.00968931 0.999946 
-0.00433438 -0.00973619 0.999943 
-0.00503941 -0.00953133 0.999942 
-0.0058108 -0.00908807 0.999942 
-0.00663451 -0.00844297 0.999942 
-0.00740327 -0.0075553 0.999944 
-0.0080862 -0.00653066 0.999946 
-0.00835903 -0.00532766 0.999951 
-0.00802707 -0.00399194 0.99996 
-0.0066997 -0.00241116 0.999975 
-0.00404518 -0.000158004 0.999992 
0.000395994 0.00320936 0.999995 
0.00743389 0.00770765 0.999943 
0.018559 0.0141799 0.999727 
0.0337066 0.0251557 0.999115 
0.0539585 0.0386546 0.997795 
0.07852 0.0499348 0.995661 
0.112817 0.0432976 0.992672 
0.15256 0.0516972 0.986941 
0.205079 0.21415 0.95503 
0.23908 0.312836 0.919225 
0.276946 0.251415 0.927411 
0.247144 0.438259 0.864204 
0.230993 0.598206 0.767328 
0.031861 0.95738 0.287067 
-0.0831848 0.866604 -0.492014 
-0.237285 0.603554 -0.761196 
-0.282916 0.352608 -0.891979 
-0.237347 0.159567 -0.95823 
-0.183316 0.133518 -0.973945 
-0.138899 0.0882008 -0.986371 
-0.0988333 0.0682215 -0.992763 
-0.0720593 0.0408713 -0.996562 
-0.0501426 0.0262788 -0.998396 
-0.0325062 0.0209598 -0.999252 
-0.018785 0.0150345 -0.99971 
-0.0080898 0.00746837 -0.999939 
-0.000613297 0.0023606 -0.999997 
0.00395271 -0.000625471 -0.999992 
0.00659815 -0.00279598 -0.999974 
0.00795946 -0.00432562 -0.999959 
0.00833828 -0.00552761 -0.99995 
0.0080504 -0.00657652 -0.999946 
0.00743431 -0.00757212 -0.999944 
0.00666346 -0.0084402 -0.999942 
0.00585597 -0.00908804 -0.999941 
0.00511054 -0.00954519 -0.999941 
0.00440371 -0.00970631 -0.999943 
0.00379236 -0.00962248 -0.999946 
0.00325721 -0.00926391 -0.999952 
0.00280116 -0.00867636 -0.999958 
0.00240549 -0.0078995 -0.999966 
0.00205467 -0.00700902 -0.999973 
0.00174009 -0.00605881 -0.99998 
0.00145305 -0.00505684 -0.999986 
0.00119615 -0.00405103 -0.999991 
0.000965315 -0.00305096 -0.999995 
0.000760543 -0.00207758 -0.999997 
0.000581898 -0.00116893 -0.999999 
0.000425135 -0.00036282 -1 
0.000283284 0.000321412 -1 
0.000157792 0.000834659 -1 
2.11204e-05 0.00120547 -0.999999 
-0.000107391 0.0013166 -0.999999 
0.000126265 0.00147679 0.999999 
1.63147e-05 0.00140499 0.999999 
-0.000130873 0.000967597 0.999999 
-0.000268179 0.000422783 1 
-0.000412905 -0.000265956 1 
-0.000568118 -0.00102188 0.999999 
-0.000756033 -0.00194979 0.999998 
-0.000962207 -0.0028554 0.999995 
-0.00118952 -0.003872 0.999992 
-0.0014445 -0.00485884 0.999987 
-0.00172021 -0.0058099 0.999982 
-0.00202825 -0.0067582 0.999975 
-0.00235831 -0.00762027 0.999968 
-0.00271825 -0.00834463 0.999961 
-0.00314089 -0.00891968 0.999955 
-0.00361693 -0.00920124 0.999951 
-0.00418574 -0.00922383 0.999949 
-0.00482008 -0.00895235 0.999948 
-0.00548988 -0.00846772 0.999949 
-0.0061394 -0.00780804 0.999951 
-0.00672622 -0.00705596 0.999952 
-0.00714283 -0.00623671 0.999955 
-0.00723285 -0.00540526 0.999959 
-0.00678239 -0.00459441 0.999966 
-0.00546078 -0.00374444 0.999978 
-0.00287843 -0.00259611 0.999992 
0.00153155 -0.000834592 0.999998 
0.00898965 0.00146158 0.999958 
0.0195696 0.00333889 0.999803 
0.0336272 0.00950563 0.999389 
0.0538762 0.0157173 0.998424 
0.081865 0.0186213 0.996469 
0.126683 0.0073392 0.991916 
0.173146 -0.000865222 0.984896 
0.230879 0.155488 0.960478 
0.183458 0.120558 0.975607 
0.241419 0.0900893 0.96623 
0.313036 0.398731 0.861987 
0.218065 0.723463 0.655017 
0.0400844 0.974787 0.219506 
-0.141323 0.88227 -0.449026 
-0.302695 0.441598 -0.84461 
-0.197406 0.372791 -0.906674 
-0.236299 0.0929819 -0.967221 
-0.184906 0.0737707 -0.979983 
-0.134709 0.0401036 -0.990073 
-0.100258 0.0260725 -0.99462 
-0.0717537 0.00999858 -0.997372 
-0.0491514 0.00402722 -0.998783 
-0.032581 0.00505683 -0.999456 
-0.0191007 0.00427724 -0.999808 
-0.00900214 0.000747151 -0.999959 
-0.00187299 -0.0015739 -0.999997 
0.00276742 -0.00301179 -0.999991 
0.00540102 -0.00408463 -0.999977 
0.0067656 -0.00493268 -0.999965 
0.00721666 -0.00565929 -0.999958 
0.00712608 -0.00636146 -0.999954 
0.00672359 -0.00710307 -0.999952 
0.00617212 -0.00787678 -0.99995 
0.0055281 -0.00852211 -0.999948 
0.00487573 -0.00898402 -0.999948 
0.00423948 -0.00919869 -0.999949 
0.00367488 -0.00917371 -0.999951 
0.00317478 -0.00886041 -0.999956 
0.00275124 -0.00833732 -0.999961 
0.00237288 -0.0075951 -0.999968 