# vtk DataFile Version 3.0 
Exported using Morpho https://github.com/Morpho-lang/morpho 
ASCII 
DATASET UNSTRUCTURED_GRID 

POINTS 1978 float 
-8.48528 -2.82843 -8.77576e-13 
-8.2713 -2.82843 -1.01137e-12 
-7.97245 -2.82843 -6.75952e-13 
-7.72366 -2.82843 -1.56807e-13 
-7.49769 -2.82843 4.18297e-13 
-7.28149 -2.82843 -2.90344e-13 
-7.05886 -2.82843 7.7367e-13 
-6.74769 -2.82843 4.85207e-13 
-6.54818 -2.82843 3.15034e-13 
-6.34291 -2.82843 3.46231e-13 
-6.12458 -2.82843 3.52053e-13 
-5.91293 -2.82843 5.1561e-13 
-5.70093 -2.82843 4.48445e-13 
-5.48843 -2.82843 6.19039e-13 
-5.2784 -2.82843 7.34167e-13 
-5.06778 -2.82843 7.32586e-13 
-4.85635 -2.82843 7.35288e-13 
-4.64669 -2.82843 7.7447e-13 
-4.43485 -2.82843 1.38579e-12 
-4.22493 -2.82843 -1.36942e-13 
-4.01628 -2.82843 -1.43796e-12 
-3.8069 -2.82843 -3.22896e-12 
-3.59605 -2.82843 -4.24846e-12 
-3.38672 -2.82843 -3.60603e-12 
-3.17642 -2.82843 4.18996e-12 
-2.96703 -2.82843 1.76813e-11 
-2.76628 -2.82843 3.59517e-11 
-2.56628 -2.82843 6.85194e-11 
-2.33804 -2.82843 3.36755e-11 
-2.11126 -2.82843 -2.24008e-10 
-1.87456 -2.82843 -1.1804e-09 
-1.64541 -2.82843 -3.52731e-09 
-1.42532 -2.82843 -9.69269e-09 
-1.24024 -2.82843 -2.67707e-08 
-1.07285 -2.82843 -5.6404e-08 
-0.920744 -2.82843 -1.15018e-07 
-0.777535 -2.82843 -1.70435e-07 
-0.665887 -2.82843 -4.35799e-07 
-0.45547 -2.82845 -2.22208e-06 
0.0684378 -2.82846 6.76126e-07 
0.518523 -2.82843 1.27424e-06 
0.711828 -2.82843 1.97962e-07 
0.816746 -2.82843 1.30532e-07 
0.917067 -2.82843 9.54026e-08 
1.0711 -2.82843 5.40101e-08 
1.23595 -2.82843 1.97771e-08 
1.44668 -2.82843 7.09313e-09 
1.663 -2.82843 3.01795e-09 
1.88716 -2.82843 9.52428e-10 
2.13266 -2.82843 8.82341e-11 
2.37077 -2.82843 -4.83498e-11 
2.56473 -2.82843 -3.66085e-11 
2.76363 -2.82843 -3.25089e-11 
2.97298 -2.82843 -1.83355e-11 
3.18664 -2.82843 -3.79404e-12 
3.39995 -2.82843 2.81554e-12 
3.61446 -2.82843 4.21889e-12 
3.82584 -2.82843 2.95045e-12 
4.03542 -2.82843 1.28212e-12 
4.2434 -2.82843 4.80748e-13 
4.45211 -2.82843 -9.5466e-13 
4.66192 -2.82843 -1.02344e-12 
4.87273 -2.82843 -9.97197e-13 
5.08335 -2.82843 -8.90253e-13 
5.29521 -2.82843 -7.40157e-13 
5.50719 -2.82843 -5.74401e-13 
5.71984 -2.82843 -5.18587e-13 
5.93444 -2.82843 -4.72538e-13 
6.15034 -2.82843 -4.13237e-13 
6.36589 -2.82843 -3.43476e-13 
6.58529 -2.82843 -3.49974e-13 
6.80902 -2.82843 -5.45096e-13 
7.03504 -2.82843 -5.01266e-13 
7.26402 -2.82843 -1.32692e-13 
7.49952 -2.82843 -2.05396e-13 
7.7398 -2.82843 3.94808e-13 
7.98848 -2.82843 5.02334e-13 
8.22792 -2.82843 7.49633e-13 
8.48528 -2.82843 9.55963e-13 
-8.48528 -2.59957 4.67626e-13 
-8.24437 -2.57311 -1.78163e-16 
-8.02596 -2.64286 2.06493e-17 
-7.74517 -2.61507 -6.178e-17 
-7.49983 -2.59085 -1.45185e-16 
-7.27363 -2.59123 1.14279e-16 
-7.05277 -2.58104 -1.85886e-16 
-6.85156 -2.66517 -5.58515e-16 
-6.61195 -2.56694 -3.97574e-16 
-6.40737 -2.58263 -2.39036e-16 
-6.19424 -2.59641 -3.99951e-16 
-5.97646 -2.59562 -4.5169e-16 
-5.7606 -2.59776 -3.3677e-16 
-5.54439 -2.5997 -2.00206e-16 
-5.32868 -2.598 8.41007e-17 
-5.1142 -2.59946 4.26403e-16 
-4.89863 -2.59994 5.23025e-16 
-4.68376 -2.59772 5.43099e-16 
-4.46997 -2.60134 -3.06861e-16 
-4.25364 -2.60059 -1.95481e-15 
-4.03764 -2.6 -4.55263e-15 
-3.82085 -2.60033 -8.50881e-15 
-3.59973 -2.59457 -9.73814e-14 
-3.37771 -2.59698 -1.17236e-13 
-3.15279 -2.59606 -1.76519e-15 
-2.92761 -2.58738 1.54855e-13 
-2.7036 -2.57727 1.58084e-13 
-2.46506 -2.58801 -1.68878e-12 
-2.21908 -2.57471 -3.78022e-12 
-1.97406 -2.57658 -9.24568e-12 
-1.73265 -2.58389 -2.41414e-11 
-1.50538 -2.5936 -6.38883e-11 
-1.30408 -2.59733 -1.24453e-10 
-1.13289 -2.63847 -2.85554e-10 
-0.974571 -2.65043 -4.50693e-10 
-0.830007 -2.69526 -9.43365e-10 
-0.702268 -2.68504 -8.45801e-10 
-0.576285 -2.7605 -1.94868e-09 
-0.361296 -2.80269 1.19799e-08 
0.00977921 -2.72184 -5.67332e-10 
0.450534 -2.79771 -2.85622e-09 
0.63627 -2.74621 2.0884e-09 
0.753764 -2.67933 1.37403e-09 
0.862962 -2.61082 3.71399e-10 
0.988835 -2.65922 3.857e-10 
1.14367 -2.62157 3.22963e-10 
1.33216 -2.62637 1.70857e-10 
1.5475 -2.58872 5.90853e-11 
1.77076 -2.57731 2.01318e-11 
2.01938 -2.59015 1.0353e-11 
2.27409 -2.59209 3.94585e-12 
2.51189 -2.55877 1.08586e-12 
2.73171 -2.58441 -1.44732e-13 
2.95553 -2.59517 -8.08221e-14 
3.18145 -2.59302 -1.0177e-13 
3.40767 -2.59941 1.25572e-13 
3.62994 -2.60052 9.17248e-14 
3.8469 -2.59997 7.50783e-15 
4.05988 -2.59847 3.88393e-15 
4.2714 -2.59843 1.60647e-15 
4.48275 -2.59851 2.29207e-16 
4.69403 -2.59849 -4.72803e-16 
4.90531 -2.59768 -5.80232e-16 
5.11752 -2.59855 -3.66719e-16 
5.32981 -2.59796 -7.16077e-17 
5.54289 -2.59779 1.69112e-16 
5.75697 -2.59828 3.28207e-16 
5.97165 -2.59733 4.06089e-16 
6.18646 -2.5943 4.17057e-16 
6.4037 -2.59509 3.99352e-16 
6.62426 -2.59599 3.3917e-16 
6.84664 -2.5948 2.45103e-16 
7.07213 -2.59499 1.56939e-16 
7.30304 -2.599 9.99245e-17 
7.53872 -2.60137 5.09593e-17 
7.78006 -2.60668 2.54102e-17 
8.01732 -2.60525 1.7819e-17 
8.2648 -2.6104 1.17446e-16 
8.48528 -2.58114 -6.15803e-13 
-8.48528 -2.37043 7.38821e-13 
-8.27193 -2.31665 -2.24079e-18 
-8.04394 -2.39455 -1.65102e-17 
-7.81699 -2.42734 1.22628e-17 
-7.59708 -2.17924 1.67158e-16 
-7.55245 -2.38005 -6.24169e-17 
-7.30135 -2.36432 -2.37048e-17 
-7.05705 -2.35673 1.37718e-16 
-6.80667 -2.432 1.25693e-17 
-6.56233 -2.32438 1.39327e-16 
-6.34372 -2.34982 1.1311e-16 
-6.12301 -2.36508 6.61309e-17 
-5.90125 -2.36651 3.03633e-16 
-5.68044 -2.37062 2.52207e-16 
-5.46081 -2.37156 3.32969e-16 
-5.24191 -2.37054 3.84562e-16 
-5.02403 -2.37314 4.3114e-16 
-4.80774 -2.37092 3.91742e-16 
-4.59092 -2.37013 1.59e-16 
-4.37623 -2.37476 5.12255e-17 
-4.16 -2.37359 6.2742e-17 
-3.94406 -2.37282 1.52456e-16 
-3.72625 -2.37338 -4.81322e-16 
-3.50354 -2.36846 -1.67393e-15 
-3.28034 -2.36806 -2.47816e-15 
-3.05433 -2.36274 2.22794e-17 
-2.82372 -2.34571 1.1045e-13 
-2.57897 -2.34934 1.67907e-13 
-2.3329 -2.34294 3.57582e-13 
-2.07674 -2.33334 -1.24972e-12 
-1.82244 -2.34162 -1.39044e-12 
-1.58472 -2.35657 8.09569e-13 
-1.36741 -2.37125 1.33488e-12 
-1.16875 -2.41844 1.00647e-11 
-1.01858 -2.46379 -6.50207e-12 
-0.855268 -2.53651 3.99012e-11 
-0.599961 -2.62133 -7.10842e-10 
-0.389424 -2.67211 4.83251e-09 
-0.159795 -2.75407 -3.69939e-09 
-0.0643472 -2.79269 -2.59601e-09 
0.168826 -2.78683 1.34616e-09 
0.566972 -2.66248 1.25169e-09 
0.676375 -2.57456 -2.29585e-10 
0.802997 -2.49761 3.94712e-10 
0.987637 -2.46949 8.35688e-11 
1.15068 -2.42263 -2.18064e-11 
1.34199 -2.41101 1.44158e-12 
1.5464 -2.34778 1.21308e-11 
1.76516 -2.32633 6.22204e-12 
1.99767 -2.3536 -3.66193e-13 
2.25283 -2.35484 9.37929e-14 
2.49804 -2.32571 -2.25207e-13 
2.74129 -2.34439 -1.86862e-13 
2.97332 -2.36412 3.73556e-15 
3.20331 -2.36964 4.70583e-15 
3.43001 -2.3737 2.8555e-15 
3.64917 -2.3729 9.9513e-16 
3.86391 -2.3707 2.2829e-16 
4.07669 -2.36883 8.54471e-17 
4.28886 -2.36888 -2.22729e-17 
4.50024 -2.36818 -2.21717e-16 
4.71183 -2.36777 -3.84234e-16 
4.92456 -2.36757 -4.27193e-16 
5.13712 -2.36773 -4.03619e-16 
5.35113 -2.36759 -3.36908e-16 
5.56572 -2.36718 -2.73714e-16 
5.77985 -2.36623 -2.22857e-16 
5.99445 -2.36348 -1.76321e-16 
6.21138 -2.36052 -1.32832e-16 
6.43023 -2.36138 -9.13454e-17 
6.64993 -2.36035 -5.55137e-17 
6.87324 -2.35993 -3.31872e-17 
7.1017 -2.3634 -2.11121e-17 
7.33454 -2.37014 -1.33989e-17 
7.57296 -2.37663 -2.5929e-18 
7.80707 -2.37593 -3.78754e-18 
8.04576 -2.38706 3.18815e-17 
8.2681 -2.36082 4.36519e-17 
8.48528 -2.3308 -7.06048e-13 
-8.48528 -2.11624 4.71177e-13 
-8.27409 -2.05293 5.2492e-17 
-8.05948 -2.15475 -6.84212e-17 
-7.82767 -2.19018 -4.91e-17 
-7.58466 -1.96681 2.94216e-17 
-7.3367 -2.15109 -1.30727e-16 
-7.08514 -2.14432 5.23512e-19 
-6.8186 -2.22053 2.21134e-16 
-6.57695 -2.11069 1.93908e-16 
-6.33203 -2.11188 1.25163e-16 
-6.11705 -2.13294 3.27496e-16 
-5.89856 -2.13473 1.95927e-16 
-5.6795 -2.14253 2.99808e-16 
-5.46179 -2.14145 3.48329e-16 
-5.24496 -2.14289 3.3332e-16 
-5.02726 -2.14519 2.97547e-16 
-4.81105 -2.1418 2.56211e-16 
-4.59592 -2.14247 1.44884e-16 
-4.37921 -2.14521 1.86986e-17 
-4.16455 -2.14606 6.4435e-17 
-3.94778 -2.14415 3.74565e-16 
-3.73069 -2.14564 5.39444e-16 
-3.51029 -2.1414 -1.2272e-15 
-3.28601 -2.13745 -4.7645e-15 
-3.05787 -2.13139 -9.55323e-14 
-2.81809 -2.11819 -8.3545e-14 
-2.57382 -2.1153 7.15082e-14 
-2.32445 -2.10899 2.22859e-13 
-2.08088 -2.09316 1.68501e-13 
-1.83741 -2.11276 1.20153e-13 
-1.59287 -2.12122 -1.09319e-12 
-1.38271 -2.1455 -4.76791e-12 
-1.18924 -2.21387 -9.99027e-12 
-1.22866 -1.9907 -1.90428e-11 
-1.02084 -2.2411 7.90516e-11 
-0.892181 -2.37176 5.96863e-11 
-0.728225 -2.54304 -2.56022e-10 
-0.485998 -2.69341 -2.38618e-09 
-0.0926278 -2.65721 -5.54716e-09 
0.108272 -2.68663 -6.19366e-10 
0.370529 -2.74869 2.09106e-09 
0.474232 -2.63996 1.24394e-09 
0.564847 -2.51595 4.00234e-10 
0.828951 -2.36721 -4.85785e-11 
0.964208 -2.28974 1.41223e-10 
1.09649 -2.21139 1.82179e-11 
1.28922 -2.20144 1.79534e-11 
1.4815 -2.12597 -5.3788e-12 
1.69994 -2.08533 -5.27281e-12 
1.93491 -2.09819 -7.12663e-13 
2.1713 -2.12533 -9.10206e-14 
2.41475 -2.09516 -8.41784e-14 
2.66549 -2.10809 1.54457e-13 
2.90156 -2.12766 4.45896e-15 
3.13162 -2.14 7.12639e-15 
3.35803 -2.14531 2.08703e-15 
3.57997 -2.14495 8.10728e-17 
3.79892 -2.141 -6.50384e-16 
4.01452 -2.13923 -4.24465e-16 
4.22945 -2.13946 -1.00422e-16 
4.44358 -2.138 -6.76406e-17 
4.65757 -2.13753 -1.44628e-16 
4.87233 -2.13795 -2.48137e-16 
5.08822 -2.13694 -3.90357e-16 
5.30441 -2.13802 -2.85918e-16 
5.52249 -2.13725 -3.41844e-16 
5.74089 -2.13421 -3.01587e-16 
5.95837 -2.13097 -1.02875e-15 
6.17726 -2.12842 -2.39351e-16 
6.3993 -2.12762 -1.37413e-16 
6.62196 -2.12436 -2.12232e-16 
6.84559 -2.12501 -1.9112e-16 
7.07342 -2.13063 -3.06682e-18 
7.30632 -2.13913 -2.63634e-17 
7.54295 -2.14929 4.64588e-17 
7.78312 -2.14475 -7.71102e-17 
8.02153 -2.15446 3.00389e-17 
8.25005 -2.11646 -2.71002e-17 
8.48528 -2.09907 -6.03826e-13 
-8.48528 -1.86014 1.58144e-13 
-8.26916 -1.79107 4.76934e-17 
-8.05883 -1.90585 2.23131e-17 
[...]
POINT_DATA 1978 
VECTORS vectors float
-0.000135674 0.00166116 0.999998 
4.5879e-05 0.00133455 0.999999 
4.83916e-05 0.000635659 1 
6.62626e-05 -0.000172602 1 
6.14141e-05 -0.000958546 0.999999 
7.94349e-05 -0.00192935 0.999998 
8.90228e-05 -0.00300549 0.999995 
0.000109695 -0.0047479 0.999989 
0.000107816 -0.00591569 0.999982 
8.18711e-05 -0.00710435 0.999975 
7.64953e-05 -0.00839621 0.999965 
6.72631e-05 -0.00960011 0.999954 
5.82021e-05 -0.0107993 0.999941 
4.64243e-05 -0.0119922 0.999928 
2.29331e-05 -0.0131214 0.999914 
-1.35735e-05 -0.0140961 0.9999 
-5.61164e-05 -0.0148805 0.999889 
-0.000114008 -0.0153936 0.999881 
-0.000188665 -0.0155777 0.999878 
-0.000276874 -0.0153545 0.999882 
-0.000373171 -0.0146531 0.999892 
-0.000474824 -0.0133263 0.999911 
-0.000592434 -0.0111352 0.999938 
-0.000681396 -0.00781392 0.999969 
-0.000850396 -0.00264644 0.999996 
-0.00110593 0.0052416 0.999986 
-0.00129127 0.0150006 0.999887 
-0.00145375 0.0279536 0.999608 
-0.00156875 0.0470984 0.998889 
-0.00176645 0.0710761 0.99747 
-0.0020032 0.103644 0.994613 
-0.00271552 0.146349 0.989231 
-0.0048168 0.205505 0.978645 
-0.0080865 0.279422 0.960134 
-0.0107673 0.362666 0.931856 
-0.0131537 0.456774 0.889484 
-0.0164021 0.550835 0.834451 
-0.0166125 0.654583 0.755808 
-0.00657544 0.820458 0.571671 
-0.0140541 0.991929 -0.12602 
0.012433 0.782071 -0.623069 
0.0215826 0.634386 -0.772713 
0.0251437 0.53564 -0.844069 
0.0178444 0.469245 -0.882885 
0.0119252 0.372127 -0.928104 
0.00838304 0.278379 -0.960436 
0.00411892 0.198204 -0.980154 
0.00296234 0.14268 -0.989766 
0.00208368 0.101414 -0.994843 
0.00170551 0.0679945 -0.997685 
0.00160853 0.0439225 -0.999034 
0.00161352 0.0282168 -0.9996 
0.00134137 0.015424 -0.99988 
0.000983004 0.00441806 -0.99999 
0.000803643 -0.00311321 -0.999995 
0.000691607 -0.0080851 -0.999967 
0.000574144 -0.0114513 -0.999934 
0.000459727 -0.0135341 -0.999908 
0.000360296 -0.014736 -0.999891 
0.000266432 -0.0153519 -0.999882 
0.000181864 -0.015513 -0.999879 
0.000109785 -0.0152937 -0.999883 
5.155e-05 -0.0147393 -0.999891 
8.80872e-06 -0.0139306 -0.999903 
-2.11636e-05 -0.0129424 -0.999916 
-4.21241e-05 -0.0118452 -0.99993 
-5.69102e-05 -0.0106823 -0.999943 
-6.70941e-05 -0.00947476 -0.999955 
-7.77644e-05 -0.0082347 -0.999966 
-8.68784e-05 -0.00696714 -0.999976 
-8.85906e-05 -0.00566855 -0.999984 
-8.59204e-05 -0.00438195 -0.99999 
-8.06173e-05 -0.00315022 -0.999995 
-7.15811e-05 -0.00200702 -0.999998 
-6.22786e-05 -0.000961895 -0.999999 
-5.34578e-05 -3.84847e-05 -1 
-2.72806e-05 0.000733877 -1 
-4.61175e-05 0.00126401 -0.999999 
0.00013154 0.00167756 -0.999998 
-0.000538748 0.00125203 0.999999 
-0.000231645 0.00096546 0.999999 
2.77952e-05 0.00064329 0.999999 
3.25459e-05 -0.000186874 1 
-2.45156e-05 -0.00108683 0.999999 
-1.63149e-05 -0.00200721 0.999998 
-4.45178e-05 -0.00297352 0.999995 
0.000198217 -0.00403791 0.999991 
-0.000105964 -0.00533396 0.999985 
-0.000153223 -0.00647304 0.999979 
-0.000192294 -0.00768556 0.99997 
-0.000318392 -0.00889565 0.99996 
-0.000443956 -0.0100713 0.999949 
-0.000594867 -0.0112103 0.999937 
-0.000815544 -0.0122592 0.999924 
-0.00109962 -0.0131612 0.999912 
-0.00146637 -0.0138462 0.999903 
-0.00195273 -0.0142517 0.999896 
-0.00253387 -0.0143861 0.999893 
-0.0032533 -0.014116 0.999895 
-0.00401081 -0.0133517 0.999902 
-0.00470485 -0.01194 0.999917 
-0.00522584 -0.00963915 0.999939 
-0.00542769 -0.00609075 0.999966 
-0.00521879 -0.000746746 0.999986 
-0.00474156 0.00758884 0.999959 
-0.00407787 0.0192705 0.999805 
-0.00332889 0.0358797 0.99935 
-0.000564388 0.0583339 0.998296 
0.00283918 0.0877794 0.996135 
0.00664531 0.128825 0.991645 
0.0078775 0.182138 0.983241 
0.0131884 0.247138 0.96889 
0.015766 0.327797 0.944616 
0.0192724 0.414285 0.909943 
0.0152741 0.52674 0.849889 
0.0315481 0.610322 0.791525 
0.00528978 0.718728 0.695272 
0.00717916 0.882499 0.470258 
-0.0289076 0.99844 -0.0477738 
-0.00389842 0.833621 -0.552322 
0.0127054 0.683447 -0.72989 
-0.0128525 0.570169 -0.821426 
-0.0296992 0.490069 -0.871177 
-0.0116286 0.417183 -0.908748 
-0.0101288 0.325936 -0.945337 
-0.00460642 0.239761 -0.970821 
-0.00698911 0.170246 -0.985376 
-0.00530014 0.120589 -0.992688 
-0.000818625 0.0812938 -0.996689 
0.00181879 0.052412 -0.998623 
0.00258572 0.0317958 -0.99949 
0.00409826 0.0167934 -0.99985 
0.004765 0.00561809 -0.999972 
0.00514391 -0.00185124 -0.999985 
0.00535165 -0.00679231 -0.999962 
0.00517801 -0.0100564 -0.999936 
0.00464857 -0.0121728 -0.999915 
0.00395861 -0.0134351 -0.999901 
0.00321438 -0.014106 -0.999895 
0.00252566 -0.0143285 -0.999894 
0.00193928 -0.0141903 -0.999897 
0.00147154 -0.0137486 -0.999904 
0.00110156 -0.0130639 -0.999914 
0.000828144 -0.0121859 -0.999925 
0.000620449 -0.0111729 -0.999937 
0.000454052 -0.0100726 -0.999949 
0.00032017 -0.00891762 -0.99996 
0.000213042 -0.00773072 -0.99997 
0.000117503 -0.00651938 -0.999978 
4.98533e-05 -0.00529016 -0.999986 
1.74229e-05 -0.00408239 -0.999991 
6.21417e-06 -0.00292378 -0.999995 
-3.74183e-06 -0.00183772 -0.999998 
-3.76281e-06 -0.000858185 -0.999999 
3.18346e-05 -1.10684e-05 -1 
0.000123911 0.000619474 -0.999999 
0.000234562 0.00107663 -0.999999 
0.000551729 0.00123553 -0.999999 
-0.00047854 0.00090906 0.999999 
-0.000353254 0.000827438 0.999999 
-0.000293715 0.000537334 0.999999 
-0.000237817 3.37331e-05 1 
-0.000408342 -0.000620978 0.999999 
-0.00027917 -0.000784727 0.999999 
-0.000329638 -0.00179867 0.999998 
-0.000373309 -0.00296802 0.999995 
-0.000330196 -0.00426191 0.99999 
-0.000615644 -0.00539364 0.999985 
-0.000683987 -0.00657935 0.999978 
-0.000795593 -0.00777164 0.999969 
-0.000991371 -0.00892869 0.999959 
-0.00119838 -0.0100661 0.999948 
-0.00145685 -0.0111032 0.999937 
-0.001794 -0.0120057 0.999926 
-0.00221558 -0.0127035 0.999916 
-0.00275556 -0.0130869 0.99991 
-0.00343215 -0.0132153 0.999906 
-0.00420571 -0.0130745 0.999905 
-0.00511009 -0.0125022 0.999908 
-0.00597765 -0.0113758 0.999917 
-0.00660585 -0.00954396 0.999932 
-0.0067644 -0.00686875 0.999953 
-0.00619577 -0.0030655 0.999976 
-0.00482813 0.00254329 0.999985 
-0.00275771 0.0110419 0.999935 
-0.00022788 0.0242069 0.999707 
0.00344953 0.0420123 0.999111 
0.0103416 0.0663695 0.997741 
0.0193981 0.100095 0.994788 
0.0300729 0.146134 0.988807 
0.0431044 0.202908 0.978248 
0.0564965 0.279125 0.958591 
0.0741432 0.359687 0.930123 
0.0632095 0.472177 0.879235 
0.0791904 0.671137 0.737092 
0.0683509 0.828343 0.556036 
-0.0050352 0.98843 0.151593 
-0.00912618 0.99756 0.069223 
-0.0239937 0.963925 -0.26509 
-0.0313471 0.711499 -0.701986 
-0.065535 0.636101 -0.768817 
-0.0824159 0.506267 -0.85843 
-0.0619432 0.387702 -0.919701 
-0.053345 0.291821 -0.954984 
-0.0389818 0.216624 -0.975476 
-0.0316633 0.15585 -0.987273 
-0.0224617 0.110481 -0.993624 
-0.0122665 0.0771158 -0.996946 
-0.00526515 0.0496678 -0.998751 
-0.00167466 0.0290411 -0.999576 
0.00189275 0.0149154 -0.999887 
0.00395252 0.00477989 -0.99998 
0.00551737 -0.00179016 -0.999983 
0.00647883 -0.00601958 -0.99996 
0.00669632 -0.00887402 -0.999938 
0.0062788 -0.0108329 -0.999921 
0.00549935 -0.0121102 -0.999911 
0.00460908 -0.0128441 -0.999906 
0.00377253 -0.0131537 -0.999906 
0.00305915 -0.0131296 -0.999909 
0.00247411 -0.0128234 -0.999914 
0.00201086 -0.0122693 -0.999922 
0.00164468 -0.0115007 -0.999932 
0.00135591 -0.0105686 -0.999943 
0.00112111 -0.00953296 -0.999954 
0.000926261 -0.00843226 -0.999964 
0.000756538 -0.00729072 -0.999973 
0.000606387 -0.00612927 -0.999981 
0.000494106 -0.00496838 -0.999987 
0.000410415 -0.00382212 -0.999992 
0.00034603 -0.00271382 -0.999996 
0.000296666 -0.00167892 -0.999998 
0.000259471 -0.000749804 -0.999999 
0.000257645 9.06215e-07 -1 
0.000299778 0.000590693 -0.999999 
0.000358242 0.000879029 -0.999999 
0.000454333 0.000896971 -0.999999 
-0.000239677 0.000872295 0.999999 
-0.000273939 0.000874772 0.999999 
-0.000325751 0.000549571 0.999999 
-0.000344727 5.1958e-05 1 
-0.000545727 -0.000585325 0.999999 
-0.000519245 -0.001556 0.999998 
-0.000619065 -0.00268526 0.999996 
-0.000659841 -0.0040089 0.999991 
-0.000945305 -0.00512654 0.999986 
-0.00113615 -0.00635827 0.999979 
-0.00130227 -0.00746047 0.999971 
-0.0015285 -0.00855224 0.999962 
-0.00179766 -0.00960281 0.999952 
-0.00212204 -0.0105466 0.999942 
-0.00250821 -0.0113319 0.999932 
-0.00298864 -0.0118917 0.999924 
-0.00361116 -0.0121646 0.999919 
-0.00434584 -0.0121541 0.999916 
-0.00521705 -0.0118805 0.999915 
-0.00618382 -0.0112469 0.999917 
-0.00711835 -0.0100898 0.999923 
-0.00768261 -0.00838788 0.999935 
-0.00757686 -0.00604079 0.999953 
-0.00654492 -0.00288672 0.999974 
-0.00446725 0.00172883 0.999988 
-0.00133367 0.00874314 0.99996 
0.00302673 0.0198663 0.999797 
0.00945672 0.0357236 0.999316 
0.0192365 0.0559335 0.998249 
0.0317612 0.0854495 0.995836 
0.047333 0.123752 0.991183 
0.0656465 0.173577 0.98263 
0.0921105 0.242544 0.965757 
0.0970997 0.175132 0.979745 
0.121143 0.306207 0.944225 
0.117517 0.409806 0.904571 
0.103329 0.564192 0.819152 
0.0365768 0.787724 0.614943 
0.00292317 0.987807 0.155649 
-0.048001 0.980193 -0.192143 
-0.0237394 0.862365 -0.50573 
-0.0694871 0.767966 -0.636711 
-0.11856 0.655595 -0.745747 
-0.137703 0.440722 -0.887019 
-0.11125 0.362007 -0.925513 
-0.102102 0.276763 -0.955498 
-0.0729403 0.208357 -0.975329 
-0.0576501 0.143449 -0.987977 
-0.0410814 0.100287 -0.994109 
-0.0259916 0.071227 -0.997121 
-0.0145788 0.0487278 -0.998705 
-0.00753822 0.0289454 -0.999552 
-0.00149951 0.0151523 -0.999884 
0.0022871 0.00595713 -0.999979 
0.00500932 -0.00036243 -0.999987 
0.00680517 -0.00435475 -0.999967 
0.00764472 -0.00702631 -0.999946 
0.00757543 -0.00898872 -0.99993 
0.00690155 -0.0104261 -0.999921 
0.00595003 -0.0114027 -0.999917 
0.00500333 -0.0119415 -0.999916 
0.00416525 -0.0121316 -0.999917 
0.00346386 -0.0120359 -0.999921 
0.00289406 -0.0116611 -0.999927 
0.00242915 -0.0110575 -0.999935 
0.00205475 -0.0102375 -0.999945 
0.00174648 -0.0092785 -0.999955 
0.00148774 -0.00823888 -0.999965 
0.00126317 -0.00715291 -0.999973 
0.00106688 -0.00604168 -0.999981 
0.00090975 -0.00491521 -0.999987 
0.000773984 -0.00380569 -0.999992 
0.000652531 -0.00273027 -0.999996 
0.00054602 -0.00171869 -0.999998 
0.000452021 -0.000817904 -0.999999 
0.000379183 -5.86921e-05 -0.999999 
0.000326561 0.000507895 -0.999999 
0.000297123 0.000843073 -0.999999 
0.000245076 0.000873234 -0.999999 
-6.59054e-05 0.00108058 0.999999 
-0.000176906 0.00103024 0.999999 
-0.000330684 0.000669937 0.999999 
-0.000435442 0.000151615 0.999999 
-0.000680817 -0.00148951 0.999998 
-0.000802319 -0.0024916 0.999996 
-0.000769418 -0.00214895 0.999997 
-0.000887442 -0.00375552 0.999992 
-0.00111254 -0.00453009 0.999989 
-0.00130443 -0.00566998 0.999983 
-0.00156041 -0.00677464 0.999975 
-0.00180887 -0.00779945 0.999968 
-0.00210154 -0.00881015 0.999959 
-0.00246215 -0.00971456 0.999949 
-0.00288151 -0.0104629 0.999941 
-0.00338219 -0.0110048 0.999933 
-0.00400997 -0.0112376 0.999928 
-0.00475815 -0.011188 0.999926 
-0.00562454 -0.0108935 0.999924 
-0.00661274 -0.0102865 0.999925 
-0.00760465 -0.00931425 0.999927 
-0.00838649 -0.00788434 0.999933 
-0.00856275 -0.00607342 0.999944 
-0.00780614 -0.00379943 0.999962 
-0.0058712 -0.000662335 0.999982 
-0.00267493 0.00410746 0.999988 
0.0021925 0.0117034 0.999929 
0.00915176 0.0225821 0.999703 
0.0190047 0.0363341 0.999158 
0.0324067 0.0570197 0.997846 
0.0487172 0.0836928 0.9953 
0.0706512 0.118034 0.990493 
0.104408 0.127984 0.986265 
0.150373 0.16795 0.974259 
0.136159 0.220296 0.965883 
0.169992 0.352091 0.920399 
0.140094 0.489241 0.860823 
0.105273 0.861765 0.496268 
0.07149 0.819392 0.568759 
-0.0412863 0.995067 -0.0901981 
-0.0529312 0.923392 -0.380191 
-0.132661 0.778853 -0.613016 
-0.145956 0.561184 -0.814721 
-0.207315 0.364085 -0.907999 
-0.166468 0.298829 -0.939675 
-0.130102 0.217216 -0.967414 
-0.0954643 0.164475 -0.98175 
-0.0701975 0.111577 -0.991273 
-0.048175 0.077237 -0.995848 
-0.0310515 0.0537497 -0.998071 
-0.0183577 0.0361502 -0.999177 
-0.00865446 0.0206203 -0.999749 
-0.0019279 0.0104613 -0.999943 
0.00272577 0.00340491 -0.99999 
0.00583806 -0.00129685 -0.999982 
0.00774018 -0.00427116 -0.99996 
0.00853119 -0.0063507 -0.999943 
0.00835322 -0.00799214 -0.999933 
0.0075751 -0.00932759 -0.999927 
0.00657932 -0.0102941 -0.999925 
0.00561205 -0.0108887 -0.999925 
0.00475231 -0.0111628 -0.999926 
0.00401879 -0.0111624 -0.999929 
0.00340347 -0.0108664 -0.999935 
0.00289744 -0.0103766 -0.999942 
0.00247478 -0.00962851 -0.99995 
0.00212026 -0.00873429 -0.999959 
0.00181327 -0.00775099 -0.999968 
0.00154329 -0.00671283 -0.999976 
0.00131322 -0.00565494 -0.999983 
0.00111896 -0.00457289 -0.999988 
0.000948871 -0.00349666 -0.999993 
0.00080516 -0.00246096 -0.999996 
0.000680184 -0.00149297 -0.999998 
0.000566795 -0.000633846 -0.999999 
0.000453866 9.02438e-05 -0.999999 
0.000349035 0.000617377 -0.999999 
0.000215088 0.000974983 -0.999999 
6.92505e-05 0.00107328 -0.999999 
2.25559e-05 0.00123562 0.999999 
-9.2128e-05 0.0011255 0.999999 
-0.000260007 0.000721151 0.999999 
-0.000392318 0.000196178 0.999999 
-0.000529575 -0.000493913 0.999999 
-0.000643691 -0.00130925 0.999998 
-0.000917927 -0.00299225 0.999995 
-0.000941428 -0.00321826 0.999994 
-0.00112703 -0.00412543 0.99999 
-0.00136943 -0.00524176 0.999985 
-0.00164522 -0.00628692 0.999978 
-0.00196041 -0.00730391 0.999971 
-0.00228753 -0.00827712 0.999963 
-0.00265945 -0.00910853 0.999955 
-0.00310165 -0.009791 0.999947 
-0.00362463 -0.0102625 0.99994 
-0.00425293 -0.0104209 0.999936 
-0.00498586 -0.0103103 0.999934 
-0.00582593 -0.00994902 0.999933 
-0.00676212 -0.0093252 0.999933 
-0.00772702 -0.00839606 0.999934 
-0.00855276 -0.00719856 0.999937 
-0.0089409 -0.00569565 0.999943 
-0.00857384 -0.00397213 0.999955 
-0.00714445 -0.00176934 0.999972 
-0.00443612 0.00137961 0.999989 
1.35752e-06 0.00631871 0.99998 
0.00663327 0.0134166 0.999888 
0.0164088 0.0226272 0.999609 
0.03027 0.0374026 0.998841 
0.0479701 0.0564442 0.997252 
0.0706187 0.080526 0.994247 
0.103241 0.0832593 0.991165 
0.140032 0.101177 0.984964 
0.176304 0.27445 0.945301 
0.195879 0.418575 0.886807 
0.142848 0.693823 0.705837 
0.177356 0.563461 0.806881 
0.0256991 0.924601 0.380067 
-0.0490431 0.857277 -0.512514 
-0.0854904 0.944778 -0.316365 
-0.185604 0.691338 -0.698286 
-0.21118 0.481131 -0.850833 
-0.231553 0.239261 -0.942941 
-0.180055 0.204612 -0.96214 
-0.136814 0.145451 -0.97986 
-0.100587 0.111342 -0.988678 
-0.0687432 0.0733689 -0.994932 
-0.0481223 0.0501055 -0.997584 
-0.0318034 0.0375993 -0.998786 
-0.0183062 0.0250937 -0.999517 
-0.00796108 0.0137153 -0.999874 
-0.000625408 0.00618215 -0.99998 
0.00398133 0.00136282 -0.999991 
0.00683325 -0.00196613 -0.999974 
0.00841008 -0.00414723 -0.999956 
0.00891214 -0.00575482 -0.999943 
0.00857864 -0.00712402 -0.999937 
0.00780335 -0.00831749 -0.999935 
0.00684799 -0.00925816 -0.999933 
0.00593188 -0.00991269 -0.999933 
0.00508662 -0.0102634 -0.999934 
0.004359 -0.0103933 -0.999936 
0.00372046 -0.0102049 -0.999941 
0.00317978 -0.00979037 -0.999947 
0.0027219 -0.00912197 -0.999954 
0.00232963 -0.00827961 -0.999963 
0.00199017 -0.007365 -0.99997 
0.0016836 -0.00637215 -0.999978 
0.00141214 -0.00533943 -0.999984 
0.00117442 -0.00429548 -0.99999 
0.000969349 -0.00326912 -0.999994 
0.000791418 -0.00226913 -0.999997 
0.000639343 -0.00133547 -0.999998 
0.000506476 -0.000504792 -0.999999 
0.000375605 0.000199424 -0.999999 
0.000255469 0.000725842 -0.999999 
0.000108187 0.00109575 -0.999999 
-2.17594e-05 0.00121438 -0.999999 
8.38497e-05 0.00135745 0.999999 
-3.2113e-05 0.00124124 0.999999 
-0.00018396 0.000788343 0.999999 
-0.000315443 0.000231565 0.999999 
-0.000448882 -0.000429592 0.999999 
-0.000568537 -0.00111123 0.999999 
-0.000725604 -0.00196766 0.999997 
-0.00095014 -0.00295132 0.999995 
-0.00116698 -0.00402935 0.999991 
-0.00143264 -0.00507135 0.999986 
-0.00173101 -0.00609428 0.999979 
-0.00204412 -0.00701729 0.999973 
-0.00237936 -0.00790889 0.999965 
-0.00277044 -0.00871908 0.999958 
-0.0032067 -0.00929906 0.999951 
-0.00373214 -0.00968931 0.999946 
-0.00433438 -0.00973618 0.999943 
-0.00503941 -0.00953132 0.999942 
-0.0058108 -0.00908807 0.999941 
-0.00663451 -0.00844297 0.999942 
-0.00740327 -0.0075553 0.999944 
-0.0080862 -0.00653066 0.999946 
-0.00835903 -0.00532766 0.99995 
-0.00802707 -0.00399194 0.999959 
-0.00669969 -0.00241116 0.999974 
-0.00404518 -0.000158003 0.999991 
0.000395994 0.00320935 0.999994 
0.00743389 0.00770765 0.999942 
0.018559 0.0141799 0.999727 
0.0337066 0.0251557 0.999115 
0.0539585 0.0386546 0.997794 
0.07852 0.0499348 0.995661 
0.112817 0.0432975 0.992672 
0.15256 0.0516972 0.986941 
0.205079 0.21415 0.95503 
0.23908 0.312836 0.919225 
0.276946 0.251415 0.927411 
0.247145 0.438259 0.864204 
0.230993 0.598206 0.767328 
0.031861 0.957378 0.287066 
-0.0831848 0.866604 -0.492014 
-0.237285 0.603555 -0.761197 
-0.282916 0.352607 -0.891978 
-0.237347 0.159567 -0.95823 
-0.183316 0.133518 -0.973944 
-0.138899 0.0882007 -0.986371 
-0.0988333 0.0682215 -0.992762 
-0.0720593 0.0408712 -0.996562 
-0.0501426 0.0262788 -0.998396 
-0.0325062 0.0209598 -0.999251 
-0.018785 0.0150345 -0.99971 
-0.0080898 0.00746837 -0.999939 
-0.000613297 0.00236059 -0.999997 
0.00395271 -0.000625471 -0.999992 
0.00659815 -0.00279598 -0.999974 
0.00795946 -0.00432562 -0.999959 
0.00833828 -0.0055276 -0.999949 
0.0080504 -0.00657651 -0.999946 
0.00743431 -0.00757212 -0.999943 
0.00666346 -0.0084402 -0.999942 
0.00585597 -0.00908804 -0.999941 
0.00511054 -0.00954519 -0.999941 
0.00440371 -0.00970631 -0.999943 
0.00379236 -0.00962248 -0.999946 
0.00325721 -0.00926391 -0.999951 
0.00280116 -0.00867636 -0.999958 
0.00240549 -0.0078995 -0.999965 
0.00205467 -0.00700901 -0.999973 
0.00174009 -0.00605881 -0.99998 
0.00145305 -0.00505684 -0.999986 
0.00119615 -0.00405103 -0.999991 
0.000965315 -0.00305096 -0.999995 
0.000760543 -0.00207758 -0.999997 
0.000581898 -0.00116893 -0.999999 
0.000425134 -0.000362819 -0.999999 
0.000283284 0.000321412 -1 
0.000157792 0.000834659 -0.999999 
2.11204e-05 0.00120547 -0.999999 
-0.000107387 0.0013158 -0.999999 
0.00012626 0.0014759 0.999999 
1.63147e-05 0.00140499 0.999999 
-0.000130873 0.000967597 0.999999 
-0.000268179 0.000422783 0.999999 
-0.000412905 -0.000265956 0.999999 
-0.000568118 -0.00102188 0.999999 
-0.000756033 -0.00194979 0.999997 
-0.000962207 -0.00285539 0.999995 
-0.00118952 -0.003872 0.999991 
-0.0014445 -0.00485884 0.999987 
-0.00172021 -0.0058099 0.999981 
-0.00202825 -0.0067582 0.999975 
-0.00235831 -0.00762027 0.999968 
-0.00271824 -0.00834462 0.999961 
-0.00314088 -0.00891967 0.999955 
-0.00361692 -0.00920124 0.999951 
-0.00418574 -0.00922383 0.999948 
-0.00482008 -0.00895235 0.999948 
-0.00548988 -0.00846772 0.999949 
-0.0061394 -0.00780804 0.99995 
-0.00672622 -0.00705596 0.999952 
-0.00714283 -0.00623671 0.999955 
-0.00723284 -0.00540526 0.999959 
-0.00678238 -0.00459441 0.999966 
-0.00546078 -0.00374444 0.999978 
-0.00287843 -0.0025961 0.999992 
0.00153155 -0.000834591 0.999998 
0.00898964 0.00146158 0.999958 
0.0195696 0.00333889 0.999803 
0.0336272 0.00950562 0.999389 
0.0538762 0.0157173 0.998423 
0.081865 0.0186213 0.996469 
0.126683 0.0073392 0.991916 
0.173146 -0.000865222 0.984895 
0.230879 0.155488 0.960478 
0.183458 0.120558 0.975607 
0.241419 0.0900893 0.96623 
0.313036 0.398731 0.861986 
0.218065 0.723462 0.655017 
0.0400843 0.974785 0.219505 
-0.141322 0.882267 -0.449024 
-0.302694 0.441597 -0.844608 
-0.197406 0.372791 -0.906674 
-0.236299 0.0929819 -0.967221 
-0.184906 0.0737707 -0.979983 
-0.134709 0.0401036 -0.990073 
-0.100257 0.0260725 -0.99462 
-0.0717537 0.00999857 -0.997372 
-0.0491514 0.00402722 -0.998783 
-0.032581 0.00505683 -0.999456 
-0.0191007 0.00427724 -0.999808 
-0.00900213 0.000747151 -0.999959 
-0.00187299 -0.0015739 -0.999997 
0.00276742 -0.00301178 -0.999991 
0.00540102 -0.00408463 -0.999977 
0.0067656 -0.00493268 -0.999964 
0.00721666 -0.00565929 -0.999958 
0.00712608 -0.00636146 -0.999954 
0.00672359 -0.00710307 -0.999952 
0.00617211 -0.00787678 -0.99995 