# vtk DataFile Version 3.0 
Exported using Morpho https://github.com/Morpho-lang/morpho 
ASCII 
DATASET UNSTRUCTURED_GRID 

POINTS 1978 float 
-8.48532 -2.82847 1.07991e-08 
-8.27119 -2.82843 1.23822e-08 
-7.97432 -2.82853 8.31199e-09 
-7.7152 -2.82852 1.93507e-09 
-7.50444 -2.82847 -5.07453e-09 
-7.28079 -2.82854 3.79982e-09 
-7.05876 -2.82849 -9.65637e-09 
-6.74757 -2.82852 -5.87874e-09 
-6.54811 -2.82849 -3.06661e-09 
-6.34289 -2.82849 -3.05642e-09 
-6.12449 -2.8285 -2.41847e-09 
-5.91295 -2.82849 -3.50363e-09 
-5.70091 -2.82849 -1.39496e-09 
-5.48842 -2.8285 -1.87959e-09 
-5.27843 -2.82849 -1.55028e-09 
-5.06787 -2.82848 -1.73606e-10 
-4.85635 -2.82848 3.11503e-10 
-4.64652 -2.8285 -1.43605e-09 
-4.43474 -2.8285 -1.44048e-08 
-4.22473 -2.82849 -7.44448e-09 
-4.01605 -2.82849 -1.10284e-08 
-3.80672 -2.82849 -1.53394e-08 
-3.59645 -2.82849 -2.65474e-08 
-3.38706 -2.8285 -3.45409e-08 
-3.17452 -2.82849 -6.58446e-08 
-2.96404 -2.82846 -9.39163e-08 
-2.76792 -2.82863 -1.04456e-07 
-2.568 -2.82843 -1.3625e-07 
-2.33893 -2.82846 2.08483e-08 
-2.11236 -2.82842 2.72617e-07 
-1.87557 -2.82839 1.64907e-06 
-1.64719 -2.82833 5.22176e-06 
-1.42624 -2.82831 1.51497e-05 
-1.24182 -2.82834 3.8469e-05 
-1.07391 -2.82823 6.76259e-05 
-0.91934 -2.8283 0.000105692 
-0.787104 -2.82805 0.000166142 
-0.653703 -2.82784 0.000328638 
-0.452782 -2.82948 0.000960435 
0.0731496 -2.82822 -0.000158634 
0.511277 -2.82823 -0.000719915 
0.711048 -2.82814 -0.000299997 
0.822396 -2.82836 -0.000131859 
0.915417 -2.82815 -8.44129e-05 
1.06979 -2.82819 -6.63243e-05 
1.24022 -2.82831 -3.47018e-05 
1.44789 -2.82833 -1.34439e-05 
1.6647 -2.82839 -4.70146e-06 
1.88802 -2.82839 -1.65649e-06 
2.13336 -2.82844 -9.7854e-08 
2.37283 -2.82838 1.12098e-07 
2.56871 -2.82857 8.2024e-08 
2.75808 -2.82849 9.40732e-08 
2.97151 -2.82851 9.62854e-08 
3.1868 -2.8285 7.09622e-08 
3.40028 -2.82849 4.68096e-08 
3.61428 -2.82849 2.66244e-08 
3.8258 -2.82849 1.54268e-08 
4.03528 -2.82849 9.49847e-09 
4.2431 -2.8285 1.08364e-09 
4.45193 -2.82849 8.31417e-09 
4.66186 -2.82849 4.21496e-09 
4.8727 -2.82849 2.69521e-09 
5.08335 -2.82849 2.19438e-09 
5.29523 -2.82849 1.93317e-09 
5.5072 -2.82849 1.56102e-09 
5.71976 -2.8285 2.35173e-09 
5.9344 -2.8285 3.01534e-09 
6.15033 -2.82849 3.24188e-09 
6.36581 -2.82849 3.10857e-09 
6.58521 -2.82849 3.70486e-09 
6.80895 -2.82849 6.41187e-09 
7.03499 -2.82849 6.02379e-09 
7.264 -2.82849 1.56303e-09 
7.49948 -2.82849 2.51108e-09 
7.73964 -2.8285 -4.88426e-09 
7.98858 -2.8285 -6.17861e-09 
8.22768 -2.8285 -9.17434e-09 
8.4853 -2.82848 -1.17537e-08 
-8.48535 -2.59958 -5.72678e-09 
-8.24269 -2.56923 6.59593e-09 
-8.03019 -2.64657 -4.34131e-09 
-7.73753 -2.62388 -3.11155e-09 
-7.48173 -2.57893 7.92712e-09 
-7.26828 -2.59669 3.23976e-09 
-7.06409 -2.56746 -1.98508e-09 
-6.86321 -2.66383 1.52959e-10 
-6.61254 -2.57214 5.32436e-09 
-6.40837 -2.58144 -8.21602e-10 
-6.19603 -2.59956 2.50938e-09 
-5.97684 -2.59474 3.11819e-09 
-5.76122 -2.59793 3.35155e-09 
-5.54532 -2.60064 2.78149e-09 
-5.33008 -2.59886 2.71024e-09 
-5.11585 -2.59916 2.53684e-09 
-4.90057 -2.59964 8.93647e-09 
-4.68536 -2.59846 6.25917e-09 
-4.47174 -2.60229 1.11629e-08 
-4.25564 -2.60126 1.09096e-08 
-4.04023 -2.60045 1.22007e-08 
-3.82445 -2.60085 6.51955e-09 
-3.60548 -2.60043 2.76115e-08 
-3.38359 -2.59726 3.84161e-08 
-3.1602 -2.5967 8.25417e-08 
-2.92959 -2.58836 8.72077e-08 
-2.69838 -2.56955 8.26429e-08 
-2.46329 -2.5891 5.97048e-08 
-2.21756 -2.57163 -2.12653e-07 
-1.97273 -2.57637 -4.77337e-07 
-1.73081 -2.57517 -1.71641e-06 
-1.5016 -2.59037 -3.88183e-06 
-1.30292 -2.58717 -1.53997e-05 
-1.1212 -2.61666 -1.7041e-05 
-0.966646 -2.64005 -7.95716e-06 
-0.798686 -2.68863 -1.04772e-05 
-0.686462 -2.67583 1.03507e-05 
-0.573678 -2.75719 6.51347e-05 
-0.361386 -2.80343 -0.000175789 
0.0141737 -2.73641 -4.69593e-05 
0.433386 -2.79736 3.77909e-05 
0.634708 -2.75758 -2.32923e-07 
0.759255 -2.6801 2.49465e-05 
0.841362 -2.60637 1.37393e-05 
0.967642 -2.64267 2.30059e-05 
1.13616 -2.60945 6.00939e-06 
1.33204 -2.61169 3.8953e-06 
1.54849 -2.58517 3.14531e-06 
1.77213 -2.57211 1.13148e-06 
2.01918 -2.59068 4.64721e-07 
2.27431 -2.58699 6.42521e-08 
2.50946 -2.54966 -3.57273e-08 
2.7408 -2.58897 -9.09724e-08 
2.96698 -2.59651 -8.75818e-08 
3.1901 -2.59781 -6.63645e-08 
3.41332 -2.60117 -4.49776e-08 
3.63233 -2.60047 -2.59368e-08 
3.84845 -2.6004 -1.53715e-08 
4.06133 -2.59917 -2.23255e-09 
4.27232 -2.59893 -7.9063e-09 
4.48334 -2.59874 -1.09229e-08 
4.69472 -2.59881 -7.26011e-09 
4.90607 -2.59788 -5.10292e-09 
5.11829 -2.5989 -4.11269e-09 
5.33058 -2.59865 -3.04362e-09 
5.54337 -2.59852 -2.75528e-09 
5.75713 -2.59906 -2.61581e-09 
5.97161 -2.59809 -3.50073e-09 
6.186 -2.59487 -4.42242e-09 
6.40302 -2.59555 -4.42264e-09 
6.62388 -2.59644 -3.94587e-09 
6.84666 -2.59538 -3.57653e-09 
7.07225 -2.59538 -3.65057e-09 
7.30305 -2.5993 -8.25465e-09 
7.53896 -2.60165 4.6151e-10 
7.78149 -2.60779 4.8366e-09 
8.01785 -2.5982 4.74822e-09 
8.26778 -2.61457 -9.08427e-09 
8.48536 -2.5812 7.54013e-09 
-8.48532 -2.3702 -9.10951e-09 
-8.26917 -2.31341 8.13103e-09 
-8.04169 -2.39087 1.33925e-10 
-7.82529 -2.44361 -4.92969e-10 
-7.60807 -2.18523 1.0434e-10 
-7.56075 -2.38144 9.96985e-11 
-7.30371 -2.34729 -2.60886e-10 
-7.04976 -2.36016 -6.90842e-11 
-6.79591 -2.43472 1.09075e-08 
-6.55932 -2.3238 9.92234e-10 
-6.34139 -2.34904 -1.22051e-09 
-6.12411 -2.36919 -4.3201e-10 
-5.89937 -2.3666 -2.44374e-10 
-5.67852 -2.37149 -7.43107e-10 
-5.46027 -2.37267 -1.24579e-09 
-5.24132 -2.37185 -1.28031e-09 
-5.02242 -2.37324 -8.88406e-10 
-4.80425 -2.37191 -6.44378e-09 
-4.58786 -2.37089 2.30086e-09 
-4.37419 -2.37589 -3.14263e-09 
-4.15851 -2.37428 -4.91998e-09 
-3.94288 -2.37348 -6.29676e-09 
-3.72565 -2.37473 -6.85212e-09 
-3.50647 -2.37233 -2.51369e-08 
-3.28423 -2.36721 -2.72099e-08 
-3.05898 -2.36504 -5.27004e-08 
-2.82631 -2.34812 -6.77923e-08 
-2.58272 -2.34672 -9.19313e-08 
-2.34136 -2.34257 -7.89178e-08 
-2.08581 -2.32657 -8.72571e-08 
-1.83655 -2.33467 -3.24305e-07 
-1.58763 -2.34525 -9.3401e-07 
-1.36836 -2.35969 -4.6926e-06 
-1.16747 -2.40835 4.98659e-07 
-0.996789 -2.45044 -1.01186e-05 
-0.843701 -2.56023 -8.17942e-06 
-0.589769 -2.61699 -1.08174e-05 
-0.392115 -2.67833 -0.000335174 
-0.120149 -2.74726 0.000127329 
-0.0842888 -2.78989 0.000169433 
0.17229 -2.78354 1.61296e-05 
0.584128 -2.67369 -0.000125401 
0.626295 -2.58546 0.000135015 
0.792154 -2.50575 -3.42486e-06 
0.974883 -2.4604 -1.79822e-05 
1.15195 -2.40502 7.96547e-06 
1.34728 -2.38928 7.29744e-06 
1.54866 -2.33694 -4.56925e-07 
1.76391 -2.32579 5.05203e-07 
2.00003 -2.35123 4.21057e-07 
2.25441 -2.35161 1.72501e-07 
2.50183 -2.31477 1.04909e-07 
2.74391 -2.35741 7.07026e-08 
2.97746 -2.36595 4.76004e-08 
3.20696 -2.37251 2.60586e-08 
3.43116 -2.37503 1.46258e-08 
3.65036 -2.37375 1.12527e-08 
3.8651 -2.37204 7.45917e-09 
4.07733 -2.36967 -4.56964e-10 
4.28895 -2.36924 9.21581e-09 
4.50029 -2.36854 -2.74953e-09 
4.71186 -2.36824 1.69121e-09 
4.9248 -2.36811 1.42265e-09 
5.13741 -2.36858 1.82555e-09 
5.35138 -2.36875 7.37822e-10 
5.56572 -2.36834 1.06398e-09 
5.77994 -2.36766 2.98745e-12 
5.9944 -2.36447 -4.94935e-10 
6.21105 -2.36121 -1.78971e-10 
6.43025 -2.36262 2.30995e-11 
6.65016 -2.36152 3.02244e-10 
6.87329 -2.36073 1.15906e-09 
7.10153 -2.36381 1.06963e-08 
7.33423 -2.37082 4.30723e-09 
7.57283 -2.37759 -9.68175e-09 
7.80625 -2.37587 -2.12425e-09 
8.05527 -2.38186 1.87783e-09 
8.27035 -2.36247 -9.6456e-09 
8.48536 -2.33156 8.72495e-09 
-8.48537 -2.11611 -5.82877e-09 
-8.27326 -2.05334 5.4257e-09 
-8.05326 -2.14996 -1.58095e-09 
-7.82702 -2.19404 1.49974e-09 
-7.58721 -1.9738 -4.1488e-09 
-7.34568 -2.1454 1.15782e-10 
-7.08428 -2.14818 2.83253e-09 
-6.81824 -2.22212 -7.74483e-09 
-6.57405 -2.11207 -3.61954e-09 
-6.32999 -2.11153 5.70316e-09 
-6.11513 -2.13224 8.79635e-10 
-5.90027 -2.13958 1.67666e-11 
-5.67847 -2.14248 -6.8641e-10 
-5.46092 -2.14267 -9.34745e-10 
-5.24546 -2.14454 -1.24404e-09 
-5.02794 -2.1473 -1.84001e-09 
-4.81233 -2.14251 -1.17735e-09 
-4.59651 -2.14292 -2.22998e-09 
-4.37944 -2.14587 -2.77177e-09 
-4.16467 -2.14699 -4.26549e-09 
-3.94728 -2.14518 -4.99672e-09 
-3.72974 -2.14705 -4.42176e-09 
-3.50895 -2.14327 8.48819e-09 
-3.28595 -2.13742 -3.22754e-09 
-3.05817 -2.13357 -3.85371e-10 
-2.82448 -2.11995 -2.95201e-08 
-2.57945 -2.11518 -6.7265e-08 
-2.33027 -2.10775 -1.44304e-07 
-2.08127 -2.0871 -5.0905e-08 
-1.82617 -2.10839 -1.02766e-07 
-1.58777 -2.11493 -5.85842e-07 
-1.36648 -2.14846 7.892e-08 
-1.15156 -2.21134 -3.90942e-06 
-1.23525 -1.99575 6.0362e-07 
-0.997192 -2.23744 1.84118e-06 
-0.859346 -2.39403 -7.54115e-06 
-0.692766 -2.52019 5.86744e-05 
-0.483081 -2.70966 0.000139526 
-0.155439 -2.70288 -0.000280219 
0.111185 -2.69193 2.86715e-06 
0.385934 -2.74367 6.63909e-05 
0.489417 -2.61912 -0.00013812 
0.592797 -2.49516 -2.68269e-05 
0.80695 -2.33816 -1.95999e-05 
0.943294 -2.32267 8.19201e-06 
1.08155 -2.22202 -7.40384e-07 
1.27349 -2.19735 1.52197e-06 
1.48012 -2.11698 2.08923e-06 
1.70313 -2.08064 2.936e-07 
1.93389 -2.09861 -1.37969e-07 
2.17126 -2.12094 2.18642e-07 
2.41683 -2.09003 2.97292e-08 
2.67218 -2.11279 6.84016e-08 
2.90227 -2.1334 2.0698e-08 
3.13237 -2.14171 2.10123e-08 
3.35787 -2.14638 2.95604e-10 
3.57915 -2.14611 2.34103e-09 
3.7973 -2.14299 1.16246e-08 
4.01241 -2.13999 -4.02685e-09 
4.22671 -2.13977 8.32962e-09 
4.44095 -2.13864 -7.14635e-10 
4.65567 -2.13816 1.08629e-08 
4.87127 -2.13906 -7.97388e-09 
5.088 -2.13817 9.22287e-09 
5.30477 -2.13949 -7.07102e-09 
5.52307 -2.13831 3.48192e-09 
5.7412 -2.13599 8.27444e-10 
5.95871 -2.13203 -2.236e-10 
6.1777 -2.12855 -1.08336e-11 
6.39931 -2.12911 1.85707e-10 
6.62177 -2.12566 1.01117e-09 
6.84506 -2.12588 6.2585e-09 
7.07259 -2.13125 -7.30624e-09 
7.30518 -2.13978 -3.14855e-09 
7.54088 -2.14989 -3.41489e-10 
7.77901 -2.14377 3.02488e-09 
8.0156 -2.16194 -3.28928e-09 
8.25348 -2.11086 -4.83973e-09 
8.48533 -2.0987 7.4553e-09 
-8.48533 -1.85988 -1.94971e-09 
-8.2712 -1.79059 -1.33535e-09 
-8.06146 -1.90553 1.0361e-09 
[...]
POINT_DATA 1978 
VECTORS vectors float
-0.000244485 0.00170135 1.00002 
6.49546e-05 0.0013766 1.00003 
0.000200183 0.000670542 1.00003 
0.000436539 -0.000166219 1.00003 
0.000546433 -0.000942535 1.00003 
0.000638086 -0.00192587 1.00002 
0.00064056 -0.00300636 1.00004 
0.000624504 -0.00477996 1.00002 
0.000710546 -0.0059599 1.00001 
0.00065579 -0.00714599 1.00001 
0.000577846 -0.00845631 0.999995 
0.00049761 -0.0096644 0.999984 
0.000423708 -0.0108729 0.999971 
0.000319658 -0.01208 0.999957 
0.000148471 -0.0132319 0.999943 
-0.00010635 -0.014225 0.999929 
-0.000432296 -0.0150326 0.999917 
-0.000881964 -0.0155669 0.999909 
-0.00146774 -0.0157665 0.999905 
-0.00215175 -0.0155553 0.999907 
-0.00291032 -0.0148718 0.999916 
-0.00374115 -0.0135678 0.999932 
-0.00467641 -0.0113976 0.999956 
-0.00575398 -0.00809579 0.999983 
-0.00728609 -0.0029404 1 
-0.00866952 0.00505876 0.999984 
-0.00966273 0.0147755 0.999869 
-0.0116725 0.0277454 0.999584 
-0.01353 0.0469633 0.998843 
-0.0153656 0.0709408 0.997403 
-0.0183984 0.103392 0.994511 
-0.0251783 0.145806 0.98903 
-0.0350487 0.204575 0.978246 
-0.046366 0.279551 0.95901 
-0.05316 0.362431 0.930503 
-0.0535483 0.456901 0.887911 
-0.0537948 0.548699 0.834271 
-0.0472942 0.655817 0.753461 
-0.0111603 0.8214 0.570536 
-0.026659 0.990838 -0.135132 
0.0322618 0.783029 -0.621383 
0.0654409 0.637708 -0.767543 
0.0649798 0.532505 -0.843913 
0.059341 0.470307 -0.880516 
0.0575841 0.372576 -0.926228 
0.0487267 0.27699 -0.959658 
0.0343212 0.197193 -0.979792 
0.0249504 0.142215 -0.989553 
0.0181626 0.101236 -0.994733 
0.015206 0.0677884 -0.997623 
0.013179 0.0437557 -0.998995 
0.0113923 0.0280998 -0.999566 
0.00997707 0.0153458 -0.999868 
0.00832987 0.00415731 -0.99999 
0.00683104 -0.00340195 -1 
0.0056823 -0.00836405 -0.999981 
0.00464006 -0.0117252 -0.999952 
0.00365798 -0.013779 -0.999929 
0.00280874 -0.0149516 -0.999915 
0.00206218 -0.0155498 -0.999907 
0.0014117 -0.0156963 -0.999906 
0.000855095 -0.0154624 -0.99991 
0.000409881 -0.0148869 -0.99992 
8.38723e-05 -0.0140555 -0.999932 
-0.000143152 -0.0130472 -0.999945 
-0.000300991 -0.0119336 -0.999959 
-0.00041452 -0.0107582 -0.999973 
-0.000502875 -0.00954085 -0.999985 
-0.000589132 -0.0082921 -0.999997 
-0.00066398 -0.00701367 -1.00001 
-0.000702922 -0.00570185 -1.00002 
-0.000708396 -0.00440297 -1.00002 
-0.000686687 -0.00315962 -1.00003 
-0.000636002 -0.00200678 -1.00003 
-0.00057094 -0.000952199 -1.00003 
-0.000481621 -1.72119e-05 -1.00003 
-0.000293183 0.000771349 -1.00003 
-0.000103689 0.00129926 -1.00003 
0.000275952 0.00172291 -1.00002 
-0.000563883 0.00130884 1.00002 
-0.000236356 0.000976232 1.00008 
0.000116302 0.000659793 1.00007 
9.57781e-05 -0.000169181 1.00007 
-2.21733e-06 -0.00109541 1.00007 
9.27139e-06 -0.0019998 1.00006 
-3.90037e-05 -0.00299294 1.00006 
0.00036275 -0.00405745 1.00005 
-8.10839e-05 -0.00536185 1.00005 
-0.00012591 -0.00651161 1.00004 
-0.000153431 -0.00773416 1.00003 
-0.000291184 -0.00895365 1.00002 
-0.000422116 -0.0101373 1.00001 
-0.000577754 -0.0112867 0.999998 
-0.000811194 -0.0123468 0.999985 
-0.00111413 -0.013262 0.999973 
-0.00150554 -0.0139571 0.999963 
-0.00202478 -0.0143654 0.999956 
-0.00266296 -0.0145105 0.999952 
-0.00344806 -0.0142516 0.999954 
-0.00427993 -0.0135003 0.999961 
-0.00506251 -0.0121005 0.999976 
-0.0056813 -0.00981253 0.999998 
-0.00594301 -0.00628269 1.00003 
-0.0057768 -0.000986754 1.00005 
-0.00530172 0.00737851 1.00003 
-0.00472446 0.0191951 0.999888 
-0.0044301 0.0359039 0.999425 
-0.0014781 0.0585344 0.998369 
0.00186253 0.0877879 0.996227 
0.00575183 0.129163 0.991694 
0.00564963 0.182552 0.98326 
0.0111929 0.246801 0.969061 
0.0133681 0.328797 0.944346 
0.0175615 0.41353 0.910341 
0.010766 0.531607 0.84693 
0.0305356 0.610366 0.791529 
-0.000493976 0.718576 0.695409 
-0.00343882 0.880101 0.474463 
-0.0309542 0.998176 -0.0512829 
0.0105879 0.837519 -0.546448 
0.021638 0.68584 -0.727334 
-0.00565608 0.563862 -0.825959 
-0.0327223 0.491279 -0.870457 
-0.00979345 0.418526 -0.90816 
-0.00597408 0.326811 -0.945108 
-0.00102945 0.239422 -0.970959 
-0.0055921 0.170216 -0.98547 
-0.00443005 0.120973 -0.99273 
0.000631041 0.0812675 -0.996782 
0.00297797 0.0523981 -0.998707 
0.00307069 0.031978 -0.99957 
0.00478824 0.0165427 -0.999922 
0.00538954 0.00535431 -1.00003 
0.00568203 -0.00205965 -1.00005 
0.0058827 -0.00695147 -1.00002 
0.00562082 -0.0102159 -0.999994 
0.00499148 -0.0123322 -0.999973 
0.0042157 -0.0135788 -0.99996 
0.00339417 -0.0142385 -0.999954 
0.00264534 -0.0144524 -0.999953 
0.00201247 -0.0143058 -0.999957 
0.00150836 -0.0138569 -0.999964 
0.0011138 -0.0131618 -0.999974 
0.0008244 -0.0122728 -0.999986 
0.000606799 -0.0112486 -0.999998 
0.000432203 -0.0101378 -1.00001 
0.000291486 -0.00897431 -1.00002 
0.000179991 -0.00777911 -1.00003 
7.82652e-05 -0.00655982 -1.00004 
6.85308e-06 -0.00532155 -1.00005 
-2.27859e-05 -0.00410406 -1.00006 
-2.7801e-05 -0.00293476 -1.00006 
-3.81131e-05 -0.00183915 -1.00007 
-4.08967e-05 -0.000851834 -1.00007 
4.46126e-06 1.53981e-06 -1.00007 
0.000116496 0.000634121 -1.00007 
0.000227627 0.00108774 -1.00007 
0.000573383 0.00129824 -1.00003 
-0.000481025 0.000961068 1.00003 
-0.000367038 0.000842464 1.00007 
-0.000328083 0.000550835 1.00007 
-0.000281101 5.61273e-05 1.00007 
-0.000399942 -0.000597087 1.00007 
-0.00031023 -0.000785353 1.00007 
-0.000335674 -0.00180148 1.00008 
-0.00038469 -0.00298125 1.00005 
-0.000366719 -0.00428347 1.00006 
-0.000628456 -0.00542641 1.00006 
-0.000694145 -0.00662009 1.00004 
-0.000804275 -0.00781239 1.00003 
-0.00101154 -0.00899595 1.00002 
-0.00121301 -0.0101351 1.00001 
-0.00147205 -0.0111848 0.999998 
-0.00180967 -0.0121017 0.999987 
-0.00223585 -0.0128167 0.999967 
-0.0027732 -0.0131837 0.999981 
-0.00345891 -0.0133207 0.999967 
-0.00424484 -0.0131903 0.999965 
-0.00517329 -0.012636 0.999968 
-0.00607224 -0.0115163 0.999977 
-0.00673875 -0.0096636 0.999993 
-0.00692027 -0.0069659 1.00002 
-0.00634669 -0.00320425 1.00004 
-0.00489871 0.00231821 1.00005 
-0.00269066 0.010789 1.00001 
-0.000234191 0.0240608 0.99977 
0.00323372 0.0419858 0.999188 
0.0101021 0.0665345 0.997809 
0.0196427 0.0999451 0.994871 
0.0304377 0.146757 0.988767 
0.0431578 0.202478 0.978391 
0.0558275 0.279018 0.958689 
0.0745434 0.360643 0.929738 
0.0626743 0.471106 0.879832 
0.0811184 0.669109 0.738733 
0.0682983 0.828381 0.555978 
-0.00911412 0.990633 0.135865 
-0.0167221 0.995602 0.0869385 
-0.0337045 0.963733 -0.264383 
-0.0283338 0.703039 -0.710755 
-0.0676293 0.649962 -0.756931 
-0.0788507 0.503722 -0.860237 
-0.0613043 0.386088 -0.920435 
-0.0536905 0.292003 -0.954934 
-0.0392579 0.217304 -0.975365 
-0.0315558 0.15641 -0.987237 
-0.0226644 0.110309 -0.993707 
-0.0124312 0.0771384 -0.997017 
-0.00506014 0.0498775 -0.998817 
-0.00159962 0.0288611 -0.999655 
0.00190125 0.0146987 -0.99996 
0.0039586 0.0045149 -1.00006 
0.00559779 -0.00197833 -1.00005 
0.00662875 -0.00614968 -1.00002 
0.00685278 -0.00899272 -0.999998 
0.0064033 -0.0109601 -0.999981 
0.00557589 -0.0122441 -0.999971 
0.00465868 -0.0129637 -0.999966 
0.00380225 -0.013265 -0.999966 
0.00308158 -0.0132356 -0.999969 
0.00249186 -0.0129265 -0.999975 
0.0020279 -0.0123667 -0.999983 
0.00166061 -0.0115888 -0.999993 
0.00137183 -0.0106446 -1 
0.00113763 -0.00959753 -1.00002 
0.000941195 -0.00848654 -1.00003 
0.000768307 -0.00733583 -1.00004 
0.000615938 -0.00616537 -1.00005 
0.000502328 -0.0049963 -1.00005 
0.000418004 -0.00384186 -1.00006 
0.000354604 -0.00272572 -1.00006 
0.000309826 -0.00168176 -1.00007 
0.000273198 -0.000744399 -1.00007 
0.00027025 1.30258e-05 -1.00007 
0.000323769 0.000611717 -1.00007 
0.000370835 0.000895734 -1.00006 
0.000453468 0.000946974 -1.00003 
-0.000241401 0.00093231 1.00003 
-0.000280446 0.00090231 1.00007 
-0.000323994 0.000563374 1.00007 
-0.000339625 5.56106e-05 1.00006 
-0.000575205 -0.000581689 1.00006 
-0.000529992 -0.00156161 1.00008 
-0.000624335 -0.00268878 1.00006 
-0.000672533 -0.00403282 1.00006 
-0.000962444 -0.00515749 1.00005 
-0.00115696 -0.0063995 1.00004 
-0.00132936 -0.00751778 1.00004 
-0.00154779 -0.00859996 1.00003 
-0.00182343 -0.00967094 1.00001 
-0.00214737 -0.0106276 1 
-0.00253397 -0.0114272 0.999994 
-0.00301235 -0.0119867 0.999996 
-0.00364327 -0.0122745 0.99997 
-0.00438112 -0.0122531 0.999977 
-0.0052657 -0.0119881 0.999976 
-0.00626358 -0.0113667 0.999978 
-0.00724478 -0.0102038 0.999984 
-0.00784169 -0.00848643 0.999996 
-0.00773552 -0.00615288 1.00001 
-0.00664936 -0.00304195 1.00004 
-0.00448416 0.00149901 1.00006 
-0.00130108 0.00837679 1.00004 
0.00309766 0.0195213 0.999893 
0.00961537 0.0355729 0.999403 
0.0194517 0.055807 0.998337 
0.0323355 0.0855766 0.995888 
0.0476555 0.123411 0.991289 
0.0652844 0.173855 0.982652 
0.0925799 0.243474 0.965527 
0.0967328 0.176566 0.979558 
0.121537 0.306065 0.944252 
0.119465 0.410215 0.904156 
0.102389 0.56332 0.819858 
0.0335113 0.788213 0.614314 
0.00199325 0.982836 0.183221 
-0.0489683 0.980455 -0.19008 
-0.0202929 0.861074 -0.507987 
-0.0704989 0.771021 -0.632747 
-0.117396 0.646974 -0.753391 
-0.140906 0.439918 -0.886897 
-0.109499 0.365581 -0.924342 
-0.102727 0.278088 -0.955067 
-0.072596 0.208305 -0.975413 
-0.0580174 0.1428 -0.988113 
-0.0416404 0.100287 -0.994175 
-0.0263189 0.0709842 -0.997199 
-0.0146825 0.0485535 -0.998795 
-0.00766083 0.0287922 -0.999636 
-0.00161149 0.0149072 -0.999963 
0.00222903 0.00567194 -1.00005 
0.00504153 -0.000615956 -1.00005 
0.00691761 -0.00451463 -1.00003 
0.00780761 -0.00712217 -1.00001 
0.00772498 -0.00908272 -0.999991 
0.00701545 -0.0105305 -0.999982 
0.0060194 -0.0115143 -0.999977 
0.00504886 -0.0120481 -0.999976 
0.00419797 -0.012232 -0.999978 
0.00349304 -0.0121355 -0.999982 
0.00292115 -0.0117577 -0.999989 
0.00245483 -0.011147 -0.999997 
0.00208018 -0.0103142 -1.00001 
0.00177142 -0.00934393 -1.00002 
0.00151174 -0.00829399 -1.00003 
0.00128583 -0.00720011 -1.00004 
0.00108916 -0.00608186 -1.00005 
0.000932229 -0.00494726 -1.00005 
0.00079498 -0.00382705 -1.00006 
0.000669372 -0.00274048 -1.00006 
0.000558065 -0.00171857 -1.00007 
0.000459802 -0.000810846 -1.00007 
0.000379043 -4.69314e-05 -1.00007 
0.000324228 0.000524187 -1.00007 
0.000299581 0.000867203 -1.00008 
0.000250458 0.000925213 -1.00003 
-6.57115e-05 0.00116303 1.00003 
-0.000182996 0.00106462 1.00007 
-0.000345997 0.000696871 1.00007 
-0.000457362 0.000172408 1.00008 
-0.000711374 -0.00147603 1.00005 
-0.000838296 -0.00251299 1.00007 
-0.000771599 -0.00214629 1.00006 
-0.000910871 -0.0037784 1.00006 
-0.00113775 -0.00455716 1.00005 
-0.00132668 -0.00570747 1.00005 
-0.00158286 -0.00681729 1.00004 
-0.00183415 -0.00785187 1.00003 
-0.00212948 -0.00887093 1.00002 
-0.00249143 -0.00978877 1.00001 
-0.0029119 -0.0105478 1 
-0.00341544 -0.0111004 0.999995 
-0.00404949 -0.0113336 0.99999 
-0.00480498 -0.0112766 0.999987 
-0.00568348 -0.0109814 0.999986 
-0.00669514 -0.0103817 0.999986 
-0.0077321 -0.00940773 0.999988 
-0.00857235 -0.00795702 0.999995 
-0.00878595 -0.00613606 1.00001 
-0.00801389 -0.00391944 1.00003 
-0.0060145 -0.000879049 1.00005 
-0.00272563 0.00383759 1.00006 
0.00226086 0.011395 1.00001 
0.00928842 0.0223148 0.999784 
0.0192893 0.0361401 0.999237 
0.0328538 0.0566814 0.997926 
0.0490139 0.0833157 0.995385 
0.0707497 0.118063 0.990537 
0.103524 0.127464 0.98647 
0.148677 0.168601 0.974457 
0.136072 0.219273 0.966164 
0.170534 0.351633 0.920488 
0.138992 0.493059 0.858866 
0.0991656 0.858938 0.502029 
0.0725876 0.816593 0.572569 
-0.0430045 0.993015 -0.105945 
-0.0535303 0.924914 -0.376332 
-0.133109 0.779966 -0.611395 
-0.145013 0.563665 -0.813175 
-0.206634 0.365087 -0.90778 
-0.167714 0.298725 -0.939491 
-0.129759 0.21734 -0.967472 
-0.0957516 0.164332 -0.981792 
-0.0702777 0.111497 -0.991333 
-0.0483282 0.0770648 -0.99592 
-0.0313797 0.0535678 -0.998158 
-0.0187171 0.0358613 -0.999259 
-0.00885406 0.0204157 -0.999828 
-0.00194963 0.0101335 -1.00002 
0.00280327 0.00307686 -1.00005 
0.00597439 -0.00152733 -1.00005 
0.00794752 -0.00438709 -1.00002 
0.00875875 -0.00640879 -1 
0.00854084 -0.00805028 -0.999994 
0.00769997 -0.0094085 -0.999988 
0.00666126 -0.0103865 -0.999986 
0.00567062 -0.0109787 -0.999985 
0.00479833 -0.011255 -0.999987 
0.00405729 -0.0112536 -0.999991 
0.0034385 -0.0109574 -1.00001 
0.00292647 -0.0104514 -1 
0.00250444 -0.0097009 -1.00001 
0.00214701 -0.00879703 -1.00002 
0.00183792 -0.00780284 -1.00003 
0.00156586 -0.00675567 -1.00004 
0.00133584 -0.00569798 -1.00004 
0.00114086 -0.00460254 -1.00005 
0.00097244 -0.00351754 -1.00007 
0.000831117 -0.00247067 -1.00006 
0.000708361 -0.00149316 -1.00007 
0.000595103 -0.000623505 -1.00006 
0.000479704 0.000108833 -1.00008 
0.000367051 0.000642426 -1.00006 
0.000223174 0.00100971 -1.00007 
6.81829e-05 0.00115223 -1.00003 
2.36081e-05 0.00131451 1.00003 
-8.76086e-05 0.00115675 1.00007 
-0.000262068 0.000746658 1.00007 
-0.000397804 0.000214394 1.00007 
-0.000541669 -0.000478859 1.00007 
-0.000650657 -0.00132203 1.00007 
-0.000916626 -0.00300908 1.00006 
-0.000957578 -0.00323061 1.00006 
-0.00113277 -0.0041495 1.00005 
-0.0013793 -0.00527538 1.00005 
-0.00165866 -0.00632415 1.00004 
-0.00197825 -0.00734881 1.00005 
-0.00230955 -0.00833173 1.00002 
-0.00268533 -0.00917495 1.00002 
-0.00313092 -0.0098696 1.00001 
-0.00365825 -0.0103475 1 
-0.00429478 -0.0105048 0.999998 
-0.00503671 -0.0103872 0.999996 
-0.00588999 -0.0100196 0.999995 
-0.00684908 -0.00939039 0.999994 
-0.00785532 -0.00845091 0.999996 
-0.0087425 -0.00723656 0.999999 
-0.00919744 -0.00571375 1.00001 
-0.0088826 -0.00399893 1.00002 
-0.00748603 -0.00185162 1.00004 
-0.00479605 0.00121748 1.00006 
-0.000350866 0.00608855 1.00005 
0.00623817 0.0131573 0.999966 
0.0161012 0.0224275 0.99969 
0.0301646 0.0373369 0.998917 
0.0477916 0.0562315 0.997337 
0.0697765 0.0803896 0.994385 
0.103275 0.0838857 0.991168 
0.139667 0.101117 0.985051 
0.175954 0.274965 0.945229 
0.195201 0.420628 0.886026 
0.141809 0.694631 0.70518 
0.179177 0.559434 0.809235 
0.0348699 0.925032 0.378441 
-0.0506327 0.856708 -0.513239 
-0.0852549 0.945116 -0.315044 
-0.184237 0.696135 -0.693663 
-0.211473 0.483808 -0.849267 
-0.232261 0.239075 -0.942798 
-0.17942 0.205254 -0.962151 
-0.136952 0.145501 -0.979879 
-0.100472 0.111717 -0.988696 
-0.0679999 0.0733828 -0.995039 
-0.0476464 0.0501431 -0.997666 
-0.0314262 0.037382 -0.998875 
-0.0181409 0.024918 -0.999584 
-0.00764314 0.0134286 -0.999964 
-0.000202342 0.00595579 -1.00005 
0.00436884 0.00117859 -1.00007 
0.0071824 -0.00208126 -1.00004 
0.0087132 -0.00418864 -1.00002 
0.00918407 -0.00576791 -0.999995 
0.00876851 -0.00714067 -1.00001 
0.00794122 -0.00837173 -0.999986 
0.00693147 -0.0093165 -1 
0.00600279 -0.00999588 -0.999984 
0.00514129 -0.0103396 -1.00001 
0.00440278 -0.0104753 -0.999988 
0.00375626 -0.0102853 -1 
0.00321268 -0.0098752 -0.999999 
0.00274853 -0.00919129 -1.00002 
0.00235384 -0.00834146 -1.00003 
0.00200749 -0.00740565 -1.00003 
0.00169807 -0.00641277 -1.00004 
0.0014211 -0.00536697 -1.00006 
0.00118169 -0.00432335 -1.00006 
0.000972512 -0.00328233 -1.00006 
0.000794232 -0.00227656 -1.00006 
0.000642032 -0.00133424 -1.00007 
0.000510439 -0.000495665 -1.00007 
0.000378377 0.000218335 -1.00007 
0.000257338 0.000751485 -1.00007 
0.000106781 0.0011284 -1.00007 
-2.31052e-05 0.00129348 -1.00003 
8.48739e-05 0.00143369 1.00003 
-2.88734e-05 0.00127005 1.00007 
-0.000177976 0.000809486 1.00007 
-0.000309404 0.000249435 1.00007 
-0.000440878 -0.000420181 1.00007 
-0.000563243 -0.00110188 1.00007 
-0.00072082 -0.00197322 1.00006 
-0.000953843 -0.00296372 1.00006 
-0.00116879 -0.00404616 1.00007 
-0.00144247 -0.00510308 1.00004 
-0.0017445 -0.00613064 1.00004 
-0.00206173 -0.00706081 1.00004 
-0.00239972 -0.00796198 1.00004 
-0.00279342 -0.0087826 1.00001 
-0.00323228 -0.00937177 1.00002 
-0.00376186 -0.00976829 0.999997 
-0.00436807 -0.00980483 1.00001 
-0.00509462 -0.0096112 0.999992 
-0.00586619 -0.00913501 1.00001 
-0.00670682 -0.00848819 0.999993 
-0.00750039 -0.00759 1.00002 
-0.00823345 -0.00655482 0.999998 
-0.00854585 -0.00532729 1.00001 
-0.00826669 -0.00398393 1.00002 
-0.00700298 -0.00243004 1.00004 
-0.00440751 -0.000215883 1.00006 
-3.77947e-05 0.00310375 1.00007 
0.00697224 0.00757931 1.00002 
0.0181241 0.0140326 0.999819 
0.0331536 0.0250328 0.999203 
0.0536823 0.0386311 0.997871 
0.0782638 0.0503221 0.995707 
0.112907 0.043625 0.992701 
0.152631 0.0519212 0.986966 
0.206604 0.216571 0.954177 
0.237065 0.316439 0.918515 
0.279287 0.249531 0.9273 
0.249868 0.436644 0.864196 
0.229272 0.60064 0.765873 
0.0271617 0.964445 0.262972 
-0.0829881 0.865383 -0.494281 
-0.236694 0.601715 -0.76249 
-0.2812 0.353462 -0.892294 
-0.238209 0.159636 -0.958016 
-0.183386 0.133675 -0.973948 
-0.13888 0.0885566 -0.986386 
-0.0982955 0.0685252 -0.992847 
-0.0717246 0.0407905 -0.996647 
-0.0498741 0.0261401 -0.998475 
-0.0321844 0.0209291 -0.999329 
-0.0184175 0.0148775 -0.999801 
-0.00761375 0.00730319 -1 
-0.000166339 0.0022403 -1.00007 
0.00433326 -0.000700392 -1.00005 
0.00689527 -0.00282693 -1.00004 
0.00820421 -0.00432915 -1.00002 
0.00852304 -0.00552044 -1.00002 
0.00819933 -0.0065871 -0.999997 
0.00752189 -0.00758295 -1.00002 
0.00674207 -0.00849473 -0.999992 
0.00591177 -0.00914114 -1.00002 
0.00515805 -0.00961349 -0.999992 
0.00443756 -0.00976897 -1.00001 
0.00382637 -0.00970497 -0.999998 
0.00328199 -0.00932772 -1.00002 
0.00282404 -0.00873931 -1.00002 
0.00242561 -0.00795247 -1.00003 
0.00207342 -0.00705658 -1.00004 
0.00175345 -0.00609238 -1.00004 
0.00146296 -0.00508397 -1.00005 
0.00120109 -0.00406969 -1.00006 
0.000968229 -0.00306839 -1.00005 
0.00075909 -0.00208214 -1.00006 
0.00057752 -0.00116411 -1.00007 
0.000418412 -0.000351319 -1.00008 
0.000276735 0.00033818 -1.00006 
0.000151678 0.000858397 -1.00007 
1.81338e-05 0.001235 -1.00007 
-0.000107718 0.0013912 -1.00003 
0.000124873 0.001557 1.00003 
1.52744e-05 0.00143449 1.00007 
-0.000129247 0.000990251 1.00007 
-0.000267213 0.000440976 1.00007 
-0.000411805 -0.000253282 1.00007 
-0.000570194 -0.0010151 1.00007 
-0.000761017 -0.00195348 1.00006 
-0.000972344 -0.00286668 1.00006 
-0.00120117 -0.00389633 1.00005 
-0.0014558 -0.00487746 1.00006 
-0.00173605 -0.00584184 1.00004 
-0.0020471 -0.00680023 1.00003 
-0.0023798 -0.00767355 1.00003 
-0.00274036 -0.00840583 1.00003 
-0.00316491 -0.00899136 1.00001 
-0.00364365 -0.00927758 1.00002 
-0.00422129 -0.00930329 0.999999 
-0.00485525 -0.00899928 1.00002 
-0.00554572 -0.00852295 0.999999 
-0.00620118 -0.00784536 1.00002 
-0.00679991 -0.00707964 1 
-0.00722676 -0.00623963 1.00003 
-0.0073498 -0.00540069 1.00002 
-0.00693349 -0.00459993 1.00003 
-0.00565105 -0.00377294 1.00004 
-0.00311743 -0.00262855 1.00006 
0.00125353 -0.000857777 1.00007 
0.00870867 0.00141672 1.00003 
0.0193902 0.00323703 0.999865 
0.0333588 0.00934508 0.999466 
0.0537116 0.015949 0.998492 
0.08145 0.0178067 0.996585 
0.126655 0.0068396 0.99197 
0.175012 -5.39409e-05 0.984631 
0.228523 0.156475 0.960917 
0.184436 0.121241 0.975379 
0.242298 0.0911432 0.965926 
0.31042 0.402061 0.861561 
0.218517 0.725363 0.653061 
0.0420897 0.974968 0.21982 
-0.139155 0.88657 -0.442254 
-0.302055 0.441809 -0.845181 
-0.197613 0.375419 -0.905454 
-0.236858 0.0938433 -0.966988 
-0.185624 0.0737077 -0.979893 
-0.134956 0.0400915 -0.990088 
-0.10007 0.0260094 -0.994694 
-0.0717044 0.00997426 -0.997434 
-0.0490752 0.00396431 -0.99885 
-0.032496 0.00502682 -0.999524 
-0.0188807 0.00415667 -0.999881 
-0.00875551 0.000684495 -1.00003 
-0.0016288 -0.00163573 -1.00007 
0.00298508 -0.00303463 -1.00007 
0.00558578 -0.00409787 -1.00004 
0.00692047 -0.00495044 -1.00003 
0.00733432 -0.00566429 -1.00002 
0.00721213 -0.00636108 -1.00002 
0.00680229 -0.00712629 -1.00001 
0.00622799 -0.00790721 -1.00001 
0.00558573 -0.00858089 -0.999998 
0.00491909 -0.00904823 -1.00001 
0.00427822 -0.00927658 -1.00001 
0.00370082 -0.0092382 -1.00001 
0.00320202 -0.00893606 -1.00002 
0.00277314 -0.00839828 -1.00001 
0.00239131 -0.00763956 -1.00004 
0.00206159 -0.0067923 -1.00004 
0.00175972 -0.00586686 -1.00003 
0.00147522 -0.00488411 -1.00005 