# vtk DataFile Version 3.0 
Exported using Morpho https://github.com/Morpho-lang/morpho 
ASCII 
DATASET UNSTRUCTURED_GRID 

POINTS 1978 float 
-8.48528 -2.82843 1.46123e-13 
-8.2713 -2.82843 1.684e-13 
-7.97245 -2.82843 1.12551e-13 
-7.72366 -2.82843 2.61095e-14 
-7.49769 -2.82843 -6.96496e-14 
-7.28149 -2.82843 4.83445e-14 
-7.05886 -2.82843 -1.28822e-13 
-6.74769 -2.82843 -8.07906e-14 
-6.54818 -2.82843 -5.24555e-14 
-6.34291 -2.82843 -5.76501e-14 
-6.12458 -2.82843 -5.86195e-14 
-5.91293 -2.82843 -8.5853e-14 
-5.70093 -2.82843 -7.46695e-14 
-5.48843 -2.82843 -1.03075e-13 
-5.2784 -2.82843 -1.22244e-13 
-5.06778 -2.82843 -1.21981e-13 
-4.85635 -2.82843 -1.22431e-13 
-4.64669 -2.82843 -1.28955e-13 
-4.43485 -2.82843 -2.30744e-13 
-4.22493 -2.82843 2.28018e-14 
-4.01628 -2.82843 2.3943e-13 
-3.8069 -2.82843 5.37646e-13 
-3.59605 -2.82843 7.074e-13 
-3.38672 -2.82843 6.00432e-13 
-3.17642 -2.82843 -6.97661e-13 
-2.96703 -2.82843 -2.94407e-12 
-2.76628 -2.82843 -5.98623e-12 
-2.56628 -2.82843 -1.1409e-11 
-2.33804 -2.82843 -5.60722e-12 
-2.11126 -2.82843 3.7299e-11 
-1.87456 -2.82843 1.96546e-10 
-1.64541 -2.82843 5.87323e-10 
-1.42532 -2.82843 1.61391e-09 
-1.24024 -2.82843 4.45754e-09 
-1.07285 -2.82843 9.39172e-09 
-0.920746 -2.82843 1.91514e-08 
-0.777537 -2.82843 2.8379e-08 
-0.665882 -2.82843 7.25642e-08 
-0.455469 -2.82842 3.69993e-07 
0.0684396 -2.82842 -1.1258e-07 
0.518515 -2.82843 -2.12169e-07 
0.711819 -2.82843 -3.29629e-08 
0.816748 -2.82843 -2.17346e-08 
0.917076 -2.82843 -1.58853e-08 
1.0711 -2.82843 -8.9931e-09 
1.23595 -2.82843 -3.29304e-09 
1.44668 -2.82843 -1.18106e-09 
1.663 -2.82843 -5.02511e-10 
1.88716 -2.82843 -1.58586e-10 
2.13266 -2.82843 -1.46916e-11 
2.37077 -2.82843 8.0506e-12 
2.56473 -2.82843 6.09558e-12 
2.76363 -2.82843 5.41298e-12 
2.97298 -2.82843 3.05299e-12 
3.18664 -2.82843 6.31737e-13 
3.39995 -2.82843 -4.68809e-13 
3.61446 -2.82843 -7.02476e-13 
3.82584 -2.82843 -4.91273e-13 
4.03542 -2.82843 -2.13482e-13 
4.2434 -2.82843 -8.00481e-14 
4.45211 -2.82843 1.58958e-13 
4.66192 -2.82843 1.7041e-13 
4.87273 -2.82843 1.66041e-13 
5.08335 -2.82843 1.48234e-13 
5.29521 -2.82843 1.23242e-13 
5.50719 -2.82843 9.5642e-14 
5.71984 -2.82843 8.63487e-14 
5.93444 -2.82843 7.86812e-14 
6.15034 -2.82843 6.8807e-14 
6.36589 -2.82843 5.71913e-14 
6.58529 -2.82843 5.82734e-14 
6.80902 -2.82843 9.07626e-14 
7.03504 -2.82843 8.34646e-14 
7.26402 -2.82843 2.20943e-14 
7.49952 -2.82843 3.42e-14 
7.7398 -2.82843 -6.57386e-14 
7.98848 -2.82843 -8.36423e-14 
8.22792 -2.82843 -1.2482e-13 
8.48528 -2.82843 -1.59175e-13 
-8.48528 -2.59957 -7.78633e-14 
-8.24356 -2.57364 2.96654e-17 
-8.02076 -2.64053 -3.43823e-18 
-7.74239 -2.61556 1.02868e-17 
-7.49748 -2.59503 2.41742e-17 
-7.27369 -2.58959 -1.90285e-17 
-7.05307 -2.57864 3.09512e-17 
-6.85311 -2.66565 9.29959e-17 
-6.61237 -2.56862 6.61984e-17 
-6.40809 -2.58247 3.98006e-17 
-6.19508 -2.59683 6.65939e-17 
-5.97703 -2.59602 7.52088e-17 
-5.76097 -2.59789 5.60739e-17 
-5.5448 -2.59998 3.33355e-17 
-5.32923 -2.59823 -1.40032e-17 
-5.1147 -2.59956 -7.09983e-17 
-4.89916 -2.60002 -8.7086e-17 
-4.68438 -2.59786 -9.0429e-17 
-4.47072 -2.60158 5.10941e-17 
-4.2545 -2.60079 3.25486e-16 
-4.03867 -2.60015 7.58037e-16 
-3.82203 -2.60065 1.41676e-15 
-3.60131 -2.59678 1.62147e-14 
-3.37984 -2.59611 1.95206e-14 
-3.15426 -2.59619 2.93913e-16 
-2.9281 -2.58797 -2.57844e-14 
-2.70332 -2.57726 4.77686e-14 
-2.46446 -2.58792 1.46837e-13 
-2.21825 -2.57373 3.28684e-13 
-1.9742 -2.57584 8.03898e-13 
-1.73204 -2.58212 2.09906e-12 
-1.50347 -2.58944 5.55499e-12 
-1.30187 -2.5959 1.0821e-11 
-1.12959 -2.63541 2.48284e-11 
-0.970917 -2.64998 3.91871e-11 
-0.825555 -2.69702 8.20241e-11 
-0.697794 -2.68604 7.35412e-11 
-0.575529 -2.76071 1.69435e-10 
-0.359889 -2.80564 -1.04164e-09 
0.0114444 -2.72079 4.93288e-11 
0.445695 -2.79874 2.48344e-10 
0.631042 -2.74787 -1.81583e-10 
0.752299 -2.68089 -1.1947e-10 
0.858241 -2.60907 -3.22929e-11 
0.98569 -2.66223 -3.3536e-11 
1.14328 -2.62015 -2.80812e-11 
1.33173 -2.62185 -1.48557e-11 
1.54762 -2.58535 -5.13738e-12 
1.77089 -2.57665 -1.75043e-12 
2.01938 -2.58974 -9.00178e-13 
2.2745 -2.59091 -3.43085e-13 
2.514 -2.5579 -9.73761e-14 
2.73292 -2.58691 -4.37341e-14 
2.95626 -2.59354 1.34574e-14 
3.184 -2.59285 1.69456e-14 
3.411 -2.60123 -2.09087e-14 
3.63152 -2.60044 -1.52728e-14 
3.8478 -2.60018 -1.25009e-15 
4.06051 -2.59872 -6.46696e-16 
4.27179 -2.59857 -2.67485e-16 
4.483 -2.59856 -3.81642e-17 
4.69428 -2.59859 7.87241e-17 
4.90556 -2.59778 9.66116e-17 
5.11776 -2.59873 6.10607e-17 
5.33003 -2.59821 1.1923e-17 
5.54306 -2.59808 -2.81581e-17 
5.75703 -2.59857 -5.46482e-17 
5.97165 -2.59757 -6.76159e-17 
6.18637 -2.59447 -6.94421e-17 
6.40354 -2.59527 -6.64942e-17 
6.62417 -2.59622 -5.64736e-17 
6.84663 -2.595 -4.08109e-17 
7.07215 -2.59513 -2.61313e-17 
7.3031 -2.59914 -1.6638e-17 
7.53892 -2.60152 -8.48504e-18 
7.78048 -2.60661 -4.23097e-18 
8.01747 -2.60483 -2.96699e-18 
8.26561 -2.61063 -1.95556e-17 
8.48528 -2.58114 1.02536e-13 
-8.48528 -2.37043 -1.23019e-13 
-8.27209 -2.31497 3.73095e-19 
-8.0464 -2.39588 2.74905e-18 
-7.81362 -2.42408 -2.04185e-18 
-7.59619 -2.17623 -2.78331e-17 
-7.55769 -2.38597 1.03929e-17 
-7.30383 -2.36301 3.9471e-18 
-7.05749 -2.35442 -2.2931e-17 
-6.80426 -2.43234 -2.09256e-18 
-6.5606 -2.32464 -2.31986e-17 
-6.3425 -2.34975 -1.88334e-17 
-6.1224 -2.36572 -1.10111e-17 
-5.90088 -2.3671 -5.05566e-17 
-5.67962 -2.3711 -4.19938e-17 
-5.46093 -2.37171 -5.54412e-17 
-5.24156 -2.37103 -6.40316e-17 
-5.02332 -2.37344 -7.17872e-17 
-4.80684 -2.37108 -6.52271e-17 
-4.59001 -2.37035 -2.64741e-17 
-4.37546 -2.37508 -8.52931e-18 
-4.15933 -2.37384 -1.04469e-17 
-3.94363 -2.37301 -2.53847e-17 
-3.72606 -2.37422 8.01425e-17 
-3.50509 -2.3698 2.78716e-16 
-3.28145 -2.36773 4.12628e-16 
-3.05573 -2.36369 -3.70968e-18 
-2.82538 -2.34638 -1.83908e-14 
-2.58101 -2.34894 -2.79577e-14 
-2.33556 -2.34262 6.05296e-14 
-2.08037 -2.33018 1.08661e-13 
-1.82693 -2.34025 1.20897e-13 
-1.5874 -2.35348 -7.25992e-14 
-1.36398 -2.36758 -1.1606e-13 
-1.16585 -2.41541 -8.75098e-13 
-1.01295 -2.46248 5.65314e-13 
-0.847138 -2.5432 -3.46939e-12 
-0.593304 -2.61986 6.18066e-11 
-0.384054 -2.674 -4.20179e-10 
-0.156861 -2.75412 3.21656e-10 
-0.0620345 -2.79147 2.25719e-10 
0.171321 -2.78703 -1.17046e-10 
0.56722 -2.6593 -1.08833e-10 
0.680878 -2.57138 1.99618e-11 
0.802173 -2.48341 -3.43193e-11 
0.98243 -2.47655 -7.26615e-12 
1.14277 -2.42041 1.89604e-12 
1.33908 -2.40607 -1.25339e-13 
1.54655 -2.3432 -1.05476e-12 
1.76641 -2.32546 -5.40996e-13 
1.99898 -2.35295 -6.19872e-14 
2.25436 -2.35323 -1.56175e-14 
2.49854 -2.32342 3.74984e-14 
2.74159 -2.3459 3.11139e-14 
2.97566 -2.36611 -6.21988e-16 
3.20619 -2.36966 -7.83546e-16 
3.42995 -2.37483 -4.75457e-16 
3.64934 -2.37314 -1.65694e-16 
3.8642 -2.37124 -3.80114e-17 
4.07685 -2.36914 -1.42274e-17 
4.28884 -2.36899 3.70856e-18 
4.50024 -2.3683 3.6917e-17 
4.71185 -2.36795 6.39771e-17 
4.92465 -2.36779 7.11298e-17 
5.13726 -2.36807 6.72047e-17 
5.35129 -2.36802 5.60969e-17 
5.56578 -2.36757 4.55748e-17 
5.77988 -2.36669 3.71068e-17 
5.99446 -2.36382 2.93583e-17 
6.21131 -2.36072 2.21172e-17 
6.43021 -2.36177 1.52095e-17 
6.64995 -2.36079 9.24332e-18 
6.87325 -2.36026 5.52585e-18 
7.10166 -2.36364 3.51528e-18 
7.3345 -2.3704 2.23098e-18 
7.57312 -2.37694 4.31728e-19 
7.80727 -2.37543 6.3066e-19 
8.04707 -2.3878 -5.3085e-18 
8.26876 -2.36034 -7.26835e-18 
8.48528 -2.3308 1.17562e-13 
-8.48528 -2.11624 -7.84545e-14 
-8.2738 -2.05251 -8.74031e-18 
-8.05849 -2.1538 1.13926e-17 
-7.82969 -2.19403 8.17551e-18 
-7.58108 -1.96365 -4.8989e-18 
-7.34009 -2.15121 2.17671e-17 
-7.08739 -2.14401 -8.70536e-20 
-6.81873 -2.22088 -3.68202e-17 
-6.57559 -2.11166 -3.22869e-17 
-6.33095 -2.11148 -2.08402e-17 
-6.11672 -2.13328 -5.45299e-17 
-5.89848 -2.13537 -3.26228e-17 
-5.67955 -2.14254 -4.99196e-17 
-5.46124 -2.14195 -5.79986e-17 
-5.24509 -2.14349 -5.54995e-17 
-5.02749 -2.14572 -4.95431e-17 
-4.81122 -2.14208 -4.26607e-17 
-4.59596 -2.14265 -2.4124e-17 
-4.37921 -2.14541 -3.11342e-18 
-4.16455 -2.14642 -1.07288e-17 
-3.9476 -2.14445 -6.2367e-17 
-3.73042 -2.14619 -8.98203e-17 
-3.51008 -2.14218 2.04338e-16 
-3.28655 -2.13766 7.93311e-16 
-3.0587 -2.13216 1.59068e-14 
-2.81962 -2.11871 1.39108e-14 
-2.57513 -2.11515 -1.19069e-14 
-2.32597 -2.10813 -3.71082e-14 
-2.08017 -2.09183 -2.80564e-14 
-1.83354 -2.1108 -2.00065e-14 
-1.58851 -2.11892 9.80336e-14 
-1.37764 -2.14846 4.14561e-13 
-1.17874 -2.20833 8.68638e-13 
-1.23268 -1.99105 1.65574e-12 
-1.01535 -2.24193 -6.8734e-12 
-0.88581 -2.37469 -5.18952e-12 
-0.715808 -2.54522 2.22605e-11 
-0.482702 -2.69696 2.07475e-10 
-0.0904658 -2.65589 4.82317e-10 
0.111469 -2.69005 5.38528e-11 
0.371919 -2.74928 -1.81815e-10 
0.473542 -2.64388 -1.08159e-10 
0.565193 -2.51634 -3.47997e-11 
0.822087 -2.34292 4.22383e-12 
0.952186 -2.29373 -1.22791e-11 
1.09999 -2.21584 -1.58402e-12 
1.28542 -2.19973 -1.56102e-12 
1.47919 -2.12378 4.67681e-13 
1.6996 -2.08347 4.58463e-13 
1.9347 -2.097 6.39091e-14 
2.1713 -2.12411 1.51555e-14 
2.41546 -2.09334 1.40166e-14 
2.6674 -2.1091 -2.57182e-14 
2.90293 -2.13116 -7.42438e-16 
3.13168 -2.14069 -1.18658e-15 
3.35772 -2.14558 -3.47501e-16 
3.57947 -2.14536 -1.3499e-17 
3.79841 -2.14172 1.08292e-16 
4.01385 -2.13961 7.06756e-17 
4.22862 -2.13949 1.67208e-17 
4.44275 -2.13825 1.12625e-17 
4.65696 -2.13774 2.40813e-17 
4.8719 -2.13827 4.13161e-17 
5.08808 -2.13732 6.49968e-17 
5.30444 -2.13851 4.76067e-17 
5.52257 -2.13763 5.69189e-17 
5.74099 -2.13464 5.02158e-17 
5.95845 -2.13135 1.71294e-16 
6.17733 -2.12857 3.98532e-17 
6.39932 -2.12797 2.28798e-17 
6.62189 -2.12475 3.53379e-17 
6.84533 -2.12535 3.18227e-17 
7.07299 -2.13087 5.10504e-19 
7.30571 -2.13939 4.38965e-18 
7.54225 -2.14962 -7.73575e-18 
7.7823 -2.14434 1.28394e-17 
8.02108 -2.15589 -5.00169e-18 
8.25002 -2.11623 4.51238e-18 
8.48528 -2.09907 1.00542e-13 
-8.48528 -1.86014 -2.63322e-14 
-8.26996 -1.79064 -7.94131e-18 
-8.05899 -1.90521 -3.71531e-18 
[...]
POINT_DATA 1978 
VECTORS vectors float
-0.000136231 0.00166156 0.999999 
4.62561e-05 0.00133455 0.999999 
4.93574e-05 0.000635659 1 
6.7293e-05 -0.000172602 1 
6.24166e-05 -0.000958547 1 
8.06271e-05 -0.00192935 0.999998 
9.0729e-05 -0.00300549 0.999995 
0.000111566 -0.0047479 0.999989 
0.000109275 -0.00591569 0.999983 
8.31245e-05 -0.00710435 0.999975 
7.76294e-05 -0.00839621 0.999965 
6.82538e-05 -0.00960011 0.999954 
5.90538e-05 -0.0107993 0.999942 
4.70774e-05 -0.0119922 0.999928 
2.3236e-05 -0.0131214 0.999914 
-1.37879e-05 -0.0140961 0.999901 
-5.69744e-05 -0.0148805 0.999889 
-0.00011572 -0.0153936 0.999882 
-0.000191462 -0.0155777 0.999879 
-0.000280919 -0.0153545 0.999882 
-0.000378606 -0.0146531 0.999893 
-0.000481799 -0.0133263 0.999911 
-0.000601012 -0.0111352 0.999938 
-0.00069153 -0.00781392 0.999969 
-0.000863006 -0.00264644 0.999996 
-0.0011215 0.0052416 0.999986 
-0.00130919 0.0150006 0.999887 
-0.00147532 0.0279536 0.999608 
-0.0015938 0.0470984 0.998889 
-0.00179507 0.0710761 0.997469 
-0.00203693 0.103644 0.994612 
-0.00276143 0.146349 0.989229 
-0.00488622 0.205505 0.978644 
-0.0081835 0.279422 0.960133 
-0.0108855 0.362666 0.931856 
-0.0132893 0.456774 0.889484 
-0.0165415 0.550834 0.834451 
-0.0167733 0.654581 0.755806 
-0.00681543 0.820456 0.571669 
-0.0143488 0.991924 -0.126019 
0.0125924 0.782068 -0.623066 
0.0217891 0.634384 -0.772711 
0.0253091 0.535639 -0.844068 
0.0179992 0.469245 -0.882885 
0.0120607 0.372127 -0.928104 
0.00848861 0.278378 -0.960434 
0.00418758 0.198203 -0.980152 
0.00300835 0.14268 -0.989764 
0.00211895 0.101414 -0.994842 
0.00173504 0.0679944 -0.997684 
0.00163297 0.0439225 -0.999034 
0.00163489 0.0282168 -0.9996 
0.00136014 0.015424 -0.99988 
0.000997881 0.00441806 -0.99999 
0.000815737 -0.00311321 -0.999995 
0.000701876 -0.0080851 -0.999967 
0.000582654 -0.0114513 -0.999934 
0.000466491 -0.0135341 -0.999908 
0.000365539 -0.014736 -0.999891 
0.000270311 -0.0153519 -0.999882 
0.000184538 -0.015513 -0.99988 
0.000111423 -0.0152937 -0.999883 
5.23432e-05 -0.0147393 -0.999891 
8.96914e-06 -0.0139306 -0.999903 
-2.1453e-05 -0.0129424 -0.999916 
-4.27305e-05 -0.0118452 -0.99993 
-5.77441e-05 -0.0106823 -0.999943 
-6.80994e-05 -0.00947477 -0.999955 
-7.89266e-05 -0.00823471 -0.999966 
-8.81734e-05 -0.00696714 -0.999976 
-8.99442e-05 -0.00566855 -0.999984 
-8.72572e-05 -0.00438195 -0.99999 
-8.1883e-05 -0.00315022 -0.999995 
-7.27365e-05 -0.00200702 -0.999998 
-6.33106e-05 -0.000961896 -1 
-5.43168e-05 -3.84847e-05 -1 
-2.78719e-05 0.000733878 -1 
-4.6331e-05 0.00126401 -0.999999 
0.000132185 0.001678 -0.999999 
-0.000538762 0.0012527 0.999999 
-0.000231645 0.000965461 1 
2.77952e-05 0.000643291 1 
3.25459e-05 -0.000186875 1 
-2.45156e-05 -0.00108683 0.999999 
-1.63149e-05 -0.00200721 0.999998 
-4.45178e-05 -0.00297352 0.999996 
0.000198217 -0.00403791 0.999992 
-0.000105964 -0.00533396 0.999986 
-0.000153223 -0.00647304 0.999979 
-0.000192294 -0.00768556 0.99997 
-0.000318392 -0.00889566 0.99996 
-0.000443956 -0.0100713 0.999949 
-0.000594867 -0.0112103 0.999937 
-0.000815544 -0.0122592 0.999925 
-0.00109962 -0.0131612 0.999913 
-0.00146637 -0.0138463 0.999903 
-0.00195273 -0.0142517 0.999897 
-0.00253387 -0.0143861 0.999893 
-0.0032533 -0.014116 0.999895 
-0.00401081 -0.0133517 0.999903 
-0.00470485 -0.01194 0.999918 
-0.00522584 -0.00963916 0.99994 
-0.00542769 -0.00609075 0.999967 
-0.00521879 -0.000746747 0.999986 
-0.00474157 0.00758885 0.99996 
-0.00407787 0.0192705 0.999806 
-0.00332889 0.0358798 0.999351 
-0.000564388 0.058334 0.998297 
0.00283918 0.0877794 0.996136 
0.00664531 0.128825 0.991645 
0.0078775 0.182138 0.983242 
0.0131884 0.247138 0.968891 
0.015766 0.327797 0.944617 
0.0192724 0.414285 0.909943 
0.0152741 0.52674 0.849889 
0.0315481 0.610322 0.791525 
0.00528978 0.718728 0.695272 
0.00717916 0.8825 0.470258 
-0.0289075 0.99844 -0.0477738 
-0.00389842 0.833622 -0.552322 
0.0127054 0.683447 -0.72989 
-0.0128525 0.570169 -0.821427 
-0.0296992 0.490069 -0.871178 
-0.0116286 0.417183 -0.908748 
-0.0101288 0.325936 -0.945338 
-0.00460642 0.239761 -0.970821 
-0.00698911 0.170247 -0.985377 
-0.00530014 0.120589 -0.992688 
-0.000818625 0.0812938 -0.99669 
0.00181879 0.0524121 -0.998624 
0.00258573 0.0317958 -0.999491 
0.00409827 0.0167934 -0.999851 
0.004765 0.00561809 -0.999973 
0.00514391 -0.00185124 -0.999985 
0.00535165 -0.00679232 -0.999963 
0.00517802 -0.0100564 -0.999936 
0.00464857 -0.0121728 -0.999915 
0.00395861 -0.0134351 -0.999902 
0.00321438 -0.014106 -0.999895 
0.00252566 -0.0143285 -0.999894 
0.00193928 -0.0141903 -0.999897 
0.00147154 -0.0137486 -0.999904 
0.00110156 -0.0130639 -0.999914 
0.000828144 -0.0121859 -0.999925 
0.000620449 -0.0111729 -0.999937 
0.000454052 -0.0100726 -0.999949 
0.00032017 -0.00891762 -0.99996 
0.000213042 -0.00773072 -0.99997 
0.000117503 -0.00651939 -0.999979 
4.98534e-05 -0.00529016 -0.999986 
1.74229e-05 -0.00408239 -0.999992 
6.21418e-06 -0.00292378 -0.999996 
-3.74183e-06 -0.00183772 -0.999998 
-3.76281e-06 -0.000858185 -1 
3.18346e-05 -1.10684e-05 -1 
0.000123911 0.000619474 -1 
0.000234562 0.00107664 -0.999999 
0.000551743 0.00123624 -0.999999 
-0.000478554 0.000909594 0.999999 
-0.000353254 0.000827438 1 
-0.000293716 0.000537334 1 
-0.000237818 3.37331e-05 1 
-0.000408342 -0.000620978 1 
-0.00027917 -0.000784728 1 
-0.000329638 -0.00179867 0.999998 
-0.000373309 -0.00296802 0.999996 
-0.000330196 -0.00426191 0.999991 
-0.000615644 -0.00539364 0.999985 
-0.000683988 -0.00657935 0.999978 
-0.000795593 -0.00777164 0.99997 
-0.000991371 -0.00892869 0.99996 
-0.00119839 -0.0100661 0.999949 
-0.00145685 -0.0111032 0.999937 
-0.001794 -0.0120058 0.999926 
-0.00221558 -0.0127035 0.999917 
-0.00275556 -0.0130869 0.999911 
-0.00343215 -0.0132153 0.999907 
-0.00420571 -0.0130745 0.999906 
-0.00511009 -0.0125023 0.999909 
-0.00597766 -0.0113758 0.999917 
-0.00660585 -0.00954396 0.999933 
-0.0067644 -0.00686876 0.999954 
-0.00619578 -0.0030655 0.999976 
-0.00482814 0.0025433 0.999985 
-0.00275772 0.0110419 0.999935 
-0.00022788 0.0242069 0.999707 
0.00344953 0.0420123 0.999111 
0.0103416 0.0663696 0.997742 
0.0193981 0.100095 0.994789 
0.030073 0.146134 0.988808 
0.0431044 0.202908 0.978249 
0.0564965 0.279125 0.958591 
0.0741432 0.359687 0.930123 
0.0632095 0.472177 0.879235 
0.0791904 0.671137 0.737092 
0.0683509 0.828343 0.556036 
-0.0050352 0.98843 0.151593 
-0.00912618 0.997559 0.069223 
-0.0239937 0.963925 -0.26509 
-0.0313471 0.7115 -0.701987 
-0.065535 0.636101 -0.768818 
-0.0824159 0.506267 -0.85843 
-0.0619432 0.387702 -0.919701 
-0.053345 0.291822 -0.954984 
-0.0389818 0.216624 -0.975477 
-0.0316633 0.15585 -0.987273 
-0.0224617 0.110481 -0.993624 
-0.0122666 0.0771159 -0.996947 
-0.00526515 0.0496679 -0.998752 
-0.00167466 0.0290412 -0.999577 
0.00189276 0.0149154 -0.999887 
0.00395252 0.0047799 -0.999981 
0.00551737 -0.00179016 -0.999983 
0.00647884 -0.00601958 -0.999961 
0.00669632 -0.00887403 -0.999938 
0.0062788 -0.0108329 -0.999922 
0.00549936 -0.0121102 -0.999912 
0.00460909 -0.0128441 -0.999907 
0.00377253 -0.0131537 -0.999906 
0.00305915 -0.0131296 -0.999909 
0.00247411 -0.0128234 -0.999915 
0.00201086 -0.0122693 -0.999923 
0.00164468 -0.0115007 -0.999933 
0.00135591 -0.0105686 -0.999943 
0.00112111 -0.00953297 -0.999954 
0.000926262 -0.00843226 -0.999964 
0.000756539 -0.00729072 -0.999973 
0.000606387 -0.00612928 -0.999981 
0.000494107 -0.00496839 -0.999988 
0.000410415 -0.00382213 -0.999993 
0.00034603 -0.00271383 -0.999996 
0.000296666 -0.00167892 -0.999999 
0.000259471 -0.000749805 -1 
0.000257645 9.06215e-07 -1 
0.000299778 0.000590693 -1 
0.000358242 0.00087903 -1 
0.000454346 0.000897501 -1 
-0.000239685 0.000872833 1 
-0.000273939 0.000874773 1 
-0.000325751 0.000549571 1 
-0.000344727 5.1958e-05 1 
-0.000545727 -0.000585325 1 
-0.000519246 -0.001556 0.999999 
-0.000619065 -0.00268526 0.999996 
-0.000659841 -0.0040089 0.999992 
-0.000945306 -0.00512654 0.999986 
-0.00113615 -0.00635828 0.999979 
-0.00130227 -0.00746048 0.999971 
-0.0015285 -0.00855225 0.999962 
-0.00179766 -0.00960281 0.999952 
-0.00212204 -0.0105466 0.999942 
-0.00250821 -0.0113319 0.999933 
-0.00298864 -0.0118917 0.999925 
-0.00361116 -0.0121646 0.99992 
-0.00434584 -0.0121541 0.999917 
-0.00521706 -0.0118805 0.999916 
-0.00618383 -0.0112469 0.999918 
-0.00711835 -0.0100898 0.999924 
-0.00768262 -0.00838789 0.999935 
-0.00757686 -0.00604079 0.999953 
-0.00654492 -0.00288672 0.999974 
-0.00446725 0.00172883 0.999989 
-0.00133368 0.00874315 0.999961 
0.00302673 0.0198663 0.999798 
0.00945673 0.0357236 0.999317 
0.0192365 0.0559336 0.998249 
0.0317612 0.0854495 0.995836 
0.047333 0.123752 0.991184 
0.0656465 0.173577 0.98263 
0.0921105 0.242544 0.965758 
0.0970997 0.175132 0.979745 
0.121143 0.306207 0.944226 
0.117517 0.409807 0.904571 
0.103329 0.564192 0.819152 
0.0365768 0.787723 0.614943 
0.00292317 0.987808 0.155649 
-0.048001 0.980192 -0.192142 
-0.0237394 0.862365 -0.50573 
-0.069487 0.767966 -0.636711 
-0.11856 0.655595 -0.745747 
-0.137703 0.440722 -0.887019 
-0.11125 0.362007 -0.925513 
-0.102102 0.276763 -0.955499 
-0.0729403 0.208357 -0.975329 
-0.0576501 0.143449 -0.987977 
-0.0410814 0.100287 -0.99411 
-0.0259916 0.071227 -0.997121 
-0.0145788 0.0487278 -0.998706 
-0.00753822 0.0289454 -0.999553 
-0.00149951 0.0151523 -0.999884 
0.0022871 0.00595713 -0.99998 
0.00500932 -0.00036243 -0.999987 
0.00680517 -0.00435475 -0.999967 
0.00764472 -0.00702631 -0.999946 
0.00757544 -0.00898873 -0.999931 
0.00690155 -0.0104261 -0.999922 
0.00595003 -0.0114027 -0.999917 
0.00500334 -0.0119415 -0.999916 
0.00416525 -0.0121316 -0.999918 
0.00346386 -0.0120359 -0.999922 
0.00289406 -0.0116611 -0.999928 
0.00242915 -0.0110575 -0.999936 
0.00205475 -0.0102375 -0.999946 
0.00174648 -0.0092785 -0.999955 
0.00148774 -0.00823889 -0.999965 
0.00126317 -0.00715291 -0.999974 
0.00106688 -0.00604168 -0.999981 
0.000909751 -0.00491522 -0.999988 
0.000773985 -0.00380569 -0.999992 
0.000652532 -0.00273027 -0.999996 
0.00054602 -0.00171869 -0.999998 
0.000452021 -0.000817905 -1 
0.000379183 -5.86921e-05 -1 
0.000326561 0.000507896 -1 
0.000297124 0.000843073 -1 
0.000245084 0.000873731 -1 
-6.5908e-05 0.0010812 0.999999 
-0.000176906 0.00103024 0.999999 
-0.000330684 0.000669937 1 
-0.000435442 0.000151615 1 
-0.000680817 -0.00148951 0.999999 
-0.000802319 -0.0024916 0.999997 
-0.000769418 -0.00214896 0.999997 
-0.000887442 -0.00375552 0.999993 
-0.00111254 -0.0045301 0.999989 
-0.00130443 -0.00566999 0.999983 
-0.00156041 -0.00677464 0.999976 
-0.00180887 -0.00779945 0.999968 
-0.00210154 -0.00881015 0.999959 
-0.00246215 -0.00971456 0.99995 
-0.00288151 -0.0104629 0.999941 
-0.00338219 -0.0110048 0.999934 
-0.00400997 -0.0112377 0.999929 
-0.00475815 -0.011188 0.999926 
-0.00562455 -0.0108935 0.999925 
-0.00661274 -0.0102865 0.999925 
-0.00760466 -0.00931426 0.999928 
-0.0083865 -0.00788435 0.999934 
-0.00856275 -0.00607343 0.999945 
-0.00780615 -0.00379944 0.999962 
-0.0058712 -0.000662336 0.999983 
-0.00267493 0.00410746 0.999988 
0.0021925 0.0117034 0.999929 
0.00915176 0.0225821 0.999703 
0.0190047 0.0363341 0.999159 
0.0324067 0.0570197 0.997847 
0.0487172 0.0836928 0.9953 
0.0706513 0.118034 0.990493 
0.104408 0.127984 0.986265 
0.150373 0.16795 0.974259 
0.136159 0.220296 0.965883 
0.169992 0.352091 0.920399 
0.140094 0.489241 0.860823 
0.105272 0.861764 0.496267 
0.0714899 0.819391 0.568759 
-0.0412863 0.995068 -0.0901982 
-0.0529312 0.923392 -0.38019 
-0.132661 0.778853 -0.613016 
-0.145956 0.561184 -0.814721 
-0.207315 0.364085 -0.907999 
-0.166468 0.298829 -0.939676 
-0.130102 0.217216 -0.967415 
-0.0954643 0.164475 -0.981751 
-0.0701976 0.111577 -0.991273 
-0.048175 0.077237 -0.995848 
-0.0310515 0.0537498 -0.998072 
-0.0183577 0.0361502 -0.999178 
-0.00865446 0.0206204 -0.99975 
-0.0019279 0.0104613 -0.999943 
0.00272577 0.00340491 -0.999991 
0.00583807 -0.00129685 -0.999982 
0.00774019 -0.00427116 -0.999961 
0.00853119 -0.0063507 -0.999943 
0.00835322 -0.00799214 -0.999933 
0.00757511 -0.00932759 -0.999928 
0.00657932 -0.0102941 -0.999925 
0.00561206 -0.0108887 -0.999925 
0.00475231 -0.0111628 -0.999926 
0.0040188 -0.0111624 -0.99993 
0.00340348 -0.0108664 -0.999935 
0.00289744 -0.0103766 -0.999942 
0.00247478 -0.00962852 -0.999951 
0.00212026 -0.00873429 -0.99996 
0.00181327 -0.00775099 -0.999968 
0.00154329 -0.00671284 -0.999976 
0.00131323 -0.00565494 -0.999983 
0.00111896 -0.0045729 -0.999989 
0.000948871 -0.00349666 -0.999993 
0.000805161 -0.00246096 -0.999997 
0.000680185 -0.00149297 -0.999999 
0.000566795 -0.000633846 -1 
0.000453866 9.02439e-05 -1 
0.000349035 0.000617377 -1 
0.000215088 0.000974983 -1 
6.9253e-05 0.00107387 -0.999999 
2.25564e-05 0.00123629 0.999999 
-9.21281e-05 0.0011255 0.999999 
-0.000260007 0.000721152 1 
-0.000392318 0.000196178 1 
-0.000529575 -0.000493914 1 
-0.000643691 -0.00130925 0.999999 
-0.000917928 -0.00299225 0.999995 
-0.000941428 -0.00321826 0.999994 
-0.00112703 -0.00412544 0.999991 
-0.00136943 -0.00524176 0.999985 
-0.00164522 -0.00628692 0.999979 
-0.00196041 -0.00730392 0.999971 
-0.00228753 -0.00827712 0.999963 
-0.00265945 -0.00910853 0.999955 
-0.00310165 -0.009791 0.999947 
-0.00362463 -0.0102625 0.999941 
-0.00425293 -0.0104209 0.999937 
-0.00498586 -0.0103103 0.999934 
-0.00582593 -0.00994902 0.999934 
-0.00676213 -0.00932521 0.999934 
-0.00772702 -0.00839606 0.999935 
-0.00855276 -0.00719857 0.999938 
-0.0089409 -0.00569566 0.999944 
-0.00857385 -0.00397213 0.999955 
-0.00714446 -0.00176934 0.999973 
-0.00443613 0.00137961 0.999989 
1.35752e-06 0.00631871 0.99998 
0.00663327 0.0134166 0.999888 
0.0164088 0.0226272 0.999609 
0.03027 0.0374026 0.998842 
0.0479701 0.0564442 0.997253 
0.0706188 0.080526 0.994248 
0.103241 0.0832593 0.991166 
0.140032 0.101177 0.984964 
0.176304 0.27445 0.945301 
0.195879 0.418575 0.886807 
0.142848 0.693822 0.705836 
0.177356 0.563461 0.806881 
0.0256991 0.924602 0.380067 
-0.0490431 0.857277 -0.512514 
-0.0854903 0.944778 -0.316365 
-0.185604 0.691338 -0.698286 
-0.21118 0.481131 -0.850833 
-0.231553 0.239261 -0.942941 
-0.180055 0.204612 -0.96214 
-0.136814 0.145451 -0.97986 
-0.100587 0.111342 -0.988679 
-0.0687432 0.0733689 -0.994933 
-0.0481223 0.0501055 -0.997584 
-0.0318034 0.0375993 -0.998787 
-0.0183062 0.0250937 -0.999518 
-0.00796109 0.0137153 -0.999874 
-0.000625408 0.00618215 -0.999981 
0.00398133 0.00136282 -0.999991 
0.00683326 -0.00196613 -0.999975 
0.00841008 -0.00414723 -0.999956 
0.00891215 -0.00575482 -0.999944 
0.00857865 -0.00712402 -0.999938 
0.00780335 -0.00831749 -0.999935 
0.00684799 -0.00925816 -0.999934 
0.00593188 -0.0099127 -0.999933 
0.00508662 -0.0102634 -0.999934 
0.004359 -0.0103933 -0.999937 
0.00372046 -0.0102049 -0.999941 
0.00317978 -0.00979038 -0.999947 
0.0027219 -0.00912197 -0.999955 
0.00232963 -0.00827962 -0.999963 
0.00199017 -0.007365 -0.999971 
0.0016836 -0.00637215 -0.999978 
0.00141214 -0.00533943 -0.999985 
0.00117442 -0.00429548 -0.99999 
0.000969349 -0.00326912 -0.999994 
0.000791418 -0.00226913 -0.999997 
0.000639343 -0.00133547 -0.999999 
0.000506476 -0.000504792 -1 
0.000375605 0.000199424 -1 
0.000255469 0.000725842 -1 
0.000108187 0.00109576 -0.999999 
-2.176e-05 0.00121504 -0.999999 
8.38519e-05 0.00135813 0.999999 
-3.2113e-05 0.00124124 0.999999 
-0.00018396 0.000788343 1 
-0.000315444 0.000231566 1 
-0.000448882 -0.000429592 1 
-0.000568537 -0.00111123 0.999999 
-0.000725605 -0.00196766 0.999998 
-0.000950141 -0.00295132 0.999995 
-0.00116698 -0.00402935 0.999991 
-0.00143264 -0.00507135 0.999986 
-0.00173101 -0.00609428 0.99998 
-0.00204412 -0.00701729 0.999973 
-0.00237937 -0.0079089 0.999966 
-0.00277044 -0.00871908 0.999958 
-0.0032067 -0.00929907 0.999952 
-0.00373214 -0.00968931 0.999946 
-0.00433438 -0.00973619 0.999943 
-0.00503942 -0.00953133 0.999942 
-0.00581081 -0.00908808 0.999942 
-0.00663451 -0.00844297 0.999942 
-0.00740327 -0.0075553 0.999944 
-0.0080862 -0.00653067 0.999946 
-0.00835903 -0.00532766 0.999951 
-0.00802707 -0.00399194 0.99996 
-0.0066997 -0.00241116 0.999975 
-0.00404518 -0.000158004 0.999992 
0.000395994 0.00320936 0.999995 
0.00743389 0.00770765 0.999943 
0.0185591 0.0141799 0.999727 
0.0337066 0.0251557 0.999115 
0.0539585 0.0386546 0.997795 
0.07852 0.0499348 0.995661 
0.112817 0.0432976 0.992672 
0.15256 0.0516972 0.986941 
0.205079 0.21415 0.95503 
0.23908 0.312836 0.919225 
0.276946 0.251415 0.927411 
0.247144 0.438259 0.864204 
0.230993 0.598206 0.767328 
0.0318611 0.957381 0.287067 
-0.0831848 0.866604 -0.492014 
-0.237285 0.603554 -0.761195 
-0.282916 0.352608 -0.891979 
-0.237347 0.159567 -0.95823 
-0.183316 0.133518 -0.973945 
-0.138899 0.0882008 -0.986371 
-0.0988334 0.0682215 -0.992763 
-0.0720593 0.0408713 -0.996563 
-0.0501426 0.0262788 -0.998396 
-0.0325062 0.0209598 -0.999252 
-0.018785 0.0150345 -0.999711 
-0.0080898 0.00746837 -0.999939 
-0.000613297 0.0023606 -0.999997 
0.00395271 -0.000625471 -0.999992 
0.00659815 -0.00279598 -0.999974 
0.00795946 -0.00432562 -0.999959 
0.00833828 -0.00552761 -0.99995 
0.0080504 -0.00657652 -0.999946 
0.00743431 -0.00757212 -0.999944 
0.00666346 -0.0084402 -0.999942 
0.00585597 -0.00908804 -0.999942 
0.00511054 -0.00954519 -0.999941 
0.00440371 -0.00970632 -0.999943 
0.00379237 -0.00962248 -0.999947 
0.00325721 -0.00926391 -0.999952 
0.00280117 -0.00867636 -0.999958 
0.00240549 -0.0078995 -0.999966 
0.00205467 -0.00700902 -0.999973 
0.00174009 -0.00605881 -0.99998 
0.00145305 -0.00505684 -0.999986 
0.00119615 -0.00405103 -0.999991 
0.000965315 -0.00305096 -0.999995 
0.000760543 -0.00207758 -0.999998 
0.000581899 -0.00116893 -0.999999 
0.000425135 -0.00036282 -1 
0.000283284 0.000321412 -1 
0.000157792 0.00083466 -1 
2.11204e-05 0.00120547 -0.999999 
-0.00010739 0.0013165 -0.999999 
0.000126264 0.00147667 0.999999 
1.63147e-05 0.00140499 0.999999 
-0.000130873 0.000967597 1 
-0.000268179 0.000422783 1 
-0.000412906 -0.000265957 1 
-0.000568118 -0.00102188 0.999999 
-0.000756034 -0.00194979 0.999998 
-0.000962207 -0.0028554 0.999995 
-0.00118952 -0.003872 0.999992 
-0.0014445 -0.00485884 0.999987 
-0.00172021 -0.0058099 0.999982 
-0.00202825 -0.0067582 0.999975 
-0.00235831 -0.00762027 0.999968 
-0.00271825 -0.00834463 0.999962 
-0.00314089 -0.00891968 0.999955 
-0.00361693 -0.00920124 0.999951 
-0.00418574 -0.00922383 0.999949 
-0.00482008 -0.00895235 0.999948 
-0.00548988 -0.00846772 0.999949 
-0.0061394 -0.00780804 0.999951 
-0.00672622 -0.00705596 0.999953 
-0.00714283 -0.00623671 0.999955 
-0.00723285 -0.00540526 0.999959 
-0.00678239 -0.00459441 0.999966 
-0.00546078 -0.00374444 0.999978 
-0.00287843 -0.00259611 0.999993 
0.00153155 -0.000834592 0.999999 
0.00898965 0.00146158 0.999959 
0.0195696 0.00333889 0.999803 
0.0336272 0.00950563 0.999389 
0.0538762 0.0157173 0.998424 
0.081865 0.0186213 0.996469 
0.126684 0.0073392 0.991916 
0.173146 -0.000865222 0.984896 
0.230879 0.155488 0.960478 
0.183458 0.120558 0.975607 
0.241419 0.0900893 0.96623 
0.313036 0.398731 0.861987 
0.218065 0.723464 0.655018 
0.0400844 0.974788 0.219506 
-0.141323 0.882272 -0.449027 
-0.302695 0.441598 -0.844611 
-0.197406 0.372791 -0.906674 
-0.236299 0.0929819 -0.967221 
-0.184906 0.0737707 -0.979984 
-0.134709 0.0401037 -0.990073 
-0.100258 0.0260725 -0.99462 
-0.0717537 0.00999858 -0.997372 
-0.0491514 0.00402722 -0.998783 
-0.032581 0.00505684 -0.999456 
-0.0191007 0.00427724 -0.999808 
-0.00900214 0.000747151 -0.999959 
-0.00187299 -0.0015739 -0.999997 
0.00276742 -0.00301179 -0.999992 
0.00540102 -0.00408463 -0.999977 
0.0067656 -0.00493268 -0.999965 
0.00721666 -0.00565929 -0.999958 
0.00712608 -0.00636146 -0.999954 
0.00672359 -0.00710307 -0.999952 
0.00617212 -0.00787678 -0.99995 
0.0055281 -0.00852211 -0.999948 
0.00487573 -0.00898403 -0.999948 
0.00423948 -0.00919869 -0.999949 
0.00367488 -0.00917371 -0.999951 
0.00317478 -0.00886041 -0.999956 
0.00275124 -0.00833732 -0.999961 
0.00237288 -0.0075951 -0.999968 
0.00204312 -0.00675138 -0.999975 
0.0017433 -0.00583405 -0.999981 