# vtk DataFile Version 3.0 
Exported using Morpho https://github.com/Morpho-lang/morpho 
ASCII 
DATASET UNSTRUCTURED_GRID 

POINTS 1978 float 
-8.48956 -2.83585 8.31348e-06 
-8.26661 -2.8319 9.33431e-06 
-7.95778 -2.84058 6.62259e-06 
-7.71212 -2.83876 1.57572e-06 
-7.48381 -2.83785 -4.26466e-06 
-7.25963 -2.83673 3.10376e-06 
-7.07594 -2.84076 -7.60839e-06 
-6.74969 -2.83841 -4.6179e-06 
-6.54981 -2.8374 -2.33295e-06 
-6.3448 -2.83348 -2.32617e-06 
-6.125 -2.83469 -1.68427e-06 
-5.9092 -2.83404 -2.56947e-06 
-5.69764 -2.83262 -8.32217e-07 
-5.4833 -2.83207 -1.14753e-06 
-5.26924 -2.8307 -7.90348e-07 
-5.05674 -2.83132 3.68595e-07 
-4.83943 -2.83156 8.36158e-07 
-4.64287 -2.83664 -3.97795e-07 
-4.44857 -2.83428 -1.09262e-05 
-4.23753 -2.83338 -5.2856e-06 
-4.02318 -2.8302 -8.31576e-06 
-3.80475 -2.82931 -1.18804e-05 
-3.58593 -2.83354 -2.0778e-05 
-3.37244 -2.83357 -2.63126e-05 
-3.16263 -2.83642 -5.05795e-05 
-2.95107 -2.83746 -7.50686e-05 
-2.73257 -2.8367 -8.97484e-05 
-2.50993 -2.83393 -0.000155165 
-2.32424 -2.84346 -0.000144709 
-2.12431 -2.82551 -0.000249179 
-1.90584 -2.81756 -3.95e-05 
-1.68801 -2.81466 0.00060697 
-1.44893 -2.80762 0.00299353 
-1.2879 -2.83268 0.0050691 
-1.09311 -2.80975 0.00747853 
-0.92738 -2.80757 0.00877875 
-0.795994 -2.81451 0.0119339 
-0.668699 -2.80653 0.0168432 
-0.429972 -2.8109 0.0616224 
0.0598047 -2.82503 -0.0385809 
0.468919 -2.82819 -0.0681985 
0.57047 -2.80583 -0.0143034 
0.786689 -2.83321 -0.0194684 
0.898595 -2.80341 -0.00599701 
1.07863 -2.80552 -0.00837935 
1.28621 -2.82103 -0.00587623 
1.50496 -2.81698 -0.00211449 
1.71741 -2.82629 -0.000537463 
1.9231 -2.82703 -8.98171e-05 
2.13012 -2.82772 0.000338064 
2.34045 -2.83127 0.000224247 
2.54081 -2.83693 0.00010448 
2.74898 -2.83759 8.68851e-05 
2.95423 -2.837 7.55507e-05 
3.16569 -2.83464 5.55162e-05 
3.38187 -2.83212 3.63974e-05 
3.60269 -2.83166 2.07281e-05 
3.81784 -2.83124 1.19027e-05 
4.03186 -2.83317 7.0663e-06 
4.24204 -2.83596 1.97681e-07 
4.45323 -2.83463 6.00274e-06 
4.66189 -2.83255 2.70686e-06 
4.8711 -2.83289 1.56704e-06 
5.08096 -2.8317 1.25487e-06 
5.29315 -2.83312 1.13327e-06 
5.50501 -2.83337 9.04026e-07 
5.71764 -2.83363 1.5895e-06 
5.93194 -2.83453 2.1638e-06 
6.14817 -2.83212 2.38239e-06 
6.36478 -2.83072 2.30564e-06 
6.58256 -2.831 2.82666e-06 
6.80653 -2.83168 5.04025e-06 
7.03344 -2.83312 4.79012e-06 
7.26018 -2.83314 1.26454e-06 
7.49602 -2.83618 2.03929e-06 
7.74164 -2.83717 -3.81123e-06 
7.98183 -2.83747 -4.74831e-06 
8.23135 -2.83807 -6.97472e-06 
8.48796 -2.83213 -9.10104e-06 
-8.49192 -2.58513 -4.07647e-06 
-8.2724 -2.58072 5.19719e-06 
-8.0404 -2.65948 -3.47656e-06 
-7.75245 -2.6151 -2.59473e-06 
-7.50625 -2.59788 6.22571e-06 
-7.27435 -2.5939 2.68935e-06 
-7.04797 -2.54398 -1.53902e-06 
-6.8745 -2.67424 1.16936e-08 
-6.6175 -2.5685 4.09236e-06 
-6.4162 -2.57561 -5.48593e-07 
-6.20344 -2.59618 1.95222e-06 
-5.98402 -2.59543 2.41409e-06 
-5.76772 -2.59243 2.60793e-06 
-5.55325 -2.59598 2.12618e-06 
-5.33714 -2.59547 2.03974e-06 
-5.12166 -2.59491 1.97566e-06 
-4.90674 -2.59986 6.71228e-06 
-4.69318 -2.57817 4.91929e-06 
-4.47679 -2.5964 8.69859e-06 
-4.25825 -2.59794 8.42712e-06 
-4.03843 -2.59565 9.47052e-06 
-3.81893 -2.59502 4.9322e-06 
-3.60062 -2.5996 2.19734e-05 
-3.38336 -2.59687 3.12657e-05 
-3.16597 -2.59522 6.89523e-05 
-2.95339 -2.59942 7.79592e-05 
-2.73815 -2.60747 7.98803e-05 
-2.50452 -2.59902 9.42684e-05 
-2.25949 -2.5459 -5.13169e-05 
-2.03247 -2.54918 -9.55139e-05 
-1.79457 -2.53704 -0.000594482 
-1.54762 -2.56035 -0.00141289 
-1.29391 -2.58103 -0.00350667 
-1.03878 -2.56323 -0.00264888 
-0.872119 -2.58729 0.000305822 
-0.740323 -2.62243 0.0025669 
-0.63267 -2.65031 0.00883342 
-0.540591 -2.74533 0.0183471 
-0.308646 -2.79302 0.0212287 
0.0628367 -2.81459 -0.0123527 
0.342994 -2.80008 -0.0197172 
0.559693 -2.73654 -0.0226318 
0.64934 -2.69469 -0.00587463 
0.777016 -2.63677 0.00228353 
0.958741 -2.61392 0.000301551 
1.16161 -2.59757 -9.97234e-05 
1.36074 -2.55157 0.00236831 
1.56825 -2.5396 0.000818987 
1.80565 -2.54498 0.000482442 
2.07265 -2.5744 0.00026009 
2.31013 -2.57587 -1.74975e-05 
2.54308 -2.59677 -5.49589e-05 
2.7666 -2.59847 -8.81328e-05 
2.9844 -2.60343 -7.38465e-05 
3.20036 -2.60091 -5.66333e-05 
3.41922 -2.60078 -3.63885e-05 
3.63567 -2.59408 -2.05338e-05 
3.85031 -2.59349 -1.19773e-05 
4.06344 -2.59277 -1.3835e-06 
4.27463 -2.59738 -6.04427e-06 
4.48527 -2.59501 -8.50169e-06 
4.6968 -2.59515 -5.57866e-06 
4.90671 -2.59471 -3.89037e-06 
5.11749 -2.59461 -3.14633e-06 
5.32904 -2.59479 -2.31797e-06 
5.54204 -2.59446 -2.1076e-06 
5.75655 -2.59411 -2.00085e-06 
5.9718 -2.59378 -2.72645e-06 
6.1867 -2.58926 -3.47349e-06 
6.40238 -2.58726 -3.47201e-06 
6.62206 -2.59116 -3.09633e-06 
6.8448 -2.5917 -2.81124e-06 
7.06945 -2.59142 -2.88994e-06 
7.30286 -2.59838 -6.61095e-06 
7.54126 -2.60704 4.27372e-07 
7.77916 -2.6026 3.90075e-06 
8.02289 -2.61196 3.77935e-06 
8.27235 -2.61586 -7.26882e-06 
8.49349 -2.57511 5.70092e-06 
-8.49212 -2.32408 -7.16543e-06 
-8.28071 -2.32042 6.57157e-06 
-8.05829 -2.41689 9.08772e-08 
-7.82499 -2.43141 -4.62697e-07 
-7.60351 -2.19062 2.04041e-07 
-7.54739 -2.37872 2.76608e-08 
-7.30087 -2.36012 -1.20689e-07 
-7.03806 -2.33928 -1.02573e-07 
-6.78231 -2.43059 8.52227e-06 
-6.54189 -2.31157 7.82782e-07 
-6.32847 -2.34487 -1.02586e-06 
-6.11337 -2.3649 -3.77187e-07 
-5.89406 -2.36273 -2.33074e-07 
-5.67479 -2.36195 -6.36703e-07 
-5.45862 -2.36695 -1.04326e-06 
-5.24171 -2.36683 -1.10927e-06 
-5.02454 -2.36904 -1.02444e-06 
-4.8136 -2.36302 -4.81016e-06 
-4.58622 -2.36106 1.64001e-06 
-4.37025 -2.37072 -2.56759e-06 
-4.14958 -2.3688 -4.00246e-06 
-3.9294 -2.36638 -5.15861e-06 
-3.7105 -2.36878 -5.54504e-06 
-3.4951 -2.36738 -2.0263e-05 
-3.27629 -2.36521 -2.15989e-05 
-3.05577 -2.36344 -4.18606e-05 
-2.8354 -2.3695 -5.20989e-05 
-2.61082 -2.37795 -7.82826e-05 
-2.37642 -2.34393 -9.28763e-05 
-2.12063 -2.30038 -0.00019783 
-1.88276 -2.29306 -0.000432465 
-1.63297 -2.30201 -0.000776661 
-1.39147 -2.34516 -0.00210664 
-1.14818 -2.36348 -0.0010699 
-0.928272 -2.34306 0.000557142 
-0.772762 -2.39624 0.00272712 
-0.572328 -2.60493 0.00129903 
-0.360626 -2.75602 -0.0336601 
-0.100655 -2.75695 0.00793715 
-0.0545787 -2.80022 0.0364227 
0.202495 -2.7832 0.0275162 
0.499613 -2.71017 0.0108808 
0.618234 -2.50238 -0.00441101 
0.72371 -2.45196 -0.00248401 
0.895484 -2.41982 0.00252119 
1.09201 -2.36561 0.00315883 
1.33114 -2.33828 0.00234758 
1.58036 -2.2537 0.000420113 
1.78941 -2.29359 0.000467007 
2.04944 -2.34777 0.000293626 
2.30195 -2.337 0.000144659 
2.53826 -2.3607 8.17014e-05 
2.76904 -2.36434 5.30692e-05 
2.99228 -2.3725 3.61325e-05 
3.21143 -2.37083 2.08462e-05 
3.42858 -2.37193 1.17226e-05 
3.64503 -2.36467 9.11605e-06 
3.8606 -2.36318 6.06696e-06 
4.07386 -2.36251 -3.84592e-07 
4.29008 -2.36172 7.47294e-06 
4.50441 -2.36427 -2.21605e-06 
4.71708 -2.36369 1.40652e-06 
4.92829 -2.36306 1.19791e-06 
5.14013 -2.36251 1.50035e-06 
5.35276 -2.36243 6.44429e-07 
5.56633 -2.36123 8.87643e-07 
5.78132 -2.36071 3.68437e-08 
5.99479 -2.35879 -3.63609e-07 
6.20941 -2.35466 -1.07793e-07 
6.42705 -2.35379 4.67398e-08 
6.64627 -2.35557 2.60036e-07 
6.8692 -2.35428 9.02454e-07 
7.09941 -2.36102 8.6611e-06 
7.33197 -2.36765 3.51247e-06 
7.56569 -2.37424 -7.83131e-06 
7.80569 -2.37421 -1.71752e-06 
8.04838 -2.38751 1.53909e-06 
8.27284 -2.36411 -7.74086e-06 
8.49315 -2.31862 6.89691e-06 
-8.4892 -2.05706 -4.86146e-06 
-8.28295 -2.05276 4.51584e-06 
-8.06757 -2.16846 -1.38937e-06 
-7.83982 -2.19587 1.235e-06 
-7.59931 -1.96067 -3.26051e-06 
-7.33089 -2.14664 -1.97385e-07 
-7.08308 -2.14339 2.23617e-06 
-6.79791 -2.22357 -6.03234e-06 
-6.56917 -2.10261 -2.83421e-06 
-6.32788 -2.11177 4.44582e-06 
-6.11466 -2.13616 6.62501e-07 
-5.89901 -2.13876 -1.84969e-08 
-5.68172 -2.14045 -5.8603e-07 
-5.46329 -2.14388 -7.82454e-07 
-5.24783 -2.14577 -1.08781e-06 
-5.03096 -2.14907 -1.19992e-06 
-4.81416 -2.13918 -1.20718e-06 
-4.60198 -2.1514 -1.72631e-06 
-4.37626 -2.14792 -2.21874e-06 
-4.15954 -2.14734 -3.4184e-06 
-3.94191 -2.14365 -4.03514e-06 
-3.72718 -2.14672 -3.65534e-06 
-3.51275 -2.14271 6.95232e-06 
-3.2952 -2.13934 -2.36082e-06 
-3.0725 -2.1366 4.59894e-07 
-2.8457 -2.13922 -2.19293e-05 
-2.60481 -2.14849 -3.86632e-05 
-2.34572 -2.12186 -8.85004e-05 
-2.09427 -2.07363 2.63071e-05 
-1.83413 -2.08351 0.000121027 
-1.57833 -2.08476 -0.000220799 
-1.36543 -2.11348 -0.00074128 
-1.15406 -2.16032 0.000181396 
-1.23853 -1.94247 -0.000908958 
-1.00397 -2.10741 0.000346734 
-0.797014 -2.24409 -0.00154742 
-0.558268 -2.52748 0.00394911 
-0.380106 -2.7638 0.0193913 
-0.18041 -2.72051 -0.0225609 
0.174964 -2.78469 -0.0198823 
0.460341 -2.6716 0.00754923 
0.43315 -2.62 0.0138219 
0.59583 -2.39064 -0.0023475 
0.750394 -2.21282 -0.0024696 
0.864102 -2.24168 0.000398402 
1.056 -2.1673 -0.000862671 
1.26311 -2.13447 0.00153031 
1.46386 -2.07681 0.00112449 
1.7213 -2.01433 -0.000109763 
1.93883 -2.10382 -0.000108542 
2.16859 -2.11216 0.000149764 
2.42157 -2.11813 1.11449e-05 
2.66054 -2.12973 5.02797e-05 
2.89795 -2.14026 1.24312e-05 
3.12653 -2.14859 1.75609e-05 
3.35348 -2.14857 -8.5112e-08 
3.57264 -2.14468 1.81977e-06 
3.79076 -2.14377 9.45771e-06 
4.00504 -2.13914 -3.24939e-06 
4.22003 -2.14077 6.70895e-06 
4.43845 -2.14063 -6.05258e-07 
4.65455 -2.14238 8.77772e-06 
4.87228 -2.14013 -6.43474e-06 
5.08866 -2.14002 7.27731e-06 
5.30766 -2.13855 -5.5909e-06 
5.52532 -2.13718 2.85731e-06 
5.74419 -2.13732 6.83675e-07 
5.96254 -2.13315 -1.44097e-07 
6.17843 -2.13056 1.72355e-08 
6.3969 -2.13035 3.37159e-07 
6.61975 -2.12904 6.90016e-07 
6.84406 -2.12831 4.92958e-06 
7.07516 -2.13415 -5.78203e-06 
7.3067 -2.13833 -2.52522e-06 
7.544 -2.14843 -1.65894e-07 
7.78021 -2.1445 2.29042e-06 
8.01467 -2.14906 -2.55372e-06 
8.24695 -2.12335 -3.9749e-06 
8.48971 -2.09048 6.03977e-06 
-8.49345 -1.84285 -1.64407e-06 
-8.24036 -1.78066 -9.59275e-07 
-8.05665 -1.92623 8.78089e-07 
-7.82918 -1.95801 -1.84173e-06 
-7.36253 -1.95252 1.47405e-06 
-7.09883 -1.93025 1.23475e-06 
[...]
POINT_DATA 1978 
VECTORS vectors float
0.00214093 0.00636921 1.00227 
0.00301667 0.00505244 1.00365 
0.00396736 0.00278803 1.0041 
0.00436953 0.00065849 1.00396 
0.00447276 -0.00159547 1.00373 
0.00418481 -0.00377791 1.00368 
0.00381052 -0.00546612 1.00378 
0.0028646 -0.0083288 1.00375 
0.00235582 -0.00979395 1.0036 
0.00198408 -0.0112295 1.00356 
0.00162744 -0.0128987 1.00352 
0.0013144 -0.0145856 1.00337 
0.00102019 -0.0162562 1.00335 
0.000760804 -0.0179087 1.0033 
0.000518744 -0.0196 1.00326 
0.000332943 -0.0213558 1.00323 
4.0244e-05 -0.0233623 1.00312 
-0.000461173 -0.0253495 1.00235 
-0.00122437 -0.0270292 1.00297 
-0.00219963 -0.0287969 1.00302 
-0.00374647 -0.0303901 1.00302 
-0.00616232 -0.031334 1.00304 
-0.00987003 -0.0315299 1.00363 
-0.0158718 -0.0308035 1.00289 
-0.0238153 -0.0293231 1.00265 
-0.0338876 -0.0274023 1.00238 
-0.0465537 -0.0242941 1.00206 
-0.0638804 -0.0192543 1.00131 
-0.0837193 -0.00775291 0.999327 
-0.108915 0.0139649 0.997749 
-0.138498 0.0565085 0.992628 
-0.161982 0.12626 0.982948 
-0.173242 0.223752 0.964381 
-0.175499 0.308363 0.937207 
-0.159833 0.39296 0.907749 
-0.144337 0.490489 0.86207 
-0.136415 0.568322 0.812337 
-0.107051 0.651449 0.754198 
-0.0775929 0.821933 0.592755 
0.0305912 1.00102 -0.0865336 
0.123045 0.826938 -0.561628 
0.0918353 0.739149 -0.680257 
0.146185 0.596534 -0.788683 
0.135038 0.519638 -0.844811 
0.149617 0.408581 -0.903703 
0.163397 0.301684 -0.942647 
0.157486 0.205998 -0.969346 
0.155721 0.120667 -0.984385 
0.141936 0.0535598 -0.992514 
0.117389 0.0124905 -0.996928 
0.0855489 -0.0103766 -0.999812 
0.0624059 -0.0208229 -1.0013 
0.0459217 -0.0255988 -1.00202 
0.0336187 -0.0281868 -1.00235 
0.0231133 -0.0297761 -1.00265 
0.0151835 -0.0307067 -1.00287 
0.00963727 -0.0311948 -1.00296 
0.00612807 -0.030859 -1.00296 
0.00387787 -0.029952 -1.00298 
0.0024184 -0.0285572 -1.00297 
0.00140516 -0.0267604 -1.00302 
0.00069011 -0.0248224 -1.00306 
0.00019279 -0.0229038 -1.00313 
-0.000169587 -0.0210948 -1.0032 
-0.000438528 -0.0193607 -1.00326 
-0.000681319 -0.0176756 -1.00332 
-0.00093643 -0.0160266 -1.00339 
-0.00125586 -0.0143842 -1.00346 
-0.00159316 -0.0127419 -1.00351 
-0.00197263 -0.0111331 -1.00355 
-0.00239366 -0.00958419 -1.0036 
-0.00301752 -0.00795128 -1.00364 
-0.00375239 -0.00594776 -1.0037 
-0.00426438 -0.00374773 -1.00377 
-0.00450811 -0.00144007 -1.0038 
-0.00435577 0.000983997 -1.00398 
-0.00393584 0.00306486 -1.00407 
-0.00315667 0.0049195 -1.00375 
-0.00210277 0.00644604 -1.00236 
0.00104562 0.00519588 1.0037 
0.00183516 0.00416746 1.00637 
0.00281364 0.00297231 1.00654 
0.00294167 0.000784623 1.00651 
0.00290644 -0.00123089 1.00635 
0.00263292 -0.00315905 1.00573 
0.00186167 -0.00488775 1.00708 
0.00218421 -0.0067612 1.00558 
0.000970584 -0.00840026 1.00623 
0.000558816 -0.00993886 1.00608 
0.000221739 -0.0116067 1.006 
-0.000201363 -0.0132587 1.00592 
-0.000631911 -0.0149482 1.00578 
-0.00097603 -0.0166277 1.00571 
-0.00134199 -0.0182711 1.00565 
-0.00172206 -0.019942 1.00555 
-0.00211319 -0.0216988 1.00555 
-0.00294942 -0.023226 1.00619 
-0.00365214 -0.0249791 1.0055 
-0.0047655 -0.0263724 1.00545 
-0.0063827 -0.027238 1.0055 
-0.00875659 -0.0270356 1.00542 
-0.012232 -0.0256215 1.00476 
-0.0175096 -0.0229512 1.00537 
-0.0250383 -0.0198174 1.00536 
-0.0351768 -0.0156716 1.00507 
-0.0475875 -0.00884049 1.00465 
-0.0619712 0.00335182 1.00415 
-0.0777309 0.0301662 1.00368 
-0.0890749 0.0628997 1.00052 
-0.0896617 0.11307 0.995984 
-0.0890398 0.177689 0.985604 
-0.0787507 0.274545 0.960765 
-0.0482943 0.399307 0.91815 
-0.0382734 0.499523 0.86603 
-0.0299339 0.583327 0.810555 
-0.00897188 0.66084 0.756018 
-0.0265167 0.740144 0.684903 
-0.0254024 0.877751 0.441616 
-0.00425258 0.997006 -0.0905896 
0.0282572 0.8861 -0.441116 
0.0448892 0.744553 -0.676523 
0.041579 0.668493 -0.740342 
0.0361817 0.576441 -0.815325 
0.0524339 0.455386 -0.889794 
0.0699775 0.350726 -0.935507 
0.0688308 0.249206 -0.970622 
0.0752077 0.16812 -0.988378 
0.0858467 0.107259 -0.997064 
0.0904066 0.0531777 -1.00077 
0.0754366 0.0208779 -1.00308 
0.0599015 0.000401175 -1.00424 
0.0460983 -0.0098483 -1.00473 
0.0335809 -0.0166413 -1.00501 
0.0235554 -0.0207627 -1.00526 
0.0163856 -0.0237401 -1.00538 
0.0116991 -0.0256647 -1.00542 
0.0085129 -0.0267782 -1.00541 
0.00635619 -0.0268354 -1.00537 
0.0048252 -0.0261144 -1.0048 
0.00382179 -0.0247287 -1.00538 
0.00302829 -0.0231973 -1.00547 
0.00238362 -0.0215562 -1.00552 
0.00186679 -0.0199187 -1.00556 
0.00145884 -0.0182897 -1.00562 
0.00108838 -0.0166533 -1.00571 
0.000723424 -0.015001 -1.00579 
0.000331997 -0.0133715 -1.00585 
-6.26782e-05 -0.0117165 -1.00589 
-0.000513204 -0.0100622 -1.00596 
-0.00104896 -0.0084358 -1.00607 
-0.001609 -0.00670857 -1.00624 
-0.00215004 -0.00485132 -1.00634 
-0.00266723 -0.0028834 -1.00634 
-0.0029591 -0.000884362 -1.0065 
-0.00288734 0.00103011 -1.00661 
-0.00261263 0.0028039 -1.00649 
-0.00196963 0.00432792 -1.00626 
-0.000931888 0.00527203 -1.00374 
0.000305244 0.0041774 1.00412 
0.000890422 0.00343478 1.00664 
0.00160512 0.00263548 1.00663 
0.0019312 0.00119804 1.00677 
0.000854617 -0.000146374 1.00716 
0.00167452 -0.000694329 1.00682 
0.00125794 -0.00248189 1.00722 
0.000658931 -0.00446103 1.00589 
0.000597058 -0.00669827 1.00642 
-0.000645504 -0.00815108 1.00715 
-0.000979936 -0.00985621 1.00629 
-0.00137291 -0.0115727 1.0062 
-0.00189033 -0.0132846 1.00612 
-0.0023755 -0.0149522 1.00601 
-0.00279704 -0.0165917 1.00597 
-0.00329354 -0.0181985 1.00591 
-0.00385213 -0.0197642 1.00581 
-0.00455659 -0.0211888 1.00578 
-0.00544215 -0.0226279 1.00576 
-0.00648389 -0.0238325 1.00576 
-0.00801261 -0.0244792 1.00581 
-0.0100843 -0.0239443 1.00578 
-0.0129067 -0.0217653 1.0057 
-0.0167619 -0.0183652 1.00571 
-0.0222155 -0.0145939 1.00524 
-0.0298664 -0.00987702 1.00567 
-0.0403501 -0.00189978 1.00543 
-0.0525442 0.0118143 1.00504 
-0.0621611 0.0336365 1.00425 
-0.0612646 0.0630654 1.00289 
-0.0499441 0.0944194 1.00161 
-0.0366085 0.139199 0.995147 
-0.0279118 0.212025 0.982452 
0.00336568 0.306675 0.954999 
0.0396389 0.408266 0.913285 
0.0649809 0.497491 0.864931 
0.0315488 0.681162 0.726504 
0.0585726 0.842024 0.527595 
0.000931097 0.971636 0.16142 
-0.0620048 0.985155 0.0870415 
-0.0476286 0.950983 -0.284517 
-0.00757138 0.771779 -0.627966 
-0.0702666 0.630425 -0.773452 
-0.0571105 0.553211 -0.830667 
-0.0314076 0.455217 -0.890006 
-0.0204279 0.337707 -0.944339 
0.00947727 0.232662 -0.976541 
0.0200986 0.142352 -0.995775 
0.0431654 0.1085 -1.00002 
0.0635772 0.070469 -1.00226 
0.0626915 0.0406177 -1.00387 
0.055434 0.0165992 -1.005 
0.0440928 0.00205998 -1.00548 
0.0331614 -0.00746032 -1.00561 
0.0243598 -0.0134781 -1.00574 
0.0181564 -0.0178119 -1.00577 
0.0139878 -0.0207779 -1.0057 
0.010994 -0.0229528 -1.00566 
0.00878514 -0.0240052 -1.00577 
0.00718262 -0.0238215 -1.00644 
0.005964 -0.0229626 -1.00581 
0.00508186 -0.0216954 -1.00578 
0.00430553 -0.0202788 -1.00576 
0.00368814 -0.0188012 -1.00586 
0.00313316 -0.0173039 -1.00592 
0.0026694 -0.0157466 -1.00601 
0.00222344 -0.0141214 -1.00604 
0.00177261 -0.0124368 -1.00607 
0.00128917 -0.0107496 -1.00615 
0.000755221 -0.00909366 -1.00628 
0.000223661 -0.00746744 -1.00642 
-0.00029539 -0.00577742 -1.00653 
-0.000893073 -0.00401851 -1.00653 
-0.00135163 -0.00225803 -1.00603 
-0.00164223 -0.000550545 -1.00671 
-0.00166414 0.00107554 -1.0067 
-0.00149 0.00256562 -1.0066 
-0.000985843 0.00354198 -1.00645 
-0.000203466 0.00419882 -1.00402 
-4.94499e-05 0.00340072 1.0038 
0.000255641 0.00295908 1.00649 
0.000745717 0.00237594 1.00674 
0.000971922 0.00120894 1.00706 
-4.72054e-05 7.48432e-05 1.00707 
0.000304422 -0.00186972 1.00687 
-0.000205194 -0.00359491 1.00667 
-0.000485919 -0.00595919 1.00657 
-0.00159177 -0.0073063 1.0066 
-0.0021983 -0.00915165 1.00635 
-0.00262573 -0.0108421 1.0063 
-0.00313333 -0.0125576 1.00624 
-0.00365345 -0.0142463 1.00612 
-0.00418096 -0.0158486 1.00606 
-0.0047628 -0.01737 1.00603 
-0.00540914 -0.0188178 1.006 
-0.0062751 -0.0200708 1.00593 
-0.00712302 -0.0212476 1.0059 
-0.00836961 -0.0220958 1.00593 
-0.00995081 -0.0221961 1.00594 
-0.0121216 -0.0208875 1.00585 
-0.014738 -0.0180035 1.00582 
-0.0181225 -0.013937 1.00596 
-0.0224653 -0.00945764 1.00667 
-0.0285648 -0.00392934 1.00607 
-0.0368947 0.00504633 1.00604 
-0.0462451 0.0207045 1.00583 
-0.0499086 0.0442583 1.00489 
-0.0386119 0.0662882 1.00386 
-0.0202571 0.0920643 1.00145 
0.000201281 0.134318 0.997605 
0.0216775 0.186852 0.987247 
0.0464934 0.257892 0.969514 
0.0680204 0.189906 0.984653 
0.0908471 0.296508 0.953955 
0.113769 0.427875 0.89816 
0.0636129 0.663016 0.737903 
0.00336117 0.844778 0.546572 
0.056925 0.938618 0.281201 
0.00320461 0.96982 -0.254103 
-0.0313556 0.789371 -0.611263 
-0.0578329 0.781761 -0.609541 
-0.120737 0.589648 -0.795705 
-0.140334 0.437473 -0.889422 
-0.0995294 0.398932 -0.912648 
-0.0728108 0.301624 -0.954101 
-0.042951 0.217155 -0.980148 
-0.0151659 0.156825 -0.993363 
0.00289314 0.10066 -1.00189 
0.0289899 0.0783089 -1.00272 
0.0423571 0.0600586 -1.00421 
0.0492078 0.0372133 -1.00523 
0.0445045 0.0176143 -1.00578 
0.0356048 0.00351874 -1.00608 
0.0274605 -0.00555204 -1.0061 
0.0213132 -0.0114217 -1.00598 
0.0171952 -0.0155287 -1.00592 
0.0139522 -0.0187691 -1.00586 
0.011623 -0.0208129 -1.00577 
0.00963286 -0.0218538 -1.00595 
0.00822366 -0.0216748 -1.00587 
0.00706904 -0.0208161 -1.00594 
0.00618644 -0.0196325 -1.00592 
0.005362 -0.0183207 -1.00606 
0.00469499 -0.0168683 -1.00604 
0.00413042 -0.0153143 -1.00612 
0.00359347 -0.0137124 -1.00618 
0.00308926 -0.0119876 -1.00619 
0.0025313 -0.010294 -1.00626 
0.00195327 -0.00863064 -1.00633 
0.00140176 -0.00697638 -1.00643 
0.000833169 -0.00530154 -1.00661 
0.000237485 -0.00361269 -1.00676 
-0.000254716 -0.00200062 -1.00814 
-0.000643806 -0.000457803 -1.00713 
-0.000790284 0.00090896 -1.00643 
-0.000728095 0.00213131 -1.00674 
-0.000410648 0.0029522 -1.00652 
0.000142207 0.00344649 -1.00387 
-0.000147003 0.003108 1.00292 
-6.73494e-05 0.00271362 1.00708 
0.000153598 0.00223896 1.00665 
0.000167393 0.00123154 1.00649 
-0.000420103 -0.00128495 1.00686 
-0.00107588 -0.00295511 1.00745 
-0.00186783 -0.00213515 1.00671 
-0.00122816 -0.00503216 1.00669 
-0.00229132 -0.00600176 1.0065 
-0.00290812 -0.00781558 1.00643 
-0.00359555 -0.00961809 1.00632 
-0.00408992 -0.0113602 1.0063 
-0.00466869 -0.0130489 1.00624 
-0.00524312 -0.0146619 1.00613 
-0.00589536 -0.0161503 1.00607 
-0.00659743 -0.0175445 1.00607 
-0.00747375 -0.0187236 1.00604 
-0.00849445 -0.0197227 1.00598 
-0.00960227 -0.0204381 1.00598 
-0.0112242 -0.0203359 1.00597 
-0.0131954 -0.0189479 1.0059 
-0.0157842 -0.0157919 1.00586 
-0.018829 -0.0115054 1.0059 
-0.022342 -0.00709026 1.00607 
-0.0267086 -0.00191861 1.00618 
-0.0325601 0.00666807 1.0063 
-0.0386922 0.0213169 1.00631 
-0.0388514 0.0392524 1.00577 
-0.0265897 0.0524371 1.0054 
-0.0104019 0.0706583 1.00414 
0.0110824 0.100916 1.00119 
0.0419082 0.135941 0.995407 
0.0902465 0.147572 0.989173 
0.146518 0.186996 0.974438 
0.116199 0.229172 0.970757 
0.140376 0.416792 0.900166 
0.111755 0.595933 0.79457 
0.0793778 0.8786 0.493101 
0.0319032 0.842738 0.564471 
-0.018576 0.966397 0.022299 
-0.0779424 0.946043 -0.309596 
-0.0998349 0.758511 -0.645084 
-0.1814 0.523745 -0.830272 
-0.183389 0.384224 -0.905761 
-0.138241 0.287691 -0.950304 
-0.107436 0.233646 -0.970249 
-0.0715012 0.180412 -0.986235 
-0.039325 0.130062 -0.996247 
-0.0155264 0.0881551 -1.00227 
0.0101522 0.0658118 -1.0054 
0.029036 0.0506818 -1.0048 
0.0381225 0.0364062 -1.00655 
0.0381979 0.0206199 -1.00556 
0.0325604 0.00671355 -1.00694 
0.0266201 -0.00256151 -1.00617 
0.0221097 -0.00812559 -1.00534 
0.0184808 -0.0124955 -1.00586 
0.015615 -0.0159832 -1.00645 
0.0132342 -0.0186529 -1.00535 
0.0112735 -0.0199194 -1.00652 
0.00975033 -0.020119 -1.00542 
0.00852572 -0.0194654 -1.00658 
0.00753684 -0.0185538 -1.00547 
0.00666056 -0.0173594 -1.0066 
0.00591843 -0.0160305 -1.00542 
0.00528543 -0.0145252 -1.00602 
0.00468874 -0.0129358 -1.00622 
0.00415922 -0.0112256 -1.00622 
0.00356423 -0.00949128 -1.00632 
0.00294162 -0.00782519 -1.00647 
0.00233398 -0.00616992 -1.0067 
0.00171503 -0.00447084 -1.00743 
0.00115971 -0.00286237 -1.00667 
0.000647129 -0.00138523 -1.00611 
0.000222394 -1.52276e-05 -1.0069 
-1.70115e-05 0.00116098 -1.00703 
-0.000123694 0.00214019 -1.00679 
-3.84388e-05 0.00278151 -1.00633 
9.03246e-05 0.00292773 -1.00361 
-2.56071e-05 0.00304763 1.00364 
-0.000214036 0.00295847 1.0063 
-0.000362837 0.00224027 1.0067 
-0.000455929 0.00145827 1.00756 
-0.000797925 0.000351555 1.00619 
-0.00123342 -0.00107315 1.00665 
-0.00272752 -0.00342302 1.00667 
-0.00202924 -0.00397565 1.00663 
-0.00305922 -0.00525612 1.00588 
-0.00363226 -0.00698788 1.00651 
-0.00431366 -0.00876854 1.00647 
-0.00498041 -0.010589 1.00643 
-0.00553297 -0.0122827 1.00638 
-0.0061426 -0.0138715 1.00628 
-0.0068282 -0.0152647 1.0062 
-0.00758921 -0.0165242 1.0062 
-0.00848582 -0.017618 1.0062 
-0.00950091 -0.018523 1.00615 
-0.0107422 -0.0189773 1.00613 
-0.0121988 -0.0186569 1.00611 
-0.0141441 -0.0169589 1.00604 
-0.0165883 -0.0138038 1.00602 
-0.0195528 -0.00945987 1.006 
-0.0226535 -0.00502337 1.00606 
-0.025995 -0.000109416 1.00636 
-0.0294074 0.00680118 1.00667 
-0.0323227 0.0183589 1.00731 
-0.0294478 0.0309153 1.00592 
-0.0168005 0.0383627 1.00663 
0.000588508 0.0521631 1.00574 
0.0272776 0.0728177 1.00341 
0.0595181 0.0996975 0.999562 
0.115804 0.108735 0.991313 
0.166378 0.131243 0.979838 
0.160248 0.297772 0.943994 
0.174334 0.482995 0.857909 
0.113881 0.711391 0.693904 
0.175799 0.62391 0.74114 
0.116095 0.881306 0.44073 
-0.00841583 0.94676 -0.380484 
-0.0497631 0.945971 -0.31516 
-0.149077 0.702878 -0.658642 
-0.228727 0.45474 -0.873538 
-0.219439 0.28532 -0.934384 
-0.173282 0.246062 -0.956766 
-0.131865 0.170153 -0.979947 
-0.087632 0.127998 -0.993206 
-0.056127 0.0930533 -0.999157 
-0.0314071 0.0624674 -1.00371 
-0.00448108 0.0528832 -1.0056 
0.0156932 0.0390751 -1.00618 
0.0277424 0.0300228 -1.00588 
0.0316794 0.0194936 -1.00733 
0.0300452 0.00826015 -1.00596 
0.026219 2.47117e-05 -1.0065 
0.0226658 -0.00534591 -1.00686 
0.0196726 -0.00962923 -1.00599 
0.0169053 -0.0134171 -1.00537 
0.0145373 -0.0164057 -1.00649 
0.0125881 -0.0181903 -1.00554 
0.0109182 -0.0186886 -1.00673 
0.00965854 -0.0183831 -1.00568 
0.00862234 -0.0175391 -1.00674 
0.00771713 -0.0165325 -1.00564 
0.00691484 -0.0153308 -1.00674 
0.00625376 -0.013962 -1.00628 
0.00562995 -0.0124058 -1.00698 
0.00505848 -0.01072 -1.00652 
0.0044404 -0.0089519 -1.00663 
0.00381663 -0.00723194 -1.00666 
0.00317307 -0.00553293 -1.00675 
0.0025371 -0.00388946 -1.00618 
0.00195066 -0.00230702 -1.00679 
0.00139284 -0.000919126 -1.00679 
0.000917685 0.000365568 -1.00691 
0.000572913 0.00144319 -1.00708 
0.000265596 0.00229175 -1.00664 
0.000119715 0.00283074 -1.00621 
-0.000138774 0.00302573 -1.00368 
0.000219496 0.00343716 1.00364 
-0.000340582 0.00328114 1.0063 
-0.000670727 0.0025121 1.00663 
-0.00104824 0.0015823 1.007 
-0.0013225 0.000633055 1.00681 
-0.00181243 -0.00034465 1.00678 
-0.00241999 -0.00161875 1.00669 
-0.00320145 -0.00301425 1.00658 
-0.00367756 -0.00492498 1.00661 
-0.00426849 -0.0066919 1.00659 
-0.0049251 -0.00842831 1.0065 
-0.00551845 -0.0101784 1.00638 
-0.00607784 -0.0119313 1.00628 
-0.00667394 -0.0134331 1.00618 
-0.00735877 -0.0147432 1.00611 
-0.00815065 -0.0158734 1.00609 
-0.00906551 -0.0168223 1.0061 
-0.0101141 -0.0175022 1.00611 
-0.0112981 -0.0176059 1.00609 
-0.0127736 -0.0169564 1.00604 
-0.0146684 -0.0149773 1.00598 
-0.0170624 -0.0115884 1.00595 
-0.0198485 -0.00707499 1.00597 
-0.0226358 -0.00241914 1.00616 
-0.0250468 0.00231222 1.00647 
-0.0267458 0.00815319 1.00657 
-0.0258221 0.0150709 1.00618 
-0.0191431 0.0208083 1.00793 
-0.00472165 0.023635 1.00708 
0.0149123 0.030161 1.00626 
0.0433441 0.0449598 1.00421 
0.0830867 0.0685947 0.999394 
0.127548 0.0498353 0.994977 
0.175219 0.0670314 0.984671 
0.189751 0.290162 0.941958 
0.227708 0.382588 0.896896 
0.24362 0.370911 0.904723 
0.256553 0.453461 0.854095 
0.180613 0.629417 0.759877 
0.0765477 0.887202 0.494858 
-0.0173314 0.931753 -0.403279 
-0.170098 0.681747 -0.700773 
-0.258976 0.372318 -0.886333 
-0.24075 0.202936 -0.95429 
-0.187492 0.15973 -0.971486 
-0.148657 0.114251 -0.985977 
-0.110315 0.0796066 -0.995315 
-0.0730736 0.0543025 -1.00113 
-0.0419326 0.0292319 -1.00475 
-0.0126607 0.0287623 -1.00647 
0.00588562 0.022061 -1.00778 
0.0183093 0.0186372 -1.00715 
0.0251529 0.0158707 -1.00706 
0.0268828 0.00939639 -1.00655 
0.0252221 0.00227635 -1.00639 
0.0226807 -0.00309939 -1.00621 
0.019954 -0.00730857 -1.00587 
0.0173037 -0.0111149 -1.00588 
0.014958 -0.0143577 -1.00601 
0.0130213 -0.0165128 -1.00598 
0.0114089 -0.0174282 -1.00619 
0.0101433 -0.0173613 -1.00618 
0.0090761 -0.0167508 -1.00618 
0.00817738 -0.01584 -1.00602 
0.00739367 -0.0147201 -1.00604 
0.00672212 -0.0134285 -1.00543 
0.00613146 -0.0119348 -1.00554 
0.00553708 -0.0102434 -1.00639 
0.00492997 -0.00838215 -1.00712 
0.00431757 -0.00657858 -1.00658 
0.00368377 -0.00498322 -1.00663 
0.0030669 -0.00330726 -1.00654 
0.00249562 -0.0017811 -1.00669 
0.00191806 -0.000461588 -1.00675 
0.00139745 0.000769779 -1.00624 
0.000957483 0.00180156 -1.00764 
0.000566708 0.00258085 -1.00667 
0.000209279 0.00317381 -1.00629 
-0.000292924 0.00343919 -1.0037 
0.0002502 0.00401059 1.00362 
-0.000395416 0.00381732 1.00624 
-0.000841819 0.00297915 1.00664 
-0.00127521 0.00215372 1.007 
-0.00174104 0.00109901 1.0068 
-0.00224032 -5.45914e-05 1.0066 
-0.00283617 -0.00135311 1.00656 
-0.00344992 -0.00284369 1.00654 
-0.00393562 -0.00455786 1.00652 
-0.00451697 -0.00625245 1.00644 
-0.00503717 -0.00799721 1.00639 
-0.00555763 -0.00984226 1.00633 
-0.00607921 -0.0115491 1.00625 
-0.00661585 -0.013025 1.00614 
-0.00724056 -0.0142762 1.00605 
-0.00799323 -0.0153397 1.00603 
-0.00888498 -0.0161863 1.00605 
-0.00988867 -0.0166704 1.00608 
-0.0110638 -0.0165975 1.00608 
-0.0124384 -0.0156828 1.00604 
-0.014137 -0.0134424 1.00597 
-0.0161896 -0.009915 1.00592 
-0.0187316 -0.00556508 1.00597 
-0.0210697 -0.00122705 1.00624 
-0.0228364 0.00334695 1.0065 
-0.0232539 0.00742606 1.0067 
-0.0201452 0.00918364 1.00719 
-0.0116399 0.00817825 1.00759 
0.00178962 0.00468287 1.00718 
0.020916 0.0019393 1.00668 
0.0503514 0.00985253 1.00457 
0.0831928 0.0137252 1.00138 
0.127373 -0.00704913 0.99636 
0.182919 0.00383948 0.987523 
0.20505 0.224925 0.954011 
0.222422 0.155349 0.964665 
0.251144 0.17364 0.957865 
0.283019 0.44421 0.854009 
0.1324 0.83259 0.540675 
-0.00279201 0.940826 0.246644 
-0.0845921 0.909492 -0.408865 
-0.269323 0.409476 -0.885805 
-0.231257 0.384862 -0.903735 
-0.240966 0.1234 -0.961665 
-0.200461 0.0912502 -0.978008 
-0.159796 0.0518538 -0.989069 
-0.119534 0.0225308 -0.996653 
-0.078957 0.00330166 -1.00197 
-0.046299 -0.0114857 -1.00498 
-0.0199883 0.00119947 -1.0066 
-0.00210207 0.00383313 -1.00744 
0.0110453 0.00599579 -1.00737 
0.0196059 0.0087379 -1.00735 
0.0230789 0.00754088 -1.00688 
0.0226381 0.00309634 -1.0065 
0.0209911 -0.00170004 -1.00613 
0.0187882 -0.00615314 -1.00532 
0.0163834 -0.00992441 -1.00584 
0.0142775 -0.0130331 -1.00593 
0.0125168 -0.0152292 -1.00592 
0.0111107 -0.0163581 -1.00607 
0.00989845 -0.0165357 -1.00612 
0.00893393 -0.0161161 -1.00614 
0.00803747 -0.0153155 -1.00603 
0.00729848 -0.0143161 -1.0061 
0.00669399 -0.0130628 -1.00676 
0.00614559 -0.0116236 -1.00627 
0.00560944 -0.0099249 -1.00633 
0.00507723 -0.00810044 -1.0057 
0.00450226 -0.00626301 -1.00634 
0.00388027 -0.00451169 -1.00709 
0.00329446 -0.00289146 -1.00656 
0.0027612 -0.00129637 -1.00663 
0.00223095 4.27142e-06 -1.00665 
0.00172564 0.00115428 -1.00669 
0.00127148 0.00218191 -1.007 
0.000793367 0.00298663 -1.00672 
0.000352778 0.00364165 -1.00638 
-0.000171521 0.00405181 -1.00366 
-5.76339e-05 0.00454912 1.00362 
-0.000588218 0.0043171 1.00624 
-0.000955544 0.00345902 1.00606 
-0.00142615 0.00265856 1.00757 
-0.00191737 0.00161811 1.00692 
-0.00237496 0.000427775 1.00659 
-0.00290962 -0.000910617 1.00656 
-0.00337406 -0.0023793 1.00647 