# vtk DataFile Version 3.0 
Exported using Morpho https://github.com/Morpho-lang/morpho 
ASCII 
DATASET UNSTRUCTURED_GRID 

POINTS 1978 float 
-8.50871 -2.84609 2.13146e-07 
-8.27131 -2.82833 2.45933e-07 
-7.97246 -2.85136 1.64464e-07 
-7.72365 -2.98319 3.80217e-08 
-7.49769 -2.76897 -1.02861e-07 
-7.2815 -2.88354 7.50056e-08 
-7.05882 -2.856 -1.93386e-07 
-6.74774 -2.86987 -1.17096e-07 
-6.54825 -2.85485 -7.44064e-08 
-6.3428 -2.85574 -8.51585e-08 
-6.12458 -2.86576 -8.47908e-08 
-5.91294 -2.85834 -1.26493e-07 
-5.70094 -2.86189 -1.07498e-07 
-5.48843 -2.86459 -1.5118e-07 
-5.2784 -2.86041 -1.78522e-07 
-5.06778 -2.8563 -1.77959e-07 
-4.85637 -2.85836 -1.78141e-07 
-4.64691 -2.86013 -1.09421e-07 
-4.43546 -2.86194 -8.57243e-07 
-4.22447 -2.8588 1.23152e-07 
-4.01872 -2.86415 -1.2523e-06 
-3.80497 -2.86633 2.57247e-06 
-3.59701 -2.83234 1.2041e-06 
-3.38749 -2.94472 2.20343e-06 
-3.17845 -2.84062 2.23549e-06 
-2.96956 -2.89908 -3.20481e-06 
-2.76953 -2.76969 3.48016e-05 
-2.5697 -2.89888 0.000164804 
-2.33274 -2.76762 -0.000401157 
-2.13121 -2.96521 -0.0039039 
-1.92672 -1.59618 -0.146582 
-1.43452 -12.6648 0.456339 
-1.49807 14.6905 -0.196235 
-0.971853 -66.5909 5.18058 
-2.16445 161.409 62.9966 
-0.777781 -288.505 -123.466 
2.32979 245.342 10.3526 
0.815929 -178.047 124.066 
-0.842096 190.336 -148.473 
-50.4843 -1210.17 2237.77 
507.302 2924.86 -405.674 
-412.539 -1375.46 -1724.62 
-34.9328 -157.411 186.617 
-5.7829 -304.831 -148.351 
-1.74028 -130.765 22.718 
0.913724 125.099 -66.4447 
1.35829 5.54119 -3.41307 
1.22824 4.27886 -3.30685 
1.89351 -3.36063 0.0125486 
2.18233 -3.0459 0.00198269 
2.3687 -2.78589 2.01409e-06 
2.5685 -2.56227 -1.12017e-05 
2.7672 -3.06895 1.03471e-05 
2.97757 -2.83235 3.13344e-06 
3.18798 -2.93878 -2.14986e-06 
3.40083 -2.82208 -1.59371e-06 
3.61675 -2.87537 -1.78567e-06 
3.82268 -2.85962 -1.4903e-06 
4.03656 -2.86131 9.13511e-07 
4.24465 -2.86104 -6.75593e-08 
4.45193 -2.85723 4.05759e-07 
4.66206 -2.86016 2.46483e-07 
4.87278 -2.85843 2.42028e-07 
5.08336 -2.85951 2.15688e-07 
5.2952 -2.86146 1.80424e-07 
5.50719 -2.86051 1.39277e-07 
5.71979 -2.86243 1.26447e-07 
5.93449 -2.86318 1.14673e-07 
6.15022 -2.8603 1.02154e-07 
6.36591 -2.86067 8.0762e-08 
6.58533 -2.85936 7.94733e-08 
6.80904 -2.86145 1.39185e-07 
7.03506 -2.85906 1.26811e-07 
7.264 -2.86196 2.48758e-08 
7.4995 -2.8599 6.19196e-08 
7.73985 -2.85932 -1.06525e-07 
7.98848 -2.87148 -1.22096e-07 
8.22792 -2.84182 -1.82122e-07 
8.4863 -2.86072 -2.32285e-07 
-8.52424 -2.59958 -1.13601e-07 
-8.24528 -2.57196 4.32815e-11 
-8.02973 -2.64442 -5.01637e-12 
-7.74727 -2.61392 1.50083e-11 
-7.50163 -2.59007 3.527e-11 
-7.27474 -2.59129 -2.7762e-11 
-7.05348 -2.58253 4.51576e-11 
-6.85088 -2.66502 1.35681e-10 
-6.61139 -2.56646 9.65835e-11 
-6.40676 -2.58264 5.80696e-11 
-6.19351 -2.59617 9.71608e-11 
-5.97578 -2.59522 1.0973e-10 
-5.7601 -2.59736 8.18121e-11 
-5.5439 -2.59927 4.86365e-11 
-5.32793 -2.59796 -2.04308e-11 
-5.11358 -2.59937 -1.03587e-10 
-4.89807 -2.59987 -1.27059e-10 
-4.68312 -2.59762 -1.31936e-10 
-4.46921 -2.60116 7.45463e-11 
-4.25281 -2.60041 4.74885e-10 
-4.0367 -2.5998 1.10598e-09 
-3.81962 -2.59988 2.06706e-09 
-3.59805 -2.5934 -2.33948e-08 
-3.37628 -2.59648 3.90353e-08 
-3.15132 -2.5964 4.28822e-10 
-2.9268 -2.58639 -7.67593e-08 
-2.70382 -2.57651 -7.83595e-08 
-2.46526 -2.58888 8.37103e-07 
-2.21864 -2.57552 1.8738e-06 
-1.97696 -2.57753 4.58295e-06 
-1.73683 -2.61163 1.19665e-05 
-1.51927 -2.58562 3.16685e-05 
-1.31083 -2.60434 6.16896e-05 
-1.13487 -2.69301 0.000141545 
-0.979053 -2.63073 0.000223402 
-0.821278 -2.74075 0.000467612 
-0.7189 -2.78647 0.000419251 
-0.598858 -2.66044 0.000965933 
-0.387322 -2.87369 -0.00593827 
0.0189632 -2.71982 0.000281218 
0.445585 -2.73887 0.00141579 
0.637222 -2.73935 -0.00103519 
0.730014 -2.7862 -0.000681089 
0.882412 -2.63666 -0.000184097 
1.03429 -2.69683 -0.000191186 
1.14521 -2.60756 -0.000160088 
1.3386 -2.60848 -8.46913e-05 
1.55812 -2.62375 -2.92877e-05 
1.77036 -2.57495 -9.97902e-06 
2.01664 -2.5911 -5.13184e-06 
2.2724 -2.59295 -1.9559e-06 
2.51071 -2.55985 -5.38245e-07 
2.73019 -2.5829 7.17414e-08 
2.95384 -2.595 -1.94166e-08 
3.17965 -2.59636 -2.44492e-08 
3.40484 -2.59539 -4.1811e-08 
3.62838 -2.60031 2.20358e-08 
3.84577 -2.59973 -1.82389e-09 
4.059 -2.59822 -9.43532e-10 
4.2708 -2.5983 -3.90262e-10 
4.48239 -2.59848 -5.56816e-11 
4.69374 -2.59839 1.14859e-10 
4.90507 -2.59758 1.40957e-10 
5.11729 -2.59838 8.90878e-11 
5.3296 -2.59771 1.73958e-11 
5.54273 -2.59753 -4.10828e-11 
5.75689 -2.59802 -7.97319e-11 
5.97164 -2.59711 -9.86519e-11 
6.18651 -2.59414 -1.01316e-10 
6.40381 -2.59492 -9.70152e-11 
6.62433 -2.59574 -8.23952e-11 
6.84666 -2.59458 -5.95432e-11 
7.0721 -2.59482 -3.81256e-11 
7.30295 -2.59887 -2.42749e-11 
7.5385 -2.60125 -1.23796e-11 
7.77977 -2.60683 -6.17294e-12 
8.01715 -2.60513 -4.32879e-12 
8.26425 -2.61017 -2.85313e-11 
8.52458 -2.58115 1.49598e-07 
-8.49961 -2.37043 -1.79483e-07 
-8.2712 -2.31721 5.44359e-13 
-8.04243 -2.39448 4.01086e-12 
-7.81814 -2.42703 -2.97901e-12 
-7.59434 -2.18261 -4.06081e-11 
-7.55018 -2.37849 1.51631e-11 
-7.29879 -2.36507 5.75864e-12 
-7.05557 -2.35764 -3.34561e-11 
-6.80745 -2.43235 -3.05348e-12 
-6.56364 -2.32425 -3.38469e-11 
-6.34481 -2.3497 -2.7478e-11 
-6.12401 -2.36462 -1.60653e-11 
-5.90234 -2.36572 -7.37621e-11 
-5.68101 -2.37019 -6.12691e-11 
-5.46101 -2.37156 -8.08889e-11 
-5.24202 -2.37006 -9.34224e-11 
-5.02451 -2.3728 -1.04738e-10 
-4.80846 -2.37079 -9.51666e-11 
-4.59171 -2.36996 -3.86261e-11 
-4.37693 -2.3745 -1.24443e-11 
-4.16061 -2.37335 -1.5242e-11 
-3.94439 -2.37256 -3.70364e-11 
-3.72606 -2.37267 1.16929e-10 
-3.50234 -2.36738 4.0665e-10 
-3.27891 -2.36803 6.02023e-10 
-3.05287 -2.36186 -5.41238e-12 
-2.82188 -2.34496 -3.6776e-08 
-2.5766 -2.34943 -8.32291e-08 
-2.32997 -2.34366 -1.77248e-07 
-2.07363 -2.33637 6.19468e-07 
-1.82043 -2.34067 6.89221e-07 
-1.5834 -2.35456 -4.01291e-07 
-1.37459 -2.36839 -6.61678e-07 
-1.17008 -2.41412 -4.98891e-06 
-1.02664 -2.45687 3.22298e-06 
-0.863939 -2.52375 -1.97784e-05 
-0.614777 -2.59633 0.000352354 
-0.366074 -2.71348 -0.0023954 
-0.18833 -2.73881 0.00183373 
-0.0599519 -2.73834 0.0012868 
0.252431 -2.77797 -0.00066727 
0.580085 -2.69436 -0.000620445 
0.689082 -2.59385 0.000113802 
0.814096 -2.49894 -0.000195653 
0.997757 -2.4649 -4.14238e-05 
1.16289 -2.40969 1.08091e-05 
1.34792 -2.41147 -7.14568e-07 
1.54576 -2.35118 -6.01306e-06 
1.76517 -2.32789 -3.08417e-06 
1.99636 -2.35543 1.81516e-07 
2.25155 -2.35631 2.25327e-08 
2.49678 -2.32703 1.11631e-07 
2.74096 -2.34351 9.26244e-08 
2.97076 -2.36201 -9.07486e-10 
3.20141 -2.36973 -1.1432e-09 
3.42883 -2.37222 -6.93693e-10 
3.64877 -2.37286 -2.41749e-10 
3.86365 -2.37022 -5.54588e-11 
4.0766 -2.36854 -2.07578e-11 
4.28895 -2.36881 5.4108e-12 
4.50027 -2.36805 5.3862e-11 
4.71182 -2.36761 9.33428e-11 
4.92447 -2.36737 1.03779e-10 
5.13698 -2.3674 9.80519e-11 
5.35097 -2.36717 8.18457e-11 
5.56561 -2.36679 6.64938e-11 
5.7798 -2.36585 5.4139e-11 
5.99443 -2.36314 4.2834e-11 
6.21141 -2.3603 3.22691e-11 
6.43024 -2.36103 2.21907e-11 
6.64995 -2.35993 1.3486e-11 
6.87326 -2.35958 8.06224e-12 
7.10173 -2.36313 5.1288e-12 
7.33446 -2.36987 3.25501e-12 
7.5727 -2.37643 6.29898e-13 
7.80677 -2.37628 9.20113e-13 
8.04488 -2.38608 -7.74504e-12 
8.26777 -2.36109 -1.06044e-11 
8.56658 -2.3308 1.71521e-07 
-8.53049 -2.11624 -1.14464e-07 
-8.27421 -2.05366 -1.2752e-11 
-8.06034 -2.15467 1.66217e-11 
-7.829 -2.18632 1.1928e-11 
-7.58794 -1.96549 -7.14745e-12 
-7.33519 -2.15205 3.17578e-11 
-7.08323 -2.14412 -1.27178e-13 
-6.81812 -2.21996 -5.37204e-11 
-6.57845 -2.10994 -4.71066e-11 
-6.3336 -2.11211 -3.04062e-11 
-6.11761 -2.13234 -7.95593e-11 
-5.89854 -2.13422 -4.75968e-11 
-5.67948 -2.14249 -7.2833e-11 
-5.46191 -2.14118 -8.46202e-11 
-5.24531 -2.14237 -8.09741e-11 
-5.02738 -2.14461 -7.22837e-11 
-4.81109 -2.14156 -6.22419e-11 
-4.59598 -2.1423 -3.51969e-11 
-4.37931 -2.14501 -4.5425e-12 
-4.16465 -2.14573 -1.56533e-11 
-3.94801 -2.14389 -9.09937e-11 
-3.73087 -2.14498 -1.31048e-10 
-3.51034 -2.14088 2.98127e-10 
-3.28534 -2.13725 1.15745e-09 
-3.05697 -2.13064 -2.29506e-08 
-2.81672 -2.11763 -2.00707e-08 
-2.57274 -2.11522 1.7179e-08 
-2.3236 -2.11022 -1.10468e-07 
-2.08241 -2.09438 -8.35231e-08 
-1.84087 -2.11498 -4.00065e-08 
-1.596 -2.12407 5.41879e-07 
-1.3849 -2.14196 2.36338e-06 
-1.19613 -2.21646 4.95203e-06 
-1.22549 -1.99053 9.43926e-06 
-1.0224 -2.24027 -3.91847e-05 
-0.899313 -2.36575 -2.95856e-05 
-0.745144 -2.54361 0.000126906 
-0.506404 -2.77073 0.00118279 
-0.0909714 -2.64534 0.00274965 
0.104626 -2.70221 0.000307011 
0.375265 -2.70997 -0.00103651 
0.473789 -2.65526 -0.000616604 
0.574099 -2.52343 -0.00019839 
0.848285 -2.36745 2.40796e-05 
0.97507 -2.28021 -7.00021e-05 
1.09872 -2.20928 -9.03034e-06 
1.29051 -2.20352 -8.89924e-06 
1.48059 -2.12836 2.66619e-06 
1.70083 -2.08654 2.61365e-06 
1.93553 -2.09949 3.53257e-07 
2.17092 -2.12681 -2.18667e-08 
2.41402 -2.09689 -2.02229e-08 
2.66384 -2.10721 -7.65621e-08 
2.90097 -2.12513 -1.08322e-09 
3.13114 -2.13935 -1.73123e-09 
3.35762 -2.14526 -5.07005e-10 
3.58077 -2.14453 -1.96952e-11 
3.79958 -2.14042 1.57999e-10 
4.01526 -2.13883 1.03116e-10 
4.23025 -2.13936 2.43957e-11 
4.44434 -2.13775 1.64321e-11 
4.65815 -2.13732 3.51347e-11 
4.87275 -2.13763 6.02804e-11 
5.08839 -2.13657 9.48302e-11 
5.30447 -2.13754 6.94586e-11 
5.52247 -2.13683 8.30449e-11 
5.74084 -2.13384 7.32651e-11 
5.95832 -2.13061 2.49916e-10 
6.17725 -2.12824 5.8146e-11 
6.39933 -2.12733 3.33819e-11 
6.62211 -2.12399 5.15579e-11 
6.84592 -2.12465 4.64293e-11 
7.07388 -2.13037 7.45029e-13 
7.30687 -2.13883 6.40452e-12 
7.5435 -2.14903 -1.12863e-11 
7.7837 -2.14502 1.87325e-11 
8.02184 -2.1531 -7.29741e-12 
8.25006 -2.11651 6.5835e-12 
8.48256 -2.09907 1.46689e-07 
-8.50987 -1.86013 -3.84183e-08 
-8.26955 -1.79136 -1.15862e-11 
-8.05869 -1.90586 -5.42057e-12 
-7.83688 -1.95635 4.07085e-13 
-7.33224 -1.93856 -4.76296e-11 
-7.10224 -1.9186 1.36187e-12 
[...]
POINT_DATA 1978 
VECTORS vectors float
0.00195086 -0.00359396 0.184221 
-0.0079765 -0.000309853 -0.232178 
-0.0221449 -0.000120399 -0.189409 
-0.0290231 1.58125e-05 -0.0916123 
-0.0264287 0.000134265 -0.140072 
-0.0286472 -0.000352314 0.182607 
-0.0504976 0.00158177 -0.526291 
-0.051521 0.000549243 -0.11568 
-0.0343244 0.000724054 -0.122393 
-0.0362063 0.000793045 -0.111625 
-0.0352023 0.000812973 -0.0968229 
-0.0298631 0.000846384 -0.0881599 
-0.0254895 0.000848165 -0.0785344 
-0.0186967 0.00086663 -0.0722612 
-0.00812258 0.000967027 -0.073692 
0.00670128 0.00108383 -0.0768811 
0.0266146 0.00109071 -0.0732897 
0.0529693 0.000781665 -0.0507725 
0.0846712 0.00035572 -0.0228325 
0.119737 -0.000429545 0.0279719 
0.165546 -0.00151296 0.103241 
0.210932 -0.00283158 0.212463 
0.243192 -0.00397953 0.357362 
0.299239 -0.00490489 0.627692 
0.383965 -0.00232723 0.879379 
0.417759 0.0062589 1.19406 
0.454569 0.0301878 2.01222 
0.591167 0.0832803 2.97806 
0.754432 0.234466 4.97267 
1.56644 0.53882 7.56171 
-0.331508 1.34012 12.8604 
-15.1172 4.54552 30.725 
-22.7848 26.6156 126.747 
-0.862679 89.1172 306.219 
5.04621 -8.52962 -21.9165 
-70.2895 68.2595 132.923 
24.4669 80.0269 121.232 
-6.86899 -36.322 -41.9388 
27.4929 -486.615 -339.059 
-13.2095 531.738 -67.555 
-12.8192 179.785 -143.233 
-17.5403 331.524 -403.812 
23.2376 130.081 -204.983 
-2.15922 129.452 -243.565 
-119.113 -631.137 1574.09 
47.3466 32.2427 -111.241 
117.638 11.7677 -58.1932 
-2.16321 3.81493 -26.464 
-1.1628 1.45411 -14.2645 
-1.49332 0.597193 -8.76263 
-0.903268 0.183739 -4.17922 
-0.338933 0.0743075 -2.63239 
-0.386643 0.0275193 -1.78398 
-0.441024 0.00584599 -1.32319 
-0.406669 -0.00289802 -0.930874 
-0.3077 -0.0046492 -0.575014 
-0.256823 -0.00416875 -0.364019 
-0.206415 -0.00273045 -0.201728 
-0.154204 -0.00138499 -0.0939766 
-0.114354 -0.000317685 -0.0206911 
-0.0803112 0.000425552 0.0274287 
-0.050151 0.000858555 0.0561314 
-0.0250473 0.00105149 0.0713313 
-0.00576208 0.00106659 0.0765571 
0.00811163 0.000998911 0.0771746 
0.0178203 0.000926392 0.0782027 
0.0249937 0.000863167 0.080799 
0.0307483 0.000828164 0.0874034 
0.0351284 0.000806105 0.0978879 
0.0386891 0.000768146 0.11025 
0.0411851 0.000711429 0.125503 
0.0408846 0.000619322 0.141333 
0.0382593 0.00049827 0.158169 
0.0346811 0.000345685 0.172237 
0.0307362 0.000178457 0.185526 
0.0264001 7.57793e-06 0.196907 
0.0130546 -0.000151589 0.206559 
0.00271459 -0.000269927 0.213548 
-0.0022925 -0.0037951 -0.201161 
0.000269237 -0.00526121 0.190611 
0.000466906 -0.00194599 -2.01561 
-4.25403e-05 -0.000984549 -1.53049 
-4.90304e-05 0.000281526 -1.5065 
3.49896e-05 0.00155117 -1.42724 
2.13071e-05 0.00262138 -1.30598 
6.31156e-05 0.00421574 -1.41775 
-0.000187304 0.0038156 -0.944938 
0.000142666 0.00718144 -1.34634 
0.000203609 0.00860164 -1.32881 
0.000251046 0.0100337 -1.30549 
0.000405598 0.0113321 -1.27384 
0.000555203 0.012595 -1.25052 
0.000732274 0.0137997 -1.23091 
0.000996019 0.014972 -1.2212 
0.00134372 0.0160828 -1.22188 
0.00179428 0.0169425 -1.2235 
0.00239075 0.0174485 -1.22419 
0.00307899 0.017481 -1.215 
0.00394834 0.0171317 -1.21351 
0.00488641 0.0162666 -1.21819 
0.00582678 0.0147872 -1.23836 
0.00662191 0.0122142 -1.26707 
0.00750843 0.00842567 -1.38331 
0.0072672 0.00103985 -1.39249 
0.00710495 -0.0113714 -1.49838 
0.00817275 -0.0386214 -2.00378 
0.00629539 -0.0678536 -1.88991 
0.00117442 -0.121386 -2.07733 
-0.00630223 -0.194847 -2.21116 
-0.0139018 -0.269498 -2.0745 
-0.0144579 -0.334284 -1.80458 
-0.0138648 -0.259813 -1.01858 
-0.00597983 -0.124329 -0.358279 
0.00680126 0.146202 0.32112 
0.00267448 0.0922314 0.148814 
0.0351384 0.67978 0.881604 
0.00934354 1.26952 1.22808 
0.000490568 0.0603032 0.0321338 
-0.0672719 2.32351 -0.111176 
0.0178783 -3.82301 2.53297 
0.0270313 1.45407 -1.55288 
0.0399404 -1.77186 2.55266 
0.0335481 -0.553579 0.984077 
-0.00722649 0.259255 -0.564733 
0.00356471 -0.114709 0.332699 
0.00305076 -0.15879 0.642961 
0.0124668 -0.303677 1.75766 
0.0110539 -0.251498 2.07033 
0.00184102 -0.182823 2.24147 
-0.0036651 -0.105617 2.01235 
-0.00566462 -0.069656 2.18961 
-0.00637465 -0.0261213 1.55522 
-0.00470904 -0.00555211 0.988229 
-0.00731732 0.00263342 1.4225 
-0.00692173 0.00878506 1.29333 
-0.00646918 0.012564 1.24928 
-0.00567221 0.0148532 1.2201 
-0.00476911 0.0161858 1.20462 
-0.00384401 0.0168691 1.19575 
-0.00304176 0.0172564 1.20422 
-0.00234271 0.0171423 1.20791 
-0.00178336 0.016662 1.21178 
-0.00133732 0.0158599 1.21392 
-0.00100907 0.0148481 1.21838 
-0.000760157 0.0136887 1.22509 
-0.00056233 0.0124746 1.23841 
-0.000403382 0.0112353 1.25985 
-0.00027407 0.00994523 1.28642 
-0.000154928 0.00859583 1.31847 
-6.7413e-05 0.00715349 1.35221 
-2.41478e-05 0.00565812 1.38597 
-8.79761e-06 0.00413928 1.41572 
5.3971e-06 0.00265067 1.44237 
5.50045e-06 0.00125448 1.46179 
-4.70206e-05 1.63483e-05 1.47703 
-0.000182102 -0.000910387 1.46961 
-0.000352265 -0.00161689 1.5018 
-0.000509487 -0.00571136 0.193822 
0.000502827 -0.00393109 -0.233118 
0.000542858 -0.00127155 -1.53674 
0.000429043 -0.000784908 -1.46074 
0.000330018 -4.68112e-05 -1.38769 
0.000665382 0.00101187 -1.62947 
0.000416834 0.00117169 -1.49312 
0.00061914 0.00337834 -1.87824 
0.00035985 0.00286101 -0.963942 
0.000455707 0.00588192 -1.3801 
0.00110657 0.00969463 -1.79739 
0.000911523 0.00876803 -1.33263 
0.000988295 0.00965402 -1.24217 
0.00134019 0.0120703 -1.3518 
0.00151424 0.0127191 -1.2635 
0.00181629 0.0138426 -1.24664 
0.00222053 0.0148602 -1.23766 
0.0020026 0.0114823 -0.903797 
0.00431611 0.0204984 -1.56619 
0.00420567 0.0161937 -1.22526 
0.00513241 0.0159553 -1.22023 
0.00624034 0.0152675 -1.22107 
0.00736896 0.0140235 -1.23265 
0.00831094 0.0120074 -1.25803 
0.00831252 0.00844076 -1.22881 
0.00835771 0.00413517 -1.3489 
0.00687478 -0.0036214 -1.42388 
0.00416374 -0.0166717 -1.50975 
0.000278189 -0.029551 -1.22041 
-0.00593768 -0.0723158 -1.71977 
-0.0190537 -0.122281 -1.83826 
-0.0306168 -0.157983 -1.57011 
-0.0365517 -0.177616 -1.20183 
-0.0388975 -0.183104 -0.882774 
0.00332549 0.0164298 0.0564244 
0.0327523 0.15889 0.410876 
0.0872243 0.651568 1.21328 
0.0788355 0.668129 0.733788 
0.06173 0.748104 0.502175 
0.00595048 -1.1681 -0.17915 
-0.0159242 1.74064 0.120787 
-0.0826297 3.31957 -0.912921 
0.157696 -3.57929 3.53143 
0.169859 -1.64869 1.99268 
-0.126308 0.775887 -1.3156 
-0.0360531 0.225656 -0.535298 
-0.00470893 0.02576 -0.0842994 
0.0301693 -0.167652 0.754953 
0.0245816 -0.120993 0.766463 
0.0307147 -0.151075 1.35871 
0.0205164 -0.12898 1.66744 
0.00944054 -0.0890556 1.79078 
0.00264804 -0.0459212 1.58058 
-0.00284686 -0.022434 1.50391 
-0.00742758 -0.00898239 1.87917 
-0.00739769 0.00240025 1.34078 
-0.00833313 0.00774243 1.28616 
-0.00834138 0.0110541 1.24559 
-0.0076631 0.0132212 1.22038 
-0.0066374 0.0146163 1.20684 
-0.00556341 0.0155035 1.20694 
-0.00455581 0.0158848 1.20751 
-0.00371143 0.0159292 1.21311 
-0.0030125 0.0156139 1.21751 
-0.00246022 0.015011 1.22337 
-0.00202343 0.0141492 1.23021 
-0.00168317 0.0131194 1.24129 
-0.00140919 0.0119826 1.2569 
-0.00118392 0.0107779 1.27812 
-0.000987711 0.00951852 1.30553 
-0.000809696 0.0081843 1.33525 
-0.000675024 0.00678756 1.36613 
-0.000572449 0.00533112 1.39479 
-0.000492144 0.00385976 1.42225 
-0.000426577 0.00241412 1.4379 
-0.000379071 0.00109542 1.46094 
-0.000377817 -1.32888e-06 1.46642 
-0.000420288 -0.00082815 1.402 
-0.000397713 -0.000975882 1.11018 
-0.000469023 -0.00385278 0.18897 
0.000281662 -0.00383125 -0.211745 
0.000415374 -0.00132642 -1.5163 
0.000477272 -0.000805201 -1.46514 
0.000310185 -4.67518e-05 -0.899801 
0.00043366 0.000465127 -0.794646 
0.000963776 0.0028881 -1.85611 
0.000890138 0.00386107 -1.43787 
0.000924243 0.00561528 -1.40069 
0.00130081 0.00705448 -1.37605 
0.0015289 0.00855623 -1.34566 
0.00181933 0.0104226 -1.397 
0.0018934 0.0105939 -1.23868 
0.00230367 0.0123058 -1.28142 
0.00268634 0.0133511 -1.26585 
0.00313891 0.0141813 -1.25137 
0.00473481 0.0188397 -1.58415 
0.00331276 0.0111595 -0.917294 
0.00540824 0.0151253 -1.24436 
0.00647274 0.0147399 -1.24058 
0.00767189 0.0139533 -1.24054 
0.00890785 0.0126263 -1.2513 
0.00976782 0.0106645 -1.27134 
0.0104467 0.00832885 -1.3787 
0.00905418 0.00399346 -1.38335 
0.00666456 -0.00257919 -1.49185 
0.00216625 -0.0142012 -1.6242 
-0.0065772 -0.0431703 -2.1726 
-0.0185473 -0.0700642 -1.95994 
-0.0378478 -0.110049 -1.96405 
-0.0606811 -0.163255 -1.90259 
-0.0832377 -0.217625 -1.74305 
-0.0437758 -0.115748 -0.655258 
-0.0571516 -0.150491 -0.599222 
-0.0246816 -0.0445165 -0.249039 
0.00019372 0.000489655 0.00150991 
0.0372943 0.130053 0.287067 
0.139173 0.759903 1.10331 
0.171226 3.68756 2.87872 
-0.0151022 -5.1034 -0.804144 
-0.18007 3.67707 -0.720799 
-0.0644734 2.34209 -1.37351 
-0.256306 2.83268 -2.34854 
-0.0535683 0.296212 -0.336945 
-0.184197 0.589527 -1.18651 
0.0185278 -0.0602894 0.154137 
-0.0339158 0.091934 -0.317394 
0.0423086 -0.120856 0.565734 
0.0699307 -0.174006 1.19844 
0.0899044 -0.219473 2.17556 
0.0390919 -0.107127 1.49969 
0.027604 -0.0922626 1.89098 
0.0143292 -0.0550217 1.90003 
0.00269993 -0.0272824 1.80033 
-0.00342379 -0.00891782 1.49697 
-0.00729238 0.000527612 1.45574 
-0.00925852 0.0059247 1.36047 
-0.00991506 0.009113 1.29691 
-0.00954488 0.0113256 1.25989 
-0.00856317 0.0129363 1.24066 
-0.00729527 0.0139808 1.22599 
-0.00615024 0.0146788 1.22913 
-0.00513134 0.0149454 1.23184 
-0.00430025 0.0149422 1.24137 
-0.00361009 0.0145462 1.24732 
-0.00305639 0.0139128 1.25814 
-0.00260221 0.0129651 1.26637 
-0.00223483 0.0118729 1.27956 
-0.00192553 0.0106633 1.29422 
-0.00166047 0.00940264 1.31448 
-0.00143236 0.00811133 1.34254 
-0.00124674 0.0067359 1.3704 
-0.00107982 0.00530951 1.39514 
-0.000928391 0.0038845 1.42275 
-0.00079045 0.00248808 1.44765 
-0.00066218 0.00119817 1.46493 
-0.000559012 8.65272e-05 1.47425 
-0.000505578 -0.000786318 1.54819 
-0.00055074 -0.0015627 1.85357 
-0.000265819 -0.00371587 0.213053 
8.70189e-05 -0.00462532 -0.204486 
0.000266998 -0.0015549 -1.50926 
0.000480631 -0.000973718 -1.45345 
0.000913455 -0.000318052 -2.09776 
0.000722774 0.00158131 -1.06163 
0.00143669 0.00446163 -1.79066 
0.00115754 0.00323296 -1.50443 
0.00124476 0.00526765 -1.40263 
0.00153705 0.00625866 -1.38156 
0.00178518 0.00775969 -1.36853 
0.00209483 0.00909487 -1.34245 
0.00239257 0.0103162 -1.32264 
0.0027296 0.0114431 -1.2988 
0.00317403 0.0125233 -1.28906 
0.00367762 0.0133536 -1.27621 
0.00427767 0.0139185 -1.26468 
0.00505694 0.0141717 -1.261 
0.00597353 0.0140457 -1.25534 
0.00703197 0.0136194 -1.25014 
0.00827027 0.0128648 -1.25056 
0.00959679 0.0117542 -1.26187 
0.0107433 0.0101001 -1.28094 
0.0112217 0.0079594 -1.31046 
0.0106023 0.00516041 -1.35815 
0.00842925 0.000950911 -1.43567 
0.0041106 -0.00631198 -1.53669 
-0.00361122 -0.0192765 -1.64696 
-0.0162432 -0.0400804 -1.77435 
-0.0334616 -0.0639734 -1.75922 
-0.0538125 -0.0946832 -1.65696 
-0.0696225 -0.119607 -1.4224 
-0.0662604 -0.110698 -0.928936 
-0.062502 -0.0766154 -0.59041 
-0.101501 -0.113366 -0.657623 
-0.0315417 -0.0510325 -0.223751 
0.10315 0.213647 0.558492 
-0.0494336 -0.172634 -0.303751 
0.752583 6.16067 3.54777 
0.170758 1.95716 1.35851 
0.161102 -3.88282 0.351959 
-0.086719 1.51283 -0.62288 
-0.449462 2.6388 -2.07693 
-0.136251 0.523872 -0.760552 
-0.0270465 0.0474987 -0.118458 
-0.146407 0.262817 -0.826437 
0.0405089 -0.067633 0.301217 
0.0561262 -0.0966997 0.5772 
0.0704355 -0.111955 0.994633 
0.0648569 -0.103982 1.34069 
0.0647247 -0.112037 2.08041 
0.0333023 -0.0655793 1.81258 
0.0156701 -0.037336 1.81018 
0.00294578 -0.0159846 1.52789 
-0.00335353 -0.00418908 1.23029 
-0.00800976 0.00177926 1.37196 
-0.0105295 0.00581034 1.36031 
-0.0112261 0.00835683 1.31582 
-0.0107517 0.0102869 1.28704 
-0.00949172 0.0116876 1.25292 
-0.00821526 0.0128538 1.24856 
-0.00692434 0.0134348 1.23374 
-0.00592796 0.0139243 1.24729 
-0.00501132 0.0139191 1.24688 
-0.00572096 0.0182655 1.68081 
-0.0034898 0.0124981 1.20437 
-0.00318913 0.0124078 1.28859 
-0.00275208 0.011337 1.29794 
-0.00238074 0.0101767 1.31291 
-0.00206456 0.00898023 1.33774 
-0.00132887 0.00572231 1.0119 
-0.00154648 0.00632008 1.38206 
-0.00175801 0.0064784 1.85273 
-0.00115964 0.00354442 1.44026 
-0.000989455 0.0021718 1.45468 
-0.000582989 0.000651955 1.02857 
-0.000872694 -0.000173521 1.9228 
-0.000358755 -0.00063457 1.02785 
-0.000322158 -0.00146033 1.4978 
-8.6217e-05 -0.00449411 0.199573 
-1.87503e-05 -0.00516193 -0.196777 
0.00013628 -0.00166489 -1.47925 
0.000375524 -0.00104155 -1.44428 
0.000569718 -0.000284887 -1.45218 
0.000761034 0.000709786 -1.43706 
0.000877843 0.00178552 -1.36376 
0.00128349 0.0041839 -1.39824 
0.00131287 0.00448804 -1.39455 
0.00108941 0.00398771 -0.966607 
0.00188079 0.00719911 -1.37339 
0.00222518 0.00850313 -1.35248 
0.00339829 0.012661 -1.73341 
0.00205399 0.00743211 -0.897877 
0.00344795 0.0118091 -1.29643 
0.00397579 0.0125504 -1.28176 
0.00460816 0.0130472 -1.27127 
0.00536071 0.0131353 -1.26039 
0.00625727 0.0129395 -1.25492 
0.00726214 0.0124017 -1.24644 
0.00843662 0.0116344 -1.24755 
0.00971632 0.0105576 -1.25737 
0.0109584 0.00922328 -1.28119 
0.0117246 0.00746899 -1.31127 
0.0115295 0.00534144 -1.34467 
0.0100343 0.00248502 -1.40445 
0.00654938 -0.00203682 -1.47636 
-2.10688e-06 -0.00980676 -1.55199 
-0.0106963 -0.0216347 -1.61235 
-0.0260206 -0.0358815 -1.58515 
-0.0456846 -0.0564494 -1.50749 
-0.0616998 -0.0725993 -1.28268 
-0.100857 -0.115007 -1.41998 
-0.103676 -0.0836096 -0.995335 
-0.0130662 -0.00944065 -0.0919053 
0.102524 0.159599 0.549713 
-0.0329511 -0.0704134 -0.14918 
0.394318 1.91524 1.9484 
0.326777 1.03817 1.48667 
-0.045222 -1.627 -0.668793 
-0.109376 1.9119 -1.14301 
-0.441737 4.88176 -1.63469 
-0.846455 3.15288 -3.18456 
-0.00536778 0.0122294 -0.0216265 
-0.373042 0.38546 -1.51912 
6.43325e-06 -7.31067e-06 3.43767e-05 
0.0759307 -0.0807244 0.543815 
0.0725274 -0.0802823 0.712878 
0.0702616 -0.0749894 1.01691 
0.0584462 -0.0608548 1.2116 
0.0465023 -0.0549771 1.46041 
0.0232611 -0.0318858 1.27005 
0.0153938 -0.0265203 1.93339 
0.000990518 -0.00979126 1.58376 
-0.00756331 -0.00258894 1.89968 
-0.010326 0.00297109 1.5111 
-0.0109401 0.00539487 1.30078 
-0.00873132 0.00563806 0.979655 
-0.0139513 0.0115856 1.62618 
-0.00725421 0.00773217 0.929567 
-0.0107592 0.0145459 1.57104 
-0.00541325 0.00904603 0.912509 
-0.00835384 0.0168558 1.64221 
-0.00377766 0.00900717 0.866578 
-0.00470935 0.0129173 1.26572 
-0.00301956 0.00929707 0.949562 
-0.00350087 0.0117326 1.28613 
-0.00317859 0.0112968 1.36436 
-0.0024684 0.0091348 1.24026 
-0.00222595 0.00842489 1.32211 
-0.00241388 0.00912713 1.70936 
-0.0017063 0.00624084 1.45287 
-0.00129387 0.00436358 1.33478 
-0.00113816 0.00326331 1.43813 
-0.00093312 0.00194911 1.4595 
-0.000744874 0.000742397 1.4707 
-0.00055225 -0.000293212 1.47029 
-0.000378276 -0.00107476 1.48071 
-0.000160516 -0.00162575 1.48368 
2.18369e-05 -0.00506403 0.199047 
-7.94038e-05 -0.00546217 -0.182088 
4.67521e-05 -0.00180708 -1.45586 
0.000264042 -0.00113152 -1.43532 
0.000456647 -0.000335222 -1.44763 
0.000637958 0.000610542 -1.42121 
0.000803252 0.00156999 -1.41284 
0.0010306 0.00279473 -1.42033 
0.00130867 0.00406497 -1.37733 
0.00202754 0.00700068 -1.73741 
0.00143803 0.00509041 -1.00374 
0.00229222 0.00807011 -1.32418 
0.00261148 0.00896498 -1.27752 
0.00402647 0.0133838 -1.69219 
0.00242228 0.00762337 -0.874295 
0.00534503 0.0155 -1.66675 
0.00319027 0.00828251 -0.854763 
0.00683397 0.0153509 -1.5766 
0.00488513 0.00923951 -0.969327 
0.00907276 0.0141898 -1.56127 
0.00559838 0.00712441 -0.843779 
0.0122881 0.0125405 -1.65973 
0.00791575 0.006393 -0.978868 
0.0109923 0.007006 -1.31496 
0.0105273 0.00523534 -1.31143 
0.00971378 0.0034959 -1.44985 
0.00618683 0.000241656 -1.52942 
-0.000629279 -0.00510002 -1.5891 
-0.0119464 -0.0123863 -1.60692 
-0.0374389 -0.028605 -2.01673 
-0.0468902 -0.0349949 -1.3899 
-0.0607978 -0.0435541 -1.12426 
-0.0512828 -0.0326133 -0.650284 
-0.102748 -0.0394334 -0.904079 
-0.097704 -0.0331084 -0.632065 
0.031152 0.03253 0.145071 
0.179441 0.234798 0.689923 
-0.377566 -0.342759 -1.26436 
0.527968 0.936241 1.84618 
0.857495 2.22067 2.84848 
-0.821299 -24.6789 -7.39987 
0.0249021 -0.259426 0.147289 
-2.94362 7.48734 -9.44294 
0.793947 -0.989522 2.50316 
-0.154601 0.103937 -0.624164 
0.0564696 -0.0411295 0.300019 
0.0802479 -0.0509574 0.569869 
0.0850159 -0.0586837 0.853969 
0.0757718 -0.0429769 1.0479 
0.0621771 -0.0325859 1.23802 
0.0452298 -0.0291639 1.39038 
0.0347548 -0.027816 1.8496 
0.0105059 -0.00969887 1.29858 
0.000989987 -0.00381049 1.6142 
-0.00468522 0.000741381 1.18531 
-0.00993892 0.00421164 1.50628 
-0.0112681 0.00612374 1.41563 
-0.0140956 0.00934424 1.69038 
-0.0082911 0.00677315 1.02984 
-0.0111464 0.011353 1.49923 
-0.00594259 0.00752712 0.891766 
-0.0114651 0.017793 1.95773 
-0.00424688 0.0079321 0.830956 
-0.00698047 0.0153858 1.58505 
-0.00350973 0.00890534 0.925423 
-0.00526831 0.0149837 1.61735 
-0.00357116 0.0110613 1.27483 
-0.00307553 0.0100999 1.2785 
-0.00280314 0.00956222 1.36424 
-0.00229189 0.00798015 1.31709 
-0.00194238 0.00675976 1.33674 
-0.00154978 0.00524868 1.29563 
-0.0010025 0.0031685 1.03852 
-0.0010769 0.00294178 1.41596 
-0.000837824 0.00168304 1.43981 
-0.000808189 0.000689727 1.90102 
-0.000288854 -0.000327731 1.01966 
-0.000231732 -0.00122577 1.46859 
-3.0617e-05 -0.0017475 1.44964 
0.000111509 -0.00547544 0.215253 
-0.000127115 -0.00607508 -0.169129 
-2.3425e-05 -0.00201732 -1.43582 
0.000185701 -0.00137296 -1.41894 
0.000382962 -0.000603737 -1.42801 
0.000590885 0.000380595 -1.43104 
0.000792236 0.001425 -1.39449 
0.00105895 0.00273101 -1.40067 
0.00129152 0.00383266 -1.34225 
0.00118552 0.00385899 -0.996632 
0.00241293 0.00811631 -1.6704 
0.00218802 0.00738992 -1.27193 
0.00172342 0.0057425 -0.849688 
0.00292437 0.00944934 -1.23999 
0.0044794 0.0137511 -1.64784 
0.00261399 0.00742336 -0.832208 
0.005877 0.0149507 -1.62478 
0.003686 0.00812259 -0.880564 
0.00709754 0.0131823 -1.47242 
0.00477844 0.00737038 -0.870364 
0.00986765 0.0125496 -1.60719 
0.00559035 0.00586441 -0.831088 
0.0113635 0.00992196 -1.59082 
0.00973329 0.00727389 -1.34565 
0.00990651 0.0067107 -1.46057 
0.00804411 0.00551582 -1.47304 
0.0044691 0.00403075 -1.5526 
-0.00244692 0.00133341 -1.59767 
-0.0143406 -0.00233157 -1.59517 
-0.0227246 -0.00387718 -1.16099 
-0.0471652 -0.0133325 -1.40174 
-0.070593 -0.0205941 -1.30822 
-0.105916 -0.0240922 -1.28923 
-0.0952203 -0.00551643 -0.745563 
-0.217371 0.00108622 -1.23646 
-0.0484238 -0.0326115 -0.201448 
-0.0821221 -0.0539657 -0.436714 
0.119742 0.0446836 0.479243 
-1.87712 -2.391 -5.16892 
-2.39252 -7.93756 -7.1866 
-1.20459 -29.2936 -6.59643 
18.3316 -114.444 58.2454 
19.7064 -28.7495 54.9869 
-0.753345 1.42265 -3.46007 
-0.344576 0.135588 -1.41042 
0.0769565 -0.0307028 0.407862 
0.0952787 -0.0283649 0.700269 
0.0914708 -0.0237875 0.90745 
0.0776497 -0.0108202 1.07933 
0.0616336 -0.00504995 1.25243 
0.0436605 -0.00677646 1.33933 
0.0296654 -0.00664301 1.55281 
0.0136058 -0.00112924 1.51133 
0.0030124 0.00253136 1.60833 
-0.00544067 0.00592109 1.96596 
-0.00803086 0.0060735 1.48688 
-0.00986477 0.00719223 1.45803 
-0.00951029 0.00745795 1.31777 
-0.00816232 0.00728651 1.14536 
-0.00872239 0.00921468 1.29722 
-0.00697585 0.0089025 1.13016 
-0.00476764 0.00734978 0.862393 
-0.00583494 0.0107515 1.19667 
-0.00541758 0.0117549 1.27782 
-0.00428162 0.0106883 1.16505 
-0.0041516 0.0115866 1.30762 
-0.00236364 0.00716275 0.859086 
-0.00380239 0.0121707 1.60239 
-0.00252466 0.00834262 1.23566 
-0.00152456 0.00510205 0.874513 
-0.00188296 0.0062574 1.28828 
-0.00208083 0.00667402 1.73172 
-0.00130561 0.00387663 1.34763 
-0.00104312 0.00264535 1.37648 
-0.000801084 0.00144824 1.4021 
-0.000429011 0.000253448 1.06401 
-0.000353397 -0.000626697 1.42106 
-0.000194138 -0.00173996 1.80554 
6.12125e-05 -0.00203934 1.51752 
0.000166321 -0.00587246 0.0760029 
-0.000176183 -0.00671102 -0.159081 
-6.89954e-05 -0.00215541 -1.39391 
9.45911e-05 -0.00108661 -0.959606 
0.000333001 -0.000832852 -1.39239 
0.000713755 0.000162222 -1.82772 