# vtk DataFile Version 3.0 
Exported using Morpho https://github.com/Morpho-lang/morpho 
ASCII 
DATASET UNSTRUCTURED_GRID 

POINTS 1978 float 
-8.48528 -2.82843 4.0216e-12 
-8.2713 -2.82843 4.63499e-12 
-7.97245 -2.82843 3.09801e-12 
-7.72366 -2.82843 7.18652e-13 
-7.49769 -2.82843 -1.91726e-12 
-7.28149 -2.82843 1.33045e-12 
-7.05886 -2.82843 -3.54586e-12 
-6.74769 -2.82843 -2.22403e-12 
-6.54818 -2.82843 -1.44503e-12 
-6.34291 -2.82843 -1.58861e-12 
-6.12458 -2.82843 -1.61609e-12 
-5.91293 -2.82843 -2.36707e-12 
-5.70093 -2.82843 -2.06095e-12 
-5.48843 -2.82843 -2.84498e-12 
-5.2784 -2.82843 -3.37496e-12 
-5.06778 -2.82843 -3.36951e-12 
-4.85635 -2.82843 -3.38248e-12 
-4.64669 -2.82843 -3.5602e-12 
-4.43485 -2.82843 -6.35457e-12 
-4.22493 -2.82843 6.40929e-13 
-4.01628 -2.82843 6.63083e-12 
-3.8069 -2.82843 1.48754e-11 
-3.59605 -2.82843 1.95792e-11 
-3.38672 -2.82843 1.66406e-11 
-3.17642 -2.82843 -1.91834e-11 
-2.96703 -2.82843 -8.12081e-11 
-2.76628 -2.82843 -1.65243e-10 
-2.56628 -2.82843 -3.15016e-10 
-2.33804 -2.82843 -1.54925e-10 
-2.11126 -2.82843 1.03015e-09 
-1.87456 -2.82843 5.42823e-09 
-1.64541 -2.82843 1.62194e-08 
-1.42532 -2.82843 4.45685e-08 
-1.24024 -2.82842 1.23119e-07 
-1.07285 -2.82843 2.5939e-07 
-0.920747 -2.82842 5.29051e-07 
-0.777537 -2.82843 7.83802e-07 
-0.665881 -2.82842 2.00414e-06 
-0.455469 -2.82831 1.02254e-05 
0.0684399 -2.8283 -3.10895e-06 
0.518513 -2.82839 -5.86147e-06 
0.711817 -2.82843 -9.1027e-07 
0.816749 -2.82842 -6.00246e-07 
0.917077 -2.82843 -4.38773e-07 
1.0711 -2.82843 -2.48413e-07 
1.23595 -2.82842 -9.09441e-08 
1.44668 -2.82843 -3.26137e-08 
1.663 -2.82843 -1.38771e-08 
1.88716 -2.82843 -4.37927e-09 
2.13266 -2.82843 -4.05803e-10 
2.37077 -2.82843 2.22255e-10 
2.56473 -2.82843 1.68295e-10 
2.76363 -2.82843 1.49417e-10 
2.97298 -2.82843 8.42114e-11 
3.18664 -2.82843 1.73537e-11 
3.39995 -2.82843 -1.30177e-11 
3.61446 -2.82843 -1.94454e-11 
3.82584 -2.82843 -1.35949e-11 
4.03542 -2.82843 -5.91188e-12 
4.2434 -2.82843 -2.21381e-12 
4.45211 -2.82843 4.37963e-12 
4.66192 -2.82843 4.70172e-12 
4.87273 -2.82843 4.58323e-12 
5.08335 -2.82843 4.09206e-12 
5.29521 -2.82843 3.40203e-12 
5.50719 -2.82843 2.64009e-12 
5.71984 -2.82843 2.38229e-12 
5.93444 -2.82843 2.16957e-12 
6.15034 -2.82843 1.89647e-12 
6.36589 -2.82843 1.57575e-12 
6.58529 -2.82843 1.60488e-12 
6.80902 -2.82843 2.49884e-12 
7.03504 -2.82843 2.29778e-12 
7.26402 -2.82843 6.08345e-13 
7.49952 -2.82843 9.41524e-13 
7.7398 -2.82843 -1.80942e-12 
7.98848 -2.82843 -2.30223e-12 
8.22792 -2.82843 -3.43563e-12 
8.48528 -2.82843 -4.38109e-12 
-8.48528 -2.59957 -2.14216e-12 
-8.24351 -2.56983 2.15335e-18 
-8.02609 -2.64538 -1.41058e-18 
-7.73206 -2.61706 -1.01295e-18 
-7.49039 -2.59208 2.59169e-18 
-7.26755 -2.59442 1.05807e-18 
-7.06216 -2.56664 -6.1652e-19 
-6.86292 -2.66375 1.66425e-19 
-6.61265 -2.57214 1.80612e-18 
-6.4085 -2.58158 -1.96008e-19 
-6.19561 -2.59843 9.11866e-19 
-5.97715 -2.5958 1.09816e-18 
-5.76099 -2.59797 1.17152e-18 
-5.54522 -2.60042 9.45638e-19 
-5.32995 -2.59872 8.57839e-19 
-5.11551 -2.59938 7.29269e-19 
-4.90001 -2.59994 2.76504e-18 
-4.68513 -2.59821 1.90855e-18 
-4.47152 -2.60206 3.68495e-18 
-4.25541 -2.60114 3.97813e-18 
-4.03994 -2.60039 4.99232e-18 
-3.82392 -2.60074 4.06066e-18 
-3.60475 -2.60039 1.20846e-17 
-3.38232 -2.59455 1.63328e-17 
-3.15708 -2.59614 2.73192e-17 
-2.92851 -2.58808 1.34447e-17 
-2.70199 -2.57491 -3.30522e-17 
-2.4633 -2.58851 -1.65598e-16 
-2.217 -2.57215 -4.81682e-16 
-1.97369 -2.57555 -1.16602e-15 
-1.73075 -2.57691 -3.18284e-15 
-1.50382 -2.5883 -8.16037e-15 
-1.30029 -2.59227 -1.88537e-14 
-1.12363 -2.62609 -3.58444e-14 
-0.966102 -2.64961 -5.30768e-14 
-0.814575 -2.68956 -9.99634e-14 
-0.690183 -2.68219 -7.6846e-14 
-0.575991 -2.76235 -1.77861e-13 
-0.361701 -2.80427 9.10571e-13 
0.00762387 -2.70655 -1.44988e-13 
0.441425 -2.7987 -2.62806e-13 
0.63306 -2.75315 2.21326e-13 
0.751578 -2.6705 1.52716e-13 
0.857622 -2.61446 4.35367e-14 
0.985965 -2.66041 5.06728e-14 
1.1379 -2.60916 3.70273e-14 
1.33035 -2.61382 2.0286e-14 
1.54822 -2.58648 7.54754e-15 
1.77118 -2.57568 2.57071e-15 
2.01892 -2.58961 1.27609e-15 
2.27378 -2.58944 4.50813e-16 
2.51347 -2.55413 1.10715e-16 
2.7362 -2.58839 2.16658e-17 
2.96347 -2.59623 -1.3649e-17 
3.18853 -2.59592 -2.34416e-17 
3.41305 -2.60121 -1.86677e-17 
3.63243 -2.60053 -1.14188e-17 
3.84833 -2.60038 -6.70363e-18 
4.061 -2.59906 -1.60422e-18 
4.27217 -2.5988 -2.9237e-18 
4.4833 -2.59868 -3.58927e-18 
4.69461 -2.59873 -2.24222e-18 
4.90591 -2.59788 -1.51938e-18 
5.11814 -2.5989 -1.24796e-18 
5.33039 -2.59853 -9.68794e-19 
5.54328 -2.59845 -9.30529e-19 
5.75708 -2.59896 -9.21618e-19 
5.97162 -2.59795 -1.22702e-18 
6.18615 -2.59477 -1.52916e-18 
6.40319 -2.59551 -1.525e-18 
6.624 -2.59647 -1.35665e-18 
6.84664 -2.59528 -1.21524e-18 
7.07218 -2.59528 -1.21852e-18 
7.30308 -2.59927 -2.69854e-18 
7.53903 -2.60166 1.42135e-19 
7.78141 -2.60742 1.56838e-18 
8.01732 -2.60111 1.54227e-18 
8.26778 -2.61198 -2.95706e-18 
8.48528 -2.58114 2.82175e-12 
-8.48528 -2.37043 -3.386e-12 
-8.26974 -2.31356 2.64051e-18 
-8.04442 -2.39308 4.14266e-20 
-7.81744 -2.43066 -1.55126e-19 
-7.59798 -2.17694 1.92227e-20 
-7.56682 -2.38947 3.05715e-20 
-7.30743 -2.3491 -9.30523e-20 
-7.05007 -2.35954 -3.29945e-20 
-6.79547 -2.43461 3.51455e-18 
-6.55932 -2.32396 2.90446e-19 
-6.34179 -2.34945 -4.29079e-19 
-6.12265 -2.36683 -1.69129e-19 
-5.90062 -2.36775 -1.28444e-19 
-5.67908 -2.37126 -3.00299e-19 
-5.46053 -2.37241 -4.80032e-19 
-5.24121 -2.37167 -5.04738e-19 
-5.02233 -2.37364 -3.80283e-19 
-4.80539 -2.37137 -2.17903e-18 
-4.5886 -2.37074 7.02156e-19 
-4.37444 -2.37564 -1.03154e-18 
-4.15858 -2.37418 -1.61074e-18 
-3.94298 -2.37335 -2.07632e-18 
-3.72554 -2.37471 -2.08991e-18 
-3.50646 -2.372 -7.8265e-18 
-3.28362 -2.36754 -8.25941e-18 
-3.05764 -2.36475 -1.70997e-17 
-2.82704 -2.347 -2.53664e-17 
-2.58247 -2.34729 -4.64655e-17 
-2.33914 -2.34243 -1.00545e-16 
-2.0846 -2.3265 -1.61611e-16 
-1.83297 -2.33797 -2.5937e-16 
-1.59006 -2.34786 -2.36247e-16 
-1.36496 -2.36247 -1.15934e-15 
-1.16466 -2.40949 1.26359e-15 
-1.00623 -2.45432 -4.31767e-15 
-0.839844 -2.55107 3.42073e-16 
-0.584973 -2.62387 -9.4843e-15 
-0.386955 -2.67248 4.66254e-13 
-0.145771 -2.75493 -5.08515e-13 
-0.0533201 -2.79364 -2.25641e-13 
0.177468 -2.78693 2.03587e-13 
0.567103 -2.67102 1.02719e-13 
0.669709 -2.58133 1.3523e-14 
0.783675 -2.48602 4.19525e-14 
0.967325 -2.47394 4.12009e-15 
1.14544 -2.41605 2.66578e-16 
1.34512 -2.39377 2.52552e-15 
1.54825 -2.33922 1.25863e-15 
1.76754 -2.32464 8.35635e-16 
1.99969 -2.35198 2.12657e-16 
2.25468 -2.35073 8.69989e-17 
2.50024 -2.31818 5.53775e-17 
2.74397 -2.35332 1.93926e-17 
2.97711 -2.36601 1.02603e-17 
3.20677 -2.37175 7.43408e-18 
3.43058 -2.37495 4.09387e-18 
3.65002 -2.37368 3.42509e-18 
3.8649 -2.37183 2.36798e-18 
4.07716 -2.36951 -1.69144e-19 
4.28891 -2.3692 2.99581e-18 
4.50027 -2.36848 -8.42693e-19 
4.71185 -2.36816 6.35773e-19 
4.92475 -2.36808 5.58381e-19 
5.13741 -2.36847 6.83798e-19 
5.3514 -2.36856 3.15919e-19 
5.56574 -2.36815 4.07658e-19 
5.77993 -2.36745 5.20884e-20 
5.99444 -2.36424 -1.20071e-19 
6.2111 -2.36101 -2.75193e-20 
6.4302 -2.3624 2.86171e-20 
6.65008 -2.36134 1.11035e-19 
6.87331 -2.36063 3.837e-19 
7.10161 -2.36382 3.47687e-18 
7.33432 -2.37072 1.4013e-18 
7.57297 -2.3775 -3.14193e-18 
7.80685 -2.37512 -6.91446e-19 
8.05062 -2.38714 6.0456e-19 
8.27102 -2.35941 -3.13161e-18 
8.48528 -2.3308 3.23578e-12 
-8.48528 -2.11624 -2.15976e-12 
-8.27377 -2.05307 1.75863e-18 
-8.05598 -2.14997 -5.07326e-19 
-7.8307 -2.19844 4.98919e-19 
-7.58535 -1.96813 -1.34826e-18 
-7.34559 -2.14859 4.47624e-20 
-7.08416 -2.1461 9.10538e-19 
-6.81788 -2.22223 -2.53946e-18 
-6.57427 -2.11205 -1.20928e-18 
-6.33015 -2.11128 1.81071e-18 
-6.11634 -2.1337 2.2511e-19 
-5.89862 -2.1368 -4.66671e-20 
-5.67884 -2.1427 -2.99096e-19 
-5.46098 -2.14241 -3.82712e-19 
-5.2454 -2.14422 -4.82085e-19 
-5.02804 -2.14652 -6.7018e-19 
-4.81171 -2.14256 -4.33289e-19 
-4.59622 -2.14289 -7.53191e-19 
-4.37935 -2.14572 -9.04334e-19 
-4.1647 -2.14687 -1.39957e-18 
-3.94742 -2.14488 -1.70657e-18 
-3.7299 -2.14687 -1.57017e-18 
-3.50935 -2.1433 3.05304e-18 
-3.28636 -2.1375 4.80902e-20 
-3.05907 -2.1333 3.00809e-18 
-2.82239 -2.11976 9.28965e-19 
-2.57783 -2.11464 1.21923e-18 
-2.32883 -2.10765 4.21258e-20 
-2.08064 -2.08984 -3.22686e-17 
-1.83005 -2.10825 6.64976e-18 
-1.58555 -2.11746 -3.19629e-16 
-1.36954 -2.1485 -4.41261e-16 
-1.1593 -2.2045 -2.22817e-15 
-1.23641 -1.99089 -2.06059e-15 
-0.995881 -2.24231 8.034e-15 
-0.878758 -2.38491 3.06923e-15 
-0.691363 -2.53504 -1.35918e-14 
-0.483346 -2.70102 -2.68889e-13 
-0.0989739 -2.65472 -5.93379e-13 
0.112992 -2.69399 -5.66901e-14 
0.376311 -2.74648 2.65115e-13 
0.488771 -2.63434 9.9006e-14 
0.570943 -2.50746 4.41074e-14 
0.814594 -2.34667 -4.72556e-15 
0.946164 -2.30314 1.59389e-14 
1.08881 -2.21789 2.11512e-15 
1.27577 -2.19679 2.07183e-15 
1.47913 -2.11707 -7.1187e-17 
1.70098 -2.08098 -4.78837e-16 
1.93399 -2.09689 -1.2102e-16 
2.17154 -2.12264 8.15664e-17 
2.41619 -2.0903 -1.6919e-17 
2.67101 -2.11168 7.96345e-18 
2.90297 -2.13336 5.69376e-18 
3.13224 -2.1413 5.22788e-18 
3.35756 -2.14615 -3.72226e-19 
3.57924 -2.14594 7.39122e-19 
3.79769 -2.14271 3.92103e-18 
4.01281 -2.1399 -1.21114e-18 
4.22728 -2.13966 2.72698e-18 
4.44151 -2.13855 -2.1635e-19 
4.65609 -2.13801 3.55921e-18 
4.87138 -2.13877 -2.53145e-18 
5.08796 -2.13794 3.06367e-18 
5.30465 -2.1392 -2.21171e-18 
5.52288 -2.13808 1.20276e-18 
5.74115 -2.13547 3.37546e-19 
5.95864 -2.13182 3.47331e-15 
6.17757 -2.12857 5.11481e-20 
6.39935 -2.12858 9.94382e-20 
6.62182 -2.12537 3.70831e-19 
6.84511 -2.12575 2.06082e-18 
7.07267 -2.13112 -2.35977e-18 
7.30511 -2.13966 -1.01587e-18 
7.541 -2.14988 -1.11624e-19 
7.78037 -2.14392 9.85119e-19 
8.01953 -2.15809 -1.06778e-18 
8.25012 -2.11534 -1.57032e-18 
8.48528 -2.09907 2.76771e-12 
-8.48528 -1.86014 -7.25119e-13 
-8.27104 -1.79084 -4.35378e-19 
-8.06031 -1.90516 3.355e-19 
[...]
POINT_DATA 1978 
VECTORS vectors float
-0.000136321 0.00166163 1 
4.63173e-05 0.00133455 1 
4.95139e-05 0.00063566 1 
6.746e-05 -0.000172602 1 
6.2579e-05 -0.000958548 1 
8.08202e-05 -0.00192936 0.999999 
9.10056e-05 -0.0030055 0.999997 
0.00011187 -0.00474791 0.99999 
0.000109512 -0.0059157 0.999984 
8.33275e-05 -0.00710436 0.999976 
7.78131e-05 -0.00839622 0.999966 
6.84142e-05 -0.00960012 0.999955 
5.91918e-05 -0.0107993 0.999943 
4.71832e-05 -0.0119922 0.999929 
2.32851e-05 -0.0131215 0.999915 
-1.38226e-05 -0.0140962 0.999902 
-5.71133e-05 -0.0148805 0.999891 
-0.000115998 -0.0153936 0.999883 
-0.000191914 -0.0155777 0.99988 
-0.000281574 -0.0153545 0.999883 
-0.000379486 -0.0146531 0.999894 
-0.000482928 -0.0133263 0.999912 
-0.000602401 -0.0111352 0.999939 
-0.00069317 -0.00781393 0.99997 
-0.000865048 -0.00264644 0.999997 
-0.00112402 0.0052416 0.999987 
-0.00131209 0.0150006 0.999887 
-0.00147881 0.0279536 0.999608 
-0.00159785 0.0470984 0.998888 
-0.00179969 0.0710759 0.997467 
-0.00204238 0.103644 0.994607 
-0.00276884 0.146347 0.989221 
-0.00489742 0.205503 0.978636 
-0.00819919 0.279422 0.960133 
-0.0109047 0.362669 0.931861 
-0.0133114 0.456779 0.889492 
-0.0165643 0.550839 0.834458 
-0.0167993 0.654578 0.755802 
-0.0068544 0.82045 0.571665 
-0.0143966 0.991917 -0.126019 
0.012618 0.782055 -0.623056 
0.0218227 0.634388 -0.772715 
0.0253363 0.535648 -0.844083 
0.0180245 0.469252 -0.882899 
0.0120827 0.37213 -0.92811 
0.00850564 0.278376 -0.960428 
0.00419864 0.198201 -0.98014 
0.00301577 0.142679 -0.989757 
0.00212465 0.101413 -0.994837 
0.00173981 0.0679942 -0.997681 
0.00163693 0.0439225 -0.999033 
0.00163835 0.0282168 -0.999601 
0.00136318 0.015424 -0.999881 
0.00100029 0.00441806 -0.99999 
0.000817695 -0.00311321 -0.999996 
0.000703539 -0.00808511 -0.999968 
0.000584032 -0.0114513 -0.999935 
0.000467586 -0.0135341 -0.999909 
0.000366388 -0.014736 -0.999893 
0.000270939 -0.0153519 -0.999883 
0.000184971 -0.015513 -0.999881 
0.000111688 -0.0152937 -0.999884 
5.24717e-05 -0.0147393 -0.999893 
8.99512e-06 -0.0139306 -0.999904 
-2.14998e-05 -0.0129425 -0.999918 
-4.28287e-05 -0.0118452 -0.999931 
-5.78791e-05 -0.0106823 -0.999944 
-6.82622e-05 -0.00947478 -0.999956 
-7.91148e-05 -0.00823472 -0.999967 
-8.83832e-05 -0.00696715 -0.999977 
-9.01634e-05 -0.00566856 -0.999985 
-8.74738e-05 -0.00438196 -0.999992 
-8.20881e-05 -0.00315023 -0.999996 
-7.29237e-05 -0.00200703 -0.999999 
-6.34778e-05 -0.000961897 -1 
-5.44559e-05 -3.84847e-05 -1 
-2.79677e-05 0.000733879 -1 
-4.63656e-05 0.00126401 -1 
0.00013229 0.00167807 -1 
-0.000538764 0.00125281 1 
-0.000231646 0.000965465 1 
2.77955e-05 0.000643293 1 
3.25462e-05 -0.000186875 1 
-2.45157e-05 -0.00108683 1 
-1.63149e-05 -0.00200721 1 
-4.45179e-05 -0.00297353 0.999999 
0.000198217 -0.00403792 0.999994 
-0.000105965 -0.00533398 0.999989 
-0.000153223 -0.00647306 0.999982 
-0.000192295 -0.00768558 0.999973 
-0.000318393 -0.00889568 0.999963 
-0.000443957 -0.0100714 0.999952 
-0.000594868 -0.0112103 0.99994 
-0.000815547 -0.0122592 0.999927 
-0.00109962 -0.0131612 0.999915 
-0.00146637 -0.0138463 0.999906 
-0.00195274 -0.0142517 0.999899 
-0.00253388 -0.0143861 0.999896 
-0.00325331 -0.014116 0.999898 
-0.00401082 -0.0133518 0.999906 
-0.00470487 -0.01194 0.99992 
-0.00522585 -0.00963919 0.999943 
-0.00542771 -0.00609077 0.99997 
-0.00521881 -0.00074675 0.999989 
-0.00474158 0.00758887 0.999963 
-0.00407789 0.0192706 0.99981 
-0.00332891 0.0358799 0.999354 
-0.000564392 0.0583342 0.998301 
0.00283919 0.0877798 0.99614 
0.00664533 0.128825 0.991649 
0.00787752 0.182138 0.983245 
0.0131884 0.247139 0.968893 
0.0157661 0.327797 0.944618 
0.0192724 0.414285 0.909944 
0.0152741 0.52674 0.84989 
0.0315481 0.610322 0.791525 
0.00528977 0.718727 0.695271 
0.0071792 0.8825 0.470258 
-0.0289075 0.998438 -0.0477737 
-0.00389845 0.833626 -0.552325 
0.0127054 0.683446 -0.729889 
-0.0128525 0.570172 -0.82143 
-0.0296993 0.49007 -0.87118 
-0.0116286 0.417183 -0.908749 
-0.0101288 0.325937 -0.945339 
-0.00460642 0.239762 -0.970823 
-0.00698913 0.170247 -0.98538 
-0.00530016 0.12059 -0.992692 
-0.000818625 0.0812941 -0.996694 
0.0018188 0.0524123 -0.998628 
0.00258574 0.031796 -0.999495 
0.00409828 0.0167935 -0.999854 
0.00476501 0.0056181 -0.999975 
0.00514393 -0.00185125 -0.999988 
0.00535167 -0.00679234 -0.999965 
0.00517803 -0.0100564 -0.999939 
0.00464859 -0.0121728 -0.999918 
0.00395862 -0.0134351 -0.999905 
0.00321439 -0.0141061 -0.999898 
0.00252567 -0.0143285 -0.999897 
0.00193929 -0.0141904 -0.9999 
0.00147154 -0.0137487 -0.999907 
0.00110156 -0.013064 -0.999917 
0.000828147 -0.0121859 -0.999928 
0.000620451 -0.0111729 -0.99994 
0.000454053 -0.0100726 -0.999952 
0.000320171 -0.00891764 -0.999963 
0.000213043 -0.00773074 -0.999973 
0.000117503 -0.00651941 -0.999982 
4.98534e-05 -0.00529018 -0.999989 
1.74229e-05 -0.00408241 -0.999995 
6.21411e-06 -0.00292379 -0.999999 
-3.74192e-06 -0.00183772 -1 
-3.76291e-06 -0.000858188 -1 
3.18346e-05 -1.10684e-05 -1 
0.000123912 0.000619476 -1 
0.000234562 0.00107664 -1 
0.000551747 0.00123636 -1 
-0.000478557 0.000909681 1 
-0.000353255 0.000827441 1 
-0.000293716 0.000537336 1 
-0.000237818 3.37332e-05 1 
-0.000408344 -0.00062098 1 
-0.000279171 -0.00078473 1 
-0.00032964 -0.00179868 1 
-0.00037331 -0.00296803 0.999998 
-0.000330197 -0.00426193 0.999994 
-0.000615646 -0.00539366 0.999989 
-0.00068399 -0.00657937 0.999981 
-0.000795596 -0.00777166 0.999972 
-0.000991374 -0.00892872 0.999963 
-0.00119839 -0.0100661 0.999951 
-0.00145685 -0.0111033 0.99994 
-0.00179401 -0.0120058 0.999929 
-0.00221558 -0.0127035 0.999919 
-0.00275557 -0.013087 0.999914 
-0.00343216 -0.0132154 0.99991 
-0.00420572 -0.0130745 0.999908 
-0.0051101 -0.0125023 0.999912 
-0.00597767 -0.0113758 0.99992 
-0.00660587 -0.00954399 0.999935 
-0.00676442 -0.00686878 0.999956 
-0.00619579 -0.00306551 0.999979 
-0.00482815 0.0025433 0.999988 
-0.00275772 0.011042 0.999938 
-0.000227881 0.024207 0.99971 
0.00344954 0.0420124 0.999114 
0.0103417 0.0663698 0.997745 
0.0193982 0.100095 0.994792 
0.030073 0.146134 0.98881 
0.0431045 0.202908 0.978251 
0.0564966 0.279125 0.958593 
0.0741433 0.359687 0.930123 
0.0632094 0.472176 0.879234 
0.0791904 0.671137 0.737092 
0.0683509 0.828343 0.556036 
-0.00503522 0.988432 0.151594 
-0.00912616 0.997558 0.069223 
-0.0239936 0.963922 -0.26509 
-0.0313473 0.711504 -0.701991 
-0.0655353 0.636104 -0.768821 
-0.0824158 0.506266 -0.858429 
-0.0619432 0.387702 -0.919702 
-0.0533451 0.291822 -0.954985 
-0.0389819 0.216624 -0.975479 
-0.0316634 0.15585 -0.987275 
-0.0224618 0.110482 -0.993627 
-0.0122666 0.0771161 -0.99695 
-0.00526517 0.049668 -0.998755 
-0.00167466 0.0290413 -0.99958 
0.00189276 0.0149154 -0.99989 
0.00395253 0.00477991 -0.999984 
0.00551739 -0.00179017 -0.999986 
0.00647885 -0.0060196 -0.999964 
0.00669634 -0.00887405 -0.999941 
0.00627882 -0.0108329 -0.999924 
0.00549937 -0.0121102 -0.999914 
0.0046091 -0.0128441 -0.99991 
0.00377254 -0.0131537 -0.999909 
0.00305916 -0.0131297 -0.999912 
0.00247412 -0.0128235 -0.999917 
0.00201087 -0.0122693 -0.999925 
0.00164468 -0.0115007 -0.999935 
0.00135592 -0.0105686 -0.999946 
0.00112112 -0.00953299 -0.999957 
0.000926264 -0.00843228 -0.999967 
0.000756541 -0.00729074 -0.999976 
0.000606389 -0.00612929 -0.999984 
0.000494108 -0.0049684 -0.99999 
0.000410417 -0.00382214 -0.999996 
0.000346031 -0.00271383 -0.999999 
0.000296667 -0.00167892 -1 
0.000259472 -0.000749807 -1 
0.000257646 9.06252e-07 -1 
0.000299779 0.000590695 -1 
0.000358243 0.000879032 -1 
0.000454349 0.000897588 -1 
-0.000239686 0.000872921 1 
-0.00027394 0.000874776 1 
-0.000325752 0.000549573 1 
-0.000344728 5.19581e-05 1 
-0.000545728 -0.000585327 1 
-0.000519247 -0.001556 1 
-0.000619067 -0.00268527 0.999999 
-0.000659843 -0.00400891 0.999995 
-0.000945308 -0.00512656 0.999989 
-0.00113615 -0.0063583 0.999982 
-0.00130228 -0.0074605 0.999974 
-0.00152851 -0.00855227 0.999965 
-0.00179767 -0.00960284 0.999955 
-0.00212205 -0.0105466 0.999945 
-0.00250822 -0.0113319 0.999935 
-0.00298865 -0.0118918 0.999928 
-0.00361117 -0.0121647 0.999922 
-0.00434585 -0.0121541 0.999919 
-0.00521707 -0.0118805 0.999919 
-0.00618384 -0.0112469 0.99992 
-0.00711837 -0.0100898 0.999927 
-0.00768264 -0.00838791 0.999938 
-0.00757689 -0.00604081 0.999956 
-0.00654494 -0.00288673 0.999977 
-0.00446727 0.00172883 0.999992 
-0.00133368 0.00874317 0.999964 
0.00302674 0.0198664 0.999802 
0.00945676 0.0357238 0.999321 
0.0192366 0.0559338 0.998253 
0.0317613 0.0854498 0.99584 
0.0473332 0.123752 0.991187 
0.0656466 0.173577 0.982632 
0.0921107 0.242544 0.96576 
0.0970998 0.175132 0.979747 
0.121143 0.306207 0.944227 
0.117517 0.409807 0.904571 
0.103329 0.564192 0.819152 
0.0365766 0.78772 0.61494 
0.00292319 0.987814 0.15565 
-0.0480008 0.980189 -0.192142 
-0.0237393 0.862363 -0.505729 
-0.0694868 0.767963 -0.636709 
-0.11856 0.655595 -0.745748 
-0.137703 0.440722 -0.887018 
-0.11125 0.362008 -0.925514 
-0.102102 0.276763 -0.955499 
-0.0729404 0.208357 -0.975331 
-0.0576503 0.143449 -0.98798 
-0.0410816 0.100288 -0.994114 
-0.0259917 0.0712272 -0.997124 
-0.0145789 0.048728 -0.998709 
-0.00753825 0.0289455 -0.999556 
-0.00149951 0.0151524 -0.999888 
0.00228711 0.00595715 -0.999983 
0.00500934 -0.000362432 -0.99999 
0.00680519 -0.00435477 -0.99997 
0.00764474 -0.00702633 -0.999949 
0.00757546 -0.00898875 -0.999934 
0.00690157 -0.0104261 -0.999925 
0.00595005 -0.0114027 -0.99992 
0.00500335 -0.0119415 -0.999919 
0.00416526 -0.0121316 -0.99992 
0.00346387 -0.012036 -0.999924 
0.00289407 -0.0116611 -0.999931 
0.00242915 -0.0110576 -0.999939 
0.00205475 -0.0102375 -0.999948 
0.00174649 -0.00927853 -0.999958 
0.00148775 -0.00823891 -0.999968 
0.00126318 -0.00715293 -0.999976 
0.00106689 -0.0060417 -0.999984 
0.000909753 -0.00491523 -0.99999 
0.000773987 -0.0038057 -0.999995 
0.000652533 -0.00273028 -0.999999 
0.000546022 -0.0017187 -1 
0.000452023 -0.000817907 -1 
0.000379184 -5.86923e-05 -1 
0.000326562 0.000507897 -1 
0.000297125 0.000843076 -1 
0.000245085 0.000873812 -1 
-6.59085e-05 0.00108131 1 
-0.000176906 0.00103024 1 
-0.000330685 0.00066994 1 
-0.000435444 0.000151615 1 
-0.000680819 -0.00148951 1 
-0.000802322 -0.00249161 1 
-0.000769421 -0.00214896 1 
-0.000887445 -0.00375553 0.999995 
-0.00111254 -0.00453011 0.999992 
-0.00130443 -0.00567 0.999986 
-0.00156042 -0.00677466 0.999979 
-0.00180888 -0.00779947 0.999971 
-0.00210155 -0.00881017 0.999962 
-0.00246216 -0.00971459 0.999953 
-0.00288152 -0.0104629 0.999944 
-0.0033822 -0.0110049 0.999936 
-0.00400999 -0.0112377 0.999932 
-0.00475816 -0.011188 0.999929 
-0.00562456 -0.0108935 0.999928 
-0.00661276 -0.0102865 0.999928 
-0.00760468 -0.00931428 0.99993 
-0.00838652 -0.00788437 0.999937 
-0.00856278 -0.00607344 0.999948 
-0.00780617 -0.00379945 0.999965 
-0.00587122 -0.000662338 0.999986 
-0.00267494 0.00410747 0.999991 
0.00219251 0.0117035 0.999932 
0.00915179 0.0225822 0.999706 
0.0190048 0.0363342 0.999162 
0.0324068 0.0570199 0.99785 
0.0487174 0.0836931 0.995303 
0.0706514 0.118034 0.990495 
0.104408 0.127984 0.986267 
0.150373 0.16795 0.974261 
0.136159 0.220297 0.965885 
0.169992 0.352091 0.920399 
0.140094 0.489242 0.860825 
0.105272 0.861758 0.496264 
0.0714898 0.81939 0.568758 
-0.0412865 0.995071 -0.0901986 
-0.0529311 0.923392 -0.38019 
-0.13266 0.778851 -0.613015 
-0.145956 0.561184 -0.814721 
-0.207315 0.364085 -0.908 
-0.166468 0.298829 -0.939676 
-0.130102 0.217216 -0.967416 
-0.0954645 0.164475 -0.981753 
-0.0701977 0.111577 -0.991276 
-0.0481751 0.0772372 -0.995851 
-0.0310517 0.05375 -0.998075 
-0.0183578 0.0361503 -0.999181 
-0.00865449 0.0206204 -0.999753 
-0.0019279 0.0104613 -0.999946 
0.00272578 0.00340492 -0.999993 
0.00583808 -0.00129685 -0.999985 
0.00774021 -0.00427118 -0.999964 
0.00853122 -0.00635072 -0.999946 
0.00835324 -0.00799216 -0.999936 
0.00757513 -0.00932762 -0.999931 
0.00657934 -0.0102942 -0.999928 
0.00561207 -0.0108887 -0.999928 
0.00475232 -0.0111628 -0.999929 
0.00401881 -0.0111624 -0.999932 
0.00340349 -0.0108664 -0.999938 
0.00289745 -0.0103767 -0.999945 
0.00247478 -0.00962854 -0.999953 
0.00212027 -0.00873432 -0.999962 
0.00181328 -0.00775102 -0.999971 
0.00154329 -0.00671286 -0.999979 
0.00131323 -0.00565496 -0.999986 
0.00111896 -0.00457291 -0.999992 
0.000948874 -0.00349667 -0.999997 
0.000805163 -0.00246096 -1 
0.000680187 -0.00149297 -1 
0.000566797 -0.000633848 -1 
0.000453868 9.02442e-05 -1 
0.000349036 0.000617379 -1 
0.000215088 0.000974986 -1 
6.92535e-05 0.00107396 -1 
2.25565e-05 0.0012364 1 
-9.21283e-05 0.0011255 1 
-0.000260008 0.000721154 1 
-0.000392319 0.000196179 1 
-0.000529577 -0.000493915 1 
-0.000643693 -0.00130926 1 
-0.00091793 -0.00299226 0.999998 
-0.000941431 -0.00321827 0.999997 
-0.00112703 -0.00412545 0.999993 
-0.00136943 -0.00524178 0.999988 
-0.00164522 -0.00628694 0.999982 
-0.00196042 -0.00730394 0.999975 
-0.00228753 -0.00827714 0.999965 
-0.00265946 -0.00910856 0.999958 
-0.00310166 -0.00979103 0.99995 
-0.00362464 -0.0102625 0.999944 
-0.00425295 -0.0104209 0.999939 
-0.00498587 -0.0103103 0.999937 
-0.00582595 -0.00994905 0.999936 
-0.00676214 -0.00932523 0.999936 
-0.00772704 -0.00839609 0.999938 
-0.00855279 -0.00719859 0.99994 
-0.00894093 -0.00569567 0.999947 
-0.00857387 -0.00397214 0.999958 
-0.00714448 -0.00176934 0.999976 
-0.00443614 0.00137961 0.999992 
1.35661e-06 0.00631873 0.999983 
0.00663329 0.0134167 0.999891 
0.0164089 0.0226273 0.999612 
0.0302701 0.0374027 0.998845 
0.0479702 0.0564444 0.997255 
0.070619 0.0805263 0.994251 
0.103242 0.0832595 0.991168 
0.140032 0.101177 0.984965 
0.176304 0.274451 0.945301 
0.195879 0.418576 0.886808 
0.142847 0.693821 0.705835 
0.177356 0.563461 0.80688 
0.0256992 0.924605 0.380068 
-0.049043 0.857276 -0.512513 
-0.08549 0.944773 -0.316363 
-0.185603 0.691335 -0.698283 
-0.21118 0.481131 -0.850834 
-0.231553 0.239261 -0.94294 
-0.180055 0.204612 -0.962142 
-0.136814 0.145452 -0.979862 
-0.100587 0.111342 -0.988681 
-0.0687434 0.0733691 -0.994935 
-0.0481225 0.0501056 -0.997587 
-0.0318035 0.0375995 -0.99879 
-0.0183063 0.0250938 -0.99952 
-0.00796111 0.0137153 -0.999878 
-0.000625409 0.00618217 -0.999984 
0.00398135 0.00136282 -0.999995 
0.00683328 -0.00196613 -0.999978 
0.00841011 -0.00414725 -0.999959 
0.00891217 -0.00575483 -0.999946 
0.00857867 -0.00712404 -0.999941 
0.00780337 -0.00831751 -0.999937 
0.00684801 -0.00925819 -0.999937 
0.00593189 -0.00991272 -0.999936 
0.00508663 -0.0102635 -0.999938 
0.00435901 -0.0103933 -0.999939 
0.00372047 -0.0102049 -0.999944 
0.00317979 -0.0097904 -0.999949 
0.0027219 -0.009122 -0.999957 
0.00232964 -0.00827964 -0.999966 
0.00199017 -0.00736502 -0.999974 
0.0016836 -0.00637217 -0.999981 
0.00141214 -0.00533945 -0.999988 
0.00117443 -0.00429549 -0.999993 
0.000969352 -0.00326913 -0.999997 
0.00079142 -0.00226913 -1 
0.000639345 -0.00133547 -1 
0.000506478 -0.000504794 -1 
0.000375607 0.000199425 -1 
0.00025547 0.000725844 -1 
0.000108188 0.00109576 -1 
-2.17601e-05 0.00121514 -1 
8.38524e-05 0.00135824 1 
-3.21131e-05 0.00124125 1 
-0.000183961 0.000788346 1 
-0.000315445 0.000231566 1 
-0.000448884 -0.000429593 1 
-0.000568539 -0.00111123 1 
-0.000725607 -0.00196767 1 
-0.000950144 -0.00295133 0.999998 
-0.00116698 -0.00402937 0.999995 
-0.00143265 -0.00507136 0.999989 
-0.00173102 -0.0060943 0.999983 
-0.00204412 -0.00701731 0.999976 
-0.00237937 -0.00790892 0.999969 
-0.00277045 -0.0087191 0.99996 
-0.00320671 -0.0092991 0.999955 
-0.00373215 -0.00968933 0.999948 
-0.00433439 -0.00973622 0.999946 
-0.00503943 -0.00953135 0.999944 
-0.00581082 -0.0090881 0.999945 
-0.00663452 -0.00844299 0.999945 
-0.0074033 -0.00755533 0.999947 
-0.00808622 -0.00653068 0.999948 
-0.00835906 -0.00532768 0.999954 
-0.0080271 -0.00399195 0.999963 
-0.00669972 -0.00241117 0.999978 
-0.00404519 -0.000158004 0.999995 
0.000395994 0.00320937 0.999998 
0.00743391 0.00770768 0.999946 
0.0185591 0.01418 0.999731 
0.0337067 0.0251558 0.999118 
0.0539587 0.0386547 0.997797 
0.0785202 0.0499349 0.995663 
0.112817 0.0432977 0.992674 
0.152561 0.0516973 0.986943 
0.205079 0.214151 0.955031 
0.23908 0.312836 0.919225 
0.276947 0.251416 0.927414 
0.247144 0.438258 0.864203 
0.230992 0.598204 0.767325 
0.0318615 0.957395 0.287071 
-0.0831849 0.866605 -0.492014 
-0.237283 0.603548 -0.761188 
-0.282917 0.352609 -0.891983 
-0.237347 0.159567 -0.95823 
-0.183316 0.133518 -0.973946 
-0.138899 0.0882009 -0.986373 
-0.0988336 0.0682216 -0.992765 
-0.0720595 0.0408714 -0.996565 
-0.0501427 0.0262789 -0.998399 
-0.0325063 0.0209599 -0.999255 
-0.018785 0.0150346 -0.999714 
-0.00808982 0.00746839 -0.999942 
-0.000613298 0.0023606 -1 
0.00395273 -0.000625473 -0.999995 
0.00659817 -0.00279599 -0.999977 
0.00795949 -0.00432563 -0.999962 
0.00833831 -0.00552763 -0.999953 
0.00805042 -0.00657653 -0.999948 
0.00743434 -0.00757215 -0.999947 
0.00666348 -0.00844022 -0.999945 
0.00585599 -0.00908807 -0.999945 
0.00511055 -0.00954521 -0.999944 
0.00440372 -0.00970635 -0.999946 
0.00379237 -0.0096225 -0.999949 
0.00325722 -0.00926394 -0.999955 
0.00280117 -0.00867638 -0.999961 
0.0024055 -0.00789952 -0.999969 
0.00205468 -0.00700904 -0.999976 
0.00174009 -0.00605883 -0.999983 
0.00145306 -0.00505685 -0.999989 
0.00119615 -0.00405104 -0.999994 
0.000965318 -0.00305097 -0.999997 
0.000760545 -0.00207759 -1 
0.0005819 -0.00116894 -1 
0.000425136 -0.000362821 -1 
0.000283285 0.000321413 -1 
0.000157793 0.000834662 -1 
2.11205e-05 0.00120547 -1 
-0.000107391 0.00131661 -1 
0.000126265 0.0014768 1 
1.63147e-05 0.001405 1 
-0.000130874 0.0009676 1 
-0.00026818 0.000422784 1 
-0.000412907 -0.000265957 1 
-0.00056812 -0.00102188 1 
-0.000756036 -0.0019498 1 
-0.00096221 -0.0028554 0.999998 
-0.00118952 -0.00387201 0.999994 
-0.00144451 -0.00485886 0.99999 
-0.00172021 -0.00580992 0.999984 
-0.00202825 -0.00675821 0.999977 
-0.00235832 -0.00762029 0.999971 
-0.00271825 -0.00834465 0.999965 
-0.00314089 -0.0089197 0.999958 
-0.00361694 -0.00920127 0.999954 
-0.00418575 -0.00922385 0.999951 
-0.0048201 -0.00895238 0.999951 
-0.00548989 -0.00846774 0.999951 
-0.00613942 -0.00780807 0.999954 
-0.00672624 -0.00705598 0.999955 
-0.00714285 -0.00623673 0.999958 
-0.00723287 -0.00540527 0.999962 
-0.00678241 -0.00459442 0.999969 
-0.0054608 -0.00374445 0.999981 
-0.00287844 -0.00259611 0.999996 
0.00153155 -0.000834594 1 
0.00898968 0.00146159 0.999962 
0.0195697 0.0033389 0.999806 
0.0336273 0.00950566 0.999392 
0.0538764 0.0157174 0.998427 
0.0818652 0.0186214 0.996472 
0.126684 0.00733922 0.991918 
0.173147 -0.000865224 0.984898 
0.230879 0.155488 0.96048 
0.183459 0.120558 0.975609 
0.241419 0.0900893 0.966231 
0.313038 0.398734 0.861994 
0.218067 0.723472 0.655025 
0.0400851 0.974804 0.21951 
-0.141327 0.882299 -0.44904 
-0.302702 0.441608 -0.844629 
-0.197405 0.37279 -0.906671 
-0.236299 0.0929818 -0.967221 
-0.184906 0.0737709 -0.979985 
-0.13471 0.0401037 -0.990075 
-0.100258 0.0260726 -0.994622 
-0.0717539 0.0099986 -0.997375 
-0.0491516 0.00402723 -0.998786 
-0.0325811 0.00505685 -0.999459 
-0.0191007 0.00427725 -0.999812 
-0.00900216 0.000747153 -0.999962 
-0.001873 -0.00157391 -1 
0.00276743 -0.0030118 -0.999995 
0.00540104 -0.00408465 -0.99998 
0.00676562 -0.0049327 -0.999968 
0.00721669 -0.00565931 -0.999961 
0.0071261 -0.00636147 -0.999957 
0.00672361 -0.00710309 -0.999955 
0.00617213 -0.0078768 -0.999953 
0.00552812 -0.00852213 -0.999951 
0.00487575 -0.00898405 -0.99995 
0.0042395 -0.00919872 -0.999952 
0.00367489 -0.00917373 -0.999954 
0.00317479 -0.00886044 -0.999959 
0.00275124 -0.00833734 -0.999964 
0.00237288 -0.00759512 -0.999971 
0.00204312 -0.0067514 -0.999978 
0.0017433 -0.00583407 -0.999984 
0.0014616 -0.00485713 -0.99999 
0.00120159 -0.00385396 -0.999995 
0.000968815 -0.00287662 -0.999998 
0.00075782 -0.00192182 -1 
0.000571348 -0.00103291 -1 
0.000403203 -0.000238201 -1 
0.000248686 0.000441009 -1 
0.000107523 0.000963679 -1 
-4.03372e-05 0.00134387 -1 
-0.000192422 0.00146308 -1 
0.000182585 0.00162308 1 