# vtk DataFile Version 3.0 
Exported using Morpho https://github.com/Morpho-lang/morpho 
ASCII 
DATASET UNSTRUCTURED_GRID 

POINTS 1978 float 
-8.48528 -2.82843 -1.39639e-13 
-8.2713 -2.82843 -1.60927e-13 
-7.97245 -2.82843 -1.07557e-13 
-7.72366 -2.82843 -2.49509e-14 
-7.49769 -2.82843 6.65589e-14 
-7.28149 -2.82843 -4.61992e-14 
-7.05886 -2.82843 1.23105e-13 
-6.74769 -2.82843 7.72055e-14 
-6.54818 -2.82843 5.01278e-14 
-6.34291 -2.82843 5.50919e-14 
-6.12458 -2.82843 5.60184e-14 
-5.91293 -2.82843 8.20435e-14 
-5.70093 -2.82843 7.13563e-14 
-5.48843 -2.82843 9.85011e-14 
-5.2784 -2.82843 1.1682e-13 
-5.06778 -2.82843 1.16569e-13 
-4.85635 -2.82843 1.16999e-13 
-4.64669 -2.82843 1.23233e-13 
-4.43485 -2.82843 2.20505e-13 
-4.22493 -2.82843 -2.17906e-14 
-4.01628 -2.82843 -2.28808e-13 
-3.8069 -2.82843 -5.13791e-13 
-3.59605 -2.82843 -6.76015e-13 
-3.38672 -2.82843 -5.73793e-13 
-3.17642 -2.82843 6.66701e-13 
-2.96703 -2.82843 2.81344e-12 
-2.76628 -2.82843 5.72062e-12 
-2.56628 -2.82843 1.09028e-11 
-2.33804 -2.82843 5.35843e-12 
-2.11126 -2.82843 -3.5644e-11 
-1.87456 -2.82843 -1.87825e-10 
-1.64541 -2.82843 -5.61263e-10 
-1.42532 -2.82843 -1.5423e-09 
-1.24024 -2.82843 -4.25975e-09 
-1.07285 -2.82843 -8.975e-09 
-0.920747 -2.82843 -1.83017e-08 
-0.777537 -2.82843 -2.71198e-08 
-0.665882 -2.82843 -6.93445e-08 
-0.455469 -2.82843 -3.53576e-07 
0.0684398 -2.82843 1.07585e-07 
0.518514 -2.82843 2.02755e-07 
0.711818 -2.82843 3.15004e-08 
0.816749 -2.82843 2.07703e-08 
0.917076 -2.82843 1.51805e-08 
1.0711 -2.82843 8.59408e-09 
1.23595 -2.82843 3.14693e-09 
1.44668 -2.82843 1.12866e-09 
1.663 -2.82843 4.80214e-10 
1.88716 -2.82843 1.5155e-10 
2.13266 -2.82843 1.40398e-11 
2.37077 -2.82843 -7.69339e-12 
2.56473 -2.82843 -5.82512e-12 
2.76363 -2.82843 -5.1728e-12 
2.97298 -2.82843 -2.91752e-12 
3.18664 -2.82843 -6.03701e-13 
3.39995 -2.82843 4.48011e-13 
3.61446 -2.82843 6.71309e-13 
3.82584 -2.82843 4.69476e-13 
4.03542 -2.82843 2.0401e-13 
4.2434 -2.82843 7.64964e-14 
4.45211 -2.82843 -1.51905e-13 
4.66192 -2.82843 -1.62848e-13 
4.87273 -2.82843 -1.58673e-13 
5.08335 -2.82843 -1.41656e-13 
5.29521 -2.82843 -1.17773e-13 
5.50719 -2.82843 -9.13983e-14 
5.71984 -2.82843 -8.25172e-14 
5.93444 -2.82843 -7.51899e-14 
6.15034 -2.82843 -6.57538e-14 
6.36589 -2.82843 -5.46535e-14 
6.58529 -2.82843 -5.56875e-14 
6.80902 -2.82843 -8.6735e-14 
7.03504 -2.82843 -7.97608e-14 
7.26402 -2.82843 -2.11138e-14 
7.49952 -2.82843 -3.26824e-14 
7.7398 -2.82843 6.28214e-14 
7.98848 -2.82843 7.99307e-14 
8.22792 -2.82843 1.19281e-13 
8.48528 -2.82843 1.52112e-13 
-8.48528 -2.59957 7.44081e-14 
-8.24321 -2.57231 -2.83489e-17 
-8.02127 -2.6425 3.28221e-18 
-7.73574 -2.61428 -9.82836e-18 
-7.49809 -2.59764 -2.30979e-17 
-7.27353 -2.58736 1.82107e-17 
-7.05302 -2.57691 -2.95536e-17 
-6.85561 -2.66592 -8.87497e-17 
-6.61294 -2.57044 -6.31865e-17 
-6.40856 -2.58218 -3.79521e-17 
-6.19538 -2.59723 -6.35385e-17 
-5.97715 -2.59613 -7.17745e-17 
-5.76102 -2.59793 -5.3502e-17 
-5.54501 -2.60016 -3.18117e-17 
-5.32955 -2.59843 1.3357e-17 
-5.11503 -2.59955 6.77523e-17 
-4.89949 -2.60004 8.3057e-17 
-4.68473 -2.59797 8.62938e-17 
-4.47112 -2.60177 -4.87666e-17 
-4.25497 -2.60093 -3.10585e-16 
-4.03926 -2.60026 -7.23308e-16 
-3.82283 -2.60072 -1.35183e-15 
-3.60259 -2.59734 -1.54916e-14 
-3.38108 -2.59629 -1.86504e-14 
-3.15535 -2.59611 -2.80242e-16 
-2.92821 -2.58819 -5.99854e-14 
-2.70299 -2.57681 -2.4781e-13 
-2.464 -2.58798 -7.6175e-13 
-2.21759 -2.57305 -1.70513e-12 
-1.97412 -2.57553 -4.17043e-12 
-1.73182 -2.58034 -1.08894e-11 
-1.50305 -2.58822 -2.88176e-11 
-1.30013 -2.59416 -5.61375e-11 
-1.12812 -2.63391 -1.28806e-10 
-0.968574 -2.64865 -2.03291e-10 
-0.821125 -2.69536 -4.25477e-10 
-0.692013 -2.68193 -3.81515e-10 
-0.57727 -2.76152 -8.79009e-10 
-0.363069 -2.80366 5.40419e-09 
0.0115052 -2.71821 -2.55849e-10 
0.444251 -2.79877 -1.28839e-09 
0.632192 -2.74816 9.42043e-10 
0.752465 -2.68012 6.19992e-10 
0.857418 -2.61031 1.67342e-10 
0.985901 -2.66238 1.73976e-10 
1.14152 -2.61603 1.45674e-10 
1.33182 -2.61842 7.70686e-11 
1.54806 -2.58471 2.66517e-11 
1.77056 -2.57651 9.08074e-12 
2.01916 -2.58949 4.66987e-12 
2.27435 -2.59027 1.77983e-12 
2.51409 -2.55661 5.0516e-13 
2.73402 -2.5882 2.26881e-13 
2.95884 -2.59404 4.37113e-14 
3.18611 -2.59398 -1.61957e-14 
3.41212 -2.60127 1.99765e-14 
3.63206 -2.6005 1.45919e-14 
3.84811 -2.60028 1.1928e-15 
4.06076 -2.59887 6.1707e-16 
4.27196 -2.59866 2.55242e-16 
4.48314 -2.59861 3.64292e-17 
4.69443 -2.59865 -7.51057e-17 
4.90571 -2.59784 -9.21762e-17 
5.11792 -2.59882 -5.82567e-17 
5.33018 -2.59835 -1.13722e-17 
5.54315 -2.59826 2.68716e-17 
5.75705 -2.59875 5.21473e-17 
5.97164 -2.59773 6.45199e-17 
6.18629 -2.59459 6.62618e-17 
6.40341 -2.59538 6.34494e-17 
6.6241 -2.59635 5.38879e-17 
6.84663 -2.59512 3.8943e-17 
7.07215 -2.59519 2.4937e-17 
7.30311 -2.59921 1.58811e-17 
7.53901 -2.60162 8.10151e-18 
7.78082 -2.60677 4.0429e-18 
8.01749 -2.60393 2.83538e-18 
8.26637 -2.6109 1.86883e-17 
8.48528 -2.58114 -9.79857e-14 
-8.48528 -2.37043 1.1756e-13 
-8.27126 -2.31412 -3.55052e-19 
-8.04632 -2.39493 -2.62429e-18 
-7.81459 -2.42444 1.95398e-18 
-7.59639 -2.17369 2.66067e-17 
-7.56127 -2.38905 -9.93877e-18 
-7.30458 -2.35958 -3.78293e-18 
-7.0568 -2.35443 2.1909e-17 
-6.80133 -2.4328 1.9603e-18 
-6.55958 -2.3245 2.21355e-17 
-6.34197 -2.34966 1.7966e-17 
-6.12235 -2.36612 1.04985e-17 
-5.90082 -2.36744 4.82517e-17 
-5.67943 -2.3712 4.00684e-17 
-5.46077 -2.372 5.2901e-17 
-5.24136 -2.37133 6.10936e-17 
-5.02287 -2.37358 6.85122e-17 
-4.80625 -2.37118 6.22428e-17 
-4.58943 -2.37052 2.52398e-17 
-4.375 -2.37531 8.13918e-18 
-4.15893 -2.37399 9.9686e-18 
-3.94322 -2.37316 2.42216e-17 
-3.72602 -2.3745 -7.64549e-17 
-3.50572 -2.37059 -2.66255e-16 
-3.28248 -2.36788 -3.93428e-16 
-3.05644 -2.36418 3.54041e-18 
-2.82626 -2.34667 1.75709e-14 
-2.58193 -2.34846 -6.50434e-14 
-2.337 -2.34249 -3.14015e-13 
-2.08228 -2.32843 -5.63696e-13 
-1.82983 -2.33936 -6.27176e-13 
-1.58895 -2.35126 3.76526e-13 
-1.36332 -2.36521 6.03086e-13 
-1.16548 -2.4115 4.54661e-12 
-1.0114 -2.46113 -2.95066e-12 
-0.843307 -2.54664 1.7982e-11 
-0.58329 -2.62225 -3.19928e-10 
-0.38175 -2.67346 2.17975e-09 
-0.154386 -2.75528 -1.66865e-09 
-0.0585059 -2.79348 -1.1707e-09 
0.172409 -2.787 6.07241e-10 
0.566004 -2.66306 5.646e-10 
0.677796 -2.57345 -1.03755e-10 
0.795518 -2.48421 1.78206e-10 
0.975359 -2.47589 3.77029e-11 
1.14155 -2.41959 -9.83337e-12 
1.33989 -2.40254 6.53086e-13 
1.54756 -2.34036 5.47044e-12 
1.76736 -2.32505 2.80653e-12 
1.99946 -2.35265 3.21583e-13 
2.25485 -2.35213 1.23462e-13 
2.4993 -2.32157 8.72388e-14 
2.74253 -2.34845 -2.97408e-14 
2.97656 -2.36657 5.93188e-16 
3.20644 -2.37045 7.47668e-16 
3.43014 -2.37487 4.53667e-16 
3.64957 -2.3734 1.58099e-16 
3.86449 -2.37154 3.62678e-17 
4.07698 -2.36931 1.35745e-17 
4.28886 -2.36908 -3.53953e-18 
4.50025 -2.36837 -3.52261e-17 
4.71185 -2.36804 -6.10466e-17 
4.9247 -2.36792 -6.78715e-17 
5.13734 -2.36826 -6.41261e-17 
5.35136 -2.36827 -5.35269e-17 
5.56578 -2.36782 -4.34866e-17 
5.7799 -2.36701 -3.54061e-17 
5.99445 -2.36401 -2.80126e-17 
6.21123 -2.36084 -2.11034e-17 
6.43019 -2.36202 -1.45122e-17 
6.64999 -2.36104 -8.81932e-18 
6.87328 -2.36043 -5.27254e-18 
7.10164 -2.36374 -3.35433e-18 
7.33443 -2.37055 -2.12877e-18 
7.57312 -2.37716 -4.11569e-19 
7.80723 -2.37515 -6.03544e-19 
8.04828 -2.38791 5.07179e-18 
8.26949 -2.35993 6.94426e-18 
8.48528 -2.3308 -1.12345e-13 
-8.48528 -2.11624 7.49731e-14 
-8.27382 -2.05257 8.35359e-18 
-8.05752 -2.15232 -1.08888e-17 
-7.82996 -2.19814 -7.81406e-18 
-7.58135 -1.96498 4.67963e-18 
-7.34403 -2.1539 -2.08084e-17 
-7.08488 -2.14119 7.35245e-20 
-6.81824 -2.22173 3.5171e-17 
-6.57516 -2.11175 3.08225e-17 
-6.3305 -2.11126 1.9865e-17 
-6.11652 -2.13353 5.20388e-17 
-5.89844 -2.13585 3.11235e-17 
-5.67929 -2.14267 4.76269e-17 
-5.46113 -2.14212 5.53408e-17 
-5.24523 -2.14383 5.29502e-17 
-5.0277 -2.14605 4.7261e-17 
-4.81139 -2.14227 4.07226e-17 
-4.59603 -2.14276 2.30274e-17 
-4.37925 -2.14555 2.97026e-18 
-4.16461 -2.14662 1.02367e-17 
-3.94753 -2.14465 5.95094e-17 
-3.73016 -2.14659 8.56969e-17 
-3.50984 -2.14294 -1.94675e-16 
-3.28671 -2.1375 -7.57225e-16 
-3.05898 -2.13263 -1.51976e-14 
-2.82069 -2.11907 4.51838e-14 
-2.57615 -2.11494 9.41258e-14 
-2.32711 -2.10781 1.92514e-13 
-2.08026 -2.09102 -6.52668e-14 
-1.83201 -2.10971 1.58171e-13 
-1.58684 -2.11812 -5.08601e-13 
-1.37296 -2.14933 -2.15072e-12 
-1.16796 -2.2059 -4.50529e-12 
-1.23478 -1.99163 -8.59026e-12 
-1.00747 -2.2447 3.56715e-11 
-0.879597 -2.38245 2.69538e-11 
-0.710432 -2.54428 -1.15698e-10 
-0.478447 -2.70607 -1.07658e-09 
-0.0908264 -2.65501 -2.50216e-09 
0.112328 -2.69121 -2.7943e-10 
0.373785 -2.74877 9.43203e-10 
0.476484 -2.64026 5.61072e-10 
0.567789 -2.51457 1.80538e-10 
0.819097 -2.34267 -2.19176e-11 
0.951232 -2.29731 6.37045e-11 
1.09633 -2.21566 8.21677e-12 
1.28182 -2.19802 8.09529e-12 
1.47848 -2.1224 -2.42487e-12 
1.69995 -2.0823 -2.37831e-12 
1.93454 -2.09651 -3.31556e-13 
2.17128 -2.12344 4.92276e-14 
2.41573 -2.09203 -1.10802e-13 
2.66893 -2.11032 -5.98319e-14 
2.90331 -2.13225 7.08253e-16 
3.13187 -2.14102 1.13232e-15 
3.35753 -2.14584 3.31575e-16 
3.57933 -2.14558 1.28788e-17 
3.79811 -2.14218 -1.0333e-16 
4.01343 -2.13978 -6.74372e-17 
4.22807 -2.13953 -1.59539e-17 
4.44221 -2.13839 -1.07459e-17 
4.65659 -2.13786 -2.29776e-17 
4.87166 -2.13848 -3.94224e-17 
5.08802 -2.13758 -6.20469e-17 
5.3045 -2.13882 -4.54059e-17 
5.52267 -2.13784 -5.4314e-17 
5.74107 -2.13496 -4.79143e-17 
5.95853 -2.13158 -1.63627e-16 
6.17741 -2.12861 -3.80266e-17 
6.39935 -2.1282 -2.18126e-17 
6.62186 -2.12501 -3.37322e-17 
6.84522 -2.12554 -3.03858e-17 
7.07279 -2.13099 -4.70406e-19 
7.30538 -2.1395 -4.18829e-18 
7.54173 -2.14979 7.39582e-18 
7.78161 -2.14407 -1.22728e-17 
8.02063 -2.15681 4.77971e-18 
8.25 -2.11598 -4.31254e-18 
8.48528 -2.09907 -9.608e-14 
-8.48528 -1.86014 2.51637e-14 
-8.27052 -1.79066 7.59056e-18 
-8.05978 -1.90481 3.55217e-18 
[...]
POINT_DATA 1978 
VECTORS vectors float
-0.000136282 0.0016616 0.999999 
4.62911e-05 0.00133455 0.999999 
4.9447e-05 0.000635659 1 
6.73886e-05 -0.000172602 1 
6.25096e-05 -0.000958547 1 
8.07377e-05 -0.00192935 0.999998 
9.08874e-05 -0.00300549 0.999996 
0.00011174 -0.0047479 0.999989 
0.000109411 -0.00591569 0.999983 
8.32408e-05 -0.00710435 0.999975 
7.77346e-05 -0.00839621 0.999965 
6.83457e-05 -0.00960011 0.999954 
5.91328e-05 -0.0107993 0.999942 
4.7138e-05 -0.0119922 0.999928 
2.32641e-05 -0.0131214 0.999914 
-1.38078e-05 -0.0140961 0.999901 
-5.7054e-05 -0.0148805 0.999889 
-0.000115879 -0.0153936 0.999882 
-0.000191721 -0.0155777 0.999879 
-0.000281294 -0.0153545 0.999882 
-0.00037911 -0.0146531 0.999893 
-0.000482445 -0.0133263 0.999911 
-0.000601808 -0.0111352 0.999938 
-0.00069247 -0.00781392 0.999969 
-0.000864176 -0.00264644 0.999996 
-0.00112294 0.0052416 0.999986 
-0.00131085 0.0150006 0.999887 
-0.00147732 0.0279536 0.999608 
-0.00159612 0.0470984 0.998889 
-0.00179772 0.0710761 0.997469 
-0.00204006 0.103644 0.994612 
-0.00276569 0.146348 0.989229 
-0.00489266 0.205505 0.978643 
-0.00819249 0.279422 0.960133 
-0.0108965 0.362666 0.931856 
-0.0133019 0.456774 0.889484 
-0.0165545 0.550834 0.834451 
-0.0167882 0.654581 0.755805 
-0.00683774 0.820455 0.571669 
-0.0143762 0.991923 -0.126019 
0.0126072 0.782067 -0.623065 
0.0218083 0.634384 -0.772711 
0.0253245 0.535639 -0.844068 
0.0180136 0.469245 -0.882886 
0.0120732 0.372127 -0.928104 
0.00849839 0.278378 -0.960434 
0.00419395 0.198203 -0.980151 
0.00301262 0.14268 -0.989764 
0.00212222 0.101413 -0.994842 
0.00173778 0.0679944 -0.997684 
0.00163524 0.0439225 -0.999034 
0.00163687 0.0282168 -0.999601 
0.00136188 0.015424 -0.99988 
0.000999261 0.00441806 -0.99999 
0.000816859 -0.00311321 -0.999995 
0.000702829 -0.0080851 -0.999967 
0.000583443 -0.0114513 -0.999934 
0.000467118 -0.0135341 -0.999908 
0.000366025 -0.014736 -0.999891 
0.000270671 -0.0153519 -0.999882 
0.000184786 -0.015513 -0.99988 
0.000111575 -0.0152937 -0.999883 
5.24168e-05 -0.0147393 -0.999891 
8.98402e-06 -0.0139306 -0.999903 
-2.14798e-05 -0.0129424 -0.999916 
-4.27867e-05 -0.0118452 -0.99993 
-5.78214e-05 -0.0106823 -0.999943 
-6.81927e-05 -0.00947477 -0.999955 
-7.90344e-05 -0.00823471 -0.999966 
-8.82936e-05 -0.00696714 -0.999976 
-9.00697e-05 -0.00566855 -0.999984 
-8.73813e-05 -0.00438195 -0.99999 
-8.20005e-05 -0.00315022 -0.999995 
-7.28437e-05 -0.00200702 -0.999998 
-6.34064e-05 -0.000961896 -1 
-5.43965e-05 -3.84847e-05 -1 
-2.79268e-05 0.000733878 -1 
-4.63508e-05 0.00126401 -0.999999 
0.000132245 0.00167804 -0.999999 
-0.000538763 0.00125276 0.999999 
-0.000231645 0.000965461 1 
2.77952e-05 0.000643291 1 
3.2546e-05 -0.000186875 1 
-2.45156e-05 -0.00108683 1 
-1.63149e-05 -0.00200721 0.999998 
-4.45178e-05 -0.00297352 0.999996 
0.000198217 -0.00403791 0.999992 
-0.000105964 -0.00533396 0.999986 
-0.000153223 -0.00647305 0.999979 
-0.000192294 -0.00768556 0.999971 
-0.000318392 -0.00889566 0.999961 
-0.000443956 -0.0100713 0.999949 
-0.000594867 -0.0112103 0.999937 
-0.000815545 -0.0122592 0.999925 
-0.00109962 -0.0131612 0.999913 
-0.00146637 -0.0138463 0.999903 
-0.00195273 -0.0142517 0.999897 
-0.00253387 -0.0143861 0.999893 
-0.0032533 -0.014116 0.999895 
-0.00401081 -0.0133517 0.999903 
-0.00470485 -0.01194 0.999918 
-0.00522584 -0.00963916 0.99994 
-0.00542769 -0.00609075 0.999967 
-0.00521879 -0.000746747 0.999986 
-0.00474157 0.00758885 0.99996 
-0.00407787 0.0192705 0.999806 
-0.00332889 0.0358798 0.999351 
-0.000564388 0.058334 0.998297 
0.00283918 0.0877795 0.996136 
0.00664531 0.128825 0.991645 
0.00787751 0.182138 0.983242 
0.0131884 0.247138 0.968891 
0.015766 0.327797 0.944617 
0.0192724 0.414285 0.909943 
0.0152741 0.52674 0.849889 
0.0315481 0.610322 0.791525 
0.00528978 0.718728 0.695272 
0.00717916 0.8825 0.470258 
-0.0289075 0.99844 -0.0477738 
-0.00389842 0.833622 -0.552322 
0.0127054 0.683447 -0.72989 
-0.0128525 0.57017 -0.821427 
-0.0296992 0.490069 -0.871178 
-0.0116286 0.417183 -0.908748 
-0.0101288 0.325936 -0.945338 
-0.00460642 0.239761 -0.970821 
-0.00698911 0.170247 -0.985377 
-0.00530015 0.120589 -0.992689 
-0.000818625 0.0812938 -0.99669 
0.00181879 0.0524121 -0.998624 
0.00258573 0.0317958 -0.999491 
0.00409827 0.0167934 -0.999851 
0.004765 0.00561809 -0.999973 
0.00514392 -0.00185124 -0.999985 
0.00535165 -0.00679232 -0.999963 
0.00517802 -0.0100564 -0.999936 
0.00464857 -0.0121728 -0.999915 
0.00395861 -0.0134351 -0.999902 
0.00321438 -0.014106 -0.999896 
0.00252566 -0.0143285 -0.999894 
0.00193928 -0.0141903 -0.999898 
0.00147154 -0.0137486 -0.999905 
0.00110156 -0.0130639 -0.999914 
0.000828145 -0.0121859 -0.999926 
0.00062045 -0.0111729 -0.999938 
0.000454052 -0.0100726 -0.999949 
0.00032017 -0.00891762 -0.99996 
0.000213042 -0.00773072 -0.99997 
0.000117503 -0.00651939 -0.999979 
4.98534e-05 -0.00529016 -0.999986 
1.74229e-05 -0.0040824 -0.999992 
6.21418e-06 -0.00292378 -0.999996 
-3.74183e-06 -0.00183772 -0.999998 
-3.76281e-06 -0.000858185 -1 
3.18346e-05 -1.10684e-05 -1 
0.000123911 0.000619475 -1 
0.000234562 0.00107664 -1 
0.000551745 0.00123631 -0.999999 
-0.000478555 0.000909643 1 
-0.000353254 0.000827439 1 
-0.000293716 0.000537334 1 
-0.000237818 3.37331e-05 1 
-0.000408343 -0.000620978 1 
-0.00027917 -0.000784728 1 
-0.000329638 -0.00179867 0.999999 
-0.00037331 -0.00296802 0.999996 
-0.000330196 -0.00426191 0.999991 
-0.000615644 -0.00539364 0.999985 
-0.000683988 -0.00657935 0.999978 
-0.000795594 -0.00777164 0.99997 
-0.000991371 -0.00892869 0.99996 
-0.00119839 -0.0100661 0.999949 
-0.00145685 -0.0111032 0.999937 
-0.001794 -0.0120058 0.999926 
-0.00221558 -0.0127035 0.999917 
-0.00275556 -0.0130869 0.999911 
-0.00343215 -0.0132153 0.999907 
-0.00420571 -0.0130745 0.999906 
-0.00511009 -0.0125023 0.999909 
-0.00597766 -0.0113758 0.999918 
-0.00660585 -0.00954397 0.999933 
-0.0067644 -0.00686876 0.999954 
-0.00619578 -0.0030655 0.999976 
-0.00482814 0.0025433 0.999985 
-0.00275772 0.0110419 0.999935 
-0.00022788 0.0242069 0.999707 
0.00344953 0.0420123 0.999111 
0.0103416 0.0663696 0.997742 
0.0193982 0.100095 0.994789 
0.030073 0.146134 0.988808 
0.0431044 0.202908 0.978249 
0.0564965 0.279125 0.958591 
0.0741432 0.359687 0.930123 
0.0632095 0.472177 0.879235 
0.0791904 0.671137 0.737092 
0.0683509 0.828343 0.556036 
-0.0050352 0.98843 0.151593 
-0.00912618 0.997559 0.069223 
-0.0239937 0.963925 -0.26509 
-0.0313471 0.7115 -0.701987 
-0.0655351 0.636101 -0.768818 
-0.0824159 0.506267 -0.85843 
-0.0619432 0.387702 -0.919701 
-0.053345 0.291822 -0.954984 
-0.0389818 0.216624 -0.975477 
-0.0316633 0.15585 -0.987273 
-0.0224617 0.110481 -0.993625 
-0.0122666 0.0771159 -0.996947 
-0.00526515 0.0496679 -0.998752 
-0.00167466 0.0290412 -0.999577 
0.00189276 0.0149154 -0.999887 
0.00395252 0.0047799 -0.999981 
0.00551737 -0.00179016 -0.999983 
0.00647884 -0.00601958 -0.999961 
0.00669632 -0.00887403 -0.999938 
0.0062788 -0.0108329 -0.999922 
0.00549936 -0.0121102 -0.999912 
0.00460909 -0.0128441 -0.999907 
0.00377253 -0.0131537 -0.999907 
0.00305915 -0.0131296 -0.999909 
0.00247411 -0.0128234 -0.999915 
0.00201086 -0.0122693 -0.999923 
0.00164468 -0.0115007 -0.999933 
0.00135591 -0.0105686 -0.999943 
0.00112111 -0.00953297 -0.999954 
0.000926262 -0.00843226 -0.999964 
0.000756539 -0.00729072 -0.999973 
0.000606387 -0.00612928 -0.999981 
0.000494107 -0.00496839 -0.999988 
0.000410415 -0.00382213 -0.999993 
0.00034603 -0.00271383 -0.999996 
0.000296666 -0.00167892 -0.999999 
0.000259471 -0.000749805 -1 
0.000257645 9.06215e-07 -1 
0.000299778 0.000590693 -1 
0.000358242 0.00087903 -1 
0.000454348 0.00089755 -1 
-0.000239686 0.000872882 1 
-0.000273939 0.000874773 1 
-0.000325751 0.000549571 1 
-0.000344727 5.1958e-05 1 
-0.000545727 -0.000585325 1 
-0.000519246 -0.001556 0.999999 
-0.000619065 -0.00268526 0.999996 
-0.000659842 -0.0040089 0.999992 
-0.000945306 -0.00512655 0.999987 
-0.00113615 -0.00635828 0.999979 
-0.00130227 -0.00746048 0.999972 
-0.0015285 -0.00855225 0.999962 
-0.00179767 -0.00960282 0.999952 
-0.00212204 -0.0105466 0.999942 
-0.00250821 -0.0113319 0.999933 
-0.00298864 -0.0118917 0.999925 
-0.00361116 -0.0121646 0.99992 
-0.00434584 -0.0121541 0.999917 
-0.00521706 -0.0118805 0.999916 
-0.00618383 -0.0112469 0.999918 
-0.00711835 -0.0100898 0.999924 
-0.00768262 -0.00838789 0.999935 
-0.00757687 -0.00604079 0.999953 
-0.00654492 -0.00288672 0.999975 
-0.00446725 0.00172883 0.999989 
-0.00133368 0.00874315 0.999961 
0.00302673 0.0198663 0.999798 
0.00945673 0.0357236 0.999317 
0.0192366 0.0559336 0.998249 
0.0317612 0.0854496 0.995836 
0.047333 0.123752 0.991184 
0.0656465 0.173577 0.98263 
0.0921105 0.242544 0.965758 
0.0970997 0.175132 0.979745 
0.121143 0.306207 0.944226 
0.117517 0.409807 0.904571 
0.103329 0.564192 0.819152 
0.0365768 0.787723 0.614942 
0.00292317 0.987809 0.155649 
-0.048001 0.980192 -0.192142 
-0.0237394 0.862365 -0.50573 
-0.069487 0.767965 -0.636711 
-0.11856 0.655595 -0.745747 
-0.137703 0.440722 -0.887019 
-0.11125 0.362007 -0.925513 
-0.102102 0.276763 -0.955499 
-0.0729403 0.208357 -0.975329 
-0.0576501 0.143449 -0.987977 
-0.0410814 0.100287 -0.99411 
-0.0259916 0.071227 -0.997122 
-0.0145788 0.0487278 -0.998706 
-0.00753823 0.0289454 -0.999553 
-0.00149951 0.0151523 -0.999884 
0.0022871 0.00595714 -0.99998 
0.00500932 -0.00036243 -0.999988 
0.00680517 -0.00435475 -0.999968 
0.00764472 -0.00702631 -0.999946 
0.00757544 -0.00898873 -0.999931 
0.00690155 -0.0104261 -0.999922 
0.00595003 -0.0114027 -0.999917 
0.00500334 -0.0119415 -0.999916 
0.00416525 -0.0121316 -0.999918 
0.00346386 -0.0120359 -0.999922 
0.00289406 -0.0116611 -0.999928 
0.00242915 -0.0110575 -0.999936 
0.00205475 -0.0102375 -0.999946 
0.00174648 -0.0092785 -0.999956 
0.00148774 -0.00823889 -0.999965 
0.00126317 -0.00715292 -0.999974 
0.00106689 -0.00604168 -0.999981 
0.000909751 -0.00491522 -0.999988 
0.000773985 -0.00380569 -0.999993 
0.000652532 -0.00273027 -0.999996 
0.00054602 -0.00171869 -0.999999 
0.000452021 -0.000817905 -1 
0.000379183 -5.86921e-05 -1 
0.000326561 0.000507896 -1 
0.000297124 0.000843073 -1 
0.000245085 0.000873777 -1 
-6.59082e-05 0.00108126 1 
-0.000176906 0.00103024 1 
-0.000330684 0.000669938 1 
-0.000435442 0.000151615 1 
-0.000680817 -0.00148951 0.999999 
-0.00080232 -0.0024916 0.999997 
-0.000769419 -0.00214896 0.999998 
-0.000887442 -0.00375552 0.999993 
-0.00111254 -0.0045301 0.999989 
-0.00130443 -0.00566999 0.999983 
-0.00156041 -0.00677464 0.999976 
-0.00180887 -0.00779945 0.999968 
-0.00210154 -0.00881015 0.999959 
-0.00246215 -0.00971456 0.99995 
-0.00288151 -0.0104629 0.999941 
-0.00338219 -0.0110048 0.999934 
-0.00400998 -0.0112377 0.999929 
-0.00475815 -0.011188 0.999926 
-0.00562455 -0.0108935 0.999925 
-0.00661274 -0.0102865 0.999925 
-0.00760466 -0.00931426 0.999928 
-0.0083865 -0.00788435 0.999934 
-0.00856276 -0.00607343 0.999945 
-0.00780615 -0.00379944 0.999962 
-0.00587121 -0.000662336 0.999983 
-0.00267493 0.00410746 0.999988 
0.0021925 0.0117035 0.999929 
0.00915176 0.0225821 0.999703 
0.0190047 0.0363341 0.999159 
0.0324067 0.0570197 0.997847 
0.0487172 0.0836928 0.9953 
0.0706513 0.118034 0.990493 
0.104408 0.127984 0.986265 
0.150373 0.16795 0.974259 
0.136159 0.220296 0.965883 
0.169992 0.352091 0.920399 
0.140094 0.489241 0.860823 
0.105272 0.861763 0.496267 
0.0714899 0.819391 0.568759 
-0.0412863 0.995068 -0.0901982 
-0.0529312 0.923392 -0.38019 
-0.132661 0.778853 -0.613016 
-0.145956 0.561184 -0.814721 
-0.207315 0.364085 -0.907999 
-0.166468 0.298829 -0.939676 
-0.130102 0.217216 -0.967415 
-0.0954643 0.164475 -0.981751 
-0.0701976 0.111577 -0.991274 
-0.048175 0.077237 -0.995848 
-0.0310515 0.0537498 -0.998072 
-0.0183577 0.0361502 -0.999178 
-0.00865447 0.0206204 -0.99975 
-0.0019279 0.0104613 -0.999944 
0.00272577 0.00340491 -0.999991 
0.00583807 -0.00129685 -0.999982 
0.00774019 -0.00427116 -0.999961 
0.00853119 -0.0063507 -0.999944 
0.00835322 -0.00799214 -0.999933 
0.00757511 -0.00932759 -0.999928 
0.00657932 -0.0102941 -0.999926 
0.00561206 -0.0108887 -0.999925 
0.00475231 -0.0111628 -0.999927 
0.0040188 -0.0111624 -0.99993 
0.00340348 -0.0108664 -0.999935 
0.00289744 -0.0103766 -0.999942 
0.00247478 -0.00962852 -0.999951 
0.00212026 -0.0087343 -0.99996 
0.00181327 -0.007751 -0.999968 
0.00154329 -0.00671284 -0.999976 
0.00131323 -0.00565494 -0.999983 
0.00111896 -0.0045729 -0.999989 
0.000948871 -0.00349666 -0.999994 
0.000805161 -0.00246096 -0.999997 
0.000680185 -0.00149297 -0.999999 
0.000566795 -0.000633847 -1 
0.000453867 9.02439e-05 -1 
0.000349035 0.000617377 -1 
0.000215088 0.000974983 -1 
6.92532e-05 0.00107392 -1 
2.25564e-05 0.00123635 0.999999 
-9.21281e-05 0.0011255 1 
-0.000260007 0.000721152 1 
-0.000392318 0.000196178 1 
-0.000529575 -0.000493914 1 
-0.000643691 -0.00130925 0.999999 
-0.000917928 -0.00299225 0.999995 
-0.000941429 -0.00321826 0.999995 
-0.00112703 -0.00412544 0.999991 
-0.00136943 -0.00524176 0.999986 
-0.00164522 -0.00628692 0.999979 
-0.00196041 -0.00730392 0.999972 
-0.00228753 -0.00827712 0.999963 
-0.00265945 -0.00910854 0.999955 
-0.00310165 -0.009791 0.999947 
-0.00362463 -0.0102625 0.999941 
-0.00425294 -0.0104209 0.999937 
-0.00498586 -0.0103103 0.999935 
-0.00582593 -0.00994902 0.999934 
-0.00676213 -0.00932521 0.999934 
-0.00772702 -0.00839607 0.999935 
-0.00855277 -0.00719857 0.999938 
-0.0089409 -0.00569566 0.999944 
-0.00857385 -0.00397213 0.999956 
-0.00714446 -0.00176934 0.999973 
-0.00443613 0.00137961 0.999989 
1.35752e-06 0.00631871 0.99998 
0.00663327 0.0134166 0.999888 
0.0164088 0.0226272 0.999609 
0.03027 0.0374026 0.998842 
0.0479701 0.0564442 0.997253 
0.0706188 0.080526 0.994248 
0.103241 0.0832594 0.991166 
0.140032 0.101177 0.984964 
0.176304 0.274451 0.945301 
0.195879 0.418575 0.886807 
0.142848 0.693822 0.705836 
0.177356 0.563461 0.80688 
0.0256991 0.924602 0.380067 
-0.0490431 0.857277 -0.512514 
-0.0854903 0.944777 -0.316365 
-0.185604 0.691338 -0.698285 
-0.21118 0.481131 -0.850833 
-0.231553 0.239261 -0.942941 
-0.180055 0.204612 -0.962141 
-0.136814 0.145451 -0.97986 
-0.100587 0.111342 -0.988679 
-0.0687433 0.0733689 -0.994933 
-0.0481223 0.0501055 -0.997584 
-0.0318034 0.0375993 -0.998787 
-0.0183062 0.0250937 -0.999518 
-0.00796109 0.0137153 -0.999874 
-0.000625408 0.00618215 -0.999981 
0.00398133 0.00136282 -0.999991 
0.00683326 -0.00196613 -0.999975 
0.00841008 -0.00414723 -0.999956 
0.00891215 -0.00575482 -0.999944 
0.00857865 -0.00712402 -0.999938 
0.00780336 -0.00831749 -0.999935 
0.00684799 -0.00925816 -0.999934 
0.00593188 -0.0099127 -0.999933 
0.00508662 -0.0102634 -0.999935 
0.004359 -0.0103933 -0.999937 
0.00372046 -0.0102049 -0.999941 
0.00317978 -0.00979038 -0.999947 
0.0027219 -0.00912197 -0.999955 
0.00232964 -0.00827962 -0.999963 
0.00199017 -0.007365 -0.999971 
0.0016836 -0.00637216 -0.999978 
0.00141214 -0.00533943 -0.999985 
0.00117442 -0.00429548 -0.99999 
0.000969349 -0.00326912 -0.999994 
0.000791418 -0.00226913 -0.999997 
0.000639343 -0.00133547 -0.999999 
0.000506477 -0.000504793 -1 
0.000375606 0.000199424 -1 
0.000255469 0.000725842 -1 
0.000108187 0.00109576 -1 
-2.176e-05 0.0012151 -0.999999 
8.38521e-05 0.00135819 0.999999 
-3.21131e-05 0.00124124 0.999999 
-0.00018396 0.000788343 1 
-0.000315444 0.000231566 1 
-0.000448883 -0.000429592 1 
-0.000568537 -0.00111123 0.999999 
-0.000725605 -0.00196766 0.999998 
-0.000950141 -0.00295132 0.999995 
-0.00116698 -0.00402935 0.999991 
-0.00143264 -0.00507135 0.999986 
-0.00173101 -0.00609428 0.99998 
-0.00204412 -0.00701729 0.999973 
-0.00237937 -0.0079089 0.999966 
-0.00277044 -0.00871909 0.999958 
-0.0032067 -0.00929907 0.999952 
-0.00373214 -0.00968931 0.999946 
-0.00433438 -0.00973619 0.999943 
-0.00503942 -0.00953133 0.999942 
-0.00581081 -0.00908808 0.999942 
-0.00663451 -0.00844297 0.999942 
-0.00740327 -0.00755531 0.999944 
-0.0080862 -0.00653067 0.999946 
-0.00835903 -0.00532766 0.999951 
-0.00802707 -0.00399194 0.99996 
-0.0066997 -0.00241116 0.999975 
-0.00404518 -0.000158004 0.999992 
0.000395994 0.00320936 0.999995 
0.00743389 0.00770765 0.999943 
0.0185591 0.0141799 0.999727 
0.0337066 0.0251557 0.999115 
0.0539585 0.0386546 0.997795 
0.07852 0.0499348 0.995661 
0.112817 0.0432976 0.992672 
0.15256 0.0516972 0.986941 
0.205079 0.21415 0.95503 
0.23908 0.312836 0.919225 
0.276946 0.251415 0.927411 
0.247144 0.438259 0.864204 
0.230993 0.598206 0.767328 
0.0318611 0.957381 0.287067 
-0.0831848 0.866604 -0.492014 
-0.237285 0.603554 -0.761195 
-0.282916 0.352608 -0.891979 
-0.237347 0.159567 -0.95823 
-0.183316 0.133518 -0.973945 
-0.138899 0.0882008 -0.986371 
-0.0988334 0.0682215 -0.992763 
-0.0720593 0.0408713 -0.996563 
-0.0501426 0.0262788 -0.998396 
-0.0325062 0.0209598 -0.999252 
-0.018785 0.0150345 -0.999711 
-0.0080898 0.00746837 -0.99994 
-0.000613297 0.0023606 -0.999997 
0.00395272 -0.000625471 -0.999992 
0.00659815 -0.00279598 -0.999975 
0.00795946 -0.00432562 -0.999959 
0.00833829 -0.00552761 -0.99995 
0.0080504 -0.00657652 -0.999946 
0.00743432 -0.00757213 -0.999944 
0.00666346 -0.00844021 -0.999942 
0.00585597 -0.00908804 -0.999942 
0.00511054 -0.00954519 -0.999942 
0.00440371 -0.00970632 -0.999943 
0.00379237 -0.00962248 -0.999947 
0.00325721 -0.00926392 -0.999952 
0.00280117 -0.00867636 -0.999959 
0.00240549 -0.0078995 -0.999966 
0.00205467 -0.00700902 -0.999974 
0.00174009 -0.00605881 -0.99998 
0.00145305 -0.00505684 -0.999986 
0.00119615 -0.00405103 -0.999991 
0.000965315 -0.00305096 -0.999995 
0.000760543 -0.00207758 -0.999998 
0.000581899 -0.00116893 -0.999999 
0.000425135 -0.00036282 -1 
0.000283284 0.000321412 -1 
0.000157792 0.00083466 -1 
2.11204e-05 0.00120547 -0.999999 
-0.00010739 0.00131656 -0.999999 
0.000126264 0.00147674 0.999999 
1.63147e-05 0.00140499 0.999999 
-0.000130873 0.000967598 1 
-0.000268179 0.000422783 1 
-0.000412906 -0.000265957 1 
-0.000568118 -0.00102188 0.999999 
-0.000756034 -0.00194979 0.999998 
-0.000962207 -0.0028554 0.999996 
-0.00118952 -0.003872 0.999992 
-0.00144451 -0.00485885 0.999987 
-0.00172021 -0.0058099 0.999982 
-0.00202825 -0.0067582 0.999975 
-0.00235831 -0.00762027 0.999968 
-0.00271825 -0.00834463 0.999962 
-0.00314089 -0.00891968 0.999955 
-0.00361693 -0.00920124 0.999951 
-0.00418574 -0.00922383 0.999949 
-0.00482009 -0.00895235 0.999948 
-0.00548988 -0.00846772 0.999949 
-0.00613941 -0.00780805 0.999951 
-0.00672622 -0.00705596 0.999953 
-0.00714283 -0.00623671 0.999955 
-0.00723285 -0.00540526 0.999959 
-0.00678239 -0.00459441 0.999967 
-0.00546078 -0.00374444 0.999978 
-0.00287843 -0.00259611 0.999993 
0.00153155 -0.000834592 0.999999 
0.00898965 0.00146158 0.999959 
0.0195696 0.00333889 0.999803 
0.0336272 0.00950563 0.999389 
0.0538762 0.0157173 0.998424 
0.081865 0.0186213 0.99647 
0.126684 0.0073392 0.991916 
0.173146 -0.000865222 0.984896 
0.230879 0.155488 0.960478 
0.183458 0.120558 0.975607 
0.241419 0.0900893 0.96623 
0.313036 0.398731 0.861988 
0.218065 0.723464 0.655018 
0.0400845 0.974788 0.219506 
-0.141323 0.882273 -0.449027 
-0.302695 0.441599 -0.844612 
-0.197406 0.372791 -0.906674 
-0.236299 0.0929819 -0.967221 
-0.184906 0.0737707 -0.979984 
-0.134709 0.0401037 -0.990073 
-0.100258 0.0260725 -0.99462 
-0.0717537 0.00999858 -0.997372 
-0.0491514 0.00402722 -0.998783 
-0.032581 0.00505684 -0.999456 
-0.0191007 0.00427724 -0.999809 
-0.00900214 0.000747151 -0.999959 
-0.00187299 -0.0015739 -0.999997 
0.00276742 -0.00301179 -0.999992 
0.00540102 -0.00408463 -0.999977 
0.0067656 -0.00493268 -0.999965 
0.00721667 -0.00565929 -0.999958 
0.00712608 -0.00636146 -0.999955 
0.00672359 -0.00710307 -0.999952 
0.00617212 -0.00787679 -0.99995 
0.00552811 -0.00852211 -0.999949 
0.00487573 -0.00898403 -0.999948 
0.00423949 -0.00919869 -0.999949 
0.00367488 -0.00917371 -0.999951 
0.00317478 -0.00886041 -0.999956 
0.00275124 -0.00833732 -0.999962 
0.00237288 -0.0075951 -0.999969 
0.00204312 -0.00675138 -0.999975 
0.0017433 -0.00583406 -0.999982 
0.00146159 -0.00485712 -0.999987 
0.00120159 -0.00385395 -0.999992 