# vtk DataFile Version 3.0 
Exported using Morpho https://github.com/Morpho-lang/morpho 
ASCII 
DATASET UNSTRUCTURED_GRID 

POINTS 1978 float 
-8.48528 -2.82843 -1.86122e-13 
-8.2713 -2.82843 -2.14497e-13 
-7.97245 -2.82843 -1.4336e-13 
-7.72366 -2.82843 -3.32566e-14 
-7.49769 -2.82843 8.87153e-14 
-7.28149 -2.82843 -6.15782e-14 
-7.05886 -2.82843 1.64085e-13 
-6.74769 -2.82843 1.02906e-13 
-6.54818 -2.82843 6.68145e-14 
-6.34291 -2.82843 7.34311e-14 
-6.12458 -2.82843 7.46659e-14 
-5.91293 -2.82843 1.09354e-13 
-5.70093 -2.82843 9.51093e-14 
-5.48843 -2.82843 1.3129e-13 
-5.2784 -2.82843 1.55707e-13 
-5.06778 -2.82843 1.55372e-13 
-4.85635 -2.82843 1.55945e-13 
-4.64669 -2.82843 1.64255e-13 
-4.43485 -2.82843 2.93908e-13 
-4.22493 -2.82843 -2.90435e-14 
-4.01628 -2.82843 -3.04971e-13 
-3.8069 -2.82843 -6.84819e-13 
-3.59605 -2.82843 -9.01042e-13 
-3.38672 -2.82843 -7.64792e-13 
-3.17642 -2.82843 8.88636e-13 
-2.96703 -2.82843 3.74997e-12 
-2.76628 -2.82843 7.62489e-12 
-2.56628 -2.82843 1.45321e-11 
-2.33804 -2.82843 7.14212e-12 
-2.11126 -2.82843 -4.75091e-11 
-1.87456 -2.82843 -2.50348e-10 
-1.64541 -2.82843 -7.48095e-10 
-1.42532 -2.82843 -2.05569e-09 
-1.24024 -2.82843 -5.67772e-09 
-1.07285 -2.82843 -1.19626e-08 
-0.920746 -2.82843 -2.43939e-08 
-0.777537 -2.82843 -3.61471e-08 
-0.665882 -2.82843 -9.24275e-08 
-0.455469 -2.82843 -4.71274e-07 
0.0684395 -2.82843 1.43397e-07 
0.518515 -2.82843 2.70248e-07 
0.711819 -2.82843 4.19855e-08 
0.816748 -2.82843 2.76841e-08 
0.917075 -2.82843 2.02336e-08 
1.0711 -2.82843 1.14548e-08 
1.23595 -2.82843 4.19446e-09 
1.44668 -2.82843 1.50436e-09 
1.663 -2.82843 6.40067e-10 
1.88716 -2.82843 2.01997e-10 
2.13266 -2.82843 1.87133e-11 
2.37077 -2.82843 -1.02543e-11 
2.56473 -2.82843 -7.76417e-12 
2.76363 -2.82843 -6.89471e-12 
2.97298 -2.82843 -3.88871e-12 
3.18664 -2.82843 -8.04666e-13 
3.39995 -2.82843 5.97139e-13 
3.61446 -2.82843 8.9477e-13 
3.82584 -2.82843 6.25752e-13 
4.03542 -2.82843 2.7192e-13 
4.2434 -2.82843 1.0196e-13 
4.45211 -2.82843 -2.02471e-13 
4.66192 -2.82843 -2.17057e-13 
4.87273 -2.82843 -2.11492e-13 
5.08335 -2.82843 -1.88811e-13 
5.29521 -2.82843 -1.56978e-13 
5.50719 -2.82843 -1.21823e-13 
5.71984 -2.82843 -1.09985e-13 
5.93444 -2.82843 -1.00219e-13 
6.15034 -2.82843 -8.7642e-14 
6.36589 -2.82843 -7.28467e-14 
6.58529 -2.82843 -7.42249e-14 
6.80902 -2.82843 -1.15608e-13 
7.03504 -2.82843 -1.06312e-13 
7.26402 -2.82843 -2.81423e-14 
7.49952 -2.82843 -4.35619e-14 
7.7398 -2.82843 8.37336e-14 
7.98848 -2.82843 1.06538e-13 
8.22792 -2.82843 1.58987e-13 
8.48528 -2.82843 2.02747e-13 
-8.48528 -2.59957 9.91773e-14 
-8.24372 -2.57373 -3.7786e-17 
-8.02143 -2.64076 4.37944e-18 
-7.74299 -2.61602 -1.31027e-17 
-7.49789 -2.59393 -3.07917e-17 
-7.27344 -2.58991 2.42371e-17 
-7.05297 -2.57899 -3.9424e-17 
-6.85288 -2.66551 -1.18454e-16 
-6.61229 -2.56828 -8.43202e-17 
-6.40794 -2.58251 -5.06965e-17 
-6.19496 -2.59676 -8.48243e-17 
-5.97697 -2.59597 -9.57974e-17 
-5.76094 -2.59787 -7.14243e-17 
-5.54475 -2.59994 -4.24611e-17 
-5.32916 -2.59819 1.78367e-17 
-5.11463 -2.59956 9.04343e-17 
-4.89908 -2.60001 1.10927e-16 
-4.68429 -2.59784 1.15184e-16 
-4.47062 -2.60154 -6.50811e-17 
-4.25438 -2.60076 -4.14588e-16 
-4.0385 -2.60014 -9.65553e-16 
-3.82184 -2.60061 -1.8046e-15 
-3.60113 -2.59631 -2.06533e-14 
-3.37946 -2.59642 -2.48641e-14 
-3.15409 -2.59619 -3.74374e-16 
-2.92801 -2.58788 3.28427e-14 
-2.70339 -2.5773 -6.08439e-14 
-2.46457 -2.58793 -3.33866e-13 
-2.21839 -2.57388 -7.47337e-13 
-1.97418 -2.57591 -1.82784e-12 
-1.73214 -2.58245 -4.77268e-12 
-1.50373 -2.58994 -1.26305e-11 
-1.30212 -2.59619 -2.4604e-11 
-1.13013 -2.63598 -5.64529e-11 
-0.971535 -2.65003 -8.91005e-11 
-0.826299 -2.69686 -1.865e-10 
-0.698193 -2.68593 -1.67212e-10 
-0.575843 -2.76043 -3.85248e-10 
-0.359611 -2.80245 2.36839e-09 
0.011442 -2.72069 -1.1216e-10 
0.445935 -2.79893 -5.64665e-10 
0.630943 -2.74777 4.1287e-10 
0.752406 -2.68066 2.71642e-10 
0.858388 -2.60877 7.34243e-11 
0.985924 -2.6621 7.62516e-11 
1.14361 -2.62074 6.38487e-11 
1.33175 -2.62242 3.37778e-11 
1.54755 -2.58573 1.1681e-11 
1.77092 -2.57671 3.97998e-12 
2.01941 -2.5898 2.04675e-12 
2.27452 -2.59108 7.8008e-13 
2.51394 -2.55813 2.21406e-13 
2.73268 -2.58661 5.57051e-14 
2.95573 -2.59343 -1.71413e-14 
3.18352 -2.59261 -2.15842e-14 
3.4107 -2.6012 2.66322e-14 
3.63136 -2.60043 1.94536e-14 
3.8477 -2.60015 1.59231e-15 
4.06044 -2.59868 8.23731e-16 
4.27174 -2.59855 3.4071e-16 
4.48297 -2.59855 4.86117e-17 
4.69424 -2.59858 -1.00275e-16 
4.90552 -2.59777 -1.2306e-16 
5.11772 -2.59871 -7.77763e-17 
5.33 -2.59817 -1.5187e-17 
5.54303 -2.59804 3.58665e-17 
5.75702 -2.59853 6.96083e-17 
5.97165 -2.59754 8.6126e-17 
6.18638 -2.59445 8.84522e-17 
6.40357 -2.59525 8.46972e-17 
6.62419 -2.59619 7.19334e-17 
6.84663 -2.59497 5.1983e-17 
7.07214 -2.59511 3.32848e-17 
7.30309 -2.59912 2.11927e-17 
7.53889 -2.6015 1.08078e-17 
7.78041 -2.6066 5.38916e-18 
8.01745 -2.60495 3.77917e-18 
8.26547 -2.61059 2.49087e-17 
8.48528 -2.58114 -1.30604e-13 
-8.48528 -2.37043 1.56694e-13 
-8.27211 -2.31528 -4.75241e-19 
-8.04589 -2.39563 -3.5016e-18 
-7.81463 -2.4248 2.60077e-18 
-7.59617 -2.17709 3.5452e-17 
-7.55615 -2.38459 -1.32378e-17 
-7.3039 -2.36327 -5.02746e-18 
-7.05737 -2.35508 2.92082e-17 
-6.80481 -2.43218 2.66578e-18 
-6.5609 -2.32464 2.95493e-17 
-6.34267 -2.34976 2.39891e-17 
-6.12247 -2.36563 1.40255e-17 
-5.90092 -2.36701 6.43965e-17 
-5.67967 -2.37107 5.34897e-17 
-5.46097 -2.37164 7.06184e-17 
-5.24162 -2.37096 8.15605e-17 
-5.02342 -2.3734 9.14391e-17 
-4.80697 -2.37105 8.30833e-17 
-4.59015 -2.37032 3.37217e-17 
-4.37558 -2.37502 1.08642e-17 
-4.15944 -2.3738 1.33068e-17 
-3.94365 -2.37301 3.23339e-17 
-3.72618 -2.37409 -1.02082e-16 
-3.50481 -2.36961 -3.55018e-16 
-3.28138 -2.3678 -5.25584e-16 
-3.05544 -2.36352 4.72516e-18 
-2.82516 -2.3463 2.34251e-14 
-2.58076 -2.34902 3.56109e-14 
-2.3352 -2.34266 -1.37628e-13 
-2.07985 -2.33062 -2.47065e-13 
-1.82624 -2.34046 -2.74885e-13 
-1.58697 -2.35397 1.6507e-13 
-1.3643 -2.36821 2.63901e-13 
-1.16621 -2.41588 1.98975e-12 
-1.01336 -2.4627 -1.28544e-12 
-0.848365 -2.54188 7.88832e-12 
-0.594443 -2.62041 -1.40531e-10 
-0.384926 -2.67367 9.55371e-10 
-0.15757 -2.75381 -7.31356e-10 
-0.0623825 -2.79296 -5.13222e-10 
0.171088 -2.7874 2.66131e-10 
0.567575 -2.65871 2.47455e-10 
0.681679 -2.57053 -4.53883e-11 
0.803643 -2.4825 7.80332e-11 
0.982818 -2.47441 1.65213e-11 
1.14264 -2.42039 -4.31104e-12 
1.33902 -2.40683 2.84995e-13 
1.54638 -2.34387 2.39822e-12 
1.76618 -2.32557 1.23007e-12 
1.99883 -2.35303 1.40942e-13 
2.25419 -2.35348 1.98922e-14 
2.49834 -2.32379 -4.77633e-14 
2.74136 -2.34534 -3.96309e-14 
2.97541 -2.36595 7.92262e-16 
3.2061 -2.3695 9.98045e-16 
3.4299 -2.37482 6.05615e-16 
3.64929 -2.37309 2.11054e-16 
3.86415 -2.37116 4.84172e-17 
4.07682 -2.3691 1.81222e-17 
4.28884 -2.36897 -4.72378e-18 
4.50024 -2.36828 -4.70231e-17 
4.71184 -2.36792 -8.1491e-17 
4.92464 -2.36775 -9.06019e-17 
5.13724 -2.36802 -8.56022e-17 
5.35127 -2.36796 -7.14537e-17 
5.56578 -2.36751 -5.8051e-17 
5.77988 -2.36662 -4.7265e-17 
5.99446 -2.36377 -3.73953e-17 
6.21132 -2.36069 -2.81719e-17 
6.43021 -2.36171 -1.93732e-17 
6.64995 -2.36072 -1.17737e-17 
6.87324 -2.36022 -7.03857e-18 
7.10167 -2.3636 -4.4776e-18 
7.33452 -2.37036 -2.84172e-18 
7.57311 -2.37689 -5.4992e-19 
7.80725 -2.37551 -8.03286e-19 
8.04684 -2.38772 6.76165e-18 
8.26863 -2.36043 9.25799e-18 
8.48528 -2.3308 -1.49743e-13 
-8.48528 -2.11624 9.99304e-14 
-8.27379 -2.05251 1.11329e-17 
-8.05893 -2.15408 -1.45112e-17 
-7.82925 -2.19303 -1.04135e-17 
-7.58255 -1.96461 6.23993e-18 
-7.33939 -2.151 -2.77255e-17 
-7.08715 -2.14402 1.1103e-19 
-6.81877 -2.22072 4.68995e-17 
-6.5757 -2.11152 4.11254e-17 
-6.33105 -2.11155 2.65455e-17 
-6.11676 -2.13323 6.94576e-17 
-5.8985 -2.13527 4.15534e-17 
-5.67961 -2.1425 6.35853e-17 
-5.46126 -2.14191 7.38759e-17 
-5.24507 -2.14341 7.06928e-17 
-5.02745 -2.14564 6.31058e-17 
-4.81119 -2.14204 5.4339e-17 
-4.59595 -2.14262 3.0728e-17 
-4.3792 -2.14539 3.96573e-18 
-4.16455 -2.14636 1.36658e-17 
-3.94763 -2.14439 7.94402e-17 
-3.73044 -2.14618 1.14409e-16 
-3.51013 -2.14199 -2.60274e-16 
-3.28649 -2.13761 -1.01049e-15 
-3.0586 -2.13206 -2.02611e-14 
-2.81939 -2.11864 -1.77188e-14 
-2.57492 -2.11518 1.51659e-14 
-2.32572 -2.10823 4.72655e-14 
-2.08019 -2.09203 3.57367e-14 
-1.83402 -2.11107 2.54828e-14 
-1.58917 -2.11917 -2.22901e-13 
-1.37865 -2.14805 -9.42598e-13 
-1.18058 -2.20915 -1.97504e-12 
-1.23206 -1.99094 -3.7647e-12 
-1.01658 -2.24158 1.56282e-11 
-0.887183 -2.3745 1.17998e-11 
-0.718219 -2.54539 -5.06147e-11 
-0.482925 -2.69613 -4.71738e-10 
-0.0906616 -2.65583 -1.09665e-09 
0.110967 -2.68979 -1.22446e-10 
0.3716 -2.74914 4.13395e-10 
0.473104 -2.64454 2.45923e-10 
0.565 -2.51614 7.91249e-11 
0.820126 -2.3552 -9.60379e-12 
0.959493 -2.29402 2.79193e-11 
1.1001 -2.21612 3.60162e-12 
1.28615 -2.20015 3.54933e-12 
1.47942 -2.1241 -1.06337e-12 
1.69956 -2.08374 -1.04242e-12 
1.93473 -2.09715 -1.45311e-13 
2.17132 -2.12427 -1.93043e-14 
2.4154 -2.09364 -1.78531e-14 
2.66705 -2.10881 3.27584e-14 
2.90281 -2.13088 9.45686e-16 
3.13163 -2.14062 1.51141e-15 
3.35777 -2.14552 4.42631e-16 
3.57951 -2.14532 1.71945e-17 
3.79848 -2.14161 -1.37938e-16 
4.01395 -2.13956 -9.00233e-17 
4.22875 -2.13949 -2.12982e-17 
4.44288 -2.13821 -1.43457e-17 
4.65705 -2.13771 -3.06736e-17 
4.87196 -2.13822 -5.26266e-17 
5.0881 -2.13727 -8.27896e-17 
5.30443 -2.13844 -6.06394e-17 
5.52256 -2.13758 -7.25006e-17 
5.74097 -2.13457 -6.39626e-17 
5.95844 -2.13129 -2.18184e-16 
6.17732 -2.12856 -5.07632e-17 
6.39932 -2.12792 -2.91434e-17 
6.62189 -2.12469 -4.50116e-17 
6.84536 -2.1253 -4.05341e-17 
7.07304 -2.13084 -6.50432e-19 
7.3058 -2.13936 -5.59133e-18 
7.54236 -2.14957 9.85328e-18 
7.78243 -2.1444 -1.63541e-17 
8.02116 -2.15568 6.37085e-18 
8.25002 -2.11628 -5.74759e-18 
8.48528 -2.09907 -1.28064e-13 
-8.48528 -1.86014 3.35403e-14 
-8.26979 -1.7907 1.01151e-17 
-8.05879 -1.9054 4.73232e-18 
[...]
POINT_DATA 1978 
VECTORS vectors float
-0.000136197 0.00166154 0.999999 
4.6233e-05 0.00133455 0.999999 
4.92981e-05 0.000635659 1 
6.72298e-05 -0.000172602 1 
6.23551e-05 -0.000958546 0.999999 
8.0554e-05 -0.00192935 0.999998 
9.06243e-05 -0.00300549 0.999995 
0.000111452 -0.0047479 0.999989 
0.000109186 -0.00591569 0.999982 
8.30476e-05 -0.00710435 0.999975 
7.75599e-05 -0.00839621 0.999965 
6.8193e-05 -0.00960011 0.999954 
5.90016e-05 -0.0107993 0.999942 
4.70374e-05 -0.0119922 0.999928 
2.32174e-05 -0.0131214 0.999914 
-1.37748e-05 -0.0140961 0.999901 
-5.69218e-05 -0.0148805 0.999889 
-0.000115615 -0.0153936 0.999881 
-0.00019129 -0.0155777 0.999879 
-0.000280671 -0.0153545 0.999882 
-0.000378272 -0.0146531 0.999892 
-0.000481371 -0.0133263 0.999911 
-0.000600486 -0.0111352 0.999938 
-0.000690908 -0.00781392 0.999969 
-0.000862233 -0.00264644 0.999996 
-0.00112054 0.0052416 0.999986 
-0.00130809 0.0150006 0.999887 
-0.001474 0.0279536 0.999608 
-0.00159226 0.0470984 0.998889 
-0.00179331 0.0710761 0.99747 
-0.00203486 0.103644 0.994613 
-0.00275862 0.146349 0.98923 
-0.00488197 0.205505 0.978645 
-0.00817755 0.279422 0.960134 
-0.0108783 0.362666 0.931855 
-0.013281 0.456774 0.889483 
-0.016533 0.550834 0.83445 
-0.0167635 0.654582 0.755806 
-0.00680069 0.820456 0.57167 
-0.0143307 0.991925 -0.12602 
0.0125827 0.782069 -0.623067 
0.0217764 0.634384 -0.772711 
0.0252989 0.535638 -0.844067 
0.0179897 0.469244 -0.882884 
0.0120524 0.372127 -0.928103 
0.00848214 0.278378 -0.960435 
0.00418337 0.198204 -0.980153 
0.00300553 0.14268 -0.989765 
0.00211679 0.101414 -0.994843 
0.00173323 0.0679945 -0.997684 
0.00163147 0.0439225 -0.999034 
0.00163358 0.0282168 -0.9996 
0.00135899 0.015424 -0.99988 
0.000996968 0.00441806 -0.99999 
0.000814995 -0.00311321 -0.999995 
0.000701246 -0.0080851 -0.999967 
0.000582132 -0.0114513 -0.999934 
0.000466076 -0.0135341 -0.999908 
0.000365217 -0.014736 -0.999891 
0.000270073 -0.0153519 -0.999882 
0.000184374 -0.015513 -0.99988 
0.000111323 -0.0152937 -0.999883 
5.22946e-05 -0.0147393 -0.999891 
8.95929e-06 -0.0139306 -0.999903 
-2.14352e-05 -0.0129424 -0.999916 
-4.26933e-05 -0.0118452 -0.99993 
-5.76929e-05 -0.0106823 -0.999943 
-6.80378e-05 -0.00947477 -0.999955 
-7.88553e-05 -0.0082347 -0.999966 
-8.8094e-05 -0.00696714 -0.999976 
-8.98611e-05 -0.00566855 -0.999984 
-8.71752e-05 -0.00438195 -0.99999 
-8.18054e-05 -0.00315022 -0.999995 
-7.26656e-05 -0.00200702 -0.999998 
-6.32473e-05 -0.000961896 -0.999999 
-5.42641e-05 -3.84847e-05 -1 
-2.78357e-05 0.000733878 -1 
-4.63179e-05 0.00126401 -0.999999 
0.000132146 0.00167797 -0.999999 
-0.000538761 0.00125266 0.999999 
-0.000231645 0.000965461 0.999999 
2.77952e-05 0.000643291 1 
3.25459e-05 -0.000186874 1 
-2.45156e-05 -0.00108683 0.999999 
-1.63149e-05 -0.00200721 0.999998 
-4.45178e-05 -0.00297352 0.999995 
0.000198217 -0.00403791 0.999992 
-0.000105964 -0.00533396 0.999986 
-0.000153223 -0.00647304 0.999979 
-0.000192294 -0.00768556 0.99997 
-0.000318392 -0.00889566 0.99996 
-0.000443956 -0.0100713 0.999949 
-0.000594867 -0.0112103 0.999937 
-0.000815544 -0.0122592 0.999924 
-0.00109962 -0.0131612 0.999913 
-0.00146637 -0.0138462 0.999903 
-0.00195273 -0.0142517 0.999896 
-0.00253387 -0.0143861 0.999893 
-0.0032533 -0.014116 0.999895 
-0.00401081 -0.0133517 0.999903 
-0.00470485 -0.01194 0.999917 
-0.00522584 -0.00963916 0.99994 
-0.00542769 -0.00609075 0.999966 
-0.00521879 -0.000746747 0.999986 
-0.00474157 0.00758885 0.99996 
-0.00407787 0.0192705 0.999806 
-0.00332889 0.0358797 0.99935 
-0.000564388 0.058334 0.998297 
0.00283918 0.0877794 0.996136 
0.00664531 0.128825 0.991645 
0.0078775 0.182138 0.983241 
0.0131884 0.247138 0.96889 
0.015766 0.327797 0.944617 
0.0192724 0.414285 0.909943 
0.0152741 0.52674 0.849889 
0.0315481 0.610322 0.791525 
0.00528978 0.718728 0.695272 
0.00717916 0.882499 0.470258 
-0.0289076 0.99844 -0.0477738 
-0.00389842 0.833621 -0.552322 
0.0127054 0.683447 -0.72989 
-0.0128525 0.570169 -0.821426 
-0.0296992 0.490069 -0.871177 
-0.0116286 0.417183 -0.908748 
-0.0101288 0.325936 -0.945337 
-0.00460642 0.239761 -0.970821 
-0.00698911 0.170246 -0.985376 
-0.00530014 0.120589 -0.992688 
-0.000818625 0.0812938 -0.99669 
0.00181879 0.0524121 -0.998624 
0.00258573 0.0317958 -0.999491 
0.00409826 0.0167934 -0.99985 
0.004765 0.00561809 -0.999973 
0.00514391 -0.00185124 -0.999985 
0.00535165 -0.00679232 -0.999962 
0.00517801 -0.0100564 -0.999936 
0.00464857 -0.0121728 -0.999915 
0.00395861 -0.0134351 -0.999902 
0.00321438 -0.014106 -0.999895 
0.00252566 -0.0143285 -0.999894 
0.00193928 -0.0141903 -0.999897 
0.00147154 -0.0137486 -0.999904 
0.00110156 -0.0130639 -0.999914 
0.000828144 -0.0121859 -0.999925 
0.000620449 -0.0111729 -0.999937 
0.000454052 -0.0100726 -0.999949 
0.00032017 -0.00891762 -0.99996 
0.000213042 -0.00773072 -0.99997 
0.000117503 -0.00651939 -0.999979 
4.98534e-05 -0.00529016 -0.999986 
1.74229e-05 -0.00408239 -0.999991 
6.21417e-06 -0.00292378 -0.999995 
-3.74183e-06 -0.00183772 -0.999998 
-3.76281e-06 -0.000858185 -0.999999 
3.18346e-05 -1.10684e-05 -1 
0.000123911 0.000619474 -1 
0.000234562 0.00107663 -0.999999 
0.000551742 0.0012362 -0.999999 
-0.000478553 0.000909561 0.999999 
-0.000353254 0.000827438 0.999999 
-0.000293715 0.000537334 1 
-0.000237818 3.37331e-05 1 
-0.000408342 -0.000620978 0.999999 
-0.00027917 -0.000784727 0.999999 
-0.000329638 -0.00179867 0.999998 
-0.000373309 -0.00296802 0.999995 
-0.000330196 -0.00426191 0.999991 
-0.000615644 -0.00539364 0.999985 
-0.000683988 -0.00657935 0.999978 
-0.000795593 -0.00777164 0.999969 
-0.000991371 -0.00892869 0.999959 
-0.00119838 -0.0100661 0.999948 
-0.00145685 -0.0111032 0.999937 
-0.001794 -0.0120058 0.999926 
-0.00221558 -0.0127035 0.999917 
-0.00275556 -0.0130869 0.99991 
-0.00343215 -0.0132153 0.999907 
-0.00420571 -0.0130745 0.999905 
-0.00511009 -0.0125023 0.999909 
-0.00597766 -0.0113758 0.999917 
-0.00660585 -0.00954396 0.999932 
-0.0067644 -0.00686876 0.999953 
-0.00619577 -0.0030655 0.999976 
-0.00482814 0.0025433 0.999985 
-0.00275771 0.0110419 0.999935 
-0.00022788 0.0242069 0.999707 
0.00344953 0.0420123 0.999111 
0.0103416 0.0663696 0.997741 
0.0193981 0.100095 0.994789 
0.030073 0.146134 0.988807 
0.0431044 0.202908 0.978248 
0.0564965 0.279125 0.958591 
0.0741432 0.359687 0.930123 
0.0632095 0.472177 0.879235 
0.0791904 0.671137 0.737092 
0.0683509 0.828343 0.556036 
-0.0050352 0.98843 0.151593 
-0.00912618 0.99756 0.069223 
-0.0239937 0.963925 -0.26509 
-0.0313471 0.711499 -0.701986 
-0.065535 0.636101 -0.768817 
-0.0824159 0.506267 -0.85843 
-0.0619432 0.387702 -0.919701 
-0.053345 0.291821 -0.954984 
-0.0389818 0.216624 -0.975476 
-0.0316633 0.15585 -0.987273 
-0.0224617 0.110481 -0.993624 
-0.0122665 0.0771158 -0.996946 
-0.00526515 0.0496679 -0.998752 
-0.00167466 0.0290412 -0.999577 
0.00189276 0.0149154 -0.999887 
0.00395252 0.0047799 -0.99998 
0.00551737 -0.00179016 -0.999983 
0.00647883 -0.00601958 -0.999961 
0.00669632 -0.00887402 -0.999938 
0.0062788 -0.0108329 -0.999921 
0.00549936 -0.0121102 -0.999911 
0.00460908 -0.0128441 -0.999907 
0.00377253 -0.0131537 -0.999906 
0.00305915 -0.0131296 -0.999909 
0.00247411 -0.0128234 -0.999915 
0.00201086 -0.0122693 -0.999922 
0.00164468 -0.0115007 -0.999932 
0.00135591 -0.0105686 -0.999943 
0.00112111 -0.00953297 -0.999954 
0.000926262 -0.00843226 -0.999964 
0.000756539 -0.00729072 -0.999973 
0.000606387 -0.00612927 -0.999981 
0.000494107 -0.00496839 -0.999987 
0.000410415 -0.00382212 -0.999992 
0.00034603 -0.00271382 -0.999996 
0.000296666 -0.00167892 -0.999998 
0.000259471 -0.000749805 -0.999999 
0.000257645 9.06215e-07 -1 
0.000299778 0.000590693 -1 
0.000358242 0.00087903 -0.999999 
0.000454346 0.000897469 -0.999999 
-0.000239684 0.0008728 0.999999 
-0.000273939 0.000874773 0.999999 
-0.000325751 0.000549571 1 
-0.000344727 5.1958e-05 1 
-0.000545727 -0.000585325 1 
-0.000519245 -0.001556 0.999998 
-0.000619065 -0.00268526 0.999996 
-0.000659841 -0.0040089 0.999992 
-0.000945305 -0.00512654 0.999986 
-0.00113615 -0.00635828 0.999979 
-0.00130227 -0.00746048 0.999971 
-0.0015285 -0.00855224 0.999962 
-0.00179766 -0.00960281 0.999952 
-0.00212204 -0.0105466 0.999942 
-0.00250821 -0.0113319 0.999932 
-0.00298864 -0.0118917 0.999925 
-0.00361116 -0.0121646 0.999919 
-0.00434584 -0.0121541 0.999916 
-0.00521705 -0.0118805 0.999916 
-0.00618382 -0.0112469 0.999917 
-0.00711835 -0.0100898 0.999924 
-0.00768261 -0.00838788 0.999935 
-0.00757686 -0.00604079 0.999953 
-0.00654492 -0.00288672 0.999974 
-0.00446725 0.00172883 0.999988 
-0.00133368 0.00874314 0.999961 
0.00302673 0.0198663 0.999798 
0.00945672 0.0357236 0.999317 
0.0192365 0.0559335 0.998249 
0.0317612 0.0854495 0.995836 
0.047333 0.123752 0.991183 
0.0656465 0.173577 0.98263 
0.0921105 0.242544 0.965758 
0.0970997 0.175132 0.979745 
0.121143 0.306207 0.944225 
0.117517 0.409807 0.904571 
0.103329 0.564192 0.819152 
0.0365768 0.787723 0.614943 
0.00292317 0.987808 0.155649 
-0.048001 0.980193 -0.192142 
-0.0237394 0.862365 -0.50573 
-0.0694871 0.767966 -0.636711 
-0.11856 0.655595 -0.745747 
-0.137703 0.440722 -0.887019 
-0.11125 0.362007 -0.925513 
-0.102102 0.276763 -0.955498 
-0.0729403 0.208357 -0.975329 
-0.0576501 0.143449 -0.987977 
-0.0410814 0.100287 -0.99411 
-0.0259916 0.071227 -0.997121 
-0.0145788 0.0487278 -0.998705 
-0.00753822 0.0289454 -0.999552 
-0.00149951 0.0151523 -0.999884 
0.0022871 0.00595713 -0.999979 
0.00500932 -0.00036243 -0.999987 
0.00680517 -0.00435475 -0.999967 
0.00764472 -0.00702631 -0.999946 
0.00757544 -0.00898872 -0.999931 
0.00690155 -0.0104261 -0.999922 
0.00595003 -0.0114027 -0.999917 
0.00500334 -0.0119415 -0.999916 
0.00416525 -0.0121316 -0.999918 
0.00346386 -0.0120359 -0.999921 
0.00289406 -0.0116611 -0.999928 
0.00242915 -0.0110575 -0.999936 
0.00205475 -0.0102375 -0.999945 
0.00174648 -0.0092785 -0.999955 
0.00148774 -0.00823888 -0.999965 
0.00126317 -0.00715291 -0.999973 
0.00106688 -0.00604168 -0.999981 
0.00090975 -0.00491522 -0.999987 
0.000773984 -0.00380569 -0.999992 
0.000652531 -0.00273027 -0.999996 
0.00054602 -0.00171869 -0.999998 
0.000452021 -0.000817905 -0.999999 
0.000379183 -5.86921e-05 -1 
0.000326561 0.000507895 -1 
0.000297124 0.000843073 -0.999999 
0.000245083 0.000873701 -0.999999 
-6.59078e-05 0.00108117 0.999999 
-0.000176906 0.00103024 0.999999 
-0.000330684 0.000669937 0.999999 
-0.000435442 0.000151615 1 
-0.000680817 -0.00148951 0.999998 
-0.000802319 -0.0024916 0.999996 
-0.000769418 -0.00214895 0.999997 
-0.000887442 -0.00375552 0.999992 
-0.00111254 -0.00453009 0.999989 
-0.00130443 -0.00566999 0.999983 
-0.00156041 -0.00677464 0.999976 
-0.00180887 -0.00779945 0.999968 
-0.00210154 -0.00881015 0.999959 
-0.00246215 -0.00971456 0.99995 
-0.00288151 -0.0104629 0.999941 
-0.00338219 -0.0110048 0.999934 
-0.00400997 -0.0112377 0.999929 
-0.00475815 -0.011188 0.999926 
-0.00562455 -0.0108935 0.999925 
-0.00661274 -0.0102865 0.999925 
-0.00760466 -0.00931425 0.999927 
-0.0083865 -0.00788435 0.999934 
-0.00856275 -0.00607343 0.999945 
-0.00780615 -0.00379944 0.999962 
-0.0058712 -0.000662335 0.999982 
-0.00267493 0.00410746 0.999988 
0.0021925 0.0117034 0.999929 
0.00915176 0.0225821 0.999703 
0.0190047 0.0363341 0.999159 
0.0324067 0.0570197 0.997847 
0.0487172 0.0836928 0.9953 
0.0706513 0.118034 0.990493 
0.104408 0.127984 0.986265 
0.150373 0.16795 0.974259 
0.136159 0.220296 0.965883 
0.169992 0.352091 0.920399 
0.140094 0.489241 0.860823 
0.105272 0.861764 0.496267 
0.07149 0.819391 0.568759 
-0.0412863 0.995067 -0.0901981 
-0.0529312 0.923392 -0.38019 
-0.132661 0.778853 -0.613016 
-0.145956 0.561184 -0.814721 
-0.207315 0.364085 -0.907999 
-0.166468 0.298829 -0.939675 
-0.130102 0.217216 -0.967414 
-0.0954643 0.164475 -0.981751 
-0.0701975 0.111577 -0.991273 
-0.048175 0.077237 -0.995848 
-0.0310515 0.0537497 -0.998071 
-0.0183577 0.0361502 -0.999177 
-0.00865446 0.0206204 -0.99975 
-0.0019279 0.0104613 -0.999943 
0.00272577 0.00340491 -0.99999 
0.00583806 -0.00129685 -0.999982 
0.00774019 -0.00427116 -0.999961 
0.00853119 -0.0063507 -0.999943 
0.00835322 -0.00799214 -0.999933 
0.00757511 -0.00932759 -0.999928 
0.00657932 -0.0102941 -0.999925 
0.00561205 -0.0108887 -0.999925 
0.00475231 -0.0111628 -0.999926 
0.0040188 -0.0111624 -0.999929 
0.00340348 -0.0108664 -0.999935 
0.00289744 -0.0103766 -0.999942 
0.00247478 -0.00962851 -0.99995 
0.00212026 -0.00873429 -0.999959 
0.00181327 -0.00775099 -0.999968 
0.00154329 -0.00671284 -0.999976 
0.00131323 -0.00565494 -0.999983 
0.00111896 -0.00457289 -0.999989 
0.000948871 -0.00349666 -0.999993 
0.000805161 -0.00246096 -0.999996 
0.000680184 -0.00149297 -0.999998 
0.000566795 -0.000633846 -0.999999 
0.000453866 9.02438e-05 -1 
0.000349035 0.000617377 -1 
0.000215088 0.000974983 -0.999999 
6.92528e-05 0.00107383 -0.999999 
2.25563e-05 0.00123625 0.999999 
-9.2128e-05 0.0011255 0.999999 
-0.000260007 0.000721152 0.999999 
-0.000392318 0.000196178 1 
-0.000529575 -0.000493913 1 
-0.000643691 -0.00130925 0.999999 
-0.000917927 -0.00299225 0.999995 
-0.000941428 -0.00321826 0.999994 
-0.00112703 -0.00412544 0.999991 
-0.00136943 -0.00524176 0.999985 
-0.00164522 -0.00628692 0.999979 
-0.00196041 -0.00730392 0.999971 
-0.00228753 -0.00827712 0.999963 
-0.00265945 -0.00910853 0.999955 
-0.00310165 -0.009791 0.999947 
-0.00362463 -0.0102625 0.999941 
-0.00425293 -0.0104209 0.999936 
-0.00498586 -0.0103103 0.999934 
-0.00582593 -0.00994902 0.999933 
-0.00676212 -0.00932521 0.999933 
-0.00772702 -0.00839606 0.999935 
-0.00855276 -0.00719856 0.999937 
-0.0089409 -0.00569566 0.999944 
-0.00857384 -0.00397213 0.999955 
-0.00714445 -0.00176934 0.999973 
-0.00443612 0.00137961 0.999989 
1.35752e-06 0.00631871 0.99998 
0.00663327 0.0134166 0.999888 
0.0164088 0.0226272 0.999609 
0.03027 0.0374026 0.998841 
0.0479701 0.0564442 0.997252 
0.0706187 0.080526 0.994247 
0.103241 0.0832593 0.991165 
0.140032 0.101177 0.984964 
0.176304 0.27445 0.945301 
0.195879 0.418575 0.886807 
0.142848 0.693823 0.705837 
0.177356 0.563461 0.806881 
0.0256991 0.924602 0.380067 
-0.0490431 0.857277 -0.512514 
-0.0854904 0.944778 -0.316365 
-0.185604 0.691338 -0.698286 
-0.21118 0.481131 -0.850833 
-0.231553 0.239261 -0.942941 
-0.180055 0.204612 -0.96214 
-0.136814 0.145451 -0.97986 
-0.100587 0.111342 -0.988678 
-0.0687432 0.0733689 -0.994933 
-0.0481223 0.0501055 -0.997584 
-0.0318034 0.0375993 -0.998786 
-0.0183062 0.0250937 -0.999517 
-0.00796109 0.0137153 -0.999874 
-0.000625408 0.00618215 -0.99998 
0.00398133 0.00136282 -0.999991 
0.00683325 -0.00196613 -0.999974 
0.00841008 -0.00414723 -0.999956 
0.00891215 -0.00575482 -0.999944 
0.00857864 -0.00712402 -0.999938 
0.00780335 -0.00831749 -0.999935 
0.00684799 -0.00925816 -0.999933 
0.00593188 -0.0099127 -0.999933 
0.00508662 -0.0102634 -0.999934 
0.004359 -0.0103933 -0.999936 
0.00372046 -0.0102049 -0.999941 
0.00317978 -0.00979037 -0.999947 
0.0027219 -0.00912197 -0.999954 
0.00232963 -0.00827962 -0.999963 
0.00199017 -0.007365 -0.999971 
0.0016836 -0.00637215 -0.999978 
0.00141214 -0.00533943 -0.999984 
0.00117442 -0.00429548 -0.99999 
0.000969349 -0.00326912 -0.999994 
0.000791418 -0.00226913 -0.999997 
0.000639343 -0.00133547 -0.999999 
0.000506476 -0.000504792 -1 
0.000375605 0.000199424 -1 
0.000255469 0.000725842 -0.999999 
0.000108187 0.00109576 -0.999999 
-2.176e-05 0.001215 -0.999999 
8.38518e-05 0.00135809 0.999999 
-3.2113e-05 0.00124124 0.999999 
-0.00018396 0.000788343 0.999999 
-0.000315444 0.000231565 1 
-0.000448882 -0.000429592 1 
-0.000568537 -0.00111123 0.999999 
-0.000725605 -0.00196766 0.999998 
-0.000950141 -0.00295132 0.999995 
-0.00116698 -0.00402935 0.999991 
-0.00143264 -0.00507135 0.999986 
-0.00173101 -0.00609428 0.99998 
-0.00204412 -0.00701729 0.999973 
-0.00237936 -0.00790889 0.999966 
-0.00277044 -0.00871908 0.999958 
-0.0032067 -0.00929907 0.999951 
-0.00373214 -0.00968931 0.999946 
-0.00433438 -0.00973619 0.999943 
-0.00503941 -0.00953133 0.999942 
-0.0058108 -0.00908807 0.999942 
-0.00663451 -0.00844297 0.999942 
-0.00740327 -0.0075553 0.999944 
-0.0080862 -0.00653066 0.999946 
-0.00835903 -0.00532766 0.999951 
-0.00802707 -0.00399194 0.99996 
-0.00669969 -0.00241116 0.999974 
-0.00404518 -0.000158003 0.999992 
0.000395994 0.00320936 0.999995 
0.00743389 0.00770765 0.999942 
0.018559 0.0141799 0.999727 
0.0337066 0.0251557 0.999115 
0.0539585 0.0386546 0.997795 
0.07852 0.0499348 0.995661 
0.112817 0.0432976 0.992672 
0.15256 0.0516972 0.986941 
0.205079 0.21415 0.95503 
0.23908 0.312836 0.919225 
0.276946 0.251415 0.927411 
0.247144 0.438259 0.864204 
0.230993 0.598206 0.767328 
0.031861 0.957379 0.287067 
-0.0831848 0.866604 -0.492014 
-0.237285 0.603554 -0.761196 
-0.282916 0.352607 -0.891979 
-0.237347 0.159567 -0.95823 
-0.183316 0.133518 -0.973945 
-0.138899 0.0882007 -0.986371 
-0.0988333 0.0682215 -0.992763 
-0.0720593 0.0408712 -0.996562 
-0.0501426 0.0262788 -0.998396 
-0.0325062 0.0209598 -0.999252 
-0.018785 0.0150345 -0.99971 
-0.0080898 0.00746837 -0.999939 
-0.000613297 0.0023606 -0.999997 
0.00395271 -0.000625471 -0.999992 
0.00659815 -0.00279598 -0.999974 
0.00795946 -0.00432562 -0.999959 
0.00833828 -0.00552761 -0.99995 
0.0080504 -0.00657652 -0.999946 
0.00743431 -0.00757212 -0.999943 
0.00666346 -0.0084402 -0.999942 
0.00585597 -0.00908804 -0.999941 
0.00511054 -0.00954519 -0.999941 
0.00440371 -0.00970631 -0.999943 
0.00379236 -0.00962248 -0.999946 
0.00325721 -0.00926391 -0.999952 
0.00280116 -0.00867636 -0.999958 
0.00240549 -0.0078995 -0.999966 
0.00205467 -0.00700902 -0.999973 
0.00174009 -0.00605881 -0.99998 
0.00145305 -0.00505684 -0.999986 
0.00119615 -0.00405103 -0.999991 
0.000965315 -0.00305096 -0.999995 
0.000760543 -0.00207758 -0.999997 
0.000581898 -0.00116893 -0.999999 
0.000425134 -0.00036282 -1 
0.000283284 0.000321412 -1 
0.000157792 0.000834659 -0.999999 
2.11204e-05 0.00120547 -0.999999 
-0.00010739 0.00131645 -0.999999 
0.000126264 0.00147663 0.999999 
1.63147e-05 0.00140499 0.999999 
-0.000130873 0.000967597 0.999999 
-0.000268179 0.000422783 1 
-0.000412905 -0.000265956 1 
-0.000568118 -0.00102188 0.999999 
-0.000756033 -0.00194979 0.999998 
-0.000962207 -0.0028554 0.999995 
-0.00118952 -0.003872 0.999992 
-0.0014445 -0.00485884 0.999987 
-0.00172021 -0.0058099 0.999981 
-0.00202825 -0.0067582 0.999975 
-0.00235831 -0.00762027 0.999968 
-0.00271824 -0.00834462 0.999961 
-0.00314089 -0.00891967 0.999955 
-0.00361692 -0.00920124 0.999951 
-0.00418574 -0.00922383 0.999949 
-0.00482008 -0.00895235 0.999948 
-0.00548988 -0.00846772 0.999949 
-0.0061394 -0.00780804 0.99995 
-0.00672622 -0.00705596 0.999952 
-0.00714283 -0.00623671 0.999955 
-0.00723285 -0.00540526 0.999959 
-0.00678238 -0.00459441 0.999966 
-0.00546078 -0.00374444 0.999978 
-0.00287843 -0.0025961 0.999992 
0.00153155 -0.000834591 0.999998 
0.00898965 0.00146158 0.999958 
0.0195696 0.00333889 0.999803 
0.0336272 0.00950563 0.999389 
0.0538762 0.0157173 0.998424 
0.081865 0.0186213 0.996469 
0.126683 0.0073392 0.991916 
0.173146 -0.000865222 0.984896 
0.230879 0.155488 0.960478 
0.183458 0.120558 0.975607 
0.241419 0.0900893 0.96623 
0.313036 0.398731 0.861987 
0.218065 0.723463 0.655017 
0.0400844 0.974786 0.219506 
-0.141322 0.882269 -0.449025 
-0.302694 0.441597 -0.844609 
-0.197406 0.372791 -0.906674 
-0.236299 0.0929819 -0.967221 
-0.184906 0.0737707 -0.979983 
-0.134709 0.0401036 -0.990073 
-0.100257 0.0260725 -0.99462 
-0.0717537 0.00999858 -0.997372 
-0.0491514 0.00402722 -0.998783 
-0.032581 0.00505683 -0.999456 
-0.0191007 0.00427724 -0.999808 
-0.00900213 0.000747151 -0.999959 
-0.00187299 -0.0015739 -0.999997 
0.00276742 -0.00301178 -0.999991 
0.00540102 -0.00408463 -0.999977 
0.0067656 -0.00493268 -0.999965 
0.00721666 -0.00565929 -0.999958 
0.00712608 -0.00636146 -0.999954 
0.00672359 -0.00710307 -0.999952 
0.00617211 -0.00787678 -0.99995 
0.0055281 -0.0085221 -0.999948 
0.00487573 -0.00898402 -0.999948 
0.00423948 -0.00919869 -0.999948 
0.00367488 -0.00917371 -0.999951 
0.00317478 -0.00886041 -0.999955 