# vtk DataFile Version 3.0 
Exported using Morpho https://github.com/Morpho-lang/morpho 
ASCII 
DATASET UNSTRUCTURED_GRID 

POINTS 1978 float 
-8.48528 -2.82843 -3.35117e-13 
-8.2713 -2.82843 -3.86207e-13 
-7.97245 -2.82843 -2.58123e-13 
-7.72366 -2.82843 -5.98792e-14 
-7.49769 -2.82843 1.59734e-13 
-7.28149 -2.82843 -1.10873e-13 
-7.05886 -2.82843 2.95439e-13 
-6.74769 -2.82843 1.85284e-13 
-6.54818 -2.82843 1.20301e-13 
-6.34291 -2.82843 1.32214e-13 
-6.12458 -2.82843 1.34437e-13 
-5.91293 -2.82843 1.96894e-13 
-5.70093 -2.82843 1.71246e-13 
-5.48843 -2.82843 2.3639e-13 
-5.2784 -2.82843 2.80354e-13 
-5.06778 -2.82843 2.7975e-13 
-4.85635 -2.82843 2.80782e-13 
-4.64669 -2.82843 2.95744e-13 
-4.43485 -2.82843 5.29187e-13 
-4.22493 -2.82843 -5.22935e-14 
-4.01628 -2.82843 -5.49107e-13 
-3.8069 -2.82843 -1.23303e-12 
-3.59605 -2.82843 -1.62234e-12 
-3.38672 -2.82843 -1.37702e-12 
-3.17642 -2.82843 1.60001e-12 
-2.96703 -2.82843 6.7519e-12 
-2.76628 -2.82843 1.37288e-11 
-2.56628 -2.82843 2.61653e-11 
-2.33804 -2.82843 1.28595e-11 
-2.11126 -2.82843 -8.55411e-11 
-1.87456 -2.82843 -4.50757e-10 
-1.64541 -2.82843 -1.34696e-09 
-1.42532 -2.82843 -3.70132e-09 
-1.24024 -2.82843 -1.02229e-08 
-1.07285 -2.82843 -2.15388e-08 
-0.920744 -2.82843 -4.39217e-08 
-0.777535 -2.82843 -6.50836e-08 
-0.665887 -2.82843 -1.66418e-07 
-0.455471 -2.82844 -7.8661e-07 
0.0684378 -2.82844 2.38402e-07 
0.518523 -2.82843 4.79466e-07 
0.711828 -2.82843 7.55958e-08 
0.816745 -2.82843 4.98458e-08 
0.917067 -2.82843 3.64311e-08 
1.0711 -2.82843 2.06247e-08 
1.23595 -2.82843 7.55221e-09 
1.44668 -2.82843 2.70863e-09 
1.663 -2.82843 1.15245e-09 
1.88716 -2.82843 3.63701e-10 
2.13266 -2.82843 3.36937e-11 
2.37077 -2.82843 -1.84632e-11 
2.56473 -2.82843 -1.39795e-11 
2.76363 -2.82843 -1.24141e-11 
2.97298 -2.82843 -7.0017e-12 
3.18664 -2.82843 -1.44882e-12 
3.39995 -2.82843 1.07516e-12 
3.61446 -2.82843 1.61105e-12 
3.82584 -2.82843 1.12668e-12 
4.03542 -2.82843 4.89597e-13 
4.2434 -2.82843 1.83581e-13 
4.45211 -2.82843 -3.64553e-13 
4.66192 -2.82843 -3.90816e-13 
4.87273 -2.82843 -3.80796e-13 
5.08335 -2.82843 -3.39958e-13 
5.29521 -2.82843 -2.82641e-13 
5.50719 -2.82843 -2.19344e-13 
5.71984 -2.82843 -1.98031e-13 
5.93444 -2.82843 -1.80447e-13 
6.15034 -2.82843 -1.57801e-13 
6.36589 -2.82843 -1.31162e-13 
6.58529 -2.82843 -1.33644e-13 
6.80902 -2.82843 -2.08154e-13 
7.03504 -2.82843 -1.91417e-13 
7.26402 -2.82843 -5.06708e-14 
7.49952 -2.82843 -7.8434e-14 
7.7398 -2.82843 1.50764e-13 
7.98848 -2.82843 1.91824e-13 
8.22792 -2.82843 2.8626e-13 
8.48528 -2.82843 3.6505e-13 
-8.48528 -2.59957 1.78571e-13 
-8.24453 -2.57288 -6.80345e-17 
-8.02678 -2.64322 7.88527e-18 
-7.74554 -2.61483 -2.35917e-17 
-7.50019 -2.59047 -5.54411e-17 
-7.27379 -2.59144 4.36394e-17 
-7.05285 -2.58137 -7.09837e-17 
-6.85138 -2.66513 -2.13278e-16 
-6.61186 -2.56678 -1.5182e-16 
-6.40727 -2.58264 -9.128e-17 
-6.1941 -2.59634 -1.52728e-16 
-5.97632 -2.59553 -1.72485e-16 
-5.76051 -2.59772 -1.28601e-16 
-5.54435 -2.59953 -7.64522e-17 
-5.32852 -2.59806 3.21153e-17 
-5.1141 -2.59945 1.62829e-16 
-4.89854 -2.59992 1.99726e-16 
-4.68364 -2.5977 2.07392e-16 
-4.46983 -2.60131 -1.1718e-16 
-4.25348 -2.60056 -7.46475e-16 
-4.03747 -2.59997 -1.7385e-15 
-3.82063 -2.60025 -3.24923e-15 
-3.59944 -2.59432 3.67744e-14 
-3.3774 -2.59697 4.4272e-14 
-3.15252 -2.59605 -6.74069e-16 
-2.92751 -2.58726 -5.84784e-14 
-2.70361 -2.57723 -5.96976e-14 
-2.46514 -2.58803 6.37739e-13 
-2.21919 -2.57489 1.42754e-12 
-1.97402 -2.57676 3.49148e-12 
-1.73274 -2.5841 9.11661e-12 
-1.50577 -2.59442 2.41263e-11 
-1.30455 -2.5975 4.69977e-11 
-1.13346 -2.63885 1.07835e-10 
-0.975212 -2.65054 1.70197e-10 
-0.830686 -2.69489 3.56246e-10 
-0.703098 -2.68474 3.19403e-10 
-0.576556 -2.7605 7.35887e-10 
-0.361633 -2.80505 -4.52402e-09 
0.00986678 -2.72228 2.14243e-10 
0.441146 -2.79919 1.0786e-09 
0.628433 -2.74987 -7.88649e-10 
0.753492 -2.67226 -5.18881e-10 
0.868344 -2.61644 -1.40253e-10 
0.991267 -2.65914 -1.45653e-10 
1.14441 -2.62121 -1.21962e-10 
1.33227 -2.62722 -6.45213e-11 
1.54754 -2.58947 -2.23126e-11 
1.7708 -2.57752 -7.60242e-12 
2.01925 -2.59021 -3.90964e-12 
2.27369 -2.59235 -1.49008e-12 
2.51205 -2.5592 -4.10057e-13 
2.73101 -2.58359 5.46556e-14 
2.95527 -2.59547 3.05211e-14 
3.18176 -2.59542 3.84319e-14 
3.40676 -2.59759 -4.74202e-14 
3.62962 -2.60048 -3.46383e-14 
3.84666 -2.59995 2.86699e-15 
4.05974 -2.59843 1.48314e-15 
4.2713 -2.59841 6.13456e-16 
4.48269 -2.59851 8.75264e-17 
4.69399 -2.59847 -1.80548e-16 
4.90527 -2.59766 -2.21571e-16 
5.11748 -2.59852 -1.40038e-16 
5.32977 -2.59791 -2.73446e-17 
5.54286 -2.59774 6.45784e-17 
5.75696 -2.59823 1.25331e-16 
5.97165 -2.59729 1.55072e-16 
6.18647 -2.59427 1.5926e-16 
6.40372 -2.59506 1.52499e-16 
6.62428 -2.59594 1.29518e-16 
6.84665 -2.59476 9.35965e-17 
7.07212 -2.59496 5.993e-17 
7.30302 -2.59898 3.81578e-17 
7.53868 -2.60135 1.94597e-17 
7.78 -2.60671 9.70329e-18 
8.01729 -2.60525 6.80447e-18 
8.26469 -2.61036 4.48486e-17 
8.48528 -2.58114 -2.35154e-13 
-8.48528 -2.37043 2.82131e-13 
-8.2718 -2.31679 -8.55682e-19 
-8.04362 -2.39448 -6.3047e-18 
-7.81724 -2.42761 4.68274e-18 
-7.59725 -2.1793 6.38322e-17 
-7.55205 -2.37946 -2.38349e-17 
-7.3008 -2.36449 -9.05205e-18 
-7.05683 -2.35695 5.25899e-17 
-6.80688 -2.43205 4.79979e-18 
-6.56259 -2.32434 5.32042e-17 
-6.34392 -2.34981 4.31929e-17 
-6.12317 -2.36499 2.52532e-17 
-5.90154 -2.36634 1.15947e-16 
-5.68044 -2.37054 9.63094e-17 
-5.46092 -2.37158 1.2715e-16 
-5.24184 -2.37046 1.46851e-16 
-5.02413 -2.37309 1.64638e-16 
-4.80789 -2.37089 1.49593e-16 
-4.59107 -2.37009 6.07166e-17 
-4.37637 -2.37471 1.95613e-17 
-4.16012 -2.37354 2.39591e-17 
-3.94414 -2.37277 5.82179e-17 
-3.72623 -2.37324 -1.83801e-16 
-3.50331 -2.36825 -6.39217e-16 
-3.28008 -2.36807 -9.46325e-16 
-3.05409 -2.36257 8.50776e-18 
-2.8234 -2.34557 -4.17097e-14 
-2.57855 -2.34938 -6.34074e-14 
-2.33238 -2.34302 -1.35035e-13 
-2.0761 -2.33393 4.71936e-13 
-1.82176 -2.34185 5.25076e-13 
-1.58433 -2.35708 -3.0572e-13 
-1.36825 -2.37177 -5.04093e-13 
-1.16951 -2.41892 -3.80076e-12 
-1.01976 -2.46392 2.4554e-12 
-0.856629 -2.53568 -1.5068e-11 
-0.601017 -2.62134 2.68438e-10 
-0.390457 -2.67142 -1.82492e-09 
-0.16049 -2.75412 1.39701e-09 
-0.0647233 -2.79164 9.8034e-10 
0.169185 -2.78631 -5.08354e-10 
0.567848 -2.65885 -4.72681e-10 
0.681638 -2.58053 8.66991e-11 
0.800712 -2.49531 -1.49056e-10 
0.986916 -2.4683 -3.15584e-11 
1.15089 -2.42228 8.2348e-12 
1.34331 -2.4118 -5.44387e-13 
1.54653 -2.34841 -4.581e-12 
1.76507 -2.32656 -2.34965e-12 
1.99742 -2.3538 1.38286e-13 
2.2527 -2.35497 -3.54193e-14 
2.49745 -2.32576 8.50455e-14 
2.7421 -2.34495 7.05652e-14 
2.97165 -2.36304 1.42648e-15 
3.20406 -2.36893 1.797e-15 
3.42922 -2.3739 1.09042e-15 
3.64921 -2.3729 3.80007e-16 
3.86389 -2.37059 8.71762e-17 
4.07667 -2.36878 3.26294e-17 
4.28888 -2.36887 -8.50527e-18 
4.50024 -2.36815 -8.46662e-17 
4.71182 -2.36774 -1.46726e-16 
4.92454 -2.36754 -1.63131e-16 
5.13709 -2.36767 -1.54129e-16 
5.35111 -2.36751 -1.28654e-16 
5.5657 -2.3671 -1.04522e-16 
5.77985 -2.36616 -8.51016e-17 
5.99445 -2.36342 -6.7331e-17 
6.21139 -2.36048 -5.07241e-17 
6.43023 -2.36132 -3.48818e-17 
6.64993 -2.36027 -2.11988e-17 
6.87324 -2.35987 -1.26731e-17 
7.10171 -2.36335 -8.06201e-18 
7.33453 -2.37009 -5.11658e-18 
7.57291 -2.37659 -9.90142e-19 
7.80701 -2.37601 -1.44633e-18 
8.04558 -2.38689 1.21745e-17 
8.26803 -2.36088 1.66692e-17 
8.48528 -2.3308 -2.69616e-13 
-8.48528 -2.11624 1.79927e-13 
-8.27411 -2.05309 2.00449e-17 
-8.05943 -2.15479 -2.61278e-17 
-7.82753 -2.1899 -1.87497e-17 
-7.58469 -1.96708 1.12351e-17 
-7.33632 -2.15132 -4.99204e-17 
-7.08474 -2.14429 1.99912e-19 
-6.81852 -2.22045 8.44435e-17 
-6.57724 -2.11055 7.40472e-17 
-6.3323 -2.11192 4.77957e-17 
-6.11714 -2.13285 1.2506e-16 
-5.89845 -2.13467 7.48178e-17 
-5.67959 -2.14252 1.14487e-16 
-5.46171 -2.14144 1.33015e-16 
-5.24513 -2.14273 1.27284e-16 
-5.02727 -2.14509 1.13623e-16 
-4.81103 -2.14176 9.78386e-17 
-4.59592 -2.14244 5.53264e-17 
-4.37922 -2.14517 7.14039e-18 
-4.16456 -2.146 2.46056e-17 
-3.94782 -2.1441 1.43034e-16 
-3.73073 -2.14552 2.05996e-16 
-3.5103 -2.1413 -4.68628e-16 
-3.28589 -2.13741 -1.8194e-15 
-3.05771 -2.13125 3.60762e-14 
-2.81783 -2.11809 3.15494e-14 
-2.57362 -2.11531 -2.70039e-14 
-2.32421 -2.10914 -8.41591e-14 
-2.08115 -2.09336 -6.36314e-14 
-1.83817 -2.11316 -4.53736e-14 
-1.5935 -2.1218 4.12825e-13 
-1.38321 -2.14496 1.80052e-12 
-1.19067 -2.21482 3.77266e-12 
-1.22804 -1.99065 7.19121e-12 
-1.02147 -2.24121 -2.98525e-11 
-0.893045 -2.3712 -2.25395e-11 
-0.729982 -2.5423 9.66824e-11 
-0.486733 -2.69304 9.01099e-10 
-0.0930204 -2.65684 2.09479e-09 
0.107927 -2.68614 2.33893e-10 
0.373279 -2.74861 -7.89654e-10 
0.474757 -2.64478 -4.69754e-10 
0.565511 -2.51566 -1.51142e-10 
0.829065 -2.36839 1.83448e-11 
0.966377 -2.29027 -5.33305e-11 
1.09683 -2.21079 -6.87968e-12 
1.28874 -2.20171 -6.7798e-12 
1.48153 -2.12631 2.03121e-12 
1.70019 -2.08557 1.99119e-12 
1.93507 -2.09843 2.69125e-13 
2.17117 -2.12556 3.43724e-14 
2.41476 -2.09561 3.17885e-14 
2.66485 -2.10754 -5.83282e-14 
2.90179 -2.1275 1.70273e-15 
3.13144 -2.13988 2.72133e-15 
3.35789 -2.14543 7.96966e-16 
3.5802 -2.14479 3.0959e-17 
3.79904 -2.14087 -2.4836e-16 
4.01464 -2.13916 -1.62089e-16 
4.2296 -2.13944 -3.83478e-17 
4.44372 -2.13795 -2.58297e-17 
4.65768 -2.13749 -5.52285e-17 
4.87241 -2.13789 -9.47553e-17 
5.08824 -2.13687 -1.49064e-16 
5.30442 -2.13794 -1.09182e-16 
5.52249 -2.13717 -1.30539e-16 
5.74087 -2.13414 -1.15166e-16 
5.95836 -2.13091 -3.92845e-16 
6.17725 -2.12839 -9.14002e-17 
6.3993 -2.12756 -5.24733e-17 
6.62198 -2.12429 -8.10443e-17 
6.84565 -2.12494 -7.29825e-17 
7.0735 -2.13058 -1.17112e-18 
7.30642 -2.13908 -1.00673e-17 
7.54306 -2.14923 1.7741e-17 
7.78324 -2.14481 -2.94458e-17 
8.0216 -2.1542 1.14709e-17 
8.25005 -2.11648 -1.03487e-17 
8.48528 -2.09907 -2.30581e-13 
-8.48528 -1.86014 6.039e-14 
-8.26918 -1.79114 1.82125e-17 
-8.05893 -1.90583 8.52063e-18 
[...]
POINT_DATA 1978 
VECTORS vectors float
-0.000135662 0.00166115 0.999999 
4.58713e-05 0.00133455 0.999999 
4.83718e-05 0.000635659 1 
6.62414e-05 -0.000172602 1 
6.13935e-05 -0.000958547 1 
7.94104e-05 -0.00192935 0.999998 
8.89878e-05 -0.00300549 0.999995 
0.000109656 -0.0047479 0.999989 
0.000107786 -0.00591569 0.999983 
8.18453e-05 -0.00710435 0.999975 
7.64719e-05 -0.00839621 0.999965 
6.72427e-05 -0.00960011 0.999954 
5.81845e-05 -0.0107993 0.999942 
4.64108e-05 -0.0119922 0.999928 
2.29268e-05 -0.0131214 0.999914 
-1.3569e-05 -0.0140961 0.999901 
-5.60988e-05 -0.0148805 0.999889 
-0.000113972 -0.0153936 0.999882 
-0.000188607 -0.0155777 0.999879 
-0.00027679 -0.0153545 0.999882 
-0.00037306 -0.0146531 0.999893 
-0.000474681 -0.0133263 0.999911 
-0.000592257 -0.0111352 0.999938 
-0.000681188 -0.00781392 0.999969 
-0.000850136 -0.00264644 0.999996 
-0.00110561 0.0052416 0.999986 
-0.0012909 0.0150006 0.999887 
-0.00145331 0.0279536 0.999608 
-0.00156824 0.0470984 0.998889 
-0.00176586 0.0710761 0.997469 
-0.0020025 0.103644 0.994612 
-0.00271457 0.146349 0.989229 
-0.00481535 0.205505 0.978644 
-0.00808449 0.279422 0.960134 
-0.0107649 0.362667 0.931857 
-0.0131509 0.456775 0.889485 
-0.0163992 0.550836 0.834453 
-0.0166092 0.654583 0.755808 
-0.00657052 0.820457 0.57167 
-0.014048 0.991928 -0.12602 
0.0124296 0.782069 -0.623067 
0.0215783 0.634387 -0.772714 
0.0251403 0.535641 -0.844071 
0.0178412 0.469246 -0.882887 
0.0119224 0.372128 -0.928105 
0.00838084 0.278379 -0.960435 
0.00411749 0.198204 -0.980152 
0.00296139 0.14268 -0.989764 
0.00208295 0.101414 -0.994842 
0.0017049 0.0679944 -0.997684 
0.00160802 0.0439225 -0.999034 
0.00161308 0.0282168 -0.999601 
0.00134098 0.015424 -0.99988 
0.000982697 0.00441806 -0.99999 
0.000803394 -0.00311321 -0.999995 
0.000691396 -0.0080851 -0.999967 
0.000573969 -0.0114513 -0.999934 
0.000459588 -0.0135341 -0.999908 
0.000360188 -0.014736 -0.999891 
0.000266352 -0.0153519 -0.999882 
0.000181809 -0.015513 -0.99988 
0.000109751 -0.0152937 -0.999883 
5.15336e-05 -0.0147393 -0.999891 
8.80542e-06 -0.0139306 -0.999903 
-2.11576e-05 -0.0129424 -0.999916 
-4.21116e-05 -0.0118452 -0.99993 
-5.68931e-05 -0.0106823 -0.999943 
-6.70734e-05 -0.00947477 -0.999955 
-7.77404e-05 -0.00823471 -0.999966 
-8.68517e-05 -0.00696714 -0.999976 
-8.85627e-05 -0.00566855 -0.999984 
-8.58929e-05 -0.00438195 -0.99999 
-8.05913e-05 -0.00315022 -0.999995 
-7.15574e-05 -0.00200702 -0.999998 
-6.22574e-05 -0.000961896 -1 
-5.34402e-05 -3.84847e-05 -1 
-2.72685e-05 0.000733878 -1 
-4.61131e-05 0.00126401 -0.999999 
0.000131526 0.00167755 -0.999999 
-0.000538748 0.00125202 0.999999 
-0.000231645 0.000965461 1 
2.77952e-05 0.000643291 1 
3.25459e-05 -0.000186875 1 
-2.45156e-05 -0.00108683 0.999999 
-1.63149e-05 -0.00200721 0.999998 
-4.45178e-05 -0.00297352 0.999996 
0.000198217 -0.00403791 0.999992 
-0.000105964 -0.00533396 0.999986 
-0.000153223 -0.00647304 0.999979 
-0.000192294 -0.00768556 0.99997 
-0.000318392 -0.00889566 0.99996 
-0.000443956 -0.0100713 0.999949 
-0.000594867 -0.0112103 0.999937 
-0.000815544 -0.0122592 0.999925 
-0.00109962 -0.0131612 0.999913 
-0.00146637 -0.0138463 0.999903 
-0.00195273 -0.0142517 0.999897 
-0.00253387 -0.0143861 0.999893 
-0.0032533 -0.014116 0.999895 
-0.00401081 -0.0133517 0.999903 
-0.00470485 -0.01194 0.999918 
-0.00522584 -0.00963916 0.99994 
-0.00542769 -0.00609075 0.999967 
-0.00521879 -0.000746747 0.999986 
-0.00474157 0.00758885 0.99996 
-0.00407787 0.0192705 0.999806 
-0.00332889 0.0358798 0.999351 
-0.000564388 0.058334 0.998297 
0.00283918 0.0877794 0.996136 
0.00664531 0.128825 0.991645 
0.0078775 0.182138 0.983242 
0.0131884 0.247138 0.968891 
0.015766 0.327797 0.944617 
0.0192724 0.414285 0.909943 
0.0152741 0.52674 0.849889 
0.0315481 0.610322 0.791525 
0.00528978 0.718728 0.695272 
0.00717916 0.8825 0.470258 
-0.0289075 0.99844 -0.0477738 
-0.00389842 0.833622 -0.552322 
0.0127054 0.683447 -0.72989 
-0.0128525 0.570169 -0.821427 
-0.0296992 0.490069 -0.871178 
-0.0116286 0.417183 -0.908748 
-0.0101288 0.325936 -0.945338 
-0.00460642 0.239761 -0.970821 
-0.00698911 0.170247 -0.985377 
-0.00530014 0.120589 -0.992688 
-0.000818625 0.0812938 -0.99669 
0.00181879 0.0524121 -0.998624 
0.00258573 0.0317958 -0.999491 
0.00409827 0.0167934 -0.999851 
0.004765 0.00561809 -0.999973 
0.00514391 -0.00185124 -0.999985 
0.00535165 -0.00679232 -0.999963 
0.00517802 -0.0100564 -0.999936 
0.00464857 -0.0121728 -0.999915 
0.00395861 -0.0134351 -0.999902 
0.00321438 -0.014106 -0.999895 
0.00252566 -0.0143285 -0.999894 
0.00193928 -0.0141903 -0.999897 
0.00147154 -0.0137486 -0.999904 
0.00110156 -0.0130639 -0.999914 
0.000828144 -0.0121859 -0.999925 
0.000620449 -0.0111729 -0.999937 
0.000454052 -0.0100726 -0.999949 
0.00032017 -0.00891762 -0.99996 
0.000213042 -0.00773072 -0.99997 
0.000117503 -0.00651939 -0.999979 
4.98534e-05 -0.00529016 -0.999986 
1.74229e-05 -0.00408239 -0.999992 
6.21418e-06 -0.00292378 -0.999996 
-3.74183e-06 -0.00183772 -0.999998 
-3.76281e-06 -0.000858185 -1 
3.18346e-05 -1.10684e-05 -1 
0.000123911 0.000619474 -1 
0.000234562 0.00107664 -0.999999 
0.000551729 0.00123551 -0.999999 
-0.00047854 0.000909049 0.999999 
-0.000353254 0.000827438 1 
-0.000293716 0.000537334 1 
-0.000237818 3.37331e-05 1 
-0.000408342 -0.000620978 1 
-0.00027917 -0.000784728 1 
-0.000329638 -0.00179867 0.999998 
-0.000373309 -0.00296802 0.999996 
-0.000330196 -0.00426191 0.999991 
-0.000615644 -0.00539364 0.999985 
-0.000683988 -0.00657935 0.999978 
-0.000795593 -0.00777164 0.99997 
-0.000991371 -0.00892869 0.99996 
-0.00119839 -0.0100661 0.999949 
-0.00145685 -0.0111032 0.999937 
-0.001794 -0.0120058 0.999926 
-0.00221558 -0.0127035 0.999917 
-0.00275556 -0.0130869 0.999911 
-0.00343215 -0.0132153 0.999907 
-0.00420571 -0.0130745 0.999906 
-0.00511009 -0.0125023 0.999909 
-0.00597766 -0.0113758 0.999917 
-0.00660585 -0.00954396 0.999933 
-0.0067644 -0.00686876 0.999954 
-0.00619578 -0.0030655 0.999976 
-0.00482814 0.0025433 0.999985 
-0.00275772 0.0110419 0.999935 
-0.00022788 0.0242069 0.999707 
0.00344953 0.0420123 0.999111 
0.0103416 0.0663696 0.997742 
0.0193981 0.100095 0.994789 
0.030073 0.146134 0.988808 
0.0431044 0.202908 0.978249 
0.0564965 0.279125 0.958591 
0.0741432 0.359687 0.930123 
0.0632095 0.472177 0.879235 
0.0791904 0.671137 0.737092 
0.0683509 0.828343 0.556036 
-0.0050352 0.98843 0.151593 
-0.00912618 0.997559 0.069223 
-0.0239937 0.963925 -0.26509 
-0.0313471 0.7115 -0.701987 
-0.065535 0.636101 -0.768818 
-0.0824159 0.506267 -0.85843 
-0.0619432 0.387702 -0.919701 
-0.053345 0.291822 -0.954984 
-0.0389818 0.216624 -0.975477 
-0.0316633 0.15585 -0.987273 
-0.0224617 0.110481 -0.993624 
-0.0122666 0.0771159 -0.996947 
-0.00526515 0.0496679 -0.998752 
-0.00167466 0.0290412 -0.999577 
0.00189276 0.0149154 -0.999887 
0.00395252 0.0047799 -0.999981 
0.00551737 -0.00179016 -0.999983 
0.00647884 -0.00601958 -0.999961 
0.00669632 -0.00887403 -0.999938 
0.0062788 -0.0108329 -0.999922 
0.00549936 -0.0121102 -0.999912 
0.00460909 -0.0128441 -0.999907 
0.00377253 -0.0131537 -0.999906 
0.00305915 -0.0131296 -0.999909 
0.00247411 -0.0128234 -0.999915 
0.00201086 -0.0122693 -0.999923 
0.00164468 -0.0115007 -0.999933 
0.00135591 -0.0105686 -0.999943 
0.00112111 -0.00953297 -0.999954 
0.000926262 -0.00843226 -0.999964 
0.000756539 -0.00729072 -0.999973 
0.000606387 -0.00612928 -0.999981 
0.000494107 -0.00496839 -0.999988 
0.000410415 -0.00382213 -0.999993 
0.00034603 -0.00271383 -0.999996 
0.000296666 -0.00167892 -0.999999 
0.000259471 -0.000749805 -1 
0.000257645 9.06215e-07 -1 
0.000299778 0.000590693 -1 
0.000358242 0.00087903 -1 
0.000454333 0.00089696 -1 
-0.000239677 0.000872284 1 
-0.000273939 0.000874773 1 
-0.000325751 0.000549571 1 
-0.000344727 5.1958e-05 1 
-0.000545727 -0.000585325 1 
-0.000519246 -0.001556 0.999999 
-0.000619065 -0.00268526 0.999996 
-0.000659841 -0.0040089 0.999992 
-0.000945306 -0.00512654 0.999986 
-0.00113615 -0.00635828 0.999979 
-0.00130227 -0.00746048 0.999971 
-0.0015285 -0.00855225 0.999962 
-0.00179766 -0.00960281 0.999952 
-0.00212204 -0.0105466 0.999942 
-0.00250821 -0.0113319 0.999933 
-0.00298864 -0.0118917 0.999925 
-0.00361116 -0.0121646 0.99992 
-0.00434584 -0.0121541 0.999917 
-0.00521706 -0.0118805 0.999916 
-0.00618383 -0.0112469 0.999918 
-0.00711835 -0.0100898 0.999924 
-0.00768262 -0.00838789 0.999935 
-0.00757686 -0.00604079 0.999953 
-0.00654492 -0.00288672 0.999974 
-0.00446725 0.00172883 0.999989 
-0.00133368 0.00874315 0.999961 
0.00302673 0.0198663 0.999798 
0.00945673 0.0357236 0.999317 
0.0192365 0.0559336 0.998249 
0.0317612 0.0854495 0.995836 
0.047333 0.123752 0.991184 
0.0656465 0.173577 0.98263 
0.0921105 0.242544 0.965758 
0.0970997 0.175132 0.979745 
0.121143 0.306207 0.944226 
0.117517 0.409807 0.904571 
0.103329 0.564192 0.819152 
0.0365768 0.787723 0.614943 
0.00292317 0.987808 0.155649 
-0.048001 0.980192 -0.192142 
-0.0237394 0.862365 -0.50573 
-0.069487 0.767966 -0.636711 
-0.11856 0.655595 -0.745747 
-0.137703 0.440722 -0.887019 
-0.11125 0.362007 -0.925513 
-0.102102 0.276763 -0.955499 
-0.0729403 0.208357 -0.975329 
-0.0576501 0.143449 -0.987977 
-0.0410814 0.100287 -0.99411 
-0.0259916 0.071227 -0.997121 
-0.0145788 0.0487278 -0.998706 
-0.00753822 0.0289454 -0.999553 
-0.00149951 0.0151523 -0.999884 
0.0022871 0.00595713 -0.99998 
0.00500932 -0.00036243 -0.999987 
0.00680517 -0.00435475 -0.999967 
0.00764472 -0.00702631 -0.999946 
0.00757544 -0.00898873 -0.999931 
0.00690155 -0.0104261 -0.999922 
0.00595003 -0.0114027 -0.999917 
0.00500334 -0.0119415 -0.999916 
0.00416525 -0.0121316 -0.999918 
0.00346386 -0.0120359 -0.999922 
0.00289406 -0.0116611 -0.999928 
0.00242915 -0.0110575 -0.999936 
0.00205475 -0.0102375 -0.999946 
0.00174648 -0.0092785 -0.999955 
0.00148774 -0.00823889 -0.999965 
0.00126317 -0.00715291 -0.999974 
0.00106688 -0.00604168 -0.999981 
0.000909751 -0.00491522 -0.999988 
0.000773985 -0.00380569 -0.999992 
0.000652532 -0.00273027 -0.999996 
0.00054602 -0.00171869 -0.999998 
0.000452021 -0.000817905 -1 
0.000379183 -5.86921e-05 -1 
0.000326561 0.000507896 -1 
0.000297124 0.000843073 -1 
0.000245076 0.000873223 -1 
-6.59054e-05 0.00108056 0.999999 
-0.000176906 0.00103024 0.999999 
-0.000330684 0.000669937 1 
-0.000435442 0.000151615 1 
-0.000680817 -0.00148951 0.999999 
-0.000802319 -0.0024916 0.999997 
-0.000769418 -0.00214896 0.999997 
-0.000887442 -0.00375552 0.999993 
-0.00111254 -0.0045301 0.999989 
-0.00130443 -0.00566999 0.999983 
-0.00156041 -0.00677464 0.999976 
-0.00180887 -0.00779945 0.999968 
-0.00210154 -0.00881015 0.999959 
-0.00246215 -0.00971456 0.99995 
-0.00288151 -0.0104629 0.999941 
-0.00338219 -0.0110048 0.999934 
-0.00400997 -0.0112377 0.999929 
-0.00475815 -0.011188 0.999926 
-0.00562455 -0.0108935 0.999925 
-0.00661274 -0.0102865 0.999925 
-0.00760466 -0.00931426 0.999928 
-0.0083865 -0.00788435 0.999934 
-0.00856275 -0.00607343 0.999945 
-0.00780615 -0.00379944 0.999962 
-0.0058712 -0.000662336 0.999983 
-0.00267493 0.00410746 0.999988 
0.0021925 0.0117034 0.999929 
0.00915176 0.0225821 0.999703 
0.0190047 0.0363341 0.999159 
0.0324067 0.0570197 0.997847 
0.0487172 0.0836928 0.9953 
0.0706513 0.118034 0.990493 
0.104408 0.127984 0.986265 
0.150373 0.16795 0.974259 
0.136159 0.220296 0.965883 
0.169992 0.352091 0.920399 
0.140094 0.489241 0.860823 
0.105272 0.861764 0.496267 
0.0714899 0.819391 0.568759 
-0.0412863 0.995068 -0.0901982 
-0.0529312 0.923392 -0.38019 
-0.132661 0.778853 -0.613016 
-0.145956 0.561184 -0.814721 
-0.207315 0.364085 -0.907999 
-0.166468 0.298829 -0.939676 
-0.130102 0.217216 -0.967415 
-0.0954643 0.164475 -0.981751 
-0.0701976 0.111577 -0.991273 
-0.048175 0.077237 -0.995848 
-0.0310515 0.0537498 -0.998072 
-0.0183577 0.0361502 -0.999178 
-0.00865446 0.0206204 -0.99975 
-0.0019279 0.0104613 -0.999943 
0.00272577 0.00340491 -0.999991 
0.00583807 -0.00129685 -0.999982 
0.00774019 -0.00427116 -0.999961 
0.00853119 -0.0063507 -0.999943 
0.00835322 -0.00799214 -0.999933 
0.00757511 -0.00932759 -0.999928 
0.00657932 -0.0102941 -0.999925 
0.00561206 -0.0108887 -0.999925 
0.00475231 -0.0111628 -0.999926 
0.0040188 -0.0111624 -0.99993 
0.00340348 -0.0108664 -0.999935 
0.00289744 -0.0103766 -0.999942 
0.00247478 -0.00962852 -0.999951 
0.00212026 -0.00873429 -0.99996 
0.00181327 -0.00775099 -0.999968 
0.00154329 -0.00671284 -0.999976 
0.00131323 -0.00565494 -0.999983 
0.00111896 -0.0045729 -0.999989 
0.000948871 -0.00349666 -0.999993 
0.000805161 -0.00246096 -0.999997 
0.000680185 -0.00149297 -0.999999 
0.000566795 -0.000633846 -1 
0.000453866 9.02439e-05 -1 
0.000349035 0.000617377 -1 
0.000215088 0.000974983 -1 
6.92504e-05 0.00107327 -0.999999 
2.25559e-05 0.00123561 0.999999 
-9.21281e-05 0.0011255 0.999999 
-0.000260007 0.000721152 1 
-0.000392318 0.000196178 1 
-0.000529575 -0.000493914 1 
-0.000643691 -0.00130925 0.999999 
-0.000917928 -0.00299225 0.999995 
-0.000941428 -0.00321826 0.999994 
-0.00112703 -0.00412544 0.999991 
-0.00136943 -0.00524176 0.999985 
-0.00164522 -0.00628692 0.999979 
-0.00196041 -0.00730392 0.999971 
-0.00228753 -0.00827712 0.999963 
-0.00265945 -0.00910853 0.999955 
-0.00310165 -0.009791 0.999947 
-0.00362463 -0.0102625 0.999941 
-0.00425293 -0.0104209 0.999937 
-0.00498586 -0.0103103 0.999934 
-0.00582593 -0.00994902 0.999934 
-0.00676213 -0.00932521 0.999934 
-0.00772702 -0.00839606 0.999935 
-0.00855276 -0.00719857 0.999938 
-0.0089409 -0.00569566 0.999944 
-0.00857385 -0.00397213 0.999955 
-0.00714446 -0.00176934 0.999973 
-0.00443613 0.00137961 0.999989 
1.35752e-06 0.00631871 0.99998 
0.00663327 0.0134166 0.999888 
0.0164088 0.0226272 0.999609 
0.03027 0.0374026 0.998842 
0.0479701 0.0564442 0.997253 
0.0706188 0.080526 0.994248 
0.103241 0.0832593 0.991166 
0.140032 0.101177 0.984964 
0.176304 0.27445 0.945301 
0.195879 0.418575 0.886807 
0.142848 0.693822 0.705836 
0.177356 0.563461 0.806881 
0.0256991 0.924602 0.380067 
-0.0490431 0.857277 -0.512514 
-0.0854903 0.944778 -0.316365 
-0.185604 0.691338 -0.698286 
-0.21118 0.481131 -0.850833 
-0.231553 0.239261 -0.942941 
-0.180055 0.204612 -0.96214 
-0.136814 0.145451 -0.97986 
-0.100587 0.111342 -0.988679 
-0.0687432 0.0733689 -0.994933 
-0.0481223 0.0501055 -0.997584 
-0.0318034 0.0375993 -0.998787 
-0.0183062 0.0250937 -0.999518 
-0.00796109 0.0137153 -0.999874 
-0.000625408 0.00618215 -0.999981 
0.00398133 0.00136282 -0.999991 
0.00683326 -0.00196613 -0.999975 
0.00841008 -0.00414723 -0.999956 
0.00891215 -0.00575482 -0.999944 
0.00857865 -0.00712402 -0.999938 
0.00780335 -0.00831749 -0.999935 
0.00684799 -0.00925816 -0.999934 
0.00593188 -0.0099127 -0.999933 
0.00508662 -0.0102634 -0.999934 
0.004359 -0.0103933 -0.999937 
0.00372046 -0.0102049 -0.999941 
0.00317978 -0.00979038 -0.999947 
0.0027219 -0.00912197 -0.999955 
0.00232963 -0.00827962 -0.999963 
0.00199017 -0.007365 -0.999971 
0.0016836 -0.00637215 -0.999978 
0.00141214 -0.00533943 -0.999985 
0.00117442 -0.00429548 -0.99999 
0.000969349 -0.00326912 -0.999994 
0.000791418 -0.00226913 -0.999997 
0.000639343 -0.00133547 -0.999999 
0.000506476 -0.000504792 -1 
0.000375605 0.000199424 -1 
0.000255469 0.000725842 -1 
0.000108187 0.00109576 -0.999999 
-2.17594e-05 0.00121437 -0.999999 
8.38497e-05 0.00135743 0.999999 
-3.2113e-05 0.00124124 0.999999 
-0.00018396 0.000788343 1 
-0.000315444 0.000231566 1 
-0.000448882 -0.000429592 1 
-0.000568537 -0.00111123 0.999999 
-0.000725605 -0.00196766 0.999998 
-0.000950141 -0.00295132 0.999995 
-0.00116698 -0.00402935 0.999991 
-0.00143264 -0.00507135 0.999986 
-0.00173101 -0.00609428 0.99998 
-0.00204412 -0.00701729 0.999973 
-0.00237937 -0.0079089 0.999966 
-0.00277044 -0.00871908 0.999958 
-0.0032067 -0.00929907 0.999952 
-0.00373214 -0.00968931 0.999946 
-0.00433438 -0.00973619 0.999943 
-0.00503942 -0.00953133 0.999942 
-0.00581081 -0.00908808 0.999942 
-0.00663451 -0.00844297 0.999942 
-0.00740327 -0.0075553 0.999944 
-0.0080862 -0.00653067 0.999946 
-0.00835903 -0.00532766 0.999951 
-0.00802707 -0.00399194 0.99996 
-0.0066997 -0.00241116 0.999975 
-0.00404518 -0.000158004 0.999992 
0.000395994 0.00320936 0.999995 
0.00743389 0.00770765 0.999943 
0.0185591 0.0141799 0.999727 
0.0337066 0.0251557 0.999115 
0.0539585 0.0386546 0.997795 
0.07852 0.0499348 0.995661 
0.112817 0.0432976 0.992672 
0.15256 0.0516972 0.986941 
0.205079 0.21415 0.95503 
0.23908 0.312836 0.919225 
0.276946 0.251415 0.927411 
0.247144 0.438259 0.864204 
0.230993 0.598206 0.767328 
0.0318611 0.957381 0.287067 
-0.0831848 0.866604 -0.492014 
-0.237285 0.603554 -0.761195 
-0.282916 0.352608 -0.891979 
-0.237347 0.159567 -0.95823 
-0.183316 0.133518 -0.973945 
-0.138899 0.0882008 -0.986371 
-0.0988334 0.0682215 -0.992763 
-0.0720593 0.0408713 -0.996563 
-0.0501426 0.0262788 -0.998396 
-0.0325062 0.0209598 -0.999252 
-0.018785 0.0150345 -0.999711 
-0.0080898 0.00746837 -0.999939 
-0.000613297 0.0023606 -0.999997 
0.00395271 -0.000625471 -0.999992 
0.00659815 -0.00279598 -0.999974 
0.00795946 -0.00432562 -0.999959 
0.00833828 -0.00552761 -0.99995 
0.0080504 -0.00657652 -0.999946 
0.00743431 -0.00757212 -0.999944 
0.00666346 -0.0084402 -0.999942 
0.00585597 -0.00908804 -0.999942 
0.00511054 -0.00954519 -0.999941 
0.00440371 -0.00970632 -0.999943 
0.00379237 -0.00962248 -0.999947 
0.00325721 -0.00926391 -0.999952 
0.00280117 -0.00867636 -0.999958 
0.00240549 -0.0078995 -0.999966 
0.00205467 -0.00700902 -0.999973 
0.00174009 -0.00605881 -0.99998 
0.00145305 -0.00505684 -0.999986 
0.00119615 -0.00405103 -0.999991 
0.000965315 -0.00305096 -0.999995 
0.000760543 -0.00207758 -0.999998 
0.000581899 -0.00116893 -0.999999 
0.000425135 -0.00036282 -1 
0.000283284 0.000321412 -1 
0.000157792 0.00083466 -1 
2.11204e-05 0.00120547 -0.999999 
-0.000107387 0.00131579 -0.999999 
0.00012626 0.00147589 0.999999 
1.63147e-05 0.00140499 0.999999 
-0.000130873 0.000967597 1 
-0.000268179 0.000422783 1 
-0.000412906 -0.000265957 1 
-0.000568118 -0.00102188 0.999999 
-0.000756034 -0.00194979 0.999998 
-0.000962207 -0.0028554 0.999995 
-0.00118952 -0.003872 0.999992 
-0.0014445 -0.00485884 0.999987 
-0.00172021 -0.0058099 0.999982 
-0.00202825 -0.0067582 0.999975 
-0.00235831 -0.00762027 0.999968 
-0.00271825 -0.00834463 0.999962 
-0.00314089 -0.00891968 0.999955 
-0.00361693 -0.00920124 0.999951 
-0.00418574 -0.00922383 0.999949 
-0.00482008 -0.00895235 0.999948 
-0.00548988 -0.00846772 0.999949 
-0.0061394 -0.00780804 0.999951 
-0.00672622 -0.00705596 0.999953 
-0.00714283 -0.00623671 0.999955 
-0.00723285 -0.00540526 0.999959 
-0.00678239 -0.00459441 0.999966 
-0.00546078 -0.00374444 0.999978 
-0.00287843 -0.00259611 0.999993 
0.00153155 -0.000834592 0.999999 
0.00898965 0.00146158 0.999959 
0.0195696 0.00333889 0.999803 
0.0336272 0.00950563 0.999389 
0.0538762 0.0157173 0.998424 
0.081865 0.0186213 0.996469 
0.126684 0.0073392 0.991916 
0.173146 -0.000865222 0.984896 
0.230879 0.155488 0.960478 
0.183458 0.120558 0.975607 
0.241419 0.0900893 0.96623 
0.313036 0.398731 0.861987 
0.218065 0.723464 0.655018 
0.0400844 0.974788 0.219506 
-0.141323 0.882272 -0.449027 
-0.302695 0.441598 -0.844611 
-0.197406 0.372791 -0.906674 
-0.236299 0.0929819 -0.967221 
-0.184906 0.0737707 -0.979984 
-0.134709 0.0401037 -0.990073 
-0.100258 0.0260725 -0.99462 
-0.0717537 0.00999858 -0.997372 
-0.0491514 0.00402722 -0.998783 
-0.032581 0.00505684 -0.999456 
-0.0191007 0.00427724 -0.999808 
-0.00900214 0.000747151 -0.999959 
-0.00187299 -0.0015739 -0.999997 
0.00276742 -0.00301179 -0.999992 
0.00540102 -0.00408463 -0.999977 
0.0067656 -0.00493268 -0.999965 
0.00721666 -0.00565929 -0.999958 
0.00712608 -0.00636146 -0.999954 
0.00672359 -0.00710307 -0.999952 
0.00617212 -0.00787678 -0.99995 
0.0055281 -0.00852211 -0.999948 
0.00487573 -0.00898403 -0.999948 
0.00423948 -0.00919869 -0.999949 
0.00367488 -0.00917371 -0.999951 
0.00317478 -0.00886041 -0.999956 
0.00275124 -0.00833732 -0.999961 
0.00237288 -0.0075951 -0.999968 
0.00204312 -0.00675138 -0.999975 
0.0017433 -0.00583405 -0.999981 