# vtk DataFile Version 3.0 
Exported using Morpho https://github.com/Morpho-lang/morpho 
ASCII 
DATASET UNSTRUCTURED_GRID 

POINTS 1978 float 
-8.48528 -2.82843 4.26397e-13 
-8.2713 -2.82843 4.91403e-13 
-7.97245 -2.82843 3.28432e-13 
-7.72366 -2.82843 7.61893e-14 
-7.49769 -2.82843 -2.03243e-13 
-7.28149 -2.82843 1.41073e-13 
-7.05886 -2.82843 -3.75911e-13 
-6.74769 -2.82843 -2.35753e-13 
-6.54818 -2.82843 -1.53069e-13 
-6.34291 -2.82843 -1.68227e-13 
-6.12458 -2.82843 -1.71056e-13 
-5.91293 -2.82843 -2.50525e-13 
-5.70093 -2.82843 -2.17891e-13 
-5.48843 -2.82843 -3.00779e-13 
-5.2784 -2.82843 -3.56718e-13 
-5.06778 -2.82843 -3.55949e-13 
-4.85635 -2.82843 -3.57262e-13 
-4.64669 -2.82843 -3.763e-13 
-4.43485 -2.82843 -6.73329e-13 
-4.22493 -2.82843 6.65374e-14 
-4.01628 -2.82843 6.98675e-13 
-3.8069 -2.82843 1.56889e-12 
-3.59605 -2.82843 2.06424e-12 
-3.38672 -2.82843 1.7521e-12 
-3.17642 -2.82843 -2.03583e-12 
-2.96703 -2.82843 -8.59102e-12 
-2.76628 -2.82843 -1.74683e-11 
-2.56628 -2.82843 -3.32922e-11 
-2.33804 -2.82843 -1.63618e-11 
-2.11126 -2.82843 1.08843e-10 
-1.87456 -2.82843 5.73544e-10 
-1.64541 -2.82843 1.7139e-09 
-1.42532 -2.82843 4.7098e-09 
-1.24024 -2.82843 1.30081e-08 
-1.07285 -2.82843 2.74077e-08 
-0.920744 -2.82843 5.58856e-08 
-0.777535 -2.82843 8.28334e-08 
-0.665887 -2.82843 2.11858e-07 
-0.455474 -2.82842 2.24675e-06 
0.068437 -2.82841 -5.56871e-07 
0.518525 -2.82842 -6.89267e-07 
0.711828 -2.82843 -9.62675e-08 
0.816745 -2.82843 -6.34294e-08 
0.917066 -2.82843 -4.63553e-08 
1.07109 -2.82843 -2.62436e-08 
1.23595 -2.82843 -9.61065e-09 
1.44668 -2.82843 -3.44664e-09 
1.663 -2.82843 -1.46639e-09 
1.88716 -2.82843 -4.62773e-10 
2.13266 -2.82843 -4.28733e-11 
2.37077 -2.82843 2.3492e-11 
2.56473 -2.82843 1.77874e-11 
2.76363 -2.82843 1.57954e-11 
2.97298 -2.82843 8.90886e-12 
3.18664 -2.82843 1.84346e-12 
3.39995 -2.82843 -1.36801e-12 
3.61446 -2.82843 -2.04988e-12 
3.82584 -2.82843 -1.43357e-12 
4.03542 -2.82843 -6.22956e-13 
4.2434 -2.82843 -2.33586e-13 
4.45211 -2.82843 4.63851e-13 
4.66192 -2.82843 4.97267e-13 
4.87273 -2.82843 4.84519e-13 
5.08335 -2.82843 4.32557e-13 
5.29521 -2.82843 3.59628e-13 
5.50719 -2.82843 2.7909e-13 
5.71984 -2.82843 2.51972e-13 
5.93444 -2.82843 2.29597e-13 
6.15034 -2.82843 2.00784e-13 
6.36589 -2.82843 1.66888e-13 
6.58529 -2.82843 1.70046e-13 
6.80902 -2.82843 2.64852e-13 
7.03504 -2.82843 2.43556e-13 
7.26402 -2.82843 6.44727e-14 
7.49952 -2.82843 9.97982e-14 
7.7398 -2.82843 -1.9183e-13 
7.98848 -2.82843 -2.44074e-13 
8.22792 -2.82843 -3.64232e-13 
8.48528 -2.82843 -4.64484e-13 
-8.48528 -2.59957 -2.27211e-13 
-8.24472 -2.57262 8.6566e-17 
-8.02764 -2.64358 -1.00331e-17 
-7.74595 -2.6146 3.00177e-17 
-7.50061 -2.59006 7.05424e-17 
-7.27399 -2.59167 -5.5526e-17 
-7.05297 -2.58171 9.03184e-17 
-6.85121 -2.6651 2.71372e-16 
-6.61175 -2.56664 1.93174e-16 
-6.40715 -2.58265 1.16143e-16 
-6.19394 -2.59628 1.94328e-16 
-5.97617 -2.59545 2.19467e-16 
-5.76042 -2.59761 1.6363e-16 
-5.54424 -2.59946 9.72765e-17 
-5.32839 -2.59804 -4.08629e-17 
-5.11396 -2.59945 -2.07181e-16 
-4.89843 -2.5999 -2.54128e-16 
-4.68351 -2.59767 -2.63882e-16 
-4.46967 -2.60127 1.49098e-16 
-4.25331 -2.60053 9.49803e-16 
-4.03728 -2.59993 2.21204e-15 
-3.82037 -2.60016 4.13426e-15 
-3.59911 -2.59407 -4.67912e-14 
-3.37705 -2.59693 -5.6331e-14 
-3.15221 -2.59604 8.57674e-16 
-2.9274 -2.58712 1.10767e-13 
-2.70362 -2.57716 1.13077e-13 
-2.46521 -2.58805 -1.20798e-12 
-2.21931 -2.57509 -2.70398e-12 
-1.97397 -2.57699 -6.61341e-12 
-1.73285 -2.58432 -1.72683e-11 
-1.50622 -2.59535 -4.56991e-11 
-1.30514 -2.59769 -8.90211e-11 
-1.13412 -2.63927 -2.04256e-10 
-0.975979 -2.65063 -3.2238e-10 
-0.831421 -2.69452 -6.74786e-10 
-0.704016 -2.68433 -6.04999e-10 
-0.576854 -2.76047 -1.39389e-09 
-0.36206 -2.80287 8.56921e-09 
0.00944062 -2.72252 -4.05811e-10 
0.450028 -2.79819 -2.04305e-09 
0.632418 -2.74947 1.49383e-09 
0.755098 -2.67612 9.82843e-10 
0.867342 -2.61518 2.65661e-10 
0.99474 -2.65947 2.7589e-10 
1.14586 -2.62031 2.31015e-10 
1.33266 -2.62774 1.22214e-10 
1.54782 -2.59037 4.22636e-11 
1.77071 -2.57779 1.44002e-11 
2.01908 -2.59027 7.40548e-12 
2.27347 -2.59251 2.82245e-12 
2.51162 -2.55927 7.76713e-13 
2.73102 -2.58391 -1.03526e-13 
2.95487 -2.59513 -3.88346e-14 
3.18131 -2.59568 -4.89001e-14 
3.40617 -2.59699 6.03367e-14 
3.62928 -2.6004 4.40732e-14 
3.84645 -2.59991 -3.64791e-15 
4.05955 -2.59839 -1.88713e-15 
4.27119 -2.59838 -7.80551e-16 
4.48263 -2.5985 -1.11367e-16 
4.69393 -2.59845 2.29726e-16 
4.90522 -2.59764 2.81924e-16 
5.11743 -2.59849 1.78182e-16 
5.32973 -2.59786 3.47928e-17 
5.54283 -2.59769 -8.21685e-17 
5.75694 -2.59817 -1.59469e-16 
5.97165 -2.59724 -1.97311e-16 
6.18648 -2.59424 -2.0264e-16 
6.40375 -2.59503 -1.94037e-16 
6.62429 -2.59589 -1.64796e-16 
6.84665 -2.59471 -1.19091e-16 
7.07212 -2.59492 -7.62539e-17 
7.30301 -2.59895 -4.85514e-17 
7.53864 -2.60132 -2.47602e-17 
7.77993 -2.60674 -1.23463e-17 
8.01725 -2.60523 -8.65789e-18 
8.26457 -2.61031 -5.70646e-17 
8.48528 -2.58114 2.99207e-13 
-8.48528 -2.37043 -3.58979e-13 
-8.27165 -2.31692 1.08876e-18 
-8.04328 -2.39443 8.022e-18 
-7.81748 -2.42786 -5.95824e-18 
-7.59744 -2.17931 -8.1219e-17 
-7.55163 -2.37886 3.03272e-17 
-7.30022 -2.36467 1.15177e-17 
-7.05654 -2.35717 -6.69146e-17 
-6.80709 -2.43212 -6.10718e-18 
-6.56286 -2.3243 -6.76961e-17 
-6.34415 -2.34979 -5.49579e-17 
-6.1234 -2.36491 -3.21318e-17 
-5.90171 -2.36619 -1.47529e-16 
-5.68065 -2.37045 -1.22542e-16 
-5.46086 -2.37159 -1.61783e-16 
-5.24191 -2.37031 -1.86851e-16 
-5.0242 -2.37302 -2.09483e-16 
-4.80805 -2.37086 -1.9034e-16 
-4.59125 -2.37005 -7.72549e-17 
-4.37652 -2.37465 -2.48895e-17 
-4.16025 -2.37349 -3.04852e-17 
-3.94421 -2.37272 -7.40755e-17 
-3.7262 -2.37308 2.33865e-16 
-3.50305 -2.36801 8.13329e-16 
-3.27978 -2.36807 1.20409e-15 
-3.0538 -2.36238 -1.08251e-17 
-2.82303 -2.34541 5.30708e-14 
-2.57805 -2.34942 1.20104e-13 
-2.33178 -2.34309 2.55777e-13 
-2.0754 -2.33457 -8.93921e-13 
-1.82103 -2.34212 -9.94578e-13 
-1.58391 -2.35766 5.79082e-13 
-1.36922 -2.37234 9.54833e-13 
-1.17049 -2.41941 7.19924e-12 
-1.02098 -2.46404 -4.65091e-12 
-0.858275 -2.53472 2.85412e-11 
-0.602199 -2.62137 -5.08463e-10 
-0.39162 -2.67099 3.45668e-09 
-0.161123 -2.75414 -2.64616e-09 
-0.0652186 -2.79272 -1.85692e-09 
0.168256 -2.7872 9.62902e-10 
0.566806 -2.65883 8.95332e-10 
0.678807 -2.5788 -1.64222e-10 
0.80446 -2.49658 2.82336e-10 
0.985428 -2.46915 5.97765e-11 
1.15185 -2.42291 -1.5598e-11 
1.3439 -2.41273 1.03116e-12 
1.54675 -2.34886 8.67713e-12 
1.76504 -2.32683 4.45061e-12 
1.99717 -2.35405 -2.61937e-13 
2.25236 -2.35527 4.5067e-14 
2.49759 -2.32625 -1.6109e-13 
2.74126 -2.34413 -1.33662e-13 
2.97219 -2.36307 -1.81503e-15 
3.20262 -2.36938 -2.28647e-15 
3.42965 -2.37332 -1.38743e-15 
3.6489 -2.3729 -4.83514e-16 
3.86386 -2.37049 -1.10922e-16 
4.07667 -2.36871 -4.15171e-17 
4.28889 -2.36885 1.0822e-17 
4.50025 -2.36813 1.07728e-16 
4.71182 -2.3677 1.86692e-16 
4.92452 -2.36749 2.07565e-16 
5.13706 -2.3676 1.96111e-16 
5.35107 -2.36742 1.63697e-16 
5.56568 -2.36702 1.32992e-16 
5.77984 -2.36607 1.08282e-16 
5.99445 -2.36335 8.56709e-17 
6.2114 -2.36043 6.45405e-17 
6.43023 -2.36124 4.4383e-17 
6.64994 -2.36018 2.6973e-17 
6.87324 -2.3598 1.6125e-17 
7.10172 -2.3633 1.0258e-17 
7.33452 -2.37003 6.51025e-18 
7.57286 -2.37654 1.25984e-18 
7.80695 -2.37609 1.84029e-18 
8.04538 -2.38669 -1.54906e-17 
8.26795 -2.36095 -2.12096e-17 
8.48528 -2.3308 3.43055e-13 
-8.48528 -2.11624 -2.28936e-13 
-8.27411 -2.05326 -2.55048e-17 
-8.05935 -2.15482 3.32445e-17 
-7.8274 -2.18963 2.38567e-17 
-7.5847 -1.96735 -1.42954e-17 
-7.33591 -2.15159 6.35179e-17 
-7.08431 -2.14423 -2.54364e-19 
-6.81843 -2.22034 -1.07445e-16 
-6.57757 -2.11039 -9.42164e-17 
-6.33263 -2.11197 -6.08145e-17 
-6.11722 -2.13271 -1.59124e-16 
-5.89848 -2.13454 -9.5197e-17 
-5.67948 -2.14253 -1.45671e-16 
-5.46184 -2.14136 -1.69246e-16 
-5.24514 -2.14266 -1.61954e-16 
-5.02731 -2.14496 -1.44572e-16 
-4.81104 -2.14171 -1.24488e-16 
-4.59592 -2.1424 -7.03963e-17 
-4.37923 -2.14513 -9.08531e-18 
-4.16458 -2.14593 -3.13077e-17 
-3.94787 -2.14405 -1.81994e-16 
-3.73077 -2.14538 -2.62106e-16 
-3.51032 -2.14119 5.96275e-16 
-3.28575 -2.13737 2.31498e-15 
-3.05752 -2.13109 -4.59027e-14 
-2.81754 -2.11798 -4.01429e-14 
-2.57337 -2.1153 3.43593e-14 
-2.32399 -2.10937 1.59411e-13 
-2.08146 -2.09348 1.20528e-13 
-1.83901 -2.11372 5.77327e-14 
-1.59424 -2.12239 -7.81957e-13 
-1.38365 -2.14441 -3.41047e-12 
-1.19217 -2.21591 -7.14601e-12 
-1.22731 -1.99058 -1.36213e-11 
-1.02224 -2.24135 5.65454e-11 
-0.89401 -2.37068 4.26934e-11 
-0.731869 -2.5415 -1.83132e-10 
-0.487462 -2.69257 -1.70682e-09 
-0.0932609 -2.65799 -3.96787e-09 
0.108289 -2.68746 -4.43031e-10 
0.368874 -2.75012 1.49573e-09 
0.473608 -2.64186 8.89788e-10 
0.5669 -2.51642 2.86287e-10 
0.832086 -2.36738 -3.47481e-11 
0.96662 -2.2882 1.01016e-10 
1.09599 -2.21068 1.30312e-11 
1.28915 -2.20199 1.2842e-11 
1.4814 -2.12685 -3.84744e-12 
1.70041 -2.08579 -3.77163e-12 
1.93521 -2.09872 -5.09766e-13 
2.17114 -2.12586 -4.37349e-14 
2.41447 -2.09584 -4.04472e-14 
2.6648 -2.10775 1.10483e-13 
2.90131 -2.12653 -2.16652e-15 
3.13138 -2.13976 -3.46258e-15 
3.35804 -2.14523 -1.01405e-15 
3.5802 -2.14487 -3.93917e-17 
3.79921 -2.14073 3.16009e-16 
4.01481 -2.13906 2.06239e-16 
4.22976 -2.13943 4.87931e-17 
4.44388 -2.1379 3.28653e-17 
4.6578 -2.13745 7.02718e-17 
4.87249 -2.13783 1.20565e-16 
5.08828 -2.1368 1.89667e-16 
5.30443 -2.13784 1.38922e-16 
5.52248 -2.13709 1.66096e-16 
5.74086 -2.13406 1.46535e-16 
5.95835 -2.13083 4.9985e-16 
6.17724 -2.12835 1.16296e-16 
6.39931 -2.12749 6.67662e-17 
6.622 -2.12422 1.03119e-16 
6.84572 -2.12487 9.28618e-17 
7.0736 -2.13053 1.49011e-18 
7.30654 -2.13902 1.28095e-17 
7.54318 -2.14918 -2.25734e-17 
7.78337 -2.14487 3.74664e-17 
8.02166 -2.15392 -1.45953e-17 
8.25005 -2.11649 1.31675e-17 
8.48528 -2.09907 2.93388e-13 
-8.48528 -1.86014 -7.68392e-14 
-8.26924 -1.79121 -2.31733e-17 
-8.05905 -1.90578 -1.08415e-17 
[...]
POINT_DATA 1978 
VECTORS vectors float
-0.00013561 0.00166111 0.999999 
4.58367e-05 0.00133455 0.999999 
4.82833e-05 0.000635659 1 
6.61469e-05 -0.000172602 1 
6.13014e-05 -0.000958547 1 
7.93009e-05 -0.00192935 0.999998 
8.88315e-05 -0.00300549 0.999995 
0.000109485 -0.0047479 0.999989 
0.000107652 -0.00591569 0.999982 
8.17301e-05 -0.00710435 0.999975 
7.63677e-05 -0.00839621 0.999965 
6.71517e-05 -0.00960011 0.999954 
5.81063e-05 -0.0107993 0.999942 
4.63508e-05 -0.0119922 0.999928 
2.28989e-05 -0.0131214 0.999914 
-1.35494e-05 -0.0140961 0.999901 
-5.602e-05 -0.0148805 0.999889 
-0.000113815 -0.0153936 0.999881 
-0.00018835 -0.0155777 0.999879 
-0.000276418 -0.0153545 0.999882 
-0.00037256 -0.0146531 0.999893 
-0.00047404 -0.0133263 0.999911 
-0.000591469 -0.0111352 0.999938 
-0.000680257 -0.00781392 0.999969 
-0.000848978 -0.00264644 0.999996 
-0.00110418 0.0052416 0.999986 
-0.00128925 0.0150006 0.999887 
-0.00145133 0.0279536 0.999608 
-0.00156594 0.0470984 0.998889 
-0.00176324 0.0710761 0.997469 
-0.00199942 0.103644 0.994612 
-0.00271037 0.146349 0.989229 
-0.004809 0.205505 0.978644 
-0.00807557 0.279422 0.960134 
-0.010754 0.362667 0.931857 
-0.0131383 0.456775 0.889485 
-0.0163863 0.550836 0.834453 
-0.0165945 0.654583 0.755808 
-0.00654891 0.820457 0.571671 
-0.0140215 0.991929 -0.12602 
0.0124151 0.78207 -0.623068 
0.0215593 0.634387 -0.772715 
0.0251249 0.535641 -0.844072 
0.0178268 0.469246 -0.882887 
0.0119099 0.372128 -0.928105 
0.00837117 0.278379 -0.960435 
0.00411122 0.198204 -0.980152 
0.00295719 0.14268 -0.989765 
0.00207972 0.101414 -0.994842 
0.0017022 0.0679944 -0.997684 
0.00160578 0.0439225 -0.999034 
0.00161111 0.0282168 -0.999601 
0.00133925 0.015424 -0.99988 
0.000981331 0.00441806 -0.99999 
0.000802283 -0.00311321 -0.999995 
0.000690452 -0.0080851 -0.999967 
0.000573187 -0.0114513 -0.999934 
0.000458966 -0.0135341 -0.999908 
0.000359706 -0.014736 -0.999891 
0.000265996 -0.0153519 -0.999882 
0.000181563 -0.015513 -0.99988 
0.000109601 -0.0152937 -0.999883 
5.14608e-05 -0.0147393 -0.999891 
8.79072e-06 -0.0139306 -0.999903 
-2.1131e-05 -0.0129424 -0.999916 
-4.20559e-05 -0.0118452 -0.99993 
-5.68164e-05 -0.0106823 -0.999943 
-6.69811e-05 -0.00947477 -0.999955 
-7.76337e-05 -0.0082347 -0.999966 
-8.67327e-05 -0.00696714 -0.999976 
-8.84384e-05 -0.00566855 -0.999984 
-8.57702e-05 -0.00438195 -0.99999 
-8.04751e-05 -0.00315022 -0.999995 
-7.14513e-05 -0.00200702 -0.999998 
-6.21627e-05 -0.000961896 -1 
-5.33614e-05 -3.84847e-05 -1 
-2.72142e-05 0.000733878 -1 
-4.60934e-05 0.00126401 -0.999999 
0.000131467 0.00167751 -0.999999 
-0.000538747 0.00125196 0.999999 
-0.000231645 0.000965461 0.999999 
2.77952e-05 0.000643291 1 
3.25459e-05 -0.000186875 1 
-2.45156e-05 -0.00108683 0.999999 
-1.63149e-05 -0.00200721 0.999998 
-4.45178e-05 -0.00297352 0.999996 
0.000198217 -0.00403791 0.999992 
-0.000105964 -0.00533396 0.999986 
-0.000153223 -0.00647304 0.999979 
-0.000192294 -0.00768556 0.99997 
-0.000318392 -0.00889566 0.99996 
-0.000443956 -0.0100713 0.999949 
-0.000594867 -0.0112103 0.999937 
-0.000815544 -0.0122592 0.999924 
-0.00109962 -0.0131612 0.999913 
-0.00146637 -0.0138463 0.999903 
-0.00195273 -0.0142517 0.999897 
-0.00253387 -0.0143861 0.999893 
-0.0032533 -0.014116 0.999895 
-0.00401081 -0.0133517 0.999903 
-0.00470485 -0.01194 0.999918 
-0.00522584 -0.00963916 0.99994 
-0.00542769 -0.00609075 0.999967 
-0.00521879 -0.000746747 0.999986 
-0.00474157 0.00758885 0.99996 
-0.00407787 0.0192705 0.999806 
-0.00332889 0.0358798 0.999351 
-0.000564388 0.058334 0.998297 
0.00283918 0.0877794 0.996136 
0.00664531 0.128825 0.991645 
0.0078775 0.182138 0.983241 
0.0131884 0.247138 0.968891 
0.015766 0.327797 0.944617 
0.0192724 0.414285 0.909943 
0.0152741 0.52674 0.849889 
0.0315481 0.610322 0.791525 
0.00528978 0.718728 0.695272 
0.00717916 0.8825 0.470258 
-0.0289075 0.99844 -0.0477738 
-0.00389842 0.833622 -0.552322 
0.0127054 0.683447 -0.72989 
-0.0128525 0.570169 -0.821427 
-0.0296992 0.490069 -0.871178 
-0.0116286 0.417183 -0.908748 
-0.0101288 0.325936 -0.945338 
-0.00460642 0.239761 -0.970821 
-0.00698911 0.170246 -0.985377 
-0.00530014 0.120589 -0.992688 
-0.000818625 0.0812938 -0.99669 
0.00181879 0.0524121 -0.998624 
0.00258573 0.0317958 -0.999491 
0.00409827 0.0167934 -0.999851 
0.004765 0.00561809 -0.999973 
0.00514391 -0.00185124 -0.999985 
0.00535165 -0.00679232 -0.999963 
0.00517802 -0.0100564 -0.999936 
0.00464857 -0.0121728 -0.999915 
0.00395861 -0.0134351 -0.999902 
0.00321438 -0.014106 -0.999895 
0.00252566 -0.0143285 -0.999894 
0.00193928 -0.0141903 -0.999897 
0.00147154 -0.0137486 -0.999904 
0.00110156 -0.0130639 -0.999914 
0.000828144 -0.0121859 -0.999925 
0.000620449 -0.0111729 -0.999937 
0.000454052 -0.0100726 -0.999949 
0.00032017 -0.00891762 -0.99996 
0.000213042 -0.00773072 -0.99997 
0.000117503 -0.00651939 -0.999979 
4.98534e-05 -0.00529016 -0.999986 
1.74229e-05 -0.00408239 -0.999992 
6.21418e-06 -0.00292378 -0.999996 
-3.74183e-06 -0.00183772 -0.999998 
-3.76281e-06 -0.000858185 -1 
3.18346e-05 -1.10684e-05 -1 
0.000123911 0.000619474 -1 
0.000234562 0.00107664 -0.999999 
0.000551727 0.00123544 -0.999999 
-0.000478539 0.000908998 0.999999 
-0.000353254 0.000827438 1 
-0.000293716 0.000537334 1 
-0.000237818 3.37331e-05 1 
-0.000408342 -0.000620978 1 
-0.00027917 -0.000784728 1 
-0.000329638 -0.00179867 0.999998 
-0.000373309 -0.00296802 0.999996 
-0.000330196 -0.00426191 0.999991 
-0.000615644 -0.00539364 0.999985 
-0.000683988 -0.00657935 0.999978 
-0.000795593 -0.00777164 0.999969 
-0.000991371 -0.00892869 0.99996 
-0.00119838 -0.0100661 0.999949 
-0.00145685 -0.0111032 0.999937 
-0.001794 -0.0120058 0.999926 
-0.00221558 -0.0127035 0.999917 
-0.00275556 -0.0130869 0.999911 
-0.00343215 -0.0132153 0.999907 
-0.00420571 -0.0130745 0.999906 
-0.00511009 -0.0125023 0.999909 
-0.00597766 -0.0113758 0.999917 
-0.00660585 -0.00954396 0.999933 
-0.0067644 -0.00686876 0.999954 
-0.00619578 -0.0030655 0.999976 
-0.00482814 0.0025433 0.999985 
-0.00275771 0.0110419 0.999935 
-0.00022788 0.0242069 0.999707 
0.00344953 0.0420123 0.999111 
0.0103416 0.0663696 0.997741 
0.0193981 0.100095 0.994789 
0.030073 0.146134 0.988808 
0.0431044 0.202908 0.978249 
0.0564965 0.279125 0.958591 
0.0741432 0.359687 0.930123 
0.0632095 0.472177 0.879235 
0.0791904 0.671137 0.737092 
0.0683509 0.828343 0.556036 
-0.0050352 0.98843 0.151593 
-0.00912618 0.997559 0.069223 
-0.0239937 0.963925 -0.26509 
-0.0313471 0.7115 -0.701987 
-0.065535 0.636101 -0.768818 
-0.0824159 0.506267 -0.85843 
-0.0619432 0.387702 -0.919701 
-0.053345 0.291822 -0.954984 
-0.0389818 0.216624 -0.975477 
-0.0316633 0.15585 -0.987273 
-0.0224617 0.110481 -0.993624 
-0.0122666 0.0771159 -0.996947 
-0.00526515 0.0496679 -0.998752 
-0.00167466 0.0290412 -0.999577 
0.00189276 0.0149154 -0.999887 
0.00395252 0.0047799 -0.999981 
0.00551737 -0.00179016 -0.999983 
0.00647884 -0.00601958 -0.999961 
0.00669632 -0.00887403 -0.999938 
0.0062788 -0.0108329 -0.999922 
0.00549936 -0.0121102 -0.999912 
0.00460909 -0.0128441 -0.999907 
0.00377253 -0.0131537 -0.999906 
0.00305915 -0.0131296 -0.999909 
0.00247411 -0.0128234 -0.999915 
0.00201086 -0.0122693 -0.999923 
0.00164468 -0.0115007 -0.999932 
0.00135591 -0.0105686 -0.999943 
0.00112111 -0.00953297 -0.999954 
0.000926262 -0.00843226 -0.999964 
0.000756539 -0.00729072 -0.999973 
0.000606387 -0.00612928 -0.999981 
0.000494107 -0.00496839 -0.999988 
0.000410415 -0.00382213 -0.999993 
0.00034603 -0.00271383 -0.999996 
0.000296666 -0.00167892 -0.999999 
0.000259471 -0.000749805 -1 
0.000257645 9.06215e-07 -1 
0.000299778 0.000590693 -1 
0.000358242 0.00087903 -1 
0.000454332 0.00089691 -0.999999 
-0.000239676 0.000872232 1 
-0.000273939 0.000874773 1 
-0.000325751 0.000549571 1 
-0.000344727 5.1958e-05 1 
-0.000545727 -0.000585325 1 
-0.000519246 -0.001556 0.999999 
-0.000619065 -0.00268526 0.999996 
-0.000659841 -0.0040089 0.999992 
-0.000945305 -0.00512654 0.999986 
-0.00113615 -0.00635828 0.999979 
-0.00130227 -0.00746048 0.999971 
-0.0015285 -0.00855224 0.999962 
-0.00179766 -0.00960281 0.999952 
-0.00212204 -0.0105466 0.999942 
-0.00250821 -0.0113319 0.999933 
-0.00298864 -0.0118917 0.999925 
-0.00361116 -0.0121646 0.999919 
-0.00434584 -0.0121541 0.999917 
-0.00521706 -0.0118805 0.999916 
-0.00618383 -0.0112469 0.999918 
-0.00711835 -0.0100898 0.999924 
-0.00768262 -0.00838788 0.999935 
-0.00757686 -0.00604079 0.999953 
-0.00654492 -0.00288672 0.999974 
-0.00446725 0.00172883 0.999988 
-0.00133368 0.00874315 0.999961 
0.00302673 0.0198663 0.999798 
0.00945672 0.0357236 0.999317 
0.0192365 0.0559336 0.998249 
0.0317612 0.0854495 0.995836 
0.047333 0.123752 0.991184 
0.0656465 0.173577 0.98263 
0.0921105 0.242544 0.965758 
0.0970997 0.175132 0.979745 
0.121143 0.306207 0.944226 
0.117517 0.409807 0.904571 
0.103329 0.564192 0.819152 
0.0365768 0.787723 0.614943 
0.00292317 0.987808 0.155649 
-0.048001 0.980192 -0.192142 
-0.0237394 0.862365 -0.50573 
-0.069487 0.767966 -0.636711 
-0.11856 0.655595 -0.745747 
-0.137703 0.440722 -0.887019 
-0.11125 0.362007 -0.925513 
-0.102102 0.276763 -0.955499 
-0.0729403 0.208357 -0.975329 
-0.0576501 0.143449 -0.987977 
-0.0410814 0.100287 -0.99411 
-0.0259916 0.071227 -0.997121 
-0.0145788 0.0487278 -0.998706 
-0.00753822 0.0289454 -0.999553 
-0.00149951 0.0151523 -0.999884 
0.0022871 0.00595713 -0.99998 
0.00500932 -0.00036243 -0.999987 
0.00680517 -0.00435475 -0.999967 
0.00764472 -0.00702631 -0.999946 
0.00757544 -0.00898873 -0.999931 
0.00690155 -0.0104261 -0.999922 
0.00595003 -0.0114027 -0.999917 
0.00500334 -0.0119415 -0.999916 
0.00416525 -0.0121316 -0.999918 
0.00346386 -0.0120359 -0.999922 
0.00289406 -0.0116611 -0.999928 
0.00242915 -0.0110575 -0.999936 
0.00205475 -0.0102375 -0.999945 
0.00174648 -0.0092785 -0.999955 
0.00148774 -0.00823889 -0.999965 
0.00126317 -0.00715291 -0.999974 
0.00106688 -0.00604168 -0.999981 
0.00090975 -0.00491522 -0.999987 
0.000773985 -0.00380569 -0.999992 
0.000652531 -0.00273027 -0.999996 
0.00054602 -0.00171869 -0.999998 
0.000452021 -0.000817905 -1 
0.000379183 -5.86921e-05 -1 
0.000326561 0.000507896 -1 
0.000297124 0.000843073 -1 
0.000245076 0.000873176 -1 
-6.59051e-05 0.0010805 0.999999 
-0.000176906 0.00103024 0.999999 
-0.000330684 0.000669937 1 
-0.000435442 0.000151615 1 
-0.000680817 -0.00148951 0.999999 
-0.000802319 -0.0024916 0.999997 
-0.000769418 -0.00214896 0.999997 
-0.000887442 -0.00375552 0.999993 
-0.00111254 -0.00453009 0.999989 
-0.00130443 -0.00566999 0.999983 
-0.00156041 -0.00677464 0.999976 
-0.00180887 -0.00779945 0.999968 
-0.00210154 -0.00881015 0.999959 
-0.00246215 -0.00971456 0.99995 
-0.00288151 -0.0104629 0.999941 
-0.00338219 -0.0110048 0.999934 
-0.00400997 -0.0112377 0.999929 
-0.00475815 -0.011188 0.999926 
-0.00562455 -0.0108935 0.999925 
-0.00661274 -0.0102865 0.999925 
-0.00760466 -0.00931426 0.999928 
-0.0083865 -0.00788435 0.999934 
-0.00856275 -0.00607343 0.999945 
-0.00780615 -0.00379944 0.999962 
-0.0058712 -0.000662336 0.999983 
-0.00267493 0.00410746 0.999988 
0.0021925 0.0117034 0.999929 
0.00915176 0.0225821 0.999703 
0.0190047 0.0363341 0.999159 
0.0324067 0.0570197 0.997847 
0.0487172 0.0836928 0.9953 
0.0706513 0.118034 0.990493 
0.104408 0.127984 0.986265 
0.150373 0.16795 0.974259 
0.136159 0.220296 0.965883 
0.169992 0.352091 0.920399 
0.140094 0.489241 0.860823 
0.105272 0.861764 0.496267 
0.0714899 0.819391 0.568759 
-0.0412863 0.995068 -0.0901982 
-0.0529312 0.923392 -0.38019 
-0.132661 0.778853 -0.613016 
-0.145956 0.561184 -0.814721 
-0.207315 0.364085 -0.907999 
-0.166468 0.298829 -0.939676 
-0.130102 0.217216 -0.967415 
-0.0954643 0.164475 -0.981751 
-0.0701976 0.111577 -0.991273 
-0.048175 0.077237 -0.995848 
-0.0310515 0.0537498 -0.998071 
-0.0183577 0.0361502 -0.999178 
-0.00865446 0.0206204 -0.99975 
-0.0019279 0.0104613 -0.999943 
0.00272577 0.00340491 -0.99999 
0.00583806 -0.00129685 -0.999982 
0.00774019 -0.00427116 -0.999961 
0.00853119 -0.0063507 -0.999943 
0.00835322 -0.00799214 -0.999933 
0.00757511 -0.00932759 -0.999928 
0.00657932 -0.0102941 -0.999925 
0.00561206 -0.0108887 -0.999925 
0.00475231 -0.0111628 -0.999926 
0.0040188 -0.0111624 -0.99993 
0.00340348 -0.0108664 -0.999935 
0.00289744 -0.0103766 -0.999942 
0.00247478 -0.00962852 -0.999951 
0.00212026 -0.00873429 -0.99996 
0.00181327 -0.00775099 -0.999968 
0.00154329 -0.00671284 -0.999976 
0.00131323 -0.00565494 -0.999983 
0.00111896 -0.0045729 -0.999989 
0.000948871 -0.00349666 -0.999993 
0.000805161 -0.00246096 -0.999997 
0.000680185 -0.00149297 -0.999999 
0.000566795 -0.000633846 -1 
0.000453866 9.02439e-05 -1 
0.000349035 0.000617377 -1 
0.000215088 0.000974983 -0.999999 
6.92502e-05 0.00107321 -0.999999 
2.25558e-05 0.00123555 0.999999 
-9.21281e-05 0.0011255 0.999999 
-0.000260007 0.000721152 1 
-0.000392318 0.000196178 1 
-0.000529575 -0.000493914 1 
-0.000643691 -0.00130925 0.999999 
-0.000917928 -0.00299225 0.999995 
-0.000941428 -0.00321826 0.999994 
-0.00112703 -0.00412544 0.999991 
-0.00136943 -0.00524176 0.999985 
-0.00164522 -0.00628692 0.999979 
-0.00196041 -0.00730392 0.999971 
-0.00228753 -0.00827712 0.999963 
-0.00265945 -0.00910853 0.999955 
-0.00310165 -0.009791 0.999947 
-0.00362463 -0.0102625 0.999941 
-0.00425293 -0.0104209 0.999937 
-0.00498586 -0.0103103 0.999934 
-0.00582593 -0.00994902 0.999934 
-0.00676212 -0.00932521 0.999934 
-0.00772702 -0.00839606 0.999935 
-0.00855276 -0.00719857 0.999937 
-0.0089409 -0.00569566 0.999944 
-0.00857385 -0.00397213 0.999955 
-0.00714446 -0.00176934 0.999973 
-0.00443613 0.00137961 0.999989 
1.35752e-06 0.00631871 0.99998 
0.00663327 0.0134166 0.999888 
0.0164088 0.0226272 0.999609 
0.03027 0.0374026 0.998842 
0.0479701 0.0564442 0.997253 
0.0706188 0.080526 0.994248 
0.103241 0.0832593 0.991165 
0.140032 0.101177 0.984964 
0.176304 0.27445 0.945301 
0.195879 0.418575 0.886807 
0.142848 0.693822 0.705836 
0.177356 0.563461 0.806881 
0.0256991 0.924602 0.380067 
-0.0490431 0.857277 -0.512514 
-0.0854904 0.944778 -0.316365 
-0.185604 0.691338 -0.698286 
-0.21118 0.481131 -0.850833 
-0.231553 0.239261 -0.942941 
-0.180055 0.204612 -0.96214 
-0.136814 0.145451 -0.97986 
-0.100587 0.111342 -0.988678 
-0.0687432 0.0733689 -0.994933 
-0.0481223 0.0501055 -0.997584 
-0.0318034 0.0375993 -0.998787 
-0.0183062 0.0250937 -0.999517 
-0.00796109 0.0137153 -0.999874 
-0.000625408 0.00618215 -0.999981 
0.00398133 0.00136282 -0.999991 
0.00683325 -0.00196613 -0.999975 
0.00841008 -0.00414723 -0.999956 
0.00891215 -0.00575482 -0.999944 
0.00857865 -0.00712402 -0.999938 
0.00780335 -0.00831749 -0.999935 
0.00684799 -0.00925816 -0.999934 
0.00593188 -0.0099127 -0.999933 
0.00508662 -0.0102634 -0.999934 
0.004359 -0.0103933 -0.999936 
0.00372046 -0.0102049 -0.999941 
0.00317978 -0.00979038 -0.999947 
0.0027219 -0.00912197 -0.999955 
0.00232963 -0.00827962 -0.999963 
0.00199017 -0.007365 -0.999971 
0.0016836 -0.00637215 -0.999978 
0.00141214 -0.00533943 -0.999985 
0.00117442 -0.00429548 -0.99999 
0.000969349 -0.00326912 -0.999994 
0.000791418 -0.00226913 -0.999997 
0.000639343 -0.00133547 -0.999999 
0.000506476 -0.000504792 -1 
0.000375605 0.000199424 -1 
0.000255469 0.000725842 -1 
0.000108187 0.00109576 -0.999999 
-2.17593e-05 0.00121431 -0.999999 
8.38494e-05 0.00135737 0.999999 
-3.2113e-05 0.00124124 0.999999 
-0.00018396 0.000788343 1 
-0.000315444 0.000231566 1 
-0.000448882 -0.000429592 1 
-0.000568537 -0.00111123 0.999999 
-0.000725605 -0.00196766 0.999998 
-0.000950141 -0.00295132 0.999995 
-0.00116698 -0.00402935 0.999991 
-0.00143264 -0.00507135 0.999986 
-0.00173101 -0.00609428 0.99998 
-0.00204412 -0.00701729 0.999973 
-0.00237936 -0.0079089 0.999966 
-0.00277044 -0.00871908 0.999958 
-0.0032067 -0.00929907 0.999952 
-0.00373214 -0.00968931 0.999946 
-0.00433438 -0.00973619 0.999943 
-0.00503942 -0.00953133 0.999942 
-0.00581081 -0.00908808 0.999942 
-0.00663451 -0.00844297 0.999942 
-0.00740327 -0.0075553 0.999944 
-0.0080862 -0.00653067 0.999946 
-0.00835903 -0.00532766 0.999951 
-0.00802707 -0.00399194 0.99996 
-0.0066997 -0.00241116 0.999975 
-0.00404518 -0.000158003 0.999992 
0.000395994 0.00320936 0.999995 
0.00743389 0.00770765 0.999943 
0.0185591 0.0141799 0.999727 
0.0337066 0.0251557 0.999115 
0.0539585 0.0386546 0.997795 
0.07852 0.0499348 0.995661 
0.112817 0.0432976 0.992672 
0.15256 0.0516972 0.986941 
0.205079 0.21415 0.95503 
0.23908 0.312836 0.919225 
0.276946 0.251415 0.927411 
0.247144 0.438259 0.864204 
0.230993 0.598206 0.767328 
0.031861 0.95738 0.287067 
-0.0831848 0.866604 -0.492014 
-0.237285 0.603554 -0.761195 
-0.282916 0.352608 -0.891979 
-0.237347 0.159567 -0.95823 
-0.183316 0.133518 -0.973945 
-0.138899 0.0882008 -0.986371 
-0.0988334 0.0682215 -0.992763 
-0.0720593 0.0408713 -0.996563 
-0.0501426 0.0262788 -0.998396 
-0.0325062 0.0209598 -0.999252 
-0.018785 0.0150345 -0.99971 
-0.0080898 0.00746837 -0.999939 
-0.000613297 0.0023606 -0.999997 
0.00395271 -0.000625471 -0.999992 
0.00659815 -0.00279598 -0.999974 
0.00795946 -0.00432562 -0.999959 
0.00833828 -0.00552761 -0.99995 
0.0080504 -0.00657652 -0.999946 
0.00743431 -0.00757212 -0.999944 
0.00666346 -0.0084402 -0.999942 
0.00585597 -0.00908804 -0.999942 
0.00511054 -0.00954519 -0.999941 
0.00440371 -0.00970631 -0.999943 
0.00379236 -0.00962248 -0.999946 
0.00325721 -0.00926391 -0.999952 
0.00280117 -0.00867636 -0.999958 
0.00240549 -0.0078995 -0.999966 
0.00205467 -0.00700902 -0.999973 
0.00174009 -0.00605881 -0.99998 
0.00145305 -0.00505684 -0.999986 
0.00119615 -0.00405103 -0.999991 
0.000965315 -0.00305096 -0.999995 
0.000760543 -0.00207758 -0.999998 
0.000581899 -0.00116893 -0.999999 
0.000425135 -0.00036282 -1 
0.000283284 0.000321412 -1 
0.000157792 0.00083466 -1 
2.11204e-05 0.00120547 -0.999999 
-0.000107387 0.00131572 -0.999999 
0.00012626 0.00147581 0.999999 
1.63147e-05 0.00140499 0.999999 
-0.000130873 0.000967597 0.999999 
-0.000268179 0.000422783 1 
-0.000412905 -0.000265957 1 
-0.000568118 -0.00102188 0.999999 
-0.000756034 -0.00194979 0.999998 
-0.000962207 -0.0028554 0.999995 
-0.00118952 -0.003872 0.999992 
-0.0014445 -0.00485884 0.999987 
-0.00172021 -0.0058099 0.999982 
-0.00202825 -0.0067582 0.999975 
-0.00235831 -0.00762027 0.999968 
-0.00271825 -0.00834463 0.999961 
-0.00314089 -0.00891968 0.999955 
-0.00361693 -0.00920124 0.999951 
-0.00418574 -0.00922383 0.999949 
-0.00482008 -0.00895235 0.999948 
-0.00548988 -0.00846772 0.999949 
-0.0061394 -0.00780804 0.999951 
-0.00672622 -0.00705596 0.999952 
-0.00714283 -0.00623671 0.999955 
-0.00723285 -0.00540526 0.999959 
-0.00678239 -0.00459441 0.999966 
-0.00546078 -0.00374444 0.999978 
-0.00287843 -0.00259611 0.999992 
0.00153155 -0.000834592 0.999998 
0.00898965 0.00146158 0.999958 
0.0195696 0.00333889 0.999803 
0.0336272 0.00950563 0.999389 
0.0538762 0.0157173 0.998424 
0.081865 0.0186213 0.996469 
0.126684 0.0073392 0.991916 
0.173146 -0.000865222 0.984896 
0.230879 0.155488 0.960478 
0.183458 0.120558 0.975607 
0.241419 0.0900893 0.96623 
0.313036 0.398731 0.861987 
0.218065 0.723463 0.655018 
0.0400844 0.974787 0.219506 
-0.141323 0.882271 -0.449026 
-0.302695 0.441598 -0.84461 
-0.197406 0.372791 -0.906674 
-0.236299 0.0929819 -0.967221 
-0.184906 0.0737707 -0.979983 
-0.134709 0.0401036 -0.990073 
-0.100258 0.0260725 -0.99462 
-0.0717537 0.00999858 -0.997372 
-0.0491514 0.00402722 -0.998783 
-0.032581 0.00505684 -0.999456 
-0.0191007 0.00427724 -0.999808 
-0.00900214 0.000747151 -0.999959 
-0.00187299 -0.0015739 -0.999997 
0.00276742 -0.00301179 -0.999992 
0.00540102 -0.00408463 -0.999977 
0.0067656 -0.00493268 -0.999965 
0.00721666 -0.00565929 -0.999958 
0.00712608 -0.00636146 -0.999954 
0.00672359 -0.00710307 -0.999952 
0.00617212 -0.00787678 -0.99995 
0.0055281 -0.00852211 -0.999948 
0.00487573 -0.00898403 -0.999948 
0.00423948 -0.00919869 -0.999949 
0.00367488 -0.00917371 -0.999951 
0.00317478 -0.00886041 -0.999956 
0.00275124 -0.00833732 -0.999961 
0.00237288 -0.0075951 -0.999968 
0.00204312 -0.00675138 -0.999975 