# vtk DataFile Version 3.0 
Exported using Morpho https://github.com/Morpho-lang/morpho 
ASCII 
DATASET UNSTRUCTURED_GRID 

POINTS 1978 float 
-12 -4 -1.13962e-11 
-11.6179 -4 4.54123e-10 
-11.3235 -4 4.19774e-10 
-10.9802 -4 3.36254e-10 
-10.659 -4 3.43374e-10 
-10.3067 -4 1.61438e-10 
-9.98736 -4 1.16591e-10 
-9.65454 -4 9.03981e-11 
-9.31233 -4 7.22757e-11 
-8.99345 -4 5.79533e-11 
-8.68938 -4 5.582e-11 
-8.38139 -4 4.70994e-11 
-8.07933 -4 2.7463e-11 
-7.7745 -4 -1.72021e-11 
-7.48147 -4 -7.51339e-12 
-7.17723 -4 -1.9151e-11 
-6.88587 -4 -3.82828e-11 
-6.5873 -4 -2.83733e-11 
-6.28427 -4 -5.71578e-11 
-5.97942 -4 -7.31005e-11 
-5.67066 -4 -1.01662e-10 
-5.36716 -4 -1.23692e-10 
-5.0701 -4 -1.54729e-10 
-4.77883 -4 -2.43994e-10 
-4.47456 -4 -2.98645e-10 
-4.18398 -4 -3.22689e-10 
-3.90043 -4 -5.1428e-10 
-3.58664 -4 -6.81308e-10 
-3.28432 -4 -7.95651e-10 
-2.99227 -4 -7.65647e-10 
-2.68475 -4 -7.90171e-10 
-2.46445 -4 -1.78284e-10 
-2.21418 -4 -3.23338e-10 
-1.95714 -4 -4.0281e-10 
-1.7136 -4 -1.74414e-09 
-1.45611 -4 -6.69112e-09 
-1.20072 -4 -3.68358e-08 
-0.916251 -4 -1.56172e-08 
-0.627829 -4 -5.6323e-08 
-0.0575818 -4 -3.47105e-09 
0.478931 -4 9.78806e-08 
0.830261 -4 5.08057e-08 
1.14075 -4 4.4332e-08 
1.46543 -4 6.21581e-09 
1.69105 -4 2.07868e-09 
1.91931 -4 1.24639e-09 
2.16499 -4 3.06375e-10 
2.43749 -4 1.13014e-09 
2.71579 -4 3.47635e-10 
2.99168 -4 8.29983e-10 
3.29625 -4 7.39507e-10 
3.58 -4 6.00624e-10 
3.87705 -4 5.31344e-10 
4.19524 -4 4.11122e-10 
4.49 -4 2.58408e-10 
4.78722 -4 2.35277e-10 
5.09105 -4 1.80698e-10 
5.39543 -4 1.29429e-10 
5.70725 -4 9.4164e-11 
6.00445 -4 7.41344e-11 
6.30387 -4 5.46799e-11 
6.5855 -4 4.22128e-11 
6.89002 -4 1.25313e-11 
7.1747 -4 2.3368e-11 
7.47226 -4 4.7031e-13 
7.77177 -4 5.57462e-12 
8.06994 -4 -1.78253e-11 
8.35893 -4 -2.17011e-11 
8.65647 -4 -4.98011e-11 
8.94134 -4 -6.37838e-11 
9.28134 -4 -1.01024e-10 
9.61398 -4 -7.37657e-11 
9.91038 -4 -9.35205e-11 
10.2781 -4 -1.98428e-10 
10.5992 -4 -3.42783e-10 
10.9898 -4 -3.70166e-10 
11.3102 -4 -4.03864e-10 
11.6 -4 -4.44057e-10 
12 -4 3.77885e-12 
-12 -3.62238 -3.96036e-10 
-11.7074 -3.70744 2.92952e-16 
-11.3637 -3.62562 1.24454e-16 
-11.0549 -3.67721 1.86714e-16 
-10.717 -3.65385 1.90874e-16 
-10.3969 -3.68749 1.48095e-16 
-10.0562 -3.66001 9.64343e-17 
-9.73402 -3.68289 8.57364e-17 
-9.39135 -3.68861 6.5613e-17 
-9.05165 -3.67147 4.91899e-17 
-8.7365 -3.66212 3.8184e-17 
-8.42715 -3.67125 2.9619e-17 
-8.11615 -3.66571 1.89952e-17 
-7.80954 -3.66914 7.27858e-18 
-7.50635 -3.65941 -3.76567e-18 
-7.20557 -3.6737 -1.23949e-17 
-6.89601 -3.66309 -2.44152e-17 
-6.59287 -3.66895 -3.73428e-17 
-6.28063 -3.66625 -4.76452e-17 
-5.96745 -3.67291 -6.41141e-17 
-5.65769 -3.66955 -8.5515e-17 
-5.35333 -3.66711 -1.1334e-16 
-5.05281 -3.66619 -1.47566e-16 
-4.73943 -3.68625 -1.89189e-16 
-4.43379 -3.67669 -2.49118e-16 
-4.13365 -3.6718 -3.53235e-16 
-3.81638 -3.69787 -4.12819e-16 
-3.49756 -3.69032 -5.69708e-16 
-3.19322 -3.68806 -5.91322e-16 
-2.89387 -3.71507 -7.4724e-16 
-2.6523 -3.5939 -8.35272e-16 
-2.39708 -3.66693 -2.36905e-16 
-2.1284 -3.69142 1.50957e-17 
-1.87114 -3.66441 -1.44103e-15 
-1.60779 -3.66655 -4.57273e-15 
-1.33099 -3.63264 -1.08824e-14 
-1.03829 -3.61862 -3.09777e-14 
-0.723485 -3.54878 -4.42033e-14 
-0.363165 -3.70764 -6.20759e-14 
0.0116453 -3.49484 5.45449e-14 
0.346812 -3.66339 -5.02644e-14 
0.735234 -3.59908 2.65513e-14 
1.07837 -3.58798 2.74414e-14 
1.38619 -3.68909 4.07577e-15 
1.67369 -3.61458 6.3265e-15 
1.90746 -3.65531 4.73224e-16 
2.15872 -3.69983 4.84977e-16 
2.43961 -3.71126 4.72089e-16 
2.7217 -3.69472 4.75496e-16 
3.02271 -3.69956 6.47598e-16 
3.31252 -3.66538 5.66965e-16 
3.61396 -3.67667 4.95769e-16 
3.93327 -3.69677 4.09719e-16 
4.23472 -3.67022 3.0332e-16 
4.5336 -3.67143 2.38792e-16 
4.83697 -3.67627 1.78919e-16 
5.1409 -3.67315 1.35268e-16 
5.45302 -3.67959 1.05751e-16 
5.75398 -3.66256 7.87261e-17 
6.05809 -3.66563 6.25627e-17 
6.34724 -3.64414 4.3496e-17 
6.65215 -3.67486 3.22479e-17 
6.94686 -3.65433 2.26923e-17 
7.24691 -3.6697 1.21122e-17 
7.54932 -3.67082 1.26901e-18 
7.84837 -3.66627 -7.85053e-18 
8.14474 -3.65364 -1.76326e-17 
8.44001 -3.66574 -2.9816e-17 
8.73257 -3.64577 -3.8459e-17 
9.05363 -3.69811 -5.24633e-17 
9.38718 -3.68762 -6.41947e-17 
9.69699 -3.64309 -7.62676e-17 
10.0361 -3.71009 -1.06488e-16 
10.3701 -3.6636 -1.461e-16 
10.7335 -3.7192 -1.9111e-16 
11.0664 -3.65565 -1.69641e-16 
11.3672 -3.61926 -1.36565e-16 
11.7133 -3.72336 -2.95638e-16 
12 -3.61799 4.06266e-10 
-12 -3.32821 -2.63204e-10 
-11.6301 -3.35998 1.531e-16 
-11.2854 -3.28469 2.96873e-17 
-10.9747 -3.34001 1.1658e-16 
-10.6574 -3.30914 1.71923e-16 
-10.341 -3.35621 1.33739e-16 
-10.0195 -3.32286 8.53368e-17 
-9.70646 -3.34457 6.39912e-17 
-9.39418 -3.37431 4.96609e-17 
-9.08589 -3.33413 3.52376e-17 
-8.77622 -3.32767 2.26085e-17 
-8.4676 -3.33779 1.68278e-17 
-8.16108 -3.33705 1.47814e-17 
-7.85163 -3.33748 8.26982e-18 
-7.54907 -3.32309 -1.03925e-18 
-7.24788 -3.3369 -9.97168e-18 
-6.94724 -3.33855 -1.8072e-17 
-6.63768 -3.33618 -2.46276e-17 
-6.33136 -3.34363 -3.34725e-17 
-6.01631 -3.34499 -4.73123e-17 
-5.70972 -3.34116 -6.27773e-17 
-5.40504 -3.33513 -8.12921e-17 
-5.10712 -3.33452 -1.09964e-16 
-4.80596 -3.36653 -1.62867e-16 
-4.50341 -3.35879 -2.17413e-16 
-4.19966 -3.35067 -2.72131e-16 
-3.88882 -3.38588 -3.67e-16 
-3.57253 -3.3869 -4.62593e-16 
-3.25838 -3.37617 -5.35057e-16 
-2.96143 -3.39168 -4.95831e-16 
-2.67056 -3.27212 -3.5308e-16 
-2.39464 -3.32716 -1.65504e-16 
-2.13486 -3.3676 -4.74967e-16 
-1.87232 -3.33448 -3.5357e-16 
-1.59938 -3.32537 -1.42334e-15 
-1.31293 -3.26711 -7.01188e-15 
-1.02243 -3.20753 -1.35715e-14 
-0.673052 -3.11318 -2.95831e-14 
-0.343748 -3.24404 2.2882e-16 
0.0484948 -2.99721 1.13821e-13 
0.409753 -3.19049 6.57484e-15 
0.776929 -3.19565 -1.03741e-14 
1.07485 -3.11739 -2.55396e-16 
1.35468 -3.33619 6.85241e-15 
1.61543 -3.25644 7.27371e-16 
1.89168 -3.27495 -4.73321e-16 
2.13015 -3.38094 1.34042e-16 
2.39995 -3.42284 1.10937e-16 
2.68428 -3.39009 5.55723e-16 
2.97393 -3.39322 4.28699e-16 
3.26777 -3.34223 5.50222e-16 
3.57249 -3.34978 4.39121e-16 
3.87533 -3.3832 3.82681e-16 
4.17838 -3.349 2.87237e-16 
4.48372 -3.34169 2.06535e-16 
4.78265 -3.34994 1.5385e-16 
5.08333 -3.3469 1.13646e-16 
5.39002 -3.35869 8.78602e-17 
5.6973 -3.33195 6.32962e-17 
6.00304 -3.33584 4.72167e-17 
6.30598 -3.30021 3.46387e-17 
6.60852 -3.34264 2.67032e-17 
6.91092 -3.31991 1.77213e-17 
7.21602 -3.33826 1.03798e-17 
7.52021 -3.34265 1.17316e-18 
7.82529 -3.33327 -6.82581e-18 
8.12901 -3.32355 -1.31804e-17 
8.43754 -3.32172 -1.74643e-17 
8.75554 -3.32451 -2.43632e-17 
9.07498 -3.38364 -3.58281e-17 
9.38847 -3.35168 -4.90877e-17 
9.70384 -3.30317 -6.34844e-17 
10.0173 -3.39071 -8.62336e-17 
10.3155 -3.31226 -1.30623e-16 
10.6382 -3.40387 -1.71719e-16 
10.9678 -3.3418 -1.24713e-16 
11.2947 -3.26609 -1.64347e-17 
11.6328 -3.37578 -1.57636e-16 
12 -3.31789 2.95439e-10 
-12 -3.00752 -2.25638e-10 
-11.6565 -3.04915 9.06211e-17 
-11.3122 -2.96953 -6.71928e-17 
-10.9612 -2.98904 1.03685e-17 
-10.6274 -2.9776 7.93627e-17 
-10.2995 -3.0145 7.25461e-17 
-9.97625 -2.98281 3.85855e-17 
-9.66294 -3.00835 3.61554e-17 
-9.35663 -3.02618 2.50254e-17 
-9.04417 -2.99467 8.42377e-18 
-8.73427 -2.99149 2.32988e-18 
-8.43032 -3.00334 2.53291e-18 
-8.1202 -3.00876 3.47651e-18 
-7.82197 -2.99952 2.46229e-18 
-7.51932 -2.98697 7.55841e-19 
-7.21922 -3.00165 -2.22326e-18 
-6.91412 -3.01038 -4.48956e-18 
-6.60577 -3.00818 -8.30647e-18 
-6.29394 -3.02306 -1.59912e-17 
-5.99019 -3.01369 -2.03294e-17 
-5.68543 -3.01153 -2.57263e-17 
-5.38717 -3.00124 -3.17762e-17 
-5.08991 -3.00317 -4.04409e-17 
-4.79517 -3.04121 -6.53577e-17 
-4.49223 -3.03527 -9.02921e-17 
-4.1908 -3.02481 -1.15467e-16 
-3.89099 -3.06881 -1.93102e-16 
-3.57887 -3.07699 -2.30135e-16 
-3.26631 -3.06717 -2.70792e-16 
-2.94919 -3.07083 -3.6477e-16 
-2.67331 -2.91664 5.69338e-17 
-2.40421 -2.97978 -7.09563e-16 
-2.14286 -3.03038 1.01334e-15 
-1.86876 -2.99563 1.24804e-15 
-1.58924 -2.9646 5.29134e-15 
-1.31977 -2.85625 7.92999e-15 
-0.994538 -2.78471 1.66229e-14 
-0.611036 -2.63393 8.92939e-14 
-0.261702 -2.6978 -1.64834e-13 
0.0322568 -2.29429 2.98841e-13 
0.333094 -2.63914 -1.48315e-14 
0.686015 -2.74158 -6.11371e-14 
0.978077 -2.59032 2.83358e-14 
1.3221 -2.91329 1.65101e-15 
1.62154 -2.86516 -7.17964e-16 
1.8635 -2.9306 -1.00528e-16 
2.14609 -3.03552 1.52161e-16 
2.39638 -3.11889 3.94498e-18 
2.65898 -3.0617 2.36857e-17 
2.94003 -3.07804 4.42478e-16 
3.22709 -3.01713 2.52757e-16 
3.53748 -3.0326 2.31959e-16 
3.8609 -3.05617 2.03127e-16 
4.16903 -3.02505 1.22676e-16 
4.47563 -3.02025 8.91723e-17 
4.78567 -3.0211 6.16921e-17 
5.08439 -3.01534 4.54993e-17 
5.38285 -3.03463 3.72036e-17 
5.68368 -3.00225 2.38516e-17 
5.98856 -3.00608 1.71561e-17 
6.2949 -2.97082 9.82058e-18 
6.60185 -3.00859 9.25561e-18 
6.91478 -2.99669 5.01613e-18 
7.22597 -3.00886 2.14617e-18 
7.52908 -3.01182 -1.02464e-18 
7.83488 -3.00022 -3.18406e-18 
8.13511 -2.99037 -3.03281e-18 
8.44136 -2.9983 -2.95538e-18 
8.73857 -2.98114 -7.61364e-19 
9.04418 -3.05299 -1.1774e-17 
9.35621 -3.02107 -2.19158e-17 
9.65707 -2.96042 -2.96791e-17 
9.98511 -3.03754 -4.92936e-17 
10.3243 -2.98766 -6.11705e-17 
10.6577 -3.06855 -1.06041e-16 
10.9884 -3.00142 -1.23003e-17 
11.3359 -2.94342 7.74358e-17 
11.6635 -3.06293 -9.19117e-17 
12 -2.9889 2.31766e-10 
-12 -2.68658 -2.18269e-10 
-11.6525 -2.72139 2.47041e-17 
-11.3272 -2.63493 -1.14629e-16 
-10.9917 -2.66918 -5.89637e-17 
-10.6493 -2.64751 6.01742e-18 
-10.3128 -2.67779 1.44396e-17 
-9.97596 -2.66208 3.62365e-18 
-9.63791 -2.66596 6.04529e-18 
-9.32415 -2.68582 -4.52353e-19 
-9.00499 -2.66122 -1.01144e-17 
-8.69408 -2.65552 -1.13653e-17 
-8.3782 -2.68017 -6.38126e-18 
-8.07554 -2.66867 -3.36107e-18 
-7.76769 -2.66699 1.52775e-19 
-7.4559 -2.65611 2.17615e-18 
-7.15071 -2.67272 3.22237e-18 
-6.84199 -2.68423 4.08305e-18 
-6.52766 -2.68883 4.25346e-18 
-6.22785 -2.68941 4.32939e-18 
-5.92197 -2.6858 6.05008e-18 
[...]
POINT_DATA 1978 
VECTORS vectors float
0.000882566 -0.00311494 0.999995 
0.00258966 -0.0220183 0.999755 
0.00214403 -0.0206777 0.999784 
0.00225867 -0.0138711 0.999902 
0.00235856 -0.00977246 0.99995 
0.00240859 -0.00737194 0.99997 
0.00243663 -0.00618086 0.999978 
0.00242293 -0.00512973 0.999984 
0.00239481 -0.00419797 0.999989 
0.00232612 -0.00331248 0.999992 
0.0022769 -0.00241035 0.999995 
0.00226265 -0.00157604 0.999997 
0.00226145 -0.000848021 0.999997 
0.00226019 -0.000281446 0.999998 
0.00225069 0.000272539 0.999998 
0.00225138 0.000843707 0.999997 
0.00226613 0.00137196 0.999997 
0.00225003 0.00204814 0.999996 
0.0022537 0.00287562 0.999994 
0.00225404 0.00384013 0.99999 
0.00224066 0.0050066 0.999985 
0.00222147 0.00635055 0.999978 
0.00220266 0.00810422 0.999965 
0.00215263 0.0105465 0.999942 
0.00210241 0.0142033 0.999897 
0.00207739 0.0190966 0.999816 
0.0019424 0.0258972 0.999663 
0.00177408 0.0372005 0.999307 
0.00155398 0.0531868 0.998584 
0.00122679 0.0753839 0.997154 
0.000942546 0.10679 0.994281 
0.000446121 0.136625 0.990623 
-0.000105967 0.181168 0.983452 
-0.000781677 0.238893 0.971046 
-0.00173681 0.310788 0.950478 
-0.00254552 0.40742 0.913238 
-0.00315325 0.518919 0.854818 
-0.0040572 0.659487 0.751705 
-0.0040728 0.805636 0.592398 
-0.00119273 0.997008 0.0772808 
0.00319809 0.884578 -0.466383 
0.00425772 0.709759 -0.704433 
0.00329881 0.553795 -0.832647 
0.00285371 0.406533 -0.913632 
0.00174386 0.321385 -0.946947 
0.000966479 0.253044 -0.967454 
0.000144629 0.196046 -0.980595 
-0.000304197 0.146095 -0.989271 
-0.000814192 0.104987 -0.994473 
-0.00124617 0.0758778 -0.997116 
-0.00150879 0.0526913 -0.99861 
-0.00179817 0.0375879 -0.999292 
-0.0019423 0.0268792 -0.999637 
-0.00203858 0.0190531 -0.999817 
-0.00214432 0.01398 -0.9999 
-0.00217251 0.0105043 -0.999943 
-0.00221604 0.00803836 -0.999966 
-0.00223813 0.00622823 -0.999978 
-0.00223683 0.00478606 -0.999986 
-0.00223492 0.00369747 -0.999991 
-0.00223729 0.00279212 -0.999994 
-0.00223524 0.00207839 -0.999996 
-0.0022338 0.00140085 -0.999997 
-0.00226338 0.000793162 -0.999997 
-0.00224948 0.000271139 -0.999998 
-0.00224147 -0.000295117 -0.999998 
-0.00224645 -0.000900273 -0.999997 
-0.00223382 -0.00149471 -0.999997 
-0.00227881 -0.00221148 -0.999995 
-0.00233424 -0.00304417 -0.999993 
-0.00233449 -0.00408173 -0.999989 
-0.00240853 -0.00513542 -0.999984 
-0.00244999 -0.00593059 -0.99998 
-0.00252179 -0.00709586 -0.999972 
-0.00256556 -0.00931333 -0.999954 
-0.00239777 -0.0140272 -0.999899 
-0.0022148 -0.0203566 -0.999791 
-0.00260224 -0.0219475 -0.999756 
-0.000910254 -0.00308701 -0.999995 
-0.000172353 0.00030691 1 
0.00900354 -0.0163897 0.999825 
0.0108483 -0.0189626 0.999762 
0.0110638 -0.0159588 0.999812 
0.0119504 -0.0112527 0.999865 
0.0117296 -0.00812928 0.999898 
0.0122921 -0.00630602 0.999905 
0.0121 -0.00507355 0.999914 
0.0119583 -0.00409334 0.99992 
0.012114 -0.00323794 0.999922 
0.0125056 -0.00249301 0.999919 
0.0125484 -0.00172011 0.99992 
0.0126952 -0.000973964 0.999919 
0.0126518 -0.000348551 0.99992 
0.0128888 0.000223834 0.999917 
0.0126517 0.000790582 0.99992 
0.0128511 0.0013752 0.999917 
0.0126854 0.00202998 0.999918 
0.0125121 0.00283522 0.999918 
0.0124481 0.00382508 0.999915 
0.0125072 0.00499227 0.999909 
0.0124775 0.00643218 0.999902 
0.0123141 0.0083711 0.999889 
0.0117117 0.0112719 0.999868 
0.0116242 0.0154261 0.999814 
0.0112906 0.0212446 0.999711 
0.00994715 0.0301239 0.999497 
0.00914424 0.0435485 0.99901 
0.00759114 0.0622955 0.998029 
0.00532938 0.0879503 0.996111 
0.00326328 0.117693 0.993045 
2.55189e-05 0.15374 0.988111 
-0.0036663 0.203754 0.979015 
-0.00770071 0.267327 0.963575 
-0.0112437 0.350725 0.936411 
-0.013976 0.460171 0.88772 
-0.0141831 0.597746 0.80156 
-0.0134877 0.755765 0.654704 
-0.00795312 0.92646 0.376308 
-0.000815739 0.99989 -0.0147595 
0.00563551 0.937264 -0.348573 
0.0116762 0.73475 -0.678235 
0.0142226 0.573524 -0.819065 
0.0119549 0.44923 -0.893336 
0.0105736 0.342431 -0.939483 
0.00771925 0.268027 -0.96338 
0.00347659 0.203762 -0.979014 
-0.000368361 0.148534 -0.988907 
-0.00375492 0.107503 -0.994198 
-0.00637158 0.0758883 -0.997096 
-0.00849089 0.0543128 -0.998488 
-0.00964231 0.0381442 -0.999226 
-0.0103525 0.0264254 -0.999597 
-0.0113709 0.0190449 -0.999754 
-0.0118387 0.0139625 -0.999833 
-0.0120235 0.010369 -0.999874 
-0.0122496 0.00782222 -0.999895 
-0.0123224 0.00593333 -0.999907 
-0.01266 0.00455936 -0.99991 
-0.0127571 0.00348701 -0.999913 
-0.0130686 0.0026644 -0.999911 
-0.0126924 0.00193233 -0.999918 
-0.013147 0.00128877 -0.999913 
-0.0128927 0.000693073 -0.999917 
-0.0129171 0.00013811 -0.999917 
-0.0129601 -0.000455621 -0.999916 
-0.013027 -0.00107832 -0.999915 
-0.0128838 -0.00172966 -0.999916 
-0.0129078 -0.00240208 -0.999914 
-0.011935 -0.00322153 -0.999924 
-0.0120555 -0.0040777 -0.999919 
-0.0127148 -0.00492216 -0.999907 
-0.0116387 -0.00619195 -0.999913 
-0.0121429 -0.00789295 -0.999895 
-0.0108772 -0.0112262 -0.999878 
-0.0114324 -0.016142 -0.999805 
-0.0110569 -0.0189031 -0.99976 
-0.00886773 -0.0163398 -0.999827 
0.000212329 0.000187337 -1 
-0.000193967 -0.000937774 1 
0.0108591 -0.0164077 0.999807 
0.0128948 -0.0193588 0.99973 
0.0141083 -0.0159507 0.999773 
0.0148307 -0.0111802 0.999828 
0.01517 -0.00793878 0.999854 
0.0152392 -0.00596299 0.999866 
0.0151101 -0.00462401 0.999875 
0.0148542 -0.00374642 0.999883 
0.0149116 -0.00313717 0.999884 
0.0148415 -0.00256586 0.999887 
0.0149718 -0.00189539 0.999886 
0.0151773 -0.00115088 0.999884 
0.0152822 -0.00045355 0.999883 
0.0153543 0.000150329 0.999882 
0.0153888 0.000724819 0.999881 
0.0154125 0.00131763 0.999881 
0.0152728 0.00198445 0.999882 
0.0151558 0.00273065 0.999882 
0.0150889 0.00364671 0.99988 
0.0150226 0.00477087 0.999876 
0.0148733 0.00621909 0.99987 
0.0147016 0.00813495 0.999859 
0.0146743 0.0108755 0.999833 
0.0142202 0.0147722 0.99979 
0.0134948 0.0205262 0.999698 
0.0127223 0.0291403 0.999495 
0.0114946 0.0419069 0.999056 
0.00961179 0.0606219 0.998115 
0.0071015 0.0861793 0.996255 
0.0037936 0.12039 0.99272 
-7.67896e-05 0.16078 0.98699 
-0.00439402 0.210519 0.97758 
-0.00892677 0.276585 0.960948 
-0.0129263 0.362075 0.932059 
-0.0151993 0.47544 0.879617 
-0.014982 0.603736 0.797043 
-0.0122201 0.774944 0.631912 
-0.0085926 0.927532 0.373642 
-0.000824516 0.999106 -0.0422441 
0.00670151 0.907519 -0.419956 
0.0117281 0.744713 -0.667281 
0.0121833 0.594209 -0.804219 
0.0141919 0.45565 -0.890046 
0.0114447 0.354192 -0.935103 
0.00807181 0.273483 -0.961843 
0.00443075 0.214352 -0.976747 
6.038e-05 0.160008 -0.987116 
-0.00396361 0.118862 -0.992903 
-0.00729083 0.0858632 -0.99628 
-0.00959036 0.0614254 -0.998066 
-0.0113821 0.0428031 -0.999019 
-0.0127201 0.0298873 -0.999472 
-0.013439 0.0212086 -0.999685 
-0.0140377 0.0153436 -0.999784 
-0.0144872 0.0113686 -0.999831 
-0.0146478 0.00845042 -0.999857 
-0.0149282 0.00637285 -0.999868 
-0.0149283 0.00482433 -0.999877 
-0.0151385 0.00370644 -0.999879 
-0.0150798 0.00279577 -0.999883 
-0.0154078 0.00206598 -0.999879 
-0.0153632 0.00139957 -0.999881 
-0.0154931 0.00079261 -0.99988 
-0.0155492 0.000211862 -0.999879 
-0.0154063 -0.00041453 -0.999881 
-0.015205 -0.00108745 -0.999884 
-0.015084 -0.0017899 -0.999885 
-0.0149952 -0.00248123 -0.999885 
-0.0149591 -0.00312704 -0.999883 
-0.0149393 -0.00371421 -0.999882 
-0.0150034 -0.00451348 -0.999877 
-0.0151094 -0.00590472 -0.999869 
-0.0152073 -0.00767713 -0.999855 
-0.0148461 -0.0108747 -0.999831 
-0.0141509 -0.0157971 -0.999775 
-0.0127542 -0.0193534 -0.999732 
-0.0108691 -0.0163856 -0.999807 
0.000335588 -0.00116537 -1 
-0.000420917 -0.00109484 1 
0.00920992 -0.016403 0.999823 
0.0106945 -0.0203279 0.999736 
0.0118507 -0.0166372 0.999792 
0.0123654 -0.0112554 0.99986 
0.0128301 -0.00752597 0.99989 
0.0123036 -0.00531002 0.99991 
0.0124215 -0.00396001 0.999915 
0.0122768 -0.00324691 0.99992 
0.0117531 -0.00286919 0.999927 
0.0116595 -0.00245903 0.999929 
0.0118903 -0.00185783 0.999928 
0.0120203 -0.00111612 0.999927 
0.0119447 -0.000419756 0.999929 
0.0118187 0.000230363 0.99993 
0.0121354 0.000833252 0.999926 
0.012223 0.00144393 0.999924 
0.0122243 0.00209274 0.999923 
0.0123899 0.00281241 0.999919 
0.0121353 0.00367918 0.99992 
0.0119782 0.00482079 0.999917 
0.0116782 0.00631652 0.999912 
0.0114874 0.00838799 0.999899 
0.011674 0.0112164 0.999869 
0.011334 0.0155253 0.999815 
0.0107647 0.0217519 0.999706 
0.0105604 0.0302772 0.999486 
0.00960938 0.0436492 0.999001 
0.0082092 0.063116 0.997973 
0.00599447 0.0902128 0.995905 
0.00296945 0.124859 0.99217 
0.000398532 0.163857 0.986484 
-0.00281681 0.214292 0.976766 
-0.00593618 0.281725 0.959477 
-0.00897508 0.371293 0.928472 
-0.00897973 0.466613 0.884416 
-0.00906207 0.611675 0.791057 
-0.00629815 0.795797 0.60553 
-0.00439716 0.946766 0.321889 
-0.000838454 0.999789 -0.0204618 
0.00154688 0.926647 -0.375926 
0.0052375 0.763709 -0.645539 
0.00463016 0.619257 -0.785175 
0.00897223 0.464838 -0.885351 
0.00625937 0.355676 -0.934589 
0.00494757 0.285266 -0.958436 
0.00230771 0.217088 -0.976149 
-0.000181826 0.168049 -0.985779 
-0.00327498 0.127539 -0.991828 
-0.00595191 0.0924686 -0.995698 
-0.00763035 0.0672529 -0.997707 
-0.00909236 0.0466508 -0.99887 
-0.0103146 0.0316474 -0.999446 
-0.010672 0.0224164 -0.999692 
-0.0110724 0.0159796 -0.999811 
-0.0113831 0.0115341 -0.999869 
-0.0116315 0.00858293 -0.999896 
-0.012012 0.00640561 -0.999908 
-0.0118041 0.00488935 -0.999919 
-0.011888 0.00371481 -0.999923 
-0.0115653 0.00283509 -0.999929 
-0.0121831 0.00210082 -0.999924 
-0.0121135 0.00144567 -0.999926 
-0.0122262 0.00081939 -0.999925 
-0.0122073 0.000215898 -0.999926 
-0.0119893 -0.000435828 -0.999928 
-0.0117744 -0.00113731 -0.99993 
-0.0117898 -0.00185892 -0.999929 
-0.0115096 -0.0024681 -0.999931 
-0.0125091 -0.0029118 -0.999918 
-0.0121888 -0.00327497 -0.999921 
-0.011697 -0.00386973 -0.999924 
-0.0129778 -0.00542102 -0.999901 
-0.0124703 -0.007711 -0.999893 
-0.0133001 -0.0115378 -0.999845 
-0.0120651 -0.0170235 -0.999782 
-0.0104073 -0.0204502 -0.999737 
-0.00918972 -0.016253 -0.999826 
0.000727315 -0.00106611 -1 
-0.000634978 -0.00175977 0.999999 
0.00665979 -0.0170527 0.999833 
0.00742678 -0.0211655 0.999749 
0.00823053 -0.0175857 0.999812 
0.00814243 -0.0115852 0.9999 
0.00837377 -0.00740337 0.999938 
0.00793761 -0.00495869 0.999956 
0.00751971 -0.00341657 0.999966 
0.00743888 -0.0028839 0.999968 
0.00701168 -0.002726 0.999972 
0.00691467 -0.00240842 0.999973 
0.00731698 -0.00178663 0.999972 
0.00715596 -0.00106035 0.999974 
0.00722628 -0.000312879 0.999974 
0.00715461 0.000386849 0.999975 
0.00747074 0.00101496 0.999972 
0.00768972 0.00164376 0.999969 
0.00775802 0.00230172 0.999967 
0.00771103 0.0030071 0.999966 
0.00751771 0.00390485 0.999964 
0.00728699 0.00507014 0.999961 
0.00707484 0.00667171 0.999953 
0.00693873 0.00894949 0.999936 
0.00715025 0.0121639 0.999901 
0.00682865 0.0168731 0.999834 
0.00643946 0.023633 0.9997 
0.00659899 0.0334626 0.999418 
0.00604343 0.0478123 0.998838 
0.0053241 0.0694762 0.99757 
0.00385138 0.0960633 0.995368 
0.00180617 0.142435 0.989803 
0.000356386 0.185225 0.982696 
-0.00157284 0.233263 0.972413 
-0.00329263 0.314466 0.949263 
-0.00361174 0.407398 0.913244 
-0.00392978 0.540924 0.841063 
-0.0029097 0.715485 0.698622 
0.000291898 0.789404 0.613874 
-0.000997486 0.9108 0.412843 
-0.00026587 0.98561 0.16901 
-0.00129609 0.973741 -0.227648 
-0.000422088 0.831402 -0.555671 
-0.00109768 0.683996 -0.729484 
0.00311037 0.475431 -0.879747 
0.001837 0.373212 -0.927744 
0.000345394 0.277154 -0.960826 
0.000794277 0.22896 -0.973436 
-0.00110197 0.167429 -0.985884 
-0.00288243 0.124839 -0.992173 
-0.00425604 0.0927234 -0.995683 
-0.00514758 0.0646824 -0.997893 
-0.00604106 0.0441403 -0.999007 
-0.00639643 0.0308978 -0.999502 
-0.00650009 0.021607 -0.999746 
-0.00685769 0.0152818 -0.99986 
-0.00693707 0.0111408 -0.999914 
-0.00711076 0.00822268 -0.999941 
-0.00742903 0.00619991 -0.999953 
-0.00728923 0.00467588 -0.999963 
-0.00737656 0.00358938 -0.999967 
-0.00709199 0.00275226 -0.999971 
-0.00762623 0.00204893 -0.999969 
-0.00751267 0.00140642 -0.999971 
-0.00751586 0.000793035 -0.999972 
-0.00751232 0.000144331 -0.999972 
-0.00711439 -0.000526385 -0.999975 
-0.00708563 -0.00128894 -0.999974 
-0.0068865 -0.00198924 -0.999974 
-0.00658198 -0.00253403 -0.999975 
-0.00767837 -0.00279168 -0.999967 
-0.00723123 -0.00292464 -0.99997 
-0.00716303 -0.00347974 -0.999968 
-0.00856486 -0.00511687 -0.99995 
-0.0081572 -0.00754584 -0.999938 
-0.00925567 -0.0117152 -0.999889 
-0.00841947 -0.0177792 -0.999807 
-0.00727119 -0.021045 -0.999752 
-0.00649018 -0.0163102 -0.999846 
0.000461663 -0.00119736 -1 
-0.000569874 -0.00200215 0.999999 
0.00414155 -0.0156426 0.999869 
0.00481046 -0.0210418 0.999767 
0.00516211 -0.0190156 0.999806 
0.0050672 -0.0131672 0.999901 
0.00493427 -0.00805094 0.999956 
0.00456081 -0.00518271 0.999976 
0.00427606 -0.00343708 0.999985 
0.00397666 -0.00274777 0.999988 
0.00385159 -0.00271355 0.999989 
0.003719 -0.0026101 0.99999 
0.00397131 -0.00211445 0.99999 
0.00397363 -0.00141685 0.999991 
0.0041033 -0.000629823 0.999992 
0.00419619 0.000116347 0.999991 
0.00424892 0.000823513 0.999991 
0.00445999 0.00145356 0.999989 
0.00457451 0.00207691 0.999987 
0.0044589 0.00273347 0.999986 
0.00447081 0.00347586 0.999984 
0.00429984 0.00443556 0.999981 
0.00417719 0.00574423 0.999975 
0.00406142 0.00761941 0.999963 
0.00402296 0.0103921 0.999938 
0.0039843 0.0142346 0.999891 
0.00369365 0.0198621 0.999796 
0.00361757 0.0285198 0.999587 
0.00348681 0.0402349 0.999184 
0.00341908 0.0581746 0.998301 
0.00285068 0.0815729 0.996663 
0.00228443 0.115486 0.993307 
0.00154543 0.165857 0.986149 
0.000814315 0.216874 0.9762 
-0.000262746 0.272165 0.962251 
-0.000343785 0.351154 0.936318 
-0.000548878 0.461986 0.886887 
-0.000449848 0.613129 0.789983 
-7.60629e-05 0.760366 0.649495 
-0.000712072 0.941149 0.337989 
2.1819e-05 0.994686 -0.102919 
-0.00207259 0.96094 -0.276745 
-0.000948939 0.834605 -0.550843 
-0.00257086 0.835596 -0.549334 
5.30426e-07 0.537292 -0.843396 
-0.00140672 0.405493 -0.914097 
-0.00142257 0.305504 -0.95219 
-0.00169307 0.228701 -0.973495 
-0.00137687 0.183353 -0.983046 
-0.00242203 0.135661 -0.990753 
-0.0028444 0.0986212 -0.995121 
-0.00315963 0.0719909 -0.9974 
-0.00346421 0.0485659 -0.998814 
-0.00350562 0.0332587 -0.999441 
-0.00362511 0.0232566 -0.999723 
-0.00391042 0.0163199 -0.999859 
-0.00393313 0.0117025 -0.999924 
-0.00406988 0.00860542 -0.999955 
-0.00418725 0.00642311 -0.999971 
-0.00429347 0.0049393 -0.999979 
-0.00431487 0.00379577 -0.999984 
-0.00428018 0.0029709 -0.999987 
-0.00445231 0.00222443 -0.999988 
-0.00448489 0.00159177 -0.999989 
-0.00433459 0.000932352 -0.99999 
-0.00438906 0.000261187 -0.999991 
-0.00400521 -0.000464504 -0.999992 
-0.00406909 -0.00122604 -0.999991 
-0.00376879 -0.00198642 -0.999991 
-0.00353562 -0.00251978 -0.999991 
-0.00396112 -0.00273448 -0.999989 
-0.0039753 -0.00273723 -0.999988 
-0.00377709 -0.0031109 -0.999988 
-0.00481948 -0.00464438 -0.999978 
-0.00479103 -0.00725761 -0.999962 
-0.00572357 -0.0117502 -0.999915 
-0.00536108 -0.0180382 -0.999823 
-0.00473887 -0.0212534 -0.999763 
-0.00456973 -0.017099 -0.999844 
0.000303125 -0.00117139 -1 
-0.000217398 -0.00141052 1 
0.00301219 -0.016804 0.999854 
0.00346599 -0.0212577 0.999768 
0.00331193 -0.0173399 0.999844 
0.00315858 -0.0109292 0.999935 
0.0027775 -0.00658538 0.999975 
0.00248806 -0.00412743 0.999989 
0.00229256 -0.00287907 0.999993 
0.0021197 -0.00264276 0.999994 
0.00212128 -0.00277262 0.999994 
0.00219938 -0.00258641 0.999994 
0.00228267 -0.00201008 0.999995 
0.00242055 -0.00120193 0.999997 
0.00255316 -0.000375758 0.999997 
0.00269117 0.000410354 0.999997 
0.00274123 0.0011412 0.999996 
0.00284563 0.00178309 0.999995 
0.00286619 0.00240051 0.999993 
0.00283019 0.00308009 0.999991 
0.00281786 0.00385848 0.999989 
0.00273551 0.0049176 0.999984 
0.00265729 0.00642378 0.999976 
0.00257118 0.00869822 0.999959 
0.00245095 0.0120119 0.999925 
0.00231859 0.0167014 0.999858 
0.00218647 0.0241565 0.999706 
0.0019774 0.034553 0.999401 
0.00198817 0.0502188 0.998736 
0.00186505 0.0712914 0.997454 
0.00192 0.10318 0.994661 
0.00178403 0.143669 0.989624 
0.00162896 0.223107 0.974793 
0.00123627 0.297707 0.954657 
0.00100113 0.398293 0.917258 
0.000533612 0.540197 0.841539 
0.000383907 0.636634 0.771166 
0.000615191 0.79343 0.608661 
0.00451082 0.800432 0.599405 
0.00213652 0.923539 0.383496 
0.00640598 0.911598 0.41103 
-0.00219703 0.881434 -0.472293 
-0.0010489 0.80257 -0.596557 
-0.000693649 0.615071 -0.788471 
-0.00223092 0.691879 -0.722009 
-0.001856 0.555172 -0.831734 
-0.0022355 0.359741 -0.93305 
-0.00244484 0.265129 -0.96421 
-0.00225358 0.170666 -0.985327 
-0.00233354 0.127493 -0.991837 
-0.00202995 0.0934226 -0.995625 
-0.00209396 0.0649975 -0.997883 
-0.0020109 0.045149 -0.998978 
-0.00198236 0.0313417 -0.999507 
-0.00215862 0.0216144 -0.999764 
-0.00236462 0.015267 -0.999881 
-0.0024264 0.0109927 -0.999937 
-0.00254995 0.0080854 -0.999964 
-0.00260081 0.00615434 -0.999978 
-0.00275875 0.00472545 -0.999985 
-0.00273929 0.0037256 -0.99999 
-0.00284434 0.00287877 -0.999992 
-0.00282299 0.00220794 -0.999994 
-0.00284987 0.00154648 -0.999995 
-0.00270842 0.00086419 -0.999996 
-0.0026643 0.00015785 -0.999997 
-0.00243004 -0.000644789 -0.999997 
-0.00239051 -0.00143216 -0.999996 
-0.00211912 -0.00215674 -0.999996 
-0.00200213 -0.00270693 -0.999995 
-0.00217845 -0.00278805 -0.999994 
-0.00211366 -0.00266262 -0.999994 
-0.00214307 -0.00296225 -0.999993 
-0.00273929 -0.00452789 -0.999986 
-0.00284939 -0.00731831 -0.999969 
-0.00358172 -0.0119913 -0.999922 
-0.00340927 -0.0178225 -0.999836 
-0.00327908 -0.0212253 -0.99977 
-0.00316985 -0.0167773 -0.999854 
0.000276652 -0.00103482 -1 
-0.000248723 -0.000912004 1 
0.00211962 -0.0165135 0.999862 
0.00248871 -0.0212175 0.999772 
0.0021824 -0.017639 0.999842 
0.00201138 -0.011529 0.999932 
0.0016841 -0.00679193 0.999976 
0.00149763 -0.00418778 0.99999 
0.00138775 -0.00290516 0.999995 
0.00135902 -0.00270874 0.999996 
0.00143807 -0.00292572 0.999995 
0.00158191 -0.00282541 0.999995 
0.00170645 -0.00227051 0.999996 
0.00184838 -0.0014614 0.999997 
0.00198802 -0.000591213 0.999998 
0.0021161 0.000243496 0.999998 
0.00220448 0.00101308 0.999997 
0.00226167 0.00174109 0.999996 
0.00228025 0.00238777 0.999995 
0.00228027 0.00303548 0.999993 
0.00226961 0.00380401 0.99999 
0.00224921 0.00474138 0.999986 
0.00220364 0.00612258 0.999979 
0.00212497 0.00819496 0.999964 
0.00199067 0.0113301 0.999934 
0.00179599 0.0157934 0.999874 
0.00161318 0.0224601 0.999747 
0.00135391 0.0323187 0.999477 
0.001235 0.0467305 0.998907 
0.00118125 0.0664761 0.997788 
0.0013974 0.0949675 0.99548 
0.00162657 0.136829 0.990593 
0.00180787 0.191207 0.981548 
0.00164672 0.295208 0.955432 
0.00127837 0.406618 0.913597 
0.000894277 0.511036 0.859559 
0.000770428 0.684439 0.72907 
0.00341427 0.738493 0.674251 
0.00889935 0.990859 0.134612 
0.00747822 0.996214 0.0866072 
0.00397211 0.99989 0.0142507 
-0.00124498 0.997087 -0.076244 
-0.00380054 0.993357 -0.115006 
-0.000772707 0.728044 -0.68553 
-0.00122194 0.682396 -0.730981 
-0.00174448 0.502191 -0.864755 
-0.00219142 0.464671 -0.885481 
-0.00232949 0.331164 -0.94357 
-0.00250609 0.197947 -0.98021 
-0.00224236 0.146902 -0.989149 
-0.00176339 0.107596 -0.994193 
-0.00139277 0.0724019 -0.997375 
-0.00128261 0.0509804 -0.998699 
-0.00131007 0.0351738 -0.999381 
-0.0015062 0.0238734 -0.999714 
-0.00173063 0.0164638 -0.999863 
-0.00189518 0.0117637 -0.999929 
-0.00203513 0.00851724 -0.999962 
-0.00211875 0.00642163 -0.999977 
-0.00219861 0.00502452 -0.999985 
-0.00221322 0.00398738 -0.99999 
-0.00226901 0.00317121 -0.999993 
-0.00225643 0.0024522 -0.999995 
-0.00227639 0.00178133 -0.999996 
-0.0022264 0.00107479 -0.999997 
-0.00214249 0.000286028 -0.999998 
-0.00201766 -0.000507253 -0.999998 
-0.00186877 -0.00140952 -0.999997 
-0.00170522 -0.00226358 -0.999996 
-0.00154184 -0.00282913 -0.999995 
-0.00144282 -0.00290352 -0.999995 