# vtk DataFile Version 3.0 
Exported using Morpho https://github.com/Morpho-lang/morpho 
ASCII 
DATASET UNSTRUCTURED_GRID 

POINTS 1978 float 
-12 -4 8.17819e-10 
-11.6177 -4.00001 -2.20243e-08 
-11.3237 -4 -2.04385e-08 
-10.9804 -4.00001 -1.89323e-08 
-10.6589 -4.00001 -2.20013e-08 
-10.3067 -4.00001 -7.71832e-09 
-9.98688 -4.00001 -4.924e-09 
-9.65497 -4.00001 -3.17217e-09 
-9.31219 -4.00001 -2.45558e-09 
-8.99341 -4.00001 -2.19331e-09 
-8.6893 -4.00001 -2.81424e-09 
-8.38148 -4.00001 -2.71513e-09 
-8.07945 -4.00001 -1.68423e-09 
-7.77432 -4.00001 1.68147e-09 
-7.48142 -4 4.04171e-10 
-7.17698 -4.00001 9.45588e-10 
-6.88589 -4.00001 2.17983e-09 
-6.5877 -4.00001 7.82934e-10 
-6.28439 -4.00001 2.5759e-09 
-5.97929 -4.00001 3.1277e-09 
-5.67065 -4.00001 4.63957e-09 
-5.36709 -4.00001 5.67025e-09 
-5.07 -4.00001 7.32533e-09 
-4.77865 -4.00001 1.30473e-08 
-4.47438 -4.00001 1.57211e-08 
-4.18374 -4.00001 1.61439e-08 
-3.90102 -4.00001 2.90899e-08 
-3.58653 -4.00001 3.99188e-08 
-3.28434 -4.00001 4.92797e-08 
-2.99203 -4.00002 4.7332e-08 
-2.68402 -4 5.17901e-08 
-2.46546 -4.00001 1.87246e-08 
-2.21213 -4.00001 2.01443e-08 
-1.95704 -4.00001 -1.83616e-08 
-1.71376 -4 -5.32354e-08 
-1.45596 -3.99998 1.23673e-07 
-1.2009 -3.99997 2.18092e-06 
-0.916176 -3.99994 -1.51915e-07 
-0.629064 -3.99982 -3.45834e-06 
-0.0593397 -3.99968 -1.60871e-06 
0.48178 -3.99979 -1.69352e-06 
0.829041 -3.99991 -2.68057e-06 
1.14249 -3.99993 -3.00764e-06 
1.46541 -4 8.1105e-08 
1.6915 -4 -2.04045e-08 
1.91961 -4.00001 -3.88751e-08 
2.16287 -4 -1.65574e-08 
2.43743 -4.00003 -9.08486e-08 
2.71584 -4 -2.33797e-08 
2.99085 -4.00001 -5.59492e-08 
3.29637 -4.00001 -4.5519e-08 
3.57994 -4.00001 -3.51021e-08 
3.87697 -4.00001 -2.95328e-08 
4.19516 -4.00001 -2.25815e-08 
4.48998 -4.00001 -1.26934e-08 
4.78718 -4.00001 -1.23747e-08 
5.09098 -4.00001 -9.24374e-09 
5.39549 -4.00001 -6.02346e-09 
5.70728 -4.00001 -4.20383e-09 
6.00455 -4.00001 -3.39013e-09 
6.3038 -4.00001 -2.53813e-09 
6.58561 -4.00001 -1.97517e-09 
6.89009 -4.00001 5.9292e-11 
7.17462 -4.00001 -1.39386e-09 
7.47219 -4.00001 1.8811e-10 
7.77163 -4.00001 -6.89177e-10 
8.07013 -4.00001 8.11806e-10 
8.35891 -4.00001 6.92101e-10 
8.65649 -4.00001 2.57605e-09 
8.9412 -4.00001 2.77195e-09 
9.28138 -4.00001 4.84405e-09 
9.61398 -4.00001 2.14086e-09 
9.91039 -4.00001 2.72958e-09 
10.278 -4.00001 1.10346e-08 
10.5992 -4.00001 2.12322e-08 
10.9898 -4.00001 2.1315e-08 
11.3102 -4 1.98638e-08 
11.6001 -4.00001 2.07117e-08 
12 -4 -7.28514e-10 
-12 -3.62208 3.22115e-08 
-11.7111 -3.71111 -9.87422e-11 
-11.3667 -3.62384 5.01729e-09 
-11.0589 -3.67716 3.25002e-09 
-10.719 -3.65683 -1.94337e-09 
-10.3975 -3.69021 8.11372e-11 
-10.0552 -3.66367 -4.06171e-11 
-9.72934 -3.67787 2.69117e-10 
-9.38864 -3.69025 4.51289e-10 
-9.04947 -3.67343 2.48102e-10 
-8.73516 -3.66212 -9.13665e-11 
-8.42538 -3.66985 -1.02785e-10 
-8.11575 -3.66615 -3.19493e-10 
-7.81072 -3.67195 5.98512e-11 
-7.50882 -3.65987 -4.86666e-11 
-7.20712 -3.67487 3.58131e-11 
-6.89663 -3.66197 -9.07607e-11 
-6.59312 -3.66687 6.5223e-10 
-6.28167 -3.66966 9.95499e-11 
-5.9695 -3.6719 -4.35366e-11 
-5.65942 -3.66939 3.24408e-10 
-5.3551 -3.66713 7.78959e-10 
-5.05465 -3.66762 1.30544e-09 
-4.73809 -3.69038 4.02452e-10 
-4.43187 -3.67734 1.62789e-09 
-4.13222 -3.66994 5.75795e-09 
-3.81451 -3.70035 4.80737e-10 
-3.49738 -3.68824 7.42583e-09 
-3.18971 -3.6885 9.64645e-09 
-2.88987 -3.71393 1.11221e-08 
-2.64795 -3.59701 2.73351e-08 
-2.39456 -3.67367 1.72074e-08 
-2.13366 -3.687 7.75321e-10 
-1.87768 -3.66353 1.26349e-08 
-1.61312 -3.66441 3.98942e-08 
-1.33754 -3.62746 -4.56694e-08 
-1.04182 -3.62111 3.6339e-07 
-0.73207 -3.55007 -5.32945e-07 
-0.363841 -3.71571 2.74778e-07 
0.0242591 -3.49138 -2.21629e-06 
0.348018 -3.6917 7.50536e-06 
0.798923 -3.61508 -3.45077e-07 
1.10088 -3.55746 3.54384e-07 
1.37574 -3.69699 1.77864e-07 
1.65248 -3.62336 -7.16344e-08 
1.89387 -3.65777 1.53558e-08 
2.15058 -3.68896 -3.11674e-08 
2.43569 -3.72587 6.74917e-10 
2.72799 -3.69168 -2.4442e-08 
3.03033 -3.7 -8.49149e-09 
3.31974 -3.66471 -1.03746e-08 
3.61831 -3.67713 -5.57136e-09 
3.93456 -3.69769 -2.03826e-09 
4.23438 -3.67131 -3.36369e-09 
4.53257 -3.67239 -2.21971e-09 
4.83607 -3.67657 -1.1441e-09 
5.14109 -3.67313 -7.23848e-10 
5.4545 -3.67877 -4.02063e-10 
5.75623 -3.66229 -5.41333e-10 
6.05988 -3.66431 -4.95125e-10 
6.34869 -3.64418 -4.19025e-10 
6.65339 -3.6744 -2.85841e-11 
6.94872 -3.65436 -1.24242e-10 
7.24764 -3.6706 -9.61909e-11 
7.54891 -3.67167 5.14555e-11 
7.84773 -3.66779 1.98333e-11 
8.14302 -3.65449 5.34697e-11 
8.43793 -3.66448 1.26075e-10 
8.72991 -3.64485 5.07392e-10 
9.05229 -3.69925 -4.11949e-10 
9.38687 -3.68733 -4.42803e-10 
9.69709 -3.64318 6.11905e-10 
10.0362 -3.71008 -1.05455e-09 
10.37 -3.66315 1.60081e-09 
10.7336 -3.72024 -1.29971e-09 
11.0664 -3.65607 -2.39304e-09 
11.3668 -3.61934 -3.55883e-09 
11.7127 -3.72306 -9.09459e-10 
12 -3.61804 -3.32662e-08 
-12 -3.32828 2.33785e-08 
-11.6272 -3.36276 -9.72874e-09 
-11.28 -3.28346 -8.17893e-10 
-10.971 -3.34079 -5.0657e-09 
-10.6567 -3.31201 -8.78811e-09 
-10.3424 -3.35991 -6.21727e-09 
-10.0266 -3.32121 -4.03484e-09 
-9.71402 -3.3448 -3.1257e-09 
-9.39697 -3.37519 -2.32024e-09 
-9.08735 -3.33809 -1.69859e-09 
-8.77735 -3.32713 -1.05389e-09 
-8.46876 -3.3382 -7.71493e-10 
-8.15983 -3.33741 -7.21242e-10 
-7.85044 -3.33974 -3.99462e-10 
-7.5503 -3.32242 5.62278e-11 
-7.25093 -3.33987 4.85689e-10 
-6.94933 -3.33755 8.97105e-10 
-6.63923 -3.3353 1.14505e-09 
-6.32934 -3.34694 1.60068e-09 
-6.01374 -3.34432 2.27081e-09 
-5.70541 -3.34074 3.04656e-09 
-5.40083 -3.33489 3.91154e-09 
-5.10375 -3.33308 5.32731e-09 
-4.80763 -3.37157 7.6894e-09 
-4.50869 -3.36153 1.03095e-08 
-4.20452 -3.35045 1.26051e-08 
-3.89054 -3.38687 1.71547e-08 
-3.57639 -3.38503 2.17121e-08 
-3.25645 -3.37908 2.58978e-08 
-2.95147 -3.39044 2.23583e-08 
-2.66451 -3.26814 1.95832e-08 
-2.39234 -3.3367 6.53763e-09 
-2.1322 -3.36498 2.33116e-08 
-1.86739 -3.33353 1.9541e-08 
-1.59884 -3.31869 7.07774e-08 
-1.30707 -3.27028 3.86765e-07 
-1.03339 -3.21062 6.40178e-07 
-0.699052 -3.12186 1.26675e-06 
-0.362076 -3.2649 3.84311e-07 
0.0483202 -2.98844 4.7988e-07 
0.434763 -3.18518 -2.65178e-06 
0.760788 -3.25716 2.76001e-06 
1.06068 -3.11575 1.58137e-07 
1.36274 -3.32853 -3.93152e-07 
1.63228 -3.26024 -4.06334e-08 
1.89504 -3.29218 1.90792e-08 
2.13177 -3.36347 -9.86361e-09 
2.40249 -3.4471 -1.6446e-08 
2.67731 -3.38527 -1.39036e-08 
2.97105 -3.39091 -2.19746e-08 
3.26607 -3.34277 -2.60474e-08 
3.57323 -3.35038 -2.10286e-08 
3.87622 -3.38486 -1.82206e-08 
4.1793 -3.34995 -1.37471e-08 
4.4834 -3.34292 -9.75356e-09 
4.77996 -3.34984 -7.30204e-09 
5.07913 -3.34662 -5.50511e-09 
5.38567 -3.35806 -4.21156e-09 
5.69357 -3.33214 -3.07991e-09 
6.00016 -3.33465 -2.23157e-09 
6.30424 -3.29995 -1.71555e-09 
6.60824 -3.34287 -1.28339e-09 
6.91227 -3.32174 -8.66713e-10 
7.21874 -3.3393 -4.98182e-10 
7.52278 -3.34372 -3.07517e-11 
7.82765 -3.33554 3.34198e-10 
8.12891 -3.32096 6.08994e-10 
8.43604 -3.32209 8.64149e-10 
8.75376 -3.32613 1.16791e-09 
9.07494 -3.38544 1.64777e-09 
9.38886 -3.35124 2.33436e-09 
9.70354 -3.30307 3.05523e-09 
10.0175 -3.39059 3.78281e-09 
10.3166 -3.31217 6.46321e-09 
10.6394 -3.40519 8.12989e-09 
10.9687 -3.34235 6.02566e-09 
11.2952 -3.26637 1.45977e-10 
11.6329 -3.37558 9.64081e-09 
12 -3.31789 -2.64024e-08 
-12 -3.00774 2.08575e-08 
-11.6551 -3.05404 -7.73996e-09 
-11.3127 -2.96901 3.71211e-09 
-10.9621 -2.98646 -5.3258e-10 
-10.6293 -2.9799 -4.06281e-09 
-10.2996 -3.0141 -3.62772e-09 
-9.97228 -2.98514 -1.58952e-09 
-9.65726 -3.01082 -1.72662e-09 
-9.35189 -3.0272 -1.20657e-09 
-9.0426 -2.99598 -3.67557e-10 
-8.73394 -2.98999 -1.03506e-10 
-8.43014 -3.00583 -1.05746e-10 
-8.11893 -3.01056 -1.41985e-10 
-7.8232 -2.99968 -1.26644e-10 
-7.52126 -2.98499 -3.87683e-11 
-7.22183 -3.00543 9.10002e-11 
-6.91787 -3.00834 1.87548e-10 
-6.60702 -3.01054 3.53973e-10 
-6.29638 -3.02504 7.53398e-10 
-5.99187 -3.01348 9.40848e-10 
-5.68679 -3.01107 1.16463e-09 
-5.38851 -3.00107 1.41119e-09 
-5.09066 -3.0016 1.78325e-09 
-4.79576 -3.04122 3.04992e-09 
-4.49337 -3.03789 4.11749e-09 
-4.19038 -3.02659 5.426e-09 
-3.89123 -3.07166 9.08683e-09 
-3.57662 -3.0752 1.11366e-08 
-3.26307 -3.0706 1.28696e-08 
-2.94271 -3.07134 1.81992e-08 
-2.6639 -2.90906 -2.43178e-09 
-2.39649 -2.99018 3.26503e-08 
-2.13702 -3.03619 -4.68634e-08 
-1.86585 -2.9906 -5.55529e-08 
-1.57957 -2.9766 1.65971e-07 
-1.33348 -2.84924 -8.67213e-07 
-1.01967 -2.79704 -8.27996e-07 
-0.658653 -2.66142 -3.90032e-06 
-0.306538 -2.73971 1.60708e-06 
0.0270658 -2.30766 -1.06446e-05 
0.381488 -2.6255 -5.16591e-06 
0.733643 -2.75008 2.99288e-06 
1.0107 -2.624 -1.76457e-06 
1.34423 -2.93216 -1.79737e-07 
1.63918 -2.8686 2.07372e-07 
1.86803 -2.94296 4.75142e-09 
2.14158 -3.00863 6.15118e-09 
2.38095 -3.1409 -8.18834e-09 
2.64857 -3.06525 3.29277e-10 
2.9357 -3.07245 -2.01283e-08 
3.22809 -3.01764 -1.17164e-08 
3.54119 -3.03528 -1.04612e-08 
3.8649 -3.05906 -9.34166e-09 
4.17017 -3.02516 -5.75437e-09 
4.47559 -3.02166 -4.09648e-09 
4.78521 -3.01949 -2.89969e-09 
5.08468 -3.01527 -2.00826e-09 
5.38349 -3.03368 -1.71903e-09 
5.68397 -3.00144 -1.05839e-09 
5.98858 -3.0052 -7.86267e-10 
6.29501 -2.96994 -4.10936e-10 
6.60238 -3.01006 -4.37952e-10 
6.91542 -2.99829 -2.18407e-10 
7.22655 -3.01049 -1.04327e-10 
7.53088 -3.01397 4.99024e-11 
7.83548 -3.00257 1.57273e-10 
8.13442 -2.98899 1.75153e-10 
8.44177 -2.99846 1.20294e-10 
8.73976 -2.98188 -3.19378e-11 
9.04354 -3.05585 5.37903e-10 
9.35387 -3.01963 1.05552e-09 
9.65689 -2.96167 1.40526e-09 
9.98629 -3.03825 2.35737e-09 
10.3252 -2.98678 2.78782e-09 
10.6578 -3.07002 5.50689e-09 
10.9883 -3.00193 4.35345e-10 
11.3356 -2.9438 -4.31265e-09 
11.6633 -3.06269 7.31397e-09 
12 -2.98892 -2.18754e-08 
-12 -2.68635 2.07885e-08 
-11.6555 -2.7258 -2.10634e-09 
-11.3304 -2.63721 6.13266e-09 
-10.9928 -2.66574 2.86767e-09 
-10.6497 -2.648 -3.19044e-10 
-10.3127 -2.68006 -5.17837e-10 
-9.97705 -2.66484 -1.52869e-11 
[...]
POINT_DATA 1978 
VECTORS vectors float
0.00979512 -0.0152382 0.999841 
0.0116685 -0.0228684 0.999671 
0.0100292 -0.0210434 0.999731 
0.0106932 -0.013749 0.999849 
0.0111433 -0.00967841 0.999891 
0.0112501 -0.00736006 0.999909 
0.0113686 -0.00621172 0.999916 
0.0115068 -0.00516293 0.99992 
0.0113733 -0.00426283 0.999926 
0.0111964 -0.00336719 0.999933 
0.0112546 -0.00242423 0.999935 
0.0112426 -0.0015783 0.999937 
0.0112855 -0.000845988 0.999937 
0.0111964 -0.000288305 0.999938 
0.0112646 0.000271876 0.999938 
0.0111841 0.000845888 0.999938 
0.0110784 0.0013722 0.999939 
0.0111674 0.00205802 0.999937 
0.0112506 0.00288612 0.999931 
0.0112381 0.00385285 0.99993 
0.0111963 0.00501664 0.999926 
0.011066 0.0063458 0.99992 
0.010857 0.00809315 0.99991 
0.0107036 0.0105233 0.999889 
0.0104205 0.0141518 0.999847 
0.00976036 0.0190145 0.999774 
0.00949303 0.0257552 0.999625 
0.00896864 0.0369904 0.999278 
0.00756822 0.0529091 0.998574 
0.00616711 0.0751333 0.997159 
0.00411335 0.106451 0.994314 
0.0017468 0.136106 0.990698 
-0.000498877 0.180663 0.98355 
-0.00354453 0.238411 0.971161 
-0.00765529 0.310457 0.950558 
-0.0113648 0.407483 0.913141 
-0.0147524 0.518895 0.854703 
-0.0176442 0.65936 0.751605 
-0.0174814 0.805395 0.592432 
-0.00336011 0.997031 0.0766507 
0.0157953 0.884537 -0.466149 
0.0181329 0.711232 -0.702684 
0.0160714 0.553723 -0.832525 
0.0131206 0.405647 -0.913929 
0.0069907 0.320554 -0.947207 
0.00367764 0.252421 -0.967614 
0.000541035 0.195664 -0.980675 
-0.00152535 0.145847 -0.989309 
-0.00376229 0.104659 -0.994506 
-0.00601069 0.0756031 -0.997124 
-0.00756125 0.0524141 -0.9986 
-0.00862587 0.0373609 -0.999268 
-0.00966622 0.0267383 -0.999598 
-0.0101981 0.0189835 -0.99977 
-0.0104544 0.013927 -0.99985 
-0.0107629 0.0104674 -0.999889 
-0.0109867 0.0080252 -0.999909 
-0.0111633 0.00623466 -0.999919 
-0.0111748 0.00480296 -0.999927 
-0.0111328 0.00371772 -0.999933 
-0.0110154 0.00280073 -0.999937 
-0.0110724 0.00207942 -0.999938 
-0.0111605 0.00140549 -0.999938 
-0.0110567 0.00078479 -0.99994 
-0.0112514 0.000267749 -0.999938 
-0.0112566 -0.000290861 -0.999938 
-0.011158 -0.000896892 -0.999939 
-0.0111306 -0.00149018 -0.999938 
-0.0110118 -0.0022316 -0.999939 
-0.0111045 -0.00310371 -0.999934 
-0.0115515 -0.00411934 -0.999924 
-0.0112432 -0.0051898 -0.999924 
-0.0113486 -0.00598877 -0.999917 
-0.0113165 -0.00709033 -0.99991 
-0.0108331 -0.00925787 -0.999897 
-0.0107533 -0.0138706 -0.999846 
-0.00981377 -0.0206883 -0.999741 
-0.0116552 -0.0227698 -0.999673 
-0.00976895 -0.0151277 -0.999842 
0.00902048 -0.0161363 0.999831 
0.00997908 -0.0172812 0.999808 
0.0114171 -0.0194437 0.999758 
0.0118251 -0.0161741 0.999812 
0.0126569 -0.0112141 0.999869 
0.0125203 -0.00809488 0.9999 
0.0129813 -0.006327 0.999909 
0.0129408 -0.00510333 0.999915 
0.012757 -0.00411254 0.99992 
0.0128236 -0.00325745 0.999926 
0.013216 -0.00251235 0.999921 
0.0132907 -0.00172679 0.999921 
0.0133997 -0.000969109 0.99992 
0.0133418 -0.000346008 0.999921 
0.013571 0.000224815 0.999918 
0.0133562 0.00079629 0.999921 
0.0135353 0.00137664 0.999918 
0.0134054 0.00202925 0.999919 
0.0131973 0.0028397 0.999922 
0.0131621 0.00383697 0.999917 
0.0132181 0.00500219 0.999911 
0.0131734 0.00643322 0.999903 
0.0129753 0.00835848 0.999891 
0.0123614 0.0112514 0.99987 
0.0122589 0.0154119 0.999816 
0.011945 0.0211931 0.999715 
0.0105165 0.0300298 0.999505 
0.00973305 0.0434123 0.999021 
0.00804788 0.0621306 0.998047 
0.00572162 0.0876802 0.996142 
0.00348946 0.117243 0.993111 
4.40299e-06 0.15419 0.988053 
-0.00387071 0.203927 0.978987 
-0.00805754 0.266351 0.963851 
-0.0118844 0.350082 0.93665 
-0.0148155 0.4596 0.888003 
-0.0149598 0.597949 0.801387 
-0.0144321 0.756585 0.653709 
-0.00891526 0.92634 0.376504 
-0.000795689 0.999838 -0.0154608 
0.0062153 0.93934 -0.342826 
0.0126246 0.725642 -0.687938 
0.015337 0.574635 -0.818259 
0.0127454 0.451207 -0.89233 
0.011059 0.343363 -0.939145 
0.0082692 0.26805 -0.963378 
0.00364796 0.203763 -0.979024 
-0.000404628 0.14842 -0.988935 
-0.00403393 0.10687 -0.994278 
-0.00680038 0.0755607 -0.99713 
-0.00897615 0.0541156 -0.998506 
-0.0101989 0.0380023 -0.999237 
-0.0109932 0.0263284 -0.999604 
-0.0119929 0.0189864 -0.999758 
-0.0125052 0.0139383 -0.999835 
-0.0126968 0.0103588 -0.999876 
-0.0129378 0.00782044 -0.999896 
-0.0130466 0.00593642 -0.999908 
-0.0133435 0.00456262 -0.999911 
-0.0134699 0.00349027 -0.999914 
-0.0137093 0.00267052 -0.999913 
-0.0133913 0.001941 -0.999919 
-0.0138428 0.00129146 -0.999914 
-0.0135866 0.000694159 -0.999918 
-0.013621 0.00014281 -0.999917 
-0.0136676 -0.000457047 -0.999917 
-0.0137026 -0.00108319 -0.999916 
-0.0136008 -0.00173608 -0.999914 
-0.0135707 -0.00241377 -0.999918 
-0.0127053 -0.00323428 -0.999923 
-0.0128401 -0.00410137 -0.999921 
-0.0134237 -0.0049514 -0.999911 
-0.0124931 -0.00620888 -0.999912 
-0.0129036 -0.00785432 -0.9999 
-0.0117515 -0.0111733 -0.999881 
-0.0121552 -0.016381 -0.999805 
-0.0116565 -0.0193875 -0.999756 
-0.00987534 -0.0172495 -0.99981 
-0.00898384 -0.0161262 -0.999831 
0.00780506 -0.015224 0.999861 
0.0113913 -0.017035 0.999798 
0.0133722 -0.020015 0.999727 
0.014592 -0.0161895 0.999774 
0.0153938 -0.0111539 0.999836 
0.0157021 -0.0079026 0.999857 
0.0158021 -0.00598379 0.999869 
0.0156097 -0.00462644 0.999881 
0.0153541 -0.00375592 0.999891 
0.0154332 -0.0031627 0.999887 
0.0153295 -0.00259747 0.999893 
0.0154618 -0.00191911 0.999892 
0.0157113 -0.00115573 0.999889 
0.015815 -0.000449388 0.999888 
0.0158976 0.000152879 0.999887 
0.0159093 0.00072561 0.999886 
0.01596 0.00132176 0.999885 
0.0157879 0.00199439 0.999886 
0.0156603 0.00274444 0.999887 
0.0156043 0.00365841 0.999885 
0.0155357 0.00478343 0.999881 
0.0153683 0.00622861 0.999875 
0.0152091 0.00814095 0.999866 
0.0152132 0.0108615 0.999836 
0.0147395 0.0147291 0.999796 
0.0139648 0.0204705 0.999708 
0.0132064 0.0290914 0.9995 
0.0119208 0.0417247 0.999071 
0.00998277 0.0605929 0.998127 
0.00739024 0.0861163 0.99627 
0.00396091 0.12056 0.992711 
-2.27094e-05 0.160475 0.987052 
-0.0045096 0.210536 0.977586 
-0.00930099 0.276919 0.960859 
-0.0134735 0.361747 0.932189 
-0.0159252 0.476511 0.879031 
-0.0156693 0.604092 0.796762 
-0.01282 0.774592 0.63231 
-0.00909395 0.927061 0.374713 
-0.000913399 0.999082 -0.0416196 
0.00715396 0.905796 -0.423576 
0.0122071 0.749356 -0.662038 
0.0126727 0.595923 -0.802943 
0.0149923 0.454776 -0.890488 
0.0119379 0.353716 -0.935287 
0.00843457 0.273582 -0.961822 
0.00456727 0.214388 -0.976748 
1.34621e-05 0.159317 -0.987238 
-0.00413041 0.119248 -0.992868 
-0.00758306 0.0858939 -0.996286 
-0.00995528 0.0613769 -0.99808 
-0.0117989 0.0427115 -0.999031 
-0.0131951 0.0297902 -0.99948 
-0.0139279 0.0211469 -0.999694 
-0.0145251 0.0153214 -0.99979 
-0.0149874 0.0113681 -0.999834 
-0.0151533 0.00845551 -0.999864 
-0.015438 0.00637805 -0.999871 
-0.0154338 0.00483409 -0.999884 
-0.0156458 0.00372004 -0.999882 
-0.0155899 0.00280614 -0.99989 
-0.0159365 0.00207532 -0.999882 
-0.0158858 0.00140522 -0.999888 
-0.0159973 0.000794388 -0.999885 
-0.0161136 0.000217115 -0.999881 
-0.0159402 -0.000413032 -0.999886 
-0.0157255 -0.00109337 -0.999891 
-0.0155907 -0.00180951 -0.99989 
-0.0155181 -0.00250964 -0.99989 
-0.0154809 -0.00315349 -0.999888 
-0.015444 -0.00372485 -0.999887 
-0.015518 -0.0045147 -0.999883 
-0.0156224 -0.00591208 -0.999874 
-0.0157756 -0.00764513 -0.99986 
-0.0153947 -0.0108563 -0.999833 
-0.0146638 -0.0160316 -0.999778 
-0.013196 -0.0200067 -0.999729 
-0.0114156 -0.0170539 -0.999797 
-0.00767556 -0.01514 -0.999862 
0.00517678 -0.0157349 0.999868 
0.00965468 -0.0172364 0.999813 
0.0109248 -0.0210427 0.999733 
0.0121099 -0.0169659 0.9998 
0.0126147 -0.0112298 0.99987 
0.0131156 -0.00748041 0.999901 
0.0125367 -0.00530397 0.999924 
0.0126663 -0.0039296 0.999924 
0.0125132 -0.00323373 0.999931 
0.0119464 -0.00289409 0.999938 
0.0118456 -0.00249387 0.99994 
0.0120935 -0.00188353 0.999939 
0.0122132 -0.00112429 0.999938 
0.0121268 -0.000418286 0.99994 
0.0119757 0.000236104 0.999942 
0.0123372 0.000841052 0.999937 
0.0124048 0.0014539 0.999936 
0.0124243 0.00210393 0.999934 
0.0126176 0.00281714 0.99993 
0.012339 0.0036811 0.999931 
0.0121762 0.00482409 0.999928 
0.0118597 0.00631791 0.999923 
0.0116477 0.00838067 0.999908 
0.011872 0.0112008 0.999882 
0.0115324 0.0155023 0.999826 
0.0109548 0.0217269 0.999715 
0.0107809 0.0301614 0.999502 
0.00982616 0.0436276 0.999013 
0.00841972 0.0630442 0.997987 
0.00616719 0.0902415 0.995916 
0.0030259 0.12501 0.992162 
0.000435006 0.164129 0.986453 
-0.00283272 0.214304 0.976774 
-0.00597189 0.281672 0.959504 
-0.00922807 0.373035 0.92778 
-0.00904728 0.46501 0.88527 
-0.00927553 0.611268 0.791369 
-0.00634024 0.795503 0.60589 
-0.004547 0.945398 0.325759 
-0.000800995 0.999768 -0.0181728 
0.00169972 0.92514 -0.379523 
0.00549068 0.762954 -0.646405 
0.00482502 0.618201 -0.786002 
0.00921825 0.462028 -0.886828 
0.00624205 0.3543 -0.935121 
0.00504274 0.28558 -0.958353 
0.00223326 0.21736 -0.9761 
-0.000144803 0.168828 -0.985657 
-0.00335492 0.12762 -0.991828 
-0.00612164 0.0923143 -0.995726 
-0.00780267 0.0672074 -0.99772 
-0.00927975 0.0465954 -0.998884 
-0.0105401 0.0315541 -0.999462 
-0.010851 0.022359 -0.999703 
-0.011259 0.0159504 -0.999823 
-0.0115716 0.0115281 -0.999882 
-0.0118153 0.00857936 -0.999905 
-0.0122209 0.00640443 -0.99992 
-0.0119834 0.0048927 -0.999927 
-0.0120728 0.00372124 -0.999936 
-0.011696 0.00283932 -0.999941 
-0.0124 0.00211133 -0.999935 
-0.0122857 0.00145255 -0.999935 
-0.0124337 0.000827343 -0.999936 
-0.0123844 0.000222592 -0.999939 
-0.0121536 -0.000431375 -0.99994 
-0.011951 -0.00114512 -0.999939 
-0.0119728 -0.00187986 -0.999942 
-0.0116702 -0.00250524 -0.999943 
-0.0127704 -0.00294034 -0.999928 
-0.0124024 -0.00326859 -0.999932 
-0.0118839 -0.00383993 -0.999936 
-0.0132953 -0.00541538 -0.999912 
-0.0126847 -0.00766882 -0.999905 
-0.0136501 -0.0115198 -0.999855 
-0.0123338 -0.0173676 -0.999788 
-0.0106312 -0.0212061 -0.999732 
-0.00961663 -0.0171073 -0.999815 
-0.0051387 -0.0160152 -0.999862 
0.00347484 -0.0156476 0.999872 
0.00687062 -0.0179593 0.999823 
0.00749967 -0.0219903 0.999744 
0.00826412 -0.0179392 0.99982 
0.00814083 -0.011555 0.999915 
0.00838001 -0.00735074 0.999955 
0.00792767 -0.00494235 0.999969 
0.00747235 -0.00336667 0.999983 
0.00737338 -0.00286499 0.999983 
0.0069424 -0.00275943 0.999986 
0.00684131 -0.0024478 0.999987 
0.00726791 -0.00180853 0.999986 
0.00707827 -0.00106702 0.999988 
0.00715771 -0.000308923 0.999988 
0.00707538 0.000394905 0.999989 
0.00740796 0.00102312 0.999986 
0.00764004 0.00165437 0.999983 
0.00771262 0.0023111 0.999981 
0.00766658 0.00301374 0.99998 
0.00745662 0.00390849 0.999978 
0.007224 0.00507187 0.999974 
0.00701618 0.00666642 0.999966 
0.00686854 0.00893391 0.99995 
0.00709091 0.0121455 0.999914 
0.00677548 0.0168493 0.999848 
0.00638719 0.0235714 0.999715 
0.00657379 0.0333749 0.999435 
0.00603922 0.0477223 0.998856 
0.00536603 0.0694285 0.997586 
0.00388882 0.0960036 0.995387 
0.00184154 0.142512 0.989805 
0.00038193 0.185445 0.982666 
-0.00152518 0.233027 0.972483 
-0.00322519 0.31415 0.949379 
-0.00355441 0.408267 0.912866 
-0.0039059 0.541887 0.840448 
-0.0029362 0.716029 0.698052 
0.000238525 0.788573 0.614915 
-0.00130924 0.911006 0.412284 
-0.000215205 0.982408 0.186359 
-0.001249 0.972335 -0.233306 
-0.000236946 0.829703 -0.558151 
-0.000971756 0.682762 -0.730629 
0.00297105 0.478735 -0.877955 
0.00194322 0.375984 -0.926636 
0.000185887 0.277076 -0.960863 
0.000774384 0.229623 -0.973289 
-0.00115928 0.167105 -0.985951 
-0.00289849 0.125041 -0.992163 
-0.00428567 0.0927428 -0.995695 
-0.00516368 0.0646195 -0.997911 
-0.00601956 0.0440957 -0.999023 
-0.00635377 0.0308169 -0.999519 
-0.00644582 0.0215311 -0.999761 
-0.00680067 0.0152546 -0.999874 
-0.00687604 0.0111275 -0.999928 
-0.00705146 0.00821608 -0.999955 
-0.00737926 0.00619805 -0.999967 
-0.00723362 0.00467631 -0.999976 
-0.00732054 0.00359043 -0.99998 
-0.00701969 0.00276244 -0.999983 
-0.00756326 0.00205693 -0.999985 
-0.00745122 0.00141608 -0.999985 
-0.0074614 0.000800771 -0.999985 
-0.00745357 0.000149317 -0.999986 
-0.00704302 -0.000524917 -0.999989 
-0.00700175 -0.00129939 -0.999988 
-0.00681091 -0.00201901 -0.999988 
-0.00649387 -0.00257773 -0.999987 
-0.00762669 -0.00281962 -0.999981 
-0.00717039 -0.00290749 -0.999984 
-0.00710478 -0.0034253 -0.999983 
-0.00857331 -0.0050973 -0.999965 
-0.00816269 -0.00749885 -0.999953 
-0.00930957 -0.0116811 -0.999903 
-0.00847245 -0.0181653 -0.999814 
-0.00734461 -0.0218449 -0.999748 
-0.00669954 -0.0172409 -0.999836 
-0.00374733 -0.0160477 -0.999868 
0.00265779 -0.0154577 0.999878 
0.00428111 -0.0168238 0.999857 
0.00484894 -0.021791 0.99976 
0.00513069 -0.0195006 0.999812 
0.0050205 -0.0131869 0.999915 
0.00487432 -0.00796819 0.999971 
0.00447524 -0.00513558 0.999991 
0.00418369 -0.00337629 1 
0.00388039 -0.00270765 1 
0.00375891 -0.00273555 1 
0.0036282 -0.00265892 1 
0.00388684 -0.00214903 1 
0.00389372 -0.00143272 1 
0.0040308 -0.000630507 1.00001 
0.00412602 0.000122294 1 
0.00417595 0.000833078 1 
0.00439229 0.00146434 1 
0.00450273 0.00208851 1 
0.00438563 0.00274462 1 
0.00439909 0.00348175 0.999997 
0.00422863 0.00443553 0.999994 
0.00410651 0.00573733 0.999988 
0.00399454 0.00759704 0.999976 
0.00395833 0.0103597 0.999952 
0.00391891 0.014206 0.999905 
0.00362304 0.0198039 0.999811 
0.00354267 0.0284236 0.999603 
0.00341964 0.0401574 0.999202 
0.00337971 0.0581409 0.998317 
0.0028344 0.0815461 0.99668 
0.00230963 0.115381 0.993333 
0.00159447 0.165944 0.986148 
0.000863592 0.216879 0.976212 
-0.000211972 0.271829 0.962358 
-0.00025354 0.351855 0.936064 
-0.000469444 0.461708 0.887042 
-0.00041894 0.613522 0.789678 
-4.0762e-05 0.759103 0.650935 
-0.000350063 0.939313 0.342934 
-0.000510698 0.992538 -0.121523 
-0.00195252 0.960159 -0.279235 
-0.00129754 0.825498 -0.564363 
-0.00268953 0.828124 -0.560491 
-9.98605e-05 0.538698 -0.842503 
-0.00152947 0.402592 -0.915389 
-0.00152244 0.305296 -0.952269 
-0.00176667 0.228582 -0.973537 
-0.00139294 0.183224 -0.983085 
-0.00248726 0.135431 -0.990795 
-0.0028573 0.0985623 -0.995141 
-0.00313762 0.0718996 -0.997421 
-0.00339944 0.0485309 -0.99883 
-0.00344044 0.0331746 -0.999458 
-0.00356183 0.0231681 -0.999739 
-0.00384069 0.0162639 -0.999874 
-0.00386515 0.0116759 -0.999938 
-0.00400286 0.00859074 -0.999968 
-0.00411423 0.00641353 -0.999984 
-0.00421996 0.00493591 -0.999992 
-0.00424755 0.00379858 -0.999997 
-0.00421273 0.00297981 -1 
-0.0043821 0.00223539 -1 
-0.00441727 0.00160432 -1 
-0.00426409 0.000942337 -1 
-0.00432282 0.000267791 -1 
-0.00393334 -0.000463401 -1.00001 
-0.00399733 -0.00123657 -1 
-0.00369853 -0.00201738 -1 
-0.00346227 -0.00256578 -1.00001 
-0.00387319 -0.00276954 -1 
-0.0038766 -0.0027145 -1 
-0.00367681 -0.00304196 -1 
-0.00472892 -0.0046002 -0.999993 
-0.00472055 -0.00719227 -0.999978 
-0.00566998 -0.0117138 -0.99993 
-0.00531923 -0.0184201 -0.999831 
-0.00474575 -0.0220423 -0.999759 
-0.00469609 -0.0179839 -0.999834 
-0.00267727 -0.0161699 -0.99987 
0.00211011 -0.0159498 0.999875 
0.00311063 -0.0176845 0.999848 
0.00349004 -0.0220313 0.999765 
0.00330412 -0.0176599 0.999853 
0.00313703 -0.0108675 0.999951 
0.00273751 -0.00648596 0.99999 
0.00242685 -0.00406728 1 
0.00222958 -0.00281248 1.00001 
0.00205943 -0.00262393 1.00001 
0.00205919 -0.00281332 1.00001 
0.00213927 -0.00263648 1.00001 
0.00222111 -0.00204119 1.00001 
0.00236354 -0.00121205 1.00001 
0.00250051 -0.000373769 1.00001 
0.00264142 0.000418693 1.00001 
0.00269202 0.00115486 1.00001 
0.00279661 0.00179735 1.00001 
0.0028189 0.002413 1.00001 
0.00278126 0.00308962 1 
0.00277155 0.00386128 1 
0.00268842 0.00491224 0.999997 
0.00260878 0.00640529 0.999989 
0.00252386 0.00866437 0.999972 
0.00240549 0.0119787 0.999938 
0.00226898 0.0166597 0.999872 
0.00214202 0.0240677 0.999722 
0.00193223 0.0344427 0.999419 
0.00194125 0.0501825 0.998753 
0.0018383 0.0711851 0.997476 
0.00193508 0.103167 0.994674 
0.00183704 0.144015 0.989591 
0.00170353 0.223587 0.974697 
0.00132034 0.297256 0.95481 
0.00113387 0.398037 0.917379 
0.000645645 0.539463 0.842018 
0.000436422 0.636646 0.771157 
0.000760262 0.789596 0.613605 
0.00452209 0.804197 0.594303 
0.00260748 0.921211 0.388996 
0.00656101 0.917057 0.398622 
-0.00265299 0.890338 -0.455088 
-0.00114784 0.800416 -0.599383 
-0.000855735 0.616492 -0.787334 
-0.0023069 0.698073 -0.716015 
-0.00203746 0.554915 -0.831906 
-0.00236076 0.358792 -0.933425 
-0.00254525 0.265382 -0.964154 
-0.00230988 0.171297 -0.985231 
-0.0023809 0.12772 -0.991822 
-0.0020271 0.0933776 -0.995644 
-0.00205918 0.0648625 -0.997907 
-0.00195812 0.0451453 -0.998993 
-0.00193507 0.031274 -0.999523 
-0.00210903 0.0215483 -0.999779 
-0.00231659 0.0152186 -0.999895 
-0.00237961 0.0109654 -0.99995 
-0.00250098 0.00806767 -0.999977 
-0.00255113 0.00614295 -0.999991 
-0.00270871 0.00472318 -0.999998 
-0.00268937 0.00373208 -1 
-0.00279919 0.00288818 -1.00001 
-0.00277249 0.00222106 -1.00001 
-0.00280016 0.00155892 -1.00001 
-0.00265562 0.000873883 -1.00001 
-0.00260931 0.00016462 -1.00001 
-0.00237042 -0.000647036 -1.00001 
-0.00233208 -0.00144595 -1.00001 
-0.00206187 -0.00219004 -1.00001 
-0.00193788 -0.00276133 -1.00001 
-0.00211083 -0.00282813 -1.00001 
-0.00204696 -0.00264293 -1.00001 
-0.00208522 -0.00288472 -1.00001 
-0.00268277 -0.00446746 -1 
-0.00281002 -0.0072283 -0.999984 
-0.00355571 -0.0119629 -0.999937 
-0.00340351 -0.0181924 -0.999843 
-0.00331474 -0.022018 -0.999765 
-0.00328034 -0.0176982 -0.999845 
-0.00189595 -0.0164045 -0.999867 
0.0013477 -0.0164042 0.999868 
0.00219987 -0.0174366 0.999852 
0.00251346 -0.0219777 0.999766 
0.00216786 -0.0180311 0.999852 
0.00197594 -0.0114755 0.999944 
0.0016358 -0.00667525 0.999991 
0.00144088 -0.00411581 1 
0.00132822 -0.00283559 1.00001 
0.00130228 -0.00268899 1.00001 
0.00138684 -0.0029677 1.00001 
0.00153432 -0.00288075 1.00001 
0.0016634 -0.00230568 1.00001 
0.00180528 -0.00147419 1.00001 
0.00194737 -0.000590935 1.00001 
0.00207794 0.000251484 1.00001 
0.00216804 0.00102537 1.00001 
0.00222624 0.0017569 1.00001 
0.00224548 0.00240305 1.00001 
0.00224556 0.00304619 1.00001 
0.00223757 0.00381058 1 
0.00221869 0.00473755 0.999999 
0.00217392 0.00610425 0.999992 
0.00209552 0.00816313 0.999977 
0.00196173 0.0112986 0.999947 
0.00175961 0.0157578 0.99989 
0.00157182 0.0224086 0.999759 
0.0013116 0.0322313 0.999496 
0.00118404 0.0466544 0.998923 
0.00113137 0.0664867 0.997802 
0.00138025 0.094831 0.99551 
0.00165106 0.136547 0.990645 
0.00187686 0.190486 0.981703 
0.00174986 0.29519 0.955453 
0.00139993 0.407504 0.913213 
0.000942837 0.514692 0.85738 
0.000797883 0.687022 0.726616 
0.00341676 0.729869 0.683519 
0.00907965 0.990283 0.13884 
0.00727746 0.99672 0.0797374 
0.00383271 0.999849 0.0146256 
-0.000829552 0.997973 -0.0634773 
-0.00363993 0.993987 -0.108775 
-0.000895599 0.729581 -0.683867 
-0.00111396 0.676629 -0.736307 
-0.00178104 0.495993 -0.868332 
-0.00229504 0.469686 -0.882839 
-0.00244912 0.33004 -0.943978 
-0.00258702 0.197367 -0.980341 
-0.00228685 0.147293 -0.989103 
-0.0017622 0.108042 -0.994163 
-0.00135168 0.0723531 -0.997394 
-0.00122816 0.0508763 -0.998717 
-0.00126422 0.0351073 -0.999397 
-0.0014635 0.0238062 -0.99973 
-0.00169471 0.0164036 -0.999877 
-0.00186232 0.0117114 -0.999943 
-0.00200274 0.00848811 -0.999975 
-0.00209032 0.00640804 -0.999992 
-0.00216571 0.00502277 -0.999996 
-0.00217931 0.00399438 -1 
-0.00223187 0.00318295 -1 
-0.00221824 0.00246696 -1.00001 
-0.00224149 0.00179638 -1.00001 
-0.00219215 0.00108677 -1.00001 
-0.0021081 0.000292865 -1.00001 
-0.00198118 -0.000506143 -1.00001 
-0.00182847 -0.00142233 -1.00001 
-0.00166311 -0.0022986 -1.00001 
-0.00149913 -0.00288421 -1.00001 
-0.0013908 -0.00294557 -1.00001 
-0.00132076 -0.00265542 -1.00001 
-0.0012616 -0.00284251 -1.00001 
-0.00154407 -0.00415276 -1 
-0.00161873 -0.0065031 -0.999992 
-0.00212757 -0.0110956 -0.999951 
-0.00222811 -0.0177347 -0.999855 
-0.00231722 -0.0218474 -0.999772 
-0.00235778 -0.0176952 -0.999847 