# vtk DataFile Version 3.0 
Exported using Morpho https://github.com/Morpho-lang/morpho 
ASCII 
DATASET UNSTRUCTURED_GRID 

POINTS 1978 float 
-12 -4.00008 4.77383e-07 
-11.6179 -4.00086 -3.84115e-06 
-11.3239 -4.00025 -4.5347e-06 
-10.9828 -4.00044 -2.70204e-06 
-10.6558 -4.00028 -3.27152e-06 
-10.3065 -4.00038 -1.18172e-06 
-9.98713 -4.00037 -9.41925e-07 
-9.65504 -4.00026 -6.43782e-07 
-9.3121 -4.00041 -5.26821e-07 
-8.99382 -4.00045 -4.6983e-07 
-8.68826 -4.00028 -5.12006e-07 
-8.38194 -4.00039 -4.48647e-07 
-8.07983 -4.00022 -2.77082e-07 
-7.7744 -4.00055 2.74849e-07 
-7.48033 -4.00026 5.53263e-08 
-7.1739 -4.0004 1.84637e-07 
-6.88309 -4.00052 3.20426e-07 
-6.59185 -4.0003 2.2949e-07 
-6.28898 -4.00018 4.59085e-07 
-5.9782 -4.00029 5.55627e-07 
-5.67049 -4.00022 8.33714e-07 
-5.36697 -4.00034 9.8938e-07 
-5.06921 -4.00053 1.25579e-06 
-4.77492 -4.00038 2.0948e-06 
-4.4639 -4.00034 2.46879e-06 
-4.18662 -4.0008 2.73947e-06 
-3.91059 -4.00029 4.37814e-06 
-3.58794 -4.0002 5.6748e-06 
-3.28543 -4.00061 7.37481e-06 
-2.98175 -4.00036 6.66412e-06 
-2.68584 -4.00029 6.07668e-06 
-2.45918 -4.00068 3.21262e-06 
-2.20857 -4.00047 3.18119e-06 
-1.95656 -4.00072 1.47415e-06 
-1.70947 -4.00036 1.45119e-05 
-1.44937 -3.99885 4.98531e-05 
-1.19458 -3.99869 0.000402505 
-0.924033 -3.99582 3.53863e-05 
-0.642534 -3.98962 0.000461177 
-0.0601596 -3.98229 2.94528e-05 
0.488067 -3.98866 -0.000792808 
0.86983 -3.99428 -0.000438608 
1.11427 -3.99662 -0.000376667 
1.47505 -3.9993 -4.20342e-05 
1.70032 -4.00024 -6.88685e-06 
1.91835 -4.00045 -1.28414e-05 
2.15508 -4.00023 -2.21587e-06 
2.4066 -4.00059 -1.3909e-05 
2.71681 -4.00046 -2.73694e-06 
2.9857 -4.00045 -7.33268e-06 
3.2955 -4.00031 -6.5859e-06 
3.58051 -4.00031 -5.19368e-06 
3.87706 -4.00056 -4.32119e-06 
4.19493 -4.00051 -3.53652e-06 
4.48975 -4.00023 -2.029e-06 
4.78651 -4.00045 -2.00705e-06 
5.08982 -4.00043 -1.53233e-06 
5.39608 -4.00042 -1.03851e-06 
5.70787 -4.00037 -7.6225e-07 
6.00483 -4.00036 -6.25013e-07 
6.30397 -4.00033 -4.72946e-07 
6.58597 -4.0006 -3.6865e-07 
6.89196 -4.00044 -7.19612e-09 
7.17313 -4.00041 -2.3461e-07 
7.47189 -4.00057 2.14353e-08 
7.77083 -4.00053 -1.05463e-07 
8.06909 -4.00046 1.49678e-07 
8.36124 -4.00063 1.12596e-07 
8.65625 -4.00034 4.95924e-07 
8.9402 -4.0005 5.34e-07 
9.28156 -4.00072 8.72614e-07 
9.61424 -4.00044 5.84639e-07 
9.91005 -4.0006 5.56934e-07 
10.2776 -4.00051 1.73775e-06 
10.5987 -4.00049 3.22724e-06 
10.9904 -4.00069 2.94665e-06 
11.3105 -4.00029 4.5811e-06 
11.6004 -4.00074 3.59227e-06 
12 -4.00006 -4.58593e-07 
-12.0008 -3.62163 4.82452e-06 
-11.7118 -3.7115 1.15637e-19 
-11.3684 -3.62395 1.21542e-19 
-11.0631 -3.67573 -2.29105e-19 
-10.7273 -3.66467 -3.07661e-19 
-10.3925 -3.6891 1.22417e-19 
-10.0493 -3.66268 -1.95357e-19 
-9.72772 -3.67837 -5.5599e-20 
-9.38816 -3.69199 -1.58305e-19 
-9.0496 -3.67262 -1.86661e-19 
-8.7336 -3.66327 2.84126e-20 
-8.42469 -3.66848 -1.33805e-19 
-8.11669 -3.66657 -1.58873e-19 
-7.81242 -3.67375 -1.86714e-19 
-7.50788 -3.66182 -5.82925e-20 
-7.20704 -3.67493 -4.05225e-20 
-6.89946 -3.65814 -1.20239e-19 
-6.59396 -3.66714 -1.21817e-19 
-6.28005 -3.67331 -1.36682e-19 
-5.96795 -3.67139 -1.81453e-19 
-5.65886 -3.66938 -1.41554e-19 
-5.35627 -3.66728 -1.37274e-19 
-5.05923 -3.66891 -9.29248e-20 
-4.74442 -3.68933 -1.24468e-19 
-4.43334 -3.68899 -8.86769e-20 
-4.1216 -3.66087 -1.42077e-19 
-3.80865 -3.70451 -3.2903e-19 
-3.49464 -3.68512 4.57375e-20 
-3.19233 -3.69213 -9.43947e-20 
-2.88653 -3.69388 -3.90104e-19 
-2.64249 -3.61495 -9.06288e-20 
-2.39001 -3.67386 -1.13432e-18 
-2.13243 -3.68218 5.91365e-19 
-1.88267 -3.66844 1.10057e-18 
-1.62565 -3.66597 1.85502e-18 
-1.35807 -3.62012 3.9607e-17 
-1.04077 -3.63519 -2.22754e-17 
-0.718702 -3.53679 6.68045e-17 
-0.364899 -3.72688 1.96504e-18 
0.0197036 -3.49186 -3.67312e-18 
0.335264 -3.69271 -1.39543e-16 
0.788915 -3.63786 -3.84274e-17 
1.14156 -3.50648 -2.59935e-17 
1.35739 -3.72774 -1.07186e-17 
1.64679 -3.61081 -1.26719e-19 
1.89209 -3.65069 -3.72186e-19 
2.15186 -3.67357 -2.63033e-18 
2.46336 -3.74091 -3.83063e-19 
2.73255 -3.67783 1.77432e-19 
3.03151 -3.70298 -9.36408e-20 
3.31905 -3.66503 2.84984e-20 
3.61748 -3.67692 2.15243e-19 
3.93266 -3.69827 1.67659e-19 
4.23202 -3.67409 9.70273e-20 
4.53328 -3.67321 1.08588e-19 
4.83674 -3.67664 1.20821e-19 
5.14194 -3.67383 9.84561e-20 
5.45468 -3.67833 8.95557e-20 
5.7575 -3.6612 1.91172e-19 
6.06034 -3.6642 1.62785e-19 
6.35139 -3.64575 1.48591e-19 
6.65529 -3.67696 3.66375e-20 
6.94597 -3.64894 2.55886e-19 
7.24621 -3.67212 -1.02447e-19 
7.5483 -3.67218 1.34576e-19 
7.84845 -3.66839 3.62202e-20 
8.14322 -3.66049 7.14377e-20 
8.43721 -3.66123 1.13776e-19 
8.72813 -3.64266 5.21389e-20 
9.05179 -3.6999 2.55997e-19 
9.38732 -3.68756 1.44498e-19 
9.69713 -3.64325 1.3253e-19 
10.0361 -3.71058 1.66684e-19 
10.3701 -3.66324 1.77469e-20 
10.7339 -3.7212 3.61551e-19 
11.0664 -3.65686 1.60607e-19 
11.3668 -3.61932 2.18754e-21 
11.7127 -3.72301 -2.57871e-19 
12.0008 -3.61895 -4.97436e-06 
-12.0002 -3.3282 3.40195e-06 
-11.6272 -3.36435 -4.33492e-19 
-11.2777 -3.28233 1.23039e-19 
-10.9656 -3.3409 3.13989e-19 
-10.6512 -3.30945 1.36152e-19 
-10.3518 -3.36669 -1.18125e-19 
-10.0332 -3.32144 6.95824e-20 
-9.71394 -3.34085 9.82744e-20 
-9.39925 -3.378 -2.15976e-21 
-9.08715 -3.34188 -3.82741e-20 
-8.78011 -3.32688 -1.02512e-19 
-8.46789 -3.33703 -7.18211e-21 
-8.1569 -3.33717 -1.01276e-20 
-7.84573 -3.34401 5.62447e-20 
-7.5531 -3.31948 -4.62535e-20 
-7.25564 -3.34257 -1.45618e-19 
-6.95043 -3.33528 1.33877e-20 
-6.63941 -3.33635 -9.26947e-20 
-6.32861 -3.34876 -2.48092e-20 
-6.01352 -3.3438 -1.54843e-20 
-5.704 -3.34085 -9.40623e-20 
-5.39805 -3.3348 -1.31893e-19 
-5.0995 -3.33391 -1.21798e-19 
-4.80426 -3.37508 5.15929e-21 
-4.51101 -3.35987 -1.42325e-20 
-4.21331 -3.35526 -2.8685e-19 
-3.89186 -3.38552 -1.30396e-19 
-3.58246 -3.38696 -2.55221e-19 
-3.25613 -3.37491 -2.44282e-19 
-2.95037 -3.39852 -1.59505e-19 
-2.65828 -3.2552 -7.54525e-19 
-2.39622 -3.33996 5.04312e-19 
-2.13169 -3.36271 3.68305e-19 
-1.86452 -3.33297 9.12584e-19 
-1.59946 -3.31589 1.43073e-18 
-1.30177 -3.27351 5.32588e-18 
-1.02804 -3.20138 2.60382e-18 
-0.71108 -3.12762 6.08397e-17 
-0.359232 -3.27847 4.10818e-17 
0.0440906 -2.9997 4.74525e-19 
0.432132 -3.19153 -2.63041e-17 
0.758694 -3.28526 -5.62394e-17 
1.05965 -3.10677 -1.86282e-17 
1.39378 -3.28532 2.35919e-18 
1.61466 -3.29742 -3.35636e-18 
1.89019 -3.29502 -4.5349e-19 
2.12297 -3.34891 -1.13455e-18 
2.39787 -3.46335 2.93014e-19 
2.67679 -3.37305 5.95097e-19 
2.97244 -3.39361 3.59986e-19 
3.26429 -3.34342 4.6291e-19 
3.57363 -3.35074 2.70516e-19 
3.87987 -3.38558 2.52088e-20 
4.18461 -3.35225 2.34029e-19 
4.47987 -3.34116 3.83433e-20 
4.77688 -3.34958 1.32276e-19 
5.07652 -3.34676 1.48201e-20 
5.38431 -3.35749 1.24873e-19 
5.69244 -3.33267 7.67227e-20 
6.00125 -3.33074 1.1022e-19 
6.30136 -3.3037 -1.6592e-20 
6.60447 -3.33972 8.902e-20 
6.91167 -3.32387 -1.7526e-20 
7.2239 -3.33986 9.53589e-20 
7.52683 -3.34447 4.2882e-20 
7.83014 -3.33695 4.23763e-20 
8.13182 -3.32215 -4.0481e-20 
8.42726 -3.31693 5.1768e-20 
8.75266 -3.32793 9.01378e-20 
9.07582 -3.38664 3.77919e-20 
9.38856 -3.35057 -2.91418e-20 
9.70332 -3.30344 -1.75678e-19 
10.0178 -3.39073 1.47125e-20 
10.3172 -3.31191 -5.13348e-20 
10.6402 -3.40589 -5.10843e-20 
10.9691 -3.3429 -3.26602e-19 
11.2951 -3.26642 -2.11726e-19 
11.633 -3.37557 4.71494e-19 
12.0003 -3.3188 -3.82757e-06 
-12.0005 -3.01005 2.22387e-06 
-11.6539 -3.05852 1.72456e-19 
-11.3127 -2.96543 -1.39058e-19 
-10.963 -2.98736 4.48946e-20 
-10.6294 -2.97741 -1.68842e-19 
-10.3012 -3.01448 -2.52392e-19 
-9.96876 -2.98831 -1.46479e-19 
-9.65054 -3.00631 8.76502e-20 
-9.35043 -3.03056 -9.78913e-21 
-9.04502 -2.99632 -1.35375e-19 
-8.7347 -2.98914 1.59706e-20 
-8.43222 -3.0078 -1.45303e-20 
-8.11798 -3.01194 4.30127e-20 
-7.82438 -2.99835 3.61652e-21 
-7.52044 -2.98451 4.63243e-20 
-7.22005 -3.00702 1.41916e-20 
-6.92004 -3.00805 -1.237e-20 
-6.60865 -3.01155 6.30347e-20 
-6.29727 -3.02481 1.1078e-19 
-5.99234 -3.01333 1.02424e-19 
-5.68743 -3.0111 6.80679e-20 
-5.38996 -3.00097 9.33233e-20 
-5.09347 -3.00185 1.20936e-19 
-4.7973 -3.0399 1.70487e-19 
-4.49216 -3.03758 1.21248e-19 
-4.18629 -3.02577 2.80748e-19 
-3.8891 -3.07459 1.76562e-19 
-3.57751 -3.07202 2.34036e-19 
-3.26503 -3.07214 2.62697e-19 
-2.93907 -3.07953 6.16311e-20 
-2.6585 -2.90298 9.71147e-21 
-2.39264 -2.99081 -1.08109e-18 
-2.13539 -3.03743 8.15901e-19 
-1.86799 -2.99128 2.65509e-18 
-1.58592 -2.97175 4.8222e-18 
-1.33514 -2.84882 5.07588e-18 
-1.01761 -2.79867 2.55629e-17 
-0.656094 -2.67246 5.16128e-18 
-0.317445 -2.73799 8.73938e-18 
0.0204602 -2.33047 7.6071e-18 
0.378047 -2.60965 -3.67709e-17 
0.743474 -2.75853 -4.07665e-17 
1.02867 -2.65008 -3.04818e-17 
1.34916 -2.94235 7.54896e-19 
1.65503 -2.858 -1.89276e-18 
1.86195 -2.96653 -1.65138e-18 
2.13233 -2.97982 -5.94039e-19 
2.37055 -3.16055 1.98831e-19 
2.64789 -3.0666 2.37789e-19 
2.93444 -3.07083 -1.77182e-19 
3.22724 -3.01889 -2.25108e-19 
3.54278 -3.03579 -1.95285e-19 
3.86737 -3.06186 -2.25491e-19 
4.1669 -3.0218 -2.3031e-19 
4.47524 -3.02269 -5.20973e-20 
4.78652 -3.0189 -3.10138e-19 
5.0856 -3.01503 -9.76118e-20 
5.3842 -3.03358 -5.17223e-20 
5.68429 -3.00145 -9.75298e-20 
5.98779 -3.00584 -1.10162e-19 
6.29758 -2.96814 -5.6931e-21 
6.60121 -3.00857 -2.06531e-19 
6.91809 -3.00267 7.11099e-20 
7.22569 -3.01077 -5.87686e-20 
7.52974 -3.01416 -3.06791e-20 
7.83564 -3.00564 -9.40717e-20 
8.1273 -2.98028 -2.86009e-20 
8.44803 -3.00471 3.78265e-21 
8.74257 -2.98134 9.29051e-20 
9.04344 -3.05726 5.33444e-20 
9.35248 -3.01858 -1.08142e-20 
9.65708 -2.96235 -1.3933e-21 
9.98652 -3.03855 5.98439e-20 
10.3253 -2.98644 1.80102e-19 
10.6577 -3.0702 1.03193e-19 
10.9879 -3.00208 -2.33961e-20 
11.3356 -2.9441 1.65292e-19 
11.6637 -3.06257 -9.2146e-20 
12.0004 -2.98941 -2.32223e-06 
-12.0003 -2.68416 2.46949e-06 
-11.6604 -2.73368 2.11631e-19 
-11.3311 -2.63289 -2.81878e-19 
-10.9922 -2.66567 1.74498e-20 
-10.6488 -2.64763 -9.13387e-20 
[...]
POINT_DATA 1978 
VECTORS vectors float
0.0302123 -0.0478184 0.998798 
0.0350429 -0.0297988 0.99956 
0.0393932 -0.018754 0.999672 
0.0413635 -0.0118394 0.999682 
0.044722 -0.00731457 0.999566 
0.0468881 -0.00749629 0.999452 
0.0454711 -0.00719959 0.999513 
0.0446829 -0.0063135 0.999553 
0.0442861 -0.004915 0.999571 
0.0443526 -0.0037082 0.99956 
0.0444014 -0.00258583 0.999557 
0.0446083 -0.00140537 0.999547 
0.04452 -0.000815282 0.999542 
0.0444748 -0.000247539 0.999537 
0.0443813 0.00015144 0.999542 
0.0445226 0.000748697 0.999541 
0.0445256 0.00140688 0.99935 
0.0443746 0.00204581 0.999548 
0.0443081 0.00308864 0.999556 
0.0442635 0.00412678 0.999555 
0.0438633 0.00503544 0.999565 
0.0436717 0.0064292 0.999559 
0.0432911 0.00797594 0.999555 
0.0426665 0.00990953 0.999561 
0.0413245 0.0134967 0.999756 
0.0404902 0.0182824 0.999351 
0.0387217 0.0241723 0.999482 
0.0356602 0.0346242 0.999299 
0.0313657 0.0489363 0.99884 
0.0244659 0.0706077 0.997737 
0.0153738 0.101183 0.995258 
0.00722061 0.132618 0.99163 
-0.00431868 0.175286 0.984956 
-0.0189454 0.231013 0.973182 
-0.0338177 0.304457 0.952298 
-0.0516748 0.404568 0.913356 
-0.0643803 0.52408 0.849172 
-0.0729587 0.652033 0.754815 
-0.0700944 0.802673 0.591717 
-0.0125845 0.996341 0.0709465 
0.0557345 0.885181 -0.460936 
0.0738621 0.693475 -0.716695 
0.0687405 0.567338 -0.820689 
0.0508622 0.39698 -0.916729 
0.0349045 0.31545 -0.948524 
0.0216332 0.246664 -0.969289 
0.00930378 0.188871 -0.982408 
-0.00625074 0.141906 -0.990328 
-0.0156105 0.100173 -0.995332 
-0.0237949 0.0704039 -0.997744 
-0.0310617 0.0486817 -0.99886 
-0.0350984 0.0349254 -0.999306 
-0.0381781 0.0251747 -0.999479 
-0.0404584 0.0179262 -0.999544 
-0.0415478 0.0132539 -0.999576 
-0.042744 0.0100631 -0.999561 
-0.0435751 0.00783346 -0.999547 
-0.0438415 0.00638391 -0.999553 
-0.0438127 0.00501827 -0.999566 
-0.0439808 0.00376666 -0.999565 
-0.0440812 0.00297531 -0.999562 
-0.0441643 0.00227248 -0.999553 
-0.0441557 0.00127426 -0.999553 
-0.0443309 0.0008101 -0.999542 
-0.044612 0.0001367 -0.999531 
-0.0445474 -0.000427239 -0.999526 
-0.0444583 -0.000803152 -0.999539 
-0.0444621 -0.00147569 -0.999533 
-0.0439451 -0.00228868 -0.999569 
-0.0441673 -0.00312965 -0.999563 
-0.0445508 -0.00487083 -0.999546 
-0.0443362 -0.00619211 -0.999561 
-0.0455357 -0.00706626 -0.999505 
-0.0469952 -0.00766678 -0.999441 
-0.0450345 -0.00693901 -0.999548 
-0.0415627 -0.012038 -0.999667 
-0.0395674 -0.0181425 -0.999672 
-0.0352106 -0.0291514 -0.999574 
-0.030601 -0.0481421 -0.998771 
0.0177636 -0.0518324 0.999093 
0.0245012 -0.0370634 1.00009 
0.0238184 -0.0239115 1.00074 
0.0273433 -0.0156508 1.00081 
0.0283335 -0.0108855 1.00105 
0.0315438 -0.00826231 1.00056 
0.0299995 -0.00611196 1.00102 
0.0296853 -0.00522928 1.00082 
0.0299849 -0.00470332 1.0006 
0.0289507 -0.0038148 1.00082 
0.0285476 -0.00278886 1.00102 
0.0290557 -0.00182155 1.00079 
0.0293876 -0.00110671 1.00077 
0.0301216 -0.000405507 1.00055 
0.0293394 0.000214225 1.00095 
0.030045 0.00083173 1.00074 
0.0291163 0.00150609 1.00096 
0.0291915 0.00214054 1.00078 
0.0293588 0.00302311 1.00078 
0.0293129 0.00405018 1.00078 
0.0290854 0.00519682 1.00077 
0.0288381 0.00664389 1.00074 
0.0284056 0.0083888 1.00072 
0.0290031 0.0110862 1.00049 
0.0276404 0.0151321 1.00066 
0.0252228 0.02098 1.00078 
0.0257288 0.029403 1.00039 
0.0218825 0.0424302 1.00001 
0.0188624 0.0609427 0.999082 
0.0142082 0.0874826 0.997151 
0.00776624 0.117394 0.994087 
0.00135334 0.152698 0.989235 
-0.00737765 0.202277 0.98022 
-0.0164574 0.266135 0.964524 
-0.026099 0.346407 0.938565 
-0.0323526 0.451174 0.89273 
-0.0407047 0.601415 0.798022 
-0.0321158 0.766144 0.640513 
-0.0292145 0.924254 0.374342 
-0.00374188 0.996258 -0.0209953 
0.0211788 0.941795 -0.328124 
0.0380053 0.735181 -0.675674 
0.0274935 0.557344 -0.830254 
0.0390153 0.455861 -0.889912 
0.0241401 0.346384 -0.938767 
0.0159939 0.26765 -0.96427 
0.00852328 0.203016 -0.980078 
-0.00351822 0.143702 -0.990588 
-0.00977742 0.106366 -0.995325 
-0.016617 0.0733306 -0.998275 
-0.01981 0.0524416 -0.999579 
-0.0232117 0.0368386 -1.00021 
-0.026326 0.0258388 -1.00047 
-0.0266687 0.0188741 -1.00044 
-0.0273681 0.0137244 -1.00088 
-0.0284961 0.0102875 -1.00071 
-0.0285107 0.00784786 -1.00075 
-0.0290926 0.00617745 -1.00075 
-0.0287788 0.00484863 -1.00078 
-0.0293098 0.00371862 -1.00077 
-0.0287934 0.00283697 -1.00078 
-0.0302379 0.00197625 -1.00055 
-0.0287398 0.0012939 -1.00096 
-0.0299174 0.000774608 -1.00073 
-0.0298213 0.000120543 -1.00073 
-0.0296858 -0.000420847 -1.00074 
-0.0296024 -0.000994039 -1.00075 
-0.0296368 -0.00184681 -1.00057 
-0.0282887 -0.00272187 -1.001 
-0.0305593 -0.00380195 -1.00056 
-0.0296286 -0.00488364 -1.0008 
-0.028061 -0.00503362 -1.00106 
-0.0322816 -0.00618266 -1.00053 
-0.0296211 -0.00825825 -1.00102 
-0.0314303 -0.0106528 -1.00074 
-0.0265887 -0.015635 -1.00082 
-0.0233138 -0.023998 -1.00074 
-0.0250417 -0.0366163 -1.0001 
-0.0178035 -0.0517529 -0.999098 
0.0121336 -0.0558181 0.998974 
0.0156235 -0.0368394 1.00051 
0.0169245 -0.0235208 1.00108 
0.0196103 -0.0148467 1.00078 
0.0198316 -0.0119521 1.00101 
0.0222002 -0.00880872 1.00099 
0.0210072 -0.00517332 1.00083 
0.0205728 -0.00398348 1.00104 
0.0207342 -0.00412461 1.00122 
0.0198018 -0.0038434 1.00102 
0.0196992 -0.00299188 1.00102 
0.0199554 -0.00192931 1.00081 
0.019349 -0.00116123 1.001 
0.019437 -0.000442087 1.00118 
0.0188875 0.000267614 1.001 
0.0195217 0.000890795 1.00098 
0.0193538 0.00140973 1.0008 
0.0196375 0.00195721 1.00099 
0.0200809 0.00279975 1.00099 
0.019616 0.00382542 1.00099 
0.0192233 0.00490547 1.00099 
0.0191455 0.00634242 1.00097 
0.0186138 0.00827043 1.00113 
0.0191712 0.0109415 1.0009 
0.0182999 0.014683 1.00087 
0.0180366 0.0199803 1.00079 
0.0175679 0.0285147 1.00059 
0.0160053 0.0405117 1.00021 
0.0137071 0.0593531 0.9993 
0.0110684 0.0859459 0.99718 
0.00510656 0.121965 0.993615 
0.000571089 0.160137 0.988288 
-0.00585691 0.212301 0.977977 
-0.0109596 0.279046 0.961295 
-0.0151197 0.364084 0.932109 
-0.0187991 0.481796 0.876787 
-0.0192699 0.606755 0.794873 
-0.016624 0.764144 0.643406 
-0.0132297 0.923343 0.376017 
0.000420003 0.994613 -0.0445768 
0.0103996 0.901987 -0.425191 
0.018759 0.748832 -0.661401 
0.0154101 0.599812 -0.800094 
0.0170978 0.44642 -0.895412 
0.0145788 0.364194 -0.932072 
0.00975418 0.278575 -0.961282 
0.0067785 0.219186 -0.976603 
-8.61036e-05 0.162933 -0.987444 
-0.00645521 0.120915 -0.993663 
-0.0108931 0.0850728 -0.997401 
-0.013194 0.0598005 -0.999461 
-0.0153022 0.0409422 -1.00021 
-0.0170194 0.0288712 -1.00041 
-0.0173086 0.020898 -1.00097 
-0.0179204 0.0154413 -1.00087 
-0.0187995 0.011336 -1.00092 
-0.0189848 0.0084856 -1.00095 
-0.0195099 0.00655041 -1.00077 
-0.018958 0.00503887 -1.00117 
-0.0189986 0.00382866 -1.00099 
-0.0181301 0.00287958 -1.00102 
-0.0191437 0.00209021 -1.00099 
-0.0190383 0.00146321 -1.00081 
-0.0195271 0.000896098 -1.00098 
-0.0195486 0.000261588 -1.00098 
-0.0193218 -0.000320351 -1.00098 
-0.0187715 -0.000973254 -1.00099 
-0.0188079 -0.00184944 -1.00119 
-0.0194284 -0.00293274 -1.00101 
-0.0203449 -0.00385472 -1.001 
-0.0200748 -0.00409435 -1.00102 
-0.0198205 -0.00380221 -1.00105 
-0.0224282 -0.00531778 -1.001 
-0.0210581 -0.00825593 -1.00102 
-0.0217821 -0.011185 -1.00077 
-0.0196674 -0.0149505 -1.00098 
-0.0169324 -0.0245375 -1.00105 
-0.015926 -0.0364838 -1.00052 
-0.0119455 -0.056218 -0.998953 
0.00856276 -0.0572486 0.998925 
0.0106953 -0.039338 1.0005 
0.0107288 -0.0262469 1.0009 
0.0115785 -0.0152886 1.00132 
0.012417 -0.0126824 1.00092 
0.0129557 -0.00822825 1.00137 
0.0116992 -0.00346974 1.00119 
0.0111304 -0.002946 1.00118 
0.0113766 -0.00370598 1.00097 
0.0107104 -0.00375077 1.00116 
0.0105634 -0.00304439 1.00096 
0.0110669 -0.00200313 1.00133 
0.0115071 -0.00107755 1.00112 
0.0111336 -0.000336912 1.00112 
0.0110889 0.000391793 1.00093 
0.0115283 0.000966675 1.00111 
0.0116607 0.0014491 1.0013 
0.0117622 0.00208553 1.00111 
0.0115995 0.00298411 1.00111 
0.0113244 0.00392043 1.0011 
0.0110942 0.00488151 1.00109 
0.0106453 0.00623541 1.00108 
0.0107319 0.00830738 1.00106 
0.0110099 0.0112336 1.00103 
0.0105843 0.0153578 1.0008 
0.00969959 0.021267 1.00108 
0.0101981 0.0296384 1.0005 
0.00958404 0.0423384 1.00022 
0.00829013 0.0615414 0.999247 
0.0066047 0.0904805 0.997215 
0.00411298 0.126172 0.99312 
0.000826051 0.165836 0.987244 
-0.0035896 0.216728 0.977218 
-0.00724702 0.283598 0.9599 
-0.0095722 0.370496 0.929731 
-0.00907896 0.467876 0.884501 
-0.00855335 0.613573 0.789553 
-0.00693119 0.788112 0.613428 
-0.00541484 0.936637 0.340321 
-0.000566018 0.994304 -0.0228854 
0.00212867 0.916207 -0.391373 
0.00642176 0.755409 -0.653386 
0.00467432 0.608975 -0.793339 
0.0093335 0.466024 -0.885486 
0.00578301 0.348535 -0.938218 
0.00603076 0.286576 -0.959011 
0.00342526 0.21872 -0.976774 
0.000410795 0.170858 -0.986293 
-0.00442589 0.12948 -0.992637 
-0.00670198 0.094562 -0.996633 
-0.00738458 0.0667474 -0.998748 
-0.0087276 0.044337 -1.00017 
-0.00991635 0.0300598 -1.00087 
-0.00978454 0.0220752 -1.00087 
-0.0102536 0.016088 -1.0008 
-0.0105036 0.011503 -1.00104 
-0.0109662 0.00845605 -1.00107 
-0.0114457 0.00638282 -1.00126 
-0.0110151 0.0049305 -1.00091 
-0.0112284 0.00384119 -1.0011 
-0.0107986 0.00293206 -1.00112 
-0.0114437 0.00216168 -1.00131 
-0.0116302 0.00156416 -1.00112 
-0.0116894 0.000991112 -1.00111 
-0.0117499 0.000329311 -1.00111 
-0.0115838 -0.000416931 -1.00111 
-0.0107111 -0.00118439 -1.00112 
-0.0107057 -0.00207716 -1.00113 
-0.0105291 -0.00299947 -1.00114 
-0.0119033 -0.00369914 -1.00114 
-0.0110207 -0.0036363 -1.00117 
-0.0102124 -0.00291793 -1.0012 
-0.0125098 -0.00381191 -1.00119 
-0.0128659 -0.0081709 -1.00117 
-0.014225 -0.0125954 -1.0011 
-0.0119668 -0.0159748 -1.00109 
-0.010252 -0.0269526 -1.00088 
-0.0109423 -0.0394214 -1.00049 
-0.00860066 -0.0573291 -0.998916 
0.00599494 -0.0591399 0.998822 
0.00759437 -0.0394243 1.00075 
0.00751988 -0.0279519 1.00068 
0.00847907 -0.0170546 1.00113 
0.00865602 -0.0128962 1.00118 
0.0086226 -0.00751817 1.00123 
0.0074468 -0.00253487 1.00124 
0.00688516 -0.00225207 1.00122 
0.00701287 -0.00341667 1.00141 
0.00678148 -0.00370176 1.00118 
0.00660771 -0.00309448 1.00117 
0.00718238 -0.002082 1.00116 
0.00723725 -0.00115318 1.00116 
0.00744913 -0.000256234 1.00115 
0.00751443 0.000564524 1.00115 
0.00779787 0.001176 1.00115 
0.00785881 0.00173429 1.00115 
0.00781068 0.0024261 1.00115 
0.00779888 0.003222 1.00114 
0.0077415 0.00406183 1.00112 
0.00747024 0.00502281 1.0011 
0.00713134 0.00652402 1.00109 
0.00701116 0.00881357 1.00089 
0.00734074 0.0118492 1.00125 
0.00693717 0.0164545 1.00101 
0.00645955 0.023276 1.0007 
0.0065116 0.0322354 1.00084 
0.00604106 0.0457256 1.00013 
0.0055408 0.0685737 0.998829 
0.00481841 0.0968365 0.996465 
0.00359383 0.142308 0.990977 
0.0019278 0.184563 0.983964 
-0.00150576 0.238859 0.972108 
-0.00451643 0.319161 0.948733 
-0.00399497 0.407801 0.913747 
-0.00348202 0.542264 0.840772 
-0.00193068 0.707677 0.705969 
0.000862045 0.787956 0.612894 
-0.000885113 0.909633 0.407173 
-0.0013654 0.971239 0.212082 
-0.0014513 0.962953 -0.250461 
-0.000917715 0.823298 -0.563956 
-0.00213794 0.676954 -0.735231 
0.00214449 0.490954 -0.871978 
0.00230885 0.375821 -0.927703 
-1.4125e-05 0.279028 -0.961351 
-0.000441467 0.227718 -0.974779 
-0.0021052 0.167561 -0.98709 
-0.00450631 0.127172 -0.993002 
-0.00511648 0.0956306 -0.996605 
-0.00520604 0.064838 -0.99911 
-0.00624173 0.0417899 -1.00033 
-0.00658579 0.0293646 -1.00075 
-0.0066526 0.0210903 -1.00074 
-0.00701299 0.0151557 -1.0012 
-0.00703301 0.0110463 -1.00106 
-0.00714586 0.00803796 -1.00109 
-0.00744579 0.00606176 -1.0011 
-0.00736808 0.00469998 -1.00111 
-0.00759135 0.00375473 -1.00112 
-0.0074206 0.00289741 -1.00114 
-0.00801091 0.00213666 -1.00114 
-0.00777462 0.00154653 -1.00115 
-0.0077016 0.000993307 -1.00115 
-0.00773494 0.000294841 -1.00115 
-0.00725261 -0.000513058 -1.00116 
-0.00735457 -0.00146085 -1.00115 
-0.00710414 -0.00235487 -1.00097 
-0.0065002 -0.0032265 -1.00117 
-0.00735492 -0.00375567 -1.00118 
-0.0067532 -0.00351747 -1.0012 
-0.00657145 -0.00224912 -1.00123 
-0.00799189 -0.0027547 -1.00123 
-0.0079726 -0.00755227 -1.00122 
-0.0093795 -0.0133405 -1.00116 
-0.00826475 -0.0170564 -1.00112 
-0.00736018 -0.0283139 -1.00087 
-0.00759453 -0.041194 -1.00045 
-0.00574768 -0.0589994 -0.998835 
0.00484724 -0.0610452 0.998705 
0.00568896 -0.0444032 1.00013 
0.00575817 -0.0316438 1.00079 
0.00597383 -0.0194282 1.00109 
0.00560522 -0.0137192 1.00118 
0.00515072 -0.00835244 1.00124 
0.00422197 -0.00270027 1.00126 
0.00369392 -0.00136652 1.00124 
0.00309198 -0.00287243 1.00122 
0.00289287 -0.00370403 1.0012 
0.002543 -0.0034228 1.00119 
0.00277564 -0.00253463 1.00118 
0.00257091 -0.00159281 1.00117 
0.00266321 -0.000630496 1.00117 
0.00285213 0.000260372 1.00117 
0.00289232 0.00103351 1.00117 
0.00334129 0.00163355 1.00117 
0.00364953 0.00223142 1.00116 
0.0035554 0.00289396 1.00115 
0.00360219 0.00357896 1.00113 
0.00339035 0.00437543 1.00111 
0.00313004 0.0055438 1.0011 
0.00281287 0.00741512 1.00109 
0.00269684 0.0100947 1.00108 
0.00291668 0.0136526 1.00107 
0.00275349 0.0191768 1.001 
0.00291916 0.0276694 1.00081 
0.00285443 0.0384056 1.00049 
0.00331897 0.0562082 0.999652 
0.00293261 0.0818198 0.997876 
0.00313158 0.116803 0.994364 
0.00297449 0.16784 0.987026 
0.00293218 0.220158 0.976454 
0.00119691 0.267998 0.964522 
0.00112586 0.343666 0.940365 
0.000893036 0.46178 0.887855 
0.00137308 0.615152 0.788393 
0.000896679 0.737003 0.674711 
-0.000599157 0.934962 0.34601 
-0.00193908 0.982687 -0.15312 
-0.00258605 0.955443 -0.280954 
-0.00349989 0.807424 -0.586427 
-0.00209649 0.833133 -0.549895 
-0.00291424 0.534412 -0.846241 
-0.00259568 0.407477 -0.914033 
-0.0032718 0.309437 -0.952089 
-0.00416097 0.231514 -0.973972 
-0.00339117 0.181748 -0.984275 
-0.00393935 0.133518 -0.992217 
-0.00309368 0.0999769 -0.996207 
-0.00289528 0.0728822 -0.998588 
-0.00315281 0.0465065 -1.00018 
-0.00276701 0.0314316 -1.00075 
-0.00276008 0.022141 -1.00114 
-0.00292903 0.0159793 -1.00085 
-0.00276573 0.0115164 -1.00107 
-0.00287968 0.00839881 -1.00109 
-0.00309593 0.00623992 -1.00111 
-0.00331506 0.00487046 -1.00111 
-0.00329271 0.00388081 -1.00113 
-0.003095 0.00312275 -1.00114 
-0.00340857 0.00233927 -1.00116 
-0.00327474 0.00171112 -1.00117 
-0.00295974 0.00110987 -1.00118 
-0.00301107 0.000439872 -1.00118 
-0.00230649 -0.000400952 -1.00118 
-0.00276144 -0.00132333 -1.00118 
-0.00223879 -0.00229559 -1.00136 
-0.0019769 -0.00320706 -1.00119 
-0.00286574 -0.0037587 -1.00121 
-0.00317785 -0.0032813 -1.00122 
-0.00299181 -0.00171815 -1.00124 
-0.00463926 -0.00182945 -1.00125 
-0.00487104 -0.00678528 -1.00125 
-0.00651582 -0.0130929 -1.00118 
-0.00629967 -0.017613 -1.00111 
-0.00558155 -0.0282074 -1.00087 
-0.00587058 -0.0413409 -1.00045 
-0.00511585 -0.0602714 -0.998755 
0.00355956 -0.0599447 0.998773 
0.00352561 -0.0409702 1.00069 
0.00316191 -0.0276535 1.0009 
0.00229063 -0.0160039 1.00115 
0.00167798 -0.0112806 1.00121 
0.000945564 -0.00583813 1.00125 
0.000440627 -0.00108725 1.00125 
0.000141567 -0.00144986 1.00123 
-3.69367e-05 -0.00329949 1.0012 
3.11531e-05 -0.00385594 1.00119 
0.000133316 -0.00324388 1.00117 
0.000202675 -0.00229903 1.00116 
0.000259759 -0.00127302 1.00116 
0.000321847 -0.000299052 1.00117 
0.000505941 0.000576991 1.00116 
0.000604798 0.00131509 1.00116 
0.000711051 0.00195994 1.00116 
0.000826538 0.00261499 1.00115 
0.000826451 0.00327191 1.00113 
0.000847291 0.0038986 1.00111 
0.000842877 0.00475227 1.00109 
0.000773908 0.00615576 1.00108 
0.000647681 0.00833928 1.00108 
0.000522662 0.0114189 1.00108 
0.000449845 0.0159582 1.00106 
0.000256778 0.0235221 1.00094 
1.28332e-05 0.0333024 1.00069 
0.000251569 0.0479227 1.00014 
0.000347155 0.0700041 0.998846 
0.000880036 0.105654 0.995465 
0.00168639 0.145719 0.990828 
0.00337347 0.222232 0.976213 
0.00356266 0.30113 0.95472 
0.00330896 0.409443 0.913344 
0.00268025 0.540508 0.84219 
0.00177136 0.634184 0.773178 
0.000962075 0.790659 0.610923 
0.00737155 0.804282 0.591097 
0.00151127 0.912487 0.404701 
0.00643184 0.923953 0.375391 
-0.00760184 0.9295 -0.369429 
-0.00572666 0.822097 -0.563107 
-0.000435735 0.639736 -0.769566 
-0.00283193 0.704183 -0.709254 
-0.00354973 0.540195 -0.841698 
-0.00480159 0.345746 -0.939678 
-0.00466841 0.257499 -0.967432 
-0.00366807 0.169124 -0.98698 
-0.00198066 0.125782 -0.993307 
-0.000727049 0.0938928 -0.996861 
-0.000426948 0.0659061 -0.999109 
-0.000214251 0.0436275 -1.00033 
-8.62068e-05 0.0296704 -1.00081 
-0.000265326 0.0205821 -1.00098 
-0.000363824 0.0147024 -1.00104 
-0.000487474 0.0106553 -1.00107 
-0.00063058 0.00782734 -1.00108 
-0.000692458 0.00595045 -1.00109 
-0.000806971 0.00463666 -1.0011 
-0.000778604 0.00380156 -1.00111 
-0.000730937 0.00307233 -1.00113 
-0.000761307 0.00240225 -1.00115 
-0.000768778 0.00168925 -1.00117 
-0.000631107 0.00102037 -1.00118 
-0.000555525 0.000290684 -1.00117 
-0.000411807 -0.00063115 -1.00117 
-0.000264076 -0.00156927 -1.00099 
-0.000115788 -0.00251981 -1.00117 
4.0141e-06 -0.00343473 -1.00117 
-0.00010827 -0.00383447 -1.0012 
-1.69575e-05 -0.00327242 -1.00121 
-3.83505e-06 -0.00137784 -1.00123 
-0.000886141 -0.00147626 -1.00125 
-0.00116999 -0.00678502 -1.00124 
-0.00269962 -0.0127188 -1.00119 
-0.00257744 -0.0170271 -1.00113 
-0.00288596 -0.0283761 -1.00087 
-0.00408694 -0.042052 -1.00042 
-0.00417633 -0.0598952 -0.998769 
0.00335863 -0.0599348 0.998755 
0.00272061 -0.04186 1.00022 
0.00197167 -0.0284723 1.00086 
0.00126246 -0.0161338 1.00133 
0.000712591 -0.0115026 1.00099 
0.000254465 -0.00593028 1.00123 
-9.0113e-06 -0.00124575 1.00123 
2.7559e-05 -0.00133434 1.00121 
0.000327772 -0.00329095 1.00119 
0.000694347 -0.00410349 1.00117 
0.000874984 -0.0036163 1.00116 
0.00131126 -0.00264641 1.00115 
0.00146744 -0.00158118 1.00115 
0.00169216 -0.000538882 1.00115 
0.00177026 0.000383938 1.00115 
0.00192312 0.00114948 1.00115 
0.00203733 0.00191697 1.00133 
0.00199435 0.00266251 1.00095 
0.0018912 0.0033222 1.00112 
0.00189886 0.00392768 1.0011 
0.00189511 0.00464535 1.00108 
0.00198363 0.00587146 1.00106 
0.00195626 0.00782716 1.00105 
0.00186806 0.0106948 1.00123 
0.00169025 0.0151686 1.00104 
0.00101706 0.0219796 1.00077 
0.000687288 0.0315493 1.00095 
0.000160818 0.044887 1.00008 
0.000110622 0.0648385 0.999443 
0.000200513 0.0957713 0.996726 
0.00104204 0.137295 0.991642 
0.00231374 0.185112 0.984035 
0.00342539 0.29104 0.958094 
0.00316303 0.409661 0.912953 
0.00170077 0.517276 0.856135 
0.00134482 0.680158 0.73294 
0.00520986 0.731925 0.678205 
0.0115017 0.988923 0.147554 
0.0102006 0.992592 0.121524 
0.00501014 0.996104 0.0896317 
-0.00301775 0.995681 -0.0586446 
-0.00546904 0.983175 -0.183928 
-0.00324211 0.721775 -0.688254 
-0.00222372 0.64908 -0.760507 
-0.00296842 0.505322 -0.863376 
-0.00438758 0.470866 -0.882989 
-0.00406096 0.346225 -0.939291 
-0.00381831 0.197998 -0.981492 
-0.00229881 0.148835 -0.990167 
-0.000911115 0.107059 -0.995602 
-0.000109411 0.0738154 -0.998604 
-6.59164e-05 0.0505603 -0.999821 
-0.00046318 0.033816 -1.00072 
-0.000979373 0.0226492 -1.00098 
-0.001345 0.0155574 -1.00105 
-0.00174851 0.0112408 -1.00106 
-0.00192521 0.00820205 -1.00106 
-0.0020677 0.00619596 -1.00106 
-0.00177378 0.00488346 -1.00107 
-0.00183803 0.00409462 -1.00126 
-0.00167298 0.00344402 -1.00093 
-0.00196715 0.00273913 -1.00112 
-0.00194544 0.0019423 -1.00114 
-0.00206017 0.00121071 -1.00116 
-0.00196748 0.000406119 -1.00116 
-0.0018355 -0.000457768 -1.00116 
-0.00170571 -0.00153223 -1.00135 
-0.00158327 -0.00259858 -1.00115 
-0.00120286 -0.00362012 -1.00116 
-0.000650795 -0.00410282 -1.00119 
-0.000187464 -0.00326225 -1.0012 
-9.18762e-05 -0.00121217 -1.00121 
0.000167158 -0.00101578 -1.00123 
-0.000147894 -0.00557563 -1.00122 
-0.000671226 -0.0115688 -1.00119 
-0.00120606 -0.0157827 -1.00113 
-0.00173935 -0.0271623 -1.00088 
-0.00261442 -0.0416127 -1.00043 
-0.00299399 -0.0594514 -0.998797 
0.0026469 -0.0590717 0.998799 
0.0023617 -0.0409322 1.00043 