# vtk DataFile Version 3.0 
Exported using Morpho https://github.com/Morpho-lang/morpho 
ASCII 
DATASET UNSTRUCTURED_GRID 

POINTS 1978 float 
-12 -4.00008 4.77383e-07 
-11.6179 -4.00086 -3.84115e-06 
-11.3239 -4.00025 -4.5347e-06 
-10.9828 -4.00044 -2.70204e-06 
-10.6558 -4.00028 -3.27152e-06 
-10.3065 -4.00038 -1.18172e-06 
-9.98713 -4.00037 -9.41925e-07 
-9.65504 -4.00026 -6.43782e-07 
-9.3121 -4.00041 -5.26821e-07 
-8.99382 -4.00045 -4.6983e-07 
-8.68826 -4.00028 -5.12006e-07 
-8.38194 -4.00039 -4.48647e-07 
-8.07983 -4.00022 -2.77082e-07 
-7.7744 -4.00055 2.74849e-07 
-7.48033 -4.00026 5.53263e-08 
-7.1739 -4.0004 1.84637e-07 
-6.88309 -4.00052 3.20426e-07 
-6.59185 -4.0003 2.2949e-07 
-6.28898 -4.00018 4.59085e-07 
-5.9782 -4.00029 5.55627e-07 
-5.67049 -4.00022 8.33714e-07 
-5.36697 -4.00034 9.8938e-07 
-5.06921 -4.00053 1.25579e-06 
-4.77492 -4.00038 2.0948e-06 
-4.4639 -4.00034 2.46879e-06 
-4.18662 -4.0008 2.73947e-06 
-3.91059 -4.00029 4.37814e-06 
-3.58794 -4.0002 5.6748e-06 
-3.28543 -4.00061 7.37481e-06 
-2.98175 -4.00036 6.66412e-06 
-2.68584 -4.00029 6.07668e-06 
-2.45918 -4.00068 3.21262e-06 
-2.20857 -4.00047 3.18119e-06 
-1.95656 -4.00072 1.47415e-06 
-1.70947 -4.00036 1.45119e-05 
-1.44937 -3.99885 4.98531e-05 
-1.19458 -3.99869 0.000402505 
-0.924033 -3.99582 3.53863e-05 
-0.642534 -3.98962 0.000461177 
-0.0601596 -3.98229 2.94528e-05 
0.488067 -3.98866 -0.000792808 
0.86983 -3.99428 -0.000438608 
1.11427 -3.99662 -0.000376667 
1.47505 -3.9993 -4.20342e-05 
1.70032 -4.00024 -6.88685e-06 
1.91835 -4.00045 -1.28414e-05 
2.15508 -4.00023 -2.21587e-06 
2.4066 -4.00059 -1.3909e-05 
2.71681 -4.00046 -2.73694e-06 
2.9857 -4.00045 -7.33268e-06 
3.2955 -4.00031 -6.5859e-06 
3.58051 -4.00031 -5.19368e-06 
3.87706 -4.00056 -4.32119e-06 
4.19493 -4.00051 -3.53652e-06 
4.48975 -4.00023 -2.029e-06 
4.78651 -4.00045 -2.00705e-06 
5.08982 -4.00043 -1.53233e-06 
5.39608 -4.00042 -1.03851e-06 
5.70787 -4.00037 -7.6225e-07 
6.00483 -4.00036 -6.25013e-07 
6.30397 -4.00033 -4.72946e-07 
6.58597 -4.0006 -3.6865e-07 
6.89196 -4.00044 -7.19612e-09 
7.17313 -4.00041 -2.3461e-07 
7.47189 -4.00057 2.14353e-08 
7.77083 -4.00053 -1.05463e-07 
8.06909 -4.00046 1.49678e-07 
8.36124 -4.00063 1.12596e-07 
8.65625 -4.00034 4.95924e-07 
8.9402 -4.0005 5.34e-07 
9.28156 -4.00072 8.72614e-07 
9.61424 -4.00044 5.84639e-07 
9.91005 -4.0006 5.56934e-07 
10.2776 -4.00051 1.73775e-06 
10.5987 -4.00049 3.22724e-06 
10.9904 -4.00069 2.94665e-06 
11.3105 -4.00029 4.5811e-06 
11.6004 -4.00074 3.59227e-06 
12 -4.00006 -4.58593e-07 
-12.0008 -3.62163 4.82452e-06 
-11.7115 -3.71156 -7.54425e-07 
-11.3686 -3.62407 -6.64199e-07 
-11.063 -3.67569 1.29542e-06 
-10.7275 -3.66435 1.8241e-06 
-10.3926 -3.68917 -7.13032e-07 
-10.0498 -3.66323 1.13036e-06 
-9.7277 -3.67839 3.63776e-07 
-9.38784 -3.69192 9.20005e-07 
-9.04913 -3.67294 1.06084e-06 
-8.73333 -3.66302 -1.44411e-07 
-8.42458 -3.66857 7.688e-07 
-8.11679 -3.66638 9.33206e-07 
-7.81196 -3.67428 1.04327e-06 
-7.50807 -3.66224 3.18201e-07 
-7.20735 -3.6752 1.90464e-07 
-6.89938 -3.65825 6.89614e-07 
-6.59451 -3.66741 6.82345e-07 
-6.28079 -3.67303 7.55419e-07 
-5.96839 -3.67137 1.00838e-06 
-5.65833 -3.66921 7.7771e-07 
-5.35559 -3.6672 7.61977e-07 
-5.05862 -3.66946 4.8803e-07 
-4.74509 -3.68993 6.94102e-07 
-4.43296 -3.68919 4.47231e-07 
-4.12129 -3.66102 7.49034e-07 
-3.80772 -3.70424 1.88487e-06 
-3.49317 -3.68407 -3.28998e-07 
-3.1905 -3.69281 5.49948e-07 
-2.88521 -3.69319 2.3727e-06 
-2.64152 -3.61567 5.92697e-07 
-2.38972 -3.67306 6.91569e-06 
-2.13339 -3.6817 -3.36211e-06 
-1.8845 -3.67014 -7.62548e-06 
-1.6272 -3.66699 -1.33575e-05 
-1.35893 -3.62181 -0.000248961 
-1.04154 -3.63654 0.000131117 
-0.720126 -3.53406 -0.00041996 
-0.367893 -3.72774 -1.57196e-05 
0.0240294 -3.49201 1.56841e-05 
0.333926 -3.69475 0.000887614 
0.79132 -3.63826 0.000245637 
1.14193 -3.50784 0.000165975 
1.35723 -3.7261 6.94761e-05 
1.64653 -3.60981 2.23927e-06 
1.89304 -3.65152 3.01886e-06 
2.1527 -3.67549 1.62392e-05 
2.46229 -3.73887 1.939e-06 
2.73228 -3.67837 -1.11624e-06 
3.03114 -3.70313 4.26978e-07 
3.31898 -3.6654 -1.34255e-07 
3.61827 -3.67684 -1.18659e-06 
3.93228 -3.69893 -9.36922e-07 
4.23064 -3.6736 -5.07084e-07 
4.53314 -3.6729 -6.03117e-07 
4.83714 -3.67713 -6.5943e-07 
5.1421 -3.67408 -5.36197e-07 
5.45481 -3.67817 -4.58021e-07 
5.75714 -3.66078 -1.06841e-06 
6.06019 -3.66417 -9.04869e-07 
6.35149 -3.6462 -8.2249e-07 
6.65531 -3.67725 -1.81585e-07 
6.94651 -3.64893 -1.46578e-06 
7.24608 -3.67208 5.78915e-07 
7.54853 -3.67246 -7.57092e-07 
7.84815 -3.66872 -2.03584e-07 
8.14324 -3.66045 -3.80548e-07 
8.43695 -3.66104 -6.27816e-07 
8.728 -3.6421 -3.37208e-07 
9.05194 -3.69996 -1.46458e-06 
9.38777 -3.68758 -8.65275e-07 
9.69694 -3.64345 -7.7748e-07 
10.036 -3.71055 -9.36627e-07 
10.3701 -3.66292 -1.9506e-07 
10.734 -3.72164 -2.03045e-06 
11.0665 -3.65735 -9.16886e-07 
11.3667 -3.61923 -8.57392e-08 
11.7125 -3.72281 1.60228e-06 
12.0008 -3.61895 -4.97436e-06 
-12.0002 -3.3282 3.40195e-06 
-11.6275 -3.36455 2.53704e-06 
-11.2777 -3.28269 -7.48936e-07 
-10.9654 -3.34099 -1.85411e-06 
-10.6514 -3.30948 -7.43632e-07 
-10.3516 -3.36644 6.80287e-07 
-10.033 -3.32187 -4.51426e-07 
-9.71425 -3.3403 -5.7105e-07 
-9.39939 -3.37867 -1.05731e-09 
-9.08721 -3.34173 2.44072e-07 
-8.78004 -3.32734 5.99503e-07 
-8.46817 -3.33676 3.08681e-08 
-8.15655 -3.33701 4.51062e-08 
-7.84544 -3.34416 -3.39051e-07 
-7.55291 -3.31932 2.71182e-07 
-7.25577 -3.34278 8.49695e-07 
-6.95104 -3.33547 -1.05391e-07 
-6.64004 -3.33643 5.27276e-07 
-6.32852 -3.34846 1.44347e-07 
-6.01328 -3.34377 8.53709e-08 
-5.7039 -3.34086 5.2711e-07 
-5.39731 -3.3346 7.48494e-07 
-5.09904 -3.33368 6.93597e-07 
-4.80399 -3.3751 -4.2632e-08 
-4.51125 -3.36038 7.78329e-08 
-4.21463 -3.35583 1.66683e-06 
-3.89302 -3.38701 7.69912e-07 
-3.58297 -3.38545 1.50222e-06 
-3.2588 -3.37487 1.46384e-06 
-2.95002 -3.39858 1.05402e-06 
-2.65515 -3.25444 4.57822e-06 
-2.39534 -3.34106 -2.91746e-06 
-2.13015 -3.36263 -2.66135e-06 
-1.86343 -3.33193 -5.60782e-06 
-1.59925 -3.31697 -9.66831e-06 
-1.30053 -3.27468 -3.5218e-05 
-1.02844 -3.19932 -2.22124e-05 
-0.715122 -3.12506 -0.000386437 
-0.365606 -3.28228 -0.000242623 
0.0457896 -3.00149 -1.04283e-05 
0.437319 -3.19385 0.000159855 
0.759655 -3.2838 0.000360012 
1.0603 -3.10868 0.000121076 
1.39584 -3.28321 -1.19671e-05 
1.61479 -3.2969 2.15151e-05 
1.88809 -3.2946 2.96094e-06 
2.12122 -3.34983 7.13528e-06 
2.39542 -3.46166 -1.584e-06 
2.67655 -3.37184 -3.62404e-06 
2.97194 -3.39257 -2.29143e-06 
3.26453 -3.34328 -2.79841e-06 
3.57369 -3.35157 -1.63146e-06 
3.88071 -3.38559 -1.28865e-07 
4.18529 -3.35234 -1.32414e-06 
4.47949 -3.34089 -2.24083e-07 
4.77637 -3.34954 -7.49677e-07 
5.07635 -3.34705 -7.03099e-08 
5.38367 -3.35699 -7.03663e-07 
5.69243 -3.33292 -4.32989e-07 
6.00139 -3.33025 -6.24712e-07 
6.30138 -3.30356 1.06829e-07 
6.60473 -3.33954 -5.22455e-07 
6.91176 -3.3243 1.03794e-07 
7.2246 -3.34004 -5.20259e-07 
7.52675 -3.34433 -2.408e-07 
7.83009 -3.3374 -2.35969e-07 
8.13146 -3.32229 2.29115e-07 
8.42688 -3.31704 -3.13107e-07 
8.75246 -3.32798 -4.98717e-07 
9.07538 -3.38702 -2.27452e-07 
9.38836 -3.35021 1.44851e-07 
9.70326 -3.30371 1.03448e-06 
10.018 -3.39099 -5.67298e-08 
10.3174 -3.31194 3.00593e-07 
10.6404 -3.40598 2.62604e-07 
10.9693 -3.34285 1.92596e-06 
11.2949 -3.26635 1.25743e-06 
11.6332 -3.37551 -2.72457e-06 
12.0003 -3.3188 -3.82757e-06 
-12.0005 -3.01005 2.22387e-06 
-11.6541 -3.0583 -9.18308e-07 
-11.3124 -2.96536 8.33044e-07 
-10.9628 -2.98759 -2.85732e-07 
-10.6295 -2.97749 1.01447e-06 
-10.3013 -3.01475 1.46911e-06 
-9.96851 -2.98833 8.00928e-07 
-9.65084 -3.00595 -5.00701e-07 
-9.34999 -3.03053 1.01065e-07 
-9.04555 -2.99637 7.68818e-07 
-8.73447 -2.98901 -8.11804e-08 
-8.43219 -3.00774 9.34598e-08 
-8.11788 -3.01213 -2.4406e-07 
-7.82444 -2.99846 -1.34379e-08 
-7.52014 -2.98423 -2.62719e-07 
-7.2206 -3.00717 -8.96392e-08 
-6.92003 -3.00795 6.61602e-08 
-6.6085 -3.01197 -3.50055e-07 
-6.29745 -3.02482 -6.38218e-07 
-5.99232 -3.01325 -5.93328e-07 
-5.68789 -3.01108 -3.97483e-07 
-5.39005 -3.00094 -5.54015e-07 
-5.09366 -3.0017 -6.95655e-07 
-4.79789 -3.04053 -9.88725e-07 
-4.49225 -3.03753 -7.25296e-07 
-4.18556 -3.02542 -1.66291e-06 
-3.88924 -3.07525 -1.04799e-06 
-3.57729 -3.07178 -1.33035e-06 
-3.26503 -3.07151 -1.53061e-06 
-2.93861 -3.08003 -3.26534e-07 
-2.65877 -2.90496 7.67711e-08 
-2.39061 -2.99285 6.55276e-06 
-2.13329 -3.03683 -5.27134e-06 
-1.86647 -2.99293 -1.63272e-05 
-1.58533 -2.97279 -2.99397e-05 
-1.33545 -2.84891 -3.35704e-05 
-1.02045 -2.79924 -0.000161352 
-0.661615 -2.67626 -3.67928e-05 
-0.324602 -2.74038 -6.39898e-05 
0.0252375 -2.33746 -5.02875e-05 
0.387678 -2.61133 0.000232015 
0.74681 -2.75818 0.00025676 
1.03434 -2.65202 0.000190497 
1.35067 -2.94137 -1.02347e-06 
1.65682 -2.85587 1.20803e-05 
1.86007 -2.96583 1.00784e-05 
2.13096 -2.97978 3.95845e-06 
2.36964 -3.16175 -1.18234e-06 
2.64605 -3.06607 -1.55167e-06 
2.93249 -3.07159 1.10857e-06 
3.22881 -3.01954 1.31998e-06 
3.54279 -3.03497 1.11249e-06 
3.86835 -3.06261 1.31732e-06 
4.16685 -3.02244 1.36032e-06 
4.47455 -3.0225 3.35253e-07 
4.78623 -3.01838 1.78738e-06 
5.08608 -3.01448 5.59378e-07 
5.38443 -3.03352 2.90521e-07 
5.68429 -3.0014 5.74652e-07 
5.98785 -3.00596 6.4203e-07 
6.2971 -2.96823 3.29724e-08 
6.60113 -3.0087 1.17577e-06 
6.91824 -3.00276 -3.96637e-07 
7.22615 -3.01076 3.3675e-07 
7.53015 -3.01453 1.75078e-07 
7.83594 -3.0059 5.2857e-07 
8.12729 -2.98011 1.45903e-07 
8.4481 -3.00493 -2.39667e-08 
8.74252 -2.98115 -5.34194e-07 
9.04341 -3.05771 -3.22958e-07 
9.35221 -3.01805 3.82864e-08 
9.65718 -2.96243 3.3124e-09 
9.98646 -3.03835 -3.173e-07 
10.3253 -2.98618 -1.03471e-06 
10.6576 -3.07036 -6.26267e-07 
10.9878 -3.00216 1.56183e-07 
11.3355 -2.94418 -9.92135e-07 
11.6637 -3.06275 5.00953e-07 
12.0004 -2.98941 -2.32223e-06 
-12.0003 -2.68416 2.46949e-06 
-11.6605 -2.7339 -1.25067e-06 
-11.331 -2.63329 1.62381e-06 
-10.9922 -2.66534 -1.45585e-07 
-10.6485 -2.64785 5.2421e-07 
[...]
POINT_DATA 1978 
VECTORS vectors float
0.0302123 -0.0478184 0.998798 
0.0350429 -0.0297988 0.99956 
0.0393932 -0.018754 0.999672 
0.0413635 -0.0118394 0.999682 
0.044722 -0.00731457 0.999566 
0.0468881 -0.00749629 0.999452 
0.0454711 -0.00719959 0.999513 
0.0446829 -0.0063135 0.999553 
0.0442861 -0.004915 0.999571 
0.0443526 -0.0037082 0.99956 
0.0444014 -0.00258583 0.999557 
0.0446083 -0.00140537 0.999547 
0.04452 -0.000815282 0.999542 
0.0444748 -0.000247539 0.999537 
0.0443813 0.00015144 0.999542 
0.0445226 0.000748697 0.999541 
0.0445256 0.00140688 0.99935 
0.0443746 0.00204581 0.999548 
0.0443081 0.00308864 0.999556 
0.0442635 0.00412678 0.999555 
0.0438633 0.00503544 0.999565 
0.0436717 0.0064292 0.999559 
0.0432911 0.00797594 0.999555 
0.0426665 0.00990953 0.999561 
0.0413245 0.0134967 0.999756 
0.0404902 0.0182824 0.999351 
0.0387217 0.0241723 0.999482 
0.0356602 0.0346242 0.999299 
0.0313657 0.0489363 0.99884 
0.0244659 0.0706077 0.997737 
0.0153738 0.101183 0.995258 
0.00722061 0.132618 0.99163 
-0.00431868 0.175286 0.984956 
-0.0189454 0.231013 0.973182 
-0.0338177 0.304457 0.952298 
-0.0516748 0.404568 0.913356 
-0.0643803 0.52408 0.849172 
-0.0729587 0.652033 0.754815 
-0.0700944 0.802673 0.591717 
-0.0125845 0.996341 0.0709465 
0.0557345 0.885181 -0.460936 
0.0738621 0.693475 -0.716695 
0.0687405 0.567338 -0.820689 
0.0508622 0.39698 -0.916729 
0.0349045 0.31545 -0.948524 
0.0216332 0.246664 -0.969289 
0.00930378 0.188871 -0.982408 
-0.00625074 0.141906 -0.990328 
-0.0156105 0.100173 -0.995332 
-0.0237949 0.0704039 -0.997744 
-0.0310617 0.0486817 -0.99886 
-0.0350984 0.0349254 -0.999306 
-0.0381781 0.0251747 -0.999479 
-0.0404584 0.0179262 -0.999544 
-0.0415478 0.0132539 -0.999576 
-0.042744 0.0100631 -0.999561 
-0.0435751 0.00783346 -0.999547 
-0.0438415 0.00638391 -0.999553 
-0.0438127 0.00501827 -0.999566 
-0.0439808 0.00376666 -0.999565 
-0.0440812 0.00297531 -0.999562 
-0.0441643 0.00227248 -0.999553 
-0.0441557 0.00127426 -0.999553 
-0.0443309 0.0008101 -0.999542 
-0.044612 0.0001367 -0.999531 
-0.0445474 -0.000427239 -0.999526 
-0.0444583 -0.000803152 -0.999539 
-0.0444621 -0.00147569 -0.999533 
-0.0439451 -0.00228868 -0.999569 
-0.0441673 -0.00312965 -0.999563 
-0.0445508 -0.00487083 -0.999546 
-0.0443362 -0.00619211 -0.999561 
-0.0455357 -0.00706626 -0.999505 
-0.0469952 -0.00766678 -0.999441 
-0.0450345 -0.00693901 -0.999548 
-0.0415627 -0.012038 -0.999667 
-0.0395674 -0.0181425 -0.999672 
-0.0352106 -0.0291514 -0.999574 
-0.030601 -0.0481421 -0.998771 
0.0177636 -0.0518324 0.999093 
0.0245012 -0.0370634 1.00009 
0.0238184 -0.0239115 1.00074 
0.0273433 -0.0156508 1.00081 
0.0283335 -0.0108855 1.00105 
0.0315438 -0.00826231 1.00056 
0.0299995 -0.00611196 1.00102 
0.0296853 -0.00522928 1.00082 
0.0299849 -0.00470332 1.0006 
0.0289507 -0.0038148 1.00082 
0.0285476 -0.00278886 1.00102 
0.0290557 -0.00182155 1.00079 
0.0293876 -0.00110671 1.00077 
0.0301216 -0.000405507 1.00055 
0.0293394 0.000214225 1.00095 
0.030045 0.00083173 1.00074 
0.0291163 0.00150609 1.00096 
0.0291915 0.00214054 1.00078 
0.0293588 0.00302311 1.00078 
0.0293129 0.00405018 1.00078 
0.0290854 0.00519682 1.00077 
0.0288381 0.00664389 1.00074 
0.0284056 0.0083888 1.00072 
0.0290031 0.0110862 1.00049 
0.0276404 0.0151321 1.00066 
0.0252228 0.02098 1.00078 
0.0257288 0.029403 1.00039 
0.0218825 0.0424302 1.00001 
0.0188624 0.0609427 0.999082 
0.0142082 0.0874826 0.997151 
0.00776624 0.117394 0.994087 
0.00135334 0.152698 0.989235 
-0.00737765 0.202277 0.98022 
-0.0164574 0.266135 0.964524 
-0.026099 0.346407 0.938565 
-0.0323526 0.451174 0.89273 
-0.0407047 0.601415 0.798022 
-0.0321158 0.766144 0.640513 
-0.0292145 0.924254 0.374342 
-0.00374188 0.996258 -0.0209953 
0.0211788 0.941795 -0.328124 
0.0380053 0.735181 -0.675674 
0.0274935 0.557344 -0.830254 
0.0390153 0.455861 -0.889912 
0.0241401 0.346384 -0.938767 
0.0159939 0.26765 -0.96427 
0.00852328 0.203016 -0.980078 
-0.00351822 0.143702 -0.990588 
-0.00977742 0.106366 -0.995325 
-0.016617 0.0733306 -0.998275 
-0.01981 0.0524416 -0.999579 
-0.0232117 0.0368386 -1.00021 
-0.026326 0.0258388 -1.00047 
-0.0266687 0.0188741 -1.00044 
-0.0273681 0.0137244 -1.00088 
-0.0284961 0.0102875 -1.00071 
-0.0285107 0.00784786 -1.00075 
-0.0290926 0.00617745 -1.00075 
-0.0287788 0.00484863 -1.00078 
-0.0293098 0.00371862 -1.00077 
-0.0287934 0.00283697 -1.00078 
-0.0302379 0.00197625 -1.00055 
-0.0287398 0.0012939 -1.00096 
-0.0299174 0.000774608 -1.00073 
-0.0298213 0.000120543 -1.00073 
-0.0296858 -0.000420847 -1.00074 
-0.0296024 -0.000994039 -1.00075 
-0.0296368 -0.00184681 -1.00057 
-0.0282887 -0.00272187 -1.001 
-0.0305593 -0.00380195 -1.00056 
-0.0296286 -0.00488364 -1.0008 
-0.028061 -0.00503362 -1.00106 
-0.0322816 -0.00618266 -1.00053 
-0.0296211 -0.00825825 -1.00102 
-0.0314303 -0.0106528 -1.00074 
-0.0265887 -0.015635 -1.00082 
-0.0233138 -0.023998 -1.00074 
-0.0250417 -0.0366163 -1.0001 
-0.0178035 -0.0517529 -0.999098 
0.0121336 -0.0558181 0.998974 
0.0156235 -0.0368394 1.00051 
0.0169245 -0.0235208 1.00108 
0.0196103 -0.0148467 1.00078 
0.0198316 -0.0119521 1.00101 
0.0222002 -0.00880872 1.00099 
0.0210072 -0.00517332 1.00083 
0.0205728 -0.00398348 1.00104 
0.0207342 -0.00412461 1.00122 
0.0198018 -0.0038434 1.00102 
0.0196992 -0.00299188 1.00102 
0.0199554 -0.00192931 1.00081 
0.019349 -0.00116123 1.001 
0.019437 -0.000442087 1.00118 
0.0188875 0.000267614 1.001 
0.0195217 0.000890795 1.00098 
0.0193538 0.00140973 1.0008 
0.0196375 0.00195721 1.00099 
0.0200809 0.00279975 1.00099 
0.019616 0.00382542 1.00099 
0.0192233 0.00490547 1.00099 
0.0191455 0.00634242 1.00097 
0.0186138 0.00827043 1.00113 
0.0191712 0.0109415 1.0009 
0.0182999 0.014683 1.00087 
0.0180366 0.0199803 1.00079 
0.0175679 0.0285147 1.00059 
0.0160053 0.0405117 1.00021 
0.0137071 0.0593531 0.9993 
0.0110684 0.0859459 0.99718 
0.00510656 0.121965 0.993615 
0.000571089 0.160137 0.988288 
-0.00585691 0.212301 0.977977 
-0.0109596 0.279046 0.961295 
-0.0151197 0.364084 0.932109 
-0.0187991 0.481796 0.876787 
-0.0192699 0.606755 0.794873 
-0.016624 0.764144 0.643406 
-0.0132297 0.923343 0.376017 
0.000420003 0.994613 -0.0445768 
0.0103996 0.901987 -0.425191 
0.018759 0.748832 -0.661401 
0.0154101 0.599812 -0.800094 
0.0170978 0.44642 -0.895412 
0.0145788 0.364194 -0.932072 
0.00975418 0.278575 -0.961282 
0.0067785 0.219186 -0.976603 
-8.61036e-05 0.162933 -0.987444 
-0.00645521 0.120915 -0.993663 
-0.0108931 0.0850728 -0.997401 
-0.013194 0.0598005 -0.999461 
-0.0153022 0.0409422 -1.00021 
-0.0170194 0.0288712 -1.00041 
-0.0173086 0.020898 -1.00097 
-0.0179204 0.0154413 -1.00087 
-0.0187995 0.011336 -1.00092 
-0.0189848 0.0084856 -1.00095 
-0.0195099 0.00655041 -1.00077 
-0.018958 0.00503887 -1.00117 
-0.0189986 0.00382866 -1.00099 
-0.0181301 0.00287958 -1.00102 
-0.0191437 0.00209021 -1.00099 
-0.0190383 0.00146321 -1.00081 
-0.0195271 0.000896098 -1.00098 
-0.0195486 0.000261588 -1.00098 
-0.0193218 -0.000320351 -1.00098 
-0.0187715 -0.000973254 -1.00099 
-0.0188079 -0.00184944 -1.00119 
-0.0194284 -0.00293274 -1.00101 
-0.0203449 -0.00385472 -1.001 
-0.0200748 -0.00409435 -1.00102 
-0.0198205 -0.00380221 -1.00105 
-0.0224282 -0.00531778 -1.001 
-0.0210581 -0.00825593 -1.00102 
-0.0217821 -0.011185 -1.00077 
-0.0196674 -0.0149505 -1.00098 
-0.0169324 -0.0245375 -1.00105 
-0.015926 -0.0364838 -1.00052 
-0.0119455 -0.056218 -0.998953 
0.00856276 -0.0572486 0.998925 
0.0106953 -0.039338 1.0005 
0.0107288 -0.0262469 1.0009 
0.0115785 -0.0152886 1.00132 
0.012417 -0.0126824 1.00092 
0.0129557 -0.00822825 1.00137 
0.0116992 -0.00346974 1.00119 
0.0111304 -0.002946 1.00118 
0.0113766 -0.00370598 1.00097 
0.0107104 -0.00375077 1.00116 
0.0105634 -0.00304439 1.00096 
0.0110669 -0.00200313 1.00133 
0.0115071 -0.00107755 1.00112 
0.0111336 -0.000336912 1.00112 
0.0110889 0.000391793 1.00093 
0.0115283 0.000966675 1.00111 
0.0116607 0.0014491 1.0013 
0.0117622 0.00208553 1.00111 
0.0115995 0.00298411 1.00111 
0.0113244 0.00392043 1.0011 
0.0110942 0.00488151 1.00109 
0.0106453 0.00623541 1.00108 
0.0107319 0.00830738 1.00106 
0.0110099 0.0112336 1.00103 
0.0105843 0.0153578 1.0008 
0.00969959 0.021267 1.00108 
0.0101981 0.0296384 1.0005 
0.00958404 0.0423384 1.00022 
0.00829013 0.0615414 0.999247 
0.0066047 0.0904805 0.997215 
0.00411298 0.126172 0.99312 
0.000826051 0.165836 0.987244 
-0.0035896 0.216728 0.977218 
-0.00724702 0.283598 0.9599 
-0.0095722 0.370496 0.929731 
-0.00907896 0.467876 0.884501 
-0.00855335 0.613573 0.789553 
-0.00693119 0.788112 0.613428 
-0.00541484 0.936637 0.340321 
-0.000566018 0.994304 -0.0228854 
0.00212867 0.916207 -0.391373 
0.00642176 0.755409 -0.653386 
0.00467432 0.608975 -0.793339 
0.0093335 0.466024 -0.885486 
0.00578301 0.348535 -0.938218 
0.00603076 0.286576 -0.959011 
0.00342526 0.21872 -0.976774 
0.000410795 0.170858 -0.986293 
-0.00442589 0.12948 -0.992637 
-0.00670198 0.094562 -0.996633 
-0.00738458 0.0667474 -0.998748 
-0.0087276 0.044337 -1.00017 
-0.00991635 0.0300598 -1.00087 
-0.00978454 0.0220752 -1.00087 
-0.0102536 0.016088 -1.0008 
-0.0105036 0.011503 -1.00104 
-0.0109662 0.00845605 -1.00107 
-0.0114457 0.00638282 -1.00126 
-0.0110151 0.0049305 -1.00091 
-0.0112284 0.00384119 -1.0011 
-0.0107986 0.00293206 -1.00112 
-0.0114437 0.00216168 -1.00131 
-0.0116302 0.00156416 -1.00112 
-0.0116894 0.000991112 -1.00111 
-0.0117499 0.000329311 -1.00111 
-0.0115838 -0.000416931 -1.00111 
-0.0107111 -0.00118439 -1.00112 
-0.0107057 -0.00207716 -1.00113 
-0.0105291 -0.00299947 -1.00114 
-0.0119033 -0.00369914 -1.00114 
-0.0110207 -0.0036363 -1.00117 
-0.0102124 -0.00291793 -1.0012 
-0.0125098 -0.00381191 -1.00119 
-0.0128659 -0.0081709 -1.00117 
-0.014225 -0.0125954 -1.0011 
-0.0119668 -0.0159748 -1.00109 
-0.010252 -0.0269526 -1.00088 
-0.0109423 -0.0394214 -1.00049 
-0.00860066 -0.0573291 -0.998916 
0.00599494 -0.0591399 0.998822 
0.00759437 -0.0394243 1.00075 
0.00751988 -0.0279519 1.00068 
0.00847907 -0.0170546 1.00113 
0.00865602 -0.0128962 1.00118 
0.0086226 -0.00751817 1.00123 
0.0074468 -0.00253487 1.00124 
0.00688516 -0.00225207 1.00122 
0.00701287 -0.00341667 1.00141 
0.00678148 -0.00370176 1.00118 
0.00660771 -0.00309448 1.00117 
0.00718238 -0.002082 1.00116 
0.00723725 -0.00115318 1.00116 
0.00744913 -0.000256234 1.00115 
0.00751443 0.000564524 1.00115 
0.00779787 0.001176 1.00115 
0.00785881 0.00173429 1.00115 
0.00781068 0.0024261 1.00115 
0.00779888 0.003222 1.00114 
0.0077415 0.00406183 1.00112 
0.00747024 0.00502281 1.0011 
0.00713134 0.00652402 1.00109 
0.00701116 0.00881357 1.00089 
0.00734074 0.0118492 1.00125 
0.00693717 0.0164545 1.00101 
0.00645955 0.023276 1.0007 
0.0065116 0.0322354 1.00084 
0.00604106 0.0457256 1.00013 
0.0055408 0.0685737 0.998829 
0.00481841 0.0968365 0.996465 
0.00359383 0.142308 0.990977 
0.0019278 0.184563 0.983964 
-0.00150576 0.238859 0.972108 
-0.00451643 0.319161 0.948733 
-0.00399497 0.407801 0.913747 
-0.00348202 0.542264 0.840772 
-0.00193068 0.707677 0.705969 
0.000862045 0.787956 0.612894 
-0.000885113 0.909633 0.407173 
-0.0013654 0.971239 0.212082 
-0.0014513 0.962953 -0.250461 
-0.000917715 0.823298 -0.563956 
-0.00213794 0.676954 -0.735231 
0.00214449 0.490954 -0.871978 
0.00230885 0.375821 -0.927703 
-1.4125e-05 0.279028 -0.961351 
-0.000441467 0.227718 -0.974779 
-0.0021052 0.167561 -0.98709 
-0.00450631 0.127172 -0.993002 
-0.00511648 0.0956306 -0.996605 
-0.00520604 0.064838 -0.99911 
-0.00624173 0.0417899 -1.00033 
-0.00658579 0.0293646 -1.00075 
-0.0066526 0.0210903 -1.00074 
-0.00701299 0.0151557 -1.0012 
-0.00703301 0.0110463 -1.00106 
-0.00714586 0.00803796 -1.00109 
-0.00744579 0.00606176 -1.0011 
-0.00736808 0.00469998 -1.00111 
-0.00759135 0.00375473 -1.00112 
-0.0074206 0.00289741 -1.00114 
-0.00801091 0.00213666 -1.00114 
-0.00777462 0.00154653 -1.00115 
-0.0077016 0.000993307 -1.00115 
-0.00773494 0.000294841 -1.00115 
-0.00725261 -0.000513058 -1.00116 
-0.00735457 -0.00146085 -1.00115 
-0.00710414 -0.00235487 -1.00097 
-0.0065002 -0.0032265 -1.00117 
-0.00735492 -0.00375567 -1.00118 
-0.0067532 -0.00351747 -1.0012 
-0.00657145 -0.00224912 -1.00123 
-0.00799189 -0.0027547 -1.00123 
-0.0079726 -0.00755227 -1.00122 
-0.0093795 -0.0133405 -1.00116 
-0.00826475 -0.0170564 -1.00112 
-0.00736018 -0.0283139 -1.00087 
-0.00759453 -0.041194 -1.00045 
-0.00574768 -0.0589994 -0.998835 
0.00484724 -0.0610452 0.998705 
0.00568896 -0.0444032 1.00013 
0.00575817 -0.0316438 1.00079 
0.00597383 -0.0194282 1.00109 
0.00560522 -0.0137192 1.00118 
0.00515072 -0.00835244 1.00124 
0.00422197 -0.00270027 1.00126 
0.00369392 -0.00136652 1.00124 
0.00309198 -0.00287243 1.00122 
0.00289287 -0.00370403 1.0012 
0.002543 -0.0034228 1.00119 
0.00277564 -0.00253463 1.00118 
0.00257091 -0.00159281 1.00117 
0.00266321 -0.000630496 1.00117 
0.00285213 0.000260372 1.00117 
0.00289232 0.00103351 1.00117 
0.00334129 0.00163355 1.00117 
0.00364953 0.00223142 1.00116 
0.0035554 0.00289396 1.00115 
0.00360219 0.00357896 1.00113 
0.00339035 0.00437543 1.00111 
0.00313004 0.0055438 1.0011 
0.00281287 0.00741512 1.00109 
0.00269684 0.0100947 1.00108 
0.00291668 0.0136526 1.00107 
0.00275349 0.0191768 1.001 
0.00291916 0.0276694 1.00081 
0.00285443 0.0384056 1.00049 
0.00331897 0.0562082 0.999652 
0.00293261 0.0818198 0.997876 
0.00313158 0.116803 0.994364 
0.00297449 0.16784 0.987026 
0.00293218 0.220158 0.976454 
0.00119691 0.267998 0.964522 
0.00112586 0.343666 0.940365 
0.000893036 0.46178 0.887855 
0.00137308 0.615152 0.788393 
0.000896679 0.737003 0.674711 
-0.000599157 0.934962 0.34601 
-0.00193908 0.982687 -0.15312 
-0.00258605 0.955443 -0.280954 
-0.00349989 0.807424 -0.586427 
-0.00209649 0.833133 -0.549895 
-0.00291424 0.534412 -0.846241 
-0.00259568 0.407477 -0.914033 
-0.0032718 0.309437 -0.952089 
-0.00416097 0.231514 -0.973972 
-0.00339117 0.181748 -0.984275 
-0.00393935 0.133518 -0.992217 
-0.00309368 0.0999769 -0.996207 
-0.00289528 0.0728822 -0.998588 
-0.00315281 0.0465065 -1.00018 
-0.00276701 0.0314316 -1.00075 
-0.00276008 0.022141 -1.00114 
-0.00292903 0.0159793 -1.00085 
-0.00276573 0.0115164 -1.00107 
-0.00287968 0.00839881 -1.00109 
-0.00309593 0.00623992 -1.00111 
-0.00331506 0.00487046 -1.00111 
-0.00329271 0.00388081 -1.00113 
-0.003095 0.00312275 -1.00114 
-0.00340857 0.00233927 -1.00116 
-0.00327474 0.00171112 -1.00117 
-0.00295974 0.00110987 -1.00118 
-0.00301107 0.000439872 -1.00118 
-0.00230649 -0.000400952 -1.00118 
-0.00276144 -0.00132333 -1.00118 
-0.00223879 -0.00229559 -1.00136 
-0.0019769 -0.00320706 -1.00119 
-0.00286574 -0.0037587 -1.00121 
-0.00317785 -0.0032813 -1.00122 
-0.00299181 -0.00171815 -1.00124 
-0.00463926 -0.00182945 -1.00125 
-0.00487104 -0.00678528 -1.00125 
-0.00651582 -0.0130929 -1.00118 
-0.00629967 -0.017613 -1.00111 
-0.00558155 -0.0282074 -1.00087 
-0.00587058 -0.0413409 -1.00045 
-0.00511585 -0.0602714 -0.998755 
0.00355956 -0.0599447 0.998773 
0.00352561 -0.0409702 1.00069 
0.00316191 -0.0276535 1.0009 
0.00229063 -0.0160039 1.00115 
0.00167798 -0.0112806 1.00121 
0.000945564 -0.00583813 1.00125 
0.000440627 -0.00108725 1.00125 
0.000141567 -0.00144986 1.00123 
-3.69367e-05 -0.00329949 1.0012 
3.11531e-05 -0.00385594 1.00119 
0.000133316 -0.00324388 1.00117 
0.000202675 -0.00229903 1.00116 
0.000259759 -0.00127302 1.00116 
0.000321847 -0.000299052 1.00117 
0.000505941 0.000576991 1.00116 
0.000604798 0.00131509 1.00116 
0.000711051 0.00195994 1.00116 
0.000826538 0.00261499 1.00115 
0.000826451 0.00327191 1.00113 
0.000847291 0.0038986 1.00111 
0.000842877 0.00475227 1.00109 
0.000773908 0.00615576 1.00108 
0.000647681 0.00833928 1.00108 
0.000522662 0.0114189 1.00108 
0.000449845 0.0159582 1.00106 
0.000256778 0.0235221 1.00094 
1.28332e-05 0.0333024 1.00069 
0.000251569 0.0479227 1.00014 
0.000347155 0.0700041 0.998846 
0.000880036 0.105654 0.995465 
0.00168639 0.145719 0.990828 
0.00337347 0.222232 0.976213 
0.00356266 0.30113 0.95472 
0.00330896 0.409443 0.913344 
0.00268025 0.540508 0.84219 
0.00177136 0.634184 0.773178 
0.000962075 0.790659 0.610923 
0.00737155 0.804282 0.591097 
0.00151127 0.912487 0.404701 
0.00643184 0.923953 0.375391 
-0.00760184 0.9295 -0.369429 
-0.00572666 0.822097 -0.563107 
-0.000435735 0.639736 -0.769566 
-0.00283193 0.704183 -0.709254 
-0.00354973 0.540195 -0.841698 
-0.00480159 0.345746 -0.939678 
-0.00466841 0.257499 -0.967432 
-0.00366807 0.169124 -0.98698 
-0.00198066 0.125782 -0.993307 
-0.000727049 0.0938928 -0.996861 
-0.000426948 0.0659061 -0.999109 
-0.000214251 0.0436275 -1.00033 
-8.62068e-05 0.0296704 -1.00081 
-0.000265326 0.0205821 -1.00098 
-0.000363824 0.0147024 -1.00104 
-0.000487474 0.0106553 -1.00107 
-0.00063058 0.00782734 -1.00108 
-0.000692458 0.00595045 -1.00109 
-0.000806971 0.00463666 -1.0011 
-0.000778604 0.00380156 -1.00111 
-0.000730937 0.00307233 -1.00113 
-0.000761307 0.00240225 -1.00115 
-0.000768778 0.00168925 -1.00117 
-0.000631107 0.00102037 -1.00118 
-0.000555525 0.000290684 -1.00117 
-0.000411807 -0.00063115 -1.00117 
-0.000264076 -0.00156927 -1.00099 
-0.000115788 -0.00251981 -1.00117 
4.0141e-06 -0.00343473 -1.00117 
-0.00010827 -0.00383447 -1.0012 
-1.69575e-05 -0.00327242 -1.00121 
-3.83505e-06 -0.00137784 -1.00123 
-0.000886141 -0.00147626 -1.00125 
-0.00116999 -0.00678502 -1.00124 
-0.00269962 -0.0127188 -1.00119 
-0.00257744 -0.0170271 -1.00113 
-0.00288596 -0.0283761 -1.00087 
-0.00408694 -0.042052 -1.00042 
-0.00417633 -0.0598952 -0.998769 
0.00335863 -0.0599348 0.998755 
0.00272061 -0.04186 1.00022 
0.00197167 -0.0284723 1.00086 
0.00126246 -0.0161338 1.00133 
0.000712591 -0.0115026 1.00099 
0.000254465 -0.00593028 1.00123 
-9.0113e-06 -0.00124575 1.00123 
2.7559e-05 -0.00133434 1.00121 
0.000327772 -0.00329095 1.00119 
0.000694347 -0.00410349 1.00117 
0.000874984 -0.0036163 1.00116 
0.00131126 -0.00264641 1.00115 
0.00146744 -0.00158118 1.00115 
0.00169216 -0.000538882 1.00115 
0.00177026 0.000383938 1.00115 
0.00192312 0.00114948 1.00115 
0.00203733 0.00191697 1.00133 
0.00199435 0.00266251 1.00095 
0.0018912 0.0033222 1.00112 
0.00189886 0.00392768 1.0011 
0.00189511 0.00464535 1.00108 
0.00198363 0.00587146 1.00106 
0.00195626 0.00782716 1.00105 
0.00186806 0.0106948 1.00123 
0.00169025 0.0151686 1.00104 
0.00101706 0.0219796 1.00077 
0.000687288 0.0315493 1.00095 
0.000160818 0.044887 1.00008 
0.000110622 0.0648385 0.999443 
0.000200513 0.0957713 0.996726 
0.00104204 0.137295 0.991642 
0.00231374 0.185112 0.984035 
0.00342539 0.29104 0.958094 
0.00316303 0.409661 0.912953 
0.00170077 0.517276 0.856135 
0.00134482 0.680158 0.73294 
0.00520986 0.731925 0.678205 
0.0115017 0.988923 0.147554 
0.0102006 0.992592 0.121524 
0.00501014 0.996104 0.0896317 
-0.00301775 0.995681 -0.0586446 
-0.00546904 0.983175 -0.183928 
-0.00324211 0.721775 -0.688254 
-0.00222372 0.64908 -0.760507 
-0.00296842 0.505322 -0.863376 
-0.00438758 0.470866 -0.882989 
-0.00406096 0.346225 -0.939291 
-0.00381831 0.197998 -0.981492 
-0.00229881 0.148835 -0.990167 
-0.000911115 0.107059 -0.995602 
-0.000109411 0.0738154 -0.998604 
-6.59164e-05 0.0505603 -0.999821 
-0.00046318 0.033816 -1.00072 
-0.000979373 0.0226492 -1.00098 
-0.001345 0.0155574 -1.00105 
-0.00174851 0.0112408 -1.00106 
-0.00192521 0.00820205 -1.00106 
-0.0020677 0.00619596 -1.00106 
-0.00177378 0.00488346 -1.00107 
-0.00183803 0.00409462 -1.00126 
-0.00167298 0.00344402 -1.00093 
-0.00196715 0.00273913 -1.00112 
-0.00194544 0.0019423 -1.00114 
-0.00206017 0.00121071 -1.00116 
-0.00196748 0.000406119 -1.00116 
-0.0018355 -0.000457768 -1.00116 
-0.00170571 -0.00153223 -1.00135 
-0.00158327 -0.00259858 -1.00115 
-0.00120286 -0.00362012 -1.00116 
-0.000650795 -0.00410282 -1.00119 
-0.000187464 -0.00326225 -1.0012 
-9.18762e-05 -0.00121217 -1.00121 
0.000167158 -0.00101578 -1.00123 
-0.000147894 -0.00557563 -1.00122 
-0.000671226 -0.0115688 -1.00119 
-0.00120606 -0.0157827 -1.00113 
-0.00173935 -0.0271623 -1.00088 
-0.00261442 -0.0416127 -1.00043 
-0.00299399 -0.0594514 -0.998797 
0.0026469 -0.0590717 0.998799 
0.0023617 -0.0409322 1.00043 