# vtk DataFile Version 3.0 
Exported using Morpho https://github.com/Morpho-lang/morpho 
ASCII 
DATASET UNSTRUCTURED_GRID 

POINTS 1978 float 
-12 -4 -1.13962e-11 
-11.6179 -4 4.54124e-10 
-11.3235 -4 4.19775e-10 
-10.9802 -4 3.36255e-10 
-10.659 -4 3.43375e-10 
-10.3067 -4 1.61438e-10 
-9.98736 -4 1.16592e-10 
-9.65454 -4 9.03983e-11 
-9.31233 -4 7.22759e-11 
-8.99345 -4 5.79534e-11 
-8.68938 -4 5.58201e-11 
-8.38139 -4 4.70995e-11 
-8.07933 -4 2.74631e-11 
-7.7745 -4 -1.72021e-11 
-7.48147 -4 -7.51341e-12 
-7.17723 -4 -1.91511e-11 
-6.88587 -4 -3.82829e-11 
-6.5873 -4 -2.83734e-11 
-6.28427 -4 -5.7158e-11 
-5.97942 -4 -7.31007e-11 
-5.67066 -4 -1.01662e-10 
-5.36716 -4 -1.23693e-10 
-5.0701 -4 -1.54729e-10 
-4.77883 -4 -2.43994e-10 
-4.47456 -4 -2.98646e-10 
-4.18398 -4 -3.22689e-10 
-3.90043 -4 -5.14282e-10 
-3.58664 -4 -6.8131e-10 
-3.28432 -4 -7.95653e-10 
-2.99227 -4 -7.6565e-10 
-2.68475 -4 -7.90173e-10 
-2.46445 -4 -1.78284e-10 
-2.21418 -4 -3.23339e-10 
-1.95714 -4 -4.02811e-10 
-1.7136 -4 -1.74415e-09 
-1.45611 -4 -6.69114e-09 
-1.20072 -4 -3.68359e-08 
-0.916251 -4 -1.56172e-08 
-0.627829 -4 -5.63231e-08 
-0.0575818 -4 -3.47106e-09 
0.478931 -4 9.78808e-08 
0.830261 -4 5.08059e-08 
1.14075 -4 4.43321e-08 
1.46543 -4 6.21583e-09 
1.69105 -4 2.07868e-09 
1.91931 -4 1.2464e-09 
2.16499 -4 3.06376e-10 
2.43749 -4 1.13014e-09 
2.71579 -4 3.47636e-10 
2.99168 -4 8.29985e-10 
3.29625 -4 7.39509e-10 
3.58 -4 6.00626e-10 
3.87705 -4 5.31345e-10 
4.19524 -4 4.11123e-10 
4.49 -4 2.58409e-10 
4.78722 -4 2.35278e-10 
5.09105 -4 1.80698e-10 
5.39543 -4 1.29429e-10 
5.70725 -4 9.41643e-11 
6.00445 -4 7.41345e-11 
6.30387 -4 5.46801e-11 
6.5855 -4 4.2213e-11 
6.89002 -4 1.25313e-11 
7.1747 -4 2.3368e-11 
7.47226 -4 4.7031e-13 
7.77177 -4 5.57463e-12 
8.06994 -4 -1.78254e-11 
8.35893 -4 -2.17011e-11 
8.65647 -4 -4.98012e-11 
8.94134 -4 -6.37839e-11 
9.28134 -4 -1.01024e-10 
9.61398 -4 -7.37659e-11 
9.91038 -4 -9.35208e-11 
10.2781 -4 -1.98429e-10 
10.5992 -4 -3.42784e-10 
10.9898 -4 -3.70167e-10 
11.3102 -4 -4.03865e-10 
11.6 -4 -4.44058e-10 
12 -4 3.77886e-12 
-12 -3.62238 -3.96037e-10 
-11.7084 -3.70851 -1.38297e-10 
-11.3646 -3.6252 -5.88259e-11 
-11.0563 -3.67725 -8.81741e-11 
-10.7183 -3.65468 -9.00298e-11 
-10.3973 -3.6884 -6.98781e-11 
-10.055 -3.66054 -4.55623e-11 
-9.73339 -3.68257 -4.04067e-11 
-9.39067 -3.68858 -3.09722e-11 
-9.05056 -3.67198 -2.32092e-11 
-8.73591 -3.66223 -1.80158e-11 
-8.42664 -3.67099 -1.39746e-11 
-8.11598 -3.66582 -8.96257e-12 
-7.80981 -3.66982 -3.42908e-12 
-7.50713 -3.65965 1.77532e-12 
-7.20618 -3.67413 5.8547e-12 
-6.89647 -3.66278 1.15137e-11 
-6.5933 -3.66847 1.76141e-11 
-6.28124 -3.66706 2.24759e-11 
-5.96803 -3.67256 3.02608e-11 
-5.6581 -3.66949 4.03447e-11 
-5.35366 -3.66712 5.34737e-11 
-5.05337 -3.66645 6.96123e-11 
-4.7393 -3.68749 8.92613e-11 
-4.43351 -3.67715 1.17516e-10 
-4.13311 -3.67097 1.6663e-10 
-3.81534 -3.69808 1.94788e-10 
-3.49797 -3.69071 2.68663e-10 
-3.19196 -3.68816 2.79215e-10 
-2.88915 -3.71452 3.52922e-10 
-2.64541 -3.60845 3.83631e-10 
-2.4043 -3.6631 1.22842e-10 
-2.13954 -3.68623 -3.72417e-12 
-1.8716 -3.66421 6.78767e-10 
-1.60664 -3.66576 2.15688e-09 
-1.33274 -3.6308 5.13557e-09 
-1.04071 -3.62169 1.46096e-08 
-0.729344 -3.54885 2.08659e-08 
-0.361867 -3.70977 2.92733e-08 
0.0238927 -3.49137 -2.56376e-08 
0.351211 -3.66429 2.38895e-08 
0.749079 -3.61563 -1.25347e-08 
1.0898 -3.5845 -1.29624e-08 
1.38591 -3.69164 -1.93093e-09 
1.66594 -3.61546 -2.9814e-09 
1.90121 -3.65572 -2.23066e-10 
2.15525 -3.69757 -2.29893e-10 
2.43811 -3.71663 -2.23746e-10 
2.72097 -3.69514 -2.2275e-10 
3.02372 -3.69967 -3.05025e-10 
3.31569 -3.66436 -2.67498e-10 
3.61703 -3.67719 -2.33857e-10 
3.93455 -3.69731 -1.93327e-10 
4.235 -3.67055 -1.43089e-10 
4.53351 -3.67177 -1.12643e-10 
4.83671 -3.67632 -8.44088e-11 
5.14083 -3.6731 -6.38235e-11 
5.45324 -3.67935 -4.98954e-11 
5.75455 -3.6625 -3.71291e-11 
6.05871 -3.6651 -2.95163e-11 
6.34782 -3.64395 -2.0511e-11 
6.65295 -3.67465 -1.52257e-11 
6.94776 -3.65473 -1.07012e-11 
7.24706 -3.67033 -5.71641e-12 
7.54894 -3.67084 -5.9789e-13 
7.84837 -3.66607 3.70605e-12 
8.14451 -3.6565 8.31948e-12 
8.43926 -3.66449 1.40692e-11 
8.73105 -3.64466 1.81339e-11 
9.05318 -3.69858 2.47501e-11 
9.38711 -3.68757 3.03079e-11 
9.69696 -3.64311 3.59772e-11 
10.0362 -3.71008 5.02667e-11 
10.3701 -3.66342 6.89092e-11 
10.7335 -3.71958 9.01879e-11 
11.0664 -3.65577 8.01121e-11 
11.3671 -3.6193 6.45074e-11 
11.7131 -3.7233 1.39578e-10 
12 -3.61799 4.06267e-10 
-12 -3.32821 -2.63205e-10 
-11.6291 -3.36101 -7.20794e-11 
-11.2835 -3.28468 -1.39807e-11 
-10.9732 -3.33991 -5.4934e-11 
-10.6566 -3.31003 -8.09971e-11 
-10.342 -3.35804 -6.29818e-11 
-10.0226 -3.32308 -4.01909e-11 
-9.70909 -3.34405 -3.01806e-11 
-9.39513 -3.37468 -2.33966e-11 
-9.08624 -3.33528 -1.66012e-11 
-8.77633 -3.32741 -1.06528e-11 
-8.46812 -3.33815 -7.93109e-12 
-8.1611 -3.33724 -6.96401e-12 
-7.85158 -3.33824 -3.89422e-12 
-7.54954 -3.32288 4.89374e-13 
-7.24888 -3.338 4.69704e-12 
-6.94773 -3.33842 8.51435e-12 
-6.63793 -3.33597 1.16032e-11 
-6.33064 -3.3446 1.57723e-11 
-6.01532 -3.34476 2.22919e-11 
-5.7084 -3.341 2.95775e-11 
-5.40381 -3.33518 3.83045e-11 
-5.10609 -3.33391 5.18121e-11 
-4.8063 -3.36799 7.67268e-11 
-4.50495 -3.36005 1.02422e-10 
-4.20123 -3.35081 1.28194e-10 
-3.88915 -3.38571 1.72983e-10 
-3.57464 -3.38686 2.1784e-10 
-3.25929 -3.37734 2.52468e-10 
-2.95347 -3.39203 2.32394e-10 
-2.66936 -3.27444 1.67599e-10 
-2.39118 -3.32183 7.69726e-11 
-2.13341 -3.37117 2.22627e-10 
-1.86993 -3.33123 1.66041e-10 
-1.59744 -3.32492 6.70942e-10 
-1.31227 -3.26901 3.30611e-09 
-1.02882 -3.2096 6.39344e-09 
-0.683046 -3.11891 1.39214e-08 
-0.350117 -3.25715 -5.70411e-11 
0.0480925 -2.99993 -5.37417e-08 
0.41723 -3.20012 -3.28185e-09 
0.77456 -3.20868 4.98772e-09 
1.07174 -3.11955 1.12364e-10 
1.35818 -3.33086 -3.23242e-09 
1.624 -3.26036 -3.41099e-10 
1.89435 -3.28092 2.22093e-10 
2.13151 -3.37631 -6.20625e-11 
2.39942 -3.43038 -4.99269e-11 
2.68381 -3.39266 -2.63322e-10 
2.97341 -3.3924 -2.02881e-10 
3.26565 -3.34205 -2.5891e-10 
3.57221 -3.35003 -2.06852e-10 
3.87545 -3.3837 -1.80278e-10 
4.17842 -3.34945 -1.35322e-10 
4.4833 -3.34219 -9.73063e-11 
4.7816 -3.34986 -7.2486e-11 
5.0818 -3.34673 -5.3547e-11 
5.38838 -3.35843 -4.1397e-11 
5.69581 -3.33211 -2.98231e-11 
6.00186 -3.33542 -2.22459e-11 
6.30528 -3.29995 -1.63192e-11 
6.60861 -3.3429 -1.25823e-11 
6.91165 -3.32044 -8.34944e-12 
7.21636 -3.33883 -4.88896e-12 
7.52093 -3.3431 -5.49004e-13 
7.82744 -3.33383 3.21185e-12 
8.13047 -3.32188 6.18368e-12 
8.43509 -3.32154 8.2581e-12 
8.75435 -3.32646 1.14782e-11 
9.07534 -3.38423 1.68783e-11 
9.38831 -3.3514 2.31304e-11 
9.70365 -3.30328 2.99085e-11 
10.0173 -3.39068 4.06321e-11 
10.3159 -3.31223 6.15402e-11 
10.6386 -3.40438 8.09079e-11 
10.9682 -3.34197 5.87572e-11 
11.2949 -3.26623 7.75207e-12 
11.6329 -3.37573 7.42215e-11 
12 -3.31789 2.9544e-10 
-12 -3.00752 -2.25638e-10 
-11.6563 -3.05105 -4.26295e-11 
-11.3126 -2.96985 3.16447e-11 
-10.9616 -2.9881 -4.8889e-12 
-10.6281 -2.97875 -3.73905e-11 
-10.299 -3.01401 -3.41868e-11 
-9.975 -2.98361 -1.81734e-11 
-9.66084 -3.00994 -1.70379e-11 
-9.35525 -3.02602 -1.17858e-11 
-9.0434 -2.99545 -3.97057e-12 
-8.73374 -2.99094 -1.0994e-12 
-8.42992 -3.00427 -1.19113e-12 
-8.11963 -3.00933 -1.6378e-12 
-7.82233 -2.99979 -1.16162e-12 
-7.52036 -2.98619 -3.55775e-13 
-7.22059 -3.00297 1.04788e-12 
-6.91581 -3.00999 2.11541e-12 
-6.60649 -3.00892 3.91308e-12 
-6.29465 -3.02395 7.53387e-12 
-5.99066 -3.01352 9.57807e-12 
-5.68587 -3.01128 1.21204e-11 
-5.38765 -3.0012 1.49719e-11 
-5.09023 -3.00256 1.90524e-11 
-4.79547 -3.04139 3.07915e-11 
-4.4929 -3.03654 4.25436e-11 
-4.19082 -3.02548 5.44522e-11 
-3.89083 -3.06966 9.08602e-11 
-3.57788 -3.07579 1.08537e-10 
-3.26542 -3.06797 1.27565e-10 
-2.94757 -3.06934 1.72209e-10 
-2.66897 -2.90974 -2.69991e-11 
-2.4013 -2.98703 3.3436e-10 
-2.13733 -3.0351 -4.78175e-10 
-1.8676 -2.99272 -5.8714e-10 
-1.58885 -2.96864 -2.49299e-09 
-1.32434 -2.85524 -3.73408e-09 
-1.00523 -2.78927 -7.8229e-09 
-0.635481 -2.64927 -4.20911e-08 
-0.279057 -2.70837 7.76425e-08 
0.0302351 -2.28946 -1.41719e-07 
0.353601 -2.61967 7.26814e-09 
0.710363 -2.73815 2.87923e-08 
0.992119 -2.606 -1.35491e-08 
1.32871 -2.92109 -7.81802e-10 
1.62188 -2.87006 3.37198e-10 
1.86236 -2.93343 4.50735e-11 
2.14392 -3.03027 -7.0803e-11 
2.39403 -3.12559 -3.29477e-12 
2.6556 -3.0635 -1.06175e-11 
2.93615 -3.0753 -2.08129e-10 
3.22676 -3.01764 -1.19139e-10 
3.53909 -3.03375 -1.09324e-10 
3.86308 -3.05697 -9.5682e-11 
4.16991 -3.02511 -5.78263e-11 
4.47584 -3.02084 -4.20152e-11 
4.78551 -3.02054 -2.90667e-11 
5.08438 -3.01531 -2.14348e-11 
5.38289 -3.03427 -1.75288e-11 
5.68349 -3.00191 -1.12374e-11 
5.98846 -3.00565 -8.08387e-12 
6.29525 -2.97027 -4.62849e-12 
6.6019 -3.00948 -4.3602e-12 
6.91509 -2.99732 -2.36247e-12 
7.22669 -3.00935 -1.01358e-12 
7.52993 -3.0128 4.81754e-13 
7.83454 -3.00213 1.50106e-12 
8.13243 -2.98821 1.44758e-12 
8.44349 -2.99944 1.37796e-12 
8.74018 -2.98057 3.52499e-13 
9.04358 -3.05386 5.54815e-12 
9.35568 -3.02086 1.03261e-11 
9.65699 -2.96072 1.39818e-11 
9.98551 -3.03778 2.32262e-11 
10.3248 -2.98736 2.88229e-11 
10.6578 -3.0692 4.99513e-11 
10.9884 -3.00157 5.79456e-12 
11.3358 -2.94355 -3.64757e-11 
11.6634 -3.06283 4.32608e-11 
12 -2.9889 2.31766e-10 
-12 -2.68658 -2.1827e-10 
-11.6533 -2.72313 -1.15785e-11 
-11.328 -2.63574 5.39887e-11 
-10.992 -2.66783 2.77674e-11 
-10.6497 -2.64787 -2.83311e-12 
-10.3133 -2.67844 -6.7949e-12 
-9.97643 -2.66245 -1.71106e-12 
-9.63787 -2.66744 -2.85029e-12 
-9.32398 -2.6855 2.11012e-13 
-9.00496 -2.66145 4.76597e-12 
-8.69376 -2.65495 5.35175e-12 
-8.37785 -2.68153 3.00638e-12 
-8.07589 -2.66832 1.58355e-12 
-7.76822 -2.66707 -7.18136e-14 
-7.45576 -2.65575 -1.0249e-12 
-7.15147 -2.67302 -1.51792e-12 
-6.84183 -2.68502 -1.9237e-12 
-6.52695 -2.68949 -2.00281e-12 
-6.227 -2.69002 -2.03885e-12 
-5.92087 -2.68544 -2.84967e-12 
-5.62338 -2.67653 -3.53346e-12 
[...]
POINT_DATA 1978 
VECTORS vectors float
0.000882566 -0.00311494 0.999995 
0.00258966 -0.0220183 0.999755 
0.00214403 -0.0206777 0.999784 
0.00225867 -0.0138711 0.999902 
0.00235856 -0.00977246 0.99995 
0.00240859 -0.00737194 0.99997 
0.00243663 -0.00618086 0.999978 
0.00242293 -0.00512973 0.999984 
0.00239481 -0.00419797 0.999989 
0.00232612 -0.00331248 0.999992 
0.0022769 -0.00241035 0.999995 
0.00226265 -0.00157604 0.999997 
0.00226145 -0.000848021 0.999997 
0.00226019 -0.000281446 0.999998 
0.00225069 0.000272539 0.999998 
0.00225138 0.000843707 0.999997 
0.00226613 0.00137196 0.999997 
0.00225003 0.00204814 0.999996 
0.0022537 0.00287562 0.999994 
0.00225404 0.00384013 0.99999 
0.00224066 0.0050066 0.999985 
0.00222147 0.00635055 0.999978 
0.00220266 0.00810422 0.999965 
0.00215263 0.0105465 0.999942 
0.00210241 0.0142033 0.999897 
0.00207739 0.0190966 0.999816 
0.0019424 0.0258972 0.999663 
0.00177408 0.0372005 0.999307 
0.00155398 0.0531868 0.998584 
0.00122679 0.0753839 0.997154 
0.000942546 0.10679 0.994281 
0.000446121 0.136625 0.990623 
-0.000105967 0.181168 0.983452 
-0.000781677 0.238893 0.971046 
-0.00173681 0.310788 0.950478 
-0.00254552 0.40742 0.913238 
-0.00315325 0.518919 0.854818 
-0.0040572 0.659487 0.751705 
-0.0040728 0.805636 0.592398 
-0.00119273 0.997008 0.0772808 
0.00319809 0.884578 -0.466383 
0.00425772 0.709759 -0.704433 
0.00329881 0.553795 -0.832647 
0.00285371 0.406533 -0.913632 
0.00174386 0.321385 -0.946947 
0.000966479 0.253044 -0.967454 
0.000144629 0.196046 -0.980595 
-0.000304197 0.146095 -0.989271 
-0.000814192 0.104987 -0.994473 
-0.00124617 0.0758778 -0.997116 
-0.00150879 0.0526913 -0.99861 
-0.00179817 0.0375879 -0.999292 
-0.0019423 0.0268792 -0.999637 
-0.00203858 0.0190531 -0.999817 
-0.00214432 0.01398 -0.9999 
-0.00217251 0.0105043 -0.999943 
-0.00221604 0.00803836 -0.999966 
-0.00223813 0.00622823 -0.999978 
-0.00223683 0.00478606 -0.999986 
-0.00223492 0.00369747 -0.999991 
-0.00223729 0.00279212 -0.999994 
-0.00223524 0.00207839 -0.999996 
-0.0022338 0.00140085 -0.999997 
-0.00226338 0.000793162 -0.999997 
-0.00224948 0.000271139 -0.999998 
-0.00224147 -0.000295117 -0.999998 
-0.00224645 -0.000900273 -0.999997 
-0.00223382 -0.00149471 -0.999997 
-0.00227881 -0.00221148 -0.999995 
-0.00233424 -0.00304417 -0.999993 
-0.00233449 -0.00408173 -0.999989 
-0.00240853 -0.00513542 -0.999984 
-0.00244999 -0.00593059 -0.99998 
-0.00252179 -0.00709586 -0.999972 
-0.00256556 -0.00931333 -0.999954 
-0.00239777 -0.0140272 -0.999899 
-0.0022148 -0.0203566 -0.999791 
-0.00260224 -0.0219475 -0.999756 
-0.000910254 -0.00308701 -0.999995 
-0.000172353 0.00030691 1 
0.00900354 -0.0163897 0.999825 
0.0108483 -0.0189626 0.999762 
0.0110638 -0.0159588 0.999812 
0.0119504 -0.0112527 0.999865 
0.0117296 -0.00812928 0.999898 
0.0122921 -0.00630602 0.999905 
0.0121 -0.00507355 0.999914 
0.0119583 -0.00409334 0.99992 
0.012114 -0.00323794 0.999922 
0.0125056 -0.00249301 0.999919 
0.0125484 -0.00172011 0.99992 
0.0126952 -0.000973964 0.999919 
0.0126518 -0.000348551 0.99992 
0.0128888 0.000223834 0.999917 
0.0126517 0.000790582 0.99992 
0.0128511 0.0013752 0.999917 
0.0126854 0.00202998 0.999918 
0.0125121 0.00283522 0.999918 
0.0124481 0.00382508 0.999915 
0.0125072 0.00499227 0.999909 
0.0124775 0.00643218 0.999902 
0.0123141 0.0083711 0.999889 
0.0117117 0.0112719 0.999868 
0.0116242 0.0154261 0.999814 
0.0112906 0.0212446 0.999711 
0.00994715 0.0301239 0.999497 
0.00914424 0.0435485 0.99901 
0.00759114 0.0622955 0.998029 
0.00532938 0.0879503 0.996111 
0.00326328 0.117693 0.993045 
2.55189e-05 0.15374 0.988111 
-0.0036663 0.203754 0.979015 
-0.00770071 0.267327 0.963575 
-0.0112437 0.350725 0.936411 
-0.013976 0.460171 0.88772 
-0.0141831 0.597746 0.80156 
-0.0134877 0.755765 0.654704 
-0.00795312 0.92646 0.376308 
-0.000815739 0.99989 -0.0147595 
0.00563551 0.937264 -0.348573 
0.0116762 0.73475 -0.678235 
0.0142226 0.573524 -0.819065 
0.0119549 0.44923 -0.893336 
0.0105736 0.342431 -0.939483 
0.00771925 0.268027 -0.96338 
0.00347659 0.203762 -0.979014 
-0.000368361 0.148534 -0.988907 
-0.00375492 0.107503 -0.994198 
-0.00637158 0.0758883 -0.997096 
-0.00849089 0.0543128 -0.998488 
-0.00964231 0.0381442 -0.999226 
-0.0103525 0.0264254 -0.999597 
-0.0113709 0.0190449 -0.999754 
-0.0118387 0.0139625 -0.999833 
-0.0120235 0.010369 -0.999874 
-0.0122496 0.00782222 -0.999895 
-0.0123224 0.00593333 -0.999907 
-0.01266 0.00455936 -0.99991 
-0.0127571 0.00348701 -0.999913 
-0.0130686 0.0026644 -0.999911 
-0.0126924 0.00193233 -0.999918 
-0.013147 0.00128877 -0.999913 
-0.0128927 0.000693073 -0.999917 
-0.0129171 0.00013811 -0.999917 
-0.0129601 -0.000455621 -0.999916 
-0.013027 -0.00107832 -0.999915 
-0.0128838 -0.00172966 -0.999916 
-0.0129078 -0.00240208 -0.999914 
-0.011935 -0.00322153 -0.999924 
-0.0120555 -0.0040777 -0.999919 
-0.0127148 -0.00492216 -0.999907 
-0.0116387 -0.00619195 -0.999913 
-0.0121429 -0.00789295 -0.999895 
-0.0108772 -0.0112262 -0.999878 
-0.0114324 -0.016142 -0.999805 
-0.0110569 -0.0189031 -0.99976 
-0.00886773 -0.0163398 -0.999827 
0.000212329 0.000187337 -1 
-0.000193967 -0.000937774 1 
0.0108591 -0.0164077 0.999807 
0.0128948 -0.0193588 0.99973 
0.0141083 -0.0159507 0.999773 
0.0148307 -0.0111802 0.999828 
0.01517 -0.00793878 0.999854 
0.0152392 -0.00596299 0.999866 
0.0151101 -0.00462401 0.999875 
0.0148542 -0.00374642 0.999883 
0.0149116 -0.00313717 0.999884 
0.0148415 -0.00256586 0.999887 
0.0149718 -0.00189539 0.999886 
0.0151773 -0.00115088 0.999884 
0.0152822 -0.00045355 0.999883 
0.0153543 0.000150329 0.999882 
0.0153888 0.000724819 0.999881 
0.0154125 0.00131763 0.999881 
0.0152728 0.00198445 0.999882 
0.0151558 0.00273065 0.999882 
0.0150889 0.00364671 0.99988 
0.0150226 0.00477087 0.999876 
0.0148733 0.00621909 0.99987 
0.0147016 0.00813495 0.999859 
0.0146743 0.0108755 0.999833 
0.0142202 0.0147722 0.99979 
0.0134948 0.0205262 0.999698 
0.0127223 0.0291403 0.999495 
0.0114946 0.0419069 0.999056 
0.00961179 0.0606219 0.998115 
0.0071015 0.0861793 0.996255 
0.0037936 0.12039 0.99272 
-7.67896e-05 0.16078 0.98699 
-0.00439402 0.210519 0.97758 
-0.00892677 0.276585 0.960948 
-0.0129263 0.362075 0.932059 
-0.0151993 0.47544 0.879617 
-0.014982 0.603736 0.797043 
-0.0122201 0.774944 0.631912 
-0.0085926 0.927532 0.373642 
-0.000824516 0.999106 -0.0422441 
0.00670151 0.907519 -0.419956 
0.0117281 0.744713 -0.667281 
0.0121833 0.594209 -0.804219 
0.0141919 0.45565 -0.890046 
0.0114447 0.354192 -0.935103 
0.00807181 0.273483 -0.961843 
0.00443075 0.214352 -0.976747 
6.038e-05 0.160008 -0.987116 
-0.00396361 0.118862 -0.992903 
-0.00729083 0.0858632 -0.99628 
-0.00959036 0.0614254 -0.998066 
-0.0113821 0.0428031 -0.999019 
-0.0127201 0.0298873 -0.999472 
-0.013439 0.0212086 -0.999685 
-0.0140377 0.0153436 -0.999784 
-0.0144872 0.0113686 -0.999831 
-0.0146478 0.00845042 -0.999857 
-0.0149282 0.00637285 -0.999868 
-0.0149283 0.00482433 -0.999877 
-0.0151385 0.00370644 -0.999879 
-0.0150798 0.00279577 -0.999883 
-0.0154078 0.00206598 -0.999879 
-0.0153632 0.00139957 -0.999881 
-0.0154931 0.00079261 -0.99988 
-0.0155492 0.000211862 -0.999879 
-0.0154063 -0.00041453 -0.999881 
-0.015205 -0.00108745 -0.999884 
-0.015084 -0.0017899 -0.999885 
-0.0149952 -0.00248123 -0.999885 
-0.0149591 -0.00312704 -0.999883 
-0.0149393 -0.00371421 -0.999882 
-0.0150034 -0.00451348 -0.999877 
-0.0151094 -0.00590472 -0.999869 
-0.0152073 -0.00767713 -0.999855 
-0.0148461 -0.0108747 -0.999831 
-0.0141509 -0.0157971 -0.999775 
-0.0127542 -0.0193534 -0.999732 
-0.0108691 -0.0163856 -0.999807 
0.000335588 -0.00116537 -1 
-0.000420917 -0.00109484 1 
0.00920992 -0.016403 0.999823 
0.0106945 -0.0203279 0.999736 
0.0118507 -0.0166372 0.999792 
0.0123654 -0.0112554 0.99986 
0.0128301 -0.00752597 0.99989 
0.0123036 -0.00531002 0.99991 
0.0124215 -0.00396001 0.999915 
0.0122768 -0.00324691 0.99992 
0.0117531 -0.00286919 0.999927 
0.0116595 -0.00245903 0.999929 
0.0118903 -0.00185783 0.999928 
0.0120203 -0.00111612 0.999927 
0.0119447 -0.000419756 0.999929 
0.0118187 0.000230363 0.99993 
0.0121354 0.000833252 0.999926 
0.012223 0.00144393 0.999924 
0.0122243 0.00209274 0.999923 
0.0123899 0.00281241 0.999919 
0.0121353 0.00367918 0.99992 
0.0119782 0.00482079 0.999917 
0.0116782 0.00631652 0.999912 
0.0114874 0.00838799 0.999899 
0.011674 0.0112164 0.999869 
0.011334 0.0155253 0.999815 
0.0107647 0.0217519 0.999706 
0.0105604 0.0302772 0.999486 
0.00960938 0.0436492 0.999001 
0.0082092 0.063116 0.997973 
0.00599447 0.0902128 0.995905 
0.00296945 0.124859 0.99217 
0.000398532 0.163857 0.986484 
-0.00281681 0.214292 0.976766 
-0.00593618 0.281725 0.959477 
-0.00897508 0.371293 0.928472 
-0.00897973 0.466613 0.884416 
-0.00906207 0.611675 0.791057 
-0.00629815 0.795797 0.60553 
-0.00439716 0.946766 0.321889 
-0.000838454 0.999789 -0.0204618 
0.00154688 0.926647 -0.375926 
0.0052375 0.763709 -0.645539 
0.00463016 0.619257 -0.785175 
0.00897223 0.464838 -0.885351 
0.00625937 0.355676 -0.934589 
0.00494757 0.285266 -0.958436 
0.00230771 0.217088 -0.976149 
-0.000181826 0.168049 -0.985779 
-0.00327498 0.127539 -0.991828 
-0.00595191 0.0924686 -0.995698 
-0.00763035 0.0672529 -0.997707 
-0.00909236 0.0466508 -0.99887 
-0.0103146 0.0316474 -0.999446 
-0.010672 0.0224164 -0.999692 
-0.0110724 0.0159796 -0.999811 
-0.0113831 0.0115341 -0.999869 
-0.0116315 0.00858293 -0.999896 
-0.012012 0.00640561 -0.999908 
-0.0118041 0.00488935 -0.999919 
-0.011888 0.00371481 -0.999923 
-0.0115653 0.00283509 -0.999929 
-0.0121831 0.00210082 -0.999924 
-0.0121135 0.00144567 -0.999926 
-0.0122262 0.00081939 -0.999925 
-0.0122073 0.000215898 -0.999926 
-0.0119893 -0.000435828 -0.999928 
-0.0117744 -0.00113731 -0.99993 
-0.0117898 -0.00185892 -0.999929 
-0.0115096 -0.0024681 -0.999931 
-0.0125091 -0.0029118 -0.999918 
-0.0121888 -0.00327497 -0.999921 
-0.011697 -0.00386973 -0.999924 
-0.0129778 -0.00542102 -0.999901 
-0.0124703 -0.007711 -0.999893 
-0.0133001 -0.0115378 -0.999845 
-0.0120651 -0.0170235 -0.999782 
-0.0104073 -0.0204502 -0.999737 
-0.00918972 -0.016253 -0.999826 
0.000727315 -0.00106611 -1 
-0.000634978 -0.00175977 0.999999 
0.00665979 -0.0170527 0.999833 
0.00742678 -0.0211655 0.999749 
0.00823053 -0.0175857 0.999812 
0.00814243 -0.0115852 0.9999 
0.00837377 -0.00740337 0.999938 
0.00793761 -0.00495869 0.999956 
0.00751971 -0.00341657 0.999966 
0.00743888 -0.0028839 0.999968 
0.00701168 -0.002726 0.999972 
0.00691467 -0.00240842 0.999973 
0.00731698 -0.00178663 0.999972 
0.00715596 -0.00106035 0.999974 
0.00722628 -0.000312879 0.999974 
0.00715461 0.000386849 0.999975 
0.00747074 0.00101496 0.999972 
0.00768972 0.00164376 0.999969 
0.00775802 0.00230172 0.999967 
0.00771103 0.0030071 0.999966 
0.00751771 0.00390485 0.999964 
0.00728699 0.00507014 0.999961 
0.00707484 0.00667171 0.999953 
0.00693873 0.00894949 0.999936 
0.00715025 0.0121639 0.999901 
0.00682865 0.0168731 0.999834 
0.00643946 0.023633 0.9997 
0.00659899 0.0334626 0.999418 
0.00604343 0.0478123 0.998838 
0.0053241 0.0694762 0.99757 
0.00385138 0.0960633 0.995368 
0.00180617 0.142435 0.989803 
0.000356386 0.185225 0.982696 
-0.00157284 0.233263 0.972413 
-0.00329263 0.314466 0.949263 
-0.00361174 0.407398 0.913244 
-0.00392978 0.540924 0.841063 
-0.0029097 0.715485 0.698622 
0.000291898 0.789404 0.613874 
-0.000997486 0.9108 0.412843 
-0.00026587 0.98561 0.16901 
-0.00129609 0.973741 -0.227648 
-0.000422088 0.831402 -0.555671 
-0.00109768 0.683996 -0.729484 
0.00311037 0.475431 -0.879747 
0.001837 0.373212 -0.927744 
0.000345394 0.277154 -0.960826 
0.000794277 0.22896 -0.973436 
-0.00110197 0.167429 -0.985884 
-0.00288243 0.124839 -0.992173 
-0.00425604 0.0927234 -0.995683 
-0.00514758 0.0646824 -0.997893 
-0.00604106 0.0441403 -0.999007 
-0.00639643 0.0308978 -0.999502 
-0.00650009 0.021607 -0.999746 
-0.00685769 0.0152818 -0.99986 
-0.00693707 0.0111408 -0.999914 
-0.00711076 0.00822268 -0.999941 
-0.00742903 0.00619991 -0.999953 
-0.00728923 0.00467588 -0.999963 
-0.00737656 0.00358938 -0.999967 
-0.00709199 0.00275226 -0.999971 
-0.00762623 0.00204893 -0.999969 
-0.00751267 0.00140642 -0.999971 
-0.00751586 0.000793035 -0.999972 
-0.00751232 0.000144331 -0.999972 
-0.00711439 -0.000526385 -0.999975 
-0.00708563 -0.00128894 -0.999974 
-0.0068865 -0.00198924 -0.999974 
-0.00658198 -0.00253403 -0.999975 
-0.00767837 -0.00279168 -0.999967 
-0.00723123 -0.00292464 -0.99997 
-0.00716303 -0.00347974 -0.999968 
-0.00856486 -0.00511687 -0.99995 
-0.0081572 -0.00754584 -0.999938 
-0.00925567 -0.0117152 -0.999889 
-0.00841947 -0.0177792 -0.999807 
-0.00727119 -0.021045 -0.999752 
-0.00649018 -0.0163102 -0.999846 
0.000461663 -0.00119736 -1 
-0.000569874 -0.00200215 0.999999 
0.00414155 -0.0156426 0.999869 
0.00481046 -0.0210418 0.999767 
0.00516211 -0.0190156 0.999806 
0.0050672 -0.0131672 0.999901 
0.00493427 -0.00805094 0.999956 
0.00456081 -0.00518271 0.999976 
0.00427606 -0.00343708 0.999985 
0.00397666 -0.00274777 0.999988 
0.00385159 -0.00271355 0.999989 
0.003719 -0.0026101 0.99999 
0.00397131 -0.00211445 0.99999 
0.00397363 -0.00141685 0.999991 
0.0041033 -0.000629823 0.999992 
0.00419619 0.000116347 0.999991 
0.00424892 0.000823513 0.999991 
0.00445999 0.00145356 0.999989 
0.00457451 0.00207691 0.999987 
0.0044589 0.00273347 0.999986 
0.00447081 0.00347586 0.999984 
0.00429984 0.00443556 0.999981 
0.00417719 0.00574423 0.999975 
0.00406142 0.00761941 0.999963 
0.00402296 0.0103921 0.999938 
0.0039843 0.0142346 0.999891 
0.00369365 0.0198621 0.999796 
0.00361757 0.0285198 0.999587 
0.00348681 0.0402349 0.999184 
0.00341908 0.0581746 0.998301 
0.00285068 0.0815729 0.996663 
0.00228443 0.115486 0.993307 
0.00154543 0.165857 0.986149 
0.000814315 0.216874 0.9762 
-0.000262746 0.272165 0.962251 
-0.000343785 0.351154 0.936318 
-0.000548878 0.461986 0.886887 
-0.000449848 0.613129 0.789983 
-7.60629e-05 0.760366 0.649495 
-0.000712072 0.941149 0.337989 
2.1819e-05 0.994686 -0.102919 
-0.00207259 0.96094 -0.276745 
-0.000948939 0.834605 -0.550843 
-0.00257086 0.835596 -0.549334 
5.30426e-07 0.537292 -0.843396 
-0.00140672 0.405493 -0.914097 
-0.00142257 0.305504 -0.95219 
-0.00169307 0.228701 -0.973495 
-0.00137687 0.183353 -0.983046 
-0.00242203 0.135661 -0.990753 
-0.0028444 0.0986212 -0.995121 
-0.00315963 0.0719909 -0.9974 
-0.00346421 0.0485659 -0.998814 
-0.00350562 0.0332587 -0.999441 
-0.00362511 0.0232566 -0.999723 
-0.00391042 0.0163199 -0.999859 
-0.00393313 0.0117025 -0.999924 
-0.00406988 0.00860542 -0.999955 
-0.00418725 0.00642311 -0.999971 
-0.00429347 0.0049393 -0.999979 
-0.00431487 0.00379577 -0.999984 
-0.00428018 0.0029709 -0.999987 
-0.00445231 0.00222443 -0.999988 
-0.00448489 0.00159177 -0.999989 
-0.00433459 0.000932352 -0.99999 
-0.00438906 0.000261187 -0.999991 
-0.00400521 -0.000464504 -0.999992 
-0.00406909 -0.00122604 -0.999991 
-0.00376879 -0.00198642 -0.999991 
-0.00353562 -0.00251978 -0.999991 
-0.00396112 -0.00273448 -0.999989 
-0.0039753 -0.00273723 -0.999988 
-0.00377709 -0.0031109 -0.999988 
-0.00481948 -0.00464438 -0.999978 
-0.00479103 -0.00725761 -0.999962 
-0.00572357 -0.0117502 -0.999915 
-0.00536108 -0.0180382 -0.999823 
-0.00473887 -0.0212534 -0.999763 
-0.00456973 -0.017099 -0.999844 
0.000303125 -0.00117139 -1 
-0.000217398 -0.00141052 1 
0.00301219 -0.016804 0.999854 
0.00346599 -0.0212577 0.999768 
0.00331193 -0.0173399 0.999844 
0.00315858 -0.0109292 0.999935 
0.0027775 -0.00658538 0.999975 
0.00248806 -0.00412743 0.999989 
0.00229256 -0.00287907 0.999993 
0.0021197 -0.00264276 0.999994 
0.00212128 -0.00277262 0.999994 
0.00219938 -0.00258641 0.999994 
0.00228267 -0.00201008 0.999995 
0.00242055 -0.00120193 0.999997 
0.00255316 -0.000375758 0.999997 
0.00269117 0.000410354 0.999997 
0.00274123 0.0011412 0.999996 
0.00284563 0.00178309 0.999995 
0.00286619 0.00240051 0.999993 
0.00283019 0.00308009 0.999991 
0.00281786 0.00385848 0.999989 
0.00273551 0.0049176 0.999984 
0.00265729 0.00642378 0.999976 
0.00257118 0.00869822 0.999959 
0.00245095 0.0120119 0.999925 
0.00231859 0.0167014 0.999858 
0.00218647 0.0241565 0.999706 
0.0019774 0.034553 0.999401 
0.00198817 0.0502188 0.998736 
0.00186505 0.0712914 0.997454 
0.00192 0.10318 0.994661 
0.00178403 0.143669 0.989624 
0.00162896 0.223107 0.974793 
0.00123627 0.297707 0.954657 
0.00100113 0.398293 0.917258 
0.000533612 0.540197 0.841539 
0.000383907 0.636634 0.771166 
0.000615191 0.79343 0.608661 
0.00451082 0.800432 0.599405 
0.00213652 0.923539 0.383496 
0.00640598 0.911598 0.41103 
-0.00219703 0.881434 -0.472293 
-0.0010489 0.80257 -0.596557 
-0.000693649 0.615071 -0.788471 
-0.00223092 0.691879 -0.722009 
-0.001856 0.555172 -0.831734 
-0.0022355 0.359741 -0.93305 
-0.00244484 0.265129 -0.96421 
-0.00225358 0.170666 -0.985327 
-0.00233354 0.127493 -0.991837 
-0.00202995 0.0934226 -0.995625 
-0.00209396 0.0649975 -0.997883 
-0.0020109 0.045149 -0.998978 
-0.00198236 0.0313417 -0.999507 
-0.00215862 0.0216144 -0.999764 
-0.00236462 0.015267 -0.999881 
-0.0024264 0.0109927 -0.999937 
-0.00254995 0.0080854 -0.999964 
-0.00260081 0.00615434 -0.999978 
-0.00275875 0.00472545 -0.999985 
-0.00273929 0.0037256 -0.99999 
-0.00284434 0.00287877 -0.999992 
-0.00282299 0.00220794 -0.999994 
-0.00284987 0.00154648 -0.999995 
-0.00270842 0.00086419 -0.999996 
-0.0026643 0.00015785 -0.999997 
-0.00243004 -0.000644789 -0.999997 
-0.00239051 -0.00143216 -0.999996 
-0.00211912 -0.00215674 -0.999996 
-0.00200213 -0.00270693 -0.999995 
-0.00217845 -0.00278805 -0.999994 
-0.00211366 -0.00266262 -0.999994 
-0.00214307 -0.00296225 -0.999993 
-0.00273929 -0.00452789 -0.999986 
-0.00284939 -0.00731831 -0.999969 
-0.00358172 -0.0119913 -0.999922 
-0.00340927 -0.0178225 -0.999836 
-0.00327908 -0.0212253 -0.99977 
-0.00316985 -0.0167773 -0.999854 
0.000276652 -0.00103482 -1 
-0.000248723 -0.000912004 1 
0.00211962 -0.0165135 0.999862 
0.00248871 -0.0212175 0.999772 
0.0021824 -0.017639 0.999842 
0.00201138 -0.011529 0.999932 
0.0016841 -0.00679193 0.999976 
0.00149763 -0.00418778 0.99999 
0.00138775 -0.00290516 0.999995 
0.00135902 -0.00270874 0.999996 
0.00143807 -0.00292572 0.999995 
0.00158191 -0.00282541 0.999995 
0.00170645 -0.00227051 0.999996 
0.00184838 -0.0014614 0.999997 
0.00198802 -0.000591213 0.999998 
0.0021161 0.000243496 0.999998 
0.00220448 0.00101308 0.999997 
0.00226167 0.00174109 0.999996 
0.00228025 0.00238777 0.999995 
0.00228027 0.00303548 0.999993 
0.00226961 0.00380401 0.99999 
0.00224921 0.00474138 0.999986 
0.00220364 0.00612258 0.999979 
0.00212497 0.00819496 0.999964 
0.00199067 0.0113301 0.999934 
0.00179599 0.0157934 0.999874 
0.00161318 0.0224601 0.999747 
0.00135391 0.0323187 0.999477 
0.001235 0.0467305 0.998907 
0.00118125 0.0664761 0.997788 
0.0013974 0.0949675 0.99548 
0.00162657 0.136829 0.990593 
0.00180787 0.191207 0.981548 
0.00164672 0.295208 0.955432 
0.00127837 0.406618 0.913597 
0.000894277 0.511036 0.859559 
0.000770428 0.684439 0.72907 
0.00341427 0.738493 0.674251 
0.00889935 0.990859 0.134612 
0.00747822 0.996214 0.0866072 
0.00397211 0.99989 0.0142507 
-0.00124498 0.997087 -0.076244 
-0.00380054 0.993357 -0.115006 
-0.000772707 0.728044 -0.68553 
-0.00122194 0.682396 -0.730981 
-0.00174448 0.502191 -0.864755 
-0.00219142 0.464671 -0.885481 
-0.00232949 0.331164 -0.94357 
-0.00250609 0.197947 -0.98021 
-0.00224236 0.146902 -0.989149 
-0.00176339 0.107596 -0.994193 
-0.00139277 0.0724019 -0.997375 
-0.00128261 0.0509804 -0.998699 
-0.00131007 0.0351738 -0.999381 
-0.0015062 0.0238734 -0.999714 
-0.00173063 0.0164638 -0.999863 
-0.00189518 0.0117637 -0.999929 
-0.00203513 0.00851724 -0.999962 
-0.00211875 0.00642163 -0.999977 
-0.00219861 0.00502452 -0.999985 
-0.00221322 0.00398738 -0.99999 
-0.00226901 0.00317121 -0.999993 
-0.00225643 0.0024522 -0.999995 
-0.00227639 0.00178133 -0.999996 
-0.0022264 0.00107479 -0.999997 
-0.00214249 0.000286028 -0.999998 
-0.00201766 -0.000507253 -0.999998 
-0.00186877 -0.00140952 -0.999997 
-0.00170522 -0.00226358 -0.999996 
-0.00154184 -0.00282913 -0.999995 
-0.00144282 -0.00290352 -0.999995 