# vtk DataFile Version 3.0 
Exported using Morpho https://github.com/Morpho-lang/morpho 
ASCII 
DATASET UNSTRUCTURED_GRID 

POINTS 1978 float 
-11.9981 -3.99808 1.03081e-06 
-11.6148 -3.99847 -2.66445e-05 
-11.3206 -3.99802 -1.52684e-05 
-10.966 -3.99803 -1.8896e-05 
-10.6591 -3.99805 -2.46901e-06 
-10.3244 -3.99795 -2.42372e-06 
-10.0079 -3.99779 -1.56619e-06 
-9.66944 -3.99776 -3.26697e-06 
-9.31449 -3.99775 -8.58253e-07 
-9.00047 -3.99796 -1.79851e-07 
-8.69165 -3.99785 -1.83302e-06 
-8.38122 -3.99778 4.23101e-08 
-8.07597 -3.99783 -1.28622e-06 
-7.76503 -3.99806 3.16806e-06 
-7.4691 -3.99758 2.04891e-06 
-7.18748 -3.99824 -1.67805e-07 
-6.90638 -3.99804 5.26831e-07 
-6.58796 -3.99777 7.24214e-07 
-6.28478 -3.99784 1.08741e-06 
-5.97504 -3.99789 2.86901e-06 
-5.66922 -3.99788 4.34154e-06 
-5.37219 -3.99808 5.22315e-06 
-5.07994 -3.9979 7.12077e-06 
-4.79698 -3.99833 9.45207e-06 
-4.49406 -3.99812 1.14246e-05 
-4.19698 -3.99808 1.52562e-05 
-3.90326 -3.9982 2.01601e-05 
-3.582 -3.99847 2.99261e-05 
-3.27935 -3.99839 3.07108e-05 
-3.00121 -3.99934 4.03306e-05 
-2.71178 -3.99857 4.44105e-05 
-2.46053 -3.99958 5.58664e-05 
-2.17664 -3.99933 4.77859e-05 
-1.90008 -4 5.2284e-05 
-1.61777 -3.99969 3.25856e-05 
-1.31064 -3.99914 -3.6522e-05 
-0.99561 -3.99789 -0.000113686 
-0.715719 -3.99485 -0.000277418 
-0.403409 -3.99133 -0.000184419 
0.0808329 -3.98869 0.000569534 
0.399065 -3.99308 -8.91742e-05 
0.641689 -3.99573 0.000462784 
0.957174 -3.99735 6.08027e-05 
1.21843 -3.99909 0.000103553 
1.47175 -3.99984 -7.27076e-05 
1.80673 -3.99917 -5.21652e-05 
2.09732 -3.99972 -5.3381e-05 
2.37623 -3.99947 -8.36236e-05 
2.76097 -3.99901 -4.84693e-05 
3.03894 -3.99889 -3.04578e-05 
3.33193 -3.99861 -3.00452e-05 
3.61666 -3.99834 -2.1542e-05 
3.90638 -3.99827 -1.96552e-05 
4.21159 -3.99821 -1.57414e-05 
4.50461 -3.99808 -1.06669e-05 
4.7951 -3.99805 -7.29881e-06 
5.09205 -3.99801 -5.90853e-06 
5.38984 -3.998 -4.66003e-06 
5.69182 -3.99794 -4.01737e-06 
5.98093 -3.99801 -1.65696e-06 
6.28858 -3.99773 -1.08515e-06 
6.5676 -3.99814 -1.40754e-06 
6.88336 -3.99774 -6.7996e-07 
7.17387 -3.99785 2.76554e-07 
7.48063 -3.99799 -3.48861e-06 
7.77584 -3.9978 -1.65874e-06 
8.07617 -3.99792 1.33596e-06 
8.36881 -3.99805 -9.86825e-07 
8.66228 -3.99785 3.63351e-06 
8.94349 -3.9979 -1.42162e-06 
9.28787 -3.99792 1.04883e-06 
9.61121 -3.99772 2.28351e-06 
9.91175 -3.99789 -3.51431e-07 
10.2824 -3.99765 5.38917e-06 
10.6039 -3.99787 5.44356e-06 
10.9882 -3.99791 1.86519e-05 
11.3043 -3.99822 1.15567e-05 
11.5921 -3.99828 2.59938e-05 
11.9979 -3.99798 -1.09867e-06 
-11.9982 -3.62928 3.71765e-05 
-11.697 -3.70523 -1.32571e-05 
-11.3519 -3.61497 -2.0741e-06 
-11.0481 -3.68381 6.39221e-06 
-10.7057 -3.63753 -6.04053e-06 
-10.3967 -3.66999 9.28148e-07 
-10.0654 -3.65455 8.39181e-07 
-9.74553 -3.67999 1.22506e-06 
-9.40153 -3.69742 7.30882e-07 
-9.05615 -3.6631 -1.20385e-06 
-8.74256 -3.66052 -9.80387e-08 
-8.4307 -3.66439 -8.67493e-07 
-8.1195 -3.66077 -1.35487e-06 
-7.81162 -3.66731 8.17564e-07 
-7.49983 -3.65122 1.68223e-06 
-7.20272 -3.63612 1.57441e-06 
-6.88386 -3.67819 8.78806e-07 
-6.57728 -3.66169 4.90541e-07 
-6.26448 -3.67065 1.21724e-06 
-5.95325 -3.67074 2.57584e-06 
-5.64941 -3.66682 3.32606e-06 
-5.3516 -3.66624 2.8396e-06 
-5.06255 -3.658 1.83022e-06 
-4.75518 -3.68275 1.92476e-06 
-4.4515 -3.67577 3.77805e-06 
-4.14968 -3.67024 6.81269e-06 
-3.82763 -3.69978 2.96283e-06 
-3.5111 -3.68034 3.32375e-06 
-3.2189 -3.65498 1.28511e-05 
-2.92951 -3.66733 1.21086e-05 
-2.66015 -3.61163 1.48723e-05 
-2.37508 -3.65779 1.44779e-05 
-2.08977 -3.64698 1.61528e-05 
-1.80285 -3.6544 3.26316e-05 
-1.49576 -3.67651 -1.7059e-05 
-1.17869 -3.66208 -6.39868e-06 
-0.884465 -3.58826 -7.26087e-05 
-0.573171 -3.59906 -0.000346135 
-0.204436 -3.72084 -0.000528523 
0.0511447 -3.48568 4.20625e-05 
0.320633 -3.56354 0.000408596 
0.601858 -3.45398 -0.000246265 
0.854153 -3.60331 0.000276042 
1.1529 -3.56286 -0.000109703 
1.49245 -3.68041 1.45566e-05 
1.79496 -3.65009 -2.61262e-05 
2.08554 -3.65324 -1.91236e-05 
2.45763 -3.75851 6.42088e-06 
2.73772 -3.66452 -1.63734e-05 
3.03909 -3.67966 -9.85801e-06 
3.33213 -3.66552 -6.48409e-06 
3.63097 -3.66842 -6.45158e-06 
3.94168 -3.6827 -1.3996e-06 
4.24169 -3.66803 -3.23781e-07 
4.53804 -3.66297 -1.82501e-06 
4.83753 -3.6695 -1.29615e-06 
5.14058 -3.67078 -5.36191e-07 
5.44595 -3.67332 -1.19436e-06 
5.74071 -3.65712 -3.02796e-06 
6.04743 -3.67438 -1.11627e-06 
6.33384 -3.63721 -1.10225e-06 
6.64334 -3.67916 -4.04582e-07 
6.94302 -3.64963 -1.1697e-06 
7.25 -3.66847 -3.0884e-06 
7.55071 -3.65531 -3.16784e-06 
7.85425 -3.66053 -9.16889e-07 
8.15325 -3.65272 2.3785e-06 
8.44578 -3.65094 1.38521e-06 
8.73422 -3.63239 -8.80989e-08 
9.05676 -3.69793 9.38251e-07 
9.38701 -3.67499 1.38243e-06 
9.69884 -3.64502 3.58486e-07 
10.0416 -3.70873 -1.7462e-06 
10.3772 -3.66036 -9.21004e-07 
10.7376 -3.7129 2.12234e-06 
11.0693 -3.64889 -6.05757e-06 
11.3685 -3.61186 4.27931e-06 
11.7145 -3.72373 1.20745e-05 
11.9982 -3.60793 -3.67363e-05 
-11.9979 -3.32549 2.31416e-05 
-11.6323 -3.35961 -1.11867e-06 
-11.2922 -3.26587 1.22294e-06 
-10.9789 -3.34702 -2.07046e-06 
-10.661 -3.28298 -4.26843e-06 
-10.3412 -3.33659 1.49942e-06 
-10.0146 -3.31788 1.51276e-06 
-9.69564 -3.34386 9.81123e-07 
-9.38322 -3.38625 -8.87778e-07 
-9.07589 -3.32503 -6.50922e-07 
-8.77491 -3.31455 1.37205e-06 
-8.47048 -3.32996 7.7212e-07 
-8.16023 -3.32746 -1.60737e-06 
-7.85061 -3.33074 -1.26302e-07 
-7.54529 -3.3236 2.66592e-06 
-7.23539 -3.29245 3.23716e-06 
-6.93448 -3.34906 1.30472e-06 
-6.62786 -3.32931 1.25941e-07 
-6.32064 -3.34141 1.1273e-06 
-6.01274 -3.34396 3.33927e-06 
-5.70729 -3.33794 5.22448e-06 
-5.40827 -3.33569 3.98223e-06 
-5.11549 -3.32357 2.86074e-06 
-4.81744 -3.36285 3.65285e-06 
-4.51488 -3.35448 4.7868e-06 
-4.21398 -3.34705 5.84614e-06 
-3.9014 -3.38859 6.23784e-06 
-3.59026 -3.37698 6.86636e-06 
-3.27821 -3.32399 3.20809e-06 
-2.98137 -3.31819 5.03908e-06 
-2.68241 -3.27444 6.37834e-06 
-2.37981 -3.30982 4.19085e-06 
-2.08078 -3.29118 1.75474e-05 
-1.77717 -3.31246 7.43985e-06 
-1.47311 -3.3438 -2.76058e-05 
-1.17142 -3.28346 -3.69195e-05 
-0.83223 -3.21559 -3.08598e-05 
-0.575594 -3.08757 9.89644e-05 
-0.318912 -3.31469 -7.68881e-05 
0.0294537 -3.07827 -0.000159491 
0.359606 -3.06017 -0.000152938 
0.63997 -2.95864 0.000581193 
0.920197 -3.19212 -0.000171987 
1.23461 -3.15676 0.000180749 
1.48154 -3.3433 5.96046e-05 
1.8056 -3.29973 3.6101e-06 
2.10694 -3.30359 -6.82082e-06 
2.38073 -3.47387 -1.73159e-05 
2.6826 -3.33892 -4.12328e-06 
2.98491 -3.35761 -9.23341e-06 
3.28498 -3.33826 -2.82902e-06 
3.58769 -3.34253 -6.78349e-06 
3.89646 -3.36535 -9.78644e-06 
4.206 -3.34143 -5.69679e-06 
4.5057 -3.33363 -3.5897e-06 
4.80703 -3.33883 -2.02265e-06 
5.10425 -3.34512 -2.2732e-06 
5.40795 -3.34968 -3.5823e-06 
5.70993 -3.3222 -3.61685e-06 
6.00932 -3.34585 -3.48117e-06 
6.30753 -3.28966 -1.13614e-06 
6.60441 -3.34555 -8.7562e-07 
6.9039 -3.31492 -1.73687e-06 
7.21258 -3.33475 -3.35669e-06 
7.51737 -3.31806 -3.64226e-06 
7.82084 -3.32614 -1.40441e-06 
8.12807 -3.31387 4.96589e-07 
8.43046 -3.29853 7.66112e-07 
8.7484 -3.30715 -8.00364e-07 
9.06794 -3.37896 5.67661e-07 
9.3856 -3.34061 1.63593e-06 
9.70165 -3.30498 3.34159e-07 
10.0159 -3.39073 -3.3866e-07 
10.3153 -3.31183 1.33601e-06 
10.6411 -3.39445 -9.5202e-07 
10.9676 -3.33416 7.00061e-06 
11.2939 -3.25436 -1.86798e-06 
11.6317 -3.37059 -2.42501e-06 
11.998 -3.30582 -2.18622e-05 
-11.998 -2.99758 2.35399e-05 
-11.6606 -3.0441 3.60533e-06 
-11.3229 -2.94615 -3.9806e-06 
-10.9694 -2.99621 -5.93718e-07 
-10.6291 -2.9558 -7.84594e-07 
-10.2987 -3.00098 -2.89224e-06 
-9.97202 -2.98239 3.68457e-07 
-9.65565 -3.0062 -6.4692e-07 
-9.3567 -3.03339 -2.0069e-06 
-9.05434 -2.97471 -1.86982e-06 
-8.74347 -2.97614 -1.78824e-08 
-8.43345 -2.9975 -7.91262e-07 
-8.12175 -2.99598 -3.24361e-06 
-7.81463 -2.99548 -1.53814e-06 
-7.50952 -2.98744 1.74379e-06 
-7.20443 -2.96227 1.70298e-06 
-6.90057 -3.01535 -6.98452e-07 
-6.59293 -2.99906 -1.88532e-06 
-6.28698 -3.0128 -5.07524e-07 
-5.98333 -3.01511 1.21003e-06 
-5.68474 -3.00714 1.465e-06 
-5.39301 -3.00147 -6.74191e-07 
-5.09382 -2.9991 -1.47082e-06 
-4.79768 -3.04073 -5.25204e-07 
-4.50881 -3.01745 -2.82171e-07 
-4.21868 -3.02014 -1.14353e-06 
-3.92007 -3.07354 -6.60006e-07 
-3.61487 -3.05691 -3.49155e-06 
-3.31168 -3.01671 -5.72401e-06 
-2.98854 -2.98154 -7.18384e-06 
-2.6761 -2.94304 -7.66761e-06 
-2.36009 -2.96244 -3.70721e-06 
-2.05685 -2.93375 -3.94434e-06 
-1.756 -2.94015 -1.31376e-05 
-1.45746 -2.9787 -6.66495e-06 
-1.10076 -2.92594 -6.22851e-05 
-0.844965 -2.7303 -4.5323e-05 
-0.480881 -2.68119 -0.000335323 
-0.20955 -2.84843 0.0004748 
-0.0931334 -2.40148 -0.000503208 
0.198066 -2.60923 0.000222881 
0.489449 -2.51023 0.000133768 
0.86608 -2.68804 -9.02656e-05 
1.14984 -2.78439 4.646e-05 
1.49488 -2.87629 2.66312e-05 
1.75196 -2.95861 6.7397e-06 
2.07821 -2.951 -1.70771e-06 
2.3906 -3.10983 8.24206e-06 
2.67203 -3.01246 4.29487e-06 
2.97258 -3.02697 3.44641e-06 
3.27831 -3.01236 1.7502e-06 
3.58293 -3.0163 3.37799e-06 
3.88819 -3.04574 1.28791e-06 
4.18416 -3.01268 -5.09612e-07 
4.48905 -3.01336 -3.61155e-08 
4.79496 -3.01289 2.13532e-06 
5.09663 -3.01163 1.24236e-06 
5.3909 -3.02395 -1.47901e-06 
5.69079 -2.99496 -1.36145e-06 
5.99377 -3.01461 -4.51829e-07 
6.29498 -2.9604 1.12856e-06 
6.60017 -3.00715 1.7228e-06 
6.91223 -2.98846 7.66908e-07 
7.21591 -3.00095 -1.58858e-06 
7.51781 -2.98175 -1.94517e-06 
7.82772 -2.99632 6.40394e-07 
8.12648 -2.97477 2.1221e-06 
8.43722 -2.9691 9.15236e-07 
8.74866 -2.97807 2.65763e-07 
9.06401 -3.05028 1.31392e-06 
9.37854 -3.00774 2.84503e-06 
9.67367 -2.95165 1.94421e-06 
9.9872 -3.0393 -3.79018e-07 
10.3134 -2.97909 -1.08092e-06 
10.6432 -3.05795 2.60804e-06 
10.975 -2.99684 2.41081e-06 
11.3264 -2.93496 -1.6923e-07 
11.6612 -3.05479 4.68558e-06 
11.9979 -2.97708 -2.46192e-05 
-11.9974 -2.67043 1.39596e-05 
-11.6621 -2.71389 -5.22256e-06 
-11.3329 -2.6138 1.00625e-05 
-10.9968 -2.67917 -2.8701e-06 
[...]
POINT_DATA 1978 
VECTORS vectors float
0.0595464 -0.0831618 0.995104 
0.0636689 -0.0555334 0.997064 
0.0660606 -0.0408497 0.997622 
0.067904 -0.0278258 0.997924 
0.0689131 -0.0211556 0.998005 
0.0697343 -0.0152862 0.998045 
0.0700982 -0.0110353 0.998065 
0.0698626 -0.00689894 0.998104 
0.0703267 -0.00137524 0.998087 
0.0710805 0.00144994 0.998031 
0.0715868 0.00229253 0.997988 
0.0721952 0.00204381 0.997936 
0.0725505 0.00131858 0.997907 
0.0723515 0.000514671 0.997925 
0.0720662 0.000224723 0.997949 
0.0721651 0.000383237 0.997722 
0.0718026 0.000843781 0.997962 
0.0716905 0.0016593 0.997967 
0.0714169 0.00246523 0.997986 
0.0713635 0.00364247 0.997981 
0.0712218 0.00529205 0.997978 
0.0708842 0.00753112 0.997982 
0.0704292 0.0106053 0.997985 
0.0699198 0.0145623 0.997969 
0.0693109 0.0197941 0.997921 
0.0682144 0.0265736 0.99785 
0.0673277 0.0355172 0.997634 
0.0656686 0.0483633 0.997214 
0.0630686 0.0656122 0.996412 
0.0600398 0.0865622 0.995007 
0.0556797 0.116292 0.992259 
0.0503802 0.150707 0.987918 
0.0434787 0.202457 0.978948 
0.0348767 0.268614 0.963238 
0.0236357 0.356699 0.934512 
0.00964319 0.47789 0.878878 
-0.00428478 0.632686 0.774738 
-0.0117352 0.780435 0.625157 
-0.008629 0.9223 0.385702 
0.000710559 0.99472 -0.0964494 
0.012436 0.914099 -0.404603 
0.0131601 0.805235 -0.592685 
0.00486031 0.640814 -0.768063 
-0.00640765 0.513593 -0.858259 
-0.017401 0.401041 -0.91655 
-0.0319093 0.286922 -0.958068 
-0.0416132 0.213161 -0.976765 
-0.0501942 0.159223 -0.986555 
-0.0572653 0.108581 -0.992991 
-0.0605735 0.0828006 -0.995283 
-0.0635188 0.0613711 -0.996644 
-0.0658149 0.0468095 -0.997282 
-0.0673604 0.0355037 -0.997636 
-0.0685219 0.0260329 -0.997845 
-0.0692617 0.0192751 -0.997948 
-0.0699135 0.0142465 -0.997983 
-0.0704315 0.010375 -0.99799 
-0.0708886 0.00737978 -0.997982 
-0.0712031 0.0051573 -0.997976 
-0.0714028 0.00363882 -0.997972 
-0.0716033 0.00239808 -0.997968 
-0.0716478 0.00161225 -0.997969 
-0.0717271 0.000916284 -0.997963 
-0.0718251 0.000403822 -0.997958 
-0.072154 0.000105402 -0.997931 
-0.0723481 0.000416467 -0.997919 
-0.0725194 0.00122719 -0.997905 
-0.0723114 0.00198587 -0.997918 
-0.0718498 0.00222216 -0.997967 
-0.0714553 0.00169928 -0.997991 
-0.0705129 -0.000918354 -0.998061 
-0.0695831 -0.00581362 -0.998137 
-0.0701751 -0.00988414 -0.998057 
-0.0700916 -0.0143885 -0.998014 
-0.0698551 -0.0200751 -0.997944 
-0.0683024 -0.0286948 -0.997857 
-0.0658577 -0.0401093 -0.997665 
-0.0639055 -0.0543431 -0.997107 
-0.0596934 -0.0836472 -0.995041 
0.0369228 -0.0869557 0.996121 
0.0448142 -0.0617747 0.998364 
0.0432055 -0.0440429 0.999624 
0.0484889 -0.0328465 0.99979 
0.0477542 -0.0223262 1.0001 
0.0499603 -0.0167164 1.00007 
0.0494437 -0.0114829 1.00038 
0.05098 -0.00744209 1.0001 
0.0521809 -0.00333939 0.999825 
0.0509776 -0.000194319 1.0001 
0.0512125 0.00107521 1.00028 
0.0519448 0.00131773 1.00001 
0.0518462 0.00115273 1.00001 
0.052222 0.00093771 0.999986 
0.0511424 0.000767103 1.00004 
0.0501648 0.000761371 1.0003 
0.052135 0.00110105 0.999983 
0.0512749 0.00173031 1.00003 
0.0516585 0.00265403 0.999999 
0.0514214 0.00397261 0.999995 
0.0510666 0.00574215 0.999986 
0.0508565 0.00817258 0.999966 
0.0498879 0.011261 0.999982 
0.0506036 0.0154815 0.999891 
0.0497013 0.0209833 0.999849 
0.0488443 0.0284021 0.99972 
0.0488164 0.0393575 0.999358 
0.0460267 0.0538129 0.998839 
0.0429074 0.0720181 0.997843 
0.0407334 0.0968441 0.995633 
0.0343817 0.128121 0.992818 
0.031822 0.170714 0.986259 
0.0261173 0.229665 0.974134 
0.0197919 0.303579 0.954294 
0.0127267 0.411212 0.91255 
0.00488764 0.548354 0.8374 
-0.00018362 0.696121 0.718585 
-0.00235089 0.85109 0.524376 
-0.00169499 0.979559 0.195105 
0.00246173 0.996439 -0.0671465 
0.0043226 0.942686 -0.331148 
0.00408097 0.829096 -0.558274 
0.00350168 0.699169 -0.716012 
-0.00210284 0.551404 -0.835664 
-0.0127174 0.401494 -0.917213 
-0.0199472 0.299072 -0.955492 
-0.0265707 0.223785 -0.975702 
-0.0378948 0.151223 -0.989155 
-0.0384077 0.114738 -0.994011 
-0.0426497 0.0848284 -0.996827 
-0.0444208 0.0635584 -0.998332 
-0.0464922 0.0473808 -0.999128 
-0.0483081 0.0351353 -0.999538 
-0.048591 0.0261242 -0.999794 
-0.0491227 0.0190144 -0.999927 
-0.0502024 0.0138974 -0.99995 
-0.0508034 0.0101852 -0.999961 
-0.0513389 0.00728914 -0.999958 
-0.05067 0.00509863 -1.00002 
-0.051681 0.0034666 -0.999974 
-0.0498468 0.00239256 -1.00009 
-0.0521708 0.00156001 -0.999966 
-0.050855 0.0010117 -1.00004 
-0.051914 0.000690099 -0.999986 
-0.0514671 0.000695223 -1.00001 
-0.051939 0.000918962 -0.999985 
-0.0515739 0.00111184 -1 
-0.0514693 0.00116084 -0.99981 
-0.0498039 0.000899535 -1.00033 
-0.0527256 8.89836e-06 -0.999763 
-0.0509658 -0.00299339 -1.00009 
-0.0492653 -0.00680924 -1.0004 
-0.0524097 -0.0112617 -0.999766 
-0.0493471 -0.0161929 -1.00033 
-0.0506115 -0.0230713 -0.999924 
-0.0464752 -0.033596 -0.999856 
-0.0431163 -0.0448529 -0.999583 
-0.0453962 -0.0628888 -0.998264 
-0.0361912 -0.0871501 -0.996125 
0.0255707 -0.0887522 0.996328 
0.0303843 -0.0605983 0.999229 
0.0301257 -0.0435244 1.00034 
0.0340183 -0.0309405 1.0002 
0.0331145 -0.0218731 1.0009 
0.0356463 -0.0159059 1.00046 
0.0351873 -0.0108 1.00053 
0.036325 -0.00695282 1.00074 
0.038141 -0.00360293 1.00089 
0.0363427 -0.00100623 1.00072 
0.0363791 8.22963e-05 1.00049 
0.0373127 0.000410332 1.00065 
0.0376433 0.000829924 1.00064 
0.0376331 0.00114899 1.00063 
0.037141 0.00117496 1.00085 
0.0359161 0.0011042 1.00069 
0.0379676 0.00118956 1.0004 
0.0370045 0.0016933 1.00064 
0.0371514 0.00260206 1.00063 
0.0371925 0.00386527 1.00062 
0.0368625 0.00554449 1.00061 
0.03656 0.00795222 1.00059 
0.0358869 0.010973 1.00077 
0.037037 0.0148031 1.00029 
0.035961 0.0199883 1.00065 
0.0350183 0.0273342 1.00032 
0.0355146 0.0374753 0.999783 
0.0339138 0.0510211 0.999663 
0.030089 0.069749 0.998481 
0.0279487 0.0945159 0.996534 
0.0239627 0.127892 0.992961 
0.0218104 0.17434 0.985691 
0.0175571 0.234603 0.973689 
0.0136588 0.315787 0.950276 
0.00925527 0.422502 0.907732 
0.00484748 0.555178 0.83293 
0.0020741 0.725047 0.689291 
0.00236532 0.851813 0.523222 
0.00116366 0.95079 0.306325 
0.00359337 0.997759 -0.0406249 
0.00378561 0.930738 -0.362682 
0.00333008 0.810998 -0.585296 
0.00112274 0.671278 -0.74183 
-0.00181288 0.51782 -0.856906 
-0.00729856 0.412747 -0.912345 
-0.012611 0.302066 -0.954753 
-0.0178081 0.223474 -0.976045 
-0.0264318 0.167841 -0.986889 
-0.0261879 0.124953 -0.992989 
-0.0293199 0.0914666 -0.996753 
-0.0305882 0.0685492 -0.998753 
-0.0326665 0.0509151 -0.999514 
-0.0351381 0.0373807 -0.999808 
-0.03487 0.0274321 -1.00034 
-0.0350989 0.0201151 -1.00069 
-0.0358829 0.0148414 -1.00055 
-0.0367492 0.0109365 -1.00056 
-0.0373355 0.00787803 -1.00037 
-0.0362358 0.00554085 -1.00082 
-0.0374899 0.00379895 -1.00039 
-0.0353056 0.00257856 -1.00089 
-0.0377465 0.00174122 -1.0004 
-0.0365923 0.0012078 -1.00065 
-0.0375056 0.00101653 -1.00062 
-0.03719 0.00115391 -1.00063 
-0.0377564 0.00115275 -1.00061 
-0.0370851 0.000842927 -1.00065 
-0.0361463 0.000388601 -1.00111 
-0.0364604 4.91295e-05 -1.00049 
-0.0386165 -0.000938368 -1.00062 
-0.0364815 -0.00369619 -1.00071 
-0.0347975 -0.00705239 -1.00078 
-0.0374706 -0.0106085 -1.00066 
-0.0350779 -0.0152679 -1.00071 
-0.037398 -0.0221519 -1.00028 
-0.0337632 -0.0301217 -1.00046 
-0.0295429 -0.043666 -1.00035 
-0.0306619 -0.0607822 -0.999206 
-0.0248997 -0.0889187 -0.996328 
0.0171471 -0.0905277 0.996326 
0.0213512 -0.0653928 0.999145 
0.020777 -0.0447121 1.00028 
0.0234527 -0.0317812 1.00092 
0.0236058 -0.0224837 1.00069 
0.0249664 -0.014508 1.00123 
0.0249164 -0.0101372 1.00105 
0.025702 -0.00685725 1.00104 
0.0267889 -0.00393398 1.0008 
0.025559 -0.00149327 1.00103 
0.0258856 -0.000501724 1.001 
0.0267043 -0.000167186 1.00097 
0.026895 0.000645064 1.00096 
0.0267229 0.00142528 1.00096 
0.0263879 0.00154808 1.00075 
0.0254296 0.00133878 1.00098 
0.0267538 0.00134819 1.00116 
0.0261372 0.00182969 1.00096 
0.0264588 0.00273428 1.00094 
0.0264392 0.00409381 1.00093 
0.0262304 0.0060058 1.00091 
0.0256345 0.0083858 1.0009 
0.0256062 0.0114043 1.00067 
0.026396 0.0152131 1.001 
0.0253596 0.0207056 1.00055 
0.0247694 0.0280537 1.0006 
0.025484 0.0376396 1.00048 
0.0240108 0.0507611 0.999542 
0.0215093 0.0681595 0.998797 
0.0189076 0.0948007 0.996952 
0.0163879 0.130774 0.992528 
0.0143626 0.178744 0.985846 
0.0121345 0.243974 0.971044 
0.00972261 0.328027 0.945957 
0.00721109 0.43114 0.904035 
0.00442538 0.589939 0.808639 
0.0045797 0.719308 0.69524 
0.00502402 0.891552 0.451593 
0.00428183 0.977594 0.204144 
0.0053871 0.994933 0.0844047 
0.00480037 0.975922 -0.21131 
0.00455857 0.879698 -0.474226 
0.00286936 0.699255 -0.715594 
0.000905819 0.559495 -0.83019 
-0.00283251 0.413254 -0.912207 
-0.0069707 0.322194 -0.948292 
-0.0110426 0.234643 -0.973596 
-0.0171564 0.170558 -0.986457 
-0.0177293 0.127996 -0.993285 
-0.0202505 0.0945827 -0.996714 
-0.0215777 0.0698415 -0.99848 
-0.0229722 0.0522989 -0.999708 
-0.0246122 0.0386288 -1.00048 
-0.0244038 0.02831 -1.0006 
-0.0252064 0.0207843 -1.00055 
-0.0256497 0.0155502 -1.00083 
-0.0259332 0.0113679 -1.00089 
-0.0263474 0.00809114 -1.0011 
-0.0258895 0.00584247 -1.00073 
-0.0262257 0.00404519 -1.00113 
-0.0250182 0.00269884 -1.00097 
-0.0263714 0.00176158 -1.00095 
-0.0261105 0.00131201 -1.00096 
-0.0265928 0.00127577 -1.00095 
-0.0262078 0.00150808 -1.00096 
-0.0266975 0.00142595 -1.00095 
-0.0264671 0.000716756 -1.00096 
-0.0259637 -0.000234431 -1.00078 
-0.025606 -0.000672582 -1.00122 
-0.0276777 -0.0015117 -1.00098 
-0.0259388 -0.00412409 -1.00102 
-0.024162 -0.00705706 -1.00107 
-0.0265853 -0.0104458 -1.00101 
-0.0239618 -0.0151654 -1.00103 
-0.0262466 -0.0222795 -1.00086 
-0.0235308 -0.032104 -1.00068 
-0.0202527 -0.0456253 -1.00024 
-0.0218206 -0.0644344 -0.999194 
-0.0166791 -0.091143 -0.996275 
0.0125837 -0.0935451 0.996087 
0.0146789 -0.0639075 0.999572 
0.0141819 -0.0489912 0.99994 
0.0168026 -0.0331199 1.00078 
0.0158743 -0.0220607 1.00107 
0.0172024 -0.0151609 1.00116 
0.0170484 -0.010605 1.00119 
0.0174918 -0.0068838 1.00121 
0.0180613 -0.00410652 1.00141 
0.0175909 -0.00186074 1.00118 
0.0183336 -0.00110246 1.00115 
0.019 -0.000549776 1.00113 
0.0188452 0.000795183 1.00113 
0.0188873 0.00180933 1.00111 
0.0183663 0.00181325 1.00111 
0.0179372 0.00146981 1.00112 
0.0186164 0.00145932 1.00111 
0.0184396 0.00200534 1.0011 
0.0186018 0.00302718 1.00109 
0.0182799 0.0045003 1.00108 
0.017993 0.00639312 1.00107 
0.0183342 0.00882291 1.00104 
0.0180222 0.0120685 1.00102 
0.0182958 0.0162376 1.00097 
0.0175142 0.0222198 1.00088 
0.0173305 0.0301213 1.0007 
0.0177178 0.0400899 1.00036 
0.0163568 0.0536023 0.999773 
0.0146739 0.0750851 0.998458 
0.012273 0.104261 0.995937 
0.0107912 0.144214 0.991038 
0.00977032 0.195721 0.98199 
0.00791372 0.265967 0.965894 
0.00661839 0.359243 0.934887 
0.00563743 0.486315 0.874998 
0.00521026 0.603263 0.798884 
0.0054654 0.799678 0.600591 
0.00627774 0.943446 0.328392 
0.00600086 0.931586 0.360069 
0.00699682 0.997048 0.0500549 
0.00733492 0.97224 -0.227835 
0.00687676 0.913161 -0.405936 
0.0047714 0.789949 -0.613514 
0.00261622 0.603426 -0.798645 
-1.40081e-05 0.455816 -0.891704 
-0.0022208 0.336414 -0.943416 
-0.00552522 0.257019 -0.96806 
-0.0107028 0.17856 -0.985689 
-0.0117101 0.13058 -0.992865 
-0.0136902 0.0952106 -0.996787 
-0.0149518 0.0691667 -0.998868 
-0.0161101 0.050584 -0.999926 
-0.016848 0.0382189 -1.00044 
-0.0173009 0.0278055 -1.00075 
-0.0178469 0.0201428 -1.00091 
-0.0179845 0.0150776 -1.00099 
-0.0180129 0.0112069 -1.00104 
-0.0185765 0.00804441 -1.00106 
-0.0181893 0.0056737 -1.00108 
-0.0183839 0.00393368 -1.00108 
-0.0175574 0.00263158 -1.0009 
-0.0186487 0.00179066 -1.0013 
-0.0181987 0.00138735 -1.00112 
-0.0186599 0.00153827 -1.00111 
-0.0187293 0.00183944 -1.00111 
-0.0186403 0.00163868 -1.00112 
-0.0185183 0.00050607 -1.00113 
-0.0184284 -0.000859576 -1.00114 
-0.0177168 -0.00143385 -1.00096 
-0.0191752 -0.00199599 -1.00115 
-0.0176748 -0.00420146 -1.00119 
-0.016564 -0.00724738 -1.00121 
-0.0182181 -0.0107452 -1.00117 
-0.0166773 -0.0155821 -1.00115 
-0.0179252 -0.0221759 -1.00104 
-0.0164364 -0.0337162 -1.00076 
-0.0145278 -0.047894 -1.00022 
-0.0148124 -0.0656794 -0.999219 
-0.0123646 -0.0928534 -0.996165 
0.00884144 -0.0935458 0.996113 
0.0101237 -0.0711767 0.998653 
0.0102796 -0.0515848 1.00007 
0.0106174 -0.0363738 1.00072 
0.0110742 -0.0256926 1.00103 
0.0116872 -0.0172478 1.00118 
0.0115964 -0.011737 1.00124 
0.0120338 -0.00821044 1.00125 
0.0123601 -0.00536671 1.00125 
0.0125125 -0.00294967 1.00123 
0.012808 -0.00189793 1.00121 
0.0132599 -0.00123481 1.0012 
0.013527 0.000324537 1.00119 
0.0133031 0.00183377 1.00118 
0.0130151 0.00218356 1.00118 
0.012843 0.00176856 1.00117 
0.0127517 0.00152337 1.00117 
0.0129749 0.00181674 1.00117 
0.0128331 0.00262766 1.00116 
0.0128156 0.00385865 1.00114 
0.0127032 0.00552093 1.00113 
0.0127597 0.00771205 1.00111 
0.0128937 0.0105665 1.00109 
0.0126731 0.0145267 1.00106 
0.0125196 0.0195591 1.001 
0.0123789 0.0265273 1.00086 
0.0123618 0.0361185 1.00058 
0.0119033 0.0483068 1.00011 
0.0110374 0.0668665 0.999089 
0.00944341 0.0929866 0.997069 
0.00825338 0.12948 0.993093 
0.00701167 0.181162 0.98508 
0.00606019 0.245958 0.970693 
0.00508963 0.332546 0.945099 
0.00500486 0.452773 0.893166 
0.00474048 0.598595 0.801987 
0.0057023 0.764288 0.645348 
0.00368404 0.865397 0.498862 
0.00417063 0.99278 0.108369 
-0.00697311 0.98613 -0.15746 
0.00572045 0.989938 -0.128761 
0.000327378 0.944147 -0.327232 
0.00619857 0.874332 -0.484289 
0.00450764 0.648802 -0.761688 
0.00168258 0.472083 -0.883102 
-0.000443281 0.354049 -0.936958 
-0.00242786 0.257041 -0.968096 
-0.00584735 0.194971 -0.982176 
-0.00701096 0.144331 -0.991089 
-0.00901469 0.103156 -0.996122 
-0.0102653 0.0758849 -0.998485 
-0.0113374 0.0544308 -0.999816 
-0.0117822 0.0399736 -1.00046 
-0.0122112 0.0299635 -1.00077 
-0.0125024 0.0215288 -1.00096 
-0.0127562 0.0158874 -1.00105 
-0.0126386 0.0117394 -1.0011 
-0.01287 0.00846846 -1.00113 
-0.0127979 0.00605219 -1.00114 
-0.0128136 0.00424908 -1.00115 
-0.0127058 0.00294178 -1.00115 
-0.0129224 0.00189484 -1.00116 
-0.0129305 0.00149238 -1.00117 
-0.0128236 0.00167041 -1.00118 
-0.0132346 0.00212433 -1.00118 
-0.0131622 0.00207975 -1.00119 
-0.0131882 0.000815609 -1.0012 
-0.0129227 -0.00104896 -1.00121 
-0.0124319 -0.00201612 -1.00143 
-0.0130669 -0.00247326 -1.00124 
-0.012291 -0.00476582 -1.00125 
-0.0113991 -0.007686 -1.00125 
-0.0121363 -0.0106069 -1.00125 
-0.0115821 -0.016018 -1.0012 
-0.012033 -0.0233412 -1.00108 
-0.010926 -0.0340083 -1.0008 
-0.00964406 -0.0481944 -1.00024 
-0.010442 -0.0671643 -0.999159 
-0.00923996 -0.0930239 -0.996175 
0.00643231 -0.092908 0.996201 
0.006881 -0.0657366 0.999493 
0.00709298 -0.0465932 1.00032 
0.00725317 -0.0321358 1.00087 
0.00805093 -0.0223283 1.0011 
0.0079461 -0.0154951 1.00122 
0.0084658 -0.0109241 1.00125 
0.00875051 -0.00752282 1.00126 
0.00890591 -0.00485726 1.00126 
0.00947823 -0.00298059 1.00124 
0.00980128 -0.00221106 1.00123 
0.00994128 -0.000775714 1.00122 
0.00998056 0.00131572 1.00121 
0.00970455 0.00247529 1.0012 
0.00953014 0.00223614 1.0012 
0.00946126 0.00165353 1.0012 
0.00917794 0.00159446 1.00119 
0.00941233 0.00211182 1.00118 
0.00924548 0.0031151 1.00117 
0.00913286 0.00452428 1.00116 
0.00923807 0.00639186 1.00115 
0.00945429 0.00890442 1.00113 
0.00952289 0.0121641 1.00111 
0.0092132 0.0166589 1.00108 
0.00933748 0.0226433 1.00099 
0.00935183 0.0313608 1.00078 
0.00891179 0.042494 1.00041 
0.00859879 0.0588793 0.999623 
0.00787432 0.0803033 0.998199 
0.00691746 0.112391 0.994927 
0.00556555 0.155442 0.989739 
0.00476046 0.21697 0.978206 
0.0042017 0.311877 0.951545 
0.00429958 0.451595 0.89379 
0.00340681 0.612839 0.791668 
0.00403727 0.726897 0.68824 
0.00381986 0.751086 0.659874 
0.00466038 0.917996 0.395546 
0.00288252 0.957924 0.284656 
-0.00723906 0.997463 -0.057921 
-0.0106765 0.863131 -0.501025 
-0.00328568 0.848539 -0.528903 
0.00268486 0.814349 -0.580662 
0.00620489 0.762705 -0.647194 
0.0031495 0.520782 -0.855024 
0.00114603 0.379838 -0.926708 
-0.000801041 0.273295 -0.963646 
-0.00321624 0.191084 -0.98351 
-0.00487667 0.136464 -0.992231 
-0.00656362 0.0988337 -0.996583 
-0.00797257 0.0701449 -0.998913 
-0.00847177 0.0508632 -1.00003 
-0.00876024 0.037533 -1.00058 
-0.00926355 0.027981 -1.00085 
-0.00940768 0.0203079 -1.00101 
-0.00939755 0.0148876 -1.00108 
-0.00919891 0.0109467 -1.00113 
-0.00928081 0.00795306 -1.00115 
-0.00940617 0.00569087 -1.00116 
-0.00910554 0.00410417 -1.00116 
-0.00945129 0.00270424 -1.00117 
-0.00909538 0.00188263 -1.00118 
-0.00949839 0.00154121 -1.00119 
-0.00946246 0.00182148 -1.0012 
-0.00976668 0.00239083 -1.0012 
-0.00950509 0.00236936 -1.00122 
-0.00987129 0.000869576 -1.00102 
-0.00968508 -0.00128103 -1.00123 
-0.0092193 -0.00266333 -1.00124 
-0.00954018 -0.00313259 -1.00125 
-0.00880323 -0.00513409 -1.00126 
-0.00839481 -0.00832815 -1.00126 
-0.00873547 -0.0114657 -1.00125 
-0.00793003 -0.016659 -1.0012 
-0.00841882 -0.0237012 -1.00109 
-0.0074974 -0.0347791 -1.00078 
-0.00650593 -0.0482892 -1.00024 
-0.00725974 -0.0667369 -0.999196 
-0.00668657 -0.0933614 -0.996156 
0.0037726 -0.0928655 0.996203 
0.00440845 -0.067962 0.999099 
0.00479762 -0.0478129 1.00004 
0.00474772 -0.0346546 1.001 
0.00552083 -0.0238929 1.00086 
0.00556594 -0.0164532 1.0012 
0.00600578 -0.0120827 1.00124 
0.00631941 -0.00840757 1.00126 
0.00646759 -0.00555573 1.00126 
0.0069185 -0.00384356 1.00125 
0.00722276 -0.00290934 1.00123 
0.00713349 -0.000929532 1.00124 
0.00702491 0.0015374 1.00123 
0.00682962 0.00274641 1.00121 
0.00669887 0.00246851 1.0012 
0.00662717 0.00174981 1.0012 
0.00628457 0.00151909 1.0012 
0.00630167 0.00199541 1.00119 
0.00626401 0.00289928 1.00118 
0.00606577 0.00421493 1.00116 
0.0061608 0.00591829 1.00115 
0.00647875 0.00816346 1.00114 
0.00666694 0.0111981 1.00112 
0.00660066 0.0152371 1.00109 
0.00662686 0.0210998 1.00123 
0.00705874 0.0286254 1.00067 
0.00671219 0.0393287 1.00077 
0.00681582 0.0548643 0.999649 
0.00628193 0.0750185 0.998868 
0.00567338 0.102567 0.996275 
0.00461884 0.142769 0.991147 
0.00360123 0.202295 0.981068 
0.00290644 0.288391 0.959649 
0.002799 0.426335 0.905726 
0.00284157 0.620756 0.784607 
0.00472276 0.76088 0.648847 
0.00509387 0.913075 0.405945 
0.00122744 0.993319 0.112552 
-0.00232046 0.998474 0.0420316 
-0.00819948 0.999737 -0.0361717 
-0.0138489 0.99577 -0.08987 
-0.0169364 0.990137 -0.14024 
-0.0085285 0.773497 -0.632046 
0.00486462 0.695118 -0.719497 
0.0033549 0.676697 -0.736982 
0.00284041 0.515473 -0.858206 
0.000680907 0.34011 -0.942383 
-0.00108606 0.228816 -0.975222 
-0.00274186 0.164693 -0.988044 
-0.00414035 0.114926 -0.994979 
-0.00559559 0.0801261 -0.998258 
-0.00625593 0.057753 -0.999501 
-0.00647724 0.0413153 -1.00049 
-0.00671178 0.030291 -1.00084 
-0.00677847 0.0224413 -1.00101 
-0.00664208 0.0159783 -1.0011 
-0.00636883 0.0116724 -1.00114 
-0.00618613 0.00847488 -1.00116 
-0.00640411 0.00613433 -1.00117 
-0.0060667 0.00433528 -1.00118 
-0.00660018 0.00295495 -1.00117 
-0.00618507 0.00202412 -1.00119 
-0.00648221 0.0015837 -1.00119 
-0.00652023 0.00174627 -1.0012 
-0.00681618 0.0024448 -1.00121 
-0.00655209 0.00279239 -1.00123 
-0.00677238 0.00160507 -1.00144 
-0.00686137 -0.000880644 -1.00125 
-0.00682313 -0.00290793 -1.00124 
-0.00709834 -0.00378739 -1.00126 
-0.00652179 -0.00573509 -1.00126 
-0.00598491 -0.00876983 -1.00125 
-0.00633572 -0.0120282 -1.00124 
-0.00555764 -0.016863 -1.00119 
-0.00578116 -0.023965 -1.00108 
-0.00493096 -0.0346546 -1.00078 
-0.00410378 -0.048088 -1.00023 
-0.00451049 -0.0673341 -0.999152 
-0.00381048 -0.0928855 -0.996213 
0.000507861 -0.093246 0.996169 
0.00143709 -0.0674404 0.999118 
0.00264786 -0.0487789 1.0002 
0.00269162 -0.0350566 1.00055 
0.00325707 -0.023644 1.00129 
0.00348424 -0.0166683 1.00119 
0.00383089 -0.0120086 1.00123 
0.00413074 -0.0085992 1.00124 
0.00446166 -0.00591944 1.00125 
0.0047489 -0.00422379 1.00143 
0.00478914 -0.00289946 1.00104 
0.00440341 -0.000306492 1.00143 