# vtk DataFile Version 3.0 
Exported using Morpho https://github.com/Morpho-lang/morpho 
ASCII 
DATASET UNSTRUCTURED_GRID 

POINTS 1978 float 
-8.48325 -2.82133 8.24583e-05 
-8.24192 -2.82866 -0.000120103 
-8.05755 -2.82671 -0.000191 
-7.79804 -2.82853 -0.000398207 
-7.4755 -2.82652 -0.000539759 
-7.20597 -2.82934 -0.000358915 
-6.99958 -2.83086 -0.000317459 
-6.7586 -2.82938 -2.8239e-05 
-6.50335 -2.83155 -0.000131847 
-6.33202 -2.8317 -0.000147304 
-6.1618 -2.82892 -0.000151003 
-5.93701 -2.83374 -9.21467e-05 
-5.71564 -2.82879 -0.000112011 
-5.51764 -2.83296 -8.5479e-05 
-5.29934 -2.83093 -9.72478e-05 
-5.09058 -2.83339 -3.32907e-05 
-4.86575 -2.83111 -8.18536e-06 
-4.6586 -2.8308 4.82002e-05 
-4.43482 -2.83097 4.91529e-05 
-4.21395 -2.83372 7.47883e-05 
-3.99957 -2.83372 0.000117789 
-3.79749 -2.83425 0.000121004 
-3.59224 -2.83404 0.000183593 
-3.38953 -2.83409 0.000236452 
-3.17529 -2.83613 0.000301157 
-2.97331 -2.83785 0.000388864 
-2.75939 -2.83854 0.00041549 
-2.54499 -2.83678 0.000481338 
-2.32077 -2.83642 0.000505249 
-2.08182 -2.83543 0.000462442 
-1.84633 -2.83697 0.000455399 
-1.61864 -2.83384 0.000242994 
-1.39138 -2.83366 0.000472829 
-1.15061 -2.81219 0.00117589 
-0.985117 -2.80744 0.00260538 
-0.815597 -2.8099 0.00486075 
-0.721755 -2.81577 0.00653615 
-0.595215 -2.80958 0.0188543 
-0.270717 -2.77629 0.0149924 
0.0178682 -2.80927 -0.00788133 
0.274756 -2.78811 -0.0155312 
0.592831 -2.8118 -0.0204623 
0.713133 -2.79353 -0.00866988 
0.862278 -2.81609 -0.00597509 
1.05252 -2.81109 -0.00170676 
1.20274 -2.82219 -0.000235406 
1.35928 -2.82463 -0.000706388 
1.5723 -2.83068 -0.000494803 
1.80587 -2.83069 -0.000524342 
2.07891 -2.83512 -0.000496787 
2.3144 -2.83111 -0.000511834 
2.54105 -2.83596 -0.000529142 
2.76272 -2.83312 -0.000435702 
2.98656 -2.83461 -0.00035752 
3.20196 -2.83399 -0.000340041 
3.40193 -2.83192 -0.000203054 
3.6168 -2.83418 -0.00018893 
3.81258 -2.83365 -0.000138399 
4.02194 -2.83471 -9.08038e-05 
4.24266 -2.83159 -7.5736e-05 
4.4401 -2.83606 -6.62427e-05 
4.65491 -2.83207 -5.75513e-05 
4.86495 -2.82982 2.59513e-05 
5.07296 -2.82802 1.16815e-05 
5.28251 -2.83018 7.19603e-05 
5.49899 -2.8294 0.000122411 
5.6985 -2.83122 2.49808e-05 
5.91644 -2.83058 0.000106433 
6.14354 -2.82743 0.0001405 
6.34232 -2.83053 0.000193388 
6.57854 -2.83006 0.000189862 
6.79621 -2.83056 4.86381e-05 
6.9954 -2.82916 0.000294903 
7.26128 -2.82647 0.000362183 
7.49891 -2.82721 0.000462046 
7.75387 -2.82429 0.000414645 
8.02086 -2.82534 0.000311597 
8.20526 -2.82935 0.000107995 
8.4807 -2.82139 9.47676e-06 
-8.48188 -2.55633 0.000208261 
-8.28025 -2.60597 2.80002e-05 
-8.04145 -2.52821 2.83811e-05 
-7.85878 -2.617 -2.22073e-05 
-7.58275 -2.66021 -9.41266e-05 
-7.26534 -2.62853 8.64758e-05 
-7.0088 -2.57078 2.39802e-06 
-6.80212 -2.60998 1.69897e-05 
-6.55479 -2.6275 1.5026e-05 
-6.32263 -2.53301 -3.8496e-05 
-6.10812 -2.60612 -1.74544e-05 
-5.88619 -2.60551 -3.19589e-05 
-5.67742 -2.57542 -2.74773e-05 
-5.464 -2.60245 -8.63701e-05 
-5.24919 -2.58982 -7.87541e-05 
-5.02967 -2.60747 -0.000125791 
-4.82002 -2.58608 -9.10172e-05 
-4.59905 -2.60663 -0.000156667 
-4.37629 -2.60629 -0.000136373 
-4.15714 -2.60547 -0.000183448 
-3.947 -2.59162 -0.000137931 
-3.73787 -2.5953 -0.000174453 
-3.52707 -2.59242 -0.000162309 
-3.31106 -2.60789 -0.000203853 
-3.09562 -2.59499 -0.000234557 
-2.87777 -2.60278 -0.000227881 
-2.65288 -2.59381 -0.000238598 
-2.42171 -2.59433 -0.000236658 
-2.18202 -2.59824 -0.000282323 
-1.93746 -2.59436 -0.000198937 
-1.7031 -2.58856 0.000125267 
-1.4747 -2.59826 0.000360602 
-1.25752 -2.62238 -0.000523866 
-1.05512 -2.55641 -0.00101166 
-0.886942 -2.60453 -0.000730807 
-0.762122 -2.53037 -0.000563594 
-0.658781 -2.65788 0.00107542 
-0.513308 -2.73934 0.0021847 
-0.257638 -2.72725 -0.00243855 
-0.0184298 -2.74535 0.00256491 
0.227442 -2.73171 -0.00588059 
0.505521 -2.74741 0.00275376 
0.636356 -2.63218 0.000912401 
0.788471 -2.61589 0.000575104 
0.948321 -2.62419 0.000331165 
1.11365 -2.53632 0.000930464 
1.32001 -2.58618 0.000737659 
1.55128 -2.59968 7.5592e-05 
1.82616 -2.62753 6.55547e-05 
2.06933 -2.59972 0.000248109 
2.31062 -2.58946 0.000292821 
2.54264 -2.59661 0.000264563 
2.78302 -2.60441 0.000193458 
3.01269 -2.60368 0.000238256 
3.22537 -2.58929 0.000212469 
3.44721 -2.60699 0.000179603 
3.64924 -2.58499 0.000171633 
3.86413 -2.60256 0.000152384 
4.08787 -2.61388 0.000152733 
4.29634 -2.58274 0.000120898 
4.50637 -2.60374 0.000149404 
4.7199 -2.59331 0.000115254 
4.9337 -2.5921 9.41395e-05 
5.14827 -2.59561 0.000132857 
5.36916 -2.60473 9.11132e-05 
5.57958 -2.58242 5.71377e-05 
5.79183 -2.60334 7.23814e-05 
6.01815 -2.60832 5.24559e-05 
6.23431 -2.5728 2.61455e-05 
6.4528 -2.61232 4.8211e-05 
6.6816 -2.59022 -3.42541e-05 
6.89047 -2.56161 -4.69517e-05 
7.11822 -2.62519 -3.05234e-06 
7.37129 -2.59855 -3.96276e-05 
7.61757 -2.61095 -7.67046e-05 
7.87924 -2.61769 4.52428e-06 
8.08277 -2.52788 -9.2131e-05 
8.30317 -2.6268 -0.000113249 
8.48673 -2.52379 -0.000362922 
-8.4833 -2.37141 0.00017544 
-8.19149 -2.35306 -3.13837e-06 
-7.93028 -2.28496 -2.46466e-05 
-7.73047 -2.44051 3.37476e-05 
-7.58479 -2.28447 3.5402e-05 
-7.43825 -2.47308 0.000104691 
-7.1745 -2.39505 -7.39035e-05 
-6.93822 -2.3227 -2.11123e-05 
-6.71353 -2.40265 2.48579e-05 
-6.49596 -2.37886 -7.20123e-06 
-6.21196 -2.33358 -0.000120047 
-6.01036 -2.37453 -0.000109299 
-5.8012 -2.35416 -4.84791e-05 
-5.56911 -2.35238 -3.39677e-05 
-5.36051 -2.36316 -7.39326e-05 
-5.13287 -2.36764 -0.000100607 
-4.92742 -2.35422 -0.000106216 
-4.70168 -2.37015 -0.000149412 
-4.48292 -2.38023 -0.000110482 
-4.26143 -2.37748 -0.000167761 
-4.04983 -2.3603 -0.000130972 
-3.83596 -2.35296 -0.000145363 
-3.62678 -2.3578 -0.000134578 
-3.40628 -2.36795 -0.000151846 
-3.19387 -2.36785 -0.000177626 
-2.96701 -2.36275 -0.000119301 
-2.74359 -2.36155 -7.82775e-05 
-2.50418 -2.35619 -6.31849e-05 
-2.26234 -2.35861 -0.000141921 
-2.02184 -2.35883 -0.00020325 
-1.78339 -2.34626 -4.15145e-05 
-1.55139 -2.35091 0.000231351 
-1.33484 -2.37315 -0.000108962 
-1.1511 -2.37475 -0.00104107 
-0.93226 -2.37642 0.000335681 
-0.727815 -2.39911 0.00065605 
-0.571308 -2.56303 2.43659e-05 
-0.435473 -2.66454 -0.00680178 
-0.210985 -2.6641 0.00630821 
0.00359985 -2.67721 0.0185916 
0.22192 -2.67018 -0.0112358 
0.465142 -2.67492 0.00796404 
0.619695 -2.48297 0.000527978 
0.764631 -2.43807 0.00128068 
0.928987 -2.41089 0.000461876 
1.10831 -2.31443 0.000551485 
1.30159 -2.35327 0.000254354 
1.51265 -2.36757 -0.000134385 
1.74792 -2.4129 -4.06946e-05 
1.98474 -2.37337 4.52173e-05 
2.22495 -2.35931 0.000200818 
2.46864 -2.35373 0.000141497 
2.7015 -2.37939 3.47566e-05 
2.94053 -2.37385 0.00016973 
3.15899 -2.35184 0.000156884 
3.38199 -2.37452 0.000141763 
3.59039 -2.34115 0.00012953 
3.80017 -2.36446 0.000120304 
4.0165 -2.38571 0.000165113 
4.2249 -2.3541 0.000141827 
4.44655 -2.35931 0.00013141 
4.65249 -2.35963 0.000151162 
4.86883 -2.35805 9.41119e-05 
5.08348 -2.35987 0.000123331 
5.30024 -2.37777 8.08449e-05 
5.51342 -2.35148 2.15151e-05 
5.73345 -2.36112 2.15662e-05 
5.94596 -2.38314 9.79601e-05 
6.16085 -2.34848 9.03455e-05 
6.39692 -2.36462 2.08881e-05 
6.60837 -2.36781 -9.09164e-05 
6.82901 -2.31552 -2.07094e-05 
7.06133 -2.37379 6.07719e-05 
7.28024 -2.39477 3.47915e-05 
7.54335 -2.38598 -4.32173e-05 
7.79099 -2.40686 -4.73363e-05 
8.00298 -2.29624 1.59788e-05 
8.25782 -2.3583 0.000175009 
8.48434 -2.28846 -0.000152968 
-8.48705 -2.12803 0.000137894 
-8.26807 -2.16833 -1.55015e-05 
-8.07659 -2.07327 -3.93808e-05 
-7.78458 -2.12583 -0.000115285 
-7.52443 -2.06001 -0.000165505 
-7.33135 -2.23822 -6.14231e-05 
-7.08477 -2.13816 -4.61372e-05 
-6.79581 -2.13803 4.67119e-05 
-6.59409 -2.14654 0.000117226 
-6.3594 -2.17279 -2.0655e-05 
-6.11358 -2.09842 -4.0505e-05 
-5.91986 -2.12314 5.73312e-05 
-5.69271 -2.13605 0.000150593 
-5.46941 -2.11261 0.000121215 
-5.25361 -2.14245 0.000110624 
-5.04286 -2.11412 8.66547e-05 
-4.82157 -2.1374 0.000105373 
-4.60148 -2.14409 0.000150608 
-4.3865 -2.14976 0.000166465 
-4.17751 -2.13031 0.000178977 
-3.96613 -2.1209 0.000213307 
-3.75589 -2.11347 0.000242433 
-3.54138 -2.13366 0.000267134 
-3.32836 -2.12773 0.000275441 
-3.10981 -2.13625 0.000270856 
-2.88607 -2.12088 0.000327638 
-2.65766 -2.12735 0.00034719 
-2.42052 -2.12113 0.000333334 
-2.18512 -2.12124 0.000282482 
-1.95771 -2.11503 0.00024429 
-1.72601 -2.10816 0.000154893 
-1.5093 -2.1143 -2.89011e-05 
-1.31501 -2.12139 -4.1905e-06 
-1.12158 -2.16244 -0.000106595 
-0.945144 -2.21533 -0.000382796 
-0.803912 -2.19828 0.00156227 
-0.606111 -2.38495 0.00336329 
-0.416138 -2.58802 -0.013136 
-0.191574 -2.593 0.0162717 
0.051175 -2.6247 -0.00646109 
0.338449 -2.60483 0.00839403 
0.480573 -2.5401 -0.00611424 
0.642335 -2.3185 -0.00216667 
0.781961 -2.24158 -0.000957831 
0.934746 -2.20838 -0.00054666 
1.13375 -2.1124 -0.000446317 
1.34528 -2.13055 0.000260813 
1.57457 -2.15748 1.44117e-05 
1.78896 -2.17125 -0.000239925 
2.02614 -2.13699 -0.000203202 
2.27161 -2.13209 -0.000166367 
2.50717 -2.11795 -0.00026614 
2.74205 -2.15458 -0.000329669 
2.96117 -2.12784 -0.00031405 
3.19157 -2.12389 -0.000291766 
3.40067 -2.12885 -0.000252878 
3.61686 -2.10401 -0.000223412 
3.83504 -2.13768 -0.000252479 
4.04042 -2.14134 -0.000173851 
4.26637 -2.12969 -0.00018189 
4.47332 -2.11363 -0.000147639 
4.68894 -2.12574 -0.000118398 
4.90312 -2.12255 -0.000125719 
5.12355 -2.13199 -9.89148e-05 
5.33554 -2.14076 -0.000123473 
5.56414 -2.12716 -0.000145736 
5.78187 -2.12991 -0.000120655 
5.98884 -2.14022 -8.45566e-07 
6.23334 -2.13615 1.67121e-05 
6.44791 -2.11806 -3.85918e-05 
6.65914 -2.1188 -0.000104424 
6.92523 -2.11346 8.36947e-06 
7.14107 -2.13681 9.59066e-05 
7.37507 -2.18718 6.53241e-05 
7.56045 -2.08803 0.000120009 
7.73526 -2.18241 7.27428e-05 
7.94587 -2.07423 3.92208e-05 
8.20416 -2.13634 0.000119251 
8.48686 -2.10009 -0.000126137 
-8.48423 -1.81732 0.00043436 
-8.31499 -1.91067 7.18101e-05 
-7.90812 -1.91458 4.18583e-06 
-7.67253 -1.886 -7.38722e-05 
-7.43747 -1.80219 -1.47593e-06 
[...]
POINT_DATA 1978 
VECTORS vectors float
0.102509 -0.148426 0.985234 
0.108592 -0.116712 0.990066 
0.113117 -0.0975607 0.99169 
0.119747 -0.0782337 0.992731 
0.126004 -0.0651076 0.993238 
0.127811 -0.0565081 0.993561 
0.12937 -0.0505377 0.993438 
0.1288 -0.0439013 0.993769 
0.130604 -0.034963 0.993885 
0.132721 -0.0301775 0.992844 
0.135317 -0.0278635 0.993412 
0.137832 -0.0246124 0.993066 
0.139255 -0.0237564 0.992884 
0.1425 -0.0241225 0.992381 
0.144557 -0.0245181 0.992052 
0.146662 -0.0253498 0.99171 
0.147255 -0.026924 0.991593 
0.146476 -0.0284462 0.991688 
0.146195 -0.0302616 0.991572 
0.145022 -0.0313852 0.991764 
0.142953 -0.0319608 0.992072 
0.140402 -0.0320116 0.992516 
0.137458 -0.0314017 0.992983 
0.133589 -0.0294396 0.993591 
0.128327 -0.0240712 0.994484 
0.122069 -0.0149848 0.995541 
0.113651 -0.000634655 0.99688 
0.104761 0.0198866 0.99781 
0.0942214 0.0480746 0.998041 
0.0807715 0.086109 0.996743 
0.064342 0.132969 0.992511 
0.0413212 0.195538 0.982784 
0.0142212 0.280426 0.961803 
-0.0138206 0.401996 0.916363 
-0.0326108 0.505494 0.862137 
-0.0403235 0.62841 0.776472 
-0.0398494 0.693617 0.719405 
-0.0307495 0.772836 0.639076 
-0.0155054 0.9449 0.326796 
0.00272369 1.00013 -0.0252812 
0.00828739 0.943285 -0.32488 
0.0287887 0.779 -0.632345 
0.0341731 0.696399 -0.716797 
0.0369317 0.589587 -0.806571 
0.0205364 0.467128 -0.884338 
0.00753044 0.382169 -0.924528 
-0.00730892 0.303126 -0.955053 
-0.031508 0.215439 -0.978726 
-0.0574644 0.143348 -0.991264 
-0.0801752 0.0863121 -0.9966 
-0.0929019 0.0494933 -0.998042 
-0.10476 0.0200004 -0.997722 
-0.114352 -0.00110689 -0.996794 
-0.122559 -0.0160764 -0.995561 
-0.129857 -0.0250225 -0.994246 
-0.13435 -0.0292578 -0.993463 
-0.137975 -0.0315408 -0.992864 
-0.140863 -0.0326355 -0.992437 
-0.143294 -0.0323095 -0.992017 
-0.144965 -0.0304324 -0.991789 
-0.146637 -0.0295682 -0.9916 
-0.147656 -0.029283 -0.991472 
-0.146689 -0.0270172 -0.991618 
-0.147113 -0.0258429 -0.991565 
-0.145119 -0.0250818 -0.991884 
-0.142583 -0.0240674 -0.99233 
-0.139777 -0.0245534 -0.992741 
-0.137365 -0.0261824 -0.993089 
-0.135736 -0.0281323 -0.993316 
-0.133438 -0.0295392 -0.993588 
-0.129439 -0.0357539 -0.994013 
-0.128576 -0.0436844 -0.993874 
-0.128257 -0.050339 -0.993708 
-0.127462 -0.0583894 -0.993494 
-0.125758 -0.0665304 -0.993167 
-0.122131 -0.078321 -0.992509 
-0.115076 -0.0957894 -0.991633 
-0.10995 -0.114227 -0.990289 
-0.105701 -0.148818 -0.984781 
0.0791158 -0.150354 0.988254 
0.0870475 -0.124375 0.994055 
0.0851028 -0.101794 0.998221 
0.0957975 -0.0867079 0.998332 
0.105081 -0.0710776 0.999334 
0.104166 -0.0581154 0.999656 
0.0988565 -0.0505208 1.00076 
0.103425 -0.0444748 1.0004 
0.106458 -0.0371914 1.00022 
0.0987406 -0.0321016 1.00193 
0.108565 -0.0284464 1.00014 
0.110188 -0.0264976 0.999968 
0.108959 -0.0266514 1.00012 
0.115243 -0.0266536 0.99934 
0.11607 -0.0265842 0.999339 
0.119273 -0.0263296 0.998885 
0.117532 -0.0264787 0.999137 
0.119103 -0.0270991 0.998808 
0.118341 -0.0278036 0.998886 
0.116441 -0.0282003 0.999088 
0.112837 -0.0280146 0.999592 
0.110739 -0.0272757 0.999889 
0.107366 -0.0250658 1.00033 
0.10514 -0.0209139 1.00067 
0.0994841 -0.0129015 1.00155 
0.09506 -0.000917318 1.00233 
0.0881963 0.0178988 1.00307 
0.0807163 0.0442955 1.0031 
0.0723243 0.0797543 1.00168 
0.0618946 0.127545 0.997211 
0.049916 0.187885 0.987766 
0.0368871 0.263563 0.969878 
0.0234287 0.35744 0.93794 
0.0277913 0.466545 0.886218 
0.0189782 0.573307 0.819251 
0.0437318 0.65227 0.755788 
0.0127892 0.728011 0.684097 
-0.00135207 0.821728 0.565711 
0.00472058 0.946292 0.313573 
-0.00206506 0.997193 0.0226826 
-0.0119738 0.958599 -0.276164 
-0.0040507 0.824881 -0.560089 
-0.0270188 0.738993 -0.670762 
-0.0224998 0.638937 -0.769065 
-0.0156858 0.53711 -0.844304 
-0.031588 0.439837 -0.901685 
-0.0297273 0.334379 -0.946875 
-0.0399003 0.238904 -0.97647 
-0.0556066 0.152056 -0.993694 
-0.0675375 0.0995813 -1.00003 
-0.0766692 0.0600049 -1.00262 
-0.0850734 0.0302521 -1.00306 
-0.0928536 0.00628775 -1.00256 
-0.0987204 -0.00939467 -1.0018 
-0.102042 -0.0182957 -1.00118 
-0.107719 -0.0242258 -1.00026 
-0.108581 -0.0263779 -1.00013 
-0.113092 -0.028154 -0.999524 
-0.11688 -0.0286005 -0.99898 
-0.115344 -0.0277787 -0.999296 
-0.118866 -0.0274817 -0.998864 
-0.11821 -0.026819 -0.998994 
-0.11766 -0.0261499 -0.999028 
-0.117376 -0.0262688 -0.998998 
-0.116335 -0.0266028 -0.999124 
-0.111108 -0.0268888 -0.999782 
-0.110883 -0.0269016 -0.999821 
-0.109466 -0.0279177 -1.00001 
-0.103698 -0.0303058 -1.00072 
-0.106101 -0.0338886 -1.00032 
-0.101921 -0.0401257 -1.00072 
-0.0982347 -0.0464471 -1.00099 
-0.104318 -0.0539052 -0.999902 
-0.0998431 -0.0632393 -0.999853 
-0.0993933 -0.0735749 -0.999071 
-0.0954992 -0.0890328 -0.998095 
-0.0857239 -0.106126 -0.997506 
-0.0908953 -0.129325 -0.992896 
-0.0789823 -0.152563 -0.987764 
0.0659788 -0.154091 0.988627 
0.0696351 -0.117738 0.997646 
0.0672884 -0.0943874 1.00107 
0.0816097 -0.0798039 0.999919 
0.0708263 -0.0733379 1.00154 
0.0876812 -0.0658056 1.00013 
0.081947 -0.0557772 1.0021 
0.0765605 -0.0477622 1.00286 
0.083818 -0.0418453 1.00249 
0.0828908 -0.0364271 1.00266 
0.0806356 -0.0316953 1.00274 
0.0858007 -0.0296212 1.00238 
0.0858974 -0.0291225 1.00227 
0.0888615 -0.0293979 1.00197 
0.0923018 -0.0288604 1.00171 
0.0947265 -0.0274718 1.00159 
0.0944504 -0.0263925 1.00154 
0.0958452 -0.0257129 1.00145 
0.0961749 -0.0255939 1.00146 
0.0944073 -0.0256229 1.00158 
0.0910499 -0.0253052 1.0019 
0.0882485 -0.0240961 1.0022 
0.0865677 -0.0218556 1.00246 
0.0845976 -0.0178031 1.0028 
0.081676 -0.0113297 1.00326 
0.0778913 -5.52436e-05 1.00389 
0.0741511 0.0160753 1.00436 
0.0698367 0.0401798 1.00423 
0.0652801 0.0728514 1.00288 
0.0606952 0.115696 0.998956 
0.0562987 0.171107 0.990879 
0.0532576 0.239964 0.975972 
0.0520525 0.321579 0.950616 
0.0567041 0.405019 0.916461 
0.0687337 0.528269 0.847006 
0.078214 0.65529 0.749582 
0.0465361 0.773933 0.626919 
0.0252083 0.860819 0.503144 
0.0124097 0.959005 0.266494 
-0.0182873 0.999361 -0.0032043 
-0.0204034 0.955316 -0.27664 
-0.0301088 0.843404 -0.533381 
-0.0682128 0.728585 -0.677326 
-0.0681452 0.636427 -0.767988 
-0.0617824 0.53697 -0.842607 
-0.0673638 0.427771 -0.904251 
-0.0542664 0.339262 -0.943054 
-0.0516512 0.254553 -0.971837 
-0.0534541 0.180438 -0.989096 
-0.059259 0.123021 -0.997868 
-0.064448 0.0786587 -1.00228 
-0.0690248 0.0454835 -1.00407 
-0.0744601 0.020099 -1.00421 
-0.078535 0.00119747 -1.00385 
-0.0801819 -0.00957911 -1.00355 
-0.0847126 -0.017282 -1.00287 
-0.0845359 -0.0207653 -1.00263 
-0.0892396 -0.0239622 -1.00213 
-0.0933076 -0.0255865 -1.00169 
-0.0926446 -0.025547 -1.0017 
-0.0942354 -0.0256421 -1.00155 
-0.0947647 -0.0257355 -1.00155 
-0.0946614 -0.0260915 -1.00152 
-0.0943319 -0.0271753 -1.00152 
-0.093708 -0.0284749 -1.00152 
-0.0890121 -0.0293321 -1.0019 
-0.0870428 -0.0290286 -1.0021 
-0.0867515 -0.0291302 -1.00219 
-0.0825879 -0.0309179 -1.00258 
-0.0822112 -0.0341021 -1.00265 
-0.0812715 -0.0388261 -1.00267 
-0.0763003 -0.0449827 -1.00282 
-0.0799948 -0.0515854 -1.00243 
-0.0808373 -0.0598697 -1.00196 
-0.0781707 -0.0710594 -1.00207 
-0.0787434 -0.0848745 -0.99955 
-0.0671259 -0.101227 -1.00056 
-0.0696996 -0.12567 -0.996268 
-0.0635239 -0.154626 -0.988805 
0.0511174 -0.158273 0.98869 
0.0574533 -0.128518 0.996774 
0.0533704 -0.109236 0.999607 
0.0582031 -0.0850202 1.0022 
0.0568708 -0.0709211 1.00232 
0.0687463 -0.0617598 1.00247 
0.0634041 -0.0527374 1.00416 
0.0644218 -0.044401 1.00349 
0.0656961 -0.0390475 1.00352 
0.0685133 -0.0345084 1.00341 
0.0655352 -0.0322611 1.00359 
0.0682912 -0.0314102 1.00336 
0.0713748 -0.0315933 1.00313 
0.0729243 -0.0318143 1.00308 
0.0773484 -0.0297314 1.00283 
0.0765836 -0.0275477 1.00293 
0.0784877 -0.0255123 1.0028 
0.0786439 -0.0243707 1.00279 
0.0780592 -0.0238105 1.00285 
0.0755424 -0.0232134 1.00306 
0.0729854 -0.0221788 1.00331 
0.0706617 -0.0199426 1.00352 
0.0696518 -0.0165671 1.00371 
0.0673537 -0.0108891 1.00414 
0.065878 -0.00273102 1.00447 
0.0627069 0.0104482 1.00488 
0.0611147 0.0287644 1.00484 
0.0593703 0.0543845 1.00404 
0.0585029 0.0875575 1.00173 
0.058708 0.128967 0.996992 
0.0614136 0.181838 0.988247 
0.0672365 0.244377 0.973397 
0.0770946 0.312881 0.950569 
0.0892636 0.397986 0.916537 
0.0977068 0.496466 0.864159 
0.115741 0.571203 0.812825 
0.0920562 0.726677 0.676395 
0.0500934 0.865484 0.495597 
0.0185326 0.960785 0.246923 
-0.00305917 0.998233 -0.0705718 
-0.0494823 0.904595 -0.418254 
-0.0681999 0.8197 -0.572095 
-0.10344 0.690118 -0.711954 
-0.109418 0.595314 -0.796287 
-0.097735 0.508038 -0.856916 
-0.0921938 0.393237 -0.918216 
-0.0735415 0.307344 -0.953647 
-0.0617966 0.227482 -0.978559 
-0.0586092 0.167391 -0.991034 
-0.0582645 0.114904 -0.998819 
-0.0590001 0.0741405 -1.00272 
-0.0598455 0.0448601 -1.00448 
-0.0632621 0.0210384 -1.00475 
-0.0640108 0.0053175 -1.00473 
-0.0657819 -0.00591778 -1.00447 
-0.0681995 -0.0128625 -1.004 
-0.0688016 -0.0172636 -1.00377 
-0.0730429 -0.0209615 -1.0034 
-0.0751186 -0.0226637 -1.00315 
-0.0761771 -0.0234554 -1.00299 
-0.0764562 -0.0240009 -1.00303 
-0.0775931 -0.0248622 -1.00293 
-0.0775395 -0.0261766 -1.00287 
-0.077125 -0.0283441 -1.00282 
-0.0761993 -0.0305467 -1.00278 
-0.0726213 -0.0318883 -1.003 
-0.070117 -0.0315514 -1.00321 
-0.0687517 -0.0313876 -1.00332 
-0.0672104 -0.0330298 -1.00349 
-0.0646355 -0.0361319 -1.00369 
-0.0642668 -0.0406631 -1.00359 
-0.0626812 -0.0479024 -1.00343 
-0.0625866 -0.054864 -1.00323 
-0.0657102 -0.0642564 -1.00157 
-0.0575385 -0.0729221 -1.00189 
-0.0618811 -0.0818878 -1.00119 
-0.0550021 -0.0976984 -1.00047 
-0.0568127 -0.122011 -0.997804 
-0.0509033 -0.158289 -0.988879 
0.0366904 -0.162754 0.989007 
0.0436008 -0.13802 0.996062 
0.0476448 -0.0960835 1.00011 
0.0471585 -0.0798092 1.002 
0.0458772 -0.0679807 1.00428 
0.0550593 -0.06068 1.00272 
0.0483348 -0.0552166 1.00455 
0.0542324 -0.048455 1.00425 
0.0516055 -0.042603 1.00461 
0.0550419 -0.0372049 1.00446 
0.0560223 -0.0341915 1.00438 
0.0528483 -0.0336745 1.00462 
0.0575654 -0.0334475 1.00424 
0.0599072 -0.0341765 1.00411 
0.0625534 -0.0329949 1.00407 
0.0639927 -0.0299875 1.00409 
0.0651274 -0.0262914 1.00409 
0.065652 -0.0239874 1.00406 
0.0652046 -0.022757 1.00407 
0.0632353 -0.0218112 1.0042 
0.0612912 -0.0205807 1.0044 
0.0592276 -0.0186173 1.00455 
0.0580503 -0.0153118 1.00461 
0.0566698 -0.0106125 1.00487 
0.0551202 -0.00343414 1.00523 
0.0537789 0.00710947 1.00548 
0.0528174 0.0229894 1.00551 
0.0531392 0.0443221 1.00482 
0.054311 0.0732218 1.00307 
0.0568193 0.107694 0.999655 
0.0620081 0.150051 0.993521 
0.0710866 0.199818 0.983622 
0.0855861 0.255623 0.969152 
0.103685 0.336384 0.939805 
0.123166 0.423765 0.900285 
0.146122 0.503886 0.852872 
0.127538 0.656298 0.740689 
0.0881605 0.812407 0.585529 
0.0623964 0.908033 0.40673 
-0.018139 0.996703 0.0726812 
-0.0497028 0.956506 -0.264271 
-0.0906841 0.816011 -0.568639 
-0.139819 0.626981 -0.762754 
-0.135738 0.51581 -0.847136 
-0.121213 0.429234 -0.89792 
-0.108002 0.330875 -0.941577 
-0.086826 0.2819 -0.960634 
-0.0734944 0.221743 -0.977682 
-0.0639487 0.169303 -0.990095 
-0.0589382 0.124077 -0.997581 
-0.0555114 0.0845836 -1.00197 
-0.0535702 0.0543076 -1.00431 
-0.0539769 0.0298571 -1.00528 
-0.0535057 0.0133831 -1.00552 
-0.0547372 0.00052142 -1.00537 
-0.0553886 -0.0077235 -1.00514 
-0.0566227 -0.0128699 -1.00485 
-0.0595304 -0.0172088 -1.00452 
-0.0610613 -0.0197401 -1.0044 
-0.0634938 -0.0213551 -1.00415 
-0.0629027 -0.0221489 -1.00425 
-0.0643277 -0.0233826 -1.00414 
-0.0643615 -0.0252577 -1.0041 
-0.0648579 -0.0282121 -1.00396 
-0.0636228 -0.0317194 -1.00397 
-0.0620251 -0.0338676 -1.00402 
-0.0588606 -0.0341283 -1.0042 
-0.0563647 -0.0334132 -1.00436 
-0.0563919 -0.0336417 -1.00437 
-0.0529511 -0.0362368 -1.00463 
-0.0514515 -0.0400486 -1.00465 
-0.0531807 -0.0454831 -1.00436 
-0.0504727 -0.0527346 -1.00503 
-0.0523717 -0.0613868 -1.00354 
-0.0482185 -0.0727275 -1.00268 
-0.0479842 -0.0862251 -1.00142 
-0.0437485 -0.107468 -1.00002 
-0.0454559 -0.129758 -0.997246 
-0.038875 -0.160871 -0.989288 
0.027395 -0.166106 0.989006 
0.0311131 -0.136214 0.997088 
0.0407583 -0.117268 0.99916 
0.0378889 -0.0949199 1.00152 
0.0382238 -0.0799992 1.002 
0.0394346 -0.0616667 1.0047 
0.0400991 -0.0507582 1.00522 
0.041895 -0.0456515 1.0052 
0.0426101 -0.0393036 1.00529 
0.0439046 -0.0359735 1.0053 
0.0435967 -0.0349651 1.00526 
0.0447854 -0.0359997 1.00504 
0.0482785 -0.036582 1.00482 
0.0514024 -0.0357319 1.00476 
0.0514727 -0.0325269 1.00491 
0.0537007 -0.0281177 1.00488 
0.0539919 -0.0245217 1.00493 
0.0539742 -0.0224104 1.00493 
0.0523593 -0.0210182 1.005 
0.0512199 -0.0198661 1.00506 
0.0493615 -0.018084 1.00522 
0.0487391 -0.015534 1.00527 
0.0474578 -0.0116346 1.00547 
0.0465005 -0.00608771 1.00572 
0.0450844 0.0020178 1.00598 
0.0448638 0.0135309 1.00614 
0.0453502 0.0299237 1.00593 
0.0476792 0.0517812 1.0048 
0.0508929 0.0788866 1.00283 
0.0561025 0.111902 0.999306 
0.064134 0.150192 0.993347 
0.0765606 0.192077 0.984573 
0.0965847 0.253314 0.967866 
0.117274 0.295607 0.95196 
0.135913 0.3605 0.927111 
0.162438 0.40756 0.903685 
0.163143 0.581861 0.793797 
0.115411 0.80383 0.583869 
0.0536083 0.953927 0.247051 
0.0265561 1.00749 -0.0355567 
-0.0211354 0.945976 -0.289526 
-0.111703 0.810996 -0.579534 
-0.16506 0.56545 -0.805616 
-0.158618 0.44882 -0.883213 
-0.136062 0.364954 -0.925076 
-0.111977 0.280419 -0.957842 
-0.0899 0.23507 -0.973382 
-0.0739542 0.187094 -0.986523 
-0.0633881 0.146525 -0.99402 
-0.0561763 0.105563 -0.999196 
-0.0508647 0.0726627 -1.00396 
-0.0475973 0.0450223 -1.00517 
-0.0452947 0.0269936 -1.00593 
-0.0451482 0.0109015 -1.00607 
-0.0452703 0.000319905 -1.00604 
-0.0455033 -0.00682136 -1.00584 
-0.0480731 -0.0126186 -1.00546 
-0.049247 -0.0160327 -1.00529 
-0.0503909 -0.0183148 -1.00521 
-0.0525228 -0.02011 -1.00505 
-0.0521847 -0.0212966 -1.00508 
-0.0529217 -0.0227941 -1.00499 
-0.0531409 -0.0254155 -1.00498 
-0.0536274 -0.0293993 -1.00488 
-0.0520145 -0.0337425 -1.00487 
-0.0505879 -0.0362847 -1.0048 
-0.0473399 -0.036527 -1.00491 
-0.045095 -0.0354247 -1.00509 
-0.0445979 -0.0352159 -1.00518 
-0.0413293 -0.037363 -1.00539 
-0.0405479 -0.0414092 -1.00534 
-0.0427002 -0.0474566 -1.00438 
-0.0395276 -0.0540741 -1.00507 
-0.0419439 -0.062128 -1.00446 
-0.0388764 -0.0739956 -1.00341 
-0.0388041 -0.0882667 -1.0019 
-0.0348613 -0.107649 -1.00052 
-0.034808 -0.133232 -0.997242 
-0.0290662 -0.164572 -0.989154 
0.0214609 -0.167956 0.988686 
0.0242315 -0.131843 0.997973 
0.0312831 -0.110803 1.00045 
0.0290449 -0.0887265 1.00327 
0.0336092 -0.0711571 1.00413 
0.0291423 -0.0616909 1.00512 
0.03259 -0.05386 1.00461 
0.0306573 -0.0464683 1.00626 
0.0344333 -0.0416763 1.00484 
0.0333478 -0.0375172 1.00572 
0.0344764 -0.0363424 1.00562 
0.0372313 -0.0368527 1.00535 
0.0385995 -0.0390781 1.00514 
0.0419744 -0.0386288 1.00516 
0.043312 -0.0357032 1.00522 
0.0441798 -0.0300654 1.00534 
0.0452093 -0.0254525 1.00532 
0.0447438 -0.0223347 1.00536 
0.0441521 -0.020653 1.00537 
0.0425928 -0.0192321 1.00545 
0.0419025 -0.0175141 1.00544 
0.0409874 -0.0151761 1.00554 
0.0403234 -0.0118752 1.00567 
0.0394165 -0.00714234 1.00598 
0.0383636 -0.000156152 1.00621 
0.0377542 0.0108017 1.0063 
0.0381792 0.0249177 1.00631 
0.0405547 0.0435244 1.00555 
0.0442584 0.065474 1.00406 
0.0503866 0.0942366 1.00142 
0.0591374 0.12801 0.996999 
0.070625 0.162728 0.990635 
0.0903512 0.214022 0.978234 
0.11124 0.253926 0.966285 
0.139719 0.3143 0.943404 
0.174417 0.38092 0.911961 
0.193379 0.490758 0.856571 
0.197726 0.556731 0.807196 
0.134938 0.803418 0.591924 
0.00574908 1.00346 -0.00149489 
-0.132161 0.813904 -0.578896 
-0.183338 0.585124 -0.788248 
-0.190701 0.474346 -0.869382 
-0.169987 0.369582 -0.91784 
-0.143166 0.322297 -0.940356 
-0.117296 0.259933 -0.963517 
-0.0927654 0.215231 -0.97751 
-0.0739631 0.17155 -0.988537 
-0.0605805 0.131032 -0.996313 
-0.0528607 0.100818 -1.00065 
-0.0464443 0.0742952 -1.0033 
-0.043354 0.05167 -1.00419 
-0.0385805 0.0314068 -1.00608 
-0.0381678 0.0165003 -1.00636 
-0.0377237 0.00466328 -1.00641 
-0.0380026 -0.00339135 -1.00622 
-0.0403404 -0.00978141 -1.00586 
-0.0406958 -0.0138544 -1.00568 
-0.0417555 -0.0164335 -1.00554 
-0.0431061 -0.0184885 -1.00552 
-0.0440762 -0.0199462 -1.00547 
-0.0441427 -0.0214708 -1.00543 
-0.0443815 -0.0239805 -1.00543 
-0.0448544 -0.028231 -1.00538 
-0.0436425 -0.0334794 -1.00525 
-0.0427933 -0.0379289 -1.00509 
-0.0401668 -0.0393863 -1.00508 
-0.0376702 -0.037938 -1.00519 
-0.0356843 -0.0365168 -1.00544 
-0.0335479 -0.0374225 -1.00567 
-0.0323762 -0.0404715 -1.00634 
-0.0330885 -0.0462391 -1.00549 
-0.0314466 -0.0540432 -1.00538 
-0.0324432 -0.0639409 -1.0048 
-0.0290349 -0.0752954 -1.00378 
-0.0301826 -0.0875586 -1.0024 
-0.0262063 -0.104589 -1.00109 
-0.0267367 -0.12956 -0.998172 
-0.0224279 -0.167234 -0.988773 
0.0169401 -0.16996 0.988264 
0.0193835 -0.135043 0.997544 
0.0240627 -0.104975 1.00126 
0.0214294 -0.0902102 1.00238 
0.0258633 -0.0767559 1.00379 
0.0232373 -0.0639952 1.00493 
0.0252925 -0.0525534 1.00548 
0.0244785 -0.045364 1.00566 
0.0275622 -0.0405071 1.00578 
0.0267114 -0.0384193 1.00573 
0.0294858 -0.0377972 1.00548 
0.0322816 -0.0392601 1.00522 
0.0337033 -0.0412343 1.00509 
0.036311 -0.0396876 1.00572 
0.0381141 -0.0347847 1.00461 
0.0383037 -0.0284162 1.006 
0.0389369 -0.0237686 1.00483 
0.0379489 -0.0208407 1.00612 
0.0372532 -0.0191361 1.0049 
0.0363864 -0.0177157 1.00546 
0.0357579 -0.0158835 1.00556 
0.0353777 -0.0131625 1.00558 
0.0343449 -0.00938502 1.00573 
0.0336945 -0.0042101 1.00601 
0.0329618 0.00357925 1.00624 
0.0324857 0.0150332 1.00632 
0.0335562 0.0309363 1.0061 
0.0359208 0.0485196 1.00526 
0.0410343 0.070197 1.00368 
0.0487826 0.096993 1.0009 
0.0578209 0.124941 0.997034 
0.0740851 0.166008 0.989193 
0.0917235 0.204241 0.979843 
0.115748 0.250993 0.966531 
0.140829 0.30207 0.947604 
0.154982 0.31883 0.938925 
0.195215 0.394899 0.902818 
0.212447 0.602536 0.772793 
0.149274 0.813001 0.571583 
-0.00832312 1.00446 0.0370811 
-0.1472 0.823802 -0.551809 
-0.198796 0.615833 -0.765037 
-0.200185 0.390785 -0.905266 
-0.158984 0.317459 -0.938822 
-0.137756 0.28593 -0.953238 
-0.110084 0.233551 -0.971636 
-0.092893 0.203573 -0.97999 
-0.0739355 0.165249 -0.989408 
-0.0593639 0.128999 -0.996383 
-0.0488851 0.0983865 -1.00102 
-0.0411264 0.069642 -1.00371 
-0.0368444 0.0472149 -1.0053 
-0.0325596 0.0278097 -1.00621 
-0.0324892 0.0134867 -1.00642 
-0.032253 0.00294418 -1.00632 
-0.0334599 -0.00476358 -1.006 
-0.0349034 -0.00978582 -1.00572 
-0.0349522 -0.0135188 -1.00559 
-0.0362011 -0.0162046 -1.00554 
-0.0366875 -0.0177705 -1.00611 
-0.038134 -0.0192736 -1.00485 
-0.0378577 -0.0208735 -1.00608 
-0.0383159 -0.0241293 -1.00552 
-0.038295 -0.0291948 -1.0054 
-0.0375651 -0.0354457 -1.0053 
-0.0366399 -0.039981 -1.00516 
-0.0345366 -0.041288 -1.00446 
-0.0318136 -0.0395501 -1.00526 
-0.0292022 -0.038298 -1.00614 
-0.0277653 -0.0386895 -1.00505 
-0.0260393 -0.0418017 -1.00564 
-0.0267445 -0.0466901 -1.0056 
-0.0241124 -0.0529638 -1.00549 
-0.0256649 -0.0615921 -1.0051 
-0.0229982 -0.0740678 -1.00399 
-0.0228812 -0.0892304 -1.00242 
-0.0206421 -0.11027 -1.00066 
-0.0209572 -0.135892 -0.997415 
-0.0180014 -0.168901 -0.988559 
0.0103502 -0.173203 0.987772 
0.0131334 -0.141998 0.99637 
0.0185435 -0.110718 1.00057 
0.0162919 -0.0904431 1.0022 
0.0198076 -0.075388 1.00382 
0.0161556 -0.0649032 1.00481 
0.0195456 -0.0555436 1.00536 
0.0185076 -0.04861 1.00554 
0.0207356 -0.0424021 1.00575 
0.0223451 -0.0402643 1.00619 
0.0252663 -0.0404591 1.00529 
0.0282138 -0.0420833 1.00512 
0.0293407 -0.0434835 1.00491 
0.0316277 -0.0405513 1.00451 
0.0333928 -0.0348685 1.00522 
0.0325196 -0.02851 1.00544 
0.0332141 -0.0235048 1.00553 
0.0322984 -0.0204414 1.00558 
0.0316321 -0.0186661 1.00619 
0.0311222 -0.0171873 1.00563 
0.0306969 -0.0154454 1.00561 
0.0301313 -0.0131565 1.0057 
0.0296273 -0.00967749 1.00582 
0.0285935 -0.00427547 1.00616 
0.0281677 0.00360616 1.00642 
0.0274771 0.0143883 1.00649 
0.0281843 0.0279271 1.00626 