# vtk DataFile Version 3.0 
Exported using Morpho https://github.com/Morpho-lang/morpho 
ASCII 
DATASET UNSTRUCTURED_GRID 

POINTS 1978 float 
-8.48528 -2.82843 4.53003e-11 
-8.25676 -2.82843 4.56658e-11 
-8.02938 -2.82843 -2.84386e-10 
-7.7588 -2.82843 -2.90741e-10 
-7.47593 -2.82843 -2.46115e-10 
-7.2377 -2.82843 -1.43596e-10 
-6.99824 -2.82843 -1.18971e-10 
-6.76987 -2.82843 -8.43621e-11 
-6.56116 -2.82843 -7.83478e-11 
-6.34587 -2.82843 -3.5723e-11 
-6.14637 -2.82843 -5.24346e-11 
-5.92548 -2.82843 -2.03561e-11 
-5.71266 -2.82843 -1.29133e-11 
-5.50912 -2.82843 -1.39516e-11 
-5.29317 -2.82843 8.68828e-12 
-5.08238 -2.82843 5.3352e-12 
-4.86571 -2.82843 1.96007e-11 
-4.66019 -2.82843 2.14571e-11 
-4.44027 -2.82843 2.57709e-11 
-4.22465 -2.82843 4.52767e-11 
-4.00619 -2.82843 5.15053e-11 
-3.79666 -2.82843 7.09998e-11 
-3.58144 -2.82843 8.00765e-11 
-3.36945 -2.82843 1.0287e-10 
-3.14955 -2.82843 1.30657e-10 
-2.93862 -2.82843 1.52937e-10 
-2.7281 -2.82843 1.78716e-10 
-2.53055 -2.82843 2.05223e-10 
-2.31736 -2.82843 2.33837e-10 
-2.10728 -2.82843 2.51389e-10 
-1.90024 -2.82843 2.42849e-10 
-1.69417 -2.82843 2.39824e-10 
-1.49098 -2.82843 1.95425e-10 
-1.27339 -2.82843 6.23251e-11 
-1.10275 -2.82843 1.66499e-10 
-0.845469 -2.82843 6.19967e-11 
-0.629313 -2.82843 -4.22588e-11 
-0.441573 -2.82843 -2.06623e-10 
-0.215753 -2.82843 3.07832e-10 
0.0166389 -2.82843 1.96352e-11 
0.21254 -2.82843 -2.2316e-11 
0.417675 -2.82843 2.32097e-11 
0.636384 -2.82843 1.36564e-11 
0.867298 -2.82843 -1.28094e-10 
1.06677 -2.82843 -1.05003e-11 
1.26108 -2.82843 -1.42857e-10 
1.44853 -2.82843 -1.97853e-10 
1.69898 -2.82843 -2.41007e-10 
1.88968 -2.82843 -2.40735e-10 
2.10269 -2.82843 -2.38411e-10 
2.32714 -2.82843 -2.4184e-10 
2.51744 -2.82843 -2.08841e-10 
2.74491 -2.82843 -1.84404e-10 
2.96342 -2.82843 -1.64395e-10 
3.1742 -2.82843 -1.17438e-10 
3.38171 -2.82843 -9.88303e-11 
3.60638 -2.82843 -8.26523e-11 
3.80887 -2.82843 -6.33408e-11 
4.02405 -2.82843 -5.70067e-11 
4.25028 -2.82843 -3.69196e-11 
4.44875 -2.82843 -3.14094e-11 
4.66159 -2.82843 -1.92058e-11 
4.87018 -2.82843 -1.7878e-11 
5.07343 -2.82843 -1.22053e-11 
5.28981 -2.82843 5.64723e-12 
5.50057 -2.82843 3.51345e-12 
5.70449 -2.82843 1.39075e-11 
5.92328 -2.82843 2.85536e-11 
6.14335 -2.82843 4.17844e-11 
6.34277 -2.82843 4.89316e-11 
6.58233 -2.82843 7.66564e-11 
6.79106 -2.82843 8.42083e-11 
6.99095 -2.82843 1.18716e-10 
7.24913 -2.82843 1.65077e-10 
7.47763 -2.82843 2.18106e-10 
7.71868 -2.82843 2.13714e-10 
7.98524 -2.82843 2.70853e-10 
8.17104 -2.82843 4.33129e-11 
8.48528 -2.82843 -6.43779e-11 
-8.48528 -2.59171 -2.40672e-11 
-8.2499 -2.5852 -4.56049e-18 
-8.01028 -2.58751 1.40871e-17 
-7.76838 -2.61755 5.84054e-18 
-7.51132 -2.63441 6.79407e-18 
-7.22744 -2.60017 4.40645e-18 
-6.98185 -2.60006 5.85545e-18 
-6.77109 -2.57909 3.05379e-18 
-6.53955 -2.59825 4.37824e-18 
-6.33252 -2.57191 3.35383e-18 
-6.10812 -2.59969 2.11189e-18 
-5.89126 -2.58748 1.7607e-18 
-5.68165 -2.57512 1.13779e-18 
-5.4644 -2.59106 4.10672e-19 
-5.24903 -2.58543 6.76529e-20 
-5.0307 -2.59168 -3.86184e-19 
-4.82031 -2.57969 -9.17333e-19 
-4.60134 -2.59571 -1.34592e-18 
-4.38242 -2.59049 -1.86888e-18 
-4.16378 -2.59247 -2.50786e-18 
-3.9526 -2.58071 -3.3923e-18 
-3.73997 -2.58689 -4.1139e-18 
-3.52752 -2.58585 -5.49265e-18 
-3.31107 -2.59646 -6.18906e-18 
-3.09821 -2.59171 -8.28927e-18 
-2.88632 -2.59536 -9.4823e-18 
-2.68366 -2.58596 -1.20324e-17 
-2.47285 -2.60619 -1.28527e-17 
-2.25629 -2.60192 -1.3609e-17 
-2.0476 -2.59842 -1.41822e-17 
-1.83524 -2.60003 -1.74448e-17 
-1.62127 -2.58998 -1.35021e-17 
-1.41293 -2.59901 -1.68744e-17 
-1.2351 -2.51357 9.7499e-19 
-1.01583 -2.62838 2.26338e-18 
-0.788653 -2.58476 2.47503e-18 
-0.595098 -2.53492 9.03864e-18 
-0.389885 -2.51808 2.74605e-17 
-0.189395 -2.5377 5.34823e-18 
0.0203735 -2.48807 1.3893e-17 
0.215276 -2.52075 -6.31428e-18 
0.417671 -2.51752 -1.03542e-17 
0.620645 -2.55962 6.88259e-19 
0.841793 -2.59012 -1.01882e-17 
1.0704 -2.56722 1.31668e-18 
1.26657 -2.56753 5.31717e-18 
1.51191 -2.6462 9.69474e-18 
1.72047 -2.58936 1.86631e-17 
1.9372 -2.61318 1.14664e-17 
2.16638 -2.62071 1.24633e-17 
2.36967 -2.57789 1.57563e-17 
2.58491 -2.61753 1.03027e-17 
2.80814 -2.60288 1.01286e-17 
3.0171 -2.59109 8.79319e-18 
3.22468 -2.58303 7.20266e-18 
3.4452 -2.60089 5.46465e-18 
3.65235 -2.57531 5.00391e-18 
3.86598 -2.5898 3.38256e-18 
4.09226 -2.60169 2.59809e-18 
4.30002 -2.57072 2.48486e-18 
4.51434 -2.59012 1.45699e-18 
4.72804 -2.5852 1.09108e-18 
4.94002 -2.5808 6.56661e-19 
5.15502 -2.59512 7.30068e-20 
5.37397 -2.58922 -2.28173e-19 
5.58522 -2.5801 -8.77952e-19 
5.80191 -2.59524 -1.35962e-18 
6.02635 -2.59479 -1.85394e-18 
6.2395 -2.56785 -3.13805e-18 
6.45906 -2.60995 -2.86249e-18 
6.68488 -2.57592 -4.73127e-18 
6.89241 -2.56208 -6.43965e-18 
7.11798 -2.62199 -4.58163e-18 
7.36664 -2.5919 -6.89475e-18 
7.60289 -2.60203 -6.81644e-18 
7.85822 -2.62235 -7.34683e-18 
8.07238 -2.52915 -1.37328e-17 
8.29735 -2.64525 4.06831e-18 
8.48528 -2.52378 -8.30219e-11 
-8.48528 -2.35109 1.36204e-11 
-8.23947 -2.35248 1.46527e-18 
-8.0011 -2.34217 1.48484e-17 
-7.7592 -2.39308 9.99548e-18 
-7.55925 -2.23835 9.00746e-18 
-7.46329 -2.44323 1.0656e-17 
-7.17415 -2.39112 1.02379e-17 
-6.95226 -2.34356 9.25365e-18 
-6.70309 -2.36738 6.08526e-18 
-6.48753 -2.34603 5.00612e-18 
-6.24349 -2.35522 3.98874e-18 
-6.02847 -2.35718 2.78238e-18 
-5.81112 -2.33865 1.78146e-18 
-5.58295 -2.34562 1.11439e-18 
-5.3671 -2.35056 5.13963e-19 
-5.14288 -2.35426 -1.3617e-19 
-4.92869 -2.34253 -8.14512e-19 
-4.70406 -2.3555 -1.4696e-18 
-4.48598 -2.35946 -2.22158e-18 
-4.26303 -2.35709 -3.01583e-18 
-4.0499 -2.34247 -3.85547e-18 
-3.83333 -2.34234 -4.87743e-18 
-3.62106 -2.34596 -6.3472e-18 
-3.40396 -2.35769 -7.95308e-18 
-3.19188 -2.35864 -1.00523e-17 
-2.9771 -2.36184 -1.20584e-17 
-2.77002 -2.35033 -1.39891e-17 
-2.55744 -2.36922 -1.74799e-17 
-2.34769 -2.3845 -2.05848e-17 
-2.12948 -2.36572 -2.0494e-17 
-1.91786 -2.37247 -2.22251e-17 
-1.70084 -2.3709 -1.91085e-17 
-1.47658 -2.34799 -4.20989e-18 
-1.25362 -2.27779 -9.47309e-18 
-1.01257 -2.39251 -3.48013e-18 
-0.797695 -2.31929 3.27131e-18 
-0.569717 -2.25089 6.81394e-18 
-0.34302 -2.21766 -9.55072e-18 
-0.11135 -2.24503 -1.07337e-17 
0.0827681 -1.96695 -5.35175e-17 
0.164168 -2.205 3.83055e-17 
0.378904 -2.20503 -1.47851e-17 
0.604024 -2.2582 -2.01451e-17 
0.813941 -2.32201 -1.06658e-17 
1.03173 -2.33233 2.69602e-18 
1.25451 -2.3047 -4.09661e-18 
1.45623 -2.43097 1.82856e-17 
1.65115 -2.36234 2.18898e-17 
1.87124 -2.38425 2.44095e-17 
2.08784 -2.4096 2.07585e-17 
2.29881 -2.35936 2.13629e-17 
2.53012 -2.37859 1.86851e-17 
2.73418 -2.3896 1.56294e-17 
2.95377 -2.35282 1.24128e-17 
3.15667 -2.3434 1.0311e-17 
3.3736 -2.36497 8.22791e-18 
3.57896 -2.33594 6.65106e-18 
3.79327 -2.34418 5.2978e-18 
4.00936 -2.36976 4.12932e-18 
4.21792 -2.33414 3.08843e-18 
4.43919 -2.34469 2.32298e-18 
4.64885 -2.34546 1.5887e-18 
4.8618 -2.34285 9.59908e-19 
5.08006 -2.35119 3.88956e-19 
5.29171 -2.35934 -2.71283e-19 
5.50851 -2.3412 -8.97699e-19 
5.72725 -2.35304 -1.61446e-18 
5.9444 -2.36449 -2.47293e-18 
6.16023 -2.33435 -3.42963e-18 
6.39338 -2.3575 -4.4963e-18 
6.60155 -2.35495 -5.89998e-18 
6.82616 -2.31009 -6.7019e-18 
7.05493 -2.36724 -8.86787e-18 
7.273 -2.38819 -1.04184e-17 
7.53314 -2.36643 -1.10542e-17 
7.77582 -2.39935 -1.17434e-17 
7.99289 -2.30432 -1.21522e-17 
8.25949 -2.37005 6.55413e-19 
8.48528 -2.27434 4.8103e-12 
-8.48528 -2.09594 5.48894e-11 
-8.25927 -2.10835 -2.2712e-18 
-8.04361 -2.09372 3.49272e-18 
-7.79905 -2.14609 4.66877e-18 
-7.50511 -2.02785 1.15403e-18 
-7.2989 -2.22157 6.18333e-18 
-7.05944 -2.12063 2.94222e-18 
-6.80343 -2.14327 4.24745e-18 
-6.58764 -2.11335 3.33009e-18 
-6.35114 -2.13867 2.42708e-18 
-6.12424 -2.11069 1.68812e-18 
-5.91672 -2.10711 1.27133e-18 
-5.68968 -2.11583 8.7832e-19 
-5.46799 -2.10761 4.81441e-19 
-5.25135 -2.12183 1.34543e-19 
-5.03765 -2.10853 -2.52727e-19 
-4.81407 -2.11991 -6.09934e-19 
-4.59714 -2.12272 -9.97873e-19 
-4.38014 -2.12775 -1.38899e-18 
-4.16898 -2.10923 -1.77611e-18 
-3.95418 -2.10537 -2.23195e-18 
-3.74153 -2.10424 -2.92708e-18 
-3.52763 -2.11757 -3.73547e-18 
-3.31781 -2.12199 -4.64854e-18 
-3.10556 -2.12871 -5.75353e-18 
-2.89907 -2.12148 -6.80918e-18 
-2.68297 -2.12737 -8.21778e-18 
-2.47323 -2.14316 -9.75218e-18 
-2.26312 -2.15547 -1.22076e-17 
-2.03724 -2.13433 -1.20122e-17 
-1.82219 -2.1453 -1.19927e-17 
-1.60342 -2.13788 -8.63434e-18 
-1.3858 -2.0811 -8.54102e-21 
-1.17942 -1.96266 7.87957e-18 
-1.04782 -2.14599 1.11761e-17 
-0.818965 -2.0699 1.75262e-17 
-0.582874 -1.99164 1.65503e-17 
-0.376748 -1.90294 3.51089e-17 
-0.162866 -1.95932 -1.70731e-17 
-0.0187008 -1.69926 4.50329e-17 
0.205462 -1.6179 4.55448e-17 
0.331187 -1.87156 -9.53681e-17 
0.547945 -1.96115 7.13252e-19 
0.776479 -2.01717 -1.57413e-17 
0.98388 -2.06337 5.74014e-18 
1.19501 -2.06247 -1.65843e-18 
1.44748 -2.17583 2.17509e-18 
1.67735 -2.13496 7.23194e-18 
1.89741 -2.16149 9.81129e-18 
2.11118 -2.17723 1.19977e-17 
2.36134 -2.15974 9.75274e-18 
2.57468 -2.13877 8.70157e-18 
2.78078 -2.15815 8.71348e-18 
2.98657 -2.10172 5.74141e-18 
3.20738 -2.12046 5.22512e-18 
3.40895 -2.11559 4.24974e-18 
3.62476 -2.1007 3.03364e-18 
3.8424 -2.11549 2.68265e-18 
4.04468 -2.11962 2.09843e-18 
4.27271 -2.10694 1.46278e-18 
4.48298 -2.10234 1.09568e-18 
4.69654 -2.10615 7.41489e-19 
4.91541 -2.113 4.06247e-19 
5.12932 -2.11247 6.30167e-20 
5.34101 -2.12175 -2.78443e-19 
5.56515 -2.11104 -5.76366e-19 
5.78264 -2.12008 -1.00648e-18 
5.99341 -2.11923 -1.47235e-18 
6.23419 -2.11911 -1.88721e-18 
6.44334 -2.10414 -2.41016e-18 
6.65586 -2.10927 -3.14261e-18 
6.91101 -2.09863 -3.22163e-18 
7.12627 -2.12826 -3.91361e-18 
7.35756 -2.17344 -4.7028e-18 
7.55106 -2.07798 -1.70683e-18 
7.73601 -2.16567 -5.6626e-18 
7.95401 -2.06925 -1.69397e-18 
8.20351 -2.14458 -1.83103e-18 
8.48528 -2.07469 -6.32098e-13 
-8.48528 -1.80607 6.90573e-11 
-8.29633 -1.857 -3.73917e-18 
-7.87696 -1.89901 -4.13866e-19 
[...]
POINT_DATA 1978 
VECTORS vectors float
0.000797583 -0.00112194 0.999999 
0.00141105 -0.0688703 0.997625 
0.00146175 -0.0943998 0.995533 
0.00151266 -0.0901002 0.995932 
0.00142147 -0.0741302 0.997248 
0.00132008 -0.0595934 0.998222 
0.00130083 -0.0452552 0.998975 
0.00126314 -0.0351032 0.999383 
0.00124183 -0.0266121 0.999645 
0.00125748 -0.0192541 0.999814 
0.00127307 -0.0137867 0.999904 
0.00126822 -0.00889825 0.99996 
0.00129599 -0.00493669 0.999987 
0.00128052 -0.00187635 0.999997 
0.00130247 0.00078578 0.999999 
0.00130164 0.00299772 0.999995 
0.00130542 0.00525106 0.999985 
0.00130637 0.00761996 0.99997 
0.00131165 0.0104598 0.999944 
0.00130933 0.0138565 0.999903 
0.00128954 0.0181884 0.999834 
0.00126688 0.0235177 0.999723 
0.00126156 0.0305196 0.999533 
0.00124444 0.0393926 0.999223 
0.00122183 0.0514438 0.998675 
0.00116075 0.0665793 0.99778 
0.0011172 0.0863249 0.996266 
0.00106446 0.109964 0.993935 
0.00100013 0.14235 0.989816 
0.00092157 0.183092 0.983095 
0.000812494 0.233753 0.972296 
0.000704975 0.295858 0.955232 
0.000539693 0.370158 0.928968 
0.000412847 0.465956 0.884808 
0.000242036 0.553259 0.833009 
0.00010735 0.694975 0.719033 
2.59508e-05 0.810748 0.585396 
-8.64426e-06 0.896277 0.443495 
-4.84174e-05 0.973558 0.228441 
-1.14025e-05 0.999875 -0.0157914 
5.86383e-05 0.97399 -0.22659 
4.27188e-05 0.905217 -0.42495 
-1.33613e-05 0.803002 -0.595976 
-0.000122806 0.677955 -0.735103 
-0.000232797 0.569515 -0.821981 
-0.000399119 0.469693 -0.88283 
-0.000570657 0.385302 -0.92279 
-0.000715196 0.294697 -0.95559 
-0.000863792 0.237687 -0.971341 
-0.000892666 0.185786 -0.98259 
-0.00101915 0.141663 -0.989914 
-0.00109761 0.112055 -0.993701 
-0.00114 0.0851236 -0.99637 
-0.00119164 0.0649112 -0.99789 
-0.00122088 0.0499024 -0.998753 
-0.0012295 0.0387052 -0.99925 
-0.00125197 0.0296047 -0.999561 
-0.00129773 0.0231748 -0.999731 
-0.00127411 0.0180807 -0.999836 
-0.00130021 0.0137964 -0.999904 
-0.00129492 0.0106367 -0.999943 
-0.00125638 0.00780923 -0.999969 
-0.00130053 0.00527664 -0.999985 
-0.00129369 0.00301179 -0.999995 
-0.00128084 0.000579003 -0.999999 
-0.00130012 -0.00209561 -0.999997 
-0.00130074 -0.00508789 -0.999986 
-0.0012657 -0.00894835 -0.999959 
-0.00131277 -0.0138211 -0.999904 
-0.00129399 -0.0190775 -0.999817 
-0.00123467 -0.0268268 -0.999639 
-0.00129933 -0.0352172 -0.999379 
-0.0012498 -0.0449084 -0.99899 
-0.00130671 -0.0598837 -0.998205 
-0.00135243 -0.0752406 -0.997164 
-0.00126918 -0.0909354 -0.995856 
-0.00146287 -0.100791 -0.994907 
-0.00151056 -0.0862343 -0.996274 
-0.000718907 -0.000637373 -1 
-0.000192682 0.00061179 1 
0.0160264 -0.0581658 0.998178 
0.0313307 -0.084373 0.995942 
0.0311552 -0.0870273 0.995719 
0.0310023 -0.0749579 0.996705 
0.0352865 -0.0580652 0.997689 
0.0390344 -0.0460436 0.998176 
0.0395632 -0.0357985 0.998576 
0.0411205 -0.0264863 0.998803 
0.0455201 -0.0196815 0.99877 
0.0418415 -0.0134533 0.999034 
0.0439267 -0.00863611 0.998997 
0.0466608 -0.00506242 0.998898 
0.0447465 -0.00189272 0.998997 
0.0460311 0.000826587 0.99894 
0.0452225 0.00332375 0.998971 
0.0472641 0.0056855 0.998866 
0.0443934 0.00838774 0.998979 
0.0449497 0.0115754 0.998922 
0.0442946 0.0154456 0.998899 
0.0453325 0.0201433 0.998769 
0.0436123 0.0260937 0.998708 
0.0430655 0.0337307 0.998503 
0.040289 0.0437593 0.998229 
0.0399277 0.056712 0.997592 
0.0378058 0.0733872 0.996587 
0.0370894 0.0939935 0.994882 
0.0321489 0.12057 0.992184 
0.0292245 0.156226 0.987289 
0.0258884 0.199892 0.979476 
0.0222202 0.255012 0.966682 
0.0179636 0.324273 0.945793 
0.0130532 0.405511 0.913997 
0.0112334 0.488759 0.872347 
0.00501801 0.600733 0.799434 
0.00288119 0.721169 0.692754 
0.00130995 0.822461 0.56882 
9.36071e-05 0.916367 0.400339 
-0.000639625 0.976701 0.214606 
-0.00129163 0.99998 -0.00627012 
-0.00181938 0.974747 -0.223305 
-0.00233462 0.909648 -0.415373 
-0.00352115 0.813497 -0.581559 
-0.00523342 0.694136 -0.719825 
-0.00862157 0.569638 -0.82185 
-0.0118813 0.469594 -0.882802 
-0.0132362 0.362489 -0.931894 
-0.0210013 0.290012 -0.956793 
-0.022746 0.22821 -0.973346 
-0.0260541 0.174797 -0.98426 
-0.033626 0.137962 -0.989867 
-0.0318017 0.106021 -0.993855 
-0.035844 0.0810478 -0.996065 
-0.0391657 0.0627673 -0.997259 
-0.0415461 0.0487672 -0.997946 
-0.0403921 0.0371655 -0.998492 
-0.0449122 0.0290721 -0.998568 
-0.0434948 0.0225248 -0.9988 
-0.0424422 0.0170972 -0.998953 
-0.0477951 0.0132001 -0.99877 
-0.0452351 0.00985427 -0.998928 
-0.0461092 0.00692618 -0.998912 
-0.0473171 0.00432662 -0.998871 
-0.0445991 0.0018054 -0.999003 
-0.0457204 -0.000962843 -0.998954 
-0.0466569 -0.0038697 -0.998903 
-0.0434288 -0.00729409 -0.99903 
-0.043038 -0.0117427 -0.999004 
-0.0461218 -0.0169021 -0.998793 
-0.0386217 -0.0232125 -0.998984 
-0.0430961 -0.0314554 -0.998576 
-0.0436245 -0.0404793 -0.998228 
-0.0338781 -0.0520637 -0.998069 
-0.0372691 -0.0668195 -0.997069 
-0.0348725 -0.0807545 -0.996124 
-0.0314743 -0.0920178 -0.99526 
-0.0346934 -0.0814434 -0.996074 
-0.00995098 -0.0501053 -0.998694 
0.000380857 0.000522886 -1 
-0.000155745 -2.46375e-05 1 
0.0267503 -0.0566162 0.998038 
0.0485184 -0.0823002 0.995426 
0.0504243 -0.0822945 0.995332 
0.0589761 -0.0751909 0.995424 
0.0507177 -0.0706199 0.996213 
0.0573297 -0.0555612 0.996808 
0.0617788 -0.0439565 0.997121 
0.0613063 -0.0333262 0.997562 
0.0645103 -0.0251059 0.997601 
0.0657 -0.0176253 0.997684 
0.066327 -0.0122945 0.997722 
0.0683124 -0.00807983 0.997631 
0.0689856 -0.00427837 0.997608 
0.0693733 -0.00116767 0.99759 
0.0696588 0.00168175 0.997569 
0.0705488 0.00424674 0.997499 
0.0697909 0.00711764 0.997536 
0.0692294 0.0102576 0.997548 
0.0685214 0.0140454 0.997551 
0.0682299 0.0185395 0.997497 
0.0668723 0.0241764 0.997469 
0.0654228 0.0312312 0.997369 
0.0632171 0.0405559 0.997175 
0.0613744 0.052384 0.996739 
0.0587135 0.0678555 0.995966 
0.0562393 0.0871875 0.994603 
0.0520653 0.112092 0.992333 
0.0469113 0.143385 0.988555 
0.04184 0.186375 0.981587 
0.0356666 0.237621 0.970703 
0.0285715 0.305162 0.951872 
0.0210572 0.389029 0.920985 
0.0149384 0.482653 0.875684 
0.00830442 0.594377 0.804143 
0.0039883 0.70455 0.709643 
0.000379174 0.827159 0.561968 
-0.00171344 0.920206 0.39143 
-0.00198212 0.981552 0.191186 
-0.0029642 0.999105 -0.0422058 
-0.00279159 0.975905 -0.218179 
-0.00377646 0.907607 -0.419804 
-0.00498709 0.813345 -0.581761 
-0.00743024 0.705041 -0.709128 
-0.0114185 0.588034 -0.808756 
-0.0170148 0.478551 -0.877895 
-0.0213602 0.386217 -0.922161 
-0.0289481 0.317545 -0.947801 
-0.0348458 0.250326 -0.967534 
-0.0395842 0.194972 -0.98001 
-0.0469662 0.153015 -0.987107 
-0.0508703 0.116443 -0.991894 
-0.0541699 0.0906584 -0.994408 
-0.05861 0.0700111 -0.995823 
-0.0615277 0.0546972 -0.996606 
-0.0624972 0.0419368 -0.997164 
-0.0657979 0.0329326 -0.997289 
-0.0668231 0.0255096 -0.997439 
-0.0665364 0.0195852 -0.997592 
-0.0695424 0.0152001 -0.997463 
-0.0697058 0.011223 -0.997504 
-0.0700238 0.0080186 -0.997513 
-0.0706315 0.00513329 -0.997489 
-0.0701815 0.00233927 -0.997532 
-0.0695039 -0.000363639 -0.997582 
-0.0699438 -0.00341217 -0.997545 
-0.0685072 -0.00678414 -0.997628 
-0.0668085 -0.0107191 -0.997708 
-0.0673705 -0.0156255 -0.997606 
-0.0646698 -0.0219001 -0.997666 
-0.0634258 -0.0288185 -0.99757 
-0.063524 -0.0381783 -0.99725 
-0.0597694 -0.0492048 -0.996999 
-0.057174 -0.0612491 -0.996484 
-0.0558449 -0.0750893 -0.995612 
-0.0521347 -0.0851215 -0.995006 
-0.0508085 -0.0828062 -0.99527 
-0.0245246 -0.0521304 -0.998339 
-3.00217e-05 1.58455e-05 -1 
-0.000270544 0.000132839 1 
0.0241416 -0.0496111 0.998477 
0.0448201 -0.0773176 0.995999 
0.0540653 -0.0814227 0.995212 
0.0563995 -0.0736745 0.995686 
0.0610834 -0.063158 0.996132 
0.0620296 -0.050641 0.996789 
0.0645972 -0.0377164 0.997198 
0.0661826 -0.0293174 0.997377 
0.0679874 -0.0214168 0.997456 
0.0688968 -0.0154972 0.997503 
0.0701603 -0.0109917 0.997475 
0.0712585 -0.00681794 0.997435 
0.0719257 -0.00335639 0.997404 
0.0727845 -0.00026555 0.997348 
0.0729821 0.00251189 0.99733 
0.0732201 0.00553574 0.9973 
0.072992 0.0087027 0.997295 
0.0724306 0.0123444 0.997297 
0.071283 0.0165547 0.997319 
0.0698896 0.0217432 0.997318 
0.0683229 0.0281174 0.997267 
0.0667058 0.0363041 0.997112 
0.0646621 0.0466073 0.996818 
0.0622653 0.0599873 0.996255 
0.0592703 0.0766991 0.995291 
0.0555719 0.0988637 0.993548 
0.0513793 0.126435 0.990643 
0.046472 0.161258 0.985818 
0.039537 0.209896 0.976924 
0.0327573 0.269276 0.962506 
0.0250095 0.344396 0.938491 
0.0170324 0.431246 0.902074 
0.00931184 0.536491 0.843854 
0.00836235 0.578148 0.815889 
0.0028111 0.707445 0.706762 
-0.000405206 0.823478 0.567348 
-0.0010253 0.927043 0.374954 
-0.00200332 0.989971 0.141257 
-0.0016121 0.999572 0.0292028 
-0.0021742 0.97633 -0.216274 
-0.00331575 0.925033 -0.379872 
-0.00508298 0.835961 -0.548765 
-0.00694013 0.728529 -0.68498 
-0.0100881 0.623276 -0.781937 
-0.0144932 0.515933 -0.856507 
-0.0221213 0.401231 -0.91571 
-0.0286288 0.315741 -0.948413 
-0.0356795 0.247443 -0.968245 
-0.0422181 0.193847 -0.980123 
-0.0486519 0.144703 -0.988278 
-0.0533642 0.112938 -0.992168 
-0.0575444 0.0881043 -0.994448 
-0.0601776 0.069341 -0.995776 
-0.0634563 0.0531372 -0.996569 
-0.0656083 0.0418402 -0.996968 
-0.0673886 0.0325055 -0.997197 
-0.069384 0.0250021 -0.997277 
-0.0706691 0.0195892 -0.997307 
-0.0717478 0.0146321 -0.997315 
-0.0723963 0.0107663 -0.997318 
-0.0729403 0.00736368 -0.997309 
-0.0732497 0.00420075 -0.997305 
-0.0731082 0.00127009 -0.997323 
-0.0728144 -0.0016401 -0.997344 
-0.0719495 -0.00502479 -0.997396 
-0.0711308 -0.00861718 -0.99743 
-0.0700481 -0.0127113 -0.997463 
-0.0686786 -0.0183999 -0.997469 
-0.0669985 -0.0244852 -0.997453 
-0.0655399 -0.0318975 -0.99734 
-0.0633647 -0.0430835 -0.99706 
-0.0619718 -0.0540915 -0.996611 
-0.0606527 -0.0667027 -0.995928 
-0.0573628 -0.0760384 -0.995453 
-0.0565281 -0.0820409 -0.995025 
-0.0501216 -0.0824496 -0.995334 
-0.0337437 -0.0597637 -0.997642 
-2.70494e-05 0.00011205 -1 
-0.00035211 9.88352e-05 1 
0.0188403 -0.0447306 0.998821 
0.0472237 -0.0839843 0.995347 
0.0509994 -0.0795947 0.995522 
0.0499549 -0.0709921 0.996225 
0.0576425 -0.0629544 0.99635 
0.0545314 -0.0561156 0.996934 
0.0596426 -0.044921 0.997209 
0.0596707 -0.0351684 0.997598 
0.0625825 -0.0265688 0.997686 
0.0635824 -0.0200054 0.997776 
0.0633993 -0.0147838 0.997879 
0.0654037 -0.0101686 0.997807 
0.0662608 -0.00626129 0.997783 
0.0668987 -0.0027093 0.997756 
0.0674241 0.000333895 0.997724 
0.0680134 0.00360386 0.997678 
0.0680099 0.00689063 0.997661 
0.067826 0.0105086 0.997642 
0.0666673 0.0145029 0.99767 
0.0653186 0.0192904 0.997678 
0.0637645 0.0250887 0.99765 
0.0623752 0.0323448 0.997529 
0.0606359 0.0412576 0.997307 
0.0586538 0.0527019 0.996886 
0.0559768 0.0670098 0.996181 
0.053029 0.0855952 0.994918 
0.0491722 0.109612 0.992757 
0.0450393 0.139521 0.989194 
0.040237 0.178041 0.9832 
0.0327505 0.235003 0.971443 
0.0264253 0.299184 0.953829 
0.0190073 0.374315 0.927107 
0.0118124 0.465942 0.884736 
0.00367911 0.65869 0.752405 
0.000907095 0.777845 0.628455 
0.000211091 0.877451 0.479666 
-0.000232844 0.948149 0.317825 
-0.00103844 0.972701 0.232059 
-0.00137133 0.9994 -0.0346147 
-0.00147454 0.969767 -0.24403 
-0.00223494 0.921773 -0.387723 
-0.00366467 0.827147 -0.561973 
-0.00610702 0.71276 -0.701382 
-0.00919453 0.589866 -0.807449 
-0.0127181 0.49058 -0.871303 
-0.0190766 0.41736 -0.908541 
-0.022545 0.349564 -0.936641 
-0.0292836 0.275327 -0.960905 
-0.0359184 0.216491 -0.975624 
-0.0424635 0.166744 -0.985085 
-0.0468154 0.126805 -0.990822 
-0.0511783 0.0985114 -0.993819 
-0.0537054 0.0786082 -0.995458 
-0.0572715 0.0599937 -0.996554 
-0.0592443 0.046986 -0.997137 
-0.0613232 0.0369822 -0.997433 
-0.0634825 0.0284022 -0.997579 
-0.0645809 0.0221986 -0.997666 
-0.0665032 0.017019 -0.997641 
-0.06648 0.0124618 -0.99771 
-0.0672366 0.00860662 -0.9977 
-0.0678666 0.00509319 -0.997681 
-0.0676587 0.00187464 -0.997707 
-0.0674432 -0.00133365 -0.997722 
-0.0672044 -0.00453457 -0.997729 
-0.0660155 -0.00836489 -0.997784 
-0.0648186 -0.0124471 -0.997819 
-0.0645444 -0.0172405 -0.997766 
-0.061598 -0.0235722 -0.997823 
-0.0602311 -0.0307305 -0.997711 
-0.0596955 -0.0395197 -0.997434 
-0.0566545 -0.0522145 -0.997028 
-0.0564224 -0.0642123 -0.99634 
-0.0519911 -0.0757709 -0.995769 
-0.0498372 -0.0828227 -0.995317 
-0.0407724 -0.0781745 -0.996106 
-0.026167 -0.0525085 -0.998278 
7.61962e-05 0.000166703 -1 
-0.00013092 0.00010186 1 
0.0170985 -0.04833 0.998685 
0.0352549 -0.0725988 0.996738 
0.0397003 -0.0846674 0.995618 
0.0435328 -0.0804661 0.995806 
0.0455263 -0.0652713 0.996828 
0.0490886 -0.0500597 0.997539 
0.0514867 -0.0410671 0.997829 
0.0530778 -0.0305842 0.998122 
0.0545198 -0.0237451 0.99823 
0.0543122 -0.018162 0.998359 
0.0552323 -0.0128265 0.998391 
0.0568561 -0.00870356 0.998344 
0.057875 -0.00488968 0.998312 
0.057457 -0.00142554 0.998347 
0.059007 0.00197815 0.998256 
0.0589574 0.00549802 0.998245 
0.0588055 0.00927216 0.998226 
0.0576067 0.013283 0.998251 
0.0565614 0.0179311 0.998238 
0.0552374 0.0234819 0.998197 
0.0540582 0.0303674 0.998076 
0.052417 0.0388377 0.99787 
0.0508622 0.0494541 0.99748 
0.0484464 0.0628729 0.996845 
0.0459202 0.0802741 0.995715 
0.042704 0.1027 0.993795 
0.0385574 0.132788 0.990394 
0.034563 0.170961 0.984671 
0.0293535 0.220866 0.974862 
0.0211311 0.297125 0.954605 
0.014345 0.384371 0.923067 
0.00763588 0.493207 0.869878 
0.00259505 0.611899 0.790932 
0.00553211 0.581259 0.8137 
0.00193546 0.692792 0.721135 
0.000557585 0.804192 0.59437 
0.000647001 0.875691 0.482871 
0.000785895 0.979178 0.203 
-0.00323625 0.99704 -0.0768138 
-0.000637277 0.999822 -0.0188574 
-0.00360139 0.951563 -0.307433 
-0.0028297 0.86172 -0.507377 
-0.00291663 0.755756 -0.654847 
-0.00462341 0.636662 -0.771129 
-0.0068019 0.519627 -0.854366 
-0.0135547 0.412692 -0.91077 
-0.0194496 0.324808 -0.94558 
-0.0255418 0.257179 -0.966026 
-0.0326736 0.20001 -0.979249 
-0.0378819 0.154888 -0.987205 
-0.0409094 0.11828 -0.992137 
-0.0428565 0.0948986 -0.994564 
-0.0474285 0.0727983 -0.996218 
-0.0492652 0.0570847 -0.997153 
-0.050782 0.0448758 -0.997701 
-0.0536848 0.0347743 -0.997952 
-0.0545542 0.0273699 -0.998136 
-0.0558701 0.021125 -0.998215 
-0.0578343 0.0160593 -0.998197 
-0.0571982 0.0114701 -0.998297 
-0.0582743 0.0074158 -0.998273 
-0.0582982 0.00385678 -0.998292 
-0.0583298 0.000387184 -0.998297 
-0.0577263 -0.00300333 -0.998328 
-0.0581379 -0.00648949 -0.998287 
-0.0562624 -0.0104514 -0.998361 
-0.0557444 -0.0149539 -0.998333 
-0.0550334 -0.019886 -0.998286 
-0.0517131 -0.026668 -0.998306 
-0.0510359 -0.0345894 -0.998098 
-0.0516045 -0.0443292 -0.997683 
-0.0470073 -0.0552761 -0.997364 
-0.0486014 -0.0656174 -0.996661 
-0.0438309 -0.0772757 -0.996046 
-0.0427964 -0.083814 -0.995562 
-0.0347402 -0.0808958 -0.996117 
-0.0199212 -0.0486534 -0.998617 
4.33302e-05 8.96816e-05 -1 
-2.9177e-05 0.000113671 1 
0.0157543 -0.0553933 0.99834 
0.0300933 -0.0786598 0.996447 
0.0324775 -0.0847773 0.99587 
0.0384375 -0.0768396 0.996302 
0.0349292 -0.0680958 0.997067 
0.0401813 -0.0561612 0.997613 
0.0382692 -0.0447528 0.998265 
0.0436418 -0.0361688 0.998392 
0.0426295 -0.0281355 0.998695 
0.0434509 -0.02226 0.998808 
0.0450065 -0.0165131 0.99885 
0.0449542 -0.0118159 0.998919 
0.0469004 -0.00781312 0.998869 
0.047402 -0.00413495 0.998867 
0.0474306 -0.000353015 0.998874 
0.0485859 0.00315523 0.998814 
0.048433 0.00696327 0.998802 
0.0472879 0.0108609 0.998822 
0.0465183 0.0152676 0.998801 
0.0457376 0.0203145 0.998747 
0.0448084 0.0263279 0.998649 
0.043601 0.0335643 0.998485 
0.0422099 0.0425699 0.998201 
0.0406516 0.0536546 0.997732 
0.0386235 0.0681147 0.99693 
0.0361768 0.0865351 0.995592 
0.0333088 0.110891 0.993274 
0.0294409 0.143505 0.989212 
0.0258604 0.185326 0.982337 
0.0214121 0.244098 0.969514 
0.0142175 0.326273 0.945169 
0.0090613 0.418051 0.908378 
0.00435403 0.518908 0.854819 
0.000800427 0.727294 0.686326 
0.00010438 0.875924 0.482448 
-0.00107057 0.951512 0.307609 
0.0023791 0.976895 0.213709 
-0.000246692 0.970307 0.241875 
-0.00162541 0.99734 0.0728777 
0.00189059 0.999828 0.0184505 
-0.00302869 0.98278 -0.184756 
-0.0046877 0.925358 -0.379065 
-0.00291301 0.821605 -0.57005 
-0.00188609 0.712694 -0.701473 
-0.00250865 0.602847 -0.797853 
-0.00868474 0.419766 -0.907591 
-0.013389 0.329232 -0.944154 
-0.0188046 0.258172 -0.965916 
-0.0254677 0.201753 -0.979105 
-0.0262683 0.170302 -0.985042 
-0.0319952 0.138343 -0.989867 
-0.0321008 0.10974 -0.993442 
-0.0367507 0.0840171 -0.995786 
-0.0389631 0.0661169 -0.997051 
-0.0403569 0.0518683 -0.997838 
-0.0428533 0.0400932 -0.998277 
-0.0438415 0.031702 -0.998535 
-0.0451946 0.0246051 -0.998675 
-0.0463597 0.0187049 -0.99875 
-0.0474691 0.0139677 -0.998775 
-0.0474445 0.00913923 -0.998832 
-0.0474637 0.0051869 -0.99886 
-0.0478362 0.00139561 -0.998854 
-0.0471787 -0.00223916 -0.998884 
-0.0473602 -0.00598961 -0.99886 
-0.0464657 -0.00974533 -0.998872 
-0.0457773 -0.0142858 -0.99885 
-0.0442733 -0.019381 -0.998831 
-0.0429385 -0.0250691 -0.998763 
-0.0410596 -0.0333741 -0.998599 
-0.0416621 -0.0431697 -0.998199 
-0.0381034 -0.0559124 -0.997708 
-0.0381996 -0.0694597 -0.996853 
-0.0335412 -0.0802456 -0.996211 
-0.0342326 -0.085391 -0.995759 
-0.0274725 -0.0842551 -0.996065 
-0.019462 -0.0583007 -0.998109 
3.95109e-05 0.000115882 -1 
3.47866e-05 0.000117969 1 
0.011942 -0.0558409 0.998368 
0.0247248 -0.0839667 0.996162 
0.0235686 -0.0871922 0.995913 
0.029325 -0.080899 0.996291 
0.0269725 -0.0704957 0.997147 
0.0306933 -0.0556686 0.997977 
0.0294174 -0.0437275 0.99861 
0.033612 -0.034627 0.998835 
0.0318156 -0.0277044 0.99911 
0.0345206 -0.0213341 0.999176 
0.0355971 -0.0159462 0.999239 
0.0352727 -0.0113568 0.999313 
0.0371398 -0.00734171 0.999283 
0.0382033 -0.00327868 0.999265 
0.0375838 0.000672068 0.999293 
0.0387371 0.00451343 0.999239 
0.0375347 0.00848723 0.999259 
0.0369277 0.0129715 0.999234 
0.0364844 0.0179561 0.999173 
0.0358576 0.0236275 0.999078 
0.0349029 0.030358 0.99893 
0.0338419 0.0386592 0.998679 
0.0324354 0.0490497 0.99827 
0.031048 0.0622226 0.997579 
0.0289393 0.0794668 0.996417 
0.0266111 0.102141 0.994414 
0.0236021 0.132272 0.990932 
0.0201057 0.174531 0.984446 
0.0170699 0.229378 0.973188 
0.012355 0.300826 0.953599 
0.00706597 0.401992 0.915616 
0.00365022 0.510158 0.860073 
0.00156571 0.642705 0.766112 
0.00167436 0.623504 0.781819 
0.00108041 0.867513 0.497414 
0.00240957 0.916669 0.399641 
0.00448521 0.999618 0.0272766 
0.00373562 0.999991 0.00221479 
0.00347025 0.999819 -0.0187014 
0.00274396 0.999358 -0.0357243 
0.00139087 0.998101 -0.0615839 
-0.000776753 0.974784 -0.223149 
-0.00200681 0.812106 -0.583506 
-0.000112719 0.654903 -0.755713 
-0.00050505 0.553284 -0.832993 
-0.00343999 0.498618 -0.866815 
-0.00604043 0.386437 -0.922296 
-0.00991512 0.303644 -0.952734 
-0.0152779 0.234346 -0.972033 
-0.0196925 0.177193 -0.983979 
-0.0238379 0.134259 -0.99066 
-0.0268009 0.0985047 -0.994776 
-0.0290537 0.0772469 -0.996589 
-0.0309869 0.0608405 -0.997666 
-0.032961 0.0470749 -0.998347 
-0.033811 0.0373709 -0.998729 
-0.0351457 0.0292592 -0.998954 
-0.0363055 0.0226311 -0.999084 
-0.0365809 0.0172007 -0.999183 
-0.0385385 0.0122683 -0.999182 
-0.0372947 0.00772228 -0.999274 
-0.0378335 0.00355281 -0.999278 
-0.0374773 -0.000249939 -0.999297 
-0.0375058 -0.00418587 -0.999288 
-0.0366553 -0.00795376 -0.999296 
-0.0367643 -0.0121109 -0.999251 
-0.0354134 -0.0167137 -0.999233 
-0.0335569 -0.0219519 -0.999196 
-0.0336552 -0.028574 -0.999025 
-0.030856 -0.0365417 -0.998856 
-0.0326138 -0.0447619 -0.998465 
-0.0286064 -0.0554936 -0.998049 
-0.0298569 -0.0676129 -0.997265 
-0.026036 -0.0798242 -0.996469 
-0.0249867 -0.0872076 -0.995877 
-0.0197768 -0.0828583 -0.996365 
-0.0129723 -0.0527508 -0.998523 
3.76625e-05 0.000154338 -1 
-1.90567e-05 8.84517e-05 1 
0.00856466 -0.0566378 0.998358 
0.0175566 -0.0837758 0.99633 
0.0173636 -0.088744 0.995903 
0.0216923 -0.0812788 0.996455 
0.0196606 -0.0703265 0.99733 
0.0233845 -0.0578715 0.99805 
0.0219821 -0.0464431 0.998679 