# vtk DataFile Version 3.0 
Exported using Morpho https://github.com/Morpho-lang/morpho 
ASCII 
DATASET UNSTRUCTURED_GRID 

POINTS 1978 float 
-8.4824 -2.82455 -3.76535e-05 
-8.26344 -2.82511 -3.74383e-05 
-8.03845 -2.82401 -1.46802e-05 
-7.74942 -2.82637 1.00288e-05 
-7.47782 -2.82382 -2.51953e-05 
-7.21022 -2.82575 -1.61491e-05 
-7.00962 -2.82588 -3.31982e-05 
-6.77319 -2.82498 -7.43339e-06 
-6.56104 -2.82641 -2.39924e-05 
-6.3448 -2.82559 2.52732e-06 
-6.14819 -2.82537 -2.66356e-05 
-5.9288 -2.826 -8.60227e-07 
-5.71432 -2.82555 -3.59066e-06 
-5.5109 -2.82578 -1.41884e-05 
-5.29386 -2.82543 4.82389e-06 
-5.08263 -2.82555 -3.64797e-06 
-4.86492 -2.82573 7.0647e-06 
-4.66051 -2.82551 1.3931e-06 
-4.44048 -2.82561 -5.40628e-07 
-4.22574 -2.82551 1.25704e-05 
-4.0074 -2.82566 1.13224e-05 
-3.79817 -2.82564 2.12545e-05 
-3.58157 -2.82568 1.70812e-05 
-3.36951 -2.82573 2.34348e-05 
-3.1475 -2.82592 3.51711e-05 
-2.93625 -2.826 4.30923e-05 
-2.72373 -2.82625 5.73227e-05 
-2.52575 -2.82678 6.59019e-05 
-2.315 -2.82672 8.36753e-05 
-2.10383 -2.82723 9.33169e-05 
-1.8934 -2.82724 0.000109503 
-1.6896 -2.82742 0.000121819 
-1.48459 -2.82721 0.000108968 
-1.275 -2.828 2.13686e-05 
-1.09331 -2.8268 1.92423e-07 
-0.834385 -2.82829 8.67262e-06 
-0.612574 -2.82494 -8.73581e-05 
-0.433787 -2.82504 -9.4614e-05 
-0.237272 -2.82541 -3.24544e-05 
0.0141699 -2.82353 7.26085e-05 
0.211337 -2.82429 2.49777e-05 
0.420284 -2.82554 3.30325e-05 
0.631574 -2.82568 9.07038e-05 
0.863729 -2.82732 5.56359e-05 
1.06018 -2.8287 3.07613e-05 
1.25752 -2.82703 -6.13263e-05 
1.44893 -2.82778 -0.000135126 
1.696 -2.82705 -0.000105439 
1.88096 -2.82705 -9.98409e-05 
2.09359 -2.8274 -8.33987e-05 
2.3253 -2.82661 -8.23288e-05 
2.51271 -2.82655 -7.37518e-05 
2.74147 -2.82599 -4.54125e-05 
2.96114 -2.82627 -5.13782e-05 
3.17384 -2.82587 -2.80082e-05 
3.38166 -2.82573 -2.36429e-05 
3.60737 -2.82587 -2.10346e-05 
3.80944 -2.82557 -1.56089e-05 
4.02474 -2.82554 -1.61973e-05 
4.25151 -2.82561 -2.09901e-06 
4.44906 -2.82553 -7.48739e-06 
4.66136 -2.82586 1.69949e-07 
4.8707 -2.82552 -4.57762e-06 
5.07243 -2.82582 -4.58469e-06 
5.28999 -2.82555 1.04208e-05 
5.50042 -2.82566 1.1242e-06 
5.70418 -2.82562 3.29348e-06 
5.92365 -2.82565 1.10507e-05 
6.14398 -2.82554 1.42696e-05 
6.34198 -2.82578 4.25948e-06 
6.5829 -2.82566 2.33724e-05 
6.79141 -2.82563 1.88714e-05 
6.99234 -2.82578 1.82096e-05 
7.25072 -2.82573 3.53449e-05 
7.47595 -2.82569 3.98412e-05 
7.71638 -2.82575 -1.74666e-05 
7.98361 -2.82526 -1.63606e-05 
8.17232 -2.82461 5.25924e-05 
8.48183 -2.82367 4.4752e-05 
-8.48282 -2.5934 1.61555e-05 
-8.24262 -2.5701 1.33269e-05 
-8.01649 -2.56529 3.37137e-05 
-7.8008 -2.62991 1.92922e-05 
-7.54032 -2.62346 3.3926e-07 
-7.24807 -2.62352 -7.99275e-06 
-6.98908 -2.56276 7.51831e-06 
-6.78466 -2.6015 9.0666e-07 
-6.54288 -2.58591 3.31324e-06 
-6.33642 -2.56463 4.33521e-06 
-6.1139 -2.59272 5.98516e-06 
-5.89429 -2.58793 1.24332e-05 
-5.68284 -2.57268 -4.07011e-06 
-5.46536 -2.58806 -9.16146e-06 
-5.2479 -2.58163 -7.74936e-06 
-5.02854 -2.59052 -8.59061e-07 
-4.81927 -2.57645 -5.81709e-06 
-4.60059 -2.59388 -1.10228e-07 
-4.38336 -2.58757 5.27373e-07 
-4.16468 -2.58953 -3.95657e-06 
-3.95314 -2.57679 -1.02222e-05 
-3.73871 -2.58279 -7.22253e-06 
-3.52517 -2.57786 -5.53579e-06 
-3.30595 -2.59145 -2.74886e-06 
-3.09186 -2.58472 -1.10818e-05 
-2.87806 -2.59283 -1.30421e-05 
-2.67462 -2.58414 -2.01247e-05 
-2.46781 -2.60458 -2.01938e-05 
-2.25177 -2.60791 -2.10769e-05 
-2.0415 -2.60717 -2.81578e-05 
-1.83346 -2.59684 -5.92382e-05 
-1.62797 -2.59301 -5.79107e-05 
-1.41326 -2.59413 -5.74451e-06 
-1.22639 -2.55208 -6.97286e-05 
-0.996624 -2.6349 -3.60453e-05 
-0.78266 -2.58837 -1.00172e-05 
-0.596724 -2.49736 -6.14954e-05 
-0.413824 -2.50192 -0.000191002 
-0.190642 -2.56992 -8.43056e-05 
0.0112191 -2.49261 -8.07434e-06 
0.212862 -2.49347 0.000136198 
0.40461 -2.53612 4.37687e-05 
0.608098 -2.56325 -1.39717e-05 
0.831791 -2.6041 4.87034e-05 
1.05939 -2.5823 6.3793e-05 
1.27117 -2.58286 5.46184e-05 
1.51293 -2.64845 3.18439e-08 
1.71567 -2.58354 7.48733e-05 
1.93125 -2.61686 5.09716e-06 
2.15872 -2.63003 9.36151e-06 
2.3574 -2.57422 3.34936e-05 
2.57334 -2.61476 7.46861e-06 
2.79672 -2.60102 1.2512e-05 
3.00799 -2.58911 1.3578e-05 
3.21889 -2.57887 6.58642e-06 
3.44202 -2.59594 -2.47426e-06 
3.64982 -2.56954 9.88268e-06 
3.86608 -2.58529 1.35163e-05 
4.09423 -2.59849 4.53971e-06 
4.30317 -2.56663 2.26574e-06 
4.51718 -2.58691 2.15498e-06 
4.73154 -2.58474 4.06525e-06 
4.94277 -2.57591 3.55818e-06 
5.15741 -2.59434 -1.75895e-07 
5.37603 -2.58512 2.94004e-06 
5.58695 -2.57589 3.83231e-06 
5.80321 -2.59208 -8.70131e-11 
6.02731 -2.59125 -7.31327e-06 
6.24017 -2.56288 -3.68509e-06 
6.45915 -2.60848 1.37651e-05 
6.68573 -2.57074 -7.34833e-06 
6.89402 -2.55793 -1.67588e-05 
7.118 -2.61892 1.43483e-05 
7.3637 -2.5887 -1.70483e-05 
7.6004 -2.59914 -1.32949e-05 
7.85413 -2.61903 -5.80682e-05 
8.06941 -2.52674 5.55426e-06 
8.29496 -2.63937 -3.44876e-05 
8.48199 -2.52066 -4.42795e-05 
-8.48094 -2.35634 6.32474e-05 
-8.2211 -2.34048 -8.61344e-05 
-7.97207 -2.32262 3.23609e-05 
-7.74597 -2.40325 4.49954e-05 
-7.55955 -2.24787 -1.18314e-05 
-7.44264 -2.44833 3.95434e-05 
-7.17232 -2.39842 1.05943e-05 
-6.93879 -2.31043 -1.18195e-05 
-6.71064 -2.38496 -7.26874e-06 
-6.48268 -2.3386 -1.39445e-05 
-6.23493 -2.34653 -7.90453e-06 
-6.01839 -2.35449 5.38715e-06 
-5.80171 -2.34093 -5.21023e-06 
-5.57324 -2.34126 -8.30489e-06 
-5.35886 -2.34706 -2.52528e-06 
-5.13518 -2.35142 2.61544e-06 
-4.92598 -2.33916 1.6642e-06 
-4.70318 -2.35498 3.52371e-06 
-4.48719 -2.357 7.35893e-06 
-4.26547 -2.35583 9.22415e-06 
-4.05174 -2.33888 3.04799e-06 
-3.83405 -2.33824 1.14203e-06 
-3.62066 -2.33678 5.29062e-06 
-3.39905 -2.35037 1.16965e-05 
-3.18567 -2.34999 1.61573e-05 
-2.96833 -2.35756 1.28108e-05 
-2.76082 -2.35073 1.74054e-05 
-2.54923 -2.36684 1.39855e-05 
-2.34133 -2.39197 8.67639e-06 
-2.12341 -2.38252 1.3206e-05 
-1.91247 -2.37959 1.71124e-05 
-1.69336 -2.36293 3.0311e-05 
-1.47465 -2.3686 -1.08171e-06 
-1.26316 -2.28378 9.74738e-05 
-1.0516 -2.40095 -3.9014e-05 
-0.840531 -2.34344 -5.39195e-05 
-0.623606 -2.241 -2.21861e-05 
-0.387197 -2.1598 3.75755e-05 
-0.205359 -2.26838 -8.86415e-05 
0.022537 -2.1635 0.000166801 
0.214897 -2.15092 0.00037481 
0.427784 -2.2135 -0.00039693 
0.629107 -2.2723 7.67934e-05 
0.832122 -2.36093 0.000102894 
1.05714 -2.34727 5.04582e-05 
1.26883 -2.34082 6.81542e-06 
1.47437 -2.43959 2.93834e-05 
1.65328 -2.35075 -3.44811e-05 
1.86818 -2.39397 -7.2403e-06 
2.08623 -2.417 -2.32278e-05 
2.29656 -2.35875 -2.75476e-05 
2.52444 -2.37917 -1.62055e-05 
2.72922 -2.3866 -2.99477e-06 
2.94662 -2.35293 -1.79809e-05 
3.15034 -2.33999 -1.81558e-05 
3.36863 -2.35933 -8.98658e-06 
3.57522 -2.32779 -7.09849e-06 
3.78945 -2.33883 -4.77061e-06 
4.00794 -2.36691 -2.19429e-06 
4.21728 -2.33196 -8.27552e-06 
4.4398 -2.34012 -4.68632e-06 
4.64945 -2.34628 -4.77074e-07 
4.86067 -2.33985 -3.59457e-07 
5.08038 -2.34981 -2.27481e-06 
5.28984 -2.35743 -7.58203e-08 
5.50706 -2.3367 3.10094e-06 
5.72561 -2.34862 6.08719e-06 
5.94192 -2.36154 -1.17934e-06 
6.1569 -2.32999 -2.14195e-06 
6.39161 -2.35494 7.01527e-06 
6.59915 -2.3525 1.4055e-05 
6.8261 -2.30376 1.25103e-05 
7.05372 -2.36282 -9.46107e-07 
7.27087 -2.38607 -8.75681e-06 
7.53072 -2.3667 5.5623e-06 
7.77211 -2.39725 -5.45506e-05 
7.99185 -2.30236 1.20623e-05 
8.2563 -2.36531 6.08479e-06 
8.48239 -2.27062 -1.45533e-05 
-8.48276 -2.08906 4.54727e-05 
-8.26788 -2.1194 -3.84203e-05 
-8.03372 -2.08974 -4.71184e-05 
-7.77759 -2.13366 5.32595e-06 
-7.5092 -2.03042 -3.51327e-05 
-7.30671 -2.21991 -2.02143e-05 
-7.07412 -2.12139 -3.00595e-05 
-6.79185 -2.12248 -1.8652e-05 
-6.59127 -2.12508 -1.92174e-05 
-6.3457 -2.13233 -2.31276e-05 
-6.11583 -2.10229 -9.34114e-06 
-5.91332 -2.10629 -5.88583e-06 
-5.69022 -2.11304 -1.00151e-05 
-5.46808 -2.09886 -8.63828e-06 
-5.25225 -2.1184 -7.46196e-06 
-5.04186 -2.10081 -1.27184e-06 
-4.81983 -2.11751 -4.11402e-06 
-4.60469 -2.12035 2.38953e-06 
-4.38687 -2.12481 9.6828e-07 
-4.17564 -2.108 7.93071e-06 
-3.95825 -2.10006 8.06627e-06 
-3.74537 -2.09491 1.18494e-05 
-3.52549 -2.10941 1.58122e-05 
-3.3134 -2.11072 2.57434e-05 
-3.0985 -2.12104 3.61046e-05 
-2.89197 -2.11904 3.64726e-05 
-2.67995 -2.12694 4.83161e-05 
-2.47212 -2.14258 6.69146e-05 
-2.26518 -2.16894 9.17592e-05 
-2.04441 -2.15017 9.34227e-05 
-1.82706 -2.15096 6.84414e-05 
-1.59442 -2.13853 5.34179e-05 
-1.38341 -2.09281 -5.45314e-05 
-1.16931 -1.96641 0.000126299 
-1.0551 -2.14964 -0.000116828 
-0.841583 -2.08493 -1.41377e-05 
-0.600458 -1.9743 -5.36263e-05 
-0.387464 -1.87041 -0.00012319 
-0.142051 -1.93362 9.7123e-05 
0.026969 -1.71111 -6.64057e-05 
0.192373 -1.72921 -0.000178249 
0.35555 -1.84818 -0.000148185 
0.564143 -1.92008 0.00039575 
0.772795 -2.03292 3.8292e-06 
0.966032 -2.09617 -0.000117731 
1.18002 -2.09608 8.04598e-07 
1.43535 -2.18724 -4.54635e-05 
1.67424 -2.13526 -6.78042e-05 
1.89643 -2.17618 -8.83846e-05 
2.11016 -2.18425 -8.43578e-05 
2.3625 -2.15209 -7.6589e-05 
2.57231 -2.14269 -4.80442e-05 
2.78002 -2.1532 -4.37634e-05 
2.98365 -2.10171 -4.05669e-05 
3.20427 -2.11523 -3.34003e-05 
3.4064 -2.10762 -2.57493e-05 
3.62265 -2.08943 -1.51156e-05 
3.84228 -2.11114 -7.66038e-06 
4.04484 -2.11483 -5.62379e-06 
4.27446 -2.10466 -4.64338e-06 
4.48656 -2.09819 -1.62303e-06 
4.69716 -2.10352 -1.64419e-06 
4.91808 -2.11223 1.63215e-06 
5.12933 -2.1074 6.71154e-06 
5.34018 -2.11941 8.38405e-06 
5.56505 -2.10568 6.86022e-06 
5.78156 -2.11398 9.02375e-06 
5.99144 -2.11451 7.52478e-06 
6.23478 -2.11634 1.44366e-05 
6.44338 -2.09894 1.90236e-05 
6.65715 -2.1067 2.12064e-05 
6.91677 -2.09237 2.7358e-05 
7.13051 -2.12472 2.7198e-05 
7.36026 -2.17173 3.48178e-05 
7.55326 -2.07763 2.17076e-05 
7.73585 -2.16303 -6.49462e-06 
7.95357 -2.06669 5.908e-06 
8.20122 -2.14024 9.89024e-05 
8.48265 -2.07175 -5.92373e-05 
-8.48094 -1.80236 3.73453e-05 
-8.28662 -1.87315 2.12156e-05 
-7.88382 -1.89732 5.2913e-06 
-7.66363 -1.88517 7.363e-06 
[...]
POINT_DATA 1978 
VECTORS vectors float
0.0879474 -0.118791 0.989143 
0.0899695 -0.113687 0.989598 
0.0842906 -0.116054 0.990085 
0.0769079 -0.0973745 0.992539 
0.0778116 -0.0756158 0.994393 
0.082708 -0.0571964 0.995229 
0.0854333 -0.0450175 0.995621 
0.0859124 -0.0342485 0.995989 
0.0872076 -0.0267848 0.995989 
0.0883548 -0.0183865 0.996203 
0.0883785 -0.0116074 0.996298 
0.0895842 -0.00766576 0.99621 
0.0908023 -0.00415794 0.99613 
0.0913285 -0.000661191 0.996086 
0.0918016 0.00149105 0.996036 
0.0916565 0.00306945 0.996043 
0.0920195 0.00522882 0.996002 
0.0915439 0.0076317 0.996029 
0.09115 0.0101664 0.996039 
0.0905745 0.0130847 0.996064 
0.0902317 0.0171755 0.99604 
0.0894117 0.0222139 0.996022 
0.0883659 0.0289658 0.995946 
0.0866057 0.0373347 0.995823 
0.0848735 0.048586 0.995489 
0.0825236 0.0628064 0.994893 
0.0796015 0.0817957 0.99375 
0.0756611 0.105034 0.991869 
0.0705873 0.136276 0.988437 
0.0646143 0.176252 0.98251 
0.0573608 0.226598 0.9726 
0.0495232 0.287131 0.956917 
0.0393023 0.362441 0.931479 
0.0270557 0.456786 0.889455 
0.0185752 0.547747 0.836704 
0.00743849 0.685173 0.728481 
-0.00219984 0.811816 0.583932 
-0.00443427 0.898853 0.43813 
-0.00356661 0.969986 0.242751 
-0.000391314 0.999708 -0.020122 
0.00272182 0.973298 -0.228957 
0.00223264 0.903633 -0.428227 
-4.29085e-05 0.803935 -0.594804 
-0.00710364 0.67453 -0.738393 
-0.0165079 0.56375 -0.825847 
-0.0274898 0.460553 -0.887485 
-0.0379328 0.375188 -0.926445 
-0.0493222 0.287596 -0.956768 
-0.0559268 0.231725 -0.971473 
-0.0632779 0.179508 -0.981993 
-0.0707902 0.135331 -0.988558 
-0.0748105 0.106383 -0.991796 
-0.0790006 0.0803941 -0.993902 
-0.0824821 0.061677 -0.994961 
-0.0852141 0.0469115 -0.995544 
-0.0866471 0.0364113 -0.995851 
-0.0884794 0.0281875 -0.995954 
-0.0895144 0.021716 -0.996027 
-0.0897251 0.0169831 -0.996084 
-0.090856 0.013655 -0.996036 
-0.0913911 0.0102896 -0.996031 
-0.0915105 0.00775469 -0.996031 
-0.0918287 0.00558371 -0.996021 
-0.0915254 0.00310395 -0.996055 
-0.09134 0.00123264 -0.996072 
-0.0915102 -0.00123439 -0.996065 
-0.0909386 -0.00452742 -0.996106 
-0.0900074 -0.00745097 -0.996172 
-0.0894284 -0.0123748 -0.996195 
-0.0881095 -0.0188046 -0.996206 
-0.0873551 -0.0254152 -0.996127 
-0.0875029 -0.0340291 -0.995885 
-0.0845877 -0.0444436 -0.995713 
-0.0822675 -0.0579801 -0.99521 
-0.0803104 -0.0756412 -0.994201 
-0.0771902 -0.0982077 -0.99246 
-0.0838837 -0.122088 -0.989268 
-0.0881981 -0.118075 -0.989353 
-0.0861068 -0.116575 -0.989514 
0.0676033 -0.1174 0.990894 
0.0715877 -0.109157 0.992407 
0.0681049 -0.101747 0.993299 
0.0719167 -0.0968522 0.993391 
0.0742545 -0.0805149 0.994809 
0.075716 -0.0602838 0.996123 
0.0750434 -0.044841 0.996972 
0.0777939 -0.0347691 0.997138 
0.0782927 -0.0256573 0.997459 
0.076604 -0.0186968 0.997637 
0.0801029 -0.0130194 0.997423 
0.0817253 -0.00864592 0.997339 
0.0814048 -0.00443302 0.997396 
0.0828546 -0.00101746 0.997279 
0.0830379 0.00131622 0.997259 
0.0835928 0.00347141 0.9972 
0.0830359 0.00564504 0.997235 
0.0836638 0.00823948 0.997163 
0.0827684 0.0112373 0.997215 
0.0817142 0.0149575 0.997261 
0.0801993 0.0194569 0.997318 
0.0794447 0.0250407 0.997265 
0.0779498 0.0322919 0.997182 
0.0768038 0.041923 0.996916 
0.0740189 0.0544218 0.996524 
0.0714175 0.0706756 0.99569 
0.067519 0.0910739 0.994301 
0.064229 0.117191 0.991785 
0.0592235 0.152298 0.987331 
0.0525328 0.196132 0.97996 
0.0446978 0.251571 0.967619 
0.0364716 0.316634 0.94868 
0.027699 0.399963 0.916953 
0.0188928 0.489229 0.87273 
0.0113293 0.60596 0.796101 
0.00413078 0.725259 0.688872 
0.000124511 0.824208 0.566844 
-0.0018619 0.908758 0.41696 
-0.00181356 0.980069 0.196968 
-0.00149394 0.999417 -0.0160868 
-0.00137943 0.973677 -0.227171 
-0.00181605 0.912717 -0.408493 
-0.00347085 0.818527 -0.574756 
-0.00725342 0.696224 -0.718209 
-0.0140455 0.570703 -0.821911 
-0.0224794 0.463257 -0.886878 
-0.0350891 0.358434 -0.933552 
-0.0398063 0.288222 -0.957666 
-0.049834 0.223957 -0.974108 
-0.0575754 0.170745 -0.984289 
-0.0603444 0.135162 -0.989884 
-0.067254 0.103283 -0.993142 
-0.0706724 0.0783599 -0.995176 
-0.0729113 0.0603476 -0.996266 
-0.0751218 0.046553 -0.996841 
-0.0781151 0.0354457 -0.997059 
-0.0784635 0.0279715 -0.997264 
-0.0804245 0.0216086 -0.997258 
-0.082181 0.0165076 -0.997202 
-0.0814314 0.0128957 -0.997314 
-0.0827888 0.00960345 -0.997228 
-0.0832442 0.00689199 -0.997207 
-0.0827771 0.00441472 -0.99726 
-0.0835363 0.00205999 -0.997201 
-0.0828504 -0.000431729 -0.997267 
-0.0820226 -0.00333859 -0.997337 
-0.0822747 -0.00670094 -0.997304 
-0.0809891 -0.0109663 -0.997384 
-0.0786785 -0.0162874 -0.99751 
-0.0801172 -0.0224888 -0.997279 
-0.076714 -0.0306078 -0.997354 
-0.0747958 -0.0397304 -0.997193 
-0.0770243 -0.051332 -0.996498 
-0.0727805 -0.0679081 -0.995847 
-0.0713929 -0.0863577 -0.99452 
-0.0716485 -0.103741 -0.992708 
-0.0689111 -0.102479 -0.993278 
-0.0789151 -0.117647 -0.990622 
-0.0657813 -0.116005 -0.99128 
0.0583319 -0.114094 0.99216 
0.0615754 -0.0972536 0.994202 
0.0627426 -0.0955334 0.994119 
0.0658396 -0.0939019 0.994323 
0.0669797 -0.0833299 0.994916 
0.0682551 -0.0738562 0.995746 
0.0713171 -0.0563221 0.996652 
0.0747796 -0.0437576 0.996997 
0.0761692 -0.0326891 0.997297 
0.0783995 -0.0242489 0.997339 
0.0805934 -0.0171105 0.997303 
0.0819055 -0.0120761 0.997263 
0.0829519 -0.00747142 0.997214 
0.0841035 -0.00353099 0.997139 
0.0847286 -0.000626417 0.997083 
0.085213 0.00194044 0.997033 
0.0859024 0.00421847 0.996961 
0.0854662 0.00692784 0.996983 
0.0849028 0.0099782 0.997011 
0.0838603 0.0137804 0.997059 
0.0829682 0.0182614 0.99707 
0.0815461 0.0237465 0.997082 
0.0798163 0.0304068 0.99705 
0.0773865 0.0392443 0.99694 
0.0749664 0.0506395 0.996616 
0.072217 0.0659222 0.995926 
0.0692109 0.085163 0.994681 
0.0648298 0.110035 0.992545 
0.0593687 0.140885 0.988998 
0.0525794 0.183086 0.982475 
0.0451699 0.234896 0.971778 
0.0366507 0.301102 0.953719 
0.0277733 0.381578 0.92477 
0.01913 0.478686 0.878597 
0.0116794 0.5839 0.81234 
0.00512484 0.696723 0.718108 
0.000201809 0.814195 0.580798 
-0.00297143 0.920966 0.389693 
-0.00283824 0.976361 0.214755 
-0.00340522 0.99915 -0.0305676 
-0.00342716 0.971935 -0.234097 
-0.00474144 0.900621 -0.434158 
-0.00611272 0.806393 -0.591787 
-0.00871525 0.697068 -0.717777 
-0.0143967 0.574992 -0.818796 
-0.0214416 0.470332 -0.88289 
-0.0293572 0.379508 -0.925519 
-0.0355941 0.315733 -0.948997 
-0.0436585 0.246302 -0.968879 
-0.0514586 0.190089 -0.981328 
-0.0577661 0.15007 -0.987635 
-0.0634987 0.113897 -0.992211 
-0.0676894 0.0884022 -0.994516 
-0.0718026 0.0679681 -0.995823 
-0.0748087 0.0530747 -0.996499 
-0.0772755 0.0406268 -0.996889 
-0.0796886 0.0321184 -0.997001 
-0.0812363 0.0250604 -0.997072 
-0.0822715 0.0193098 -0.997111 
-0.0840454 0.0150648 -0.997028 
-0.0851533 0.0111189 -0.996978 
-0.0858569 0.00793679 -0.996945 
-0.0861449 0.00509438 -0.996932 
-0.0857026 0.002445 -0.996982 
-0.0851686 -6.25052e-05 -0.997032 
-0.0849629 -0.00307257 -0.997048 
-0.0837757 -0.00650224 -0.99714 
-0.0823073 -0.01044 -0.997239 
-0.0812607 -0.0152553 -0.997269 
-0.0792437 -0.0213603 -0.997337 
-0.0779963 -0.0282544 -0.997278 
-0.0768702 -0.0378171 -0.99706 
-0.0734884 -0.0490146 -0.996848 
-0.0708699 -0.0624644 -0.9963 
-0.0677642 -0.0813425 -0.995284 
-0.0664576 -0.096831 -0.993844 
-0.0647382 -0.0970347 -0.993929 
-0.0641002 -0.103013 -0.993446 
-0.0621533 -0.112534 -0.991987 
0.0465227 -0.109965 0.993091 
0.0541198 -0.100735 0.994168 
0.0603611 -0.0931976 0.994727 
0.0649923 -0.0943096 0.994293 
0.0663673 -0.081068 0.995263 
0.0711842 -0.0660481 0.996041 
0.073828 -0.0520007 0.996799 
0.0769903 -0.0376083 0.997056 
0.0786325 -0.0291992 0.997195 
0.0806425 -0.0209913 0.997225 
0.0816819 -0.0153168 0.997246 
0.0824437 -0.0108739 0.997233 
0.083889 -0.0065763 0.997146 
0.0845125 -0.00303978 0.997107 
0.0856509 -2.75115e-05 0.997004 
0.0857491 0.00251642 0.996989 
0.0864835 0.00535506 0.996914 
0.0863613 0.00849103 0.996903 
0.0855841 0.0121996 0.996938 
0.0840027 0.0165087 0.997016 
0.0823025 0.0216823 0.997067 
0.0804064 0.0277761 0.997076 
0.0785659 0.0355892 0.996979 
0.0761757 0.045593 0.996761 
0.073567 0.0588568 0.996266 
0.0703247 0.0755814 0.995375 
0.0666128 0.097505 0.993737 
0.0621311 0.124581 0.991019 
0.0566623 0.158417 0.98653 
0.0487169 0.20562 0.978249 
0.04048 0.264383 0.964421 
0.0309123 0.342626 0.939843 
0.0214904 0.429968 0.903656 
0.0126599 0.532416 0.847059 
0.0102158 0.588952 0.809064 
0.00400307 0.703632 0.711202 
-0.00147249 0.827537 0.561737 
-0.00380732 0.92464 0.380447 
-0.00413925 0.989074 0.145673 
-0.00274552 0.999049 -0.0342148 
-0.00288672 0.978327 -0.205265 
-0.00339413 0.931313 -0.363784 
-0.0041255 0.842329 -0.539602 
-0.00750062 0.733427 -0.68042 
-0.0114491 0.629141 -0.777812 
-0.0169634 0.519202 -0.855497 
-0.0266158 0.402514 -0.91587 
-0.0350644 0.314326 -0.949543 
-0.0437802 0.243392 -0.969904 
-0.0515181 0.190092 -0.981218 
-0.0592893 0.142328 -0.988823 
-0.0642363 0.111327 -0.99246 
-0.0688716 0.0863758 -0.994615 
-0.0713587 0.0678962 -0.995865 
-0.075033 0.0518485 -0.996545 
-0.0773815 0.0408254 -0.99687 
-0.0793813 0.0319184 -0.997034 
-0.0818271 0.0248084 -0.99703 
-0.0831777 0.0195781 -0.997032 
-0.0845019 0.0146771 -0.997002 
-0.0852913 0.0107798 -0.996982 
-0.085957 0.00733623 -0.996953 
-0.0864403 0.00414691 -0.996924 
-0.0859369 0.00137647 -0.996976 
-0.0856853 -0.00138387 -0.996997 
-0.0848084 -0.00480712 -0.997068 
-0.0838884 -0.00855237 -0.997126 
-0.0824417 -0.0126512 -0.99721 
-0.0811402 -0.018077 -0.997244 
-0.0791114 -0.0239643 -0.997298 
-0.0776833 -0.0314931 -0.997214 
-0.0753332 -0.0431856 -0.996968 
-0.0735454 -0.0549889 -0.996527 
-0.0717529 -0.0701897 -0.995589 
-0.0680732 -0.0846151 -0.994849 
-0.0671212 -0.0949748 -0.99396 
-0.0625956 -0.097368 -0.994025 
-0.0594851 -0.0942681 -0.994593 
-0.048494 -0.111808 -0.992857 
0.0360455 -0.110472 0.993482 
0.0439462 -0.105055 0.994323 
0.0556364 -0.096205 0.994437 
0.0581028 -0.0925885 0.994774 
0.0557057 -0.0771304 0.99638 
0.0676415 -0.0656212 0.996207 
0.0609462 -0.0572433 0.997279 
0.0688861 -0.0451325 0.997363 
0.066866 -0.0347662 0.997906 
0.0713416 -0.0262261 0.997842 
0.0716442 -0.0197584 0.997957 
0.0695421 -0.014883 0.998195 
0.0727845 -0.0102554 0.998011 
0.0738487 -0.00614291 0.997961 
0.0741975 -0.00249664 0.997945 
0.0747275 0.000386842 0.997902 
0.0757711 0.00353676 0.997817 
0.0759065 0.00684287 0.997792 
0.0758443 0.0106072 0.997764 
0.0741212 0.0148009 0.997845 
0.0725776 0.0196405 0.997876 
0.0704356 0.0252538 0.997905 
0.0692873 0.0321557 0.997787 
0.0672968 0.0407994 0.997609 
0.0652717 0.0521185 0.997221 
0.0624378 0.0663506 0.996563 
0.0594263 0.0847438 0.995367 
0.0554948 0.108117 0.993354 
0.0512978 0.137788 0.989933 
0.046559 0.176353 0.984069 
0.0379054 0.232439 0.972767 
0.0308989 0.295688 0.955539 
0.0225558 0.371295 0.929176 
0.0130809 0.467526 0.884798 
0.00335797 0.661608 0.750577 
-0.000542389 0.773195 0.634743 
-0.00133359 0.876005 0.482329 
0.00164445 0.943596 0.33095 
-0.00152007 0.971401 0.236517 
-0.000105102 0.999295 0.0230171 
-0.000580472 0.9657 -0.258675 
-0.00200822 0.905411 -0.424302 
-0.0021203 0.818924 -0.574376 
-0.00575634 0.709876 -0.705022 
-0.010173 0.588486 -0.809528 
-0.0145288 0.491437 -0.871562 
-0.0220086 0.419837 -0.908237 
-0.0257986 0.348986 -0.937532 
-0.0336738 0.275196 -0.961703 
-0.0416029 0.21547 -0.976478 
-0.0496679 0.164848 -0.985895 
-0.0531438 0.125345 -0.991489 
-0.0581229 0.0972061 -0.994334 
-0.0600776 0.0775612 -0.995926 
-0.0641036 0.0592214 -0.996915 
-0.0656981 0.0463167 -0.997482 
-0.0678924 0.0365562 -0.997737 
-0.0706081 0.0282754 -0.997812 
-0.0715519 0.0223531 -0.997894 
-0.07426 0.0172503 -0.997796 
-0.0736218 0.0126521 -0.997914 
-0.0743624 0.00863802 -0.997898 
-0.0756526 0.0050249 -0.997825 
-0.0749146 0.0018603 -0.997889 
-0.0747679 -0.00116945 -0.9979 
-0.0748128 -0.00431192 -0.99789 
-0.0733802 -0.00840178 -0.997977 
-0.072042 -0.0126281 -0.998034 
-0.0725535 -0.0171868 -0.997936 
-0.0683114 -0.0231689 -0.99813 
-0.0671465 -0.0302301 -0.998034 
-0.0677145 -0.0394281 -0.997684 
-0.0639393 -0.053049 -0.997434 
-0.0648513 -0.0670157 -0.996419 
-0.058902 -0.0841123 -0.9955 
-0.0575739 -0.0976641 -0.99431 
-0.0510493 -0.0968727 -0.994753 
-0.0494327 -0.0975065 -0.994837 
-0.0370683 -0.11332 -0.993153 
0.0279929 -0.114928 0.993271 
0.0328502 -0.103641 0.994909 
0.0462686 -0.0926958 0.995439 
0.043943 -0.0999731 0.994779 
0.0465863 -0.0934018 0.995202 
0.0485192 -0.0688067 0.997229 
0.0517379 -0.0506103 0.998136 
0.0548264 -0.0409364 0.99841 
0.0560159 -0.0300523 0.998721 
0.0578976 -0.0235319 0.998778 
0.0570827 -0.0184317 0.998921 
0.0575378 -0.0130538 0.998976 
0.0600816 -0.00876892 0.998863 
0.061155 -0.00473045 0.998818 
0.0600852 -0.00139094 0.998888 
0.0623438 0.00182664 0.998749 
0.0621791 0.00533873 0.998748 
0.0621621 0.00932844 0.998722 
0.0607346 0.0135866 0.998762 
0.0595102 0.0183608 0.998762 
0.0579837 0.023663 0.998736 
0.0569129 0.030225 0.998621 
0.0551048 0.0383868 0.998441 
0.0535259 0.0490076 0.998067 
0.0510833 0.06256 0.997445 
0.0486244 0.0798524 0.996349 
0.0453084 0.101778 0.994536 
0.0413047 0.13054 0.991391 
0.0373242 0.167644 0.986002 
0.0322026 0.216535 0.976664 
0.0231925 0.293093 0.956937 
0.0152566 0.383111 0.924555 
0.00667481 0.50436 0.86439 
0.00161246 0.621435 0.78427 
0.00483466 0.587373 0.810119 
0.000508353 0.704242 0.711159 
-0.000301692 0.793135 0.609279 
-3.05528e-05 0.87605 0.482204 
-0.00068474 0.979351 0.200899 
-0.00163976 0.997094 -0.073913 
-0.00149932 0.998892 -0.0352393 
-0.00133377 0.958903 -0.282976 
-0.0004948 0.871237 -0.491483 
-0.000785122 0.759665 -0.650881 
-0.00434668 0.628897 -0.77839 
-0.00745589 0.509283 -0.861497 
-0.015805 0.409592 -0.913093 
-0.0203145 0.325516 -0.946458 
-0.0272878 0.257894 -0.966706 
-0.0354094 0.199843 -0.979912 
-0.0410016 0.154026 -0.988187 
-0.0436583 0.117127 -0.992952 
-0.0456603 0.0938406 -0.995305 
-0.0501919 0.0719871 -0.996878 
-0.0521575 0.0564091 -0.997758 
-0.053149 0.0444256 -0.998301 
-0.0566323 0.034443 -0.9985 
-0.0572562 0.0274346 -0.99868 
-0.0587074 0.0214665 -0.998744 
-0.0611069 0.016454 -0.998698 
-0.0600958 0.0117009 -0.998828 
-0.0613077 0.00737815 -0.998791 
-0.061402 0.00371845 -0.998807 
-0.061278 0.000313243 -0.998817 
-0.0605105 -0.00285981 -0.998862 
-0.0613287 -0.00634355 -0.998798 
-0.0590637 -0.0106457 -0.998903 
-0.058762 -0.0153043 -0.998866 
-0.058099 -0.0199031 -0.998834 
-0.0541358 -0.0262893 -0.998923 
-0.0536777 -0.0341868 -0.998724 
-0.0552426 -0.0445345 -0.998116 
-0.0493685 -0.0565757 -0.997944 
-0.0521733 -0.0687655 -0.997056 
-0.0464578 -0.085996 -0.996 
-0.0463364 -0.0993771 -0.994734 
-0.040134 -0.0987786 -0.995062 
-0.0372432 -0.101364 -0.99498 
-0.0281091 -0.114545 -0.993317 
0.0198582 -0.117551 0.993176 
0.0244193 -0.100338 0.99548 
0.0353467 -0.0976517 0.995379 
0.0341224 -0.101168 0.995177 
0.0398454 -0.0852807 0.996349 
0.0354551 -0.0720112 0.997536 
0.0412364 -0.0580552 0.99809 
0.0391689 -0.0450571 0.999077 
0.0448974 -0.0358683 0.998969 
0.0435515 -0.027829 0.99939 
0.0444111 -0.0223765 0.999478 
0.0465385 -0.0169142 0.999476 
0.0458736 -0.0120612 0.99957 
0.0484545 -0.00776687 0.999484 
0.0486793 -0.0040574 0.999486 
0.0487021 -0.000459928 0.999494 
0.050099 0.00293707 0.999421 
0.0498509 0.00691439 0.999415 
0.0487166 0.0111219 0.999436 
0.0478841 0.0157605 0.999412 
0.0467255 0.0207463 0.999373 
0.0461969 0.0264573 0.999258 
0.0448397 0.0332677 0.999114 
0.0434283 0.0421147 0.998845 
0.041872 0.0533374 0.998384 
0.0398803 0.0678455 0.997601 
0.0374396 0.08594 0.996331 
0.0345028 0.109675 0.994151 
0.030737 0.141319 0.990337 
0.0268968 0.182441 0.98376 
0.0225839 0.239828 0.971522 
0.0149463 0.321622 0.947752 
0.00851449 0.423505 0.90666 
0.00349937 0.527462 0.850511 
-0.000108116 0.728782 0.685063 
-0.00053536 0.851791 0.524607 
-0.000146647 0.936302 0.351204 
0.00285599 0.978214 0.205633 
-0.000226335 0.957463 0.287893 
0.000765676 0.990082 0.137202 
0.00216177 0.999437 0.00174042 
-0.000874763 0.975505 -0.221811 
0.000680528 0.889459 -0.455534 
0.00155027 0.778505 -0.629646 
0.0012998 0.734658 -0.679276 
-0.0002567 0.602274 -0.799479 
-0.00877812 0.417357 -0.909967 
-0.0140601 0.326554 -0.945912 
-0.0200869 0.252989 -0.968225 
-0.0271268 0.197796 -0.98076 
-0.0268122 0.168995 -0.986112 
-0.0333534 0.137703 -0.990599 
-0.0332749 0.108775 -0.994294 
-0.0381611 0.0838717 -0.996488 
-0.040348 0.0655107 -0.997747 
-0.0414653 0.0515244 -0.998505 
-0.0441848 0.0396613 -0.99892 
-0.0450232 0.0315895 -0.999168 
-0.046474 0.0248931 -0.99929 
-0.0476597 0.0192423 -0.999366 
-0.0489675 0.014429 -0.999388 
-0.0489056 0.00922137 -0.999454 
-0.0488223 0.00494514 -0.999487 
-0.0492277 0.00115198 -0.999476 
-0.0483898 -0.00226542 -0.999514 
-0.0486739 -0.00588054 -0.999488 
-0.047725 -0.00984322 -0.999505 
-0.0470091 -0.0147885 -0.999484 
-0.0454 -0.0197587 -0.999481 
-0.0439801 -0.0249883 -0.999438 
-0.0419249 -0.0330662 -0.999428 
-0.0429687 -0.0433131 -0.998887 
-0.0388936 -0.0573054 -0.998359 
-0.0392831 -0.0738628 -0.997273 
-0.0341571 -0.0905764 -0.996081 
-0.0355376 -0.101573 -0.994947 
-0.0297398 -0.102042 -0.995082 
-0.0286398 -0.0985261 -0.995545 
-0.0197592 -0.117243 -0.993211 
0.0135124 -0.117921 0.993227 
0.0173392 -0.102572 0.995392 
0.0270537 -0.101614 0.99522 
0.0244816 -0.103634 0.99506 
0.0300095 -0.0917858 0.9961 
0.0272264 -0.0743047 0.997633 
0.0310475 -0.0564607 0.998671 
0.0294803 -0.0436761 0.999352 
0.0340238 -0.0343669 0.999563 
0.0320603 -0.0277772 0.999819 
0.0349914 -0.021706 0.999856 
0.036422 -0.0165356 0.999893 
0.0357217 -0.0115594 1.00009 
0.0378514 -0.00727848 0.999942 
0.0390038 -0.00330787 0.999805 
0.0383973 0.000378682 1.00005 
0.0397172 0.00427858 0.999776 
0.0384851 0.00861998 0.999906 
0.037764 0.0134248 0.999877 
0.0370696 0.0184448 0.999821 
0.0365819 0.0240372 0.999816 
0.0357218 0.0304018 0.999568 
0.0345755 0.0384501 0.99933 
0.0332441 0.0487855 0.99893 
0.031844 0.0619999 0.998259 
0.0296992 0.0789003 0.997161 
0.0272825 0.101045 0.995278 
0.0241997 0.130804 0.991949 
0.0204869 0.172225 0.98576 
0.0174252 0.226934 0.974568 
0.0123659 0.297315 0.955704 
0.00641411 0.404334 0.915777 
0.00263903 0.512895 0.859401 
-0.000114841 0.637794 0.77086 
0.00115897 0.636716 0.771912 
-0.000607298 0.872688 0.488553 
0.00284192 0.945867 0.323728 
0.00479522 0.998378 0.0551115 
0.00371632 0.999487 0.0316793 
0.00388826 0.99993 0.00633525 
0.00391351 0.999695 -0.0288389 
-0.00308371 0.995563 -0.0929415 
-0.00117034 0.958012 -0.284865 
0.000385197 0.858883 -0.511225 
0.00314461 0.644156 -0.765808 
0.00292697 0.558693 -0.830341 
-0.00116949 0.501957 -0.865681 
-0.00529752 0.390447 -0.921635 
-0.0099363 0.304564 -0.953447 
-0.0156729 0.233557 -0.973296 
-0.0199422 0.174792 -0.985144 
-0.0245117 0.131341 -0.991981 
-0.0273405 0.0968637 -0.995797 
-0.03022 0.0769075 -0.99719 
-0.0315311 0.060552 -0.998358 
-0.0338638 0.0465809 -0.999017 
-0.0345792 0.0370043 -0.999386 
-0.0359452 0.0291952 -0.999595 
-0.0371087 0.0230313 -0.999718 
-0.0373395 0.0178115 -0.999928 
-0.0394729 0.0127519 -0.999716 
-0.0381274 0.00784283 -1.00004 
-0.0386433 0.00328271 -0.99993 
-0.0384098 -0.000561472 -0.999945 
-0.0382521 -0.00420847 -0.999939 
-0.0372848 -0.00787494 -0.99996 
-0.0375459 -0.012333 -0.999904 
-0.0360274 -0.0172712 -0.999897 
-0.034029 -0.0223639 -0.999877 
-0.0341219 -0.0284042 -0.999617 
-0.0310102 -0.0362387 -0.999592 
-0.0330522 -0.0448721 -0.99919 
-0.0287377 -0.0566171 -0.998737 
-0.0302714 -0.0711172 -0.997784 
-0.0260785 -0.088699 -0.996493 
-0.0254714 -0.103362 -0.995066 
-0.0214329 -0.103192 -0.995177 
-0.0205123 -0.103245 -0.995264 
-0.0145279 -0.118157 -0.99318 
0.0104185 -0.118411 0.993073 
0.0121815 -0.10409 0.995383 
0.0186668 -0.10352 0.995194 
0.0175465 -0.105584 0.994993 
0.0218073 -0.0903411 0.996443 
0.0189662 -0.0740443 0.997831 
0.0230366 -0.0596122 0.998703 
0.0216346 -0.0466153 0.999411 
0.0242978 -0.0352841 0.999809 
0.0239736 -0.0276326 1.00015 
0.0263594 -0.0218959 1.00011 