# vtk DataFile Version 3.0 
Exported using Morpho https://github.com/Morpho-lang/morpho 
ASCII 
DATASET UNSTRUCTURED_GRID 

POINTS 1978 float 
-12 -4 -1.24222e-10 
-11.6255 -4 -3.37231e-11 
-11.3398 -4 -1.98984e-11 
-10.9811 -4 4.63718e-11 
-10.6703 -4 9.63891e-14 
-10.3391 -4 6.9812e-13 
-10.0139 -4 -8.82195e-12 
-9.68202 -4 -2.56186e-12 
-9.33491 -4 1.7338e-11 
-9.01311 -4 1.2157e-11 
-8.70007 -4 -1.786e-11 
-8.38575 -4 -1.6889e-11 
-8.06806 -4 -2.3503e-11 
-7.75473 -4 -5.94183e-13 
-7.46762 -4 -4.80356e-12 
-7.18654 -4 -6.25849e-12 
-6.90484 -4 -1.91372e-11 
-6.60887 -4 1.62542e-12 
-6.30318 -4 5.38546e-13 
-6.00717 -4 -4.08684e-12 
-5.70472 -4 -6.46235e-12 
-5.41448 -4 -9.07084e-12 
-5.12564 -4 -1.04871e-11 
-4.83306 -4 -2.39743e-11 
-4.51561 -4 -3.66876e-11 
-4.21091 -4 -2.9363e-11 
-3.91097 -4 -4.7484e-11 
-3.5757 -4 -3.83762e-11 
-3.27209 -4 -2.43001e-11 
-2.98261 -4 -2.81847e-11 
-2.70309 -4 -7.00098e-11 
-2.42485 -4 7.15188e-11 
-2.19618 -4 -1.60642e-10 
-1.91681 -4 -4.96249e-10 
-1.68451 -4 3.11663e-10 
-1.37692 -4 6.22346e-09 
-1.14075 -4 9.22971e-09 
-0.876461 -4 3.64196e-08 
-0.651292 -4 7.20734e-08 
-0.0760734 -4 1.40312e-07 
0.488933 -4 -9.11768e-08 
0.902664 -4 -2.21973e-08 
1.17579 -4 -2.6449e-08 
1.41346 -4 -1.76693e-10 
1.66919 -4 -4.327e-10 
1.93672 -4 1.18453e-09 
2.2081 -4 4.79925e-11 
2.51317 -4 6.48618e-11 
2.78438 -4 1.79553e-12 
3.05054 -4 9.16349e-12 
3.34425 -4 1.10257e-12 
3.64177 -4 1.77238e-11 
3.93934 -4 3.64063e-11 
4.23536 -4 3.15053e-11 
4.53456 -4 2.75606e-11 
4.83114 -4 1.87726e-11 
5.12587 -4 1.73598e-11 
5.42273 -4 8.83127e-12 
5.71858 -4 1.20818e-12 
6.00326 -4 -4.96845e-12 
6.29481 -4 1.44731e-11 
6.58254 -4 -1.42807e-11 
6.87566 -4 2.15657e-11 
7.16996 -4 1.85072e-12 
7.46826 -4 1.19976e-11 
7.76244 -4 1.14113e-11 
8.06702 -4 5.51529e-12 
8.37365 -4 2.05605e-11 
8.67943 -4 1.98484e-11 
8.9684 -4 -1.58243e-11 
9.29822 -4 -4.45347e-12 
9.62606 -4 8.57836e-12 
9.93682 -4 -2.7734e-11 
10.3034 -4 2.79708e-11 
10.6363 -4 -9.16388e-12 
11.0023 -4 -6.27956e-11 
11.3247 -4 2.78122e-11 
11.6115 -4 3.07281e-11 
12 -4 1.17308e-10 
-12 -3.63345 2.2006e-10 
-11.6964 -3.6939 -1.33199e-12 
-11.36 -3.60849 1.18691e-13 
-11.0617 -3.68906 -3.09461e-12 
-10.7192 -3.64473 -1.55235e-12 
-10.4035 -3.66807 -1.78052e-12 
-10.0704 -3.66339 -8.80444e-13 
-9.74166 -3.67041 -1.26553e-12 
-9.40787 -3.69051 -7.629e-13 
-9.06525 -3.671 -4.33332e-13 
-8.74083 -3.66372 -3.3111e-13 
-8.42247 -3.66426 -1.24808e-13 
-8.1032 -3.66961 2.78558e-14 
-7.78301 -3.67043 -7.02627e-13 
-7.47108 -3.64188 2.46558e-12 
-7.17939 -3.65452 -4.34131e-12 
-6.88081 -3.65875 4.39548e-12 
-6.57037 -3.67593 -7.00811e-13 
-6.26573 -3.66914 6.17951e-13 
-5.95529 -3.67888 4.31106e-13 
-5.65611 -3.66739 6.78339e-13 
-5.36108 -3.66584 8.78962e-13 
-5.06372 -3.66918 1.07103e-12 
-4.74774 -3.69366 1.10954e-12 
-4.43118 -3.68055 1.39357e-12 
-4.12495 -3.67295 2.90953e-14 
-3.79221 -3.70703 -7.57108e-13 
-3.47363 -3.67798 -3.69773e-14 
-3.16586 -3.66791 -1.50964e-11 
-2.86825 -3.65366 3.62672e-12 
-2.58811 -3.65446 1.27047e-11 
-2.33484 -3.58132 1.41791e-10 
-2.08238 -3.66416 -3.48456e-10 
-1.83273 -3.60108 9.57916e-10 
-1.56273 -3.74834 -1.07166e-09 
-1.30766 -3.6442 7.41262e-10 
-1.06059 -3.7222 2.15601e-09 
-0.831706 -3.68763 3.51264e-09 
-0.511545 -3.88498 1.30438e-08 
0.0989815 -3.87817 4.69231e-08 
0.394286 -3.78865 6.32919e-08 
1.01271 -3.77891 -1.96508e-08 
1.30298 -3.71592 -2.45124e-08 
1.45237 -3.45222 -3.96687e-09 
1.59076 -3.7121 -4.39172e-10 
1.87795 -3.73427 3.22282e-09 
2.04189 -3.47244 2.28284e-10 
2.24235 -3.69602 -1.50458e-09 
2.56955 -3.67441 4.46634e-10 
2.86534 -3.65127 -6.9372e-12 
3.18974 -3.68205 2.24448e-11 
3.53006 -3.68755 8.572e-12 
3.86009 -3.68383 8.77117e-12 
4.18275 -3.67489 -1.37452e-11 
4.49668 -3.67659 8.70978e-12 
4.80968 -3.67278 8.94609e-12 
5.11768 -3.6672 -1.54015e-12 
5.42118 -3.66754 -4.59955e-13 
5.72014 -3.66161 -2.91198e-13 
6.01921 -3.6692 5.65327e-13 
6.31576 -3.66158 -4.16684e-13 
6.61505 -3.66662 -2.53495e-13 
6.91517 -3.66429 -3.02295e-14 
7.21876 -3.66584 -5.83722e-14 
7.5189 -3.65669 -1.15569e-13 
7.82418 -3.6633 -2.63635e-15 
8.13194 -3.66287 1.32243e-13 
8.43894 -3.65852 1.90699e-13 
8.73567 -3.63793 3.0295e-13 
9.05605 -3.68025 5.63493e-13 
9.38444 -3.67612 7.11899e-13 
9.70176 -3.65563 6.94309e-13 
10.051 -3.706 1.15234e-12 
10.3946 -3.6733 1.07913e-12 
10.7509 -3.7009 1.56098e-12 
11.0826 -3.65669 1.54563e-12 
11.3805 -3.61176 1.67232e-12 
11.7212 -3.71343 8.8405e-14 
12 -3.60385 -2.3184e-10 
-12 -3.32657 8.91053e-11 
-11.6418 -3.34167 -3.24685e-13 
-11.2979 -3.27059 2.68028e-13 
-10.9846 -3.34678 -9.13226e-13 
-10.666 -3.29645 -9.23165e-13 
-10.3472 -3.33427 -8.21563e-13 
-10.0241 -3.3286 -5.59087e-13 
-9.69779 -3.34379 -7.21018e-14 
-9.37332 -3.36968 -4.7797e-13 
-9.05751 -3.33871 -2.14915e-14 
-8.75543 -3.31624 -6.23572e-14 
-8.45051 -3.3287 -1.88236e-13 
-8.13771 -3.33627 -9.89199e-14 
-7.82595 -3.33945 -9.11916e-14 
-7.52096 -3.31475 6.10808e-13 
-7.21466 -3.29925 -8.71827e-13 
-6.92433 -3.32686 1.0869e-12 
-6.62425 -3.35 -6.34419e-13 
-6.32076 -3.34142 -5.97335e-14 
-6.01906 -3.35671 -7.47949e-14 
-5.71903 -3.34052 2.03965e-13 
-5.42317 -3.33432 2.19131e-13 
-5.12868 -3.33862 -1.18341e-14 
-4.82608 -3.37504 -3.90614e-13 
-4.51837 -3.3724 -1.11549e-12 
-4.20416 -3.34706 2.39539e-12 
-3.88699 -3.39823 9.95634e-12 
-3.57269 -3.36809 1.62501e-11 
-3.26036 -3.34753 2.17982e-11 
-2.95358 -3.32809 3.17353e-11 
-2.65442 -3.29924 6.61717e-11 
-2.34991 -3.26194 -4.8949e-11 
-2.05056 -3.29343 -5.74412e-10 
-1.78413 -3.24234 1.11092e-09 
-1.56078 -3.44453 -8.00147e-10 
-1.32958 -3.29759 -3.81071e-09 
-1.0781 -3.41064 2.67129e-09 
-0.839431 -3.37307 -5.07504e-09 
-0.320734 -3.78966 -9.34397e-09 
-0.125487 -3.69428 -1.45042e-08 
0.667153 -3.81616 -3.5334e-08 
0.895689 -3.58724 -3.51895e-08 
1.16119 -3.46635 2.05523e-08 
1.32992 -3.19408 3.26167e-09 
1.63788 -3.16674 1.32937e-09 
1.74436 -3.4248 6.38828e-10 
2.00681 -3.18211 -6.61537e-10 
2.35675 -3.38393 -4.27125e-10 
2.63434 -3.31394 -1.53502e-11 
2.94359 -3.33606 -6.51793e-12 
3.26928 -3.38005 -1.82473e-11 
3.58743 -3.37606 -7.47959e-12 
3.89692 -3.36684 -6.26643e-13 
4.2023 -3.35181 4.35515e-13 
4.50802 -3.35445 -1.41442e-11 
4.81151 -3.34684 -4.48518e-12 
5.11487 -3.34184 8.43808e-13 
5.41753 -3.33968 -1.46137e-12 
5.71368 -3.32998 -4.93388e-13 
6.01122 -3.33893 -8.08716e-13 
6.3111 -3.33241 2.05588e-13 
6.61347 -3.3351 -4.51401e-13 
6.91789 -3.33445 -1.46851e-13 
7.21911 -3.32956 -6.36391e-14 
7.52485 -3.32222 9.00708e-14 
7.83057 -3.32651 -1.6235e-14 
8.1342 -3.32228 -1.23211e-15 
8.43474 -3.30804 1.14988e-13 
8.75904 -3.31575 1.2798e-13 
9.08583 -3.3549 3.06039e-13 
9.40303 -3.33935 2.20595e-13 
9.71747 -3.31045 1.76073e-13 
10.0231 -3.39293 2.67272e-13 
10.3174 -3.32229 6.40576e-13 
10.6412 -3.38431 9.23935e-13 
10.9696 -3.33789 5.03018e-13 
11.288 -3.25913 4.78704e-13 
11.6316 -3.35716 -1.63936e-13 
12 -3.30357 -9.07293e-11 
-12 -3.00508 6.95175e-11 
-11.6575 -3.02434 2.71506e-13 
-11.3188 -2.94967 -5.60775e-13 
-10.9728 -2.99978 6.20381e-13 
-10.6378 -2.96927 5.75147e-13 
-10.3107 -2.99763 -1.53197e-14 
-9.9834 -2.99988 1.35068e-13 
-9.66346 -3.01264 -9.67957e-13 
-9.35437 -3.02924 -1.13944e-13 
-9.05023 -2.99084 -9.19157e-14 
-8.73926 -2.97661 -1.10765e-13 
-8.42313 -2.99749 -3.53156e-13 
-8.11002 -3.00515 -2.56557e-14 
-7.80615 -3.0006 3.50039e-14 
-7.50211 -2.98036 -3.01548e-13 
-7.19275 -2.96963 1.09034e-13 
-6.8895 -2.99553 -1.70595e-13 
-6.58873 -3.02325 1.59267e-13 
-6.28705 -3.01553 1.99838e-13 
-5.98946 -3.02965 8.43065e-14 
-5.69405 -3.01068 1.38134e-13 
-5.39973 -3.00432 1.95225e-14 
-5.09667 -3.01986 2.75853e-13 
-4.79359 -3.05481 1.26329e-12 
-4.48561 -3.05343 2.99566e-12 
-4.18655 -3.01118 -8.26849e-13 
-3.88915 -3.08144 -1.15483e-11 
-3.57218 -3.04557 -1.4221e-11 
-3.2479 -3.02795 -3.81084e-11 
-2.92111 -3.00335 1.84382e-11 
-2.59323 -2.98111 -1.43104e-10 
-2.25021 -2.96226 1.13348e-10 
-1.95638 -2.94331 7.12983e-11 
-1.68465 -2.80931 1.08502e-09 
-1.55296 -3.0882 2.36274e-09 
-1.33509 -2.88966 -4.47201e-09 
-1.12935 -3.08534 9.66497e-10 
-0.881951 -3.06158 2.21642e-09 
-0.621857 -3.59346 -9.32795e-09 
0.168978 -3.62225 -1.03824e-07 
0.454761 -3.55914 9.93769e-09 
0.700501 -3.45628 1.04646e-07 
1.03943 -3.06968 -5.52685e-09 
1.31709 -2.90753 7.16111e-09 
1.5313 -2.81452 -2.59905e-09 
1.80916 -2.9133 -1.0317e-09 
2.03445 -2.78594 8.13748e-10 
2.2674 -3.05004 -8.57265e-11 
2.54813 -2.9747 3.07752e-10 
2.86247 -3.01093 -4.79702e-11 
3.19499 -3.06471 -3.15382e-12 
3.52738 -3.06183 -7.08749e-12 
3.84777 -3.04602 -4.41212e-12 
4.15716 -3.02928 -1.60189e-12 
4.46864 -3.0301 2.71845e-12 
4.77541 -3.02493 1.13184e-12 
5.08386 -3.01937 -3.81032e-13 
5.39127 -3.01555 3.71437e-13 
5.69257 -3.001 -2.06112e-13 
5.99248 -3.01084 1.30528e-13 
6.2917 -3.00523 -3.13386e-13 
6.59418 -3.00946 1.42251e-13 
6.8986 -3.00855 3.12124e-14 
7.205 -2.99715 -2.75024e-14 
7.50808 -2.99117 1.13828e-13 
7.81555 -2.98973 1.2611e-13 
8.11958 -2.97967 8.81689e-14 
8.42659 -2.96982 1.3335e-13 
8.73402 -2.99031 1.1597e-13 
9.05872 -3.02942 1.7084e-13 
9.3821 -3.00486 2.84714e-13 
9.68241 -2.96402 5.57944e-13 
10.001 -3.03306 9.11938e-13 
10.3233 -2.9852 7.83441e-13 
10.6447 -3.04948 2.85123e-13 
10.9668 -2.99561 2.97477e-13 
11.3174 -2.94301 1.78313e-13 
11.6559 -3.04668 -2.93127e-13 
12 -2.98341 -8.68415e-11 
-12 -2.67875 1.39532e-10 
-11.6643 -2.69866 1.33863e-12 
-11.3442 -2.6189 -2.15428e-12 
-11.0056 -2.68043 -5.11e-13 
-10.6672 -2.64943 -9.86542e-13 
-10.3294 -2.66632 -6.43296e-13 
-10.0038 -2.67289 2.03022e-14 
-9.6752 -2.67761 -8.15241e-13 
-9.35666 -2.68411 8.59753e-14 
-9.03816 -2.65827 -1.10169e-13 
-8.7121 -2.65494 -7.47573e-14 
-8.3939 -2.67144 4.60142e-14 
-8.08684 -2.67002 9.00987e-15 
-7.78314 -2.66495 2.46069e-13 
-7.46938 -2.65644 2.38391e-13 
-7.15864 -2.6461 -6.76683e-14 
-6.85753 -2.67379 -4.2966e-15 
-6.55981 -2.69777 1.14185e-13 
-6.25985 -2.69034 1.21799e-13 
-5.9673 -2.70032 2.15991e-14 
-5.67277 -2.68181 6.69159e-14 
[...]
POINT_DATA 1978 
VECTORS vectors float
0.000833662 3.21456e-05 1 
0.00220447 -0.0196648 0.999804 
0.00142527 -0.0227966 0.999739 
0.000562927 -0.0202583 0.999795 
0.000607377 -0.0161461 0.999869 
0.000675293 -0.0121476 0.999926 
0.000825112 -0.00919573 0.999957 
0.00103712 -0.00688341 0.999976 
0.000907529 -0.004895 0.999988 
0.000541869 -0.00329377 0.999994 
0.000431521 -0.00192322 0.999998 
0.000535718 -0.000773223 1 
0.000493811 7.62456e-05 1 
0.000111153 0.00058564 1 
-0.000306419 0.000824872 1 
-0.000376112 0.000951943 0.999999 
-0.000174533 0.00108361 1 
9.6615e-05 0.00133446 0.999999 
0.000172238 0.00178514 0.999998 
8.08029e-05 0.0024642 0.999997 
-3.53045e-05 0.00341409 0.999994 
-0.000158176 0.00460887 0.999989 
-8.07381e-05 0.00613154 0.999981 
0.000190233 0.00806281 0.999968 
0.000294315 0.0106932 0.999943 
0.000297639 0.0139054 0.999903 
0.000498881 0.0181459 0.999835 
0.000503447 0.0248562 0.999691 
9.33851e-05 0.0339439 0.999424 
-0.000270511 0.0464755 0.998919 
-0.000559225 0.0639008 0.997956 
-0.000571891 0.0889947 0.996032 
-0.000579878 0.118781 0.99292 
-0.000555803 0.168619 0.985681 
-0.000163591 0.226339 0.974049 
9.59933e-05 0.323305 0.946295 
0.000812669 0.433111 0.90134 
0.000617236 0.569252 0.822163 
0.000512334 0.70607 0.708142 
0.00125122 0.988051 0.154119 
0.00218434 0.864444 -0.502725 
0.000343718 0.612573 -0.790414 
-0.000335711 0.459127 -0.888371 
-0.000130089 0.341417 -0.939912 
7.17525e-05 0.248132 -0.968726 
0.00027745 0.181256 -0.983436 
0.000184166 0.127656 -0.991819 
0.000251597 0.0855525 -0.996334 
0.000438736 0.0622375 -0.998061 
0.000385766 0.0452526 -0.998976 
0.000114064 0.0326879 -0.999466 
-3.03581e-05 0.0241885 -0.999707 
-2.88298e-05 0.0182702 -0.999833 
-3.40197e-05 0.0140409 -0.999901 
-2.74521e-05 0.0107857 -0.999942 
-9.68834e-06 0.00824582 -0.999966 
-1.69117e-05 0.00624838 -0.999981 
3.08639e-05 0.00469052 -0.999989 
0.000122026 0.0034401 -0.999994 
0.000197966 0.00255512 -0.999997 
0.000196592 0.00191293 -0.999998 
0.000131333 0.00148801 -0.999999 
6.27901e-05 0.00120128 -0.999999 
1.20917e-05 0.00102141 -1 
-2.02801e-05 0.000845902 -1 
-0.000114949 0.000581947 -1 
-0.000253005 0.000105958 -1 
-0.000198177 -0.00066941 -1 
-0.000122834 -0.00175804 -0.999999 
-0.000371911 -0.00301434 -0.999995 
-0.000663279 -0.00466447 -0.999989 
-0.000686563 -0.00648151 -0.999979 
-0.000899848 -0.00856522 -0.999963 
-0.00121908 -0.0117408 -0.99993 
-0.0011942 -0.0156726 -0.999876 
-0.000607057 -0.0206788 -0.999786 
-0.00120778 -0.0229031 -0.999737 
-0.00272646 -0.0199338 -0.999797 
-0.00146382 -0.000124177 -0.999999 
0.000131612 0.00113674 0.999999 
0.00600132 -0.0154855 0.999862 
0.00984312 -0.0199201 0.999753 
0.00994082 -0.0197552 0.999755 
0.0112673 -0.0163752 0.999802 
0.011287 -0.0128803 0.999853 
0.0116149 -0.00965635 0.999886 
0.011692 -0.00720799 0.999906 
0.0115166 -0.00525001 0.99992 
0.0119441 -0.00355086 0.999922 
0.0121232 -0.00218244 0.999924 
0.0122741 -0.00108475 0.999924 
0.0123124 -0.000243639 0.999924 
0.0123984 0.000310297 0.999923 
0.0130813 0.000632903 0.999914 
0.0129173 0.000867759 0.999916 
0.0129848 0.00111571 0.999915 
0.012774 0.00144318 0.999917 
0.0129323 0.00194311 0.999914 
0.0127409 0.00267936 0.999915 
0.012936 0.00363685 0.99991 
0.0128988 0.00486538 0.999905 
0.0127969 0.00644887 0.999897 
0.0122879 0.00859982 0.999888 
0.0124724 0.0113388 0.999858 
0.0125005 0.0148927 0.999811 
0.011766 0.0202702 0.999725 
0.0121864 0.0278046 0.999539 
0.0122249 0.0385055 0.999184 
0.0122682 0.0539282 0.998469 
0.0122892 0.0751456 0.997097 
0.0144257 0.1024 0.994639 
0.0131028 0.140187 0.990038 
0.0165866 0.189331 0.981773 
0.0150679 0.26137 0.965121 
0.0233276 0.348218 0.937123 
0.0218183 0.465078 0.885001 
0.0296899 0.592904 0.804726 
0.0095876 0.790937 0.611823 
-0.00257311 0.997833 -0.0657441 
-0.0137765 0.877453 -0.479466 
-0.0129081 0.587325 -0.809248 
-0.0172224 0.411255 -0.911358 
-0.0320348 0.325414 -0.945029 
-0.0150067 0.28109 -0.959564 
-0.0116372 0.192135 -0.9813 
-0.0183212 0.154595 -0.987808 
-0.0110471 0.117813 -0.992974 
-0.0117144 0.0794979 -0.996766 
-0.0118797 0.0556991 -0.998377 
-0.0115732 0.0383432 -0.999198 
-0.01185 0.0268013 -0.999571 
-0.0121247 0.019423 -0.999738 
-0.0123697 0.0144058 -0.99982 
-0.0125038 0.0108871 -0.999863 
-0.0126548 0.00822279 -0.999886 
-0.0127616 0.006199 -0.999899 
-0.0127397 0.00465143 -0.999908 
-0.0129726 0.00346549 -0.99991 
-0.0129248 0.00257835 -0.999913 
-0.0130864 0.00194006 -0.999912 
-0.0130502 0.00148819 -0.999914 
-0.0130061 0.0011576 -0.999915 
-0.0128927 0.000902102 -0.999916 
-0.0129025 0.000631241 -0.999917 
-0.012682 0.000274565 -0.99992 
-0.0125418 -0.000276751 -0.999921 
-0.0124067 -0.00108045 -0.999922 
-0.012611 -0.00211042 -0.999918 
-0.0118675 -0.00346268 -0.999924 
-0.0118193 -0.00507593 -0.999917 
-0.0119419 -0.00690387 -0.999905 
-0.0110283 -0.0095045 -0.999894 
-0.0112358 -0.0127408 -0.999856 
-0.0104455 -0.0167952 -0.999804 
-0.0103976 -0.0196814 -0.999752 
-0.00980383 -0.0199179 -0.999754 
-0.005791 -0.0149484 -0.999871 
-0.000260727 0.000655809 -1 
0.000360517 -0.00022896 1 
0.00762553 -0.0160893 0.999841 
0.0112756 -0.0192208 0.999752 
0.0127507 -0.018611 0.999745 
0.0136915 -0.0158443 0.999781 
0.0142007 -0.0124734 0.999821 
0.0144943 -0.0093451 0.999851 
0.0146811 -0.00694244 0.999868 
0.014829 -0.00508219 0.999877 
0.0150865 -0.00356203 0.99988 
0.0153347 -0.00238008 0.99988 
0.0154001 -0.00137147 0.99988 
0.0155131 -0.000558452 0.99988 
0.0156791 2.44656e-05 0.999877 
0.0159257 0.00041692 0.999873 
0.0160775 0.000739648 0.99987 
0.0162534 0.00105634 0.999867 
0.0162072 0.00141549 0.999868 
0.0162539 0.0019124 0.999866 
0.0162103 0.00257437 0.999865 
0.0162276 0.00344442 0.999862 
0.0161697 0.00454428 0.999859 
0.0160433 0.00593648 0.999854 
0.0159751 0.00784909 0.999842 
0.0158546 0.0102587 0.999822 
0.0157851 0.0135433 0.999784 
0.0156742 0.0184553 0.999707 
0.0157242 0.0251952 0.999559 
0.0159261 0.0350935 0.999257 
0.0163352 0.049571 0.998637 
0.0174433 0.0698915 0.997402 
0.0200574 0.0978527 0.994999 
0.0227268 0.138532 0.990097 
0.0295893 0.189453 0.981444 
0.0308659 0.254753 0.966513 
0.047076 0.32736 0.943726 
0.0488719 0.43351 0.899822 
0.0668712 0.546184 0.834992 
0.0167261 0.895181 0.44539 
0.0150771 0.975064 0.221413 
-0.0300647 0.808839 -0.587261 
-0.0355512 0.624041 -0.780582 
-0.0404715 0.452909 -0.890638 
-0.0545238 0.33882 -0.93927 
-0.0395833 0.243742 -0.969032 
-0.0252962 0.22555 -0.973903 
-0.0263438 0.160463 -0.98669 
-0.0174593 0.105244 -0.994293 
-0.0167711 0.0745319 -0.997078 
-0.0159277 0.0524865 -0.998495 
-0.0154793 0.0364809 -0.999214 
-0.0155728 0.026067 -0.999539 
-0.0157215 0.0191159 -0.999694 
-0.015921 0.0143134 -0.999771 
-0.0159366 0.0107872 -0.999815 
-0.015978 0.00816805 -0.999839 
-0.0160259 0.00618848 -0.999852 
-0.0160326 0.00467493 -0.999861 
-0.0162526 0.00356964 -0.999862 
-0.0162497 0.00268518 -0.999864 
-0.0163231 0.00202708 -0.999865 
-0.016251 0.00152115 -0.999867 
-0.0162423 0.00113316 -0.999867 
-0.0161449 0.00079942 -0.999869 
-0.0160348 0.000447977 -0.999871 
-0.0157595 3.29664e-05 -0.999876 
-0.0156626 -0.000528053 -0.999877 
-0.0154213 -0.00128557 -0.99988 
-0.0153062 -0.00233849 -0.99988 
-0.0149782 -0.00362635 -0.999881 
-0.0149337 -0.00520024 -0.999875 
-0.0147748 -0.007045 -0.999866 
-0.0143535 -0.00930761 -0.999854 
-0.0142697 -0.0121463 -0.999824 
-0.0137172 -0.0157066 -0.999783 
-0.0128962 -0.0185494 -0.999745 
-0.0113547 -0.0191201 -0.999753 
-0.00784739 -0.0162693 -0.999837 
-0.000346199 -0.000399901 -1 
0.00112945 -0.00142817 0.999998 
0.00682508 -0.0155016 0.999857 
0.0105452 -0.0191073 0.999762 
0.0125857 -0.0186504 0.999747 
0.0135423 -0.0159084 0.999782 
0.0140655 -0.0121964 0.999827 
0.0144447 -0.00909021 0.999854 
0.0147181 -0.00679669 0.999869 
0.0150073 -0.00504721 0.999875 
0.0149736 -0.00361845 0.999881 
0.0150699 -0.00247198 0.999883 
0.0152796 -0.00150196 0.999882 
0.0154731 -0.00073448 0.99988 
0.0156436 -0.000171078 0.999878 
0.0157494 0.000273703 0.999876 
0.0158682 0.000684619 0.999874 
0.0160848 0.00108484 0.99987 
0.0162484 0.00151694 0.999867 
0.0162397 0.00205108 0.999866 
0.016281 0.00271122 0.999864 
0.0161639 0.00354578 0.999863 
0.0160712 0.00459925 0.99986 
0.0160619 0.00600362 0.999853 
0.0161567 0.00785684 0.999839 
0.0161785 0.0103081 0.999816 
0.0161079 0.0133739 0.999781 
0.0163665 0.0176638 0.99971 
0.0164487 0.0239774 0.999577 
0.0168224 0.0337068 0.99929 
0.0177581 0.0484706 0.998667 
0.0198903 0.0692107 0.997404 
0.0244263 0.102178 0.994466 
0.0311889 0.143734 0.989125 
0.0435179 0.18595 0.981595 
0.0465176 0.242529 0.969028 
0.0682898 0.281922 0.957004 
0.0741364 0.375654 0.92379 
0.100417 0.477454 0.8729 
0.0500044 0.719995 0.692175 
-0.0148587 0.986938 -0.160415 
-0.0528329 0.888579 -0.45567 
-0.0659081 0.688798 -0.721951 
-0.0840823 0.433979 -0.896991 
-0.072288 0.306158 -0.949232 
-0.0544702 0.230692 -0.971501 
-0.0362434 0.174987 -0.983903 
-0.0319242 0.136014 -0.990192 
-0.0227106 0.110656 -0.993599 
-0.0202803 0.0788394 -0.996681 
-0.0179409 0.0566162 -0.998235 
-0.0167692 0.0392359 -0.999089 
-0.0163795 0.0272789 -0.999494 
-0.0162412 0.0195858 -0.999676 
-0.0161766 0.0144737 -0.999764 
-0.0161266 0.0108234 -0.999811 
-0.0160641 0.00819011 -0.999837 
-0.01602 0.00621319 -0.999852 
-0.016053 0.00472883 -0.99986 
-0.0160837 0.0036367 -0.999864 
-0.0161965 0.00278706 -0.999865 
-0.0162047 0.00211845 -0.999866 
-0.0162203 0.00157626 -0.999867 
-0.0161518 0.0011276 -0.999869 
-0.0160021 0.00071345 -0.999872 
-0.0158285 0.000293273 -0.999875 
-0.0156092 -0.00017391 -0.999878 
-0.0153426 -0.000739569 -0.999882 
-0.0152219 -0.00148557 -0.999883 
-0.0150498 -0.00238796 -0.999884 
-0.0151135 -0.00359613 -0.999879 
-0.0147825 -0.0051074 -0.999878 
-0.0145126 -0.00688663 -0.999871 
-0.0145385 -0.00924995 -0.999852 
-0.0140912 -0.0124014 -0.999824 
-0.0138148 -0.015912 -0.999778 
-0.0127427 -0.0187062 -0.999744 
-0.0106536 -0.0191347 -0.99976 
-0.00698821 -0.0155526 -0.999855 
-0.000654826 -0.000877529 -0.999999 
0.00210732 -0.00351714 0.999992 
0.00579545 -0.0156153 0.999861 
0.00873292 -0.0193965 0.999774 
0.0108419 -0.0192627 0.999756 
0.0115281 -0.0165327 0.999797 
0.0120821 -0.0126459 0.999847 
0.0124078 -0.00939659 0.999879 
0.0126028 -0.00693766 0.999897 
0.0127984 -0.00509743 0.999905 
0.0127611 -0.00367333 0.999912 
0.0128954 -0.00253959 0.999914 
0.0131522 -0.00162421 0.999912 
0.0132919 -0.000910307 0.999911 
0.0134208 -0.000339266 0.99991 
0.0135367 0.00018264 0.999908 
0.0135766 0.000673417 0.999908 
0.0138353 0.00113027 0.999904 
0.0140602 0.00160868 0.9999 
0.0140062 0.00215915 0.9999 
0.0140597 0.00279899 0.999897 
0.013866 0.00359745 0.999897 
0.01388 0.00463818 0.999893 
0.0139543 0.00596502 0.999885 
0.0142133 0.00764753 0.99987 
0.0142272 0.00993477 0.999849 
0.0142771 0.0132927 0.99981 
0.0148531 0.0179814 0.999728 
0.0152111 0.0247655 0.999578 
0.01612 0.0349397 0.999259 
0.0177444 0.049244 0.998629 
0.0212319 0.0708704 0.99726 
0.02715 0.098803 0.994737 
0.0353959 0.128895 0.991026 
0.0491612 0.16673 0.984776 
0.0683771 0.232622 0.970161 
0.0920615 0.255419 0.962437 
0.103861 0.347401 0.931947 
0.148318 0.499527 0.853507 
0.107463 0.652458 0.750167 
0.0609913 0.853254 0.517917 
-0.105055 0.77072 -0.628454 
-0.0662722 0.515457 -0.854349 
-0.104928 0.382623 -0.917927 
-0.121049 0.340218 -0.932523 
-0.0810241 0.253521 -0.963931 
-0.0522079 0.185924 -0.981176 
-0.0358119 0.127918 -0.991138 
-0.0247581 0.0955055 -0.995121 
-0.0197443 0.0665181 -0.99759 
-0.0171768 0.0478495 -0.998707 
-0.0159276 0.0336702 -0.999306 
-0.0150754 0.0237782 -0.999604 
-0.0145645 0.017375 -0.999743 
-0.0143431 0.0128685 -0.999814 
-0.0141461 0.00970195 -0.999853 
-0.01402 0.00738589 -0.999874 
-0.0139632 0.00564459 -0.999887 
-0.013857 0.00438941 -0.999894 
-0.0138387 0.00341093 -0.999898 
-0.0139307 0.00266289 -0.999899 
-0.0139496 0.00203269 -0.999901 
-0.0139736 0.0015013 -0.999901 
-0.0139012 0.00102206 -0.999903 
-0.0136776 0.000552706 -0.999906 
-0.0135079 5.8557e-05 -0.999909 
-0.0132435 -0.000461759 -0.999912 
-0.0130291 -0.00106217 -0.999915 
-0.0128244 -0.00181228 -0.999916 
-0.0127585 -0.00268274 -0.999915 
-0.0131356 -0.00368149 -0.999907 
-0.0125808 -0.00502575 -0.999908 
-0.0123009 -0.00689199 -0.999901 
-0.0125953 -0.00929756 -0.999877 
-0.0120647 -0.0125791 -0.999848 
-0.0120216 -0.0162998 -0.999795 
-0.0109299 -0.0192442 -0.999755 
-0.00887303 -0.0194102 -0.999772 
-0.00586517 -0.0154477 -0.999863 
-0.000896331 -0.00122415 -0.999999 
0.00185698 -0.00358688 0.999992 
0.00365689 -0.0141173 0.999894 
0.00630551 -0.0194275 0.999791 
0.00822249 -0.0199917 0.999766 
0.00891768 -0.0178116 0.999802 
0.00935874 -0.0138496 0.99986 
0.0095892 -0.0102949 0.999901 
0.00981467 -0.00764789 0.999923 
0.00996815 -0.00565542 0.999934 
0.0100004 -0.00418532 0.999941 
0.0101607 -0.003016 0.999944 
0.0103577 -0.0020701 0.999944 
0.0104206 -0.00131603 0.999945 
0.0105312 -0.000690534 0.999944 
0.0107504 -0.000106445 0.999942 
0.0107777 0.000457461 0.999942 
0.0109202 0.00100447 0.99994 
0.0111393 0.00150341 0.999937 
0.0111789 0.00202764 0.999935 
0.0111483 0.00263419 0.999934 
0.011063 0.00332659 0.999933 
0.0110767 0.00423209 0.99993 
0.011085 0.00539269 0.999924 
0.0113236 0.00692976 0.999912 
0.0114418 0.00883811 0.999895 
0.0116421 0.0115719 0.999865 
0.0122393 0.0159715 0.999798 
0.0127805 0.0214751 0.999688 
0.0138851 0.0301722 0.999448 
0.0157035 0.0422284 0.998985 
0.0191675 0.0597451 0.99803 
0.025204 0.0830447 0.996227 
0.034874 0.111579 0.993143 
0.0430494 0.126622 0.991016 
0.0622555 0.178962 0.981884 
0.0695078 0.175616 0.982002 
0.10409 0.242822 0.96447 
0.140161 0.360715 0.922085 
0.0965347 0.867651 0.487713 
0.0118994 0.997027 0.076136 
-0.113837 0.593053 -0.797075 
-0.148976 0.503776 -0.850891 
-0.160635 0.368495 -0.915646 
-0.105328 0.255455 -0.961066 
-0.0729839 0.19838 -0.977404 
-0.0506795 0.155238 -0.986576 
-0.0366012 0.113844 -0.992824 
-0.027329 0.0934534 -0.995248 
-0.020802 0.0689463 -0.997403 
-0.0162213 0.0474907 -0.99874 
-0.0145328 0.0348161 -0.999288 
-0.0131851 0.0248043 -0.999605 
-0.0121486 0.0177708 -0.999768 
-0.0117825 0.0131944 -0.999844 
-0.0114876 0.00990443 -0.999885 
-0.0113331 0.00755744 -0.999907 
-0.0112827 0.00581912 -0.999919 
-0.0110353 0.0045101 -0.999929 
-0.011065 0.00356237 -0.999932 
-0.0110119 0.00279905 -0.999935 
-0.0111147 0.00218897 -0.999936 
-0.0111047 0.00162823 -0.999937 
-0.0110729 0.00110961 -0.999938 
-0.0108745 0.000588246 -0.999941 
-0.0107277 3.13268e-05 -0.999942 
-0.0104415 -0.000556508 -0.999945 
-0.0102689 -0.00117464 -0.999947 
-0.0100222 -0.00190807 -0.999948 
-0.00978567 -0.00277946 -0.999948 
-0.010067 -0.00376741 -0.999942 
-0.00983461 -0.00521057 -0.999938 
-0.00955578 -0.00707642 -0.999929 
-0.00984937 -0.00943514 -0.999907 
-0.00946589 -0.0129962 -0.999871 
-0.00946739 -0.0169062 -0.999812 
-0.00849405 -0.0197416 -0.999769 
-0.00676234 -0.01975 -0.999782 
-0.00452405 -0.0155576 -0.999869 
-0.000837656 -0.00123763 -0.999999 
0.0010403 -0.00148179 0.999998 
0.00324741 -0.0159329 0.999868 
0.00546561 -0.0203392 0.999778 
0.00639152 -0.0199135 0.999781 
0.00689983 -0.0167319 0.999836 
0.00709719 -0.0127546 0.999893 
0.00728465 -0.00946196 0.999929 
0.00752154 -0.00705122 0.999947 
0.00756692 -0.00530294 0.999957 
0.00777712 -0.00393681 0.999962 
0.00801467 -0.00288321 0.999964 
0.00813038 -0.00204544 0.999965 
0.00818025 -0.00134028 0.999966 
0.00835549 -0.000677936 0.999965 
0.00855811 -3.70074e-05 0.999963 
0.00864743 0.000592405 0.999962 
0.00865827 0.00114644 0.999962 
0.00882747 0.00166027 0.99996 
0.00891048 0.00219615 0.999958 
0.00880725 0.00276689 0.999957 
0.00885424 0.00347128 0.999955 
0.00886103 0.00436458 0.999951 
0.00891271 0.00554126 0.999945 
0.00893676 0.00698512 0.999936 
0.00914382 0.00897994 0.999918 
0.00964503 0.0121461 0.99988 
0.00992027 0.016073 0.999822 
0.0109325 0.0223202 0.999691 
0.012306 0.0309564 0.999445 
0.0148724 0.0433423 0.99895 
0.0190981 0.0599819 0.998017 
0.0254852 0.080012 0.996468 
0.0303487 0.0917561 0.995319 
0.0452131 0.125099 0.991114 
0.0660671 0.16284 0.984438 
0.107846 0.225866 0.96817 
0.157437 0.327553 0.931624 
0.215997 0.490385 0.844315 
0.171789 0.693797 0.699382 
-0.07333 0.945157 -0.318279 
-0.185196 0.717599 -0.671383 
-0.206781 0.514407 -0.832242 
-0.195938 0.376777 -0.905344 
-0.120443 0.250624 -0.960563 
-0.0736656 0.178198 -0.981233 
-0.0513305 0.140276 -0.988781 
-0.0344714 0.102489 -0.994137 
-0.0255104 0.0812874 -0.996364 
-0.0181806 0.0581587 -0.998142 
-0.0142652 0.0421094 -0.999011 
-0.0122993 0.030832 -0.999449 
-0.0109347 0.0223189 -0.999691 
-0.00978568 0.0160954 -0.999823 
-0.00945581 0.012034 -0.999883 
-0.00920085 0.00909917 -0.999916 
-0.00909668 0.00698317 -0.999934 
-0.00904286 0.00544158 -0.999944 
-0.00878596 0.0042391 -0.999952 
-0.00889523 0.00338714 -0.999955 
-0.00874312 0.00268888 -0.999958 
-0.0088709 0.00211372 -0.999958 
-0.00880041 0.00157532 -0.99996 
-0.00875732 0.00103843 -0.999961 
-0.00862465 0.000457637 -0.999963 
-0.00846756 -0.000159896 -0.999964 
-0.00823882 -0.000824058 -0.999966 
-0.00806431 -0.00149892 -0.999966 
-0.00780879 -0.00226194 -0.999967 
-0.0075901 -0.00316677 -0.999966 
-0.00776408 -0.00419681 -0.999961 
-0.00743732 -0.00560567 -0.999957 
-0.00725732 -0.00760928 -0.999945 
-0.00753501 -0.0102189 -0.999919 
-0.00704893 -0.013722 -0.999881 
-0.00716469 -0.0174077 -0.999823 
-0.00632924 -0.0201015 -0.999778 
-0.00502574 -0.0201293 -0.999785 
-0.00342369 -0.0159183 -0.999867 
-0.000629346 -0.000962306 -0.999999 
0.000420209 -0.000258548 1 
0.00229885 -0.0157636 0.999873 
0.00402357 -0.0204351 0.999783 
0.0046834 -0.020298 0.999783 
0.00515789 -0.0174645 0.999834 
0.00532877 -0.0134562 0.999895 
0.00548399 -0.00997741 0.999935 
0.00575152 -0.00751415 0.999955 
0.00583143 -0.0056827 0.999967 
0.00607504 -0.00430833 0.999972 
0.00634204 -0.0032549 0.999975 
0.00649371 -0.00239948 0.999976 
0.00657667 -0.00165887 0.999977 
0.00675847 -0.000934523 0.999977 
0.00694313 -0.000214247 0.999976 
0.00709023 0.000457216 0.999975 
0.00704795 0.00106962 0.999975 
0.00712977 0.00160698 0.999973 
0.00728948 0.00211456 0.999971 
0.00720538 0.00263445 0.999971 
0.00727522 0.00325797 0.999968 
0.00729989 0.00404816 0.999965 
0.00732183 0.00508348 0.99996 
0.007228 0.0063944 0.999953 
0.00730772 0.00812095 0.99994 
0.0078095 0.0106925 0.999912 
0.0078725 0.0140323 0.999871 
0.00878432 0.0192132 0.999777 
0.00996098 0.0263086 0.999604 
0.0121589 0.0366183 0.999255 
0.0156944 0.050233 0.998614 
0.0201183 0.0650961 0.997676 
0.02754 0.0884138 0.995703 
0.039796 0.117496 0.992276 
0.0626073 0.162621 0.9847 
0.114497 0.229856 0.966466 
0.194022 0.340875 0.91987 
0.294111 0.541967 0.787255 
0.223795 0.822073 0.523557 
0.0350052 0.994071 0.102947 
-0.194968 0.8659 -0.460656 
-0.29434 0.535725 -0.79143 
-0.187849 0.322808 -0.927636 
-0.114654 0.223132 -0.968022 
-0.0698946 0.168528 -0.983216 
-0.0466533 0.128655 -0.990591 
-0.0296927 0.0939012 -0.995139 
-0.0225871 0.0728797 -0.997085 
-0.0170828 0.0554782 -0.998314 
-0.0123968 0.0386678 -0.999175 
-0.010562 0.0290059 -0.999523 
-0.00911747 0.0211342 -0.999735 
-0.00812231 0.0154835 -0.999847 
-0.00772314 0.0115099 -0.999904 
-0.00751811 0.00875002 -0.999933 
-0.00745027 0.00675744 -0.999949 
-0.00737191 0.0052479 -0.999959 
-0.00723769 0.00415692 -0.999965 
-0.00731214 0.00334529 -0.999968 
-0.00720679 0.00269977 -0.99997 
-0.00730945 0.00216446 -0.999971 
-0.00720475 0.0016363 -0.999973 
-0.00713159 0.00108886 -0.999974 
-0.00706785 0.000495869 -0.999975 
-0.00690376 -0.000182414 -0.999976 
-0.00674539 -0.000893496 -0.999977 
-0.00654495 -0.00163354 -0.999977 
-0.00629749 -0.002404 -0.999977 
-0.00605934 -0.00328109 -0.999976 
-0.00600809 -0.0043564 -0.999972 
-0.00580334 -0.00582316 -0.999966 
-0.00559287 -0.00779584 -0.999954 
-0.00568043 -0.0104306 -0.999929 
-0.00526856 -0.0139351 -0.999889 
-0.00530369 -0.0177335 -0.999829 
-0.00466015 -0.0204064 -0.999781 