# vtk DataFile Version 3.0 
Exported using Morpho https://github.com/Morpho-lang/morpho 
ASCII 
DATASET UNSTRUCTURED_GRID 

POINTS 1978 float 
-8.48475 -2.82763 -3.77897e-06 
-8.25966 -2.82784 -5.88179e-06 
-8.02875 -2.82746 4.48362e-06 
-7.75948 -2.82793 8.75353e-06 
-7.47514 -2.82786 8.47567e-06 
-7.2314 -2.82786 3.5176e-06 
-6.99545 -2.82782 3.37052e-07 
-6.76721 -2.82796 2.08841e-06 
-6.55551 -2.82799 1.11816e-06 
-6.34091 -2.82785 5.65064e-07 
-6.15021 -2.82794 7.19173e-07 
-5.92831 -2.82791 3.93747e-07 
-5.71592 -2.82789 2.26003e-07 
-5.51222 -2.8279 9.82536e-08 
-5.29411 -2.82788 9.64059e-08 
-5.08268 -2.82788 1.76827e-07 
-4.86464 -2.82789 2.00126e-07 
-4.65736 -2.82788 1.34893e-07 
-4.43699 -2.82788 8.49032e-08 
-4.21666 -2.82788 2.55742e-08 
-3.99856 -2.82789 -8.17089e-08 
-3.78699 -2.82789 -2.2946e-07 
-3.57002 -2.8279 -3.05259e-07 
-3.35809 -2.8279 -4.81546e-07 
-3.13427 -2.82793 -4.26625e-07 
-2.92308 -2.82796 -4.33749e-07 
-2.71101 -2.82802 -1.38653e-07 
-2.51562 -2.82808 -3.30355e-07 
-2.30141 -2.82805 1.9698e-07 
-2.09043 -2.82814 8.24307e-07 
-1.88187 -2.82817 2.55091e-06 
-1.67799 -2.82816 2.14484e-06 
-1.47841 -2.82829 4.07492e-06 
-1.26654 -2.82823 5.34749e-06 
-1.08321 -2.82818 -4.39661e-06 
-0.829789 -2.82824 -6.07973e-07 
-0.610686 -2.82804 -2.21084e-06 
-0.43959 -2.82801 1.59081e-07 
-0.211097 -2.82799 -9.86223e-06 
0.0173257 -2.82794 7.7903e-06 
0.220608 -2.82778 1.74609e-06 
0.418115 -2.82812 1.30439e-06 
0.62917 -2.82806 6.28929e-06 
0.837828 -2.82836 1.00499e-05 
1.03936 -2.82828 -2.69502e-06 
1.25086 -2.82821 -6.01733e-06 
1.44109 -2.82827 -3.28152e-07 
1.67964 -2.82819 -1.94806e-06 
1.86917 -2.82816 -2.54692e-06 
2.08884 -2.82812 -1.22116e-07 
2.3086 -2.82805 -4.06047e-08 
2.49706 -2.82807 2.26366e-07 
2.72821 -2.82793 6.56554e-07 
2.94766 -2.82798 5.55047e-07 
3.16311 -2.82795 3.26788e-07 
3.36862 -2.82791 3.83796e-07 
3.59448 -2.82792 2.84449e-07 
3.79757 -2.8279 1.21002e-07 
4.01462 -2.82787 1.96142e-07 
4.24499 -2.82789 1.62705e-07 
4.44392 -2.8279 -1.80068e-08 
4.65729 -2.8279 -5.98288e-08 
4.8665 -2.82789 -1.28626e-07 
5.07081 -2.82791 -1.95737e-07 
5.28721 -2.82788 -2.02175e-07 
5.49947 -2.82791 -2.52322e-07 
5.70314 -2.8279 -3.97883e-07 
5.92346 -2.82788 -5.34639e-07 
6.14643 -2.82789 -5.92708e-07 
6.34654 -2.8279 -9.84289e-07 
6.58736 -2.82788 -9.69468e-07 
6.79703 -2.82794 -7.70411e-07 
6.99405 -2.82792 -2.11989e-06 
7.25373 -2.82787 -2.79807e-06 
7.48164 -2.82792 -4.3039e-06 
7.71697 -2.82788 -6.69136e-06 
7.97942 -2.82785 -9.04387e-06 
8.16635 -2.8276 2.77495e-06 
8.48453 -2.8274 5.79328e-06 
-8.48474 -2.58963 4.54054e-06 
-8.24898 -2.58187 1.58057e-18 
-8.01097 -2.57251 1.77867e-17 
-7.78134 -2.62454 -3.0195e-18 
-7.51605 -2.63237 -1.44377e-17 
-7.22239 -2.60252 -1.87276e-18 
-6.98631 -2.587 5.02544e-18 
-6.75994 -2.59468 -1.44889e-19 
-6.53695 -2.59123 -2.01521e-18 
-6.33324 -2.55693 4.30636e-18 
-6.11021 -2.59737 1.91278e-18 
-5.89328 -2.58269 2.8358e-18 
-5.68211 -2.57052 -1.45481e-18 
-5.46416 -2.58727 -1.81992e-18 
-5.24853 -2.57941 -5.92299e-19 
-5.03 -2.58734 -8.81634e-20 
-4.81971 -2.57521 -6.70338e-19 
-4.60094 -2.58994 -7.49417e-19 
-4.37991 -2.58906 6.54251e-19 
-4.16109 -2.58504 -7.5061e-19 
-3.94934 -2.57592 -2.31122e-18 
-3.73574 -2.58052 -2.81477e-18 
-3.52379 -2.5775 -1.70294e-18 
-3.3049 -2.59364 -6.19694e-19 
-3.09217 -2.58664 -3.9258e-18 
-2.87952 -2.59369 -3.55861e-18 
-2.67942 -2.58234 -5.50249e-18 
-2.46848 -2.60774 -4.33607e-18 
-2.25032 -2.60422 -2.08378e-18 
-2.0406 -2.60068 -7.14437e-18 
-1.82838 -2.59411 -9.47907e-18 
-1.61985 -2.58576 -1.3203e-17 
-1.41406 -2.59363 -2.67338e-18 
-1.2199 -2.54884 -1.66453e-17 
-0.987643 -2.61735 6.35665e-18 
-0.764425 -2.58198 -2.15842e-17 
-0.578913 -2.47833 -1.1741e-17 
-0.392446 -2.50527 -1.62629e-17 
-0.192793 -2.5464 -1.15885e-17 
0.0138888 -2.51006 3.27802e-17 
0.211168 -2.45875 -2.10759e-17 
0.402318 -2.51978 -3.8209e-18 
0.611974 -2.54904 1.69135e-17 
0.831348 -2.572 1.48281e-17 
1.05453 -2.58806 2.69088e-18 
1.26248 -2.56974 2.54523e-17 
1.50239 -2.63436 -5.02343e-18 
1.71466 -2.58641 1.94661e-17 
1.93526 -2.62054 -4.81946e-18 
2.16219 -2.61125 -7.5972e-19 
2.3678 -2.57168 9.22336e-18 
2.57792 -2.61611 2.09883e-18 
2.80149 -2.59679 2.11851e-18 
3.01578 -2.59433 4.99593e-18 
3.22114 -2.57563 2.3171e-18 
3.43961 -2.59612 1.14344e-19 
3.64713 -2.56856 2.52018e-18 
3.86137 -2.58453 3.35878e-18 
4.09028 -2.59925 1.13571e-19 
4.29957 -2.56422 3.43836e-19 
4.51366 -2.5843 1.45203e-18 
4.72761 -2.58061 1.53681e-18 
4.9397 -2.57623 8.43563e-19 
5.1543 -2.59033 -5.81523e-19 
5.37328 -2.58513 -4.28005e-19 
5.58431 -2.57363 6.41108e-19 
5.80082 -2.59077 6.93733e-19 
6.02694 -2.59096 -1.92524e-18 
6.24076 -2.5615 -2.81976e-18 
6.46155 -2.60567 3.48844e-18 
6.68787 -2.5713 -5.63037e-18 
6.89391 -2.55432 -5.42466e-18 
7.11829 -2.62052 1.00731e-17 
7.36595 -2.58979 -2.14671e-18 
7.59927 -2.59578 -1.66883e-19 
7.85267 -2.61613 -1.81576e-17 
8.06546 -2.52492 -6.42866e-18 
8.29079 -2.64256 1.35496e-17 
8.48464 -2.52134 -1.81226e-06 
-8.48457 -2.34907 3.72648e-06 
-8.21797 -2.35879 -1.96876e-17 
-7.95644 -2.33437 8.95624e-18 
-7.72693 -2.40352 1.85944e-17 
-7.56223 -2.23763 7.04197e-18 
-7.43648 -2.44364 5.75125e-18 
-7.16573 -2.37972 6.74185e-18 
-6.93392 -2.33991 6.40899e-20 
-6.70999 -2.35956 3.22574e-18 
-6.49243 -2.33219 9.52648e-19 
-6.24081 -2.34305 8.24023e-19 
-6.02922 -2.35172 2.17957e-18 
-5.80911 -2.33372 -1.27208e-18 
-5.57926 -2.33889 -3.39192e-19 
-5.36385 -2.34189 1.68063e-18 
-5.13942 -2.34598 1.79636e-18 
-4.92716 -2.33443 1.03165e-18 
-4.70393 -2.34719 7.54966e-19 
-4.48416 -2.35457 9.99479e-19 
-4.26331 -2.3491 1.39804e-18 
-4.04836 -2.3325 -7.52812e-20 
-3.833 -2.33273 5.04003e-19 
-3.62061 -2.33298 1.5736e-18 
-3.40157 -2.35056 5.87422e-19 
-3.19024 -2.3513 4.76384e-19 
-2.97423 -2.35847 -7.56211e-19 
-2.76902 -2.34461 5.17157e-21 
-2.55799 -2.36842 -1.97055e-18 
-2.3496 -2.39048 -5.67305e-18 
-2.12761 -2.37055 -5.95189e-18 
-1.91443 -2.37278 -6.98274e-18 
-1.69342 -2.35825 -3.02621e-19 
-1.47089 -2.34122 1.65481e-18 
-1.27529 -2.29055 6.44908e-18 
-1.04955 -2.3733 -7.91441e-18 
-0.8323 -2.3236 7.07609e-18 
-0.607599 -2.22314 -1.92982e-17 
-0.379474 -2.17097 2.04135e-19 
-0.189888 -2.22791 1.6507e-18 
0.0177273 -2.16967 3.22017e-17 
0.200701 -2.05668 3.54726e-17 
0.404847 -2.17127 -4.71782e-17 
0.605935 -2.2471 4.41578e-17 
0.820122 -2.31228 -9.95154e-18 
1.03232 -2.34102 1.52804e-17 
1.25263 -2.32914 -8.54298e-18 
1.46758 -2.41526 7.39817e-18 
1.65916 -2.3463 4.23851e-18 
1.8741 -2.39293 1.24124e-17 
2.08813 -2.40281 6.9394e-18 
2.30599 -2.35037 4.11141e-18 
2.53565 -2.37029 1.92012e-18 
2.73502 -2.38103 4.43952e-18 
2.9626 -2.3584 -3.87774e-19 
3.16362 -2.33394 -3.82696e-19 
3.37709 -2.35526 4.02537e-20 
3.58188 -2.32497 -1.04711e-18 
3.79491 -2.33517 -1.70346e-18 
4.01162 -2.36493 -9.02999e-21 
4.22053 -2.32603 -1.00913e-18 
4.44244 -2.33484 -1.6435e-18 
4.65212 -2.33712 -1.06751e-18 
4.8643 -2.33558 2.39671e-20 
5.08221 -2.34385 -1.05542e-18 
5.29312 -2.35228 -1.71166e-18 
5.50918 -2.33253 -1.13261e-18 
5.72832 -2.34461 1.1128e-18 
5.94512 -2.35837 -9.59454e-19 
6.16128 -2.3252 -3.13505e-18 
6.39581 -2.35048 -1.79982e-18 
6.60447 -2.34781 -4.89916e-19 
6.82746 -2.29877 -6.86828e-19 
7.05526 -2.36147 -4.93026e-18 
7.27052 -2.38666 -1.14854e-17 
7.52741 -2.359 -1.24653e-19 
7.76954 -2.39114 -1.97124e-17 
7.98594 -2.29777 4.03681e-18 
8.25562 -2.36688 4.79233e-18 
8.48469 -2.26997 -1.2771e-06 
-8.48459 -2.10696 9.5295e-07 
-8.24881 -2.14475 -8.85713e-18 
-8.05082 -2.06931 -8.01752e-18 
-7.79919 -2.13329 -2.11623e-18 
-7.51425 -2.02303 -5.43473e-18 
-7.30813 -2.21571 5.00424e-19 
-7.06077 -2.12441 -6.34229e-18 
-6.80544 -2.11458 -2.12879e-18 
-6.59573 -2.10343 -1.53715e-18 
-6.35239 -2.13297 -1.96456e-18 
-6.12037 -2.09708 -2.62787e-18 
-5.91593 -2.10291 -1.32687e-18 
-5.68849 -2.10914 -4.02312e-20 
-5.46766 -2.0969 5.79758e-19 
-5.25131 -2.11285 -9.97726e-19 
-5.03956 -2.09742 -3.31112e-19 
-4.81771 -2.10947 -1.06191e-18 
-4.59927 -2.11716 2.5821e-19 
-4.38327 -2.11812 -7.50553e-19 
-4.17119 -2.10145 -6.50596e-19 
-3.95512 -2.09192 9.21443e-20 
-3.74328 -2.09123 5.02286e-19 
-3.5264 -2.10684 -6.97644e-19 
-3.31769 -2.11256 -4.56594e-19 
-3.10484 -2.12338 1.55311e-18 
-2.90046 -2.11668 1.47963e-18 
-2.68433 -2.12289 3.63852e-18 
-2.47597 -2.14484 5.93672e-18 
-2.26646 -2.16648 8.70623e-18 
-2.03816 -2.13706 1.08775e-17 
-1.82056 -2.14265 1.036e-17 
-1.59074 -2.12507 5.15037e-18 
-1.38141 -2.04628 2.98469e-18 
-1.18269 -1.97839 6.61456e-18 
-1.0507 -2.1257 -9.16259e-18 
-0.819196 -2.07014 -2.95796e-18 
-0.605291 -1.9504 1.62564e-18 
-0.359688 -1.89572 -1.33601e-17 
-0.153528 -1.89513 -2.40594e-17 
0.0348351 -1.79532 -1.7528e-17 
0.222861 -1.60537 2.32347e-17 
0.341126 -1.84189 -3.55386e-17 
0.560666 -1.88493 3.46207e-17 
0.766338 -2.0157 -2.03335e-18 
0.982046 -2.05355 1.45616e-17 
1.18977 -2.08957 6.58979e-18 
1.43786 -2.16182 -1.18679e-17 
1.65156 -2.10729 -8.94795e-18 
1.87106 -2.16172 -1.61845e-17 
2.10559 -2.18399 -5.56542e-18 
2.35909 -2.14625 -8.5247e-18 
2.56116 -2.12025 -2.25584e-18 
2.78588 -2.16449 -2.76828e-18 
2.98641 -2.10591 -3.30385e-18 
3.20518 -2.1061 -1.67658e-19 
3.40698 -2.10594 3.38649e-19 
3.62173 -2.08687 -8.34949e-19 
3.84053 -2.10641 8.45349e-19 
4.04285 -2.11312 4.54463e-19 
4.27133 -2.09726 3.05535e-19 
4.48291 -2.09186 1.21129e-18 
4.69613 -2.09595 -7.94189e-19 
4.91517 -2.10522 1.3546e-19 
5.12785 -2.10341 1.94114e-18 
5.33925 -2.11343 7.45427e-19 
5.56371 -2.10196 -9.4561e-19 
5.78077 -2.11003 1.26351e-18 
5.99121 -2.11139 1.89997e-18 
6.23407 -2.10956 2.27307e-18 
6.44327 -2.09583 1.66625e-19 
6.65503 -2.09956 2.27142e-18 
6.91111 -2.08825 8.93719e-18 
7.12414 -2.12209 3.39304e-18 
7.35117 -2.1698 7.11749e-18 
7.54062 -2.06936 5.28361e-18 
7.72457 -2.15819 -3.7304e-18 
7.94457 -2.06478 -1.3058e-18 
8.19957 -2.14093 2.27727e-17 
8.48474 -2.07129 -3.2544e-06 
-8.48456 -1.77602 -2.00888e-06 
-8.31007 -1.88828 6.69846e-18 
-7.8911 -1.88849 1.86662e-18 
[...]
POINT_DATA 1978 
VECTORS vectors float
0.0416058 -0.0589717 0.997386 
0.0506708 -0.0852224 0.995078 
0.0459155 -0.10141 0.993822 
0.0402687 -0.0983631 0.994367 
0.0386268 -0.0837483 0.995771 
0.0435902 -0.0700944 0.996605 
0.0463479 -0.054955 0.997443 
0.0457604 -0.044742 0.997963 
0.0467546 -0.0351039 0.998305 
0.0480819 -0.0269964 0.998497 
0.0472446 -0.020829 0.998685 
0.0478777 -0.0152249 0.998755 
0.0484926 -0.0110392 0.99878 
0.0486636 -0.00791294 0.998801 
0.0488853 -0.00552437 0.998806 
0.0488879 -0.00365326 0.998814 
0.0490588 -0.00172947 0.99881 
0.0486789 0.000521077 0.998831 
0.0484304 0.00334652 0.998838 
0.0482677 0.0068929 0.998828 
0.0481644 0.0114512 0.998792 
0.0477891 0.0169914 0.998732 
0.0473175 0.0241053 0.998609 
0.046346 0.0328651 0.998406 
0.0456788 0.0448821 0.997969 
0.0447251 0.0598322 0.997228 
0.0436464 0.0796819 0.995887 
0.0416606 0.103291 0.993802 
0.0394018 0.136369 0.989901 
0.0366518 0.177832 0.983407 
0.0335835 0.229556 0.972748 
0.0293418 0.29326 0.955618 
0.0251673 0.367634 0.929668 
0.0200934 0.463478 0.88592 
0.0143369 0.55351 0.83276 
0.00861897 0.694697 0.719288 
0.00429725 0.812645 0.582773 
0.00184473 0.896096 0.443912 
8.05822e-05 0.975865 0.218302 
-8.27128e-05 0.999737 -0.0229245 
-0.000948509 0.971336 -0.237759 
-0.0029746 0.906385 -0.422456 
-0.00536614 0.805023 -0.59326 
-0.00821832 0.693205 -0.720711 
-0.0140554 0.575352 -0.817817 
-0.020196 0.467071 -0.884029 
-0.0236088 0.382239 -0.9238 
-0.0294013 0.292379 -0.955885 
-0.0332289 0.233495 -0.971822 
-0.0362027 0.180029 -0.983025 
-0.039092 0.136244 -0.989932 
-0.0409757 0.106353 -0.99351 
-0.0428676 0.078788 -0.995994 
-0.0446564 0.0587615 -0.997295 
-0.0459549 0.0435402 -0.998015 
-0.0465124 0.0325227 -0.998409 
-0.0474025 0.0234307 -0.99862 
-0.0477321 0.0168745 -0.998736 
-0.0478415 0.0117686 -0.998804 
-0.0483352 0.00746936 -0.998821 
-0.0487298 0.00409727 -0.99882 
-0.0489541 0.00117417 -0.998816 
-0.0490133 -0.00142364 -0.998813 
-0.0488636 -0.00380485 -0.998814 
-0.0488334 -0.00623007 -0.998803 
-0.0488109 -0.00896313 -0.998784 
-0.0483506 -0.0121161 -0.998774 
-0.0480528 -0.0161107 -0.998733 
-0.0478558 -0.0211688 -0.998648 
-0.0469862 -0.0268263 -0.998555 
-0.0467415 -0.0347549 -0.998323 
-0.0467239 -0.0437615 -0.99797 
-0.0444894 -0.0543222 -0.997556 
-0.0434414 -0.0709558 -0.996559 
-0.0433499 -0.0885654 -0.995152 
-0.0437981 -0.105531 -0.993478 
-0.0461049 -0.115444 -0.992266 
-0.0494805 -0.102215 -0.993551 
-0.0439231 -0.0561004 -0.997442 
0.0289207 -0.0628564 0.99758 
0.0416458 -0.0816159 0.99587 
0.0474138 -0.0919697 0.994695 
0.0498024 -0.0948878 0.994302 
0.0504767 -0.0835532 0.995295 
0.0526888 -0.0664856 0.996476 
0.0525635 -0.0546422 0.997191 
0.0554843 -0.0441132 0.997552 
0.0563801 -0.0344685 0.997883 
0.0589665 -0.027093 0.997957 
0.0575424 -0.020127 0.998204 
0.0587396 -0.0146891 0.998228 
0.0601097 -0.0109053 0.998194 
0.0598564 -0.00786249 0.998237 
0.06053 -0.00538023 0.998212 
0.0604909 -0.00313422 0.998224 
0.0610557 -0.000964227 0.998194 
0.0599524 0.00159115 0.99826 
0.0594881 0.00481236 0.998278 
0.0593031 0.0088066 0.998263 
0.0590593 0.0136124 0.998225 
0.0580037 0.0196221 0.998189 
0.0569305 0.0271619 0.998074 
0.0549355 0.0370377 0.99787 
0.0537028 0.0497244 0.997386 
0.0518714 0.0661229 0.996531 
0.0499278 0.0862559 0.995091 
0.0461067 0.11278 0.992623 
0.0424532 0.148596 0.988064 
0.0382455 0.192683 0.980598 
0.0334721 0.248925 0.968033 
0.0279202 0.318489 0.94761 
0.0221053 0.401272 0.915777 
0.01687 0.487788 0.872913 
0.011174 0.608049 0.793921 
0.00639911 0.732118 0.681218 
0.00320468 0.831113 0.556206 
0.00120258 0.915804 0.401635 
-0.000231358 0.977495 0.211008 
-0.00190046 0.999957 -0.00855696 
-0.00351211 0.975257 -0.221069 
-0.00519853 0.912332 -0.409501 
-0.00728523 0.818642 -0.574333 
-0.0102591 0.696297 -0.717782 
-0.0146073 0.57052 -0.821241 
-0.0195531 0.463979 -0.885747 
-0.0256728 0.359296 -0.932946 
-0.030992 0.283805 -0.958486 
-0.0356045 0.219875 -0.974962 
-0.0407159 0.166842 -0.985219 
-0.0449027 0.129816 -0.990601 
-0.0471698 0.0986366 -0.994077 
-0.0504516 0.0739893 -0.996053 
-0.0528011 0.0556251 -0.997123 
-0.0550886 0.0421959 -0.997657 
-0.055829 0.0308903 -0.998028 
-0.0579972 0.0228998 -0.998119 
-0.0582079 0.0163592 -0.998234 
-0.058388 0.0108472 -0.998298 
-0.0606708 0.00691825 -0.998196 
-0.0602218 0.00349817 -0.99824 
-0.0607414 0.000501423 -0.998214 
-0.0610705 -0.0021829 -0.998191 
-0.0601484 -0.00476932 -0.998238 
-0.0603049 -0.00754946 -0.998212 
-0.0604474 -0.0104537 -0.998178 
-0.0588594 -0.0139683 -0.998231 
-0.0583441 -0.0186009 -0.998187 
-0.0588323 -0.0238661 -0.998047 
-0.0558671 -0.0305513 -0.998037 
-0.0567661 -0.039225 -0.997685 
-0.0563123 -0.0489048 -0.997285 
-0.051969 -0.0616286 -0.996816 
-0.0522225 -0.0777798 -0.995674 
-0.0515403 -0.0927375 -0.994428 
-0.0510593 -0.104417 -0.993279 
-0.0499231 -0.094385 -0.994356 
-0.0414912 -0.08263 -0.99577 
-0.0304026 -0.0609105 -0.997669 
0.0269913 -0.0620826 0.997707 
0.0426102 -0.0762724 0.996227 
0.0548335 -0.0899968 0.994506 
0.0557463 -0.0894472 0.994512 
0.0618354 -0.0827499 0.994713 
0.055425 -0.0782645 0.995464 
0.0624756 -0.0636648 0.996087 
0.0665858 -0.051962 0.996491 
0.0661458 -0.0415903 0.997021 
0.0688941 -0.0326762 0.997158 
0.0703056 -0.0240021 0.997306 
0.0704589 -0.0182239 0.997416 
0.0722842 -0.0137258 0.997356 
0.0729946 -0.00994143 0.997349 
0.0734086 -0.00702742 0.997342 
0.0737622 -0.0044232 0.99733 
0.07443 -0.0020464 0.997288 
0.0738289 0.00068139 0.997335 
0.0730653 0.00380795 0.997384 
0.07245 0.00761194 0.997408 
0.0720047 0.012239 0.997396 
0.0706511 0.0179053 0.997408 
0.0693566 0.0248893 0.99735 
0.0671944 0.0339706 0.99723 
0.0654919 0.0453537 0.996892 
0.0630163 0.0603892 0.996254 
0.0607428 0.079048 0.995091 
0.0567582 0.103448 0.993089 
0.0517912 0.134343 0.989659 
0.0465171 0.177251 0.98315 
0.0402766 0.229629 0.972533 
0.0331225 0.298369 0.95397 
0.0254398 0.38169 0.924055 
0.0193245 0.471544 0.881733 
0.0126767 0.583545 0.81206 
0.00755242 0.697465 0.716698 
0.00290428 0.818303 0.574832 
-0.000314531 0.922364 0.386421 
-0.00193003 0.980545 0.19631 
-0.0030907 0.999601 -0.0280937 
-0.00377394 0.975458 -0.220163 
-0.00627983 0.910727 -0.413014 
-0.00893673 0.817163 -0.576436 
-0.0117839 0.701113 -0.71305 
-0.0158887 0.580926 -0.81392 
-0.0215415 0.471836 -0.881505 
-0.0270054 0.376621 -0.926069 
-0.0338241 0.308582 -0.95069 
-0.0398136 0.240535 -0.969896 
-0.0449726 0.185261 -0.981749 
-0.0516437 0.142809 -0.988479 
-0.0557992 0.10727 -0.99274 
-0.0588892 0.0828808 -0.994892 
-0.0627839 0.0620013 -0.996171 
-0.0656308 0.0475587 -0.99678 
-0.0667955 0.0353873 -0.997208 
-0.0695885 0.0267128 -0.997286 
-0.070661 0.0194121 -0.997379 
-0.0706317 0.013474 -0.997477 
-0.0731927 0.00909076 -0.997342 
-0.0735665 0.00507492 -0.997342 
-0.0739389 0.00180539 -0.997326 
-0.074458 -0.00116391 -0.997287 
-0.07412 -0.00401469 -0.997305 
-0.0735308 -0.00671766 -0.997334 
-0.0737824 -0.00966714 -0.997292 
-0.0725555 -0.0130307 -0.997344 
-0.0710382 -0.017053 -0.997394 
-0.0713405 -0.0220296 -0.997276 
-0.0689642 -0.0286048 -0.997278 
-0.0678944 -0.0359616 -0.997115 
-0.0678287 -0.0458179 -0.996717 
-0.0646613 -0.0578815 -0.996301 
-0.0622979 -0.0708219 -0.995615 
-0.0613302 -0.0851236 -0.994567 
-0.0588432 -0.0961004 -0.993701 
-0.0581096 -0.0936755 -0.993972 
-0.0431087 -0.0784303 -0.996047 
-0.03111 -0.0620781 -0.997581 
0.0252423 -0.0542901 0.99821 
0.0402654 -0.0751992 0.996421 
0.0488498 -0.083652 0.995368 
0.0566673 -0.0887757 0.994527 
0.059464 -0.081021 0.995015 
0.0643371 -0.0717852 0.99542 
0.0654608 -0.0586531 0.996222 
0.06767 -0.0452692 0.996756 
0.0691746 -0.0361798 0.997022 
0.0709159 -0.0275593 0.997174 
0.0716785 -0.0211113 0.997277 
0.0729387 -0.0164864 0.997271 
0.0739828 -0.0122855 0.997254 
0.0744978 -0.0089812 0.99725 
0.0753567 -0.0061343 0.997207 
0.0755193 -0.00355973 0.997207 
0.0757554 -0.00068448 0.997195 
0.0755351 0.00245915 0.997209 
0.0748542 0.0060935 0.997245 
0.0736714 0.0103993 0.997298 
0.0722084 0.0157329 0.997336 
0.0706806 0.0220628 0.997326 
0.069197 0.0301379 0.997219 
0.0673596 0.0400321 0.996998 
0.0652255 0.0529299 0.996539 
0.0623597 0.0690137 0.995739 
0.0588026 0.0907593 0.994213 
0.0548329 0.117721 0.991612 
0.0500504 0.152189 0.987169 
0.0429879 0.200982 0.978743 
0.03598 0.261069 0.964746 
0.0277735 0.340714 0.939858 
0.0195248 0.428334 0.903521 
0.0129434 0.52078 0.853695 
0.0112831 0.582947 0.812541 
0.00535497 0.708771 0.705495 
0.00190722 0.823288 0.567729 
-0.00011811 0.931625 0.363442 
-0.00101773 0.985937 0.167134 
-0.00327872 0.999482 -0.0320592 
-0.00406109 0.97168 -0.236277 
-0.00409679 0.932632 -0.360863 
-0.00561574 0.833497 -0.552599 
-0.00964803 0.729367 -0.684153 
-0.0130476 0.618524 -0.785751 
-0.0176103 0.513207 -0.858214 
-0.025199 0.395724 -0.91814 
-0.0313697 0.3132 -0.949257 
-0.038994 0.242765 -0.969411 
-0.0458792 0.184918 -0.98177 
-0.0521455 0.135469 -0.989493 
-0.0562203 0.105784 -0.99288 
-0.0611791 0.0797338 -0.995003 
-0.0629744 0.0621867 -0.996161 
-0.0660105 0.0468312 -0.996793 
-0.0680847 0.0358836 -0.997106 
-0.0697999 0.0267481 -0.997274 
-0.0718109 0.0192578 -0.997303 
-0.0731201 0.0137578 -0.997298 
-0.0741079 0.0087375 -0.997282 
-0.0747287 0.00479069 -0.997262 
-0.0753251 0.00132286 -0.997227 
-0.0757302 -0.00190943 -0.997195 
-0.0756122 -0.00485149 -0.997194 
-0.0753215 -0.00769093 -0.997198 
-0.074515 -0.0108926 -0.997229 
-0.0737938 -0.014379 -0.99724 
-0.072797 -0.0184507 -0.997247 
-0.0715422 -0.0242733 -0.997214 
-0.069948 -0.0305225 -0.997157 
-0.0686288 -0.0383828 -0.996979 
-0.0666868 -0.0503862 -0.996577 
-0.0656146 -0.0621504 -0.995984 
-0.0646736 -0.0754022 -0.995117 
-0.0614686 -0.0842831 -0.99462 
-0.061099 -0.091031 -0.994046 
-0.0559708 -0.091859 -0.994268 
-0.0473033 -0.0781393 -0.995884 
-0.0277615 -0.0632375 -0.997605 
0.0232703 -0.0516693 0.998402 
0.0295739 -0.0720304 0.997029 
0.0497268 -0.0908009 0.994687 
0.0536106 -0.0865067 0.994885 
0.0527576 -0.0782563 0.995627 
0.0606922 -0.0709647 0.995697 
0.0578226 -0.0633673 0.996392 
0.0625838 -0.0520877 0.996756 
0.0622275 -0.0412949 0.997284 
0.0653704 -0.0323703 0.99741 
0.0661684 -0.02539 0.997559 
0.0655658 -0.019917 0.997723 
0.0678893 -0.0153736 0.997646 
0.0684542 -0.0116258 0.997658 
0.0690425 -0.00837666 0.997649 
0.0695807 -0.0056011 0.997631 
0.0701224 -0.00248969 0.997606 
0.0702429 0.000784301 0.9976 
0.0698878 0.00438282 0.997616 
0.0687026 0.00847031 0.997672 
0.0673018 0.0133792 0.997714 
0.0655405 0.0193172 0.997734 
0.0643863 0.0265232 0.997644 
0.0627029 0.0352011 0.997483 
0.0610481 0.0461659 0.997139 
0.0585622 0.0597846 0.996566 
0.0557827 0.077821 0.995482 
0.0519916 0.10133 0.993574 
0.0480904 0.130755 0.990333 
0.0432719 0.169634 0.984648 
0.0353026 0.227117 0.973326 
0.0285414 0.294276 0.955378 
0.0204668 0.371064 0.928491 
0.0124747 0.465514 0.885064 
0.00530413 0.658877 0.752352 
0.00102012 0.772557 0.635007 
-0.00131966 0.887756 0.460374 
-0.00365939 0.950895 0.309512 
-0.00493994 0.97415 0.225903 
-0.0053179 0.99997 0.00760974 
-0.00251524 0.982131 -0.188244 
-0.00370562 0.938821 -0.344424 
-0.00371425 0.861567 -0.507732 
-0.00583872 0.724139 -0.689738 
-0.00900855 0.611207 -0.791554 
-0.0137815 0.508107 -0.86128 
-0.0204293 0.423976 -0.905537 
-0.0247663 0.345507 -0.938191 
-0.0320487 0.266364 -0.96344 
-0.0392136 0.208996 -0.977222 
-0.0455837 0.158077 -0.986463 
-0.0485468 0.12108 -0.99154 
-0.0548981 0.0893034 -0.99458 
-0.0560552 0.0714322 -0.995937 
-0.0594545 0.0539556 -0.996847 
-0.0613046 0.0410735 -0.997347 
-0.0633198 0.0313052 -0.997574 
-0.0654768 0.0228424 -0.997664 
-0.0666422 0.0165808 -0.997711 
-0.0685109 0.0112984 -0.997657 
-0.0684396 0.00659574 -0.997705 
-0.069181 0.00263743 -0.997671 
-0.069933 -0.000964201 -0.997622 
-0.0697653 -0.00421431 -0.997625 
-0.0695938 -0.00732782 -0.997619 
-0.0693093 -0.0103161 -0.997612 
-0.0682033 -0.0138672 -0.997646 
-0.0670997 -0.0177925 -0.997659 
-0.0669646 -0.0226054 -0.997572 
-0.0640899 -0.0289968 -0.997597 
-0.062834 -0.0364376 -0.997434 
-0.0625435 -0.0459617 -0.99706 
-0.059723 -0.0594301 -0.996535 
-0.0599211 -0.071988 -0.995681 
-0.0555403 -0.0834776 -0.995038 
-0.0540623 -0.0905862 -0.994495 
-0.0469808 -0.0876055 -0.995116 
-0.0399069 -0.0748631 -0.996461 
-0.023875 -0.0620658 -0.997777 
0.0181563 -0.0595406 0.998054 
0.0263262 -0.07319 0.997033 
0.0395856 -0.0782034 0.996223 
0.0427578 -0.0916643 0.994946 
0.0462969 -0.0871758 0.995182 
0.0487178 -0.0717494 0.99631 
0.0518386 -0.0567588 0.997119 
0.054113 -0.0473218 0.997489 
0.0553168 -0.0358748 0.9979 
0.0568111 -0.0288342 0.998043 
0.0562461 -0.0231135 0.998223 
0.0568638 -0.0176939 0.998298 
0.0587281 -0.0138806 0.998249 
0.0596142 -0.0104189 0.998238 
0.0590427 -0.00732834 0.998299 
0.0606194 -0.00411548 0.998223 
0.0607892 -0.000607543 0.998221 
0.0604438 0.00317612 0.998238 
0.0592632 0.00728119 0.998287 
0.0580805 0.0120788 0.99831 
0.0566601 0.0177952 0.998306 
0.0554915 0.0247873 0.998223 
0.0539522 0.0330068 0.998069 
0.0526451 0.043222 0.99775 
0.0504271 0.055909 0.997235 
0.0482179 0.072498 0.996279 
0.0450697 0.094162 0.994617 
0.0410234 0.123531 0.991579 
0.0374327 0.160358 0.986442 
0.0320543 0.208949 0.977501 
0.0232777 0.285153 0.958326 
0.0152108 0.373534 0.927605 
0.00718627 0.490202 0.871693 
0.00220064 0.601306 0.799103 
0.00622955 0.585238 0.810946 
-0.000248143 0.711415 0.702897 
-0.00381785 0.853166 0.521722 
-0.00301188 0.877966 0.478787 
-0.00171429 0.996876 0.0789788 
0.00127857 0.998262 0.0584805 
0.000523701 0.997069 -0.0767068 
-0.000329102 0.94768 -0.319237 
-0.00137189 0.851701 -0.524175 
-0.00285655 0.763124 -0.646323 
-0.00458335 0.63115 -0.775768 
-0.00837111 0.517057 -0.856021 
-0.0147485 0.412976 -0.910759 
-0.0215736 0.316606 -0.948422 
-0.0283802 0.243584 -0.969564 
-0.0359359 0.190909 -0.981026 
-0.0393614 0.149689 -0.988039 
-0.0449568 0.105626 -0.993473 
-0.0458298 0.0847612 -0.995426 
-0.0491895 0.0646333 -0.996772 
-0.051165 0.0499671 -0.997513 
-0.0524072 0.0384953 -0.997955 
-0.0553003 0.0289131 -0.998122 
-0.056136 0.021708 -0.998258 
-0.0574146 0.01546 -0.998302 
-0.0594376 0.0102462 -0.998251 
-0.0586715 0.00551338 -0.998334 
-0.0598382 0.00135169 -0.998278 
-0.0598427 -0.00227541 -0.998276 
-0.0599772 -0.00573865 -0.998254 
-0.0593737 -0.00894302 -0.998267 
-0.0597362 -0.0120901 -0.998212 
-0.0579289 -0.0156974 -0.998269 
-0.0575351 -0.0199914 -0.998216 
-0.0570472 -0.0248803 -0.998135 
-0.0536172 -0.0316582 -0.998134 
-0.053199 -0.0400161 -0.997858 
-0.0541673 -0.0505872 -0.997314 
-0.0497001 -0.0620981 -0.99691 
-0.0515983 -0.0729789 -0.996076 
-0.0468569 -0.0844134 -0.995406 
-0.0463239 -0.090974 -0.994851 
-0.0393449 -0.0888644 -0.995336 
-0.03115 -0.0722672 -0.996965 
-0.0187544 -0.06169 -0.997911 
0.0130641 -0.0631276 0.99791 
0.0229192 -0.0746898 0.997008 
0.0340458 -0.0873814 0.995664 
0.0353282 -0.0911528 0.9953 
0.0415183 -0.0828295 0.995777 
0.0373482 -0.0744361 0.996604 
0.042457 -0.062654 0.997196 
0.0401604 -0.0503819 0.998012 
0.0456203 -0.0413506 0.998166 
0.0438256 -0.0327694 0.998576 
0.044403 -0.0268483 0.998727 
0.0462285 -0.0211286 0.99878 
0.0455027 -0.0167251 0.998896 
0.0479624 -0.0131543 0.998833 
0.0481967 -0.00996014 0.998859 
0.0480669 -0.00651938 0.998893 
0.0494899 -0.00303608 0.998841 
0.0492594 0.000761747 0.998856 
0.0480675 0.004764 0.998903 
0.0472086 0.00931353 0.998912 
0.0464106 0.0146315 0.998885 
0.0454731 0.0208292 0.998818 
0.0441312 0.0280652 0.998701 
0.0429925 0.0368319 0.998466 
0.0415491 0.0474424 0.998081 
0.0397981 0.0613347 0.997398 
0.037561 0.0792449 0.996226 
0.0347475 0.103616 0.994095 
0.0308125 0.137214 0.990155 
0.0273957 0.17958 0.983463 
0.0225509 0.241672 0.970205 
0.0139513 0.330886 0.943683 
0.00698446 0.437228 0.899433 
0.00132345 0.555045 0.831934 
-0.0024258 0.767985 0.640576 
-0.00122583 0.844137 0.536174 
0.00147749 0.90915 0.416561 
0.00155004 0.974862 0.222811 
0.000157758 0.959039 0.283249 
0.000445317 0.998989 0.044402 
0.00156083 0.997251 -0.0739236 
-0.00127284 0.981793 -0.190115 
-0.000491523 0.922439 -0.38618 
-0.00137687 0.818123 -0.575177 
-0.00105126 0.706922 -0.70741 
-0.00325521 0.556139 -0.831202 
-0.00831391 0.43473 -0.90065 
-0.0138164 0.341869 -0.93976 
-0.0205901 0.254932 -0.966849 
-0.0275423 0.191254 -0.981286 
-0.0269652 0.154181 -0.987745 
-0.0355555 0.131793 -0.990718 
-0.0341433 0.103634 -0.994125 
-0.0375577 0.0787099 -0.996269 
-0.0399251 0.0608342 -0.997424 
-0.0411669 0.0467235 -0.998132 
-0.043439 0.0349008 -0.998517 
-0.0445147 0.0265559 -0.998727 
-0.0458258 0.0193308 -0.998833 
-0.047031 0.0131615 -0.998878 
-0.0482226 0.00814394 -0.998875 
-0.0481883 0.00305405 -0.998905 
-0.0481055 -0.00104068 -0.998913 
-0.0485312 -0.00488519 -0.998881 
-0.0479002 -0.00840052 -0.998888 
-0.0480629 -0.0117592 -0.998846 
-0.0471831 -0.0150727 -0.998844 
-0.0465806 -0.0191903 -0.998802 
-0.0452997 -0.0240624 -0.998757 
-0.0439716 -0.029702 -0.998665 
-0.0423492 -0.0382585 -0.998459 
-0.0434291 -0.0488342 -0.99794 
-0.0401699 -0.062338 -0.997325 
-0.0406209 -0.0763386 -0.996333 
-0.0357712 -0.0868007 -0.995661 
-0.0370413 -0.0920611 -0.99514 
-0.0306641 -0.0915661 -0.995397 
-0.026568 -0.0756798 -0.996843 
-0.0140127 -0.0627206 -0.997922 
0.00984507 -0.0632738 0.997936 
0.0179845 -0.0763193 0.996985 
0.0273093 -0.0916568 0.995487 
0.0259822 -0.0932863 0.995375 
0.0319153 -0.0868207 0.99579 
0.0288656 -0.0764433 0.996734 
0.0321093 -0.0612177 0.997685 
0.0301539 -0.0486709 0.998436 
0.034465 -0.0394024 0.998705 
0.0316973 -0.0323027 0.999049 
0.0345134 -0.0257661 0.999145 
0.0355678 -0.0206827 0.999225 
0.0347769 -0.0165851 0.99934 
0.0370348 -0.0131257 0.999298 
0.0379154 -0.00958674 0.999293 
0.0372804 -0.00583317 0.99937 
0.0384524 -0.00200434 0.999317 
0.037414 0.0021048 0.999368 
0.0365159 0.00673336 0.999389 
0.0362136 0.0119589 0.999342 
0.0355145 0.0179396 0.99928 
0.0346145 0.024684 0.999165 
0.0335603 0.0328643 0.998965 
0.0323065 0.0427196 0.998635 
0.0311755 0.055245 0.998059 
0.029333 0.0716743 0.997074 
0.0272331 0.0937133 0.99531 
0.0244057 0.123702 0.992111 
0.0206803 0.166525 0.985922 
0.018046 0.220451 0.97532 
0.0129623 0.290094 0.957026 
0.00648697 0.394662 0.918929 
0.00187198 0.507318 0.861866 
-0.000413109 0.643471 0.765595 
-0.000761352 0.654481 0.756173 
0.00264517 0.885244 0.465186 
0.00756843 0.956644 0.291221 
0.00777186 0.994572 0.103628 
0.0070149 0.998017 0.0623919 
0.004711 0.999889 -0.0112432 
0.00211092 0.99705 -0.0777969 
0.00307613 0.997165 -0.0751384 
-0.0018152 0.956003 -0.293327 
0.000241882 0.820807 -0.571315 
-0.000430993 0.625904 -0.779989 
-0.000778614 0.572554 -0.819969 
-0.0026171 0.490097 -0.871779 
-0.00550839 0.39665 -0.918068 
-0.0120262 0.302246 -0.953274 
-0.0174005 0.224382 -0.974454 
-0.0189825 0.179269 -0.983715 
-0.0255924 0.122231 -0.992264 
-0.0273721 0.090204 -0.995632 
-0.0294712 0.0695342 -0.997217 
-0.0312279 0.0540524 -0.998122 
-0.0330544 0.0409456 -0.998685 
-0.0335152 0.0315624 -0.999009 
-0.0349102 0.0236958 -0.999179 
-0.0360345 0.0169735 -0.999276 
-0.0363181 0.0112743 -0.999359 
-0.0383837 0.00608044 -0.999303 
-0.0369427 0.00136504 -0.999399 
-0.0374705 -0.00293911 -0.999364 
-0.0371097 -0.00676392 -0.999359 
-0.0370974 -0.0104265 -0.999328 
-0.0362634 -0.0137338 -0.999318 
-0.0364009 -0.01727 -0.999259 
-0.0351876 -0.0214398 -0.999222 
-0.0334707 -0.0264024 -0.999164 
-0.0338524 -0.0330485 -0.998942 
-0.0312397 -0.0413239 -0.998733 
-0.0335454 -0.0502632 -0.99825 
-0.0296105 -0.0615425 -0.997743 
-0.0315091 -0.074121 -0.99683 
-0.0274578 -0.0859371 -0.996 
-0.0268838 -0.0933771 -0.995343 
-0.022263 -0.090679 -0.9957 
-0.0188916 -0.0748361 -0.997083 
-0.0101124 -0.0631351 -0.997941 
0.00693085 -0.0633078 0.997956 
0.0125918 -0.0763974 0.997065 
0.0198005 -0.0918824 0.995642 
0.0191345 -0.0945975 0.995406 
0.0235255 -0.0870173 0.996005 
0.0203956 -0.0765521 0.996933 
0.0240359 -0.0640529 0.997733 
0.0221568 -0.0515779 0.998498 
0.0241981 -0.0399684 0.998983 