# vtk DataFile Version 3.0 
Exported using Morpho https://github.com/Morpho-lang/morpho 
ASCII 
DATASET UNSTRUCTURED_GRID 

POINTS 1978 float 
-8.48528 -2.82843 -1.14851e-11 
-8.26678 -2.82843 1.35083e-10 
-8.043 -2.82843 1.58764e-10 
-7.77378 -2.82843 5.81081e-11 
-7.48635 -2.82843 7.64545e-11 
-7.24742 -2.82843 9.05716e-11 
-6.99633 -2.82843 6.84033e-11 
-6.77973 -2.82843 3.75453e-11 
-6.56679 -2.82843 4.03274e-11 
-6.34263 -2.82843 3.49764e-11 
-6.14284 -2.82843 2.98557e-11 
-5.9201 -2.82843 2.16137e-11 
-5.70877 -2.82843 1.39615e-11 
-5.50743 -2.82843 7.55475e-12 
-5.29368 -2.82843 7.16529e-12 
-5.08448 -2.82843 -2.85653e-12 
-4.87006 -2.82843 -5.26711e-12 
-4.66359 -2.82843 -1.32677e-11 
-4.44288 -2.82843 -1.91297e-11 
-4.22451 -2.82843 -2.57534e-11 
-4.00438 -2.82843 -3.47567e-11 
-3.79423 -2.82843 -4.12776e-11 
-3.58103 -2.82843 -5.70365e-11 
-3.37187 -2.82843 -7.11395e-11 
-3.1549 -2.82843 -8.65436e-11 
-2.94593 -2.82843 -1.03097e-10 
-2.73889 -2.82843 -1.13861e-10 
-2.54165 -2.82843 -1.12997e-10 
-2.3276 -2.82843 -9.83e-11 
-2.1219 -2.82843 -7.64532e-11 
-1.89821 -2.82843 -5.4283e-11 
-1.6993 -2.82843 -8.50148e-11 
-1.50708 -2.82843 -1.33059e-10 
-1.29451 -2.82843 -2.14571e-11 
-1.12554 -2.82843 -9.88843e-10 
-0.875468 -2.82843 -1.50289e-09 
-0.661261 -2.82843 -1.5376e-09 
-0.471881 -2.82843 -2.50938e-09 
-0.271384 -2.82843 -2.54881e-09 
-0.0043615 -2.82843 2.21468e-10 
0.273785 -2.82843 3.16556e-09 
0.464988 -2.82843 1.03433e-09 
0.693339 -2.82843 2.02547e-09 
0.899337 -2.82843 1.39344e-09 
1.09746 -2.82843 8.80689e-10 
1.27806 -2.82843 -7.69323e-11 
1.49419 -2.82843 3.2584e-10 
1.69144 -2.82843 4.82139e-11 
1.90498 -2.82843 6.145e-12 
2.11553 -2.82843 5.41076e-11 
2.34143 -2.82843 1.02258e-10 
2.53476 -2.82843 1.10161e-10 
2.75349 -2.82843 1.01314e-10 
2.97284 -2.82843 9.86188e-11 
3.18151 -2.82843 9.28893e-11 
3.38382 -2.82843 6.48035e-11 
3.60727 -2.82843 5.45511e-11 
3.80846 -2.82843 4.20464e-11 
4.02281 -2.82843 3.07567e-11 
4.24982 -2.82843 2.59456e-11 
4.4501 -2.82843 1.68875e-11 
4.66463 -2.82843 1.58404e-11 
4.8719 -2.82843 3.06884e-12 
5.07778 -2.82843 1.99751e-12 
5.29129 -2.82843 -1.47793e-12 
5.50261 -2.82843 -1.16607e-11 
5.70529 -2.82843 -8.61825e-12 
5.92257 -2.82843 -1.98505e-11 
6.14327 -2.82843 -2.82361e-11 
6.34286 -2.82843 -3.31567e-11 
6.58229 -2.82843 -3.60974e-11 
6.79486 -2.82843 -5.7217e-11 
6.99605 -2.82843 -5.9484e-11 
7.25981 -2.82843 -6.45131e-11 
7.49282 -2.82843 -1.02683e-10 
7.73645 -2.82843 -5.50118e-11 
8.00933 -2.82843 -1.86016e-10 
8.19349 -2.82843 -8.62412e-11 
8.48528 -2.82843 3.33906e-12 
-8.48528 -2.59731 -7.23974e-11 
-8.25661 -2.58872 -5.84339e-13 
-8.02379 -2.59052 -1.66887e-12 
-7.7835 -2.62187 -4.06547e-13 
-7.52555 -2.64169 -1.16183e-12 
-7.23518 -2.6094 -5.52567e-13 
-6.9935 -2.59539 -9.42601e-13 
-6.77804 -2.58619 -6.09971e-15 
-6.54132 -2.60553 -1.02361e-12 
-6.3327 -2.57503 -1.50324e-13 
-6.10583 -2.60513 -3.74852e-13 
-5.88912 -2.5911 -2.83291e-13 
-5.68061 -2.57883 -1.92411e-13 
-5.46382 -2.59546 -1.15939e-13 
-5.24899 -2.5898 -6.07256e-14 
-5.03132 -2.59527 8.33728e-16 
-4.82031 -2.58514 7.48447e-14 
-4.60051 -2.59991 1.53936e-13 
-4.37954 -2.59658 2.38703e-13 
-4.15899 -2.59781 3.53451e-13 
-3.94686 -2.58629 4.98581e-13 
-3.73428 -2.59138 6.92283e-13 
-3.52308 -2.59037 9.38724e-13 
-3.30789 -2.6016 1.07516e-12 
-3.09517 -2.59719 1.31176e-12 
-2.88475 -2.59807 1.36579e-12 
-2.68228 -2.5908 1.69522e-12 
-2.47141 -2.61013 1.65576e-12 
-2.25859 -2.59985 1.14933e-12 
-2.04358 -2.62075 1.1393e-12 
-1.82642 -2.59452 1.24011e-12 
-1.62532 -2.57788 6.82865e-13 
-1.42368 -2.59965 -2.48194e-13 
-1.24828 -2.50824 8.0763e-12 
-1.03697 -2.62513 1.04698e-11 
-0.815723 -2.57765 2.15306e-11 
-0.612595 -2.52519 2.20484e-11 
-0.407115 -2.48342 2.34549e-11 
-0.184288 -2.55618 -1.70015e-11 
0.0107685 -2.44854 2.24192e-11 
0.203836 -2.57585 -8.26122e-10 
0.443439 -2.4775 6.63687e-10 
0.630584 -2.55976 1.13271e-10 
0.856974 -2.57168 -2.63557e-11 
1.06566 -2.57345 -5.31808e-12 
1.26797 -2.56053 -2.53025e-12 
1.46899 -2.61984 -1.8826e-12 
1.69523 -2.60196 -2.60936e-12 
1.91192 -2.60623 -1.39096e-12 
2.14837 -2.62717 -2.08861e-12 
2.35886 -2.59168 -2.6001e-12 
2.57305 -2.60843 -1.74665e-12 
2.80051 -2.61202 -2.12241e-12 
3.00896 -2.59337 -1.50334e-12 
3.21597 -2.58527 -1.4576e-12 
3.43811 -2.60758 -1.10985e-12 
3.64458 -2.58103 -8.82229e-13 
3.85827 -2.59436 -6.05652e-13 
4.08538 -2.60687 -4.21024e-13 
4.2938 -2.57708 -3.43445e-13 
4.50986 -2.59525 -1.91383e-13 
4.72303 -2.58748 -1.17731e-13 
4.93647 -2.58842 -4.53905e-14 
5.15162 -2.59689 2.9541e-14 
5.37052 -2.5953 9.21748e-14 
5.58198 -2.58469 1.74388e-13 
5.79808 -2.5993 2.42611e-13 
6.02293 -2.60042 3.09565e-13 
6.23684 -2.57323 4.74791e-13 
6.45724 -2.61265 4.58247e-13 
6.68543 -2.58258 6.7137e-13 
6.89532 -2.56536 8.63712e-13 
7.12358 -2.62674 8.67228e-13 
7.37553 -2.59765 1.01503e-12 
7.61433 -2.60675 1.06118e-12 
7.87169 -2.63095 1.29243e-12 
8.0805 -2.53457 1.24555e-12 
8.30274 -2.64005 1.36152e-12 
8.48528 -2.52995 4.49233e-11 
-8.48528 -2.35962 -1.23948e-11 
-8.25064 -2.35589 2.64579e-12 
-8.01286 -2.35051 -1.69349e-12 
-7.7726 -2.40163 -1.06825e-12 
-7.57093 -2.25299 -8.46806e-13 
-7.4735 -2.45638 -1.02492e-12 
-7.18834 -2.3983 -8.34965e-13 
-6.95897 -2.34748 -1.12459e-12 
-6.70892 -2.37784 -5.32798e-13 
-6.49101 -2.35521 -6.2328e-13 
-6.24221 -2.36362 -4.62914e-13 
-6.02714 -2.36503 -2.4014e-13 
-5.81009 -2.34521 -1.80059e-13 
-5.582 -2.35387 -1.59422e-13 
-5.36682 -2.35892 -1.23497e-13 
-5.14272 -2.3619 -6.84283e-14 
-4.92839 -2.35094 -9.91557e-16 
-4.70399 -2.36374 6.78311e-14 
-4.48461 -2.36877 1.42468e-13 
-4.26132 -2.36711 2.26187e-13 
-4.04779 -2.35194 3.04635e-13 
-3.83163 -2.35164 4.11554e-13 
-3.61995 -2.35416 5.48177e-13 
-3.40386 -2.36661 6.96854e-13 
-3.19247 -2.36952 9.30396e-13 
-2.97806 -2.36917 1.12798e-12 
-2.77046 -2.35771 1.32934e-12 
-2.55834 -2.37675 1.46374e-12 
-2.35001 -2.38327 1.83898e-12 
-2.12541 -2.38743 8.84353e-13 
-1.91839 -2.39415 1.26556e-12 
-1.69043 -2.34648 -1.26158e-12 
-1.472 -2.34358 -1.66731e-12 
-1.27018 -2.25021 1.68475e-12 
-1.04447 -2.37964 -1.58432e-12 
-0.839804 -2.30679 3.59979e-12 
-0.617475 -2.23689 -1.16054e-11 
-0.406265 -2.14276 2.38553e-11 
-0.209226 -2.22339 1.06819e-11 
0.0256977 -2.12676 -8.09739e-11 
0.239397 -2.25411 -1.10773e-10 
0.445151 -2.16027 5.90193e-11 
0.659904 -2.21505 -5.56088e-11 
0.829352 -2.32522 2.09532e-12 
1.057 -2.31452 4.21715e-12 
1.2809 -2.3181 -1.50029e-12 
1.49105 -2.39666 3.53726e-12 
1.68541 -2.35801 1.43737e-12 
1.88462 -2.37851 -1.84048e-12 
2.09404 -2.41749 -9.09905e-14 
2.30491 -2.37794 -1.85273e-13 
2.53115 -2.37549 -4.84088e-13 
2.74154 -2.39789 -3.66719e-13 
2.95597 -2.35792 -7.58993e-13 
3.15901 -2.34843 -4.80269e-13 
3.37549 -2.37694 -6.11089e-13 
3.58142 -2.34518 -4.38458e-13 
3.79385 -2.35389 -3.17578e-13 
4.00929 -2.37909 -2.9182e-13 
4.21846 -2.34307 -1.66055e-13 
4.43874 -2.35493 -1.34207e-13 
4.64854 -2.35103 -7.82134e-14 
4.86299 -2.35298 -1.52073e-14 
5.07933 -2.35877 1.44991e-14 
5.29285 -2.36742 8.90128e-14 
5.5088 -2.35082 1.27184e-13 
5.7278 -2.36097 1.80465e-13 
5.9448 -2.37397 2.50921e-13 
6.16143 -2.34375 3.13791e-13 
6.39455 -2.36482 3.90152e-13 
6.60504 -2.36352 5.21812e-13 
6.83076 -2.31793 5.12273e-13 
7.06263 -2.37541 7.4399e-13 
7.28266 -2.39618 8.33947e-13 
7.54408 -2.37575 8.70097e-13 
7.7883 -2.41126 1.0593e-12 
8.00074 -2.31267 5.38249e-13 
8.26112 -2.37108 1.00434e-12 
8.48528 -2.2877 4.81835e-12 
-8.48528 -2.11417 6.17843e-11 
-8.25766 -2.10878 -1.00201e-12 
-8.04962 -2.1072 3.54173e-13 
-7.80559 -2.15576 -2.40185e-13 
-7.51935 -2.03903 1.43508e-13 
-7.31402 -2.23035 -2.45035e-13 
-7.07112 -2.13331 -3.08835e-13 
-6.80728 -2.15019 -1.08522e-13 
-6.59107 -2.12472 -1.43647e-13 
-6.35169 -2.15068 -1.60772e-13 
-6.12346 -2.1199 -1.07213e-13 
-5.91629 -2.11612 -1.30181e-13 
-5.68813 -2.12607 -6.0545e-14 
-5.46684 -2.11813 -3.09367e-14 
-5.25006 -2.13295 -1.14357e-14 
-5.03572 -2.1186 3.81152e-14 
-4.81221 -2.13009 5.82889e-14 
-4.59429 -2.1344 1.14881e-13 
-4.37652 -2.13919 1.41415e-13 
-4.1656 -2.12107 1.91942e-13 
-3.95058 -2.11679 2.25317e-13 
-3.73872 -2.11564 2.94537e-13 
-3.52484 -2.1285 2.94872e-13 
-3.31552 -2.1341 3.18545e-13 
-3.10438 -2.14089 3.20981e-13 
-2.89682 -2.13137 2.39556e-13 
-2.68072 -2.13578 3.64725e-13 
-2.47432 -2.14737 -5.24392e-13 
-2.25863 -2.16776 2.86752e-13 
-2.04324 -2.15136 1.88321e-15 
-1.83508 -2.16754 -2.14528e-12 
-1.59286 -2.11482 -1.54874e-12 
-1.40211 -2.0453 -4.06625e-12 
-1.1709 -1.92588 3.28841e-12 
-1.07363 -2.11738 -9.66055e-12 
-0.838821 -2.04589 9.21672e-12 
-0.609192 -1.93989 -4.82733e-11 
-0.343601 -1.84239 7.19684e-11 
-0.111631 -1.88868 8.82975e-12 
0.071164 -1.67559 -1.40002e-10 
0.23283 -1.91871 -6.7333e-12 
0.338107 -1.64455 4.78207e-11 
0.509909 -1.88498 7.68422e-11 
0.752928 -1.96136 -1.44317e-11 
0.963411 -2.06966 -1.08787e-11 
1.20141 -2.07737 -1.53357e-12 
1.45916 -2.1449 4.45412e-12 
1.68153 -2.12898 1.79665e-12 
1.89768 -2.13658 2.70286e-12 
2.10298 -2.18784 -4.42749e-13 
2.344 -2.1713 -6.63411e-13 
2.56887 -2.14889 -9.91216e-13 
2.77528 -2.16358 -1.39486e-12 
2.98204 -2.11161 -3.3453e-13 
3.20573 -2.1292 -5.89623e-13 
3.40806 -2.13163 -4.07103e-13 
3.62446 -2.11182 -2.51375e-13 
3.84198 -2.12753 -3.08192e-13 
4.04461 -2.13197 -1.62222e-13 
4.27218 -2.11708 -1.46847e-13 
4.48178 -2.11366 -1.0037e-13 
4.69786 -2.11625 -4.35619e-14 
4.91438 -2.1221 -3.76782e-14 
5.12981 -2.12454 1.02713e-14 
5.34189 -2.13183 3.53752e-14 
5.56574 -2.12313 2.854e-14 
5.78372 -2.13042 5.25165e-14 
5.99485 -2.13174 7.63497e-14 
6.23543 -2.129 7.0558e-14 
6.44687 -2.11489 9.8021e-14 
6.66045 -2.11836 1.95077e-13 
6.91961 -2.10957 6.48425e-14 
7.13709 -2.13797 1.10608e-13 
7.37015 -2.18273 1.78068e-13 
7.56246 -2.08514 -4.6503e-14 
7.74357 -2.17996 2.55543e-13 
7.95843 -2.08028 -2.9836e-13 
8.20621 -2.1484 4.42939e-14 
8.48528 -2.09113 -2.95797e-12 
-8.48528 -1.80659 2.66647e-11 
-8.30959 -1.8681 1.4219e-13 
-7.89361 -1.91184 -6.07231e-14 
[...]
POINT_DATA 1978 
VECTORS vectors float
0.000539431 -0.00156408 0.999999 
0.00114811 -0.0542939 0.998524 
0.000370092 -0.0578851 0.998323 
0.000652806 -0.0510409 0.998696 
0.000641561 -0.041632 0.999133 
0.000565236 -0.0328662 0.99946 
0.00051429 -0.0253204 0.999679 
0.000719984 -0.0199186 0.999801 
0.000524902 -0.0157379 0.999876 
0.000602642 -0.0123215 0.999924 
0.00065019 -0.00957289 0.999954 
0.000587682 -0.00710765 0.999975 
0.000635969 -0.00520944 0.999986 
0.000643147 -0.00373888 0.999993 
0.000610446 -0.0020845 0.999998 
0.00063892 -0.000578566 1 
0.000619693 0.000866113 0.999999 
0.000641251 0.00237165 0.999997 
0.000603869 0.00430829 0.999991 
0.000617747 0.00671702 0.999977 
0.000598389 0.00973982 0.999952 
0.00060956 0.0135607 0.999908 
0.000575 0.018806 0.999823 
0.000563674 0.0258396 0.999666 
0.000527079 0.0358429 0.999357 
0.000499384 0.0487115 0.998813 
0.000471956 0.0655663 0.997848 
0.00039333 0.0865675 0.996246 
0.000331627 0.116343 0.993209 
0.000213665 0.154039 0.988065 
0.000147712 0.206715 0.978401 
-4.08423e-05 0.266761 0.963763 
-0.000164108 0.339878 0.940469 
-0.000211682 0.434029 0.900899 
-0.000535813 0.522286 0.85277 
-0.000423163 0.6644 0.747377 
-0.000478497 0.784872 0.619658 
-0.000463567 0.877234 0.480063 
-0.000344486 0.957822 0.287361 
0.000112174 0.999997 0.00239704 
0.000144964 0.955695 -0.294358 
0.000481026 0.883591 -0.46826 
0.000475617 0.767721 -0.640785 
0.000532136 0.64437 -0.764714 
0.000625572 0.527564 -0.849515 
-4.20175e-05 0.441484 -0.897269 
0.000209017 0.350749 -0.936469 
0.000213197 0.267992 -0.963421 
-0.000276753 0.203066 -0.979165 
-0.000205331 0.155759 -0.987795 
-0.000305076 0.115092 -0.993355 
-0.000441535 0.0879217 -0.996127 
-0.000424667 0.0644611 -0.99792 
-0.000502229 0.0468 -0.998904 
-0.000539005 0.0341882 -0.999415 
-0.00058175 0.0251303 -0.999684 
-0.000562097 0.0178897 -0.99984 
-0.000614448 0.0132587 -0.999912 
-0.000608538 0.00953903 -0.999954 
-0.000593364 0.00626245 -0.99998 
-0.000646078 0.00425334 -0.999991 
-0.000613967 0.00240635 -0.999997 
-0.000636226 0.000784773 -1 
-0.000629758 -0.000508311 -1 
-0.000624955 -0.00206584 -0.999998 
-0.000637025 -0.00358743 -0.999993 
-0.000626475 -0.00493468 -0.999988 
-0.000615212 -0.00702818 -0.999975 
-0.000619827 -0.00954176 -0.999954 
-0.000596121 -0.0120338 -0.999927 
-0.000587601 -0.0162413 -0.999868 
-0.00061146 -0.0204326 -0.999791 
-0.000571793 -0.0252084 -0.999682 
-0.000578614 -0.0337513 -0.99943 
-0.000526722 -0.0419227 -0.999121 
-0.000688507 -0.050544 -0.998722 
-0.000307828 -0.0582074 -0.998304 
-0.00114125 -0.0563569 -0.99841 
-0.000966251 -0.000654256 -0.999999 
0.00119087 0.000760572 0.999999 
0.021143 -0.0403392 0.998962 
0.0255665 -0.0525784 0.998289 
0.0235759 -0.0505145 0.998445 
0.0235122 -0.0428322 0.998806 
0.0256279 -0.0329061 0.99913 
0.0286023 -0.0263561 0.999243 
0.0299559 -0.0207816 0.999335 
0.0305448 -0.0160558 0.999404 
0.0329507 -0.0127526 0.999376 
0.031261 -0.00967058 0.999464 
0.0331945 -0.00722027 0.999423 
0.0348188 -0.00529709 0.99938 
0.0336132 -0.00349298 0.999429 
0.0341679 -0.00176738 0.999415 
0.033696 -0.000156881 0.999432 
0.0345478 0.00139321 0.999402 
0.0327796 0.00317948 0.999458 
0.0327668 0.00540023 0.999448 
0.0322711 0.00818437 0.999446 
0.0327345 0.0117327 0.999395 
0.0314759 0.0163961 0.99937 
0.0305135 0.0226837 0.999277 
0.0279033 0.0311613 0.999125 
0.0264347 0.0426558 0.99874 
0.0239413 0.0575773 0.998054 
0.021449 0.0765492 0.996835 
0.0165971 0.101186 0.994729 
0.0124421 0.134879 0.990784 
0.00691299 0.177989 0.984008 
0.00158995 0.235106 0.971968 
-0.0042982 0.302568 0.953118 
-0.00914555 0.381999 0.924118 
-0.0149484 0.469295 0.882915 
-0.0148981 0.583283 0.812132 
-0.0174448 0.707102 0.706897 
-0.018631 0.807145 0.590059 
-0.0135388 0.906374 0.422259 
-0.00605477 0.97983 0.199739 
-6.68792e-05 0.999922 -0.0125053 
0.00509935 0.976221 -0.21672 
0.0139685 0.897435 -0.440925 
0.0150669 0.802933 -0.595879 
0.0172587 0.676697 -0.73606 
0.0157768 0.557314 -0.830152 
0.0137023 0.449806 -0.893021 
0.0075275 0.362912 -0.931793 
0.00173178 0.271034 -0.962568 
-0.00427606 0.207173 -0.978295 
-0.00942337 0.153525 -0.9881 
-0.0152149 0.118296 -0.992862 
-0.0179939 0.087866 -0.99597 
-0.0219194 0.0642368 -0.997694 
-0.025451 0.0478966 -0.998528 
-0.0283342 0.0356986 -0.998961 
-0.0285203 0.0253717 -0.999271 
-0.0319943 0.0187578 -0.999312 
-0.0315823 0.0134724 -0.99941 
-0.0311865 0.0092396 -0.999471 
-0.034561 0.0064043 -0.999382 
-0.0332368 0.00405221 -0.999439 
-0.0342198 0.00212774 -0.999412 
-0.0345481 0.000473681 -0.999403 
-0.0335125 -0.0010603 -0.999438 
-0.0339199 -0.00270355 -0.999421 
-0.0347794 -0.00436227 -0.999385 
-0.0327046 -0.00623828 -0.999446 
-0.0320627 -0.00864133 -0.999449 
-0.0339213 -0.0113541 -0.99936 
-0.0290457 -0.0145359 -0.999472 
-0.0312955 -0.0189245 -0.999331 
-0.0316917 -0.0237475 -0.999216 
-0.0249851 -0.0297792 -0.999244 
-0.0267211 -0.0378645 -0.998926 
-0.0252361 -0.0452393 -0.998657 
-0.0233163 -0.0528749 -0.998329 
-0.0286223 -0.05156 -0.99826 
-0.0164873 -0.0358738 -0.99922 
-0.00190998 -5.47856e-05 -0.999998 
0.00176876 -0.000885266 0.999998 
0.0266716 -0.0382093 0.998914 
0.0345732 -0.0518441 0.998057 
0.0338134 -0.0480914 0.99827 
0.0367927 -0.0436845 0.998368 
0.0336828 -0.040733 0.998602 
0.0375866 -0.0326784 0.998759 
0.0401326 -0.0262662 0.998849 
0.0406475 -0.020175 0.99897 
0.0423344 -0.0159648 0.998976 
0.0435394 -0.0121397 0.998978 
0.0440802 -0.00935756 0.998984 
0.0452359 -0.00700824 0.998952 
0.0457746 -0.00474065 0.998941 
0.0459132 -0.00277494 0.998942 
0.0459802 -0.000950525 0.998942 
0.0461136 0.000709267 0.998936 
0.0457286 0.00256902 0.998951 
0.0452402 0.00472659 0.998965 
0.0446201 0.00749469 0.998976 
0.0439496 0.011025 0.998973 
0.0427092 0.0157095 0.998964 
0.041199 0.02183 0.998912 
0.0390438 0.0300517 0.998785 
0.0364849 0.0407708 0.998502 
0.0331463 0.0550968 0.997931 
0.0292894 0.0733454 0.996876 
0.0244671 0.0966056 0.995022 
0.0189184 0.126106 0.991836 
0.0120112 0.16822 0.985676 
0.00511919 0.218128 0.975907 
-0.00304731 0.290834 0.956769 
-0.0101043 0.374948 0.926991 
-0.0149066 0.465694 0.88482 
-0.0196431 0.569055 0.822065 
-0.0203214 0.677234 0.735487 
-0.017685 0.802041 0.597007 
-0.0126588 0.903945 0.427462 
-0.00751227 0.974718 0.223312 
0.00018717 0.999591 -0.0285799 
0.00741403 0.966261 -0.257458 
0.0120951 0.889486 -0.456803 
0.0166846 0.794629 -0.606866 
0.0190093 0.687908 -0.725549 
0.0182099 0.560438 -0.827996 
0.0145682 0.45606 -0.88983 
0.00935899 0.360984 -0.932525 
0.00318117 0.291386 -0.9566 
-0.00361718 0.229393 -0.973327 
-0.010574 0.175879 -0.984355 
-0.0173102 0.136421 -0.9905 
-0.0234329 0.101386 -0.994571 
-0.0281692 0.0760187 -0.996708 
-0.0327332 0.0569188 -0.997842 
-0.0361125 0.0430593 -0.99842 
-0.0385397 0.0310251 -0.998775 
-0.0411646 0.0231657 -0.998884 
-0.0426676 0.0166581 -0.99895 
-0.043367 0.0116437 -0.998991 
-0.0449023 0.00824912 -0.998957 
-0.0452917 0.00529167 -0.99896 
-0.04572 0.00308186 -0.99895 
-0.0460857 0.00120058 -0.998937 
-0.0461628 -0.000507313 -0.998934 
-0.0460024 -0.00216701 -0.998939 
-0.0461555 -0.00400981 -0.998926 
-0.0455428 -0.00607665 -0.998944 
-0.0445634 -0.00836956 -0.998971 
-0.0442984 -0.0111238 -0.998956 
-0.04276 -0.0144237 -0.998981 
-0.0417384 -0.0181203 -0.998964 
-0.0409378 -0.0233202 -0.99889 
-0.0391382 -0.0293 -0.998804 
-0.0374722 -0.0357697 -0.998657 
-0.0361164 -0.0429051 -0.998426 
-0.0345931 -0.0490348 -0.998198 
-0.0348285 -0.0515784 -0.998061 
-0.0261506 -0.0362764 -0.999 
-0.00148884 -0.000633458 -0.999999 
0.00178961 -0.000498724 0.999998 
0.0233996 -0.035887 0.999082 
0.0305427 -0.0502854 0.998268 
0.033515 -0.0484426 0.998264 
0.0336598 -0.0433377 0.998493 
0.0378987 -0.0374639 0.998579 
0.0378646 -0.0307818 0.998809 
0.0397873 -0.0233508 0.998935 
0.0408926 -0.0187515 0.998988 
0.0423255 -0.0144825 0.998999 
0.0429386 -0.0113632 0.999013 
0.0438584 -0.00878106 0.998999 
0.0447038 -0.00618947 0.998981 
0.044977 -0.00392523 0.99898 
0.0454287 -0.00192592 0.998966 
0.0453124 -0.000151399 0.998973 
0.0453149 0.00175499 0.998971 
0.0450476 0.0038777 0.998977 
0.0445251 0.00651324 0.998987 
0.0435348 0.0098707 0.999003 
0.0423301 0.0142968 0.999001 
0.0408277 0.0200533 0.998965 
0.0390875 0.0276621 0.998853 
0.0367573 0.0374794 0.998621 
0.0338792 0.050258 0.998161 
0.0301798 0.0666933 0.997317 
0.0257086 0.0883881 0.995754 
0.0207665 0.114889 0.993161 
0.0150662 0.149457 0.988653 
0.00831917 0.196051 0.980558 
0.00147743 0.253743 0.967271 
-0.00578835 0.337269 0.941391 
-0.0102237 0.418341 0.908232 
-0.0128899 0.525102 0.850941 
-0.0162832 0.564886 0.825008 
-0.0162845 0.691245 0.722437 
-0.0131431 0.814615 0.579853 
-0.00798688 0.92662 0.375914 
-0.00351039 0.988039 0.154166 
0.00125073 0.998527 -0.0542454 
0.00548996 0.96696 -0.25487 
0.00602329 0.943222 -0.332108 
0.0106545 0.857255 -0.514781 
0.0138621 0.731239 -0.681981 
0.0156128 0.622273 -0.782645 
0.013409 0.506092 -0.862375 
0.00898527 0.377625 -0.925915 
0.00323232 0.304116 -0.95263 
-0.00326971 0.236779 -0.971558 
-0.0101465 0.181292 -0.983377 
-0.0172997 0.134007 -0.990829 
-0.0230794 0.101429 -0.994575 
-0.0281338 0.0768112 -0.996649 
-0.0314468 0.0595617 -0.997729 
-0.0352872 0.043454 -0.998432 
-0.037899 0.0325849 -0.99875 
-0.0399301 0.0238224 -0.998918 
-0.0419021 0.0169074 -0.998979 
-0.0431562 0.0121713 -0.998994 
-0.0440367 0.00814203 -0.998997 
-0.0446019 0.00524802 -0.998991 
-0.0450911 0.00287017 -0.998979 
-0.0454404 0.000869196 -0.998967 
-0.0454986 -0.000932467 -0.998964 
-0.0455144 -0.00274676 -0.99896 
-0.0450663 -0.00489217 -0.998972 
-0.0445803 -0.00720485 -0.99898 
-0.0438609 -0.00970206 -0.998991 
-0.0427802 -0.0129604 -0.999 
-0.0414568 -0.0163394 -0.999007 
-0.0404004 -0.0203766 -0.998976 
-0.0386865 -0.0266945 -0.998895 
-0.0376888 -0.0328307 -0.99875 
-0.036935 -0.039434 -0.998539 
-0.0340075 -0.0443698 -0.998436 
-0.034352 -0.0476722 -0.998272 
-0.0312502 -0.0511058 -0.998204 
-0.0274322 -0.0419534 -0.998743 
-0.00111806 -0.000159008 -0.999999 
0.00138198 -0.000590893 0.999999 
0.0170241 -0.0316028 0.999356 
0.0288837 -0.0513747 0.998262 
0.0302762 -0.0470124 0.998435 
0.0302213 -0.0428562 0.998624 
0.0345109 -0.0380889 0.998678 
0.0332028 -0.0348359 0.998841 
0.0362821 -0.0281311 0.998946 
0.0368395 -0.0226798 0.999064 
0.0388025 -0.0177947 0.999088 
0.0397626 -0.0141817 0.999109 
0.0399758 -0.0112028 0.999138 
0.0413577 -0.008276 0.99911 
0.0418932 -0.00568375 0.999106 
0.0422555 -0.00330962 0.999101 
0.0424905 -0.00136056 0.999096 
0.0426364 0.000658123 0.99909 
0.0424886 0.00277251 0.999093 
0.0421769 0.00527672 0.999096 
0.0413207 0.00833039 0.999111 
0.0402265 0.0123581 0.999114 
0.0388645 0.017561 0.99909 
0.0373608 0.0243815 0.999004 
0.0354459 0.0330577 0.998825 
0.0331046 0.0443218 0.998469 
0.030157 0.0584903 0.997832 
0.0264932 0.077188 0.996664 
0.0220842 0.100975 0.994644 
0.0172438 0.130847 0.991253 
0.0117342 0.16907 0.985534 
0.00520891 0.223854 0.974609 
-0.000945374 0.288917 0.957354 
-0.00548289 0.362927 0.931801 
-0.00922543 0.454271 0.890816 
-0.0134808 0.648844 0.760802 
-0.0116684 0.76174 0.647778 
-0.00840019 0.876313 0.481669 
-0.00488899 0.931891 0.362705 
-0.00277021 0.984226 0.176892 
-0.00025328 0.999491 0.0319027 
0.0023477 0.983153 -0.182768 
0.00511224 0.907267 -0.420524 
0.00918158 0.824585 -0.565663 
0.0116467 0.692504 -0.72132 
0.0123184 0.570684 -0.821077 
0.0099233 0.499304 -0.86637 
0.00968824 0.429484 -0.903023 
0.00491981 0.343556 -0.939119 
-0.000393142 0.271793 -0.962356 
-0.00647191 0.209486 -0.97779 
-0.0127069 0.160503 -0.986954 
-0.018555 0.121405 -0.99243 
-0.0239238 0.0904032 -0.995618 
-0.0272766 0.0713975 -0.997075 
-0.0313365 0.0521063 -0.99815 
-0.0340323 0.0390421 -0.998658 
-0.0363107 0.0290535 -0.998918 
-0.0384009 0.0206227 -0.99905 
-0.0396874 0.014857 -0.999102 
-0.0410848 0.0103266 -0.999102 
-0.0414703 0.00671093 -0.999117 
-0.0421302 0.00391396 -0.999104 
-0.0425268 0.00158822 -0.999094 
-0.0426167 -0.000389877 -0.999091 
-0.0425707 -0.00236893 -0.999091 
-0.0424279 -0.00444728 -0.99909 
-0.0417678 -0.00698568 -0.999103 
-0.040968 -0.00966423 -0.999114 
-0.0404647 -0.0125656 -0.999102 
-0.03863 -0.0162463 -0.999122 
-0.0374738 -0.0202568 -0.999092 
-0.0367367 -0.0251515 -0.999008 
-0.0345777 -0.0324214 -0.998876 
-0.0339253 -0.0388933 -0.998667 
-0.0310299 -0.0450256 -0.998504 
-0.0296981 -0.0492003 -0.998347 
-0.0261581 -0.0505397 -0.998379 
-0.0215193 -0.0367508 -0.999093 
-0.00143033 -0.000409173 -0.999999 
0.000850284 -0.000342292 1 
0.0148159 -0.0357832 0.99925 
0.0245258 -0.0481705 0.998538 
0.0244665 -0.0522124 0.998336 
0.0263653 -0.0480735 0.998496 
0.028208 -0.0403837 0.998786 
0.0307507 -0.0317225 0.999024 
0.0324574 -0.0264698 0.999123 
0.0337487 -0.0204524 0.999221 
0.0348566 -0.0165955 0.999255 
0.0349731 -0.013365 0.999299 
0.035799 -0.00996066 0.999309 
0.036812 -0.00716652 0.999297 
0.0374203 -0.00456331 0.999289 
0.0371599 -0.00230796 0.999307 
0.0379868 -0.000234167 0.999278 
0.0378658 0.00197121 0.999281 
0.0376348 0.00452684 0.999281 
0.036711 0.00753413 0.999298 
0.0358664 0.0113616 0.999292 
0.0346008 0.0163574 0.999267 
0.0332874 0.0228922 0.999184 
0.0315567 0.0312712 0.999013 
0.0296668 0.0420201 0.998676 
0.0271045 0.0557294 0.998078 
0.0241852 0.0733536 0.997013 
0.0203497 0.0964272 0.995132 
0.0159783 0.126942 0.991781 
0.0113497 0.164582 0.986298 
0.00611301 0.213992 0.976816 
0.000101815 0.285789 0.958292 
-0.00471088 0.379467 0.925193 
-0.00795203 0.486494 0.873648 
-0.00819239 0.591431 0.806314 
-0.0111372 0.569544 0.821886 
-0.0100913 0.676654 0.736232 
-0.00818513 0.798251 0.602269 
-0.0046135 0.874916 0.484253 
-0.00146639 0.975539 0.21982 
0.000702168 0.999744 -0.0226107 
0.00179791 0.96906 -0.246818 
-0.000694325 0.976098 -0.217328 
0.00409509 0.871527 -0.490331 
0.00755643 0.77143 -0.636269 
0.00960789 0.628681 -0.777604 
0.00793691 0.518297 -0.855164 
0.00680111 0.403061 -0.915148 
0.00227547 0.3202 -0.947347 
-0.00282091 0.247553 -0.96887 
-0.00813091 0.192178 -0.981326 
-0.0131664 0.150627 -0.988503 
-0.0184688 0.112704 -0.993457 
-0.0207636 0.0888519 -0.995828 
-0.0254592 0.0663657 -0.997471 
-0.0280271 0.0502621 -0.998343 
-0.0300037 0.0378826 -0.998832 
-0.0327389 0.0274394 -0.999087 
-0.0339441 0.0200795 -0.999222 
-0.0352253 0.014229 -0.999278 
-0.0367154 0.0097706 -0.999278 
-0.0366789 0.0061261 -0.999308 
-0.0374868 0.00325384 -0.999292 
-0.0374978 0.000938916 -0.999296 
-0.0376959 -0.00116166 -0.999289 
-0.0373764 -0.00325989 -0.999296 
-0.0375634 -0.0055729 -0.999279 
-0.0365337 -0.00827947 -0.999298 
-0.0360299 -0.0112818 -0.999287 
-0.0354251 -0.0143269 -0.99927 
-0.0332567 -0.018301 -0.999279 
-0.0324964 -0.0227987 -0.999212 
-0.0324676 -0.0282693 -0.999073 
-0.0295846 -0.0347776 -0.998957 
-0.0299291 -0.0404195 -0.998734 
-0.0268663 -0.0466126 -0.998552 
-0.0259912 -0.0503647 -0.998393 
-0.0223052 -0.0522709 -0.998384 
-0.0167243 -0.0347111 -0.999257 
-0.00103879 -0.00036405 -0.999999 
0.00063244 -0.000281931 1 
0.0118881 -0.0394064 0.999153 
0.0197667 -0.0520076 0.998451 
0.0197722 -0.0516535 0.998469 
0.0237479 -0.0465522 0.998634 
0.0217781 -0.0425851 0.998855 
0.0252878 -0.035679 0.999043 
0.024342 -0.029113 0.99928 
0.0280289 -0.0240244 0.999318 
0.0275456 -0.019487 0.999431 
0.0281292 -0.0160451 0.999476 
0.0293595 -0.0123805 0.999492 
0.029415 -0.00920476 0.999525 
0.0306127 -0.00640287 0.999511 
0.0309078 -0.00393618 0.999514 
0.0308682 -0.00157456 0.999522 
0.0316266 0.000571001 0.9995 
0.0314226 0.00304424 0.999502 
0.0305526 0.00581832 0.999516 
0.0298874 0.00934977 0.99951 
0.0291072 0.0137514 0.999482 
0.0280527 0.0195238 0.999416 
0.0266653 0.0268429 0.999284 
0.0251225 0.0363611 0.999023 
0.0232814 0.0483098 0.998561 
0.0210389 0.0639144 0.997734 
0.018368 0.0835871 0.996331 
0.0150791 0.110158 0.9938 
0.0112813 0.144613 0.989424 
0.00742287 0.187658 0.982206 
0.0029577 0.247593 0.96886 
-0.00150681 0.324123 0.946014 
-0.00505402 0.440301 0.897836 
-0.00577163 0.55303 0.833141 
-0.00664076 0.719315 0.694652 
-0.00266587 0.845063 0.53466 
0.000517236 0.930113 0.367272 
0.000547821 0.98595 0.167041 
8.82239e-05 0.95924 0.282591 
-2.26117e-05 0.995642 0.0932579 
-0.00427203 0.987437 -0.157953 
-0.00417618 0.93822 -0.346015 
0.000893024 0.912395 -0.409311 
0.00383854 0.789708 -0.613471 
0.00656943 0.698261 -0.715813 
0.00654985 0.585553 -0.810608 
0.00570743 0.419729 -0.907631 
0.00243327 0.343354 -0.939203 
-0.00125406 0.268511 -0.963276 
-0.00567553 0.20682 -0.978362 
-0.00973166 0.161385 -0.986843 
-0.0138249 0.126384 -0.991885 
-0.0149995 0.104421 -0.99442 
-0.0190533 0.077603 -0.996802 
-0.0217377 0.0596131 -0.997985 
-0.0234119 0.0450837 -0.998709 
-0.0259347 0.0328786 -0.999123 
-0.027223 0.0243226 -0.999333 
-0.0285345 0.0174338 -0.999441 
-0.0297131 0.0120253 -0.999486 
-0.0306313 0.00801758 -0.999499 
-0.0307752 0.00439733 -0.999517 
-0.0308984 0.0017653 -0.999521 
-0.0310747 -0.000580597 -0.999517 
-0.0307793 -0.00275144 -0.999522 
-0.030902 -0.00515091 -0.999509 
-0.0303798 -0.00775664 -0.999508 
-0.0298594 -0.0109118 -0.999495 
-0.0288873 -0.0142631 -0.999481 
-0.0278314 -0.0177438 -0.999455 
-0.0265168 -0.0225084 -0.999395 
-0.0265942 -0.0281414 -0.99925 
-0.0242297 -0.0356999 -0.999069 
-0.0239244 -0.0431452 -0.998782 
-0.0208106 -0.0487975 -0.998592 
-0.0210943 -0.051793 -0.998435 
-0.0174777 -0.0541407 -0.99838 
-0.0147866 -0.0414936 -0.999029 
-0.000632988 -0.000303981 -1 
0.00046103 -0.000263141 1 
0.00886445 -0.0407617 0.99913 
0.0154274 -0.0542226 0.99841 
0.0142614 -0.0534288 0.99847 
0.0180267 -0.049289 0.998622 
0.0168343 -0.0442496 0.998879 
0.0193695 -0.035731 0.999174 
0.0187475 -0.0287922 0.99941 
0.0216469 -0.023469 0.99949 
0.0205364 -0.0195758 0.999597 
0.022409 -0.0155389 0.999628 
0.0231221 -0.0120378 0.99966 
0.0230151 -0.00879875 0.999696 
0.0240816 -0.00603043 0.999692 
0.0247859 -0.00341487 0.999687 
0.0243719 -0.00103803 0.999702 
0.0252229 0.00132227 0.999681 
0.0242901 0.00394734 0.999697 
0.0239223 0.00728962 0.999687 
0.0232865 0.0113879 0.999664 
0.0226837 0.0165225 0.999606 
0.0215571 0.0230842 0.999501 
0.020352 0.0315879 0.999294 
0.0188466 0.0424244 0.998922 
0.0172486 0.0563681 0.998261 
0.0151685 0.0742915 0.997121 
0.0128784 0.0977125 0.995131 
0.0100826 0.129085 0.991582 
0.00694307 0.169527 0.985501 
0.00390168 0.222916 0.97483 
0.000556288 0.288903 0.957358 
-0.00241145 0.373402 0.927666 
-0.00355876 0.472452 0.881349 
-0.00348665 0.587726 0.809053 
-0.00468499 0.688766 0.724969 
-0.00177348 0.799867 0.600175 
0.000489337 0.895111 0.445842 
0.00104186 0.996221 0.0868457 
0.0017885 0.99752 0.0703631 
0.000612293 0.998703 0.0509076 
-0.00094387 0.999818 0.0190667 
-0.0037679 0.9983 -0.0581711 
-0.00148178 0.871593 -0.490228 
0.00146008 0.798791 -0.601607 
0.00437776 0.665818 -0.746101 
0.00445362 0.551874 -0.833916 
0.00480775 0.470842 -0.882205 
0.00310289 0.393236 -0.919432 
0.000239738 0.297493 -0.954724 
-0.00300202 0.231215 -0.972898 
-0.00640882 0.176053 -0.98436 
-0.00953501 0.136035 -0.990658 
-0.0126251 0.0970262 -0.995202 
-0.0150486 0.073804 -0.997159 
-0.0172491 0.0561387 -0.998274 
-0.0191407 0.041192 -0.998968 
-0.0204338 0.030834 -0.999316 
-0.0217815 0.0224365 -0.999511 
-0.0230061 0.0158501 -0.99961 
-0.0235279 0.0108859 -0.999664 
-0.0249009 0.00675392 -0.999667 
-0.0241881 0.00344499 -0.999701 
-0.0246197 0.000724855 -0.999697 
-0.0242588 -0.00158818 -0.999704 
-0.0243332 -0.00392987 -0.999696 
-0.023898 -0.0063939 -0.999694 
-0.0238916 -0.00930664 -0.999671 
-0.0230459 -0.012553 -0.999656 
-0.0218302 -0.0159987 -0.999634 
-0.0216772 -0.0199752 -0.999565 
-0.0200256 -0.024781 -0.999492 
-0.0208487 -0.0295136 -0.999347 
-0.0182202 -0.035872 -0.99919 
-0.0188204 -0.042654 -0.998913 
-0.0162005 -0.0490699 -0.998664 
-0.015451 -0.053321 -0.998458 
-0.0127497 -0.0545305 -0.998431 
-0.010259 -0.0380346 -0.999224 
-0.000586832 -0.000292081 -1 
0.000313997 -0.00022141 1 
0.00620905 -0.0413175 0.999127 