# vtk DataFile Version 3.0 
Exported using Morpho https://github.com/Morpho-lang/morpho 
ASCII 
DATASET UNSTRUCTURED_GRID 

POINTS 1978 float 
-8.48528 -2.82877 -1.20478e-06 
-8.26958 -2.82881 -2.11198e-05 
-8.04868 -2.82651 -1.41684e-05 
-7.76843 -2.82985 -4.18804e-06 
-7.49184 -2.8273 -9.93725e-06 
-7.22071 -2.82856 -1.29469e-05 
-7.01349 -2.82852 -7.93972e-06 
-6.77816 -2.82874 -3.31601e-06 
-6.56132 -2.82911 -3.34739e-06 
-6.3482 -2.82745 -2.99434e-06 
-6.14457 -2.82873 -4.15025e-06 
-5.92066 -2.82869 -2.61315e-06 
-5.70924 -2.82822 -8.61263e-07 
-5.5073 -2.82852 1.10814e-07 
-5.29431 -2.82843 -6.24315e-07 
-5.08474 -2.8284 1.19321e-06 
-4.87063 -2.82859 1.40665e-06 
-4.66419 -2.82834 2.80156e-06 
-4.44361 -2.82839 3.83423e-06 
-4.22525 -2.82842 4.64286e-06 
-4.00485 -2.82845 5.92529e-06 
-3.79412 -2.82842 6.36904e-06 
-3.57983 -2.82834 9.18116e-06 
-3.37121 -2.82852 1.19539e-05 
-3.15295 -2.82852 1.48528e-05 
-2.94438 -2.82865 1.75486e-05 
-2.73634 -2.82887 1.93823e-05 
-2.53924 -2.82891 2.10738e-05 
-2.32657 -2.8288 2.29862e-05 
-2.11829 -2.82944 2.08286e-05 
-1.89364 -2.82859 2.28513e-05 
-1.69699 -2.82943 1.54154e-05 
-1.49952 -2.82833 4.29878e-06 
-1.2984 -2.82879 4.8972e-06 
-1.12252 -2.82651 5.70627e-05 
-0.871249 -2.82699 0.000214548 
-0.659692 -2.82346 0.000288468 
-0.484031 -2.8225 0.000361908 
-0.269029 -2.81953 0.000328271 
-0.00897858 -2.81598 -0.000102855 
0.286971 -2.81979 -0.000237732 
0.459808 -2.82234 -0.000473543 
0.693516 -2.82397 -0.00035851 
0.90327 -2.82522 -0.000191638 
1.11662 -2.82771 -4.91874e-05 
1.28117 -2.8286 4.73691e-06 
1.44171 -2.82834 -4.1552e-05 
1.70004 -2.82843 -1.00082e-05 
1.90293 -2.82985 -2.20608e-05 
2.11021 -2.82919 -2.24462e-05 
2.33765 -2.82836 -1.92183e-05 
2.53133 -2.82918 -2.30175e-05 
2.75375 -2.82833 -1.92676e-05 
2.96995 -2.82892 -1.69689e-05 
3.18017 -2.82856 -1.52432e-05 
3.38417 -2.82834 -1.1275e-05 
3.60656 -2.82854 -8.61527e-06 
3.8077 -2.82837 -6.27934e-06 
4.02277 -2.82834 -5.27505e-06 
4.25039 -2.82844 -4.60748e-06 
4.45057 -2.8283 -3.05193e-06 
4.6648 -2.82858 -3.40392e-06 
4.87254 -2.82822 -9.05518e-07 
5.0774 -2.82861 -1.01139e-06 
5.29167 -2.82834 -8.65137e-07 
5.50268 -2.82844 8.61118e-07 
5.70488 -2.8285 -1.79423e-07 
5.92232 -2.82844 2.22318e-06 
6.14355 -2.82833 2.83887e-06 
6.34218 -2.82857 3.85462e-06 
6.58302 -2.82844 4.04247e-06 
6.7952 -2.82836 4.89936e-06 
6.99566 -2.82854 8.12153e-06 
7.25982 -2.82826 8.42191e-06 
7.49219 -2.8286 1.06143e-05 
7.73603 -2.82867 2.40192e-06 
8.00929 -2.82832 1.51076e-05 
8.1938 -2.82879 1.92161e-05 
8.48481 -2.82786 2.51299e-06 
-8.48622 -2.5997 2.02408e-05 
-8.25997 -2.58446 -1.70232e-16 
-8.03338 -2.58252 8.06114e-16 
-7.80549 -2.63224 1.07452e-16 
-7.54393 -2.63319 -4.60888e-16 
-7.25441 -2.63156 -2.55539e-16 
-6.99221 -2.57563 4.53004e-16 
-6.78414 -2.60811 9.47088e-17 
-6.54325 -2.58943 4.231e-17 
-6.33171 -2.57814 1.78665e-17 
-6.10622 -2.60419 3.13864e-17 
-5.88922 -2.59232 -6.38558e-18 
-5.67998 -2.58001 -2.78248e-17 
-5.46428 -2.59549 3.82483e-18 
-5.24957 -2.59103 8.80746e-18 
-5.03198 -2.59626 -3.5948e-17 
-4.82165 -2.58618 -2.01121e-17 
-4.60166 -2.60029 -5.35199e-17 
-4.38059 -2.59656 -1.0778e-16 
-4.15955 -2.59742 -1.41543e-16 
-3.94629 -2.58601 -1.25295e-16 
-3.73262 -2.59057 -1.19418e-16 
-3.52104 -2.58788 -1.7355e-16 
-3.30516 -2.60172 -2.30125e-16 
-3.09167 -2.59626 -3.27899e-16 
-2.88043 -2.59993 -1.84627e-16 
-2.67845 -2.59274 -2.47596e-16 
-2.46938 -2.61315 -4.77612e-16 
-2.25424 -2.60759 -4.50187e-16 
-2.03915 -2.62326 -2.39383e-16 
-1.82843 -2.59056 -2.41508e-16 
-1.6274 -2.58808 3.01972e-16 
-1.41896 -2.58585 1.35842e-15 
-1.24051 -2.54025 2.27628e-15 
-1.01791 -2.62316 3.51843e-15 
-0.802695 -2.5703 1.57659e-15 
-0.610278 -2.47854 1.67971e-14 
-0.417517 -2.50145 1.71755e-14 
-0.192713 -2.55337 1.22594e-14 
0.00510542 -2.44626 6.31213e-15 
0.198054 -2.59379 -2.72003e-14 
0.439394 -2.465 -2.00701e-14 
0.624953 -2.56774 -1.20255e-14 
0.851084 -2.56438 -8.57716e-15 
1.06531 -2.58403 -3.21763e-15 
1.26385 -2.53545 -1.07364e-16 
1.49602 -2.64809 -2.647e-16 
1.719 -2.61081 -6.71241e-17 
1.92827 -2.61098 -4.5389e-17 
2.15804 -2.62712 5.96115e-16 
2.36059 -2.58895 5.53233e-16 
2.57371 -2.61457 2.83855e-16 
2.79911 -2.60879 3.38745e-16 
3.00875 -2.59939 2.42742e-16 
3.21466 -2.58648 3.09225e-16 
3.43699 -2.60706 1.64316e-16 
3.6434 -2.58033 1.60325e-16 
3.85817 -2.59389 1.27612e-16 
4.08696 -2.60673 1.09119e-16 
4.29598 -2.57615 8.49426e-17 
4.51218 -2.59486 7.51199e-17 
4.72596 -2.58892 5.51779e-17 
4.939 -2.58782 1.14586e-17 
5.15388 -2.59916 3.13229e-17 
5.3726 -2.59573 3.71216e-18 
5.58315 -2.58452 3.14482e-18 
5.79861 -2.60013 3.09104e-18 
6.02338 -2.60103 -2.66786e-17 
6.23659 -2.57226 -2.30666e-17 
6.45692 -2.61449 -6.43479e-17 
6.68539 -2.58238 -9.40624e-17 
6.89504 -2.56519 -1.19229e-16 
7.12318 -2.62729 -2.21128e-16 
7.37555 -2.5976 -2.6181e-16 
7.61479 -2.60822 -1.62448e-16 
7.87217 -2.63165 -3.47477e-17 
8.08176 -2.53562 -5.56931e-16 
8.30338 -2.64008 2.27516e-16 
8.48557 -2.52978 -2.19541e-05 
-8.48299 -2.36313 1.77513e-05 
-8.24237 -2.35087 -2.27621e-16 
-7.99852 -2.34777 -2.56931e-16 
-7.76351 -2.4118 2.26276e-18 
-7.56954 -2.25839 -1.19042e-15 
-7.45888 -2.45496 7.46898e-16 
-7.18527 -2.41498 -2.73886e-16 
-6.94702 -2.33014 -3.78878e-16 
-6.71729 -2.39073 -2.9053e-17 
-6.48491 -2.34908 -1.71717e-16 
-6.23885 -2.363 -2.06954e-16 
-6.0227 -2.3657 -1.74596e-16 
-5.80532 -2.34831 -1.56115e-16 
-5.57715 -2.35539 -8.24798e-17 
-5.36176 -2.35963 -6.60814e-17 
-5.13877 -2.36401 -7.96145e-17 
-4.92604 -2.35168 -6.71576e-17 
-4.7032 -2.36551 -1.02081e-16 
-4.48411 -2.36912 -9.78604e-17 
-4.26103 -2.36693 -1.10223e-16 
-4.04685 -2.35192 -6.50516e-17 
-3.83023 -2.35055 -4.6712e-17 
-3.61786 -2.35147 -1.82144e-17 
-3.39993 -2.36535 2.04278e-17 
-3.18894 -2.36903 5.02638e-17 
-2.97384 -2.37093 1.33446e-16 
-2.76746 -2.36191 2.18777e-16 
-2.55661 -2.37941 2.56872e-16 
-2.35037 -2.39376 2.46032e-16 
-2.127 -2.39559 -1.58438e-17 
-1.92007 -2.3887 3.8702e-17 
-1.69097 -2.35276 7.85521e-16 
-1.47736 -2.35604 1.22905e-15 
-1.27386 -2.25579 -1.01795e-15 
-1.0742 -2.37686 2.68301e-15 
-0.86789 -2.31726 1.46184e-14 
-0.651084 -2.21908 4.67849e-15 
-0.416625 -2.15747 1.71075e-14 
-0.209984 -2.2301 -2.2283e-16 
0.0327821 -2.11736 -8.14297e-15 
0.237678 -2.28431 -6.08847e-15 
0.446347 -2.15017 1.70718e-15 
0.65928 -2.24877 -9.06868e-15 
0.851312 -2.30333 -1.1306e-14 
1.06449 -2.32547 -8.96767e-15 
1.28857 -2.30775 -4.43053e-15 
1.48795 -2.4372 -1.56747e-15 
1.66946 -2.37142 -1.9971e-16 
1.87552 -2.38423 -4.81193e-16 
2.08568 -2.41898 5.21847e-16 
2.29907 -2.37037 -3.0549e-16 
2.52322 -2.3825 -1.46691e-16 
2.73115 -2.40069 -2.84159e-16 
2.95425 -2.36528 -1.25121e-16 
3.1536 -2.35072 -7.31108e-17 
3.37119 -2.37712 3.09952e-17 
3.57717 -2.34365 -4.82626e-17 
3.78941 -2.35308 1.2736e-17 
4.00596 -2.37922 1.037e-16 
4.21567 -2.34315 7.41276e-17 
4.43774 -2.35435 1.02919e-16 
4.64819 -2.35279 1.09532e-16 
4.86239 -2.3537 6.33859e-17 
5.08023 -2.36054 8.28129e-17 
5.292 -2.36927 7.0323e-17 
5.50796 -2.35116 7.41377e-17 
5.72698 -2.36174 1.14612e-16 
5.94311 -2.37525 1.55671e-16 
6.15898 -2.34351 2.09615e-16 
6.39334 -2.36626 1.63038e-16 
6.60271 -2.36502 1.4435e-16 
6.8294 -2.31757 2.19191e-16 
7.06152 -2.37545 2.98222e-16 
7.28132 -2.39701 3.22963e-16 
7.54447 -2.378 6.65623e-16 
7.78862 -2.41277 2.57817e-16 
8.00149 -2.31479 3.78539e-16 
8.26287 -2.37196 4.77575e-17 
8.48529 -2.28642 -1.25165e-05 
-8.48604 -2.11177 6.35536e-06 
-8.26824 -2.11887 -4.04739e-16 
-8.03813 -2.10858 4.01919e-16 
-7.79504 -2.15654 -1.92229e-16 
-7.5231 -2.04168 -2.12383e-16 
-7.31373 -2.23221 -6.16045e-16 
-7.07844 -2.14383 9.75458e-17 
-6.79652 -2.13608 9.73101e-17 
-6.59213 -2.13958 1.62459e-16 
-6.34403 -2.14419 3.97756e-17 
-6.1188 -2.11989 6.18779e-17 
-5.91329 -2.11837 5.12561e-17 
-5.68859 -2.12844 9.51066e-17 
-5.46813 -2.11828 1.05167e-16 
-5.25175 -2.13432 7.55596e-17 
-5.04011 -2.12007 5.73445e-17 
-4.81645 -2.13042 2.08553e-17 
-4.59896 -2.13601 7.98679e-18 
-4.37993 -2.13968 -2.13006e-17 
-4.1673 -2.12163 -4.02951e-17 
-3.9513 -2.1156 -6.68887e-17 
-3.73815 -2.11341 -9.19588e-17 
-3.52186 -2.12753 -1.20674e-16 
-3.31196 -2.13239 -2.11153e-16 
-3.10026 -2.14261 -2.25795e-16 
-2.89302 -2.13485 -2.38874e-16 
-2.67858 -2.14009 -3.8361e-16 
-2.47133 -2.15266 -4.26938e-16 
-2.2577 -2.1795 -4.08723e-18 
-2.04215 -2.15594 -1.08253e-17 
-1.82794 -2.16321 -3.81665e-16 
-1.58553 -2.12095 7.64872e-17 
-1.3902 -2.06006 4.57241e-15 
-1.17652 -1.92364 -1.97326e-15 
-1.07006 -2.11482 6.44985e-15 
-0.845333 -2.04808 3.24131e-15 
-0.610177 -1.93525 6.82146e-16 
-0.36628 -1.83505 -6.4026e-15 
-0.147521 -1.90666 8.77681e-15 
0.0588692 -1.71277 -4.67949e-15 
0.250066 -1.94116 2.33277e-15 
0.309659 -1.63943 -1.38956e-15 
0.538263 -1.8888 -1.33078e-14 
0.765077 -1.96687 3.23104e-15 
0.971049 -2.05808 6.8568e-15 
1.19027 -2.08224 2.37221e-16 
1.46106 -2.17453 -2.34343e-15 
1.6794 -2.13778 1.5931e-15 
1.88961 -2.15255 -2.76927e-16 
2.10556 -2.19176 -2.62119e-16 
2.35166 -2.16081 3.01286e-16 
2.56883 -2.15151 2.48003e-16 
2.78321 -2.17946 3.3905e-16 
2.98267 -2.11142 2.83589e-16 
3.20599 -2.13225 2.14252e-16 
3.40795 -2.13015 1.99415e-16 
3.62397 -2.10928 1.63577e-16 
3.84163 -2.12751 5.75072e-17 
4.04361 -2.13097 4.20758e-17 
4.27272 -2.11833 2.68881e-17 
4.48325 -2.11375 1.45142e-17 
4.69845 -2.11703 -4.68337e-18 
4.91665 -2.12536 -4.47242e-17 
5.13059 -2.12434 -6.98911e-17 
5.34197 -2.1342 -8.76325e-17 
5.56662 -2.12442 -1.07311e-16 
5.78356 -2.13069 -7.75844e-17 
5.99382 -2.13236 -2.46139e-17 
6.23604 -2.1311 -5.71885e-17 
6.446 -2.11437 -1.524e-16 
6.65942 -2.12068 -1.78944e-16 
6.92012 -2.10973 -1.592e-16 
7.13766 -2.13806 -5.70858e-17 
7.37138 -2.18529 3.06287e-16 
7.56505 -2.08841 8.26963e-17 
7.74601 -2.18135 4.86177e-16 
7.95949 -2.08076 -5.88416e-16 
8.20551 -2.15005 7.39465e-17 
8.4851 -2.09101 -6.91614e-06 
-8.48479 -1.81504 1.1929e-05 
-8.29792 -1.87436 1.2524e-16 
-7.89552 -1.9104 9.43553e-16 
[...]
POINT_DATA 1978 
VECTORS vectors float
0.0595812 -0.0786442 0.995308 
0.0607715 -0.0661862 0.996139 
0.0596636 -0.0612233 0.996778 
0.055229 -0.0538599 0.997304 
0.0563171 -0.0431523 0.997767 
0.0591252 -0.0317807 0.998044 
0.0597491 -0.0248701 0.998207 
0.0614769 -0.0193876 0.998208 
0.0632434 -0.0160437 0.998052 
0.0630867 -0.0122243 0.998236 
0.064242 -0.00867999 0.998189 
0.0650385 -0.00656291 0.99814 
0.0655072 -0.00557027 0.998125 
0.0657535 -0.0035626 0.998113 
0.0658832 -0.00182432 0.998108 
0.0658534 -0.000715853 0.99811 
0.0656461 0.000765216 0.998125 
0.0653953 0.00242722 0.99814 
0.0650553 0.00424917 0.998155 
0.0645862 0.00619989 0.998178 
0.0640537 0.00891308 0.998196 
0.0629844 0.0124092 0.998229 
0.0613813 0.0172723 0.998258 
0.0589788 0.0238141 0.998264 
0.0557636 0.0331344 0.998181 
0.0519056 0.0453215 0.997909 
0.0469006 0.0616636 0.997279 
0.0410667 0.0822582 0.996044 
0.0330402 0.111099 0.993537 
0.023697 0.147671 0.989022 
0.0115913 0.199829 0.980026 
-0.00186574 0.258303 0.966304 
-0.0172677 0.333426 0.942827 
-0.0309564 0.425491 0.904611 
-0.0389047 0.51536 0.856195 
-0.0519444 0.658044 0.751144 
-0.0550525 0.784316 0.617677 
-0.047492 0.872833 0.485289 
-0.0300993 0.959813 0.278022 
-0.00147248 0.999537 0.0037556 
0.0296405 0.952988 -0.300997 
0.0443315 0.888083 -0.457021 
0.0523891 0.764913 -0.641849 
0.0505783 0.642257 -0.764816 
0.0424384 0.517986 -0.854448 
0.0322486 0.433049 -0.90085 
0.0207021 0.357029 -0.934061 
0.000701215 0.256553 -0.96685 
-0.0126063 0.197146 -0.980446 
-0.0232856 0.150365 -0.988624 
-0.033181 0.110197 -0.993636 
-0.0403738 0.0830892 -0.996006 
-0.0469759 0.0600538 -0.997372 
-0.0521853 0.0437631 -0.99796 
-0.0562232 0.0316581 -0.998206 
-0.0590862 0.022856 -0.998277 
-0.0616437 0.0165161 -0.998248 
-0.0633319 0.0122695 -0.998209 
-0.0638095 0.00861204 -0.998209 
-0.064881 0.00621608 -0.998162 
-0.0654013 0.00416496 -0.99814 
-0.0655524 0.00215437 -0.99813 
-0.0657653 0.000810183 -0.99812 
-0.0659054 -0.00071772 -0.998105 
-0.0658055 -0.00205208 -0.998108 
-0.0659553 -0.0034042 -0.998099 
-0.0657292 -0.00504553 -0.998106 
-0.0648026 -0.0066001 -0.998156 
-0.0642629 -0.00906422 -0.998185 
-0.063488 -0.0120534 -0.998199 
-0.0624216 -0.0155745 -0.998221 
-0.0619969 -0.0197495 -0.998194 
-0.0602149 -0.025287 -0.998165 
-0.0579478 -0.0333516 -0.998061 
-0.0561482 -0.0422288 -0.997836 
-0.054422 -0.0537105 -0.99737 
-0.0602916 -0.0608783 -0.99664 
-0.0602696 -0.0645155 -0.996393 
-0.0575132 -0.0772714 -0.995521 
0.0446565 -0.0801983 0.995952 
0.0457327 -0.0656268 0.99764 
0.047282 -0.0572507 0.99797 
0.0469161 -0.0519147 0.998168 
0.0460387 -0.0452705 0.998678 
0.0488329 -0.0350982 0.998929 
0.0503031 -0.025676 0.99911 
0.051111 -0.0201926 0.999193 
0.0508571 -0.0161096 0.999378 
0.0515853 -0.0127359 0.999265 
0.0530835 -0.00931684 0.999218 
0.0543409 -0.0074554 0.999163 
0.0544781 -0.0056074 0.999163 
0.0549195 -0.00335449 0.999147 
0.0551246 -0.00162901 0.999137 
0.0551308 -0.000200646 0.999137 
0.0546695 0.00132156 0.99916 
0.0549753 0.00311773 0.999148 
0.0546954 0.00516499 0.999156 
0.0540177 0.00774039 0.99918 
0.0526512 0.0111646 0.999222 
0.0514056 0.01567 0.999228 
0.0496526 0.0218294 0.999195 
0.0476324 0.030062 0.999076 
0.0441854 0.0413071 0.998821 
0.0398936 0.0559183 0.998286 
0.0349567 0.0747257 0.997228 
0.0297937 0.0990805 0.995267 
0.0224293 0.132807 0.991519 
0.0140119 0.176034 0.984909 
0.00375816 0.232194 0.973265 
-0.00612521 0.298484 0.954965 
-0.01681 0.384023 0.923678 
-0.0227046 0.471459 0.881964 
-0.0326748 0.583768 0.811433 
-0.0332377 0.707549 0.705642 
-0.0257973 0.811795 0.582587 
-0.0224232 0.903395 0.425979 
-0.013357 0.978113 0.202041 
-0.00114945 0.99854 -0.0121522 
0.0130237 0.97507 -0.216773 
0.0184187 0.892936 -0.447755 
0.0300934 0.80274 -0.594846 
0.0312561 0.676567 -0.735508 
0.0299359 0.554877 -0.831614 
0.0209326 0.454367 -0.891155 
0.0125312 0.344807 -0.939009 
0.0010763 0.264542 -0.964949 
-0.0084896 0.204184 -0.979603 
-0.0191892 0.150166 -0.989107 
-0.0258442 0.11627 -0.993522 
-0.0330998 0.0860904 -0.996387 
-0.0386094 0.0631059 -0.997915 
-0.0427315 0.0466719 -0.99865 
-0.0459066 0.034318 -0.99902 
-0.0491984 0.0242261 -0.999164 
-0.050741 0.0180152 -0.999214 
-0.0526665 0.0127311 -0.999202 
-0.0538549 0.00877724 -0.999185 
-0.05358 0.00622627 -0.99921 
-0.0543363 0.00380427 -0.99918 
-0.0544108 0.00198256 -0.999175 
-0.0545859 0.000467603 -0.999162 
-0.0553328 -0.00107041 -0.99912 
-0.0550818 -0.00257038 -0.999133 
-0.0547237 -0.00430693 -0.999146 
-0.0550483 -0.00624035 -0.999128 
-0.0542343 -0.00847525 -0.999165 
-0.0525082 -0.0113931 -0.999229 
-0.0531495 -0.014428 -0.999176 
-0.0505906 -0.0185444 -0.999243 
-0.0492031 -0.0236853 -0.999212 
-0.0507006 -0.0301749 -0.998986 
-0.0479291 -0.0390787 -0.998808 
-0.0466638 -0.0477643 -0.998491 
-0.0473968 -0.054088 -0.998018 
-0.0452009 -0.058748 -0.998082 
-0.0490261 -0.0697603 -0.996988 
-0.041561 -0.0792165 -0.996267 
0.0365196 -0.080036 0.996561 
0.0369009 -0.0647226 0.997959 
0.0343178 -0.05074 0.998746 
0.0390641 -0.049764 0.998845 
0.0338905 -0.0476409 0.998882 
0.0436913 -0.0433554 0.998812 
0.0408687 -0.0332201 0.999332 
0.0398767 -0.0259341 0.999579 
0.04338 -0.0197567 0.999551 
0.0428077 -0.0157224 0.999638 
0.0435255 -0.0121802 0.999652 
0.0456641 -0.00959998 0.999578 
0.0460082 -0.00719038 0.99958 
0.0463025 -0.00462805 0.999576 
0.0467727 -0.00256452 0.999556 
0.0469054 -0.000820815 0.999551 
0.0465245 0.00067756 0.99957 
0.0464633 0.00235581 0.999569 
0.0462389 0.00442469 0.999576 
0.0456375 0.00715058 0.99959 
0.0444887 0.0105693 0.999617 
0.0434404 0.0150508 0.999606 
0.0418628 0.0209675 0.999564 
0.0399612 0.0290988 0.999435 
0.0371984 0.0397041 0.99917 
0.0337515 0.0540042 0.998618 
0.0294487 0.0720706 0.997611 
0.0247108 0.0951129 0.995802 
0.0192822 0.124383 0.992687 
0.0122782 0.165487 0.98678 
0.00487027 0.215056 0.977219 
-0.0032957 0.285315 0.95903 
-0.0107082 0.367135 0.930641 
-0.0150893 0.466549 0.884789 
-0.0209171 0.564223 0.825524 
-0.0207139 0.676684 0.735998 
-0.0178186 0.794917 0.605775 
-0.0133747 0.90414 0.424916 
-0.00864127 0.972796 0.225588 
0.000455913 0.998042 -0.0331476 
0.00785415 0.967192 -0.249122 
0.0120004 0.895112 -0.443851 
0.0166543 0.787754 -0.614982 
0.0194554 0.68122 -0.731826 
0.0186297 0.566966 -0.823763 
0.0143636 0.451287 -0.892594 
0.0105249 0.358586 -0.933951 
0.00429922 0.293765 -0.956463 
-0.0031112 0.229249 -0.97387 
-0.0115042 0.174116 -0.985295 
-0.0169387 0.133787 -0.991511 
-0.0237233 0.099324 -0.995428 
-0.0294329 0.0748914 -0.997407 
-0.03317 0.0554308 -0.998564 
-0.0362479 0.0418969 -0.99912 
-0.0400627 0.0301032 -0.999397 
-0.0412749 0.022401 -0.999554 
-0.0432482 0.0160293 -0.999594 
-0.0452215 0.0111789 -0.99957 
-0.0450609 0.00790811 -0.999613 
-0.04595 0.00498287 -0.999586 
-0.0463992 0.00285247 -0.999573 
-0.0466222 0.00112741 -0.99956 
-0.0469378 -0.000458652 -0.999545 
-0.047215 -0.00205904 -0.999527 
-0.0465916 -0.00393473 -0.999555 
-0.0464245 -0.00608867 -0.999555 
-0.0461062 -0.00841834 -0.999558 
-0.0443028 -0.0112331 -0.999621 
-0.0437436 -0.0144802 -0.999612 
-0.0425592 -0.0179946 -0.999615 
-0.0405814 -0.0231339 -0.999604 
-0.0403357 -0.0293863 -0.999459 
-0.0396923 -0.0368042 -0.999241 
-0.0373123 -0.0460936 -0.999068 
-0.037482 -0.0504738 -0.998731 
-0.0334233 -0.0512676 -0.998833 
-0.0379291 -0.0652503 -0.997865 
-0.036223 -0.0800905 -0.996445 
0.0312811 -0.076859 0.996842 
0.0311807 -0.064858 0.998017 
0.0318827 -0.051833 0.998995 
0.0331846 -0.0492614 0.99909 
0.0354147 -0.0479411 0.998942 
0.0357755 -0.0392261 0.999304 
0.0392368 -0.0313703 0.999572 
0.0414268 -0.0232072 0.999566 
0.0429338 -0.0187038 0.999589 
0.0441105 -0.0145523 0.999596 
0.0463493 -0.0115864 0.999532 
0.047132 -0.00899609 0.999517 
0.0474988 -0.00621784 0.999511 
0.0482191 -0.00378465 0.999488 
0.0483152 -0.00176889 0.999488 
0.0486159 -0.0001108 0.999473 
0.0482534 0.00158267 0.999488 
0.0478473 0.00357545 0.999504 
0.0472033 0.00619177 0.999525 
0.0464417 0.00950252 0.999536 
0.0453398 0.0137835 0.999538 
0.043908 0.0193719 0.999506 
0.0417922 0.026844 0.999424 
0.0393967 0.0366388 0.999206 
0.0362526 0.0494662 0.998768 
0.0326111 0.0659164 0.997941 
0.0279584 0.0870884 0.996461 
0.0224865 0.113194 0.993977 
0.0158277 0.147157 0.989652 
0.00864366 0.193358 0.981753 
0.0013733 0.250702 0.9687 
-0.00653968 0.336788 0.942152 
-0.0118011 0.420319 0.907913 
-0.0148036 0.523538 0.852166 
-0.0172448 0.571812 0.820571 
-0.017865 0.691078 0.722453 
-0.0149287 0.814754 0.578731 
-0.00966689 0.922913 0.382091 
-0.00439173 0.986158 0.157655 
0.00150099 0.996605 -0.057647 
0.00696741 0.963461 -0.262828 
0.00645676 0.941586 -0.333145 
0.0127374 0.847034 -0.530128 
0.0156084 0.731078 -0.681816 
0.0167006 0.620697 -0.783945 
0.0153868 0.506611 -0.862525 
0.010044 0.382628 -0.924368 
0.00374869 0.299115 -0.954839 
-0.00279115 0.234729 -0.97282 
-0.0101696 0.1787 -0.984511 
-0.0183052 0.132275 -0.99171 
-0.0245289 0.100679 -0.995286 
-0.0299785 0.0747918 -0.99741 
-0.0340535 0.058617 -0.998368 
-0.0379319 0.0424955 -0.999036 
-0.0407911 0.0316667 -0.999322 
-0.0431402 0.0230284 -0.99946 
-0.0447797 0.0163123 -0.999522 
-0.0459519 0.0117589 -0.999532 
-0.0470849 0.00784344 -0.999517 
-0.0479399 0.00497771 -0.999494 
-0.0483973 0.00265494 -0.999481 
-0.0486148 0.000794683 -0.999469 
-0.0487898 -0.000843394 -0.999461 
-0.0485408 -0.00260872 -0.999469 
-0.0482954 -0.00484885 -0.999475 
-0.0476058 -0.00731273 -0.999498 
-0.0465739 -0.00991497 -0.999529 
-0.0452474 -0.0131324 -0.999562 
-0.0442545 -0.0163659 -0.999569 
-0.0427574 -0.0202728 -0.99957 
-0.0411739 -0.026666 -0.999495 
-0.0393133 -0.0334163 -0.999377 
-0.0368269 -0.0417979 -0.999037 
-0.0359081 -0.0487052 -0.998875 
-0.0338876 -0.050215 -0.998871 
-0.0323826 -0.0494978 -0.998965 
-0.0319785 -0.0593397 -0.99844 
-0.0311715 -0.0778976 -0.996794 
0.0246049 -0.0777709 0.996952 
0.0270987 -0.0652459 0.998249 
0.0322291 -0.0487668 0.998888 
0.0340278 -0.0508866 0.998845 
0.0337512 -0.046662 0.999174 
0.0380137 -0.0399533 0.999071 
0.0373367 -0.0354618 0.999393 
0.0406976 -0.0282098 0.999476 
0.0409551 -0.0225714 0.9996 
0.0433181 -0.0178033 0.999587 
0.0440635 -0.0143024 0.999602 
0.0444281 -0.0114517 0.999627 
0.045547 -0.00844126 0.999594 
0.0462848 -0.0056201 0.999575 
0.046673 -0.00309611 0.99957 
0.0468922 -0.00121249 0.99956 
0.0472231 0.000607928 0.99954 
0.0470338 0.00256311 0.999547 
0.0467281 0.00502496 0.999553 
0.0457468 0.00810124 0.999579 
0.0444623 0.0120697 0.999596 
0.0429608 0.0171419 0.999584 
0.0413238 0.0238465 0.999513 
0.0393086 0.0324424 0.999352 
0.0368883 0.0437266 0.999012 
0.033765 0.0579449 0.998401 
0.0298391 0.0767437 0.997263 
0.0250803 0.100296 0.995314 
0.0197122 0.129767 0.992034 
0.0134794 0.167271 0.986503 
0.00599279 0.22124 0.975876 
-0.000925896 0.2858 0.958817 
-0.00637319 0.364478 0.931814 
-0.0106483 0.453224 0.89185 
-0.0156555 0.64232 0.766439 
-0.0135769 0.756819 0.652966 
-0.00925782 0.876217 0.48053 
-0.00541544 0.924356 0.37897 
-0.00261901 0.981634 0.183428 
-0.000310228 0.997389 0.0453032 
0.00207283 0.983987 -0.168714 
0.00515735 0.902 -0.429568 
0.0109437 0.822744 -0.567165 
0.0135098 0.691149 -0.72248 
0.0142299 0.571798 -0.820521 
0.0115896 0.490402 -0.871896 
0.0112587 0.423501 -0.906377 
0.00568765 0.34316 -0.939746 
-0.000483898 0.269915 -0.963553 
-0.00761508 0.206898 -0.979019 
-0.0146465 0.158718 -0.987903 
-0.0213008 0.119545 -0.993282 
-0.0273509 0.089096 -0.996326 
-0.030667 0.0710448 -0.997679 
-0.035141 0.0514655 -0.998724 
-0.0378536 0.0382833 -0.999209 
-0.040329 0.0282614 -0.999444 
-0.0425834 0.020016 -0.999549 
-0.0438249 0.0144797 -0.999591 
-0.0455059 0.0100693 -0.99957 
-0.0458009 0.00647555 -0.99959 
-0.046545 0.00367423 -0.999569 
-0.0469618 0.00146526 -0.999555 
-0.0470422 -0.000315954 -0.999552 
-0.0469581 -0.00218453 -0.999554 
-0.0469739 -0.00432431 -0.999547 
-0.0462071 -0.00705107 -0.99957 
-0.0453501 -0.00989447 -0.999589 
-0.0448706 -0.0128133 -0.999584 
-0.0427401 -0.0163548 -0.999635 
-0.0415455 -0.0201823 -0.999624 
-0.0410421 -0.0250125 -0.999544 
-0.0386361 -0.0328576 -0.999542 
-0.0377781 -0.040929 -0.999158 
-0.0348858 -0.0495118 -0.998875 
-0.0329506 -0.0516854 -0.998827 
-0.0295621 -0.0523879 -0.998897 
-0.0288476 -0.0618792 -0.998391 
-0.024501 -0.078158 -0.99695 
0.0175978 -0.0803691 0.996912 
0.0207692 -0.0667803 0.998275 
0.0280971 -0.0573343 0.998673 
0.0262301 -0.0510521 0.999078 
0.0285403 -0.0530639 0.998781 
0.0303281 -0.0426809 0.999357 
0.0328335 -0.0320142 0.999665 
0.0348177 -0.0264493 0.999747 
0.0362092 -0.0204611 0.999827 
0.0375209 -0.0168063 0.999841 
0.0369929 -0.0137354 0.999902 
0.0378968 -0.0101789 0.999909 
0.0390864 -0.00716386 0.99988 
0.0398747 -0.00436963 0.999864 
0.0392255 -0.00213264 0.999895 
0.0404042 -0.000227367 0.999845 
0.0403101 0.00177177 0.999846 
0.0400226 0.00426409 0.999851 
0.0390408 0.00728855 0.999871 
0.0380438 0.0110968 0.999872 
0.0366826 0.0159554 0.999854 
0.0353215 0.0223611 0.999779 
0.0334434 0.0306947 0.999622 
0.0315455 0.0415528 0.999293 
0.028886 0.0554007 0.998707 
0.0260055 0.0728847 0.997676 
0.0219955 0.0953494 0.995888 
0.0174391 0.125027 0.992707 
0.0124289 0.163035 0.987262 
0.00674074 0.212464 0.977864 
4.38822e-05 0.285635 0.959141 
-0.00505385 0.378974 0.925997 
-0.00851626 0.489988 0.872056 
-0.00862405 0.593738 0.804908 
-0.0123073 0.574814 0.818513 
-0.011467 0.6853 0.728933 
-0.00909429 0.782269 0.621519 
-0.00472597 0.880769 0.471963 
-0.00139626 0.979389 0.195407 
0.000214958 0.998172 -0.0143454 
0.00220639 0.961587 -0.269192 
-0.00124355 0.97886 -0.198446 
0.00425869 0.858068 -0.512003 
0.00856472 0.770501 -0.637036 
0.0110023 0.629197 -0.777436 
0.00923881 0.522333 -0.85314 
0.00705812 0.403242 -0.915639 
0.0025007 0.321204 -0.947794 
-0.00282859 0.250631 -0.968767 
-0.00870272 0.195011 -0.981336 
-0.0144806 0.14935 -0.989515 
-0.0200949 0.110294 -0.994392 
-0.0224397 0.0884457 -0.996522 
-0.0273853 0.0661033 -0.998112 
-0.0298163 0.0500285 -0.998969 
-0.0318144 0.0371881 -0.999461 
-0.0348363 0.026721 -0.999693 
-0.0359905 0.0195584 -0.999816 
-0.0373345 0.0138828 -0.99986 
-0.0391748 0.00951918 -0.999845 
-0.0388384 0.00586567 -0.999891 
-0.0397745 0.0029924 -0.999865 
-0.0396893 0.000824539 -0.999877 
-0.0398855 -0.00106664 -0.999866 
-0.0395446 -0.00307755 -0.999878 
-0.0399548 -0.00547921 -0.999851 
-0.0386976 -0.00839248 -0.999884 
-0.0383543 -0.0115682 -0.99987 
-0.0378441 -0.0146234 -0.999856 
-0.0351645 -0.018472 -0.999898 
-0.034563 -0.0227635 -0.999841 
-0.0350525 -0.0282493 -0.999571 
-0.0314668 -0.0354045 -0.999592 
-0.0326284 -0.0426264 -0.999279 
-0.0288886 -0.0515142 -0.998973 
-0.0281871 -0.0535943 -0.998884 
-0.024146 -0.0533498 -0.998997 
-0.0232668 -0.0657459 -0.998289 
-0.0187415 -0.0803319 -0.996902 
0.011981 -0.0820481 0.996865 
0.0141073 -0.0660233 0.99842 
0.020918 -0.0550277 0.998987 
0.0202775 -0.0545837 0.999151 
0.0247366 -0.0516479 0.999085 
0.0220443 -0.0449503 0.999467 
0.0259985 -0.0365646 0.999581 
0.0247337 -0.0292906 1.00008 
0.028799 -0.0240254 0.999872 
0.0281406 -0.0197506 1.0001 
0.0287172 -0.0164958 1.00014 
0.0301314 -0.0127774 1.00013 
0.0299738 -0.00934037 1.00017 
0.031492 -0.00631056 1.00015 
0.0316429 -0.00376646 1.00015 
0.0315227 -0.00154257 1.00016 
0.0324351 0.00039972 1.00013 
0.0323071 0.00274632 1.00013 
0.031353 0.00558028 1.00015 
0.030663 0.00909971 1.00014 
0.0298361 0.0134486 1.00011 
0.028769 0.019037 1.00005 
0.0272837 0.0262038 0.999927 
0.0257135 0.0357009 0.999678 
0.0238301 0.0477768 0.999227 
0.0215787 0.063583 0.998409 
0.0188591 0.0833019 0.997032 
0.015426 0.109554 0.994567 
0.0115324 0.143359 0.990334 
0.00770542 0.185635 0.98333 
0.0033128 0.243957 0.970509 
-0.00133305 0.322073 0.947393 
-0.00542028 0.444775 0.896317 
-0.00604561 0.550382 0.83528 
-0.00772068 0.716931 0.696678 
-0.00375028 0.848236 0.529139 
8.20889e-05 0.927952 0.370703 
0.00206954 0.979828 0.190567 
-0.00169963 0.949699 0.310152 
-0.000241201 0.991786 0.118588 
-0.00337219 0.993655 -0.0979357 
-0.00440453 0.935649 -0.348032 
0.000793427 0.905947 -0.420324 
0.00436524 0.786562 -0.617663 
0.00721842 0.69647 -0.717519 
0.00686219 0.590609 -0.807246 
0.00573246 0.424672 -0.905905 
0.00208887 0.336498 -0.942234 
-0.00160076 0.264412 -0.965104 
-0.00594122 0.204921 -0.979593 
-0.0100072 0.161844 -0.987357 
-0.014321 0.127596 -0.992309 
-0.0151907 0.103044 -0.995262 
-0.0196677 0.0778099 -0.99746 
-0.0221797 0.0596997 -0.998637 
-0.0239539 0.0446793 -0.99937 
-0.0265601 0.0322376 -0.999778 
-0.02785 0.0238482 -0.999978 
-0.0292363 0.0171307 -1.00007 
-0.0304892 0.0118291 -1.00011 
-0.0314914 0.00784394 -1.00013 
-0.0316207 0.00412674 -1.00015 
-0.0316079 0.00150756 -1.00016 
-0.0318173 -0.00064426 -1.00016 
-0.0314435 -0.00261335 -1.00017 
-0.0316161 -0.00499847 -1.00015 
-0.0310968 -0.0077689 -1.00015 
-0.0306576 -0.0111872 -1.00014 
-0.0295762 -0.0146867 -1.00013 
-0.0284867 -0.0180979 -1.00011 
-0.027029 -0.0226895 -1.00019 
-0.0273383 -0.0282064 -0.999933 
-0.0246905 -0.0363859 -0.999746 
-0.0247146 -0.0460253 -0.999355 
-0.0211875 -0.0541149 -0.999022 
-0.0217132 -0.0553437 -0.998947 
-0.0178573 -0.0543834 -0.999071 
-0.0176454 -0.0641143 -0.998498 
-0.0133767 -0.0819693 -0.996857 
0.00848244 -0.0832009 0.996798 
0.00987353 -0.0664698 0.998438 
0.0153213 -0.0547098 0.999105 
0.0140756 -0.0568724 0.998987 
0.0182356 -0.0545814 0.999055 
0.0165633 -0.0468945 0.999471 
0.0192139 -0.0361555 0.999861 
0.0185122 -0.0289043 1.0001 
0.0216225 -0.0237256 1.00017 
0.0204909 -0.0200408 1.00027 
0.0225067 -0.0160715 1.00029 
0.0233809 -0.0124 1.00031 
0.0230615 -0.00885704 1.00046 
0.0243568 -0.00589183 1.00035 
0.0249924 -0.00328647 1.00022 
0.0245963 -0.00112203 1.00046 
0.0255354 0.00104419 1.00021 
0.0247832 0.00367327 1.00034 
0.024121 0.00701669 1.00042 
0.0237042 0.0111075 1.00029 
0.0229932 0.0161435 1.00024 
0.0218375 0.0225225 1.00014 
0.0205396 0.0309593 0.999944 
0.0190009 0.0418275 0.999587 
0.0173865 0.0558513 0.998942 
0.0153159 0.0738481 0.997828 
0.0129789 0.0973269 0.995754 
0.0100404 0.127686 0.992489 
0.00682246 0.168355 0.986577 
0.00392929 0.220563 0.975984 
0.000748204 0.286679 0.958736 
-0.00269432 0.380095 0.925593 
-0.00387804 0.47682 0.879527 
-0.00416665 0.600029 0.800272 
-0.00528859 0.704099 0.710064 
-0.00186274 0.799108 0.600746 
0.000920449 0.88472 0.461672 
0.00210824 0.997478 0.0794971 
0.00258747 0.99654 0.0685031 
0.00232408 0.997662 0.0603924 
0.00161894 0.998833 0.0536815 
-0.0057858 0.996575 -0.0761133 
-0.0021563 0.857476 -0.511429 
0.00172551 0.806093 -0.590862 
0.0045157 0.668426 -0.743761 
0.00434916 0.542761 -0.840379 
0.00560786 0.487019 -0.873873 
0.00350108 0.392064 -0.920573 
0.000225118 0.296597 -0.955738 
-0.00321735 0.227343 -0.974551 
-0.00635258 0.174916 -0.985297 
-0.00978002 0.132765 -0.991941 
-0.0125319 0.0953938 -0.996169 
-0.0152657 0.0740386 -0.997704 
-0.017244 0.0563655 -0.998919 
-0.0193961 0.0405095 -0.999637 
-0.020666 0.0299951 -0.999977 
-0.0221079 0.0217372 -1.00016 
-0.0233737 0.01537 -1.00024 
-0.0238533 0.0105454 -1.0004 
-0.0253367 0.00645674 -1.0002 
-0.0245292 0.00308405 -1.00045 
-0.0248873 0.000415795 -1.00034 
-0.0244938 -0.00163222 -1.00035 
-0.024573 -0.00375758 -1.00035 
-0.0240517 -0.00625707 -1.00035 
-0.0241477 -0.00940158 -1.00032 
-0.0232123 -0.0129176 -1.00031 
-0.02191 -0.016512 -1.0003 
-0.0218307 -0.0204595 -1.00012 
-0.0198412 -0.0249309 -1.00017 
-0.0208192 -0.0296077 -1.00004 
-0.0179779 -0.0364163 -0.999878 
-0.018678 -0.0448308 -0.999535 
-0.0159725 -0.0539715 -0.999119 
-0.0153053 -0.0569662 -0.998961 
-0.0127148 -0.0565729 -0.999012 
-0.0124957 -0.0672789 -0.998365 
-0.00962974 -0.0829745 -0.996808 
0.00666576 -0.0848502 0.996555 
0.00723764 -0.0658706 0.9986 
0.0103307 -0.0568732 0.999025 
0.0102353 -0.0586225 0.998923 
0.0131666 -0.0551586 0.999092 
0.0120024 -0.0467055 0.999527 
0.0144163 -0.0381144 0.999861 
0.0138404 -0.0309302 1.00011 
0.0156128 -0.0245133 1.00026 