# vtk DataFile Version 3.0 
Exported using Morpho https://github.com/Morpho-lang/morpho 
ASCII 
DATASET UNSTRUCTURED_GRID 

POINTS 1978 float 
-8.48528 -2.82843 1.50246e-09 
-8.21125 -2.82843 3.5552e-09 
-8.01115 -2.82843 7.72083e-09 
-7.75071 -2.82843 9.80652e-09 
-7.43912 -2.82843 8.49623e-09 
-7.16985 -2.82843 6.19766e-09 
-6.97205 -2.82843 4.44375e-09 
-6.75097 -2.82843 3.62645e-09 
-6.53848 -2.82843 3.09074e-09 
-6.33301 -2.82843 2.35263e-09 
-6.13108 -2.82843 1.97263e-09 
-5.93017 -2.82843 1.61993e-09 
-5.71404 -2.82843 1.20779e-09 
-5.50888 -2.82843 8.63484e-10 
-5.29345 -2.82843 5.29032e-10 
-5.07914 -2.82843 1.93467e-10 
-4.86138 -2.82843 -1.49597e-10 
-4.65014 -2.82843 -5.52178e-10 
-4.4288 -2.82843 -1.03853e-09 
-4.19897 -2.82843 -1.58167e-09 
-3.98178 -2.82843 -2.22033e-09 
-3.77145 -2.82843 -2.9417e-09 
-3.5602 -2.82843 -3.8243e-09 
-3.34984 -2.82843 -4.89542e-09 
-3.13386 -2.82843 -6.07706e-09 
-2.92243 -2.82843 -7.36651e-09 
-2.72058 -2.82843 -8.7681e-09 
-2.52464 -2.82843 -1.04119e-08 
-2.30765 -2.82843 -1.17899e-08 
-2.09856 -2.82843 -1.26656e-08 
-1.88027 -2.82843 -1.35709e-08 
-1.67774 -2.82843 -1.27967e-08 
-1.47607 -2.82843 -1.2288e-08 
-1.26396 -2.82843 -1.22453e-08 
-1.09569 -2.82843 -6.03012e-09 
-0.839998 -2.82843 -5.32451e-09 
-0.625611 -2.82843 -1.01172e-08 
-0.425089 -2.82843 5.1063e-09 
-0.220273 -2.82843 2.0151e-11 
0.0180013 -2.82843 2.83536e-10 
0.221297 -2.82843 2.84483e-09 
0.425402 -2.82843 6.08399e-10 
0.662527 -2.82843 6.04299e-09 
0.874479 -2.82843 5.93961e-09 
1.06474 -2.82843 1.08582e-08 
1.25131 -2.82843 9.9256e-09 
1.44017 -2.82843 1.09996e-08 
1.66865 -2.82843 1.36013e-08 
1.87061 -2.82843 1.43732e-08 
2.08318 -2.82843 1.3675e-08 
2.31294 -2.82843 1.20348e-08 
2.50259 -2.82843 1.03876e-08 
2.72756 -2.82843 8.883e-09 
2.94611 -2.82843 7.35026e-09 
3.15589 -2.82843 5.91631e-09 
3.35474 -2.82843 4.83167e-09 
3.57721 -2.82843 3.86739e-09 
3.78016 -2.82843 2.96238e-09 
3.99806 -2.82843 2.2533e-09 
4.22833 -2.82843 1.55677e-09 
4.43171 -2.82843 1.00089e-09 
4.64996 -2.82843 5.45897e-10 
4.85518 -2.82843 1.1992e-10 
5.06933 -2.82843 -2.51097e-10 
5.28293 -2.82843 -6.14178e-10 
5.49866 -2.82843 -9.63832e-10 
5.70742 -2.82843 -1.31398e-09 
5.92664 -2.82843 -1.7201e-09 
6.15229 -2.82843 -2.12951e-09 
6.35709 -2.82843 -2.60007e-09 
6.59063 -2.82843 -3.20982e-09 
6.80404 -2.82843 -4.02045e-09 
6.99944 -2.82843 -5.14741e-09 
7.25965 -2.82843 -6.70902e-09 
7.49266 -2.82843 -7.89415e-09 
7.72425 -2.82843 -9.229e-09 
7.98556 -2.82843 -9.87388e-09 
8.17383 -2.82843 -3.1199e-09 
8.48528 -2.82843 -2.60145e-09 
-8.48528 -2.55881 1.88086e-09 
-8.27501 -2.61868 6.71643e-18 
-8.02693 -2.53433 3.72685e-18 
-7.82015 -2.62532 9.06044e-18 
-7.54835 -2.64622 6.46546e-18 
-7.24002 -2.62637 5.72859e-18 
-6.98789 -2.55919 4.55966e-18 
-6.78635 -2.59178 4.40015e-18 
-6.55933 -2.58539 4.16212e-18 
-6.33977 -2.57385 2.8166e-18 
-6.1272 -2.5711 2.2405e-18 
-5.90846 -2.58822 1.86026e-18 
-5.69739 -2.57326 1.34778e-18 
-5.47762 -2.58709 9.48064e-19 
-5.25826 -2.58458 4.66297e-19 
-5.03745 -2.58724 3.46804e-20 
-4.82242 -2.57942 -4.6056e-19 
-4.60186 -2.58944 -1.01316e-18 
-4.37325 -2.59821 -1.55335e-18 
-4.15305 -2.58625 -2.18099e-18 
-3.94151 -2.57995 -3.0505e-18 
-3.73093 -2.5825 -4.02549e-18 
-3.51965 -2.58564 -5.23706e-18 
-3.30436 -2.59485 -6.46765e-18 
-3.09036 -2.59406 -8.14586e-18 
-2.88345 -2.58622 -9.82374e-18 
-2.68348 -2.5824 -1.1617e-17 
-2.46939 -2.60551 -1.40955e-17 
-2.25096 -2.59319 -1.50477e-17 
-2.03445 -2.60047 -1.66556e-17 
-1.81923 -2.58033 -1.82811e-17 
-1.60866 -2.57631 -1.60066e-17 
-1.40058 -2.58456 -2.4632e-17 
-1.22496 -2.49385 3.8142e-18 
-1.01407 -2.62424 -1.47446e-17 
-0.797581 -2.56989 -4.04007e-18 
-0.598662 -2.50703 1.29204e-17 
-0.392994 -2.5003 1.43441e-18 
-0.173302 -2.54883 2.87533e-17 
0.0326632 -2.47996 4.24227e-18 
0.259567 -2.5261 -2.46387e-17 
0.467187 -2.3682 -1.25556e-17 
0.526259 -2.60039 -3.30302e-18 
0.791705 -2.59464 1.49435e-17 
1.03518 -2.55657 2.05253e-17 
1.24697 -2.54567 1.03724e-17 
1.48339 -2.60653 1.34084e-17 
1.69751 -2.57621 1.82891e-17 
1.91684 -2.59948 1.60401e-17 
2.15451 -2.62047 1.82922e-17 
2.36927 -2.57475 1.31258e-17 
2.58069 -2.60461 1.11307e-17 
2.80764 -2.60122 1.1256e-17 
3.01762 -2.58839 8.48332e-18 
3.2213 -2.57328 6.91449e-18 
3.43589 -2.59957 6.01123e-18 
3.64372 -2.57486 4.28508e-18 
3.856 -2.59004 3.36084e-18 
4.08169 -2.60143 2.60965e-18 
4.29276 -2.57121 1.84287e-18 
4.50779 -2.5896 1.2615e-18 
4.71835 -2.57422 6.66509e-19 
4.93332 -2.58627 1.55685e-19 
5.1494 -2.58564 -2.67905e-19 
5.36871 -2.58832 -7.05584e-19 
5.58423 -2.57933 -1.14819e-18 
5.80233 -2.5892 -1.64704e-18 
6.02904 -2.5943 -2.22402e-18 
6.24587 -2.56862 -2.79008e-18 
6.46732 -2.59925 -3.5831e-18 
6.69225 -2.57757 -4.46991e-18 
6.89926 -2.55487 -4.96269e-18 
7.12264 -2.62306 -5.86292e-18 
7.37412 -2.59638 -6.45331e-18 
7.60857 -2.59338 -7.25738e-18 
7.8595 -2.61782 -7.40366e-18 
8.075 -2.52963 -6.19616e-18 
8.30148 -2.64184 -7.40595e-18 
8.48528 -2.51301 -5.13408e-09 
-8.48528 -2.35359 1.73871e-09 
-8.21472 -2.36649 5.05406e-18 
-7.94416 -2.30915 5.72355e-18 
-7.71899 -2.41647 6.19669e-18 
-7.56711 -2.25202 6.74556e-18 
-7.43097 -2.46314 5.2097e-18 
-7.16264 -2.3921 6.27558e-18 
-6.92755 -2.30232 4.77153e-18 
-6.70945 -2.36128 4.46346e-18 
-6.48018 -2.34438 4.13156e-18 
-6.2495 -2.33164 3.12404e-18 
-6.02547 -2.34076 2.37453e-18 
-5.81401 -2.33478 1.77426e-18 
-5.58539 -2.34223 1.2099e-18 
-5.36642 -2.34733 6.55952e-19 
-5.14234 -2.34829 1.85077e-19 
-4.92515 -2.33848 -3.15985e-19 
-4.70353 -2.34602 -8.68127e-19 
-4.47979 -2.36374 -1.46338e-18 
-4.26062 -2.35381 -2.13538e-18 
-4.04507 -2.33668 -2.92231e-18 
-3.8337 -2.33582 -3.7801e-18 
-3.623 -2.34275 -4.97997e-18 
-3.40876 -2.35626 -6.273e-18 
-3.19576 -2.36204 -7.92585e-18 
-2.98493 -2.35344 -9.63041e-18 
-2.7778 -2.33949 -1.17306e-17 
-2.56581 -2.36597 -1.47058e-17 
-2.35327 -2.37695 -1.67535e-17 
-2.12318 -2.36313 -1.76599e-17 
-1.91061 -2.357 -1.99583e-17 
-1.68266 -2.33549 -1.61248e-17 
-1.46781 -2.3231 -7.81339e-18 
-1.26156 -2.24156 -1.72477e-17 
-1.01521 -2.37097 -1.0287e-17 
-0.807119 -2.2931 -1.32507e-17 
-0.580123 -2.21287 -2.87692e-17 
-0.359442 -2.18928 1.75894e-17 
-0.15695 -2.24425 1.48079e-17 
0.0312794 -2.08969 -3.94845e-17 
0.21013 -2.23366 3.50595e-17 
0.417432 -2.10073 -5.69842e-17 
0.663675 -2.15912 1.91006e-17 
0.746183 -2.3709 1.71048e-17 
0.997656 -2.32733 3.49343e-18 
1.23537 -2.2877 1.26719e-17 
1.45011 -2.36554 1.66193e-17 
1.66188 -2.33356 1.97266e-17 
1.87819 -2.35709 1.9617e-17 
2.08886 -2.40112 1.82914e-17 
2.30031 -2.36187 1.8294e-17 
2.53471 -2.35576 1.33009e-17 
2.74218 -2.38503 1.18169e-17 
2.96524 -2.34897 1.01791e-17 
3.16784 -2.33114 8.13693e-18 
3.38424 -2.35838 6.54401e-18 
3.58921 -2.33496 5.24531e-18 
3.80209 -2.34384 3.99103e-18 
4.01553 -2.36826 3.00003e-18 
4.2266 -2.33352 2.25529e-18 
4.44667 -2.34275 1.54179e-18 
4.65362 -2.33044 9.45502e-19 
4.86958 -2.34181 4.10114e-19 
5.08303 -2.34379 -7.09788e-20 
5.29921 -2.35072 -5.43766e-19 
5.5158 -2.3402 -1.0384e-18 
5.73599 -2.34541 -1.57848e-18 
5.95604 -2.35976 -2.18079e-18 
6.17402 -2.33194 -2.95423e-18 
6.40516 -2.34928 -3.64194e-18 
6.61836 -2.34615 -4.44783e-18 
6.83726 -2.30328 -5.02144e-18 
7.0661 -2.36442 -5.79311e-18 
7.28129 -2.39305 -6.59153e-18 
7.53562 -2.35927 -7.63202e-18 
7.78004 -2.39057 -6.68772e-18 
7.99291 -2.29984 -7.13103e-18 
8.25744 -2.36376 -7.0575e-18 
8.48528 -2.26331 -2.70421e-09 
-8.48528 -2.10804 4.84184e-09 
-8.25356 -2.15958 5.33411e-18 
-8.07205 -2.05819 2.51594e-18 
-7.80107 -2.12895 2.72564e-18 
-7.53111 -2.03405 1.97983e-18 
-7.31476 -2.22984 5.78294e-18 
-7.07663 -2.12419 3.00944e-18 
-6.79923 -2.09284 2.01159e-18 
-6.59438 -2.12113 2.14312e-18 
-6.3611 -2.11457 1.96033e-18 
-6.12968 -2.09993 1.34612e-18 
-5.92072 -2.0901 9.24868e-19 
-5.69844 -2.11136 7.14668e-19 
-5.47483 -2.10584 3.75191e-19 
-5.25601 -2.11529 1.62296e-19 
-5.0388 -2.10407 -1.18133e-19 
-4.81729 -2.10678 -3.86221e-19 
-4.59423 -2.12249 -7.55368e-19 
-4.38025 -2.12311 -1.10485e-18 
-4.16669 -2.1072 -1.43692e-18 
-3.95281 -2.09416 -1.72775e-18 
-3.7414 -2.09918 -2.251e-18 
-3.52856 -2.11485 -2.98259e-18 
-3.31717 -2.12598 -3.87984e-18 
-3.1079 -2.12541 -4.70913e-18 
-2.8992 -2.11182 -5.33872e-18 
-2.68032 -2.11746 -6.60783e-18 
-2.47141 -2.13786 -8.47981e-18 
-2.25367 -2.15411 -1.10585e-17 
-2.02743 -2.1179 -9.9249e-18 
-1.80778 -2.12583 -1.00341e-17 
-1.58238 -2.08428 -5.14747e-18 
-1.38749 -2.02412 6.9834e-18 
-1.15198 -1.92581 -9.85661e-18 
-1.06693 -2.11923 1.38185e-17 
-0.826472 -2.05008 -1.88351e-17 
-0.599875 -1.93909 3.15506e-17 
-0.367808 -1.91126 2.0454e-17 
-0.139598 -1.91467 -2.54409e-17 
0.0537028 -1.71873 -1.40574e-17 
0.226203 -1.88828 1.90592e-17 
0.293435 -1.58917 8.6064e-17 
0.468618 -1.85093 5.30534e-17 
0.725785 -1.92057 -4.65047e-17 
0.93253 -2.10993 -4.17889e-18 
1.19289 -2.05276 2.72035e-18 
1.43707 -2.1099 7.15335e-18 
1.66481 -2.10021 3.6434e-18 
1.88967 -2.11765 7.3144e-18 
2.10464 -2.16235 1.01094e-17 
2.34606 -2.15276 1.06886e-17 
2.57091 -2.11982 7.72958e-18 
2.78462 -2.15773 8.16304e-18 
2.98894 -2.09644 4.63067e-18 
3.21274 -2.10908 3.95652e-18 
3.41492 -2.1116 3.21942e-18 
3.62907 -2.09961 2.49482e-18 
3.8436 -2.11179 2.14678e-18 
4.04785 -2.12171 1.6848e-18 
4.27311 -2.10356 1.18144e-18 
4.47885 -2.09392 8.14724e-19 
4.69744 -2.09593 5.33579e-19 
4.91032 -2.10309 2.83258e-19 
5.12664 -2.10715 2.6941e-21 
5.34096 -2.11225 -2.5088e-19 
5.56257 -2.10683 -5.18445e-19 
5.78392 -2.11221 -8.82281e-19 
5.99664 -2.11476 -1.29571e-18 
6.23372 -2.10854 -1.73145e-18 
6.44597 -2.0999 -2.03243e-18 
6.65951 -2.09729 -2.34498e-18 
6.90937 -2.09008 -2.16311e-18 
7.12226 -2.12291 -2.74872e-18 
7.34845 -2.17231 -4.55288e-18 
7.53471 -2.07003 -2.89136e-18 
7.72445 -2.1576 -3.94184e-18 
7.94729 -2.0706 -1.58073e-18 
8.20405 -2.13762 -4.47478e-18 
8.48528 -2.06286 -4.54445e-10 
-8.48528 -1.74587 5.46638e-09 
-8.32582 -1.89001 4.66889e-18 
-7.90531 -1.89306 -1.08968e-18 
-7.67795 -1.8788 -6.80718e-19 
[...]
POINT_DATA 1978 
VECTORS vectors float
0.00124626 -0.00677849 0.999978 
0.00661534 -0.0650603 0.997859 
0.00486527 -0.0815322 0.996659 
0.00607537 -0.0763514 0.997062 
0.00642899 -0.0649337 0.997868 
0.00455685 -0.05291 0.998589 
0.00392256 -0.0439515 0.999027 
0.00429599 -0.0352014 0.999372 
0.00406793 -0.0284063 0.999589 
0.00384059 -0.0228813 0.999732 
0.0037994 -0.0184955 0.999823 
0.00406847 -0.0147286 0.999884 
0.00418624 -0.0110307 0.999931 
0.00422807 -0.00789875 0.999961 
0.00437043 -0.00478604 0.99998 
0.00446629 -0.0018472 0.999989 
0.00433498 0.00121203 0.99999 
0.00442792 0.00469585 0.99998 
0.00481874 0.00893198 0.999949 
0.00470897 0.0141803 0.999889 
0.00425784 0.0202663 0.999786 
0.0040828 0.0274209 0.999616 
0.00407952 0.0362575 0.999335 
0.00416887 0.0471892 0.998878 
0.0041262 0.0611682 0.998119 
0.0036954 0.078286 0.996925 
0.0033215 0.0988527 0.995097 
0.00345021 0.123578 0.99233 
0.00356415 0.157832 0.98746 
0.00338221 0.199644 0.979863 
0.00290899 0.254493 0.967071 
0.00242728 0.317163 0.948368 
0.00201287 0.392191 0.919882 
0.00148569 0.48369 0.875239 
0.00132935 0.569795 0.821786 
0.00115468 0.702444 0.711738 
0.000455598 0.809379 0.587287 
9.293e-05 0.904573 0.426318 
0.00015084 0.972728 0.231948 
5.21017e-05 0.999767 -0.021568 
3.79897e-05 0.972614 -0.232427 
-0.000267994 0.905441 -0.424473 
-0.000780474 0.79678 -0.604269 
-0.000895231 0.68598 -0.72762 
-0.000916503 0.583791 -0.811904 
-0.00137515 0.491165 -0.871066 
-0.00226488 0.407442 -0.913228 
-0.00264103 0.319187 -0.947689 
-0.00291158 0.258236 -0.966078 
-0.00353476 0.204277 -0.978907 
-0.00339069 0.158237 -0.987396 
-0.0035798 0.127415 -0.991844 
-0.00418968 0.0982751 -0.995151 
-0.00402441 0.0766447 -0.997051 
-0.00371957 0.059992 -0.998193 
-0.00402802 0.0474257 -0.998867 
-0.00410165 0.0362381 -0.999335 
-0.0041869 0.0276681 -0.999609 
-0.00467615 0.0202674 -0.999784 
-0.00446607 0.0138685 -0.999894 
-0.004185 0.00898645 -0.999952 
-0.00418011 0.00467524 -0.999981 
-0.00419304 0.00103973 -0.999991 
-0.00434701 -0.0024059 -0.999988 
-0.00440124 -0.00551737 -0.999976 
-0.00424618 -0.00857979 -0.999955 
-0.00439406 -0.0117135 -0.999922 
-0.00464769 -0.0150434 -0.999876 
-0.00438603 -0.0190369 -0.99981 
-0.00459189 -0.0236485 -0.99971 
-0.00454554 -0.0300672 -0.999538 
-0.00382159 -0.0380629 -0.999269 
-0.0045989 -0.0475918 -0.998857 
-0.00528943 -0.0620441 -0.998059 
-0.0049448 -0.075021 -0.99717 
-0.00507189 -0.0843228 -0.996426 
-0.00482586 -0.0893703 -0.995987 
-0.00816726 -0.0747164 -0.99717 
-0.00196358 -0.00769529 -0.99997 
-0.0061908 -0.00617199 0.999963 
0.0164001 -0.0489181 0.998668 
0.0282924 -0.0695097 0.99718 
0.0286948 -0.0750685 0.996766 
0.0270783 -0.067609 0.997344 
0.0295808 -0.0552027 0.998037 
0.0366796 -0.0448948 0.998318 
0.0349399 -0.0369853 0.998705 
0.0366324 -0.0292424 0.998901 
0.0377199 -0.0232363 0.999018 
0.0384969 -0.0184265 0.999089 
0.0375269 -0.0142456 0.999194 
0.03905 -0.0105102 0.999182 
0.0379278 -0.0071334 0.999255 
0.0381199 -0.00401005 0.999265 
0.0377723 -0.000925508 0.999286 
0.0384398 0.00223909 0.999259 
0.0371792 0.00590502 0.999291 
0.0361823 0.0104695 0.99929 
0.0373141 0.0158476 0.999178 
0.0377188 0.0220357 0.999045 
0.0371166 0.0295138 0.998875 
0.0365263 0.0387537 0.998581 
0.0350253 0.0505268 0.998108 
0.0344698 0.0652203 0.997275 
0.0340699 0.0830148 0.995966 
0.0329479 0.104268 0.994003 
0.0290961 0.132505 0.990755 
0.0275726 0.169517 0.985142 
0.0242394 0.216122 0.976066 
0.0224918 0.273826 0.961516 
0.0190614 0.342829 0.939205 
0.0154569 0.423768 0.905639 
0.014287 0.506387 0.862188 
0.00826996 0.620742 0.783971 
0.00680368 0.736969 0.675892 
0.00554371 0.833106 0.553086 
0.00312483 0.912973 0.408009 
0.000772723 0.980609 0.195975 
-0.000522673 0.999626 -0.0273271 
-0.00198375 0.967315 -0.253569 
-0.00556808 0.903048 -0.429504 
-0.00404896 0.862285 -0.506407 
-0.00795932 0.722807 -0.691004 
-0.0118973 0.593206 -0.804963 
-0.0148689 0.487698 -0.872886 
-0.0162819 0.388481 -0.921313 
-0.0207443 0.309403 -0.950705 
-0.0228575 0.244543 -0.969369 
-0.025005 0.188931 -0.981672 
-0.0304548 0.149952 -0.988224 
-0.0292401 0.117745 -0.992613 
-0.0321302 0.0906181 -0.995367 
-0.03409 0.071152 -0.996883 
-0.0364919 0.0562283 -0.997751 
-0.0349747 0.0435603 -0.998439 
-0.0375395 0.0337156 -0.998726 
-0.0364944 0.0253866 -0.999011 
-0.0357851 0.0181058 -0.999196 
-0.0388729 0.0125546 -0.999165 
-0.0374492 0.00776214 -0.999268 
-0.0389948 0.0038045 -0.999232 
-0.0380713 0.000167277 -0.999275 
-0.0381802 -0.0031691 -0.999266 
-0.0381119 -0.00637647 -0.999253 
-0.0388803 -0.00946019 -0.999199 
-0.0376529 -0.0127755 -0.999209 
-0.0369682 -0.0166406 -0.999178 
-0.0389854 -0.0210685 -0.999018 
-0.0353907 -0.0267357 -0.999016 
-0.0370067 -0.0341718 -0.998731 
-0.0382222 -0.0426484 -0.998359 
-0.03127 -0.0534082 -0.998083 
-0.0334491 -0.0659768 -0.99726 
-0.032973 -0.076399 -0.996532 
-0.0291511 -0.0828834 -0.996133 
-0.0301459 -0.071313 -0.996998 
-0.0149157 -0.0473421 -0.998768 
0.00952084 -0.00865623 -0.999917 
-0.00531437 -0.00687286 0.999963 
0.0255377 -0.0511284 0.998366 
0.0405933 -0.0697863 0.996736 
0.0422765 -0.0714307 0.996549 
0.0485525 -0.0658058 0.996651 
0.0413585 -0.0618295 0.99723 
0.0475593 -0.0512754 0.997552 
0.0517758 -0.042329 0.997761 
0.0512503 -0.0342709 0.998098 
0.0535409 -0.0268674 0.998204 
0.0547516 -0.0207892 0.998284 
0.0550098 -0.0159537 0.998358 
0.0554972 -0.011986 0.998387 
0.0555613 -0.00833669 0.998421 
0.0554896 -0.00514988 0.998446 
0.0553185 -0.0019805 0.998467 
0.0555627 0.00117099 0.998455 
0.0549111 0.00463087 0.998481 
0.0538522 0.00867915 0.998511 
0.0539999 0.0135169 0.99845 
0.0543121 0.0192707 0.998338 
0.0538332 0.0260911 0.998209 
0.0530996 0.0344038 0.997996 
0.0518325 0.044903 0.997646 
0.0506012 0.0579405 0.997037 
0.0494751 0.0741837 0.996017 
0.0480425 0.0940635 0.994406 
0.0448341 0.119388 0.991835 
0.0411438 0.151617 0.987583 
0.0372407 0.19675 0.979746 
0.0331271 0.249576 0.967789 
0.0280449 0.321481 0.946501 
0.0230341 0.402072 0.915318 
0.0193734 0.489233 0.871938 
0.0139081 0.5997 0.800104 
0.0110726 0.708858 0.705264 
0.00715423 0.828205 0.560379 
0.00241569 0.926907 0.375284 
0.000121832 0.9816 0.190951 
-0.00374631 0.99988 -0.0150337 
-0.00536285 0.98102 -0.193834 
-0.00920132 0.919408 -0.393198 
-0.0103473 0.80451 -0.593849 
-0.0107065 0.734072 -0.678988 
-0.0160212 0.601162 -0.798966 
-0.0204967 0.49229 -0.87019 
-0.0241367 0.397842 -0.917137 
-0.02929 0.324462 -0.945445 
-0.033026 0.259481 -0.965183 
-0.0361633 0.205782 -0.977929 
-0.0411591 0.162666 -0.985822 
-0.0439299 0.124711 -0.99122 
-0.045686 0.0982669 -0.994111 
-0.0490714 0.0758956 -0.995908 
-0.0512185 0.0601823 -0.996873 
-0.0515183 0.0466642 -0.997581 
-0.0532629 0.036404 -0.997917 
-0.0534742 0.0276937 -0.998185 
-0.0529583 0.0204641 -0.998387 
-0.054814 0.0146591 -0.998389 
-0.0548307 0.00954427 -0.99845 
-0.0556335 0.00548611 -0.998436 
-0.0555339 0.00174167 -0.998455 
-0.0557183 -0.00160573 -0.998445 
-0.0556641 -0.0048107 -0.998438 
-0.0561323 -0.00792893 -0.998392 
-0.0557064 -0.0112636 -0.998384 
-0.0547725 -0.0149924 -0.998386 
-0.0554118 -0.019307 -0.998277 
-0.0538403 -0.0251068 -0.998234 
-0.053092 -0.0318201 -0.998083 
-0.0534829 -0.0402166 -0.997759 
-0.0503626 -0.0500301 -0.997477 
-0.0482572 -0.0597629 -0.997046 
-0.0482261 -0.0700578 -0.996377 
-0.0453187 -0.0782467 -0.995904 
-0.0433868 -0.0734642 -0.996354 
-0.0246814 -0.0481456 -0.998535 
0.00565953 -0.00753472 -0.999956 
-0.00916755 -0.00970145 0.999912 
0.0234495 -0.0461705 0.998658 
0.0350788 -0.0643304 0.997312 
0.0448585 -0.0714347 0.996436 
0.0463821 -0.0643456 0.996849 
0.0505711 -0.056704 0.99711 
0.0514148 -0.0480582 0.997521 
0.052908 -0.0381985 0.997869 
0.0546407 -0.030915 0.998027 
0.0558348 -0.0237182 0.998158 
0.0563496 -0.0180109 0.998249 
0.0565792 -0.0137001 0.998304 
0.0572091 -0.00980713 0.998314 
0.0571944 -0.00632614 0.998343 
0.0571811 -0.00314257 0.998359 
0.0567668 -8.36876e-06 0.998388 
0.0565402 0.00332797 0.998395 
0.0564103 0.00704406 0.998383 
0.0559913 0.0112838 0.998368 
0.0553373 0.0163994 0.998333 
0.0546034 0.0226386 0.998252 
0.054081 0.0300995 0.998083 
0.0535933 0.0393761 0.997786 
0.0527103 0.050792 0.997317 
0.0513333 0.0649765 0.996566 
0.0493437 0.0827218 0.99535 
0.0470022 0.106106 0.993243 
0.0443778 0.134382 0.989936 
0.0409252 0.171673 0.984304 
0.0359469 0.221917 0.974403 
0.0311976 0.283554 0.958449 
0.0254907 0.36168 0.931954 
0.0209435 0.439493 0.898002 
0.0164124 0.546126 0.837542 
0.015276 0.582751 0.812507 
0.0109351 0.710331 0.703783 
0.0062828 0.828839 0.559452 
0.00210847 0.93095 0.365142 
-0.00186823 0.990033 0.14082 
-0.00403906 0.998417 -0.0561042 
-0.00739676 0.968877 -0.247434 
-0.00823521 0.950858 -0.309519 
-0.0102546 0.878982 -0.476745 
-0.0126814 0.756372 -0.654019 
-0.0148115 0.647623 -0.761817 
-0.0192112 0.517733 -0.855326 
-0.0242899 0.412612 -0.910583 
-0.0289435 0.33116 -0.943131 
-0.0337295 0.259958 -0.965031 
-0.038311 0.203787 -0.978265 
-0.0427294 0.154147 -0.987124 
-0.0456695 0.119741 -0.991754 
-0.0487072 0.0938073 -0.994398 
-0.0497668 0.0747148 -0.995962 
-0.0516849 0.0578232 -0.996988 
-0.0528166 0.0456031 -0.997562 
-0.0536875 0.0351606 -0.997939 
-0.0546352 0.0266293 -0.998151 
-0.0552238 0.0200028 -0.998274 
-0.0555808 0.0140033 -0.998356 
-0.0557401 0.0094172 -0.998401 
-0.056189 0.00523066 -0.998407 
-0.056677 0.00164621 -0.998391 
-0.0570615 -0.00166099 -0.998369 
-0.0573843 -0.00482783 -0.998341 
-0.0574378 -0.00810453 -0.998316 
-0.0573924 -0.0116167 -0.998284 
-0.0570983 -0.0154638 -0.998249 
-0.0565555 -0.0206478 -0.998186 
-0.05551 -0.0265072 -0.998106 
-0.0545153 -0.0336387 -0.997946 
-0.053336 -0.0435511 -0.997627 
-0.0524874 -0.0523388 -0.997249 
-0.0518383 -0.0614502 -0.996763 
-0.0493847 -0.0676317 -0.996487 
-0.0490691 -0.0743882 -0.996021 
-0.0439212 -0.0740223 -0.996289 
-0.0304149 -0.0532195 -0.99812 
0.00391907 -0.00637702 -0.999973 
-0.00908137 -0.0105807 0.999904 
0.013338 -0.0359843 0.999263 
0.0376693 -0.0716995 0.996715 
0.0409073 -0.0691721 0.996766 
0.0410729 -0.061605 0.997255 
0.0477459 -0.0566471 0.997252 
0.0451127 -0.0522497 0.997615 
0.0483865 -0.0441801 0.997851 
0.0486295 -0.035321 0.998192 
0.0510714 -0.0277975 0.998308 
0.0516196 -0.0211344 0.998443 
0.0511934 -0.0159692 0.998561 
0.0521902 -0.0116081 0.99857 
0.0525946 -0.00790371 0.998585 
0.0523198 -0.00442922 0.998621 
0.0520085 -0.00134816 0.998646 
0.0516818 0.00188505 0.998662 
0.0515915 0.00538017 0.998654 
0.0512574 0.00921247 0.998643 
0.0507011 0.0136738 0.99862 
0.0499444 0.019127 0.998569 
0.049248 0.0257974 0.998453 
0.0489789 0.0338319 0.998227 
0.0485393 0.0435786 0.99787 
0.0476781 0.0555537 0.997317 
0.0461805 0.0704538 0.996446 
0.0442183 0.0901292 0.994948 
0.0417042 0.114848 0.992507 
0.0393012 0.145775 0.988537 
0.0359815 0.186426 0.98181 
0.030771 0.245338 0.968949 
0.026581 0.310392 0.950237 
0.0217556 0.380711 0.924438 
0.0177476 0.472196 0.881315 
0.0121236 0.672343 0.740141 
0.00837373 0.789148 0.614146 
0.00419834 0.90941 0.415881 
0.00312833 0.958196 0.286096 
0.000481906 0.97934 0.202222 
-0.00400784 0.999642 -0.0264399 
-0.00479619 0.99009 -0.140354 
-0.0093483 0.912963 -0.407935 
-0.011328 0.835818 -0.54889 
-0.0129925 0.709345 -0.704742 
-0.0153264 0.61049 -0.791876 
-0.0163243 0.542809 -0.839698 
-0.019961 0.460734 -0.887314 
-0.0238014 0.372425 -0.927757 
-0.0283197 0.291642 -0.956108 
-0.0331547 0.225298 -0.973726 
-0.037395 0.176932 -0.983512 
-0.0403218 0.136801 -0.989778 
-0.043449 0.103162 -0.993715 
-0.0445062 0.0834359 -0.995519 
-0.0465147 0.064039 -0.996863 
-0.0474393 0.0500739 -0.997618 
-0.0484852 0.039305 -0.99805 
-0.049384 0.0298985 -0.998332 
-0.0498778 0.0226289 -0.998499 
-0.0507289 0.01667 -0.998573 
-0.0502456 0.0115214 -0.998671 
-0.0509887 0.00720556 -0.998673 
-0.0513711 0.0033776 -0.998674 
-0.0519463 2.59702e-05 -0.99865 
-0.0523106 -0.00322709 -0.998626 
-0.0526305 -0.00645446 -0.998593 
-0.0526118 -0.0100314 -0.998565 
-0.0522444 -0.0139552 -0.998537 
-0.0523955 -0.0186698 -0.998452 
-0.050823 -0.024724 -0.998402 
-0.0497107 -0.0318011 -0.998257 
-0.0494341 -0.0403093 -0.997964 
-0.0475281 -0.0503582 -0.9976 
-0.0475921 -0.0586639 -0.997143 
-0.0440979 -0.0664029 -0.996818 
-0.0429582 -0.073553 -0.996366 
-0.0359173 -0.0700633 -0.996896 
-0.0246009 -0.0493 -0.998481 
0.00425144 -0.00733041 -0.999965 
-0.00440721 -0.00730862 0.999964 
0.0149377 -0.043671 0.998934 
0.0256466 -0.0583061 0.997969 
0.0319486 -0.0725169 0.996855 
0.0354682 -0.0694078 0.996958 
0.0389483 -0.057645 0.997577 
0.0414577 -0.0486151 0.997957 
0.043456 -0.0406954 0.998226 
0.0446483 -0.0305649 0.998535 
0.0459481 -0.0239184 0.998658 
0.045461 -0.0181421 0.998801 
0.0458986 -0.012851 0.998864 
0.0465088 -0.00886375 0.998879 
0.0466528 -0.005312 0.998897 
0.0458604 -0.00192343 0.998946 
0.0458384 0.00118969 0.998948 
0.0457476 0.00460487 0.998943 
0.0452035 0.00836394 0.998943 
0.0446208 0.0125997 0.998925 
0.044057 0.0176003 0.998874 
0.0434987 0.0237649 0.998771 
0.0431397 0.0313674 0.998577 
0.0428799 0.0404192 0.998262 
0.0423308 0.0514644 0.997777 
0.0412433 0.0651474 0.997023 
0.0398685 0.0829207 0.995758 
0.0376794 0.106062 0.993646 
0.0352577 0.136539 0.990007 
0.0327477 0.174012 0.984199 
0.0291318 0.224449 0.97405 
0.0239694 0.297309 0.954481 
0.0190456 0.382029 0.923954 
0.0148819 0.485164 0.874296 
0.0105138 0.595191 0.803516 
0.0131511 0.589454 0.807695 
0.00888536 0.709152 0.705 
0.00660111 0.852128 0.523292 
0.00504635 0.894632 0.446777 
8.35101e-05 0.99167 0.128802 
0.00306566 0.999549 0.0299044 
0.000283012 0.998671 -0.0515491 
-0.00495788 0.954774 -0.297293 
-0.0087709 0.850106 -0.526539 
-0.0111318 0.79837 -0.602064 
-0.0139095 0.655968 -0.754661 
-0.016123 0.52069 -0.853594 
-0.0192698 0.425643 -0.904686 
-0.0227964 0.33826 -0.940777 
-0.0269997 0.262119 -0.964658 
-0.0305858 0.205877 -0.9781 
-0.034108 0.163419 -0.985967 
-0.0378708 0.122687 -0.991723 
-0.0376759 0.09778 -0.994495 
-0.0405327 0.0758731 -0.996293 
-0.0414441 0.0594985 -0.997368 
-0.0418742 0.0468892 -0.998022 
-0.0431832 0.03642 -0.998403 
-0.0434859 0.028099 -0.998659 
-0.0439322 0.021252 -0.998809 
-0.0446673 0.0156827 -0.998879 
-0.0441755 0.0107141 -0.998966 
-0.0451361 0.00656218 -0.998959 
-0.0452697 0.00297941 -0.99897 
-0.0460274 -0.000354472 -0.99894 
-0.0462106 -0.0035534 -0.998925 
-0.0467982 -0.00697674 -0.99888 
-0.046537 -0.01066 -0.99886 
-0.0463294 -0.0150376 -0.998813 
-0.046317 -0.0201046 -0.998725 
-0.0445143 -0.0266048 -0.998655 
-0.0439164 -0.0346868 -0.998433 
-0.0439555 -0.0438871 -0.998069 
-0.0413338 -0.0526218 -0.997759 
-0.0418948 -0.0596179 -0.997342 
-0.0382108 -0.0672118 -0.997007 
-0.0372894 -0.0732979 -0.996613 
-0.0307917 -0.0701381 -0.997062 
-0.0189944 -0.0458995 -0.998766 
0.00369895 -0.00728397 -0.999967 
-0.00221372 -0.00596727 0.999981 
0.0143183 -0.0488972 0.998701 
0.0245592 -0.0671512 0.997441 
0.0281952 -0.0728334 0.996946 
0.0337413 -0.0651304 0.997306 
0.0320308 -0.0602392 0.99767 
0.0355633 -0.0528591 0.997969 
0.0356746 -0.043472 0.998418 
0.0389778 -0.0352169 0.998619 
0.0380327 -0.0267591 0.998918 
0.0383989 -0.020895 0.999044 
0.039119 -0.0150912 0.999121 
0.0387825 -0.0103276 0.999194 
0.0393246 -0.00659018 0.999205 
0.0392278 -0.00320456 0.999225 
0.0383506 0.000141046 0.999264 
0.0387907 0.00329203 0.999242 
0.0383132 0.00675212 0.999243 
0.0374477 0.0106418 0.999242 
0.0368263 0.0150849 0.999208 
0.0365614 0.0204665 0.999122 
0.0362904 0.0270732 0.998975 
0.0359389 0.0350652 0.998739 
0.0356955 0.0446662 0.998364 
0.0351286 0.0565445 0.997782 
0.0343376 0.0719681 0.996816 
0.0330187 0.0918687 0.995224 
0.0311295 0.118878 0.992421 
0.0287519 0.154146 0.98763 
0.0265469 0.198587 0.979724 
0.0231828 0.260503 0.965195 
0.0180495 0.34539 0.938286 
0.0132317 0.460111 0.887763 
0.0103594 0.55988 0.828509 
0.00631084 0.77991 0.62586 
0.00725162 0.823108 0.567839 
0.00811437 0.911675 0.410833 
0.0107068 0.965256 0.261085 
0.00389737 0.98052 0.196382 
0.00314746 0.999955 -0.00890452 
-0.00433311 0.982033 -0.188661 
-0.00270171 0.974319 -0.225155 
-0.00644929 0.906296 -0.422594 
-0.010459 0.772439 -0.635004 
-0.0125753 0.705223 -0.708875 
-0.0143654 0.565603 -0.824552 
-0.0167444 0.427136 -0.904033 
-0.0192694 0.346917 -0.937698 
-0.0228006 0.272333 -0.961933 
-0.0258376 0.210909 -0.977164 
-0.0286837 0.16447 -0.985965 
-0.0324845 0.131396 -0.990798 
-0.0307461 0.110642 -0.993385 
-0.0336621 0.0850128 -0.995811 
-0.0348068 0.0670178 -0.997145 
-0.0348598 0.0526551 -0.998004 
-0.0358096 0.0408817 -0.998522 
-0.0362524 0.0319653 -0.998831 
-0.0365414 0.0244579 -0.999033 
-0.0368949 0.0183065 -0.999152 
-0.03743 0.0133347 -0.99921 
-0.0374039 0.00857992 -0.999263 
-0.037835 0.004912 -0.999272 
-0.0383685 0.00137711 -0.999263 
-0.0386725 -0.00184104 -0.99925 
-0.0393232 -0.00529654 -0.999213 
-0.0393952 -0.00890541 -0.999184 
-0.0393908 -0.0132174 -0.999137 
-0.0390972 -0.0184679 -0.999065 
-0.0382469 -0.0244395 -0.99897 
-0.0373095 -0.0327954 -0.998766 
-0.0374505 -0.0422852 -0.998404 
-0.0355391 -0.052844 -0.99797 
-0.0350822 -0.0619305 -0.997464 
-0.031321 -0.0691879 -0.997112 
-0.0313052 -0.0741057 -0.996759 
-0.0255029 -0.0719981 -0.997079 
-0.0182331 -0.05088 -0.998538 
0.00295315 -0.0069645 -0.999972 
-0.00164541 -0.00582417 0.999983 
0.0119563 -0.0512134 0.998616 
0.0216974 -0.0715583 0.9972 
0.0220807 -0.0743328 0.996989 
0.0272805 -0.0686084 0.997271 
0.0263012 -0.0612948 0.997773 
0.0288736 -0.0510676 0.998278 
0.0283977 -0.0414819 0.998736 
0.0315575 -0.0333616 0.998945 
0.0288763 -0.0264566 0.999233 
0.0309086 -0.0195201 0.999332 
0.0314323 -0.0137754 0.999411 
0.0304886 -0.00909355 0.999494 
0.0311642 -0.00531631 0.9995 
0.0310901 -0.00184419 0.999515 
0.0301936 0.00159318 0.999543 
0.0305532 0.0048286 0.999522 
0.0298111 0.0084218 0.99952 
0.0288617 0.0125134 0.999505 
0.0286437 0.0173572 0.999439 
0.0286273 0.0232061 0.999321 
0.0283966 0.0302351 0.999139 
0.0279876 0.0386961 0.998859 
0.0278152 0.0491111 0.998406 
0.027537 0.062412 0.997671 
0.0268274 0.0796158 0.996465 
0.0258629 0.102617 0.994385 
0.0241893 0.133098 0.990808 
0.0221059 0.173336 0.984615 
0.0206961 0.224812 0.974182 
0.0177696 0.290336 0.95676 
0.0136437 0.392816 0.919516 
0.011067 0.490294 0.871487 
0.00960991 0.610672 0.791825 
0.00786333 0.669907 0.742404 
0.0126293 0.866813 0.498473 
0.00620499 0.977985 0.208599 
0.00514135 0.994342 0.106102 
0.0029112 0.997579 0.0694779 
0.000739652 0.999975 0.00707222 
-0.000323563 0.999242 -0.0389263 
-0.00125415 0.995966 -0.0897265 
-0.00944075 0.934509 -0.355822 
-0.00717693 0.870795 -0.491593 
-0.0119179 0.625469 -0.780158 
-0.010169 0.550645 -0.834678 
-0.0134395 0.484318 -0.874789 
-0.0141472 0.392021 -0.919848 
-0.0169798 0.310924 -0.950283 
-0.0198543 0.242321 -0.969993 
-0.0219955 0.184761 -0.982537 
-0.0246688 0.140445 -0.989781 
-0.0255927 0.101405 -0.994516 
-0.0269558 0.0796623 -0.996457 
-0.027708 0.0624991 -0.99766 
-0.027967 0.0482979 -0.998441 
-0.0281096 0.0379715 -0.998883 
-0.0285893 0.0295517 -0.999154 
-0.0287508 0.0226253 -0.999331 
-0.0287523 0.0169805 -0.999442 
-0.0301091 0.0120034 -0.999475 
-0.0291212 0.00784347 -0.999545 
-0.0301345 0.00412965 -0.999537 
-0.0300209 0.000842773 -0.999549 
-0.0307471 -0.00254138 -0.999524 
-0.0309236 -0.0059771 -0.999504 
-0.0313424 -0.00993011 -0.999459 
-0.0314073 -0.0146197 -0.9994 
-0.0304868 -0.0200254 -0.999335 
-0.0307183 -0.0271316 -0.99916 
-0.0294732 -0.0355043 -0.998935 
-0.0304709 -0.0442533 -0.998556 
-0.0277346 -0.0531112 -0.998203 
-0.0289784 -0.0609839 -0.997718 
-0.0253882 -0.0684955 -0.997328 
-0.024274 -0.0748243 -0.996901 
-0.0193413 -0.0712167 -0.997273 
-0.0129654 -0.0471103 -0.998806 
0.00248091 -0.00699012 -0.999973 
-0.0011082 -0.00557423 0.999986 
0.00834039 -0.049216 0.998753 
0.0162797 -0.0720879 0.997266 
0.0170665 -0.0752813 0.997016 
0.0215939 -0.0684347 0.997422 
0.0191081 -0.0631162 0.997823 
0.0224303 -0.0549431 0.998238 
0.0215548 -0.0447579 0.998765 