# vtk DataFile Version 3.0 
Exported using Morpho https://github.com/Morpho-lang/morpho 
ASCII 
DATASET UNSTRUCTURED_GRID 

POINTS 2054 float 
-8.48528 -2.82843 0 
-8.20636 -2.82843 0 
-7.94054 -2.82843 0 
-7.6904 -2.82843 0 
-7.45357 -2.82843 0 
-7.22694 -2.82843 0 
-7.00705 -2.82843 0 
-6.79111 -2.82843 0 
-6.57731 -2.82843 0 
-6.36453 -2.82843 0 
-6.15219 -2.82843 0 
-5.94 -2.82843 0 
-5.72786 -2.82843 0 
-5.51573 -2.82843 0 
-5.3036 -2.82843 0 
-5.09147 -2.82843 0 
-4.87933 -2.82843 0 
-4.6672 -2.82843 0 
-4.45507 -2.82843 0 
-4.24294 -2.82843 0 
-4.03081 -2.82843 0 
-3.81867 -2.82843 0 
-3.60654 -2.82843 0 
-3.39441 -2.82843 0 
-3.18228 -2.82843 0 
-2.97015 -2.82843 0 
-2.75801 -2.82843 0 
-2.54588 -2.82843 0 
-2.33375 -2.82843 0 
-2.12162 -2.82843 0 
-1.90949 -2.82843 0 
-1.69735 -2.82843 0 
-1.48522 -2.82843 0 
-1.27309 -2.82843 0 
-1.06096 -2.82843 0 
-0.848825 -2.82843 0 
-0.636693 -2.82843 0 
-0.424561 -2.82843 0 
-0.212429 -2.82843 0 
-0.000296761 -2.82843 0 
0.211835 -2.82843 0 
0.423967 -2.82843 0 
0.636099 -2.82843 0 
0.848231 -2.82843 0 
1.06036 -2.82843 0 
1.2725 -2.82843 0 
1.48463 -2.82843 0 
1.69676 -2.82843 0 
1.90889 -2.82843 0 
2.12102 -2.82843 0 
2.33316 -2.82843 0 
2.54529 -2.82843 0 
2.75742 -2.82843 0 
2.96955 -2.82843 0 
3.18168 -2.82843 0 
3.39382 -2.82843 0 
3.60595 -2.82843 0 
3.81808 -2.82843 0 
4.03021 -2.82843 0 
4.24234 -2.82843 0 
4.45448 -2.82843 0 
4.66661 -2.82843 0 
4.87874 -2.82843 0 
5.09087 -2.82843 0 
5.303 -2.82843 0 
5.51514 -2.82843 0 
5.72727 -2.82843 0 
5.93941 -2.82843 0 
6.15159 -2.82843 0 
6.36393 -2.82843 0 
6.57672 -2.82843 0 
6.79055 -2.82843 0 
7.00652 -2.82843 0 
7.22647 -2.82843 0 
7.45313 -2.82843 0 
7.69005 -2.82843 0 
7.9403 -2.82843 0 
8.20621 -2.82843 0 
8.48528 -2.82843 0 
-8.48528 -2.5495 0 
-8.30526 -2.64845 0 
-8.07062 -2.59995 0 
-7.83904 -2.59637 0 
-7.59595 -2.59733 0 
-7.36578 -2.59177 0 
-7.13796 -2.5933 0 
-6.90908 -2.59428 0 
-6.68421 -2.5916 0 
-6.46568 -2.58832 0 
-6.24926 -2.58859 0 
-6.03358 -2.58941 0 
-5.81848 -2.59013 0 
-5.60402 -2.59075 0 
-5.39005 -2.59135 0 
-5.17642 -2.59186 0 
-4.96311 -2.59223 0 
-4.75009 -2.59242 0 
-4.53736 -2.59244 0 
-4.32497 -2.59236 0 
-4.1128 -2.59242 0 
-3.90059 -2.59259 0 
-3.68835 -2.5926 0 
-3.47627 -2.59248 0 
-3.26428 -2.59251 0 
-3.05216 -2.59271 0 
-2.83986 -2.59283 0 
-2.62755 -2.59274 0 
-2.41539 -2.59253 0 
-2.20336 -2.59238 0 
-1.99135 -2.59238 0 
-1.77924 -2.59246 0 
-1.56704 -2.59244 0 
-1.35495 -2.59215 0 
-1.14319 -2.59183 0 
-0.931581 -2.59195 0 
-0.719663 -2.59256 0 
-0.507197 -2.59324 0 
-0.294425 -2.59354 0 
-0.0817689 -2.59344 0 
0.130587 -2.59325 0 
0.342804 -2.59322 0 
0.555051 -2.59322 0 
0.767233 -2.59303 0 
0.97919 -2.59278 0 
1.19107 -2.59278 0 
1.40311 -2.59289 0 
1.61524 -2.59286 0 
1.82732 -2.59279 0 
2.03943 -2.59281 0 
2.25163 -2.5928 0 
2.46381 -2.59266 0 
2.67591 -2.59254 0 
2.88801 -2.59237 0 
3.10001 -2.59226 0 
3.31203 -2.59216 0 
3.52402 -2.59207 0 
3.73601 -2.59208 0 
3.94815 -2.59221 0 
4.16052 -2.5923 0 
4.37309 -2.59232 0 
4.58593 -2.59227 0 
4.79921 -2.5922 0 
5.01319 -2.59212 0 
5.22833 -2.5921 0 
5.44534 -2.59239 0 
5.6657 -2.59346 0 
5.89185 -2.59569 0 
6.12685 -2.59429 0 
6.36853 -2.59189 0 
6.6108 -2.57787 0 
6.84491 -2.61411 0 
7.08804 -2.58476 0 
7.34858 -2.60369 0 
7.58803 -2.59327 0 
7.83059 -2.59326 0 
8.06387 -2.59199 0 
8.30038 -2.64348 0 
8.48528 -2.54936 0 
-8.48528 -2.28369 0 
-8.25701 -2.4138 0 
-8.01078 -2.35334 0 
-7.73666 -2.37963 0 
-7.49744 -2.35565 0 
-7.26898 -2.35831 0 
-7.03324 -2.36676 0 
-6.7997 -2.36275 0 
-6.5773 -2.35166 0 
-6.35808 -2.3495 0 
-6.14038 -2.35058 0 
-5.92336 -2.35185 0 
-5.70723 -2.35272 0 
-5.49199 -2.35362 0 
-5.27734 -2.35447 0 
-5.0632 -2.35505 0 
-4.84958 -2.35534 0 
-4.63641 -2.35533 0 
-4.42363 -2.35504 0 
-4.21126 -2.35485 0 
-3.99909 -2.35513 0 
-3.78684 -2.3554 0 
-3.57461 -2.35516 0 
-3.36263 -2.35498 0 
-3.15066 -2.35537 0 
-2.93843 -2.35586 0 
-2.72604 -2.35589 0 
-2.51374 -2.35551 0 
-2.30162 -2.35509 0 
-2.08964 -2.35496 0 
-1.87761 -2.35518 0 
-1.66544 -2.3554 0 
-1.45322 -2.35518 0 
-1.2412 -2.35438 0 
-1.02967 -2.35407 0 
-0.818162 -2.35505 0 
-0.606054 -2.35676 0 
-0.393243 -2.3579 0 
-0.180256 -2.35789 0 
0.0323765 -2.35727 0 
0.244686 -2.35692 0 
0.456926 -2.35692 0 
0.669206 -2.35667 0 
0.881318 -2.35598 0 
1.09315 -2.35559 0 
1.305 -2.35583 0 
1.51709 -2.35595 0 
1.72919 -2.35571 0 
1.9412 -2.35566 0 
2.15334 -2.3558 0 
2.36559 -2.3556 0 
2.57772 -2.35522 0 
2.78976 -2.35507 0 
3.0019 -2.35461 0 
3.21373 -2.35451 0 
3.42571 -2.35439 0 
3.63769 -2.35431 0 
3.84965 -2.35453 0 
4.06183 -2.35491 0 
4.27435 -2.35507 0 
4.48707 -2.35507 0 
4.70017 -2.35506 0 
4.91376 -2.35498 0 
5.12819 -2.35502 0 
5.34378 -2.35528 0 
5.56106 -2.35662 0 
5.78097 -2.35971 0 
6.00401 -2.36251 0 
6.2308 -2.3624 0 
6.45748 -2.35551 0 
6.68075 -2.33423 0 
6.88797 -2.39744 0 
7.05313 -2.27289 0 
7.24377 -2.40237 0 
7.48542 -2.36016 0 
7.73055 -2.36599 0 
7.99177 -2.33552 0 
8.24864 -2.40698 0 
8.48528 -2.28345 0 
-8.48528 -2.03355 0 
-8.25312 -2.18214 0 
-8.03669 -2.07913 0 
-7.83956 -2.18231 0 
-7.6106 -2.12852 0 
-7.38852 -2.10959 0 
-7.16268 -2.14097 0 
-6.9229 -2.1435 0 
-6.70119 -2.12055 0 
-6.48111 -2.11285 0 
-6.26282 -2.11284 0 
-6.045 -2.1151 0 
-5.82775 -2.11658 0 
-5.61153 -2.11776 0 
-5.3962 -2.1192 0 
-5.18144 -2.1203 0 
-4.96732 -2.12084 0 
-4.75387 -2.12105 0 
-4.54086 -2.12091 0 
-4.32822 -2.12045 0 
-4.11596 -2.12045 0 
-3.90382 -2.12107 0 
-3.69156 -2.12116 0 
-3.47938 -2.12058 0 
-3.26746 -2.12068 0 
-3.05542 -2.12154 0 
-2.84307 -2.12198 0 
-2.63064 -2.12162 0 
-2.41836 -2.12087 0 
-2.20626 -2.12031 0 
-1.99426 -2.12034 0 
-1.78217 -2.1207 0 
-1.56989 -2.12074 0 
-1.35755 -2.11993 0 
-1.14542 -2.11838 0 
-0.934012 -2.11859 0 
-0.722404 -2.12089 0 
-0.509943 -2.12344 0 
-0.296911 -2.12431 0 
-0.0840921 -2.12359 0 
0.128295 -2.12281 0 
0.340414 -2.12274 0 
0.552564 -2.12288 0 
0.76478 -2.12226 0 
0.976792 -2.1213 0 
1.18855 -2.12128 0 
1.40042 -2.12188 0 
1.61256 -2.12177 0 
1.82458 -2.12141 0 
2.03655 -2.12164 0 
2.24875 -2.12174 0 
2.46099 -2.12114 0 
2.67302 -2.12065 0 
2.88504 -2.12054 0 
3.09728 -2.1194 0 
3.30873 -2.11968 0 
3.52086 -2.1195 0 
3.7329 -2.11938 0 
3.94484 -2.11986 0 
4.15715 -2.12044 0 
4.36983 -2.12035 0 
4.58282 -2.1204 0 
4.79606 -2.12017 0 
5.01004 -2.12012 0 
5.22483 -2.12002 0 
5.44073 -2.12051 0 
5.6582 -2.123 0 
5.8782 -2.12696 0 
6.10217 -2.12971 0 
6.33095 -2.12707 0 
6.567 -2.11601 0 
6.82301 -2.12303 0 
7.06572 -2.04567 0 
7.29733 -2.17484 0 
7.54632 -2.11408 0 
7.79371 -2.13741 0 
8.02274 -2.07453 0 
8.25027 -2.1738 0 
8.48528 -2.0332 0 
-8.48528 -1.79671 0 
-8.25436 -1.93882 0 
-8.01299 -1.83977 0 
-7.78596 -1.953 0 
-7.5297 -1.87194 0 
-7.2756 -1.88722 0 
-7.05707 -1.93544 0 
-6.84369 -1.89677 0 
-6.62219 -1.88079 0 
-6.40169 -1.87606 0 
-6.18206 -1.87854 0 
-5.96274 -1.881 0 
-5.74458 -1.88208 0 
-5.52796 -1.88344 0 
-5.31232 -1.88506 0 
-5.09736 -1.88569 0 
-4.88338 -1.88564 0 
-4.67019 -1.88555 0 
-4.45737 -1.88507 0 
-4.24485 -1.88447 0 
-4.03271 -1.88482 0 
-3.82061 -1.88562 0 
-3.60832 -1.88529 0 
-3.39617 -1.88464 0 
-3.18427 -1.88547 0 
-2.97209 -1.88672 0 
-2.7596 -1.88684 0 
-2.54714 -1.88601 0 
-2.33483 -1.88505 0 
-2.12268 -1.8846 0 
-1.91058 -1.885 0 
-1.69824 -1.88561 0 
-1.48561 -1.88547 0 
-1.27286 -1.88413 0 
-1.06032 -1.88216 0 
-0.848858 -1.8839 0 
-0.636875 -1.88781 0 
-0.424169 -1.89034 0 
-0.211518 -1.89004 0 
0.000731944 -1.88866 0 
0.21257 -1.88788 0 
0.424308 -1.88807 0 
0.636257 -1.88793 0 
0.848362 -1.88664 0 
1.06025 -1.88556 0 
1.27191 -1.88605 0 
1.48381 -1.88664 0 
1.69595 -1.886 0 
1.90782 -1.88577 0 
2.11974 -1.88637 0 
2.33202 -1.88609 0 
2.54419 -1.88502 0 
2.75607 -1.88472 0 
2.96812 -1.88462 0 
3.18055 -1.88217 0 
3.39117 -1.88415 0 
3.60398 -1.8838 0 
3.81618 -1.88366 0 
4.02827 -1.88469 0 
4.24071 -1.88523 0 
4.4544 -1.88509 0 
4.66716 -1.88476 0 
4.88099 -1.88493 0 
5.09545 -1.88466 0 
5.31057 -1.88453 0 
5.52653 -1.88564 0 
5.7436 -1.88981 0 
5.96352 -1.89563 0 
6.18733 -1.89813 0 
6.41543 -1.89522 0 
6.65059 -1.89622 0 
6.87542 -1.86913 0 
7.11122 -1.81621 0 
7.31223 -1.94975 0 
7.53264 -1.87683 0 
7.77077 -1.89068 0 
8.01717 -1.8297 0 
8.25014 -1.93148 0 
8.48528 -1.79628 0 
-8.48528 -1.57009 0 
-8.24868 -1.70836 0 
-8.015 -1.61096 0 
-7.76734 -1.73071 0 
-7.54593 -1.61782 0 
-7.32306 -1.66278 0 
-7.05152 -1.7082 0 
-6.79786 -1.66675 0 
-6.56099 -1.64764 0 
-6.33267 -1.64541 0 
-6.10856 -1.64921 0 
-5.88638 -1.65073 0 
-5.66697 -1.65153 0 
-5.44986 -1.65353 0 
-5.23379 -1.65525 0 
-5.01882 -1.6551 0 
-4.80519 -1.6548 0 
-4.59235 -1.65478 0 
-4.37976 -1.65422 0 
-4.16737 -1.65386 0 
-3.95537 -1.65471 0 
-3.74326 -1.6554 0 
-3.5309 -1.65455 0 
-3.31876 -1.65426 0 
-3.10682 -1.65593 0 
-2.89443 -1.65705 0 
-2.68177 -1.65644 0 
-2.46924 -1.65516 0 
-2.25682 -1.65408 0 
-2.04447 -1.65386 0 
-1.83202 -1.65455 0 
-1.61911 -1.65506 0 
-1.40572 -1.65429 0 
-1.19212 -1.65207 0 
-0.97885 -1.64982 0 
-0.767325 -1.65372 0 
-0.555434 -1.6581 0 
-0.343588 -1.65935 0 
-0.132061 -1.65818 0 
0.0792288 -1.65687 0 
0.290417 -1.65682 0 
0.501823 -1.6575 0 
0.713729 -1.65709 0 
0.925861 -1.65545 0 
1.13768 -1.65488 0 
1.34929 -1.65604 0 
1.56128 -1.6563 0 
1.77337 -1.65516 0 
1.985 -1.65561 0 
2.19698 -1.65642 0 
2.40939 -1.65525 0 
2.62143 -1.65394 0 
2.83323 -1.65414 0 
3.04553 -1.65355 0 
3.25842 -1.64868 0 
3.46746 -1.65522 0 
3.68272 -1.65284 0 
3.89574 -1.65288 0 
4.10731 -1.65378 0 
4.32287 -1.65565 0 
4.53627 -1.65249 0 
4.74932 -1.65397 0 
4.96428 -1.65355 0 
5.17935 -1.65257 0 
5.3944 -1.65202 0 
5.60927 -1.65354 0 
5.82513 -1.66019 0 
6.04295 -1.66711 0 
6.26383 -1.66843 0 
6.48537 -1.66776 0 
6.70098 -1.65646 0 
6.91299 -1.6206 0 
7.11709 -1.6046 0 
7.3526 -1.69716 0 
7.60698 -1.65764 0 
7.8325 -1.64214 0 
8.05985 -1.58842 0 
8.2608 -1.69223 0 
8.48528 -1.56961 0 
-8.48528 -1.35019 0 
-8.24958 -1.48044 0 
-8.0219 -1.3751 0 
-7.79713 -1.50391 0 
-7.58956 -1.39834 0 
-7.36199 -1.38754 0 
-7.16079 -1.49923 0 
-6.93764 -1.46284 0 
[...]
POINT_DATA 2054 
VECTORS vectors float
0.0864491 -0.155847 0.98396 
0.0948064 -0.0722155 0.993969 
0.129171 -0.0616478 0.989475 
0.120969 -0.0611468 0.990928 
0.12054 -0.0409415 0.992042 
0.113471 -0.00460214 0.993651 
0.125937 0.00675892 0.992174 
0.126136 -0.0189281 0.991872 
0.109735 -0.00712595 0.994353 
0.101231 0.0430471 0.99436 
0.104426 0.0753196 0.991993 
0.109 0.0919938 0.989963 
0.114879 0.0921974 0.989271 
0.115119 0.0895696 0.989495 
0.11333 0.0943162 0.989319 
0.111564 0.106353 0.988388 
0.107978 0.118412 0.987459 
0.101738 0.134831 0.985996 
0.0956493 0.16168 0.98256 
0.0900214 0.193523 0.977375 
0.083632 0.222386 0.971877 
0.0713027 0.250875 0.965953 
0.0527964 0.288649 0.956582 
0.0354198 0.329271 0.944141 
0.0232685 0.353585 0.935563 
0.0114945 0.349165 0.937252 
-0.00318835 0.321685 0.946872 
-0.0178089 0.279928 0.959657 
-0.029454 0.229767 0.972384 
-0.034191 0.169066 0.984431 
-0.0334731 0.0875021 0.994924 
-0.0337946 -0.00518594 0.998735 
-0.0345461 -0.0883475 0.994897 
-0.031107 -0.15655 0.986715 
-0.0222845 -0.213502 0.976428 
-0.0109366 -0.260157 0.965496 
-0.00059642 -0.289866 0.957291 
0.0091111 -0.296884 0.955332 
0.0199002 -0.286438 0.958552 
0.0312284 -0.26788 0.96371 
0.0408789 -0.242018 0.970251 
0.0513656 -0.202909 0.978739 
0.066242 -0.169292 0.984026 
0.0733935 -0.156418 0.985603 
0.0682242 -0.126278 0.990374 
0.0707782 -0.0684017 0.995972 
0.0813085 -0.0159011 0.997345 
0.0849701 0.0314292 0.996445 
0.0766034 0.096397 0.992981 
0.0627638 0.186798 0.981115 
0.0508326 0.29343 0.955306 
0.0351086 0.423638 0.905586 
0.0122371 0.583651 0.811619 
-0.00648513 0.762703 0.646277 
-0.0118489 0.918872 0.394982 
-0.0130679 0.996912 0.0795237 
-0.0164719 0.969656 -0.244726 
-0.021783 0.847926 -0.530786 
-0.0351997 0.675504 -0.737178 
-0.0545398 0.509577 -0.859084 
-0.0718494 0.376236 -0.92416 
-0.0855127 0.277554 -0.957384 
-0.0963298 0.210893 -0.973225 
-0.103264 0.16334 -0.981573 
-0.108099 0.128722 -0.986083 
-0.113039 0.11133 -0.987528 
-0.115075 0.107786 -0.987632 
-0.110939 0.0990087 -0.989087 
-0.107643 0.0743288 -0.991732 
-0.105623 0.037698 -0.993937 
-0.111443 -0.0115101 -0.994148 
-0.130657 -0.0199896 -0.99123 
-0.127832 0.00867381 -0.992019 
-0.112826 -0.00143721 -0.993805 
-0.121973 -0.0366046 -0.992049 
-0.125241 -0.0529939 -0.990732 
-0.132303 -0.0539724 -0.98934 
-0.09596 -0.0699755 -0.993923 
-0.0872631 -0.158547 -0.983376 
0.0850286 -0.126072 0.989026 
0.0986424 -0.0984538 0.990452 
0.0850242 -0.0623105 0.995593 
0.0853004 -0.0617386 0.995486 
0.0760099 -0.0497918 0.996452 
0.0803854 -0.0333914 0.997337 
0.0923989 -0.011033 0.996684 
0.0952049 -0.0132376 0.996169 
0.0864427 -0.0109296 0.997095 
0.072972 0.0103563 0.998401 
0.0636575 0.0381088 0.998486 
0.0651561 0.0576013 0.997399 
0.0727444 0.0637969 0.996389 
0.0771685 0.0669843 0.995808 
0.0768238 0.0753901 0.995272 
0.0743755 0.08777 0.99449 
0.0696574 0.101892 0.993522 
0.0617721 0.119257 0.992202 
0.0507818 0.14384 0.989637 
0.0343833 0.17608 0.985177 
0.00968814 0.211802 0.978769 
-0.0254422 0.24918 0.96977 
-0.0722696 0.290414 0.955953 
-0.129613 0.332378 0.936045 
-0.195199 0.364341 0.912294 
-0.267788 0.375512 0.888552 
-0.34484 0.361357 0.866905 
-0.419311 0.3237 0.848036 
-0.482801 0.267651 0.832986 
-0.529536 0.196641 0.823734 
-0.556858 0.111517 0.821265 
-0.564159 0.0180338 0.823569 
-0.552487 -0.0725385 0.828645 
-0.524684 -0.151525 0.836355 
-0.484184 -0.215639 0.847096 
-0.434997 -0.264292 0.860399 
-0.382147 -0.297272 0.875142 
-0.329435 -0.313969 0.891116 
-0.277761 -0.3154 0.908458 
-0.226212 -0.304048 0.92672 
-0.177079 -0.279805 0.945019 
-0.135416 -0.24285 0.962081 
-0.101865 -0.203417 0.975321 
-0.0750457 -0.171901 0.983744 
-0.0569349 -0.138358 0.990278 
-0.0447837 -0.0954233 0.996186 
-0.0355059 -0.0424689 1.00011 
-0.02687 0.0118446 1.00127 
-0.0225673 0.0761937 0.99851 
-0.0239757 0.159002 0.988651 
-0.0283959 0.262549 0.966428 
-0.0367447 0.393286 0.920313 
-0.0505443 0.549127 0.83557 
-0.0652899 0.722948 0.689205 
-0.0733208 0.882881 0.465612 
-0.0744303 0.982726 0.173499 
-0.0716632 0.987006 -0.148127 
-0.0671467 0.893601 -0.4459 
-0.0653302 0.736027 -0.675678 
-0.0682469 0.565217 -0.823856 
-0.0721606 0.416458 -0.907881 
-0.0741833 0.302143 -0.951892 
-0.0756323 0.221725 -0.973583 
-0.0772847 0.16642 -0.984324 
-0.0785154 0.126343 -0.990116 
-0.0799397 0.0979726 -0.993144 
-0.0789103 0.0819456 -0.994631 
-0.072906 0.0722627 -0.99585 
-0.0674864 0.0531659 -0.997541 
-0.068726 0.022081 -0.998805 
-0.084009 -0.00655445 -0.997463 
-0.0934241 -0.0128966 -0.996164 
-0.0909049 -0.00958809 -0.996986 
-0.0821518 -0.032714 -0.996995 
-0.0754168 -0.0486218 -0.996639 
-0.0884821 -0.0602229 -0.995374 
-0.0870834 -0.0660536 -0.995086 
-0.0986187 -0.101678 -0.990437 
-0.0852362 -0.124248 -0.9893 
0.0477075 -0.134221 0.990524 
0.0616483 -0.0788911 0.995964 
0.0544753 -0.0834549 0.996364 
0.0489847 -0.0491318 0.99877 
0.0491898 -0.0520554 0.998167 
0.0635534 -0.0309959 0.998577 
0.0696924 -0.0162366 0.998423 
0.0646165 -0.0183432 0.998598 
0.0542992 -0.00654343 0.999428 
0.0391795 0.0127594 1.00018 
0.0326831 0.0336876 0.99995 
0.0371203 0.0399973 0.999446 
0.0420139 0.0405926 0.999242 
0.0431019 0.0531278 0.998676 
0.0406957 0.0736177 0.997465 
0.0334593 0.093467 0.996116 
0.0217577 0.113297 0.99446 
0.00616629 0.138914 0.991505 
-0.0162584 0.174668 0.985808 
-0.0503304 0.218873 0.975862 
-0.0996701 0.268249 0.959673 
-0.166649 0.322642 0.93329 
-0.252155 0.378904 0.891988 
-0.3535 0.427285 0.833557 
-0.46613 0.456102 0.75902 
-0.583887 0.455303 0.672303 
-0.696003 0.419997 0.581599 
-0.790242 0.35392 0.498331 
-0.85965 0.265597 0.433235 
-0.903041 0.16286 0.3933 
-0.921383 0.0536459 0.380374 
-0.916713 -0.0530591 0.391754 
-0.892194 -0.149724 0.422729 
-0.85133 -0.23139 0.468556 
-0.796734 -0.295204 0.526041 
-0.730349 -0.340741 0.591562 
-0.654938 -0.368532 0.659941 
-0.575625 -0.37907 0.725251 
-0.496444 -0.373889 0.784426 
-0.418657 -0.353782 0.837621 
-0.345066 -0.317279 0.884756 
-0.281458 -0.269056 0.922648 
-0.231079 -0.220891 0.949145 
-0.193723 -0.175446 0.966891 
-0.165878 -0.129368 0.979329 
-0.144224 -0.0793554 0.988027 
-0.126718 -0.0233598 0.993353 
-0.113519 0.0424265 0.994274 
-0.103978 0.119639 0.989045 
-0.102239 0.22268 0.971391 
-0.106616 0.351048 0.932254 
-0.115378 0.503985 0.85808 
-0.126607 0.675446 0.72869 
-0.135271 0.838849 0.529741 
-0.137536 0.956088 0.262306 
-0.13141 0.991067 -0.0467594 
-0.117866 0.929831 -0.351382 
-0.101303 0.792579 -0.603308 
-0.0869805 0.625054 -0.777621 
-0.0761393 0.467242 -0.88258 
-0.0665452 0.338649 -0.940091 
-0.0582238 0.244719 -0.969231 
-0.0534363 0.180017 -0.983466 
-0.0512329 0.132998 -0.99094 
-0.0505178 0.0951149 -0.995263 
-0.0501529 0.0664092 -0.997594 
-0.0462699 0.0521812 -0.998571 
-0.0404672 0.0453263 -0.999206 
-0.0392213 0.0276483 -0.999989 
-0.051687 0.00361698 -0.999657 
-0.0590748 -0.0122834 -0.998995 
-0.0717075 -0.014857 -0.998239 
-0.0542952 -0.0217023 -0.99924 
-0.0682827 -0.029649 -0.998175 
-0.0476466 -0.0521749 -0.998489 
-0.053913 -0.0512109 -0.998351 
-0.0569693 -0.0857838 -0.996158 
-0.0615479 -0.0839493 -0.995775 
-0.0420588 -0.135612 -0.990463 
0.0195525 -0.144344 0.9892 
0.0452171 -0.0947347 0.995518 
0.034126 -0.0822631 0.997316 
0.036288 -0.0589869 0.998193 
0.0342407 -0.0530423 0.998853 
0.0425428 -0.0426611 0.999143 
0.0545121 -0.0210167 0.999103 
0.0608187 -0.0228139 0.998651 
0.0626868 -0.0124098 0.998694 
0.0534124 0.00541219 0.999355 
0.0412863 0.0284683 0.999554 
0.0397937 0.0394816 0.999065 
0.042883 0.0339051 0.999123 
0.0437623 0.0413993 0.998982 
0.0412948 0.0690334 0.997584 
0.0333022 0.0988734 0.995329 
0.0196901 0.124133 0.992885 
0.00138278 0.15204 0.989237 
-0.0241431 0.19093 0.982269 
-0.0610973 0.243376 0.969094 
-0.114069 0.306754 0.946111 
-0.187655 0.379138 0.907319 
-0.284065 0.457013 0.844091 
-0.400175 0.529109 0.74935 
-0.528216 0.579493 0.62124 
-0.657554 0.592834 0.464621 
-0.774175 0.55895 0.294948 
-0.865199 0.480583 0.136464 
-0.926863 0.372429 0.0101685 
-0.964434 0.249869 -0.0729341 
-0.985082 0.123673 -0.111011 
-0.993079 0.000980319 -0.109389 
-0.990013 -0.112548 -0.0750416 
-0.976453 -0.212317 -0.0148209 
-0.952389 -0.296418 0.0649124 
-0.916647 -0.364203 0.162948 
-0.866867 -0.415204 0.275576 
-0.802247 -0.447821 0.395133 
-0.725777 -0.459769 0.512519 
-0.642767 -0.450332 0.620775 
-0.557725 -0.420588 0.716816 
-0.475541 -0.372443 0.79838 
-0.402574 -0.311916 0.862187 
-0.343765 -0.248861 0.907182 
-0.298728 -0.188895 0.93723 
-0.262755 -0.130634 0.957734 
-0.233364 -0.0698383 0.971622 
-0.210177 -0.0036516 0.979435 
-0.19308 0.071637 0.980422 
-0.186625 0.167766 0.969849 
-0.189266 0.284708 0.941752 
-0.200274 0.430196 0.882055 
-0.215816 0.596616 0.775244 
-0.23056 0.764718 0.604319 
-0.237736 0.901249 0.36543 
-0.231298 0.970807 0.0758443 
-0.210167 0.951869 -0.227344 
-0.178455 0.849462 -0.498661 
-0.145007 0.697934 -0.703075 
-0.116404 0.54028 -0.835049 
-0.0937248 0.40223 -0.912134 
-0.0763743 0.294165 -0.953875 
-0.064949 0.217945 -0.974817 
-0.0594741 0.164244 -0.985501 
-0.0578101 0.119864 -0.991922 
-0.0568697 0.0784612 -0.99614 
-0.0535953 0.048803 -0.998143 
-0.047817 0.0426549 -0.99859 
-0.0454022 0.0420753 -0.998765 
-0.0492911 0.0220494 -0.999381 
-0.061374 -0.000615202 -0.998953 
-0.0608849 -0.0157411 -0.99892 
-0.0534355 -0.0211546 -0.999229 
-0.0453426 -0.0293262 -0.999424 
-0.0326393 -0.0594364 -0.998593 
-0.0343126 -0.0509944 -0.998844 
-0.0357962 -0.0869911 -0.996754 
-0.0440823 -0.0959436 -0.995504 
-0.0120758 -0.149702 -0.988459 
0.0283064 -0.150578 0.988046 
0.0312315 -0.102928 0.995167 
0.0156389 -0.0856204 0.997245 
0.023334 -0.0622976 0.998745 
0.0312191 -0.0568851 0.99886 
0.048081 -0.0283435 0.999163 
0.0574177 -0.0236341 0.998742 
0.0583544 -0.0167877 0.998857 
0.0560002 0.00121481 0.999252 
0.0454406 0.0265949 0.999569 
0.0408303 0.0490646 0.998576 
0.0459026 0.04454 0.99842 
0.0497394 0.0393421 0.998641 
0.0483899 0.0652213 0.997566 
0.0411882 0.105727 0.994387 
0.0276096 0.139754 0.990648 
0.00852908 0.169686 0.986357 
-0.017694 0.208101 0.97893 
-0.0541452 0.264375 0.964044 
-0.103961 0.339458 0.936159 
-0.172264 0.429749 0.887715 
-0.262952 0.530519 0.807246 
-0.373384 0.62972 0.682645 
-0.4944 0.705369 0.509287 
-0.612403 0.733481 0.295949 
-0.71124 0.699788 0.0668677 
-0.779833 0.609188 -0.143061 
-0.819606 0.483149 -0.307631 
-0.840606 0.344109 -0.418522 
-0.854064 0.206843 -0.477771 
-0.866621 0.0778337 -0.493425 
-0.879064 -0.0415117 -0.475463 
-0.890402 -0.149325 -0.430568 
-0.899132 -0.24435 -0.36372 
-0.902972 -0.329057 -0.276966 
-0.899571 -0.405369 -0.16332 
-0.883182 -0.468617 -0.0233855 
-0.849626 -0.511066 0.131146 
-0.799367 -0.528495 0.286736 
-0.735637 -0.519886 0.435243 
-0.662695 -0.486568 0.570445 
-0.586826 -0.431422 0.686566 
-0.515327 -0.361304 0.778659 
-0.452768 -0.28563 0.846317 
-0.401171 -0.209905 0.893347 
-0.36104 -0.135623 0.924373 
-0.329502 -0.0628573 0.943813 
-0.305977 0.0140185 0.953662 
-0.294026 0.104102 0.951691 
-0.29486 0.211509 0.933572 
-0.309073 0.34619 0.887305 
-0.328574 0.503586 0.800771 
-0.347597 0.670438 0.657601 
-0.357829 0.819432 0.449946 
-0.352622 0.918572 0.181636 
-0.324387 0.940134 -0.110646 
-0.278462 0.878041 -0.391527 
-0.224506 0.753619 -0.619403 
-0.174879 0.605696 -0.777756 
-0.134967 0.466529 -0.87557 
-0.104256 0.349574 -0.932322 
-0.0834052 0.26248 -0.962418 
-0.0716779 0.203785 -0.977371 
-0.0669474 0.160562 -0.985622 
-0.066319 0.117174 -0.991756 
-0.0655472 0.0706804 -0.996236 
-0.0608341 0.0421795 -0.997915 
-0.0538149 0.0472212 -0.997908 
-0.0518033 0.0504462 -0.997994 
-0.0573944 0.02424 -0.998935 
-0.0637234 -0.00089564 -0.998804 
-0.0612479 -0.0165657 -0.99874 
-0.0525096 -0.0223755 -0.999146 
-0.0440125 -0.0277656 -0.999317 
-0.0318202 -0.0587649 -0.998222 
-0.0282323 -0.0591281 -0.998897 
-0.0169424 -0.0851469 -0.997423 
-0.0315739 -0.101112 -0.995487 
-0.0232805 -0.157345 -0.987118 
0.00750708 -0.131334 0.991093 
0.0191183 -0.110554 0.994845 
0.00844145 -0.0864378 0.997191 
0.0153229 -0.0704411 0.998263 
0.018545 -0.0591987 0.998791 
0.0318382 -0.032198 0.999795 
0.0422634 -0.0259002 0.999795 
0.0408785 -0.0101615 0.999998 
0.0353145 0.0128535 1.00032 
0.0314691 0.0465242 0.999256 
0.0375109 0.0571002 0.99815 
0.0471983 0.0410809 0.998599 
0.0517614 0.0514859 0.99823 
0.0490595 0.0966847 0.995087 
0.0387607 0.143163 0.98984 
0.0215941 0.178406 0.984678 
-0.0025731 0.214032 0.977863 
-0.0353511 0.266151 0.964437 
-0.0777838 0.343733 0.93716 
-0.133811 0.445535 0.886613 
-0.208445 0.565458 0.799316 
-0.300577 0.69064 0.659092 
-0.401269 0.794056 0.4578 
-0.4977 0.842323 0.207326 
-0.575952 0.81521 -0.0588898 
-0.626746 0.71928 -0.299624 
-0.652175 0.581357 -0.487095 
-0.661679 0.429379 -0.615752 
-0.665961 0.28257 -0.691689 
-0.674149 0.150866 -0.724383 
-0.688671 0.0347484 -0.725635 
-0.708606 -0.0691578 -0.703571 
-0.73296 -0.163219 -0.661799 
-0.759079 -0.250585 -0.602275 
-0.784681 -0.335578 -0.522609 
-0.810576 -0.418282 -0.411217 
-0.829039 -0.491262 -0.268565 
-0.833542 -0.543101 -0.104171 
-0.820659 -0.567677 0.0698654 
-0.789101 -0.564214 0.244475 
-0.74027 -0.532849 0.411299 
-0.680309 -0.475534 0.55908 
-0.618229 -0.39971 0.678255 
-0.560691 -0.314958 0.767362 
-0.510329 -0.228056 0.830843 
-0.467957 -0.142127 0.873921 
-0.437212 -0.0548155 0.899283 
-0.419288 0.0375923 0.908646 
-0.41692 0.142946 0.899345 
-0.429793 0.269223 0.863385 
-0.449587 0.416466 0.792019 
-0.469763 0.577167 0.66984 
-0.48056 0.728751 0.48948 
-0.474407 0.844956 0.249706 
-0.445352 0.895218 -0.035658 
-0.389263 0.869266 -0.307704 
-0.318578 0.771914 -0.55221 
-0.246443 0.638359 -0.730737 
-0.186299 0.504288 -0.844707 
-0.13945 0.386121 -0.913251 
-0.106735 0.293012 -0.951335 
-0.0877697 0.228613 -0.970621 
-0.0790523 0.18646 -0.980238 
-0.0754343 0.150812 -0.986561 
-0.0735426 0.105705 -0.992596 
-0.0691353 0.0561055 -0.996974 
-0.0598435 0.0349799 -0.998206 
-0.0474301 0.0512068 -0.998018 
-0.0398411 0.0525344 -0.99853 
-0.0428084 0.0203506 -0.999926 
-0.04606 -0.00572706 -0.999848 
-0.0433799 -0.022466 -0.999558 
-0.0404149 -0.0266406 -0.999527 
-0.0321616 -0.0335433 -0.999921 
-0.0165923 -0.0604853 -0.998645 
-0.00958478 -0.0679796 -0.99858 
-0.00879234 -0.0964697 -0.996184 
-0.0210677 -0.111892 -0.994354 
-0.00588496 -0.13868 -0.990271 
-0.0278605 -0.144549 0.988856 
0.0011518 -0.119076 0.993854 
0.00671808 -0.0880109 0.997095 
0.0102235 -0.0714909 0.998147 
0.0214105 -0.0610688 0.998484 
0.0313312 -0.0395309 0.999544 
0.0340292 -0.0291122 0.999704 
0.0339965 -0.0208423 1.00002 
0.0271245 -0.00424535 1.00065 
0.0197277 0.0285139 1.00048 
0.0219463 0.0570637 0.99874 
0.0321169 0.0451198 0.998912 
0.0406104 0.0323875 0.999373 
0.0428396 0.0674994 0.997871 
0.0377555 0.125099 0.992379 
0.0253195 0.171033 0.985817 
0.00668137 0.20601 0.979485 
-0.019091 0.249388 0.969308 
-0.0522783 0.319177 0.94757 
-0.094282 0.421332 0.903623 
-0.149546 0.551403 0.822456 
-0.218869 0.697354 0.684273 
-0.295127 0.830282 0.475069 
-0.367623 0.907909 0.204768 
-0.426746 0.90043 -0.0887139 
-0.466056 0.810568 -0.356212 
-0.4852 0.668179 -0.565651 
-0.49032 0.507313 -0.710382 
-0.48964 0.352445 -0.799229 
-0.491374 0.216654 -0.845109 
-0.500617 0.102554 -0.861053 
-0.517502 0.00516363 -0.857121 
-0.542045 -0.0810427 -0.837952 
-0.57321 -0.161729 -0.804909 
-0.609805 -0.241732 -0.756423 
-0.65215 -0.323615 -0.687118 
-0.701526 -0.40577 -0.587314 
-0.747877 -0.480541 -0.459414 
-0.785558 -0.537976 -0.307307 
-0.809831 -0.571178 -0.136806 
-0.816155 -0.576703 0.0457367 
-0.80211 -0.551732 0.23052 
-0.770868 -0.49625 0.400858 
-0.730394 -0.417813 0.541736 
-0.68646 -0.327291 0.650821 
-0.642154 -0.231196 0.732428 
-0.603442 -0.13203 0.78797 
-0.576082 -0.0305101 0.818523 
-0.565339 0.0792796 0.822627 
-0.566812 0.19943 0.800888 
-0.579756 0.33693 0.743426 
-0.596706 0.489507 0.637196 
-0.604652 0.63906 0.476063 
-0.593808 0.761685 0.260616 
-0.557585 0.830353 -0.0045439 
-0.494123 0.822495 -0.284155 
-0.410368 0.758864 -0.507825 
-0.315549 0.634012 -0.707515 
-0.235193 0.507969 -0.829937 
-0.170179 0.392483 -0.905276 
-0.124827 0.298897 -0.947326 
-0.0955162 0.230833 -0.969306 
-0.0807572 0.189337 -0.979476 
-0.0737791 0.161406 -0.984937 
-0.0693346 0.12867 -0.99007 
-0.064059 0.0789973 -0.995838 
-0.0559633 0.0307141 -0.998879 
-0.0451422 0.0241854 -0.999164 
-0.0332122 0.0499677 -0.998628 
-0.0248901 0.0451871 -0.999515 
-0.0266556 0.010164 -1.00071 
-0.0321112 -0.0161855 -1.00033 
-0.033082 -0.0317222 -0.999839 
-0.0316186 -0.032853 -0.999514 
-0.0228231 -0.0518471 -0.999037 
-0.0149542 -0.0645356 -0.998622 
-0.00998363 -0.0730729 -0.998234 
-0.000464704 -0.116469 -0.994367 
0.0271731 -0.149997 -0.988076 
-0.00558872 -0.163303 0.986257 
-0.00125904 -0.12632 0.992881 
0.0187433 -0.089074 0.996783 
0.0215297 -0.0746561 0.997747 
0.0336171 -0.0579157 0.998381 
0.0341445 -0.0445844 0.999161 
0.0335069 -0.0323106 0.999719 
0.0283735 -0.0194942 1.0003 
0.0202384 0.00276574 1.00086 
0.0186267 0.0384084 1.00001 
0.0260255 0.0476878 0.998955 
0.0350947 0.0215501 0.999624 
0.0388346 0.0287243 0.999839 
0.0373786 0.0854863 0.99682 
0.0310323 0.146448 0.989742 
0.0193513 0.189223 0.982799 
0.00128571 0.225995 0.975282 
-0.0231865 0.281283 0.960703 
-0.0541947 0.371934 0.928415 
-0.0935604 0.498778 0.863759 
-0.143249 0.652984 0.745817 
-0.199804 0.810901 0.552654 
-0.255183 0.926194 0.282661 
-0.301547 0.954199 -0.0301354 
-0.333177 0.884669 -0.32959 
-0.348834 0.746954 -0.568167 
-0.352658 0.582954 -0.733672 
-0.351189 0.423458 -0.8367 
-0.350584 0.285228 -0.893676 
-0.354907 0.171963 -0.920543 
-0.365108 0.0786496 -0.929327 
-0.381599 -0.000998727 -0.925997 
-0.404169 -0.0744286 -0.91335 
-0.434088 -0.145237 -0.890785 
-0.472452 -0.21787 -0.855689 
-0.523033 -0.292872 -0.802035 
-0.586115 -0.369559 -0.722503 
-0.650755 -0.441425 -0.619056 
-0.713392 -0.500772 -0.491372 
-0.76982 -0.541032 -0.339904 
-0.814829 -0.55604 -0.165991 
-0.84237 -0.539053 0.0203278 
-0.849859 -0.488566 0.199147 
-0.840331 -0.412621 0.352731 
-0.818139 -0.321021 0.478194 
-0.787729 -0.218973 0.576927 
-0.758275 -0.109087 0.643889 
-0.738807 0.00819988 0.674866 
-0.72868 0.132937 0.672811 
-0.72638 0.265814 0.634605 
-0.729605 0.408639 0.549025 
-0.727594 0.553408 0.405512 
-0.705257 0.67688 0.211692 
-0.656369 0.754746 -0.0256902 
-0.577785 0.765099 -0.287711 
-0.476164 0.700707 -0.534231 
-0.378606 0.623972 -0.685342 
-0.27617 0.488827 -0.829355 
-0.19563 0.380788 -0.905205 
-0.141707 0.288427 -0.948483 
-0.106437 0.22024 -0.970909 
-0.0865164 0.175667 -0.981709 
-0.0778043 0.154035 -0.985918 
-0.0732119 0.133023 -0.989295 
-0.0683336 0.0944765 -0.994172 
-0.0610345 0.0380302 -0.998547 
-0.0519311 0.00103503 -0.999352 
-0.0416955 0.0159873 -0.99927 
-0.0295733 0.0453331 -0.998851 
-0.0185624 0.0350507 -1.00012 
-0.0154785 -0.00046882 -1.00093 
-0.0207519 -0.0248734 -1.00031 
-0.0256659 -0.0369383 -0.999793 
-0.0311824 -0.0374812 -0.99943 
-0.0297978 -0.0596473 -0.998407 
-0.0247515 -0.0700289 -0.998195 
-0.011846 -0.101727 -0.99576 
-0.000187869 -0.124846 -0.992961 
0.00725978 -0.168785 -0.985381 
0.0181606 -0.15592 0.987306 
0.012169 -0.129121 0.992495 
0.0260584 -0.0875367 0.996767 
0.0313804 -0.0755668 0.997468 
0.0339093 -0.0639035 0.998017 
0.0261081 -0.052534 0.99902 
0.0254329 -0.0347207 1.00009 
0.019913 -0.0183651 1.00064 
0.0193923 0.00945558 1.00085 
0.0238252 0.0385805 0.999603 
0.0295365 0.0255919 0.999588 
0.0307433 0.00539174 1.00025 
0.0274283 0.0423942 1.00001 
0.0233793 0.110662 0.994759 
0.0177009 0.168913 0.986535 
0.0079314 0.209808 0.978844 
-0.00688391 0.25448 0.968298 
-0.0283103 0.329176 0.945306 
-0.0567249 0.444272 0.895953 
-0.0919481 0.593841 0.801138 
-0.131437 0.76137 0.636334 
-0.170844 0.90692 0.387 
-0.205222 0.976155 0.0743773 
-0.230147 0.941101 -0.246658 
-0.243109 0.820482 -0.517166 
-0.246384 0.660196 -0.710102 
-0.243635 0.497239 -0.833665 
-0.239355 0.352806 -0.905868 
-0.237232 0.234351 -0.944131 