# vtk DataFile Version 3.0 
Exported using Morpho https://github.com/Morpho-lang/morpho 
ASCII 
DATASET UNSTRUCTURED_GRID 

POINTS 2054 float 
-8.48528 -2.82843 0 
-8.20636 -2.82843 0 
-7.94054 -2.82843 0 
-7.6904 -2.82843 0 
-7.45357 -2.82843 0 
-7.22694 -2.82843 0 
-7.00705 -2.82843 0 
-6.79111 -2.82843 0 
-6.57731 -2.82843 0 
-6.36453 -2.82843 0 
-6.15219 -2.82843 0 
-5.94 -2.82843 0 
-5.72786 -2.82843 0 
-5.51573 -2.82843 0 
-5.3036 -2.82843 0 
-5.09147 -2.82843 0 
-4.87933 -2.82843 0 
-4.6672 -2.82843 0 
-4.45507 -2.82843 0 
-4.24294 -2.82843 0 
-4.03081 -2.82843 0 
-3.81867 -2.82843 0 
-3.60654 -2.82843 0 
-3.39441 -2.82843 0 
-3.18228 -2.82843 0 
-2.97015 -2.82843 0 
-2.75801 -2.82843 0 
-2.54588 -2.82843 0 
-2.33375 -2.82843 0 
-2.12162 -2.82843 0 
-1.90949 -2.82843 0 
-1.69735 -2.82843 0 
-1.48522 -2.82843 0 
-1.27309 -2.82843 0 
-1.06096 -2.82843 0 
-0.848825 -2.82843 0 
-0.636693 -2.82843 0 
-0.424561 -2.82843 0 
-0.212429 -2.82843 0 
-0.000296761 -2.82843 0 
0.211835 -2.82843 0 
0.423967 -2.82843 0 
0.636099 -2.82843 0 
0.848231 -2.82843 0 
1.06036 -2.82843 0 
1.2725 -2.82843 0 
1.48463 -2.82843 0 
1.69676 -2.82843 0 
1.90889 -2.82843 0 
2.12102 -2.82843 0 
2.33316 -2.82843 0 
2.54529 -2.82843 0 
2.75742 -2.82843 0 
2.96955 -2.82843 0 
3.18168 -2.82843 0 
3.39382 -2.82843 0 
3.60595 -2.82843 0 
3.81808 -2.82843 0 
4.03021 -2.82843 0 
4.24234 -2.82843 0 
4.45448 -2.82843 0 
4.66661 -2.82843 0 
4.87874 -2.82843 0 
5.09087 -2.82843 0 
5.303 -2.82843 0 
5.51514 -2.82843 0 
5.72727 -2.82843 0 
5.93941 -2.82843 0 
6.15159 -2.82843 0 
6.36393 -2.82843 0 
6.57672 -2.82843 0 
6.79055 -2.82843 0 
7.00652 -2.82843 0 
7.22647 -2.82843 0 
7.45313 -2.82843 0 
7.69005 -2.82843 0 
7.9403 -2.82843 0 
8.20621 -2.82843 0 
8.48528 -2.82843 0 
-8.48528 -2.5495 0 
-8.30526 -2.64845 0 
-8.07062 -2.59995 0 
-7.83904 -2.59637 0 
-7.59595 -2.59733 0 
-7.36578 -2.59177 0 
-7.13796 -2.5933 0 
-6.90908 -2.59428 0 
-6.68421 -2.5916 0 
-6.46568 -2.58832 0 
-6.24926 -2.58859 0 
-6.03358 -2.58941 0 
-5.81848 -2.59013 0 
-5.60402 -2.59075 0 
-5.39005 -2.59135 0 
-5.17642 -2.59186 0 
-4.96311 -2.59223 0 
-4.75009 -2.59242 0 
-4.53736 -2.59244 0 
-4.32497 -2.59236 0 
-4.1128 -2.59242 0 
-3.90059 -2.59259 0 
-3.68835 -2.5926 0 
-3.47627 -2.59248 0 
-3.26428 -2.59251 0 
-3.05216 -2.59271 0 
-2.83986 -2.59283 0 
-2.62755 -2.59274 0 
-2.41539 -2.59253 0 
-2.20336 -2.59238 0 
-1.99135 -2.59238 0 
-1.77924 -2.59246 0 
-1.56704 -2.59244 0 
-1.35495 -2.59215 0 
-1.14319 -2.59183 0 
-0.931581 -2.59195 0 
-0.719663 -2.59256 0 
-0.507197 -2.59324 0 
-0.294425 -2.59354 0 
-0.0817689 -2.59344 0 
0.130587 -2.59325 0 
0.342804 -2.59322 0 
0.555051 -2.59322 0 
0.767233 -2.59303 0 
0.97919 -2.59278 0 
1.19107 -2.59278 0 
1.40311 -2.59289 0 
1.61524 -2.59286 0 
1.82732 -2.59279 0 
2.03943 -2.59281 0 
2.25163 -2.5928 0 
2.46381 -2.59266 0 
2.67591 -2.59254 0 
2.88801 -2.59237 0 
3.10001 -2.59226 0 
3.31203 -2.59216 0 
3.52402 -2.59207 0 
3.73601 -2.59208 0 
3.94815 -2.59221 0 
4.16052 -2.5923 0 
4.37309 -2.59232 0 
4.58593 -2.59227 0 
4.79921 -2.5922 0 
5.01319 -2.59212 0 
5.22833 -2.5921 0 
5.44534 -2.59239 0 
5.6657 -2.59346 0 
5.89185 -2.59569 0 
6.12685 -2.59429 0 
6.36853 -2.59189 0 
6.6108 -2.57787 0 
6.84491 -2.61411 0 
7.08804 -2.58476 0 
7.34858 -2.60369 0 
7.58803 -2.59327 0 
7.83059 -2.59326 0 
8.06387 -2.59199 0 
8.30038 -2.64348 0 
8.48528 -2.54936 0 
-8.48528 -2.28369 0 
-8.25701 -2.4138 0 
-8.01078 -2.35334 0 
-7.73666 -2.37963 0 
-7.49744 -2.35565 0 
-7.26898 -2.35831 0 
-7.03324 -2.36676 0 
-6.7997 -2.36275 0 
-6.5773 -2.35166 0 
-6.35808 -2.3495 0 
-6.14038 -2.35058 0 
-5.92336 -2.35185 0 
-5.70723 -2.35272 0 
-5.49199 -2.35362 0 
-5.27734 -2.35447 0 
-5.0632 -2.35505 0 
-4.84958 -2.35534 0 
-4.63641 -2.35533 0 
-4.42363 -2.35504 0 
-4.21126 -2.35485 0 
-3.99909 -2.35513 0 
-3.78684 -2.3554 0 
-3.57461 -2.35516 0 
-3.36263 -2.35498 0 
-3.15066 -2.35537 0 
-2.93843 -2.35586 0 
-2.72604 -2.35589 0 
-2.51374 -2.35551 0 
-2.30162 -2.35509 0 
-2.08964 -2.35496 0 
-1.87761 -2.35518 0 
-1.66544 -2.3554 0 
-1.45322 -2.35518 0 
-1.2412 -2.35438 0 
-1.02967 -2.35407 0 
-0.818162 -2.35505 0 
-0.606054 -2.35676 0 
-0.393243 -2.3579 0 
-0.180256 -2.35789 0 
0.0323765 -2.35727 0 
0.244686 -2.35692 0 
0.456926 -2.35692 0 
0.669206 -2.35667 0 
0.881318 -2.35598 0 
1.09315 -2.35559 0 
1.305 -2.35583 0 
1.51709 -2.35595 0 
1.72919 -2.35571 0 
1.9412 -2.35566 0 
2.15334 -2.3558 0 
2.36559 -2.3556 0 
2.57772 -2.35522 0 
2.78976 -2.35507 0 
3.0019 -2.35461 0 
3.21373 -2.35451 0 
3.42571 -2.35439 0 
3.63769 -2.35431 0 
3.84965 -2.35453 0 
4.06183 -2.35491 0 
4.27435 -2.35507 0 
4.48707 -2.35507 0 
4.70017 -2.35506 0 
4.91376 -2.35498 0 
5.12819 -2.35502 0 
5.34378 -2.35528 0 
5.56106 -2.35662 0 
5.78097 -2.35971 0 
6.00401 -2.36251 0 
6.2308 -2.3624 0 
6.45748 -2.35551 0 
6.68075 -2.33423 0 
6.88797 -2.39744 0 
7.05313 -2.27289 0 
7.24377 -2.40237 0 
7.48542 -2.36016 0 
7.73055 -2.36599 0 
7.99177 -2.33552 0 
8.24864 -2.40698 0 
8.48528 -2.28345 0 
-8.48528 -2.03355 0 
-8.25312 -2.18214 0 
-8.03669 -2.07913 0 
-7.83956 -2.18231 0 
-7.6106 -2.12852 0 
-7.38852 -2.10959 0 
-7.16268 -2.14097 0 
-6.9229 -2.1435 0 
-6.70119 -2.12055 0 
-6.48111 -2.11285 0 
-6.26282 -2.11284 0 
-6.045 -2.1151 0 
-5.82775 -2.11658 0 
-5.61153 -2.11776 0 
-5.3962 -2.1192 0 
-5.18144 -2.1203 0 
-4.96732 -2.12084 0 
-4.75387 -2.12105 0 
-4.54086 -2.12091 0 
-4.32822 -2.12045 0 
-4.11596 -2.12045 0 
-3.90382 -2.12107 0 
-3.69156 -2.12116 0 
-3.47938 -2.12058 0 
-3.26746 -2.12068 0 
-3.05542 -2.12154 0 
-2.84307 -2.12198 0 
-2.63064 -2.12162 0 
-2.41836 -2.12087 0 
-2.20626 -2.12031 0 
-1.99426 -2.12034 0 
-1.78217 -2.1207 0 
-1.56989 -2.12074 0 
-1.35755 -2.11993 0 
-1.14542 -2.11838 0 
-0.934012 -2.11859 0 
-0.722404 -2.12089 0 
-0.509943 -2.12344 0 
-0.296911 -2.12431 0 
-0.0840921 -2.12359 0 
0.128295 -2.12281 0 
0.340414 -2.12274 0 
0.552564 -2.12288 0 
0.76478 -2.12226 0 
0.976792 -2.1213 0 
1.18855 -2.12128 0 
1.40042 -2.12188 0 
1.61256 -2.12177 0 
1.82458 -2.12141 0 
2.03655 -2.12164 0 
2.24875 -2.12174 0 
2.46099 -2.12114 0 
2.67302 -2.12065 0 
2.88504 -2.12054 0 
3.09728 -2.1194 0 
3.30873 -2.11968 0 
3.52086 -2.1195 0 
3.7329 -2.11938 0 
3.94484 -2.11986 0 
4.15715 -2.12044 0 
4.36983 -2.12035 0 
4.58282 -2.1204 0 
4.79606 -2.12017 0 
5.01004 -2.12012 0 
5.22483 -2.12002 0 
5.44073 -2.12051 0 
5.6582 -2.123 0 
5.8782 -2.12696 0 
6.10217 -2.12971 0 
6.33095 -2.12707 0 
6.567 -2.11601 0 
6.82301 -2.12303 0 
7.06572 -2.04567 0 
7.29733 -2.17484 0 
7.54632 -2.11408 0 
7.79371 -2.13741 0 
8.02274 -2.07453 0 
8.25027 -2.1738 0 
8.48528 -2.0332 0 
-8.48528 -1.79671 0 
-8.25436 -1.93882 0 
-8.01299 -1.83977 0 
-7.78596 -1.953 0 
-7.5297 -1.87194 0 
-7.2756 -1.88722 0 
-7.05707 -1.93544 0 
-6.84369 -1.89677 0 
-6.62219 -1.88079 0 
-6.40169 -1.87606 0 
-6.18206 -1.87854 0 
-5.96274 -1.881 0 
-5.74458 -1.88208 0 
-5.52796 -1.88344 0 
-5.31232 -1.88506 0 
-5.09736 -1.88569 0 
-4.88338 -1.88564 0 
-4.67019 -1.88555 0 
-4.45737 -1.88507 0 
-4.24485 -1.88447 0 
-4.03271 -1.88482 0 
-3.82061 -1.88562 0 
-3.60832 -1.88529 0 
-3.39617 -1.88464 0 
-3.18427 -1.88547 0 
-2.97209 -1.88672 0 
-2.7596 -1.88684 0 
-2.54714 -1.88601 0 
-2.33483 -1.88505 0 
-2.12268 -1.8846 0 
-1.91058 -1.885 0 
-1.69824 -1.88561 0 
-1.48561 -1.88547 0 
-1.27286 -1.88413 0 
-1.06032 -1.88216 0 
-0.848858 -1.8839 0 
-0.636875 -1.88781 0 
-0.424169 -1.89034 0 
-0.211518 -1.89004 0 
0.000731944 -1.88866 0 
0.21257 -1.88788 0 
0.424308 -1.88807 0 
0.636257 -1.88793 0 
0.848362 -1.88664 0 
1.06025 -1.88556 0 
1.27191 -1.88605 0 
1.48381 -1.88664 0 
1.69595 -1.886 0 
1.90782 -1.88577 0 
2.11974 -1.88637 0 
2.33202 -1.88609 0 
2.54419 -1.88502 0 
2.75607 -1.88472 0 
2.96812 -1.88462 0 
3.18055 -1.88217 0 
3.39117 -1.88415 0 
3.60398 -1.8838 0 
3.81618 -1.88366 0 
4.02827 -1.88469 0 
4.24071 -1.88523 0 
4.4544 -1.88509 0 
4.66716 -1.88476 0 
4.88099 -1.88493 0 
5.09545 -1.88466 0 
5.31057 -1.88453 0 
5.52653 -1.88564 0 
5.7436 -1.88981 0 
5.96352 -1.89563 0 
6.18733 -1.89813 0 
6.41543 -1.89522 0 
6.65059 -1.89622 0 
6.87542 -1.86913 0 
7.11122 -1.81621 0 
7.31223 -1.94975 0 
7.53264 -1.87683 0 
7.77077 -1.89068 0 
8.01717 -1.8297 0 
8.25014 -1.93148 0 
8.48528 -1.79628 0 
-8.48528 -1.57009 0 
-8.24868 -1.70836 0 
-8.015 -1.61096 0 
-7.76734 -1.73071 0 
-7.54593 -1.61782 0 
-7.32306 -1.66278 0 
-7.05152 -1.7082 0 
-6.79786 -1.66675 0 
-6.56099 -1.64764 0 
-6.33267 -1.64541 0 
-6.10856 -1.64921 0 
-5.88638 -1.65073 0 
-5.66697 -1.65153 0 
-5.44986 -1.65353 0 
-5.23379 -1.65525 0 
-5.01882 -1.6551 0 
-4.80519 -1.6548 0 
-4.59235 -1.65478 0 
-4.37976 -1.65422 0 
-4.16737 -1.65386 0 
-3.95537 -1.65471 0 
-3.74326 -1.6554 0 
-3.5309 -1.65455 0 
-3.31876 -1.65426 0 
-3.10682 -1.65593 0 
-2.89443 -1.65705 0 
-2.68177 -1.65644 0 
-2.46924 -1.65516 0 
-2.25682 -1.65408 0 
-2.04447 -1.65386 0 
-1.83202 -1.65455 0 
-1.61911 -1.65506 0 
-1.40572 -1.65429 0 
-1.19212 -1.65207 0 
-0.97885 -1.64982 0 
-0.767325 -1.65372 0 
-0.555434 -1.6581 0 
-0.343588 -1.65935 0 
-0.132061 -1.65818 0 
0.0792288 -1.65687 0 
0.290417 -1.65682 0 
0.501823 -1.6575 0 
0.713729 -1.65709 0 
0.925861 -1.65545 0 
1.13768 -1.65488 0 
1.34929 -1.65604 0 
1.56128 -1.6563 0 
1.77337 -1.65516 0 
1.985 -1.65561 0 
2.19698 -1.65642 0 
2.40939 -1.65525 0 
2.62143 -1.65394 0 
2.83323 -1.65414 0 
3.04553 -1.65355 0 
3.25842 -1.64868 0 
3.46746 -1.65522 0 
3.68272 -1.65284 0 
3.89574 -1.65288 0 
4.10731 -1.65378 0 
4.32287 -1.65565 0 
4.53627 -1.65249 0 
4.74932 -1.65397 0 
4.96428 -1.65355 0 
5.17935 -1.65257 0 
5.3944 -1.65202 0 
5.60927 -1.65354 0 
5.82513 -1.66019 0 
6.04295 -1.66711 0 
6.26383 -1.66843 0 
6.48537 -1.66776 0 
6.70098 -1.65646 0 
6.91299 -1.6206 0 
7.11709 -1.6046 0 
7.3526 -1.69716 0 
7.60698 -1.65764 0 
7.8325 -1.64214 0 
8.05985 -1.58842 0 
8.2608 -1.69223 0 
8.48528 -1.56961 0 
-8.48528 -1.35019 0 
-8.24958 -1.48044 0 
-8.0219 -1.3751 0 
-7.79713 -1.50391 0 
-7.58956 -1.39834 0 
-7.36199 -1.38754 0 
-7.16079 -1.49923 0 
-6.93764 -1.46284 0 
[...]
POINT_DATA 2054 
VECTORS vectors float
0.00191972 -0.000787293 0.999998 
0.000577341 -0.00809172 0.999967 
0.00161728 -0.00234025 0.999996 
0.00143179 0.00052516 0.999999 
0.00116888 0.00229671 0.999997 
0.00147108 0.00819658 0.999965 
0.00143389 0.0127479 0.999918 
0.00134322 0.0139826 0.999901 
0.00143299 0.0168368 0.999857 
0.00138932 0.0243241 0.999703 
0.00134847 0.0355008 0.999369 
0.00135365 0.0503437 0.998731 
0.0012874 0.0712974 0.997454 
0.00124089 0.0984306 0.995143 
0.00117817 0.130182 0.991489 
0.00109416 0.165346 0.986235 
0.0010482 0.202318 0.979319 
0.00095962 0.239036 0.97101 
0.000832552 0.272587 0.962131 
0.000720264 0.298735 0.954336 
0.000585449 0.31333 0.949644 
0.000429841 0.314278 0.949331 
0.000304364 0.301455 0.95348 
0.000194038 0.275692 0.961246 
8.95188e-05 0.239122 0.970989 
2.43288e-05 0.195789 0.980646 
-1.37717e-05 0.150452 0.988617 
-4.63437e-05 0.107197 0.994238 
-4.49961e-05 0.0685333 0.997649 
-2.27724e-05 0.0351127 0.999383 
-4.26083e-06 0.00651116 0.999979 
2.665e-05 -0.0178376 0.999841 
6.85966e-05 -0.0383877 0.999263 
0.000121556 -0.0562777 0.998415 
0.000176607 -0.0729566 0.997335 
0.000224669 -0.0883828 0.996087 
0.000274778 -0.100999 0.994886 
0.000332709 -0.109728 0.993962 
0.000420937 -0.115092 0.993355 
0.000509206 -0.117018 0.99313 
0.000572655 -0.113195 0.993573 
0.000645235 -0.102419 0.994741 
0.000708028 -0.0860656 0.996289 
0.000774893 -0.0644328 0.997922 
0.000829008 -0.0357068 0.999362 
0.0008277 0.000790622 0.999999 
0.0008632 0.0431381 0.999069 
0.000881051 0.0903375 0.995911 
0.000841949 0.144877 0.989449 
0.000868073 0.208089 0.97811 
0.000874461 0.279831 0.960049 
0.000772936 0.361478 0.93238 
0.000690739 0.455848 0.890057 
0.000562895 0.563985 0.825785 
0.000356769 0.682314 0.731059 
0.000204979 0.802612 0.596501 
6.47331e-05 0.909955 0.414708 
-8.54426e-05 0.982296 0.187336 
-0.000171577 0.99762 -0.0689449 
-0.000252294 0.945993 -0.324188 
-0.000379737 0.837014 -0.547182 
-0.000526973 0.695296 -0.718723 
-0.000684327 0.548278 -0.836296 
-0.000828329 0.415484 -0.9096 
-0.000991553 0.305152 -0.952303 
-0.00113273 0.217733 -0.976008 
-0.00117815 0.151033 -0.988528 
-0.00130179 0.102884 -0.994692 
-0.00133709 0.0693531 -0.997591 
-0.00130155 0.0459792 -0.998942 
-0.00147048 0.0306648 -0.999529 
-0.00133189 0.0221716 -0.999753 
-0.00139517 0.0176305 -0.999844 
-0.00150696 0.0104093 -0.999945 
-0.001156 0.00314519 -0.999994 
-0.00146919 0.00136777 -0.999998 
-0.00159745 -0.00211941 -0.999996 
-0.000593253 -0.00827157 -0.999966 
-0.00200188 -0.000759412 -0.999998 
-0.00268284 -0.00136852 0.999995 
0.00600195 -0.00708392 0.999957 
0.00595799 -0.00668093 0.99996 
0.00914575 -0.000663452 0.999958 
0.00711825 0.0022274 0.999972 
0.00778342 0.00596465 0.999952 
0.00694573 0.0102936 0.999923 
0.00764683 0.0141243 0.999871 
0.00682068 0.0175306 0.999823 
0.00487756 0.0241647 0.999696 
0.0028321 0.0339009 0.999421 
0.000683536 0.048009 0.998847 
-0.0025392 0.0674442 0.99772 
-0.00759917 0.0929928 0.995638 
-0.0151144 0.12431 0.992128 
-0.0258639 0.160274 0.986734 
-0.0410013 0.19965 0.979009 
-0.0617781 0.240365 0.968715 
-0.089403 0.279486 0.955978 
-0.124627 0.31298 0.941548 
-0.167205 0.336101 0.926865 
-0.215469 0.344959 0.913552 
-0.26632 0.337425 0.902894 
-0.315278 0.313436 0.895744 
-0.357234 0.275307 0.892519 
-0.388562 0.227676 0.892851 
-0.408193 0.176337 0.895703 
-0.417102 0.126519 0.900011 
-0.417408 0.0816846 0.90504 
-0.411565 0.043223 0.910355 
-0.401871 0.01089 0.915631 
-0.390098 -0.016361 0.920628 
-0.37724 -0.0396941 0.925265 
-0.363512 -0.0602408 0.92964 
-0.3482 -0.078883 0.934095 
-0.330385 -0.0958037 0.938971 
-0.309925 -0.110314 0.94434 
-0.287574 -0.121445 0.950027 
-0.264214 -0.128705 0.955838 
-0.240294 -0.131795 0.961711 
-0.216083 -0.129626 0.967732 
-0.192159 -0.121069 0.973867 
-0.16942 -0.106447 0.979779 
-0.148625 -0.0857654 0.985167 
-0.129925 -0.0592837 0.98975 
-0.113337 -0.0256058 0.993227 
-0.0984176 0.0132299 0.995057 
-0.0856302 0.0585646 0.994604 
-0.0744379 0.10986 0.991156 
-0.0648828 0.168787 0.983515 
-0.0571389 0.237299 0.969755 
-0.0509972 0.315073 0.947696 
-0.0467165 0.405607 0.912853 
-0.0441562 0.509498 0.859338 
-0.0429801 0.625604 0.778956 
-0.0430533 0.748225 0.662047 
-0.0439899 0.864937 0.499949 
-0.0448369 0.95606 0.289721 
-0.0446335 0.998148 0.0413373 
-0.042758 0.974602 -0.219824 
-0.0389177 0.886844 -0.460427 
-0.0335643 0.755118 -0.654729 
-0.0278952 0.607463 -0.793858 
-0.0228534 0.466969 -0.883978 
-0.0187992 0.346185 -0.937978 
-0.0156431 0.248673 -0.968461 
-0.013192 0.173063 -0.984822 
-0.011235 0.116675 -0.993107 
-0.0096151 0.0765056 -0.997023 
-0.00917916 0.0491567 -0.998749 
-0.00889201 0.0316242 -0.99946 
-0.00937388 0.0222603 -0.999708 
-0.00812958 0.014742 -0.999858 
-0.00799384 0.00777769 -0.999938 
-0.00807503 0.00268709 -0.999964 
-0.00957141 -0.000797891 -0.999954 
-0.00564869 -0.00644417 -0.999963 
-0.00595379 -0.00734761 -0.999955 
0.00227433 -0.00140476 -0.999996 
0.00143304 -0.000930113 0.999999 
0.00425935 -0.00888105 0.999951 
0.00741703 -0.00434556 0.999963 
0.00803589 -0.000954781 0.999967 
0.00619693 0.00627213 0.999961 
0.00580344 0.00920769 0.999941 
0.0061778 0.0132515 0.999893 
0.00559335 0.0179741 0.999823 
0.00258197 0.0246065 0.999694 
-0.00112205 0.0337879 0.999428 
-0.00500821 0.0467581 0.998894 
-0.0100058 0.0653044 0.997815 
-0.0176128 0.0902148 0.995767 
-0.0290757 0.122319 0.992065 
-0.0459353 0.161296 0.985836 
-0.0699852 0.206554 0.975929 
-0.103671 0.256739 0.960905 
-0.149601 0.309057 0.939204 
-0.209771 0.359076 0.909429 
-0.2844 0.400379 0.871099 
-0.370803 0.425614 0.825444 
-0.463549 0.428841 0.775382 
-0.55472 0.407496 0.725419 
-0.635 0.363376 0.681713 
-0.697111 0.3029 0.649836 
-0.738607 0.235148 0.631796 
-0.761177 0.168509 0.62627 
-0.768395 0.108574 0.630699 
-0.764327 0.057815 0.642231 
-0.752734 0.0161844 0.658125 
-0.736598 -0.0179853 0.676092 
-0.717925 -0.0469432 0.694535 
-0.69752 -0.0726105 0.712877 
-0.675112 -0.0962054 0.731415 
-0.648744 -0.117926 0.751814 
-0.616935 -0.137148 0.774972 
-0.580184 -0.15298 0.799989 
-0.540132 -0.164535 0.82534 
-0.498095 -0.170969 0.8501 
-0.454592 -0.171322 0.874068 
-0.410217 -0.164646 0.897002 
-0.3665 -0.150932 0.918094 
-0.325336 -0.130457 0.936556 
-0.287744 -0.103778 0.952068 
-0.253637 -0.0713065 0.964668 
-0.222783 -0.0329905 0.97431 
-0.195829 0.0111025 0.980575 
-0.172134 0.0600014 0.983244 
-0.15211 0.117112 0.981401 
-0.135038 0.181537 0.974068 
-0.12154 0.256196 0.958953 
-0.11163 0.342619 0.932819 
-0.10496 0.441952 0.890877 
-0.101582 0.555234 0.825468 
-0.10087 0.678374 0.727759 
-0.102229 0.802767 0.587464 
-0.103895 0.91143 0.398123 
-0.103809 0.981166 0.162902 
-0.0998432 0.990033 -0.0993249 
-0.0910103 0.930044 -0.355998 
-0.0781701 0.814533 -0.574826 
-0.0636032 0.670728 -0.738971 
-0.0496482 0.525463 -0.849366 
-0.0378768 0.395877 -0.917522 
-0.0288144 0.289062 -0.956877 
-0.0218944 0.205428 -0.978427 
-0.0167348 0.142452 -0.98966 
-0.0128745 0.0969375 -0.995207 
-0.0106089 0.065271 -0.997811 
-0.00943354 0.0440311 -0.998986 
-0.0105447 0.0305417 -0.999478 
-0.00868581 0.0209934 -0.999742 
-0.00813288 0.0164366 -0.999832 
-0.00750738 0.0114065 -0.999907 
-0.00788666 0.00623713 -0.999949 
-0.00896117 -0.000290052 -0.99996 
-0.00800044 -0.00484714 -0.999956 
-0.0039423 -0.00885798 -0.999953 
-0.00165712 -0.00089809 -0.999998 
-0.000747876 -0.000709299 0.999999 
0.0042908 -0.00717653 0.999965 
0.00376245 -0.00774764 0.999963 
0.00676946 -0.00168874 0.999976 
0.00246818 0.00430538 0.999988 
0.00154417 0.00900028 0.999958 
0.00156906 0.0120893 0.999926 
0.00144956 0.0176337 0.999843 
-0.0015346 0.0240535 0.999709 
-0.00649712 0.0335876 0.999415 
-0.0116923 0.0455472 0.998894 
-0.0173408 0.0627083 0.997881 
-0.0255638 0.0868067 0.995897 
-0.0380561 0.119332 0.992125 
-0.0563208 0.16104 0.98534 
-0.0828139 0.212347 0.973679 
-0.120662 0.27314 0.954377 
-0.173472 0.341268 0.92382 
-0.244513 0.412446 0.877555 
-0.334974 0.478856 0.811474 
-0.441851 0.528912 0.724583 
-0.557588 0.550772 0.621085 
-0.671622 0.537445 0.509977 
-0.772623 0.489341 0.404474 
-0.852115 0.41457 0.319424 
-0.90786 0.326445 0.263105 
-0.94251 0.237912 0.234675 
-0.960519 0.157655 0.229235 
-0.966395 0.0896859 0.240909 
-0.963898 0.0344277 0.264037 
-0.95577 -0.0100998 0.293942 
-0.943871 -0.0470055 0.326951 
-0.929219 -0.0793795 0.360903 
-0.91194 -0.109448 0.395459 
-0.891247 -0.138069 0.431991 
-0.864541 -0.164734 0.474797 
-0.830398 -0.188397 0.524352 
-0.789418 -0.207719 0.577644 
-0.743286 -0.221348 0.631293 
-0.693022 -0.227753 0.683995 
-0.639046 -0.225688 0.735313 
-0.582728 -0.21463 0.783812 
-0.526619 -0.195219 0.827383 
-0.473249 -0.168728 0.864619 
-0.42349 -0.135825 0.895661 
-0.377334 -0.0970414 0.920979 
-0.335208 -0.0530601 0.940649 
-0.298036 -0.0039053 0.954547 
-0.266052 0.051841 0.962564 
-0.237987 0.113806 0.964578 
-0.215346 0.186153 0.958631 
-0.197843 0.268345 0.942788 
-0.18556 0.363792 0.91281 
-0.178177 0.472955 0.862883 
-0.175902 0.594982 0.784255 
-0.176549 0.723407 0.667468 
-0.178827 0.846121 0.502095 
-0.179131 0.941344 0.285979 
-0.173357 0.984385 0.0305494 
-0.159271 0.958517 -0.236385 
-0.137751 0.867028 -0.478839 
-0.111918 0.733402 -0.67052 
-0.0861495 0.587129 -0.804896 
-0.0634483 0.450168 -0.890687 
-0.0452124 0.333815 -0.941554 
-0.0315291 0.241172 -0.96997 
-0.0215461 0.170426 -0.985135 
-0.0146824 0.118179 -0.992884 
-0.00966577 0.0811365 -0.996656 
-0.00732021 0.0554486 -0.998435 
-0.00647065 0.0376772 -0.999269 
-0.00662607 0.0244869 -0.999678 
-0.00395734 0.0163696 -0.999858 
-0.00490978 0.0104313 -0.999934 
-0.00415754 0.00645362 -0.999971 
-0.00727115 -0.00237969 -0.999971 
-0.00448325 -0.00718333 -0.999964 
-0.00412964 -0.00771524 -0.999962 
0.000442612 -0.000706146 -1 
0.000751876 -0.00168182 0.999998 
0.000899749 -0.00842862 0.999964 
5.11887e-05 -0.0055632 0.999985 
0.00105572 0.000166989 0.999999 
-0.00159902 0.00717909 0.999973 
-0.00280003 0.0120417 0.999924 
-0.00240369 0.0161852 0.999866 
-0.00442433 0.0224918 0.999737 
-0.0091698 0.0317424 0.999454 
-0.01454 0.043455 0.99895 
-0.0203184 0.0590103 0.998051 
-0.028058 0.0816132 0.996269 
-0.0395752 0.113392 0.992762 
-0.0564117 0.156305 0.986097 
-0.080921 0.21167 0.973985 
-0.116436 0.280803 0.952676 
-0.166899 0.362981 0.916728 
-0.236234 0.454434 0.858885 
-0.326445 0.547113 0.77078 
-0.434815 0.626384 0.646976 
-0.55238 0.673409 0.491321 
-0.666339 0.674334 0.318223 
-0.764614 0.627228 0.148157 
-0.840335 0.542054 0.00376073 
-0.894271 0.43645 -0.0989472 
-0.931198 0.327902 -0.159221 
-0.955874 0.228252 -0.18495 
-0.972319 0.143108 -0.184705 
-0.983336 0.0734796 -0.166285 
-0.990541 0.0174291 -0.136105 
-0.994706 -0.0284525 -0.0987483 
-0.996021 -0.0679571 -0.0576457 
-0.994447 -0.104228 -0.0145434 
-0.989771 -0.139239 0.0310652 
-0.981408 -0.173642 0.0817673 
-0.96762 -0.206326 0.145399 
-0.946493 -0.235931 0.220199 
-0.917555 -0.260536 0.300354 
-0.881365 -0.277852 0.382091 
-0.837976 -0.285748 0.464912 
-0.787811 -0.282872 0.547117 
-0.7324 -0.269138 0.625424 
-0.6747 -0.245834 0.69595 
-0.617551 -0.214485 0.756721 
-0.561975 -0.176209 0.808168 
-0.508136 -0.131824 0.851129 
-0.458294 -0.0817674 0.885032 
-0.413754 -0.0263206 0.910008 
-0.373889 0.0352944 0.926802 
-0.339996 0.106123 0.93442 
-0.312164 0.185808 0.931681 
-0.292064 0.278135 0.915063 
-0.278557 0.383652 0.880464 
-0.271533 0.502949 0.820556 
-0.270881 0.633066 0.725156 
-0.271251 0.763736 0.585773 
-0.271113 0.878971 0.392311 
-0.263814 0.952684 0.150982 
-0.244577 0.962615 -0.116424 
-0.213822 0.901851 -0.375426 
-0.175586 0.78547 -0.593469 
-0.136108 0.644201 -0.752648 
-0.100133 0.503489 -0.858179 
-0.0704576 0.379368 -0.922559 
-0.0476239 0.277986 -0.959404 
-0.0309231 0.199483 -0.979413 
-0.0191443 0.140787 -0.989855 
-0.0113079 0.098173 -0.995105 
-0.00610653 0.0683961 -0.99764 
-0.00346007 0.0479112 -0.998846 
-0.00330977 0.0329614 -0.999451 
-0.00261022 0.0223412 -0.999747 
-0.000815807 0.0152312 -0.999884 
-0.00130783 0.0107429 -0.999941 
-0.00071347 0.00597619 -0.999982 
-0.000929342 0.000253647 -1 
-0.000896654 -0.00691708 -0.999976 
-0.000907017 -0.00903066 -0.999959 
-0.000771751 -0.00164937 -0.999998 
0.000249374 -0.00096355 1 
-0.00105312 -0.00829796 0.999965 
-0.00142507 -0.00577184 0.999982 
-0.0015156 0.00105073 0.999998 
-0.00287442 0.00861374 0.999959 
-0.00397769 0.0128419 0.99991 
-0.00478591 0.0181967 0.999823 
-0.00869326 0.0274001 0.999587 
-0.0137667 0.0395037 0.999125 
-0.0190486 0.0540279 0.998358 
-0.0253839 0.074401 0.996905 
-0.0347167 0.103985 0.993973 
-0.048595 0.145863 0.988111 
-0.0687879 0.20203 0.976961 
-0.098274 0.274819 0.95646 
-0.140663 0.365545 0.920104 
-0.199875 0.47156 0.858884 
-0.2783 0.58552 0.761391 
-0.373991 0.692198 0.617246 
-0.478318 0.76773 0.426384 
-0.577782 0.78962 0.206562 
-0.660197 0.75097 -0.0135377 
-0.719897 0.662827 -0.205936 
-0.760449 0.546757 -0.350392 
-0.789959 0.424479 -0.442473 
-0.813274 0.310509 -0.492108 
-0.833188 0.211977 -0.510748 
-0.851815 0.130523 -0.507322 
-0.869893 0.0644747 -0.489008 
-0.887344 0.0105682 -0.460987 
-0.903798 -0.0350724 -0.426519 
-0.918511 -0.076121 -0.388 
-0.931023 -0.11527 -0.346278 
-0.941445 -0.154084 -0.2999 
-0.950155 -0.192874 -0.244961 
-0.957777 -0.230777 -0.171478 
-0.960208 -0.265974 -0.0851927 
-0.955225 -0.295765 0.00825961 
-0.94215 -0.317419 0.107697 
-0.920224 -0.328558 0.212693 
-0.888739 -0.327774 0.320478 
-0.848342 -0.314902 0.42562 
-0.80162 -0.291013 0.522224 
-0.751087 -0.257845 0.60777 
-0.697713 -0.216508 0.682877 
-0.643215 -0.167728 0.747089 
-0.590367 -0.113039 0.79918 
-0.54187 -0.0514398 0.838887 
-0.497092 0.0182232 0.867507 
-0.457783 0.0970451 0.883752 
-0.427813 0.187587 0.884187 
-0.405842 0.290469 0.866556 
-0.391323 0.406937 0.82539 
-0.384647 0.536371 0.751235 
-0.384504 0.672009 0.632898 
-0.37809 0.798342 0.46872 
-0.368815 0.896942 0.243867 
-0.34448 0.938656 -0.0160507 
-0.304312 0.910501 -0.279968 
-0.252038 0.817487 -0.517872 
-0.198069 0.68628 -0.699849 
-0.147597 0.547806 -0.823483 
-0.105104 0.419318 -0.901735 
-0.0718602 0.311382 -0.947564 
-0.0471863 0.226159 -0.972947 
-0.0297101 0.161819 -0.986373 
-0.0175199 0.114497 -0.993269 
-0.00943092 0.0809614 -0.996673 
-0.00438665 0.0577247 -0.998323 
-0.00155171 0.0416241 -0.999132 
-0.00070218 0.0296756 -0.999559 
-0.000483295 0.0208576 -0.999782 
0.000210189 0.014595 -0.999893 
0.000811564 0.0108092 -0.999941 
3.94955e-05 0.00466195 -0.999989 
-7.61853e-05 -0.00162316 -0.999999 
0.000779055 -0.00706441 -0.999975 
0.000966826 -0.00811949 -0.999967 
-0.000236227 -0.00112914 -0.999999 
0.000285556 -0.00141855 0.999999 
-0.00132781 -0.00785224 0.999968 
-0.00153674 -0.00573352 0.999982 
-0.00134592 0.000989162 0.999999 
-0.00321337 0.00875699 0.999956 
-0.00502257 0.0139998 0.999889 
-0.00583694 0.0174889 0.99983 
-0.00896808 0.0245715 0.999658 
-0.0136391 0.0353963 0.99928 
-0.0181886 0.0490222 0.998632 
-0.0228594 0.0668499 0.997501 
-0.0293238 0.0925712 0.995274 
-0.0393617 0.130978 0.990604 
-0.0542885 0.184623 0.981309 
-0.0762522 0.256138 0.963628 
-0.107943 0.348465 0.931086 
-0.152764 0.461575 0.873849 
-0.213064 0.589394 0.779243 
-0.288122 0.718115 0.63348 
-0.371569 0.822914 0.429825 
-0.451097 0.873543 0.182848 
-0.51541 0.853879 -0.0724064 
-0.559194 0.772549 -0.300782 
-0.585417 0.653612 -0.479665 
-0.603607 0.523096 -0.601689 
-0.620779 0.399119 -0.674787 
-0.638078 0.290365 -0.713123 
-0.656486 0.199356 -0.727518 
-0.676939 0.125024 -0.725343 
-0.699002 0.0643481 -0.712219 
-0.722153 0.013522 -0.691601 
-0.745915 -0.0309798 -0.66532 
-0.769012 -0.0723086 -0.635132 
-0.791383 -0.112334 -0.600911 
-0.813596 -0.152397 -0.561103 
-0.837706 -0.192686 -0.511 
-0.866366 -0.232775 -0.441844 
-0.892098 -0.270633 -0.361828 
-0.913225 -0.303562 -0.27179 
-0.928686 -0.329145 -0.170898 
-0.936687 -0.345124 -0.0592261 
-0.934924 -0.349663 0.060438 
-0.922005 -0.341847 0.181788 
-0.898776 -0.322029 0.297487 
-0.866882 -0.291264 0.404575 
-0.826841 -0.250669 0.503486 
-0.780614 -0.201263 0.591722 
-0.733187 -0.143055 0.66481 
-0.685743 -0.0763168 0.723832 
-0.639469 0.00143881 0.768816 
-0.599114 0.0906412 0.795517 
-0.568095 0.192269 0.800188 
-0.544822 0.307091 0.780297 
-0.528648 0.434791 0.729032 
-0.519346 0.571581 0.635275 
-0.514315 0.707117 0.485249 
-0.488485 0.818922 0.301245 
-0.458785 0.887597 0.0410886 
-0.408792 0.886853 -0.215361 
-0.338117 0.82016 -0.461535 
-0.267392 0.703631 -0.658335 
-0.200573 0.570668 -0.796309 
-0.144338 0.445805 -0.883416 
-0.0995167 0.334434 -0.93715 
-0.0661777 0.245174 -0.967218 
-0.042389 0.177271 -0.983249 
-0.0255411 0.126656 -0.991618 
-0.0141689 0.090477 -0.995798 
-0.00631955 0.0653247 -0.997844 
-0.00139765 0.0480767 -0.998843 
0.00129212 0.0354852 -0.999369 
0.00244311 0.0250536 -0.999683 
0.00257984 0.0171755 -0.999849 
0.00120862 0.012366 -0.999923 
0.00120736 0.00902591 -0.999959 
0.000434596 0.0024605 -0.999997 
0.000466364 -0.00565337 -0.999984 
0.00108678 -0.00853743 -0.999963 
-0.000385814 -0.00121346 -0.999999 
-0.000164511 -0.00138931 0.999999 
-0.00198312 -0.00823019 0.999964 
-0.00246441 -0.00513914 0.999984 
-0.00266532 0.00202443 0.999994 
-0.00448377 0.0109393 0.99993 
-0.007051 0.0170557 0.99983 
-0.00853805 0.0206311 0.999751 
-0.0128857 0.0299601 0.999468 
-0.017354 0.0428422 0.998931 
-0.0214131 0.0589596 0.998031 
-0.0257324 0.0804265 0.996428 
-0.0320919 0.112939 0.993084 
-0.0418296 0.16136 0.986009 
-0.0563044 0.227167 0.972227 
-0.077342 0.314086 0.946239 
-0.107322 0.425003 0.898807 
-0.14805 0.557243 0.817044 
-0.199831 0.699023 0.686611 
-0.260124 0.829588 0.494085 
-0.319429 0.915679 0.243922 
-0.368071 0.929259 -0.0316408 
-0.401053 0.869192 -0.289242 
-0.419094 0.75807 -0.49969 
-0.428749 0.62529 -0.652064 
-0.438565 0.494054 -0.750714 
-0.451275 0.376374 -0.809131 
-0.465806 0.276332 -0.840634 
-0.482772 0.194001 -0.853988 
-0.502587 0.126752 -0.855184 
-0.524541 0.0709998 -0.84842 
-0.548461 0.0235078 -0.835846 
-0.57352 -0.0191854 -0.818967 
-0.598958 -0.0589462 -0.798608 
-0.624796 -0.0975597 -0.774669 
-0.652598 -0.135627 -0.745467 
-0.686184 -0.174119 -0.706282 
-0.727827 -0.213043 -0.651829 
-0.768935 -0.250158 -0.588353 
-0.809993 -0.283605 -0.513303 
-0.84984 -0.311307 -0.425277 
-0.886351 -0.331428 -0.323322 
-0.916145 -0.342021 -0.209046 
-0.935817 -0.341303 -0.0880802 
-0.943897 -0.328646 0.0324075 
-0.94043 -0.304566 0.151096 
-0.925018 -0.26928 0.268011 
-0.899137 -0.222761 0.376737 
-0.866686 -0.16467 0.470892 
-0.829625 -0.0935962 0.55042 
-0.788559 -0.00880646 0.614896 
-0.752219 0.0905503 0.652661 
-0.723466 0.203999 0.659532 
-0.698198 0.329575 0.635532 
-0.676462 0.465573 0.57065 
-0.658264 0.605131 0.447777 
-0.635394 0.727968 0.25756 
-0.572325 0.816808 0.0725843 
-0.519835 0.829153 -0.205616 
-0.424376 0.790882 -0.440921 
-0.335891 0.690477 -0.640639 
-0.25167 0.56863 -0.783149 
-0.180987 0.448038 -0.875503 
-0.126051 0.345986 -0.929734 
-0.0825672 0.252403 -0.964093 
-0.0531554 0.183707 -0.981543 
-0.0320106 0.13199 -0.990734 
-0.0174961 0.0946407 -0.995358 
-0.0079288 0.0693106 -0.997564 
-0.00168695 0.0528239 -0.998602 
0.0025546 0.0409673 -0.999157 
0.0046334 0.0310179 -0.999508 
0.0052496 0.0221722 -0.99974 
0.00481012 0.0155371 -0.999868 
0.0028183 0.0118284 -0.999926 
0.00173347 0.00763116 -0.999969 
0.00109545 -5.56959e-05 -0.999999 
0.0010088 -0.00580897 -0.999983 
0.00128929 -0.00960784 -0.999953 
0.00031668 -0.00142404 -0.999999 
-8.96992e-05 -0.00132163 0.999999 
-0.00199318 -0.00791826 0.999967 
-0.00305109 -0.00465757 0.999984 
-0.00324399 0.00318125 0.99999 
-0.00546571 0.0122428 0.99991 
-0.00801886 0.0178496 0.999809 
-0.0108612 0.0245138 0.99964 
-0.0146641 0.0361997 0.999237 
-0.0182551 0.0511705 0.998523 
-0.0216527 0.0696959 0.997333 
-0.0257694 0.0961081 0.995037 
-0.0313266 0.136636 0.990126 
-0.039506 0.195799 0.979848 
-0.0513748 0.272948 0.960656 
-0.068876 0.375197 0.924383 
-0.092862 0.503957 0.858722 