# vtk DataFile Version 3.0 
Exported using Morpho https://github.com/Morpho-lang/morpho 
ASCII 
DATASET UNSTRUCTURED_GRID 

POINTS 2054 float 
-8.48528 -2.82843 0 
-8.20636 -2.82843 0 
-7.94054 -2.82843 0 
-7.6904 -2.82843 0 
-7.45357 -2.82843 0 
-7.22694 -2.82843 0 
-7.00705 -2.82843 0 
-6.79111 -2.82843 0 
-6.57731 -2.82843 0 
-6.36453 -2.82843 0 
-6.15219 -2.82843 0 
-5.94 -2.82843 0 
-5.72786 -2.82843 0 
-5.51573 -2.82843 0 
-5.3036 -2.82843 0 
-5.09147 -2.82843 0 
-4.87933 -2.82843 0 
-4.6672 -2.82843 0 
-4.45507 -2.82843 0 
-4.24294 -2.82843 0 
-4.03081 -2.82843 0 
-3.81867 -2.82843 0 
-3.60654 -2.82843 0 
-3.39441 -2.82843 0 
-3.18228 -2.82843 0 
-2.97015 -2.82843 0 
-2.75801 -2.82843 0 
-2.54588 -2.82843 0 
-2.33375 -2.82843 0 
-2.12162 -2.82843 0 
-1.90949 -2.82843 0 
-1.69735 -2.82843 0 
-1.48522 -2.82843 0 
-1.27309 -2.82843 0 
-1.06096 -2.82843 0 
-0.848825 -2.82843 0 
-0.636693 -2.82843 0 
-0.424561 -2.82843 0 
-0.212429 -2.82843 0 
-0.000296761 -2.82843 0 
0.211835 -2.82843 0 
0.423967 -2.82843 0 
0.636099 -2.82843 0 
0.848231 -2.82843 0 
1.06036 -2.82843 0 
1.2725 -2.82843 0 
1.48463 -2.82843 0 
1.69676 -2.82843 0 
1.90889 -2.82843 0 
2.12102 -2.82843 0 
2.33316 -2.82843 0 
2.54529 -2.82843 0 
2.75742 -2.82843 0 
2.96955 -2.82843 0 
3.18168 -2.82843 0 
3.39382 -2.82843 0 
3.60595 -2.82843 0 
3.81808 -2.82843 0 
4.03021 -2.82843 0 
4.24234 -2.82843 0 
4.45448 -2.82843 0 
4.66661 -2.82843 0 
4.87874 -2.82843 0 
5.09087 -2.82843 0 
5.303 -2.82843 0 
5.51514 -2.82843 0 
5.72727 -2.82843 0 
5.93941 -2.82843 0 
6.15159 -2.82843 0 
6.36393 -2.82843 0 
6.57672 -2.82843 0 
6.79055 -2.82843 0 
7.00652 -2.82843 0 
7.22647 -2.82843 0 
7.45313 -2.82843 0 
7.69005 -2.82843 0 
7.9403 -2.82843 0 
8.20621 -2.82843 0 
8.48528 -2.82843 0 
-8.48528 -2.5495 0 
-8.30526 -2.64845 0 
-8.07062 -2.59995 0 
-7.83904 -2.59637 0 
-7.59595 -2.59733 0 
-7.36578 -2.59177 0 
-7.13796 -2.5933 0 
-6.90908 -2.59428 0 
-6.68421 -2.5916 0 
-6.46568 -2.58832 0 
-6.24926 -2.58859 0 
-6.03358 -2.58941 0 
-5.81848 -2.59013 0 
-5.60402 -2.59075 0 
-5.39005 -2.59135 0 
-5.17642 -2.59186 0 
-4.96311 -2.59223 0 
-4.75009 -2.59242 0 
-4.53736 -2.59244 0 
-4.32497 -2.59236 0 
-4.1128 -2.59242 0 
-3.90059 -2.59259 0 
-3.68835 -2.5926 0 
-3.47627 -2.59248 0 
-3.26428 -2.59251 0 
-3.05216 -2.59271 0 
-2.83986 -2.59283 0 
-2.62755 -2.59274 0 
-2.41539 -2.59253 0 
-2.20336 -2.59238 0 
-1.99135 -2.59238 0 
-1.77924 -2.59246 0 
-1.56704 -2.59244 0 
-1.35495 -2.59215 0 
-1.14319 -2.59183 0 
-0.931581 -2.59195 0 
-0.719663 -2.59256 0 
-0.507197 -2.59324 0 
-0.294425 -2.59354 0 
-0.0817689 -2.59344 0 
0.130587 -2.59325 0 
0.342804 -2.59322 0 
0.555051 -2.59322 0 
0.767233 -2.59303 0 
0.97919 -2.59278 0 
1.19107 -2.59278 0 
1.40311 -2.59289 0 
1.61524 -2.59286 0 
1.82732 -2.59279 0 
2.03943 -2.59281 0 
2.25163 -2.5928 0 
2.46381 -2.59266 0 
2.67591 -2.59254 0 
2.88801 -2.59237 0 
3.10001 -2.59226 0 
3.31203 -2.59216 0 
3.52402 -2.59207 0 
3.73601 -2.59208 0 
3.94815 -2.59221 0 
4.16052 -2.5923 0 
4.37309 -2.59232 0 
4.58593 -2.59227 0 
4.79921 -2.5922 0 
5.01319 -2.59212 0 
5.22833 -2.5921 0 
5.44534 -2.59239 0 
5.6657 -2.59346 0 
5.89185 -2.59569 0 
6.12685 -2.59429 0 
6.36853 -2.59189 0 
6.6108 -2.57787 0 
6.84491 -2.61411 0 
7.08804 -2.58476 0 
7.34858 -2.60369 0 
7.58803 -2.59327 0 
7.83059 -2.59326 0 
8.06387 -2.59199 0 
8.30038 -2.64348 0 
8.48528 -2.54936 0 
-8.48528 -2.28369 0 
-8.25701 -2.4138 0 
-8.01078 -2.35334 0 
-7.73666 -2.37963 0 
-7.49744 -2.35565 0 
-7.26898 -2.35831 0 
-7.03324 -2.36676 0 
-6.7997 -2.36275 0 
-6.5773 -2.35166 0 
-6.35808 -2.3495 0 
-6.14038 -2.35058 0 
-5.92336 -2.35185 0 
-5.70723 -2.35272 0 
-5.49199 -2.35362 0 
-5.27734 -2.35447 0 
-5.0632 -2.35505 0 
-4.84958 -2.35534 0 
-4.63641 -2.35533 0 
-4.42363 -2.35504 0 
-4.21126 -2.35485 0 
-3.99909 -2.35513 0 
-3.78684 -2.3554 0 
-3.57461 -2.35516 0 
-3.36263 -2.35498 0 
-3.15066 -2.35537 0 
-2.93843 -2.35586 0 
-2.72604 -2.35589 0 
-2.51374 -2.35551 0 
-2.30162 -2.35509 0 
-2.08964 -2.35496 0 
-1.87761 -2.35518 0 
-1.66544 -2.3554 0 
-1.45322 -2.35518 0 
-1.2412 -2.35438 0 
-1.02967 -2.35407 0 
-0.818162 -2.35505 0 
-0.606054 -2.35676 0 
-0.393243 -2.3579 0 
-0.180256 -2.35789 0 
0.0323765 -2.35727 0 
0.244686 -2.35692 0 
0.456926 -2.35692 0 
0.669206 -2.35667 0 
0.881318 -2.35598 0 
1.09315 -2.35559 0 
1.305 -2.35583 0 
1.51709 -2.35595 0 
1.72919 -2.35571 0 
1.9412 -2.35566 0 
2.15334 -2.3558 0 
2.36559 -2.3556 0 
2.57772 -2.35522 0 
2.78976 -2.35507 0 
3.0019 -2.35461 0 
3.21373 -2.35451 0 
3.42571 -2.35439 0 
3.63769 -2.35431 0 
3.84965 -2.35453 0 
4.06183 -2.35491 0 
4.27435 -2.35507 0 
4.48707 -2.35507 0 
4.70017 -2.35506 0 
4.91376 -2.35498 0 
5.12819 -2.35502 0 
5.34378 -2.35528 0 
5.56106 -2.35662 0 
5.78097 -2.35971 0 
6.00401 -2.36251 0 
6.2308 -2.3624 0 
6.45748 -2.35551 0 
6.68075 -2.33423 0 
6.88797 -2.39744 0 
7.05313 -2.27289 0 
7.24377 -2.40237 0 
7.48542 -2.36016 0 
7.73055 -2.36599 0 
7.99177 -2.33552 0 
8.24864 -2.40698 0 
8.48528 -2.28345 0 
-8.48528 -2.03355 0 
-8.25312 -2.18214 0 
-8.03669 -2.07913 0 
-7.83956 -2.18231 0 
-7.6106 -2.12852 0 
-7.38852 -2.10959 0 
-7.16268 -2.14097 0 
-6.9229 -2.1435 0 
-6.70119 -2.12055 0 
-6.48111 -2.11285 0 
-6.26282 -2.11284 0 
-6.045 -2.1151 0 
-5.82775 -2.11658 0 
-5.61153 -2.11776 0 
-5.3962 -2.1192 0 
-5.18144 -2.1203 0 
-4.96732 -2.12084 0 
-4.75387 -2.12105 0 
-4.54086 -2.12091 0 
-4.32822 -2.12045 0 
-4.11596 -2.12045 0 
-3.90382 -2.12107 0 
-3.69156 -2.12116 0 
-3.47938 -2.12058 0 
-3.26746 -2.12068 0 
-3.05542 -2.12154 0 
-2.84307 -2.12198 0 
-2.63064 -2.12162 0 
-2.41836 -2.12087 0 
-2.20626 -2.12031 0 
-1.99426 -2.12034 0 
-1.78217 -2.1207 0 
-1.56989 -2.12074 0 
-1.35755 -2.11993 0 
-1.14542 -2.11838 0 
-0.934012 -2.11859 0 
-0.722404 -2.12089 0 
-0.509943 -2.12344 0 
-0.296911 -2.12431 0 
-0.0840921 -2.12359 0 
0.128295 -2.12281 0 
0.340414 -2.12274 0 
0.552564 -2.12288 0 
0.76478 -2.12226 0 
0.976792 -2.1213 0 
1.18855 -2.12128 0 
1.40042 -2.12188 0 
1.61256 -2.12177 0 
1.82458 -2.12141 0 
2.03655 -2.12164 0 
2.24875 -2.12174 0 
2.46099 -2.12114 0 
2.67302 -2.12065 0 
2.88504 -2.12054 0 
3.09728 -2.1194 0 
3.30873 -2.11968 0 
3.52086 -2.1195 0 
3.7329 -2.11938 0 
3.94484 -2.11986 0 
4.15715 -2.12044 0 
4.36983 -2.12035 0 
4.58282 -2.1204 0 
4.79606 -2.12017 0 
5.01004 -2.12012 0 
5.22483 -2.12002 0 
5.44073 -2.12051 0 
5.6582 -2.123 0 
5.8782 -2.12696 0 
6.10217 -2.12971 0 
6.33095 -2.12707 0 
6.567 -2.11601 0 
6.82301 -2.12303 0 
7.06572 -2.04567 0 
7.29733 -2.17484 0 
7.54632 -2.11408 0 
7.79371 -2.13741 0 
8.02274 -2.07453 0 
8.25027 -2.1738 0 
8.48528 -2.0332 0 
-8.48528 -1.79671 0 
-8.25436 -1.93882 0 
-8.01299 -1.83977 0 
-7.78596 -1.953 0 
-7.5297 -1.87194 0 
-7.2756 -1.88722 0 
-7.05707 -1.93544 0 
-6.84369 -1.89677 0 
-6.62219 -1.88079 0 
-6.40169 -1.87606 0 
-6.18206 -1.87854 0 
-5.96274 -1.881 0 
-5.74458 -1.88208 0 
-5.52796 -1.88344 0 
-5.31232 -1.88506 0 
-5.09736 -1.88569 0 
-4.88338 -1.88564 0 
-4.67019 -1.88555 0 
-4.45737 -1.88507 0 
-4.24485 -1.88447 0 
-4.03271 -1.88482 0 
-3.82061 -1.88562 0 
-3.60832 -1.88529 0 
-3.39617 -1.88464 0 
-3.18427 -1.88547 0 
-2.97209 -1.88672 0 
-2.7596 -1.88684 0 
-2.54714 -1.88601 0 
-2.33483 -1.88505 0 
-2.12268 -1.8846 0 
-1.91058 -1.885 0 
-1.69824 -1.88561 0 
-1.48561 -1.88547 0 
-1.27286 -1.88413 0 
-1.06032 -1.88216 0 
-0.848858 -1.8839 0 
-0.636875 -1.88781 0 
-0.424169 -1.89034 0 
-0.211518 -1.89004 0 
0.000731944 -1.88866 0 
0.21257 -1.88788 0 
0.424308 -1.88807 0 
0.636257 -1.88793 0 
0.848362 -1.88664 0 
1.06025 -1.88556 0 
1.27191 -1.88605 0 
1.48381 -1.88664 0 
1.69595 -1.886 0 
1.90782 -1.88577 0 
2.11974 -1.88637 0 
2.33202 -1.88609 0 
2.54419 -1.88502 0 
2.75607 -1.88472 0 
2.96812 -1.88462 0 
3.18055 -1.88217 0 
3.39117 -1.88415 0 
3.60398 -1.8838 0 
3.81618 -1.88366 0 
4.02827 -1.88469 0 
4.24071 -1.88523 0 
4.4544 -1.88509 0 
4.66716 -1.88476 0 
4.88099 -1.88493 0 
5.09545 -1.88466 0 
5.31057 -1.88453 0 
5.52653 -1.88564 0 
5.7436 -1.88981 0 
5.96352 -1.89563 0 
6.18733 -1.89813 0 
6.41543 -1.89522 0 
6.65059 -1.89622 0 
6.87542 -1.86913 0 
7.11122 -1.81621 0 
7.31223 -1.94975 0 
7.53264 -1.87683 0 
7.77077 -1.89068 0 
8.01717 -1.8297 0 
8.25014 -1.93148 0 
8.48528 -1.79628 0 
-8.48528 -1.57009 0 
-8.24868 -1.70836 0 
-8.015 -1.61096 0 
-7.76734 -1.73071 0 
-7.54593 -1.61782 0 
-7.32306 -1.66278 0 
-7.05152 -1.7082 0 
-6.79786 -1.66675 0 
-6.56099 -1.64764 0 
-6.33267 -1.64541 0 
-6.10856 -1.64921 0 
-5.88638 -1.65073 0 
-5.66697 -1.65153 0 
-5.44986 -1.65353 0 
-5.23379 -1.65525 0 
-5.01882 -1.6551 0 
-4.80519 -1.6548 0 
-4.59235 -1.65478 0 
-4.37976 -1.65422 0 
-4.16737 -1.65386 0 
-3.95537 -1.65471 0 
-3.74326 -1.6554 0 
-3.5309 -1.65455 0 
-3.31876 -1.65426 0 
-3.10682 -1.65593 0 
-2.89443 -1.65705 0 
-2.68177 -1.65644 0 
-2.46924 -1.65516 0 
-2.25682 -1.65408 0 
-2.04447 -1.65386 0 
-1.83202 -1.65455 0 
-1.61911 -1.65506 0 
-1.40572 -1.65429 0 
-1.19212 -1.65207 0 
-0.97885 -1.64982 0 
-0.767325 -1.65372 0 
-0.555434 -1.6581 0 
-0.343588 -1.65935 0 
-0.132061 -1.65818 0 
0.0792288 -1.65687 0 
0.290417 -1.65682 0 
0.501823 -1.6575 0 
0.713729 -1.65709 0 
0.925861 -1.65545 0 
1.13768 -1.65488 0 
1.34929 -1.65604 0 
1.56128 -1.6563 0 
1.77337 -1.65516 0 
1.985 -1.65561 0 
2.19698 -1.65642 0 
2.40939 -1.65525 0 
2.62143 -1.65394 0 
2.83323 -1.65414 0 
3.04553 -1.65355 0 
3.25842 -1.64868 0 
3.46746 -1.65522 0 
3.68272 -1.65284 0 
3.89574 -1.65288 0 
4.10731 -1.65378 0 
4.32287 -1.65565 0 
4.53627 -1.65249 0 
4.74932 -1.65397 0 
4.96428 -1.65355 0 
5.17935 -1.65257 0 
5.3944 -1.65202 0 
5.60927 -1.65354 0 
5.82513 -1.66019 0 
6.04295 -1.66711 0 
6.26383 -1.66843 0 
6.48537 -1.66776 0 
6.70098 -1.65646 0 
6.91299 -1.6206 0 
7.11709 -1.6046 0 
7.3526 -1.69716 0 
7.60698 -1.65764 0 
7.8325 -1.64214 0 
8.05985 -1.58842 0 
8.2608 -1.69223 0 
8.48528 -1.56961 0 
-8.48528 -1.35019 0 
-8.24958 -1.48044 0 
-8.0219 -1.3751 0 
-7.79713 -1.50391 0 
-7.58956 -1.39834 0 
-7.36199 -1.38754 0 
-7.16079 -1.49923 0 
-6.93764 -1.46284 0 
[...]
POINT_DATA 2054 
VECTORS vectors float
0.00263953 -0.00184797 0.999995 
0.00179153 -0.0080942 0.999966 
0.00327049 -0.00233954 0.999992 
0.00297028 0.00052525 0.999995 
0.0024283 0.0022947 0.999994 
0.00274239 0.00819666 0.999963 
0.00265667 0.0127489 0.999915 
0.0024913 0.0139814 0.999899 
0.0025892 0.016834 0.999855 
0.00252482 0.0243214 0.999701 
0.00245457 0.035498 0.999367 
0.00244445 0.0503398 0.998729 
0.00233772 0.0712934 0.997453 
0.00224656 0.0984273 0.995142 
0.00213042 0.130179 0.991488 
0.00198699 0.165343 0.986234 
0.00189246 0.202316 0.979319 
0.00173381 0.239034 0.97101 
0.00151211 0.272587 0.96213 
0.00130233 0.298735 0.954335 
0.00105774 0.313332 0.949643 
0.00078397 0.31428 0.94933 
0.000555552 0.301458 0.953479 
0.00035533 0.275695 0.961245 
0.000171431 0.239126 0.970989 
5.11983e-05 0.195792 0.980645 
-2.15321e-05 0.150455 0.988617 
-7.64836e-05 0.1072 0.994237 
-7.61014e-05 0.0685361 0.997649 
-3.95585e-05 0.0351154 0.999383 
-3.39621e-06 0.00651341 0.999979 
5.30548e-05 -0.0178358 0.999841 
0.000130062 -0.0383858 0.999263 
0.000224967 -0.0562753 0.998415 
0.000322182 -0.0729543 0.997335 
0.000408606 -0.0883813 0.996087 
0.000498562 -0.100998 0.994887 
0.000606077 -0.109727 0.993962 
0.000761234 -0.115091 0.993355 
0.000918224 -0.117017 0.993129 
0.00103964 -0.113195 0.993572 
0.00116892 -0.102418 0.994741 
0.00128498 -0.0860638 0.996289 
0.00140402 -0.0644311 0.997921 
0.00149591 -0.0357045 0.999361 
0.00150621 0.000794843 0.999999 
0.00155896 0.0431441 0.999068 
0.00158296 0.0903438 0.995909 
0.00153128 0.144884 0.989447 
0.00156782 0.208097 0.978107 
0.0015678 0.279839 0.960046 
0.00140395 0.361486 0.932376 
0.00124476 0.455856 0.890053 
0.0010071 0.563992 0.825779 
0.000653521 0.682321 0.731053 
0.000373563 0.802617 0.596494 
0.000118502 0.909959 0.414699 
-0.00014207 0.982298 0.187327 
-0.000309931 0.99762 -0.0689548 
-0.000468109 0.945989 -0.324197 
-0.000697192 0.837008 -0.54719 
-0.000961241 0.695288 -0.71873 
-0.0012389 0.548269 -0.836301 
-0.00150164 0.415476 -0.909603 
-0.00179059 0.305144 -0.952305 
-0.0020368 0.217726 -0.976008 
-0.00214694 0.151027 -0.988527 
-0.00234587 0.102879 -0.994691 
-0.00241441 0.0693488 -0.99759 
-0.00239503 0.0459754 -0.99894 
-0.00263109 0.0306616 -0.999526 
-0.00247418 0.0221697 -0.999751 
-0.00260297 0.0176315 -0.999841 
-0.00279231 0.010409 -0.999942 
-0.00242493 0.00314284 -0.999992 
-0.0030306 0.0013684 -0.999994 
-0.00325866 -0.00211855 -0.999992 
-0.00184554 -0.00827424 -0.999964 
-0.00276767 -0.00182153 -0.999995 
-0.00278949 -0.00443347 0.999986 
0.00601036 -0.007086 0.999957 
0.00595843 -0.00668476 0.99996 
0.00915216 -0.000660877 0.999958 
0.0071199 0.0022272 0.999972 
0.00778796 0.0059642 0.999952 
0.006948 0.0102936 0.999923 
0.00765129 0.0141244 0.999871 
0.00682496 0.0175287 0.999823 
0.004881 0.024163 0.999696 
0.00283536 0.0338984 0.999421 
0.000687308 0.048006 0.998847 
-0.00253517 0.0674409 0.99772 
-0.00759519 0.0929896 0.995638 
-0.0151106 0.124307 0.992129 
-0.0258602 0.160272 0.986734 
-0.0409978 0.199647 0.97901 
-0.0617746 0.240363 0.968715 
-0.0893996 0.279485 0.955979 
-0.124624 0.31298 0.941548 
-0.167201 0.336102 0.926865 
-0.215466 0.344962 0.913551 
-0.266318 0.337428 0.902894 
-0.315276 0.31344 0.895744 
-0.357233 0.27531 0.892518 
-0.388562 0.22768 0.89285 
-0.408193 0.176341 0.895702 
-0.417102 0.126522 0.90001 
-0.417408 0.0816877 0.90504 
-0.411565 0.0432258 0.910355 
-0.401872 0.0108926 0.915631 
-0.390098 -0.0163588 0.920628 
-0.37724 -0.0396921 0.925265 
-0.363512 -0.0602389 0.92964 
-0.3482 -0.0788813 0.934095 
-0.330385 -0.0958024 0.938972 
-0.309925 -0.110313 0.94434 
-0.287574 -0.121444 0.950028 
-0.264213 -0.128704 0.955838 
-0.240293 -0.131794 0.961712 
-0.216081 -0.129626 0.967733 
-0.192157 -0.121068 0.973868 
-0.169417 -0.106446 0.979779 
-0.148622 -0.0857635 0.985168 
-0.129922 -0.0592818 0.98975 
-0.113335 -0.0256015 0.993227 
-0.0984147 0.013234 0.995058 
-0.0856276 0.0585708 0.994604 
-0.0744352 0.109867 0.991155 
-0.06488 0.168794 0.983514 
-0.0571364 0.237308 0.969753 
-0.0509945 0.315081 0.947694 
-0.0467142 0.405615 0.91285 
-0.0441544 0.509506 0.859334 
-0.0429785 0.62561 0.778951 
-0.0430521 0.748231 0.66204 
-0.0439891 0.864942 0.499941 
-0.0448366 0.956063 0.289712 
-0.0446332 0.998148 0.0413274 
-0.0427579 0.9746 -0.219833 
-0.0389179 0.886839 -0.460436 
-0.0335646 0.755111 -0.654737 
-0.0278958 0.607455 -0.793864 
-0.0228547 0.466962 -0.883982 
-0.0188012 0.346178 -0.937981 
-0.0156457 0.248666 -0.968463 
-0.0131951 0.173057 -0.984823 
-0.0112384 0.11667 -0.993107 
-0.00961792 0.0765016 -0.997023 
-0.00918294 0.049154 -0.998749 
-0.00889422 0.0316209 -0.99946 
-0.0093797 0.0222605 -0.999708 
-0.00813243 0.0147414 -0.999858 
-0.0079976 0.00777742 -0.999938 
-0.00807748 0.00268636 -0.999964 
-0.00957803 -0.000796365 -0.999954 
-0.00564821 -0.00644728 -0.999963 
-0.00596208 -0.00735009 -0.999955 
0.00235026 -0.00449382 -0.999987 
0.00146216 -0.00372144 0.999992 
0.0042598 -0.00888731 0.999951 
0.00742009 -0.00434439 0.999963 
0.00803832 -0.000958371 0.999967 
0.00619827 0.00627502 0.999961 
0.00580478 0.00920753 0.999941 
0.00618032 0.0132512 0.999893 
0.00559667 0.0179732 0.999823 
0.00258432 0.0246054 0.999694 
-0.0011202 0.0337862 0.999428 
-0.00500614 0.0467555 0.998894 
-0.0100032 0.0653016 0.997815 
-0.0176099 0.0902115 0.995767 
-0.0290726 0.122316 0.992065 
-0.0459323 0.161293 0.985837 
-0.0699819 0.206551 0.97593 
-0.103668 0.256736 0.960906 
-0.149597 0.309055 0.939205 
-0.209766 0.359075 0.90943 
-0.284395 0.40038 0.8711 
-0.370798 0.425616 0.825445 
-0.463545 0.428844 0.775383 
-0.554716 0.4075 0.72542 
-0.634997 0.36338 0.681713 
-0.69711 0.302904 0.649836 
-0.738606 0.235151 0.631795 
-0.761177 0.168513 0.62627 
-0.768395 0.108577 0.630698 
-0.764328 0.0578182 0.64223 
-0.752735 0.0161873 0.658124 
-0.736598 -0.0179826 0.676091 
-0.717927 -0.0469408 0.694534 
-0.697521 -0.0726086 0.712876 
-0.675113 -0.0962039 0.731414 
-0.648745 -0.117925 0.751814 
-0.616936 -0.137147 0.774971 
-0.580185 -0.15298 0.799989 
-0.540131 -0.164534 0.82534 
-0.498095 -0.170969 0.850101 
-0.454591 -0.171322 0.874069 
-0.410215 -0.164646 0.897003 
-0.366497 -0.150932 0.918096 
-0.325333 -0.130456 0.936557 
-0.287741 -0.103776 0.952069 
-0.253634 -0.0713037 0.964669 
-0.22278 -0.0329865 0.974311 
-0.195827 0.0111084 0.980576 
-0.172131 0.0600061 0.983245 
-0.152107 0.117119 0.9814 
-0.135036 0.181544 0.974067 
-0.121538 0.256203 0.958952 
-0.111628 0.342627 0.932816 
-0.104959 0.441959 0.890874 
-0.101581 0.555241 0.825463 
-0.100869 0.678381 0.727753 
-0.102228 0.802773 0.587457 
-0.103895 0.911434 0.398114 
-0.10381 0.981168 0.162892 
-0.0998437 0.990032 -0.0993352 
-0.0910106 0.930041 -0.356008 
-0.0781702 0.814528 -0.574834 
-0.0636033 0.670721 -0.738978 
-0.0496485 0.525456 -0.849371 
-0.0378774 0.39587 -0.917525 
-0.0288158 0.289056 -0.956879 
-0.0218962 0.205422 -0.978428 
-0.0167367 0.142447 -0.989661 
-0.0128761 0.0969333 -0.995208 
-0.0106107 0.065268 -0.997811 
-0.0094344 0.0440289 -0.998986 
-0.0105497 0.0305411 -0.999478 
-0.00868553 0.0209917 -0.999742 
-0.00813601 0.0164363 -0.999832 
-0.00750769 0.0114069 -0.999907 
-0.00788868 0.00623794 -0.999949 
-0.00896349 -0.000291509 -0.99996 
-0.0080042 -0.00484699 -0.999956 
-0.00394181 -0.00886367 -0.999953 
-0.00171028 -0.00366596 -0.999992 
-0.000759968 -0.00307788 0.999995 
0.00429388 -0.00717785 0.999965 
0.00376282 -0.00775365 0.999963 
0.00677379 -0.0016883 0.999976 
0.00246655 0.00430634 0.999988 
0.00154404 0.00900137 0.999958 
0.00156876 0.0120883 0.999926 
0.0014508 0.0176337 0.999843 
-0.00153349 0.0240521 0.99971 
-0.00649767 0.033587 0.999415 
-0.0116935 0.0455453 0.998894 
-0.0173411 0.0627055 0.997881 
-0.0255636 0.0868032 0.995897 
-0.0380558 0.119329 0.992125 
-0.0563201 0.161035 0.98534 
-0.0828125 0.212343 0.97368 
-0.120659 0.273135 0.954379 
-0.173468 0.341264 0.923822 
-0.244508 0.412443 0.877557 
-0.334968 0.478854 0.811477 
-0.441844 0.528913 0.724586 
-0.557582 0.550774 0.621088 
-0.671617 0.537449 0.50998 
-0.772619 0.489345 0.404476 
-0.852112 0.414575 0.319425 
-0.907858 0.32645 0.263105 
-0.94251 0.237916 0.234674 
-0.960518 0.157659 0.229233 
-0.966395 0.0896896 0.240907 
-0.963899 0.034431 0.264034 
-0.955771 -0.0100968 0.29394 
-0.943873 -0.0470028 0.326949 
-0.92922 -0.0793773 0.3609 
-0.911941 -0.109446 0.395456 
-0.891248 -0.138067 0.431989 
-0.864542 -0.164733 0.474795 
-0.830399 -0.188397 0.52435 
-0.789419 -0.207719 0.577643 
-0.743287 -0.221348 0.631292 
-0.693021 -0.227754 0.683995 
-0.639045 -0.225688 0.735314 
-0.582727 -0.21463 0.783813 
-0.526617 -0.195218 0.827384 
-0.473247 -0.168727 0.864621 
-0.423487 -0.135823 0.895662 
-0.377331 -0.0970379 0.92098 
-0.335206 -0.0530558 0.94065 
-0.298033 -0.00390071 0.954548 
-0.266051 0.0518477 0.962564 
-0.237985 0.113812 0.964578 
-0.215345 0.186161 0.95863 
-0.197842 0.268351 0.942786 
-0.18556 0.363799 0.912808 
-0.178177 0.472962 0.862879 
-0.175902 0.594989 0.784249 
-0.17655 0.723413 0.66746 
-0.178828 0.846127 0.502086 
-0.179133 0.941347 0.285968 
-0.173358 0.984385 0.0305376 
-0.159272 0.958514 -0.236396 
-0.137751 0.867023 -0.478849 
-0.111917 0.733394 -0.670528 
-0.0861485 0.587121 -0.804902 
-0.063447 0.45016 -0.890691 
-0.045211 0.333808 -0.941556 
-0.031528 0.241166 -0.969972 
-0.0215452 0.170421 -0.985136 
-0.014682 0.118174 -0.992884 
-0.00966457 0.0811332 -0.996656 
-0.00731986 0.0554465 -0.998435 
-0.00647037 0.0376761 -0.999269 
-0.00662718 0.0244858 -0.999678 
-0.00395672 0.0163692 -0.999858 
-0.00490959 0.0104306 -0.999934 
-0.00415642 0.00645729 -0.999971 
-0.00727583 -0.002383 -0.999971 
-0.00448381 -0.00718678 -0.999964 
-0.00413217 -0.00771748 -0.999962 
0.000434349 -0.00305519 -0.999995 
0.000784687 -0.00432495 0.99999 
0.000899453 -0.00843307 0.999964 
5.04668e-05 -0.00556441 0.999985 
0.001055 0.000167204 0.999999 
-0.00160042 0.00717999 0.999973 
-0.00280206 0.0120417 0.999924 
-0.0024042 0.0161848 0.999866 
-0.00442359 0.0224907 0.999737 
-0.00917086 0.0317418 0.999454 
-0.0145417 0.0434539 0.99895 
-0.0203197 0.0590078 0.998051 
-0.028059 0.0816099 0.996269 
-0.0395761 0.113388 0.992762 
-0.0564122 0.1563 0.986097 
-0.0809206 0.211664 0.973987 
-0.116434 0.280798 0.952678 
-0.166895 0.362975 0.91673 
-0.236229 0.454429 0.858889 
-0.326438 0.547109 0.770785 
-0.434808 0.626382 0.646983 
-0.552372 0.67341 0.491329 
-0.666332 0.674338 0.31823 
-0.764608 0.627234 0.148162 
-0.840331 0.542061 0.00376459 
-0.894268 0.436456 -0.0989455 
-0.931196 0.327907 -0.159222 
-0.955872 0.228257 -0.184952 
-0.972318 0.143112 -0.184708 
-0.983335 0.0734837 -0.166288 
-0.990541 0.0174328 -0.136108 
-0.994705 -0.0284493 -0.0987524 
-0.996021 -0.0679544 -0.0576501 
-0.994447 -0.104226 -0.0145478 
-0.989772 -0.139238 0.031061 
-0.981409 -0.173641 0.0817635 
-0.967621 -0.206326 0.145396 
-0.946493 -0.235932 0.220197 
-0.917556 -0.260537 0.300353 
-0.881365 -0.277853 0.382091 
-0.837976 -0.285749 0.464913 
-0.78781 -0.282873 0.547119 
-0.732398 -0.269138 0.625426 
-0.674697 -0.245834 0.695952 
-0.617549 -0.214483 0.756724 
-0.561972 -0.176206 0.80817 
-0.508133 -0.13182 0.851131 
-0.458291 -0.0817627 0.885033 
-0.413753 -0.026315 0.910009 
-0.373887 0.0352995 0.926802 
-0.339996 0.10613 0.934419 
-0.312163 0.185814 0.93168 
-0.292063 0.278143 0.91506 
-0.278557 0.38366 0.880461 
-0.271534 0.502956 0.820551 
-0.270882 0.633073 0.725149 
-0.271253 0.763742 0.585764 
-0.271114 0.878976 0.3923 
-0.263815 0.952686 0.150969 
-0.244578 0.962613 -0.116438 
-0.213822 0.901846 -0.375438 
-0.175585 0.785463 -0.59348 
-0.136107 0.644193 -0.752656 
-0.100131 0.503481 -0.858185 
-0.0704548 0.37936 -0.922563 
-0.0476209 0.277979 -0.959406 
-0.0309202 0.199477 -0.979415 
-0.0191415 0.140782 -0.989856 
-0.0113057 0.098169 -0.995106 
-0.00610411 0.0683935 -0.99764 
-0.00345775 0.0479101 -0.998846 
-0.00330941 0.0329608 -0.999451 
-0.00261007 0.0223398 -0.999747 
-0.000814721 0.0152308 -0.999884 
-0.00130618 0.010743 -0.999941 
-0.000712373 0.00597586 -0.999982 
-0.000926483 0.000255171 -1 
-0.000896331 -0.00692024 -0.999976 
-0.000906146 -0.00903589 -0.999959 
-0.000809662 -0.00431282 -0.99999 
0.000275415 -0.00317956 0.999995 
-0.00105484 -0.00830201 0.999965 
-0.00142587 -0.0057746 0.999982 
-0.00151681 0.00105015 0.999998 
-0.0028747 0.00861558 0.999959 
-0.0039781 0.0128422 0.99991 
-0.00478508 0.0181956 0.999823 
-0.00869296 0.0273991 0.999587 
-0.0137669 0.0395033 0.999125 
-0.0190488 0.0540261 0.998358 
-0.0253836 0.074398 0.996906 
-0.0347163 0.103981 0.993973 
-0.0485944 0.145857 0.988111 
-0.0687866 0.202024 0.976962 
-0.0982717 0.274813 0.956463 
-0.140659 0.365538 0.920107 
-0.19987 0.471553 0.858889 
-0.278293 0.585514 0.761398 
-0.373984 0.692194 0.617255 
-0.478311 0.767728 0.426394 
-0.577775 0.789622 0.206573 
-0.660191 0.750976 -0.0135278 
-0.719892 0.662834 -0.205928 
-0.760445 0.546765 -0.350387 
-0.789956 0.424486 -0.442471 
-0.813271 0.310515 -0.492108 
-0.833186 0.211983 -0.510749 
-0.851813 0.130528 -0.507324 
-0.869891 0.0644793 -0.489011 
-0.887342 0.0105722 -0.46099 
-0.903797 -0.0350689 -0.426523 
-0.918509 -0.0761183 -0.388004 
-0.931022 -0.115268 -0.346282 
-0.941444 -0.154083 -0.299904 
-0.950154 -0.192874 -0.244964 
-0.957777 -0.230777 -0.171481 
-0.960208 -0.265975 -0.0851945 
-0.955224 -0.295767 0.00825894 
-0.94215 -0.31742 0.107697 
-0.920223 -0.328559 0.212694 
-0.888738 -0.327775 0.320481 
-0.848341 -0.314901 0.425623 
-0.801618 -0.291012 0.522227 
-0.751084 -0.257843 0.607774 
-0.69771 -0.216505 0.682881 
-0.643212 -0.167723 0.747092 
-0.590365 -0.113035 0.799183 
-0.541867 -0.0514341 0.838889 
-0.49709 0.0182298 0.867507 
-0.457781 0.097051 0.883752 
-0.427812 0.187594 0.884186 
-0.405842 0.290477 0.866554 
-0.391323 0.406945 0.825386 
-0.384648 0.536379 0.751228 
-0.384505 0.672017 0.632889 
-0.378091 0.798348 0.468709 
-0.368816 0.896945 0.243853 
-0.34448 0.938656 -0.0160648 
-0.304311 0.910497 -0.279981 
-0.252036 0.817481 -0.517883 
-0.198067 0.686272 -0.699858 
-0.147595 0.547797 -0.823489 
-0.105101 0.419309 -0.901739 
-0.0718578 0.311375 -0.947566 
-0.047184 0.226153 -0.972948 
-0.0297083 0.161813 -0.986374 
-0.0175183 0.114493 -0.99327 
-0.00942969 0.080958 -0.996673 
-0.00438589 0.0577228 -0.998323 
-0.00155078 0.0416235 -0.999132 
-0.000701848 0.0296749 -0.999559 
-0.000484358 0.0208569 -0.999782 
0.000209755 0.0145933 -0.999893 
0.000813172 0.0108108 -0.999941 
3.92676e-05 0.00466227 -0.999989 
-7.63298e-05 -0.00162341 -0.999999 
0.0007799 -0.00706625 -0.999975 
0.000968924 -0.00812257 -0.999967 
-0.000262963 -0.00341971 -0.999994 
0.000301774 -0.00366823 0.999993 
-0.00132844 -0.00785556 0.999968 
-0.00153614 -0.00573662 0.999982 
-0.00134442 0.000988696 0.999999 
-0.00321311 0.00875884 0.999956 
-0.00502245 0.0140003 0.999889 
-0.00583629 0.0174883 0.99983 
-0.00896759 0.0245704 0.999658 
-0.0136397 0.0353958 0.99928 
-0.0181893 0.0490212 0.998632 
-0.0228593 0.0668476 0.997501 
-0.0293231 0.0925671 0.995275 
-0.0393607 0.130973 0.990604 
-0.0542871 0.184617 0.98131 
-0.0762503 0.256131 0.96363 
-0.10794 0.348458 0.931089 
-0.15276 0.461568 0.873853 
-0.213059 0.589386 0.77925 
-0.288117 0.718108 0.63349 
-0.371563 0.82291 0.429838 
-0.451093 0.873543 0.182861 
-0.515405 0.853883 -0.0723938 
-0.559191 0.772556 -0.300771 
-0.585414 0.65362 -0.479657 
-0.603604 0.523104 -0.601685 
-0.620777 0.399127 -0.674785 
-0.638076 0.290372 -0.713122 
-0.656484 0.199362 -0.727519 
-0.676937 0.125029 -0.725344 
-0.699 0.064353 -0.712221 
-0.72215 0.0135261 -0.691604 
-0.745913 -0.0309764 -0.665323 
-0.769009 -0.0723061 -0.635135 
-0.791381 -0.112332 -0.600914 
-0.813594 -0.152396 -0.561107 
-0.837704 -0.192686 -0.511003 
-0.866364 -0.232776 -0.441846 
-0.892097 -0.270635 -0.361829 
-0.913225 -0.303564 -0.27179 
-0.928686 -0.329146 -0.170897 
-0.936686 -0.345125 -0.0592238 
-0.934924 -0.349664 0.0604412 
-0.922005 -0.341847 0.181792 
-0.898775 -0.322028 0.297491 
-0.86688 -0.291262 0.40458 
-0.82684 -0.250665 0.503491 
-0.780612 -0.201259 0.591726 
-0.733186 -0.143049 0.664812 
-0.685741 -0.0763113 0.723834 
-0.639468 0.00144522 0.768817 
-0.599113 0.0906483 0.795517 
-0.568094 0.192276 0.800187 
-0.544821 0.307099 0.780295 
-0.528649 0.434799 0.729027 
-0.519346 0.571589 0.635268 
-0.514315 0.707124 0.485238 
-0.488484 0.818928 0.301233 
-0.458783 0.887598 0.0410744 
-0.408789 0.886851 -0.215375 
-0.338114 0.820155 -0.461547 
-0.267388 0.703624 -0.658344 
-0.20057 0.57066 -0.796316 
-0.144336 0.445797 -0.883421 
-0.0995145 0.334427 -0.937153 
-0.0661757 0.245168 -0.96722 
-0.0423873 0.177265 -0.98325 
-0.0255398 0.126651 -0.991618 
-0.0141681 0.0904729 -0.995798 
-0.00631862 0.0653219 -0.997844 
-0.00139684 0.0480756 -0.998843 
0.00129291 0.0354849 -0.999369 
0.00244395 0.0250527 -0.999683 
0.00258005 0.0171747 -0.999849 
0.00120803 0.0123659 -0.999923 
0.00120775 0.0090283 -0.999959 
0.000433965 0.00246155 -0.999997 
0.000465868 -0.00565831 -0.999984 
0.00108772 -0.00854164 -0.999963 
-0.000404617 -0.00335094 -0.999994 
-0.000169006 -0.00363041 0.999993 
-0.00198451 -0.00823458 0.999964 
-0.00246459 -0.00514174 0.999984 
-0.00266538 0.00202447 0.999994 
-0.00448359 0.0109407 0.99993 
-0.00705103 0.0170564 0.99983 
-0.00853818 0.0206302 0.999751 
-0.012887 0.0299593 0.999468 
-0.017356 0.0428418 0.998931 
-0.0214151 0.0589586 0.998031 
-0.0257335 0.0804233 0.996429 
-0.0320926 0.112934 0.993084 
-0.0418299 0.161354 0.98601 
-0.0563044 0.22716 0.972228 
-0.0773415 0.314079 0.946241 
-0.107321 0.424995 0.898811 
-0.148048 0.557234 0.817051 
-0.199828 0.699013 0.686621 
-0.260121 0.829581 0.494098 
-0.319426 0.915676 0.243937 
-0.368068 0.929261 -0.0316265 
-0.40105 0.869198 -0.28923 
-0.419092 0.758078 -0.49968 
-0.428746 0.625298 -0.652057 
-0.438562 0.494062 -0.75071 
-0.451273 0.376382 -0.809129 
-0.465803 0.276338 -0.840634 
-0.482769 0.194007 -0.853988 
-0.502584 0.126757 -0.855185 
-0.524537 0.0710046 -0.848421 
-0.548458 0.0235122 -0.835848 
-0.573516 -0.0191821 -0.81897 
-0.598954 -0.0589436 -0.798611 
-0.624792 -0.0975583 -0.774672 
-0.652595 -0.135626 -0.74547 
-0.686181 -0.174119 -0.706284 
-0.727825 -0.213044 -0.651831 
-0.768934 -0.25016 -0.588354 
-0.809992 -0.283606 -0.513303 
-0.84984 -0.311308 -0.425276 
-0.886351 -0.331429 -0.32332 
-0.916145 -0.342022 -0.209043 
-0.935818 -0.341303 -0.0880762 
-0.943897 -0.328645 0.032412 
-0.94043 -0.304564 0.151101 
-0.925018 -0.269277 0.268015 
-0.899136 -0.222757 0.37674 
-0.866685 -0.164665 0.470895 
-0.829625 -0.0935904 0.550421 
-0.788558 -0.00880016 0.614897 
-0.752219 0.0905574 0.652661 
-0.723465 0.204007 0.65953 
-0.698198 0.329583 0.635528 
-0.676461 0.465581 0.570644 
-0.658264 0.605139 0.447768 
-0.635392 0.727974 0.257548 
-0.572322 0.816811 0.0725705 
-0.51983 0.829152 -0.20563 
-0.424371 0.790878 -0.440933 
-0.335886 0.690471 -0.640649 
-0.251665 0.568622 -0.783157 
-0.180982 0.448029 -0.875509 
-0.126047 0.345979 -0.929737 
-0.0825636 0.252397 -0.964095 
-0.0531524 0.183702 -0.981544 
-0.032008 0.131985 -0.990735 
-0.0174938 0.0946367 -0.995358 
-0.00792671 0.0693072 -0.997564 
-0.00168502 0.0528218 -0.998603 
0.00255701 0.0409671 -0.999157 
0.0046354 0.031018 -0.999508 
0.00525131 0.0221717 -0.99974 
0.00481123 0.0155364 -0.999868 
0.00281856 0.0118282 -0.999926 
0.00173306 0.00763311 -0.999969 
0.00109489 -5.56413e-05 -0.999999 
0.00100869 -0.00580654 -0.999983 
0.00129025 -0.0096154 -0.999953 
0.000326178 -0.0036728 -0.999993 
-9.25575e-05 -0.00349341 0.999994 
-0.0019937 -0.00792213 0.999967 
-0.00305171 -0.00466029 0.999984 
-0.00324333 0.00318092 0.99999 
-0.00546595 0.012245 0.99991 
-0.00802013 0.0178495 0.999809 
-0.0108625 0.0245128 0.999641 
-0.0146662 0.0361993 0.999237 
-0.0182577 0.0511705 0.998523 
-0.0216552 0.0696944 0.997333 
-0.0257715 0.096104 0.995038 
-0.0313284 0.136631 0.990127 
-0.0395074 0.195793 0.979849 
-0.051376 0.272941 0.960658 
-0.0688768 0.375189 0.924386 
-0.0928618 0.503948 0.858728 
-0.122883 0.649146 0.750672 