# vtk DataFile Version 3.0 
Exported using Morpho https://github.com/Morpho-lang/morpho 
ASCII 
DATASET UNSTRUCTURED_GRID 

POINTS 2054 float 
-8.48528 -2.82843 0 
-8.20636 -2.82843 0 
-7.94054 -2.82843 0 
-7.6904 -2.82843 0 
-7.45357 -2.82843 0 
-7.22694 -2.82843 0 
-7.00705 -2.82843 0 
-6.79111 -2.82843 0 
-6.57731 -2.82843 0 
-6.36453 -2.82843 0 
-6.15219 -2.82843 0 
-5.94 -2.82843 0 
-5.72786 -2.82843 0 
-5.51573 -2.82843 0 
-5.3036 -2.82843 0 
-5.09147 -2.82843 0 
-4.87933 -2.82843 0 
-4.6672 -2.82843 0 
-4.45507 -2.82843 0 
-4.24294 -2.82843 0 
-4.03081 -2.82843 0 
-3.81867 -2.82843 0 
-3.60654 -2.82843 0 
-3.39441 -2.82843 0 
-3.18228 -2.82843 0 
-2.97015 -2.82843 0 
-2.75801 -2.82843 0 
-2.54588 -2.82843 0 
-2.33375 -2.82843 0 
-2.12162 -2.82843 0 
-1.90949 -2.82843 0 
-1.69735 -2.82843 0 
-1.48522 -2.82843 0 
-1.27309 -2.82843 0 
-1.06096 -2.82843 0 
-0.848825 -2.82843 0 
-0.636693 -2.82843 0 
-0.424561 -2.82843 0 
-0.212429 -2.82843 0 
-0.000296761 -2.82843 0 
0.211835 -2.82843 0 
0.423967 -2.82843 0 
0.636099 -2.82843 0 
0.848231 -2.82843 0 
1.06036 -2.82843 0 
1.2725 -2.82843 0 
1.48463 -2.82843 0 
1.69676 -2.82843 0 
1.90889 -2.82843 0 
2.12102 -2.82843 0 
2.33316 -2.82843 0 
2.54529 -2.82843 0 
2.75742 -2.82843 0 
2.96955 -2.82843 0 
3.18168 -2.82843 0 
3.39382 -2.82843 0 
3.60595 -2.82843 0 
3.81808 -2.82843 0 
4.03021 -2.82843 0 
4.24234 -2.82843 0 
4.45448 -2.82843 0 
4.66661 -2.82843 0 
4.87874 -2.82843 0 
5.09087 -2.82843 0 
5.303 -2.82843 0 
5.51514 -2.82843 0 
5.72727 -2.82843 0 
5.93941 -2.82843 0 
6.15159 -2.82843 0 
6.36393 -2.82843 0 
6.57672 -2.82843 0 
6.79055 -2.82843 0 
7.00652 -2.82843 0 
7.22647 -2.82843 0 
7.45313 -2.82843 0 
7.69005 -2.82843 0 
7.9403 -2.82843 0 
8.20621 -2.82843 0 
8.48528 -2.82843 0 
-8.48528 -2.5495 0 
-8.30526 -2.64845 0 
-8.07062 -2.59995 0 
-7.83904 -2.59637 0 
-7.59595 -2.59733 0 
-7.36578 -2.59177 0 
-7.13796 -2.5933 0 
-6.90908 -2.59428 0 
-6.68421 -2.5916 0 
-6.46568 -2.58832 0 
-6.24926 -2.58859 0 
-6.03358 -2.58941 0 
-5.81848 -2.59013 0 
-5.60402 -2.59075 0 
-5.39005 -2.59135 0 
-5.17642 -2.59186 0 
-4.96311 -2.59223 0 
-4.75009 -2.59242 0 
-4.53736 -2.59244 0 
-4.32497 -2.59236 0 
-4.1128 -2.59242 0 
-3.90059 -2.59259 0 
-3.68835 -2.5926 0 
-3.47627 -2.59248 0 
-3.26428 -2.59251 0 
-3.05216 -2.59271 0 
-2.83986 -2.59283 0 
-2.62755 -2.59274 0 
-2.41539 -2.59253 0 
-2.20336 -2.59238 0 
-1.99135 -2.59238 0 
-1.77924 -2.59246 0 
-1.56704 -2.59244 0 
-1.35495 -2.59215 0 
-1.14319 -2.59183 0 
-0.931581 -2.59195 0 
-0.719663 -2.59256 0 
-0.507197 -2.59324 0 
-0.294425 -2.59354 0 
-0.0817689 -2.59344 0 
0.130587 -2.59325 0 
0.342804 -2.59322 0 
0.555051 -2.59322 0 
0.767233 -2.59303 0 
0.97919 -2.59278 0 
1.19107 -2.59278 0 
1.40311 -2.59289 0 
1.61524 -2.59286 0 
1.82732 -2.59279 0 
2.03943 -2.59281 0 
2.25163 -2.5928 0 
2.46381 -2.59266 0 
2.67591 -2.59254 0 
2.88801 -2.59237 0 
3.10001 -2.59226 0 
3.31203 -2.59216 0 
3.52402 -2.59207 0 
3.73601 -2.59208 0 
3.94815 -2.59221 0 
4.16052 -2.5923 0 
4.37309 -2.59232 0 
4.58593 -2.59227 0 
4.79921 -2.5922 0 
5.01319 -2.59212 0 
5.22833 -2.5921 0 
5.44534 -2.59239 0 
5.6657 -2.59346 0 
5.89185 -2.59569 0 
6.12685 -2.59429 0 
6.36853 -2.59189 0 
6.6108 -2.57787 0 
6.84491 -2.61411 0 
7.08804 -2.58476 0 
7.34858 -2.60369 0 
7.58803 -2.59327 0 
7.83059 -2.59326 0 
8.06387 -2.59199 0 
8.30038 -2.64348 0 
8.48528 -2.54936 0 
-8.48528 -2.28369 0 
-8.25701 -2.4138 0 
-8.01078 -2.35334 0 
-7.73666 -2.37963 0 
-7.49744 -2.35565 0 
-7.26898 -2.35831 0 
-7.03324 -2.36676 0 
-6.7997 -2.36275 0 
-6.5773 -2.35166 0 
-6.35808 -2.3495 0 
-6.14038 -2.35058 0 
-5.92336 -2.35185 0 
-5.70723 -2.35272 0 
-5.49199 -2.35362 0 
-5.27734 -2.35447 0 
-5.0632 -2.35505 0 
-4.84958 -2.35534 0 
-4.63641 -2.35533 0 
-4.42363 -2.35504 0 
-4.21126 -2.35485 0 
-3.99909 -2.35513 0 
-3.78684 -2.3554 0 
-3.57461 -2.35516 0 
-3.36263 -2.35498 0 
-3.15066 -2.35537 0 
-2.93843 -2.35586 0 
-2.72604 -2.35589 0 
-2.51374 -2.35551 0 
-2.30162 -2.35509 0 
-2.08964 -2.35496 0 
-1.87761 -2.35518 0 
-1.66544 -2.3554 0 
-1.45322 -2.35518 0 
-1.2412 -2.35438 0 
-1.02967 -2.35407 0 
-0.818162 -2.35505 0 
-0.606054 -2.35676 0 
-0.393243 -2.3579 0 
-0.180256 -2.35789 0 
0.0323765 -2.35727 0 
0.244686 -2.35692 0 
0.456926 -2.35692 0 
0.669206 -2.35667 0 
0.881318 -2.35598 0 
1.09315 -2.35559 0 
1.305 -2.35583 0 
1.51709 -2.35595 0 
1.72919 -2.35571 0 
1.9412 -2.35566 0 
2.15334 -2.3558 0 
2.36559 -2.3556 0 
2.57772 -2.35522 0 
2.78976 -2.35507 0 
3.0019 -2.35461 0 
3.21373 -2.35451 0 
3.42571 -2.35439 0 
3.63769 -2.35431 0 
3.84965 -2.35453 0 
4.06183 -2.35491 0 
4.27435 -2.35507 0 
4.48707 -2.35507 0 
4.70017 -2.35506 0 
4.91376 -2.35498 0 
5.12819 -2.35502 0 
5.34378 -2.35528 0 
5.56106 -2.35662 0 
5.78097 -2.35971 0 
6.00401 -2.36251 0 
6.2308 -2.3624 0 
6.45748 -2.35551 0 
6.68075 -2.33423 0 
6.88797 -2.39744 0 
7.05313 -2.27289 0 
7.24377 -2.40237 0 
7.48542 -2.36016 0 
7.73055 -2.36599 0 
7.99177 -2.33552 0 
8.24864 -2.40698 0 
8.48528 -2.28345 0 
-8.48528 -2.03355 0 
-8.25312 -2.18214 0 
-8.03669 -2.07913 0 
-7.83956 -2.18231 0 
-7.6106 -2.12852 0 
-7.38852 -2.10959 0 
-7.16268 -2.14097 0 
-6.9229 -2.1435 0 
-6.70119 -2.12055 0 
-6.48111 -2.11285 0 
-6.26282 -2.11284 0 
-6.045 -2.1151 0 
-5.82775 -2.11658 0 
-5.61153 -2.11776 0 
-5.3962 -2.1192 0 
-5.18144 -2.1203 0 
-4.96732 -2.12084 0 
-4.75387 -2.12105 0 
-4.54086 -2.12091 0 
-4.32822 -2.12045 0 
-4.11596 -2.12045 0 
-3.90382 -2.12107 0 
-3.69156 -2.12116 0 
-3.47938 -2.12058 0 
-3.26746 -2.12068 0 
-3.05542 -2.12154 0 
-2.84307 -2.12198 0 
-2.63064 -2.12162 0 
-2.41836 -2.12087 0 
-2.20626 -2.12031 0 
-1.99426 -2.12034 0 
-1.78217 -2.1207 0 
-1.56989 -2.12074 0 
-1.35755 -2.11993 0 
-1.14542 -2.11838 0 
-0.934012 -2.11859 0 
-0.722404 -2.12089 0 
-0.509943 -2.12344 0 
-0.296911 -2.12431 0 
-0.0840921 -2.12359 0 
0.128295 -2.12281 0 
0.340414 -2.12274 0 
0.552564 -2.12288 0 
0.76478 -2.12226 0 
0.976792 -2.1213 0 
1.18855 -2.12128 0 
1.40042 -2.12188 0 
1.61256 -2.12177 0 
1.82458 -2.12141 0 
2.03655 -2.12164 0 
2.24875 -2.12174 0 
2.46099 -2.12114 0 
2.67302 -2.12065 0 
2.88504 -2.12054 0 
3.09728 -2.1194 0 
3.30873 -2.11968 0 
3.52086 -2.1195 0 
3.7329 -2.11938 0 
3.94484 -2.11986 0 
4.15715 -2.12044 0 
4.36983 -2.12035 0 
4.58282 -2.1204 0 
4.79606 -2.12017 0 
5.01004 -2.12012 0 
5.22483 -2.12002 0 
5.44073 -2.12051 0 
5.6582 -2.123 0 
5.8782 -2.12696 0 
6.10217 -2.12971 0 
6.33095 -2.12707 0 
6.567 -2.11601 0 
6.82301 -2.12303 0 
7.06572 -2.04567 0 
7.29733 -2.17484 0 
7.54632 -2.11408 0 
7.79371 -2.13741 0 
8.02274 -2.07453 0 
8.25027 -2.1738 0 
8.48528 -2.0332 0 
-8.48528 -1.79671 0 
-8.25436 -1.93882 0 
-8.01299 -1.83977 0 
-7.78596 -1.953 0 
-7.5297 -1.87194 0 
-7.2756 -1.88722 0 
-7.05707 -1.93544 0 
-6.84369 -1.89677 0 
-6.62219 -1.88079 0 
-6.40169 -1.87606 0 
-6.18206 -1.87854 0 
-5.96274 -1.881 0 
-5.74458 -1.88208 0 
-5.52796 -1.88344 0 
-5.31232 -1.88506 0 
-5.09736 -1.88569 0 
-4.88338 -1.88564 0 
-4.67019 -1.88555 0 
-4.45737 -1.88507 0 
-4.24485 -1.88447 0 
-4.03271 -1.88482 0 
-3.82061 -1.88562 0 
-3.60832 -1.88529 0 
-3.39617 -1.88464 0 
-3.18427 -1.88547 0 
-2.97209 -1.88672 0 
-2.7596 -1.88684 0 
-2.54714 -1.88601 0 
-2.33483 -1.88505 0 
-2.12268 -1.8846 0 
-1.91058 -1.885 0 
-1.69824 -1.88561 0 
-1.48561 -1.88547 0 
-1.27286 -1.88413 0 
-1.06032 -1.88216 0 
-0.848858 -1.8839 0 
-0.636875 -1.88781 0 
-0.424169 -1.89034 0 
-0.211518 -1.89004 0 
0.000731944 -1.88866 0 
0.21257 -1.88788 0 
0.424308 -1.88807 0 
0.636257 -1.88793 0 
0.848362 -1.88664 0 
1.06025 -1.88556 0 
1.27191 -1.88605 0 
1.48381 -1.88664 0 
1.69595 -1.886 0 
1.90782 -1.88577 0 
2.11974 -1.88637 0 
2.33202 -1.88609 0 
2.54419 -1.88502 0 
2.75607 -1.88472 0 
2.96812 -1.88462 0 
3.18055 -1.88217 0 
3.39117 -1.88415 0 
3.60398 -1.8838 0 
3.81618 -1.88366 0 
4.02827 -1.88469 0 
4.24071 -1.88523 0 
4.4544 -1.88509 0 
4.66716 -1.88476 0 
4.88099 -1.88493 0 
5.09545 -1.88466 0 
5.31057 -1.88453 0 
5.52653 -1.88564 0 
5.7436 -1.88981 0 
5.96352 -1.89563 0 
6.18733 -1.89813 0 
6.41543 -1.89522 0 
6.65059 -1.89622 0 
6.87542 -1.86913 0 
7.11122 -1.81621 0 
7.31223 -1.94975 0 
7.53264 -1.87683 0 
7.77077 -1.89068 0 
8.01717 -1.8297 0 
8.25014 -1.93148 0 
8.48528 -1.79628 0 
-8.48528 -1.57009 0 
-8.24868 -1.70836 0 
-8.015 -1.61096 0 
-7.76734 -1.73071 0 
-7.54593 -1.61782 0 
-7.32306 -1.66278 0 
-7.05152 -1.7082 0 
-6.79786 -1.66675 0 
-6.56099 -1.64764 0 
-6.33267 -1.64541 0 
-6.10856 -1.64921 0 
-5.88638 -1.65073 0 
-5.66697 -1.65153 0 
-5.44986 -1.65353 0 
-5.23379 -1.65525 0 
-5.01882 -1.6551 0 
-4.80519 -1.6548 0 
-4.59235 -1.65478 0 
-4.37976 -1.65422 0 
-4.16737 -1.65386 0 
-3.95537 -1.65471 0 
-3.74326 -1.6554 0 
-3.5309 -1.65455 0 
-3.31876 -1.65426 0 
-3.10682 -1.65593 0 
-2.89443 -1.65705 0 
-2.68177 -1.65644 0 
-2.46924 -1.65516 0 
-2.25682 -1.65408 0 
-2.04447 -1.65386 0 
-1.83202 -1.65455 0 
-1.61911 -1.65506 0 
-1.40572 -1.65429 0 
-1.19212 -1.65207 0 
-0.97885 -1.64982 0 
-0.767325 -1.65372 0 
-0.555434 -1.6581 0 
-0.343588 -1.65935 0 
-0.132061 -1.65818 0 
0.0792288 -1.65687 0 
0.290417 -1.65682 0 
0.501823 -1.6575 0 
0.713729 -1.65709 0 
0.925861 -1.65545 0 
1.13768 -1.65488 0 
1.34929 -1.65604 0 
1.56128 -1.6563 0 
1.77337 -1.65516 0 
1.985 -1.65561 0 
2.19698 -1.65642 0 
2.40939 -1.65525 0 
2.62143 -1.65394 0 
2.83323 -1.65414 0 
3.04553 -1.65355 0 
3.25842 -1.64868 0 
3.46746 -1.65522 0 
3.68272 -1.65284 0 
3.89574 -1.65288 0 
4.10731 -1.65378 0 
4.32287 -1.65565 0 
4.53627 -1.65249 0 
4.74932 -1.65397 0 
4.96428 -1.65355 0 
5.17935 -1.65257 0 
5.3944 -1.65202 0 
5.60927 -1.65354 0 
5.82513 -1.66019 0 
6.04295 -1.66711 0 
6.26383 -1.66843 0 
6.48537 -1.66776 0 
6.70098 -1.65646 0 
6.91299 -1.6206 0 
7.11709 -1.6046 0 
7.3526 -1.69716 0 
7.60698 -1.65764 0 
7.8325 -1.64214 0 
8.05985 -1.58842 0 
8.2608 -1.69223 0 
8.48528 -1.56961 0 
-8.48528 -1.35019 0 
-8.24958 -1.48044 0 
-8.0219 -1.3751 0 
-7.79713 -1.50391 0 
-7.58956 -1.39834 0 
-7.36199 -1.38754 0 
-7.16079 -1.49923 0 
-6.93764 -1.46284 0 
[...]
POINT_DATA 2054 
VECTORS vectors float
0.000938377 -0.0174715 0.999845 
0.0193786 -0.0114695 0.999749 
0.0222545 0.000526799 0.99975 
0.0116128 0.00126293 0.99993 
0.0164895 -0.00042242 0.999863 
0.0167641 0.00867404 0.999822 
0.0116477 0.0141461 0.999833 
0.0118971 0.0129614 0.999845 
0.0140426 0.014635 0.999793 
0.0138592 0.0228251 0.999642 
0.0118765 0.0339906 0.999351 
0.0104788 0.0478641 0.9988 
0.0109719 0.0688695 0.997566 
0.0117756 0.09651 0.995262 
0.0116727 0.128455 0.991646 
0.0103609 0.163836 0.986433 
0.00855573 0.201008 0.979553 
0.00796568 0.238035 0.971225 
0.00769333 0.272461 0.962137 
0.00620248 0.299614 0.954041 
0.00489792 0.31454 0.949233 
0.00436075 0.315535 0.948905 
0.00309213 0.303126 0.952946 
0.00148942 0.277885 0.960614 
0.000732398 0.241478 0.970406 
0.000244319 0.19807 0.980188 
-0.000204471 0.152472 0.988308 
-0.00014648 0.10896 0.994046 
-0.000183266 0.0702445 0.99753 
-0.000599836 0.0367242 0.999325 
-0.000562958 0.00783381 0.999969 
0.000108124 -0.0168511 0.999858 
0.000649123 -0.0372662 0.999305 
0.000600671 -0.0546649 0.998504 
0.000512822 -0.0713523 0.997451 
0.00133114 -0.0873872 0.996174 
0.00311649 -0.100427 0.99494 
0.00454754 -0.108791 0.994055 
0.00441908 -0.113988 0.993473 
0.00372403 -0.116884 0.993139 
0.00433457 -0.113346 0.993547 
0.00614227 -0.101595 0.994808 
0.0072289 -0.0848251 0.99637 
0.00652988 -0.0636384 0.997953 
0.0057749 -0.0347485 0.99938 
0.00671539 0.00345152 0.999972 
0.00847224 0.0469745 0.998859 
0.009756 0.0944763 0.995477 
0.00903421 0.149319 0.988746 
0.00676096 0.213686 0.976879 
0.00662338 0.28586 0.95825 
0.00747884 0.366644 0.930332 
0.00533003 0.460697 0.887542 
0.00348774 0.568677 0.822555 
0.00433091 0.686493 0.727124 
0.00325545 0.805865 0.59209 
-4.63083e-05 0.912232 0.409675 
-0.0014956 0.983368 0.181619 
-0.00146164 0.997187 -0.0749417 
-0.0019989 0.944038 -0.32983 
-0.00279055 0.833683 -0.552237 
-0.00388648 0.69065 -0.723179 
-0.00606616 0.542921 -0.839763 
-0.0083774 0.41033 -0.911899 
-0.00946929 0.300694 -0.953674 
-0.00998206 0.21384 -0.976818 
-0.0101886 0.146983 -0.989087 
-0.0102346 0.0994849 -0.994987 
-0.0123827 0.0671916 -0.997662 
-0.0139495 0.0436606 -0.998946 
-0.0123083 0.0279277 -0.999533 
-0.0119366 0.0214723 -0.999698 
-0.0129544 0.0190145 -0.999735 
-0.0157375 0.0105606 -0.999821 
-0.0155113 1.63976e-05 -0.999879 
-0.0119898 0.00245227 -0.999924 
-0.0214619 0.000723367 -0.999768 
-0.0184532 -0.0116267 -0.999765 
-0.00212454 -0.0161752 -0.999865 
0.00466241 -0.0205804 0.999776 
-0.0143367 -0.008111 0.999867 
0.00994324 -0.00496997 0.999939 
0.00324454 -0.0057253 0.99998 
0.010482 0.00267588 0.999942 
0.00488489 0.00559327 0.999973 
0.00751692 0.0108065 0.999914 
0.00858044 0.0134495 0.999874 
0.00733494 0.0174304 0.999822 
0.00503425 0.02215 0.999743 
0.0037791 0.032723 0.999458 
0.00182753 0.0461613 0.998933 
-0.00149148 0.0650428 0.997883 
-0.00641244 0.0911057 0.995822 
-0.0139046 0.122454 0.992378 
-0.0248693 0.158721 0.987012 
-0.0400365 0.198266 0.979332 
-0.0608383 0.239253 0.969051 
-0.0884701 0.279067 0.956189 
-0.1236 0.313256 0.941593 
-0.16604 0.337036 0.926737 
-0.214347 0.34636 0.913287 
-0.265259 0.339165 0.902556 
-0.314202 0.315553 0.89538 
-0.356536 0.27759 0.892091 
-0.388267 0.229841 0.892425 
-0.408075 0.178377 0.895352 
-0.417165 0.128483 0.899703 
-0.417576 0.0835633 0.904791 
-0.411708 0.0450147 0.910203 
-0.402038 0.0125682 0.915537 
-0.390374 -0.0149077 0.920536 
-0.377612 -0.0384509 0.925166 
-0.363933 -0.0589903 0.929556 
-0.34858 -0.0777695 0.934048 
-0.330522 -0.0950995 0.938996 
-0.309844 -0.109859 0.944421 
-0.287284 -0.120899 0.950186 
-0.263768 -0.128055 0.95605 
-0.239858 -0.131119 0.961914 
-0.215709 -0.129171 0.967878 
-0.191457 -0.120806 0.97404 
-0.168385 -0.105422 0.98007 
-0.147597 -0.0850163 0.985389 
-0.129132 -0.0572899 0.989973 
-0.112172 -0.024184 0.993396 
-0.0978888 0.0176714 0.995042 
-0.084838 0.0616513 0.994488 
-0.0739752 0.113521 0.99078 
-0.0642067 0.174261 0.982606 
-0.0558265 0.24167 0.968753 
-0.0502523 0.321034 0.945736 
-0.0459477 0.410354 0.91077 
-0.042809 0.514095 0.856666 
-0.0420098 0.63014 0.775346 
-0.0426394 0.752006 0.657778 
-0.0432378 0.867817 0.495002 
-0.0440429 0.95772 0.284313 
-0.0441723 0.998398 0.0353709 
-0.0421487 0.97326 -0.225809 
-0.0381555 0.884003 -0.465924 
-0.0330442 0.751157 -0.659298 
-0.0273471 0.602648 -0.79754 
-0.0222753 0.462 -0.886602 
-0.018575 0.341703 -0.939626 
-0.0160684 0.244657 -0.969478 
-0.0135415 0.169345 -0.985465 
-0.0108408 0.113494 -0.993481 
-0.00929949 0.0740187 -0.997215 
-0.0078816 0.0470244 -0.998864 
-0.00965735 0.0311676 -0.999469 
-0.00804218 0.0200766 -0.999767 
-0.00658424 0.0155835 -0.999858 
-0.00593842 0.00684715 -0.99996 
-0.00970214 0.00409547 -0.999946 
-0.00358392 -0.00506566 -0.999983 
-0.0111969 -0.00532187 -0.999924 
0.0139717 -0.00856507 -0.999868 
-0.00498158 -0.0179495 -0.999826 
-0.00684286 -0.0198401 0.999776 
0.0132179 -0.00287997 0.999909 
0.0217643 -0.0155833 0.999642 
0.0109243 0.00761134 0.999912 
0.0133296 0.00518391 0.999899 
0.00690377 0.00935187 0.999933 
0.0101671 0.0131349 0.999863 
0.0118044 0.0176619 0.999775 
0.00632186 0.023712 0.9997 
0.00123211 0.0328432 0.999461 
-0.00186439 0.0457831 0.998951 
-0.00628783 0.062886 0.998002 
-0.0135159 0.0885829 0.995978 
-0.025268 0.120581 0.992383 
-0.0422672 0.159341 0.98632 
-0.066212 0.205012 0.976519 
-0.0998572 0.255318 0.961688 
-0.145861 0.308103 0.940107 
-0.205964 0.358958 0.910347 
-0.280442 0.401152 0.872028 
-0.367009 0.427281 0.82628 
-0.460176 0.43122 0.776073 
-0.552118 0.410172 0.725896 
-0.63321 0.366007 0.68197 
-0.695833 0.305372 0.650049 
-0.737726 0.237595 0.631907 
-0.760759 0.171003 0.626101 
-0.768408 0.110927 0.630272 
-0.764544 0.0599055 0.64178 
-0.752976 0.0181278 0.657798 
-0.736832 -0.0161321 0.675883 
-0.718302 -0.0452759 0.694257 
-0.69816 -0.0713333 0.71238 
-0.675674 -0.0952777 0.731018 
-0.649014 -0.117244 0.751689 
-0.617033 -0.136722 0.77497 
-0.58008 -0.152663 0.800127 
-0.539804 -0.164328 0.825597 
-0.497304 -0.170858 0.850587 
-0.453348 -0.171248 0.87473 
-0.40852 -0.16479 0.897752 
-0.36425 -0.150423 0.919075 
-0.322621 -0.12971 0.9376 
-0.284997 -0.10273 0.953009 
-0.251107 -0.069095 0.965492 
-0.220566 -0.0301983 0.974906 
-0.192682 0.0132262 0.981174 
-0.169784 0.065057 0.983334 
-0.149315 0.120133 0.981467 
-0.132757 0.186214 0.973501 
-0.119468 0.260853 0.95796 
-0.109782 0.346408 0.93164 
-0.103689 0.446663 0.888676 
-0.100752 0.559229 0.82287 
-0.100402 0.682209 0.724233 
-0.101558 0.806006 0.583132 
-0.103771 0.913791 0.392707 
-0.104102 0.982107 0.156939 
-0.100152 0.989398 -0.105182 
-0.0915366 0.927826 -0.36161 
-0.0789631 0.811085 -0.579576 
-0.0644852 0.66661 -0.742614 
-0.0512018 0.521034 -0.852001 
-0.0402121 0.391647 -0.919238 
-0.031441 0.285115 -0.957979 
-0.0254904 0.202026 -0.97905 
-0.0207361 0.139316 -0.990032 
-0.0172095 0.0939503 -0.995429 
-0.0137183 0.063554 -0.997885 
-0.014053 0.0431637 -0.99897 
-0.0131304 0.0286 -0.999506 
-0.0171601 0.021244 -0.999628 
-0.00858126 0.0163626 -0.99983 
-0.00873061 0.0107173 -0.999905 
-0.0157404 0.00723676 -0.999851 
-0.0135087 0.00367979 -0.999903 
-0.0200643 -0.0141926 -0.999699 
-0.0121419 -0.00434474 -0.999918 
0.00555128 -0.0208321 -0.999764 
0.00367126 -0.0178995 0.999834 
0.00520626 -0.0136117 0.999895 
0.00167518 -0.00720567 0.999974 
0.00204611 -0.00207009 0.999997 
0.00394744 0.00582678 0.999976 
-0.00366594 0.00814696 0.999961 
-0.00220301 0.0134919 0.999908 
0.00306085 0.0159048 0.99987 
-0.00326827 0.0246859 0.999691 
-0.0099121 0.032797 0.999414 
-0.0136618 0.0448767 0.9989 
-0.0192357 0.060482 0.997985 
-0.02736 0.0848056 0.996023 
-0.0392419 0.117553 0.992292 
-0.0577204 0.158303 0.985703 
-0.0837899 0.209823 0.974144 
-0.120658 0.27059 0.955105 
-0.172585 0.338793 0.924898 
-0.242617 0.410624 0.878936 
-0.332209 0.478013 0.813107 
-0.438751 0.529325 0.726164 
-0.554312 0.552378 0.622589 
-0.668566 0.53979 0.511514 
-0.770305 0.491896 0.405791 
-0.850622 0.417097 0.320109 
-0.907 0.328868 0.263048 
-0.942094 0.240192 0.234017 
-0.960414 0.159835 0.228158 
-0.966515 0.0918046 0.239623 
-0.964217 0.0364319 0.262595 
-0.956271 -0.00822846 0.292365 
-0.944533 -0.0453441 0.325269 
-0.929974 -0.0780471 0.359245 
-0.912733 -0.10838 0.393918 
-0.892088 -0.137374 0.430473 
-0.865295 -0.164376 0.473545 
-0.830997 -0.188208 0.523471 
-0.789909 -0.207677 0.576988 
-0.743664 -0.221484 0.6308 
-0.693153 -0.22806 0.683761 
-0.638869 -0.225819 0.735428 
-0.582432 -0.214735 0.784005 
-0.526071 -0.195105 0.82776 
-0.472324 -0.167818 0.865303 
-0.422487 -0.134442 0.896345 
-0.376296 -0.0951613 0.921601 
-0.334463 -0.0501833 0.941074 
-0.2977 -0.000175954 0.954662 
-0.265242 0.05417 0.962661 
-0.238734 0.11907 0.96376 
-0.215414 0.189447 0.957972 
-0.198006 0.273267 0.941341 
-0.18585 0.368305 0.910942 
-0.178784 0.477741 0.860119 
-0.176111 0.59938 0.780854 
-0.176801 0.727749 0.662666 
-0.179344 0.849532 0.496118 
-0.179796 0.943284 0.279089 
-0.173858 0.98449 0.0235491 
-0.159515 0.956721 -0.243394 
-0.137435 0.863553 -0.48517 
-0.110916 0.729019 -0.675449 
-0.0844202 0.582327 -0.808561 
-0.0614329 0.445589 -0.893129 
-0.0430129 0.329847 -0.943056 
-0.0290249 0.237376 -0.970986 
-0.019354 0.167596 -0.985667 
-0.0118863 0.11555 -0.993232 
-0.00789974 0.0785982 -0.996876 
-0.00375012 0.0551725 -0.998471 
-0.00419338 0.0368703 -0.999312 
-0.00673445 0.0243378 -0.999682 
-0.00196478 0.0157281 -0.999875 
-0.00192037 0.0110374 -0.999938 
-0.00489961 0.00410152 -0.999981 
-0.00110696 0.00279451 -0.999997 
-0.00316447 -0.0113314 -0.999932 
-0.00470648 -0.0135965 -0.999897 
-0.00357418 -0.0198525 -0.999797 
0.00296505 -0.0119656 0.999924 
-0.00222854 -0.00760688 0.99997 
-0.000147846 -0.0115619 0.999934 
-0.000287219 -1.42324e-06 1 
-0.00301656 0.00922128 0.999954 
-0.00437357 0.0116456 0.999924 
-0.00123465 0.0152511 0.999884 
-0.00396526 0.0218197 0.999755 
-0.00993922 0.0312361 0.999464 
-0.0152034 0.0432522 0.998949 
-0.0206745 0.0576262 0.998125 
-0.0287767 0.0787443 0.996481 
-0.039854 0.111262 0.992993 
-0.0566487 0.152966 0.986608 
-0.0808289 0.207745 0.974839 
-0.115015 0.277165 0.953915 
-0.164329 0.359067 0.918732 
-0.232543 0.450806 0.8618 
-0.32165 0.544483 0.77465 
-0.429722 0.625284 0.651429 
-0.547458 0.674233 0.495682 
-0.661831 0.676762 0.322448 
-0.761039 0.63065 0.151981 
-0.837852 0.545861 0.00624377 
-0.892618 0.440022 -0.0980475 
-0.930045 0.331028 -0.159483 
-0.954948 0.231125 -0.186159 
-0.971529 0.145887 -0.186677 
-0.982754 0.0760043 -0.168578 
-0.990137 0.0196781 -0.138713 
-0.994478 -0.0264408 -0.101558 
-0.995971 -0.0661344 -0.0605685 
-0.994547 -0.102815 -0.0174875 
-0.989968 -0.138433 0.0282713 
-0.981685 -0.173167 0.0794243 
-0.967937 -0.206268 0.143358 
-0.946769 -0.236298 0.218613 
-0.917708 -0.26104 0.299449 
-0.881313 -0.278494 0.381744 
-0.837607 -0.28634 0.465216 
-0.78693 -0.283153 0.54824 
-0.73101 -0.269068 0.62708 
-0.67322 -0.245228 0.697596 
-0.616 -0.213537 0.758253 
-0.559964 -0.174779 0.809874 
-0.506351 -0.129496 0.852551 
-0.456246 -0.0792042 0.886324 
-0.411823 -0.0234752 0.910964 
-0.373174 0.039781 0.926911 
-0.338113 0.108702 0.934809 
-0.311965 0.190762 0.930748 
-0.291973 0.282319 0.913812 
-0.278772 0.387956 0.87851 
-0.272057 0.507628 0.817498 
-0.272004 0.637673 0.720687 
-0.272552 0.767642 0.580037 
-0.272802 0.881842 0.384623 
-0.265329 0.953517 0.142852 
-0.245601 0.961313 -0.124729 
-0.214118 0.898342 -0.383584 
-0.175291 0.780448 -0.600146 
-0.13537 0.6385 -0.757625 
-0.0988366 0.497832 -0.861625 
-0.0689298 0.374356 -0.924721 
-0.0459207 0.273392 -0.960807 
-0.0294414 0.195455 -0.980272 
-0.0182011 0.138284 -0.990227 
-0.00972339 0.0952201 -0.99541 
-0.00492641 0.0664218 -0.997781 
-0.0022947 0.0478843 -0.998851 
-0.00192827 0.0321532 -0.999482 
-0.0043071 0.0221838 -0.999746 
-0.0025412 0.0137935 -0.999903 
0.00381614 0.0106932 -0.999936 
0.00082447 0.00970313 -0.999953 
-0.00385823 -0.00174971 -0.999992 
0.000133383 -0.0105645 -0.999945 
0.00226014 -0.00624273 -0.999979 
-0.00326847 -0.0125252 -0.999917 
0.000761689 -0.0149543 0.999888 
-0.00172959 -0.00697623 0.999975 
0.000237701 -0.011035 0.99994 
0.00113229 0.00365473 0.999994 
-0.00382703 0.00954425 0.999948 
-0.00475698 0.0121654 0.999916 
-0.00286377 0.0181853 0.999832 
-0.00766877 0.0265805 0.999618 
-0.0142788 0.0390974 0.999134 
-0.0191795 0.0540675 0.998354 
-0.025519 0.0715109 0.997114 
-0.0347293 0.101527 0.994228 
-0.0484095 0.143064 0.98853 
-0.0687145 0.197839 0.977824 
-0.0970904 0.271025 0.957664 
-0.138322 0.361594 0.922019 
-0.196701 0.46735 0.861914 
-0.274266 0.581787 0.765705 
-0.369711 0.68949 0.622832 
-0.4744 0.766765 0.432453 
-0.573958 0.790764 0.212754 
-0.65668 0.754132 -0.00741978 
-0.717114 0.667333 -0.201032 
-0.75841 0.551482 -0.347393 
-0.788396 0.428947 -0.440949 
-0.811982 0.314655 -0.491608 
-0.831948 0.215656 -0.51123 
-0.850738 0.133762 -0.508285 
-0.868858 0.0673688 -0.490457 
-0.88637 0.0131116 -0.462794 
-0.902827 -0.0330135 -0.428737 
-0.917602 -0.0744721 -0.390463 
-0.930223 -0.114102 -0.348807 
-0.940742 -0.153452 -0.302421 
-0.949591 -0.192863 -0.247147 
-0.957439 -0.231032 -0.17302 
-0.959939 -0.266591 -0.0862917 
-0.954962 -0.296622 0.00792605 
-0.94182 -0.318229 0.108195 
-0.919733 -0.329255 0.213736 
-0.888085 -0.328122 0.321933 
-0.847479 -0.314669 0.427508 
-0.800433 -0.290334 0.524419 
-0.749886 -0.256356 0.60988 
-0.696665 -0.214243 0.68466 
-0.641456 -0.16539 0.749122 
-0.589447 -0.10924 0.800389 
-0.540704 -0.0476899 0.839862 
-0.495586 0.0215991 0.868292 
-0.457688 0.101817 0.883266 
-0.426727 0.191372 0.883903 
-0.405555 0.294794 0.865231 
-0.391988 0.412336 0.822392 
-0.385053 0.540935 0.747748 
-0.385248 0.67677 0.62735 
-0.378675 0.802216 0.46158 
-0.369141 0.899078 0.235359 
-0.344289 0.938543 -0.0245191 
-0.303411 0.908388 -0.287703 
-0.250615 0.813475 -0.524835 
-0.196528 0.681237 -0.705191 
-0.145779 0.542597 -0.827247 
-0.103052 0.41436 -0.904261 
-0.0698044 0.307144 -0.949101 
-0.0450289 0.221991 -0.97401 
-0.0275237 0.158591 -0.986962 
-0.0162815 0.112612 -0.993507 
-0.00860734 0.0778149 -0.996932 
-0.0035189 0.056716 -0.998385 
-0.00168583 0.042375 -0.999101 
-0.00128667 0.0286365 -0.99959 
-0.000755401 0.0193964 -0.999812 
-0.000960796 0.0157389 -0.999876 
0.00092112 0.00862055 -0.999964 
0.00200308 0.00972928 -0.999951 
-0.00140208 -0.00369649 -0.999993 
0.00053241 -0.0116399 -0.999933 
0.00240711 -0.00832497 -0.999963 
-0.000936315 -0.016124 -0.99987 
-0.00282088 -0.0159433 0.999869 
-0.00296213 -0.00928541 0.999953 
-0.00280386 -0.0105274 0.999942 
-0.00291314 0.00326754 0.999991 
-0.00359645 0.0100196 0.999944 
-0.00452143 0.0141001 0.999891 
-0.00485075 0.0171467 0.999842 
-0.00886275 0.0233559 0.999689 
-0.0143843 0.0345713 0.9993 
-0.0182457 0.0500712 0.99858 
-0.021928 0.0647313 0.997663 
-0.0279096 0.0891718 0.995626 
-0.0376493 0.128427 0.991005 
-0.0527274 0.180446 0.982172 
-0.0741882 0.251812 0.96493 
-0.10499 0.344477 0.932907 
-0.149202 0.456854 0.876941 
-0.209227 0.584528 0.783935 
-0.28449 0.71379 0.639978 
-0.36867 0.820133 0.437568 
-0.448489 0.87322 0.190639 
-0.512696 0.85613 -0.0646799 
-0.556883 0.776879 -0.293836 
-0.583737 0.658736 -0.474677 
-0.602177 0.528193 -0.598663 
-0.619486 0.403943 -0.673104 
-0.636876 0.294501 -0.712504 
-0.655407 0.203103 -0.727457 
-0.675934 0.128422 -0.725689 
-0.697965 0.0673113 -0.712964 
-0.721112 0.0162825 -0.692629 
-0.744594 -0.0288003 -0.666898 
-0.767829 -0.0705917 -0.636755 
-0.79009 -0.111428 -0.60278 
-0.812347 -0.151794 -0.563074 
-0.836596 -0.192618 -0.512842 
-0.865549 -0.233399 -0.443116 
-0.891568 -0.271596 -0.362412 
-0.912885 -0.304689 -0.271674 
-0.9285 -0.330162 -0.169947 
-0.936503 -0.345881 -0.0577014 
-0.934615 -0.350125 0.0625045 
-0.921525 -0.341786 0.184325 
-0.898143 -0.32122 0.300264 
-0.865923 -0.28991 0.407591 
-0.825718 -0.248625 0.506336 
-0.779954 -0.198111 0.593655 
-0.731584 -0.140467 0.667125 
-0.68517 -0.0721975 0.724798 
-0.638496 0.00539189 0.769608 
-0.598099 0.0947804 0.795799 
-0.56763 0.197032 0.799361 
-0.544762 0.312224 0.778301 
-0.528015 0.439349 0.726756 
-0.519621 0.576504 0.630586 
-0.51407 0.71128 0.479389 
-0.487801 0.822171 0.293401 
-0.457415 0.888652 0.0326948 
-0.407084 0.885782 -0.222875 
-0.336092 0.817231 -0.468163 
-0.265315 0.699047 -0.664036 
-0.199274 0.565292 -0.800461 
-0.143608 0.44055 -0.886169 
-0.0990972 0.329768 -0.938848 
-0.0662177 0.241161 -0.968224 
-0.0424798 0.173109 -0.983987 
-0.0257251 0.123645 -0.991994 
-0.0143278 0.0882676 -0.995995 
-0.00699816 0.0625504 -0.998018 
-0.0011431 0.0478894 -0.998853 
0.00242119 0.0362976 -0.999339 
0.00326078 0.0234396 -0.999721 
0.0028955 0.0163713 -0.999863 
0.001704 0.0124725 -0.999922 
0.00143688 0.00801094 -0.999968 
7.93941e-05 0.00599123 -0.999983 
-0.000100094 -0.00588113 -0.999984 
0.0032902 -0.00852269 -0.999959 
0.00342581 -0.0201817 -0.999791 
0.000141401 -0.0168294 0.999859 
-0.00197571 -0.00720279 0.999973 
-0.00156039 -0.0110852 0.999938 
8.40877e-05 0.00372734 0.999994 
-0.00377098 0.012078 0.999921 
-0.00720265 0.0171536 0.999828 
-0.00812891 0.020682 0.999754 
-0.013956 0.0282441 0.999505 
-0.019081 0.0435247 0.998871 
-0.0223688 0.0588041 0.99802 
-0.0264691 0.0772698 0.99666 
-0.0325147 0.110509 0.993344 
-0.0422526 0.157947 0.986545 
-0.0567921 0.222681 0.973237 
-0.07739 0.310136 0.947538 
-0.106697 0.420374 0.901057 
-0.147136 0.551835 0.820873 
-0.198508 0.693695 0.692375 
-0.258751 0.825286 0.501948 
-0.318159 0.913845 0.252316 
-0.366339 0.930183 -0.0235613 
-0.399227 0.87254 -0.281588 
-0.417568 0.762951 -0.4935 
-0.427267 0.63048 -0.648027 
-0.437045 0.498842 -0.748432 
-0.449819 0.380806 -0.807869 
-0.464307 0.280575 -0.840059 
-0.481074 0.198004 -0.854029 
-0.500701 0.130234 -0.85577 
-0.52254 0.074211 -0.849381 
-0.545964 0.025895 -0.83741 
-0.57112 -0.0169606 -0.820694 
-0.596384 -0.0577517 -0.800621 
-0.622561 -0.0966981 -0.776576 
-0.650687 -0.135428 -0.747174 
-0.684443 -0.174251 -0.707939 
-0.726391 -0.213651 -0.653231 
-0.768045 -0.251057 -0.589135 
-0.809664 -0.284541 -0.513304 
-0.849802 -0.312276 -0.424643 
-0.88652 -0.332212 -0.322054 
-0.916388 -0.342482 -0.207217 
-0.936018 -0.341376 -0.0856327 
-0.944029 -0.327981 0.03518 
-0.940545 -0.302953 0.153604 
-0.924962 -0.267114 0.270364 
-0.898875 -0.219996 0.378982 
-0.866656 -0.161187 0.472153 
-0.828842 -0.0902745 0.552153 
-0.788374 -0.00481213 0.615178 
-0.751855 0.0950735 0.652439 
-0.723161 0.208777 0.65837 
-0.697716 0.33451 0.63348 
-0.676551 0.470416 0.566559 
-0.657678 0.609485 0.442704 
-0.634059 0.731558 0.250583 
-0.570388 0.818918 0.0634774 
-0.516955 0.828923 -0.213644 
-0.421042 0.788893 -0.447631 
-0.332163 0.68688 -0.646426 
-0.247902 0.563704 -0.7879 
-0.177771 0.443279 -0.878581 
-0.123555 0.34168 -0.931661 
-0.0803874 0.249071 -0.965145 
-0.0510234 0.180341 -0.982281 
-0.030243 0.128649 -0.99123 
-0.0160572 0.09238 -0.995595 
-0.00648226 0.0674083 -0.997705 
-0.000339353 0.0506691 -0.998716 
0.00333309 0.041361 -0.999139 
0.00604606 0.0321014 -0.999467 
0.00617664 0.0205314 -0.999771 
0.00485507 0.0153046 -0.999872 
0.00216443 0.0129383 -0.999915 
0.00100317 0.00805103 -0.999968 
-0.000534161 0.00233677 -0.999998 
0.00118074 -0.0156384 -0.999878 
0.00152326 -0.00556094 -0.999984 
-0.000770049 -0.019009 -0.999819 
0.00104171 -0.0186066 0.999827 
-0.00369894 -0.00789209 0.999963 
-0.00362719 -0.010229 0.999942 
-0.00261865 0.00661699 0.999976 
-0.0064301 0.0122451 0.999905 
-0.00871028 0.0191907 0.999779 
-0.0115313 0.023743 0.999653 
-0.016656 0.0352842 0.999239 
-0.0205922 0.052486 0.99841 
-0.0242903 0.0684864 0.997357 
-0.0282329 0.0933961 0.99523 
-0.0331157 0.133753 0.990462 
-0.0411115 0.191555 0.980622 
-0.0528562 0.268675 0.961781 
-0.0701814 0.370645 0.92612 
-0.0940073 0.498 0.862068 
-0.123011 0.642742 0.756144 
-0.159995 0.790302 0.591461 
-0.198906 0.911603 0.359746 
-0.231887 0.969345 0.0812332 
-0.255282 0.94639 -0.197934 
-0.269378 0.857178 -0.438955 