# vtk DataFile Version 3.0 
Exported using Morpho https://github.com/Morpho-lang/morpho 
ASCII 
DATASET UNSTRUCTURED_GRID 

POINTS 2054 float 
-8.48528 -2.82843 0 
-8.20636 -2.82843 0 
-7.94054 -2.82843 0 
-7.6904 -2.82843 0 
-7.45357 -2.82843 0 
-7.22694 -2.82843 0 
-7.00705 -2.82843 0 
-6.79111 -2.82843 0 
-6.57731 -2.82843 0 
-6.36453 -2.82843 0 
-6.15219 -2.82843 0 
-5.94 -2.82843 0 
-5.72786 -2.82843 0 
-5.51573 -2.82843 0 
-5.3036 -2.82843 0 
-5.09147 -2.82843 0 
-4.87933 -2.82843 0 
-4.6672 -2.82843 0 
-4.45507 -2.82843 0 
-4.24294 -2.82843 0 
-4.03081 -2.82843 0 
-3.81867 -2.82843 0 
-3.60654 -2.82843 0 
-3.39441 -2.82843 0 
-3.18228 -2.82843 0 
-2.97015 -2.82843 0 
-2.75801 -2.82843 0 
-2.54588 -2.82843 0 
-2.33375 -2.82843 0 
-2.12162 -2.82843 0 
-1.90949 -2.82843 0 
-1.69735 -2.82843 0 
-1.48522 -2.82843 0 
-1.27309 -2.82843 0 
-1.06096 -2.82843 0 
-0.848825 -2.82843 0 
-0.636693 -2.82843 0 
-0.424561 -2.82843 0 
-0.212429 -2.82843 0 
-0.000296761 -2.82843 0 
0.211835 -2.82843 0 
0.423967 -2.82843 0 
0.636099 -2.82843 0 
0.848231 -2.82843 0 
1.06036 -2.82843 0 
1.2725 -2.82843 0 
1.48463 -2.82843 0 
1.69676 -2.82843 0 
1.90889 -2.82843 0 
2.12102 -2.82843 0 
2.33316 -2.82843 0 
2.54529 -2.82843 0 
2.75742 -2.82843 0 
2.96955 -2.82843 0 
3.18168 -2.82843 0 
3.39382 -2.82843 0 
3.60595 -2.82843 0 
3.81808 -2.82843 0 
4.03021 -2.82843 0 
4.24234 -2.82843 0 
4.45448 -2.82843 0 
4.66661 -2.82843 0 
4.87874 -2.82843 0 
5.09087 -2.82843 0 
5.303 -2.82843 0 
5.51514 -2.82843 0 
5.72727 -2.82843 0 
5.93941 -2.82843 0 
6.15159 -2.82843 0 
6.36393 -2.82843 0 
6.57672 -2.82843 0 
6.79055 -2.82843 0 
7.00652 -2.82843 0 
7.22647 -2.82843 0 
7.45313 -2.82843 0 
7.69005 -2.82843 0 
7.9403 -2.82843 0 
8.20621 -2.82843 0 
8.48528 -2.82843 0 
-8.48528 -2.5495 0 
-8.30526 -2.64845 0 
-8.07062 -2.59995 0 
-7.83904 -2.59637 0 
-7.59595 -2.59733 0 
-7.36578 -2.59177 0 
-7.13796 -2.5933 0 
-6.90908 -2.59428 0 
-6.68421 -2.5916 0 
-6.46568 -2.58832 0 
-6.24926 -2.58859 0 
-6.03358 -2.58941 0 
-5.81848 -2.59013 0 
-5.60402 -2.59075 0 
-5.39005 -2.59135 0 
-5.17642 -2.59186 0 
-4.96311 -2.59223 0 
-4.75009 -2.59242 0 
-4.53736 -2.59244 0 
-4.32497 -2.59236 0 
-4.1128 -2.59242 0 
-3.90059 -2.59259 0 
-3.68835 -2.5926 0 
-3.47627 -2.59248 0 
-3.26428 -2.59251 0 
-3.05216 -2.59271 0 
-2.83986 -2.59283 0 
-2.62755 -2.59274 0 
-2.41539 -2.59253 0 
-2.20336 -2.59238 0 
-1.99135 -2.59238 0 
-1.77924 -2.59246 0 
-1.56704 -2.59244 0 
-1.35495 -2.59215 0 
-1.14319 -2.59183 0 
-0.931581 -2.59195 0 
-0.719663 -2.59256 0 
-0.507197 -2.59324 0 
-0.294425 -2.59354 0 
-0.0817689 -2.59344 0 
0.130587 -2.59325 0 
0.342804 -2.59322 0 
0.555051 -2.59322 0 
0.767233 -2.59303 0 
0.97919 -2.59278 0 
1.19107 -2.59278 0 
1.40311 -2.59289 0 
1.61524 -2.59286 0 
1.82732 -2.59279 0 
2.03943 -2.59281 0 
2.25163 -2.5928 0 
2.46381 -2.59266 0 
2.67591 -2.59254 0 
2.88801 -2.59237 0 
3.10001 -2.59226 0 
3.31203 -2.59216 0 
3.52402 -2.59207 0 
3.73601 -2.59208 0 
3.94815 -2.59221 0 
4.16052 -2.5923 0 
4.37309 -2.59232 0 
4.58593 -2.59227 0 
4.79921 -2.5922 0 
5.01319 -2.59212 0 
5.22833 -2.5921 0 
5.44534 -2.59239 0 
5.6657 -2.59346 0 
5.89185 -2.59569 0 
6.12685 -2.59429 0 
6.36853 -2.59189 0 
6.6108 -2.57787 0 
6.84491 -2.61411 0 
7.08804 -2.58476 0 
7.34858 -2.60369 0 
7.58803 -2.59327 0 
7.83059 -2.59326 0 
8.06387 -2.59199 0 
8.30038 -2.64348 0 
8.48528 -2.54936 0 
-8.48528 -2.28369 0 
-8.25701 -2.4138 0 
-8.01078 -2.35334 0 
-7.73666 -2.37963 0 
-7.49744 -2.35565 0 
-7.26898 -2.35831 0 
-7.03324 -2.36676 0 
-6.7997 -2.36275 0 
-6.5773 -2.35166 0 
-6.35808 -2.3495 0 
-6.14038 -2.35058 0 
-5.92336 -2.35185 0 
-5.70723 -2.35272 0 
-5.49199 -2.35362 0 
-5.27734 -2.35447 0 
-5.0632 -2.35505 0 
-4.84958 -2.35534 0 
-4.63641 -2.35533 0 
-4.42363 -2.35504 0 
-4.21126 -2.35485 0 
-3.99909 -2.35513 0 
-3.78684 -2.3554 0 
-3.57461 -2.35516 0 
-3.36263 -2.35498 0 
-3.15066 -2.35537 0 
-2.93843 -2.35586 0 
-2.72604 -2.35589 0 
-2.51374 -2.35551 0 
-2.30162 -2.35509 0 
-2.08964 -2.35496 0 
-1.87761 -2.35518 0 
-1.66544 -2.3554 0 
-1.45322 -2.35518 0 
-1.2412 -2.35438 0 
-1.02967 -2.35407 0 
-0.818162 -2.35505 0 
-0.606054 -2.35676 0 
-0.393243 -2.3579 0 
-0.180256 -2.35789 0 
0.0323765 -2.35727 0 
0.244686 -2.35692 0 
0.456926 -2.35692 0 
0.669206 -2.35667 0 
0.881318 -2.35598 0 
1.09315 -2.35559 0 
1.305 -2.35583 0 
1.51709 -2.35595 0 
1.72919 -2.35571 0 
1.9412 -2.35566 0 
2.15334 -2.3558 0 
2.36559 -2.3556 0 
2.57772 -2.35522 0 
2.78976 -2.35507 0 
3.0019 -2.35461 0 
3.21373 -2.35451 0 
3.42571 -2.35439 0 
3.63769 -2.35431 0 
3.84965 -2.35453 0 
4.06183 -2.35491 0 
4.27435 -2.35507 0 
4.48707 -2.35507 0 
4.70017 -2.35506 0 
4.91376 -2.35498 0 
5.12819 -2.35502 0 
5.34378 -2.35528 0 
5.56106 -2.35662 0 
5.78097 -2.35971 0 
6.00401 -2.36251 0 
6.2308 -2.3624 0 
6.45748 -2.35551 0 
6.68075 -2.33423 0 
6.88797 -2.39744 0 
7.05313 -2.27289 0 
7.24377 -2.40237 0 
7.48542 -2.36016 0 
7.73055 -2.36599 0 
7.99177 -2.33552 0 
8.24864 -2.40698 0 
8.48528 -2.28345 0 
-8.48528 -2.03355 0 
-8.25312 -2.18214 0 
-8.03669 -2.07913 0 
-7.83956 -2.18231 0 
-7.6106 -2.12852 0 
-7.38852 -2.10959 0 
-7.16268 -2.14097 0 
-6.9229 -2.1435 0 
-6.70119 -2.12055 0 
-6.48111 -2.11285 0 
-6.26282 -2.11284 0 
-6.045 -2.1151 0 
-5.82775 -2.11658 0 
-5.61153 -2.11776 0 
-5.3962 -2.1192 0 
-5.18144 -2.1203 0 
-4.96732 -2.12084 0 
-4.75387 -2.12105 0 
-4.54086 -2.12091 0 
-4.32822 -2.12045 0 
-4.11596 -2.12045 0 
-3.90382 -2.12107 0 
-3.69156 -2.12116 0 
-3.47938 -2.12058 0 
-3.26746 -2.12068 0 
-3.05542 -2.12154 0 
-2.84307 -2.12198 0 
-2.63064 -2.12162 0 
-2.41836 -2.12087 0 
-2.20626 -2.12031 0 
-1.99426 -2.12034 0 
-1.78217 -2.1207 0 
-1.56989 -2.12074 0 
-1.35755 -2.11993 0 
-1.14542 -2.11838 0 
-0.934012 -2.11859 0 
-0.722404 -2.12089 0 
-0.509943 -2.12344 0 
-0.296911 -2.12431 0 
-0.0840921 -2.12359 0 
0.128295 -2.12281 0 
0.340414 -2.12274 0 
0.552564 -2.12288 0 
0.76478 -2.12226 0 
0.976792 -2.1213 0 
1.18855 -2.12128 0 
1.40042 -2.12188 0 
1.61256 -2.12177 0 
1.82458 -2.12141 0 
2.03655 -2.12164 0 
2.24875 -2.12174 0 
2.46099 -2.12114 0 
2.67302 -2.12065 0 
2.88504 -2.12054 0 
3.09728 -2.1194 0 
3.30873 -2.11968 0 
3.52086 -2.1195 0 
3.7329 -2.11938 0 
3.94484 -2.11986 0 
4.15715 -2.12044 0 
4.36983 -2.12035 0 
4.58282 -2.1204 0 
4.79606 -2.12017 0 
5.01004 -2.12012 0 
5.22483 -2.12002 0 
5.44073 -2.12051 0 
5.6582 -2.123 0 
5.8782 -2.12696 0 
6.10217 -2.12971 0 
6.33095 -2.12707 0 
6.567 -2.11601 0 
6.82301 -2.12303 0 
7.06572 -2.04567 0 
7.29733 -2.17484 0 
7.54632 -2.11408 0 
7.79371 -2.13741 0 
8.02274 -2.07453 0 
8.25027 -2.1738 0 
8.48528 -2.0332 0 
-8.48528 -1.79671 0 
-8.25436 -1.93882 0 
-8.01299 -1.83977 0 
-7.78596 -1.953 0 
-7.5297 -1.87194 0 
-7.2756 -1.88722 0 
-7.05707 -1.93544 0 
-6.84369 -1.89677 0 
-6.62219 -1.88079 0 
-6.40169 -1.87606 0 
-6.18206 -1.87854 0 
-5.96274 -1.881 0 
-5.74458 -1.88208 0 
-5.52796 -1.88344 0 
-5.31232 -1.88506 0 
-5.09736 -1.88569 0 
-4.88338 -1.88564 0 
-4.67019 -1.88555 0 
-4.45737 -1.88507 0 
-4.24485 -1.88447 0 
-4.03271 -1.88482 0 
-3.82061 -1.88562 0 
-3.60832 -1.88529 0 
-3.39617 -1.88464 0 
-3.18427 -1.88547 0 
-2.97209 -1.88672 0 
-2.7596 -1.88684 0 
-2.54714 -1.88601 0 
-2.33483 -1.88505 0 
-2.12268 -1.8846 0 
-1.91058 -1.885 0 
-1.69824 -1.88561 0 
-1.48561 -1.88547 0 
-1.27286 -1.88413 0 
-1.06032 -1.88216 0 
-0.848858 -1.8839 0 
-0.636875 -1.88781 0 
-0.424169 -1.89034 0 
-0.211518 -1.89004 0 
0.000731944 -1.88866 0 
0.21257 -1.88788 0 
0.424308 -1.88807 0 
0.636257 -1.88793 0 
0.848362 -1.88664 0 
1.06025 -1.88556 0 
1.27191 -1.88605 0 
1.48381 -1.88664 0 
1.69595 -1.886 0 
1.90782 -1.88577 0 
2.11974 -1.88637 0 
2.33202 -1.88609 0 
2.54419 -1.88502 0 
2.75607 -1.88472 0 
2.96812 -1.88462 0 
3.18055 -1.88217 0 
3.39117 -1.88415 0 
3.60398 -1.8838 0 
3.81618 -1.88366 0 
4.02827 -1.88469 0 
4.24071 -1.88523 0 
4.4544 -1.88509 0 
4.66716 -1.88476 0 
4.88099 -1.88493 0 
5.09545 -1.88466 0 
5.31057 -1.88453 0 
5.52653 -1.88564 0 
5.7436 -1.88981 0 
5.96352 -1.89563 0 
6.18733 -1.89813 0 
6.41543 -1.89522 0 
6.65059 -1.89622 0 
6.87542 -1.86913 0 
7.11122 -1.81621 0 
7.31223 -1.94975 0 
7.53264 -1.87683 0 
7.77077 -1.89068 0 
8.01717 -1.8297 0 
8.25014 -1.93148 0 
8.48528 -1.79628 0 
-8.48528 -1.57009 0 
-8.24868 -1.70836 0 
-8.015 -1.61096 0 
-7.76734 -1.73071 0 
-7.54593 -1.61782 0 
-7.32306 -1.66278 0 
-7.05152 -1.7082 0 
-6.79786 -1.66675 0 
-6.56099 -1.64764 0 
-6.33267 -1.64541 0 
-6.10856 -1.64921 0 
-5.88638 -1.65073 0 
-5.66697 -1.65153 0 
-5.44986 -1.65353 0 
-5.23379 -1.65525 0 
-5.01882 -1.6551 0 
-4.80519 -1.6548 0 
-4.59235 -1.65478 0 
-4.37976 -1.65422 0 
-4.16737 -1.65386 0 
-3.95537 -1.65471 0 
-3.74326 -1.6554 0 
-3.5309 -1.65455 0 
-3.31876 -1.65426 0 
-3.10682 -1.65593 0 
-2.89443 -1.65705 0 
-2.68177 -1.65644 0 
-2.46924 -1.65516 0 
-2.25682 -1.65408 0 
-2.04447 -1.65386 0 
-1.83202 -1.65455 0 
-1.61911 -1.65506 0 
-1.40572 -1.65429 0 
-1.19212 -1.65207 0 
-0.97885 -1.64982 0 
-0.767325 -1.65372 0 
-0.555434 -1.6581 0 
-0.343588 -1.65935 0 
-0.132061 -1.65818 0 
0.0792288 -1.65687 0 
0.290417 -1.65682 0 
0.501823 -1.6575 0 
0.713729 -1.65709 0 
0.925861 -1.65545 0 
1.13768 -1.65488 0 
1.34929 -1.65604 0 
1.56128 -1.6563 0 
1.77337 -1.65516 0 
1.985 -1.65561 0 
2.19698 -1.65642 0 
2.40939 -1.65525 0 
2.62143 -1.65394 0 
2.83323 -1.65414 0 
3.04553 -1.65355 0 
3.25842 -1.64868 0 
3.46746 -1.65522 0 
3.68272 -1.65284 0 
3.89574 -1.65288 0 
4.10731 -1.65378 0 
4.32287 -1.65565 0 
4.53627 -1.65249 0 
4.74932 -1.65397 0 
4.96428 -1.65355 0 
5.17935 -1.65257 0 
5.3944 -1.65202 0 
5.60927 -1.65354 0 
5.82513 -1.66019 0 
6.04295 -1.66711 0 
6.26383 -1.66843 0 
6.48537 -1.66776 0 
6.70098 -1.65646 0 
6.91299 -1.6206 0 
7.11709 -1.6046 0 
7.3526 -1.69716 0 
7.60698 -1.65764 0 
7.8325 -1.64214 0 
8.05985 -1.58842 0 
8.2608 -1.69223 0 
8.48528 -1.56961 0 
-8.48528 -1.35019 0 
-8.24958 -1.48044 0 
-8.0219 -1.3751 0 
-7.79713 -1.50391 0 
-7.58956 -1.39834 0 
-7.36199 -1.38754 0 
-7.16079 -1.49923 0 
-6.93764 -1.46284 0 
[...]
POINT_DATA 2054 
VECTORS vectors float
0.179951 -0.240821 0.949341 
0.186593 -0.200186 0.961705 
0.210943 -0.153361 0.968976 
0.194143 -0.106793 0.976638 
0.218055 -0.0866853 0.973298 
0.230905 -0.0854892 0.969659 
0.233138 -0.0949384 0.968632 
0.220296 -0.0943979 0.971734 
0.231579 -0.0874869 0.969838 
0.240121 -0.0731978 0.967836 
0.247846 -0.0878364 0.962702 
0.250557 -0.101123 0.961418 
0.255513 -0.0999303 0.959757 
0.25062 -0.0943583 0.962118 
0.242283 -0.0873773 0.96376 
0.245059 -0.0624698 0.96526 
0.254621 -0.0402682 0.965316 
0.259788 -0.0378045 0.961452 
0.262266 -0.0514896 0.957292 
0.254448 -0.0626128 0.962703 
0.236336 -0.0540879 0.970223 
0.224037 -0.0188207 0.974135 
0.234421 0.0204722 0.971458 
0.245701 0.0304568 0.967581 
0.237994 0.031764 0.969743 
0.226222 0.0426623 0.973422 
0.2159 0.0530392 0.976373 
0.199839 0.0634714 0.980212 
0.179117 0.0832381 0.983984 
0.158944 0.115126 0.985525 
0.143047 0.154156 0.983441 
0.133433 0.187507 0.978865 
0.127508 0.200863 0.976013 
0.118443 0.190519 0.978278 
0.102021 0.166125 0.984465 
0.0816291 0.141028 0.990919 
0.0647357 0.121735 0.996257 
0.056383 0.106814 1.00034 
0.0590497 0.094191 1.00206 
0.0709867 0.0893472 1.00319 
0.0773657 0.106007 1.00882 
0.0608869 0.151425 1.01325 
0.0326066 0.218974 0.999079 
0.00652813 0.321586 0.957616 
-0.0312112 0.486259 0.885146 
-0.0741831 0.700388 0.74456 
-0.100904 0.906906 0.491243 
-0.0993987 1.02636 0.148751 
-0.0656533 1.00133 -0.238716 
-0.0409939 0.821716 -0.596727 
-0.0665626 0.575621 -0.824321 
-0.118651 0.377618 -0.923396 
-0.162298 0.251376 -0.957596 
-0.190787 0.168257 -0.968993 
-0.214142 0.113053 -0.970535 
-0.226171 0.0844023 -0.970494 
-0.218039 0.0494247 -0.975127 
-0.216559 -0.00795596 -0.976358 
-0.2352 -0.0476054 -0.971225 
-0.255242 -0.0550572 -0.962884 
-0.26258 -0.0422637 -0.957622 
-0.25894 -0.0316704 -0.96277 
-0.251596 -0.0376307 -0.965978 
-0.244118 -0.0637285 -0.965441 
-0.245062 -0.0886378 -0.963306 
-0.250704 -0.0950506 -0.961594 
-0.251568 -0.0999579 -0.960828 
-0.24797 -0.100485 -0.962155 
-0.243777 -0.0863849 -0.964439 
-0.23974 -0.0757932 -0.966505 
-0.231474 -0.0928056 -0.970187 
-0.221919 -0.0944814 -0.971847 
-0.23881 -0.0923192 -0.967305 
-0.231449 -0.083936 -0.969065 
-0.218248 -0.0840467 -0.973097 
-0.197734 -0.108237 -0.975645 
-0.207649 -0.149716 -0.971673 
-0.185042 -0.197487 -0.963504 
-0.177177 -0.237729 -0.951293 
0.10925 -0.255774 0.955643 
0.141735 -0.215094 0.982312 
0.150403 -0.173945 0.980409 
0.157684 -0.140436 0.989915 
0.156678 -0.108612 0.993324 
0.169803 -0.0945478 0.990494 
0.176151 -0.0901876 0.98962 
0.170933 -0.0858892 0.991312 
0.172076 -0.0831516 0.989986 
0.180352 -0.0798364 0.988593 
0.184843 -0.0772322 0.987379 
0.189561 -0.0839922 0.985241 
0.197009 -0.0898432 0.984958 
0.201437 -0.0866417 0.985653 
0.201994 -0.0806693 0.98748 
0.204685 -0.0695299 0.989656 
0.209031 -0.0543541 0.990509 
0.209552 -0.0480456 0.989436 
0.20686 -0.0525708 0.986516 
0.202222 -0.0566738 0.985737 
0.194417 -0.0511246 0.988795 
0.186385 -0.0335586 0.991854 
0.185713 -0.00770817 0.992567 
0.188837 0.0140307 0.991859 
0.18358 0.0276931 0.992308 
0.168777 0.0394467 0.994778 
0.149137 0.052131 0.997608 
0.124343 0.0668579 1.00043 
0.0937356 0.0874843 1.00319 
0.0598052 0.11723 1.00387 
0.0249137 0.154135 1.00102 
-0.0109259 0.189896 0.995084 
-0.049141 0.213674 0.987845 
-0.0906428 0.218857 0.982174 
-0.133494 0.20642 0.978771 
-0.171724 0.182276 0.977009 
-0.199215 0.153076 0.977423 
-0.213151 0.123702 0.979746 
-0.213971 0.0994317 0.983065 
-0.204603 0.0868753 0.985786 
-0.191875 0.0953413 0.987763 
-0.184135 0.132968 0.984101 
-0.184191 0.201711 0.965907 
-0.192053 0.301687 0.927347 
-0.213887 0.44641 0.871063 
-0.239862 0.636602 0.756811 
-0.250743 0.83337 0.540382 
-0.238895 0.974802 0.228182 
-0.198849 0.995032 -0.140643 
-0.147552 0.876275 -0.493981 
-0.115591 0.670842 -0.752167 
-0.113785 0.466207 -0.892859 
-0.12915 0.312497 -0.955326 
-0.147572 0.207966 -0.97986 
-0.164679 0.137276 -0.988284 
-0.177356 0.0889057 -0.990978 
-0.180865 0.0489984 -0.992559 
-0.18145 0.00778592 -0.993908 
-0.18847 -0.0264121 -0.991599 
-0.198785 -0.0448895 -0.987897 
-0.204875 -0.049544 -0.985832 
-0.207533 -0.0460607 -0.988095 
-0.208221 -0.0448417 -0.990757 
-0.205329 -0.0556721 -0.991101 
-0.202521 -0.0718386 -0.989807 
-0.203267 -0.0824095 -0.987396 
-0.203364 -0.0911735 -0.984381 
-0.197692 -0.0933011 -0.983757 
-0.18706 -0.0827539 -0.985501 
-0.180168 -0.0787788 -0.991495 
-0.167832 -0.0868722 -0.990768 
-0.168577 -0.0877457 -0.99176 
-0.169193 -0.0927378 -0.992954 
-0.167746 -0.0955468 -0.993189 
-0.152565 -0.106986 -0.992799 
-0.153625 -0.143459 -0.99164 
-0.149899 -0.181804 -0.979796 
-0.139892 -0.215336 -0.9821 
-0.100994 -0.251773 -0.95846 
0.0512443 -0.29866 0.950766 
0.098483 -0.2193 0.977769 
0.106545 -0.174898 0.997351 
0.116164 -0.134527 0.99598 
0.117626 -0.107894 0.996256 
0.127766 -0.100231 0.998908 
0.129971 -0.0885853 0.99648 
0.130338 -0.0792632 0.997579 
0.135697 -0.0810808 0.997025 
0.141518 -0.0763729 0.997576 
0.145456 -0.0731859 0.996155 
0.148023 -0.0809277 0.995201 
0.150573 -0.0821461 0.996138 
0.154078 -0.0755751 0.9963 
0.157388 -0.0709134 0.996339 
0.160322 -0.0626515 0.998469 
0.161282 -0.0537034 0.997776 
0.157739 -0.0552344 0.995668 
0.152292 -0.0601736 0.995313 
0.14847 -0.0564802 0.996322 
0.144702 -0.0447098 0.99825 
0.141085 -0.0269043 1.00016 
0.139523 -0.00512891 1.00173 
0.135167 0.015101 1.00286 
0.122315 0.0321279 1.00401 
0.101747 0.049097 1.00514 
0.0744328 0.0686741 1.00646 
0.038313 0.093055 1.00727 
-0.00663212 0.125685 1.00534 
-0.0584322 0.167758 0.998643 
-0.11717 0.213929 0.984813 
-0.184329 0.253566 0.963731 
-0.259569 0.276364 0.938282 
-0.33827 0.2765 0.911314 
-0.411142 0.25444 0.887305 
-0.468179 0.216125 0.870129 
-0.502417 0.171488 0.861547 
-0.511828 0.133053 0.862696 
-0.498616 0.109217 0.871331 
-0.47062 0.105089 0.884749 
-0.437006 0.126546 0.896934 
-0.407048 0.180638 0.898177 
-0.390782 0.270853 0.880456 
-0.39348 0.399737 0.834944 
-0.406175 0.567531 0.739274 
-0.410484 0.754952 0.554916 
-0.39291 0.906872 0.273349 
-0.343692 0.958531 -0.0748921 
-0.270547 0.884669 -0.420228 
-0.198248 0.715382 -0.689458 
-0.151175 0.523218 -0.855139 
-0.13149 0.361388 -0.938696 
-0.12798 0.24282 -0.975705 
-0.131959 0.15939 -0.992094 
-0.138477 0.100328 -0.998242 
-0.142744 0.0551257 -1.00077 
-0.143813 0.0159889 -1.00105 
-0.146476 -0.0160514 -0.999483 
-0.151053 -0.0380546 -0.997602 
-0.152759 -0.0512265 -0.995744 
-0.15386 -0.0541368 -0.995378 
-0.157618 -0.0502254 -0.996709 
-0.159874 -0.0540194 -0.998564 
-0.159217 -0.064998 -0.998838 
-0.157968 -0.0703637 -0.996534 
-0.155324 -0.0769804 -0.996512 
-0.152426 -0.0858129 -0.994675 
-0.148259 -0.0811273 -0.994846 
-0.142043 -0.0753482 -0.996171 
-0.137352 -0.0803973 -0.997651 
-0.131365 -0.0770308 -0.99752 
-0.13559 -0.0791425 -0.997345 
-0.118875 -0.0822061 -1.00081 
-0.134869 -0.097443 -0.993326 
-0.118283 -0.100861 -0.997705 
-0.110005 -0.127691 -0.998093 
-0.100862 -0.173765 -0.998906 
-0.0996031 -0.220899 -0.977519 
-0.0484508 -0.297873 -0.951721 
0.0432033 -0.303772 0.949763 
0.0659913 -0.234882 0.981033 
0.0707073 -0.18962 0.99173 
0.0860701 -0.152381 0.990477 
0.08507 -0.121807 1.00322 
0.087736 -0.108974 1.00081 
0.094809 -0.0973803 1.00046 
0.0978792 -0.0774812 1.00311 
0.0996216 -0.0770014 1.00147 
0.101994 -0.0777302 1.00329 
0.106906 -0.0669311 1.00325 
0.111009 -0.0707948 1.00198 
0.110862 -0.0789696 1.00147 
0.111516 -0.0717135 1.00102 
0.112806 -0.0658347 1.00046 
0.113087 -0.0641782 1.00038 
0.114964 -0.0558962 1.00047 
0.114785 -0.0523761 0.999505 
0.108736 -0.0583628 0.999497 
0.102709 -0.0574807 1.0015 
0.0997522 -0.0456882 1.00341 
0.0958497 -0.03039 1.00423 
0.091388 -0.0115062 1.00603 
0.0871278 0.0105804 1.00774 
0.0779498 0.0323106 1.00866 
0.0608439 0.0550674 1.00899 
0.036153 0.0820451 1.00846 
0.000876864 0.113828 1.0063 
-0.0485688 0.152244 1.00055 
-0.11177 0.20093 0.987781 
-0.18755 0.258643 0.962936 
-0.276702 0.316151 0.922891 
-0.378821 0.359749 0.867485 
-0.48765 0.377053 0.801268 
-0.592043 0.362355 0.734501 
-0.677979 0.317669 0.679724 
-0.736677 0.254204 0.646102 
-0.765437 0.187872 0.636607 
-0.764322 0.134229 0.650143 
-0.738677 0.10671 0.682597 
-0.697331 0.113083 0.721803 
-0.653678 0.158487 0.75155 
-0.618939 0.240565 0.755454 
-0.601346 0.356096 0.72389 
-0.59587 0.501709 0.643048 
-0.585732 0.665545 0.489856 
-0.555293 0.811273 0.251748 
-0.492136 0.886168 -0.0576957 
-0.397055 0.852791 -0.37832 
-0.291499 0.7242 -0.64256 
-0.206081 0.558755 -0.820018 
-0.15228 0.404136 -0.916984 
-0.124193 0.28303 -0.966104 
-0.110365 0.191891 -0.989143 
-0.105306 0.124612 -1.00023 
-0.104989 0.0752273 -1.00427 
-0.104526 0.0355432 -1.00607 
-0.104243 0.00271817 -1.0051 
-0.106238 -0.0213993 -1.00363 
-0.107635 -0.0403771 -1.00296 
-0.107813 -0.053489 -1.00074 
-0.111218 -0.0529044 -0.998962 
-0.115392 -0.0488358 -0.999544 
-0.115828 -0.0572698 -1.00018 
-0.116359 -0.0643136 -1.00036 
-0.11649 -0.0632908 -1.00145 
-0.113226 -0.0732059 -1.0017 
-0.113213 -0.0808174 -1.00167 
-0.115457 -0.0699621 -1.0019 
-0.112337 -0.0705671 -1.00235 
-0.107978 -0.0771632 -1.00368 
-0.105103 -0.0672627 -1.00361 
-0.0860441 -0.0810695 -1.00398 
-0.101692 -0.102965 -1.00375 
-0.0888862 -0.114279 -1.00218 
-0.080365 -0.143352 -0.995153 
-0.0630612 -0.185822 -0.9919 
-0.0618778 -0.235858 -0.983178 
-0.0423465 -0.309577 -0.947479 
0.0582372 -0.306965 0.947053 
0.0535897 -0.23971 0.980297 
0.0523716 -0.188568 0.990857 
0.064591 -0.146207 1.00068 
0.0582588 -0.118387 1.00332 
0.0624448 -0.106169 1.00254 
0.0705127 -0.0823731 1.00304 
0.0714191 -0.070114 1.0044 
0.072038 -0.0766639 1.00318 
0.0741176 -0.0676674 1.0059 
0.0801288 -0.0603991 1.00375 
0.0837819 -0.0734847 1.00193 
0.0871159 -0.0745364 1.00297 
0.0926027 -0.0642033 1.00276 
0.0945164 -0.0645816 1.00057 
0.0962944 -0.0604566 1.00173 
0.100222 -0.0495057 1.00141 
0.0982816 -0.050394 1.00033 
0.0908162 -0.0528293 1.00274 
0.0851472 -0.0410572 1.00512 
0.0794975 -0.0244451 1.00574 
0.0704791 -0.00853829 1.00663 
0.0613079 0.0116874 1.00804 
0.0514796 0.0349901 1.00872 
0.0365748 0.0605429 1.00858 
0.0155038 0.0934225 1.00734 
-0.0143671 0.134589 1.0037 
-0.0596034 0.182265 0.99515 
-0.12401 0.239659 0.977412 
-0.207596 0.310175 0.94335 
-0.310634 0.387681 0.884539 
-0.432348 0.4556 0.795251 
-0.565124 0.493788 0.678814 
-0.693236 0.487825 0.550749 
-0.800284 0.437319 0.433603 
-0.876402 0.356283 0.352483 
-0.922017 0.264762 0.313979 
-0.940688 0.180887 0.314648 
-0.936567 0.120564 0.349386 
-0.9128 0.0980167 0.409322 
-0.877141 0.12344 0.473937 
-0.838915 0.194251 0.517099 
-0.8078 0.300536 0.518165 
-0.784502 0.430728 0.463541 
-0.757933 0.57195 0.343466 
-0.711763 0.70108 0.152072 
-0.633897 0.781208 -0.103424 
-0.522091 0.777056 -0.381457 
-0.393997 0.689984 -0.62372 
-0.279089 0.55954 -0.797246 
-0.194972 0.424243 -0.898889 
-0.143528 0.311643 -0.954072 
-0.11304 0.222734 -0.982854 
-0.0949334 0.151788 -0.996526 
-0.0868579 0.0981771 -1.00247 
-0.0856554 0.0592166 -1.00555 
-0.0859695 0.0267914 -1.00569 
-0.0889016 0.00207965 -1.00584 
-0.09281 -0.0160012 -1.00496 
-0.0939025 -0.035988 -1.00466 
-0.0955796 -0.0512361 -1.00276 
-0.0997621 -0.0489889 -1.00002 
-0.100113 -0.0476464 -1.00165 
-0.0954934 -0.0593967 -1.00149 
-0.0935085 -0.0624083 -1.00078 
-0.0909703 -0.0616351 -1.00356 
-0.0845465 -0.0761853 -1.00299 
-0.0834863 -0.0762569 -1.0017 
-0.0845454 -0.0594451 -1.00492 
-0.0786074 -0.0678912 -1.0068 
-0.0743038 -0.0742939 -1.00359 
-0.067057 -0.0668394 -1.00548 
-0.0534927 -0.0854778 -1.00611 
-0.0683673 -0.108497 -0.997595 
-0.06305 -0.120284 -1.00491 
-0.0611466 -0.147142 -1.0011 
-0.0490335 -0.189892 -0.992511 
-0.0490019 -0.241114 -0.978853 
-0.055047 -0.309271 -0.945983 
0.0293626 -0.291523 0.953284 
0.0401789 -0.241066 0.980268 
0.0287554 -0.193809 0.99538 
0.0423278 -0.146772 1.00195 
0.0320252 -0.123962 1.00104 
0.0399026 -0.111638 1.00655 
0.0491044 -0.0800169 1.00742 
0.0497141 -0.0736948 1.00482 
0.0503939 -0.0774016 1.00687 
0.0562483 -0.0607192 1.00508 
0.0626839 -0.0663774 1.0032 
0.0651913 -0.0787445 1.00344 
0.0710733 -0.0674971 1.0042 
0.0787741 -0.0617855 1.00413 
0.0817234 -0.0626342 1.00481 
0.0842712 -0.0491958 1.00623 
0.0850293 -0.0411842 1.0057 
0.0785826 -0.0462211 1.00638 
0.0707364 -0.0389858 1.0089 
0.0645123 -0.0200002 1.01016 
0.05366 -0.00508109 1.01032 
0.0389074 0.0104957 1.01113 
0.0248901 0.0321685 1.01034 
0.00978294 0.0569644 1.00907 
-0.0086483 0.0900924 1.0073 
-0.0317903 0.137835 1.00294 
-0.0664107 0.197206 0.992606 
-0.120658 0.267079 0.970938 
-0.197799 0.352418 0.929498 
-0.298631 0.452 0.855786 
-0.422757 0.549158 0.736764 
-0.562171 0.615596 0.569667 
-0.698024 0.625043 0.373401 
-0.809703 0.570384 0.183177 
-0.888194 0.469643 0.0334994 
-0.938493 0.353021 -0.0497591 
-0.970129 0.245176 -0.0758117 
-0.988099 0.160843 -0.0553109 
-0.994679 0.110167 0.00418784 
-0.990529 0.104445 0.0884413 
-0.975201 0.148497 0.169747 
-0.952159 0.236123 0.215053 
-0.923064 0.35007 0.200738 
-0.884188 0.47123 0.119272 
-0.825297 0.581892 -0.0241097 
-0.735362 0.658387 -0.218714 
-0.611569 0.672554 -0.439633 
-0.471111 0.620003 -0.644424 
-0.338799 0.524073 -0.797791 
-0.232692 0.41433 -0.893758 
-0.160169 0.316153 -0.950099 
-0.114129 0.235737 -0.980699 
-0.0835316 0.168019 -0.995122 
-0.064247 0.111996 -1.00443 
-0.0562774 0.0707853 -1.00647 
-0.0569241 0.0426403 -1.00806 
-0.0600882 0.0180764 -1.0097 
-0.0679631 0.00159404 -1.0092 
-0.0750938 -0.0117834 -1.01007 
-0.0779749 -0.0333886 -1.00918 
-0.081805 -0.04781 -1.00695 
-0.0880373 -0.0431686 -1.00523 
-0.089002 -0.0454919 -1.00495 
-0.0866277 -0.0605119 -1.00491 
-0.084288 -0.0619507 -1.00268 
-0.0776697 -0.0640459 -1.00308 
-0.0675656 -0.07935 -1.00369 
-0.0625084 -0.0709312 -1.00237 
-0.0583011 -0.0556214 -1.00484 
-0.0518804 -0.0705921 -1.00541 
-0.0495054 -0.0747417 -1.00635 
-0.043445 -0.066609 -1.00598 
-0.0344242 -0.0822652 -1.00483 
-0.039398 -0.107689 -1.00688 
-0.0368166 -0.121271 -0.997715 
-0.0331072 -0.157206 -1.00302 
-0.0293503 -0.197684 -0.987876 
-0.0421955 -0.242305 -0.981982 
-0.0289678 -0.290392 -0.953011 
-0.0217091 -0.292499 0.953202 
0.00958272 -0.23957 0.98073 
0.00221018 -0.196337 0.991492 
0.0170883 -0.153145 0.997737 
0.00654487 -0.129736 1.00216 
0.00710033 -0.112446 1.00441 
0.0210035 -0.0896857 1.00415 
0.0187852 -0.0745318 1.0101 
0.0183773 -0.0807616 1.00624 
0.023243 -0.0686722 1.00656 
0.0342802 -0.0601985 1.0069 
0.0432312 -0.0761789 1.00386 
0.0485141 -0.0724233 1.00486 
0.0566491 -0.0553015 1.00664 
0.0625602 -0.054126 1.00611 
0.0632442 -0.0436903 1.00847 
0.0619581 -0.0267708 1.0081 
0.0554346 -0.031479 1.00689 
0.0452302 -0.0362588 1.00889 
0.0382534 -0.0194841 1.01117 
0.03082 -0.00150563 1.01218 
0.0176138 0.0100462 1.01184 
0.00279826 0.0270384 1.0109 
-0.011833 0.0498205 1.00924 
-0.0291245 0.0793812 1.00634 
-0.0490627 0.127048 1.00169 
-0.0748105 0.194827 0.991174 
-0.115861 0.277194 0.967966 
-0.179592 0.376777 0.923555 
-0.267367 0.495737 0.841917 
-0.377843 0.62 0.704377 
-0.504014 0.716883 0.501157 
-0.627283 0.749201 0.249346 
-0.725745 0.700016 -0.00454771 
-0.789318 0.586261 -0.212213 
-0.826929 0.44731 -0.347445 
-0.856598 0.318885 -0.406686 
-0.883371 0.215623 -0.415925 
-0.912478 0.143817 -0.385077 
-0.943157 0.109999 -0.32136 
-0.967574 0.121464 -0.241795 
-0.975619 0.178594 -0.175534 
-0.960254 0.267403 -0.152648 
-0.920461 0.365693 -0.188861 
-0.855851 0.455061 -0.278448 
-0.762593 0.52145 -0.40559 
-0.639398 0.548228 -0.554705 
-0.498806 0.526083 -0.70413 
-0.361859 0.463103 -0.823077 
-0.248489 0.384335 -0.903289 
-0.164415 0.305492 -0.951259 
-0.107984 0.236789 -0.978868 
-0.0706914 0.178067 -0.993704 
-0.0445516 0.124037 -1.00414 
-0.0291945 0.0772676 -1.00552 
-0.0245632 0.0464477 -1.0086 
-0.0277777 0.0287906 -1.0092 
-0.0327424 0.0113176 -1.01085 
-0.0411076 0.00116943 -1.01128 
-0.0491783 -0.0113218 -1.01122 
-0.051054 -0.032607 -1.0103 
-0.0577965 -0.0403057 -1.00729 
-0.0669013 -0.0303088 -1.00706 
-0.0698984 -0.0374965 -1.00848 
-0.0691371 -0.0549481 -1.00724 
-0.0640307 -0.0568463 -1.00703 
-0.0525744 -0.0639473 -1.00547 
-0.0426893 -0.0780748 -1.00347 
-0.0377095 -0.0652982 -1.00508 
-0.030919 -0.0561008 -1.00654 
-0.0229401 -0.0715005 -1.00541 
-0.0169742 -0.0694049 -1.00812 
-0.00516043 -0.0717616 -1.0098 
-0.0140524 -0.0994907 -1.00363 
-0.0154399 -0.110071 -1.0062 
-0.00802744 -0.136345 -1.00077 
-0.00392923 -0.179812 -0.998175 
-0.0104338 -0.233707 -0.985083 
0.0188631 -0.29333 -0.95243 
-0.0426385 -0.313938 0.945159 
-0.0169976 -0.24572 0.979585 
-0.00889829 -0.207744 0.988617 
-0.00314466 -0.158318 0.998232 
-0.00121469 -0.134025 0.998883 
0.0028121 -0.112812 1.00218 
-0.000105581 -0.0826535 1.00876 
0.00595072 -0.0739029 1.00476 
0.012117 -0.0730059 1.00477 
0.0186875 -0.0544761 1.00705 
0.0276546 -0.0606961 1.00498 
0.035792 -0.0715105 1.00521 
0.0418736 -0.0524197 1.00677 
0.0462526 -0.0422791 1.00706 
0.0458554 -0.0379455 1.00878 
0.0428312 -0.0168536 1.00977 
0.0368013 -0.0100065 1.00766 
0.0265068 -0.0247953 1.00829 
0.0179412 -0.0217606 1.01071 
0.013399 -0.00220519 1.01185 
0.00777183 0.00954548 1.01042 
0.000135125 0.0209328 1.01084 
-0.00738431 0.041118 1.01027 
-0.0176116 0.0666129 1.008 
-0.0325241 0.106719 1.0038 
-0.0516255 0.172867 0.99555 
-0.0801694 0.260735 0.9755 
-0.126635 0.367051 0.935806 
-0.194449 0.498043 0.861466 
-0.282521 0.646935 0.728368 
-0.386268 0.781145 0.517574 
-0.49076 0.851732 0.236628 
-0.575165 0.827119 -0.065455 
-0.627703 0.71684 -0.324506 
-0.65684 0.565147 -0.505036 
-0.67732 0.413524 -0.606526 
-0.699879 0.287179 -0.646032 
-0.727424 0.194011 -0.65426 
-0.764834 0.136788 -0.63496 
-0.806669 0.119635 -0.592599 
-0.840234 0.142929 -0.542714 
-0.85159 0.197364 -0.508918 
-0.831973 0.264336 -0.50971 
-0.782067 0.326025 -0.549548 
-0.706884 0.373442 -0.616074 
-0.60964 0.402029 -0.696804 
-0.493338 0.402832 -0.783259 
-0.371789 0.373059 -0.861556 
-0.265503 0.326126 -0.921048 
-0.182757 0.273422 -0.95745 
-0.122986 0.2208 -0.979743 
-0.0831141 0.173776 -0.992209 
-0.0567413 0.13103 -1.00125 
-0.0374502 0.0859489 -1.00513 
-0.0258377 0.0467671 -1.00799 
-0.02132 0.0257594 -1.00985 
-0.021812 0.0160871 -1.00865 
-0.0180688 0.00504026 -1.01143 
-0.0253438 -0.00228945 -1.01006 
-0.0251166 -0.0148399 -1.01174 
-0.0262676 -0.0321214 -1.00942 
-0.0346425 -0.027455 -1.00801 
-0.0448359 -0.0149215 -1.00735 
-0.0481887 -0.0299986 -1.00913 
-0.0504296 -0.0466753 -1.0077 
-0.0471782 -0.0503429 -1.00684 
-0.0395767 -0.0648158 -1.00648 
-0.0330568 -0.0730706 -1.00424 
-0.0272406 -0.0574332 -1.00508 
-0.0177658 -0.0533568 -1.00789 
-0.0103112 -0.069714 -1.00465 
-0.00595738 -0.0709637 -1.00383 
-0.00100743 -0.083525 -1.00653 
0.0039989 -0.109607 -1.00256 
-0.000867662 -0.122638 -1.00082 
0.00370199 -0.163566 -0.998047 
0.00838713 -0.208397 -0.987103 
0.0178743 -0.253204 -0.978596 
0.043045 -0.318268 -0.942598 
-0.0272212 -0.344869 0.932835 
-0.0181572 -0.264761 0.972737 
-0.00353639 -0.220047 0.985375 
-0.000392394 -0.165415 0.995795 
0.00956164 -0.138364 0.997903 
0.016894 -0.115893 1.00332 
0.0174914 -0.0786049 1.0056 
0.0223627 -0.072332 1.00307 
0.022996 -0.0575729 1.00728 
0.020147 -0.0457472 1.00572 
0.0167295 -0.0587115 1.00584 
0.0132659 -0.0511501 1.008 
0.00825658 -0.0311942 1.00853 
0.00147228 -0.0268117 1.0101 
-0.0073462 -0.01078 1.01214 
-0.0164819 0.00938341 1.00955 
-0.0269032 0.000106084 1.00838 
-0.0341857 -0.0116361 1.00967 
-0.0365323 0.00180787 1.01074 
-0.0360142 0.0164038 1.00857 
-0.0348399 0.0244174 1.00814 
-0.0317306 0.041242 1.00919 
-0.029183 0.065431 1.00756 
-0.0317082 0.09807 1.00336 
-0.039884 0.155188 0.996979 
-0.0543182 0.240332 0.981586 
-0.080286 0.346061 0.947384 
-0.122016 0.477106 0.884233 
-0.178704 0.637714 0.767476 
-0.24707 0.803297 0.567213 
-0.31958 0.918961 0.27813 
-0.381887 0.932074 -0.0564933 
-0.423132 0.836495 -0.361376 
-0.449174 0.67855 -0.584182 
-0.472262 0.509993 -0.721649 