# vtk DataFile Version 3.0 
Exported using Morpho https://github.com/Morpho-lang/morpho 
ASCII 
DATASET UNSTRUCTURED_GRID 

POINTS 1978 float 
-8.48528 -2.82843 -2.40785e-10 
-8.26044 -2.82843 -4.78321e-10 
-8.03487 -2.82843 -3.40562e-10 
-7.80556 -2.82843 -2.68111e-10 
-7.51137 -2.82844 -4.45567e-10 
-7.26181 -2.82844 -1.25446e-10 
-7.00892 -2.82842 -2.97552e-10 
-6.78227 -2.82844 -2.71896e-10 
-6.56529 -2.82842 -5.64382e-12 
-6.34729 -2.82843 2.65774e-10 
-6.14477 -2.82843 1.365e-10 
-5.91385 -2.82843 1.50202e-12 
-5.71067 -2.82843 1.53998e-10 
-5.51028 -2.82843 -3.20151e-11 
-5.2951 -2.82843 -3.4561e-11 
-5.085 -2.82843 7.33696e-11 
-4.86797 -2.82843 2.70938e-10 
-4.65804 -2.82843 6.49813e-10 
-4.43643 -2.82843 1.13421e-09 
-4.21224 -2.82843 1.52517e-09 
-3.99788 -2.82843 1.58124e-09 
-3.79517 -2.82843 1.55008e-09 
-3.59033 -2.82843 2.36453e-09 
-3.3889 -2.82843 3.38875e-09 
-3.17687 -2.82843 3.33954e-09 
-2.97018 -2.82843 1.25597e-09 
-2.77273 -2.82843 -5.49562e-09 
-2.57492 -2.82843 -2.30812e-08 
-2.36578 -2.82843 -6.35144e-08 
-2.16383 -2.82842 -1.87199e-07 
-1.94551 -2.82842 -4.15392e-07 
-1.77692 -2.82843 -8.86499e-07 
-1.62293 -2.82844 -1.46161e-06 
-1.46149 -2.82843 -2.2194e-06 
-1.29183 -2.82838 -3.58018e-06 
-1.08323 -2.82846 -4.01334e-06 
-0.878915 -2.82843 -1.0629e-05 
-0.636142 -2.8284 -1.1242e-05 
-0.366924 -2.82841 -1.26375e-05 
0.0216417 -2.82841 1.83209e-06 
0.469601 -2.82842 1.92067e-05 
0.682663 -2.82842 9.32886e-06 
0.879963 -2.82843 8.59644e-06 
1.06788 -2.82842 7.28599e-06 
1.24095 -2.82843 3.50428e-06 
1.40322 -2.82842 2.56455e-06 
1.60063 -2.82843 1.57078e-06 
1.78336 -2.82844 7.8135e-07 
1.9558 -2.82841 3.92206e-07 
2.16536 -2.82843 2.16027e-07 
2.35812 -2.82845 9.45879e-08 
2.55328 -2.82842 1.52609e-08 
2.75687 -2.82843 1.28283e-09 
2.98257 -2.82843 2.78995e-10 
3.19309 -2.82843 -5.18337e-09 
3.39163 -2.82843 -2.98567e-09 
3.6067 -2.82843 -1.66529e-09 
3.81071 -2.82843 -2.10746e-09 
4.01749 -2.82843 -1.58583e-09 
4.24017 -2.82843 -1.43982e-09 
4.43938 -2.82843 -1.02665e-09 
4.65799 -2.82843 -4.85505e-10 
4.8618 -2.82843 -3.00427e-10 
5.0777 -2.82843 -1.43538e-11 
5.28893 -2.82843 1.05754e-11 
5.50576 -2.82843 -6.33228e-11 
5.71201 -2.82843 -6.97951e-11 
5.92837 -2.82843 -5.38074e-11 
6.15144 -2.82843 -1.58837e-11 
6.35469 -2.82843 -1.47658e-10 
6.58737 -2.82843 1.19985e-10 
6.80754 -2.82843 1.50673e-10 
7.00877 -2.82843 5.0832e-11 
7.27721 -2.82843 4.0966e-10 
7.51628 -2.82843 2.19911e-10 
7.75318 -2.82843 4.89437e-10 
8.02823 -2.82843 3.14231e-10 
8.21014 -2.82843 4.05716e-10 
8.48528 -2.82843 1.5235e-10 
-8.48528 -2.58847 3.20577e-10 
-8.25942 -2.58852 -6.724e-20 
-8.03052 -2.58938 9.47089e-21 
-7.77946 -2.6153 -8.8613e-21 
-7.53022 -2.64258 -2.82097e-20 
-7.23673 -2.61759 -2.88989e-21 
-6.98546 -2.60095 -3.19862e-20 
-6.76704 -2.58988 1.7509e-20 
-6.53584 -2.59742 -3.53859e-20 
-6.32615 -2.57797 4.80624e-14 
-6.09439 -2.61175 -1.47433e-20 
-5.88313 -2.5825 -5.56739e-21 
-5.67618 -2.57839 3.33196e-14 
-5.45804 -2.59631 -8.46196e-21 
-5.24225 -2.58866 -1.99718e-20 
-5.02276 -2.59474 -2.31034e-20 
-4.8071 -2.58556 -2.47066e-20 
-4.58534 -2.5987 4.29932e-14 
-4.35855 -2.60279 4.30951e-20 
-4.13713 -2.59579 6.40984e-20 
-3.92694 -2.58602 1.57446e-20 
-3.71813 -2.59263 -1.3458e-19 
-3.51053 -2.59254 -3.50391e-19 
-3.29774 -2.60671 1.42244e-18 
-3.08216 -2.60097 3.52312e-18 
-2.87391 -2.59218 1.73765e-19 
-2.66946 -2.59552 3.3135e-17 
-2.4555 -2.61019 2.37023e-16 
-2.23566 -2.60077 8.18929e-16 
-2.02128 -2.62685 1.8992e-15 
-1.80857 -2.56695 -3.24242e-16 
-1.63431 -2.56608 -6.76845e-15 
-1.46487 -2.5486 -1.35196e-14 
-1.27415 -2.53329 -2.43276e-14 
-1.07235 -2.59409 5.80717e-14 
-0.830664 -2.5847 1.11989e-13 
-0.754103 -2.37838 -7.02806e-14 
-0.530457 -2.55219 1.22845e-13 
-0.223361 -2.59417 1.45505e-13 
-0.0063728 -2.42119 -3.79016e-15 
0.23827 -2.63755 -9.77421e-14 
0.484024 -2.49861 7.50991e-15 
0.719114 -2.5005 -3.20011e-14 
0.931845 -2.52616 3.26758e-18 
1.12881 -2.53825 9.98221e-15 
1.31218 -2.53252 1.03036e-14 
1.50556 -2.61323 -7.61239e-15 
1.7095 -2.59349 -3.05329e-15 
1.90124 -2.57799 1.28077e-15 
2.10556 -2.62525 -8.67295e-16 
2.32655 -2.60021 -2.00905e-16 
2.5406 -2.59942 -3.92208e-17 
2.77697 -2.62212 -1.04755e-16 
2.99815 -2.6026 -2.45862e-17 
3.20529 -2.58637 -6.0111e-18 
3.42415 -2.60413 -2.78205e-18 
3.63662 -2.59194 -5.83329e-19 
3.84925 -2.59445 -4.726e-19 
4.07222 -2.60836 -2.46736e-19 
4.27795 -2.57902 -1.98118e-20 
4.49616 -2.59941 -2.805e-20 
4.7051 -2.58048 2.14146e-20 
4.92309 -2.59499 2.67245e-20 
5.13863 -2.59031 2.58652e-20 
5.35939 -2.59782 1.5725e-20 
5.57444 -2.58715 7.32797e-21 
5.79194 -2.59795 4.64981e-21 
6.01829 -2.60327 6.0555e-21 
6.23382 -2.57777 9.82029e-21 
6.45538 -2.60579 1.23422e-20 
6.68447 -2.58998 1.05192e-20 
6.89614 -2.56405 7.75672e-21 
7.12803 -2.62979 1.05593e-20 
7.38481 -2.60277 7.47681e-21 
7.62142 -2.60311 1.41564e-20 
7.87939 -2.63436 1.10842e-20 
8.08315 -2.53666 8.30118e-21 
8.30401 -2.63128 2.99292e-20 
8.48528 -2.53268 -3.45896e-10 
-8.48527 -2.3462 5.17299e-10 
-8.25529 -2.35638 -1.63334e-20 
-8.01608 -2.34916 -1.39003e-20 
-7.77935 -2.39794 1.66664e-20 
-7.56794 -2.2558 6.85835e-15 
-7.48135 -2.46069 1.02775e-20 
-7.20064 -2.4105 -1.00413e-20 
-6.9685 -2.35415 1.34119e-20 
-6.72357 -2.37252 1.03352e-21 
-6.50217 -2.35248 8.26165e-21 
-6.25306 -2.36906 1.48711e-21 
-6.04139 -2.36469 -4.58785e-14 
-5.8211 -2.3398 -2.57034e-21 
-5.59285 -2.35485 -1.15494e-20 
-5.37544 -2.35914 -1.73931e-20 
-5.14842 -2.36064 -2.11935e-20 
-4.92969 -2.35432 -2.34281e-20 
-4.70141 -2.36138 -1.90702e-20 
-4.47711 -2.37507 2.71958e-20 
-4.25532 -2.37066 1.65199e-19 
-4.04099 -2.35313 3.27204e-19 
-3.82726 -2.3536 1.83843e-19 
-3.61932 -2.35826 -1.51007e-18 
-3.40499 -2.37287 -8.33781e-18 
-3.19363 -2.38224 -2.90318e-17 
-2.9781 -2.36827 -7.99974e-17 
-2.76625 -2.35957 -2.02158e-16 
-2.55325 -2.37894 -5.40755e-16 
-2.33804 -2.3903 -1.3951e-15 
-2.10321 -2.3951 -3.40248e-15 
-1.89911 -2.37909 -6.7436e-15 
-1.67885 -2.30476 -7.56358e-15 
-1.4776 -2.28813 -1.26496e-14 
-1.27935 -2.25252 -1.67196e-14 
-1.06524 -2.35074 -5.77299e-14 
-0.917688 -2.18105 -4.67192e-14 
-0.614273 -2.12284 -1.97976e-14 
-0.426762 -2.28608 -9.05474e-14 
-0.209916 -2.17705 -3.9126e-14 
0.0331266 -1.97971 3.34823e-14 
0.223839 -2.27306 6.18704e-14 
0.456202 -2.16387 3.0315e-14 
0.695561 -2.18492 4.84904e-14 
0.915196 -2.22408 4.07165e-14 
1.11644 -2.24908 2.9307e-14 
1.30839 -2.25939 1.75015e-14 
1.5064 -2.38078 2.10612e-14 
1.69855 -2.35069 9.87995e-15 
1.90632 -2.35162 4.66498e-15 
2.1142 -2.4123 3.17382e-15 
2.32074 -2.38132 1.57708e-15 
2.53569 -2.36863 5.40167e-16 
2.74339 -2.40863 2.39908e-16 
2.96219 -2.38119 1.08778e-16 
3.17652 -2.34709 4.86098e-17 
3.38141 -2.3716 9.01147e-18 
3.58693 -2.36085 3.87881e-18 
3.79904 -2.36168 7.48827e-19 
4.01375 -2.38116 1.81838e-20 
4.22087 -2.3433 -1.20817e-19 
4.43771 -2.3639 -1.72951e-20 
4.6467 -2.34128 1.50656e-20 
4.86286 -2.35899 2.25712e-20 
5.07827 -2.35396 2.0557e-20 
5.29565 -2.36665 1.66296e-20 
5.51312 -2.3549 1.2031e-20 
5.73344 -2.36184 4.954e-21 
5.95269 -2.37725 8.89561e-15 
6.17118 -2.34737 -1.79728e-21 
6.40077 -2.36324 -4.78786e-21 
6.61669 -2.36498 -2.59986e-21 
6.83892 -2.31913 -1.54591e-21 
7.07168 -2.38079 -3.43654e-21 
7.29293 -2.40367 2.40496e-14 
7.55117 -2.37077 -1.12087e-20 
7.79222 -2.41438 1.47833e-14 
8.0002 -2.31664 -4.24906e-21 
8.25842 -2.36422 1.83109e-20 
8.48528 -2.2946 -3.53487e-10 
-8.48528 -2.1109 3.12309e-10 
-8.25576 -2.1091 -9.80716e-21 
-8.04719 -2.11472 6.97437e-21 
-7.80218 -2.15606 -1.18135e-20 
-7.52365 -2.03809 -3.51668e-21 
-7.31532 -2.23489 -2.58122e-14 
-7.07179 -2.145 -3.30221e-21 
-6.80825 -2.14207 -6.44699e-21 
-6.59192 -2.12617 -2.52018e-21 
-6.34766 -2.15144 -4.65914e-21 
-6.12274 -2.11857 -6.35859e-21 
-5.91555 -2.11595 -9.36578e-21 
-5.6841 -2.12516 -1.61723e-20 
-5.4627 -2.12048 -2.07108e-20 
-5.24496 -2.13273 -2.10777e-20 
-5.0269 -2.12188 -1.4449e-20 
-4.80409 -2.13205 1.73624e-21 
-4.5803 -2.13898 3.75291e-20 
-4.36584 -2.14181 1.11342e-19 
-4.15617 -2.12614 2.11615e-19 
-3.94227 -2.11972 3.30851e-19 
-3.73423 -2.11912 2.43982e-19 
-3.52356 -2.13622 -7.59903e-19 
-3.31443 -2.14575 -4.38493e-18 
-3.10574 -2.15241 -1.41383e-17 
-2.89108 -2.13546 -3.09085e-17 
-2.67414 -2.13627 -6.79726e-17 
-2.46651 -2.15136 -1.61643e-16 
-2.24748 -2.17859 -4.6965e-16 
-2.03861 -2.15134 -6.62392e-16 
-1.83332 -2.14056 -1.15682e-15 
-1.60949 -2.06301 -8.20815e-16 
-1.41347 -2.00771 1.12051e-15 
-1.26243 -1.82689 -3.81488e-15 
-1.15635 -2.04277 -7.02858e-15 
-0.860894 -1.96123 -6.13504e-15 
-0.63754 -1.81005 3.37298e-14 
-0.40866 -1.86494 -2.33923e-14 
-0.185979 -1.766 -4.74188e-15 
0.0708728 -1.55524 3.95548e-14 
0.280542 -1.85559 2.44163e-15 
0.34772 -1.48788 5.29981e-15 
0.541664 -1.84681 -5.33686e-14 
0.788366 -1.8939 1.8692e-14 
1.01134 -1.94025 2.17452e-14 
1.2219 -1.97481 2.15084e-15 
1.46726 -2.12753 5.25776e-15 
1.66556 -2.10154 1.28438e-15 
1.86171 -2.12355 5.59626e-16 
2.09087 -2.18548 9.67986e-16 
2.32661 -2.16979 8.275e-17 
2.54107 -2.13606 -9.5488e-18 
2.75708 -2.1776 9.08564e-17 
2.972 -2.14813 1.28281e-17 
3.19325 -2.11895 -4.31654e-18 
3.40584 -2.13106 5.14273e-18 
3.62167 -2.13149 -7.25867e-19 
3.83937 -2.13676 -6.84809e-19 
4.041 -2.13622 -5.46159e-19 
4.26602 -2.11809 -1.70254e-19 
4.47109 -2.12108 -8.4742e-20 
4.6929 -2.11096 -2.21566e-20 
4.90599 -2.1244 7.35755e-21 
5.12602 -2.12255 1.69449e-20 
5.34132 -2.13293 2.12349e-20 
5.56504 -2.12654 1.90508e-20 
5.78635 -2.13349 1.41184e-20 
5.9991 -2.13741 9.52189e-21 
6.2364 -2.12715 6.24132e-21 
6.45238 -2.12019 3.11743e-21 
6.66496 -2.11684 2.47831e-21 
6.92223 -2.11102 -2.07298e-21 
7.1382 -2.14344 5.03634e-21 
7.36861 -2.18489 5.06019e-21 
7.56105 -2.0864 9.48553e-21 
7.75004 -2.17963 4.75211e-15 
7.96388 -2.07932 -2.75699e-21 
8.19877 -2.1441 1.08587e-20 
8.48528 -2.10468 -2.8432e-10 
-8.4853 -1.81619 2.18566e-10 
-8.30542 -1.86851 -1.17046e-20 
-7.89379 -1.91551 8.34622e-21 
-7.67888 -1.90129 -1.96414e-21 
[...]
POINT_DATA 1978 
VECTORS vectors float
-4.23619e-05 -0.000963604 1 
3.87214e-05 -0.00123509 1 
6.76233e-05 -0.00151466 1 
9.66454e-05 -0.00182495 1 
0.000125878 -0.00232184 1 
0.000141538 -0.00281446 0.999998 
0.000151992 -0.00338704 0.999997 
0.000167859 -0.00391245 0.999995 
0.000170098 -0.00453012 0.999993 
0.000176129 -0.00514633 0.99999 
0.000189747 -0.0057732 0.999986 
0.000179622 -0.00653092 0.999981 
0.000160461 -0.00720558 0.999977 
0.000148399 -0.00786933 0.999972 
0.000131277 -0.00857735 0.999966 
9.63412e-05 -0.0092621 0.99996 
2.77641e-05 -0.00990357 0.999954 
-8.93052e-05 -0.0103421 0.999949 
-0.000286207 -0.0104306 0.999948 
-0.000576135 -0.00987066 0.999954 
-0.000953608 -0.00839443 0.999967 
-0.00146479 -0.00572591 0.999985 
-0.00208357 -0.00143366 1 
-0.00294174 0.00476176 0.999987 
-0.00396074 0.0138483 0.999899 
-0.00503304 0.0257719 0.999658 
-0.00652928 0.0411315 0.999136 
-0.00890766 0.0616962 0.998059 
-0.0115918 0.0908071 0.995806 
-0.0149645 0.127486 0.991734 
-0.0166231 0.178866 0.983741 
-0.0188307 0.233182 0.97226 
-0.0209143 0.293386 0.955772 
-0.0184585 0.357719 0.933653 
-0.018907 0.427012 0.904059 
-0.0363419 0.541812 0.839747 
-0.0429125 0.658935 0.751018 
-0.0314086 0.800852 0.598063 
-0.0250014 0.920957 0.388883 
0.00264389 0.999668 -0.0252266 
0.0272413 0.879234 -0.475631 
0.0303503 0.771944 -0.634985 
0.0305007 0.661477 -0.749362 
0.02812 0.554596 -0.831658 
0.0253458 0.462651 -0.886189 
0.0263157 0.382265 -0.923689 
0.026457 0.292485 -0.955917 
0.0197482 0.223685 -0.974471 
0.0140392 0.173806 -0.984687 
0.0129992 0.125911 -0.991962 
0.0119376 0.092226 -0.995671 
0.00896587 0.0632897 -0.997959 
0.00668022 0.0423027 -0.999086 
0.00539538 0.0256304 -0.99966 
0.00388783 0.0134024 -0.999906 
0.00281891 0.00478742 -0.999988 
0.00215703 -0.00179957 -0.999999 
0.00142022 -0.00602324 -0.999984 
0.000915538 -0.0085772 -0.999966 
0.000553492 -0.0099922 -0.999953 
0.000258193 -0.010499 -0.999948 
8.07324e-05 -0.0103835 -0.999949 
-3.59416e-05 -0.00995994 -0.999953 
-0.000106441 -0.00930204 -0.99996 
-0.000141337 -0.008591 -0.999966 
-0.000154712 -0.00785674 -0.999972 
-0.000165911 -0.00716869 -0.999977 
-0.000175326 -0.00646457 -0.999982 
-0.000172028 -0.00576408 -0.999986 
-0.000180137 -0.00514472 -0.99999 
-0.000182498 -0.00445966 -0.999993 
-0.000158086 -0.00386196 -0.999996 
-0.000159401 -0.00335676 -0.999997 
-0.000146881 -0.00275219 -0.999999 
-0.000114214 -0.00229338 -1 
-9.30407e-05 -0.0019158 -1 
-7.06913e-05 -0.00154795 -1 
-3.76632e-05 -0.00134534 -1 
2.02929e-05 -0.00106078 -1 
-0.000283853 -0.00118473 1 
-0.000107427 -0.00134721 1.00001 
-8.86257e-06 -0.00157429 1 
4.62142e-05 -0.00190023 1 
8.74446e-05 -0.00228052 1 
0.000111488 -0.00283274 1 
0.00014172 -0.00335248 1 
0.000149218 -0.00389737 0.999998 
0.000153941 -0.00450509 0.999995 
0.00014771 -0.00508566 0.999993 
0.000100606 -0.00579431 0.999989 
6.22139e-05 -0.0064403 0.999985 
1.04373e-05 -0.00710574 0.99998 
-7.02908e-05 -0.00781964 0.999975 
-0.00018695 -0.00848699 0.99997 
-0.000331099 -0.00910592 0.999964 
-0.000552241 -0.00950954 0.99996 
-0.000806556 -0.00964895 0.999959 
-0.0011868 -0.00921793 0.999962 
-0.00175004 -0.00788225 0.999973 
-0.00249349 -0.00544844 0.999988 
-0.00331784 -0.00176272 0.999998 
-0.00442487 0.00375886 0.999989 
-0.00555032 0.0114452 0.999924 
-0.00738506 0.0225511 0.999724 
-0.00984633 0.037296 0.999261 
-0.01232 0.0562917 0.998344 
-0.0146706 0.0820779 0.996524 
-0.0184407 0.118009 0.992847 
-0.0206078 0.165173 0.986056 
-0.0295281 0.230924 0.972531 
-0.0338738 0.296952 0.954298 
-0.0394319 0.365736 0.92989 
-0.0419028 0.443867 0.895124 
-0.0310988 0.532215 0.846049 
-0.0304356 0.691721 0.721523 
-0.0368227 0.745303 0.665705 
-0.0222798 0.858878 0.511674 
-0.00809957 0.97064 0.240291 
0.000353897 0.999952 0.00575463 
0.0102036 0.96456 -0.263578 
0.0266901 0.869198 -0.493716 
0.0328888 0.749675 -0.660982 
0.0360818 0.63517 -0.771533 
0.0393593 0.527664 -0.848548 
0.0403333 0.432105 -0.900929 
0.0307821 0.340078 -0.939899 
0.0287297 0.258837 -0.9655 
0.0273372 0.198087 -0.979811 
0.0197843 0.146053 -0.989084 
0.0165172 0.101803 -0.994674 
0.0137249 0.070427 -0.997429 
0.00980134 0.0446747 -0.998959 
0.00797552 0.027792 -0.999587 
0.00658866 0.0161543 -0.999853 
0.0047267 0.00648819 -0.999973 
0.00371499 0.000136261 -0.999998 
0.0027331 -0.00437149 -0.999992 
0.00183696 -0.00743744 -0.999976 
0.00142166 -0.00875175 -0.999966 
0.00091428 -0.0095851 -0.999959 
0.00064698 -0.0096321 -0.999959 
0.000391912 -0.00936288 -0.999962 
0.000233118 -0.0088111 -0.999967 
0.000107301 -0.00813464 -0.999972 
2.2367e-05 -0.00742726 -0.999978 
-4.0902e-05 -0.00672929 -0.999983 
-9.23262e-05 -0.00601478 -0.999988 
-0.000140064 -0.00534288 -0.999991 
-0.000138685 -0.00472666 -0.999995 
-0.00016377 -0.00410388 -0.999997 
-0.000175406 -0.00357298 -0.999999 
-0.000113179 -0.00305184 -1 
-0.000110114 -0.00253353 -1 
-8.09142e-05 -0.00212484 -1 
-3.34904e-05 -0.00176004 -1 
9.76373e-06 -0.00156461 -1.00001 
8.23876e-05 -0.00132942 -1 
0.000248525 -0.00127342 -1 
-0.000340578 -0.00146033 1 
-0.000137486 -0.00153182 1 
3.82194e-06 -0.00169925 1 
8.57253e-05 -0.0019466 1.00001 
0.000148816 -0.00226663 1 
0.000140204 -0.00237114 1 
0.000182008 -0.00289989 1 
0.00020995 -0.00336573 1 
0.000215553 -0.00393184 0.999998 
0.000202599 -0.00448266 0.999996 
0.000159518 -0.0051474 0.999992 
9.69906e-05 -0.00577056 0.999989 
7.20855e-06 -0.00644495 0.999985 
-0.000132199 -0.00719608 0.99998 
-0.000302325 -0.00789292 0.999974 
-0.000519355 -0.00853247 0.999969 
-0.000806237 -0.00892406 0.999965 
-0.00117636 -0.00896874 0.999965 
-0.00164823 -0.0084859 0.999968 
-0.00233973 -0.00714097 0.999977 
-0.00327431 -0.0046835 0.999989 
-0.00441635 -0.00107739 0.999995 
-0.00581706 0.00392267 0.999981 
-0.007587 0.0109468 0.999917 
-0.00973065 0.0204924 0.999748 
-0.0126204 0.0341593 0.999342 
-0.0160216 0.052357 0.998505 
-0.0199382 0.0760518 0.99691 
-0.0245787 0.107753 0.993879 
-0.0299687 0.153012 0.987775 
-0.0354278 0.207331 0.977634 
-0.0396689 0.281984 0.958604 
-0.0437957 0.360037 0.931913 
-0.0454944 0.447326 0.893214 
-0.0437801 0.552745 0.832203 
-0.0429269 0.635053 0.771272 
-0.0324997 0.795306 0.605327 
-0.0238896 0.899947 0.435303 
-0.0119885 0.97456 0.223683 
0.00232252 0.999588 -0.0273914 
0.0147924 0.969417 -0.244867 
0.0267814 0.884095 -0.466505 
0.0364271 0.765211 -0.642735 
0.0423575 0.64233 -0.765253 
0.0457414 0.533242 -0.844725 
0.0460563 0.435247 -0.899134 
0.0438028 0.342597 -0.938466 
0.0401068 0.270282 -0.96195 
0.0361301 0.206962 -0.977685 
0.0298288 0.151985 -0.987938 
0.0248544 0.110858 -0.993531 
0.0205935 0.0794478 -0.996632 
0.015997 0.054156 -0.998409 
0.0126512 0.0352518 -0.999304 
0.0102136 0.0221242 -0.999709 
0.00786017 0.0120426 -0.999901 
0.00610485 0.00484923 -0.999975 
0.0045831 -0.000542699 -0.999995 
0.00326807 -0.00457205 -0.99999 
0.00249431 -0.0066253 -0.99998 
0.00171548 -0.00827114 -0.99997 
0.00125872 -0.00884748 -0.999966 
0.000846403 -0.00901443 -0.999965 
0.000570972 -0.00870191 -0.999968 
0.000343519 -0.00814738 -0.999972 
0.000182748 -0.00745239 -0.999978 
4.02958e-05 -0.00673251 -0.999983 
-6.81155e-05 -0.00604464 -0.999987 
-0.000143287 -0.00536814 -0.999991 
-0.000190945 -0.00474305 -0.999994 
-0.000206635 -0.00419114 -0.999997 
-0.000211204 -0.00364946 -0.999999 
-0.000199343 -0.00315257 -1 
-0.000176244 -0.00271161 -1 
-0.000143231 -0.00226256 -1 
-8.0983e-05 -0.00191954 -1 
-1.7874e-05 -0.00172683 -1 
0.000106838 -0.00151968 -1 
0.000265722 -0.00150449 -1 
-0.000244538 -0.00168972 1 
-8.83038e-05 -0.00169963 1 
6.07136e-06 -0.00178509 1 
8.29134e-05 -0.00197675 1 
0.000168017 -0.00235504 1 
0.000179475 -0.00268551 1 
0.000199355 -0.00312911 1 
0.000220539 -0.00368775 0.999999 
0.000214931 -0.00417251 0.999997 
0.000183694 -0.00478526 0.999994 
0.000131367 -0.00537657 0.999991 
4.55074e-05 -0.00599179 0.999988 
-0.000109734 -0.00674726 0.999983 
-0.000304426 -0.00746795 0.999978 
-0.000553815 -0.00810596 0.999973 
-0.000882375 -0.00850896 0.999969 
-0.00129524 -0.0085348 0.999968 
-0.00181701 -0.00796212 0.999972 
-0.0024517 -0.00664504 0.99998 
-0.00325762 -0.00431356 0.999991 
-0.00426356 -0.000798946 0.999996 
-0.00547902 0.0039735 0.999982 
-0.00701577 0.0102099 0.999929 
-0.00891789 0.0185624 0.999793 
-0.0112626 0.02974 0.9995 
-0.0141666 0.0457913 0.998856 
-0.0177043 0.0676566 0.997557 
-0.0217472 0.0952781 0.995218 
-0.0265008 0.132641 0.990815 
-0.0305623 0.179642 0.983262 
-0.0347147 0.23668 0.970972 
-0.0365115 0.310799 0.949778 
-0.0358775 0.387456 0.921193 
-0.0322894 0.468661 0.882789 
-0.0392162 0.512103 0.858029 
-0.0348929 0.660547 0.749969 
-0.0247471 0.785829 0.617935 
-0.0187735 0.898456 0.438617 
-0.0080998 0.976823 0.213762 
0.00220422 0.99645 -0.0837023 
0.0130231 0.956706 -0.29067 
0.0104784 0.92669 -0.375616 
0.0224297 0.838798 -0.543952 
0.0301792 0.711785 -0.70174 
0.0352388 0.592939 -0.804474 
0.0370801 0.485273 -0.873579 
0.0403626 0.368646 -0.928696 
0.0366678 0.292359 -0.955609 
0.0336907 0.228693 -0.97292 
0.0299045 0.163956 -0.98602 
0.0245811 0.116418 -0.992901 
0.0201685 0.0848809 -0.996191 
0.0164422 0.0579024 -0.998193 
0.0131295 0.0392829 -0.999147 
0.010291 0.0253855 -0.999629 
0.00807183 0.0147356 -0.999865 
0.00627055 0.00708983 -0.999961 
0.00477774 0.00120608 -0.999993 
0.00368528 -0.00264938 -0.999995 
0.00274411 -0.00555709 -0.999986 
0.00205818 -0.00730379 -0.999977 
0.00148824 -0.00828296 -0.99997 
0.00103869 -0.00859411 -0.999968 
0.000685796 -0.00837799 -0.99997 
0.000415086 -0.00785496 -0.999975 
0.000200518 -0.00714234 -0.99998 
3.46951e-05 -0.00640797 -0.999985 
-7.97758e-05 -0.00573358 -0.999989 
-0.000163539 -0.00504634 -0.999993 
-0.000211244 -0.00449001 -0.999996 
-0.000227588 -0.00399005 -0.999998 
-0.000223652 -0.00342749 -1 
-0.000205784 -0.00299622 -1 
-0.000174829 -0.00258418 -1 
-0.000153483 -0.00229415 -1 
-0.000102763 -0.00202552 -1 
-5.18754e-05 -0.00183737 -1 
5.06821e-05 -0.00166414 -1.00001 
0.000200506 -0.00164426 -1 
-5.80762e-05 -0.00186159 1 
-1.14557e-05 -0.00181414 1 
0.000117625 -0.00196907 1 
0.000174574 -0.00218371 1 
0.000242628 -0.00251525 1 
0.00021171 -0.00272679 1 
0.000270953 -0.00297018 1 
0.000255538 -0.00335695 1 
0.000272542 -0.00380731 0.999999 
0.000247063 -0.00433229 0.999996 
0.000217603 -0.00485864 0.999994 
0.000164748 -0.00543031 0.999991 
4.1396e-05 -0.00613556 0.999987 
-0.000128376 -0.00687026 0.999982 
-0.000365436 -0.00758019 0.999977 
-0.000675933 -0.00809885 0.999972 
-0.00109895 -0.00829081 0.999971 
-0.00161058 -0.00791379 0.999973 
-0.00220515 -0.00678529 0.99998 
-0.00287026 -0.00482264 0.99999 
-0.00367172 -0.00174178 0.999997 
-0.00460054 0.00255753 0.999991 
-0.00574551 0.00823206 0.999955 
-0.00714943 0.0153788 0.999862 
-0.0089174 0.0248264 0.999657 
-0.0111539 0.0375536 0.999238 
-0.0139889 0.0561486 0.99833 
-0.0172186 0.0804692 0.996614 
-0.0211483 0.112515 0.99343 
-0.0246037 0.152174 0.988053 
-0.0278309 0.205873 0.978188 
-0.0306918 0.26974 0.962447 
-0.0292909 0.342519 0.939058 
-0.0272588 0.456704 0.889203 
-0.0298021 0.598188 0.8008 
-0.0221193 0.733376 0.679455 
-0.0133381 0.888088 0.459433 
-0.00876615 0.919944 0.391903 
-0.00565566 0.980063 0.198457 
-0.00244372 0.996938 0.0777454 
0.0020974 0.98699 -0.160556 
0.0076299 0.895456 -0.445056 
0.0166712 0.815951 -0.577867 
0.0226744 0.676157 -0.736402 
0.0265497 0.560861 -0.827484 
0.0273565 0.465288 -0.884738 
0.0330453 0.399906 -0.915963 
0.0312914 0.322568 -0.946033 
0.0289219 0.250121 -0.967787 
0.0278404 0.190622 -0.981273 
0.0244941 0.140289 -0.989813 
0.020141 0.103281 -0.994454 
0.0161447 0.0692705 -0.997473 
0.0131609 0.0492422 -0.998706 
0.0104386 0.0335008 -0.99939 
0.00818313 0.0212239 -0.999747 
0.00659693 0.0124649 -0.999906 
0.00520707 0.00543692 -0.999977 
0.00411046 0.000570337 -0.999997 
0.00322616 -0.00319599 -0.999995 
0.00245469 -0.00575454 -0.999986 
0.00183596 -0.0073688 -0.999977 
0.00127832 -0.00816368 -0.999971 
0.000851449 -0.00827671 -0.999971 
0.000497102 -0.00789634 -0.999974 
0.0002373 -0.00727779 -0.999979 
3.17178e-05 -0.00651884 -0.999984 
-0.000104886 -0.00579502 -0.999989 
-0.00018738 -0.00515413 -0.999992 
-0.000251399 -0.00454459 -0.999995 
-0.000278413 -0.00404916 -0.999997 
-0.00027516 -0.00359693 -0.999999 
-0.000268475 -0.00310081 -1 
-0.000232585 -0.00271165 -1 
-0.00021422 -0.00237202 -1 
-0.000150538 -0.00206393 -1 
-8.77317e-05 -0.00186056 -1.00001 
2.24118e-05 -0.0017432 -1 
8.96178e-05 -0.00177958 -1 
7.74019e-05 -0.0019269 1 
0.000119285 -0.00189158 1.00001 
7.37061e-05 -0.00186339 1.00001 
0.000178572 -0.00203371 1 
0.000227947 -0.00225105 1 
0.000285337 -0.00276097 1 
0.00029993 -0.0032174 1 
0.000301552 -0.00356103 0.999999 
0.000297194 -0.00409205 0.999997 
0.000276365 -0.00456078 0.999995 
0.000240931 -0.00509315 0.999993 
0.000147772 -0.0058063 0.999989 
4.49892e-06 -0.0065289 0.999984 
-0.000212606 -0.0072719 0.999979 
-0.000523921 -0.0078631 0.999974 
-0.000935941 -0.0080979 0.999972 
-0.00146011 -0.00774237 0.999974 
-0.00204948 -0.00658739 0.999982 
-0.00268656 -0.00449574 0.999992 
-0.00338286 -0.00148445 0.999999 
-0.00416637 0.00280494 0.999993 
-0.00509352 0.00840998 0.999957 
-0.00620252 0.0155132 0.999866 
-0.00759097 0.0244223 0.999678 
-0.00933017 0.0361519 0.999308 
-0.0115179 0.0518009 0.998597 
-0.0141453 0.0743889 0.997135 
-0.0175273 0.104775 0.994347 
-0.0205996 0.142763 0.989548 
-0.0234045 0.191795 0.981161 
-0.0258608 0.25973 0.965341 
-0.0257855 0.356543 0.933926 
-0.0230408 0.441102 0.897166 
-0.0207474 0.571417 0.820398 
-0.0245136 0.56528 0.824534 
-0.0190405 0.711201 0.702723 
-0.0139821 0.801606 0.597674 
-0.00908953 0.862929 0.505214 
-0.00366536 0.979797 0.199813 
-0.000866976 0.998091 -0.0612364 
0.000508218 0.979627 -0.200666 
0.000531467 0.928491 -0.371316 
0.00425197 0.912607 -0.408778 
0.0146501 0.760994 -0.648582 
0.0190957 0.618615 -0.785458 
0.022001 0.505164 -0.862745 
0.0260942 0.382521 -0.923582 
0.026077 0.298771 -0.953972 
0.0246558 0.222988 -0.974514 
0.0235501 0.174202 -0.984433 
0.0207106 0.132927 -0.990915 
0.0164506 0.0885455 -0.995942 
0.0131297 0.0641591 -0.997859 
0.0107116 0.0453831 -0.998918 
0.00854515 0.0308333 -0.999493 
0.00679436 0.0196977 -0.999788 
0.00558527 0.0113859 -0.999925 
0.0045517 0.00539362 -0.99998 
0.0036703 0.000513699 -0.999998 
0.00294274 -0.00313226 -0.999996 
0.00224333 -0.00564536 -0.999987 
0.00164923 -0.00728087 -0.999978 
0.0011238 -0.00797575 -0.999973 
0.000696735 -0.00805202 -0.999973 
0.000354768 -0.00764341 -0.999976 
0.000106921 -0.00698463 -0.999981 
-7.34515e-05 -0.00623602 -0.999986 
-0.000189229 -0.00551879 -0.99999 
-0.000253622 -0.00490565 -0.999994 
-0.000298715 -0.00434716 -0.999996 
-0.000312229 -0.00386649 -0.999998 
-0.000307348 -0.00344485 -0.999999 
-0.000301018 -0.00306019 -1 
-0.000272333 -0.00271648 -1 
-0.000248577 -0.00237835 -1 
-0.000192066 -0.00209799 -1 
-0.000145487 -0.00193472 -1 
-5.87948e-05 -0.00183283 -1 
-2.57534e-05 -0.00186501 -1 
0.000187604 -0.00194493 1 
0.000199483 -0.00194153 1 
0.000172918 -0.00195886 1 
0.000238014 -0.0021675 1 
0.000269308 -0.00244792 1 
0.000302853 -0.0027516 1 
0.000315107 -0.00309049 1 
0.000331594 -0.00347337 1 
0.000329458 -0.00383768 0.999997 
0.000332012 -0.00427669 0.999996 
0.000316361 -0.00473208 0.999994 
0.000261564 -0.00537429 0.999991 
0.000173316 -0.00608098 0.999987 
1.68625e-05 -0.00681723 0.999982 
-0.000224757 -0.00749671 0.999977 
-0.000577783 -0.00790605 0.999974 
-0.00103466 -0.00782671 0.999974 
-0.00156464 -0.00702495 0.999979 
-0.00213284 -0.00535802 0.999989 
-0.00274905 -0.00264032 0.999998 
-0.00340216 0.00105286 0.999999 
-0.00413581 0.00621368 0.999977 
-0.00496672 0.0126979 0.999912 
-0.00602319 0.0209327 0.999768 
-0.00736238 0.031421 0.999485 
-0.00905757 0.0454572 0.998931 
-0.0112273 0.0643881 0.997867 
-0.0142054 0.0938345 0.995492 
-0.0171779 0.130943 0.991247 
-0.0200681 0.177979 0.983835 
-0.0226815 0.239635 0.970603 
-0.0237204 0.318918 0.94749 
-0.0206496 0.429756 0.902712 
-0.0187964 0.536281 0.84383 
-0.0157381 0.681182 0.731939 
-0.00875244 0.786057 0.618082 
-0.0039697 0.899569 0.43674 
0.00100945 0.929638 0.368432 
-0.00290528 0.956291 0.292338 
0.000239781 0.986103 0.166093 
0.000924535 0.958793 -0.284073 
0.000967059 0.837443 -0.546536 
0.00182826 0.846143 -0.532932 
0.00688956 0.77951 -0.626348 
0.0118412 0.733626 -0.679441 
0.0166826 0.572949 -0.81942 
0.0226242 0.408823 -0.912335 
0.0233386 0.314134 -0.949096 
0.0227666 0.244225 -0.969456 
0.0205007 0.175826 -0.984215 
0.0167207 0.135314 -0.990667 
0.0179285 0.122593 -0.9923 
0.0141672 0.0888537 -0.995951 
0.0111357 0.0631926 -0.997945 
0.00904971 0.044622 -0.998969 
0.00718961 0.0296552 -0.99954 
0.0057174 0.018675 -0.999815 
0.00474655 0.0110148 -0.999933 
0.00387844 0.00473829 -0.999987 
0.00311248 -0.000164939 -1 
0.00247209 -0.0036119 -0.999996 
0.00177964 -0.00620561 -0.999985 
0.00124369 -0.00744592 -0.999977 
0.000734998 -0.00793848 -0.999974 
0.000363868 -0.00775819 -0.999975 
8.2185e-05 -0.00716879 -0.99998 
-0.000104744 -0.00644159 -0.999985 
-0.000229178 -0.00567819 -0.999989 
-0.000298475 -0.00499851 -0.999993 
-0.000332378 -0.00445853 -0.999996 
-0.000342383 -0.00394473 -0.999999 
-0.000336792 -0.003503 -1 
-0.000323158 -0.00307231 -1 
-0.000296056 -0.00267514 -1 
-0.00027381 -0.00238961 -1 
-0.000229482 -0.0021498 -1 
-0.000204929 -0.00201384 -1 
-0.00014387 -0.00190614 -1 
-0.000113827 -0.00191507 -1 
0.000253149 -0.001948 1 
0.000242398 -0.00197099 1 
0.000226045 -0.00203144 1 
0.000261233 -0.00220799 1 
0.000278332 -0.00240604 1 
0.00030126 -0.00273668 1 
0.00032684 -0.00313539 1 
0.000335402 -0.00354781 0.999999 
0.00034578 -0.00393781 0.999998 
0.000339696 -0.0043446 0.999997 
0.00032966 -0.00489514 0.999992 
0.000286333 -0.00553691 0.99999 
0.000198919 -0.00625694 0.999987 
3.94867e-05 -0.00702254 0.99998 
-0.000211255 -0.00761588 0.999977 
-0.000564718 -0.00782759 0.999975 
-0.0010117 -0.00748855 0.999976 
-0.0015072 -0.00629657 0.999984 
-0.00205732 -0.00410657 0.999995 
-0.00261278 -0.000798623 1 
-0.00323093 0.0036332 0.999993 
-0.00384124 0.00951121 0.999953 
-0.0046077 0.0170225 0.99985 
-0.00556952 0.0264523 0.999639 
-0.00680282 0.0385039 0.999241 
-0.00842475 0.0550281 0.998455 
-0.0108203 0.0780363 0.996898 
-0.0132619 0.109674 0.993885 
-0.0158028 0.148953 0.988724 
-0.0188284 0.199337 0.979754 
-0.0208027 0.261002 0.965119 
-0.0217504 0.34292 0.939117 
-0.0170165 0.444309 0.895715 
-0.0147365 0.537058 0.843418 
-0.014051 0.667328 0.744627 
-0.00564224 0.768747 0.63952 
-0.0023577 0.850605 0.525802 
0.00349481 0.996185 0.0871766 
0.00350582 0.9989 0.0467243 
0.00236649 0.999966 0.0073846 
0.00255546 0.99959 -0.0285794 
0.00276781 0.999046 -0.0436625 
0.00414667 0.706542 -0.707655 
0.00337251 0.749285 -0.662235 
0.0110502 0.632731 -0.774291 
0.0120899 0.53118 -0.847174 
0.0185792 0.469693 -0.882637 
0.0202758 0.35789 -0.933549 
0.0202822 0.27854 -0.960216 
0.0202323 0.21915 -0.975486 
0.0174799 0.170585 -0.985192 
0.0142122 0.111516 -0.993666 
0.010896 0.0772592 -0.996957 
0.00829568 0.0533089 -0.998551 
0.00680217 0.0367598 -0.999306 
0.00543427 0.0245009 -0.99969 
0.00439553 0.0154351 -0.999877 
0.00373459 0.00853893 -0.999961 
0.00308726 0.00299091 -0.999996 
0.0024745 -0.00124419 -1 
0.00193465 -0.00453434 -0.999992 
0.00133831 -0.00649086 -0.999984 
0.00086065 -0.00760323 -0.999976 
0.000448894 -0.00784393 -0.999975 
0.000139687 -0.00752793 -0.999977 
-7.62222e-05 -0.00688972 -0.999982 
-0.00021593 -0.00613414 -0.999987 
-0.000300324 -0.00538696 -0.999991 
-0.000338851 -0.00478325 -0.999994 
-0.000355263 -0.00425041 -0.999997 
-0.000355781 -0.00381949 -0.999997 
-0.000351365 -0.00345463 -1 
-0.000335126 -0.00312902 -1 
-0.000318355 -0.00279197 -1 
-0.000291319 -0.00249043 -1 
-0.000258957 -0.00220892 -1 
-0.000233252 -0.00203801 -1 
-0.000195592 -0.00194508 -1 
-0.000201263 -0.00194918 -1 
0.000286579 -0.00192428 1 
0.000255261 -0.00196925 1 
0.000248192 -0.0020629 1 