# vtk DataFile Version 3.0 
Exported using Morpho https://github.com/Morpho-lang/morpho 
ASCII 
DATASET UNSTRUCTURED_GRID 

POINTS 1978 float 
-8.48572 -2.82902 2.76568e-08 
-8.26466 -2.82922 5.4052e-08 
-8.04353 -2.82861 3.85121e-08 
-7.79214 -2.82897 3.03484e-08 
-7.51108 -2.82804 5.05579e-08 
-7.23643 -2.82882 1.41784e-08 
-7.01917 -2.82841 3.3567e-08 
-6.77828 -2.8291 3.08703e-08 
-6.56629 -2.8291 4.82034e-10 
-6.35579 -2.82868 -3.00141e-08 
-6.14581 -2.82901 -1.55204e-08 
-5.91205 -2.82922 -2.60713e-10 
-5.7097 -2.8287 -1.75658e-08 
-5.51034 -2.82905 3.34342e-09 
-5.29612 -2.82877 3.41912e-09 
-5.08601 -2.82873 -9.05183e-09 
-4.86892 -2.82885 -3.1585e-08 
-4.65908 -2.82858 -7.43875e-08 
-4.43598 -2.82878 -1.28638e-07 
-4.21056 -2.82882 -1.71454e-07 
-3.99695 -2.829 -1.7577e-07 
-3.79423 -2.82889 -1.7133e-07 
-3.58933 -2.82888 -2.67961e-07 
-3.38853 -2.82892 -4.08843e-07 
-3.17735 -2.82881 -4.70629e-07 
-2.97029 -2.82895 -4.31872e-07 
-2.77295 -2.82874 -1.41548e-07 
-2.57338 -2.82892 8.84073e-07 
-2.36241 -2.82869 3.91581e-06 
-2.1591 -2.82904 1.44858e-05 
-1.94521 -2.8283 3.54024e-05 
-1.7722 -2.82752 7.1423e-05 
-1.59102 -2.82838 0.000110505 
-1.42926 -2.82715 0.000148097 
-1.29398 -2.82771 0.000225412 
-1.15397 -2.82473 0.000573233 
-0.858242 -2.82176 0.0014043 
-0.633005 -2.81871 0.0014177 
-0.392523 -2.8153 0.0015778 
0.0235087 -2.80554 -0.000361534 
0.476388 -2.81381 -0.00153433 
0.684917 -2.82221 -0.00116258 
0.883809 -2.82355 -0.000873418 
1.0647 -2.82587 -0.000671179 
1.23969 -2.82559 -0.000285262 
1.39528 -2.82722 -0.00022521 
1.60305 -2.82826 -0.000147958 
1.79979 -2.82752 -6.17377e-05 
1.9661 -2.82919 -2.4544e-05 
2.12817 -2.829 -1.50531e-05 
2.34473 -2.82848 -6.75147e-06 
2.55753 -2.82869 -5.64194e-07 
2.75701 -2.82849 2.35036e-07 
2.98014 -2.82879 1.85025e-07 
3.19622 -2.82886 6.65226e-07 
3.38823 -2.82887 3.40107e-07 
3.60499 -2.82907 1.85219e-07 
3.81018 -2.82889 2.31803e-07 
4.01456 -2.82881 1.75863e-07 
4.23907 -2.82908 1.62109e-07 
4.43863 -2.8288 1.16589e-07 
4.65738 -2.82882 5.57645e-08 
4.86245 -2.8286 3.49179e-08 
5.07872 -2.82902 2.36398e-09 
5.28997 -2.82866 -6.80814e-10 
5.50675 -2.82886 7.46403e-09 
5.71257 -2.82891 8.04721e-09 
5.9283 -2.82876 6.16929e-09 
6.15028 -2.82895 1.82091e-09 
6.35319 -2.82883 1.67471e-08 
6.58671 -2.82876 -1.35565e-08 
6.80701 -2.82887 -1.70614e-08 
7.00875 -2.82879 -5.76886e-09 
7.27712 -2.82856 -4.63806e-08 
7.51681 -2.82903 -2.49196e-08 
7.75289 -2.82908 -5.54355e-08 
8.02817 -2.82893 -3.55334e-08 
8.2104 -2.82929 -4.597e-08 
8.48547 -2.82863 -1.7337e-08 
-8.48638 -2.58848 -3.67286e-08 
-8.26204 -2.58342 1.77747e-08 
-8.02887 -2.59919 -7.31783e-09 
-7.79059 -2.61535 4.26271e-09 
-7.54174 -2.63686 -3.52961e-08 
-7.25116 -2.63171 1.20048e-08 
-6.98323 -2.58179 -2.11926e-08 
-6.77076 -2.60775 -1.59445e-08 
-6.53365 -2.58165 1.68904e-08 
-6.32062 -2.58279 2.04274e-08 
-6.09178 -2.61272 -1.27487e-08 
-5.88296 -2.58204 1.30409e-08 
-5.67869 -2.57881 2.13344e-08 
-5.46219 -2.59597 8.52444e-09 
-5.24706 -2.58902 -2.49719e-09 
-5.02734 -2.59431 -2.47959e-08 
-4.81192 -2.58402 -5.347e-09 
-4.58904 -2.598 5.24336e-08 
-4.36042 -2.60362 1.36348e-07 
-4.13825 -2.5955 1.67354e-07 
-3.92675 -2.58657 1.11802e-07 
-3.71639 -2.59293 5.69619e-08 
-3.50743 -2.592 6.43982e-08 
-3.29503 -2.60622 8.47213e-08 
-3.07962 -2.6024 -5.80198e-09 
-2.87186 -2.59169 -2.13894e-07 
-2.66815 -2.59544 -9.3164e-07 
-2.45927 -2.61192 -3.23226e-06 
-2.24228 -2.60845 -8.68508e-06 
-2.0283 -2.62147 -1.94215e-05 
-1.81929 -2.56258 -4.24213e-05 
-1.63159 -2.57365 -5.62415e-05 
-1.44846 -2.54036 -8.15241e-05 
-1.27284 -2.46338 -0.000146137 
-1.07015 -2.63652 -0.000324562 
-0.854229 -2.54784 -0.000583623 
-0.710984 -2.40407 -0.000348206 
-0.500681 -2.51557 -0.00105346 
-0.219182 -2.60282 -0.000952428 
-0.000772909 -2.42865 -0.000290781 
0.25722 -2.63193 0.000771082 
0.499367 -2.47639 0.00113203 
0.721863 -2.52358 0.000369892 
0.935708 -2.53188 0.000338559 
1.12836 -2.53211 0.000346839 
1.30134 -2.51177 9.84865e-05 
1.49048 -2.61183 7.44102e-05 
1.6992 -2.60264 7.46836e-05 
1.89385 -2.56357 2.96777e-05 
2.12078 -2.62873 1.39255e-05 
2.34131 -2.61776 5.42097e-06 
2.54382 -2.59384 2.17508e-06 
2.77578 -2.61682 5.86845e-07 
3.0061 -2.61033 4.91903e-07 
3.20849 -2.58075 -2.68228e-07 
3.42961 -2.61042 -2.19774e-07 
3.6429 -2.59599 2.35563e-07 
3.85299 -2.59192 -1.9619e-07 
4.07498 -2.60988 -1.31557e-07 
4.28014 -2.57923 -1.58061e-07 
4.49694 -2.59792 -7.06583e-08 
4.70642 -2.5799 -1.92438e-08 
4.92446 -2.59352 1.06448e-08 
5.14042 -2.59071 1.3098e-08 
5.36083 -2.59736 -6.62903e-09 
5.5751 -2.58627 -1.32224e-08 
5.79188 -2.59861 -1.23429e-08 
6.0176 -2.60349 -7.4235e-10 
6.23238 -2.57793 -1.22407e-08 
6.45404 -2.60717 -5.8438e-09 
6.68432 -2.58929 2.40769e-08 
6.89613 -2.56411 1.49378e-08 
7.12831 -2.62935 -2.34736e-09 
7.38446 -2.60505 2.33846e-08 
7.62372 -2.60328 -1.03983e-08 
7.87993 -2.6357 3.50111e-08 
8.08253 -2.53508 7.92999e-09 
8.30413 -2.63292 -2.58056e-08 
8.48633 -2.53323 3.93234e-08 
-8.48561 -2.34736 -5.87694e-08 
-8.25472 -2.34972 4.1845e-08 
-8.0203 -2.36581 2.24437e-08 
-7.78034 -2.39496 -2.81771e-08 
-7.56192 -2.25548 -6.33896e-09 
-7.48096 -2.4577 7.17274e-09 
-7.19901 -2.42553 1.86856e-08 
-6.9654 -2.33638 -2.62869e-08 
-6.72867 -2.38574 -1.4162e-08 
-6.49647 -2.34339 -5.9252e-09 
-6.25295 -2.3699 1.96153e-08 
-6.04106 -2.36566 -5.27673e-10 
-5.82004 -2.33876 -1.70311e-09 
-5.59187 -2.35597 -1.39173e-09 
-5.37377 -2.35895 -3.94449e-09 
-5.14674 -2.36048 -3.40943e-09 
-4.9273 -2.35205 -5.47319e-09 
-4.69814 -2.35964 1.84762e-09 
-4.47345 -2.37468 5.4526e-09 
-4.25239 -2.37013 8.275e-09 
-4.03815 -2.3528 -1.63034e-08 
-3.8253 -2.35325 -2.29033e-08 
-3.61849 -2.3578 -3.98708e-08 
-3.40529 -2.37143 -8.27455e-08 
-3.19462 -2.38258 -1.34005e-07 
-2.98096 -2.36788 -2.16087e-07 
-2.76798 -2.36096 -2.83871e-07 
-2.55466 -2.3776 -9.40668e-07 
-2.34081 -2.39531 -3.53502e-06 
-2.11236 -2.3996 -1.09937e-05 
-1.90684 -2.37099 -1.29028e-05 
-1.66834 -2.32889 -1.77344e-05 
-1.47415 -2.27719 -4.71824e-05 
-1.29218 -2.1999 -4.04012e-05 
-1.07769 -2.36911 -0.000111891 
-0.93445 -2.21092 -4.85652e-05 
-0.661032 -2.13673 -0.000235961 
-0.41165 -2.24036 -3.78902e-06 
-0.204527 -2.17603 -0.000161953 
0.027346 -2.00134 0.000234273 
0.232522 -2.28618 6.88684e-05 
0.470741 -2.16341 -6.80534e-05 
0.707185 -2.1996 0.000434802 
0.907054 -2.24325 -2.51114e-05 
1.10659 -2.23877 0.000103635 
1.3147 -2.26978 0.000111292 
1.51901 -2.38017 6.54292e-05 
1.71089 -2.36636 -6.04723e-07 
1.91171 -2.32928 1.47279e-05 
2.10464 -2.42437 1.1178e-05 
2.31051 -2.40103 4.15676e-06 
2.53084 -2.35897 2.23611e-07 
2.74237 -2.40281 6.22369e-07 
2.96199 -2.38474 -1.50303e-07 
3.17227 -2.34331 4.54578e-08 
3.38572 -2.38338 4.48178e-07 
3.58469 -2.35875 -2.52007e-07 
3.79376 -2.36004 9.65172e-08 
4.01105 -2.38145 7.43087e-09 
4.21706 -2.34411 1.24613e-08 
4.43542 -2.36051 8.91895e-10 
4.64527 -2.34105 5.64044e-10 
4.86189 -2.35621 8.03811e-10 
5.07756 -2.35356 8.05826e-09 
5.29577 -2.36593 3.67839e-09 
5.51359 -2.35388 3.16649e-09 
5.73415 -2.36206 1.66485e-09 
5.9527 -2.3781 1.84959e-09 
6.17101 -2.34686 -2.12149e-09 
6.39978 -2.36427 -5.05529e-10 
6.61517 -2.36544 3.89799e-10 
6.83837 -2.31746 2.85798e-09 
7.07058 -2.38012 1.60779e-09 
7.29197 -2.40356 -1.20038e-08 
7.54875 -2.37671 2.24769e-08 
7.79678 -2.41391 2.27939e-08 
8.00398 -2.31186 -1.59035e-08 
8.26054 -2.36696 -2.94664e-08 
8.48579 -2.29505 4.01935e-08 
-8.48575 -2.10847 -3.54894e-08 
-8.26191 -2.11262 6.45333e-09 
-8.03384 -2.12527 -6.3748e-09 
-7.79899 -2.16107 9.62033e-09 
-7.52491 -2.03987 1.32264e-08 
-7.307 -2.23955 -8.06829e-09 
-7.07886 -2.14347 1.56568e-08 
-6.79985 -2.14019 2.97227e-09 
-6.59122 -2.13015 1.8208e-09 
-6.34211 -2.14523 3.69319e-09 
-6.12178 -2.12002 1.62499e-09 
-5.91655 -2.11719 5.47115e-10 
-5.68402 -2.12525 3.82829e-09 
-5.46443 -2.122 3.85038e-09 
-5.2458 -2.13169 2.3614e-09 
-5.02874 -2.12131 4.22936e-09 
-4.80439 -2.13019 3.78315e-09 
-4.57986 -2.13737 6.34645e-09 
-4.3653 -2.14031 1.0041e-09 
-4.15571 -2.12551 3.46557e-09 
-3.94156 -2.11911 1.07793e-08 
-3.73272 -2.11782 7.83473e-09 
-3.52166 -2.13618 -9.03178e-09 
-3.31226 -2.1472 -5.24188e-08 
-3.10555 -2.15147 -1.41253e-07 
-2.89029 -2.13675 -3.22517e-07 
-2.67234 -2.13829 -5.50205e-07 
-2.46008 -2.15491 -4.99644e-07 
-2.24069 -2.1836 -1.36909e-07 
-2.03187 -2.15276 -4.25441e-06 
-1.81796 -2.15254 -2.04599e-05 
-1.61285 -2.06612 -5.76517e-05 
-1.43478 -1.98134 -0.000112327 
-1.2514 -1.85458 -0.000102408 
-1.14921 -2.05521 -0.000215914 
-0.886619 -1.96646 -0.000329237 
-0.650533 -1.83262 -0.000328854 
-0.432462 -1.84941 -0.000153195 
-0.191414 -1.76214 -9.01953e-05 
0.0779305 -1.5762 9.32393e-05 
0.275019 -1.88963 0.000459302 
0.372637 -1.54063 9.79701e-05 
0.551876 -1.84072 0.000358335 
0.784942 -1.91091 0.00029106 
1.01829 -1.94497 0.000340587 
1.23214 -2.00202 0.000184524 
1.47109 -2.1254 6.73921e-05 
1.65915 -2.10775 2.74619e-05 
1.85003 -2.11504 2.06495e-05 
2.09461 -2.1886 1.43884e-06 
2.3266 -2.18538 1.52469e-07 
2.53867 -2.1244 1.25765e-06 
2.76099 -2.17804 1.92471e-08 
2.97687 -2.14615 3.70543e-07 
3.205 -2.12049 2.3519e-07 
3.40458 -2.13457 -1.20572e-07 
3.61936 -2.12798 6.1557e-08 
3.83772 -2.13792 -5.52561e-09 
4.03824 -2.13541 1.04163e-09 
4.26401 -2.11913 2.66067e-09 
4.47159 -2.11899 -2.02307e-09 
4.69368 -2.11104 1.97118e-09 
4.90705 -2.12171 -2.28379e-09 
5.12707 -2.12246 -8.14074e-10 
5.34235 -2.13232 -3.8753e-09 
5.5665 -2.12676 -5.68351e-09 
5.78713 -2.13421 -3.83827e-09 
5.99917 -2.13879 -2.72641e-09 
6.23639 -2.12702 -4.63932e-09 
6.45081 -2.12014 -6.27928e-09 
6.66383 -2.11798 -6.94631e-09 
6.92318 -2.10953 1.26403e-08 
7.14015 -2.14365 -9.71291e-09 
7.37166 -2.18573 -1.09323e-08 
7.56041 -2.08373 -1.86576e-08 
7.73986 -2.18573 1.33267e-08 
7.9525 -2.08403 -1.3364e-08 
8.20503 -2.14463 -3.21255e-08 
8.4857 -2.10167 3.22831e-08 
-8.48539 -1.8278 -2.48876e-08 
-8.29302 -1.87011 1.77063e-08 
-7.89695 -1.91493 1.61191e-09 
-7.68091 -1.90428 6.60058e-09 
[...]
POINT_DATA 1978 
VECTORS vectors float
-0.000147573 -0.000927265 1.00023 
8.79668e-05 -0.00116064 1.00023 
0.000235493 -0.00143421 1.00045 
0.000332171 -0.00184178 1.00034 
0.000415904 -0.00235921 1.00035 
0.000464574 -0.00292989 1.00034 
0.000570637 -0.00341935 1.00033 
0.00063144 -0.00409289 1.00033 
0.000668586 -0.00472785 1.00022 
0.000704417 -0.00538956 1.00031 
0.000691662 -0.00609756 1.00031 
0.000639915 -0.00693177 1.0003 
0.000503561 -0.00762009 1.00029 
0.000393502 -0.00825774 1.00029 
0.000343949 -0.00896481 1.00028 
0.000347178 -0.0096897 1.00028 
0.000341576 -0.0105309 1.00027 
0.000173829 -0.0113181 1.00026 
-0.000282382 -0.0119614 1.00025 
-0.00121798 -0.0120932 1.00025 
-0.00264073 -0.0112483 1.00025 
-0.00453308 -0.00914984 1.00026 
-0.00700145 -0.00530386 1.00027 
-0.00996183 0.00045599 1.00026 
-0.0137924 0.00894675 1.00017 
-0.0183393 0.0205372 0.999924 
-0.0236604 0.0349061 0.999412 
-0.0305823 0.0543202 0.998351 
-0.0403085 0.0815924 0.996135 
-0.0533168 0.11786 0.991865 
-0.0692255 0.168826 0.983471 
-0.0820595 0.222963 0.971614 
-0.0918207 0.289819 0.952909 
-0.100616 0.358751 0.928189 
-0.111561 0.422897 0.899335 
-0.121337 0.492752 0.861736 
-0.127795 0.673546 0.728001 
-0.110984 0.803496 0.584679 
-0.0775224 0.913977 0.39827 
0.00830824 0.999523 -0.0171829 
0.0919854 0.877741 -0.470126 
0.114443 0.767521 -0.630563 
0.124542 0.656518 -0.74399 
0.125746 0.551461 -0.824651 
0.116701 0.450941 -0.884994 
0.104453 0.373119 -0.922057 
0.0931522 0.281166 -0.955343 
0.0792522 0.205921 -0.975581 
0.0660024 0.158334 -0.985332 
0.0530316 0.12148 -0.991437 
0.0406203 0.0821104 -0.996074 
0.0299455 0.0550462 -0.998328 
0.0234427 0.0366101 -0.999361 
0.018092 0.0208169 -0.99993 
0.013937 0.00873444 -1.00017 
0.0104834 0.000594796 -1.00025 
0.00699542 -0.00580638 -1.00027 
0.00433105 -0.00945481 -1.00026 
0.00238518 -0.0113692 -1.00024 
0.000988783 -0.0120504 -1.00024 
0.000237523 -0.0119668 -1.00025 
-0.000198893 -0.011361 -1.00026 
-0.000369026 -0.0106024 -1.00027 
-0.000386685 -0.00973268 -1.00027 
-0.000366821 -0.0089456 -1.00028 
-0.000406673 -0.00822117 -1.00029 
-0.00049402 -0.00756678 -1.00029 
-0.000620908 -0.00685304 -1.0003 
-0.000708588 -0.0061053 -1.0003 
-0.000724977 -0.00541513 -1.00031 
-0.000694773 -0.00464427 -1.00032 
-0.000634211 -0.00400425 -1.00033 
-0.000546133 -0.00345737 -1.00033 
-0.000483008 -0.00279703 -1.00034 
-0.000410787 -0.00232839 -1.00034 
-0.000341343 -0.00191477 -1.00034 
-0.00020537 -0.00149322 -1.00034 
-0.000120797 -0.00128964 -1.00034 
9.02465e-05 -0.00101917 -1.00023 
-0.000330452 -0.00116604 1.00023 
-0.000113793 -0.00134506 1.00077 
3.35392e-05 -0.0015845 1.00068 
0.000170575 -0.00190926 1.00056 
0.000244854 -0.00230265 1.00067 
0.000303173 -0.00289613 1.00067 
0.000275244 -0.00353031 1.00066 
0.00033096 -0.0040571 1.00065 
0.000332369 -0.00467504 1.00074 
0.000317927 -0.00532784 1.00063 
0.000328297 -0.00607953 1.00061 
0.000190227 -0.00670049 1.00061 
3.82133e-06 -0.00739345 1.0006 
-0.00010831 -0.00819049 1.0006 
-0.000240864 -0.00894705 1.0006 
-0.000341687 -0.00969146 1.00059 
-0.000527775 -0.0103172 1.00059 
-0.000790191 -0.0107507 1.00059 
-0.00134676 -0.0106619 1.00058 
-0.00231081 -0.00962132 1.00058 
-0.00362731 -0.00743387 1.00059 
-0.00532246 -0.0040316 1.00059 
-0.00748563 0.00129564 1.00058 
-0.0103612 0.00882772 1.00051 
-0.01384 0.019837 1.00031 
-0.0176795 0.0341426 0.999855 
-0.0224755 0.0525124 0.998954 
-0.0291175 0.0774991 0.997143 
-0.0372989 0.113237 0.993422 
-0.0488572 0.159252 0.986552 
-0.0547834 0.221086 0.974198 
-0.0638526 0.286213 0.956466 
-0.0679058 0.362211 0.929964 
-0.0670884 0.446033 0.892735 
-0.092933 0.54809 0.831143 
-0.0778902 0.672237 0.73573 
-0.0541538 0.752511 0.655067 
-0.0529196 0.866133 0.494562 
-0.0267695 0.969415 0.234716 
0.00415784 0.997414 0.0056873 
0.038587 0.960534 -0.266969 
0.0489297 0.865639 -0.495551 
0.0684274 0.750571 -0.656237 
0.078629 0.628089 -0.773832 
0.079222 0.520219 -0.850395 
0.0715191 0.430558 -0.900026 
0.0727705 0.340713 -0.937651 
0.0614549 0.258583 -0.964549 
0.0507482 0.197671 -0.979532 
0.0431989 0.13619 -0.990181 
0.0330915 0.0942724 -0.995643 
0.0250355 0.0661244 -0.998094 
0.0199745 0.0415443 -0.999452 
0.0153189 0.0244677 -1.00029 
0.0117327 0.0136752 -1.00045 
0.00877838 0.00356185 -1.00047 
0.00614394 -0.00253215 -1.00068 
0.00412537 -0.00648046 -1.00058 
0.00251863 -0.00925956 -1.00057 
0.00162192 -0.0102267 -1.00057 
0.000899497 -0.010781 -1.00058 
0.000595945 -0.010582 -1.00058 
0.000357031 -0.0100624 -1.00059 
0.000257795 -0.0093413 -1.00059 
0.000143392 -0.00854587 -1.0006 
5.19145e-05 -0.0077504 -1.0006 
-0.000123285 -0.00700608 -1.00061 
-0.000253495 -0.00628309 -1.00062 
-0.000280059 -0.00560243 -1.00063 
-0.000372646 -0.00495618 -1.00064 
-0.000313745 -0.00428703 -1.00065 
-0.000246874 -0.00371651 -1.00066 
-0.000331746 -0.00314918 -1.00067 
-0.000232961 -0.00259529 -1.00067 
-0.000179107 -0.00216472 -1.00067 
-0.000141394 -0.001778 -1.00056 
1.88222e-05 -0.00156097 -1.00077 
8.44348e-05 -0.00132724 -1.00055 
0.000281232 -0.00128901 -1.00034 
-0.00035897 -0.00149687 1.00045 
-0.000135633 -0.00154015 1.00068 
-2.85275e-05 -0.00170569 1.00059 
6.15799e-05 -0.00196484 1.0008 
0.000134786 -0.00234673 1.00057 
0.000129481 -0.00243707 1.00068 
0.000186334 -0.00297623 1.00068 
0.0002158 -0.00351162 1.00068 
0.000218299 -0.00411748 1.00066 
0.000247127 -0.00469877 1.00065 
0.000258033 -0.00537822 1.00064 
0.000193247 -0.00596368 1.00063 
1.47159e-05 -0.0066536 1.00062 
-0.00014728 -0.00751101 1.00061 
-0.000334065 -0.00834765 1.00061 
-0.000567737 -0.00914392 1.0006 
-0.000844234 -0.00973898 1.0006 
-0.00121896 -0.0100092 1.0006 
-0.00171908 -0.00971268 1.0006 
-0.0024603 -0.00852424 1.0006 
-0.003481 -0.00617388 1.0006 
-0.00476338 -0.00267686 1.00061 
-0.00634173 0.00215279 1.00059 
-0.00844192 0.00896799 1.00053 
-0.0111142 0.0182144 1.00038 
-0.0143817 0.0313018 1.00001 
-0.0184759 0.0487381 0.999242 
-0.0233334 0.0720232 0.997726 
-0.0288066 0.10355 0.994787 
-0.0358003 0.148878 0.988761 
-0.0418799 0.201747 0.979054 
-0.0472922 0.281443 0.958866 
-0.0472815 0.359632 0.932284 
-0.0455313 0.440726 0.896772 
-0.0645713 0.547706 0.834184 
-0.0486394 0.625766 0.778135 
-0.0365844 0.778255 0.625504 
-0.0304337 0.902553 0.425378 
-0.0141403 0.971389 0.226645 
0.000251526 0.996916 -0.022255 
0.0199984 0.96766 -0.242709 
0.0309364 0.878029 -0.474153 
0.0424325 0.756382 -0.65147 
0.0502803 0.647499 -0.759954 
0.0509221 0.536963 -0.842114 
0.0487353 0.43086 -0.901308 
0.0526409 0.338315 -0.939933 
0.0477892 0.265626 -0.963341 
0.0397943 0.202362 -0.978995 
0.0363956 0.149432 -0.988631 
0.0301158 0.109193 -0.994041 
0.0234472 0.0753755 -0.997472 
0.0189739 0.0494884 -0.999307 
0.0149688 0.0324338 -0.999888 
0.011642 0.0205311 -1.00034 
0.00896262 0.00970454 -1.00062 
0.00676629 0.00323989 -1.00049 
0.00492475 -0.00211878 -1.0006 
0.00345072 -0.00611839 -1.00059 
0.00255183 -0.00801307 -1.00059 
0.00175256 -0.00951797 -1.00058 
0.00128466 -0.00997124 -1.00058 
0.0008734 -0.00990543 -1.00059 
0.000619045 -0.00938419 -1.0006 
0.000397362 -0.00864918 -1.0006 
0.000208835 -0.00780731 -1.0006 
2.87222e-05 -0.00697437 -1.00061 
-0.000118149 -0.00624207 -1.00062 
-0.000211149 -0.00555585 -1.00063 
-0.000257995 -0.00495768 -1.00064 
-0.000276844 -0.00440151 -1.00065 
-0.000268843 -0.00382337 -1.00066 
-0.000220969 -0.00327646 -1.00067 
-0.000176119 -0.00279014 -1.00067 
-0.000120208 -0.00231208 -1.00078 
-7.01944e-05 -0.00192494 -1.00067 
-2.39168e-05 -0.00172317 -1.00067 
0.000117448 -0.00152401 -1.00067 
0.000278065 -0.00153237 -1.00034 
-0.000277069 -0.00175605 1.00034 
-0.000100157 -0.00169592 1.00057 
2.26136e-05 -0.00178151 1.0008 
0.000125233 -0.00200957 1.0008 
0.000194685 -0.00242328 1.00068 
0.000224319 -0.00277563 1.00067 
0.000255475 -0.00323314 1.00078 
0.000218675 -0.00386697 1.00066 
0.000204955 -0.00436256 1.00065 
0.000186566 -0.0049709 1.00064 
0.000107205 -0.00552333 1.00063 
-1.37723e-06 -0.00614999 1.00062 
-0.000154798 -0.00700105 1.00061 
-0.000380783 -0.00787227 1.00061 
-0.000651598 -0.00871952 1.0006 
-0.000992345 -0.00936449 1.00059 
-0.00142448 -0.00962828 1.00059 
-0.00196683 -0.00921527 1.00059 
-0.00261313 -0.007971 1.0006 
-0.0034161 -0.00565229 1.0006 
-0.00438807 -0.00212509 1.00061 
-0.00554925 0.00257579 1.00059 
-0.00703337 0.00867518 1.00055 
-0.0089631 0.0170095 1.00042 
-0.0113456 0.0279484 1.00015 
-0.0141894 0.0431529 0.999576 
-0.0179652 0.0633952 0.998436 
-0.0224116 0.0902561 0.996269 
-0.0279252 0.128145 0.991942 
-0.0317181 0.177434 0.984158 
-0.0346283 0.238819 0.970931 
-0.0329856 0.31025 0.950494 
-0.0310331 0.383535 0.923317 
-0.0267039 0.465415 0.88483 
-0.0358444 0.515315 0.856356 
-0.0302739 0.653478 0.755881 
-0.0224021 0.779909 0.623934 
-0.0167085 0.890729 0.450014 
-0.00736491 0.973901 0.215806 
0.00206737 0.993601 -0.0773275 
0.0110034 0.95511 -0.287731 
0.0107608 0.9192 -0.387696 
0.0198984 0.839829 -0.539781 
0.0265422 0.71475 -0.697891 
0.0295449 0.585744 -0.809736 
0.0322821 0.474001 -0.880127 
0.0371961 0.363891 -0.931058 
0.0348907 0.291807 -0.956299 
0.0325307 0.228597 -0.973479 
0.0311831 0.160999 -0.987092 
0.0264903 0.113169 -0.993803 
0.020733 0.0803786 -0.997163 
0.0168785 0.0533433 -0.99906 
0.013157 0.0362753 -0.999886 
0.0101425 0.0227168 -1.00031 
0.00812065 0.0132983 -1.0005 
0.00632349 0.00569601 -1.00058 
0.00487443 -0.000137214 -1.0006 
0.00380473 -0.00395132 -1.00061 
0.0028934 -0.00688067 -1.0006 
0.00219408 -0.00861136 -1.00059 
0.00161548 -0.00949171 -1.00058 
0.00115817 -0.00958586 -1.00058 
0.000802137 -0.00912716 -1.00059 
0.000512519 -0.0083788 -1.0006 
0.000262828 -0.00745863 -1.00061 
7.3917e-05 -0.00659643 -1.00061 
-6.45739e-05 -0.00588965 -1.00062 
-0.000163423 -0.0052093 -1.00063 
-0.000192347 -0.00467789 -1.00065 
-0.000218031 -0.00417855 -1.00065 
-0.000229998 -0.00358709 -1.00066 
-0.000225334 -0.00311915 -1.00067 
-0.000203949 -0.00265292 -1.00057 
-0.00017438 -0.00233358 -1.00067 
-0.000124976 -0.00206403 -1.00067 
-7.04973e-05 -0.00185691 -1.00068 
5.14533e-05 -0.00167135 -1.00068 
0.000228521 -0.00168801 -1.00034 
-4.74318e-05 -0.00188262 1.00035 
-1.31734e-05 -0.00179742 1.00068 
9.32797e-05 -0.0019723 1.00058 
0.000140076 -0.0022065 1.00068 
0.000225672 -0.00256599 1.00078 
0.000209547 -0.00279883 1.00057 
0.000195403 -0.00306098 1.00067 
0.000187148 -0.00350569 1.00066 
0.000182153 -0.00398605 1.00066 
0.00015272 -0.00450687 1.00064 
0.000119627 -0.00500778 1.00063 
7.64127e-05 -0.00554934 1.00063 
-3.68766e-05 -0.00629339 1.00062 
-0.000202067 -0.00716043 1.00061 
-0.000480585 -0.00809751 1.0006 
-0.000821266 -0.00887655 1.00059 
-0.00128145 -0.00935013 1.00059 
-0.00183714 -0.00920864 1.00058 
-0.00247697 -0.00817702 1.00059 
-0.00316384 -0.00618097 1.0006 
-0.00395105 -0.00298552 1.0006 
-0.00482956 0.00140781 1.0006 
-0.00589421 0.00699203 1.00057 
-0.00720037 0.0139072 1.00048 
-0.00887141 0.0231338 1.0003 
-0.0109188 0.0352041 0.999937 
-0.0133604 0.0522025 0.999171 
-0.0163234 0.074928 0.997683 
-0.0203521 0.106776 0.994687 
-0.0243957 0.149104 0.989098 
-0.0266705 0.20479 0.978883 
-0.0274496 0.266514 0.963923 
-0.0283555 0.342599 0.939498 
-0.0266189 0.4559 0.889832 
-0.0243722 0.598303 0.800747 
-0.0204798 0.729931 0.682221 
-0.0135506 0.88862 0.454438 
-0.00972343 0.907892 0.414318 
-0.00559075 0.97659 0.203332 
-0.00277476 0.994193 0.0731014 
0.00346639 0.981871 -0.175747 
0.00783978 0.91012 -0.409902 
0.0170409 0.792026 -0.60789 
0.0222541 0.671715 -0.73983 
0.0254271 0.556434 -0.830365 
0.027253 0.475036 -0.879725 
0.028201 0.401256 -0.915863 
0.0275791 0.319851 -0.947397 
0.0277859 0.249908 -0.968351 
0.0269912 0.188821 -0.98217 
0.0240369 0.135713 -0.99102 
0.019306 0.0981851 -0.995587 
0.0158142 0.0657002 -0.998341 
0.0127938 0.0467519 -0.999459 
0.0102973 0.0313969 -1.00009 
0.00821559 0.0199429 -1.00039 
0.00665176 0.0111612 -1.00053 
0.00531231 0.00413546 -1.00059 
0.00431215 -0.000620031 -1.00061 
0.00349073 -0.00443653 -1.0006 
0.00272075 -0.00710866 -1.00059 
0.00206499 -0.00871625 -1.00058 
0.00146761 -0.0093448 -1.00058 
0.00100928 -0.0092094 -1.00059 
0.000621868 -0.00856557 -1.00059 
0.000345917 -0.00768873 -1.0006 
0.000132213 -0.00671521 -1.00061 
-1.79819e-05 -0.00590575 -1.00062 
-0.000100214 -0.00528428 -1.00063 
-0.000158668 -0.00470804 -1.00064 
-0.000178878 -0.00422728 -1.00065 
-0.0001837 -0.00375559 -1.00066 
-0.000190399 -0.0032161 -1.00077 
-0.000180157 -0.00279551 -1.00067 
-0.000169036 -0.00240918 -1.00067 
-0.000115906 -0.00206481 -1.00068 
-6.32141e-05 -0.00184958 -1.00068 
3.76721e-05 -0.00173179 -1.00068 
9.12059e-05 -0.00178645 -1.00035 
0.000120085 -0.00194513 1.00034 
0.00015702 -0.00191126 1.00067 
6.90517e-05 -0.00185116 1.00069 
0.000205408 -0.00204568 1.00068 
0.000239618 -0.00227817 1.00058 
0.000324988 -0.00283897 1.00067 
0.000333239 -0.00334406 1.00066 
0.000327709 -0.00371968 1.00065 
0.000316195 -0.00427022 1.00065 
0.000308676 -0.00470923 1.00063 
0.000319987 -0.00520332 1.00063 
0.000242151 -0.00593964 1.00062 
0.000122002 -0.00677091 1.00061 
-0.000110105 -0.00774428 1.0006 
-0.000455016 -0.0086325 1.00059 
-0.000943162 -0.00915486 1.00058 
-0.00156595 -0.00904286 1.00058 
-0.00226334 -0.00798698 1.00059 
-0.00299791 -0.00583865 1.00059 
-0.00374563 -0.00263669 1.0006 
-0.00450951 0.00190816 1.0006 
-0.00538791 0.00760491 1.00056 
-0.00647584 0.0146682 1.00048 
-0.00786019 0.0232017 1.00031 
-0.00964237 0.034492 0.999976 
-0.0117704 0.0491088 0.999352 
-0.0144722 0.0702713 0.998059 
-0.0179999 0.0997113 0.995487 
-0.0217417 0.137361 0.990883 
-0.0252397 0.186029 0.982869 
-0.0270108 0.255658 0.966853 
-0.0292741 0.356654 0.934154 
-0.0281066 0.439369 0.89808 
-0.0248065 0.556947 0.830034 
-0.0248671 0.56508 0.824521 
-0.0206446 0.709991 0.703005 
-0.015671 0.786909 0.615161 
-0.00838491 0.870797 0.488568 
-0.00359155 0.980135 0.188019 
-6.09101e-05 0.99619 -0.0487786 
0.000157974 0.981671 -0.176712 
-0.00123493 0.931858 -0.358045 
0.00468768 0.896248 -0.439351 
0.014489 0.772112 -0.634102 
0.0213271 0.616932 -0.786337 
0.0261704 0.490557 -0.87111 
0.0289546 0.376702 -0.926297 
0.0290811 0.29658 -0.955023 
0.0270059 0.221885 -0.97522 
0.0245526 0.168039 -0.985937 
0.0210266 0.126617 -0.992326 
0.0165578 0.0832669 -0.99702 
0.0134045 0.0603043 -0.998733 
0.0109174 0.0426245 -0.999669 
0.00880412 0.0293414 -1.00016 
0.00709158 0.0189083 -1.00041 
0.00586484 0.0105144 -1.00054 
0.00484325 0.00438541 -1.00059 
0.00396553 -0.000661004 -1.0006 
0.00321992 -0.00444081 -1.00059 
0.00245425 -0.00704328 -1.00058 
0.00178172 -0.00864723 -1.00057 
0.00114588 -0.0091889 -1.00058 
0.000664741 -0.00899761 -1.00058 
0.000272686 -0.00831145 -1.00059 
2.5251e-05 -0.0073779 -1.00061 
-0.000167865 -0.00642001 -1.00062 
-0.000271487 -0.00560375 -1.00062 
-0.000307281 -0.00500856 -1.00063 
-0.00036509 -0.00449347 -1.00064 
-0.000364336 -0.00404234 -1.00065 
-0.000322679 -0.00359975 -1.00055 
-0.00035692 -0.00318197 -1.00066 
-0.000286993 -0.00280186 -1.00067 
-0.000281044 -0.00243558 -1.00068 
-0.000201195 -0.00211945 -1.00068 
-0.000176315 -0.00193518 -1.00068 
-7.31999e-05 -0.00181975 -1.00068 
-4.57432e-05 -0.00188354 -1.00034 
0.000206267 -0.00201165 1.00034 
0.000249565 -0.00199395 1.00067 
0.000220037 -0.00197543 1.00069 
0.000322004 -0.00220159 1.00079 
0.00035264 -0.00250549 1.00068 
0.000427229 -0.00283891 1.00067 
0.000450572 -0.0032171 1.00055 
0.000486472 -0.00364163 1.00075 
0.000468218 -0.00400654 1.00054 
0.000481808 -0.0044407 1.00064 
0.000479951 -0.00483894 1.00063 
0.000458758 -0.00545016 1.00062 
0.000395305 -0.00622811 1.00061 
0.000261221 -0.00714009 1.00061 
5.65696e-06 -0.00809905 1.00059 
-0.000383804 -0.00885826 1.00058 
-0.000933086 -0.0090893 1.00057 
-0.00158604 -0.00849334 1.00057 
-0.00228634 -0.00685034 1.00058 
-0.00302978 -0.00396453 1.00059 
-0.00373573 4.31771e-06 1.00059 
-0.00442976 0.00539302 1.00058 
-0.00520301 0.0119724 1.00052 
-0.00619202 0.0202338 1.00039 
-0.00757182 0.0302754 1.00013 
-0.00935019 0.0433721 0.999652 
-0.0116804 0.060544 0.99875 
-0.0151507 0.0878087 0.996683 
-0.0191661 0.125058 0.992611 
-0.0230796 0.171729 0.985484 
-0.026835 0.236739 0.971749 
-0.028198 0.320674 0.947227 
-0.0249842 0.427936 0.903746 
-0.0214802 0.533718 0.845412 
-0.0189763 0.682629 0.730073 
-0.00846639 0.785118 0.617632 
-0.00466281 0.879093 0.474308 
0.000193696 0.930131 0.362777 
-0.00330248 0.959894 0.274353 
-0.000646097 0.990869 0.122426 
-0.00411702 0.969208 -0.232957 
-0.00685672 0.809519 -0.581488 
0.000629393 0.851005 -0.523137 
0.00708556 0.767068 -0.640241 
0.01243 0.729866 -0.682548 
0.019412 0.567102 -0.823324 
0.0275984 0.403122 -0.91509 
0.0283439 0.323381 -0.946291 
0.0277582 0.243471 -0.969932 
0.0239128 0.175717 -0.984927 
0.0194241 0.137187 -0.990776 
0.019497 0.118363 -0.993409 
0.0154113 0.0854609 -0.996881 
0.0117127 0.060879 -0.998731 
0.00934138 0.0428851 -0.999682 
0.00736122 0.0283667 -1.0002 
0.00591161 0.0180913 -1.00044 
0.00498175 0.0105015 -1.00055 
0.00417755 0.00386155 -1.00059 
0.00342151 -0.00134272 -1.0006 
0.00271099 -0.00497291 -1.00059 
0.00185489 -0.00766713 -1.00058 
0.00118975 -0.0088148 -1.00058 
0.000577111 -0.00903269 -1.00058 
0.000147788 -0.00854506 -1.00059 
-0.000156431 -0.00764629 -1.0006 
-0.000336301 -0.00667516 -1.00061 
-0.000434944 -0.00575967 -1.00062 
-0.000471609 -0.00507014 -1.00063 
-0.000496109 -0.00458179 -1.00064 
-0.000496464 -0.00410359 -1.00075 
-0.000479972 -0.00367658 -1.00065 
-0.000465209 -0.00320338 -1.00066 
-0.000410684 -0.00275794 -1.00067 
-0.000382324 -0.00245545 -1.00067 
-0.000314273 -0.0021962 -1.00068 
-0.000280386 -0.00204756 -1.00068 
-0.000195698 -0.00192773 -1.00068 
-0.000143775 -0.0019707 -1.00034 
0.000275437 -0.00203275 1.00033 
0.000274329 -0.00201728 1.00066 
0.00029783 -0.00208441 1.00069 
0.000322569 -0.00228405 1.00067 
0.000373755 -0.00247819 1.00067 
0.000387781 -0.00283929 1.00066 
0.000432524 -0.00328956 1.00066 
0.000430052 -0.00374409 1.00065 
0.00046847 -0.00411827 1.00064 
0.000439889 -0.00447631 1.00064 
0.000455975 -0.00497123 1.00062 
0.000434799 -0.00560315 1.00061 
0.000368835 -0.0064415 1.00071 
0.000253104 -0.00742633 1.0006 
4.36237e-06 -0.008378 1.00049 
-0.000396547 -0.00889488 1.00067 
-0.000930534 -0.00880467 1.00048 
-0.00153852 -0.00777328 1.00057 
-0.0022236 -0.00555734 1.00058 
-0.00287743 -0.0020112 1.00068 
-0.00351813 0.00272699 1.0005 
-0.0040427 0.00880073 1.00065 
-0.00470131 0.0163396 1.00046 
-0.00557534 0.0258652 1.00027 
-0.00679992 0.0374661 0.999809 
-0.00843459 0.052711 0.999225 
-0.0111728 0.0744333 0.997827 
-0.0144517 0.106487 0.994874 
-0.0176315 0.146558 0.989682 
-0.0218378 0.201977 0.979727 
-0.024673 0.264043 0.964701 
-0.0260735 0.337662 0.941301 
-0.0187839 0.432781 0.901548 
-0.016654 0.541936 0.840272 
-0.0144041 0.667026 0.744366 
-0.0040974 0.777168 0.628074 
-0.000808976 0.868567 0.491617 
0.00262277 0.996569 0.0807748 
0.00215288 0.99817 0.0523712 
0.00605526 0.99932 0.0151191 
-0.00118283 1.00051 -0.0139552 
0.00487944 0.999038 -0.0435778 
-0.0056909 0.739133 -0.672023 
0.00495228 0.723499 -0.689799 
0.0126894 0.629079 -0.77686 
0.0140383 0.534892 -0.844617 
0.0213807 0.471098 -0.882103 
0.0245178 0.360803 -0.932539 
0.0241219 0.269384 -0.9632 
0.023062 0.205505 -0.979081 
0.0192329 0.165632 -0.986624 
0.0147189 0.101754 -0.995458 
0.0108708 0.0717656 -0.998125 
0.00822338 0.0502815 -0.999249 
0.0067407 0.0352781 -0.999989 
0.00544705 0.0238819 -1.00032 
0.00453609 0.0151894 -1.00048 
0.00395396 0.0079735 -1.00065 
0.0033638 0.00198332 -1.0005 
0.00270806 -0.0026226 -1.00068 
0.00207536 -0.00599321 -1.00049 
0.00135144 -0.00792537 -1.00066 
0.000757545 -0.00888629 -1.00057 
0.000269026 -0.00884719 -1.00058 
-7.50837e-05 -0.00821663 -1.00059 
-0.000280971 -0.00729094 -1.0006 
-0.000395924 -0.00631059 -1.00061 
-0.000444966 -0.00545177 -1.00062 
-0.00045709 -0.00485704 -1.00063 
-0.000475552 -0.0043828 -1.00063 
-0.000464172 -0.00398693 -1.00054 