# vtk DataFile Version 3.0 
Exported using Morpho https://github.com/Morpho-lang/morpho 
ASCII 
DATASET UNSTRUCTURED_GRID 

POINTS 2054 float 
-8.48528 -2.82843 0 
-8.20636 -2.82843 0 
-7.94054 -2.82843 0 
-7.6904 -2.82843 0 
-7.45357 -2.82843 0 
-7.22694 -2.82843 0 
-7.00705 -2.82843 0 
-6.79111 -2.82843 0 
-6.57731 -2.82843 0 
-6.36453 -2.82843 0 
-6.15219 -2.82843 0 
-5.94 -2.82843 0 
-5.72786 -2.82843 0 
-5.51573 -2.82843 0 
-5.3036 -2.82843 0 
-5.09147 -2.82843 0 
-4.87933 -2.82843 0 
-4.6672 -2.82843 0 
-4.45507 -2.82843 0 
-4.24294 -2.82843 0 
-4.03081 -2.82843 0 
-3.81867 -2.82843 0 
-3.60654 -2.82843 0 
-3.39441 -2.82843 0 
-3.18228 -2.82843 0 
-2.97015 -2.82843 0 
-2.75801 -2.82843 0 
-2.54588 -2.82843 0 
-2.33375 -2.82843 0 
-2.12162 -2.82843 0 
-1.90949 -2.82843 0 
-1.69735 -2.82843 0 
-1.48522 -2.82843 0 
-1.27309 -2.82843 0 
-1.06096 -2.82843 0 
-0.848825 -2.82843 0 
-0.636693 -2.82843 0 
-0.424561 -2.82843 0 
-0.212429 -2.82843 0 
-0.000296761 -2.82843 0 
0.211835 -2.82843 0 
0.423967 -2.82843 0 
0.636099 -2.82843 0 
0.848231 -2.82843 0 
1.06036 -2.82843 0 
1.2725 -2.82843 0 
1.48463 -2.82843 0 
1.69676 -2.82843 0 
1.90889 -2.82843 0 
2.12102 -2.82843 0 
2.33316 -2.82843 0 
2.54529 -2.82843 0 
2.75742 -2.82843 0 
2.96955 -2.82843 0 
3.18168 -2.82843 0 
3.39382 -2.82843 0 
3.60595 -2.82843 0 
3.81808 -2.82843 0 
4.03021 -2.82843 0 
4.24234 -2.82843 0 
4.45448 -2.82843 0 
4.66661 -2.82843 0 
4.87874 -2.82843 0 
5.09087 -2.82843 0 
5.303 -2.82843 0 
5.51514 -2.82843 0 
5.72727 -2.82843 0 
5.93941 -2.82843 0 
6.15159 -2.82843 0 
6.36393 -2.82843 0 
6.57672 -2.82843 0 
6.79055 -2.82843 0 
7.00652 -2.82843 0 
7.22647 -2.82843 0 
7.45313 -2.82843 0 
7.69005 -2.82843 0 
7.9403 -2.82843 0 
8.20621 -2.82843 0 
8.48528 -2.82843 0 
-8.48528 -2.5495 0 
-8.30526 -2.64845 0 
-8.07062 -2.59995 0 
-7.83904 -2.59637 0 
-7.59595 -2.59733 0 
-7.36578 -2.59177 0 
-7.13796 -2.5933 0 
-6.90908 -2.59428 0 
-6.68421 -2.5916 0 
-6.46568 -2.58832 0 
-6.24926 -2.58859 0 
-6.03358 -2.58941 0 
-5.81848 -2.59013 0 
-5.60402 -2.59075 0 
-5.39005 -2.59135 0 
-5.17642 -2.59186 0 
-4.96311 -2.59223 0 
-4.75009 -2.59242 0 
-4.53736 -2.59244 0 
-4.32497 -2.59236 0 
-4.1128 -2.59242 0 
-3.90059 -2.59259 0 
-3.68835 -2.5926 0 
-3.47627 -2.59248 0 
-3.26428 -2.59251 0 
-3.05216 -2.59271 0 
-2.83986 -2.59283 0 
-2.62755 -2.59274 0 
-2.41539 -2.59253 0 
-2.20336 -2.59238 0 
-1.99135 -2.59238 0 
-1.77924 -2.59246 0 
-1.56704 -2.59244 0 
-1.35495 -2.59215 0 
-1.14319 -2.59183 0 
-0.931581 -2.59195 0 
-0.719663 -2.59256 0 
-0.507197 -2.59324 0 
-0.294425 -2.59354 0 
-0.0817689 -2.59344 0 
0.130587 -2.59325 0 
0.342804 -2.59322 0 
0.555051 -2.59322 0 
0.767233 -2.59303 0 
0.97919 -2.59278 0 
1.19107 -2.59278 0 
1.40311 -2.59289 0 
1.61524 -2.59286 0 
1.82732 -2.59279 0 
2.03943 -2.59281 0 
2.25163 -2.5928 0 
2.46381 -2.59266 0 
2.67591 -2.59254 0 
2.88801 -2.59237 0 
3.10001 -2.59226 0 
3.31203 -2.59216 0 
3.52402 -2.59207 0 
3.73601 -2.59208 0 
3.94815 -2.59221 0 
4.16052 -2.5923 0 
4.37309 -2.59232 0 
4.58593 -2.59227 0 
4.79921 -2.5922 0 
5.01319 -2.59212 0 
5.22833 -2.5921 0 
5.44534 -2.59239 0 
5.6657 -2.59346 0 
5.89185 -2.59569 0 
6.12685 -2.59429 0 
6.36853 -2.59189 0 
6.6108 -2.57787 0 
6.84491 -2.61411 0 
7.08804 -2.58476 0 
7.34858 -2.60369 0 
7.58803 -2.59327 0 
7.83059 -2.59326 0 
8.06387 -2.59199 0 
8.30038 -2.64348 0 
8.48528 -2.54936 0 
-8.48528 -2.28369 0 
-8.25701 -2.4138 0 
-8.01078 -2.35334 0 
-7.73666 -2.37963 0 
-7.49744 -2.35565 0 
-7.26898 -2.35831 0 
-7.03324 -2.36676 0 
-6.7997 -2.36275 0 
-6.5773 -2.35166 0 
-6.35808 -2.3495 0 
-6.14038 -2.35058 0 
-5.92336 -2.35185 0 
-5.70723 -2.35272 0 
-5.49199 -2.35362 0 
-5.27734 -2.35447 0 
-5.0632 -2.35505 0 
-4.84958 -2.35534 0 
-4.63641 -2.35533 0 
-4.42363 -2.35504 0 
-4.21126 -2.35485 0 
-3.99909 -2.35513 0 
-3.78684 -2.3554 0 
-3.57461 -2.35516 0 
-3.36263 -2.35498 0 
-3.15066 -2.35537 0 
-2.93843 -2.35586 0 
-2.72604 -2.35589 0 
-2.51374 -2.35551 0 
-2.30162 -2.35509 0 
-2.08964 -2.35496 0 
-1.87761 -2.35518 0 
-1.66544 -2.3554 0 
-1.45322 -2.35518 0 
-1.2412 -2.35438 0 
-1.02967 -2.35407 0 
-0.818162 -2.35505 0 
-0.606054 -2.35676 0 
-0.393243 -2.3579 0 
-0.180256 -2.35789 0 
0.0323765 -2.35727 0 
0.244686 -2.35692 0 
0.456926 -2.35692 0 
0.669206 -2.35667 0 
0.881318 -2.35598 0 
1.09315 -2.35559 0 
1.305 -2.35583 0 
1.51709 -2.35595 0 
1.72919 -2.35571 0 
1.9412 -2.35566 0 
2.15334 -2.3558 0 
2.36559 -2.3556 0 
2.57772 -2.35522 0 
2.78976 -2.35507 0 
3.0019 -2.35461 0 
3.21373 -2.35451 0 
3.42571 -2.35439 0 
3.63769 -2.35431 0 
3.84965 -2.35453 0 
4.06183 -2.35491 0 
4.27435 -2.35507 0 
4.48707 -2.35507 0 
4.70017 -2.35506 0 
4.91376 -2.35498 0 
5.12819 -2.35502 0 
5.34378 -2.35528 0 
5.56106 -2.35662 0 
5.78097 -2.35971 0 
6.00401 -2.36251 0 
6.2308 -2.3624 0 
6.45748 -2.35551 0 
6.68075 -2.33423 0 
6.88797 -2.39744 0 
7.05313 -2.27289 0 
7.24377 -2.40237 0 
7.48542 -2.36016 0 
7.73055 -2.36599 0 
7.99177 -2.33552 0 
8.24864 -2.40698 0 
8.48528 -2.28345 0 
-8.48528 -2.03355 0 
-8.25312 -2.18214 0 
-8.03669 -2.07913 0 
-7.83956 -2.18231 0 
-7.6106 -2.12852 0 
-7.38852 -2.10959 0 
-7.16268 -2.14097 0 
-6.9229 -2.1435 0 
-6.70119 -2.12055 0 
-6.48111 -2.11285 0 
-6.26282 -2.11284 0 
-6.045 -2.1151 0 
-5.82775 -2.11658 0 
-5.61153 -2.11776 0 
-5.3962 -2.1192 0 
-5.18144 -2.1203 0 
-4.96732 -2.12084 0 
-4.75387 -2.12105 0 
-4.54086 -2.12091 0 
-4.32822 -2.12045 0 
-4.11596 -2.12045 0 
-3.90382 -2.12107 0 
-3.69156 -2.12116 0 
-3.47938 -2.12058 0 
-3.26746 -2.12068 0 
-3.05542 -2.12154 0 
-2.84307 -2.12198 0 
-2.63064 -2.12162 0 
-2.41836 -2.12087 0 
-2.20626 -2.12031 0 
-1.99426 -2.12034 0 
-1.78217 -2.1207 0 
-1.56989 -2.12074 0 
-1.35755 -2.11993 0 
-1.14542 -2.11838 0 
-0.934012 -2.11859 0 
-0.722404 -2.12089 0 
-0.509943 -2.12344 0 
-0.296911 -2.12431 0 
-0.0840921 -2.12359 0 
0.128295 -2.12281 0 
0.340414 -2.12274 0 
0.552564 -2.12288 0 
0.76478 -2.12226 0 
0.976792 -2.1213 0 
1.18855 -2.12128 0 
1.40042 -2.12188 0 
1.61256 -2.12177 0 
1.82458 -2.12141 0 
2.03655 -2.12164 0 
2.24875 -2.12174 0 
2.46099 -2.12114 0 
2.67302 -2.12065 0 
2.88504 -2.12054 0 
3.09728 -2.1194 0 
3.30873 -2.11968 0 
3.52086 -2.1195 0 
3.7329 -2.11938 0 
3.94484 -2.11986 0 
4.15715 -2.12044 0 
4.36983 -2.12035 0 
4.58282 -2.1204 0 
4.79606 -2.12017 0 
5.01004 -2.12012 0 
5.22483 -2.12002 0 
5.44073 -2.12051 0 
5.6582 -2.123 0 
5.8782 -2.12696 0 
6.10217 -2.12971 0 
6.33095 -2.12707 0 
6.567 -2.11601 0 
6.82301 -2.12303 0 
7.06572 -2.04567 0 
7.29733 -2.17484 0 
7.54632 -2.11408 0 
7.79371 -2.13741 0 
8.02274 -2.07453 0 
8.25027 -2.1738 0 
8.48528 -2.0332 0 
-8.48528 -1.79671 0 
-8.25436 -1.93882 0 
-8.01299 -1.83977 0 
-7.78596 -1.953 0 
-7.5297 -1.87194 0 
-7.2756 -1.88722 0 
-7.05707 -1.93544 0 
-6.84369 -1.89677 0 
-6.62219 -1.88079 0 
-6.40169 -1.87606 0 
-6.18206 -1.87854 0 
-5.96274 -1.881 0 
-5.74458 -1.88208 0 
-5.52796 -1.88344 0 
-5.31232 -1.88506 0 
-5.09736 -1.88569 0 
-4.88338 -1.88564 0 
-4.67019 -1.88555 0 
-4.45737 -1.88507 0 
-4.24485 -1.88447 0 
-4.03271 -1.88482 0 
-3.82061 -1.88562 0 
-3.60832 -1.88529 0 
-3.39617 -1.88464 0 
-3.18427 -1.88547 0 
-2.97209 -1.88672 0 
-2.7596 -1.88684 0 
-2.54714 -1.88601 0 
-2.33483 -1.88505 0 
-2.12268 -1.8846 0 
-1.91058 -1.885 0 
-1.69824 -1.88561 0 
-1.48561 -1.88547 0 
-1.27286 -1.88413 0 
-1.06032 -1.88216 0 
-0.848858 -1.8839 0 
-0.636875 -1.88781 0 
-0.424169 -1.89034 0 
-0.211518 -1.89004 0 
0.000731944 -1.88866 0 
0.21257 -1.88788 0 
0.424308 -1.88807 0 
0.636257 -1.88793 0 
0.848362 -1.88664 0 
1.06025 -1.88556 0 
1.27191 -1.88605 0 
1.48381 -1.88664 0 
1.69595 -1.886 0 
1.90782 -1.88577 0 
2.11974 -1.88637 0 
2.33202 -1.88609 0 
2.54419 -1.88502 0 
2.75607 -1.88472 0 
2.96812 -1.88462 0 
3.18055 -1.88217 0 
3.39117 -1.88415 0 
3.60398 -1.8838 0 
3.81618 -1.88366 0 
4.02827 -1.88469 0 
4.24071 -1.88523 0 
4.4544 -1.88509 0 
4.66716 -1.88476 0 
4.88099 -1.88493 0 
5.09545 -1.88466 0 
5.31057 -1.88453 0 
5.52653 -1.88564 0 
5.7436 -1.88981 0 
5.96352 -1.89563 0 
6.18733 -1.89813 0 
6.41543 -1.89522 0 
6.65059 -1.89622 0 
6.87542 -1.86913 0 
7.11122 -1.81621 0 
7.31223 -1.94975 0 
7.53264 -1.87683 0 
7.77077 -1.89068 0 
8.01717 -1.8297 0 
8.25014 -1.93148 0 
8.48528 -1.79628 0 
-8.48528 -1.57009 0 
-8.24868 -1.70836 0 
-8.015 -1.61096 0 
-7.76734 -1.73071 0 
-7.54593 -1.61782 0 
-7.32306 -1.66278 0 
-7.05152 -1.7082 0 
-6.79786 -1.66675 0 
-6.56099 -1.64764 0 
-6.33267 -1.64541 0 
-6.10856 -1.64921 0 
-5.88638 -1.65073 0 
-5.66697 -1.65153 0 
-5.44986 -1.65353 0 
-5.23379 -1.65525 0 
-5.01882 -1.6551 0 
-4.80519 -1.6548 0 
-4.59235 -1.65478 0 
-4.37976 -1.65422 0 
-4.16737 -1.65386 0 
-3.95537 -1.65471 0 
-3.74326 -1.6554 0 
-3.5309 -1.65455 0 
-3.31876 -1.65426 0 
-3.10682 -1.65593 0 
-2.89443 -1.65705 0 
-2.68177 -1.65644 0 
-2.46924 -1.65516 0 
-2.25682 -1.65408 0 
-2.04447 -1.65386 0 
-1.83202 -1.65455 0 
-1.61911 -1.65506 0 
-1.40572 -1.65429 0 
-1.19212 -1.65207 0 
-0.97885 -1.64982 0 
-0.767325 -1.65372 0 
-0.555434 -1.6581 0 
-0.343588 -1.65935 0 
-0.132061 -1.65818 0 
0.0792288 -1.65687 0 
0.290417 -1.65682 0 
0.501823 -1.6575 0 
0.713729 -1.65709 0 
0.925861 -1.65545 0 
1.13768 -1.65488 0 
1.34929 -1.65604 0 
1.56128 -1.6563 0 
1.77337 -1.65516 0 
1.985 -1.65561 0 
2.19698 -1.65642 0 
2.40939 -1.65525 0 
2.62143 -1.65394 0 
2.83323 -1.65414 0 
3.04553 -1.65355 0 
3.25842 -1.64868 0 
3.46746 -1.65522 0 
3.68272 -1.65284 0 
3.89574 -1.65288 0 
4.10731 -1.65378 0 
4.32287 -1.65565 0 
4.53627 -1.65249 0 
4.74932 -1.65397 0 
4.96428 -1.65355 0 
5.17935 -1.65257 0 
5.3944 -1.65202 0 
5.60927 -1.65354 0 
5.82513 -1.66019 0 
6.04295 -1.66711 0 
6.26383 -1.66843 0 
6.48537 -1.66776 0 
6.70098 -1.65646 0 
6.91299 -1.6206 0 
7.11709 -1.6046 0 
7.3526 -1.69716 0 
7.60698 -1.65764 0 
7.8325 -1.64214 0 
8.05985 -1.58842 0 
8.2608 -1.69223 0 
8.48528 -1.56961 0 
-8.48528 -1.35019 0 
-8.24958 -1.48044 0 
-8.0219 -1.3751 0 
-7.79713 -1.50391 0 
-7.58956 -1.39834 0 
-7.36199 -1.38754 0 
-7.16079 -1.49923 0 
-6.93764 -1.46284 0 
[...]
POINT_DATA 2054 
VECTORS vectors float
0.0177441 -0.0240787 0.999565 
0.0204286 -0.025462 0.999481 
0.0208283 -0.0295527 0.999367 
0.0203064 -0.0265579 0.999449 
0.0204652 -0.023056 0.999528 
0.0205605 -0.0200498 0.99959 
0.020564 -0.0176116 0.999636 
0.020507 -0.0150774 0.999679 
0.020469 -0.0122922 0.999718 
0.0204678 -0.00938967 0.99975 
0.0204908 -0.00654545 0.999772 
0.0205178 -0.00385509 0.999785 
0.0205352 -0.00130284 0.999791 
0.020538 0.00120158 0.999791 
0.020525 0.00377326 0.999785 
0.0204944 0.00653847 0.999772 
0.0204447 0.00963736 0.999748 
0.0203734 0.0132249 0.999708 
0.0202767 0.017482 0.999645 
0.02015 0.0226246 0.999544 
0.0199872 0.0289116 0.999385 
0.0197803 0.0366557 0.999136 
0.0195194 0.0462363 0.998743 
0.0191919 0.0581187 0.998129 
0.0187821 0.0728728 0.997168 
0.0182701 0.0911962 0.995669 
0.0176309 0.11394 0.993335 
0.0168346 0.142128 0.98971 
0.0158461 0.176977 0.984092 
0.0146257 0.219893 0.97542 
0.0131328 0.272427 0.962092 
0.0113352 0.336152 0.941745 
0.00922801 0.412357 0.910981 
0.0068638 0.501511 0.86513 
0.00439034 0.602334 0.798237 
0.00207571 0.710572 0.703626 
0.000281519 0.817823 0.575473 
-0.000662117 0.911387 0.411551 
-0.000664757 0.976316 0.216342 
-3.17736e-05 0.999996 0.00246447 
0.000611225 0.977343 -0.211657 
0.000633259 0.9132 -0.407512 
-0.000282838 0.820061 -0.572278 
-0.00205636 0.712897 -0.70127 
-0.00436011 0.604513 -0.796588 
-0.00683074 0.503413 -0.864024 
-0.00919677 0.413948 -0.91026 
-0.011308 0.337444 -0.941283 
-0.0131102 0.27346 -0.9618 
-0.0146075 0.220705 -0.975236 
-0.0158316 0.177609 -0.983979 
-0.0168228 0.142618 -0.989639 
-0.0176213 0.11432 -0.993292 
-0.0182623 0.0914909 -0.995643 
-0.018776 0.0731014 -0.997152 
-0.019187 0.0582963 -0.998119 
-0.0195152 0.0463759 -0.998737 
-0.0197767 0.0367669 -0.999132 
-0.019984 0.0290019 -0.999383 
-0.0201471 0.0226991 -0.999543 
-0.0202736 0.0175445 -0.999644 
-0.0203696 0.0132783 -0.999707 
-0.0204397 0.00968359 -0.999747 
-0.0204877 0.00657894 -0.999772 
-0.0205151 0.00380783 -0.999785 
-0.0205242 0.00123028 -0.999792 
-0.0205175 -0.00127154 -0.999792 
-0.0204976 -0.00381905 -0.999786 
-0.0204685 -0.00650627 -0.999772 
-0.0204621 -0.00936356 -0.999751 
-0.0204562 -0.0121766 -0.99972 
-0.0204825 -0.0149066 -0.999682 
-0.0206003 -0.0173635 -0.99964 
-0.0205655 -0.0197711 -0.999596 
-0.0204681 -0.0227991 -0.999535 
-0.020293 -0.0262971 -0.999457 
-0.0208358 -0.0292069 -0.999376 
-0.0204277 -0.0250924 -0.999491 
-0.017754 -0.024092 -0.999564 
0.00388661 -0.0273753 0.999634 
0.0112654 -0.0241135 0.999644 
0.0126468 -0.0259268 0.99959 
0.0148497 -0.0272432 0.999523 
0.0159609 -0.0247789 0.99957 
0.0165026 -0.0216023 0.999636 
0.0170161 -0.0187565 0.999684 
0.0173333 -0.01604 0.999726 
0.0175085 -0.0132708 0.999764 
0.017664 -0.0104982 0.999794 
0.0178151 -0.00772986 0.999817 
0.0179274 -0.0050133 0.999832 
0.0180044 -0.00239362 0.99984 
0.0180504 0.00015549 0.999842 
0.0180652 0.00272502 0.999839 
0.0180475 0.00543624 0.999828 
0.0179969 0.0084244 0.999808 
0.0179122 0.01184 0.999775 
0.01779 0.0158548 0.999721 
0.0176251 0.0206683 0.999636 
0.0174119 0.0265218 0.999502 
0.0171434 0.0337123 0.99929 
0.0168104 0.0425949 0.998957 
0.0164028 0.0535926 0.998434 
0.0159093 0.0672333 0.997616 
0.0153158 0.0841795 0.996339 
0.0146057 0.105235 0.994346 
0.0137623 0.131347 0.991247 
0.0127698 0.163636 0.986444 
0.011614 0.203423 0.979028 
0.0102863 0.252214 0.967623 
0.00878984 0.311604 0.950178 
0.00714991 0.383016 0.92372 
0.00542601 0.467199 0.884142 
0.00372076 0.563499 0.826114 
0.00216924 0.669013 0.743252 
0.000916688 0.777396 0.629015 
8.38961e-05 0.877796 0.479036 
-0.000293725 0.955588 0.294704 
-0.000321041 0.996311 0.0858001 
-0.00022815 0.991437 -0.130581 
-0.0002844 0.942156 -0.335175 
-0.000700174 0.858622 -0.51261 
-0.00156057 0.755528 -0.655118 
-0.00281925 0.646868 -0.762602 
-0.00435191 0.542659 -0.839948 
-0.00601436 0.448565 -0.893736 
-0.0076774 0.366996 -0.930197 
-0.00924986 0.298179 -0.954472 
-0.010681 0.241093 -0.970449 
-0.0119481 0.19426 -0.980883 
-0.013048 0.156142 -0.987655 
-0.0139913 0.125273 -0.99203 
-0.0147919 0.100341 -0.994849 
-0.0154668 0.0802508 -0.996661 
-0.0160321 0.0640685 -0.997822 
-0.0165011 0.0510382 -0.998566 
-0.0168871 0.0405363 -0.999041 
-0.0172012 0.0320504 -0.999344 
-0.0174525 0.0251674 -0.999536 
-0.017649 0.0195515 -0.999659 
-0.0177971 0.0149224 -0.999736 
-0.0179002 0.0110459 -0.999784 
-0.0179597 0.0077242 -0.999814 
-0.0179736 0.00478563 -0.999832 
-0.0179358 0.0020753 -0.999842 
-0.017844 -0.000555078 -0.999846 
-0.0177254 -0.0032493 -0.999843 
-0.0176151 -0.00612398 -0.999832 
-0.0174886 -0.00914749 -0.999809 
-0.0172817 -0.0121838 -0.99978 
-0.0172625 -0.0151522 -0.999743 
-0.0170205 -0.0178893 -0.999698 
-0.0166174 -0.0211228 -0.999643 
-0.0157825 -0.024358 -0.999584 
-0.0146891 -0.0267912 -0.999538 
-0.012426 -0.0255386 -0.999603 
-0.0111516 -0.0240152 -0.999648 
-0.00386851 -0.0273323 -0.999635 
0.00471845 -0.027326 0.999633 
0.00790114 -0.0234469 0.9997 
0.0123088 -0.0256919 0.999603 
0.0155149 -0.0263287 0.999541 
0.0169924 -0.023254 0.999594 
0.0179783 -0.0201918 0.999643 
0.0185877 -0.0172626 0.999687 
0.0190546 -0.014373 0.999723 
0.0194924 -0.0116573 0.99975 
0.0198056 -0.009009 0.999771 
0.0200288 -0.00634002 0.999787 
0.020192 -0.00368267 0.999797 
0.0203066 -0.001083 0.999801 
0.0203688 0.00149617 0.999799 
0.0203796 0.00415855 0.999792 
0.0203424 0.00703359 0.999776 
0.0202564 0.0102647 0.99975 
0.020119 0.0140148 0.999707 
0.019926 0.0184725 0.999639 
0.0196676 0.023857 0.99953 
0.0193326 0.0304369 0.999358 
0.0189173 0.0385453 0.999086 
0.0184168 0.0485762 0.998658 
0.0178142 0.0609976 0.997987 
0.0170912 0.0764096 0.996938 
0.0162375 0.095562 0.995299 
0.0152443 0.119339 0.992745 
0.0140995 0.148773 0.988779 
0.0127925 0.185083 0.982648 
0.0113213 0.229674 0.973211 
0.00969817 0.284111 0.958751 
0.00795746 0.349921 0.936754 
0.00616163 0.42822 0.903662 
0.00440287 0.519072 0.854727 
0.002795 0.620593 0.784135 
0.00144758 0.728249 0.685317 
0.000444519 0.833559 0.552433 
-0.000185143 0.923523 0.383544 
-0.000494395 0.982858 0.184358 
-0.00061731 0.999523 -0.0308134 
-0.000734043 0.970056 -0.242876 
-0.00102424 0.900897 -0.434034 
-0.00162172 0.805281 -0.592896 
-0.0025801 0.698033 -0.716067 
-0.00386871 0.591169 -0.806546 
-0.00540137 0.49217 -0.87049 
-0.00706941 0.404727 -0.914419 
-0.00876493 0.330021 -0.943942 
-0.0104015 0.26756 -0.963494 
-0.0119246 0.21601 -0.976327 
-0.0133066 0.173866 -0.984688 
-0.014535 0.139654 -0.990102 
-0.0156089 0.111984 -0.993596 
-0.0165404 0.0896434 -0.995845 
-0.0173361 0.0716614 -0.997287 
-0.0180115 0.0571648 -0.99821 
-0.018578 0.0454828 -0.9988 
-0.0190441 0.0360562 -0.999176 
-0.0194208 0.028421 -0.999415 
-0.0197216 0.0222045 -0.999567 
-0.0199536 0.0171061 -0.999662 
-0.0201205 0.0128696 -0.999723 
-0.020225 0.00928227 -0.99976 
-0.0202661 0.00615951 -0.999784 
-0.0202411 0.00334291 -0.999798 
-0.020132 0.000687239 -0.999805 
-0.0199213 -0.00194093 -0.999808 
-0.0196408 -0.00462716 -0.999805 
-0.0193826 -0.00738159 -0.999794 
-0.0192489 -0.0101096 -0.999772 
-0.0192045 -0.0127771 -0.999745 
-0.0184255 -0.0153424 -0.99972 
-0.0189678 -0.0172523 -0.999679 
-0.0175 -0.0197187 -0.999664 
-0.0167531 -0.0228134 -0.999609 
-0.0152761 -0.0258136 -0.999559 
-0.0122822 -0.0253417 -0.999612 
-0.00785019 -0.0232374 -0.999706 
-0.00463859 -0.0272778 -0.999634 
0.00366126 -0.0268817 0.999644 
0.00774788 -0.0233274 0.999702 
0.011356 -0.0254172 0.999622 
0.0148778 -0.0269671 0.999535 
0.0162708 -0.024819 0.999566 
0.0173286 -0.0216768 0.999622 
0.0185062 -0.0187416 0.999659 
0.0191366 -0.0156962 0.9997 
0.0193916 -0.0129572 0.999735 
0.0196916 -0.0104028 0.999759 
0.0199939 -0.00784602 0.999776 
0.0202465 -0.00520524 0.999788 
0.020426 -0.00255861 0.999795 
0.0205376 5.11816e-05 0.999796 
0.0205894 0.00268368 0.999791 
0.0205816 0.00545707 0.99978 
0.0205134 0.00850685 0.99976 
0.0203834 0.0119843 0.999727 
0.020188 0.0160669 0.999674 
0.019923 0.0209582 0.999588 
0.019587 0.0268957 0.999453 
0.0191722 0.0341756 0.999239 
0.0186609 0.0431645 0.998901 
0.0180428 0.0542897 0.998369 
0.0173166 0.0680651 0.997538 
0.0164701 0.0851618 0.996238 
0.0154829 0.106401 0.99421 
0.0143443 0.132732 0.991056 
0.0130535 0.165261 0.986171 
0.0116168 0.205285 0.978641 
0.0100478 0.254269 0.967089 
0.00836879 0.313777 0.949468 
0.00662181 0.385212 0.922812 
0.00487795 0.46931 0.883028 
0.00323475 0.56538 0.824831 
0.00180399 0.670184 0.742199 
0.00066072 0.777714 0.628623 
-0.000150127 0.877573 0.479446 
-0.000632606 0.955252 0.295789 
-0.000860896 0.996159 0.0875386 
-0.000971179 0.991743 -0.12823 
-0.00112827 0.943181 -0.332275 
-0.00148435 0.860533 -0.509396 
-0.00213988 0.758277 -0.651934 
-0.00312111 0.650293 -0.759683 
-0.00439064 0.546576 -0.837405 
-0.00587132 0.45268 -0.891662 
-0.00746454 0.370971 -0.928623 
-0.00907799 0.301862 -0.953317 
-0.0106456 0.244405 -0.969623 
-0.0121181 0.197136 -0.980309 
-0.0134623 0.15859 -0.98726 
-0.0146693 0.12735 -0.991757 
-0.0157397 0.102087 -0.994658 
-0.0166695 0.0816864 -0.996526 
-0.01748 0.0652945 -0.99772 
-0.0181704 0.0520404 -0.998487 
-0.0187527 0.0413545 -0.998975 
-0.019239 0.0327211 -0.999286 
-0.0196355 0.0257068 -0.999483 
-0.0199464 0.0199748 -0.999608 
-0.0201857 0.0152463 -0.999687 
-0.0203553 0.0112896 -0.999736 
-0.0204618 0.00789802 -0.999766 
-0.0205067 0.00490222 -0.999784 
-0.0204981 0.00215134 -0.999794 
-0.0204412 -0.000492391 -0.999798 
-0.0203172 -0.00314539 -0.999795 
-0.0201068 -0.00585891 -0.999787 
-0.019804 -0.00858191 -0.999774 
-0.0194213 -0.0112907 -0.999754 
-0.0189651 -0.0142698 -0.999724 
-0.0179511 -0.0173154 -0.999696 
-0.0180452 -0.0202875 -0.999639 
-0.0163107 -0.0236136 -0.999593 
-0.0146853 -0.0262804 -0.999557 
-0.0112846 -0.0251313 -0.999631 
-0.00758567 -0.023077 -0.99971 
-0.00362767 -0.0268509 -0.999645 
0.00277858 -0.0265732 0.999654 
0.00657004 -0.0234787 0.999708 
0.00946229 -0.0259225 0.999629 
0.0132035 -0.026754 0.999561 
0.0139108 -0.0236393 0.99963 
0.0153815 -0.020159 0.999686 
0.0167656 -0.0173475 0.999718 
0.0167584 -0.0145701 0.99976 
0.0170292 -0.011972 0.999791 
0.0173782 -0.00950786 0.999811 
0.0177232 -0.00693515 0.999826 
0.0179799 -0.00425547 0.999837 
0.0181415 -0.00158293 0.999841 
0.0182376 0.00106426 0.99984 
0.0182754 0.00377534 0.999833 
0.0182437 0.00668035 0.999818 
0.0181454 0.00991824 0.999793 
0.0179853 0.0136517 0.999752 
0.0177554 0.0180734 0.999686 
0.0174539 0.023401 0.999581 
0.0170867 0.0298887 0.999414 
0.0166395 0.0378613 0.999152 
0.016086 0.0477188 0.998739 
0.0154283 0.0599171 0.998092 
0.0146791 0.0750154 0.997082 
0.0138167 0.0937584 0.995507 
0.0128191 0.117025 0.993054 
0.0116892 0.145812 0.989251 
0.0104402 0.181303 0.98338 
0.00908847 0.224852 0.974359 
0.00765441 0.277958 0.960571 
0.00616166 0.342178 0.939623 
0.00465223 0.418734 0.908105 
0.00319258 0.507914 0.86141 
0.00186539 0.608175 0.793808 
0.000758365 0.714789 0.699346 
-9.69942e-05 0.82044 0.571736 
-0.000681253 0.912871 0.408248 
-0.00101109 0.97692 0.213599 
-0.00115697 0.999998 0.00073557 
-0.00123373 0.977311 -0.211799 
-0.00137324 0.913908 -0.40592 
-0.00169111 0.822081 -0.569372 
-0.00225643 0.716432 -0.697659 
-0.00308267 0.609505 -0.792783 
-0.00414176 0.509478 -0.860481 
-0.00537288 0.420393 -0.907334 
-0.00669647 0.343717 -0.939058 
-0.00804946 0.279335 -0.960168 
-0.00938422 0.225995 -0.974092 
-0.0106499 0.182197 -0.983213 
-0.0118173 0.146553 -0.98914 
-0.0128862 0.117688 -0.992975 
-0.0138474 0.0943291 -0.995452 
-0.0146733 0.0754546 -0.997049 
-0.015433 0.0603406 -0.998066 
-0.0160681 0.0480283 -0.998724 
-0.0166044 0.0381156 -0.999143 
-0.0170611 0.0300924 -0.999409 
-0.0174274 0.0235584 -0.999578 
-0.0177115 0.0181777 -0.999685 
-0.017923 0.013741 -0.999752 
-0.0180766 0.00998454 -0.999794 
-0.0181632 0.00673099 -0.99982 
-0.0181901 0.0038169 -0.999834 
-0.018173 0.00109717 -0.999841 
-0.0181333 -0.00155609 -0.999842 
-0.0180433 -0.00424414 -0.999835 
-0.0178338 -0.00696287 -0.999824 
-0.0174728 -0.00960997 -0.999809 
-0.017037 -0.0122162 -0.999788 
-0.0162379 -0.0148696 -0.999765 
-0.0150466 -0.0179353 -0.999733 
-0.0159545 -0.0205126 -0.99967 
-0.0139451 -0.0236608 -0.999634 
-0.0124279 -0.0263397 -0.99958 
-0.00918206 -0.0255108 -0.999642 
-0.00646891 -0.0232243 -0.999715 
-0.00275862 -0.0265649 -0.999654 
0.00203596 -0.0264757 0.999658 
0.00514136 -0.023508 0.999716 
0.00747741 -0.026191 0.999638 
0.0108402 -0.0267727 0.99959 
0.0110976 -0.0240941 0.999656 
0.0125916 -0.0208526 0.999711 
0.013989 -0.0171634 0.99976 
0.0141924 -0.0139674 0.999809 
0.014532 -0.011328 0.999837 
0.0149304 -0.00879722 0.999857 
0.0152726 -0.00612108 0.999872 
0.0154949 -0.00336982 0.999881 
0.0156335 -0.000657438 0.999884 
0.0157194 0.00204292 0.999881 
0.0157414 0.00485113 0.999871 
0.0156843 0.0079013 0.999853 
0.0155671 0.0113387 0.999821 
0.015392 0.0153406 0.999771 
0.0151465 0.0201134 0.99969 
0.0148341 0.0258891 0.999562 
0.0144596 0.0329386 0.99936 
0.0140013 0.0416199 0.999042 
0.0134387 0.0523623 0.998545 
0.0127894 0.0656475 0.997768 
0.0120613 0.082087 0.99656 
0.0112234 0.1025 0.994677 
0.010267 0.12781 0.991753 
0.00920954 0.159063 0.987233 
0.00806774 0.197515 0.980275 
0.00686035 0.244582 0.969612 
0.00560697 0.301799 0.953363 
0.00432938 0.370694 0.928753 
0.00306687 0.452267 0.891886 
0.00187725 0.546245 0.837631 
0.000827009 0.650014 0.759928 
-1.85884e-05 0.757121 0.65328 
-0.000652576 0.858886 0.51217 
-0.00106163 0.941623 0.336666 
-0.00126631 0.990925 0.134404 
-0.00133204 0.996831 -0.0795189 
-0.00135877 0.958157 -0.286239 
-0.00145598 0.882948 -0.469471 
-0.00171298 0.784711 -0.619864 
-0.00217793 0.677592 -0.735441 
-0.00285739 0.57271 -0.81976 
-0.00372689 0.476603 -0.879118 
-0.00473416 0.392095 -0.919921 
-0.00581805 0.32002 -0.947401 
-0.00693957 0.25986 -0.965629 
-0.00805626 0.210108 -0.977653 
-0.0091189 0.169326 -0.985526 
-0.010113 0.136205 -0.990637 
-0.0110392 0.109381 -0.993946 
-0.0118725 0.0876453 -0.996088 
-0.012575 0.0700694 -0.99747 
-0.0132871 0.0560987 -0.998344 
-0.013833 0.0445111 -0.99892 
-0.0143106 0.0352442 -0.999283 
-0.0147085 0.0277774 -0.999513 
-0.0150479 0.0215792 -0.999661 
-0.0152596 0.0165422 -0.999754 
-0.0154577 0.0123479 -0.999811 
-0.015577 0.00875407 -0.999847 
-0.0156346 0.00561147 -0.999869 
-0.0156412 0.00276137 -0.999881 
-0.0156142 6.59012e-05 -0.999885 
-0.0155844 -0.002603 -0.999882 
-0.015486 -0.00530576 -0.999873 
-0.0152348 -0.00798643 -0.999859 
-0.0148569 -0.0104903 -0.999842 
-0.0142828 -0.0128474 -0.999823 
-0.0133998 -0.0153987 -0.999798 
-0.0127106 -0.0181421 -0.999763 
-0.012774 -0.0211569 -0.9997 
-0.011088 -0.0248969 -0.999636 
-0.00940726 -0.027055 -0.999597 
-0.00671551 -0.0252809 -0.999671 
-0.00485584 -0.0235584 -0.999715 
-0.00202898 -0.0265077 -0.999658 
0.00157915 -0.0264571 0.99966 
0.00394648 -0.0236951 0.999717 
0.00583223 -0.0263732 0.999645 
0.00857843 -0.0272412 0.999598 
0.00888609 -0.0249683 0.999658 
0.00968102 -0.0214951 0.999727 
0.0114711 -0.0187174 0.999769 
0.0116961 -0.0157262 0.999815 
0.0119017 -0.0130342 0.999852 
0.0122606 -0.0105721 0.999876 
0.0126411 -0.00800987 0.999895 
0.012941 -0.0052615 0.999909 
0.0131092 -0.00246721 0.999918 
0.0132198 0.000265429 0.999919 
0.0132893 0.00302103 0.999914 
0.0132795 0.00592727 0.999901 
0.0131956 0.00912675 0.999878 
0.0130661 0.0127681 0.99984 
0.0128846 0.0170401 0.999779 
0.0126386 0.0221742 0.999681 
0.0123317 0.028405 0.999527 
0.0119685 0.0360267 0.999286 
0.0115209 0.0454281 0.998908 
0.0109806 0.0570665 0.998317 
0.0103741 0.0714455 0.997398 
0.00969696 0.0892357 0.995971 
0.00891658 0.111326 0.993751 
0.0080399 0.138677 0.990313 
0.00709159 0.172387 0.985012 
0.00608852 0.213786 0.97687 
0.00504911 0.264341 0.964424 
0.00398964 0.325596 0.945509 
0.00292699 0.398986 0.91696 
0.00189542 0.485158 0.874432 
0.000942557 0.583072 0.812427 
0.000121433 0.688805 0.724953 
-0.000522997 0.794325 0.607498 
-0.000988778 0.890246 0.455481 
-0.00126155 0.962582 0.270985 
-0.0013652 0.997973 0.0636009 
-0.00136319 0.988707 -0.149849 
-0.00134589 0.936615 -0.350358 
-0.00140493 0.852081 -0.523411 
-0.00160811 0.749331 -0.662199 
-0.00198748 0.641926 -0.766771 
-0.00254344 0.539602 -0.841924 
-0.00325209 0.447383 -0.894345 
-0.00406791 0.367138 -0.930166 
-0.0049491 0.299231 -0.954176 
-0.00587412 0.242826 -0.97006 
-0.00679756 0.196195 -0.980549 
-0.00767712 0.158019 -0.987414 
-0.00851504 0.127097 -0.991861 
-0.00930592 0.102031 -0.994745 
-0.0100087 0.0816508 -0.996618 
-0.01058 0.065133 -0.997828 
-0.011291 0.0522527 -0.998577 
-0.0117255 0.0410236 -0.999096 
-0.0120891 0.0325658 -0.999404 
-0.0125147 0.025333 -0.999608 
-0.0127138 0.0196009 -0.999734 
-0.0128931 0.0148592 -0.999813 
-0.0130778 0.0109052 -0.999862 
-0.0131475 0.00743901 -0.999893 
-0.0131639 0.0043925 -0.999911 
-0.0131389 0.0016135 -0.999919 
-0.0131324 -0.00108483 -0.99992 
-0.0131177 -0.0037626 -0.999914 
-0.0130325 -0.00646854 -0.999901 
-0.0127438 -0.00908735 -0.999884 
-0.012284 -0.0114779 -0.999866 
-0.0115896 -0.0139304 -0.999843 
-0.0106021 -0.0169127 -0.999806 
-0.0108384 -0.020082 -0.999748 
-0.00989593 -0.023073 -0.999692 
-0.00833436 -0.0264681 -0.999622 
-0.00671517 -0.0272148 -0.999615 
-0.0037953 -0.023669 -0.999715 
-0.00155876 -0.0265142 -0.999658 
0.00129091 -0.0264566 0.99966 
0.00306733 -0.0238639 0.999716 
0.00460124 -0.0266439 0.999644 
0.00676904 -0.0274412 0.999607 
0.00731477 -0.0243445 0.999684 
0.00770718 -0.0208984 0.99976 
0.00937318 -0.0181541 0.999799 
0.0095515 -0.0150951 0.999848 
0.00986691 -0.0124411 0.999881 
0.010234 -0.00993793 0.999905 
0.0105992 -0.00725566 0.999924 
0.0108549 -0.00440679 0.999938 
0.0109628 -0.00158424 0.999945 
0.0110658 0.00116555 0.999945 
0.0111129 0.00396491 0.999937 
0.0110832 0.00697299 0.999921 
0.0109895 0.0103247 0.999893 
0.0108631 0.0141534 0.999848 
0.010696 0.0187082 0.999775 
0.0104603 0.0242053 0.999659 
0.0101751 0.0308907 0.999478 
0.00983609 0.03908 0.999195 
0.00941687 0.0491976 0.998752 
0.00892348 0.0617018 0.998062 
0.00837995 0.0771288 0.996993 
0.00776751 0.096224 0.995337 
0.00706242 0.119929 0.992765 
0.00628562 0.149184 0.988797 
0.00546195 0.185107 0.982711 
0.00460584 0.229053 0.973411 
0.00373416 0.282409 0.959295 
0.00286002 0.346564 0.93803 
0.00199777 0.422723 0.906265 
0.00117642 0.511015 0.859578 
0.000429766 0.609969 0.792432 
-0.000207302 0.715387 0.698734 
-0.000706901 0.819248 0.573443 
-0.0010563 0.911298 0.411747 
-0.00124052 0.976027 0.21764 
-0.0012843 0.999991 0.00370613 
-0.00124975 0.977573 -0.210591 
-0.00121896 0.913884 -0.405974 
-0.00126662 0.821673 -0.569961 
-0.0014416 0.715737 -0.698374 
-0.00176399 0.609 -0.793175 
-0.00222977 0.509613 -0.860408 
-0.00281596 0.421128 -0.907005 
-0.00348564 0.344783 -0.938684 
-0.00421319 0.280684 -0.959799 
-0.00498411 0.227632 -0.973743 
-0.00575062 0.183621 -0.982988 
-0.00647933 0.147682 -0.989021 
-0.00718728 0.118744 -0.992906 
-0.0078602 0.0951223 -0.995442 
-0.00844633 0.0756919 -0.997103 
-0.00888666 0.0598812 -0.998171 
-0.0097197 0.0480521 -0.998807 
-0.00977082 0.0377494 -0.999244 
-0.0103436 0.0292447 -0.999526 
-0.0105 0.0227643 -0.999693 
-0.0106712 0.0174219 -0.999798 
-0.0107971 0.0130063 -0.999864 
-0.0109984 0.00930405 -0.999903 
-0.0109843 0.00587809 -0.999929 
-0.0109024 0.00297342 -0.999943 
-0.0109019 0.000195591 -0.999947 
-0.0108484 -0.00250004 -0.999945 
-0.0108237 -0.00512735 -0.999935 
-0.0107213 -0.00764866 -0.999922 
-0.0103779 -0.010031 -0.999902 
-0.00996032 -0.0123342 -0.999881 
-0.00932836 -0.0148533 -0.999853 
-0.00845416 -0.0178679 -0.999812 
-0.00887176 -0.0205158 -0.999757 
-0.00762065 -0.0240483 -0.99969 
-0.00609375 -0.0271264 -0.999618 
-0.00464406 -0.0258015 -0.999665 
-0.00267709 -0.0237096 -0.999722 
-0.00126371 -0.0263591 -0.999662 
0.00106872 -0.026454 0.999661 
0.00244898 -0.0239478 0.999716 
0.00366764 -0.0269068 0.99964 
0.0054513 -0.0274076 0.999616 
0.00585539 -0.0243885 0.999693 
0.00613336 -0.0211642 0.999764 