# vtk DataFile Version 3.0 
Exported using Morpho https://github.com/Morpho-lang/morpho 
ASCII 
DATASET UNSTRUCTURED_GRID 

POINTS 2054 float 
-8.48528 -2.82843 0 
-8.20636 -2.82843 0 
-7.94054 -2.82843 0 
-7.6904 -2.82843 0 
-7.45357 -2.82843 0 
-7.22694 -2.82843 0 
-7.00705 -2.82843 0 
-6.79111 -2.82843 0 
-6.57731 -2.82843 0 
-6.36453 -2.82843 0 
-6.15219 -2.82843 0 
-5.94 -2.82843 0 
-5.72786 -2.82843 0 
-5.51573 -2.82843 0 
-5.3036 -2.82843 0 
-5.09147 -2.82843 0 
-4.87933 -2.82843 0 
-4.6672 -2.82843 0 
-4.45507 -2.82843 0 
-4.24294 -2.82843 0 
-4.03081 -2.82843 0 
-3.81867 -2.82843 0 
-3.60654 -2.82843 0 
-3.39441 -2.82843 0 
-3.18228 -2.82843 0 
-2.97015 -2.82843 0 
-2.75801 -2.82843 0 
-2.54588 -2.82843 0 
-2.33375 -2.82843 0 
-2.12162 -2.82843 0 
-1.90949 -2.82843 0 
-1.69735 -2.82843 0 
-1.48522 -2.82843 0 
-1.27309 -2.82843 0 
-1.06096 -2.82843 0 
-0.848825 -2.82843 0 
-0.636693 -2.82843 0 
-0.424561 -2.82843 0 
-0.212429 -2.82843 0 
-0.000296761 -2.82843 0 
0.211835 -2.82843 0 
0.423967 -2.82843 0 
0.636099 -2.82843 0 
0.848231 -2.82843 0 
1.06036 -2.82843 0 
1.2725 -2.82843 0 
1.48463 -2.82843 0 
1.69676 -2.82843 0 
1.90889 -2.82843 0 
2.12102 -2.82843 0 
2.33316 -2.82843 0 
2.54529 -2.82843 0 
2.75742 -2.82843 0 
2.96955 -2.82843 0 
3.18168 -2.82843 0 
3.39382 -2.82843 0 
3.60595 -2.82843 0 
3.81808 -2.82843 0 
4.03021 -2.82843 0 
4.24234 -2.82843 0 
4.45448 -2.82843 0 
4.66661 -2.82843 0 
4.87874 -2.82843 0 
5.09087 -2.82843 0 
5.303 -2.82843 0 
5.51514 -2.82843 0 
5.72727 -2.82843 0 
5.93941 -2.82843 0 
6.15159 -2.82843 0 
6.36393 -2.82843 0 
6.57672 -2.82843 0 
6.79055 -2.82843 0 
7.00652 -2.82843 0 
7.22647 -2.82843 0 
7.45313 -2.82843 0 
7.69005 -2.82843 0 
7.9403 -2.82843 0 
8.20621 -2.82843 0 
8.48528 -2.82843 0 
-8.48528 -2.5495 0 
-8.30526 -2.64845 0 
-8.07062 -2.59995 0 
-7.83904 -2.59637 0 
-7.59595 -2.59733 0 
-7.36578 -2.59177 0 
-7.13796 -2.5933 0 
-6.90908 -2.59428 0 
-6.68421 -2.5916 0 
-6.46568 -2.58832 0 
-6.24926 -2.58859 0 
-6.03358 -2.58941 0 
-5.81848 -2.59013 0 
-5.60402 -2.59075 0 
-5.39005 -2.59135 0 
-5.17642 -2.59186 0 
-4.96311 -2.59223 0 
-4.75009 -2.59242 0 
-4.53736 -2.59244 0 
-4.32497 -2.59236 0 
-4.1128 -2.59242 0 
-3.90059 -2.59259 0 
-3.68835 -2.5926 0 
-3.47627 -2.59248 0 
-3.26428 -2.59251 0 
-3.05216 -2.59271 0 
-2.83986 -2.59283 0 
-2.62755 -2.59274 0 
-2.41539 -2.59253 0 
-2.20336 -2.59238 0 
-1.99135 -2.59238 0 
-1.77924 -2.59246 0 
-1.56704 -2.59244 0 
-1.35495 -2.59215 0 
-1.14319 -2.59183 0 
-0.931581 -2.59195 0 
-0.719663 -2.59256 0 
-0.507197 -2.59324 0 
-0.294425 -2.59354 0 
-0.0817689 -2.59344 0 
0.130587 -2.59325 0 
0.342804 -2.59322 0 
0.555051 -2.59322 0 
0.767233 -2.59303 0 
0.97919 -2.59278 0 
1.19107 -2.59278 0 
1.40311 -2.59289 0 
1.61524 -2.59286 0 
1.82732 -2.59279 0 
2.03943 -2.59281 0 
2.25163 -2.5928 0 
2.46381 -2.59266 0 
2.67591 -2.59254 0 
2.88801 -2.59237 0 
3.10001 -2.59226 0 
3.31203 -2.59216 0 
3.52402 -2.59207 0 
3.73601 -2.59208 0 
3.94815 -2.59221 0 
4.16052 -2.5923 0 
4.37309 -2.59232 0 
4.58593 -2.59227 0 
4.79921 -2.5922 0 
5.01319 -2.59212 0 
5.22833 -2.5921 0 
5.44534 -2.59239 0 
5.6657 -2.59346 0 
5.89185 -2.59569 0 
6.12685 -2.59429 0 
6.36853 -2.59189 0 
6.6108 -2.57787 0 
6.84491 -2.61411 0 
7.08804 -2.58476 0 
7.34858 -2.60369 0 
7.58803 -2.59327 0 
7.83059 -2.59326 0 
8.06387 -2.59199 0 
8.30038 -2.64348 0 
8.48528 -2.54936 0 
-8.48528 -2.28369 0 
-8.25701 -2.4138 0 
-8.01078 -2.35334 0 
-7.73666 -2.37963 0 
-7.49744 -2.35565 0 
-7.26898 -2.35831 0 
-7.03324 -2.36676 0 
-6.7997 -2.36275 0 
-6.5773 -2.35166 0 
-6.35808 -2.3495 0 
-6.14038 -2.35058 0 
-5.92336 -2.35185 0 
-5.70723 -2.35272 0 
-5.49199 -2.35362 0 
-5.27734 -2.35447 0 
-5.0632 -2.35505 0 
-4.84958 -2.35534 0 
-4.63641 -2.35533 0 
-4.42363 -2.35504 0 
-4.21126 -2.35485 0 
-3.99909 -2.35513 0 
-3.78684 -2.3554 0 
-3.57461 -2.35516 0 
-3.36263 -2.35498 0 
-3.15066 -2.35537 0 
-2.93843 -2.35586 0 
-2.72604 -2.35589 0 
-2.51374 -2.35551 0 
-2.30162 -2.35509 0 
-2.08964 -2.35496 0 
-1.87761 -2.35518 0 
-1.66544 -2.3554 0 
-1.45322 -2.35518 0 
-1.2412 -2.35438 0 
-1.02967 -2.35407 0 
-0.818162 -2.35505 0 
-0.606054 -2.35676 0 
-0.393243 -2.3579 0 
-0.180256 -2.35789 0 
0.0323765 -2.35727 0 
0.244686 -2.35692 0 
0.456926 -2.35692 0 
0.669206 -2.35667 0 
0.881318 -2.35598 0 
1.09315 -2.35559 0 
1.305 -2.35583 0 
1.51709 -2.35595 0 
1.72919 -2.35571 0 
1.9412 -2.35566 0 
2.15334 -2.3558 0 
2.36559 -2.3556 0 
2.57772 -2.35522 0 
2.78976 -2.35507 0 
3.0019 -2.35461 0 
3.21373 -2.35451 0 
3.42571 -2.35439 0 
3.63769 -2.35431 0 
3.84965 -2.35453 0 
4.06183 -2.35491 0 
4.27435 -2.35507 0 
4.48707 -2.35507 0 
4.70017 -2.35506 0 
4.91376 -2.35498 0 
5.12819 -2.35502 0 
5.34378 -2.35528 0 
5.56106 -2.35662 0 
5.78097 -2.35971 0 
6.00401 -2.36251 0 
6.2308 -2.3624 0 
6.45748 -2.35551 0 
6.68075 -2.33423 0 
6.88797 -2.39744 0 
7.05313 -2.27289 0 
7.24377 -2.40237 0 
7.48542 -2.36016 0 
7.73055 -2.36599 0 
7.99177 -2.33552 0 
8.24864 -2.40698 0 
8.48528 -2.28345 0 
-8.48528 -2.03355 0 
-8.25312 -2.18214 0 
-8.03669 -2.07913 0 
-7.83956 -2.18231 0 
-7.6106 -2.12852 0 
-7.38852 -2.10959 0 
-7.16268 -2.14097 0 
-6.9229 -2.1435 0 
-6.70119 -2.12055 0 
-6.48111 -2.11285 0 
-6.26282 -2.11284 0 
-6.045 -2.1151 0 
-5.82775 -2.11658 0 
-5.61153 -2.11776 0 
-5.3962 -2.1192 0 
-5.18144 -2.1203 0 
-4.96732 -2.12084 0 
-4.75387 -2.12105 0 
-4.54086 -2.12091 0 
-4.32822 -2.12045 0 
-4.11596 -2.12045 0 
-3.90382 -2.12107 0 
-3.69156 -2.12116 0 
-3.47938 -2.12058 0 
-3.26746 -2.12068 0 
-3.05542 -2.12154 0 
-2.84307 -2.12198 0 
-2.63064 -2.12162 0 
-2.41836 -2.12087 0 
-2.20626 -2.12031 0 
-1.99426 -2.12034 0 
-1.78217 -2.1207 0 
-1.56989 -2.12074 0 
-1.35755 -2.11993 0 
-1.14542 -2.11838 0 
-0.934012 -2.11859 0 
-0.722404 -2.12089 0 
-0.509943 -2.12344 0 
-0.296911 -2.12431 0 
-0.0840921 -2.12359 0 
0.128295 -2.12281 0 
0.340414 -2.12274 0 
0.552564 -2.12288 0 
0.76478 -2.12226 0 
0.976792 -2.1213 0 
1.18855 -2.12128 0 
1.40042 -2.12188 0 
1.61256 -2.12177 0 
1.82458 -2.12141 0 
2.03655 -2.12164 0 
2.24875 -2.12174 0 
2.46099 -2.12114 0 
2.67302 -2.12065 0 
2.88504 -2.12054 0 
3.09728 -2.1194 0 
3.30873 -2.11968 0 
3.52086 -2.1195 0 
3.7329 -2.11938 0 
3.94484 -2.11986 0 
4.15715 -2.12044 0 
4.36983 -2.12035 0 
4.58282 -2.1204 0 
4.79606 -2.12017 0 
5.01004 -2.12012 0 
5.22483 -2.12002 0 
5.44073 -2.12051 0 
5.6582 -2.123 0 
5.8782 -2.12696 0 
6.10217 -2.12971 0 
6.33095 -2.12707 0 
6.567 -2.11601 0 
6.82301 -2.12303 0 
7.06572 -2.04567 0 
7.29733 -2.17484 0 
7.54632 -2.11408 0 
7.79371 -2.13741 0 
8.02274 -2.07453 0 
8.25027 -2.1738 0 
8.48528 -2.0332 0 
-8.48528 -1.79671 0 
-8.25436 -1.93882 0 
-8.01299 -1.83977 0 
-7.78596 -1.953 0 
-7.5297 -1.87194 0 
-7.2756 -1.88722 0 
-7.05707 -1.93544 0 
-6.84369 -1.89677 0 
-6.62219 -1.88079 0 
-6.40169 -1.87606 0 
-6.18206 -1.87854 0 
-5.96274 -1.881 0 
-5.74458 -1.88208 0 
-5.52796 -1.88344 0 
-5.31232 -1.88506 0 
-5.09736 -1.88569 0 
-4.88338 -1.88564 0 
-4.67019 -1.88555 0 
-4.45737 -1.88507 0 
-4.24485 -1.88447 0 
-4.03271 -1.88482 0 
-3.82061 -1.88562 0 
-3.60832 -1.88529 0 
-3.39617 -1.88464 0 
-3.18427 -1.88547 0 
-2.97209 -1.88672 0 
-2.7596 -1.88684 0 
-2.54714 -1.88601 0 
-2.33483 -1.88505 0 
-2.12268 -1.8846 0 
-1.91058 -1.885 0 
-1.69824 -1.88561 0 
-1.48561 -1.88547 0 
-1.27286 -1.88413 0 
-1.06032 -1.88216 0 
-0.848858 -1.8839 0 
-0.636875 -1.88781 0 
-0.424169 -1.89034 0 
-0.211518 -1.89004 0 
0.000731944 -1.88866 0 
0.21257 -1.88788 0 
0.424308 -1.88807 0 
0.636257 -1.88793 0 
0.848362 -1.88664 0 
1.06025 -1.88556 0 
1.27191 -1.88605 0 
1.48381 -1.88664 0 
1.69595 -1.886 0 
1.90782 -1.88577 0 
2.11974 -1.88637 0 
2.33202 -1.88609 0 
2.54419 -1.88502 0 
2.75607 -1.88472 0 
2.96812 -1.88462 0 
3.18055 -1.88217 0 
3.39117 -1.88415 0 
3.60398 -1.8838 0 
3.81618 -1.88366 0 
4.02827 -1.88469 0 
4.24071 -1.88523 0 
4.4544 -1.88509 0 
4.66716 -1.88476 0 
4.88099 -1.88493 0 
5.09545 -1.88466 0 
5.31057 -1.88453 0 
5.52653 -1.88564 0 
5.7436 -1.88981 0 
5.96352 -1.89563 0 
6.18733 -1.89813 0 
6.41543 -1.89522 0 
6.65059 -1.89622 0 
6.87542 -1.86913 0 
7.11122 -1.81621 0 
7.31223 -1.94975 0 
7.53264 -1.87683 0 
7.77077 -1.89068 0 
8.01717 -1.8297 0 
8.25014 -1.93148 0 
8.48528 -1.79628 0 
-8.48528 -1.57009 0 
-8.24868 -1.70836 0 
-8.015 -1.61096 0 
-7.76734 -1.73071 0 
-7.54593 -1.61782 0 
-7.32306 -1.66278 0 
-7.05152 -1.7082 0 
-6.79786 -1.66675 0 
-6.56099 -1.64764 0 
-6.33267 -1.64541 0 
-6.10856 -1.64921 0 
-5.88638 -1.65073 0 
-5.66697 -1.65153 0 
-5.44986 -1.65353 0 
-5.23379 -1.65525 0 
-5.01882 -1.6551 0 
-4.80519 -1.6548 0 
-4.59235 -1.65478 0 
-4.37976 -1.65422 0 
-4.16737 -1.65386 0 
-3.95537 -1.65471 0 
-3.74326 -1.6554 0 
-3.5309 -1.65455 0 
-3.31876 -1.65426 0 
-3.10682 -1.65593 0 
-2.89443 -1.65705 0 
-2.68177 -1.65644 0 
-2.46924 -1.65516 0 
-2.25682 -1.65408 0 
-2.04447 -1.65386 0 
-1.83202 -1.65455 0 
-1.61911 -1.65506 0 
-1.40572 -1.65429 0 
-1.19212 -1.65207 0 
-0.97885 -1.64982 0 
-0.767325 -1.65372 0 
-0.555434 -1.6581 0 
-0.343588 -1.65935 0 
-0.132061 -1.65818 0 
0.0792288 -1.65687 0 
0.290417 -1.65682 0 
0.501823 -1.6575 0 
0.713729 -1.65709 0 
0.925861 -1.65545 0 
1.13768 -1.65488 0 
1.34929 -1.65604 0 
1.56128 -1.6563 0 
1.77337 -1.65516 0 
1.985 -1.65561 0 
2.19698 -1.65642 0 
2.40939 -1.65525 0 
2.62143 -1.65394 0 
2.83323 -1.65414 0 
3.04553 -1.65355 0 
3.25842 -1.64868 0 
3.46746 -1.65522 0 
3.68272 -1.65284 0 
3.89574 -1.65288 0 
4.10731 -1.65378 0 
4.32287 -1.65565 0 
4.53627 -1.65249 0 
4.74932 -1.65397 0 
4.96428 -1.65355 0 
5.17935 -1.65257 0 
5.3944 -1.65202 0 
5.60927 -1.65354 0 
5.82513 -1.66019 0 
6.04295 -1.66711 0 
6.26383 -1.66843 0 
6.48537 -1.66776 0 
6.70098 -1.65646 0 
6.91299 -1.6206 0 
7.11709 -1.6046 0 
7.3526 -1.69716 0 
7.60698 -1.65764 0 
7.8325 -1.64214 0 
8.05985 -1.58842 0 
8.2608 -1.69223 0 
8.48528 -1.56961 0 
-8.48528 -1.35019 0 
-8.24958 -1.48044 0 
-8.0219 -1.3751 0 
-7.79713 -1.50391 0 
-7.58956 -1.39834 0 
-7.36199 -1.38754 0 
-7.16079 -1.49923 0 
-6.93764 -1.46284 0 
[...]
POINT_DATA 2054 
VECTORS vectors float
0.00793157 -0.0104451 0.999914 
0.00937396 -0.0239426 0.999668 
0.00739889 -0.0272867 0.999598 
0.00833709 -0.0257766 0.999632 
0.00885467 -0.0227384 0.999702 
0.00922322 -0.0198375 0.999761 
0.00942627 -0.0172674 0.999807 
0.00951751 -0.0147167 0.999847 
0.00956158 -0.0120204 0.999882 
0.00958817 -0.00923947 0.999912 
0.00960828 -0.00648942 0.999933 
0.00962299 -0.00384415 0.999947 
0.00963184 -0.00130118 0.999953 
0.00963352 0.00120833 0.999953 
0.00962745 0.00378972 0.999947 
0.00961333 0.00656689 0.999933 
0.00959028 0.00967883 0.999908 
0.00955711 0.0132816 0.999867 
0.00951223 0.0175569 0.999801 
0.00945315 0.0227207 0.999698 
0.00937731 0.0290317 0.999535 
0.00928092 0.0368031 0.99928 
0.00915933 0.0464152 0.998881 
0.00900677 0.0583344 0.998257 
0.00881566 0.0731312 0.997284 
0.00857688 0.0915039 0.995768 
0.00827877 0.114304 0.993412 
0.00790734 0.142554 0.989756 
0.00744601 0.17747 0.984098 
0.00687575 0.220455 0.975373 
0.00617718 0.273055 0.961979 
0.00533435 0.33683 0.941551 
0.00434358 0.413051 0.910698 
0.00322764 0.502166 0.864766 
0.00205426 0.602882 0.797828 
0.000950661 0.710959 0.703233 
9.29175e-05 0.818037 0.575165 
-0.000354045 0.91147 0.411366 
-0.000341064 0.976334 0.216267 
-1.53737e-05 0.999997 0.00246618 
0.000315246 0.977361 -0.211579 
0.000340306 0.913284 -0.407324 
-9.33033e-05 0.820277 -0.571967 
-0.000941129 0.713286 -0.700873 
-0.00203966 0.605064 -0.796175 
-0.0032118 0.504071 -0.863657 
-0.00432877 0.414646 -0.909973 
-0.00532156 0.338126 -0.941086 
-0.00616654 0.274091 -0.961685 
-0.00686719 0.22127 -0.975189 
-0.00743914 0.178104 -0.983984 
-0.00790189 0.143046 -0.989685 
-0.00827444 0.114685 -0.993368 
-0.00857334 0.0917998 -0.995741 
-0.00881288 0.0733607 -0.997267 
-0.00900446 0.0585128 -0.998246 
-0.00915741 0.0465554 -0.998874 
-0.0092793 0.0369145 -0.999276 
-0.0093758 0.0291219 -0.999532 
-0.00945173 0.0227949 -0.999696 
-0.00951062 0.017619 -0.9998 
-0.00955523 0.0133345 -0.999866 
-0.00958787 0.00972435 -0.999907 
-0.0096098 0.00660638 -0.999932 
-0.00962227 0.00382349 -0.999947 
-0.00962585 0.00123784 -0.999953 
-0.00962075 -0.0012707 -0.999953 
-0.00960912 -0.00380715 -0.999947 
-0.00958737 -0.0064471 -0.999934 
-0.00958296 -0.00918963 -0.999912 
-0.00952501 -0.0118957 -0.999884 
-0.00952929 -0.0145575 -0.999849 
-0.00939743 -0.0170292 -0.999811 
-0.00920592 -0.0195693 -0.999766 
-0.00884584 -0.0224667 -0.999709 
-0.00833015 -0.0254652 -0.99964 
-0.00740208 -0.0269032 -0.999608 
-0.00937051 -0.0236092 -0.999676 
-0.00790121 -0.0104017 -0.999915 
0.00151919 -0.0123027 0.999923 
0.00716174 -0.0192716 0.999789 
0.0107803 -0.0248661 0.999633 
0.0123325 -0.0256231 0.999596 
0.0133663 -0.0239908 0.999624 
0.0141495 -0.0212567 0.999675 
0.0145413 -0.0184443 0.999725 
0.0148265 -0.0157187 0.999767 
0.0151073 -0.0130055 0.999802 
0.0153475 -0.0103013 0.99983 
0.0154754 -0.00760812 0.999852 
0.0155749 -0.00495812 0.999867 
0.0156492 -0.0023752 0.999875 
0.0156948 0.000164154 0.999877 
0.0157091 0.00273754 0.999873 
0.0156938 0.00545754 0.999863 
0.0156491 0.00845652 0.999842 
0.0155741 0.0118848 0.999809 
0.0154663 0.0159143 0.999754 
0.0153211 0.0207447 0.999668 
0.0151276 0.0266173 0.999532 
0.0148807 0.0338298 0.999317 
0.0145798 0.0427374 0.998981 
0.0142152 0.0537635 0.998453 
0.0137702 0.0674368 0.997629 
0.013233 0.0844201 0.996343 
0.0125954 0.105517 0.994338 
0.0118457 0.131675 0.991223 
0.0109689 0.164012 0.986398 
0.0099515 0.203847 0.978953 
0.00878777 0.252683 0.96751 
0.00748477 0.312106 0.950018 
0.00606918 0.38353 0.923509 
0.0045952 0.46769 0.883881 
0.00314718 0.563926 0.82582 
0.00183527 0.669338 0.742957 
0.000779859 0.7776 0.628759 
7.64205e-05 0.877896 0.478852 
-0.000254359 0.955619 0.294604 
-0.000302253 0.996314 0.0857773 
-0.000251362 0.991444 -0.130533 
-0.000316303 0.9422 -0.335051 
-0.000668514 0.858743 -0.512406 
-0.00138389 0.755758 -0.654849 
-0.00243367 0.647217 -0.762303 
-0.00372017 0.543104 -0.839658 
-0.00512602 0.449065 -0.893485 
-0.00654591 0.367511 -0.929997 
-0.00790065 0.298676 -0.954323 
-0.00914208 0.241554 -0.970345 
-0.0102497 0.194675 -0.980815 
-0.01122 0.156508 -0.987614 
-0.0120561 0.125591 -0.99201 
-0.0127709 0.100614 -0.994844 
-0.0133753 0.0804836 -0.996667 
-0.0138831 0.0642648 -0.997837 
-0.0143069 0.0512027 -0.998586 
-0.014655 0.040673 -0.999066 
-0.0149359 0.0321628 -0.999372 
-0.0151612 0.0252583 -0.999567 
-0.0153375 0.0196235 -0.99969 
-0.0154694 0.014978 -0.999769 
-0.0155585 0.0110872 -0.999818 
-0.0156053 0.00775335 -0.999849 
-0.0156072 0.00480461 -0.999867 
-0.0155562 0.00208792 -0.999877 
-0.0154386 -0.000540337 -0.999881 
-0.0152331 -0.003214 -0.999879 
-0.015069 -0.00603857 -0.999869 
-0.0148807 -0.00898897 -0.99985 
-0.0151448 -0.0119355 -0.999815 
-0.0142721 -0.0148414 -0.999789 
-0.0145404 -0.0175876 -0.99974 
-0.0137311 -0.0207912 -0.99969 
-0.0132963 -0.0235683 -0.999635 
-0.01219 -0.0251861 -0.999609 
-0.0106666 -0.0245099 -0.999643 
-0.00709562 -0.0191369 -0.999793 
-0.0014852 -0.0122959 -0.999923 
0.00122924 -0.0120777 0.999926 
0.00765722 -0.0202589 0.999766 
0.0115213 -0.0244506 0.999635 
0.0144325 -0.0247892 0.999589 
0.0158692 -0.0226604 0.999618 
0.0167769 -0.0198498 0.999663 
0.0174128 -0.0169396 0.999705 
0.017868 -0.0141248 0.999741 
0.0182187 -0.0114539 0.999769 
0.0184881 -0.0088314 0.999791 
0.0186982 -0.00622312 0.999806 
0.0188558 -0.00362992 0.999816 
0.0189643 -0.0010645 0.99982 
0.0190238 0.00150706 0.999818 
0.0190354 0.00417378 0.999811 
0.0190003 0.00705689 0.999795 
0.0189178 0.010298 0.999769 
0.0187853 0.0140599 0.999725 
0.0185986 0.0185307 0.999656 
0.0183508 0.02393 0.999546 
0.0180334 0.030527 0.999372 
0.0176399 0.0386546 0.999098 
0.0171628 0.0487068 0.998666 
0.0165897 0.0611525 0.997991 
0.0159071 0.0765918 0.996936 
0.0151029 0.0957744 0.995289 
0.0141661 0.119584 0.992724 
0.0130866 0.149052 0.988743 
0.0118578 0.185395 0.982593 
0.0104806 0.230016 0.973131 
0.00896721 0.284478 0.958641 
0.00734835 0.3503 0.936609 
0.00567979 0.428591 0.903481 
0.00404527 0.519409 0.854517 
0.00255022 0.620868 0.783912 
0.00129492 0.728445 0.685104 
0.000357484 0.833674 0.552256 
-0.000230062 0.923572 0.383424 
-0.000511813 0.982869 0.184304 
-0.000613511 0.999525 -0.0308007 
-0.000708318 0.970077 -0.242796 
-0.000968074 0.900966 -0.43389 
-0.00151782 0.805422 -0.5927 
-0.00240384 0.698258 -0.715843 
-0.00359445 0.591469 -0.80632 
-0.00501016 0.492523 -0.870286 
-0.00655133 0.405106 -0.914247 
-0.00811976 0.3304 -0.943807 
-0.00963882 0.267923 -0.963393 
-0.0110586 0.216346 -0.976255 
-0.01235 0.174169 -0.984639 
-0.0135006 0.139924 -0.990071 
-0.0145103 0.11222 -0.993578 
-0.0153867 0.0898472 -0.995837 
-0.016138 0.0718358 -0.997287 
-0.0167767 0.0573126 -0.998216 
-0.0173131 0.045607 -0.99881 
-0.0177565 0.0361597 -0.999189 
-0.0181168 0.0285058 -0.99943 
-0.018404 0.0222727 -0.999583 
-0.0186251 0.01716 -0.99968 
-0.0187847 0.0129107 -0.999741 
-0.0188853 0.00931209 -0.999779 
-0.0189267 0.00618009 -0.999802 
-0.0189066 0.00335606 -0.999816 
-0.0188187 0.000699173 -0.999823 
-0.0186619 -0.00191056 -0.999825 
-0.0184606 -0.00454753 -0.99982 
-0.0182459 -0.00723635 -0.999808 
-0.018053 -0.00992135 -0.999788 
-0.0179487 -0.0125637 -0.99976 
-0.0174289 -0.0150603 -0.999735 
-0.0173943 -0.0169341 -0.999706 
-0.0166606 -0.0193825 -0.999674 
-0.0157008 -0.0222112 -0.999631 
-0.0141281 -0.0242503 -0.999607 
-0.011392 -0.0240406 -0.999647 
-0.00764786 -0.0201866 -0.999768 
-0.00116996 -0.0120641 -0.999926 
0.0011964 -0.0120959 0.999926 
0.00680244 -0.0200521 0.999777 
0.0101661 -0.0242051 0.999656 
0.0131575 -0.0250194 0.999601 
0.0148321 -0.0237469 0.999609 
0.0159636 -0.0212501 0.999647 
0.0170157 -0.0184014 0.999687 
0.0176882 -0.0154393 0.999725 
0.0180442 -0.0127725 0.999756 
0.0183748 -0.0102025 0.99978 
0.0186724 -0.00766351 0.999797 
0.0189134 -0.00509668 0.999809 
0.0190874 -0.00251513 0.999815 
0.0191993 6.66216e-05 0.999816 
0.0192531 0.00269568 0.999812 
0.0192487 0.00547426 0.9998 
0.019186 0.00853192 0.99978 
0.0190645 0.0120191 0.999747 
0.0188805 0.0161124 0.999693 
0.0186297 0.0210154 0.999606 
0.0183086 0.0269664 0.999469 
0.0179098 0.0342616 0.999253 
0.0174203 0.0432673 0.998912 
0.0168309 0.0544114 0.998377 
0.0161371 0.0682082 0.997541 
0.0153274 0.0853286 0.996236 
0.0143864 0.106593 0.994199 
0.0133064 0.132949 0.991034 
0.0120866 0.165503 0.986136 
0.0107328 0.205551 0.978588 
0.0092588 0.254554 0.967015 
0.00768861 0.314073 0.949368 
0.00606444 0.385506 0.922686 
0.00445262 0.469583 0.882878 
0.0029402 0.565613 0.824666 
0.00162454 0.67036 0.742035 
0.000571097 0.777827 0.628478 
-0.000181112 0.87763 0.479339 
-0.000636173 0.955272 0.295729 
-0.000859673 0.996162 0.0875243 
-0.000972288 0.991748 -0.1282 
-0.00112136 0.943208 -0.3322 
-0.00144452 0.860602 -0.509276 
-0.00203467 0.758405 -0.651781 
-0.00291951 0.650484 -0.759515 
-0.00406959 0.546821 -0.83724 
-0.00541919 0.452961 -0.891515 
-0.00688243 0.371268 -0.928501 
-0.00837543 0.302158 -0.953222 
-0.0098351 0.244688 -0.969553 
-0.0112143 0.197399 -0.98026 
-0.0124809 0.158829 -0.987228 
-0.013623 0.127563 -0.991738 
-0.0146385 0.102274 -0.994649 
-0.0155253 0.0818486 -0.996525 
-0.016297 0.0654336 -0.997724 
-0.0169563 0.0521584 -0.998495 
-0.0175125 0.0414541 -0.998988 
-0.0179757 0.0328041 -0.999301 
-0.0183526 0.0257747 -0.9995 
-0.0186488 0.0200296 -0.999626 
-0.0188748 0.0152894 -0.999706 
-0.019033 0.0113219 -0.999755 
-0.0191281 0.00792127 -0.999786 
-0.0191609 0.00491892 -0.999805 
-0.0191325 0.00216426 -0.999815 
-0.0190431 -0.00047183 -0.999819 
-0.0188873 -0.00308682 -0.999817 
-0.018662 -0.00572759 -0.99981 
-0.0183708 -0.00838941 -0.999797 
-0.0179857 -0.0111012 -0.999777 
-0.0175205 -0.0140558 -0.999749 
-0.0166662 -0.0169976 -0.999717 
-0.0164346 -0.0199143 -0.999667 
-0.0148352 -0.0227328 -0.999632 
-0.0130378 -0.0243891 -0.999618 
-0.0100423 -0.023839 -0.999666 
-0.00665502 -0.0198165 -0.999782 
-0.00115187 -0.0120744 -0.999926 
0.000994009 -0.0124311 0.999922 
0.00584227 -0.0199518 0.999785 
0.00891338 -0.0244468 0.999662 
0.0122664 -0.0248837 0.999616 
0.0133453 -0.0228676 0.99965 
0.0147763 -0.0197739 0.999696 
0.0160576 -0.0170345 0.999726 
0.0162058 -0.0143799 0.999766 
0.0164974 -0.0117855 0.999795 
0.0168317 -0.00927845 0.999816 
0.0171589 -0.00675094 0.999831 
0.0174071 -0.00416152 0.99984 
0.0175699 -0.00154948 0.999845 
0.0176687 0.00107711 0.999844 
0.0177078 0.00378697 0.999837 
0.0176786 0.00669626 0.999822 
0.0175846 0.00994066 0.999797 
0.0174297 0.0136818 0.999755 
0.0172068 0.0181112 0.999689 
0.0169141 0.0234472 0.999583 
0.016555 0.0299449 0.999415 
0.016117 0.0379284 0.999151 
0.0155777 0.0477973 0.998736 
0.0149381 0.0600085 0.998087 
0.0142066 0.0751212 0.997074 
0.013364 0.0938793 0.995495 
0.0123919 0.11716 0.993036 
0.0112931 0.145962 0.989226 
0.0100791 0.181466 0.983346 
0.0087653 0.225026 0.974314 
0.00737227 0.278139 0.960513 
0.0059248 0.342362 0.93955 
0.00446484 0.418912 0.908017 
0.00305593 0.508075 0.861308 
0.0017756 0.60831 0.793698 
0.000705926 0.714889 0.699238 
-0.000122145 0.820504 0.571641 
-0.000689785 0.912902 0.408178 
-0.00101288 0.976929 0.213563 
-0.00115775 0.999999 0.000738382 
-0.00123348 0.977321 -0.211758 
-0.00136643 0.913941 -0.405845 
-0.00166792 0.822147 -0.569274 
-0.00220546 0.716536 -0.697548 
-0.00299362 0.609642 -0.792672 
-0.00400637 0.509642 -0.860378 
-0.00518711 0.420572 -0.907245 
-0.00646185 0.343901 -0.938984 
-0.00776872 0.279517 -0.96011 
-0.00906009 0.22617 -0.974046 
-0.010288 0.182361 -0.983179 
-0.0114236 0.146704 -0.989115 
-0.0124631 0.117824 -0.992957 
-0.0133978 0.0944505 -0.99544 
-0.014206 0.0755608 -0.997041 
-0.0149423 0.0604327 -0.998061 
-0.0155614 0.0481073 -0.998722 
-0.016085 0.038183 -0.999142 
-0.0165288 0.030149 -0.999409 
-0.0168851 0.0236049 -0.999579 
-0.0171626 0.0182157 -0.999687 
-0.0173685 0.013771 -0.999755 
-0.017515 0.0100064 -0.999797 
-0.0175967 0.00674639 -0.999823 
-0.0176213 0.00382871 -0.999838 
-0.0175991 0.00111084 -0.999845 
-0.017542 -0.00152137 -0.999846 
-0.0174287 -0.00414856 -0.99984 
-0.0172087 -0.00677757 -0.99983 
-0.0168638 -0.00938462 -0.999814 
-0.0164572 -0.0120393 -0.999793 
-0.0157483 -0.0146682 -0.999769 
-0.0146432 -0.0176034 -0.999738 
-0.0151074 -0.0201304 -0.999684 
-0.0133631 -0.0228681 -0.99965 
-0.0116353 -0.0243951 -0.999636 
-0.0086256 -0.0241277 -0.999672 
-0.00576553 -0.019865 -0.999787 
-0.000968468 -0.012428 -0.999922 
0.000786886 -0.0125293 0.999921 
0.00485804 -0.0203019 0.999783 
0.00718153 -0.0246505 0.999671 
0.0104557 -0.0249349 0.999635 
0.0108214 -0.0232789 0.999671 
0.0122914 -0.0204349 0.999716 
0.0137007 -0.0168733 0.999765 
0.0139294 -0.0138054 0.999808 
0.0142306 -0.0111089 0.999838 
0.0146043 -0.00854828 0.999857 
0.0149399 -0.00595264 0.999871 
0.0151624 -0.0032965 0.99988 
0.0153019 -0.000633355 0.999883 
0.0153877 0.00205394 0.99988 
0.0154099 0.00486237 0.99987 
0.0153544 0.00791662 0.999851 
0.0152397 0.0113601 0.99982 
0.0150681 0.0153682 0.999769 
0.0148274 0.0201469 0.999688 
0.014521 0.0259296 0.999559 
0.0141535 0.0329872 0.999356 
0.013704 0.0416767 0.999038 
0.0131527 0.0524279 0.998539 
0.0125164 0.0657234 0.99776 
0.0118026 0.0821737 0.996549 
0.0109814 0.102598 0.994663 
0.010044 0.127918 0.991735 
0.00900697 0.159179 0.987209 
0.0078867 0.197638 0.980244 
0.00670199 0.244711 0.969574 
0.00547258 0.30193 0.953315 
0.00422037 0.370825 0.928694 
0.00298383 0.45239 0.891816 
0.00181906 0.546355 0.837552 
0.00079027 0.650105 0.759844 
-3.92298e-05 0.757188 0.653198 
-0.000662388 0.858926 0.512099 
-0.0010656 0.941641 0.336617 
-0.00126811 0.990928 0.134386 
-0.00133313 0.996833 -0.0795041 
-0.00135818 0.958171 -0.286193 
-0.00145053 0.882984 -0.469402 
-0.00169781 0.784773 -0.619781 
-0.00214749 0.67768 -0.735355 
-0.00280654 0.572818 -0.819678 
-0.00365176 0.476726 -0.879045 
-0.004633 0.392226 -0.919858 
-0.00569125 0.320153 -0.94735 
-0.0067881 0.259992 -0.965588 
-0.00788142 0.210235 -0.97762 
-0.00892255 0.169445 -0.9855 
-0.00989661 0.136315 -0.990617 
-0.0108039 0.109481 -0.993931 
-0.01162 0.0877353 -0.996077 
-0.0123086 0.0701483 -0.997461 
-0.013005 0.0561675 -0.998337 
-0.0135407 0.0445704 -0.998915 
-0.0140084 0.0352952 -0.999279 
-0.0143985 0.0278202 -0.99951 
-0.0147314 0.0216144 -0.999658 
-0.0149399 0.0165714 -0.999752 
-0.0151336 0.0123709 -0.99981 
-0.0152488 0.00877024 -0.999846 
-0.0153021 0.00562265 -0.999868 
-0.015306 0.002771 -0.99988 
-0.0152776 8.33562e-05 -0.999884 
-0.0152446 -0.00254904 -0.999881 
-0.0151444 -0.00516851 -0.999873 
-0.0149014 -0.00775377 -0.99986 
-0.0145454 -0.0102532 -0.999842 
-0.0140094 -0.012685 -0.999822 
-0.0131632 -0.0152045 -0.999798 
-0.0124749 -0.0178118 -0.999764 
-0.0124828 -0.0207518 -0.999707 
-0.0108029 -0.0237732 -0.99966 
-0.00902751 -0.0249197 -0.999649 
-0.0065084 -0.0242622 -0.999685 
-0.00451641 -0.0196175 -0.999798 
-0.0007964 -0.0125015 -0.999921 
0.000621625 -0.0125869 0.99992 
0.00382807 -0.0204115 0.999785 
0.00560897 -0.0248446 0.999676 
0.00826757 -0.0252593 0.999647 
0.00867029 -0.0240023 0.999675 
0.00950066 -0.0210558 0.999734 
0.0112627 -0.0183813 0.999768 
0.0115138 -0.0155246 0.999814 
0.0117064 -0.0128495 0.99985 
0.012042 -0.0103062 0.999875 
0.0124154 -0.00776455 0.999893 
0.0127164 -0.00512294 0.999907 
0.0128869 -0.00241498 0.999915 
0.0129984 0.000282545 0.999916 
0.0130685 0.00303069 0.999911 
0.0130607 0.005938 0.999898 
0.0129798 0.00914202 0.999875 
0.0128535 0.0127889 0.999836 
0.0126755 0.0170655 0.999775 
0.0124337 0.0222043 0.999677 
0.0121321 0.0284412 0.999522 
0.0117751 0.0360692 0.999281 
0.0113353 0.0454768 0.998902 
0.0108048 0.0571227 0.998309 
0.0102091 0.07151 0.997388 
0.00954381 0.0893085 0.995959 
0.00877706 0.111407 0.993737 
0.00791542 0.138765 0.990294 
0.00698244 0.17248 0.984989 
0.00599421 0.213883 0.976842 
0.00496877 0.264441 0.96439 
0.00392266 0.325697 0.945467 
0.00287352 0.399085 0.91691 
0.0018557 0.485251 0.874374 
0.000915962 0.583154 0.812362 
0.000105879 0.688871 0.724885 
-0.000530727 0.794372 0.607432 
-0.000991906 0.890273 0.455427 
-0.00126296 0.962592 0.270951 
-0.00136665 0.997975 0.0635938 
-0.00136505 0.988711 -0.149827 
-0.00134711 0.936632 -0.350312 
-0.00140313 0.852118 -0.523348 
-0.0016 0.749388 -0.662129 
-0.00196974 0.642001 -0.766702 
-0.00251349 0.539691 -0.84186 
-0.0032084 0.44748 -0.894289 
-0.00401027 0.367239 -0.930119 
-0.00487782 0.299333 -0.954137 
-0.00578855 0.242926 -0.970028 
-0.00669744 0.196292 -0.980523 
-0.00756292 0.15811 -0.987393 
-0.00838673 0.127182 -0.991845 
-0.00916357 0.102109 -0.994732 
-0.0098538 0.0817203 -0.996607 
-0.0104158 0.0651934 -0.997819 
-0.0111113 0.0523062 -0.99857 
-0.0115381 0.0410696 -0.99909 
-0.0118956 0.0326057 -0.999398 
-0.0123118 0.0253663 -0.999603 
-0.012509 0.0196286 -0.99973 
-0.0126862 0.0148826 -0.999809 
-0.0128671 0.0109234 -0.999858 
-0.0129352 0.00745135 -0.999889 
-0.0129488 0.0044015 -0.999907 
-0.0129195 0.00162397 -0.999916 
-0.0129041 -0.00105753 -0.999917 
-0.0128775 -0.00367959 -0.999911 
-0.0127808 -0.00628188 -0.999899 
-0.0124922 -0.00881464 -0.999884 
-0.0120522 -0.0112411 -0.999865 
-0.0113976 -0.0137735 -0.999841 
-0.0104458 -0.0166576 -0.999807 
-0.0106268 -0.0197105 -0.99975 
-0.00967897 -0.0225067 -0.9997 
-0.00807376 -0.024721 -0.999662 
-0.00640816 -0.0251098 -0.999665 
-0.00368054 -0.020366 -0.999787 
-0.00060977 -0.0125312 -0.999921 
0.000492567 -0.0126124 0.99992 
0.00300404 -0.0205239 0.999785 
0.00443296 -0.0250447 0.999677 
0.00654555 -0.0254597 0.999655 
0.00719452 -0.02358 0.999697 
0.00760834 -0.0205008 0.999762 
0.00926363 -0.017852 0.999798 
0.00943528 -0.0149124 0.999845 
0.00971663 -0.0122104 0.999879 
0.0100619 -0.00964512 0.999903 
0.0104213 -0.00703365 0.999922 
0.0106754 -0.00430147 0.999934 
0.0107815 -0.00154878 0.999941 
0.0108838 0.00117823 0.999941 
0.0109305 0.00397374 0.999933 
0.0109007 0.00698395 0.999917 
0.0108075 0.0103407 0.999889 
0.0106825 0.014174 0.999843 
0.0105178 0.0187321 0.99977 
0.0102856 0.0242336 0.999654 
0.0100054 0.0309244 0.999472 
0.0096728 0.0391185 0.999188 
0.00926127 0.0492414 0.998745 
0.00877721 0.0617524 0.998054 
0.0082449 0.0771866 0.996983 
0.00764511 0.0962885 0.995325 
0.00695364 0.12 0.99275 
0.00619114 0.14926 0.988779 
0.00538179 0.185187 0.982689 
0.00453915 0.229135 0.973385 
0.00367942 0.282492 0.959263 
0.00281549 0.346646 0.937992 
0.00196198 0.422802 0.90622 
0.00114842 0.51109 0.859527 
0.00040887 0.610036 0.792374 
-0.000221786 0.715442 0.698672 
-0.00071602 0.819287 0.573383 
-0.00106167 0.91132 0.411698 
-0.0012436 0.976034 0.217613 
-0.00128599 0.999992 0.00370623 
-0.00125007 0.977579 -0.210563 
-0.00121697 0.913906 -0.405925 
-0.00126071 0.821713 -0.569901 
-0.00142995 0.715793 -0.698311 
-0.00174532 0.609068 -0.793117 
-0.00220341 0.50969 -0.860356 
-0.00278128 0.421208 -0.90696 
-0.00344168 0.344866 -0.938646 
-0.00415876 0.280767 -0.959768 
-0.00491777 0.227715 -0.973716 
-0.00567057 0.183702 -0.982966 
-0.00638477 0.147758 -0.989004 
-0.00707894 0.118814 -0.992892 
-0.00773858 0.0951865 -0.99543 
-0.00831142 0.0757491 -0.997093 
-0.0087393 0.0599306 -0.998165 
-0.00956683 0.0480957 -0.998797 
-0.00960435 0.0377871 -0.99924 
-0.010175 0.0292774 -0.99952 
-0.0103273 0.0227913 -0.999688 
-0.0104959 0.0174447 -0.999793 
-0.0106207 0.0130256 -0.999859 
-0.0108222 0.00931859 -0.999899 
-0.0108087 0.00588781 -0.999925 
-0.0107284 0.00298218 -0.999939 
-0.0107272 0.000211626 -0.999943 
-0.0106726 -0.00245105 -0.999941 
-0.0106473 -0.00499925 -0.999931 
-0.0105427 -0.00741163 -0.999917 
-0.0102016 -0.00973264 -0.999901 
-0.00980009 -0.0120944 -0.999879 
-0.00920198 -0.0146739 -0.999851 
-0.00835627 -0.0175773 -0.999811 
-0.00875351 -0.0201327 -0.99976 
-0.00749559 -0.0233105 -0.999701 
-0.0059031 -0.0251101 -0.999668 
-0.00452873 -0.0245358 -0.999689 
-0.00258706 -0.0196573 -0.999804 
-0.000511122 -0.012662 -0.99992 
0.000385784 -0.0126254 0.99992 
0.00237759 -0.0207128 0.999783 
0.00349693 -0.0252186 0.999676 