# vtk DataFile Version 3.0 
Exported using Morpho https://github.com/Morpho-lang/morpho 
ASCII 
DATASET UNSTRUCTURED_GRID 

POINTS 1978 float 
-8.48528 -2.82843 -8.98807e-16 
-8.23208 -2.82843 -6.85825e-15 
-8.0164 -2.82843 -9.24536e-14 
-7.6754 -2.82843 -5.67814e-14 
-7.23595 -2.82843 -5.27455e-15 
-7.0169 -2.82843 8.45161e-15 
-6.81939 -2.82843 3.009e-15 
-6.6566 -2.82843 -4.89831e-15 
-6.49462 -2.82843 -1.50519e-14 
-6.3297 -2.82843 -1.99267e-14 
-6.11397 -2.82843 -2.28457e-14 
-5.90261 -2.82843 -1.59865e-14 
-5.61987 -2.82843 -5.65655e-15 
-5.41627 -2.82843 1.70849e-15 
-5.21484 -2.82843 3.59588e-15 
-5.02273 -2.82843 3.50054e-15 
-4.82496 -2.82843 -4.99471e-17 
-4.62053 -2.82843 -5.6536e-16 
-4.40052 -2.82843 5.83171e-16 
-4.19108 -2.82843 1.76778e-15 
-3.98289 -2.82843 7.01773e-16 
-3.76736 -2.82843 -4.45629e-15 
-3.55196 -2.82843 -2.05446e-14 
-3.32899 -2.82843 -5.52129e-14 
-3.11018 -2.82843 -1.13494e-13 
-2.90691 -2.82843 -2.01647e-13 
-2.70375 -2.82843 -3.55529e-13 
-2.49043 -2.82843 -5.5924e-13 
-2.28193 -2.82843 -7.80636e-13 
-2.05072 -2.82843 -1.20724e-12 
-1.83079 -2.82843 -1.94616e-12 
-1.52071 -2.82843 -2.14319e-12 
-1.32463 -2.82843 -1.43709e-12 
-1.205 -2.82843 -2.52627e-12 
-0.83981 -2.82843 -2.24249e-12 
-0.72915 -2.82843 -6.4355e-13 
-0.61528 -2.82843 -5.90485e-13 
-0.357766 -2.82843 -3.09867e-13 
-0.258915 -2.82843 -5.27201e-15 
-0.00108993 -2.82843 -8.38329e-14 
0.136652 -2.82843 1.19662e-13 
0.504097 -2.82843 3.09301e-13 
0.621818 -2.82843 5.07282e-13 
0.738991 -2.82843 6.06012e-13 
0.854595 -2.82843 1.42077e-12 
1.14304 -2.82843 1.93055e-12 
1.30988 -2.82843 1.7909e-12 
1.51954 -2.82843 1.81828e-12 
1.71167 -2.82843 1.76683e-12 
2.00767 -2.82843 1.4459e-12 
2.27345 -2.82843 9.3724e-13 
2.54796 -2.82843 5.76169e-13 
2.76012 -2.82843 3.10675e-13 
2.96562 -2.82843 1.83417e-13 
3.14814 -2.82843 1.00896e-13 
3.35985 -2.82843 5.67035e-14 
3.55919 -2.82843 2.14929e-14 
3.76082 -2.82843 5.27442e-15 
3.99052 -2.82843 -5.09433e-16 
4.21712 -2.82843 -1.8599e-15 
4.42091 -2.82843 -1.60115e-15 
4.63648 -2.82843 -1.36515e-15 
4.8483 -2.82843 -1.18391e-15 
5.05522 -2.82843 -9.81282e-16 
5.27042 -2.82843 -6.95996e-16 
5.46445 -2.82843 5.89365e-16 
5.65299 -2.82843 3.50334e-15 
5.8705 -2.82843 6.94902e-15 
6.06544 -2.82843 1.23033e-14 
6.27082 -2.82843 1.60484e-14 
6.46754 -2.82843 1.50524e-14 
6.6727 -2.82843 8.81035e-15 
6.84464 -2.82843 3.50775e-15 
7.05971 -2.82843 1.4202e-16 
7.30707 -2.82843 1.67136e-14 
7.73796 -2.82843 6.06739e-14 
7.96298 -2.82843 7.51098e-14 
8.19725 -2.82843 1.35988e-14 
8.48528 -2.82843 -3.80691e-16 
-8.48528 -2.51998 9.18773e-16 
-8.2449 -2.56882 -2.14008e-14 
-7.93706 -2.64679 2.79362e-14 
-7.95071 -2.43737 2.87648e-14 
-7.60349 -2.67997 1.29551e-14 
-7.08398 -2.59088 4.61014e-15 
-6.85261 -2.5952 6.14312e-15 
-6.65067 -2.57257 3.65221e-15 
-6.46995 -2.51191 1.34416e-14 
-6.27554 -2.33554 -2.72881e-15 
-6.26471 -2.58621 7.43477e-15 
-5.81572 -2.641 1.73256e-15 
-5.60824 -2.57115 3.57785e-15 
-5.40406 -2.58366 2.17566e-15 
-5.2137 -2.56458 6.12492e-17 
-5.01621 -2.56409 -6.43964e-17 
-4.81307 -2.56838 -4.36983e-17 
-4.58963 -2.58756 -1.42495e-15 
-4.37095 -2.5787 -2.7924e-15 
-4.15576 -2.57921 -4.18882e-15 
-3.9451 -2.58211 -5.68815e-15 
-3.73552 -2.57821 -7.01072e-15 
-3.5243 -2.58796 -2.93848e-15 
-3.31025 -2.59992 -7.00955e-15 
-3.09787 -2.60606 -5.36626e-15 
-2.89711 -2.61617 1.12726e-14 
-2.70182 -2.63575 4.51038e-15 
-2.5078 -2.67525 7.63816e-14 
-2.28881 -2.69538 2.96948e-14 
-2.05004 -2.70272 9.89492e-14 
-1.84352 -2.71499 1.93043e-13 
-1.64276 -2.75887 2.72353e-14 
-1.41862 -2.73892 -7.25788e-14 
-1.13442 -2.76072 6.97868e-14 
-0.944383 -2.78937 2.11226e-13 
-0.729666 -2.7246 2.3295e-13 
-0.480799 -2.785 1.87104e-14 
-0.445133 -2.70563 -1.5372e-13 
-0.0770689 -2.77959 -4.14669e-15 
0.0745279 -2.73296 -5.32379e-15 
0.208866 -2.76462 9.95623e-14 
0.379779 -2.79271 4.01353e-14 
0.587033 -2.72108 1.01288e-13 
0.820764 -2.71098 3.2626e-13 
0.962279 -2.77697 4.98089e-14 
1.18577 -2.73735 8.48606e-14 
1.42232 -2.74797 -9.16623e-14 
1.64147 -2.71958 -9.9399e-14 
1.85914 -2.74789 -3.3012e-14 
2.11338 -2.72554 -2.66752e-14 
2.36492 -2.71249 -1.6777e-14 
2.6092 -2.66154 -1.23576e-14 
2.82863 -2.64374 -4.73881e-15 
3.02467 -2.59887 -1.64818e-14 
3.23237 -2.61492 -1.28983e-14 
3.44496 -2.58578 2.74818e-15 
3.64544 -2.57316 9.3232e-15 
3.86048 -2.5947 6.71402e-15 
4.08987 -2.58718 4.80457e-15 
4.30799 -2.56305 4.09228e-15 
4.52705 -2.58057 1.88175e-15 
4.74936 -2.57613 1.05941e-15 
4.96659 -2.5746 -1.17423e-14 
5.18185 -2.59375 -4.22006e-17 
5.39687 -2.57457 -1.43349e-15 
5.59455 -2.56526 -2.81565e-15 
5.79613 -2.59587 -3.20701e-15 
6.01127 -2.56467 -4.6894e-15 
6.21757 -2.57567 -8.14082e-15 
6.42634 -2.5665 -6.97562e-15 
6.63821 -2.57367 -5.24525e-15 
6.81065 -2.50215 -4.00566e-15 
6.99107 -2.596 -7.67274e-15 
7.2437 -2.61804 -6.4544e-15 
7.59977 -2.69887 -1.47585e-14 
7.81297 -2.48988 -2.9655e-14 
7.97766 -2.55792 -1.74015e-14 
8.23142 -2.57573 2.08453e-14 
8.48528 -2.54965 -1.22942e-16 
-8.48528 -2.24104 2.85578e-16 
-8.23059 -2.33748 -8.56047e-15 
-7.92303 -2.22107 2.54412e-14 
-7.64533 -2.47042 1.1024e-14 
-7.50258 -2.30822 4.92242e-15 
-7.34794 -2.61533 2.73225e-15 
-7.07715 -2.30482 6.66208e-15 
-6.88254 -2.37167 6.26689e-15 
-6.68152 -2.31476 1.95012e-15 
-6.47812 -2.23991 9.93452e-16 
-6.04924 -2.32081 6.22686e-15 
-6.05174 -2.56207 5.21233e-15 
-5.81899 -2.40685 4.41028e-15 
-5.58831 -2.32939 1.97371e-15 
-5.38719 -2.32473 4.6752e-17 
-5.17102 -2.31399 3.72177e-17 
-4.9541 -2.30967 2.26414e-17 
-4.7226 -2.3421 -1.28455e-15 
-4.49566 -2.34207 -2.50522e-15 
-4.26731 -2.3355 -3.49726e-15 
-4.05378 -2.3296 -3.40899e-15 
-3.84899 -2.33102 -3.15408e-15 
-3.6405 -2.33548 -3.34902e-15 
-3.43693 -2.35801 8.07147e-15 
-3.23364 -2.38771 1.14411e-14 
-3.03276 -2.39605 2.27167e-14 
-2.83689 -2.42355 5.66289e-14 
-2.63474 -2.46786 7.90974e-14 
-2.43541 -2.53737 4.47655e-14 
-2.18473 -2.58474 1.18872e-13 
-1.96655 -2.58397 1.35622e-13 
-1.75928 -2.62463 1.71963e-13 
-1.53575 -2.66152 9.30139e-14 
-1.28708 -2.6927 2.46764e-13 
-1.03558 -2.70149 2.60921e-13 
-0.836316 -2.70463 1.70446e-13 
-0.596098 -2.73513 -4.61541e-14 
-0.349322 -2.7083 -1.22804e-13 
-0.215998 -2.75373 9.27136e-14 
-0.00767667 -2.66937 -1.23388e-14 
0.2748 -2.70654 9.37206e-14 
0.468359 -2.71437 -1.60949e-13 
0.703488 -2.72767 -6.03464e-14 
0.867928 -2.63317 -1.48782e-13 
1.03144 -2.71774 -1.10524e-13 
1.30526 -2.69095 -2.96267e-13 
1.53102 -2.65632 -4.99461e-14 
1.78235 -2.62479 9.9233e-15 
1.96512 -2.62724 -1.65243e-13 
2.18236 -2.59345 -5.22741e-14 
2.4043 -2.56581 -4.94916e-14 
2.61916 -2.49667 -1.19662e-13 
2.80057 -2.45183 -3.83697e-14 
3.01856 -2.41069 -2.42822e-14 
3.22553 -2.40252 -9.98528e-15 
3.39774 -2.34382 1.58381e-15 
3.58912 -2.32852 1.38034e-15 
3.78953 -2.34224 3.90609e-15 
3.99167 -2.35292 5.14228e-15 
4.20356 -2.32131 3.97994e-15 
4.42816 -2.32106 2.95664e-15 
4.64246 -2.32977 1.54659e-15 
4.86431 -2.32589 6.03944e-17 
5.08782 -2.33852 -3.23545e-17 
5.29854 -2.34755 -6.3296e-17 
5.5128 -2.31433 1.29945e-14 
5.72451 -2.33632 -1.23512e-15 
5.92661 -2.34176 -1.42022e-15 
6.15567 -2.32405 -1.58582e-14 
6.36167 -2.31112 -7.67305e-18 
6.56834 -2.32039 -3.61141e-15 
6.77221 -2.23987 -2.07563e-15 
7.00266 -2.2991 -3.30185e-15 
7.18866 -2.40589 -4.71092e-15 
7.49061 -2.54835 2.0831e-14 
7.70804 -2.327 -1.988e-14 
7.9857 -2.22781 -2.32944e-14 
8.19087 -2.34017 3.61111e-15 
8.48528 -2.32969 2.52071e-15 
-8.48528 -1.83433 1.11826e-15 
-8.2087 -2.12493 1.93362e-14 
-8.08766 -1.92873 3.03072e-15 
-7.73505 -2.14479 8.09721e-15 
-7.52274 -2.00474 -1.23403e-14 
-7.27544 -2.38081 3.893e-15 
-7.07722 -2.03473 2.57934e-15 
-6.86443 -2.10461 -1.57861e-14 
-6.65049 -2.05496 1.75526e-14 
-6.22345 -2.10649 -2.94746e-15 
-6.0769 -1.97483 -3.76514e-15 
-5.92171 -2.15317 -4.89203e-15 
-5.71299 -2.1472 1.59902e-14 
-5.47732 -2.067 -1.06957e-15 
-5.26943 -2.08166 -3.69865e-17 
-5.04681 -2.06729 3.23233e-17 
-4.81268 -2.09156 -6.97106e-17 
-4.59567 -2.10065 -1.38869e-15 
-4.37399 -2.10199 -1.56106e-15 
-4.1631 -2.08186 -1.70884e-15 
-3.96731 -2.07618 1.19313e-14 
-3.77356 -2.09105 2.06357e-14 
-3.58016 -2.10144 3.19269e-15 
-3.38899 -2.14064 2.56912e-15 
-3.20748 -2.16865 1.67387e-14 
-3.03436 -2.19674 2.35585e-14 
-2.85354 -2.2321 4.16652e-14 
-2.682 -2.29164 6.35669e-14 
-2.50065 -2.35286 6.24893e-14 
-2.31771 -2.46391 1.25542e-13 
-2.10911 -2.4742 8.99388e-14 
-1.89018 -2.4956 -4.98844e-13 
-1.64294 -2.57561 -1.19829e-13 
-1.40789 -2.60438 3.4467e-14 
-1.18211 -2.63668 -3.75903e-13 
-0.797287 -2.59162 4.09801e-13 
-0.68878 -2.63842 2.23269e-13 
-0.479163 -2.62536 -1.21669e-14 
-0.262792 -2.65682 3.09234e-13 
-0.127252 -2.68723 -9.00391e-14 
0.249644 -2.60713 -7.53207e-14 
0.368298 -2.65376 3.89836e-13 
0.680707 -2.62305 -6.85602e-14 
1.01662 -2.62081 -1.23937e-13 
1.16446 -2.63071 1.16312e-13 
1.41252 -2.60559 -3.89154e-13 
1.65515 -2.55759 -1.97745e-14 
1.98581 -2.49764 -5.90604e-14 
2.16956 -2.46538 -1.19079e-13 
2.37303 -2.43636 -8.89461e-14 
2.54291 -2.35982 -9.06392e-14 
2.71864 -2.28772 -4.76303e-14 
2.91194 -2.27435 -3.15023e-14 
3.12109 -2.20961 -2.48169e-14 
3.27771 -2.14174 -1.46893e-14 
3.46584 -2.11235 -5.87054e-15 
3.65864 -2.09428 -1.76823e-15 
3.84562 -2.09394 -1.18115e-15 
4.03829 -2.09789 2.19612e-15 
4.26052 -2.08201 1.97232e-15 
4.47542 -2.06734 1.79813e-15 
4.69731 -2.08309 9.19879e-16 
4.9302 -2.08982 -1.79793e-17 
5.15253 -2.09256 -2.51444e-17 
5.36371 -2.09893 3.7526e-17 
5.59329 -2.0824 8.98307e-16 
5.79848 -2.09007 1.16571e-15 
6.01503 -2.11436 -1.22774e-14 
6.23184 -2.07306 2.80168e-15 
6.44786 -2.06646 2.30041e-15 
6.6452 -2.04545 2.39157e-15 
6.96779 -2.07128 4.00027e-17 
7.24971 -2.14863 -9.32765e-15 
7.43028 -2.3268 -5.00837e-15 
7.43264 -1.97139 -1.45447e-15 
7.59005 -2.12383 -3.48146e-15 
7.83157 -2.04775 -7.274e-15 
8.29392 -2.11468 8.74921e-15 
8.48528 -2.05996 -2.16925e-16 
-8.48528 -1.53286 6.32643e-17 
-8.32433 -1.93019 -4.26648e-15 
-7.89898 -1.8765 4.4986e-15 
[...]
POINT_DATA 1978 
VECTORS vectors float
-0.000432986 1.45017e-05 1 
-2.61623e-05 -0.115191 0.993343 
-0.000153062 -0.172769 0.984962 
-0.000281227 -0.0928713 0.995678 
-0.000362284 -0.000511033 1 
0.000124351 0.0210577 0.999778 
0.000292695 0.00823355 0.999966 
4.1558e-05 -0.0214509 0.99977 
-1.8145e-06 -0.0615392 0.998105 
0.000358568 -0.0875417 0.996161 
0.000162785 -0.111293 0.993788 
6.51276e-05 -0.0893698 0.995999 
0.000175953 -0.0256098 0.999672 
0.000195898 0.0056161 0.999984 
0.000239879 0.0167597 0.99986 
0.000132021 0.0157083 0.999877 
0.00010934 0.00294207 0.999996 
0.000224639 -0.00125269 0.999999 
0.000230697 0.00379507 0.999993 
0.000156191 0.0130553 0.999915 
0.000154149 0.0236273 0.999721 
0.000124644 0.0373101 0.999304 
0.000106143 0.0598572 0.998207 
0.000148507 0.0941093 0.995562 
0.000121297 0.133637 0.99103 
8.02989e-05 0.172734 0.984968 
0.000148762 0.213514 0.97694 
-1.25908e-05 0.256722 0.966485 
6.73581e-05 0.294657 0.955603 
-1.38201e-05 0.344641 0.938735 
-1.14371e-05 0.387192 0.921999 
-4.33168e-05 0.445215 0.895424 
5.82561e-05 0.476117 0.879382 
-0.000108304 0.484149 0.874985 
-1.82742e-05 0.582683 0.812699 
-0.000155734 0.649713 0.76018 
4.625e-05 0.713191 0.700969 
3.99601e-05 0.879507 0.475886 
-3.34747e-06 0.933414 0.3588 
-7.60806e-05 0.999854 -0.0170818 
6.9545e-05 0.972016 -0.234917 
-6.98389e-05 0.780305 -0.625399 
1.18374e-05 0.723703 -0.690112 
-8.62089e-05 0.652355 -0.757913 
2.60259e-05 0.58603 -0.810289 
3.08187e-05 0.491678 -0.870777 
2.81456e-05 0.457431 -0.889245 
9.46733e-06 0.423551 -0.905872 
3.12501e-05 0.3928 -0.919624 
-1.14721e-05 0.339841 -0.940483 
-2.3672e-05 0.285325 -0.958431 
-4.58336e-05 0.236599 -0.971607 
-0.000112814 0.198907 -0.980018 
-8.14461e-05 0.160373 -0.987057 
-0.000117083 0.128653 -0.99169 
-0.000189911 0.096189 -0.995363 
-0.000103763 0.0695437 -0.997579 
-0.000125013 0.0465513 -0.998916 
-0.000172866 0.0274679 -0.999623 
-0.000114354 0.0152446 -0.999884 
-0.000188847 0.00947789 -0.999955 
-0.000278015 0.00698822 -0.999976 
-0.000139359 0.00563294 -0.999984 
-0.000144537 0.00445739 -0.99999 
-0.000160906 0.00240124 -0.999997 
-9.59289e-05 -0.00556031 -0.999985 
-0.000272663 -0.0222907 -0.999751 
-0.000241406 -0.0455723 -0.998961 
-0.000119363 -0.0687989 -0.997631 
-9.77758e-05 -0.0769414 -0.997036 
-0.000203833 -0.06513 -0.997877 
-0.000110895 -0.0349143 -0.99939 
-0.000172636 -0.0160833 -0.999871 
-0.000188196 -0.00332447 -0.999994 
0.000294365 -0.0193014 -0.999814 
-5.86086e-05 -0.105603 -0.994408 
0.000365966 -0.140543 -0.990074 
-0.0004546 -0.105582 -0.99441 
0.000204612 -0.000337713 -1 
0.000623275 -1.85168e-05 1 
0.0050354 -0.0996754 0.995007 
0.0314813 -0.136827 0.990095 
0.0472513 -0.0955937 0.994298 
0.0237701 -0.0750463 0.996897 
0.0307638 -0.00256749 0.999523 
0.0214795 -0.000891088 0.999769 
0.0251007 -0.034426 0.999092 
0.0290025 -0.0587781 0.99785 
0.0162848 -0.0639841 0.997818 
0.0195008 -0.0823981 0.996409 
0.0123475 -0.0646709 0.99783 
0.0169434 -0.0300971 0.999403 
0.0176494 -0.00431557 0.999835 
0.0197502 0.00551968 0.99979 
0.0207037 0.00779855 0.999755 
0.0197385 0.00528583 0.999791 
0.0189085 0.00313771 0.999816 
0.0184579 0.00866934 0.999792 
0.0122486 0.020487 0.999715 
0.00180895 0.0364742 0.999333 
-0.0130578 0.0569543 0.998291 
-0.0326602 0.0841196 0.99592 
-0.0511279 0.115876 0.991947 
-0.0764915 0.157479 0.984555 
-0.106846 0.201596 0.973624 
-0.125408 0.23665 0.963467 
-0.134927 0.268351 0.953825 
-0.142816 0.313723 0.938713 
-0.168808 0.363217 0.916284 
-0.188755 0.406754 0.893825 
-0.116124 0.42482 0.897799 
-0.145417 0.459597 0.876142 
-0.125972 0.501679 0.855832 
-0.075667 0.554003 0.829069 
-0.13158 0.646925 0.751116 
-0.0251463 0.788733 0.614222 
-0.056886 0.830315 0.554383 
-0.00878812 0.99343 0.114104 
-0.000428985 0.990431 -0.13801 
0.00205548 0.949386 -0.314106 
0.00716288 0.857651 -0.514182 
0.081612 0.729055 -0.679572 
0.125505 0.593678 -0.794855 
0.0738702 0.545792 -0.834658 
0.141549 0.482311 -0.864489 
0.152624 0.443471 -0.883199 
0.179363 0.414735 -0.89209 
0.112487 0.373172 -0.920918 
0.124596 0.33194 -0.935036 
0.108803 0.283967 -0.952641 
0.127215 0.246131 -0.960852 
0.104914 0.209651 -0.972131 
0.099411 0.179937 -0.978642 
0.0625298 0.137476 -0.988529 
0.0423164 0.104703 -0.993603 
0.0216064 0.0762752 -0.996853 
0.00395734 0.0494967 -0.998766 
-0.00770161 0.029091 -0.999547 
-0.0162894 0.0168193 -0.999726 
-0.0182112 0.00995643 -0.999785 
-0.019652 0.00672403 -0.999784 
-0.019731 0.00409709 -0.999797 
-0.0182931 0.000657155 -0.999832 
-0.0178323 -0.00657536 -0.999819 
-0.0170849 -0.0186412 -0.99968 
-0.015275 -0.036509 -0.999217 
-0.0171422 -0.0551209 -0.998333 
-0.0186145 -0.0631799 -0.997829 
-0.020239 -0.0592599 -0.998037 
-0.0229687 -0.0476643 -0.998599 
-0.0272912 -0.0325769 -0.999097 
-0.0265668 -0.0161506 -0.999517 
-0.0284771 -0.024293 -0.999299 
-0.0247663 -0.0738348 -0.996963 
-0.0606503 -0.0855072 -0.99449 
-0.042266 -0.10605 -0.993462 
-0.0103496 -0.0868936 -0.996164 
-0.000135504 0.000127798 -1 
0.000276969 -0.000390593 1 
0.011209 -0.0644897 0.997855 
0.0520395 -0.0647497 0.996544 
0.0418516 -0.0663349 0.996919 
0.0431013 -0.0432019 0.998136 
0.0255343 -0.0293384 0.999243 
0.0384243 -0.0156958 0.999138 
0.0330659 -0.0145378 0.999347 
0.0263222 -0.0350093 0.99904 
0.0189512 -0.0496443 0.998587 
0.0163795 -0.0637514 0.997831 
0.0172077 -0.0836908 0.996343 
0.016589 -0.0521867 0.9985 
0.0137541 -0.0261968 0.999562 
0.0127219 -0.0101474 0.999868 
0.0151324 -0.000845591 0.999885 
0.0190528 0.00391466 0.999811 
0.0222668 0.00504855 0.999739 
0.0205072 0.00920008 0.999747 
0.0118617 0.0210048 0.999709 
-0.00401301 0.0410027 0.999151 
-0.0252728 0.0665797 0.997461 
-0.0541258 0.0987958 0.993635 
-0.0914521 0.13851 0.98613 
-0.127966 0.177594 0.975748 
-0.175749 0.224075 0.958594 
-0.223229 0.267425 0.937365 
-0.254779 0.300467 0.919134 
-0.255543 0.321695 0.911707 
-0.273783 0.360765 0.891567 
-0.333194 0.410872 0.848626 
-0.336148 0.446947 0.829001 
-0.274983 0.457571 0.845584 
-0.243414 0.482669 0.841297 
-0.234254 0.517046 0.823279 
-0.179993 0.580604 0.794041 
-0.0845908 0.729157 0.679098 
-0.0449314 0.897569 0.438578 
-0.023565 0.95708 0.288863 
-0.00993097 0.998925 -0.0452877 
0.0164847 0.916846 -0.398901 
0.0696923 0.78874 -0.610764 
0.101794 0.654598 -0.749093 
0.251814 0.565581 -0.785307 
0.177635 0.523015 -0.833607 
0.266474 0.465724 -0.843856 
0.29573 0.437584 -0.849155 
0.296438 0.404587 -0.86512 
0.268994 0.37833 -0.885725 
0.252881 0.341974 -0.905044 
0.238182 0.311774 -0.919819 
0.261338 0.302375 -0.916663 
0.223927 0.268284 -0.936953 
0.184349 0.233696 -0.954674 
0.131671 0.185485 -0.973785 
0.102339 0.156454 -0.982369 
0.0672922 0.119262 -0.99058 
0.0338676 0.0818691 -0.996067 
0.00901139 0.0516916 -0.998622 
-0.00609504 0.0309056 -0.999504 
-0.0166072 0.0167516 -0.999722 
-0.0210289 0.0100872 -0.999728 
-0.0213503 0.00616529 -0.999753 
-0.0191242 0.00132078 -0.999816 
-0.0165123 -0.00529131 -0.99985 
-0.0132726 -0.014902 -0.999801 
-0.0131399 -0.0274209 -0.999538 
-0.013684 -0.0431621 -0.998974 
-0.0133467 -0.0553388 -0.998378 
-0.0152893 -0.0546723 -0.998387 
-0.0205716 -0.0464111 -0.998711 
-0.0230177 -0.0394267 -0.998957 
-0.0313582 -0.0292476 -0.99908 
-0.0397191 -0.0283812 -0.998808 
-0.0338359 -0.0497167 -0.99819 
-0.0628866 -0.0590865 -0.99627 
-0.0597812 -0.067362 -0.995936 
-0.0264666 -0.0667498 -0.997419 
-0.000382679 -0.000470963 -1 
0.00050473 6.68335e-05 1 
0.0171753 -0.0509663 0.998553 
0.0239073 -0.0438466 0.998752 
0.0440661 -0.0464166 0.99795 
0.0287921 -0.0308962 0.999108 
0.0375889 -0.0232389 0.999023 
0.0226781 -0.0217879 0.999505 
0.0236591 -0.0312091 0.999233 
0.0155067 -0.0434034 0.998937 
0.00792858 -0.0582734 0.998269 
0.00210084 -0.0562568 0.998414 
0.00554433 -0.0552812 0.998455 
0.00586617 -0.0356172 0.999348 
0.00389918 -0.0185227 0.999821 
0.00818351 -0.00828647 0.999932 
0.0130594 0.000331129 0.999915 
0.016749 0.00583279 0.999843 
0.0149321 0.0109612 0.999828 
0.00640075 0.022042 0.999737 
-0.00886381 0.0425117 0.999057 
-0.0315506 0.0728159 0.996846 
-0.0608365 0.109456 0.992128 
-0.102663 0.157364 0.98219 
-0.144961 0.200095 0.968993 
-0.195666 0.247623 0.948893 
-0.252501 0.299044 0.920226 
-0.300672 0.334998 0.892957 
-0.344563 0.367489 0.863845 
-0.365773 0.382023 0.848686 
-0.365409 0.386902 0.846631 
-0.40061 0.420457 0.814081 
-0.458142 0.470998 0.753835 
-0.386055 0.461099 0.798968 
-0.366583 0.476914 0.798855 
-0.305739 0.490063 0.81631 
-0.302638 0.601191 0.739581 
-0.222245 0.667651 0.710528 
-0.125628 0.809648 0.573314 
-0.0597274 0.930296 0.361914 
-0.0182123 0.989743 0.14169 
0.0400036 0.914847 -0.401815 
0.044369 0.865723 -0.498553 
0.211769 0.64877 -0.730925 
0.31511 0.520998 -0.793264 
0.301344 0.492965 -0.816197 
0.415812 0.464213 -0.782053 
0.417656 0.44441 -0.792505 
0.408167 0.416094 -0.812567 
0.394441 0.397134 -0.828674 
0.361339 0.369219 -0.856219 
0.382068 0.386685 -0.839344 
0.341379 0.360714 -0.867955 
0.276066 0.313287 -0.908647 
0.22498 0.275983 -0.934461 
0.183725 0.243011 -0.952466 
0.134485 0.197004 -0.971135 
0.0882115 0.146696 -0.985241 
0.0517646 0.102605 -0.993374 
0.0225597 0.0655112 -0.997597 
0.0019255 0.0369143 -0.999317 
-0.00945822 0.0204985 -0.999745 
-0.0150162 0.0113531 -0.999823 
-0.0146875 0.00555535 -0.999877 
-0.0120678 -0.0012778 -0.999926 
-0.00875232 -0.00981437 -0.999914 
-0.00511619 -0.0207641 -0.999771 
-0.00419854 -0.0312923 -0.999501 
-0.00551147 -0.0433366 -0.999045 
-0.00419026 -0.0512898 -0.998675 
-0.00724153 -0.0521215 -0.998614 
-0.0100486 -0.0477577 -0.998808 
-0.0208127 -0.0339763 -0.999206 
-0.0383808 -0.027439 -0.998886 
-0.0484137 -0.0423059 -0.997931 
-0.0314287 -0.0282179 -0.999108 
-0.0472658 -0.0413561 -0.998026 
-0.0482416 -0.046458 -0.997755 
-0.0120052 -0.039105 -0.999163 
0.000296293 -5.55163e-05 -1 
0.000157573 -0.00025203 1 
0.00480582 -0.0331271 0.99944 
0.0277959 -0.0387429 0.998863 
0.0202678 -0.0288826 0.999377 
0.0135242 -0.0220618 0.999665 
0.0285766 -0.0226659 0.999335 
0.0113303 -0.0305847 0.999468 
0.00962692 -0.0405283 0.999132 
0.00598265 -0.0509045 0.998686 
0.00972946 -0.0563642 0.998363 
0.00404394 -0.0536167 0.998553 
0.000697945 -0.0467038 0.998909 
-0.000797139 -0.0392001 0.999231 
-0.000849185 -0.0263753 0.999652 
0.00458025 -0.0146446 0.999882 
0.00856181 -0.00497283 0.999951 
0.011709 0.00448038 0.999921 
0.0108122 0.0122627 0.999866 
0.00390916 0.0235516 0.999715 
-0.0100572 0.046175 0.998883 
-0.0320337 0.0807967 0.996216 
-0.0632746 0.124913 0.990148 
-0.104063 0.176886 0.978715 
-0.158577 0.239238 0.957924 
-0.210366 0.287712 0.934328 
-0.268933 0.345908 0.898901 
-0.328101 0.388225 0.86118 
-0.383938 0.425503 0.819475 
-0.429395 0.449571 0.783266 
-0.453547 0.453393 0.767287 
-0.473363 0.460418 0.750961 
-0.526209 0.494577 0.691736 
-0.537382 0.494927 0.682838 
-0.496353 0.483267 0.72117 
-0.457803 0.488767 0.742646 
-0.414569 0.482475 0.77159 
-0.273834 0.685399 0.674717 
-0.174942 0.738157 0.651552 
-0.0550266 0.965957 0.252783 
-0.0225531 0.997356 0.0690822 
0.0112306 0.976591 -0.214811 
0.16689 0.735847 -0.65626 
0.319076 0.596487 -0.736474 
0.458379 0.513559 -0.725359 
0.432571 0.492905 -0.754935 
0.518871 0.472315 -0.712525 
0.472743 0.449335 -0.758032 
0.51939 0.472492 -0.71203 
0.473798 0.444053 -0.760482 
0.480808 0.464047 -0.743965 
0.452473 0.461392 -0.763142 
0.386569 0.421425 -0.820345 
0.319254 0.374575 -0.8705 
0.292526 0.375345 -0.879514 
0.225189 0.310258 -0.923596 
0.179397 0.271856 -0.945469 
0.124393 0.206156 -0.97058 
0.0778767 0.149509 -0.985689 
0.0443138 0.101112 -0.993888 
0.0186564 0.0620799 -0.997897 
0.00100771 0.0361035 -0.999348 
-0.00817799 0.0186863 -0.999792 
-0.0106405 0.00946802 -0.999899 
-0.00932244 0.00215381 -0.999954 
-0.00667554 -0.00632643 -0.999958 
-0.00308807 -0.0159207 -0.999868 
-0.000665019 -0.026397 -0.999651 
0.00115151 -0.0360719 -0.999349 
0.00182483 -0.0444321 -0.999011 
0.000173615 -0.0497307 -0.998763 
-0.00201102 -0.0500851 -0.998743 
-0.00566908 -0.0463729 -0.998908 
-0.00859682 -0.0390838 -0.999199 
-0.018094 -0.0294484 -0.999403 
-0.0278198 -0.0318163 -0.999106 
-0.0259593 -0.0383113 -0.998929 
-0.0156003 -0.0330074 -0.999333 
-0.0354217 -0.0449156 -0.998363 
-4.75509e-05 -0.000107133 -1 
3.70117e-05 -0.000249802 1 
0.00513286 -0.023224 0.999717 
0.00590186 -0.0203626 0.999775 
0.00732576 -0.0290072 0.999552 
0.0117468 -0.0199697 0.999732 
0.00963891 -0.0219457 0.999713 
0.0130387 -0.0376351 0.999206 
0.00892107 -0.0445732 0.998966 
0.00913434 -0.04997 0.998709 
0.00679321 -0.0514841 0.998651 
0.00751876 -0.0471951 0.998857 
0.00582715 -0.0394788 0.999203 
0.00507543 -0.0318172 0.999481 
0.00722194 -0.0219584 0.999733 
0.0158052 -0.00987478 0.999826 
0.0150953 -0.000149518 0.999886 
0.0172084 0.0090603 0.999811 
0.0137436 0.0215984 0.999672 
0.00301865 0.0409669 0.999156 
-0.0144187 0.0743999 0.997124 
-0.0414355 0.121503 0.991726 
-0.0784189 0.176771 0.981123 
-0.122568 0.23669 0.963823 
-0.171237 0.290603 0.941397 
-0.22826 0.350573 0.908293 
-0.285656 0.407083 0.867573 
-0.340854 0.443086 0.829152 
-0.394858 0.480455 0.783103 
-0.448505 0.519272 0.727461 
-0.486074 0.529989 0.69487 
-0.505322 0.518865 0.689514 
-0.551781 0.536432 0.638575 
-0.595744 0.523973 0.608721 
-0.619655 0.510221 0.596407 
-0.567537 0.498825 0.655038 
-0.528402 0.482261 0.698725 
-0.270037 0.543627 0.794701 
-0.220072 0.742502 0.63266 
-0.111879 0.906944 0.406123 
0.00092259 0.991282 -0.131753 
0.0318731 0.952289 -0.303528 
0.266668 0.703272 -0.659012 
0.504823 0.519506 -0.689396 
0.572882 0.506457 -0.644444 
0.569662 0.483612 -0.664534 
0.597404 0.49358 -0.632051 
0.599094 0.503728 -0.62237 
0.563116 0.507935 -0.651845 
0.555919 0.524735 -0.644676 
0.538188 0.54888 -0.639596 
0.462284 0.507894 -0.726868 
0.389423 0.472762 -0.790472 
0.357093 0.486169 -0.797574 
0.287425 0.412669 -0.864344 
0.232648 0.375977 -0.896948 
0.167791 0.296347 -0.940226 
0.113568 0.224716 -0.967784 
0.0689859 0.168476 -0.983289 
0.0365136 0.113592 -0.992856 
0.0124545 0.0707766 -0.997414 
-0.00682446 0.0380096 -0.999254 
-0.0155527 0.0184219 -0.999709 
-0.017166 0.0081677 -0.999819 
-0.0155765 1.6374e-05 -0.999879 
-0.0131176 -0.00915887 -0.999872 
-0.00905771 -0.0193651 -0.999771 
-0.00651633 -0.0306472 -0.999509 
-0.00514241 -0.0388357 -0.999232 
-0.00429664 -0.0455766 -0.998952 
-0.00764512 -0.0480075 -0.998818 
-0.00696389 -0.047446 -0.99885 
-0.00964276 -0.0425321 -0.999049 
-0.00947215 -0.0320362 -0.999442 
-0.0162764 -0.0219633 -0.999626 
-0.0118143 -0.0173148 -0.99978 
-0.0131906 -0.0243704 -0.999616 
-0.00767877 -0.0329484 -0.999428 
-0.00622483 -0.0148208 -0.999871 
-0.000122057 -0.000264528 -1 
-0.000113659 -0.000359679 1 
0.00301264 -0.0186802 0.999821 
0.00371743 -0.0229775 0.999729 
-0.00323236 -0.0185815 0.999822 
0.00405502 -0.011802 0.999922 
0.0139943 -0.0215114 0.999671 
0.0175886 -0.0352435 0.999224 
0.0186027 -0.0464385 0.998748 
0.0181874 -0.0505621 0.998555 
0.0167754 -0.051469 0.998534 
0.015524 -0.0486573 0.998695 
0.0165588 -0.0420903 0.998977 
0.0192589 -0.0332866 0.99926 
0.0194012 -0.0245695 0.99951 
0.0239817 -0.0143295 0.99961 
0.0278803 -0.00246959 0.999608 
0.0277116 0.00602111 0.999598 
0.0256661 0.0181002 0.999507 
0.0175766 0.0406954 0.999017 
0.00143545 0.0728385 0.997343 
-0.0232655 0.12278 0.992161 
-0.0615246 0.191766 0.97951 
-0.106888 0.26158 0.959245 
-0.161614 0.331314 0.929576 
-0.217152 0.391216 0.894313 
-0.276147 0.453964 0.847148 
-0.332676 0.500355 0.799357 
-0.382997 0.533276 0.754275 
-0.434603 0.57106 0.696427 
-0.484256 0.601257 0.6356 
-0.528606 0.611913 0.588334 
-0.566569 0.618174 0.544849 
-0.565756 0.570451 0.595403 
-0.592233 0.55161 0.587355 
-0.662031 0.56982 0.486847 
-0.687798 0.515033 0.511541 
-0.611326 0.496019 0.616641 
-0.396277 0.544255 0.739426 
-0.104436 0.868174 0.485147 
-0.0347001 0.99026 0.134835 
0.119897 0.814542 -0.567579 
0.383255 0.538167 -0.750661 
0.67466 0.502513 -0.540662 
0.660569 0.497638 -0.562143 
0.694948 0.549095 -0.464264 
0.623149 0.537264 -0.56836 
0.628391 0.581556 -0.516641 
0.613176 0.597149 -0.517134 
0.56256 0.617559 -0.549678 
0.492921 0.574464 -0.653468 
0.437311 0.562796 -0.701441 
0.401702 0.581553 -0.707412 
0.338586 0.523185 -0.782072 
0.277036 0.463754 -0.841536 
0.255521 0.487845 -0.834695 
0.194002 0.379266 -0.904721 
0.135169 0.298282 -0.944858 
0.0874012 0.236135 -0.967782 
0.0461534 0.16723 -0.984837 
0.0152634 0.10828 -0.994003 
-0.00631043 0.0625649 -0.998021 
-0.0220886 0.0289234 -0.999338 
-0.0278213 0.0123314 -0.999537 
-0.0274777 0.00241165 -0.99962 
-0.0253487 -0.00699886 -0.999654 
-0.021645 -0.017338 -0.999615 
-0.0174045 -0.0272898 -0.999476 
-0.0164253 -0.0366227 -0.999194 
-0.0144436 -0.043159 -0.998964 
-0.0158109 -0.0470432 -0.998768 
-0.0153811 -0.0466315 -0.998794 
-0.017084 -0.0418917 -0.998976 
-0.0136906 -0.0343579 -0.999316 
-0.00862495 -0.0207365 -0.999748 
-0.00315766 -0.0104531 -0.99994 
-0.00125512 -0.0153524 -0.999881 
0.00469883 -0.0262416 -0.999645 
-0.00404563 -0.0213306 -0.999764 
0.000342325 -2.51029e-05 -1 
-0.000268411 -0.000292051 1 
0.00013191 -0.0234066 0.999726 
-0.00965869 -0.0284731 0.999548 
-0.00108831 -0.015236 0.999883 
0.00425073 -0.00908614 0.99995 
0.0214264 -0.0251168 0.999455 
0.0234398 -0.0385528 0.998982 
0.0258553 -0.0437261 0.998709 
0.0251866 -0.0473034 0.998563 
0.0251218 -0.0485476 0.998505 
0.0238153 -0.0470062 0.998611 
0.0243478 -0.0418326 0.998828 
0.0274184 -0.0324934 0.999096 
0.0304831 -0.0216752 0.9993 
0.0331846 -0.00966352 0.999403 
0.0363306 0.000956859 0.999339 
0.0348341 0.0118055 0.999323 
0.0294883 0.0306145 0.999096 
0.0164766 0.065934 0.997688 
-0.00330015 0.110677 0.993851 
-0.0365994 0.179507 0.983076 
-0.0822031 0.272137 0.958741 
-0.130508 0.346881 0.928785 
-0.186598 0.414758 0.890594 
-0.246091 0.478748 0.842757 
-0.301559 0.548629 0.779787 
-0.348795 0.577426 0.738188 
-0.399645 0.609072 0.685065 
-0.458493 0.652365 0.603493 
-0.507549 0.682803 0.525523 
-0.548261 0.686238 0.478003 
-0.594525 0.68824 0.415771 
-0.617742 0.651367 0.440587 
-0.631868 0.617245 0.468777 
-0.651314 0.588119 0.479485 
-0.676171 0.648377 0.349856 
-0.555681 0.505382 0.660157 
-0.516601 0.464477 0.719294 
-0.180185 0.78194 0.596744 
-0.0368777 0.992999 0.112221 
0.0705108 0.873311 -0.482033 
0.440923 0.524038 -0.728678 
0.722999 0.535742 -0.43618 
0.73544 0.599917 -0.315002 
0.691548 0.573496 -0.439163 
0.674653 0.600058 -0.429853 
0.627531 0.653357 -0.423472 
0.538275 0.684171 -0.492107 
0.491485 0.641715 -0.588766 
0.457776 0.655451 -0.600687 
0.412082 0.667103 -0.620614 
0.358227 0.609015 -0.707654 
0.315549 0.583256 -0.748493 
0.271539 0.587365 -0.76241 
0.218704 0.481216 -0.848881 
0.166299 0.395877 -0.90312 
0.11888 0.331763 -0.935842 
0.0732416 0.257641 -0.963461 
0.0342041 0.178835 -0.983284 
0.00452375 0.114827 -0.993375 
-0.0175965 0.0594458 -0.998076 
-0.0304235 0.0274145 -0.999161 
-0.0354423 0.010048 -0.999321 
-0.0350612 -0.000580192 -0.999385 
-0.032452 -0.0110264 -0.999412 
-0.0295344 -0.0212569 -0.999338 
-0.0252633 -0.0311481 -0.999195 
-0.023556 -0.0391431 -0.998956 
-0.0226949 -0.0437436 -0.998785 
-0.0215705 -0.0467845 -0.998672 
-0.0222524 -0.0452872 -0.998726 
-0.0228416 -0.0407808 -0.998907 
-0.0201347 -0.0324633 -0.99927 
-0.0132141 -0.0207701 -0.999697 
-0.00807668 -0.00867723 -0.99993 
0.00145835 -0.0121812 -0.999925 
0.00751574 -0.0212565 -0.999746 
-0.000706762 -0.0221258 -0.999755 
0.00014869 -0.000674505 -1 
-3.55607e-05 -0.000254722 1 
0.00108697 -0.0163025 0.999867 
-0.00974827 -0.0216217 0.999719 
0.00862893 -0.0110905 0.999901 
0.0136974 -0.0119586 0.999835 
0.0218816 -0.0162212 0.999629 
0.0264848 -0.0336669 0.999082 
0.0278321 -0.0429101 0.998691 
0.027717 -0.0465144 0.998533 
0.0273692 -0.0467884 0.99853 
0.0275273 -0.0439617 0.998654 
0.0298033 -0.0386747 0.998807 
0.032721 -0.031519 0.998967 
0.0346332 -0.0226711 0.999143 
0.0368109 -0.0112412 0.999259 
0.0390053 -0.000413721 0.999239 
0.0373338 0.0141854 0.999202 