# vtk DataFile Version 3.0 
Exported using Morpho https://github.com/Morpho-lang/morpho 
ASCII 
DATASET UNSTRUCTURED_GRID 

POINTS 1978 float 
-8.48528 -2.82843 -5.608e-13 
-8.25578 -2.82843 4.49703e-12 
-8.02601 -2.82843 1.11088e-11 
-7.75743 -2.82843 1.36414e-11 
-7.46419 -2.82843 1.2038e-11 
-7.22706 -2.82843 8.34383e-12 
-6.98831 -2.82843 6.84347e-12 
-6.76764 -2.82843 5.34189e-12 
-6.55515 -2.82843 4.71955e-12 
-6.33718 -2.82843 3.78559e-12 
-6.13199 -2.82843 3.25909e-12 
-5.92362 -2.82843 2.70076e-12 
-5.71274 -2.82843 2.18508e-12 
-5.51143 -2.82843 1.78464e-12 
-5.29527 -2.82843 1.39966e-12 
-5.08418 -2.82843 9.7978e-13 
-4.86953 -2.82843 5.84293e-13 
-4.65665 -2.82843 7.34586e-14 
-4.43702 -2.82843 -5.23342e-13 
-4.20893 -2.82843 -1.18499e-12 
-3.99157 -2.82843 -1.95294e-12 
-3.77996 -2.82843 -2.8814e-12 
-3.56701 -2.82843 -3.98623e-12 
-3.35777 -2.82843 -5.38874e-12 
-3.14224 -2.82843 -6.87221e-12 
-2.93349 -2.82843 -8.22501e-12 
-2.73211 -2.82843 -9.498e-12 
-2.53965 -2.82843 -1.16005e-11 
-2.32079 -2.82843 -1.33342e-11 
-2.11426 -2.82843 -1.42448e-11 
-1.89336 -2.82843 -1.4452e-11 
-1.69272 -2.82843 -1.2725e-11 
-1.48994 -2.82843 -1.12311e-11 
-1.28206 -2.82843 -2.08529e-12 
-1.10175 -2.82843 -1.64027e-11 
-0.84285 -2.82843 -1.29157e-12 
-0.620311 -2.82843 5.55332e-12 
-0.427616 -2.82843 -9.50771e-12 
-0.202426 -2.82843 5.90638e-12 
0.0226371 -2.82843 2.99888e-12 
0.225548 -2.82843 -8.21073e-12 
0.420729 -2.82843 -2.73041e-12 
0.641716 -2.82843 5.37922e-12 
0.861474 -2.82843 6.35363e-12 
1.06391 -2.82843 7.88853e-12 
1.26016 -2.82843 7.31858e-12 
1.45247 -2.82843 1.29008e-11 
1.69265 -2.82843 1.36712e-11 
1.88465 -2.82843 1.44706e-11 
2.09714 -2.82843 1.57565e-11 
2.33055 -2.82843 1.3386e-11 
2.51732 -2.82843 1.13644e-11 
2.7387 -2.82843 1.04577e-11 
2.95614 -2.82843 8.35322e-12 
3.16354 -2.82843 6.419e-12 
3.36319 -2.82843 5.27783e-12 
3.58654 -2.82843 4.02041e-12 
3.78923 -2.82843 2.80673e-12 
4.00576 -2.82843 2.06228e-12 
4.23619 -2.82843 1.22908e-12 
4.439 -2.82843 4.69769e-13 
4.65622 -2.82843 -6.52526e-14 
4.86255 -2.82843 -5.95225e-13 
5.07452 -2.82843 -1.06132e-12 
5.28698 -2.82843 -1.48905e-12 
5.5013 -2.82843 -1.88378e-12 
5.70765 -2.82843 -2.37729e-12 
5.92544 -2.82843 -2.95074e-12 
6.14985 -2.82843 -3.32714e-12 
6.35272 -2.82843 -4.06319e-12 
6.58581 -2.82843 -4.79393e-12 
6.80163 -2.82843 -5.26673e-12 
6.99938 -2.82843 -7.16235e-12 
7.25713 -2.82843 -9.30346e-12 
7.48964 -2.82843 -1.07261e-11 
7.72468 -2.82843 -1.29735e-11 
7.99203 -2.82843 -1.26528e-11 
8.18099 -2.82843 -5.70646e-12 
8.48528 -2.82843 -9.26743e-13 
-8.48528 -2.59053 2.45705e-13 
-8.25472 -2.58401 4.96066e-16 
-8.01365 -2.59057 3.01538e-15 
-7.757 -2.61238 2.35724e-15 
-7.50387 -2.64731 3.27371e-15 
-7.22387 -2.59629 1.41722e-15 
-6.97992 -2.59145 1.92289e-15 
-6.76292 -2.59201 1.81003e-15 
-6.53978 -2.58452 4.07881e-16 
-6.32826 -2.57681 1.01149e-15 
-6.10956 -2.588 8.80149e-16 
-5.89401 -2.58573 5.67282e-16 
-5.68673 -2.57207 4.958e-16 
-5.46824 -2.59133 4.1519e-16 
-5.25187 -2.58434 2.77241e-16 
-5.03441 -2.58718 1.66269e-16 
-4.81876 -2.58387 -4.89832e-14 
-4.59941 -2.59044 -1.16558e-16 
-4.37373 -2.59764 -2.53833e-16 
-4.15377 -2.58788 -4.43843e-16 
-3.94186 -2.58219 -6.61657e-16 
-3.73053 -2.58622 -9.31478e-16 
-3.52023 -2.58719 -1.27528e-15 
-3.30588 -2.59791 -1.60125e-15 
-3.09382 -2.59498 -2.0562e-15 
-2.88757 -2.58958 -2.44995e-15 
-2.69022 -2.58313 -2.95712e-15 
-2.4769 -2.61103 -3.48498e-15 
-2.25971 -2.59322 -3.60224e-15 
-2.04399 -2.60533 -3.89816e-15 
-1.82914 -2.57611 -3.96912e-15 
-1.62216 -2.57755 -3.50394e-15 
-1.41976 -2.58655 -4.4044e-15 
-1.23912 -2.51764 3.65205e-16 
-1.06142 -2.60403 4.48593e-16 
-0.829743 -2.57614 -5.46902e-16 
-0.622772 -2.52715 6.50985e-15 
-0.409089 -2.51975 -3.30277e-15 
-0.186578 -2.52112 6.10333e-15 
0.0309146 -2.5005 -3.603e-15 
0.218199 -2.44231 -7.6362e-15 
0.403562 -2.48949 1.4294e-15 
0.60925 -2.5379 -3.28378e-15 
0.833246 -2.56842 2.35937e-15 
1.05959 -2.55153 -6.7861e-15 
1.27162 -2.56961 4.94004e-15 
1.50989 -2.62204 2.53774e-15 
1.72312 -2.5721 3.41638e-15 
1.9384 -2.60155 3.54266e-15 
2.17276 -2.6258 4.42495e-15 
2.3826 -2.57576 3.34417e-15 
2.59139 -2.60597 2.43465e-15 
2.81459 -2.60353 2.91083e-15 
3.02064 -2.58821 1.92382e-15 
3.22462 -2.57778 1.68542e-15 
3.43961 -2.60341 1.45586e-15 
3.64603 -2.57643 9.83602e-16 
3.85729 -2.59029 7.39897e-16 
4.08246 -2.603 5.44386e-16 
4.29204 -2.5722 3.55885e-16 
4.50731 -2.59047 1.62753e-16 
4.7185 -2.57799 -2.89416e-14 
4.93344 -2.5867 -1.24862e-16 
5.14866 -2.58751 -2.29255e-16 
5.36734 -2.59042 -3.57641e-16 
5.58146 -2.5807 -4.78293e-16 
5.7984 -2.59153 -5.97309e-16 
6.02406 -2.59657 -7.52097e-16 
6.23944 -2.56971 -9.07579e-16 
6.45961 -2.60096 -1.09149e-15 
6.68575 -2.58227 -1.34641e-15 
6.89464 -2.55879 -1.48166e-15 
7.11968 -2.62108 -1.88887e-15 
7.36956 -2.59563 -2.03359e-15 
7.605 -2.59599 -2.44531e-15 
7.85935 -2.62205 -2.69429e-15 
8.07449 -2.53163 -2.35035e-15 
8.3019 -2.63882 -6.8075e-16 
8.48528 -2.51489 -5.17698e-14 
-8.48528 -2.34853 5.34053e-13 
-8.23356 -2.35006 8.07712e-16 
-7.99097 -2.3455 2.70068e-15 
-7.75333 -2.40253 1.52934e-15 
-7.5611 -2.23864 2.28432e-15 
-7.46421 -2.44423 1.61465e-15 
-7.17645 -2.38488 1.98752e-15 
-6.95044 -2.33911 2.26359e-15 
-6.71334 -2.36244 1.34541e-15 
-6.48616 -2.345 1.26533e-15 
-6.24923 -2.3484 1.18651e-15 
-6.03149 -2.34676 8.92691e-16 
-5.81833 -2.33331 7.04429e-16 
-5.58836 -2.34585 5.70738e-16 
-5.37127 -2.35047 4.19011e-16 
-5.14703 -2.34841 2.72264e-16 
-4.9282 -2.34486 1.31322e-16 
-4.70627 -2.35011 -3.92807e-17 
-4.48285 -2.36306 -1.9657e-16 
-4.26285 -2.35608 -4.2935e-16 
-4.04688 -2.34062 -6.59873e-16 
-3.83403 -2.34131 -9.17855e-16 
-3.62415 -2.34651 -1.28622e-15 
-3.41013 -2.36033 -1.68496e-15 
-3.19914 -2.36522 -2.2133e-15 
-2.98836 -2.35837 -2.66469e-15 
-2.78371 -2.34204 -3.28359e-15 
-2.57257 -2.37245 -4.26406e-15 
-2.36216 -2.3824 -4.863e-15 
-2.12902 -2.3669 -5.24747e-15 
-1.91717 -2.36037 -5.84669e-15 
-1.67804 -2.33148 -5.16775e-15 
-1.46549 -2.32216 -1.61197e-15 
-1.24314 -2.25975 -4.76366e-15 
-1.01792 -2.35753 -8.74401e-16 
-0.805437 -2.29644 -1.05381e-16 
-0.598922 -2.21208 5.6477e-15 
-0.402359 -2.22638 1.30513e-15 
-0.187174 -2.20978 3.66994e-15 
0.00743362 -2.14157 2.01665e-14 
0.197573 -2.08792 -1.08497e-14 
0.404915 -2.12795 2.2102e-15 
0.594343 -2.21673 -3.27999e-15 
0.802331 -2.29153 -3.57877e-15 
1.01825 -2.30463 5.65482e-15 
1.24535 -2.31369 3.71622e-15 
1.46525 -2.39294 5.56267e-15 
1.66135 -2.32475 6.2638e-15 
1.87871 -2.3558 5.35842e-15 
2.09108 -2.40589 4.84277e-15 
2.29964 -2.36933 6.3266e-15 
2.53846 -2.36146 3.79597e-15 
2.74838 -2.38652 3.45456e-15 
2.9654 -2.34791 2.85849e-15 
3.16732 -2.33924 2.39562e-15 
3.38483 -2.36445 1.68675e-15 
3.58798 -2.3387 1.4386e-15 
3.80121 -2.34527 9.80315e-16 
4.01471 -2.37033 6.88171e-16 
4.22468 -2.33463 4.54703e-16 
4.44462 -2.34541 2.51512e-16 
4.65301 -2.33567 7.92784e-17 
4.86878 -2.34499 -7.12866e-17 
5.08318 -2.34652 -2.10096e-16 
5.29879 -2.35463 -3.60917e-16 
5.51479 -2.34328 -5.1528e-16 
5.73451 -2.34937 -6.52742e-16 
5.95337 -2.36376 -7.97222e-16 
6.1701 -2.33486 -1.06013e-15 
6.40029 -2.35145 -1.22831e-15 
6.61358 -2.35244 -1.46326e-15 
6.83276 -2.31011 -1.71937e-15 
7.06287 -2.36572 -1.93871e-15 
7.27998 -2.38998 -2.10444e-15 
7.53457 -2.3612 -2.53084e-15 
7.77903 -2.39628 -2.13679e-15 
7.99214 -2.30317 -2.4356e-15 
8.25548 -2.36277 -3.71912e-16 
8.48528 -2.26865 -3.92891e-14 
-8.48528 -2.08407 3.42719e-13 
-8.26717 -2.11411 -3.01581e-16 
-8.03615 -2.09892 9.73938e-16 
-7.79516 -2.14651 9.77751e-16 
-7.525 -2.02143 6.30831e-16 
-7.30543 -2.21886 1.5743e-15 
-7.0634 -2.11487 5.39081e-16 
-6.80851 -2.12891 9.76895e-16 
-6.59116 -2.11603 7.47094e-16 
-6.35691 -2.13035 6.55997e-16 
-6.12943 -2.10489 4.63631e-16 
-5.91956 -2.09488 3.24028e-16 
-5.69302 -2.11514 2.54827e-16 
-5.47066 -2.10891 1.68706e-16 
-5.25356 -2.11804 1.2131e-16 
-5.03347 -2.10972 3.89113e-17 
-4.81239 -2.11377 -4.54239e-17 
-4.59055 -2.12429 -1.29816e-16 
-4.37518 -2.12507 -2.30326e-16 
-4.16167 -2.11007 -3.37365e-16 
-3.947 -2.10118 -4.19386e-16 
-3.7365 -2.10388 -5.91047e-16 
-3.52466 -2.11993 -7.71253e-16 
-3.3153 -2.12946 -1.02777e-15 
-3.10655 -2.13137 -1.29513e-15 
-2.8999 -2.11576 -1.4486e-15 
-2.681 -2.12405 -1.82073e-15 
-2.47407 -2.14547 -2.16231e-15 
-2.25622 -2.16249 -3.26512e-15 
-2.02714 -2.11869 -2.91745e-15 
-1.80245 -2.13539 -3.26283e-15 
-1.56871 -2.07298 -2.6834e-15 
-1.36117 -2.05154 1.08045e-15 
-1.15021 -1.92381 2.82201e-15 
-1.03713 -2.1088 -3.36511e-14 
-0.801895 -2.03391 -7.01388e-15 
-0.581056 -1.90556 6.31331e-15 
-0.360879 -1.93482 -7.41182e-15 
-0.145737 -1.88316 -2.60435e-15 
0.0678673 -1.77895 1.97437e-14 
0.310288 -1.81311 -1.59876e-14 
0.187428 -1.54267 2.71737e-15 
0.550221 -1.86135 -2.69099e-15 
0.757279 -1.98963 -3.06175e-15 
0.968404 -2.0247 -5.52297e-16 
1.18199 -2.06176 1.72977e-16 
1.41887 -2.1366 2.47439e-15 
1.64329 -2.09159 1.81838e-15 
1.87595 -2.11705 3.5442e-15 
2.09484 -2.16809 4.0656e-15 
2.34062 -2.16571 3.43387e-15 
2.56874 -2.13121 2.15974e-15 
2.77977 -2.15445 2.63112e-15 
2.98555 -2.0993 1.33558e-15 
3.2098 -2.12037 1.1373e-15 
3.41073 -2.11631 9.26137e-16 
3.62575 -2.10517 6.14171e-16 
3.84115 -2.1142 5.5655e-16 
4.04489 -2.12335 3.76061e-16 
4.27071 -2.10531 2.50648e-16 
4.47825 -2.09914 1.37356e-16 
4.69672 -2.10098 5.80454e-17 
4.91088 -2.10795 1.78463e-15 
5.12766 -2.11075 -8.30301e-17 
5.34157 -2.11676 -1.57503e-16 
5.56354 -2.11139 -2.11519e-16 
5.78398 -2.11695 -3.05822e-16 
5.99568 -2.11904 -4.10188e-16 
6.23183 -2.11246 -4.91397e-16 
6.44619 -2.10442 -6.04868e-16 
6.65757 -2.10222 -7.13349e-16 
6.90753 -2.09664 -6.24251e-16 
7.12251 -2.12488 -7.80137e-16 
7.35068 -2.16959 -1.28466e-15 
7.54005 -2.07186 -7.3674e-16 
7.72811 -2.16197 -1.27787e-15 
7.95041 -2.07227 -2.47799e-16 
8.20415 -2.13722 -8.33162e-16 
8.48528 -2.06831 -2.99468e-13 
-8.48528 -1.78991 2.80622e-13 
-8.29376 -1.86195 -9.57912e-16 
-7.89163 -1.89515 -4.3261e-16 
[...]
POINT_DATA 1978 
VECTORS vectors float
-0.000962992 -0.00214139 0.999997 
0.000215756 -0.0609194 0.998143 
0.000324868 -0.0836042 0.996499 
7.48494e-05 -0.0800502 0.996791 
8.70564e-05 -0.0685401 0.997648 
9.11779e-05 -0.0579114 0.998322 
0.000199363 -0.0461239 0.998936 
0.000176218 -0.0382704 0.999267 
0.0001716 -0.0315273 0.999503 
0.000167449 -0.0262763 0.999655 
9.52237e-05 -0.0218924 0.99976 
0.000157318 -0.0181916 0.999835 
0.00011222 -0.0148585 0.99989 
0.000129233 -0.0119249 0.999929 
0.000196598 -0.00902907 0.999959 
0.000184675 -0.00638063 0.99998 
0.000152298 -0.00369422 0.999993 
0.000170588 -0.00050223 1 
0.000277475 0.00326189 0.999995 
0.000257473 0.00785389 0.999969 
0.000153771 0.0134028 0.99991 
0.000148073 0.0200962 0.999798 
0.000145057 0.0284793 0.999594 
0.000175281 0.0387629 0.999248 
0.000202692 0.0518993 0.998652 
8.15489e-05 0.0678588 0.997695 
-3.61957e-05 0.0874597 0.996168 
8.54727e-05 0.110774 0.993846 
0.000170582 0.144223 0.989545 
0.00016799 0.184146 0.982899 
9.20974e-05 0.238245 0.971205 
3.94376e-05 0.299574 0.954073 
3.9903e-05 0.374897 0.927066 
-1.29021e-05 0.470286 0.882514 
2.80987e-05 0.554042 0.832489 
8.90824e-05 0.697751 0.716341 
2.3835e-05 0.812016 0.583636 
-1.84146e-05 0.903253 0.429109 
7.11523e-06 0.977761 0.209721 
7.37563e-06 0.999531 -0.0306222 
-3.89539e-06 0.971986 -0.235037 
-1.81722e-06 0.907565 -0.419912 
-3.58817e-05 0.802272 -0.596959 
-4.56436e-05 0.6819 -0.731445 
3.72301e-05 0.573521 -0.819191 
3.73211e-05 0.476276 -0.879296 
-0.000181071 0.389416 -0.921062 
-8.04607e-05 0.29882 -0.95431 
-6.99791e-06 0.240186 -0.970727 
-0.000259179 0.188818 -0.982012 
-9.17269e-05 0.143471 -0.989654 
-2.51609e-05 0.114226 -0.993455 
-0.000271299 0.0871142 -0.996198 
-0.000167117 0.0665032 -0.997786 
-1.68634e-05 0.0508682 -0.998705 
-0.000188292 0.0387804 -0.999248 
-0.00016574 0.0281418 -0.999604 
-0.000100726 0.0200908 -0.999798 
-0.000302365 0.01349 -0.999909 
-0.000211019 0.00782968 -0.999969 
-0.000114186 0.00342082 -0.999994 
-0.000162841 -0.000491669 -1 
-0.000136544 -0.00381057 -0.999993 
-0.00017448 -0.00682943 -0.999977 
-0.000205058 -0.00956445 -0.999954 
-0.000111785 -0.0123809 -0.999923 
-0.000160116 -0.0153417 -0.999882 
-0.000278652 -0.0185466 -0.999828 
-0.000118851 -0.0223207 -0.999751 
-0.000223185 -0.0266121 -0.999646 
-0.000298275 -0.0321722 -0.999482 
3.11731e-05 -0.0393934 -0.999224 
-0.000205738 -0.0480528 -0.998845 
-0.000333569 -0.0609524 -0.998141 
-0.000151541 -0.0737344 -0.997278 
-0.000288409 -0.0837451 -0.996487 
-0.000137068 -0.0905166 -0.995895 
-0.000881578 -0.07511 -0.997175 
0.000463879 -0.00141364 -0.999999 
-0.00101237 -4.61265e-05 0.999999 
0.0155993 -0.0519324 0.998529 
0.0261559 -0.0744936 0.996878 
0.0277979 -0.0781543 0.996554 
0.0273503 -0.0692096 0.997227 
0.031132 -0.0556896 0.997963 
0.0341227 -0.0464492 0.998338 
0.0353371 -0.038598 0.99863 
0.0355617 -0.0312314 0.998879 
0.0373888 -0.0258463 0.998966 
0.0375706 -0.0214034 0.999065 
0.037388 -0.0174453 0.999149 
0.0390742 -0.0140377 0.999138 
0.0373618 -0.0110209 0.999241 
0.0380955 -0.00820087 0.99924 
0.0376976 -0.00542487 0.999274 
0.0379432 -0.00253512 0.999277 
0.0369632 0.000805993 0.999316 
0.0358369 0.00493617 0.999345 
0.0369685 0.00986659 0.999268 
0.0372601 0.015624 0.999183 
0.0365251 0.0227031 0.999075 
0.03609 0.0314858 0.998852 
0.0341923 0.0426576 0.998504 
0.0337505 0.0566271 0.997825 
0.0330469 0.0737313 0.99673 
0.0320356 0.0940908 0.995048 
0.0270347 0.121189 0.992261 
0.0257377 0.157099 0.987247 
0.0216472 0.202377 0.979068 
0.0201975 0.259108 0.965637 
0.0162298 0.327246 0.9448 
0.0124778 0.408945 0.912474 
0.0111304 0.491699 0.870694 
0.00573124 0.596705 0.80244 
0.00410964 0.7163 0.69778 
0.00271351 0.818789 0.574089 
0.00140342 0.911261 0.411827 
0.000941303 0.977358 0.211592 
-0.000486267 0.999869 -0.016153 
-0.00209273 0.971801 -0.235791 
-0.00309659 0.914401 -0.404798 
-0.00384694 0.826793 -0.562493 
-0.00567681 0.703502 -0.71067 
-0.00877771 0.580691 -0.814077 
-0.0115557 0.473162 -0.8809 
-0.0130608 0.368295 -0.929617 
-0.0186944 0.29122 -0.956473 
-0.0205198 0.228541 -0.973318 
-0.0224852 0.174177 -0.984458 
-0.0292482 0.137551 -0.990063 
-0.0279217 0.106623 -0.993907 
-0.0309245 0.0810814 -0.996228 
-0.0334811 0.0625176 -0.997482 
-0.0356523 0.0482236 -0.9982 
-0.034087 0.0358694 -0.998775 
-0.0371773 0.02651 -0.998957 
-0.0360574 0.0187104 -0.999175 
-0.0351393 0.011973 -0.999311 
-0.0387469 0.00693472 -0.999225 
-0.0371229 0.00257215 -0.999307 
-0.0385935 -0.00105973 -0.999254 
-0.0379062 -0.00436986 -0.999272 
-0.0377684 -0.00736031 -0.999259 
-0.0377087 -0.010273 -0.999236 
-0.038685 -0.0130955 -0.999166 
-0.0370616 -0.0162115 -0.999181 
-0.0363432 -0.0198952 -0.999141 
-0.038808 -0.023895 -0.998961 
-0.0345483 -0.0289853 -0.998983 
-0.0362118 -0.0356762 -0.998707 
-0.0375947 -0.0433543 -0.998352 
-0.0302185 -0.0531789 -0.998128 
-0.0324365 -0.0652093 -0.997344 
-0.0317271 -0.0758087 -0.996617 
-0.0276927 -0.0837165 -0.996105 
-0.0292903 -0.0719132 -0.996981 
-0.0111675 -0.0455929 -0.998898 
0.00128396 0.000115682 -0.999999 
-0.00060397 -0.000491508 1 
0.0244229 -0.0488075 0.99851 
0.0419478 -0.0732541 0.996431 
0.0437294 -0.0750689 0.996219 
0.0511401 -0.0680165 0.996373 
0.0420772 -0.0649879 0.996999 
0.0493822 -0.053699 0.997335 
0.0539915 -0.0450617 0.997524 
0.0530162 -0.0365302 0.997925 
0.0555142 -0.0294998 0.998022 
0.0570254 -0.0236745 0.998092 
0.0573432 -0.019205 0.99817 
0.0580381 -0.0155366 0.998193 
0.0581056 -0.0122165 0.998236 
0.058129 -0.00931964 0.998266 
0.0580814 -0.00642459 0.998291 
0.0581693 -0.00353035 0.9983 
0.0576362 -0.000322981 0.998338 
0.0565673 0.00344064 0.998393 
0.0565438 0.00788834 0.998369 
0.0566908 0.0132524 0.998304 
0.0560092 0.0197275 0.998235 
0.0552749 0.0276576 0.998088 
0.0538745 0.0377426 0.997834 
0.0524507 0.050216 0.99736 
0.0509251 0.0660359 0.996517 
0.0492605 0.0853043 0.995136 
0.0453958 0.109945 0.9929 
0.0409658 0.140852 0.989183 
0.0362091 0.18552 0.981973 
0.0313339 0.236966 0.971013 
0.0252622 0.309768 0.950477 
0.0195223 0.390224 0.920513 
0.0148429 0.485571 0.874071 
0.00948 0.599352 0.800429 
0.00634154 0.710608 0.70356 
0.00333463 0.824343 0.56608 
0.000967901 0.917867 0.396887 
-0.000567044 0.980325 0.19739 
-0.0018797 0.999612 -0.027785 
-0.00247303 0.978471 -0.206371 
-0.00321419 0.90767 -0.419671 
-0.00520741 0.821824 -0.569718 
-0.00813138 0.713073 -0.701043 
-0.0123155 0.592011 -0.805836 
-0.0169062 0.479221 -0.877531 
-0.0207533 0.382776 -0.923608 
-0.0268796 0.313157 -0.949321 
-0.0314702 0.245763 -0.968819 
-0.0348658 0.192425 -0.980692 
-0.0412108 0.15143 -0.987609 
-0.0445552 0.114642 -0.992407 
-0.0468398 0.0888236 -0.994945 
-0.0507471 0.0677851 -0.996409 
-0.0530061 0.0525426 -0.997211 
-0.0532319 0.0393875 -0.997805 
-0.0555369 0.0295445 -0.998019 
-0.0558472 0.0212301 -0.998214 
-0.0551674 0.0144069 -0.998373 
-0.0574731 0.00908283 -0.998306 
-0.0574157 0.0043545 -0.998341 
-0.0582006 0.000565251 -0.998305 
-0.0581429 -0.00289847 -0.998304 
-0.0583242 -0.00596589 -0.99828 
-0.0581219 -0.00884581 -0.99827 
-0.0587307 -0.0116864 -0.998205 
-0.0581295 -0.0147794 -0.9982 
-0.0569618 -0.018239 -0.99821 
-0.0579521 -0.0221465 -0.998074 
-0.0561148 -0.0273525 -0.99805 
-0.0551359 -0.0334233 -0.997919 
-0.05573 -0.0411853 -0.997596 
-0.0522439 -0.0505457 -0.997354 
-0.0498255 -0.0600093 -0.996954 
-0.0494907 -0.0700326 -0.996316 
-0.0461349 -0.0787873 -0.995823 
-0.0451692 -0.0749567 -0.996163 
-0.0232824 -0.0466478 -0.99864 
0.000905722 -0.000672828 -0.999999 
-0.000688986 1.62549e-05 1 
0.020964 -0.0433677 0.998839 
0.0390374 -0.0676453 0.996945 
0.0475166 -0.0744222 0.996094 
0.0486585 -0.0668102 0.996579 
0.0531911 -0.0594467 0.996813 
0.0538133 -0.0503027 0.997283 
0.0556874 -0.039799 0.997655 
0.0570834 -0.0326052 0.997837 
0.0583138 -0.0259894 0.99796 
0.0583985 -0.0208011 0.998077 
0.0586717 -0.016941 0.998134 
0.0594407 -0.0134639 0.998141 
0.0593741 -0.0103585 0.998182 
0.0595248 -0.0075183 0.998199 
0.0592116 -0.00464971 0.998235 
0.0590555 -0.00156978 0.998253 
0.058984 0.00193928 0.998257 
0.0584391 0.00595162 0.998273 
0.0576321 0.0107687 0.99828 
0.0567436 0.0167242 0.998249 
0.056015 0.0238747 0.998144 
0.0554131 0.0328703 0.997922 
0.054351 0.0439612 0.997554 
0.0527392 0.0578956 0.996929 
0.0502405 0.0753451 0.995891 
0.0473097 0.098477 0.994014 
0.0440355 0.126148 0.991034 
0.0399361 0.162536 0.985894 
0.0337214 0.212844 0.976504 
0.028126 0.274204 0.96126 
0.0210137 0.355704 0.934363 
0.0157011 0.437825 0.898923 
0.0103915 0.545091 0.838313 
0.00990847 0.588826 0.808199 
0.00574705 0.716495 0.697568 
0.00264087 0.833179 0.552997 
-0.000104713 0.934268 0.356571 
-0.00231904 0.988433 0.151641 
-0.00544242 0.99929 -0.0372731 
-0.00646237 0.958096 -0.286374 
-0.00717753 0.962418 -0.271476 
-0.00687739 0.861676 -0.507413 
-0.00703881 0.749775 -0.661656 
-0.00997461 0.638818 -0.769293 
-0.0137547 0.522242 -0.852687 
-0.0196231 0.409834 -0.911949 
-0.0247066 0.326638 -0.944827 
-0.0310524 0.251452 -0.967372 
-0.0367816 0.194457 -0.980221 
-0.042088 0.145527 -0.988459 
-0.0457663 0.111886 -0.992667 
-0.0494898 0.0860479 -0.995061 
-0.0507472 0.0674314 -0.996432 
-0.0531842 0.0506652 -0.997299 
-0.0544964 0.0387998 -0.99776 
-0.055548 0.0286111 -0.998046 
-0.0567367 0.0203452 -0.998182 
-0.0574414 0.0141097 -0.998249 
-0.0579206 0.00846597 -0.998285 
-0.0581333 0.00416023 -0.9983 
-0.0586336 0.000259014 -0.99828 
-0.0591363 -0.00311021 -0.998245 
-0.0593876 -0.00613973 -0.998216 
-0.0596502 -0.00898561 -0.998179 
-0.0596238 -0.0119595 -0.998149 
-0.059532 -0.0151399 -0.998112 
-0.059201 -0.0186125 -0.998073 
-0.0586745 -0.0232953 -0.998005 
-0.0576387 -0.0285672 -0.997929 
-0.0566853 -0.0350847 -0.997775 
-0.0553134 -0.0445356 -0.997475 
-0.0543221 -0.0533973 -0.997095 
-0.0535731 -0.0625419 -0.996603 
-0.0507261 -0.0688734 -0.996335 
-0.0504176 -0.0750866 -0.995902 
-0.0451755 -0.0755503 -0.996118 
-0.0305663 -0.0521321 -0.998172 
0.000822839 -0.000609209 -0.999999 
-0.000865556 -4.43539e-05 1 
0.0155591 -0.0403364 0.999065 
0.0403285 -0.0752944 0.996346 
0.0432509 -0.0717309 0.996486 
0.0431526 -0.0642489 0.997 
0.0497963 -0.0594888 0.996986 
0.0471623 -0.0544106 0.997404 
0.0509249 -0.045557 0.997663 
0.0508993 -0.0368067 0.998025 
0.0531451 -0.0296192 0.998147 
0.0535132 -0.0237198 0.998285 
0.0526763 -0.0190526 0.99843 
0.053779 -0.0151848 0.998437 
0.0540836 -0.0119609 0.998465 
0.0538259 -0.00894226 0.99851 
0.0538606 -0.006192 0.998529 
0.0535304 -0.00322533 0.998561 
0.0534976 6.98023e-05 0.998568 
0.053191 0.00371469 0.998577 
0.0524984 0.00794982 0.998589 
0.0516718 0.0131275 0.998578 
0.0507617 0.019447 0.998521 
0.0503349 0.0272237 0.998361 
0.0497165 0.0366836 0.998089 
0.0487321 0.048513 0.997633 
0.0469772 0.0631811 0.996896 
0.0445334 0.0827301 0.995576 
0.0413735 0.107039 0.993394 
0.0382956 0.137106 0.989816 
0.0342842 0.176977 0.983618 
0.0277831 0.23609 0.971334 
0.0228052 0.301485 0.953198 
0.0166463 0.376355 0.926326 
0.0122345 0.466492 0.884441 
0.00614651 0.668488 0.743698 
0.00280243 0.793437 0.608646 
-0.000786373 0.91145 0.411409 
-0.00271346 0.957162 0.28954 
-0.00401685 0.98643 0.164132 
-0.00407778 0.997514 -0.0703516 
-0.0012106 0.996273 -0.0862455 
-0.00422462 0.929041 -0.369953 
-0.00771959 0.85617 -0.516636 
-0.00801059 0.719867 -0.694066 
-0.00935166 0.609768 -0.792525 
-0.0119163 0.510422 -0.859841 
-0.0157179 0.437966 -0.898854 
-0.0189566 0.365774 -0.930511 
-0.0248468 0.280606 -0.959501 
-0.0307626 0.215139 -0.976099 
-0.0358728 0.167695 -0.985186 
-0.0395966 0.12807 -0.990974 
-0.0434577 0.0955526 -0.994475 
-0.0445718 0.0766614 -0.99606 
-0.0474635 0.0575143 -0.997216 
-0.0484861 0.0435525 -0.997874 
-0.0497338 0.0327766 -0.998225 
-0.0508629 0.023487 -0.998429 
-0.0513883 0.0164875 -0.998543 
-0.0524713 0.0108267 -0.998564 
-0.0520312 0.00591924 -0.998628 
-0.0528188 0.00186625 -0.998602 
-0.0532351 -0.00176297 -0.99858 
-0.0536532 -0.00487511 -0.998548 
-0.0539186 -0.00782367 -0.998515 
-0.0542324 -0.0106631 -0.998471 
-0.0541418 -0.0138147 -0.998438 
-0.0537432 -0.0172605 -0.998406 
-0.0540163 -0.0214279 -0.99831 
-0.052477 -0.0268422 -0.998261 
-0.0514768 -0.0333101 -0.998119 
-0.051285 -0.0413442 -0.997828 
-0.0492156 -0.0515037 -0.997459 
-0.049129 -0.0603204 -0.996969 
-0.0454585 -0.0682678 -0.996631 
-0.0440164 -0.0749059 -0.996219 
-0.0365966 -0.0709449 -0.996809 
-0.0236938 -0.0471743 -0.998606 
0.000952405 -0.000537637 -0.999999 
-0.000846871 -0.00042886 1 
0.0150417 -0.0425855 0.99898 
0.0293773 -0.0616175 0.997667 
0.0344738 -0.0762089 0.996496 
0.0378309 -0.07177 0.996704 
0.0404176 -0.0602341 0.997366 
0.0432833 -0.0497078 0.997825 
0.0450781 -0.0417369 0.998111 
0.0458331 -0.0322063 0.99843 
0.0468357 -0.0260867 0.998562 
0.0460532 -0.0209532 0.998719 
0.0462984 -0.0163054 0.998795 
0.0467521 -0.0129064 0.998823 
0.0469106 -0.00990147 0.99885 
0.0463543 -0.00697016 0.998901 
0.0464443 -0.0041542 0.998912 
0.046317 -0.000900667 0.998926 
0.0458707 0.00271255 0.998944 
0.0451952 0.00677058 0.998955 
0.0445837 0.0115955 0.998938 
0.0437634 0.0175458 0.998888 
0.0433272 0.0250012 0.998748 
0.0428158 0.0340478 0.998503 
0.0422268 0.045201 0.998085 
0.0408333 0.0591364 0.997414 
0.0391267 0.0771027 0.996255 
0.0362807 0.100689 0.994256 
0.0331793 0.131451 0.990767 
0.0302924 0.168914 0.985165 
0.0256569 0.220006 0.975161 
0.0193062 0.297802 0.954433 
0.0134071 0.386109 0.922356 
0.00961487 0.482553 0.875814 
0.00530428 0.587886 0.808926 
0.00807417 0.574605 0.818391 
0.00416381 0.687813 0.725876 
-0.000354084 0.853546 0.521017 
-0.00138957 0.884836 0.4659 
-0.000185739 0.977473 0.211059 
0.00160221 0.999126 0.0417792 
-0.00144518 0.99365 -0.112507 
-0.00389322 0.943689 -0.330812 
-0.00483764 0.837819 -0.545927 
-0.00525119 0.780911 -0.62462 
-0.00646756 0.645345 -0.763864 
-0.0087755 0.541241 -0.840822 
-0.0127024 0.4302 -0.902644 
-0.0178861 0.336045 -0.941676 
-0.0229023 0.256684 -0.966224 
-0.0274835 0.200032 -0.979404 
-0.0320932 0.156651 -0.987132 
-0.0364896 0.116301 -0.992543 
-0.0362997 0.0923975 -0.99506 
-0.0399191 0.0693933 -0.99679 
-0.0412565 0.0533489 -0.997723 
-0.0417164 0.0405559 -0.998306 
-0.0434015 0.0299648 -0.998608 
-0.0437579 0.0217495 -0.998805 
-0.0442579 0.0150093 -0.998907 
-0.0452926 0.0096393 -0.998927 
-0.0446674 0.00486749 -0.99899 
-0.0457374 0.000912747 -0.998953 
-0.0457129 -0.00248844 -0.998952 
-0.0464369 -0.00557768 -0.998906 
-0.0465069 -0.00842552 -0.998882 
-0.0472039 -0.0113299 -0.998821 
-0.0468185 -0.0144597 -0.998799 
-0.0467485 -0.0182252 -0.99874 
-0.0469919 -0.0226577 -0.998638 
-0.0451677 -0.0284396 -0.998575 
-0.0447447 -0.0358958 -0.998353 
-0.0451895 -0.0447744 -0.997975 
-0.0423771 -0.0538618 -0.997649 
-0.0430716 -0.0615953 -0.997171 
-0.0392252 -0.0694445 -0.996814 
-0.0383043 -0.0751409 -0.996437 
-0.0315452 -0.0721997 -0.996891 
-0.0186002 -0.0440377 -0.998857 
0.000941689 -0.000620857 -0.999999 
-0.000653632 -0.000652233 1 
0.014877 -0.0483876 0.998718 
0.0264163 -0.0692466 0.99725 
0.0295661 -0.0760253 0.996667 
0.0348031 -0.0681314 0.997069 
0.032193 -0.0627125 0.997512 
0.0362668 -0.0541283 0.997875 
0.0353409 -0.0443029 0.998393 
0.0389373 -0.0365396 0.998573 
0.0373728 -0.0287979 0.998886 
0.0375608 -0.0234294 0.99902 
0.0382786 -0.0183545 0.999099 
0.0375219 -0.0143758 0.999192 
0.0379383 -0.0112941 0.999216 
0.0380995 -0.00845756 0.999238 
0.0372337 -0.00562129 0.999291 
0.0377347 -0.0026934 0.999284 
0.0372458 0.000649225 0.999306 
0.0363698 0.00435187 0.999329 
0.0358103 0.00865097 0.999321 
0.0354508 0.0138523 0.999275 
0.0350428 0.0204077 0.999177 
0.0345543 0.0283998 0.998999 
0.0341531 0.0382721 0.998684 
0.0335113 0.050427 0.998165 
0.0323707 0.0662363 0.997279 
0.0306712 0.086676 0.995764 
0.0281716 0.114632 0.993009 
0.0252859 0.151218 0.988177 
0.0227779 0.195679 0.980403 
0.0186237 0.261524 0.965017 
0.0126717 0.349451 0.936869 
0.00759629 0.465049 0.885252 
0.00432159 0.571717 0.82044 
0.000664009 0.76001 0.649911 
0.000103969 0.828365 0.560188 
0.0014363 0.919895 0.392162 
0.00331577 0.952837 0.303464 
0.00143852 0.987321 0.158727 
0.00291086 0.993861 0.110594 
-0.00053116 0.99424 -0.107179 
-0.00139479 0.986563 -0.163377 
-0.00339077 0.92948 -0.368856 
-0.00360802 0.803881 -0.59478 
-0.00444331 0.700561 -0.713579 
-0.00603731 0.550327 -0.834927 
-0.00916284 0.438773 -0.898551 
-0.013327 0.350482 -0.936475 
-0.0175534 0.273067 -0.961835 
-0.0212791 0.209357 -0.977608 
-0.0251009 0.16173 -0.986516 
-0.0294811 0.127589 -0.991389 
-0.0277119 0.106804 -0.993894 
-0.0315845 0.0800366 -0.996291 
-0.0328049 0.0616354 -0.997559 
-0.0332491 0.0469775 -0.998342 
-0.0344175 0.0347135 -0.998804 
-0.0349476 0.0256416 -0.99906 
-0.0353971 0.0181028 -0.999209 
-0.0358305 0.011951 -0.999286 
-0.0364603 0.00711604 -0.99931 
-0.0364086 0.00248898 -0.999334 
-0.0366607 -0.00103704 -0.999327 
-0.0371838 -0.00434612 -0.999299 
-0.0373916 -0.00722848 -0.999275 
-0.0380612 -0.0101354 -0.999224 
-0.0381394 -0.0130966 -0.999187 
-0.0382315 -0.0166992 -0.999129 
-0.0381593 -0.0211525 -0.999048 
-0.0374453 -0.0263598 -0.998951 
-0.0367864 -0.0338837 -0.998749 
-0.0373225 -0.043272 -0.998366 
-0.0354578 -0.0541886 -0.997901 
-0.035273 -0.0641327 -0.997318 
-0.0314369 -0.0716811 -0.996932 
-0.0317236 -0.0765209 -0.996563 
-0.0258108 -0.0749179 -0.996856 
-0.0181453 -0.0498839 -0.99859 
0.000723953 -0.000622224 -1 
-0.000495676 -0.000727707 1 
0.0114027 -0.048521 0.998757 
0.0228922 -0.0751108 0.996912 
0.022171 -0.0775971 0.996738 
0.0274394 -0.0718468 0.997038 
0.0255719 -0.0644184 0.997595 
0.0282264 -0.0529011 0.998201 
0.0270162 -0.0427007 0.998723 
0.0299376 -0.0345246 0.998955 
0.0272606 -0.0277906 0.999242 
0.0292262 -0.0218052 0.999335 
0.0294349 -0.0171148 0.99942 
0.0282299 -0.0133641 0.999512 
0.0288733 -0.0103661 0.999529 
0.0288424 -0.00756534 0.999555 
0.0280537 -0.00462694 0.999596 
0.0285299 -0.00157539 0.999592 
0.0275715 0.00190191 0.999618 
0.0268066 0.00587846 0.999623 
0.0265926 0.0106412 0.99959 
0.0266114 0.0164693 0.99951 
0.0261929 0.0236806 0.999376 
0.0258412 0.03262 0.999134 
0.0254097 0.0436468 0.998724 
0.0249451 0.0574964 0.998034 
0.023902 0.0755167 0.996858 
0.0224657 0.0994539 0.994789 
0.020268 0.131251 0.991142 
0.0178526 0.173143 0.984735 
0.0163433 0.225301 0.974152 
0.0128128 0.292641 0.956137 
0.00830713 0.396499 0.917998 
0.00468448 0.50319 0.864163 
0.00248276 0.619216 0.785217 
0.00115881 0.713089 0.701072 
0.00455148 0.847817 0.530269 
0.00480409 0.950338 0.311182 
0.00924392 0.995612 0.0931186 
0.00805029 0.99835 0.0568473 
0.00671236 0.999749 0.0213698 
0.00295835 0.999494 -0.0316734 
0.000862509 0.997534 -0.0701773 
-0.00350831 0.942198 -0.335037 
-0.00319078 0.866348 -0.499431 
-0.00371772 0.615905 -0.787812 
-0.00314192 0.562645 -0.826693 
-0.00519891 0.485498 -0.874222 
-0.00730985 0.391674 -0.920075 
-0.0109019 0.318392 -0.947896 
-0.0144989 0.245228 -0.969357 
-0.0175598 0.182412 -0.983065 
-0.0206204 0.137869 -0.990236 
-0.0224131 0.0971674 -0.995016 
-0.0239023 0.0751935 -0.996882 
-0.0250587 0.057372 -0.998038 
-0.0257256 0.0425492 -0.998763 
-0.0258867 0.0317285 -0.999161 
-0.0264747 0.0229599 -0.999386 
-0.0268538 0.0158387 -0.999514 
-0.0267441 0.0101688 -0.999591 
-0.0281733 0.00532546 -0.999589 
-0.0270476 0.0012657 -0.999633 
-0.0279654 -0.00225099 -0.999606 
-0.0278553 -0.0052776 -0.999598 
-0.0285158 -0.00816598 -0.99956 
-0.0286029 -0.0109448 -0.999531 
-0.0291648 -0.0141052 -0.999475 
-0.0292867 -0.0179209 -0.99941 
-0.0285458 -0.0224682 -0.99934 
-0.0290688 -0.0287696 -0.999163 
-0.0278499 -0.0364659 -0.998947 
-0.0294679 -0.0446262 -0.998569 
-0.0267739 -0.0538448 -0.99819 
-0.0282322 -0.0629742 -0.997616 
-0.024904 -0.0712015 -0.997151 
-0.0240816 -0.0775247 -0.9967 
-0.0192977 -0.0736728 -0.997096 
-0.0124056 -0.0454868 -0.998888 
0.000600297 -0.000615389 -1 
-0.000372206 -0.00077538 1 
0.00820588 -0.0498933 0.998721 
0.0167588 -0.0742567 0.997098 
0.0167072 -0.0784317 0.996779 