# vtk DataFile Version 3.0 
Exported using Morpho https://github.com/Morpho-lang/morpho 
ASCII 
DATASET UNSTRUCTURED_GRID 

POINTS 2054 float 
-8.48528 -2.82843 0 
-8.20636 -2.82843 0 
-7.94054 -2.82843 0 
-7.6904 -2.82843 0 
-7.45357 -2.82843 0 
-7.22694 -2.82843 0 
-7.00705 -2.82843 0 
-6.79111 -2.82843 0 
-6.57731 -2.82843 0 
-6.36453 -2.82843 0 
-6.15219 -2.82843 0 
-5.94 -2.82843 0 
-5.72786 -2.82843 0 
-5.51573 -2.82843 0 
-5.3036 -2.82843 0 
-5.09147 -2.82843 0 
-4.87933 -2.82843 0 
-4.6672 -2.82843 0 
-4.45507 -2.82843 0 
-4.24294 -2.82843 0 
-4.03081 -2.82843 0 
-3.81867 -2.82843 0 
-3.60654 -2.82843 0 
-3.39441 -2.82843 0 
-3.18228 -2.82843 0 
-2.97015 -2.82843 0 
-2.75801 -2.82843 0 
-2.54588 -2.82843 0 
-2.33375 -2.82843 0 
-2.12162 -2.82843 0 
-1.90949 -2.82843 0 
-1.69735 -2.82843 0 
-1.48522 -2.82843 0 
-1.27309 -2.82843 0 
-1.06096 -2.82843 0 
-0.848825 -2.82843 0 
-0.636693 -2.82843 0 
-0.424561 -2.82843 0 
-0.212429 -2.82843 0 
-0.000296761 -2.82843 0 
0.211835 -2.82843 0 
0.423967 -2.82843 0 
0.636099 -2.82843 0 
0.848231 -2.82843 0 
1.06036 -2.82843 0 
1.2725 -2.82843 0 
1.48463 -2.82843 0 
1.69676 -2.82843 0 
1.90889 -2.82843 0 
2.12102 -2.82843 0 
2.33316 -2.82843 0 
2.54529 -2.82843 0 
2.75742 -2.82843 0 
2.96955 -2.82843 0 
3.18168 -2.82843 0 
3.39382 -2.82843 0 
3.60595 -2.82843 0 
3.81808 -2.82843 0 
4.03021 -2.82843 0 
4.24234 -2.82843 0 
4.45448 -2.82843 0 
4.66661 -2.82843 0 
4.87874 -2.82843 0 
5.09087 -2.82843 0 
5.303 -2.82843 0 
5.51514 -2.82843 0 
5.72727 -2.82843 0 
5.93941 -2.82843 0 
6.15159 -2.82843 0 
6.36393 -2.82843 0 
6.57672 -2.82843 0 
6.79055 -2.82843 0 
7.00652 -2.82843 0 
7.22647 -2.82843 0 
7.45313 -2.82843 0 
7.69005 -2.82843 0 
7.9403 -2.82843 0 
8.20621 -2.82843 0 
8.48528 -2.82843 0 
-8.48528 -2.5495 0 
-8.30526 -2.64845 0 
-8.07062 -2.59995 0 
-7.83904 -2.59637 0 
-7.59595 -2.59733 0 
-7.36578 -2.59177 0 
-7.13796 -2.5933 0 
-6.90908 -2.59428 0 
-6.68421 -2.5916 0 
-6.46568 -2.58832 0 
-6.24926 -2.58859 0 
-6.03358 -2.58941 0 
-5.81848 -2.59013 0 
-5.60402 -2.59075 0 
-5.39005 -2.59135 0 
-5.17642 -2.59186 0 
-4.96311 -2.59223 0 
-4.75009 -2.59242 0 
-4.53736 -2.59244 0 
-4.32497 -2.59236 0 
-4.1128 -2.59242 0 
-3.90059 -2.59259 0 
-3.68835 -2.5926 0 
-3.47627 -2.59248 0 
-3.26428 -2.59251 0 
-3.05216 -2.59271 0 
-2.83986 -2.59283 0 
-2.62755 -2.59274 0 
-2.41539 -2.59253 0 
-2.20336 -2.59238 0 
-1.99135 -2.59238 0 
-1.77924 -2.59246 0 
-1.56704 -2.59244 0 
-1.35495 -2.59215 0 
-1.14319 -2.59183 0 
-0.931581 -2.59195 0 
-0.719663 -2.59256 0 
-0.507197 -2.59324 0 
-0.294425 -2.59354 0 
-0.0817689 -2.59344 0 
0.130587 -2.59325 0 
0.342804 -2.59322 0 
0.555051 -2.59322 0 
0.767233 -2.59303 0 
0.97919 -2.59278 0 
1.19107 -2.59278 0 
1.40311 -2.59289 0 
1.61524 -2.59286 0 
1.82732 -2.59279 0 
2.03943 -2.59281 0 
2.25163 -2.5928 0 
2.46381 -2.59266 0 
2.67591 -2.59254 0 
2.88801 -2.59237 0 
3.10001 -2.59226 0 
3.31203 -2.59216 0 
3.52402 -2.59207 0 
3.73601 -2.59208 0 
3.94815 -2.59221 0 
4.16052 -2.5923 0 
4.37309 -2.59232 0 
4.58593 -2.59227 0 
4.79921 -2.5922 0 
5.01319 -2.59212 0 
5.22833 -2.5921 0 
5.44534 -2.59239 0 
5.6657 -2.59346 0 
5.89185 -2.59569 0 
6.12685 -2.59429 0 
6.36853 -2.59189 0 
6.6108 -2.57787 0 
6.84491 -2.61411 0 
7.08804 -2.58476 0 
7.34858 -2.60369 0 
7.58803 -2.59327 0 
7.83059 -2.59326 0 
8.06387 -2.59199 0 
8.30038 -2.64348 0 
8.48528 -2.54936 0 
-8.48528 -2.28369 0 
-8.25701 -2.4138 0 
-8.01078 -2.35334 0 
-7.73666 -2.37963 0 
-7.49744 -2.35565 0 
-7.26898 -2.35831 0 
-7.03324 -2.36676 0 
-6.7997 -2.36275 0 
-6.5773 -2.35166 0 
-6.35808 -2.3495 0 
-6.14038 -2.35058 0 
-5.92336 -2.35185 0 
-5.70723 -2.35272 0 
-5.49199 -2.35362 0 
-5.27734 -2.35447 0 
-5.0632 -2.35505 0 
-4.84958 -2.35534 0 
-4.63641 -2.35533 0 
-4.42363 -2.35504 0 
-4.21126 -2.35485 0 
-3.99909 -2.35513 0 
-3.78684 -2.3554 0 
-3.57461 -2.35516 0 
-3.36263 -2.35498 0 
-3.15066 -2.35537 0 
-2.93843 -2.35586 0 
-2.72604 -2.35589 0 
-2.51374 -2.35551 0 
-2.30162 -2.35509 0 
-2.08964 -2.35496 0 
-1.87761 -2.35518 0 
-1.66544 -2.3554 0 
-1.45322 -2.35518 0 
-1.2412 -2.35438 0 
-1.02967 -2.35407 0 
-0.818162 -2.35505 0 
-0.606054 -2.35676 0 
-0.393243 -2.3579 0 
-0.180256 -2.35789 0 
0.0323765 -2.35727 0 
0.244686 -2.35692 0 
0.456926 -2.35692 0 
0.669206 -2.35667 0 
0.881318 -2.35598 0 
1.09315 -2.35559 0 
1.305 -2.35583 0 
1.51709 -2.35595 0 
1.72919 -2.35571 0 
1.9412 -2.35566 0 
2.15334 -2.3558 0 
2.36559 -2.3556 0 
2.57772 -2.35522 0 
2.78976 -2.35507 0 
3.0019 -2.35461 0 
3.21373 -2.35451 0 
3.42571 -2.35439 0 
3.63769 -2.35431 0 
3.84965 -2.35453 0 
4.06183 -2.35491 0 
4.27435 -2.35507 0 
4.48707 -2.35507 0 
4.70017 -2.35506 0 
4.91376 -2.35498 0 
5.12819 -2.35502 0 
5.34378 -2.35528 0 
5.56106 -2.35662 0 
5.78097 -2.35971 0 
6.00401 -2.36251 0 
6.2308 -2.3624 0 
6.45748 -2.35551 0 
6.68075 -2.33423 0 
6.88797 -2.39744 0 
7.05313 -2.27289 0 
7.24377 -2.40237 0 
7.48542 -2.36016 0 
7.73055 -2.36599 0 
7.99177 -2.33552 0 
8.24864 -2.40698 0 
8.48528 -2.28345 0 
-8.48528 -2.03355 0 
-8.25312 -2.18214 0 
-8.03669 -2.07913 0 
-7.83956 -2.18231 0 
-7.6106 -2.12852 0 
-7.38852 -2.10959 0 
-7.16268 -2.14097 0 
-6.9229 -2.1435 0 
-6.70119 -2.12055 0 
-6.48111 -2.11285 0 
-6.26282 -2.11284 0 
-6.045 -2.1151 0 
-5.82775 -2.11658 0 
-5.61153 -2.11776 0 
-5.3962 -2.1192 0 
-5.18144 -2.1203 0 
-4.96732 -2.12084 0 
-4.75387 -2.12105 0 
-4.54086 -2.12091 0 
-4.32822 -2.12045 0 
-4.11596 -2.12045 0 
-3.90382 -2.12107 0 
-3.69156 -2.12116 0 
-3.47938 -2.12058 0 
-3.26746 -2.12068 0 
-3.05542 -2.12154 0 
-2.84307 -2.12198 0 
-2.63064 -2.12162 0 
-2.41836 -2.12087 0 
-2.20626 -2.12031 0 
-1.99426 -2.12034 0 
-1.78217 -2.1207 0 
-1.56989 -2.12074 0 
-1.35755 -2.11993 0 
-1.14542 -2.11838 0 
-0.934012 -2.11859 0 
-0.722404 -2.12089 0 
-0.509943 -2.12344 0 
-0.296911 -2.12431 0 
-0.0840921 -2.12359 0 
0.128295 -2.12281 0 
0.340414 -2.12274 0 
0.552564 -2.12288 0 
0.76478 -2.12226 0 
0.976792 -2.1213 0 
1.18855 -2.12128 0 
1.40042 -2.12188 0 
1.61256 -2.12177 0 
1.82458 -2.12141 0 
2.03655 -2.12164 0 
2.24875 -2.12174 0 
2.46099 -2.12114 0 
2.67302 -2.12065 0 
2.88504 -2.12054 0 
3.09728 -2.1194 0 
3.30873 -2.11968 0 
3.52086 -2.1195 0 
3.7329 -2.11938 0 
3.94484 -2.11986 0 
4.15715 -2.12044 0 
4.36983 -2.12035 0 
4.58282 -2.1204 0 
4.79606 -2.12017 0 
5.01004 -2.12012 0 
5.22483 -2.12002 0 
5.44073 -2.12051 0 
5.6582 -2.123 0 
5.8782 -2.12696 0 
6.10217 -2.12971 0 
6.33095 -2.12707 0 
6.567 -2.11601 0 
6.82301 -2.12303 0 
7.06572 -2.04567 0 
7.29733 -2.17484 0 
7.54632 -2.11408 0 
7.79371 -2.13741 0 
8.02274 -2.07453 0 
8.25027 -2.1738 0 
8.48528 -2.0332 0 
-8.48528 -1.79671 0 
-8.25436 -1.93882 0 
-8.01299 -1.83977 0 
-7.78596 -1.953 0 
-7.5297 -1.87194 0 
-7.2756 -1.88722 0 
-7.05707 -1.93544 0 
-6.84369 -1.89677 0 
-6.62219 -1.88079 0 
-6.40169 -1.87606 0 
-6.18206 -1.87854 0 
-5.96274 -1.881 0 
-5.74458 -1.88208 0 
-5.52796 -1.88344 0 
-5.31232 -1.88506 0 
-5.09736 -1.88569 0 
-4.88338 -1.88564 0 
-4.67019 -1.88555 0 
-4.45737 -1.88507 0 
-4.24485 -1.88447 0 
-4.03271 -1.88482 0 
-3.82061 -1.88562 0 
-3.60832 -1.88529 0 
-3.39617 -1.88464 0 
-3.18427 -1.88547 0 
-2.97209 -1.88672 0 
-2.7596 -1.88684 0 
-2.54714 -1.88601 0 
-2.33483 -1.88505 0 
-2.12268 -1.8846 0 
-1.91058 -1.885 0 
-1.69824 -1.88561 0 
-1.48561 -1.88547 0 
-1.27286 -1.88413 0 
-1.06032 -1.88216 0 
-0.848858 -1.8839 0 
-0.636875 -1.88781 0 
-0.424169 -1.89034 0 
-0.211518 -1.89004 0 
0.000731944 -1.88866 0 
0.21257 -1.88788 0 
0.424308 -1.88807 0 
0.636257 -1.88793 0 
0.848362 -1.88664 0 
1.06025 -1.88556 0 
1.27191 -1.88605 0 
1.48381 -1.88664 0 
1.69595 -1.886 0 
1.90782 -1.88577 0 
2.11974 -1.88637 0 
2.33202 -1.88609 0 
2.54419 -1.88502 0 
2.75607 -1.88472 0 
2.96812 -1.88462 0 
3.18055 -1.88217 0 
3.39117 -1.88415 0 
3.60398 -1.8838 0 
3.81618 -1.88366 0 
4.02827 -1.88469 0 
4.24071 -1.88523 0 
4.4544 -1.88509 0 
4.66716 -1.88476 0 
4.88099 -1.88493 0 
5.09545 -1.88466 0 
5.31057 -1.88453 0 
5.52653 -1.88564 0 
5.7436 -1.88981 0 
5.96352 -1.89563 0 
6.18733 -1.89813 0 
6.41543 -1.89522 0 
6.65059 -1.89622 0 
6.87542 -1.86913 0 
7.11122 -1.81621 0 
7.31223 -1.94975 0 
7.53264 -1.87683 0 
7.77077 -1.89068 0 
8.01717 -1.8297 0 
8.25014 -1.93148 0 
8.48528 -1.79628 0 
-8.48528 -1.57009 0 
-8.24868 -1.70836 0 
-8.015 -1.61096 0 
-7.76734 -1.73071 0 
-7.54593 -1.61782 0 
-7.32306 -1.66278 0 
-7.05152 -1.7082 0 
-6.79786 -1.66675 0 
-6.56099 -1.64764 0 
-6.33267 -1.64541 0 
-6.10856 -1.64921 0 
-5.88638 -1.65073 0 
-5.66697 -1.65153 0 
-5.44986 -1.65353 0 
-5.23379 -1.65525 0 
-5.01882 -1.6551 0 
-4.80519 -1.6548 0 
-4.59235 -1.65478 0 
-4.37976 -1.65422 0 
-4.16737 -1.65386 0 
-3.95537 -1.65471 0 
-3.74326 -1.6554 0 
-3.5309 -1.65455 0 
-3.31876 -1.65426 0 
-3.10682 -1.65593 0 
-2.89443 -1.65705 0 
-2.68177 -1.65644 0 
-2.46924 -1.65516 0 
-2.25682 -1.65408 0 
-2.04447 -1.65386 0 
-1.83202 -1.65455 0 
-1.61911 -1.65506 0 
-1.40572 -1.65429 0 
-1.19212 -1.65207 0 
-0.97885 -1.64982 0 
-0.767325 -1.65372 0 
-0.555434 -1.6581 0 
-0.343588 -1.65935 0 
-0.132061 -1.65818 0 
0.0792288 -1.65687 0 
0.290417 -1.65682 0 
0.501823 -1.6575 0 
0.713729 -1.65709 0 
0.925861 -1.65545 0 
1.13768 -1.65488 0 
1.34929 -1.65604 0 
1.56128 -1.6563 0 
1.77337 -1.65516 0 
1.985 -1.65561 0 
2.19698 -1.65642 0 
2.40939 -1.65525 0 
2.62143 -1.65394 0 
2.83323 -1.65414 0 
3.04553 -1.65355 0 
3.25842 -1.64868 0 
3.46746 -1.65522 0 
3.68272 -1.65284 0 
3.89574 -1.65288 0 
4.10731 -1.65378 0 
4.32287 -1.65565 0 
4.53627 -1.65249 0 
4.74932 -1.65397 0 
4.96428 -1.65355 0 
5.17935 -1.65257 0 
5.3944 -1.65202 0 
5.60927 -1.65354 0 
5.82513 -1.66019 0 
6.04295 -1.66711 0 
6.26383 -1.66843 0 
6.48537 -1.66776 0 
6.70098 -1.65646 0 
6.91299 -1.6206 0 
7.11709 -1.6046 0 
7.3526 -1.69716 0 
7.60698 -1.65764 0 
7.8325 -1.64214 0 
8.05985 -1.58842 0 
8.2608 -1.69223 0 
8.48528 -1.56961 0 
-8.48528 -1.35019 0 
-8.24958 -1.48044 0 
-8.0219 -1.3751 0 
-7.79713 -1.50391 0 
-7.58956 -1.39834 0 
-7.36199 -1.38754 0 
-7.16079 -1.49923 0 
-6.93764 -1.46284 0 
[...]
POINT_DATA 2054 
VECTORS vectors float
0.0164928 -0.0246228 0.999566 
0.0185935 -0.0214365 0.9996 
0.0193561 -0.0259066 0.999477 
0.0186277 -0.0244133 0.99953 
0.0188622 -0.02108 0.999603 
0.0189407 -0.0180731 0.999661 
0.0189845 -0.0156001 0.999702 
0.018963 -0.0132586 0.999736 
0.0189303 -0.0108037 0.999766 
0.0189229 -0.00825544 0.999791 
0.0189382 -0.00569139 0.999808 
0.0189581 -0.00318749 0.999819 
0.0189711 -0.000758706 0.999824 
0.018971 0.00165293 0.999822 
0.0189545 0.00414725 0.999816 
0.0189191 0.00684509 0.999801 
0.0188624 0.00988344 0.999777 
0.0187816 0.0134169 0.999737 
0.0186725 0.0176255 0.999674 
0.0185304 0.0227235 0.999574 
0.018349 0.0289683 0.999416 
0.0181191 0.0366714 0.999167 
0.017829 0.0462116 0.998776 
0.0174655 0.0580539 0.998165 
0.0170118 0.0727693 0.997208 
0.016446 0.0910576 0.995714 
0.0157407 0.113772 0.993386 
0.0148642 0.14194 0.989768 
0.0137801 0.176784 0.984157 
0.0124482 0.21972 0.975488 
0.0108294 0.272309 0.962153 
0.0088971 0.336137 0.941775 
0.00666044 0.412498 0.910938 
0.0041991 0.501846 0.864951 
0.0017046 0.602863 0.797846 
-0.000495497 0.711233 0.702958 
-0.00197531 0.818486 0.574523 
-0.00236235 0.911895 0.410414 
-0.00158095 0.976564 0.215214 
-2.55171e-05 0.999997 0.00154866 
0.00153756 0.977208 -0.21227 
0.00233786 0.913034 -0.407875 
0.00197183 0.819896 -0.57251 
0.000507499 0.712705 -0.701466 
-0.00168454 0.604256 -0.796792 
-0.00417671 0.503074 -0.864237 
-0.00663877 0.413539 -0.910466 
-0.00887771 0.336997 -0.941468 
-0.0108131 0.273009 -0.961955 
-0.0124352 0.22028 -0.975362 
-0.0137694 0.177228 -0.984078 
-0.0148548 0.142291 -0.989718 
-0.0157323 0.114049 -0.993355 
-0.0164388 0.0912768 -0.995694 
-0.0170062 0.0729425 -0.997195 
-0.017461 0.0581905 -0.998157 
-0.0178247 0.0463208 -0.998771 
-0.0181152 0.0367601 -0.999164 
-0.0183462 0.0290418 -0.999414 
-0.0185283 0.0227852 -0.999573 
-0.0186701 0.0176781 -0.999673 
-0.0187784 0.0134628 -0.999737 
-0.0188587 0.00992412 -0.999777 
-0.0189149 0.00688125 -0.999801 
-0.01895 0.0041786 -0.999816 
-0.0189682 0.00168245 -0.999823 
-0.0189746 -0.000724488 -0.999824 
-0.0189766 -0.00314716 -0.999819 
-0.018965 -0.00564711 -0.999808 
-0.018987 -0.00823468 -0.999788 
-0.0189093 -0.0106616 -0.999768 
-0.0190333 -0.0131031 -0.999737 
-0.0190306 -0.0154158 -0.999704 
-0.0189795 -0.0178259 -0.999665 
-0.0189054 -0.0208645 -0.999607 
-0.0186106 -0.0241607 -0.999537 
-0.0193473 -0.0255145 -0.999488 
-0.0185737 -0.021168 -0.999606 
-0.0164796 -0.0246296 -0.999566 
0.00408102 -0.0259777 0.999655 
0.0126449 -0.0233464 0.999658 
0.0127059 -0.0226621 0.999674 
0.0145688 -0.0239976 0.999615 
0.0157057 -0.0225916 0.999631 
0.0161844 -0.0197094 0.999684 
0.0166192 -0.0168348 0.999729 
0.0169172 -0.0142402 0.999764 
0.0170302 -0.0117256 0.999795 
0.017099 -0.00922129 0.99982 
0.0172106 -0.00672693 0.999838 
0.0173102 -0.00424506 0.99985 
0.0173788 -0.00179157 0.999856 
0.0174176 0.000645611 0.999857 
0.0174271 0.00313296 0.999852 
0.0174047 0.00577752 0.999841 
0.0173481 0.00870878 0.99982 
0.0172549 0.0120753 0.999787 
0.017121 0.0160477 0.999733 
0.0169424 0.0208243 0.999648 
0.0167165 0.0266453 0.999514 
0.0164345 0.0338072 0.999302 
0.0160825 0.0426643 0.998969 
0.0156505 0.0536399 0.998447 
0.0151295 0.067263 0.997629 
0.0145036 0.0841977 0.996352 
0.0137512 0.10525 0.99436 
0.0128524 0.131371 0.991259 
0.011791 0.163685 0.986451 
0.0105542 0.203518 0.979023 
0.00913406 0.252382 0.967593 
0.00753525 0.311878 0.950101 
0.00578834 0.383427 0.923561 
0.00396665 0.467763 0.883853 
0.00219762 0.564199 0.825643 
0.000650545 0.669785 0.74256 
-0.000485823 0.778137 0.628097 
-0.00104598 0.878387 0.477948 
-0.000976897 0.955936 0.293562 
-0.000424767 0.996397 0.0847562 
0.000282455 0.991325 -0.131401 
0.000763007 0.941959 -0.335719 
0.000727033 0.858439 -0.512914 
6.77328e-05 0.755403 -0.655264 
-0.00113929 0.646793 -0.762671 
-0.0027198 0.542599 -0.839995 
-0.00448466 0.44849 -0.893784 
-0.00627151 0.366895 -0.93025 
-0.00796872 0.298056 -0.954524 
-0.0095154 0.240961 -0.970497 
-0.0108833 0.194132 -0.980924 
-0.012067 0.156028 -0.987688 
-0.0130785 0.125179 -0.992057 
-0.0139336 0.100272 -0.994871 
-0.0146521 0.0802096 -0.996679 
-0.0152515 0.0640565 -0.997839 
-0.0157479 0.0510568 -0.99858 
-0.0161574 0.0405864 -0.999054 
-0.0164927 0.032133 -0.999356 
-0.0167619 0.025284 -0.999549 
-0.0169736 0.0197046 -0.999671 
-0.0171352 0.0151162 -0.999748 
-0.0172526 0.0112852 -0.999796 
-0.0173285 0.00801537 -0.999827 
-0.0173653 0.00513639 -0.999845 
-0.0173681 0.00249807 -0.999855 
-0.0173556 -3.63277e-05 -0.999858 
-0.0173619 -0.00259011 -0.999855 
-0.0173376 -0.00525683 -0.999845 
-0.0172138 -0.00800776 -0.99983 
-0.0169788 -0.0107348 -0.999809 
-0.0172348 -0.0134245 -0.999769 
-0.0166207 -0.0160293 -0.999744 
-0.0165016 -0.0192615 -0.999688 
-0.0155868 -0.0222119 -0.999641 
-0.0144159 -0.02358 -0.999628 
-0.0124374 -0.0223576 -0.999685 
-0.0124567 -0.0231546 -0.999665 
-0.00413021 -0.0259219 -0.999657 
0.00477144 -0.0265698 0.999638 
0.00751391 -0.0227384 0.999725 
0.0100481 -0.0221776 0.999716 
0.0131838 -0.0233756 0.999649 
0.01453 -0.0213535 0.999675 
0.015362 -0.0183861 0.999722 
0.0159659 -0.015467 0.999762 
0.0163932 -0.0128189 0.999792 
0.0167266 -0.0103 0.999816 
0.0169807 -0.00785498 0.999833 
0.0171755 -0.00543453 0.999846 
0.0173205 -0.00299369 0.999854 
0.0174193 -0.000540603 0.999856 
0.0174712 0.00194375 0.999854 
0.0174768 0.0045379 0.999845 
0.0174366 0.00735872 0.999829 
0.0173503 0.0105453 0.999802 
0.0172151 0.0142591 0.999758 
0.0170263 0.0186871 0.999689 
0.0167756 0.0240479 0.999578 
0.0164544 0.0306098 0.999404 
0.0160569 0.0387053 0.99913 
0.0155767 0.0487285 0.998699 
0.0150005 0.0611486 0.998024 
0.0143133 0.0765666 0.99697 
0.013504 0.0957332 0.995324 
0.0125633 0.119535 0.992759 
0.0114822 0.149006 0.988778 
0.010255 0.185367 0.982625 
0.00888527 0.230025 0.973153 
0.00739146 0.284546 0.958643 
0.00581436 0.350456 0.93657 
0.00422197 0.428858 0.90337 
0.00270929 0.519797 0.854293 
0.00138766 0.621359 0.783531 
0.000358986 0.728985 0.684534 
-0.000301676 0.83418 0.551493 
-0.000572065 0.923948 0.382512 
-0.000514123 0.983046 0.183336 
-0.000276181 0.999492 -0.0317091 
-5.21273e-05 0.969884 -0.243554 
-2.84734e-05 0.900688 -0.434463 
-0.000339267 0.805123 -0.59311 
-0.00103558 0.697967 -0.716134 
-0.00208621 0.591189 -0.806537 
-0.0034084 0.492247 -0.870456 
-0.00489664 0.404831 -0.914386 
-0.0064435 0.330133 -0.943921 
-0.00796116 0.26767 -0.963487 
-0.00939048 0.216115 -0.976332 
-0.0106965 0.173966 -0.984702 
-0.0118626 0.139752 -0.990124 
-0.0128862 0.112082 -0.993624 
-0.0137746 0.0897438 -0.995878 
-0.0145354 0.0717676 -0.997324 
-0.0151819 0.0572801 -0.998251 
-0.0157243 0.0456107 -0.998844 
-0.0161722 0.0362002 -0.999222 
-0.0165361 0.0285841 -0.999463 
-0.016827 0.0223907 -0.999616 
-0.0170518 0.0173204 -0.999713 
-0.0172143 0.0131172 -0.999774 
-0.0173169 0.00956957 -0.999813 
-0.0173578 0.00649508 -0.999837 
-0.0173329 0.00373637 -0.999851 
-0.0172303 0.0011554 -0.999859 
-0.0170544 -0.00135797 -0.999862 
-0.0168469 -0.00386155 -0.999859 
-0.0166606 -0.00637415 -0.99985 
-0.0165381 -0.0088712 -0.999833 
-0.0163486 -0.0113578 -0.999809 
-0.0161291 -0.0136929 -0.999785 
-0.0160538 -0.0155166 -0.999759 
-0.0152678 -0.0179093 -0.999731 
-0.0143089 -0.0209355 -0.999688 
-0.0128578 -0.0228426 -0.999666 
-0.00993213 -0.0217788 -0.999726 
-0.00742829 -0.0224551 -0.999733 
-0.00467058 -0.0264998 -0.99964 
0.00397726 -0.0257882 0.999662 
0.00700062 -0.0224915 0.999733 
0.00975005 -0.0217973 0.999726 
0.0125374 -0.0232127 0.999659 
0.0144597 -0.0225779 0.999648 
0.0155153 -0.019964 0.999688 
0.0163765 -0.0169606 0.999729 
0.0170086 -0.0141079 0.999763 
0.0174003 -0.0115646 0.999789 
0.0177174 -0.00912167 0.999809 
0.0179906 -0.00676925 0.999823 
0.0182071 -0.00438371 0.999832 
0.0183657 -0.00193642 0.999837 
0.0184682 0.000549176 0.999836 
0.0185134 0.00310333 0.999831 
0.0185009 0.00582065 0.999819 
0.0184318 0.00882704 0.999798 
0.0183045 0.0122708 0.999764 
0.0181151 0.0163273 0.99971 
0.0178589 0.0211989 0.999623 
0.0175303 0.0271233 0.999486 
0.0171214 0.0343963 0.999269 
0.0166225 0.043384 0.998928 
0.016025 0.054515 0.998392 
0.0153196 0.0683039 0.997554 
0.0144936 0.085422 0.996247 
0.0135348 0.106692 0.994208 
0.0124363 0.133062 0.991038 
0.0111964 0.16564 0.986131 
0.00982047 0.205723 0.978569 
0.00832477 0.254776 0.966973 
0.00674063 0.314358 0.949289 
0.00512168 0.385867 0.922548 
0.00354754 0.470025 0.882653 
0.00211712 0.566125 0.824324 
0.000932784 0.670905 0.741548 
6.5943e-05 0.778347 0.627837 
-0.00044472 0.878052 0.478564 
-0.000617441 0.95553 0.294883 
-0.00054485 0.996229 0.0867046 
-0.000377676 0.991653 -0.128899 
-0.000287316 0.943022 -0.332722 
-0.00042574 0.860398 -0.509622 
-0.000891446 0.758232 -0.651987 
-0.00170978 0.650359 -0.75963 
-0.00284142 0.546739 -0.837306 
-0.00420871 0.452907 -0.891556 
-0.00571543 0.371233 -0.92853 
-0.00726499 0.302136 -0.953245 
-0.00878257 0.244676 -0.969573 
-0.0102162 0.197396 -0.980279 
-0.0115321 0.158836 -0.987246 
-0.0127148 0.127581 -0.991755 
-0.0137619 0.102305 -0.994666 
-0.0146767 0.0818935 -0.996541 
-0.0154672 0.0654944 -0.997741 
-0.0161428 0.0522378 -0.998512 
-0.0167127 0.0415546 -0.999004 
-0.017186 0.0329283 -0.999317 
-0.0175713 0.0259254 -0.999517 
-0.017877 0.0202105 -0.999643 
-0.0181114 0.0155047 -0.999723 
-0.0182774 0.0115762 -0.999773 
-0.0183788 0.0082211 -0.999804 
-0.0184179 0.00527272 -0.999824 
-0.0183934 0.00258267 -0.999835 
-0.018295 2.58938e-05 -0.99984 
-0.0181191 -0.00248394 -0.99984 
-0.0178823 -0.00497292 -0.999835 
-0.0175965 -0.00743882 -0.999825 
-0.0172975 -0.00997439 -0.999808 
-0.0168613 -0.0128049 -0.999785 
-0.016325 -0.0156265 -0.999752 
-0.015652 -0.018541 -0.999713 
-0.0144007 -0.0215942 -0.999672 
-0.0125382 -0.0227097 -0.999671 
-0.00959342 -0.0214403 -0.999735 
-0.00682229 -0.0222778 -0.99974 
-0.00393277 -0.0257441 -0.999664 
0.00310904 -0.0255466 0.999671 
0.00636665 -0.0225888 0.999735 
0.00878968 -0.0220018 0.999729 
0.0122824 -0.0234093 0.999658 
0.0132363 -0.0217675 0.999685 
0.0145389 -0.0184281 0.999732 
0.015766 -0.0156731 0.999759 
0.0158233 -0.0131376 0.999796 
0.0160326 -0.0106193 0.999822 
0.0163191 -0.00825739 0.99984 
0.0166161 -0.0059301 0.999852 
0.0168425 -0.00350887 0.999859 
0.0169892 -0.00101254 0.999862 
0.0170749 0.00153147 0.99986 
0.0171027 0.00417766 0.999852 
0.0170636 0.00703635 0.999837 
0.0169611 0.0102399 0.999811 
0.0167987 0.0139483 0.999769 
0.0165693 0.0183514 0.999701 
0.016271 0.0236668 0.999595 
0.0159083 0.0301491 0.999426 
0.015468 0.0381221 0.999161 
0.0149271 0.0479861 0.998744 
0.0142869 0.0601982 0.998092 
0.0135563 0.0753174 0.997075 
0.0127153 0.0940878 0.99549 
0.0117448 0.117388 0.993024 
0.0106477 0.146216 0.989203 
0.00943628 0.181751 0.983307 
0.00812744 0.225348 0.974253 
0.0067444 0.278502 0.96042 
0.00531712 0.342768 0.939413 
0.0038958 0.419359 0.90782 
0.00255377 0.508554 0.861034 
0.00137629 0.608796 0.793332 
0.000443019 0.715349 0.698771 
-0.000212412 0.820895 0.57108 
-0.000574481 0.913179 0.407553 
-0.000677325 0.977063 0.212933 
-0.000614787 0.999995 0.000174387 
-0.000517826 0.977223 -0.212196 
-0.000523435 0.913812 -0.406133 
-0.000745367 0.822046 -0.569422 
-0.00124778 0.716496 -0.697595 
-0.00203537 0.609672 -0.792657 
-0.0030704 0.50973 -0.860336 
-0.0042884 0.420703 -0.907196 
-0.00560786 0.344059 -0.938939 
-0.00695846 0.279689 -0.960073 
-0.00828841 0.226347 -0.97402 
-0.00954849 0.182537 -0.983161 
-0.0107087 0.146877 -0.989105 
-0.011766 0.117992 -0.992953 
-0.0127133 0.0946155 -0.99544 
-0.0135299 0.0757254 -0.997044 
-0.0142733 0.0605981 -0.998068 
-0.0148981 0.0482782 -0.99873 
-0.0154271 0.0383635 -0.999152 
-0.0158773 0.0303427 -0.999421 
-0.0162405 0.0238161 -0.999592 
-0.0165259 0.0184495 -0.9997 
-0.0167403 0.0140323 -0.999769 
-0.0168965 0.010301 -0.999811 
-0.0169889 0.00708195 -0.999838 
-0.0170275 0.00421485 -0.999853 
-0.0170261 0.00156093 -0.999861 
-0.0169938 -0.000987658 -0.999862 
-0.0169071 -0.00349756 -0.999858 
-0.0167199 -0.00595459 -0.99985 
-0.0164088 -0.0083569 -0.999838 
-0.0160582 -0.0108705 -0.99982 
-0.0154199 -0.0134261 -0.999799 
-0.0143596 -0.0162589 -0.999772 
-0.0149041 -0.0188198 -0.999719 
-0.0132759 -0.0217882 -0.999681 
-0.0116538 -0.022914 -0.999679 
-0.0085023 -0.0216326 -0.99974 
-0.00626114 -0.0224158 -0.99974 
-0.00307104 -0.025599 -0.99967 
0.00238596 -0.0254197 0.999676 
0.00513986 -0.0226334 0.999741 
0.00697215 -0.022221 0.999739 
0.0103871 -0.0235761 0.999676 
0.0105496 -0.0222293 0.999705 
0.0119239 -0.0191542 0.999753 
0.0132693 -0.0155715 0.999799 
0.0133585 -0.0125903 0.999839 
0.0135764 -0.00996724 0.999866 
0.0139131 -0.00758822 0.999882 
0.0142262 -0.00519745 0.999893 
0.0144295 -0.00269183 0.999899 
0.0145521 -0.000128187 0.999901 
0.014625 0.00248815 0.999897 
0.0146379 0.00524309 0.999886 
0.0145753 0.00825613 0.999867 
0.0144557 0.0116681 0.999834 
0.0142813 0.0156524 0.999783 
0.0140398 0.0204134 0.9997 
0.0137349 0.0261843 0.99957 
0.0133722 0.0332353 0.999365 
0.0129305 0.0419235 0.999044 
0.0123899 0.0526794 0.998542 
0.0117684 0.0659852 0.997759 
0.0110743 0.0824505 0.996541 
0.0102779 0.102894 0.994647 
0.00937067 0.128238 0.991707 
0.00836994 0.159524 0.987166 
0.00729319 0.198009 0.980181 
0.00616039 0.245103 0.969486 
0.00499329 0.302337 0.953196 
0.00381767 0.371236 0.928539 
0.00267708 0.452794 0.891619 
0.00163135 0.546733 0.837312 
0.000743278 0.650439 0.759564 
6.325e-05 0.757462 0.652883 
-0.000402167 0.85913 0.511757 
-0.000650691 0.941764 0.336267 
-0.000720422 0.99097 0.134054 
-0.000688713 0.996807 -0.0797873 
-0.000654757 0.958107 -0.286398 
-0.000718299 0.882924 -0.469513 
-0.00095797 0.784758 -0.619804 
-0.00141253 0.677735 -0.73531 
-0.00208005 0.57295 -0.819594 
-0.00293277 0.476925 -0.878946 
-0.00392067 0.392475 -0.919762 
-0.00498304 0.320434 -0.947266 
-0.00607882 0.260289 -0.96552 
-0.00716718 0.210535 -0.977568 
-0.00820045 0.16974 -0.985463 
-0.00916401 0.136599 -0.990592 
-0.0100599 0.109752 -0.993916 
-0.0108648 0.0879932 -0.996069 
-0.0115419 0.0703968 -0.99746 
-0.01223 0.0564071 -0.99834 
-0.0127586 0.0448078 -0.998921 
-0.0132214 0.0355346 -0.999288 
-0.01361 0.0280661 -0.999521 
-0.0139438 0.0218719 -0.999671 
-0.0141533 0.0168465 -0.999765 
-0.0143524 0.0126688 -0.999824 
-0.0144746 0.00909805 -0.999861 
-0.0145351 0.00598921 -0.999884 
-0.0145472 0.00318717 -0.999896 
-0.0145319 0.000564493 -0.999901 
-0.0145186 -0.00197862 -0.9999 
-0.0144415 -0.00446618 -0.999893 
-0.0142251 -0.00685959 -0.999882 
-0.0139031 -0.00916003 -0.999869 
-0.0134087 -0.0114946 -0.999851 
-0.0126147 -0.0139653 -0.99983 
-0.0120046 -0.0164775 -0.999798 
-0.012174 -0.0195295 -0.999744 
-0.0106102 -0.022755 -0.999692 
-0.00890634 -0.023221 -0.999699 
-0.00626283 -0.0218837 -0.999751 
-0.00490838 -0.0229503 -0.999735 
-0.00233788 -0.0255214 -0.999674 
0.00186999 -0.025391 0.999678 
0.00392553 -0.0228146 0.999743 
0.00536416 -0.0224067 0.999744 
0.00808487 -0.0237953 0.999692 
0.00839676 -0.022994 0.999706 
0.00912134 -0.0198416 0.99977 
0.0107878 -0.0170617 0.999802 
0.0109543 -0.0142732 0.999846 
0.0110769 -0.0116413 0.999878 
0.0113713 -0.0092115 0.9999 
0.0117182 -0.00687866 0.999915 
0.0119965 -0.00442852 0.999925 
0.012149 -0.00184994 0.999932 
0.0122467 0.000762488 0.999932 
0.0123065 0.00345011 0.999925 
0.0122917 0.00631273 0.999912 
0.0122067 0.00948356 0.999888 
0.0120782 0.0131065 0.999848 
0.0119004 0.0173658 0.999785 
0.0116614 0.0224933 0.999686 
0.0113658 0.0287245 0.99953 
0.0110183 0.0363515 0.999285 
0.0105924 0.0457634 0.998903 
0.0100811 0.0574189 0.998307 
0.00950993 0.0718201 0.99738 
0.0088753 0.0896355 0.995943 
0.00814744 0.111752 0.99371 
0.00733392 0.139128 0.990255 
0.00645845 0.172857 0.984934 
0.00553745 0.214266 0.976768 
0.00458939 0.264818 0.964296 
0.0036321 0.326052 0.945353 
0.00268593 0.399402 0.91678 
0.00178707 0.485513 0.874235 
0.000981062 0.583347 0.812229 
0.000312168 0.688991 0.724774 
-0.00018984 0.794434 0.607353 
-0.000526773 0.890295 0.455381 
-0.000700005 0.962595 0.270931 
-0.00074489 0.997972 0.0635832 
-0.000725253 0.988707 -0.149834 
-0.000719853 0.936633 -0.350305 
-0.000804017 0.852141 -0.523311 
-0.00103211 0.749458 -0.662055 
-0.00142646 0.642135 -0.766596 
-0.00198209 0.539894 -0.841737 
-0.00267653 0.447746 -0.894164 
-0.00346931 0.367554 -0.930004 
-0.00431987 0.29968 -0.954038 
-0.00520602 0.24329 -0.969948 
-0.00608767 0.196658 -0.980461 
-0.0069259 0.158469 -0.987347 
-0.00772251 0.127528 -0.991813 
-0.00847398 0.102438 -0.994711 
-0.00914292 0.0820331 -0.996595 
-0.00968819 0.065493 -0.997813 
-0.010362 0.0525918 -0.99857 
-0.0107791 0.0413498 -0.999094 
-0.0111304 0.0328847 -0.999404 
-0.0115389 0.0256478 -0.999612 
-0.0117351 0.0199196 -0.99974 
-0.0119132 0.0151885 -0.999821 
-0.0120966 0.0112497 -0.999871 
-0.0121714 0.00780701 -0.999903 
-0.0121941 0.00479639 -0.999921 
-0.0121742 0.00207021 -0.999931 
-0.012168 -0.000541358 -0.999933 
-0.0121516 -0.00306414 -0.999929 
-0.0120671 -0.00551464 -0.999919 
-0.0117989 -0.00783764 -0.999907 
-0.0113926 -0.0100831 -0.999892 
-0.0107921 -0.0125526 -0.99987 
-0.00993015 -0.0153763 -0.999841 
-0.0101817 -0.018392 -0.999785 
-0.00934235 -0.0214638 -0.999733 
-0.00787365 -0.0236526 -0.999697 
-0.00622325 -0.0227997 -0.999729 
-0.00377033 -0.0228072 -0.999745 
-0.00189069 -0.0254907 -0.999675 
0.00149121 -0.025377 0.999679 
0.00302542 -0.0229751 0.999742 
0.00422943 -0.0226283 0.999745 
0.00637816 -0.0240666 0.999697 
0.00691806 -0.022553 0.999729 
0.0072221 -0.0192215 0.999797 
0.00879508 -0.0165499 0.999832 
0.00888575 -0.0136639 0.999875 
0.00910702 -0.0110073 0.999905 
0.00941684 -0.00860645 0.999926 
0.00975028 -0.00621672 0.99994 
0.0099841 -0.00365763 0.999951 
0.0100764 -0.00101556 0.999956 
0.010167 0.00163869 0.999954 
0.0102053 0.00438287 0.999945 
0.0101702 0.0073556 0.999928 
0.0100744 0.0106859 0.999899 
0.00994874 0.0145009 0.999852 
0.00978586 0.0190464 0.999778 
0.00955897 0.0245411 0.99966 
0.00928713 0.0312301 0.999476 
0.00896684 0.0394268 0.999189 
0.00857292 0.049557 0.998742 
0.0081122 0.0620797 0.998045 
0.007609 0.077528 0.996968 
0.00704605 0.0966445 0.995301 
0.00640143 0.120369 0.992716 
0.00569617 0.149635 0.988733 
0.00495448 0.185559 0.982628 
0.00419027 0.229489 0.97331 
0.00341964 0.282809 0.959178 
0.00265557 0.346906 0.937904 
0.00191291 0.422982 0.906144 
0.00121958 0.511173 0.859484 
0.000605648 0.610017 0.792394 
9.81413e-05 0.715339 0.698781 
-0.00028577 0.819143 0.57359 
-0.000542082 0.911187 0.411988 
-0.000670429 0.975959 0.217938 
-0.000701566 0.999987 0.00400706 
-0.000690919 0.977628 -0.210323 
-0.00070393 0.913986 -0.40574 
-0.000797895 0.82182 -0.569747 
-0.0010091 0.715939 -0.698166 
-0.0013491 0.609267 -0.79297 
-0.00181178 0.509948 -0.860211 
-0.00237798 0.421522 -0.906823 
-0.00301511 0.345224 -0.938523 
-0.00369953 0.281156 -0.959663 
-0.00441983 0.228118 -0.973631 
-0.00513383 0.184107 -0.982901 
-0.00581149 0.148155 -0.988955 
-0.00647143 0.119197 -0.992857 
-0.00710123 0.0955511 -0.995407 
-0.00765044 0.0760952 -0.997079 
-0.00806138 0.0602615 -0.998158 
-0.00885553 0.0484096 -0.998794 
-0.00889695 0.0380968 -0.999243 
-0.00945003 0.0295818 -0.999525 
-0.00959931 0.0230993 -0.999694 
-0.00976557 0.0177611 -0.999802 
-0.00989106 0.0133563 -0.999869 
-0.0100922 0.00966925 -0.999909 
-0.0100863 0.00627051 -0.999937 
-0.0100162 0.00340659 -0.999951 
-0.0100221 0.000693773 -0.999957 
-0.00997662 -0.00188877 -0.999955 
-0.00996166 -0.00432226 -0.999948 
-0.00987088 -0.00656955 -0.999935 
-0.00955447 -0.00868757 -0.999924 
-0.00918741 -0.0108905 -0.999906 
-0.00864769 -0.0134213 -0.99988 
-0.00788596 -0.0162659 -0.999844 
-0.00835497 -0.0188291 -0.999795 
-0.00722024 -0.0223403 -0.999732 
-0.00574203 -0.0237361 -0.999711 
-0.00429442 -0.0223107 -0.999753 
-0.00270245 -0.0233273 -0.999734 
-0.00142859 -0.0254367 -0.999677 
0.00119166 -0.0253635 0.999679 
0.00236536 -0.0230232 0.999743 