# vtk DataFile Version 3.0 
Exported using Morpho https://github.com/Morpho-lang/morpho 
ASCII 
DATASET UNSTRUCTURED_GRID 

POINTS 2054 float 
-8.48528 -2.82843 0 
-8.20636 -2.82843 0 
-7.94054 -2.82843 0 
-7.6904 -2.82843 0 
-7.45357 -2.82843 0 
-7.22694 -2.82843 0 
-7.00705 -2.82843 0 
-6.79111 -2.82843 0 
-6.57731 -2.82843 0 
-6.36453 -2.82843 0 
-6.15219 -2.82843 0 
-5.94 -2.82843 0 
-5.72786 -2.82843 0 
-5.51573 -2.82843 0 
-5.3036 -2.82843 0 
-5.09147 -2.82843 0 
-4.87933 -2.82843 0 
-4.6672 -2.82843 0 
-4.45507 -2.82843 0 
-4.24294 -2.82843 0 
-4.03081 -2.82843 0 
-3.81867 -2.82843 0 
-3.60654 -2.82843 0 
-3.39441 -2.82843 0 
-3.18228 -2.82843 0 
-2.97015 -2.82843 0 
-2.75801 -2.82843 0 
-2.54588 -2.82843 0 
-2.33375 -2.82843 0 
-2.12162 -2.82843 0 
-1.90949 -2.82843 0 
-1.69735 -2.82843 0 
-1.48522 -2.82843 0 
-1.27309 -2.82843 0 
-1.06096 -2.82843 0 
-0.848825 -2.82843 0 
-0.636693 -2.82843 0 
-0.424561 -2.82843 0 
-0.212429 -2.82843 0 
-0.000296761 -2.82843 0 
0.211835 -2.82843 0 
0.423967 -2.82843 0 
0.636099 -2.82843 0 
0.848231 -2.82843 0 
1.06036 -2.82843 0 
1.2725 -2.82843 0 
1.48463 -2.82843 0 
1.69676 -2.82843 0 
1.90889 -2.82843 0 
2.12102 -2.82843 0 
2.33316 -2.82843 0 
2.54529 -2.82843 0 
2.75742 -2.82843 0 
2.96955 -2.82843 0 
3.18168 -2.82843 0 
3.39382 -2.82843 0 
3.60595 -2.82843 0 
3.81808 -2.82843 0 
4.03021 -2.82843 0 
4.24234 -2.82843 0 
4.45448 -2.82843 0 
4.66661 -2.82843 0 
4.87874 -2.82843 0 
5.09087 -2.82843 0 
5.303 -2.82843 0 
5.51514 -2.82843 0 
5.72727 -2.82843 0 
5.93941 -2.82843 0 
6.15159 -2.82843 0 
6.36393 -2.82843 0 
6.57672 -2.82843 0 
6.79055 -2.82843 0 
7.00652 -2.82843 0 
7.22647 -2.82843 0 
7.45313 -2.82843 0 
7.69005 -2.82843 0 
7.9403 -2.82843 0 
8.20621 -2.82843 0 
8.48528 -2.82843 0 
-8.48528 -2.5495 0 
-8.30526 -2.64845 0 
-8.07062 -2.59995 0 
-7.83904 -2.59637 0 
-7.59595 -2.59733 0 
-7.36578 -2.59177 0 
-7.13796 -2.5933 0 
-6.90908 -2.59428 0 
-6.68421 -2.5916 0 
-6.46568 -2.58832 0 
-6.24926 -2.58859 0 
-6.03358 -2.58941 0 
-5.81848 -2.59013 0 
-5.60402 -2.59075 0 
-5.39005 -2.59135 0 
-5.17642 -2.59186 0 
-4.96311 -2.59223 0 
-4.75009 -2.59242 0 
-4.53736 -2.59244 0 
-4.32497 -2.59236 0 
-4.1128 -2.59242 0 
-3.90059 -2.59259 0 
-3.68835 -2.5926 0 
-3.47627 -2.59248 0 
-3.26428 -2.59251 0 
-3.05216 -2.59271 0 
-2.83986 -2.59283 0 
-2.62755 -2.59274 0 
-2.41539 -2.59253 0 
-2.20336 -2.59238 0 
-1.99135 -2.59238 0 
-1.77924 -2.59246 0 
-1.56704 -2.59244 0 
-1.35495 -2.59215 0 
-1.14319 -2.59183 0 
-0.931581 -2.59195 0 
-0.719663 -2.59256 0 
-0.507197 -2.59324 0 
-0.294425 -2.59354 0 
-0.0817689 -2.59344 0 
0.130587 -2.59325 0 
0.342804 -2.59322 0 
0.555051 -2.59322 0 
0.767233 -2.59303 0 
0.97919 -2.59278 0 
1.19107 -2.59278 0 
1.40311 -2.59289 0 
1.61524 -2.59286 0 
1.82732 -2.59279 0 
2.03943 -2.59281 0 
2.25163 -2.5928 0 
2.46381 -2.59266 0 
2.67591 -2.59254 0 
2.88801 -2.59237 0 
3.10001 -2.59226 0 
3.31203 -2.59216 0 
3.52402 -2.59207 0 
3.73601 -2.59208 0 
3.94815 -2.59221 0 
4.16052 -2.5923 0 
4.37309 -2.59232 0 
4.58593 -2.59227 0 
4.79921 -2.5922 0 
5.01319 -2.59212 0 
5.22833 -2.5921 0 
5.44534 -2.59239 0 
5.6657 -2.59346 0 
5.89185 -2.59569 0 
6.12685 -2.59429 0 
6.36853 -2.59189 0 
6.6108 -2.57787 0 
6.84491 -2.61411 0 
7.08804 -2.58476 0 
7.34858 -2.60369 0 
7.58803 -2.59327 0 
7.83059 -2.59326 0 
8.06387 -2.59199 0 
8.30038 -2.64348 0 
8.48528 -2.54936 0 
-8.48528 -2.28369 0 
-8.25701 -2.4138 0 
-8.01078 -2.35334 0 
-7.73666 -2.37963 0 
-7.49744 -2.35565 0 
-7.26898 -2.35831 0 
-7.03324 -2.36676 0 
-6.7997 -2.36275 0 
-6.5773 -2.35166 0 
-6.35808 -2.3495 0 
-6.14038 -2.35058 0 
-5.92336 -2.35185 0 
-5.70723 -2.35272 0 
-5.49199 -2.35362 0 
-5.27734 -2.35447 0 
-5.0632 -2.35505 0 
-4.84958 -2.35534 0 
-4.63641 -2.35533 0 
-4.42363 -2.35504 0 
-4.21126 -2.35485 0 
-3.99909 -2.35513 0 
-3.78684 -2.3554 0 
-3.57461 -2.35516 0 
-3.36263 -2.35498 0 
-3.15066 -2.35537 0 
-2.93843 -2.35586 0 
-2.72604 -2.35589 0 
-2.51374 -2.35551 0 
-2.30162 -2.35509 0 
-2.08964 -2.35496 0 
-1.87761 -2.35518 0 
-1.66544 -2.3554 0 
-1.45322 -2.35518 0 
-1.2412 -2.35438 0 
-1.02967 -2.35407 0 
-0.818162 -2.35505 0 
-0.606054 -2.35676 0 
-0.393243 -2.3579 0 
-0.180256 -2.35789 0 
0.0323765 -2.35727 0 
0.244686 -2.35692 0 
0.456926 -2.35692 0 
0.669206 -2.35667 0 
0.881318 -2.35598 0 
1.09315 -2.35559 0 
1.305 -2.35583 0 
1.51709 -2.35595 0 
1.72919 -2.35571 0 
1.9412 -2.35566 0 
2.15334 -2.3558 0 
2.36559 -2.3556 0 
2.57772 -2.35522 0 
2.78976 -2.35507 0 
3.0019 -2.35461 0 
3.21373 -2.35451 0 
3.42571 -2.35439 0 
3.63769 -2.35431 0 
3.84965 -2.35453 0 
4.06183 -2.35491 0 
4.27435 -2.35507 0 
4.48707 -2.35507 0 
4.70017 -2.35506 0 
4.91376 -2.35498 0 
5.12819 -2.35502 0 
5.34378 -2.35528 0 
5.56106 -2.35662 0 
5.78097 -2.35971 0 
6.00401 -2.36251 0 
6.2308 -2.3624 0 
6.45748 -2.35551 0 
6.68075 -2.33423 0 
6.88797 -2.39744 0 
7.05313 -2.27289 0 
7.24377 -2.40237 0 
7.48542 -2.36016 0 
7.73055 -2.36599 0 
7.99177 -2.33552 0 
8.24864 -2.40698 0 
8.48528 -2.28345 0 
-8.48528 -2.03355 0 
-8.25312 -2.18214 0 
-8.03669 -2.07913 0 
-7.83956 -2.18231 0 
-7.6106 -2.12852 0 
-7.38852 -2.10959 0 
-7.16268 -2.14097 0 
-6.9229 -2.1435 0 
-6.70119 -2.12055 0 
-6.48111 -2.11285 0 
-6.26282 -2.11284 0 
-6.045 -2.1151 0 
-5.82775 -2.11658 0 
-5.61153 -2.11776 0 
-5.3962 -2.1192 0 
-5.18144 -2.1203 0 
-4.96732 -2.12084 0 
-4.75387 -2.12105 0 
-4.54086 -2.12091 0 
-4.32822 -2.12045 0 
-4.11596 -2.12045 0 
-3.90382 -2.12107 0 
-3.69156 -2.12116 0 
-3.47938 -2.12058 0 
-3.26746 -2.12068 0 
-3.05542 -2.12154 0 
-2.84307 -2.12198 0 
-2.63064 -2.12162 0 
-2.41836 -2.12087 0 
-2.20626 -2.12031 0 
-1.99426 -2.12034 0 
-1.78217 -2.1207 0 
-1.56989 -2.12074 0 
-1.35755 -2.11993 0 
-1.14542 -2.11838 0 
-0.934012 -2.11859 0 
-0.722404 -2.12089 0 
-0.509943 -2.12344 0 
-0.296911 -2.12431 0 
-0.0840921 -2.12359 0 
0.128295 -2.12281 0 
0.340414 -2.12274 0 
0.552564 -2.12288 0 
0.76478 -2.12226 0 
0.976792 -2.1213 0 
1.18855 -2.12128 0 
1.40042 -2.12188 0 
1.61256 -2.12177 0 
1.82458 -2.12141 0 
2.03655 -2.12164 0 
2.24875 -2.12174 0 
2.46099 -2.12114 0 
2.67302 -2.12065 0 
2.88504 -2.12054 0 
3.09728 -2.1194 0 
3.30873 -2.11968 0 
3.52086 -2.1195 0 
3.7329 -2.11938 0 
3.94484 -2.11986 0 
4.15715 -2.12044 0 
4.36983 -2.12035 0 
4.58282 -2.1204 0 
4.79606 -2.12017 0 
5.01004 -2.12012 0 
5.22483 -2.12002 0 
5.44073 -2.12051 0 
5.6582 -2.123 0 
5.8782 -2.12696 0 
6.10217 -2.12971 0 
6.33095 -2.12707 0 
6.567 -2.11601 0 
6.82301 -2.12303 0 
7.06572 -2.04567 0 
7.29733 -2.17484 0 
7.54632 -2.11408 0 
7.79371 -2.13741 0 
8.02274 -2.07453 0 
8.25027 -2.1738 0 
8.48528 -2.0332 0 
-8.48528 -1.79671 0 
-8.25436 -1.93882 0 
-8.01299 -1.83977 0 
-7.78596 -1.953 0 
-7.5297 -1.87194 0 
-7.2756 -1.88722 0 
-7.05707 -1.93544 0 
-6.84369 -1.89677 0 
-6.62219 -1.88079 0 
-6.40169 -1.87606 0 
-6.18206 -1.87854 0 
-5.96274 -1.881 0 
-5.74458 -1.88208 0 
-5.52796 -1.88344 0 
-5.31232 -1.88506 0 
-5.09736 -1.88569 0 
-4.88338 -1.88564 0 
-4.67019 -1.88555 0 
-4.45737 -1.88507 0 
-4.24485 -1.88447 0 
-4.03271 -1.88482 0 
-3.82061 -1.88562 0 
-3.60832 -1.88529 0 
-3.39617 -1.88464 0 
-3.18427 -1.88547 0 
-2.97209 -1.88672 0 
-2.7596 -1.88684 0 
-2.54714 -1.88601 0 
-2.33483 -1.88505 0 
-2.12268 -1.8846 0 
-1.91058 -1.885 0 
-1.69824 -1.88561 0 
-1.48561 -1.88547 0 
-1.27286 -1.88413 0 
-1.06032 -1.88216 0 
-0.848858 -1.8839 0 
-0.636875 -1.88781 0 
-0.424169 -1.89034 0 
-0.211518 -1.89004 0 
0.000731944 -1.88866 0 
0.21257 -1.88788 0 
0.424308 -1.88807 0 
0.636257 -1.88793 0 
0.848362 -1.88664 0 
1.06025 -1.88556 0 
1.27191 -1.88605 0 
1.48381 -1.88664 0 
1.69595 -1.886 0 
1.90782 -1.88577 0 
2.11974 -1.88637 0 
2.33202 -1.88609 0 
2.54419 -1.88502 0 
2.75607 -1.88472 0 
2.96812 -1.88462 0 
3.18055 -1.88217 0 
3.39117 -1.88415 0 
3.60398 -1.8838 0 
3.81618 -1.88366 0 
4.02827 -1.88469 0 
4.24071 -1.88523 0 
4.4544 -1.88509 0 
4.66716 -1.88476 0 
4.88099 -1.88493 0 
5.09545 -1.88466 0 
5.31057 -1.88453 0 
5.52653 -1.88564 0 
5.7436 -1.88981 0 
5.96352 -1.89563 0 
6.18733 -1.89813 0 
6.41543 -1.89522 0 
6.65059 -1.89622 0 
6.87542 -1.86913 0 
7.11122 -1.81621 0 
7.31223 -1.94975 0 
7.53264 -1.87683 0 
7.77077 -1.89068 0 
8.01717 -1.8297 0 
8.25014 -1.93148 0 
8.48528 -1.79628 0 
-8.48528 -1.57009 0 
-8.24868 -1.70836 0 
-8.015 -1.61096 0 
-7.76734 -1.73071 0 
-7.54593 -1.61782 0 
-7.32306 -1.66278 0 
-7.05152 -1.7082 0 
-6.79786 -1.66675 0 
-6.56099 -1.64764 0 
-6.33267 -1.64541 0 
-6.10856 -1.64921 0 
-5.88638 -1.65073 0 
-5.66697 -1.65153 0 
-5.44986 -1.65353 0 
-5.23379 -1.65525 0 
-5.01882 -1.6551 0 
-4.80519 -1.6548 0 
-4.59235 -1.65478 0 
-4.37976 -1.65422 0 
-4.16737 -1.65386 0 
-3.95537 -1.65471 0 
-3.74326 -1.6554 0 
-3.5309 -1.65455 0 
-3.31876 -1.65426 0 
-3.10682 -1.65593 0 
-2.89443 -1.65705 0 
-2.68177 -1.65644 0 
-2.46924 -1.65516 0 
-2.25682 -1.65408 0 
-2.04447 -1.65386 0 
-1.83202 -1.65455 0 
-1.61911 -1.65506 0 
-1.40572 -1.65429 0 
-1.19212 -1.65207 0 
-0.97885 -1.64982 0 
-0.767325 -1.65372 0 
-0.555434 -1.6581 0 
-0.343588 -1.65935 0 
-0.132061 -1.65818 0 
0.0792288 -1.65687 0 
0.290417 -1.65682 0 
0.501823 -1.6575 0 
0.713729 -1.65709 0 
0.925861 -1.65545 0 
1.13768 -1.65488 0 
1.34929 -1.65604 0 
1.56128 -1.6563 0 
1.77337 -1.65516 0 
1.985 -1.65561 0 
2.19698 -1.65642 0 
2.40939 -1.65525 0 
2.62143 -1.65394 0 
2.83323 -1.65414 0 
3.04553 -1.65355 0 
3.25842 -1.64868 0 
3.46746 -1.65522 0 
3.68272 -1.65284 0 
3.89574 -1.65288 0 
4.10731 -1.65378 0 
4.32287 -1.65565 0 
4.53627 -1.65249 0 
4.74932 -1.65397 0 
4.96428 -1.65355 0 
5.17935 -1.65257 0 
5.3944 -1.65202 0 
5.60927 -1.65354 0 
5.82513 -1.66019 0 
6.04295 -1.66711 0 
6.26383 -1.66843 0 
6.48537 -1.66776 0 
6.70098 -1.65646 0 
6.91299 -1.6206 0 
7.11709 -1.6046 0 
7.3526 -1.69716 0 
7.60698 -1.65764 0 
7.8325 -1.64214 0 
8.05985 -1.58842 0 
8.2608 -1.69223 0 
8.48528 -1.56961 0 
-8.48528 -1.35019 0 
-8.24958 -1.48044 0 
-8.0219 -1.3751 0 
-7.79713 -1.50391 0 
-7.58956 -1.39834 0 
-7.36199 -1.38754 0 
-7.16079 -1.49923 0 
-6.93764 -1.46284 0 
[...]
POINT_DATA 2054 
VECTORS vectors float
0.000129838 -0.000892268 1 
7.96628e-06 -0.0203652 0.999793 
5.10021e-05 -0.0232053 0.999731 
8.93798e-05 -0.0226769 0.999743 
9.51586e-05 -0.0204289 0.999791 
0.000122511 -0.0177378 0.999843 
0.000130275 -0.0152139 0.999884 
0.000138769 -0.0128312 0.999918 
0.000141779 -0.0104423 0.999945 
0.000143441 -0.00800764 0.999968 
0.000144202 -0.00556199 0.999985 
0.000144522 -0.00313994 0.999995 
0.00014469 -0.000744918 1 
0.000144708 0.00166466 0.999999 
0.000144613 0.00417183 0.999991 
0.000144343 0.00688894 0.999976 
0.000143938 0.00995 0.99995 
0.000143377 0.0135096 0.999909 
0.000142568 0.0177486 0.999842 
0.000141532 0.0228816 0.999738 
0.000140175 0.0291662 0.999575 
0.000138486 0.0369147 0.999318 
0.000136374 0.0465073 0.998918 
0.000133682 0.058411 0.998293 
0.000130348 0.0731979 0.997317 
0.000126156 0.0915679 0.995799 
0.00012095 0.114375 0.993438 
0.000114488 0.142646 0.989774 
0.000106436 0.1776 0.984103 
9.65128e-05 0.220648 0.975353 
8.43322e-05 0.273341 0.961917 
6.96245e-05 0.337241 0.941418 
5.22746e-05 0.41361 0.910454 
3.25998e-05 0.502871 0.864361 
1.18323e-05 0.603693 0.797217 
-7.48895e-06 0.71179 0.702393 
-2.13306e-05 0.818769 0.574123 
-2.52053e-05 0.911989 0.410214 
-1.70332e-05 0.97658 0.215154 
-2.43383e-07 0.999999 0.00154619 
1.66355e-05 0.977223 -0.212214 
2.50127e-05 0.913127 -0.407675 
2.1341e-05 0.820179 -0.572107 
7.62057e-06 0.713263 -0.700897 
-1.16514e-05 0.605089 -0.796158 
-3.24112e-05 0.504103 -0.863643 
-5.21001e-05 0.414656 -0.909978 
-6.94859e-05 0.338105 -0.941109 
-8.42276e-05 0.274044 -0.961717 
-9.64026e-05 0.221212 -0.975226 
-0.000106348 0.178046 -0.984022 
-0.000114419 0.142998 -0.989723 
-0.000120896 0.114653 -0.993406 
-0.000126119 0.0917883 -0.995779 
-0.000130279 0.0733719 -0.997305 
-0.000133628 0.0585485 -0.998285 
-0.000136331 0.0466173 -0.998913 
-0.00013846 0.0370035 -0.999315 
-0.000140172 0.0292393 -0.999572 
-0.000141486 0.0229428 -0.999737 
-0.000142526 0.0178005 -0.999842 
-0.000143341 0.0135544 -0.999908 
-0.000143909 0.009989 -0.99995 
-0.000144314 0.00692287 -0.999976 
-0.000144518 0.00420152 -0.999991 
-0.000144618 0.00169284 -0.999999 
-0.000144588 -0.000713255 -1 
-0.000144632 -0.00309896 -0.999995 
-0.000143701 -0.00551396 -0.999985 
-0.000144205 -0.00794341 -0.999968 
-0.000138966 -0.0103205 -0.999947 
-0.000141287 -0.0126913 -0.999919 
-0.000129103 -0.0150166 -0.999887 
-0.000122072 -0.0175143 -0.999847 
-9.56271e-05 -0.0201759 -0.999796 
-8.86901e-05 -0.0223522 -0.99975 
-5.1211e-05 -0.0228364 -0.999739 
-6.72602e-06 -0.0200541 -0.999799 
-0.000132301 -0.000886591 -1 
-0.000126145 0.000576209 1 
0.005346 -0.0153626 0.999868 
0.00881571 -0.0213121 0.999734 
0.0100708 -0.0221964 0.999703 
0.0109489 -0.0211562 0.999716 
0.0117089 -0.019007 0.999751 
0.0120878 -0.0164482 0.999792 
0.0123501 -0.0138602 0.999828 
0.0126319 -0.0113693 0.999856 
0.0128673 -0.00894885 0.999877 
0.0129754 -0.00653866 0.999894 
0.0130529 -0.00413559 0.999906 
0.0131137 -0.00174133 0.999912 
0.0131514 0.000667831 0.999913 
0.013161 0.00315251 0.999908 
0.0131434 0.00580774 0.999897 
0.0130987 0.0087557 0.999876 
0.0130259 0.0121424 0.999841 
0.0129227 0.0161378 0.999786 
0.0127842 0.0209406 0.999699 
0.0125994 0.0267912 0.999562 
0.0123638 0.0339865 0.999346 
0.012078 0.0428817 0.999007 
0.0117329 0.0539004 0.998477 
0.0113116 0.0675726 0.99765 
0.0108032 0.0845624 0.99636 
0.0102014 0.105675 0.994348 
0.00949634 0.131862 0.991223 
0.00867466 0.164242 0.986382 
0.00772545 0.20414 0.978911 
0.0066467 0.253059 0.967428 
0.0054504 0.31259 0.949873 
0.00416859 0.384135 0.923267 
0.00285987 0.468415 0.883504 
0.00161169 0.564738 0.825268 
0.000537036 0.670172 0.742205 
-0.000241859 0.778365 0.627812 
-0.000631325 0.878489 0.477762 
-0.000618352 0.955967 0.293473 
-0.000306064 0.996403 0.0847401 
0.000104012 0.991335 -0.131357 
0.000379486 0.942003 -0.335604 
0.000335975 0.858564 -0.512706 
-0.000108392 0.75566 -0.654964 
-0.000925649 0.64721 -0.762311 
-0.00201584 0.543163 -0.839625 
-0.00325788 0.449156 -0.893448 
-0.00454301 0.367605 -0.929971 
-0.00578853 0.298761 -0.95431 
-0.00694218 0.241627 -0.970344 
-0.00797936 0.19474 -0.980822 
-0.0088929 0.15657 -0.987627 
-0.00968291 0.125654 -0.992027 
-0.0103599 0.100684 -0.994865 
-0.0109328 0.0805617 -0.99669 
-0.0114148 0.0643549 -0.997862 
-0.0118174 0.0513075 -0.998613 
-0.0121482 0.0407949 -0.999094 
-0.0124152 0.0323045 -0.999401 
-0.0126299 0.0254227 -0.999597 
-0.0127984 0.0198144 -0.999722 
-0.012925 0.0152001 -0.999801 
-0.0130107 0.0113468 -0.999851 
-0.0130563 0.00805803 -0.999882 
-0.0130602 0.00516496 -0.999901 
-0.0130149 0.00252154 -0.999912 
-0.012903 -2.62985e-06 -0.999917 
-0.0126995 -0.00252019 -0.999916 
-0.0125387 -0.00511619 -0.999908 
-0.0123939 -0.00776823 -0.999893 
-0.0126543 -0.0104076 -0.999866 
-0.0117707 -0.0130445 -0.999846 
-0.012084 -0.01566 -0.999804 
-0.0112372 -0.0185943 -0.999764 
-0.0108627 -0.0207543 -0.999726 
-0.0099436 -0.021798 -0.999713 
-0.00873365 -0.0209761 -0.999742 
-0.00530938 -0.015278 -0.999869 
0.00012768 0.00057347 -1 
2.32619e-05 9.47954e-05 1 
0.006584 -0.0166697 0.999839 
0.0100887 -0.0211537 0.999725 
0.0123745 -0.0214479 0.999693 
0.0137125 -0.0200052 0.999706 
0.0145592 -0.0177652 0.999736 
0.0151172 -0.0150971 0.999772 
0.0155266 -0.0124598 0.999802 
0.0158357 -0.0100147 0.999824 
0.016053 -0.00763014 0.999842 
0.0162214 -0.00526167 0.999855 
0.0163522 -0.00288807 0.999862 
0.0164437 -0.000490861 0.999865 
0.0164923 0.00196802 0.999862 
0.0164975 0.00456057 0.999854 
0.0164593 0.0073912 0.999837 
0.0163762 0.0105927 0.99981 
0.0162456 0.014324 0.999765 
0.0160639 0.0187718 0.999695 
0.0158248 0.0241549 0.999583 
0.0155204 0.0307416 0.999407 
0.0151444 0.0388651 0.99913 
0.0146895 0.0489198 0.998695 
0.0141445 0.0613749 0.998015 
0.0134966 0.0768317 0.996953 
0.0127346 0.096041 0.995296 
0.0118482 0.119888 0.992717 
0.010829 0.149406 0.988717 
0.00967315 0.185813 0.982538 
0.00838519 0.230513 0.973033 
0.00698143 0.285066 0.958483 
0.00549668 0.350988 0.936364 
0.00399047 0.429372 0.903119 
0.00254939 0.520257 0.854006 
0.00127938 0.62173 0.78323 
0.000282295 0.729248 0.684249 
-0.000359925 0.834335 0.551257 
-0.0006143 0.924018 0.382349 
-0.000535228 0.983064 0.183259 
-0.000271459 0.999498 -0.0316947 
-2.27357e-05 0.969914 -0.243449 
1.98547e-05 0.900781 -0.434274 
-0.000275583 0.805311 -0.592853 
-0.000951157 0.698266 -0.715838 
-0.0019653 0.591593 -0.806235 
-0.00322988 0.49273 -0.870176 
-0.00464124 0.405357 -0.914147 
-0.00609927 0.330665 -0.943728 
-0.00752534 0.268183 -0.963339 
-0.00886728 0.216592 -0.976222 
-0.0100935 0.174399 -0.984623 
-0.0111889 0.140139 -0.990069 
-0.0121512 0.112422 -0.993586 
-0.0129873 0.0900391 -0.995854 
-0.0137041 0.0720213 -0.997309 
-0.0143138 0.0574959 -0.998243 
-0.0148265 0.0457925 -0.998841 
-0.0152514 0.0363515 -0.999223 
-0.0155979 0.0287082 -0.999466 
-0.0158754 0.0224905 -0.999621 
-0.01609 0.0173984 -0.999719 
-0.0162463 0.013176 -0.999781 
-0.0163472 0.00961172 -0.99982 
-0.0163935 0.00652374 -0.999844 
-0.0163859 0.00375935 -0.999859 
-0.0163245 0.00119061 -0.999866 
-0.0162092 -0.00128376 -0.999868 
-0.0160538 -0.00372775 -0.999864 
-0.0158713 -0.00618044 -0.999855 
-0.0157021 -0.00861971 -0.99984 
-0.0156573 -0.0110337 -0.999817 
-0.0150263 -0.0133269 -0.999798 
-0.0151215 -0.0151248 -0.999771 
-0.0143776 -0.017343 -0.999746 
-0.013553 -0.0195816 -0.999716 
-0.0121134 -0.0209537 -0.999707 
-0.00994807 -0.0207945 -0.999734 
-0.00656056 -0.0166302 -0.99984 
-2.57098e-05 9.52251e-05 -1 
-1.17695e-05 0.000173052 1 
0.00574462 -0.0165618 0.999846 
0.00866604 -0.0208438 0.999745 
0.0111846 -0.0215447 0.999705 
0.0126649 -0.0206458 0.999707 
0.0137973 -0.0189162 0.999726 
0.0147671 -0.0165172 0.999755 
0.0153765 -0.0137497 0.999787 
0.0157112 -0.011266 0.999813 
0.0160036 -0.00888659 0.999832 
0.0162563 -0.0065516 0.999846 
0.0164613 -0.00421225 0.999856 
0.0166111 -0.00183879 0.99986 
0.0167072 0.000592837 0.99986 
0.016751 0.00312734 0.999855 
0.0167413 0.00584611 0.999843 
0.0166775 0.00886303 0.999822 
0.0165587 0.0123211 0.999787 
0.0163815 0.016394 0.999731 
0.0161419 0.0212841 0.999643 
0.0158358 0.0272291 0.999504 
0.0154565 0.0345252 0.999284 
0.0149931 0.0435388 0.998939 
0.0144373 0.0546985 0.998399 
0.013784 0.0685188 0.997555 
0.0130229 0.0856712 0.996238 
0.0121414 0.106977 0.994187 
0.0111336 0.133384 0.991002 
0.0100009 0.165997 0.986076 
0.0087513 0.206112 0.978489 
0.00740221 0.255189 0.966863 
0.00598271 0.314782 0.949145 
0.00453978 0.38628 0.92237 
0.00314185 0.470401 0.882447 
0.0018734 0.566434 0.824105 
0.000821364 0.67113 0.741339 
4.51105e-05 0.778486 0.627662 
-0.00042051 0.87812 0.47844 
-0.000586901 0.955554 0.294816 
-0.000533133 0.996235 0.086688 
-0.000392842 0.991662 -0.128869 
-0.00031819 0.943053 -0.332641 
-0.000443572 0.86048 -0.509484 
-0.000855313 0.75839 -0.651801 
-0.00157432 0.650605 -0.759415 
-0.00256684 0.547066 -0.837086 
-0.0037684 0.453294 -0.891353 
-0.00509771 0.371652 -0.928358 
-0.00647294 0.30256 -0.953108 
-0.00783025 0.245086 -0.96947 
-0.00912179 0.19778 -0.980204 
-0.0103141 0.159187 -0.987195 
-0.0113921 0.127896 -0.991722 
-0.012352 0.102583 -0.994648 
-0.013192 0.0821359 -0.996534 
-0.0139221 0.0657032 -0.997742 
-0.0145474 0.0524156 -0.998519 
-0.0150753 0.0417042 -0.999016 
-0.0155153 0.0330525 -0.999333 
-0.0158745 0.026027 -0.999535 
-0.0161583 0.0202917 -0.999664 
-0.0163751 0.0155675 -0.999745 
-0.0165277 0.0116232 -0.999796 
-0.0166195 0.00825462 -0.999828 
-0.0166509 0.00529692 -0.999847 
-0.0166229 0.00260907 -0.999858 
-0.0165404 8.06731e-05 -0.999863 
-0.0164055 -0.00236614 -0.999863 
-0.0162163 -0.00478545 -0.999857 
-0.015971 -0.00721794 -0.999846 
-0.0156451 -0.00972235 -0.99983 
-0.0152183 -0.0124694 -0.999806 
-0.014499 -0.0152419 -0.999779 
-0.0141993 -0.0178087 -0.999741 
-0.0127032 -0.0198596 -0.999722 
-0.011044 -0.0209605 -0.999719 
-0.00853997 -0.0205345 -0.999753 
-0.00560297 -0.0163527 -0.999851 
1.20025e-05 0.000173025 -1 
-5.24638e-06 0.000134653 1 
0.00494892 -0.0164336 0.999853 
0.00786318 -0.0210323 0.999748 
0.010585 -0.0213293 0.999716 
0.0118538 -0.0200641 0.999728 
0.0132077 -0.0177643 0.999755 
0.0142823 -0.0152942 0.999781 
0.014523 -0.0128036 0.999813 
0.0148122 -0.010369 0.999837 
0.0151024 -0.00802127 0.999854 
0.015379 -0.00569693 0.999866 
0.015594 -0.00334187 0.999873 
0.0157394 -0.000928294 0.999876 
0.0158273 0.00156721 0.999874 
0.0158588 0.00419906 0.999865 
0.0158275 0.00706049 0.99985 
0.0157359 0.0102735 0.999823 
0.0155862 0.0139937 0.999781 
0.0153729 0.0184101 0.999712 
0.0150935 0.0237404 0.999604 
0.0147493 0.030239 0.999434 
0.0143297 0.0382304 0.999166 
0.0138183 0.0481145 0.998746 
0.0132144 0.0603482 0.99809 
0.0125214 0.0754908 0.997068 
0.0117242 0.0942858 0.995476 
0.01081 0.11761 0.993001 
0.00978211 0.146461 0.989168 
0.00865135 0.182017 0.983257 
0.00743381 0.22563 0.974185 
0.00615274 0.278794 0.960331 
0.00483914 0.343058 0.939302 
0.00354067 0.419631 0.907688 
0.00232203 0.50879 0.860888 
0.00125547 0.60898 0.793185 
0.000407607 0.715474 0.698639 
-0.000193545 0.820965 0.570978 
-0.000535963 0.91321 0.40749 
-0.000649435 0.977073 0.212905 
-0.000614406 1 0.000176701 
-0.000544768 0.977234 -0.212164 
-0.000561112 0.913844 -0.406066 
-0.000764263 0.822117 -0.569318 
-0.0012127 0.716622 -0.69746 
-0.00191426 0.609858 -0.792509 
-0.00283931 0.509968 -0.860189 
-0.00393481 0.420976 -0.907063 
-0.00513226 0.34435 -0.938827 
-0.00636804 0.279982 -0.959984 
-0.00759299 0.226631 -0.973951 
-0.00876265 0.182804 -0.98311 
-0.00984751 0.147123 -0.989069 
-0.0108391 0.118215 -0.992929 
-0.01173 0.0948138 -0.995426 
-0.0125063 0.0758988 -0.997037 
-0.0132032 0.0607489 -0.998066 
-0.0137946 0.048407 -0.998732 
-0.0142955 0.0384721 -0.999157 
-0.0147182 0.0304331 -0.999428 
-0.0150595 0.0238901 -0.999601 
-0.0153275 0.0185082 -0.999711 
-0.0155276 0.0140774 -0.99978 
-0.0156686 0.0103343 -0.999824 
-0.015748 0.00710628 -0.999851 
-0.0157705 0.00423704 -0.999867 
-0.0157419 0.00159787 -0.999875 
-0.015671 -0.000902539 -0.999877 
-0.0155457 -0.00332971 -0.999874 
-0.0153366 -0.00572202 -0.999866 
-0.0150375 -0.00812417 -0.999854 
-0.0146834 -0.0106145 -0.999836 
-0.0141077 -0.0130867 -0.999815 
-0.0132182 -0.0158491 -0.999787 
-0.0132955 -0.0180304 -0.999749 
-0.0118211 -0.020018 -0.99973 
-0.0101174 -0.0209085 -0.99973 
-0.00757762 -0.0207511 -0.999756 
-0.00485951 -0.0163334 -0.999855 
7.33777e-06 0.000134311 -1 
-5.82469e-07 0.000113021 1 
0.00432745 -0.0167494 0.99985 
0.0065965 -0.0211779 0.999754 
0.00942661 -0.0213764 0.999727 
0.0099887 -0.0204413 0.999741 
0.0113365 -0.018352 0.999767 
0.0125735 -0.0151759 0.999806 
0.0128198 -0.0122848 0.999842 
0.0130742 -0.00972748 0.999867 
0.0133848 -0.00732444 0.999884 
0.0136745 -0.00495589 0.999894 
0.0138728 -0.0025418 0.999901 
0.0139987 -6.09888e-05 0.999902 
0.0140738 0.0025158 0.999898 
0.0140885 0.00526103 0.999887 
0.014031 0.00827749 0.999867 
0.0139176 0.0116972 0.999835 
0.0137501 0.0156905 0.999782 
0.0135179 0.0204616 0.999699 
0.013224 0.0262435 0.999568 
0.0128722 0.0333066 0.999362 
0.012444 0.0420081 0.99904 
0.011923 0.0527781 0.998535 
0.0113232 0.0660986 0.997749 
0.0106505 0.0825794 0.996528 
0.00987912 0.103038 0.994628 
0.00900271 0.128396 0.991682 
0.00803679 0.159694 0.987134 
0.00699732 0.198188 0.980139 
0.00590377 0.245289 0.969432 
0.00477834 0.302525 0.95313 
0.00364766 0.37142 0.928458 
0.0025539 0.452965 0.891525 
0.00155271 0.546882 0.837208 
0.000701791 0.650557 0.759457 
4.85447e-05 0.757546 0.652782 
-0.000400665 0.85918 0.511674 
-0.000644024 0.941786 0.336211 
-0.000716769 0.990977 0.134032 
-0.000691206 0.996813 -0.079772 
-0.000661476 0.958125 -0.286348 
-0.000722644 0.882968 -0.469433 
-0.000949466 0.784835 -0.619704 
-0.00137953 0.677848 -0.735201 
-0.00201232 0.573094 -0.819487 
-0.00282234 0.477094 -0.878848 
-0.00376403 0.392658 -0.919677 
-0.00478143 0.320623 -0.947195 
-0.00583327 0.260477 -0.965462 
-0.00687994 0.210718 -0.977523 
-0.00787735 0.169913 -0.985428 
-0.00880896 0.136761 -0.990565 
-0.00967348 0.1099 -0.993896 
-0.0104509 0.0881265 -0.996054 
-0.0111115 0.0705141 -0.997449 
-0.0117679 0.0565105 -0.998333 
-0.0122812 0.0448963 -0.998916 
-0.0127289 0.0356095 -0.999285 
-0.0131028 0.0281287 -0.999518 
-0.0134225 0.0219231 -0.99967 
-0.0136296 0.0168869 -0.999765 
-0.0138177 0.0126995 -0.999824 
-0.0139325 0.00912046 -0.999861 
-0.0139891 0.00600658 -0.999884 
-0.0139981 0.00320998 -0.999897 
-0.0139731 0.000617159 -0.999902 
-0.0139376 -0.00185551 -0.999901 
-0.0138413 -0.0042475 -0.999895 
-0.0136273 -0.00659513 -0.999885 
-0.0133288 -0.00892273 -0.999871 
-0.0128855 -0.011227 -0.999854 
-0.0121742 -0.0136146 -0.999833 
-0.0115758 -0.0160777 -0.999804 
-0.011459 -0.0185785 -0.999762 
-0.00989589 -0.020633 -0.999738 
-0.00821756 -0.0213382 -0.999739 
-0.00598902 -0.0207332 -0.999767 
-0.00399187 -0.0160329 -0.999863 
-5.18636e-06 0.000112627 -1 
-2.78826e-07 0.00010021 1 
0.00351834 -0.0168539 0.999852 
0.00521319 -0.0213371 0.999759 
0.00763454 -0.0216696 0.999736 
0.00805491 -0.0210147 0.999747 
0.00883998 -0.0189015 0.999782 
0.010474 -0.0166029 0.999807 
0.0106754 -0.0139259 0.999846 
0.0108016 -0.0113731 0.999877 
0.011063 -0.00894727 0.999899 
0.0113815 -0.00658803 0.999914 
0.0116505 -0.00419954 0.999923 
0.0118038 -0.0017273 0.999929 
0.0119029 0.000812686 0.999929 
0.0119629 0.00347122 0.999922 
0.0119497 0.0063287 0.999909 
0.0118679 0.00950364 0.999884 
0.0117437 0.0131331 0.999845 
0.0115711 0.0174 0.999782 
0.0113392 0.0225357 0.999682 
0.0110521 0.0287756 0.999525 
0.0107145 0.0364124 0.999279 
0.0103009 0.0458349 0.998896 
0.00980475 0.0575014 0.998297 
0.00925033 0.071914 0.997368 
0.00863385 0.0897408 0.995928 
0.0079264 0.111868 0.993691 
0.00713488 0.139253 0.990231 
0.0062819 0.172989 0.984904 
0.00538353 0.214403 0.97673 
0.00445816 0.264958 0.96425 
0.00352383 0.326192 0.945297 
0.00260099 0.399538 0.916713 
0.00172502 0.485638 0.874158 
0.00093984 0.583456 0.812144 
0.000288007 0.689079 0.724686 
-0.000201685 0.794497 0.607269 
-0.000531044 0.890332 0.455311 
-0.00070102 0.962611 0.270887 
-0.000745405 0.997977 0.0635738 
-0.000725887 0.988715 -0.149808 
-0.000719056 0.936657 -0.350248 
-0.00079831 0.85219 -0.523232 
-0.0010167 0.749533 -0.661966 
-0.00139639 0.642235 -0.766507 
-0.00193312 0.540013 -0.841654 
-0.00260564 0.447878 -0.894091 
-0.00337528 0.367693 -0.929941 
-0.00420281 0.299821 -0.953986 
-0.0050658 0.24343 -0.969905 
-0.00592472 0.196794 -0.980427 
-0.00674137 0.158599 -0.98732 
-0.00751675 0.127649 -0.991791 
-0.00824696 0.10255 -0.994694 
-0.00889617 0.0821338 -0.996582 
-0.00942596 0.0655815 -0.997803 
-0.0100792 0.0526706 -0.998561 
-0.0104838 0.0414164 -0.999087 
-0.0108239 0.0329412 -0.999399 
-0.0112209 0.025695 -0.999607 
-0.0114131 0.019958 -0.999736 
-0.0115868 0.0152187 -0.999817 
-0.011764 0.0112726 -0.999867 
-0.0118345 0.00782382 -0.999899 
-0.0118531 0.00481214 -0.999918 
-0.0118299 0.0021004 -0.999928 
-0.0118183 -0.000463011 -0.99993 
-0.0117961 -0.00289359 -0.999926 
-0.0117127 -0.00524625 -0.999918 
-0.0114612 -0.00755279 -0.999906 
-0.011086 -0.00983732 -0.99989 
-0.0105262 -0.0122546 -0.99987 
-0.0096845 -0.015004 -0.999841 
-0.00990812 -0.0178128 -0.999792 
-0.00901343 -0.0199227 -0.999761 
-0.00746674 -0.0212294 -0.999747 
-0.00593239 -0.0215917 -0.999749 
-0.00338221 -0.0167995 -0.999853 
7.81505e-06 0.000102427 -1 
1.19585e-06 9.22297e-05 1 
0.00276422 -0.0169526 0.999852 
0.0040823 -0.0215222 0.99976 
0.00603063 -0.0218612 0.999743 
0.00664811 -0.0208145 0.999761 
0.00701662 -0.0185071 0.999804 
0.00857251 -0.0161288 0.999833 
0.00867136 -0.0133373 0.999873 
0.00887515 -0.0107418 0.999903 
0.00915785 -0.00830714 0.999924 
0.00947654 -0.00591857 0.999938 
0.00970745 -0.00345742 0.999947 
0.00980108 -0.000921459 0.999952 
0.00989212 0.00167484 0.99995 
0.00993113 0.00439946 0.999941 
0.00989804 0.00737066 0.999924 
0.00980555 0.0107051 0.999895 
0.00968381 0.0145257 0.999848 
0.00952561 0.0190778 0.999773 
0.00930504 0.0245793 0.999655 
0.00904101 0.0312756 0.99947 
0.00873012 0.0394805 0.999182 
0.00834766 0.0496194 0.998733 
0.00790052 0.0621513 0.998035 
0.00741255 0.077609 0.996956 
0.00686643 0.0967345 0.995287 
0.00624022 0.120466 0.992698 
0.00555406 0.149739 0.98871 
0.00483114 0.185669 0.982601 
0.00408468 0.229602 0.973276 
0.0033305 0.282922 0.959137 
0.0025818 0.347018 0.937855 
0.0018539 0.42309 0.906086 
0.00117472 0.511273 0.859418 
0.000573836 0.610105 0.79232 
7.75265e-05 0.71541 0.698705 
-0.000297645 0.819193 0.573518 
-0.000548083 0.911215 0.41193 
-0.000673065 0.97597 0.217906 
-0.000702292 0.999992 0.0040072 
-0.000689784 0.977639 -0.21029 
-0.00069955 0.914014 -0.405682 
-0.000787717 0.82187 -0.569674 
-0.000990058 0.716011 -0.698089 
-0.00131854 0.609356 -0.792896 
-0.00176782 0.510049 -0.860143 
-0.00231947 0.421631 -0.906764 
-0.00294158 0.345337 -0.938474 
-0.00361042 0.281269 -0.959622 
-0.0043139 0.228231 -0.973597 
-0.00501021 0.184216 -0.982873 
-0.00566996 0.148259 -0.988932 
-0.00631134 0.119295 -0.992839 
-0.0069219 0.0956407 -0.995392 
-0.00745263 0.0761754 -0.997067 
-0.00784874 0.0603312 -0.998148 
-0.00862317 0.0484726 -0.998787 
-0.00865592 0.0381489 -0.999235 
-0.00919621 0.0296261 -0.999519 
-0.00934353 0.0231359 -0.999689 
-0.0095078 0.0177907 -0.999797 
-0.00963122 0.0133794 -0.999864 
-0.00982776 0.00968697 -0.999905 
-0.00982134 0.00628469 -0.999932 
-0.00975145 0.0034264 -0.999947 
-0.00975409 0.000743317 -0.999952 
-0.00970492 -0.00176635 -0.999951 
-0.00968433 -0.00409231 -0.999945 
-0.00959189 -0.00625881 -0.999934 
-0.00928632 -0.00838465 -0.999922 
-0.00894141 -0.0106244 -0.999904 
-0.00842641 -0.0130985 -0.999879 
-0.0076776 -0.0158696 -0.999845 
-0.00812118 -0.0181944 -0.999801 
-0.00693931 -0.0205108 -0.999766 
-0.0054209 -0.0215422 -0.999753 
-0.00419735 -0.0209217 -0.999772 
-0.00236406 -0.0160822 -0.999868 
-7.38283e-06 8.83526e-05 -1 