# vtk DataFile Version 3.0 
Exported using Morpho https://github.com/Morpho-lang/morpho 
ASCII 
DATASET UNSTRUCTURED_GRID 

POINTS 2054 float 
-8.48528 -2.82843 0 
-8.20636 -2.82843 0 
-7.94054 -2.82843 0 
-7.6904 -2.82843 0 
-7.45357 -2.82843 0 
-7.22694 -2.82843 0 
-7.00705 -2.82843 0 
-6.79111 -2.82843 0 
-6.57731 -2.82843 0 
-6.36453 -2.82843 0 
-6.15219 -2.82843 0 
-5.94 -2.82843 0 
-5.72786 -2.82843 0 
-5.51573 -2.82843 0 
-5.3036 -2.82843 0 
-5.09147 -2.82843 0 
-4.87933 -2.82843 0 
-4.6672 -2.82843 0 
-4.45507 -2.82843 0 
-4.24294 -2.82843 0 
-4.03081 -2.82843 0 
-3.81867 -2.82843 0 
-3.60654 -2.82843 0 
-3.39441 -2.82843 0 
-3.18228 -2.82843 0 
-2.97015 -2.82843 0 
-2.75801 -2.82843 0 
-2.54588 -2.82843 0 
-2.33375 -2.82843 0 
-2.12162 -2.82843 0 
-1.90949 -2.82843 0 
-1.69735 -2.82843 0 
-1.48522 -2.82843 0 
-1.27309 -2.82843 0 
-1.06096 -2.82843 0 
-0.848825 -2.82843 0 
-0.636693 -2.82843 0 
-0.424561 -2.82843 0 
-0.212429 -2.82843 0 
-0.000296761 -2.82843 0 
0.211835 -2.82843 0 
0.423967 -2.82843 0 
0.636099 -2.82843 0 
0.848231 -2.82843 0 
1.06036 -2.82843 0 
1.2725 -2.82843 0 
1.48463 -2.82843 0 
1.69676 -2.82843 0 
1.90889 -2.82843 0 
2.12102 -2.82843 0 
2.33316 -2.82843 0 
2.54529 -2.82843 0 
2.75742 -2.82843 0 
2.96955 -2.82843 0 
3.18168 -2.82843 0 
3.39382 -2.82843 0 
3.60595 -2.82843 0 
3.81808 -2.82843 0 
4.03021 -2.82843 0 
4.24234 -2.82843 0 
4.45448 -2.82843 0 
4.66661 -2.82843 0 
4.87874 -2.82843 0 
5.09087 -2.82843 0 
5.303 -2.82843 0 
5.51514 -2.82843 0 
5.72727 -2.82843 0 
5.93941 -2.82843 0 
6.15159 -2.82843 0 
6.36393 -2.82843 0 
6.57672 -2.82843 0 
6.79055 -2.82843 0 
7.00652 -2.82843 0 
7.22647 -2.82843 0 
7.45313 -2.82843 0 
7.69005 -2.82843 0 
7.9403 -2.82843 0 
8.20621 -2.82843 0 
8.48528 -2.82843 0 
-8.48528 -2.5495 0 
-8.30526 -2.64845 0 
-8.07062 -2.59995 0 
-7.83904 -2.59637 0 
-7.59595 -2.59733 0 
-7.36578 -2.59177 0 
-7.13796 -2.5933 0 
-6.90908 -2.59428 0 
-6.68421 -2.5916 0 
-6.46568 -2.58832 0 
-6.24926 -2.58859 0 
-6.03358 -2.58941 0 
-5.81848 -2.59013 0 
-5.60402 -2.59075 0 
-5.39005 -2.59135 0 
-5.17642 -2.59186 0 
-4.96311 -2.59223 0 
-4.75009 -2.59242 0 
-4.53736 -2.59244 0 
-4.32497 -2.59236 0 
-4.1128 -2.59242 0 
-3.90059 -2.59259 0 
-3.68835 -2.5926 0 
-3.47627 -2.59248 0 
-3.26428 -2.59251 0 
-3.05216 -2.59271 0 
-2.83986 -2.59283 0 
-2.62755 -2.59274 0 
-2.41539 -2.59253 0 
-2.20336 -2.59238 0 
-1.99135 -2.59238 0 
-1.77924 -2.59246 0 
-1.56704 -2.59244 0 
-1.35495 -2.59215 0 
-1.14319 -2.59183 0 
-0.931581 -2.59195 0 
-0.719663 -2.59256 0 
-0.507197 -2.59324 0 
-0.294425 -2.59354 0 
-0.0817689 -2.59344 0 
0.130587 -2.59325 0 
0.342804 -2.59322 0 
0.555051 -2.59322 0 
0.767233 -2.59303 0 
0.97919 -2.59278 0 
1.19107 -2.59278 0 
1.40311 -2.59289 0 
1.61524 -2.59286 0 
1.82732 -2.59279 0 
2.03943 -2.59281 0 
2.25163 -2.5928 0 
2.46381 -2.59266 0 
2.67591 -2.59254 0 
2.88801 -2.59237 0 
3.10001 -2.59226 0 
3.31203 -2.59216 0 
3.52402 -2.59207 0 
3.73601 -2.59208 0 
3.94815 -2.59221 0 
4.16052 -2.5923 0 
4.37309 -2.59232 0 
4.58593 -2.59227 0 
4.79921 -2.5922 0 
5.01319 -2.59212 0 
5.22833 -2.5921 0 
5.44534 -2.59239 0 
5.6657 -2.59346 0 
5.89185 -2.59569 0 
6.12685 -2.59429 0 
6.36853 -2.59189 0 
6.6108 -2.57787 0 
6.84491 -2.61411 0 
7.08804 -2.58476 0 
7.34858 -2.60369 0 
7.58803 -2.59327 0 
7.83059 -2.59326 0 
8.06387 -2.59199 0 
8.30038 -2.64348 0 
8.48528 -2.54936 0 
-8.48528 -2.28369 0 
-8.25701 -2.4138 0 
-8.01078 -2.35334 0 
-7.73666 -2.37963 0 
-7.49744 -2.35565 0 
-7.26898 -2.35831 0 
-7.03324 -2.36676 0 
-6.7997 -2.36275 0 
-6.5773 -2.35166 0 
-6.35808 -2.3495 0 
-6.14038 -2.35058 0 
-5.92336 -2.35185 0 
-5.70723 -2.35272 0 
-5.49199 -2.35362 0 
-5.27734 -2.35447 0 
-5.0632 -2.35505 0 
-4.84958 -2.35534 0 
-4.63641 -2.35533 0 
-4.42363 -2.35504 0 
-4.21126 -2.35485 0 
-3.99909 -2.35513 0 
-3.78684 -2.3554 0 
-3.57461 -2.35516 0 
-3.36263 -2.35498 0 
-3.15066 -2.35537 0 
-2.93843 -2.35586 0 
-2.72604 -2.35589 0 
-2.51374 -2.35551 0 
-2.30162 -2.35509 0 
-2.08964 -2.35496 0 
-1.87761 -2.35518 0 
-1.66544 -2.3554 0 
-1.45322 -2.35518 0 
-1.2412 -2.35438 0 
-1.02967 -2.35407 0 
-0.818162 -2.35505 0 
-0.606054 -2.35676 0 
-0.393243 -2.3579 0 
-0.180256 -2.35789 0 
0.0323765 -2.35727 0 
0.244686 -2.35692 0 
0.456926 -2.35692 0 
0.669206 -2.35667 0 
0.881318 -2.35598 0 
1.09315 -2.35559 0 
1.305 -2.35583 0 
1.51709 -2.35595 0 
1.72919 -2.35571 0 
1.9412 -2.35566 0 
2.15334 -2.3558 0 
2.36559 -2.3556 0 
2.57772 -2.35522 0 
2.78976 -2.35507 0 
3.0019 -2.35461 0 
3.21373 -2.35451 0 
3.42571 -2.35439 0 
3.63769 -2.35431 0 
3.84965 -2.35453 0 
4.06183 -2.35491 0 
4.27435 -2.35507 0 
4.48707 -2.35507 0 
4.70017 -2.35506 0 
4.91376 -2.35498 0 
5.12819 -2.35502 0 
5.34378 -2.35528 0 
5.56106 -2.35662 0 
5.78097 -2.35971 0 
6.00401 -2.36251 0 
6.2308 -2.3624 0 
6.45748 -2.35551 0 
6.68075 -2.33423 0 
6.88797 -2.39744 0 
7.05313 -2.27289 0 
7.24377 -2.40237 0 
7.48542 -2.36016 0 
7.73055 -2.36599 0 
7.99177 -2.33552 0 
8.24864 -2.40698 0 
8.48528 -2.28345 0 
-8.48528 -2.03355 0 
-8.25312 -2.18214 0 
-8.03669 -2.07913 0 
-7.83956 -2.18231 0 
-7.6106 -2.12852 0 
-7.38852 -2.10959 0 
-7.16268 -2.14097 0 
-6.9229 -2.1435 0 
-6.70119 -2.12055 0 
-6.48111 -2.11285 0 
-6.26282 -2.11284 0 
-6.045 -2.1151 0 
-5.82775 -2.11658 0 
-5.61153 -2.11776 0 
-5.3962 -2.1192 0 
-5.18144 -2.1203 0 
-4.96732 -2.12084 0 
-4.75387 -2.12105 0 
-4.54086 -2.12091 0 
-4.32822 -2.12045 0 
-4.11596 -2.12045 0 
-3.90382 -2.12107 0 
-3.69156 -2.12116 0 
-3.47938 -2.12058 0 
-3.26746 -2.12068 0 
-3.05542 -2.12154 0 
-2.84307 -2.12198 0 
-2.63064 -2.12162 0 
-2.41836 -2.12087 0 
-2.20626 -2.12031 0 
-1.99426 -2.12034 0 
-1.78217 -2.1207 0 
-1.56989 -2.12074 0 
-1.35755 -2.11993 0 
-1.14542 -2.11838 0 
-0.934012 -2.11859 0 
-0.722404 -2.12089 0 
-0.509943 -2.12344 0 
-0.296911 -2.12431 0 
-0.0840921 -2.12359 0 
0.128295 -2.12281 0 
0.340414 -2.12274 0 
0.552564 -2.12288 0 
0.76478 -2.12226 0 
0.976792 -2.1213 0 
1.18855 -2.12128 0 
1.40042 -2.12188 0 
1.61256 -2.12177 0 
1.82458 -2.12141 0 
2.03655 -2.12164 0 
2.24875 -2.12174 0 
2.46099 -2.12114 0 
2.67302 -2.12065 0 
2.88504 -2.12054 0 
3.09728 -2.1194 0 
3.30873 -2.11968 0 
3.52086 -2.1195 0 
3.7329 -2.11938 0 
3.94484 -2.11986 0 
4.15715 -2.12044 0 
4.36983 -2.12035 0 
4.58282 -2.1204 0 
4.79606 -2.12017 0 
5.01004 -2.12012 0 
5.22483 -2.12002 0 
5.44073 -2.12051 0 
5.6582 -2.123 0 
5.8782 -2.12696 0 
6.10217 -2.12971 0 
6.33095 -2.12707 0 
6.567 -2.11601 0 
6.82301 -2.12303 0 
7.06572 -2.04567 0 
7.29733 -2.17484 0 
7.54632 -2.11408 0 
7.79371 -2.13741 0 
8.02274 -2.07453 0 
8.25027 -2.1738 0 
8.48528 -2.0332 0 
-8.48528 -1.79671 0 
-8.25436 -1.93882 0 
-8.01299 -1.83977 0 
-7.78596 -1.953 0 
-7.5297 -1.87194 0 
-7.2756 -1.88722 0 
-7.05707 -1.93544 0 
-6.84369 -1.89677 0 
-6.62219 -1.88079 0 
-6.40169 -1.87606 0 
-6.18206 -1.87854 0 
-5.96274 -1.881 0 
-5.74458 -1.88208 0 
-5.52796 -1.88344 0 
-5.31232 -1.88506 0 
-5.09736 -1.88569 0 
-4.88338 -1.88564 0 
-4.67019 -1.88555 0 
-4.45737 -1.88507 0 
-4.24485 -1.88447 0 
-4.03271 -1.88482 0 
-3.82061 -1.88562 0 
-3.60832 -1.88529 0 
-3.39617 -1.88464 0 
-3.18427 -1.88547 0 
-2.97209 -1.88672 0 
-2.7596 -1.88684 0 
-2.54714 -1.88601 0 
-2.33483 -1.88505 0 
-2.12268 -1.8846 0 
-1.91058 -1.885 0 
-1.69824 -1.88561 0 
-1.48561 -1.88547 0 
-1.27286 -1.88413 0 
-1.06032 -1.88216 0 
-0.848858 -1.8839 0 
-0.636875 -1.88781 0 
-0.424169 -1.89034 0 
-0.211518 -1.89004 0 
0.000731944 -1.88866 0 
0.21257 -1.88788 0 
0.424308 -1.88807 0 
0.636257 -1.88793 0 
0.848362 -1.88664 0 
1.06025 -1.88556 0 
1.27191 -1.88605 0 
1.48381 -1.88664 0 
1.69595 -1.886 0 
1.90782 -1.88577 0 
2.11974 -1.88637 0 
2.33202 -1.88609 0 
2.54419 -1.88502 0 
2.75607 -1.88472 0 
2.96812 -1.88462 0 
3.18055 -1.88217 0 
3.39117 -1.88415 0 
3.60398 -1.8838 0 
3.81618 -1.88366 0 
4.02827 -1.88469 0 
4.24071 -1.88523 0 
4.4544 -1.88509 0 
4.66716 -1.88476 0 
4.88099 -1.88493 0 
5.09545 -1.88466 0 
5.31057 -1.88453 0 
5.52653 -1.88564 0 
5.7436 -1.88981 0 
5.96352 -1.89563 0 
6.18733 -1.89813 0 
6.41543 -1.89522 0 
6.65059 -1.89622 0 
6.87542 -1.86913 0 
7.11122 -1.81621 0 
7.31223 -1.94975 0 
7.53264 -1.87683 0 
7.77077 -1.89068 0 
8.01717 -1.8297 0 
8.25014 -1.93148 0 
8.48528 -1.79628 0 
-8.48528 -1.57009 0 
-8.24868 -1.70836 0 
-8.015 -1.61096 0 
-7.76734 -1.73071 0 
-7.54593 -1.61782 0 
-7.32306 -1.66278 0 
-7.05152 -1.7082 0 
-6.79786 -1.66675 0 
-6.56099 -1.64764 0 
-6.33267 -1.64541 0 
-6.10856 -1.64921 0 
-5.88638 -1.65073 0 
-5.66697 -1.65153 0 
-5.44986 -1.65353 0 
-5.23379 -1.65525 0 
-5.01882 -1.6551 0 
-4.80519 -1.6548 0 
-4.59235 -1.65478 0 
-4.37976 -1.65422 0 
-4.16737 -1.65386 0 
-3.95537 -1.65471 0 
-3.74326 -1.6554 0 
-3.5309 -1.65455 0 
-3.31876 -1.65426 0 
-3.10682 -1.65593 0 
-2.89443 -1.65705 0 
-2.68177 -1.65644 0 
-2.46924 -1.65516 0 
-2.25682 -1.65408 0 
-2.04447 -1.65386 0 
-1.83202 -1.65455 0 
-1.61911 -1.65506 0 
-1.40572 -1.65429 0 
-1.19212 -1.65207 0 
-0.97885 -1.64982 0 
-0.767325 -1.65372 0 
-0.555434 -1.6581 0 
-0.343588 -1.65935 0 
-0.132061 -1.65818 0 
0.0792288 -1.65687 0 
0.290417 -1.65682 0 
0.501823 -1.6575 0 
0.713729 -1.65709 0 
0.925861 -1.65545 0 
1.13768 -1.65488 0 
1.34929 -1.65604 0 
1.56128 -1.6563 0 
1.77337 -1.65516 0 
1.985 -1.65561 0 
2.19698 -1.65642 0 
2.40939 -1.65525 0 
2.62143 -1.65394 0 
2.83323 -1.65414 0 
3.04553 -1.65355 0 
3.25842 -1.64868 0 
3.46746 -1.65522 0 
3.68272 -1.65284 0 
3.89574 -1.65288 0 
4.10731 -1.65378 0 
4.32287 -1.65565 0 
4.53627 -1.65249 0 
4.74932 -1.65397 0 
4.96428 -1.65355 0 
5.17935 -1.65257 0 
5.3944 -1.65202 0 
5.60927 -1.65354 0 
5.82513 -1.66019 0 
6.04295 -1.66711 0 
6.26383 -1.66843 0 
6.48537 -1.66776 0 
6.70098 -1.65646 0 
6.91299 -1.6206 0 
7.11709 -1.6046 0 
7.3526 -1.69716 0 
7.60698 -1.65764 0 
7.8325 -1.64214 0 
8.05985 -1.58842 0 
8.2608 -1.69223 0 
8.48528 -1.56961 0 
-8.48528 -1.35019 0 
-8.24958 -1.48044 0 
-8.0219 -1.3751 0 
-7.79713 -1.50391 0 
-7.58956 -1.39834 0 
-7.36199 -1.38754 0 
-7.16079 -1.49923 0 
-6.93764 -1.46284 0 
[...]
POINT_DATA 2054 
VECTORS vectors float
0.000837333 -0.00225689 0.999997 
0.000812822 -0.020368 0.999792 
0.00080501 -0.0232066 0.99973 
0.000870221 -0.0226779 0.999742 
0.000873026 -0.0204295 0.999791 
0.000916036 -0.0177381 0.999842 
0.000929872 -0.0152141 0.999884 
0.00094272 -0.0128315 0.999917 
0.000947529 -0.0104425 0.999945 
0.000950097 -0.00800779 0.999967 
0.000951768 -0.00556208 0.999984 
0.000952863 -0.00313998 0.999995 
0.000953525 -0.000744936 0.999999 
0.000953553 0.00166465 0.999998 
0.000952813 0.00417181 0.999991 
0.000951103 0.00688891 0.999976 
0.000948358 0.00994995 0.99995 
0.000944425 0.0135095 0.999908 
0.000939033 0.0177485 0.999842 
0.000932005 0.0228815 0.999738 
0.000922967 0.029166 0.999574 
0.000911547 0.0369145 0.999318 
0.000897166 0.0465071 0.998918 
0.000879079 0.0584108 0.998292 
0.000856516 0.0731975 0.997317 
0.000828329 0.0915675 0.995799 
0.000793226 0.114375 0.993437 
0.000749604 0.142645 0.989774 
0.000695549 0.1776 0.984103 
0.000629055 0.220648 0.975353 
0.000548028 0.273341 0.961917 
0.00045101 0.337241 0.941418 
0.000338111 0.41361 0.910454 
0.000212745 0.50287 0.864362 
8.39939e-05 0.603692 0.797218 
-3.16315e-05 0.711789 0.702393 
-0.000111151 0.818769 0.574123 
-0.000132557 0.911989 0.410214 
-8.90792e-05 0.97658 0.215154 
-1.37101e-06 0.999999 0.00154619 
8.67777e-05 0.977223 -0.212214 
0.000131311 0.913127 -0.407675 
0.000111029 0.820179 -0.572108 
3.22938e-05 0.713262 -0.700897 
-8.29456e-05 0.605088 -0.796159 
-0.000211591 0.504102 -0.863644 
-0.000337013 0.414655 -0.909978 
-0.000450066 0.338104 -0.941109 
-0.000547254 0.274043 -0.961717 
-0.000628392 0.221211 -0.975226 
-0.000695001 0.178046 -0.984022 
-0.000749136 0.142998 -0.989723 
-0.000792815 0.114653 -0.993405 
-0.000827978 0.0917879 -0.995778 
-0.000856169 0.0733716 -0.997304 
-0.000878779 0.0585483 -0.998284 
-0.000896895 0.046617 -0.998912 
-0.000911321 0.0370033 -0.999315 
-0.000922802 0.0292392 -0.999572 
-0.000931803 0.0229427 -0.999736 
-0.00093882 0.0178004 -0.999841 
-0.000944186 0.0135544 -0.999908 
-0.000948085 0.00998895 -0.99995 
-0.000950771 0.00692284 -0.999976 
-0.000952339 0.00420149 -0.999991 
-0.000953045 0.00169283 -0.999998 
-0.000953028 -0.000713275 -0.999999 
-0.000952518 -0.003099 -0.999995 
-0.00095029 -0.00551405 -0.999984 
-0.000949596 -0.00794356 -0.999968 
-0.000941371 -0.0103207 -0.999946 
-0.00094722 -0.0126916 -0.999919 
-0.00092799 -0.0150168 -0.999887 
-0.000914432 -0.0175146 -0.999846 
-0.000873588 -0.0201765 -0.999796 
-0.000868439 -0.0223532 -0.99975 
-0.000803692 -0.0228377 -0.999739 
-0.000809276 -0.0200569 -0.999799 
-0.000838859 -0.00224535 -0.999997 
-5.60196e-05 -0.000522407 1 
0.00534982 -0.0153678 0.999868 
0.00881965 -0.0213145 0.999734 
0.0100743 -0.0221975 0.999703 
0.0109525 -0.021157 0.999716 
0.0117125 -0.0190075 0.999751 
0.0120915 -0.0164485 0.999792 
0.0123538 -0.0138604 0.999828 
0.0126355 -0.0113695 0.999856 
0.0128709 -0.00894902 0.999877 
0.012979 -0.00653877 0.999894 
0.0130565 -0.00413566 0.999906 
0.0131173 -0.00174137 0.999912 
0.013155 0.000667809 0.999913 
0.0131646 0.00315249 0.999908 
0.013147 0.00580772 0.999897 
0.0131023 0.00875567 0.999876 
0.0130295 0.0121423 0.999841 
0.0129263 0.0161378 0.999786 
0.0127877 0.0209406 0.999699 
0.0126029 0.0267911 0.999562 
0.0123672 0.0339864 0.999346 
0.0120814 0.0428815 0.999007 
0.0117362 0.0539003 0.998477 
0.0113148 0.0675724 0.99765 
0.0108064 0.0845621 0.99636 
0.0102044 0.105675 0.994348 
0.00949917 0.131861 0.991223 
0.00867729 0.164242 0.986382 
0.00772784 0.204139 0.978911 
0.0066488 0.253059 0.967428 
0.00545216 0.312589 0.949873 
0.00416995 0.384135 0.923268 
0.0028608 0.468415 0.883504 
0.00161218 0.564738 0.825269 
0.000537138 0.670172 0.742206 
-0.000242052 0.778365 0.627812 
-0.000631655 0.878489 0.477762 
-0.000618636 0.955967 0.293473 
-0.000306158 0.996403 0.0847401 
0.000104153 0.991335 -0.131357 
0.000379791 0.942003 -0.335604 
0.000336286 0.858564 -0.512706 
-0.000108255 0.75566 -0.654964 
-0.000925835 0.647209 -0.762312 
-0.00201643 0.543162 -0.839625 
-0.00325891 0.449155 -0.893448 
-0.00454447 0.367604 -0.929971 
-0.00579037 0.29876 -0.954311 
-0.00694435 0.241626 -0.970345 
-0.00798181 0.194739 -0.980823 
-0.00889558 0.15657 -0.987627 
-0.00968578 0.125654 -0.992027 
-0.0103629 0.100683 -0.994865 
-0.0109359 0.0805615 -0.99669 
-0.0114181 0.0643547 -0.997862 
-0.0118207 0.0513073 -0.998613 
-0.0121516 0.0407948 -0.999094 
-0.0124187 0.0323044 -0.999401 
-0.0126333 0.0254226 -0.999597 
-0.012802 0.0198143 -0.999722 
-0.0129285 0.0152001 -0.999801 
-0.0130142 0.0113468 -0.999851 
-0.0130599 0.008058 -0.999882 
-0.0130638 0.00516494 -0.999901 
-0.0130185 0.00252152 -0.999912 
-0.0129067 -2.65629e-06 -0.999917 
-0.0127032 -0.00252024 -0.999916 
-0.0125424 -0.00511628 -0.999908 
-0.0123976 -0.00776837 -0.999893 
-0.0126579 -0.0104078 -0.999866 
-0.0117747 -0.0130447 -0.999846 
-0.0120877 -0.0156603 -0.999804 
-0.011241 -0.0185948 -0.999764 
-0.0108663 -0.0207551 -0.999726 
-0.00994715 -0.0217991 -0.999713 
-0.00873752 -0.0209785 -0.999742 
-0.00531314 -0.0152832 -0.999869 
6.69827e-05 -0.000522766 -1 
0.000142217 -0.000971453 1 
0.00658595 -0.0166747 0.999839 
0.0100904 -0.0211557 0.999725 
0.0123762 -0.0214488 0.999693 
0.0137141 -0.020006 0.999706 
0.0145608 -0.0177657 0.999736 
0.0151188 -0.0150974 0.999772 
0.0155282 -0.01246 0.999802 
0.0158372 -0.0100149 0.999824 
0.0160545 -0.00763028 0.999842 
0.0162229 -0.00526177 0.999855 
0.0163537 -0.00288813 0.999862 
0.0164452 -0.0004909 0.999865 
0.0164938 0.001968 0.999862 
0.016499 0.00456055 0.999853 
0.0164608 0.00739118 0.999837 
0.0163777 0.0105926 0.99981 
0.0162471 0.014324 0.999765 
0.0160654 0.0187718 0.999695 
0.0158263 0.0241548 0.999583 
0.0155219 0.0307415 0.999407 
0.0151458 0.038865 0.99913 
0.0146909 0.0489196 0.998695 
0.0141458 0.0613748 0.998015 
0.0134979 0.0768316 0.996953 
0.0127359 0.0960408 0.995296 
0.0118494 0.119888 0.992717 
0.0108301 0.149406 0.988717 
0.00967415 0.185813 0.982538 
0.00838607 0.230513 0.973033 
0.00698219 0.285065 0.958483 
0.00549729 0.350987 0.936364 
0.00399092 0.429372 0.903119 
0.00254967 0.520256 0.854006 
0.00127951 0.62173 0.78323 
0.000282304 0.729248 0.684249 
-0.000359991 0.834335 0.551257 
-0.000614385 0.924018 0.382349 
-0.00053528 0.983064 0.183259 
-0.00027145 0.999498 -0.0316947 
-2.26717e-05 0.969914 -0.243449 
1.99376e-05 0.900781 -0.434274 
-0.000275535 0.805311 -0.592853 
-0.000951199 0.698265 -0.715838 
-0.00196547 0.591592 -0.806235 
-0.00323021 0.49273 -0.870177 
-0.00464173 0.405356 -0.914147 
-0.00609991 0.330665 -0.943728 
-0.00752613 0.268183 -0.963339 
-0.0088682 0.216592 -0.976222 
-0.0100945 0.174399 -0.984623 
-0.01119 0.140138 -0.990069 
-0.0121524 0.112422 -0.993586 
-0.0129886 0.0900389 -0.995854 
-0.0137054 0.0720211 -0.997309 
-0.0143151 0.0574958 -0.998243 
-0.0148279 0.0457924 -0.998841 
-0.0152528 0.0363514 -0.999223 
-0.0155994 0.0287081 -0.999466 
-0.0158768 0.0224904 -0.999621 
-0.0160915 0.0173983 -0.999719 
-0.0162478 0.0131759 -0.999781 
-0.0163487 0.00961169 -0.99982 
-0.016395 0.00652372 -0.999844 
-0.0163875 0.00375933 -0.999859 
-0.0163261 0.00119059 -0.999866 
-0.0162108 -0.00128381 -0.999868 
-0.0160554 -0.00372783 -0.999864 
-0.0158729 -0.00618056 -0.999855 
-0.0157037 -0.00861986 -0.99984 
-0.0156588 -0.0110339 -0.999817 
-0.0150282 -0.0133271 -0.999798 
-0.0151226 -0.0151251 -0.999771 
-0.0143795 -0.0173435 -0.999746 
-0.0135547 -0.0195823 -0.999716 
-0.012115 -0.0209546 -0.999707 
-0.00994962 -0.0207965 -0.999734 
-0.00656252 -0.0166351 -0.99984 
-0.000139222 -0.000967642 -1 
0.000142062 -0.000972461 1 
0.00574555 -0.0165667 0.999846 
0.00866677 -0.0208461 0.999745 
0.0111853 -0.0215458 0.999705 
0.0126657 -0.0206467 0.999707 
0.0137981 -0.0189169 0.999726 
0.0147679 -0.0165176 0.999755 
0.0153773 -0.01375 0.999787 
0.0157119 -0.0112662 0.999813 
0.0160044 -0.00888675 0.999832 
0.0162571 -0.00655173 0.999846 
0.0164621 -0.00421235 0.999856 
0.0166119 -0.00183886 0.99986 
0.016708 0.000592801 0.99986 
0.0167518 0.00312732 0.999855 
0.0167421 0.00584609 0.999843 
0.0166783 0.008863 0.999822 
0.0165595 0.0123211 0.999787 
0.0163823 0.016394 0.999731 
0.0161427 0.021284 0.999643 
0.0158366 0.0272291 0.999504 
0.0154572 0.0345251 0.999284 
0.0149938 0.0435387 0.998939 
0.014438 0.0546984 0.998399 
0.0137847 0.0685187 0.997555 
0.0130235 0.0856711 0.996238 
0.012142 0.106977 0.994187 
0.0111342 0.133383 0.991002 
0.0100014 0.165997 0.986076 
0.00875177 0.206112 0.978489 
0.00740262 0.255188 0.966863 
0.00598304 0.314781 0.949145 
0.00454003 0.38628 0.92237 
0.00314203 0.470401 0.882447 
0.00187351 0.566434 0.824105 
0.000821423 0.67113 0.741339 
4.51314e-05 0.778486 0.627662 
-0.000420511 0.87812 0.47844 
-0.000586907 0.955554 0.294816 
-0.000533136 0.996235 0.086688 
-0.000392839 0.991662 -0.128869 
-0.000318185 0.943053 -0.332641 
-0.000443575 0.86048 -0.509484 
-0.00085534 0.75839 -0.651801 
-0.00157439 0.650605 -0.759415 
-0.00256697 0.547066 -0.837086 
-0.00376859 0.453294 -0.891353 
-0.00509798 0.371651 -0.928358 
-0.00647328 0.302559 -0.953109 
-0.00783066 0.245086 -0.96947 
-0.00912228 0.19778 -0.980204 
-0.0103147 0.159187 -0.987195 
-0.0113927 0.127895 -0.991722 
-0.0123526 0.102583 -0.994648 
-0.0131927 0.0821357 -0.996534 
-0.0139228 0.0657031 -0.997742 
-0.0145481 0.0524155 -0.998519 
-0.015076 0.0417041 -0.999016 
-0.0155161 0.0330525 -0.999333 
-0.0158752 0.026027 -0.999535 
-0.016159 0.0202916 -0.999664 
-0.0163759 0.0155675 -0.999745 
-0.0165285 0.0116232 -0.999796 
-0.0166203 0.0082546 -0.999828 
-0.0166517 0.0052969 -0.999847 
-0.0166237 0.00260905 -0.999858 
-0.0165412 8.06297e-05 -0.999863 
-0.0164063 -0.00236621 -0.999863 
-0.0162171 -0.00478556 -0.999857 
-0.0159717 -0.00721808 -0.999846 
-0.0156458 -0.00972252 -0.99983 
-0.0152191 -0.0124696 -0.999806 
-0.0144997 -0.0152423 -0.999779 
-0.0142001 -0.0178093 -0.999741 
-0.012704 -0.0198604 -0.999722 
-0.0110447 -0.0209614 -0.999719 
-0.00854066 -0.0205367 -0.999753 
-0.00560388 -0.0163577 -0.999851 
-0.000134678 -0.00096992 -1 
0.000130542 -0.00100833 0.999999 
0.00494967 -0.0164385 0.999853 
0.00786383 -0.0210344 0.999748 
0.0105856 -0.0213303 0.999716 
0.0118545 -0.0200649 0.999728 
0.0132084 -0.0177649 0.999755 
0.014283 -0.0152945 0.999781 
0.0145237 -0.0128038 0.999813 
0.0148129 -0.0103692 0.999837 
0.0151031 -0.00802142 0.999854 
0.0153797 -0.00569705 0.999865 
0.0155947 -0.00334196 0.999873 
0.0157401 -0.000928354 0.999876 
0.015828 0.00156718 0.999874 
0.0158595 0.00419904 0.999865 
0.0158282 0.00706048 0.99985 
0.0157365 0.0102735 0.999823 
0.0155869 0.0139937 0.999781 
0.0153735 0.0184101 0.999712 
0.0150942 0.0237403 0.999604 
0.0147499 0.030239 0.999434 
0.0143303 0.0382304 0.999166 
0.0138189 0.0481144 0.998746 
0.013215 0.0603481 0.99809 
0.012522 0.0754907 0.997068 
0.0117248 0.0942857 0.995476 
0.0108105 0.11761 0.993001 
0.00978259 0.146461 0.989168 
0.00865178 0.182017 0.983257 
0.00743419 0.22563 0.974185 
0.00615306 0.278794 0.960331 
0.0048394 0.343057 0.939302 
0.00354086 0.419631 0.907688 
0.00232216 0.50879 0.860888 
0.00125555 0.60898 0.793185 
0.000407639 0.715474 0.698639 
-0.00019354 0.820965 0.570978 
-0.000535969 0.91321 0.40749 
-0.000649442 0.977073 0.212905 
-0.000614406 1 0.0001767 
-0.000544762 0.977234 -0.212164 
-0.000561105 0.913844 -0.406066 
-0.000764268 0.822117 -0.569318 
-0.00121273 0.716622 -0.69746 
-0.00191433 0.609858 -0.792509 
-0.00283944 0.509967 -0.860189 
-0.003935 0.420976 -0.907063 
-0.00513252 0.34435 -0.938827 
-0.00636836 0.279982 -0.959984 
-0.00759337 0.226631 -0.973951 
-0.00876309 0.182804 -0.98311 
-0.00984799 0.147123 -0.989069 
-0.0108396 0.118215 -0.992929 
-0.0117306 0.0948137 -0.995426 
-0.0125069 0.0758987 -0.997037 
-0.0132038 0.0607488 -0.998066 
-0.0137952 0.048407 -0.998732 
-0.0142962 0.0384721 -0.999157 
-0.0147189 0.0304331 -0.999428 
-0.0150602 0.0238901 -0.999601 
-0.0153282 0.0185082 -0.999711 
-0.0155283 0.0140773 -0.99978 
-0.0156693 0.0103343 -0.999824 
-0.0157487 0.00710627 -0.999851 
-0.0157712 0.00423702 -0.999867 
-0.0157426 0.00159784 -0.999875 
-0.0156717 -0.0009026 -0.999877 
-0.0155464 -0.00332981 -0.999874 
-0.0153373 -0.00572215 -0.999866 
-0.0150381 -0.00812432 -0.999854 
-0.014684 -0.0106147 -0.999836 
-0.0141084 -0.0130869 -0.999815 
-0.0132189 -0.0158494 -0.999787 
-0.0132962 -0.0180311 -0.999749 
-0.0118218 -0.0200189 -0.99973 
-0.010118 -0.0209094 -0.99973 
-0.00757825 -0.0207532 -0.999756 
-0.00486026 -0.0163383 -0.999855 
-0.000124154 -0.00100839 -0.999999 
0.000116121 -0.00104954 0.999999 
0.00432812 -0.0167543 0.99985 
0.00659696 -0.02118 0.999754 
0.00942716 -0.0213774 0.999727 
0.00998917 -0.0204422 0.999741 
0.011337 -0.0183526 0.999767 
0.012574 -0.0151762 0.999806 
0.0128203 -0.012285 0.999842 
0.0130746 -0.00972765 0.999867 
0.0133853 -0.00732459 0.999884 
0.0136749 -0.00495601 0.999894 
0.0138732 -0.00254189 0.999901 
0.0139991 -6.10414e-05 0.999902 
0.0140743 0.00251578 0.999898 
0.0140889 0.00526101 0.999887 
0.0140314 0.00827747 0.999867 
0.013918 0.0116972 0.999835 
0.0137505 0.0156904 0.999782 
0.0135183 0.0204616 0.999699 
0.0132244 0.0262434 0.999568 
0.0128726 0.0333066 0.999362 
0.0124444 0.0420081 0.99904 
0.0119233 0.052778 0.998535 
0.0113236 0.0660985 0.997749 
0.0106508 0.0825793 0.996528 
0.00987946 0.103038 0.994628 
0.00900303 0.128395 0.991682 
0.00803707 0.159694 0.987134 
0.00699758 0.198188 0.980139 
0.00590399 0.245288 0.969432 
0.00477853 0.302525 0.95313 
0.0036478 0.37142 0.928458 
0.002554 0.452965 0.891525 
0.00155277 0.546882 0.837208 
0.000701826 0.650557 0.759457 
4.85561e-05 0.757546 0.652782 
-0.000400667 0.85918 0.511674 
-0.00064403 0.941786 0.336211 
-0.000716772 0.990977 0.134032 
-0.000691204 0.996813 -0.079772 
-0.00066147 0.958125 -0.286348 
-0.00072264 0.882968 -0.469433 
-0.000949473 0.784835 -0.619704 
-0.00137956 0.677848 -0.735201 
-0.00201237 0.573094 -0.819487 
-0.00282243 0.477093 -0.878848 
-0.00376416 0.392658 -0.919677 
-0.00478161 0.320623 -0.947195 
-0.00583348 0.260477 -0.965462 
-0.00688019 0.210718 -0.977523 
-0.00787763 0.169913 -0.985428 
-0.00880927 0.136761 -0.990565 
-0.00967381 0.1099 -0.993896 
-0.0104512 0.0881264 -0.996054 
-0.0111119 0.070514 -0.997449 
-0.0117683 0.0565105 -0.998333 
-0.0122815 0.0448963 -0.998916 
-0.0127293 0.0356095 -0.999285 
-0.0131032 0.0281287 -0.999518 
-0.0134229 0.0219231 -0.99967 
-0.01363 0.0168869 -0.999765 
-0.0138182 0.0126995 -0.999824 
-0.013933 0.00912044 -0.999861 
-0.0139896 0.00600656 -0.999884 
-0.0139985 0.00320996 -0.999897 
-0.0139735 0.000617115 -0.999902 
-0.0139381 -0.00185559 -0.999901 
-0.0138417 -0.00424762 -0.999895 
-0.0136278 -0.00659528 -0.999885 
-0.0133292 -0.00892289 -0.999871 
-0.012886 -0.0112272 -0.999854 
-0.0121746 -0.0136149 -0.999833 
-0.0115762 -0.0160781 -0.999804 
-0.0114596 -0.0185792 -0.999762 
-0.00989641 -0.0206339 -0.999738 
-0.008218 -0.0213392 -0.999739 
-0.00598952 -0.0207358 -0.999767 
-0.0039925 -0.016038 -0.999863 
-0.000125588 -0.00104815 -0.999999 
9.44093e-05 -0.00107497 0.999999 
0.00351881 -0.0168587 0.999852 
0.00521345 -0.0213392 0.999759 
0.00763486 -0.0216707 0.999736 
0.00805516 -0.0210157 0.999747 
0.00884021 -0.0189022 0.999782 
0.0104743 -0.0166033 0.999807 
0.0106757 -0.0139261 0.999846 
0.0108018 -0.0113733 0.999877 
0.0110632 -0.00894744 0.999899 
0.0113818 -0.00658818 0.999914 
0.0116507 -0.00419966 0.999923 
0.0118041 -0.00172738 0.999929 
0.0119031 0.000812643 0.999929 
0.0119631 0.0034712 0.999922 
0.0119499 0.00632869 0.999909 
0.0118682 0.00950362 0.999884 
0.0117439 0.0131331 0.999845 
0.0115714 0.0173999 0.999782 
0.0113395 0.0225357 0.999682 
0.0110524 0.0287756 0.999525 
0.0107147 0.0364124 0.999279 
0.0103011 0.0458348 0.998896 
0.00980495 0.0575013 0.998297 
0.00925052 0.071914 0.997368 
0.00863403 0.0897408 0.995928 
0.00792657 0.111868 0.993691 
0.00713503 0.139253 0.990231 
0.00628203 0.172989 0.984904 
0.00538364 0.214403 0.97673 
0.00445826 0.264958 0.96425 
0.00352391 0.326192 0.945297 
0.00260105 0.399538 0.916713 
0.00172506 0.485638 0.874158 
0.00093987 0.583456 0.812144 
0.000288023 0.689079 0.724686 
-0.000201677 0.794496 0.607269 
-0.000531042 0.890332 0.455311 
-0.00070102 0.962611 0.270887 
-0.000745405 0.997977 0.0635738 
-0.000725886 0.988715 -0.149808 
-0.000719056 0.936657 -0.350248 
-0.000798313 0.85219 -0.523232 
-0.00101671 0.749533 -0.661966 
-0.00139641 0.642235 -0.766507 
-0.00193316 0.540013 -0.841654 
-0.0026057 0.447878 -0.894091 
-0.00337535 0.367693 -0.929941 
-0.0042029 0.299821 -0.953986 
-0.00506591 0.24343 -0.969905 
-0.00592484 0.196794 -0.980427 
-0.00674151 0.158599 -0.98732 
-0.0075169 0.127649 -0.991791 
-0.00824713 0.10255 -0.994694 
-0.00889635 0.0821337 -0.996582 
-0.00942615 0.0655814 -0.997803 
-0.0100794 0.0526705 -0.998561 
-0.010484 0.0414164 -0.999087 
-0.0108241 0.0329412 -0.999399 
-0.0112211 0.0256949 -0.999607 
-0.0114133 0.0199579 -0.999736 
-0.0115871 0.0152187 -0.999817 
-0.0117642 0.0112726 -0.999867 
-0.0118348 0.0078238 -0.999899 
-0.0118533 0.00481212 -0.999918 
-0.0118302 0.00210037 -0.999928 
-0.0118186 -0.000463072 -0.99993 
-0.0117964 -0.00289369 -0.999926 
-0.011713 -0.00524639 -0.999918 
-0.0114615 -0.00755294 -0.999906 
-0.0110863 -0.0098375 -0.99989 
-0.0105264 -0.0122548 -0.999869 
-0.0096847 -0.0150043 -0.999841 
-0.00990839 -0.0178134 -0.999792 
-0.00901373 -0.0199235 -0.999761 
-0.007467 -0.0212303 -0.999747 
-0.00593262 -0.0215933 -0.999749 
-0.00338266 -0.0168043 -0.999853 
-8.05395e-05 -0.00107041 -0.999999 
7.73018e-05 -0.00109 0.999999 
0.00276456 -0.0169574 0.999852 
0.00408247 -0.0215243 0.99976 
0.0060308 -0.0218622 0.999743 
0.00664828 -0.0208154 0.999761 
0.00701676 -0.0185077 0.999804 
0.00857267 -0.0161292 0.999833 
0.00867151 -0.0133375 0.999873 
0.00887531 -0.010742 0.999903 
0.00915802 -0.00830731 0.999924 
0.00947671 -0.00591873 0.999938 
0.00970763 -0.00345754 0.999947 
0.00980126 -0.000921529 0.999952 
0.0098923 0.00167481 0.99995 
0.00993131 0.00439945 0.999941 
0.00989822 0.00737065 0.999924 
0.00980573 0.0107051 0.999895 
0.00968399 0.0145257 0.999848 
0.00952579 0.0190777 0.999773 
0.00930521 0.0245792 0.999655 
0.00904118 0.0312755 0.99947 
0.00873028 0.0394805 0.999182 
0.00834781 0.0496194 0.998733 
0.00790066 0.0621512 0.998035 
0.00741268 0.0776089 0.996956 
0.00686655 0.0967344 0.995287 
0.00624033 0.120466 0.992698 
0.00555416 0.149739 0.98871 
0.00483123 0.185669 0.982601 
0.00408476 0.229601 0.973276 
0.00333056 0.282922 0.959137 
0.00258185 0.347017 0.937855 
0.00185394 0.42309 0.906086 
0.00117475 0.511273 0.859418 
0.000573857 0.610105 0.792321 
7.75399e-05 0.71541 0.698705 
-0.000297638 0.819193 0.573518 
-0.000548079 0.911215 0.41193 
-0.000673064 0.97597 0.217906 
-0.000702291 0.999992 0.0040072 
-0.000689785 0.977639 -0.21029 
-0.000699552 0.914014 -0.405682 
-0.000787723 0.82187 -0.569674 
-0.000990071 0.716011 -0.698089 
-0.00131856 0.609356 -0.792896 
-0.00176785 0.510049 -0.860144 
-0.00231951 0.421631 -0.906765 
-0.00294163 0.345337 -0.938474 
-0.00361048 0.281269 -0.959622 
-0.00431397 0.228231 -0.973598 
-0.0050103 0.184216 -0.982873 
-0.00567006 0.148259 -0.988932 
-0.00631145 0.119295 -0.992839 
-0.00692203 0.0956406 -0.995392 
-0.00745276 0.0761753 -0.997067 
-0.00784888 0.0603311 -0.998148 
-0.00862333 0.0484726 -0.998787 
-0.00865608 0.0381488 -0.999235 
-0.00919638 0.0296261 -0.999519 
-0.0093437 0.0231359 -0.999689 
-0.00950797 0.0177906 -0.999797 
-0.0096314 0.0133793 -0.999864 
-0.00982794 0.00968696 -0.999905 
-0.00982152 0.00628468 -0.999932 
-0.00975163 0.00342638 -0.999947 
-0.00975428 0.000743273 -0.999952 
-0.0097051 -0.00176644 -0.999951 
-0.00968451 -0.00409244 -0.999945 
-0.00959207 -0.00625897 -0.999934 
-0.00928649 -0.00838482 -0.999922 
-0.00894157 -0.0106246 -0.999904 
-0.00842656 -0.0130987 -0.999879 
-0.00767773 -0.01587 -0.999845 
-0.00812134 -0.018195 -0.999801 
-0.00693949 -0.0205117 -0.999766 
-0.00542104 -0.0215432 -0.999753 