# vtk DataFile Version 3.0 
Exported using Morpho https://github.com/Morpho-lang/morpho 
ASCII 
DATASET UNSTRUCTURED_GRID 

POINTS 1978 float 
-8.48528 -2.82843 2.7125e-15 
-8.26438 -2.82843 -2.12359e-14 
-8.04132 -2.82843 -3.76294e-14 
-7.76153 -2.82843 -3.31933e-14 
-7.47752 -2.82843 -2.64504e-14 
-7.22269 -2.82843 -1.76951e-14 
-7.00608 -2.82843 -1.39235e-14 
-6.77735 -2.82843 -1.0792e-14 
-6.5606 -2.82843 -8.31658e-15 
-6.34302 -2.82843 -6.25357e-15 
-6.14317 -2.82843 -4.63858e-15 
-5.92649 -2.82843 -3.64133e-15 
-5.71291 -2.82843 -2.07434e-15 
-5.51046 -2.82843 -8.49783e-16 
-5.29478 -2.82843 -2.51265e-16 
-5.08481 -2.82843 7.48502e-16 
-4.86907 -2.82843 1.3713e-15 
-4.66392 -2.82843 2.50928e-15 
-4.44513 -2.82843 3.40298e-15 
-4.22907 -2.82843 4.77729e-15 
-4.01022 -2.82843 5.96253e-15 
-3.79979 -2.82843 7.72896e-15 
-3.58377 -2.82843 9.67931e-15 
-3.37224 -2.82843 1.25207e-14 
-3.15127 -2.82843 1.53674e-14 
-2.94154 -2.82843 1.82783e-14 
-2.7316 -2.82843 2.04482e-14 
-2.53531 -2.82843 2.3293e-14 
-2.32297 -2.82843 2.48021e-14 
-2.11444 -2.82843 2.29158e-14 
-1.89757 -2.82843 1.82618e-14 
-1.6933 -2.82843 1.0616e-14 
-1.49766 -2.82843 4.3949e-15 
-1.28123 -2.82843 9.27491e-15 
-1.10438 -2.82843 1.63379e-14 
-0.855223 -2.82843 4.75332e-14 
-0.6366 -2.82843 4.82067e-14 
-0.456537 -2.82843 7.97209e-14 
-0.245128 -2.82843 9.24228e-14 
0.0169343 -2.82843 -3.39514e-14 
0.236478 -2.82843 -3.61474e-14 
0.442954 -2.82843 -5.64204e-14 
0.660019 -2.82843 -6.07769e-14 
0.884101 -2.82843 -4.60824e-14 
1.09138 -2.82843 -5.30585e-14 
1.2703 -2.82843 2.14825e-14 
1.44568 -2.82843 4.1648e-15 
1.69935 -2.82843 -1.20829e-14 
1.88902 -2.82843 -1.72048e-14 
2.10777 -2.82843 -2.44353e-14 
2.33313 -2.82843 -2.37898e-14 
2.52522 -2.82843 -2.36348e-14 
2.74907 -2.82843 -2.25689e-14 
2.96767 -2.82843 -1.79262e-14 
3.17737 -2.82843 -1.41475e-14 
3.38424 -2.82843 -1.21934e-14 
3.60988 -2.82843 -9.69449e-15 
3.81271 -2.82843 -7.2166e-15 
4.02758 -2.82843 -6.15983e-15 
4.25373 -2.82843 -4.622e-15 
4.45264 -2.82843 -3.08242e-15 
4.66508 -2.82843 -2.47647e-15 
4.87298 -2.82843 -1.55846e-15 
5.07603 -2.82843 -6.16084e-16 
5.29022 -2.82843 8.53823e-17 
5.50079 -2.82843 8.78906e-16 
5.70374 -2.82843 2.10258e-15 
5.92189 -2.82843 3.33094e-15 
6.14248 -2.82843 4.29289e-15 
6.34152 -2.82843 6.79115e-15 
6.58078 -2.82843 8.84134e-15 
6.7916 -2.82843 1.00874e-14 
6.99305 -2.82843 1.46467e-14 
7.25396 -2.82843 1.88027e-14 
7.48548 -2.82843 2.18936e-14 
7.73031 -2.82843 3.01616e-14 
8.00051 -2.82843 3.35465e-14 
8.18492 -2.82843 2.44455e-14 
8.48528 -2.82843 3.73136e-15 
-8.48528 -2.59701 1.18853e-15 
-8.25475 -2.5872 -1.67687e-14 
-8.02034 -2.58806 -4.16139e-14 
-7.78141 -2.62499 -1.65013e-14 
-7.52026 -2.63521 -2.21474e-14 
-7.23515 -2.60358 -9.60741e-15 
-6.98936 -2.60398 -2.50767e-14 
-6.77339 -2.588 -7.89862e-15 
-6.54168 -2.59908 -1.07357e-14 
-6.3321 -2.57604 -8.49263e-15 
-6.10831 -2.60011 -6.03091e-15 
-5.8908 -2.59232 -4.36871e-15 
-5.68206 -2.57797 -3.30381e-15 
-5.46467 -2.59523 -1.55615e-15 
-5.24941 -2.58888 -4.60912e-16 
-5.0312 -2.59513 8.58409e-16 
-4.82052 -2.58351 2.09721e-15 
-4.60189 -2.5984 3.65771e-15 
-4.38264 -2.5944 5.08083e-15 
-4.16341 -2.59614 6.79971e-15 
-3.95153 -2.58497 9.01694e-15 
-3.73822 -2.59131 1.14552e-14 
-3.52587 -2.58952 1.54672e-14 
-3.30908 -2.60178 1.81874e-14 
-3.09615 -2.595 2.38399e-14 
-2.88467 -2.59891 2.70158e-14 
-2.68292 -2.58858 3.28348e-14 
-2.47337 -2.6098 3.68996e-14 
-2.25799 -2.6016 3.52652e-14 
-2.04667 -2.60964 3.23226e-14 
-1.83264 -2.59892 3.20139e-14 
-1.62347 -2.58483 1.97162e-14 
-1.41826 -2.59779 1.9176e-14 
-1.23727 -2.51481 -1.84854e-14 
-1.01532 -2.6215 1.75693e-14 
-0.781023 -2.58277 4.40514e-14 
-0.575103 -2.51624 1.57178e-14 
-0.356913 -2.51517 -3.20011e-14 
-0.123949 -2.58708 -2.39419e-14 
0.0156299 -2.35679 -1.01104e-13 
0.162598 -2.55682 1.21023e-13 
0.390618 -2.51737 -1.05239e-14 
0.602273 -2.55865 -8.23278e-14 
0.829574 -2.57507 -3.96188e-14 
1.06307 -2.57834 1.64957e-14 
1.27435 -2.58378 -2.32957e-14 
1.47818 -2.61896 -1.24796e-15 
1.6968 -2.5974 -3.07511e-14 
1.92978 -2.61938 -3.20231e-14 
2.16105 -2.62068 -3.23313e-14 
2.36505 -2.58424 -4.00347e-14 
2.58238 -2.6171 -3.23572e-14 
2.80625 -2.60827 -2.88579e-14 
3.01394 -2.59275 -2.47173e-14 
3.22173 -2.58677 -2.06144e-14 
3.44321 -2.6059 -1.57172e-14 
3.65019 -2.57975 -1.35038e-14 
3.86405 -2.59325 -9.78662e-15 
4.09053 -2.60499 -7.38649e-15 
4.29811 -2.57509 -6.41385e-15 
4.5129 -2.59323 -3.99349e-15 
4.72622 -2.5881 -2.80777e-15 
4.9384 -2.58514 -1.47433e-15 
5.15295 -2.59709 -4.16045e-16 
5.37164 -2.59354 9.01954e-16 
5.5829 -2.5837 2.50372e-15 
5.79922 -2.59872 3.96662e-15 
6.02416 -2.5992 5.20123e-15 
6.23777 -2.57155 7.93959e-15 
6.45751 -2.61211 8.92378e-15 
6.68495 -2.58042 1.18511e-14 
6.89446 -2.56545 1.60065e-14 
7.12175 -2.62464 1.78163e-14 
7.37265 -2.59574 2.21239e-14 
7.61115 -2.60682 2.33753e-14 
7.86846 -2.62783 2.40511e-14 
8.07986 -2.53322 3.45735e-14 
8.30243 -2.64277 1.4326e-14 
8.48528 -2.5262 -1.80329e-15 
-8.48528 -2.36017 -1.97029e-15 
-8.24427 -2.35591 -1.32287e-14 
-8.00667 -2.34616 -1.79706e-14 
-7.76559 -2.40419 -1.78461e-14 
-7.56962 -2.24605 -8.86539e-15 
-7.46731 -2.44667 -2.81317e-14 
-7.18007 -2.39579 -1.87801e-14 
-6.95396 -2.35452 -1.39885e-14 
-6.70715 -2.37304 -1.01934e-14 
-6.48761 -2.35259 -8.50572e-15 
-6.24338 -2.35929 -6.30057e-15 
-6.02682 -2.36283 -4.66513e-15 
-5.81113 -2.34492 -3.32437e-15 
-5.58196 -2.35271 -2.30528e-15 
-5.36655 -2.35731 -1.07626e-15 
-5.14223 -2.3605 -2.13153e-17 
-4.92824 -2.34933 1.07738e-15 
-4.70389 -2.36127 2.18007e-15 
-4.48554 -2.3655 3.47156e-15 
-4.26275 -2.36395 4.87024e-15 
-4.0493 -2.34948 6.28033e-15 
-3.83262 -2.35006 8.25792e-15 
-3.62062 -2.35269 1.07302e-14 
-3.40356 -2.3655 1.3637e-14 
-3.19239 -2.36652 1.71926e-14 
-2.9768 -2.36806 2.08446e-14 
-2.77052 -2.3554 2.32718e-14 
-2.55848 -2.37376 2.76505e-14 
-2.35084 -2.3886 3.14489e-14 
-2.12673 -2.37591 2.92931e-14 
-1.91893 -2.38133 2.53941e-14 
-1.69703 -2.36439 1.02751e-14 
-1.47347 -2.34378 -2.10607e-14 
-1.25664 -2.26666 2.98718e-14 
-1.02114 -2.38322 -5.12416e-14 
-0.812279 -2.31614 -1.49619e-14 
-0.584009 -2.24031 -4.73429e-14 
-0.398358 -2.15619 1.99043e-13 
-0.209597 -2.24885 -7.95745e-14 
0.0384387 -2.08338 1.50917e-13 
0.259794 -2.23727 -4.89124e-14 
0.457338 -2.1567 1.48913e-13 
0.623351 -2.26496 -1.49419e-13 
0.825611 -2.30568 8.32076e-14 
1.05232 -2.33015 3.87029e-14 
1.26393 -2.32704 4.29417e-14 
1.47496 -2.40052 1.18579e-14 
1.66281 -2.34216 -3.80564e-15 
1.86645 -2.39909 -3.21932e-14 
2.08645 -2.40981 -3.45897e-14 
2.29988 -2.36404 -2.98059e-14 
2.52819 -2.38637 -2.91607e-14 
2.73705 -2.39532 -2.65495e-14 
2.95237 -2.35692 -2.08697e-14 
3.15581 -2.34971 -1.71562e-14 
3.37303 -2.37318 -1.45681e-14 
3.57875 -2.3437 -1.08122e-14 
3.79291 -2.3513 -8.48235e-15 
4.0089 -2.37599 -7.08688e-15 
4.21777 -2.34059 -4.68956e-15 
4.43847 -2.35152 -3.64865e-15 
4.64858 -2.35077 -2.42643e-15 
4.86191 -2.34985 -1.34926e-15 
5.07946 -2.35678 -5.01276e-16 
5.29182 -2.36566 6.43872e-16 
5.50823 -2.34848 1.59059e-15 
5.7271 -2.35935 2.74362e-15 
5.94419 -2.37205 4.26894e-15 
6.16047 -2.3414 5.28789e-15 
6.39381 -2.36267 7.05245e-15 
6.60333 -2.36128 9.24042e-15 
6.82931 -2.31685 9.92642e-15 
7.06003 -2.37264 1.42897e-14 
7.27974 -2.3934 1.82008e-14 
7.54132 -2.37419 1.67516e-14 
7.78462 -2.40819 1.78846e-14 
7.99813 -2.31099 1.33861e-14 
8.26082 -2.37095 8.96433e-15 
8.48528 -2.28269 -4.84138e-16 
-8.48528 -2.10199 -1.03203e-15 
-8.26626 -2.11354 1.38847e-15 
-8.05294 -2.10009 -7.02694e-15 
-7.80704 -2.15616 -6.43281e-15 
-7.513 -2.03482 -4.23359e-15 
-7.30798 -2.2258 -8.76989e-15 
-7.06472 -2.13322 -5.60707e-15 
-6.80832 -2.14921 -6.03638e-15 
-6.58981 -2.12315 -4.78577e-15 
-6.35101 -2.14397 -3.6702e-15 
-6.12319 -2.11845 -2.71916e-15 
-5.91615 -2.11343 -2.03675e-15 
-5.68922 -2.1252 -1.26472e-15 
-5.46761 -2.11586 -5.01e-16 
-5.25083 -2.13045 -5.6975e-16 
-5.03661 -2.11658 5.29464e-16 
-4.81315 -2.12799 1.0385e-15 
-4.59547 -2.13063 1.70049e-15 
-4.37778 -2.13564 2.32001e-15 
-4.1665 -2.11792 3.00654e-15 
-3.95111 -2.1144 3.97384e-15 
-3.73875 -2.11313 5.24159e-15 
-3.52459 -2.1265 6.68487e-15 
-3.31555 -2.1307 8.34144e-15 
-3.10343 -2.13877 1.02258e-14 
-2.89666 -2.1279 1.20452e-14 
-2.68078 -2.13324 1.41794e-14 
-2.4733 -2.14617 1.56468e-14 
-2.26242 -2.16874 1.88563e-14 
-2.04068 -2.13818 1.8013e-14 
-1.82798 -2.15544 1.29983e-14 
-1.60506 -2.13018 -9.40201e-15 
-1.3946 -2.06833 -5.1078e-14 
-1.17623 -1.93858 1.50231e-14 
-1.0607 -2.12548 -8.52909e-14 
-0.823505 -2.06373 5.42455e-14 
-0.621505 -1.93522 -1.47517e-13 
-0.371224 -1.8751 -1.47484e-13 
-0.132231 -1.91128 1.41761e-13 
0.0511732 -1.69509 7.09583e-15 
0.232317 -1.89729 -9.39202e-15 
0.328893 -1.63096 6.5022e-14 
0.503129 -1.90716 1.6465e-14 
0.764232 -1.97763 1.56543e-13 
0.966367 -2.05764 -3.16876e-14 
1.18475 -2.06632 3.15247e-14 
1.44049 -2.15769 -6.18551e-15 
1.67368 -2.11734 -1.46743e-14 
1.89323 -2.17255 2.02486e-15 
2.1098 -2.17944 -1.78969e-14 
2.36137 -2.16232 -1.67147e-14 
2.57448 -2.15427 -1.43542e-14 
2.78022 -2.16085 -1.54015e-14 
2.98671 -2.11015 -1.11076e-14 
3.20723 -2.12882 -9.20605e-15 
3.40889 -2.12525 -7.84353e-15 
3.62551 -2.11044 -5.15375e-15 
3.84284 -2.12407 -4.66018e-15 
4.04518 -2.12777 -3.33353e-15 
4.27282 -2.11442 -2.36548e-15 
4.48307 -2.11092 -1.66358e-15 
4.69755 -2.11382 -1.06752e-15 
4.9153 -2.12041 -7.08711e-16 
5.12998 -2.12094 -1.52972e-16 
5.34175 -2.12982 3.72773e-16 
5.56568 -2.12012 8.30427e-16 
5.78355 -2.12831 1.52257e-15 
5.99432 -2.12871 2.26252e-15 
6.23509 -2.12674 3.02775e-15 
6.44601 -2.11173 3.76629e-15 
6.65954 -2.11672 4.93072e-15 
6.91686 -2.1068 5.52952e-15 
7.13407 -2.135 7.60816e-15 
7.36699 -2.18034 9.26556e-15 
7.55949 -2.08389 4.20125e-15 
7.74165 -2.17584 5.61969e-15 
7.95732 -2.07765 1.07932e-15 
8.20517 -2.14812 3.79935e-15 
8.48528 -2.08602 5.84285e-16 
-8.48528 -1.81329 -1.36669e-15 
-8.29878 -1.85987 2.40265e-15 
-7.88577 -1.90957 2.22998e-15 
[...]
POINT_DATA 1978 
VECTORS vectors float
-9.04917e-06 -0.00201792 0.999998 
0.000257079 -0.0702645 0.997528 
-7.96319e-05 -0.0829869 0.996551 
3.19254e-05 -0.0706638 0.9975 
-2.4154e-05 -0.0541808 0.998531 
6.11698e-05 -0.0414568 0.99914 
5.90845e-05 -0.0329733 0.999456 
6.9481e-05 -0.0252426 0.999681 
6.82273e-05 -0.0188249 0.999823 
9.20981e-05 -0.0140628 0.999901 
0.000100958 -0.0107341 0.999942 
6.52434e-05 -0.00748638 0.999972 
9.73443e-05 -0.00436854 0.99999 
9.69423e-05 -0.00213659 0.999998 
7.74392e-05 -0.000305381 1 
8.87172e-05 0.00141315 0.999999 
8.78402e-05 0.00318394 0.999995 
9.16869e-05 0.00492465 0.999988 
7.34108e-05 0.0071174 0.999975 
7.85257e-05 0.00988472 0.999951 
7.99e-05 0.0133082 0.999911 
8.34742e-05 0.0174738 0.999847 
7.84866e-05 0.0230807 0.999734 
7.5937e-05 0.0304493 0.999536 
6.98429e-05 0.0409561 0.999161 
7.81995e-05 0.0543475 0.998522 
8.27235e-05 0.0721212 0.997396 
7.85078e-05 0.0937028 0.9956 
5.67218e-05 0.123845 0.992302 
4.89037e-05 0.162107 0.986773 
3.87521e-05 0.212403 0.977182 
3.52798e-05 0.272003 0.962296 
1.43799e-05 0.343743 0.939064 
-1.35731e-05 0.440308 0.897847 
-2.41586e-05 0.531608 0.846991 
-6.09999e-06 0.669021 0.743243 
-6.3935e-05 0.791399 0.6113 
-5.24561e-05 0.881747 0.471723 
-6.71144e-06 0.964458 0.264236 
-6.0723e-07 0.99965 -0.0264439 
1.90423e-05 0.966556 -0.256456 
3.60828e-05 0.892457 -0.451132 
3.29278e-05 0.78571 -0.618595 
3.09833e-05 0.654857 -0.755753 
2.84472e-05 0.536078 -0.844168 
1.69476e-05 0.443851 -0.896101 
-1.86859e-05 0.364579 -0.931172 
-5.36818e-06 0.270554 -0.962705 
-7.13063e-05 0.215383 -0.97653 
-2.25818e-05 0.165028 -0.986289 
-6.26791e-05 0.122831 -0.992428 
-8.82799e-05 0.0952206 -0.995456 
-3.99564e-05 0.0706355 -0.997502 
-7.89349e-05 0.0520344 -0.998645 
-8.70582e-05 0.0390685 -0.999237 
-7.33103e-05 0.0297707 -0.999557 
-7.03424e-05 0.0221713 -0.999754 
-0.00010591 0.0170462 -0.999855 
-5.96624e-05 0.0129513 -0.999916 
-8.34934e-05 0.00941755 -0.999956 
-0.00010884 0.00710991 -0.999975 
-7.82649e-05 0.00506613 -0.999987 
-0.000101996 0.00319129 -0.999995 
-9.66726e-05 0.00155879 -0.999999 
-7.56159e-05 -0.000242321 -1 
-0.000103513 -0.00207889 -0.999998 
-9.27976e-05 -0.00405291 -0.999992 
-5.79203e-05 -0.0068456 -0.999977 
-0.000104033 -0.0102914 -0.999947 
-7.43418e-05 -0.0140602 -0.999901 
-4.03646e-05 -0.020011 -0.9998 
-0.000122264 -0.0258987 -0.999665 
-4.27691e-05 -0.032362 -0.999476 
-2.53338e-05 -0.0428402 -0.999082 
-4.96156e-05 -0.0543087 -0.998524 
-2.02716e-05 -0.0689715 -0.997619 
-7.37425e-06 -0.0835437 -0.996504 
-0.000161875 -0.0764941 -0.99707 
-1.51081e-06 -0.000779868 -1 
0.000697979 0.000846726 0.999999 
0.0238811 -0.0558331 0.998154 
0.0366177 -0.0743105 0.996563 
0.0324189 -0.0711788 0.996937 
0.0333303 -0.0574478 0.997792 
0.0368456 -0.0434239 0.998377 
0.0432856 -0.0334722 0.998502 
0.0422259 -0.0260778 0.998768 
0.0438249 -0.0195646 0.998848 
0.0480623 -0.0148251 0.998734 
0.045451 -0.0107081 0.998909 
0.0470859 -0.00747611 0.998863 
0.049893 -0.00473437 0.998743 
0.0480134 -0.00229877 0.998844 
0.049595 -0.000292245 0.998769 
0.0487298 0.00169335 0.998811 
0.0507207 0.0036561 0.998706 
0.0480744 0.00585199 0.998827 
0.0482924 0.00845999 0.998797 
0.0473386 0.0116244 0.998811 
0.0480325 0.0154779 0.998726 
0.046028 0.0203371 0.998733 
0.0454029 0.0267811 0.99861 
0.042033 0.0354455 0.998487 
0.0414555 0.0471314 0.998028 
0.0385148 0.0623948 0.997308 
0.0370228 0.0817916 0.995962 
0.0312174 0.106713 0.9938 
0.0269842 0.140716 0.989682 
0.0210132 0.183454 0.982804 
0.0158028 0.238346 0.971052 
0.00947389 0.30459 0.952436 
0.00260881 0.384169 0.923259 
-0.00334273 0.473589 0.880739 
-0.0071835 0.589956 0.807403 
-0.0106606 0.71285 0.701236 
-0.0130762 0.815534 0.578561 
-0.00989625 0.906214 0.422703 
-0.0044383 0.981686 0.190455 
-0.000492198 0.999893 -0.0145861 
0.00473422 0.974036 -0.226342 
0.00885999 0.906719 -0.421643 
0.00950349 0.811111 -0.584816 
0.00877927 0.684466 -0.728992 
0.00624296 0.557395 -0.830224 
0.00165807 0.451763 -0.892137 
-0.00451646 0.344773 -0.938675 
-0.0126682 0.274084 -0.961622 
-0.0173277 0.211044 -0.977323 
-0.0229899 0.158619 -0.987072 
-0.03138 0.123755 -0.991817 
-0.0318475 0.0929018 -0.995166 
-0.0362438 0.0692167 -0.996943 
-0.040374 0.0522934 -0.997815 
-0.0432451 0.0397039 -0.998275 
-0.0423638 0.0294804 -0.998667 
-0.047365 0.0227539 -0.998618 
-0.0464238 0.0172172 -0.998773 
-0.0455729 0.0127295 -0.99888 
-0.050944 0.0096577 -0.998655 
-0.0487132 0.00692438 -0.998789 
-0.0497591 0.00464268 -0.99875 
-0.0507801 0.00257623 -0.998707 
-0.0485105 0.000589833 -0.998822 
-0.0489975 -0.00146543 -0.998798 
-0.0499762 -0.00359159 -0.998744 
-0.0467652 -0.00599015 -0.998888 
-0.0458876 -0.00912021 -0.998905 
-0.0489838 -0.012922 -0.998716 
-0.0418594 -0.017444 -0.998971 
-0.0456061 -0.0234336 -0.998685 
-0.0462736 -0.0298686 -0.998482 
-0.0370746 -0.0379258 -0.998593 
-0.0396709 -0.0493618 -0.997993 
-0.0365596 -0.0618473 -0.997416 
-0.0330484 -0.0743383 -0.996685 
-0.0391418 -0.0717945 -0.996651 
-0.0166994 -0.0487477 -0.998672 
-0.000271271 0.000506856 -1 
-0.000140112 -0.000160687 1 
0.034206 -0.0552984 0.997884 
0.0486411 -0.0726036 0.996174 
0.0497796 -0.0687089 0.996394 
0.0551199 -0.0616288 0.996576 
0.0518789 -0.0542617 0.997178 
0.0564642 -0.0415098 0.997541 
0.059781 -0.0326485 0.997677 
0.060417 -0.0247609 0.997866 
0.062821 -0.0189196 0.997845 
0.0641208 -0.0138523 0.997846 
0.0651648 -0.0102054 0.997822 
0.0663793 -0.0071585 0.997769 
0.0672653 -0.00432999 0.997726 
0.0679696 -0.00199305 0.997685 
0.068481 0.000328292 0.997652 
0.0690943 0.00255689 0.997607 
0.0686599 0.00506803 0.997627 
0.0679958 0.00777927 0.997655 
0.067068 0.0109919 0.997688 
0.0661699 0.014772 0.997699 
0.064587 0.0195016 0.997722 
0.0628043 0.0255366 0.997699 
0.0603746 0.0337193 0.997606 
0.0579692 0.0444421 0.997329 
0.0548303 0.0590019 0.996751 
0.0513395 0.0775991 0.995662 
0.0463201 0.101581 0.993748 
0.0402547 0.131437 0.990507 
0.0326948 0.173549 0.984282 
0.0245757 0.223441 0.974408 
0.0150193 0.291816 0.956357 
0.00520997 0.375108 0.926966 
-0.00250256 0.467351 0.884068 
-0.00929537 0.571835 0.820316 
-0.0133756 0.685384 0.728059 
-0.0142776 0.805295 0.592703 
-0.0114495 0.912486 0.408947 
-0.00762979 0.97352 0.228475 
-0.00183719 0.999931 -0.011629 
0.00434885 0.970765 -0.239994 
0.0085029 0.89259 -0.45079 
0.0115014 0.797533 -0.603166 
0.0113876 0.686197 -0.727326 
0.00796091 0.566157 -0.824259 
0.00160484 0.460592 -0.88761 
-0.0060051 0.368002 -0.929805 
-0.0138669 0.303888 -0.952607 
-0.0230023 0.234766 -0.97178 
-0.0309438 0.181899 -0.98283 
-0.0387208 0.141336 -0.989204 
-0.0449829 0.105544 -0.993397 
-0.0497147 0.0802597 -0.995533 
-0.0544839 0.0607732 -0.996663 
-0.0578713 0.0465129 -0.99724 
-0.0599717 0.0347744 -0.997594 
-0.0628601 0.026969 -0.997658 
-0.0644627 0.02055 -0.997709 
-0.0652558 0.0154632 -0.997749 
-0.0675173 0.0118963 -0.997647 
-0.0682514 0.008543 -0.997632 
-0.068872 0.00582371 -0.997609 
-0.069296 0.00332721 -0.997591 
-0.0689722 0.000932585 -0.997618 
-0.0683541 -0.00127904 -0.99766 
-0.0680666 -0.00364632 -0.997674 
-0.0668122 -0.00610866 -0.997747 
-0.0653199 -0.00888876 -0.997825 
-0.0649806 -0.012463 -0.997809 
-0.0630115 -0.0169597 -0.997869 
-0.0618213 -0.0219699 -0.997845 
-0.0611603 -0.0287835 -0.997713 
-0.058419 -0.0366964 -0.997617 
-0.0560995 -0.0460513 -0.997363 
-0.0536787 -0.0592799 -0.996797 
-0.050482 -0.0704874 -0.996234 
-0.0491916 -0.0727891 -0.996133 
-0.0311365 -0.050474 -0.99824 
-0.000372103 -0.000133665 -1 
0.000326004 0.000234812 1 
0.0280371 -0.0493357 0.998389 
0.0440984 -0.0710768 0.996496 
0.0507749 -0.0710675 0.996178 
0.0514389 -0.0606722 0.996831 
0.0572975 -0.0488826 0.99716 
0.0578334 -0.0385506 0.997582 
0.0600049 -0.0287418 0.997784 
0.0613285 -0.0225975 0.997862 
0.0630235 -0.0169438 0.997868 
0.0635846 -0.0128285 0.997894 
0.0644162 -0.00965684 0.997876 
0.0657399 -0.006624 0.997815 
0.0663706 -0.00402446 0.997787 
0.0675763 -0.00144477 0.997713 
0.0676708 0.00105259 0.997707 
0.0681469 0.00385441 0.997668 
0.0679904 0.00676048 0.997663 
0.0673596 0.00998085 0.997679 
0.0657416 0.0136329 0.997744 
0.0640885 0.018054 0.997781 
0.062248 0.0235814 0.997782 
0.0604714 0.0308681 0.997693 
0.0581481 0.0403861 0.997491 
0.0554512 0.0531413 0.997046 
0.0518107 0.0696746 0.996223 
0.0474579 0.0917256 0.994653 
0.0424441 0.118818 0.992009 
0.0364706 0.15311 0.987536 
0.0279277 0.200614 0.979272 
0.0194576 0.258488 0.965818 
0.0092898 0.338682 0.940855 
0.000963707 0.423076 0.906094 
-0.00579204 0.527748 0.849381 
-0.00871808 0.571642 0.820457 
-0.0124111 0.69665 0.717304 
-0.0118203 0.818708 0.574089 
-0.00879017 0.924995 0.379877 
-0.00502455 0.988776 0.149321 
-0.000498469 0.998402 -0.0565064 
0.00262304 0.967441 -0.253081 
0.00418093 0.935071 -0.354437 
0.00749201 0.855479 -0.517782 
0.0094445 0.72982 -0.683574 
0.00892037 0.625739 -0.779982 
0.00453193 0.513013 -0.858369 
-0.00442638 0.390817 -0.920458 
-0.0129099 0.308837 -0.951027 
-0.0219356 0.24231 -0.969951 
-0.0308629 0.184776 -0.982296 
-0.0391137 0.136589 -0.989855 
-0.0449734 0.104909 -0.993464 
-0.0502121 0.0799058 -0.995537 
-0.0530677 0.0616803 -0.996684 
-0.056944 0.0460542 -0.997315 
-0.0594476 0.0355406 -0.997599 
-0.0612113 0.0272047 -0.997754 
-0.0636907 0.0206491 -0.997756 
-0.0651946 0.0160472 -0.997744 
-0.0662953 0.0118807 -0.997729 
-0.0670368 0.00856287 -0.997714 
-0.0676859 0.00551445 -0.997691 
-0.0680999 0.00262258 -0.997675 
-0.0677986 -2.84183e-05 -0.997699 
-0.0674893 -0.00251596 -0.997717 
-0.0663663 -0.005211 -0.997782 
-0.0655277 -0.00786907 -0.99782 
-0.0644228 -0.0107879 -0.997864 
-0.0632244 -0.0148251 -0.997889 
-0.0615272 -0.0192244 -0.99792 
-0.0604429 -0.0245835 -0.997869 
-0.0585353 -0.0328219 -0.997746 
-0.0576217 -0.0412157 -0.997487 
-0.0566533 -0.0520211 -0.997038 
-0.0526529 -0.0627384 -0.99664 
-0.052446 -0.0701776 -0.996155 
-0.0467998 -0.0745354 -0.99612 
-0.0366146 -0.0585914 -0.99761 
-0.000516526 4.33543e-05 -1 
0.000159719 0.000155376 1 
0.0212953 -0.046911 0.998672 
0.0426354 -0.0754558 0.996237 
0.0449167 -0.0693073 0.996584 
0.04274 -0.0577498 0.997416 
0.0521501 -0.0489422 0.997439 
0.0467416 -0.0431336 0.997975 
0.0527778 -0.0343421 0.998016 
0.051472 -0.0270843 0.998307 
0.054657 -0.0209078 0.998286 
0.0549999 -0.0162624 0.998354 
0.0539909 -0.012728 0.99846 
0.0562139 -0.00942465 0.998374 
0.0572665 -0.00655417 0.998337 
0.057856 -0.00368386 0.998318 
0.0584551 -0.000962854 0.99829 
0.0592468 0.00216177 0.998241 
0.0592785 0.00533129 0.998227 
0.0591485 0.00865655 0.998212 
0.0577717 0.012171 0.998256 
0.056257 0.0162674 0.998284 
0.0545721 0.0212106 0.998285 
0.0531417 0.0275553 0.998207 
0.0513127 0.0356609 0.998046 
0.0492597 0.0464898 0.997703 
0.04639 0.0604679 0.997092 
0.0430045 0.0792254 0.995929 
0.0386054 0.103208 0.99391 
0.0340482 0.133219 0.990502 
0.0286105 0.171331 0.984798 
0.0201524 0.226983 0.97369 
0.0129246 0.291208 0.956572 
0.00466806 0.368962 0.929433 
-0.00206992 0.461857 0.886952 
-0.00989386 0.659447 0.751686 
-0.00963219 0.765292 0.643611 
-0.00728151 0.880621 0.473765 
-0.00468658 0.929544 0.368682 
-0.0036847 0.977489 0.210956 
-0.00145362 0.998764 0.0496876 
0.00143673 0.981835 -0.18973 
0.00366911 0.902399 -0.430886 
0.00660489 0.82482 -0.565356 
0.00758842 0.702229 -0.711911 
0.00618451 0.584143 -0.811627 
0.00276006 0.489286 -0.872119 
-0.00144252 0.420822 -0.907142 
-0.00654879 0.352333 -0.935852 
-0.0146303 0.273193 -0.961848 
-0.0228944 0.213027 -0.976778 
-0.0309413 0.161681 -0.986358 
-0.0358497 0.121791 -0.991908 
-0.0410505 0.0923037 -0.994884 
-0.0439191 0.0721068 -0.996429 
-0.0478862 0.0535198 -0.997418 
-0.0498987 0.0409224 -0.997916 
-0.0520815 0.031646 -0.998141 
-0.0544472 0.0239812 -0.998229 
-0.0554685 0.018669 -0.998286 
-0.0577505 0.0142559 -0.998229 
-0.0574448 0.0103765 -0.998295 
-0.0582743 0.00691899 -0.998277 
-0.0590016 0.00360397 -0.998251 
-0.0587028 0.00054557 -0.998275 
-0.0584101 -0.00240125 -0.99829 
-0.0581859 -0.00510471 -0.998293 
-0.0568357 -0.00805639 -0.998351 
-0.0556035 -0.0110184 -0.998392 
-0.0558755 -0.0143269 -0.998335 
-0.0526224 -0.0188426 -0.998437 
-0.0515812 -0.0239742 -0.998381 
-0.052039 -0.0303529 -0.998184 
-0.0492447 -0.0399701 -0.997987 
-0.0499638 -0.0501751 -0.99749 
-0.0451927 -0.062804 -0.997002 
-0.0438563 -0.073667 -0.996318 
-0.0371873 -0.0740694 -0.996559 
-0.0276451 -0.0527392 -0.998226 
-0.000169927 0.00010845 -1 
0.000181158 8.94013e-05 1 
0.0170448 -0.0500449 0.998602 
0.0332928 -0.0702512 0.996974 
0.0333876 -0.0773699 0.996443 
0.0358543 -0.0701542 0.996892 
0.0372198 -0.0514145 0.997984 
0.0398353 -0.0382625 0.998473 
0.0421049 -0.0314592 0.998618 
0.0432711 -0.0238923 0.998778 
0.0445509 -0.0191181 0.998824 
0.0439557 -0.015349 0.998916 
0.0448751 -0.0116351 0.998925 
0.0465434 -0.00864483 0.998879 
0.0477016 -0.00563409 0.998846 
0.0472653 -0.00258143 0.998879 
0.0488811 0.000676152 0.998804 
0.0488541 0.00414541 0.998797 
0.0487015 0.00772157 0.998784 
0.04751 0.0113012 0.998807 
0.0465312 0.0152584 0.9988 
0.0452131 0.0199279 0.998779 
0.044045 0.0258463 0.998695 
0.042418 0.0334653 0.998539 
0.040818 0.0435299 0.998218 
0.0383474 0.0567635 0.997651 
0.0356781 0.0743306 0.996595 
0.0318879 0.0972882 0.994745 
0.0275741 0.127584 0.991444 
0.0231677 0.165401 0.985954 
0.0174761 0.214864 0.976488 
0.00931848 0.292175 0.95632 
0.00200394 0.383673 0.923467 
-0.00385719 0.500719 0.865601 
-0.00607396 0.607361 0.794402 
-0.00701252 0.577192 0.816578 
-0.00773 0.681685 0.731605 
-0.0072109 0.801885 0.597434 
-0.00462561 0.882331 0.470607 
-0.00178947 0.988697 0.149914 
-0.00142277 0.999737 0.0228743 
-0.000402981 0.971533 -0.236902 
-0.001698 0.983784 -0.179351 
0.002749 0.856685 -0.515832 
0.00609972 0.756575 -0.653878 
0.00613257 0.624 -0.7814 
0.00408939 0.521632 -0.853161 
-0.000580108 0.413017 -0.910723 
-0.00629609 0.325275 -0.945598 
-0.0124181 0.257049 -0.966319 
-0.0201677 0.198852 -0.979822 
-0.025824 0.152588 -0.987952 
-0.0298565 0.114327 -0.992994 
-0.0324196 0.0898556 -0.995427 
-0.037167 0.0669369 -0.997065 
-0.0392967 0.0509676 -0.997927 
-0.0408631 0.0390966 -0.9984 
-0.0437607 0.0297184 -0.9986 
-0.0445683 0.0232173 -0.998737 
-0.0458405 0.0179305 -0.998788 
-0.047791 0.0136624 -0.998764 
-0.0471875 0.0097228 -0.998839 
-0.0482185 0.0060145 -0.998819 
-0.0481617 0.00258071 -0.998836 
-0.0482154 -0.000804517 -0.998837 
-0.0475333 -0.00394923 -0.998862 
-0.0477662 -0.00686907 -0.998835 
-0.0459298 -0.00991435 -0.998895 
-0.0453544 -0.0130863 -0.998885 
-0.0448524 -0.0164683 -0.998858 
-0.0418022 -0.0212135 -0.998901 
-0.0413612 -0.026827 -0.998784 
-0.042441 -0.0339355 -0.998522 
-0.0382445 -0.0424817 -0.998365 
-0.0403042 -0.0516149 -0.997853 
-0.0359597 -0.0646336 -0.997261 
-0.0356334 -0.0753213 -0.996522 
-0.0298144 -0.0766268 -0.996614 
-0.0200997 -0.0508873 -0.998502 
-0.000265548 3.40671e-05 -1 
0.000152082 2.61932e-05 1 
0.0144848 -0.0577227 0.998228 
0.0257935 -0.0752897 0.996828 
0.0261137 -0.0769265 0.996695 
0.0308413 -0.0639736 0.997475 
0.0274993 -0.0537804 0.998174 
0.0318388 -0.043352 0.998552 
0.0301916 -0.0343992 0.998952 
0.0346695 -0.0280484 0.999005 
0.033822 -0.0224173 0.999176 
0.0344679 -0.0184183 0.999236 
0.0360443 -0.0144594 0.999246 
0.0361509 -0.0112169 0.999283 
0.0379797 -0.00815241 0.999245 
0.0385549 -0.00505066 0.999244 
0.0386821 -0.00146511 0.99925 
0.0397048 0.00202085 0.999209 
0.0395402 0.00576872 0.999201 
0.0385627 0.00937015 0.999212 
0.0378921 0.0131894 0.999195 
0.037124 0.0173921 0.999159 
0.0362825 0.0224763 0.999089 
0.0350998 0.028875 0.998967 
0.0337737 0.037365 0.998731 
0.032089 0.0484307 0.998311 
0.0299071 0.0634901 0.997534 
0.027138 0.0830438 0.996176 
0.0236539 0.109526 0.993702 
0.0195148 0.14426 0.989347 
0.0154455 0.187155 0.982209 
0.0105257 0.247824 0.968748 
0.00397521 0.331731 0.943366 
-0.00128261 0.438544 0.898709 
-0.00375615 0.534716 0.845023 
-0.00617871 0.746051 0.66586 
-0.00405271 0.84196 0.539524 
-0.000261745 0.93553 0.353247 
0.00149323 0.980501 0.196507 
-0.00191506 0.947835 0.318756 
-0.00103503 0.990057 0.140662 
-0.000786317 0.99985 -0.0172837 
-0.00184559 0.945298 -0.326203 
-1.01851e-05 0.905953 -0.423378 
0.00310269 0.771507 -0.636213 
0.00540553 0.707458 -0.706735 
0.00541739 0.597736 -0.801675 
0.00102834 0.421986 -0.906602 
-0.00312368 0.336572 -0.941652 
-0.00814273 0.2629 -0.964789 
-0.0144483 0.203822 -0.978901 
-0.0161559 0.170958 -0.985146 
-0.0216812 0.13627 -0.990435 
-0.023168 0.10628 -0.994066 
-0.0278006 0.0792395 -0.996468 
-0.0304076 0.0604428 -0.997708 
-0.0320658 0.0459085 -0.998431 
-0.0344803 0.0344885 -0.99881 
-0.0354621 0.0268877 -0.999009 
-0.0366726 0.0208206 -0.99911 
-0.0377413 0.0159499 -0.99916 
-0.0387448 0.0119983 -0.999177 
-0.0388057 0.00775736 -0.999217 
-0.0388048 0.00402219 -0.999239 
-0.0390762 0.000241174 -0.999236 
-0.0384941 -0.00329363 -0.999253 
-0.0384449 -0.00666151 -0.999239 
-0.0375073 -0.00970167 -0.999249 
-0.0367006 -0.0129868 -0.999242 
-0.0353182 -0.0165136 -0.99924 
-0.0341014 -0.0203888 -0.99921 
-0.0325402 -0.0261619 -0.999128 
-0.0331131 -0.0332486 -0.998898 
-0.030266 -0.0431217 -0.998611 
-0.0305736 -0.0552854 -0.998002 
-0.0267582 -0.0679074 -0.997333 
-0.0275748 -0.0770056 -0.996649 
-0.0226898 -0.0795452 -0.996573 
-0.0178874 -0.0598108 -0.998049 
-0.000149729 3.56004e-05 -1 
0.000155364 4.17839e-05 1 
0.0106874 -0.0583086 0.998241 
0.0202272 -0.0793408 0.996642 
0.0186921 -0.0789446 0.996704 
0.0232703 -0.0689079 0.997352 
0.0211383 -0.0559185 0.998212 
0.0241098 -0.0427081 0.998797 
0.0231323 -0.03372 0.999164 
0.0266239 -0.0271916 0.999276 
0.0253763 -0.0225627 0.999423 
0.0277247 -0.0180482 0.999453 
0.0288771 -0.014427 0.999479 
0.0289186 -0.0111443 0.99952 
0.0305747 -0.00791377 0.999501 
0.0315934 -0.00424378 0.999492 
0.031208 -0.000322298 0.999513 
0.0321405 0.00351525 0.999477 
0.0311122 0.00731158 0.999489 
0.0306678 0.0112424 0.999466 
0.0301733 0.0153289 0.999427 
0.0296213 0.0199532 0.999362 
0.0287902 0.0256544 0.999256 
0.0277788 0.0331767 0.999063 
0.0263852 0.0431486 0.99872 
0.0247867 0.0564769 0.998096 
0.0224441 0.0742908 0.996984 
0.0197246 0.0979977 0.994991 
0.0163094 0.129697 0.991419 
0.0124133 0.171738 0.985064 
0.0090082 0.225267 0.974256 
0.00464822 0.293727 0.955878 
0.000148141 0.393504 0.919323 
-0.00235832 0.505478 0.862836 
-0.00333719 0.612998 0.790077 
-0.00491874 0.649336 0.760485 
-0.00136724 0.847316 0.531087 
0.0031294 0.930302 0.366781 
0.00198092 0.998759 0.0497591 
0.00140345 0.999313 0.037025 
0.000590584 0.999901 0.0140884 
0.000312155 0.999932 0.0116257 
-0.00379849 0.990711 -0.135934 
-0.00310579 0.962732 -0.270439 
0.000735125 0.833861 -0.551974 
0.00436531 0.655834 -0.754892 
0.00427374 0.546277 -0.837594 
0.00378117 0.494164 -0.86936 
0.00111266 0.394439 -0.918921 
-0.0025765 0.30974 -0.950818 
-0.00731466 0.236455 -0.971615 
-0.0117454 0.177933 -0.983972 
-0.0161341 0.132976 -0.990988 
-0.0197345 0.0956614 -0.995218 
-0.0224944 0.07296 -0.997081 
-0.0247641 0.0554996 -0.998152 
-0.0268482 0.0412799 -0.998787 
-0.0278481 0.0319455 -0.999102 
-0.0290231 0.024676 -0.999274 
-0.0300189 0.0191201 -0.999366 
-0.0303373 0.0147254 -0.999431 
-0.0318892 0.0106541 -0.999435 
-0.0310071 0.00664961 -0.999497 
-0.0314563 0.002606 -0.999502 
-0.0311459 -0.00122533 -0.999514 
-0.0310658 -0.005061 -0.999505 
-0.0302701 -0.00843673 -0.999506 
-0.0300337 -0.0117179 -0.99948 
-0.0287238 -0.0150208 -0.999475 
-0.0270029 -0.0186069 -0.999462 
-0.0268084 -0.0230447 -0.999375 
-0.0244978 -0.0286323 -0.99929 
-0.0257641 -0.0345524 -0.999071 
-0.0225908 -0.0428443 -0.998826 
-0.0236174 -0.0532978 -0.998299 
-0.0205787 -0.0666033 -0.997567 
-0.0199543 -0.0787121 -0.996698 
-0.0164073 -0.0798587 -0.996671 
-0.011977 -0.0550397 -0.998412 
-0.00012612 7.66962e-05 -1 
0.000146339 1.05936e-05 1 
0.00765539 -0.0594547 0.998202 
0.0141292 -0.0806847 0.99664 
0.0135472 -0.0804307 0.996668 
0.0170272 -0.0681712 0.997528 