# vtk DataFile Version 3.0 
Exported using Morpho https://github.com/Morpho-lang/morpho 
ASCII 
DATASET UNSTRUCTURED_GRID 

POINTS 1978 float 
-11.9995 -3.99939 -1.67311e-06 
-11.5955 -3.99937 -4.41025e-06 
-11.2939 -3.99941 7.136e-07 
-10.9496 -3.99948 -8.46665e-07 
-10.6384 -3.9995 -1.64569e-06 
-10.2918 -3.99945 -1.57307e-06 
-9.96915 -3.99946 -8.81019e-07 
-9.6584 -3.99941 -8.73354e-07 
-9.32002 -3.99942 -8.66337e-07 
-8.99972 -3.99942 -2.42951e-07 
-8.68197 -3.99942 -8.77032e-08 
-8.36218 -3.99945 -1.15021e-07 
-8.05428 -3.99944 6.73254e-08 
-7.76095 -3.99949 1.06231e-07 
-7.48245 -3.99944 7.50832e-08 
-7.19274 -3.99948 -4.54232e-08 
-6.89328 -3.99952 -1.32304e-07 
-6.59567 -3.99945 1.1765e-07 
-6.29603 -3.99945 7.95632e-08 
-5.98847 -3.99945 1.38781e-07 
-5.68463 -3.99946 1.86733e-07 
-5.38029 -3.99945 1.48899e-07 
-5.07833 -3.99947 2.39667e-07 
-4.78409 -3.99944 4.154e-07 
-4.44782 -3.99943 5.15876e-07 
-4.15757 -3.99949 6.9101e-07 
-3.85694 -3.99947 1.29376e-06 
-3.52967 -3.99949 1.99539e-06 
-3.23505 -3.99957 2.41156e-06 
-2.93909 -3.99963 4.07773e-06 
-2.65173 -3.99967 5.1828e-06 
-2.3816 -3.99973 6.1653e-06 
-2.11815 -3.99982 7.62238e-06 
-1.82764 -3.99983 9.04179e-06 
-1.5451 -3.99989 6.91571e-06 
-1.24518 -3.99981 3.85531e-06 
-0.948964 -3.99971 -8.46841e-06 
-0.634341 -3.99944 -1.57435e-05 
-0.353159 -3.99925 -2.87825e-05 
0.0245239 -3.99879 1.65314e-05 
0.343614 -3.99925 2.28341e-05 
0.632835 -3.99944 1.55305e-05 
0.934829 -3.99967 6.3556e-06 
1.21502 -3.99992 -1.02844e-06 
1.48744 -3.99986 -6.35054e-06 
1.77034 -3.99987 -9.01665e-06 
2.05064 -3.99978 -8.08813e-06 
2.33934 -3.99972 -7.35545e-06 
2.66169 -3.99966 -5.15933e-06 
2.96125 -3.99961 -3.82384e-06 
3.28648 -3.99951 -2.47796e-06 
3.57307 -3.99952 -1.67338e-06 
3.87342 -3.99948 -1.38562e-06 
4.18702 -3.99946 -6.97613e-07 
4.48834 -3.99947 -5.08987e-07 
4.78646 -3.99945 -4.56253e-07 
5.0996 -3.99946 -2.65531e-07 
5.40602 -3.99945 -2.34962e-07 
5.71817 -3.99945 -1.43454e-07 
6.0108 -3.99948 -2.47543e-08 
6.3053 -3.99948 -1.75598e-07 
6.59945 -3.99946 -2.39527e-08 
6.89879 -3.99948 1.01458e-07 
7.1735 -3.99947 -1.81019e-07 
7.47538 -3.99947 -1.39978e-07 
7.77094 -3.99945 1.35675e-07 
8.06747 -3.99946 -8.60981e-08 
8.35765 -3.9995 1.53497e-07 
8.65581 -3.99946 3.63989e-08 
8.93121 -3.99944 1.03409e-07 
9.27961 -3.99942 7.68212e-07 
9.60879 -3.99943 9.47982e-07 
9.89889 -3.99944 6.04677e-07 
10.2698 -3.99942 1.45385e-06 
10.5862 -3.99943 1.70899e-06 
10.9784 -3.99944 7.54251e-07 
11.2945 -3.99944 -7.89654e-07 
11.588 -3.99937 4.44025e-06 
11.9995 -3.99938 1.79622e-06 
-11.9994 -3.60517 4.94859e-06 
-11.7065 -3.71271 1.08991e-15 
-11.353 -3.61983 -3.23504e-16 
-11.0404 -3.66955 -5.14707e-17 
-10.7075 -3.63915 1.08913e-15 
-10.3941 -3.67649 9.18539e-17 
-10.0592 -3.65772 8.88703e-16 
-9.73821 -3.65049 5.93235e-16 
-9.41098 -3.68063 2.36296e-16 
-9.07422 -3.66397 2.70865e-16 
-8.75145 -3.6627 1.40403e-16 
-8.43051 -3.66754 1.02116e-16 
-8.11232 -3.66257 -7.0054e-17 
-7.79957 -3.65189 -2.64997e-16 
-7.50087 -3.63913 -1.50437e-17 
-7.20837 -3.6603 1.74033e-16 
-6.89694 -3.66317 1.81351e-16 
-6.58968 -3.66284 -1.75813e-16 
-6.27648 -3.6692 -2.90862e-16 
-5.96605 -3.66336 -2.0391e-16 
-5.656 -3.66083 -3.09795e-16 
-5.34941 -3.65526 -4.74689e-16 
-5.05463 -3.64447 -7.97432e-16 
-4.72852 -3.68635 -2.00707e-16 
-4.4365 -3.64309 -1.39925e-15 
-4.13659 -3.6605 -1.31964e-15 
-3.81641 -3.69442 -4.88835e-16 
-3.51434 -3.67199 -2.39763e-15 
-3.21382 -3.68197 -2.57309e-15 
-2.91645 -3.68048 -3.31875e-15 
-2.6376 -3.66452 -6.07872e-15 
-2.36237 -3.66126 -6.06549e-15 
-2.06614 -3.7021 -1.956e-15 
-1.77348 -3.69105 -6.31967e-15 
-1.48333 -3.69544 -2.29585e-15 
-1.18957 -3.67541 -6.97703e-16 
-0.874684 -3.67301 2.01065e-15 
-0.588469 -3.59586 6.03219e-15 
-0.252316 -3.70243 5.21689e-15 
0.0269836 -3.54257 1.02978e-14 
0.308063 -3.61444 -1.02582e-14 
0.606584 -3.6051 -1.1642e-15 
0.902803 -3.66535 -3.65897e-15 
1.20918 -3.66588 1.72795e-17 
1.51272 -3.68968 4.74165e-15 
1.80537 -3.6894 5.31388e-15 
2.10027 -3.69576 2.52294e-15 
2.41766 -3.72508 2.20269e-15 
2.71824 -3.69393 1.92387e-15 
3.03005 -3.70698 1.75116e-15 
3.32481 -3.6593 3.28424e-15 
3.62052 -3.66603 1.99213e-15 
3.92838 -3.67509 1.14934e-15 
4.22968 -3.6567 1.37764e-15 
4.52721 -3.65038 1.16027e-15 
4.83832 -3.667 6.1839e-16 
5.14894 -3.6621 6.13933e-16 
5.46362 -3.66927 3.2421e-16 
5.76558 -3.64984 4.17622e-16 
6.06427 -3.65531 3.44897e-16 
6.36222 -3.6555 1.97883e-16 
6.66589 -3.66291 6.45932e-17 
6.94956 -3.63136 1.63875e-16 
7.25031 -3.66394 6.64809e-17 
7.55199 -3.65557 1.29452e-16 
7.85455 -3.65699 -8.44241e-17 
8.15312 -3.64872 -1.79291e-16 
8.44818 -3.65648 -1.67387e-16 
8.73461 -3.62326 -3.18484e-16 
9.05392 -3.69883 1.05385e-16 
9.38651 -3.67455 -2.14665e-16 
9.69017 -3.62475 -1.13796e-15 
10.024 -3.70293 1.50011e-16 
10.3507 -3.64885 -6.0578e-16 
10.7155 -3.71517 1.61724e-15 
11.0463 -3.64251 -8.42877e-16 
11.3497 -3.61052 -1.24161e-16 
11.7068 -3.71977 -5.24908e-16 
11.9994 -3.60231 -4.97599e-06 
-11.9994 -3.30102 2.52707e-06 
-11.6277 -3.36181 1.38359e-15 
-11.2816 -3.2731 9.84081e-16 
-10.9705 -3.3233 3.077e-15 
-10.6565 -3.28676 1.89198e-15 
-10.3416 -3.34019 1.09576e-15 
-10.0209 -3.31554 8.11656e-16 
-9.70093 -3.3103 1.16952e-15 
-9.38693 -3.35539 5.81136e-16 
-9.06892 -3.32906 3.98715e-16 
-8.77165 -3.30614 2.08916e-16 
-8.47397 -3.33192 2.78035e-16 
-8.16402 -3.32689 1.81799e-16 
-7.85875 -3.32123 -6.19773e-17 
-7.55449 -3.29467 -4.30885e-17 
-7.25349 -3.31382 -4.57071e-17 
-6.95394 -3.3397 -1.18563e-16 
-6.64331 -3.33076 -2.90287e-16 
-6.3341 -3.33888 -2.43472e-16 
-6.02628 -3.33266 -2.31053e-16 
-5.71612 -3.32693 -4.43113e-16 
-5.40814 -3.31844 -5.6821e-16 
-5.10418 -3.29414 -6.511e-16 
-4.8018 -3.35912 -1.00146e-15 
-4.50023 -3.30199 -1.16053e-15 
-4.20116 -3.32096 -1.45941e-15 
-3.89739 -3.37419 -2.36996e-15 
-3.59492 -3.3598 -2.90575e-15 
-3.28044 -3.36224 -3.31836e-15 
-2.97741 -3.36778 -4.60681e-15 
-2.67626 -3.33127 -3.66042e-15 
-2.38643 -3.32687 -4.35277e-15 
-2.09162 -3.39379 -6.75e-15 
-1.78895 -3.38586 -4.9538e-15 
-1.47734 -3.37301 -5.96103e-15 
-1.1568 -3.35545 4.94746e-16 
-0.864624 -3.28787 6.0818e-15 
-0.5657 -3.17791 -2.54658e-15 
-0.288906 -3.32614 8.84536e-15 
0.0151397 -3.09103 3.30354e-14 
0.310876 -3.18752 1.40066e-15 
0.593475 -3.17231 -2.028e-14 
0.878841 -3.29127 -7.59798e-15 
1.17525 -3.33825 1.61731e-15 
1.48156 -3.37161 3.72965e-15 
1.78649 -3.37013 3.47347e-15 
2.07875 -3.38622 8.05943e-15 
2.37702 -3.4331 7.67697e-15 
2.68027 -3.38759 7.15757e-15 
2.98095 -3.39661 4.88382e-15 
3.27186 -3.33413 2.90729e-15 
3.57284 -3.33026 2.6369e-15 
3.87102 -3.34801 2.19042e-15 
4.17239 -3.3236 1.36146e-15 
4.47317 -3.30778 1.03979e-15 
4.77512 -3.33171 9.67993e-16 
5.08203 -3.32974 8.18378e-16 
5.39344 -3.33862 5.63174e-16 
5.70075 -3.31578 3.42211e-16 
6.01008 -3.31241 2.59385e-16 
6.30772 -3.31459 2.583e-16 
6.60953 -3.32922 2.14237e-16 
6.90749 -3.2801 1.83303e-17 
7.20492 -3.32332 3.11269e-17 
7.50732 -3.31904 -5.38284e-18 
7.81309 -3.3214 9.22049e-17 
8.12004 -3.30946 -3.13751e-17 
8.42398 -3.30433 -1.93613e-16 
8.74717 -3.30235 -3.46362e-16 
9.07146 -3.3777 -4.54277e-16 
9.38303 -3.32955 -6.83681e-16 
9.69319 -3.27658 -9.00831e-16 
10.0026 -3.37169 -1.12598e-15 
10.3061 -3.29706 -1.26903e-15 
10.6308 -3.39711 -2.82147e-15 
10.9614 -3.32045 -3.53135e-15 
11.2906 -3.24711 -5.82296e-16 
11.6263 -3.36839 -1.78228e-15 
11.9994 -3.29286 -2.68883e-06 
-11.9995 -2.97801 2.81574e-06 
-11.6544 -3.04772 1.15369e-15 
-11.3096 -2.95566 -1.97729e-15 
-10.963 -2.9686 2.03926e-16 
-10.6242 -2.96094 -6.11064e-16 
-10.295 -2.99955 -3.08201e-16 
-9.97005 -2.97993 1.45454e-16 
-9.64296 -2.98086 5.47868e-16 
-9.33986 -3.01502 2.2546e-16 
-9.03924 -2.97422 6.8563e-17 
-8.73526 -2.96027 2.39986e-16 
-8.43434 -2.99295 2.42857e-16 
-8.13123 -2.98695 1.17856e-16 
-7.83079 -2.98317 2.26643e-17 
-7.52842 -2.9585 4.55091e-17 
-7.23121 -2.98144 1.88351e-16 
-6.9309 -3.01248 1.21295e-16 
-6.62122 -3.00462 1.41302e-16 
-6.31823 -3.00667 1.06058e-16 
-6.0111 -3.00213 8.66995e-17 
-5.70334 -2.99442 1.24161e-16 
-5.3972 -2.98317 9.67876e-17 
-5.09133 -2.96031 1.32501e-16 
-4.79386 -3.02377 -1.96969e-17 
-4.48812 -2.97548 2.73138e-16 
-4.18816 -2.9919 8.56981e-17 
-3.89532 -3.05156 -2.1157e-16 
-3.59819 -3.03714 -1.23962e-16 
-3.29918 -3.05531 -3.37088e-16 
-2.97831 -3.04765 -1.79027e-16 
-2.6867 -2.98978 -4.97631e-16 
-2.37496 -2.99476 -5.68904e-16 
-2.07146 -3.0713 -4.56903e-16 
-1.75991 -3.06668 -5.15772e-16 
-1.43691 -3.04674 3.85951e-15 
-1.14421 -2.97688 6.8459e-15 
-0.840138 -2.87977 7.40905e-15 
-0.569657 -2.73627 -1.15603e-15 
-0.247468 -2.88644 -3.87673e-14 
0.0331648 -2.50447 4.4253e-14 
0.255601 -2.71214 -5.30091e-14 
0.545807 -2.72862 5.09694e-15 
0.853221 -2.8689 -2.3861e-15 
1.1524 -2.96521 -1.75664e-15 
1.45422 -3.02534 3.15642e-15 
1.75906 -3.03906 -2.07274e-16 
2.0723 -3.0535 -1.49593e-15 
2.36783 -3.12137 5.59634e-16 
2.66769 -3.06268 1.1398e-16 
2.96075 -3.07097 4.71986e-16 
3.2637 -3.00898 -6.46365e-17 
3.56657 -3.00831 1.04212e-16 
3.87126 -3.018 1.86967e-16 
4.16914 -2.99284 2.17207e-17 
4.46742 -2.97647 -1.26189e-16 
4.76642 -2.99764 -6.2621e-17 
5.06709 -2.99792 -1.22504e-16 
5.37199 -3.00859 -5.41257e-17 
5.67953 -2.98675 -1.48424e-16 
5.98715 -2.98733 -1.57203e-16 
6.29969 -2.9729 -1.03233e-16 
6.59511 -2.99366 -1.10823e-16 
6.91692 -2.96614 -1.45995e-16 
7.2347 -2.98839 -2.08107e-16 
7.536 -2.98521 -1.10534e-16 
7.83892 -2.98908 -5.30731e-19 
8.1378 -2.97186 -6.20515e-17 
8.44689 -2.98187 -2.31854e-16 
8.74628 -2.96015 -1.91051e-16 
9.04963 -3.04842 -7.58882e-17 
9.35831 -2.99519 -1.42783e-16 
9.66148 -2.93632 -3.3412e-16 
9.98597 -3.01961 -2.17534e-16 
10.3174 -2.96818 9.43026e-16 
10.6459 -3.06244 1.08915e-18 
10.977 -2.98048 2.3561e-16 
11.3302 -2.92695 3.14712e-15 
11.6659 -3.04931 -2.57865e-15 
11.9994 -2.95161 -3.1012e-06 
-11.9994 -2.66432 2.92827e-06 
-11.6456 -2.72185 2.27359e-16 
-11.3028 -2.63117 -1.98288e-15 
-10.9634 -2.6474 8.2647e-16 
[...]
POINT_DATA 1978 
VECTORS vectors float
0.0339292 -0.0500231 0.998243 
0.0405582 -0.0644468 0.997213 
0.0370394 -0.0617867 0.997505 
0.0372592 -0.0506007 0.998127 
0.0370202 -0.0380169 0.998694 
0.0378118 -0.0246186 0.999089 
0.0379291 -0.0155127 0.999259 
0.0387561 -0.0096768 0.999304 
0.0393093 -0.0057441 0.999315 
0.0392706 -0.0037214 0.999321 
0.0395948 -0.00266736 0.999312 
0.0396403 -0.00196948 0.999309 
0.0393098 -0.00141733 0.999317 
0.0388944 -0.00077196 0.999331 
0.0388009 -3.45193e-05 0.999334 
0.0389705 0.000840075 0.999328 
0.0393912 0.00181587 0.999289 
0.03933 0.00291007 0.999314 
0.0392782 0.00419602 0.999311 
0.0392778 0.00584792 0.999304 
0.0390873 0.00799665 0.999296 
0.0390214 0.0107536 0.999273 
0.0385313 0.0141786 0.999248 
0.0389625 0.0180693 0.999175 
0.0386661 0.0238511 0.999064 
0.0377934 0.0299898 0.998924 
0.0380661 0.0381436 0.998643 
0.0371554 0.0507807 0.99811 
0.0358308 0.06649 0.997228 
0.0344188 0.0885647 0.995559 
0.0321072 0.118382 0.992528 
0.0293249 0.156584 0.987305 
0.026365 0.207225 0.978012 
0.0224552 0.281387 0.959403 
0.0172252 0.374589 0.927098 
0.0109546 0.499654 0.866217 
0.00454522 0.646151 0.763246 
-0.000945237 0.809995 0.586457 
-0.00186988 0.934212 0.356688 
-0.000449362 0.999654 -0.0251178 
0.00226066 0.936035 -0.351862 
0.000892435 0.810124 -0.586279 
-0.00440925 0.651571 -0.758624 
-0.0103987 0.513608 -0.857994 
-0.0161197 0.394796 -0.918694 
-0.0215407 0.296728 -0.95479 
-0.0259868 0.221549 -0.974877 
-0.0301088 0.163994 -0.986082 
-0.0327976 0.117918 -0.992566 
-0.0350126 0.0870697 -0.995675 
-0.0361404 0.0639098 -0.99739 
-0.036808 0.049152 -0.998201 
-0.0379027 0.0381118 -0.998647 
-0.0383186 0.0295628 -0.998922 
-0.0383149 0.0231799 -0.999089 
-0.0387516 0.0181832 -0.999177 
-0.0389808 0.0139617 -0.999237 
-0.0391754 0.0106948 -0.99927 
-0.039098 0.00800811 -0.999295 
-0.0389376 0.00596624 -0.999313 
-0.0391047 0.00438723 -0.999315 
-0.039302 0.00302567 -0.999313 
-0.0388376 0.00179961 -0.999331 
-0.0389679 0.000944295 -0.999327 
-0.0394262 -2.08087e-05 -0.999313 
-0.0392071 -0.000896201 -0.999321 
-0.0391863 -0.00164006 -0.99932 
-0.0393315 -0.0024078 -0.999313 
-0.038692 -0.00320954 -0.999334 
-0.0391388 -0.00398672 -0.999322 
-0.0397669 -0.00601114 -0.999299 
-0.0382187 -0.00973826 -0.999318 
-0.0383167 -0.0147416 -0.999263 
-0.0376256 -0.0246469 -0.999098 
-0.0367629 -0.0358805 -0.998796 
-0.0373441 -0.0520465 -0.998061 
-0.0364948 -0.0618903 -0.997512 
-0.0405473 -0.0644067 -0.997217 
-0.0339507 -0.049979 -0.998245 
0.0259251 -0.0533628 0.998348 
0.0309511 -0.052276 0.998266 
0.0346877 -0.0567773 0.997916 
0.034974 -0.0509033 0.998225 
0.036099 -0.0397111 0.998693 
0.0366806 -0.0290724 0.999036 
0.0384439 -0.0192887 0.999204 
0.0398539 -0.012454 0.999276 
0.0402672 -0.00768794 0.999262 
0.0413765 -0.00480275 0.999254 
0.0417686 -0.00317395 0.999264 
0.0421203 -0.00213865 0.999228 
0.0425255 -0.00140536 0.999212 
0.0431145 -0.000705613 0.999187 
0.0438476 0.000103386 0.999155 
0.0430096 0.000952054 0.999186 
0.042312 0.0018867 0.99924 
0.0428319 0.00295407 0.999192 
0.0424968 0.00427208 0.999203 
0.0424945 0.00596974 0.999195 
0.0423066 0.00811919 0.999189 
0.042287 0.01083 0.999165 
0.0422421 0.0140488 0.999128 
0.0406394 0.0185955 0.999123 
0.0419866 0.0237271 0.998952 
0.0407286 0.0303461 0.998828 
0.0389983 0.0398036 0.998563 
0.0386428 0.0521444 0.998009 
0.0365571 0.0690919 0.997059 
0.0344108 0.0927992 0.995212 
0.0318431 0.123991 0.991898 
0.0280763 0.165625 0.985919 
0.0231814 0.224901 0.974237 
0.0184011 0.303361 0.952833 
0.0130427 0.404675 0.914476 
0.00750811 0.530368 0.847865 
0.00261242 0.683936 0.729647 
-0.000404705 0.832666 0.553836 
-0.00107621 0.963368 0.268016 
-0.00132656 0.999643 -0.023884 
-0.00070005 0.951169 -0.308503 
-0.00158761 0.827568 -0.561447 
-0.00447842 0.673553 -0.739235 
-0.00929236 0.51704 -0.856068 
-0.0148663 0.388418 -0.921499 
-0.0201117 0.290194 -0.956889 
-0.0248326 0.214542 -0.976527 
-0.0289531 0.154429 -0.987704 
-0.0324772 0.113435 -0.993136 
-0.0351533 0.083319 -0.995999 
-0.037739 0.0623191 -0.997487 
-0.0390052 0.0477413 -0.998218 
-0.0397527 0.0365136 -0.998662 
-0.0409673 0.0282866 -0.99888 
-0.0415489 0.0220786 -0.999012 
-0.0413384 0.0170362 -0.999119 
-0.0419403 0.0130707 -0.999153 
-0.0419855 0.00990587 -0.999186 
-0.0429421 0.00746788 -0.999166 
-0.0430061 0.00557857 -0.999174 
-0.0430154 0.00405328 -0.999181 
-0.0431315 0.0027531 -0.99918 
-0.0441615 0.00175282 -0.999138 
-0.0430047 0.000809479 -0.999189 
-0.0432927 -8.28112e-05 -0.999177 
-0.0433781 -0.000899247 -0.999174 
-0.043558 -0.00168398 -0.999165 
-0.043306 -0.00257627 -0.999154 
-0.043717 -0.00359597 -0.999176 
-0.0408249 -0.00510707 -0.999251 
-0.0405955 -0.0080169 -0.999265 
-0.0409619 -0.0123339 -0.999232 
-0.0376659 -0.0188214 -0.999219 
-0.0372879 -0.0281063 -0.999062 
-0.0346693 -0.0403066 -0.998719 
-0.0354429 -0.0508508 -0.998211 
-0.0347948 -0.0565055 -0.997929 
-0.0308264 -0.0524495 -0.998261 
-0.0257216 -0.0533824 -0.998354 
0.0213564 -0.0511509 0.99858 
0.0319721 -0.0522164 0.998255 
0.034846 -0.0537799 0.998102 
0.0368832 -0.0471543 0.998321 
0.0383365 -0.0383708 0.998686 
0.0406142 -0.029104 0.998863 
0.042347 -0.0203279 0.999029 
0.0442108 -0.0133914 0.999041 
0.0452047 -0.00846318 0.999091 
0.0465638 -0.00548588 0.999028 
0.0473671 -0.00367785 0.998972 
0.0476413 -0.00233221 0.998989 
0.0478548 -0.0013486 0.998976 
0.047754 -0.000575581 0.99898 
0.0475228 0.000210742 0.999011 
0.0478809 0.000977153 0.998973 
0.0480795 0.00179316 0.99894 
0.0479474 0.00277392 0.998966 
0.0477127 0.0040085 0.998974 
0.0474837 0.00554284 0.998978 
0.0471551 0.00747814 0.998982 
0.0467504 0.00995485 0.99898 
0.0463897 0.0130601 0.998982 
0.0462157 0.0171624 0.998883 
0.045662 0.0219642 0.998862 
0.045122 0.0286443 0.998692 
0.0443609 0.0374745 0.998414 
0.042633 0.0490936 0.998026 
0.0403729 0.0662727 0.99711 
0.0374757 0.0894817 0.995389 
0.0331902 0.121612 0.992156 
0.0286229 0.164636 0.986103 
0.0243689 0.224466 0.974292 
0.0185673 0.304312 0.952533 
0.0122745 0.410546 0.91193 
0.00607067 0.549244 0.83578 
0.00128181 0.699125 0.715114 
-0.00167691 0.847442 0.530926 
-0.00232879 0.956354 0.292086 
-0.00260327 0.999821 -0.0131522 
-0.00240813 0.948883 -0.315575 
-0.00322897 0.836245 -0.548355 
-0.00533766 0.689127 -0.724741 
-0.00944366 0.53573 -0.84448 
-0.0146453 0.403646 -0.914946 
-0.0201558 0.299853 -0.953916 
-0.0257119 0.223523 -0.974496 
-0.0309556 0.164748 -0.985958 
-0.0346869 0.120449 -0.992269 
-0.0379685 0.0888558 -0.995446 
-0.0403145 0.0672996 -0.997046 
-0.0423308 0.0505759 -0.997944 
-0.0439598 0.0386759 -0.998388 
-0.0448046 0.0296362 -0.998679 
-0.0453563 0.0227735 -0.998854 
-0.0461101 0.0176272 -0.998904 
-0.0467195 0.0135179 -0.99894 
-0.0471181 0.0103065 -0.998938 
-0.0470996 0.0077347 -0.999002 
-0.047441 0.0057686 -0.998979 
-0.0476966 0.00425488 -0.998973 
-0.0478911 0.00302734 -0.998948 
-0.0477265 0.00201921 -0.998999 
-0.0481145 0.00113153 -0.998941 
-0.0481933 0.000308887 -0.998959 
-0.0481673 -0.000511549 -0.99896 
-0.0480543 -0.00138864 -0.998965 
-0.047535 -0.00242973 -0.999008 
-0.047623 -0.00391758 -0.998982 
-0.046787 -0.00587871 -0.999012 
-0.0457048 -0.00898767 -0.999041 
-0.0442399 -0.0137958 -0.999056 
-0.0425918 -0.0199084 -0.999027 
-0.041027 -0.0285146 -0.998886 
-0.0391999 -0.03775 -0.998631 
-0.0371302 -0.0469056 -0.998346 
-0.0344328 -0.0538909 -0.998111 
-0.0320637 -0.0520291 -0.998263 
-0.021053 -0.0515711 -0.998562 
0.017164 -0.0515209 0.998635 
0.027087 -0.0507545 0.998475 
0.0291334 -0.0540124 0.99825 
0.0319641 -0.0475452 0.998495 
0.0343074 -0.0393883 0.998771 
0.0372473 -0.0296843 0.999001 
0.0390543 -0.0207965 0.999154 
0.0408039 -0.0136778 0.999226 
0.0429418 -0.00904676 0.999144 
0.0432195 -0.00600943 0.999174 
0.0436046 -0.00381497 0.999171 
0.0446236 -0.00224897 0.999122 
0.0446825 -0.00109685 0.999125 
0.0447229 -0.000236287 0.999121 
0.0443188 0.000524222 0.999119 
0.0444944 0.00121922 0.99913 
0.0448475 0.00197054 0.999133 
0.0445811 0.00294175 0.999123 
0.044486 0.00408846 0.999124 
0.0442609 0.00553786 0.999128 
0.0439051 0.0074028 0.999132 
0.0434686 0.00981161 0.99913 
0.0429543 0.0129944 0.999095 
0.0433147 0.0169382 0.999061 
0.0421783 0.022299 0.998962 
0.041536 0.0290124 0.998837 
0.0411569 0.0377972 0.99858 
0.0393494 0.0500387 0.998074 
0.0371954 0.0663415 0.99723 
0.0334552 0.0911804 0.995428 
0.0289084 0.124016 0.992004 
0.0243146 0.171328 0.98507 
0.0204691 0.232691 0.972485 
0.0146752 0.318087 0.948106 
0.00869787 0.434588 0.900748 
0.00358832 0.5682 0.823035 
0.000458935 0.714499 0.699755 
-0.000975227 0.859867 0.510524 
-0.00227875 0.967825 0.251521 
-0.00155009 0.99985 -0.0123717 
-0.0020559 0.967243 -0.25367 
-0.0027379 0.856796 -0.515682 
-0.00446997 0.707151 -0.707175 
-0.00760869 0.55551 -0.831635 
-0.0119467 0.42149 -0.90688 
-0.0164921 0.312016 -0.950133 
-0.0217271 0.229919 -0.973117 
-0.0274093 0.169665 -0.985261 
-0.0308812 0.125308 -0.991749 
-0.0342208 0.0923196 -0.995302 
-0.0363631 0.0692983 -0.997039 
-0.0384659 0.0516906 -0.998052 
-0.0403354 0.0388171 -0.998576 
-0.0413774 0.0297526 -0.998823 
-0.0421477 0.0229313 -0.99895 
-0.0429741 0.0175631 -0.999045 
-0.04338 0.0134036 -0.999092 
-0.0438037 0.0101474 -0.999133 
-0.0439726 0.00769781 -0.999106 
-0.0440664 0.00576414 -0.999135 
-0.0440233 0.00424499 -0.999144 
-0.0443764 0.00310605 -0.999152 
-0.0442385 0.00212615 -0.99912 
-0.0444909 0.00125825 -0.99915 
-0.0447564 0.000504001 -0.99912 
-0.0449523 -0.000318591 -0.999111 
-0.0448195 -0.00125489 -0.999117 
-0.0446706 -0.0025184 -0.999122 
-0.0439005 -0.00416674 -0.999152 
-0.044592 -0.00632947 -0.999111 
-0.0426259 -0.00971611 -0.999172 
-0.0402732 -0.0147186 -0.999211 
-0.0396813 -0.0213963 -0.999117 
-0.0366535 -0.0307535 -0.99899 
-0.0359805 -0.0394906 -0.998709 
-0.0321006 -0.0478792 -0.998475 
-0.0284399 -0.0543149 -0.998254 
-0.026901 -0.049964 -0.998521 
-0.0167066 -0.052668 -0.99858 
0.0125674 -0.0526594 0.998637 
0.0210443 -0.0507469 0.998642 
0.0234514 -0.0559638 0.998269 
0.0265395 -0.0490656 0.998603 
0.0290058 -0.0417666 0.998819 
0.0316652 -0.0318076 0.99915 
0.0337671 -0.0224426 0.99931 
0.0355126 -0.0151659 0.999363 
0.0367936 -0.00982009 0.999425 
0.0371565 -0.00628638 0.999417 
0.0373986 -0.0037781 0.999419 
0.0383395 -0.00200944 0.999388 
0.0382549 -0.000719728 0.999392 
0.038258 0.000197678 0.99939 
0.0377014 0.000983686 0.99941 
0.0382157 0.00165463 0.999389 
0.0387783 0.00238809 0.999367 
0.0381661 0.00332027 0.999388 
0.0381078 0.00445099 0.999387 
0.03785 0.00592674 0.999389 
0.0375146 0.00786199 0.999388 
0.0370874 0.0104295 0.99938 
0.0366314 0.0139507 0.999353 
0.0372861 0.0181183 0.99926 
0.0358621 0.0240345 0.999187 
0.0354761 0.0315794 0.998991 
0.0350195 0.0409236 0.998669 
0.033046 0.0542824 0.998103 
0.0311905 0.0729976 0.996977 
0.0270667 0.0978409 0.994978 
0.0223737 0.13709 0.990464 
0.0178385 0.1882 0.98211 
0.0152476 0.247866 0.968873 
0.00993737 0.346901 0.938023 
0.00493852 0.465868 0.885022 
0.00140509 0.608048 0.794008 
-0.000291944 0.752692 0.658526 
0.000606664 0.873981 0.485971 
-0.000762928 0.946729 0.321937 
0.00105949 0.997893 0.0637409 
0.00105628 0.956837 -0.29044 
-0.000457455 0.859151 -0.511813 
-0.00244041 0.715296 -0.698908 
-0.00511826 0.551972 -0.834014 
-0.00885558 0.411197 -0.911725 
-0.0131609 0.305669 -0.95219 
-0.0176215 0.229405 -0.973339 
-0.0230251 0.167304 -0.985786 
-0.025203 0.123961 -0.992142 
-0.0290472 0.0911664 -0.99555 
-0.0308141 0.0665284 -0.997441 
-0.0331536 0.0492741 -0.99836 
-0.0347064 0.0373326 -0.998823 
-0.0354403 0.0283317 -0.999091 
-0.0360131 0.0215303 -0.99924 
-0.036928 0.0164103 -0.999305 
-0.0373141 0.0124386 -0.999349 
-0.0377409 0.00941333 -0.999366 
-0.0375772 0.00706327 -0.999392 
-0.0378216 0.00530505 -0.999393 
-0.037254 0.00401706 -0.99942 
-0.0383335 0.00297722 -0.999381 
-0.0380001 0.00209087 -0.999396 
-0.0381099 0.00138092 -0.999394 
-0.038275 0.000661873 -0.999388 
-0.0383364 -0.000139502 -0.999387 
-0.0383394 -0.00116028 -0.999386 
-0.0383125 -0.00253961 -0.999389 
-0.0376629 -0.00450048 -0.999381 
-0.0389515 -0.00688471 -0.999343 
-0.0367882 -0.0105201 -0.999396 
-0.0346021 -0.0161329 -0.999401 
-0.0345717 -0.023183 -0.999266 
-0.0314008 -0.0328014 -0.999103 
-0.0306565 -0.0415999 -0.998799 
-0.026795 -0.0499037 -0.998531 
-0.0228135 -0.0557105 -0.998319 
-0.0206449 -0.0502497 -0.998654 
-0.0121714 -0.0521896 -0.998673 
0.00803163 -0.0532176 0.998651 
0.0141582 -0.0491051 0.998807 
0.0171685 -0.057362 0.998338 
0.019735 -0.0533179 0.998518 
0.0218265 -0.0463918 0.99882 
0.0244529 -0.0370808 0.999147 
0.0264907 -0.027454 0.999405 
0.0277232 -0.0189898 0.999566 
0.0289863 -0.0126191 0.999629 
0.029388 -0.0082095 0.999662 
0.0292837 -0.00493672 0.999685 
0.029757 -0.00254546 0.999678 
0.0298143 -0.000968623 0.999679 
0.0297058 0.000132316 0.999681 
0.0295773 0.000908515 0.999683 
0.0293469 0.00160005 0.999689 
0.029866 0.00223166 0.999672 
0.029948 0.00296674 0.999669 
0.0294503 0.00392977 0.999681 
0.02939 0.00511297 0.999678 
0.0292533 0.00669692 0.999672 
0.0289089 0.00886833 0.999664 
0.0287095 0.0118592 0.999638 
0.0281786 0.015832 0.999596 
0.0289211 0.0204473 0.99949 
0.0276415 0.0273571 0.99936 
0.0269632 0.0357183 0.999116 
0.02658 0.046228 0.998699 
0.0252449 0.0620394 0.997883 
0.0222599 0.0815882 0.99656 
0.0188267 0.113677 0.993495 
0.0136884 0.160174 0.987166 
0.00995715 0.227259 0.973966 
0.00841875 0.295716 0.95539 
0.00461392 0.395141 0.918795 
0.00104824 0.537232 0.843616 
-0.000194075 0.661315 0.750251 
0.000571144 0.826304 0.563336 
0.00211158 0.995945 0.0898121 
0.000801457 0.998717 -0.0495279 
0.00010875 0.947299 -0.320241 
0.00171713 0.965979 -0.258497 
-2.26875e-05 0.823873 -0.566839 
-0.000335604 0.631263 -0.775773 
-0.00303285 0.46677 -0.884567 
-0.00651136 0.340513 -0.940413 
-0.0101419 0.245796 -0.969454 
-0.0159164 0.182073 -0.983322 
-0.0175445 0.136831 -0.990574 
-0.021223 0.099475 -0.994964 
-0.0234834 0.0735247 -0.997154 
-0.025374 0.0529372 -0.998405 
-0.0265598 0.0396376 -0.998985 
-0.0274603 0.0300679 -0.999291 
-0.0278312 0.0227535 -0.999473 
-0.0284638 0.0171621 -0.999567 
-0.0288147 0.0129819 -0.999622 
-0.0291848 0.00978231 -0.999648 
-0.0291914 0.00739462 -0.999669 
-0.0293742 0.00557826 -0.999675 
-0.0286531 0.00428611 -0.999702 
-0.0296466 0.00323644 -0.999677 
-0.0299533 0.00243682 -0.99967 
-0.0290987 0.00173845 -0.999696 
-0.0295609 0.00108498 -0.999684 
-0.0294368 0.000309049 -0.999689 
-0.0295045 -0.00070978 -0.999688 
-0.0296497 -0.00221452 -0.999678 
-0.0288407 -0.00427746 -0.999724 
-0.0306977 -0.00733919 -0.999629 
-0.0292658 -0.0117154 -0.999631 
-0.0270164 -0.0177353 -0.999609 
-0.0276036 -0.0252191 -0.999433 
-0.0247302 -0.0353979 -0.999201 
-0.0245842 -0.0440904 -0.99886 
-0.0206476 -0.0521145 -0.998562 
-0.016776 -0.0575673 -0.998333 
-0.0151373 -0.0519929 -0.998662 
-0.00840588 -0.0523804 -0.998705 
0.00563165 -0.052157 0.998738 
0.0101273 -0.0534109 0.998671 
0.0130586 -0.0587706 0.998324 
0.0143986 -0.0532959 0.998607 
0.0165903 -0.0453534 0.998968 
0.0183098 -0.0355902 0.999332 
0.0198858 -0.0257455 0.999602 
0.0207992 -0.0174982 0.99976 
0.021218 -0.0116825 0.999834 
0.0216051 -0.00725444 0.999866 
0.0216001 -0.00389056 0.999883 
0.0212315 -0.0016807 0.999896 
0.0213501 -0.000209171 0.999894 
0.0210331 0.000741432 0.999899 
0.0212174 0.00140858 0.999894 
0.0206279 0.00201093 0.999906 
0.0207864 0.00261958 0.999901 
0.021069 0.00337339 0.999894 
0.0205339 0.0043401 0.999902 
0.0206375 0.005602 0.999893 
0.0205712 0.00737059 0.999883 
0.020467 0.00992354 0.999861 
0.0202504 0.0134192 0.999823 
0.0195515 0.0179202 0.999765 
0.0206587 0.0233423 0.99963 
0.0192706 0.0314401 0.999437 
0.0184421 0.0413103 0.999097 
0.0187549 0.0548738 0.998423 
0.015863 0.0725131 0.997404 
0.0139502 0.102009 0.994809 
0.00988757 0.144819 0.989617 
0.00617181 0.222159 0.975185 
0.00347831 0.323062 0.946606 
0.00080469 0.459045 0.888597 
0.000155936 0.615497 0.78834 
-0.000342554 0.776843 0.629762 
0.00291965 0.907221 0.420694 
0.00152969 0.952565 0.304348 
-0.000314788 0.94235 0.33453 
0.00297404 0.99256 0.121439 
0.000135689 0.995349 -0.0953977 
-0.00160754 0.963917 -0.265996 
0.000986911 0.80687 -0.590847 
0.00158657 0.679282 -0.733982 
0.00138766 0.508891 -0.861016 
-0.000925499 0.374776 -0.927309 
-0.00416934 0.270135 -0.963007 
-0.00899831 0.18567 -0.98278 
-0.0114317 0.131511 -0.991413 
-0.0146814 0.0954601 -0.995473 
-0.0174757 0.0677681 -0.997688 
-0.0179772 0.0503173 -0.998696 
-0.0188987 0.0376738 -0.999233 
-0.0196332 0.0284736 -0.99952 
-0.0198861 0.0214878 -0.999688 
-0.0200435 0.0162742 -0.999785 
-0.020266 0.0122041 -0.99984 
-0.0204253 0.00915858 -0.999871 
-0.0208337 0.00680207 -0.999881 
-0.0204851 0.00523182 -0.999898 
-0.0206813 0.00400867 -0.9999 
-0.0208014 0.00315092 -0.9999 
-0.021388 0.00241951 -0.999889 
-0.020306 0.00182264 -0.999913 
-0.0209345 0.00119335 -0.9999 
-0.02059 0.000448384 -0.99991 
-0.02095 -0.000685313 -0.999903 
-0.0210146 -0.00233171 -0.999879 
-0.0203855 -0.0046886 -0.999905 
-0.0228542 -0.0076961 -0.999835 
-0.0214458 -0.0121812 -0.999824 
-0.0199712 -0.0189028 -0.999752 
-0.0204148 -0.0273331 -0.99955 
-0.0179684 -0.0379703 -0.99925 
-0.0180254 -0.0468878 -0.998871 
-0.0144946 -0.0544979 -0.998543 
-0.0114441 -0.0595169 -0.998292 
-0.0103114 -0.0530653 -0.998665 
-0.00526948 -0.0533951 -0.998673 
0.00352517 -0.0538298 0.998656 
0.0066613 -0.0538723 0.998657 
0.00861505 -0.0606875 0.99822 
0.00959587 -0.0560765 0.99854 
0.0112176 -0.0489615 0.998847 
0.0123216 -0.0391767 0.999288 
0.0135468 -0.0289259 0.99962 
0.014516 -0.0202196 0.999819 
0.0145415 -0.0134164 0.999931 
0.014879 -0.00838095 0.999979 
0.0152622 -0.00466664 0.999996 
0.0144429 -0.00191707 1.00002 
0.0143847 -0.000204742 1.00002 
0.0140809 0.00083091 1.00002 
0.0140847 0.00148952 1.00002 
0.0137351 0.00201266 1.00002 
0.0133052 0.00258104 1.00003 
0.0136326 0.00322299 1.00002 
0.0134551 0.00403745 1.00002 
0.0133832 0.00516478 1.00002 
0.0134762 0.00674249 1.00001 
0.0135988 0.00908185 0.999985 
0.0135203 0.0124382 0.999948 
0.0129071 0.0168026 0.99989 
0.013191 0.0224775 0.999797 
0.013543 0.0295394 0.999564 
0.0120523 0.039352 0.999293 
0.0123646 0.0527341 0.99866 
0.0100996 0.0703662 0.997609 
0.00930725 0.0958719 0.995509 
0.00645495 0.135625 0.990877 
0.00399283 0.201909 0.979591 
0.00173858 0.307492 0.951745 
0.000401284 0.430928 0.90258 
0.000406973 0.692722 0.72137 
0.00370934 0.858172 0.513428 
0.00614713 0.978323 0.206757 
0.00856717 0.993437 0.11373 
0.00814051 0.993903 0.111675 
0.00715154 0.995225 0.0958297 
0.00404667 1.00003 0.00685538 
0.00108805 0.99751 -0.070102 
0.000208894 0.889198 -0.457777 
0.00046208 0.739221 -0.67361 
0.00282708 0.615275 -0.788477 
0.00255822 0.442354 -0.897022 
0.000237464 0.309805 -0.951037 
-0.00367513 0.211747 -0.977509 
-0.00618499 0.148551 -0.989061 
-0.00862059 0.101153 -0.994992 
-0.0111028 0.0738722 -0.997322 
-0.0116525 0.0545042 -0.998584 
-0.0122537 0.0407507 -0.999217 
-0.0128566 0.0308683 -0.999558 
-0.0132044 0.0235039 -0.999751 
-0.0131711 0.01774 -0.99987 
-0.0131987 0.0132372 -0.999942 
-0.0130959 0.00980674 -1 
-0.0137836 0.00733663 -0.999977 
-0.0131883 0.00553168 -1.00004 
-0.0140735 0.00435108 -0.999988 
-0.0134045 0.00341773 -1.00003 
-0.0139264 0.00270748 -1.00002 
-0.0135222 0.00215244 -1.00003 
-0.0137673 0.00159628 -1.00002 
-0.0136483 0.000946362 -1.00003 
-0.0140117 -0.000136859 -1.00002 
-0.0138859 -0.00182868 -1.00004 
-0.0140422 -0.00453005 -1.00002 
-0.0155848 -0.00839313 -0.99997 
-0.0150494 -0.0137937 -0.999919 
-0.0134902 -0.0207083 -0.999824 
-0.0144686 -0.0285569 -0.999618 
-0.0122768 -0.0386856 -0.999308 
-0.0124814 -0.0481769 -0.998894 
-0.00990426 -0.0561007 -0.998509 
-0.00773584 -0.0611588 -0.998227 
-0.00657968 -0.0535167 -0.998671 
-0.0033184 -0.0529252 -0.998706 
0.00222425 -0.053395 0.998684 
0.00425397 -0.0546994 0.998594 
0.00556628 -0.061643 0.998238 
0.00646869 -0.0578572 0.998412 