# vtk DataFile Version 3.0 
Exported using Morpho https://github.com/Morpho-lang/morpho 
ASCII 
DATASET UNSTRUCTURED_GRID 

POINTS 1978 float 
-12 -3.99999 -4.66753e-09 
-11.5952 -3.99999 3.75844e-08 
-11.294 -3.99999 5.69811e-08 
-10.9495 -3.99999 4.30383e-08 
-10.6382 -4 2.96389e-08 
-10.2921 -3.99999 1.97145e-08 
-9.96959 -3.99999 1.22595e-08 
-9.65816 -3.99999 7.362e-09 
-9.31977 -3.99999 4.0869e-09 
-8.99961 -3.99999 3.16024e-09 
-8.68184 -3.99999 2.5835e-09 
-8.36265 -3.99999 1.84874e-09 
-8.05459 -3.99999 1.60925e-09 
-7.76163 -4 1.02417e-09 
-7.48267 -3.99999 2.45434e-10 
-7.19169 -3.99999 -8.9834e-10 
-6.89326 -4 -2.15111e-09 
-6.59542 -4 -2.82235e-09 
-6.29616 -3.99999 -4.31604e-09 
-5.9885 -3.99999 -5.92523e-09 
-5.68449 -3.99999 -8.0114e-09 
-5.3801 -3.99999 -1.08511e-08 
-5.07805 -4 -1.37502e-08 
-4.78371 -3.99999 -1.86378e-08 
-4.44803 -3.99999 -2.30214e-08 
-4.15757 -4 -2.79595e-08 
-3.85699 -4 -3.61189e-08 
-3.53057 -4 -4.31289e-08 
-3.23521 -4 -5.11446e-08 
-2.93997 -4 -5.78313e-08 
-2.65189 -4 -6.07347e-08 
-2.3821 -4 -6.16304e-08 
-2.11928 -4 -6.67492e-08 
-1.82807 -4 -6.15226e-08 
-1.54491 -4 -5.45729e-08 
-1.24619 -4 -4.73028e-08 
-0.9496 -4 -8.66212e-08 
-0.632858 -3.99999 -8.55608e-08 
-0.354317 -3.99999 -2.39505e-07 
0.0270589 -3.99999 2.06114e-07 
0.343604 -3.99999 1.41166e-07 
0.632897 -3.99999 8.34932e-08 
0.935289 -4 8.06481e-08 
1.21534 -4 3.80062e-08 
1.48975 -4 4.24634e-08 
1.77025 -4 6.24087e-08 
2.05159 -4 7.51951e-08 
2.34003 -4 8.19831e-08 
2.6626 -4 7.45098e-08 
2.96169 -4 6.43338e-08 
3.28614 -4 5.03656e-08 
3.57352 -4 4.05481e-08 
3.87353 -4 3.41995e-08 
4.18706 -3.99999 2.7845e-08 
4.4883 -4 2.1844e-08 
4.78642 -3.99999 1.77444e-08 
5.09933 -3.99999 1.41422e-08 
5.40605 -3.99999 1.08738e-08 
5.71796 -3.99999 8.06436e-09 
6.01071 -4 6.03726e-09 
6.30544 -4 4.22947e-09 
6.59926 -3.99999 3.09178e-09 
6.89875 -4 1.9833e-09 
7.17362 -4 5.87796e-10 
7.47545 -3.99999 -2.8313e-10 
7.77081 -3.99999 -7.7671e-10 
8.06759 -3.99999 -1.88304e-09 
8.35765 -4 -2.29058e-09 
8.6558 -3.99999 -3.05599e-09 
8.93142 -3.99999 -3.8643e-09 
9.27976 -3.99999 -4.79021e-09 
9.60867 -3.99999 -7.03965e-09 
9.8989 -3.99999 -1.37851e-08 
10.2697 -3.99999 -2.02941e-08 
10.5861 -3.99999 -3.23097e-08 
10.9783 -3.99999 -4.60613e-08 
11.2947 -3.99999 -5.60803e-08 
11.5877 -3.99999 -3.67424e-08 
12 -3.99999 4.35747e-09 
-12 -3.60557 2.76654e-08 
-11.7066 -3.71337 -4.87597e-08 
-11.3536 -3.62055 -2.97899e-08 
-11.0408 -3.67027 -3.26547e-08 
-10.708 -3.6386 -2.65117e-08 
-10.3941 -3.67676 -2.31966e-08 
-10.0587 -3.65883 -1.84823e-08 
-9.73733 -3.65211 -1.31034e-08 
-9.41018 -3.6819 -9.13147e-09 
-9.07294 -3.66448 -5.83865e-09 
-8.74987 -3.66301 -3.5713e-09 
-8.42945 -3.66774 -2.19988e-09 
-8.11163 -3.66272 -1.10659e-09 
-7.79942 -3.65263 -2.77185e-10 
-7.50193 -3.64273 3.17462e-10 
-7.20777 -3.65939 9.17316e-10 
-6.89901 -3.66396 1.72372e-09 
-6.59086 -3.66156 2.84966e-09 
-6.27748 -3.66925 4.21501e-09 
-5.96673 -3.66366 5.63641e-09 
-5.65741 -3.6613 7.4829e-09 
-5.35119 -3.65598 9.72041e-09 
-5.05586 -3.64533 1.2541e-08 
-4.72985 -3.68823 1.67185e-08 
-4.43806 -3.64504 2.06407e-08 
-4.13847 -3.66255 2.76849e-08 
-3.81828 -3.6952 3.64633e-08 
-3.51522 -3.67375 4.60766e-08 
-3.21529 -3.68106 5.90558e-08 
-2.91685 -3.68062 7.36158e-08 
-2.63912 -3.66149 8.56678e-08 
-2.36515 -3.65846 9.41869e-08 
-2.06856 -3.69957 1.06986e-07 
-1.77484 -3.6878 1.02496e-07 
-1.4823 -3.69233 7.50788e-08 
-1.18634 -3.67259 2.69892e-08 
-0.873038 -3.67221 -2.19088e-08 
-0.585477 -3.58422 -3.54858e-08 
-0.24981 -3.69883 -2.11443e-07 
0.0314329 -3.53505 -7.10583e-08 
0.309085 -3.61019 1.56026e-07 
0.606198 -3.60479 -3.32516e-10 
0.902829 -3.66387 2.37557e-08 
1.20948 -3.67267 -4.14367e-08 
1.50994 -3.67894 -7.25226e-08 
1.80264 -3.68457 -9.91954e-08 
2.0995 -3.69357 -1.0486e-07 
2.41864 -3.72357 -1.04399e-07 
2.71974 -3.69302 -8.10999e-08 
3.03117 -3.70642 -7.03814e-08 
3.32663 -3.6601 -5.27946e-08 
3.62206 -3.66767 -4.25201e-08 
3.92989 -3.67617 -3.30851e-08 
4.23055 -3.65845 -2.52698e-08 
4.52782 -3.65203 -1.96081e-08 
4.83841 -3.66779 -1.54277e-08 
5.14858 -3.66275 -1.18365e-08 
5.46274 -3.66929 -9.12105e-09 
5.76469 -3.65011 -6.87532e-09 
6.0638 -3.65578 -5.23986e-09 
6.36177 -3.65547 -3.78507e-09 
6.66591 -3.66333 -2.74669e-09 
6.94992 -3.63238 -1.73571e-09 
7.25046 -3.66472 -8.7195e-10 
7.55186 -3.65629 -1.91372e-10 
7.85456 -3.6575 6.45468e-10 
8.15264 -3.64924 1.52525e-09 
8.44776 -3.65678 2.56493e-09 
8.73413 -3.62363 3.8639e-09 
9.05379 -3.69949 6.21676e-09 
9.38644 -3.6752 8.98906e-09 
9.69043 -3.62561 1.29017e-08 
10.0244 -3.70401 1.8866e-08 
10.3517 -3.65012 2.20455e-08 
10.7167 -3.71533 2.8875e-08 
11.0476 -3.64291 3.04676e-08 
11.3508 -3.61102 3.00358e-08 
11.7069 -3.72039 4.87077e-08 
12 -3.60225 -2.81187e-08 
-12 -3.30168 2.26263e-08 
-11.628 -3.36267 -2.56417e-08 
-11.2827 -3.27389 -7.02521e-09 
-10.9717 -3.32359 -1.28501e-08 
-10.6564 -3.28652 -1.06719e-08 
-10.3405 -3.34105 -1.14991e-08 
-10.0186 -3.3176 -9.50952e-09 
-9.69965 -3.31177 -8.18125e-09 
-9.38692 -3.35762 -6.3461e-09 
-9.07002 -3.32962 -4.29549e-09 
-8.77276 -3.30671 -2.64856e-09 
-8.47408 -3.33239 -1.67006e-09 
-8.16398 -3.32793 -9.13735e-10 
-7.85717 -3.32145 -2.21398e-10 
-7.55227 -3.29715 1.37024e-10 
-7.25522 -3.31483 4.59425e-10 
-6.95407 -3.3377 9.92542e-10 
-6.64413 -3.33136 1.55906e-09 
-6.33441 -3.33969 2.12599e-09 
-6.02588 -3.33312 2.80339e-09 
-5.7158 -3.32763 3.75123e-09 
-5.40736 -3.31926 4.83257e-09 
-5.10326 -3.29592 5.96847e-09 
-4.80126 -3.36106 8.83613e-09 
-4.50105 -3.30577 1.04439e-08 
-4.20166 -3.32392 1.38694e-08 
-3.89791 -3.37587 2.01009e-08 
-3.59483 -3.36265 2.518e-08 
-3.28103 -3.36121 3.19383e-08 
-2.97803 -3.36863 4.13577e-08 
-2.67707 -3.32479 4.44778e-08 
-2.38621 -3.32397 4.85971e-08 
-2.09445 -3.39059 5.29242e-08 
-1.79011 -3.37958 4.54888e-08 
-1.47726 -3.36923 3.67628e-08 
-1.15296 -3.34842 -5.80149e-09 
-0.859136 -3.29283 -2.60443e-08 
-0.554281 -3.1615 -2.15981e-08 
-0.279705 -3.32266 -3.51023e-08 
0.0113984 -3.09021 -3.83177e-07 
0.310768 -3.1813 4.15297e-08 
0.59461 -3.17139 2.28315e-07 
0.880012 -3.28471 6.88914e-08 
1.17664 -3.33823 2.0468e-09 
1.48013 -3.36015 -3.74117e-08 
1.78519 -3.36173 -4.95926e-08 
2.077 -3.38306 -5.93265e-08 
2.37774 -3.43102 -6.30881e-08 
2.68233 -3.38531 -4.91349e-08 
2.983 -3.39543 -4.22958e-08 
3.27375 -3.33521 -2.96855e-08 
3.57477 -3.33377 -2.39927e-08 
3.87277 -3.34961 -1.94224e-08 
4.17376 -3.32584 -1.40296e-08 
4.4742 -3.31014 -1.04191e-08 
4.77541 -3.33299 -8.60718e-09 
5.08146 -3.33103 -6.7163e-09 
5.39296 -3.33928 -5.1463e-09 
5.70057 -3.3165 -3.62058e-09 
6.01036 -3.31329 -2.7287e-09 
6.30832 -3.31443 -2.07551e-09 
6.61043 -3.33038 -1.52972e-09 
6.90887 -3.2819 -8.9084e-10 
7.20629 -3.32465 -5.78399e-10 
7.50835 -3.32001 -1.50758e-10 
7.81357 -3.32249 3.17135e-10 
8.12018 -3.30928 8.47097e-10 
8.42289 -3.30493 1.49351e-09 
8.74627 -3.30309 2.54893e-09 
9.07069 -3.37886 4.50332e-09 
9.38265 -3.33107 6.37124e-09 
9.69351 -3.27861 7.92242e-09 
10.0041 -3.37376 1.12716e-08 
10.3064 -3.2974 1.06545e-08 
10.6303 -3.39774 1.53806e-08 
10.9611 -3.32157 1.29001e-08 
11.2906 -3.24748 5.39523e-09 
11.6262 -3.36895 2.69227e-08 
12 -3.29337 -2.49133e-08 
-12 -2.97812 1.98393e-08 
-11.6546 -3.04797 -1.74631e-08 
-11.31 -2.95607 3.62343e-09 
-10.9631 -2.96925 -1.25461e-09 
-10.6238 -2.96079 -1.73917e-09 
-10.2945 -3.00069 -3.81105e-09 
-9.96993 -2.98112 -4.99513e-09 
-9.64416 -2.98092 -4.97666e-09 
-9.3418 -3.01604 -4.02759e-09 
-9.04098 -2.97445 -2.65512e-09 
-8.73652 -2.96096 -1.68185e-09 
-8.43473 -2.99392 -1.1039e-09 
-8.13059 -2.98899 -6.72849e-10 
-7.83009 -2.98361 -2.71247e-10 
-7.52807 -2.95908 4.95752e-11 
-7.22814 -2.98342 3.31729e-10 
-6.92879 -3.01076 6.38868e-10 
-6.62003 -3.00491 8.02184e-10 
-6.31633 -3.0077 1.10744e-09 
-6.00905 -3.00265 1.53773e-09 
-5.70192 -2.99499 2.05026e-09 
-5.39602 -2.98379 2.70002e-09 
-5.09117 -2.96227 3.34829e-09 
-4.79349 -3.02504 4.83298e-09 
-4.48866 -2.97902 5.76995e-09 
-4.18966 -2.9945 7.9691e-09 
-3.89616 -3.05292 1.10813e-08 
-3.59735 -3.041 1.40364e-08 
-3.29821 -3.05372 1.9094e-08 
-2.9789 -3.04868 2.17577e-08 
-2.68679 -2.98552 2.38015e-08 
-2.37771 -2.9892 2.59066e-08 
-2.07564 -3.06811 2.54679e-08 
-1.76413 -3.05793 1.5582e-08 
-1.44024 -3.04755 -2.09504e-08 
-1.15184 -2.95832 -5.4963e-08 
-0.845729 -2.91183 1.21776e-07 
-0.575604 -2.7212 -2.66917e-07 
-0.249004 -2.86931 3.65211e-07 
0.0401135 -2.48577 4.50314e-08 
0.240838 -2.72524 2.07843e-07 
0.537238 -2.73241 -1.13542e-07 
0.855011 -2.86433 2.75392e-08 
1.15458 -2.95641 1.85503e-08 
1.45624 -3.01433 -2.60516e-08 
1.76089 -3.02989 -1.94679e-08 
2.07392 -3.04894 -2.48375e-08 
2.36867 -3.11838 -3.14001e-08 
2.66767 -3.05873 -2.70884e-08 
2.95953 -3.06982 -2.43365e-08 
3.26425 -3.01121 -1.73934e-08 
3.56834 -3.01034 -1.33092e-08 
3.87231 -3.01999 -1.08307e-08 
4.17006 -2.99507 -8.10284e-09 
4.4691 -2.97925 -5.86974e-09 
4.76816 -2.99852 -4.56653e-09 
5.06812 -2.99894 -3.53146e-09 
5.37216 -3.00979 -2.80644e-09 
5.67908 -2.98714 -2.04196e-09 
5.98654 -2.98831 -1.50733e-09 
6.29935 -2.97246 -1.13144e-09 
6.59536 -2.995 -8.25499e-10 
6.91696 -2.96764 -4.95922e-10 
7.23464 -2.9894 -2.42268e-10 
7.53551 -2.98569 3.08392e-11 
7.8386 -2.98986 3.097e-10 
8.13677 -2.97073 6.45577e-10 
8.44662 -2.98297 1.10349e-09 
8.74662 -2.96036 1.68372e-09 
9.04929 -3.04983 2.78574e-09 
9.35843 -2.99692 3.82812e-09 
9.66026 -2.93703 4.25426e-09 
9.98408 -3.02133 4.95914e-09 
10.3167 -2.9694 2.91547e-09 
10.6466 -3.0625 4.09159e-09 
10.9778 -2.98126 9.52169e-10 
11.3309 -2.92706 -4.64588e-09 
11.666 -3.04995 2.0532e-08 
12 -2.95202 -2.40959e-08 
-12 -2.66441 2.2148e-08 
-11.6452 -2.72185 -1.00527e-08 
-11.3042 -2.63047 6.0893e-09 
-10.9649 -2.64805 3.82002e-10 
-10.6321 -2.6343 -3.29177e-10 
-10.2997 -2.67009 -1.62373e-09 
-9.96681 -2.65846 -3.61825e-09 
-9.64107 -2.65711 -3.59708e-09 
-9.31668 -2.66854 -2.76653e-09 
-9.00026 -2.63767 -1.89923e-09 
-8.68625 -2.62846 -1.17969e-09 
[...]
POINT_DATA 1978 
VECTORS vectors float
0.00481256 -0.0120523 0.999914 
0.0108972 -0.0604898 0.998115 
0.00811904 -0.0600557 0.998166 
0.0081727 -0.0497099 0.998734 
0.00823567 -0.037755 0.999257 
0.00844021 -0.0248126 0.999661 
0.00817783 -0.0158221 0.999845 
0.00843343 -0.0100016 0.999918 
0.00870064 -0.00596062 0.999949 
0.00849988 -0.00383147 0.999961 
0.00849634 -0.00270135 0.999964 
0.00842607 -0.00192596 0.999966 
0.00806965 -0.00131488 0.999969 
0.00768951 -0.000695013 0.999972 
0.0076473 -3.02366e-05 0.999972 
0.00794114 0.000823915 0.99997 
0.00800482 0.00182384 0.999968 
0.00803906 0.00290428 0.999966 
0.008162 0.00417746 0.999961 
0.00818609 0.00585082 0.999952 
0.00813437 0.00799211 0.999938 
0.00801727 0.0107335 0.999913 
0.00792007 0.014072 0.999872 
0.00837211 0.0179734 0.999807 
0.00815334 0.023819 0.999686 
0.0077915 0.0299563 0.999523 
0.00809259 0.0381921 0.999241 
0.00788594 0.0509681 0.998672 
0.00733263 0.0668277 0.997739 
0.00688879 0.0890525 0.996004 
0.00622921 0.119138 0.992858 
0.00553223 0.157622 0.987484 
0.00509683 0.208278 0.978056 
0.00446638 0.282438 0.959275 
0.00348729 0.375692 0.926738 
0.00225624 0.500289 0.865856 
0.001013 0.646089 0.763262 
-0.000123378 0.810131 0.586249 
-0.000197318 0.933464 0.358671 
-4.68711e-05 0.999697 -0.0245961 
0.000420892 0.936564 -0.350496 
9.3392e-05 0.810562 -0.585653 
-0.00086949 0.652421 -0.757857 
-0.00200858 0.514402 -0.857547 
-0.00312901 0.395514 -0.918454 
-0.00422914 0.297534 -0.954702 
-0.00519584 0.222484 -0.974923 
-0.00635227 0.164889 -0.986292 
-0.00700015 0.118535 -0.992927 
-0.00750993 0.0875793 -0.996131 
-0.00750567 0.064126 -0.997915 
-0.00750203 0.0493118 -0.998757 
-0.00790518 0.0381846 -0.999242 
-0.00800738 0.0295023 -0.999535 
-0.00788342 0.0231081 -0.999704 
-0.00806493 0.0181336 -0.999806 
-0.00822567 0.0139155 -0.999872 
-0.00825708 0.0106299 -0.999913 
-0.00805026 0.00794026 -0.999939 
-0.00788196 0.00594022 -0.999953 
-0.00789718 0.00438104 -0.999961 
-0.00795193 0.00300546 -0.999966 
-0.00772109 0.00180394 -0.99997 
-0.0078034 0.000977943 -0.999971 
-0.00799305 2.6216e-05 -0.99997 
-0.0080039 -0.000868388 -0.99997 
-0.00791098 -0.00161921 -0.99997 
-0.00784542 -0.00239982 -0.999968 
-0.00769775 -0.00316402 -0.999967 
-0.00844153 -0.00397591 -0.99996 
-0.00887962 -0.00622754 -0.999947 
-0.00816292 -0.0100016 -0.99992 
-0.00846609 -0.0149674 -0.999856 
-0.00860942 -0.0247663 -0.999661 
-0.00890971 -0.0356797 -0.999329 
-0.00861772 -0.0511525 -0.998659 
-0.00771172 -0.060222 -0.998158 
-0.0108657 -0.060519 -0.998114 
-0.00499238 -0.0120652 -0.999913 
-0.00306886 -0.0107609 0.999939 
0.0241847 -0.0460999 0.998645 
0.0308482 -0.0544166 0.998043 
0.0306289 -0.0496677 0.998297 
0.0324527 -0.0392069 0.998705 
0.0323543 -0.0289717 0.999058 
0.0342771 -0.0194509 0.999224 
0.0356451 -0.0126225 0.999286 
0.0355859 -0.00784711 0.999337 
0.0369438 -0.00491055 0.999306 
0.0373577 -0.00321408 0.999298 
0.0376853 -0.00214815 0.999288 
0.0382137 -0.00137661 0.99927 
0.0389702 -0.000657776 0.999241 
0.0396913 0.000118642 0.999213 
0.0387535 0.000943214 0.999249 
0.0383107 0.00187996 0.999265 
0.0384328 0.00294381 0.999258 
0.0380952 0.00427227 0.999266 
0.0381938 0.00595099 0.999254 
0.0380574 0.00808675 0.999244 
0.0380861 0.0107716 0.999218 
0.0382555 0.0139932 0.999171 
0.0360654 0.0185253 0.999179 
0.037961 0.0236147 0.999001 
0.0366675 0.0303143 0.998869 
0.0345269 0.0398007 0.998612 
0.0345845 0.0522458 0.998036 
0.032688 0.0693255 0.99706 
0.0307015 0.0931714 0.995178 
0.0285806 0.124274 0.991837 
0.0252685 0.165867 0.985826 
0.0203604 0.225205 0.9741 
0.0161791 0.303882 0.952574 
0.0113757 0.405251 0.914136 
0.00657374 0.530778 0.847487 
0.00227879 0.685771 0.727815 
-0.000194829 0.832872 0.553466 
-0.000782751 0.964525 0.263987 
-0.00148037 0.99967 -0.0256165 
-0.000770438 0.951248 -0.308425 
-0.00159278 0.827666 -0.561219 
-0.00407084 0.673459 -0.739214 
-0.00830015 0.517545 -0.855617 
-0.0131791 0.389408 -0.920972 
-0.0177794 0.291024 -0.956552 
-0.0219622 0.215117 -0.976342 
-0.0251557 0.154754 -0.987634 
-0.0289187 0.113841 -0.993079 
-0.0308928 0.0835005 -0.99603 
-0.0339871 0.0625286 -0.997466 
-0.0349888 0.0477485 -0.998248 
-0.0355237 0.036478 -0.998704 
-0.0368828 0.0282388 -0.998922 
-0.0374922 0.0220091 -0.999056 
-0.0370701 0.0169785 -0.99917 
-0.0376792 0.0130207 -0.999206 
-0.0376521 0.00987018 -0.999243 
-0.0388224 0.00744559 -0.999219 
-0.0387945 0.00555861 -0.999233 
-0.0389175 0.00404291 -0.999235 
-0.0388123 0.002755 -0.999244 
-0.0402403 0.001756 -0.99919 
-0.0386982 0.000817203 -0.999252 
-0.0391243 -5.60267e-05 -0.999235 
-0.0391179 -0.000877363 -0.999235 
-0.0394598 -0.001676 -0.999221 
-0.0390379 -0.00257458 -0.999235 
-0.0398739 -0.00362911 -0.999199 
-0.0359373 -0.00520651 -0.999341 
-0.0360859 -0.00814631 -0.999317 
-0.037062 -0.0124926 -0.999236 
-0.0327839 -0.0189742 -0.999283 
-0.0332907 -0.0280061 -0.999055 
-0.0297626 -0.0398431 -0.998764 
-0.0315048 -0.0496337 -0.998272 
-0.0310631 -0.0541976 -0.998048 
-0.0239528 -0.046179 -0.998647 
0.00319443 -0.0110517 -0.999936 
-0.0031152 -0.0120985 0.999921 
0.0286961 -0.0471087 0.998479 
0.0330956 -0.0516827 0.998117 
0.035348 -0.0463992 0.998298 
0.0367594 -0.0378328 0.998609 
0.0388552 -0.0287878 0.998831 
0.0405841 -0.0202588 0.998972 
0.0423601 -0.0135002 0.999012 
0.0432462 -0.00858492 0.999029 
0.0445787 -0.00557545 0.998992 
0.0454615 -0.00372227 0.99896 
0.045666 -0.00235852 0.998955 
0.0458759 -0.00136382 0.998947 
0.0459082 -0.000568177 0.998947 
0.0459181 0.000214804 0.998946 
0.0459548 0.000969548 0.998944 
0.046148 0.00179345 0.998934 
0.0459929 0.00277876 0.998939 
0.0457759 0.00399687 0.998945 
0.0455714 0.00551928 0.998947 
0.0452746 0.00745457 0.998948 
0.0449407 0.00992342 0.998942 
0.0445864 0.013009 0.998922 
0.044318 0.0170937 0.998872 
0.0438923 0.0219499 0.998797 
0.043334 0.0285959 0.998653 
0.0424305 0.037446 0.998398 
0.040753 0.0490977 0.997964 
0.0386118 0.0663237 0.997052 
0.0357992 0.0897057 0.995326 
0.0316971 0.121915 0.992036 
0.027455 0.165417 0.985843 
0.0231739 0.224458 0.974209 
0.0175752 0.304285 0.95242 
0.0114704 0.410828 0.911642 
0.00550389 0.551201 0.834356 
0.00107059 0.698347 0.715759 
-0.00219269 0.851257 0.524745 
-0.00239234 0.956544 0.291576 
-0.00281071 0.999915 -0.01263 
-0.00275808 0.949229 -0.314573 
-0.00334748 0.835593 -0.549338 
-0.00505215 0.689337 -0.724425 
-0.00887008 0.537395 -0.843285 
-0.0138669 0.404799 -0.914302 
-0.0191847 0.300267 -0.953664 
-0.0244003 0.223982 -0.974289 
-0.0293615 0.164985 -0.98586 
-0.0330108 0.120592 -0.992155 
-0.0362319 0.0889847 -0.995375 
-0.038638 0.0672706 -0.996988 
-0.0405887 0.0505903 -0.997896 
-0.0421415 0.038651 -0.998365 
-0.0430301 0.0295688 -0.998637 
-0.0436057 0.0227067 -0.998792 
-0.0442674 0.017566 -0.998867 
-0.0448072 0.0134703 -0.998906 
-0.0452171 0.0102624 -0.998925 
-0.045264 0.00769662 -0.998947 
-0.0456198 0.00574086 -0.998944 
-0.0458509 0.00424172 -0.998941 
-0.0460488 0.00301849 -0.998936 
-0.0460061 0.00200972 -0.998941 
-0.0462824 0.00112892 -0.998929 
-0.0462989 0.00030687 -0.998929 
-0.0462884 -0.000514967 -0.998929 
-0.0462026 -0.00139532 -0.998932 
-0.0457609 -0.00244668 -0.998951 
-0.0456718 -0.00394482 -0.99895 
-0.044663 -0.00593951 -0.998986 
-0.0437784 -0.00910302 -0.999001 
-0.0424701 -0.0139082 -0.999002 
-0.0406875 -0.0199266 -0.998975 
-0.0392249 -0.0282317 -0.998833 
-0.0373644 -0.0372496 -0.998608 
-0.0354898 -0.0461328 -0.998306 
-0.0327576 -0.0516583 -0.998129 
-0.0287409 -0.046999 -0.998482 
0.00355766 -0.0128693 -0.999911 
-0.00223126 -0.0118933 0.999927 
0.0244448 -0.0451918 0.99868 
0.0283932 -0.0519341 0.998248 
0.031254 -0.0465882 0.998426 
0.0335427 -0.0385796 0.998694 
0.036282 -0.0292703 0.998914 
0.0380692 -0.0207501 0.999061 
0.0397765 -0.0137838 0.999115 
0.0417616 -0.00914343 0.999087 
0.0421058 -0.00607437 0.999096 
0.0425536 -0.00385857 0.999088 
0.0434271 -0.00227648 0.999055 
0.0435506 -0.00112525 0.999052 
0.0435586 -0.000253424 0.999052 
0.043177 0.000515409 0.999069 
0.0435141 0.00122015 0.999053 
0.0436575 0.00197245 0.999046 
0.0434995 0.00292977 0.99905 
0.0433741 0.00407206 0.999052 
0.0431389 0.00552059 0.999055 
0.042801 0.00738024 0.999058 
0.0423962 0.0097928 0.999054 
0.0419269 0.0129565 0.999038 
0.042159 0.0168918 0.99897 
0.0412008 0.0222553 0.998904 
0.0405006 0.0289983 0.99876 
0.0400168 0.0377485 0.998487 
0.0383597 0.0500926 0.998009 
0.0361361 0.0664667 0.997135 
0.0325493 0.0912983 0.995293 
0.0281575 0.124208 0.991858 
0.0235829 0.170888 0.98501 
0.0198073 0.232761 0.972334 
0.0142247 0.317965 0.947997 
0.00841273 0.434382 0.900691 
0.00371981 0.563779 0.825919 
0.000207808 0.716032 0.698068 
-0.000676822 0.851084 0.525029 
-0.00193924 0.967692 0.252126 
-0.00174135 0.999327 -0.0366013 
-0.00175908 0.969333 -0.245742 
-0.0033392 0.858074 -0.513516 
-0.00466915 0.704395 -0.709794 
-0.00736515 0.554368 -0.832241 
-0.0115568 0.421368 -0.906817 
-0.0160063 0.312152 -0.949899 
-0.0211608 0.22947 -0.973087 
-0.0266116 0.169675 -0.985142 
-0.0300088 0.125471 -0.991644 
-0.0332173 0.0926021 -0.995151 
-0.0354268 0.0693265 -0.996966 
-0.0375003 0.0516773 -0.997961 
-0.0392546 0.038777 -0.998478 
-0.0403111 0.0297058 -0.998747 
-0.0411125 0.022863 -0.998894 
-0.0418848 0.0174949 -0.998971 
-0.042304 0.0133533 -0.999017 
-0.042674 0.0101153 -0.999039 
-0.0428891 0.0076691 -0.999051 
-0.0429879 0.00574205 -0.99906 
-0.0429088 0.00422823 -0.999071 
-0.0432375 0.00309341 -0.999061 
-0.0432029 0.00211441 -0.999065 
-0.0433909 0.00124545 -0.999059 
-0.0436345 0.000486093 -0.999049 
-0.0438322 -0.00033718 -0.99904 
-0.0436241 -0.00127341 -0.999048 
-0.0435261 -0.00253935 -0.99905 
-0.042859 -0.0042011 -0.999074 
-0.0433437 -0.00636929 -0.999041 
-0.0415533 -0.00979588 -0.99909 
-0.0393367 -0.0147391 -0.999119 
-0.0386468 -0.0212857 -0.999028 
-0.0358784 -0.0303053 -0.998898 
-0.0349848 -0.0387866 -0.998636 
-0.0314505 -0.0469408 -0.998404 
-0.027737 -0.0520246 -0.998262 
-0.02413 -0.0443676 -0.998725 
0.00298516 -0.012668 -0.999917 
-0.00256287 -0.0140866 0.999901 
0.0194013 -0.0456073 0.998772 
0.0229409 -0.0535535 0.998303 
0.0259418 -0.0480652 0.998509 
0.0283341 -0.0408593 0.998764 
0.0309432 -0.0312711 0.999033 
0.0329341 -0.0223474 0.999209 
0.0346543 -0.0151996 0.999285 
0.0358918 -0.009864 0.999309 
0.0362482 -0.00632844 0.999324 
0.0365312 -0.00380742 0.999327 
0.0374627 -0.00203982 0.999297 
0.0373762 -0.000758746 0.999302 
0.0373593 0.000169556 0.999303 
0.0368831 0.000956058 0.99932 
0.0373526 0.00163402 0.999302 
0.0378453 0.00237286 0.999282 
0.0373231 0.00330184 0.999299 
0.0372402 0.0044362 0.999298 
0.0369833 0.00590666 0.9993 
0.0366671 0.00784582 0.999298 
0.0362139 0.0104087 0.999291 
0.0358308 0.0139243 0.999262 
0.0363972 0.0180849 0.999175 
0.0350502 0.0239869 0.999099 
0.0345743 0.0315007 0.998907 
0.0341966 0.0409141 0.998579 
0.0322369 0.0541364 0.998014 
0.0303285 0.0730751 0.996867 
0.0263209 0.0978488 0.994855 
0.0217091 0.137525 0.990262 
0.0172796 0.188811 0.981863 
0.0147757 0.247679 0.968731 
0.00963283 0.347483 0.937638 
0.00496472 0.463335 0.886171 
0.0016959 0.614653 0.788797 
0.000430855 0.758565 0.651599 
-0.000294455 0.881626 0.471948 
-0.000317899 0.946489 0.322736 
0.000639602 0.996823 0.0796312 
0.00152531 0.959561 -0.281495 
-1.48533e-05 0.867005 -0.4983 
-0.00266954 0.716843 -0.69723 
-0.00510017 0.551261 -0.834319 
-0.00858888 0.412919 -0.91073 
-0.0127149 0.305542 -0.952095 
-0.0171071 0.229241 -0.973221 
-0.022348 0.167149 -0.98568 
-0.0244436 0.124245 -0.991952 
-0.0282632 0.0911967 -0.995433 
-0.030072 0.0665028 -0.997334 
-0.0323356 0.0492698 -0.998263 
-0.0338421 0.0372939 -0.998732 
-0.0346122 0.0282764 -0.999002 
-0.0351982 0.0214822 -0.999151 
-0.0360542 0.0163866 -0.999217 
-0.0364489 0.0124216 -0.99926 
-0.0368739 0.00940175 -0.999277 
-0.0367067 0.00705588 -0.999302 
-0.0369728 0.00530066 -0.999303 
-0.0364074 0.00400364 -0.99933 
-0.0374778 0.00296102 -0.999294 
-0.0371489 0.00207874 -0.999309 
-0.0372352 0.00136296 -0.999307 
-0.0374185 0.000636559 -0.999301 
-0.0374797 -0.000164905 -0.999299 
-0.0374323 -0.00120096 -0.9993 
-0.037439 -0.00259062 -0.999297 
-0.0367251 -0.00453943 -0.999316 
-0.03802 -0.0069532 -0.999254 
-0.0358674 -0.010589 -0.999302 
-0.0337428 -0.0161948 -0.999301 
-0.0336978 -0.0230647 -0.999167 
-0.0306605 -0.0322621 -0.99901 
-0.0299756 -0.0406929 -0.998723 
-0.0261922 -0.0487927 -0.998467 
-0.0221892 -0.0532912 -0.998334 
-0.0188683 -0.0446949 -0.998823 
0.00197142 -0.0124956 -0.999921 
-0.00195315 -0.0143876 0.999899 
0.012667 -0.0422211 0.999029 
0.0167303 -0.0544164 0.998379 
0.0194017 -0.0519381 0.998463 
0.0214666 -0.0453413 0.998742 
0.0240012 -0.0363086 0.999054 
0.0259546 -0.0271455 0.999296 
0.0272053 -0.0189374 0.999452 
0.0284528 -0.0126328 0.999517 
0.0288452 -0.00824981 0.999551 
0.0287815 -0.0049706 0.999575 
0.029259 -0.00259087 0.99957 
0.0293549 -0.00102667 0.99957 
0.0292488 8.57615e-05 0.999573 
0.0291352 0.000877291 0.999576 
0.0289066 0.00157253 0.999582 
0.0293916 0.00221311 0.999567 
0.0294668 0.00294957 0.999563 
0.029014 0.00391018 0.999573 
0.0289264 0.00509807 0.99957 
0.0287917 0.00669475 0.999564 
0.0284321 0.00886447 0.999558 
0.0282662 0.0118573 0.999531 
0.0277734 0.0158063 0.99949 
0.0283794 0.0204304 0.99939 
0.0271802 0.0272504 0.99926 
0.0266062 0.035694 0.99901 
0.0260456 0.046139 0.998597 
0.0248048 0.0620074 0.997769 
0.0217543 0.0817273 0.996419 
0.0184055 0.11403 0.993308 
0.0134315 0.160751 0.986905 
0.00976264 0.227431 0.973747 
0.00823871 0.296907 0.954872 
0.00417358 0.396612 0.917979 
0.00084625 0.535671 0.844428 
-0.00108493 0.663086 0.748544 
0.000591853 0.812934 0.582356 
0.00166007 0.997156 0.0753379 
0.00106187 0.99928 -0.0378962 
-0.0011217 0.941446 -0.337161 
0.00276885 0.969404 -0.245451 
-6.7111e-05 0.813494 -0.581574 
-0.000238396 0.633154 -0.774028 
-0.00284209 0.466916 -0.884299 
-0.00626721 0.342518 -0.939492 
-0.00983584 0.247196 -0.968917 
-0.015411 0.182633 -0.983062 
-0.0171469 0.137096 -0.990411 
-0.0207659 0.0995549 -0.994817 
-0.0230792 0.0734691 -0.997032 
-0.0248778 0.0529256 -0.99829 
-0.0260936 0.0396141 -0.998876 
-0.0269918 0.0300358 -0.999186 
-0.0274102 0.0227115 -0.999367 
-0.0279763 0.0171354 -0.999463 
-0.0283486 0.0129702 -0.999515 
-0.0287147 0.00977935 -0.999541 
-0.0287366 0.00739456 -0.999561 
-0.0289017 0.00556634 -0.999568 
-0.0282421 0.00426929 -0.999593 
-0.029203 0.00321639 -0.99957 
-0.0294811 0.00241577 -0.999564 
-0.0286828 0.0017107 -0.999588 
-0.0291497 0.00104454 -0.999576 
-0.0289647 0.000258865 -0.999582 
-0.0291122 -0.000769279 -0.999577 
-0.0291286 -0.00226541 -0.999574 
-0.0283865 -0.00431166 -0.999589 
-0.0301394 -0.00733524 -0.99952 
-0.0287334 -0.0117249 -0.99952 
-0.0265609 -0.0176688 -0.999492 
-0.0270667 -0.0250068 -0.999322 
-0.0242568 -0.0347513 -0.999103 
-0.0240813 -0.0430963 -0.998782 
-0.0202978 -0.0509011 -0.998499 
-0.016478 -0.0550857 -0.998347 
-0.0140707 -0.0464653 -0.998822 
0.00116565 -0.0122776 -0.999925 
-0.000686108 -0.0122552 0.999926 
0.00958936 -0.0480009 0.998802 
0.0128731 -0.0563075 0.998332 
0.0143138 -0.0520956 0.998541 
0.0164471 -0.044299 0.998884 
0.0181033 -0.0350007 0.999225 
0.0196795 -0.0255769 0.99948 
0.0205921 -0.0174991 0.999636 
0.0210098 -0.0117119 0.999712 
0.0213992 -0.00730091 0.999746 
0.0214269 -0.00394869 0.999764 
0.0210946 -0.00175656 0.999777 
0.0212297 -0.000281919 0.999776 
0.020942 0.000689309 0.999782 
0.0210794 0.00137526 0.999778 
0.0205683 0.0019887 0.999788 
0.0206775 0.00259956 0.999784 
0.0209648 0.00335124 0.999776 
0.0204369 0.00432213 0.999783 
0.0205358 0.00559941 0.999775 
0.0204345 0.00738012 0.999765 
0.0203618 0.0099425 0.999744 
0.0201257 0.0134187 0.999709 
0.0194688 0.0178877 0.999652 
0.0203974 0.0233433 0.999521 
0.0192494 0.0314302 0.999322 
0.0183064 0.0412547 0.998982 
0.0185887 0.054912 0.998319 
0.0157132 0.0727136 0.997231 
0.0138146 0.102 0.99469 
0.00970148 0.146463 0.98917 
0.00608289 0.222006 0.975028 
0.00348736 0.319876 0.947455 
0.000689996 0.457925 0.888992 
0.000796107 0.61064 0.79191 
0.00135429 0.790654 0.612263 
0.00382786 0.917591 0.397506 
0.0031013 0.954944 0.29677 
0.000891205 0.940793 0.338981 
0.00613669 0.991597 0.129212 
0.00150908 0.991964 -0.126501 
-0.0051754 0.96898 -0.247082 
-6.97859e-05 0.824373 -0.566047 
0.00057129 0.679526 -0.733653 
0.000862089 0.510198 -0.860058 
-0.00131407 0.36858 -0.929597 
-0.00425015 0.267892 -0.963441 
-0.0088995 0.18527 -0.982649 
-0.0114079 0.131 -0.991318 
-0.0145232 0.0952308 -0.995351 
-0.0172761 0.0679411 -0.997541 
-0.0178415 0.0502014 -0.998581 
-0.0187378 0.0376609 -0.999116 
-0.0195038 0.0284576 -0.999406 
-0.019777 0.0214842 -0.999575 
-0.0199202 0.0162561 -0.999671 
-0.0201367 0.0122106 -0.999724 
-0.0203043 0.00917659 -0.999753 
-0.0207293 0.00682175 -0.999763 
-0.020357 0.00523205 -0.99978 
-0.0206041 0.00398564 -0.999781 
-0.0207182 0.00312747 -0.999782 
-0.0212398 0.00239743 -0.999773 
-0.0202398 0.00179441 -0.999795 
-0.0208713 0.00115322 -0.999783 
-0.0204676 0.00039562 -0.999792 
-0.0208749 -0.000745238 -0.999783 
-0.0207858 -0.0023863 -0.999782 
-0.0203655 -0.00479533 -0.999782 
-0.0226378 -0.00779288 -0.999715 
-0.0211858 -0.0122176 -0.999702 
-0.0197725 -0.0188917 -0.999627 
-0.0202042 -0.0270872 -0.99943 
-0.0177888 -0.0372272 -0.99915 
-0.0178078 -0.0457666 -0.998795 
-0.0143873 -0.0531375 -0.998485 
-0.0113522 -0.0569051 -0.998316 
-0.00968216 -0.0473576 -0.998832 
0.000862494 -0.0123924 -0.999925 
-0.000540656 -0.012383 0.999926 
0.00625138 -0.0477732 0.99884 
0.00858925 -0.0579907 0.998281 
0.0095801 -0.0546666 0.99846 
0.011216 -0.0477835 0.998796 
0.012309 -0.0383818 0.999189 
0.013505 -0.0285972 0.999501 
0.0144475 -0.0201269 0.999694 
0.0144899 -0.0134226 0.999806 
0.0148255 -0.00843714 0.999856 
0.015218 -0.00472901 0.999874 
0.0144305 -0.00200743 0.999895 
0.0144079 -0.000293904 0.999897 
0.0141209 0.000768364 0.999901 
0.0141245 0.00144935 0.9999 
0.0138078 0.00199018 0.999904 
0.013367 0.00256227 0.999909 
0.0136819 0.00320375 0.999902 
0.0135066 0.00402099 0.999902 
0.0134429 0.00516582 0.999898 
0.0134949 0.00676106 0.999887 
0.0136479 0.00911348 0.999867 
0.013533 0.0124483 0.999832 
0.0129427 0.0167958 0.999776 
0.0132192 0.0224652 0.999662 
0.0135268 0.0295295 0.999473 
0.0120426 0.0393506 0.999154 
0.0123656 0.0526195 0.998539 
0.0101379 0.0700338 0.997494 
0.00927506 0.0958656 0.995352 
0.00658388 0.134274 0.990924 
0.00405349 0.201082 0.979568 
0.00197836 0.305602 0.952159 
0.000767131 0.424489 0.905435 
9.06331e-05 0.692015 0.721884 
0.00329525 0.838576 0.544774 
0.00350742 0.984408 0.175866 
0.00809925 0.993156 0.116515 
0.0070941 0.994234 0.106989 
0.00622155 0.997324 0.0728547 
0.00447559 0.999659 0.0257016 
0.00097655 0.998264 -0.0588939 
0.00279918 0.897181 -0.441653 
0.00276945 0.738083 -0.674705 
0.00287805 0.622975 -0.782239 
0.00262237 0.447787 -0.894138 
0.000245495 0.314169 -0.949369 
-0.0036555 0.21229 -0.977202 
-0.00621054 0.148786 -0.988852 
-0.00853596 0.101713 -0.994779 
-0.0110738 0.0740183 -0.997197 
-0.0116359 0.054649 -0.998439 
-0.0122565 0.0406725 -0.999099 
-0.012874 0.0307497 -0.999445 
-0.0132032 0.0234238 -0.99964 
-0.0131916 0.0177146 -0.999757 
-0.0132233 0.0132408 -0.999826 
-0.0131336 0.00982194 -0.999867 
-0.0138247 0.007356 -0.999878 
-0.0132537 0.00554312 -0.999898 
-0.0141178 0.00432655 -0.999892 
-0.013426 0.00338018 -0.999906 
-0.0139955 0.00269491 -0.999899 
-0.0135815 0.00212952 -0.999907 
-0.0138342 0.00154818 -0.999904 
-0.0136871 0.000876385 -0.999907 
-0.0140303 -0.000236825 -0.999903 
-0.0139731 -0.0019481 -0.999902 
-0.0139291 -0.00456043 -0.999894 
-0.0154953 -0.00838602 -0.999846 
-0.0150131 -0.0137897 -0.999793 
-0.0134502 -0.0206251 -0.999698 
-0.014408 -0.0282931 -0.999497 
-0.0122619 -0.0379672 -0.999205 
-0.0124442 -0.0470018 -0.998819 
-0.00990974 -0.0547035 -0.998455 
-0.00772872 -0.0585058 -0.998258 
-0.00622646 -0.0475453 -0.998851 
0.000455286 -0.0119523 -0.999929 