# vtk DataFile Version 3.0 
Exported using Morpho https://github.com/Morpho-lang/morpho 
ASCII 
DATASET UNSTRUCTURED_GRID 

POINTS 1978 float 
-8.48543 -2.8285 -1.58716e-07 
-8.26845 -2.82836 -5.26762e-06 
-8.04342 -2.8282 -5.68467e-06 
-7.76239 -2.82849 -2.46823e-06 
-7.48818 -2.82821 -3.27425e-06 
-7.21754 -2.82841 -1.95111e-06 
-7.01204 -2.82838 -1.4027e-06 
-6.77537 -2.82833 -1.73135e-06 
-6.56037 -2.82843 -3.92901e-07 
-6.34309 -2.82835 -7.03941e-07 
-6.14243 -2.82836 -8.35327e-07 
-5.92169 -2.82838 -8.82729e-07 
-5.70973 -2.82832 -4.70747e-07 
-5.509 -2.82837 -7.69591e-07 
-5.29561 -2.82834 -5.65348e-07 
-5.08572 -2.82835 -8.15497e-07 
-4.87157 -2.82837 -5.11107e-07 
-4.66452 -2.82834 -2.36166e-07 
-4.44526 -2.82836 1.19387e-07 
-4.22536 -2.82834 -7.26549e-08 
-4.0056 -2.82834 -4.29109e-07 
-3.79387 -2.82833 1.46849e-07 
-3.57854 -2.82835 2.19158e-07 
-3.37024 -2.82835 1.00513e-06 
-3.15177 -2.8284 9.54557e-07 
-2.94416 -2.82837 1.31296e-06 
-2.73782 -2.82843 1.75665e-06 
-2.54391 -2.82849 2.73482e-06 
-2.32925 -2.82844 3.73957e-06 
-2.12284 -2.82857 4.457e-06 
-1.89842 -2.82845 5.23459e-06 
-1.70027 -2.8285 3.47196e-06 
-1.50445 -2.82846 3.54502e-07 
-1.29906 -2.82851 -4.0004e-06 
-1.11479 -2.82821 2.44315e-06 
-0.858839 -2.82827 7.47339e-06 
-0.644921 -2.82785 7.37934e-06 
-0.476052 -2.82769 2.24804e-05 
-0.262819 -2.82728 1.47159e-05 
0.0126187 -2.82697 -7.36572e-06 
0.272184 -2.82757 9.75401e-06 
0.446538 -2.82769 -3.64453e-05 
0.66911 -2.82789 -2.06258e-05 
0.892985 -2.82815 -6.56065e-06 
1.10721 -2.82827 3.07301e-07 
1.27854 -2.82854 2.75167e-06 
1.44551 -2.82849 -4.93728e-06 
1.70588 -2.82854 -6.66741e-07 
1.89537 -2.82857 -5.55325e-06 
2.1121 -2.82849 -5.69537e-06 
2.33826 -2.82845 -3.03537e-06 
2.5295 -2.8285 -2.93762e-06 
2.75271 -2.82838 -1.64593e-06 
2.96969 -2.82846 -1.34328e-06 
3.17708 -2.82836 -1.07202e-06 
3.38167 -2.82835 -8.39744e-07 
3.60549 -2.82837 -3.5849e-07 
3.80719 -2.82834 8.17154e-08 
4.0225 -2.82832 2.01131e-07 
4.25036 -2.82834 1.73933e-07 
4.45097 -2.82833 5.21384e-07 
4.66463 -2.82836 -2.3605e-07 
4.8721 -2.82833 5.66728e-07 
5.07727 -2.82838 4.94736e-07 
5.29016 -2.82836 5.7145e-07 
5.50145 -2.82836 5.56421e-07 
5.70392 -2.82836 5.99654e-07 
5.9216 -2.82836 6.44109e-07 
6.14324 -2.82835 5.40164e-07 
6.34298 -2.82839 1.26628e-06 
6.58174 -2.82836 4.27146e-07 
6.79577 -2.82838 1.58372e-06 
6.9967 -2.82838 1.63229e-06 
7.26043 -2.82833 1.58664e-06 
7.49246 -2.82839 2.46531e-06 
7.73454 -2.82834 1.53695e-06 
8.00634 -2.82832 4.68651e-06 
8.19292 -2.82835 5.10132e-06 
8.48537 -2.82847 5.63925e-07 
-8.48527 -2.59858 5.63635e-06 
-8.25933 -2.58584 -7.01191e-17 
-8.03209 -2.57802 -1.17091e-16 
-7.80308 -2.62855 -2.60018e-16 
-7.54462 -2.63294 -2.67204e-16 
-7.25526 -2.62941 -5.75793e-17 
-6.9918 -2.57465 -8.36236e-19 
-6.78412 -2.60797 -5.32382e-17 
-6.54297 -2.58872 -2.20382e-17 
-6.33014 -2.57342 -5.22118e-17 
-6.10614 -2.60071 -4.21525e-17 
-5.8888 -2.59199 -2.77317e-17 
-5.67998 -2.57809 -3.05314e-17 
-5.46315 -2.59372 -1.39797e-17 
-5.24911 -2.58993 -1.26751e-17 
-5.03278 -2.59416 -1.45454e-17 
-4.82145 -2.58537 -1.27479e-17 
-4.60158 -2.59775 -9.93342e-18 
-4.38002 -2.59655 -3.34376e-18 
-4.15922 -2.59462 7.10448e-19 
-3.94552 -2.58488 4.50927e-18 
-3.73169 -2.58917 9.43837e-18 
-3.5206 -2.58612 1.48818e-17 
-3.30474 -2.60142 2.49923e-17 
-3.09214 -2.59573 3.9778e-17 
-2.88288 -2.59988 7.49e-17 
-2.6832 -2.59107 8.61229e-17 
-2.47365 -2.61723 5.1563e-17 
-2.25849 -2.60515 5.0039e-17 
-2.04484 -2.6231 1.98255e-17 
-1.83121 -2.59022 3.23427e-17 
-1.62961 -2.58332 -4.05652e-18 
-1.4232 -2.58501 1.63883e-16 
-1.2391 -2.54512 1.50733e-16 
-1.00677 -2.62114 5.45983e-16 
-0.789078 -2.5619 -2.34813e-16 
-0.600719 -2.45323 1.87827e-15 
-0.412539 -2.50944 4.83416e-15 
-0.182277 -2.56309 1.48791e-15 
0.0129123 -2.43355 5.58784e-16 
0.201749 -2.55284 -3.11678e-15 
0.426374 -2.45401 -2.55842e-15 
0.607491 -2.55215 -1.40053e-15 
0.83804 -2.58781 -6.31244e-16 
1.06428 -2.58372 -8.57518e-16 
1.27133 -2.54148 2.22922e-16 
1.51029 -2.64911 -4.62447e-18 
1.72025 -2.59228 4.98706e-17 
1.93607 -2.61864 -1.8459e-17 
2.16728 -2.62825 -6.81511e-17 
2.36864 -2.58708 -7.01976e-17 
2.58104 -2.61568 -3.54908e-17 
2.80422 -2.60942 -4.64988e-17 
3.01139 -2.59642 -5.81684e-17 
3.21638 -2.58595 -3.56363e-17 
3.43778 -2.60596 -1.60193e-17 
3.64328 -2.57858 -1.29337e-17 
3.8575 -2.59207 -7.84663e-18 
4.08588 -2.60516 4.36769e-18 
4.29525 -2.57513 2.06032e-18 
4.51124 -2.59265 7.12562e-18 
4.72476 -2.58684 1.27588e-17 
4.93795 -2.58688 1.23709e-17 
5.15235 -2.59644 1.45586e-17 
5.37068 -2.59453 1.90306e-17 
5.58171 -2.58336 2.08338e-17 
5.79714 -2.59847 1.20382e-17 
6.02173 -2.5997 2.63258e-17 
6.23551 -2.57228 3.88197e-17 
6.45608 -2.61059 1.8029e-17 
6.68472 -2.58287 6.04055e-17 
6.89473 -2.56342 6.53937e-17 
7.12218 -2.62569 4.66886e-18 
7.37344 -2.59688 7.85337e-17 
7.61221 -2.60582 1.31111e-16 
7.8685 -2.62929 1.73096e-16 
8.07916 -2.53566 1.17685e-16 
8.30272 -2.63861 -4.30941e-17 
8.48523 -2.52766 -6.07122e-06 
-8.48503 -2.36173 5.46035e-06 
-8.23906 -2.3521 -1.17345e-16 
-7.99202 -2.34283 -3.7609e-17 
-7.75781 -2.40943 -1.53012e-16 
-7.56567 -2.25855 -2.32059e-16 
-7.45635 -2.45599 -8.6635e-17 
-7.18268 -2.41098 -1.2488e-16 
-6.94588 -2.32602 -4.92409e-17 
-6.71756 -2.38986 -4.2469e-17 
-6.48592 -2.34749 -2.83825e-17 
-6.23677 -2.35846 -3.93505e-17 
-6.02193 -2.36371 -1.85594e-17 
-5.80612 -2.34543 -1.92922e-17 
-5.57728 -2.3528 -7.70351e-18 
-5.36208 -2.35721 -3.54786e-18 
-5.14006 -2.36097 -5.06334e-18 
-4.92649 -2.35001 -7.35903e-18 
-4.70379 -2.36212 -1.2697e-17 
-4.48378 -2.36745 -1.09474e-17 
-4.26179 -2.36412 -5.64703e-18 
-4.04622 -2.34876 -5.69196e-18 
-3.82969 -2.34815 -1.217e-17 
-3.61777 -2.34832 -1.53853e-17 
-3.39992 -2.36377 -5.00712e-18 
-3.18974 -2.36836 4.23683e-18 
-2.97575 -2.37063 3.63986e-18 
-2.77167 -2.3586 -1.41701e-17 
-2.56155 -2.38131 2.76027e-17 
-2.3573 -2.39701 6.37637e-17 
-2.12973 -2.39176 9.61831e-17 
-1.92649 -2.3886 5.97014e-17 
-1.69595 -2.34482 3.95397e-17 
-1.4823 -2.34685 1.34035e-16 
-1.28156 -2.26733 -1.95752e-16 
-1.06873 -2.38035 -1.20562e-16 
-0.859842 -2.29741 1.9257e-15 
-0.633627 -2.18646 3.41578e-16 
-0.387856 -2.15622 -4.98298e-15 
-0.209308 -2.23431 5.09089e-15 
0.0261237 -2.10705 -4.43639e-15 
0.247485 -2.20918 -1.06831e-15 
0.455786 -2.12244 -1.64691e-15 
0.655559 -2.21735 -6.44226e-16 
0.828631 -2.3336 4.86076e-16 
1.05018 -2.33193 -6.41381e-16 
1.26963 -2.30359 -9.68331e-16 
1.48136 -2.43083 -8.35861e-17 
1.66907 -2.35444 -1.35516e-16 
1.88154 -2.39105 -8.0405e-17 
2.093 -2.42401 -2.13346e-17 
2.30452 -2.36773 -2.81194e-17 
2.52742 -2.3824 -5.99282e-17 
2.7349 -2.4013 -3.60027e-17 
2.95528 -2.36253 -1.04372e-17 
3.15456 -2.34893 9.89673e-18 
3.37179 -2.37515 1.03725e-17 
3.57721 -2.34111 1.30157e-17 
3.78967 -2.35012 6.98971e-18 
4.00672 -2.37654 4.68095e-18 
4.21687 -2.341 6.55483e-18 
4.43887 -2.35147 1.09553e-17 
4.64992 -2.34929 1.17189e-17 
4.86433 -2.35151 8.49153e-18 
5.08145 -2.35742 5.5176e-18 
5.29378 -2.36651 5.58592e-18 
5.50968 -2.34935 6.8913e-18 
5.72847 -2.35932 1.39192e-17 
5.94459 -2.37267 1.98554e-17 
6.16103 -2.34215 2.14659e-17 
6.39393 -2.36317 3.38232e-17 
6.60511 -2.36268 3.54184e-17 
6.83045 -2.3159 1.89586e-17 
7.06223 -2.37347 7.36004e-17 
7.281 -2.39508 1.29775e-16 
7.54192 -2.3754 2.54312e-16 
7.78568 -2.4093 2.15825e-16 
7.99829 -2.31281 3.82582e-17 
8.25981 -2.36925 1.28727e-16 
8.48519 -2.28515 -3.24032e-06 
-8.4853 -2.10457 2.59095e-06 
-8.26475 -2.1177 3.36416e-17 
-8.03616 -2.10582 2.0281e-16 
-7.7923 -2.15395 9.9363e-17 
-7.52003 -2.04076 8.60836e-17 
-7.31228 -2.22977 -2.11211e-17 
-7.07763 -2.13865 1.59302e-16 
-6.7957 -2.13333 1.26237e-16 
-6.59251 -2.13642 9.9927e-17 
-6.34477 -2.14455 8.48119e-17 
-6.11808 -2.11391 8.39442e-17 
-5.91444 -2.11561 5.57127e-17 
-5.68799 -2.12537 4.78616e-17 
-5.4679 -2.11587 4.53828e-17 
-5.25266 -2.13115 3.38345e-17 
-5.04008 -2.11779 2.24783e-17 
-4.81643 -2.12703 5.20577e-18 
-4.59755 -2.13435 -9.9717e-18 
-4.37918 -2.13585 -2.18224e-17 
-4.16574 -2.11938 -3.86256e-17 
-3.94865 -2.11218 -6.2713e-17 
-3.73597 -2.11015 -9.39955e-17 
-3.51923 -2.12509 -1.2261e-16 
-3.3097 -2.13101 -1.57677e-16 
-3.09906 -2.14256 -1.97343e-16 
-2.89341 -2.13169 -2.48328e-16 
-2.67718 -2.1396 -3.04218e-16 
-2.47152 -2.15476 -3.0982e-16 
-2.25878 -2.18579 -2.66663e-16 
-2.0394 -2.14757 -2.30669e-16 
-1.8259 -2.16204 -1.56269e-16 
-1.58144 -2.10511 9.84911e-17 
-1.3831 -2.04442 7.27289e-16 
-1.16629 -1.9102 -5.78907e-17 
-1.09271 -2.12139 9.24059e-16 
-0.850338 -2.04102 -1.56569e-15 
-0.599739 -1.91416 2.19172e-15 
-0.361659 -1.88387 3.86549e-15 
-0.10626 -1.87038 -2.63423e-15 
0.0543585 -1.64039 1.94858e-16 
0.221689 -1.87791 1.21562e-15 
0.3281 -1.60837 -9.7301e-17 
0.514735 -1.86803 -1.7815e-16 
0.767013 -1.94429 1.03176e-15 
0.955738 -2.07088 -1.02721e-15 
1.1835 -2.0715 2.38832e-17 
1.45492 -2.1764 -3.15095e-16 
1.6749 -2.12171 2.69468e-16 
1.89473 -2.16371 6.06935e-17 
2.11226 -2.19706 1.7225e-16 
2.35707 -2.15752 3.20898e-16 
2.57273 -2.15201 2.93874e-16 
2.7834 -2.17639 2.4964e-16 
2.98358 -2.11011 2.35043e-16 
3.20597 -2.1305 1.86465e-16 
3.40679 -2.12779 1.44578e-16 
3.62231 -2.10649 1.16716e-16 
3.84038 -2.12452 7.80383e-17 
4.04287 -2.12875 4.648e-17 
4.27113 -2.11509 2.9911e-17 
4.48219 -2.11094 1.52498e-17 
4.69807 -2.11366 3.28322e-18 
4.91565 -2.12197 -1.20979e-17 
5.12994 -2.1218 -2.7527e-17 
5.34187 -2.1314 -3.77095e-17 
5.5661 -2.12202 -4.59331e-17 
5.78324 -2.12818 -5.14961e-17 
5.99387 -2.13045 -6.11763e-17 
6.23462 -2.12712 -8.04087e-17 
6.446 -2.11369 -1.03467e-16 
6.65922 -2.11695 -1.1682e-16 
6.91839 -2.10733 -1.59076e-16 
7.1349 -2.13556 -1.53486e-16 
7.36698 -2.18191 -6.57267e-17 
7.55999 -2.08644 -8.59572e-17 
7.74196 -2.1777 1.43913e-17 
7.95623 -2.07974 -2.96762e-16 
8.20413 -2.14682 -9.81984e-17 
8.48521 -2.08841 -2.26922e-06 
-8.48511 -1.81193 2.31311e-06 
-8.29615 -1.87387 1.42948e-16 
-7.89264 -1.90798 2.9824e-16 
-7.67313 -1.89571 3.8271e-17 
[...]
POINT_DATA 1978 
VECTORS vectors float
0.0306827 -0.038429 0.998822 
0.0347325 -0.0397238 0.998643 
0.0363315 -0.0595684 0.997619 
0.0299674 -0.0664533 0.99737 
0.0300434 -0.0552692 0.998051 
0.0302974 -0.0417336 0.998717 
0.0300675 -0.0338328 0.999022 
0.0304732 -0.0276744 0.999193 
0.0320853 -0.0236518 0.999242 
0.0323913 -0.0186914 0.999352 
0.0326155 -0.0142748 0.999415 
0.0325596 -0.0116427 0.999446 
0.0330329 -0.0103128 0.999447 
0.0329622 -0.00809491 0.99947 
0.0330235 -0.00637536 0.99948 
0.0330447 -0.00513434 0.999488 
0.0329235 -0.0035338 0.999498 
0.0327715 -0.00159659 0.999509 
0.0323524 0.000605726 0.999522 
0.0321752 0.00273017 0.999524 
0.0321302 0.00560812 0.999514 
0.031697 0.00949755 0.999498 
0.0310909 0.0150301 0.99945 
0.0298865 0.0225686 0.999343 
0.0286352 0.0331927 0.999083 
0.0272592 0.0466307 0.998584 
0.0255059 0.0644319 0.997638 
0.0231158 0.0863055 0.996041 
0.0197241 0.117052 0.992968 
0.0159535 0.155185 0.987792 
0.0115309 0.208399 0.97801 
0.00648011 0.26778 0.963489 
0.000235908 0.342008 0.939726 
-0.00559174 0.433546 0.901141 
-0.00814472 0.524671 0.851287 
-0.015411 0.662169 0.749202 
-0.0207425 0.788509 0.614659 
-0.0178897 0.877569 0.479075 
-0.0100736 0.962471 0.271062 
0.00075229 0.999721 -0.0210178 
0.0111917 0.956184 -0.292447 
0.0158197 0.891071 -0.453534 
0.0163359 0.7769 -0.629405 
0.0150818 0.651823 -0.758233 
0.0110814 0.529799 -0.848071 
0.00637514 0.442319 -0.896848 
0.000840897 0.363938 -0.93145 
-0.00691497 0.266132 -0.963941 
-0.0115329 0.210129 -0.977638 
-0.0158353 0.157835 -0.987373 
-0.0198999 0.116514 -0.993029 
-0.0225478 0.0879893 -0.995907 
-0.0249838 0.0629988 -0.997742 
-0.0271482 0.0452462 -0.99865 
-0.0289474 0.031632 -0.999125 
-0.0299086 0.021548 -0.999365 
-0.0311908 0.0143072 -0.999456 
-0.0320998 0.00936312 -0.999488 
-0.0318566 0.00532964 -0.999523 
-0.0326815 0.00269083 -0.999509 
-0.033083 0.000281941 -0.999501 
-0.0330179 -0.00175342 -0.9995 
-0.033317 -0.00328874 -0.999488 
-0.0330984 -0.00522503 -0.999485 
-0.0330535 -0.00663325 -0.999477 
-0.0332428 -0.00799657 -0.999462 
-0.0330181 -0.00988121 -0.999452 
-0.0321122 -0.011694 -0.99946 
-0.0321148 -0.0148681 -0.99942 
-0.0317154 -0.018799 -0.999366 
-0.0309859 -0.02281 -0.999304 
-0.0313061 -0.0280108 -0.999166 
-0.0302739 -0.0347811 -0.998982 
-0.0289572 -0.0442201 -0.998644 
-0.0285462 -0.0547715 -0.998135 
-0.0278649 -0.066237 -0.997453 
-0.0360752 -0.0635814 -0.997367 
-0.0361167 -0.0459056 -0.998337 
-0.029934 -0.0347173 -0.998986 
0.0164218 -0.0438743 0.998928 
0.0212999 -0.0425901 0.998943 
0.0238846 -0.0519298 0.998446 
0.0240709 -0.0590985 0.998014 
0.0240071 -0.0565065 0.998172 
0.026545 -0.0450064 0.998699 
0.0280698 -0.0339599 0.999105 
0.0274843 -0.0277838 0.999304 
0.0281499 -0.0230836 0.999415 
0.0287103 -0.0186205 0.999491 
0.0290673 -0.014519 0.999539 
0.0303259 -0.0124352 0.99953 
0.0304661 -0.0102022 0.999555 
0.0306482 -0.00772732 0.999568 
0.0309574 -0.00596608 0.999573 
0.0306654 -0.00449226 0.999588 
0.0306291 -0.00288984 0.999597 
0.030704 -0.000904545 0.999597 
0.0307058 0.00134781 0.999596 
0.0302557 0.00404527 0.999604 
0.0297424 0.00758907 0.9996 
0.0290191 0.0123133 0.999573 
0.0281788 0.0188342 0.999496 
0.0268626 0.0277417 0.999321 
0.0250994 0.0396109 0.998969 
0.0226697 0.0549498 0.998299 
0.0203386 0.0742503 0.9971 
0.0178795 0.0996002 0.994932 
0.0144824 0.134207 0.990913 
0.0107748 0.178177 0.984004 
0.00625987 0.234878 0.972069 
0.00219334 0.300529 0.953832 
-0.00199242 0.383962 0.923405 
-0.00491045 0.473008 0.881092 
-0.00824123 0.589053 0.808083 
-0.00990638 0.709395 0.704732 
-0.00783284 0.810175 0.586084 
-0.00759377 0.901911 0.431666 
-0.00423558 0.981834 0.189146 
-0.0012693 0.999711 -0.0178903 
0.00356896 0.974516 -0.223857 
0.00390527 0.898212 -0.439376 
0.0076477 0.811661 -0.584027 
0.00813724 0.682807 -0.730557 
0.00668081 0.557572 -0.830126 
0.00315506 0.449157 -0.893517 
-0.000671279 0.340806 -0.940181 
-0.00427746 0.268935 -0.963221 
-0.0089475 0.205162 -0.97875 
-0.0128342 0.151971 -0.988365 
-0.0161259 0.116919 -0.993079 
-0.019558 0.0857412 -0.996191 
-0.0221379 0.06218 -0.997886 
-0.0240491 0.0453405 -0.998751 
-0.0260324 0.0321475 -0.999214 
-0.0274621 0.0215193 -0.999458 
-0.0288148 0.0148379 -0.999547 
-0.0298016 0.00929538 -0.999582 
-0.0301557 0.00518634 -0.999599 
-0.0304914 0.00242139 -0.999605 
-0.0304047 -0.00018918 -0.999607 
-0.0304827 -0.00213037 -0.999603 
-0.0305379 -0.00381988 -0.999597 
-0.0308164 -0.00548704 -0.999578 
-0.0308237 -0.00701952 -0.999568 
-0.0306887 -0.008851 -0.99956 
-0.0307094 -0.0109908 -0.999536 
-0.030002 -0.0135814 -0.999526 
-0.0294826 -0.017008 -0.999494 
-0.0292696 -0.0208731 -0.999421 
-0.0280135 -0.0257439 -0.999349 
-0.0275445 -0.0317747 -0.999192 
-0.0277795 -0.0395457 -0.998898 
-0.0263164 -0.0495439 -0.998498 
-0.0254615 -0.0585314 -0.99803 
-0.0253288 -0.0589947 -0.997991 
-0.0223407 -0.048005 -0.998691 
-0.0241652 -0.0421874 -0.998863 
-0.0141949 -0.0440477 -0.998965 
0.0188291 -0.0444787 0.998884 
0.0184752 -0.0415183 0.999054 
0.0228437 -0.0447626 0.998802 
0.0262622 -0.05697 0.998117 
0.031742 -0.057411 0.997903 
0.0274725 -0.0534869 0.998272 
0.0285238 -0.0421128 0.998783 
0.0338716 -0.0336078 0.998933 
0.0319322 -0.0265604 0.999212 
0.0348643 -0.0216929 0.999227 
0.03508 -0.0174194 0.999301 
0.0369514 -0.0144769 0.999281 
0.0381445 -0.0117907 0.99927 
0.0384788 -0.0090448 0.999286 
0.0387944 -0.00688057 0.999291 
0.0387624 -0.00507002 0.999303 
0.0392408 -0.00352668 0.99929 
0.038234 -0.00178439 0.999335 
0.0376895 0.000423229 0.999358 
0.0374432 0.00327614 0.999362 
0.0377273 0.00680537 0.999333 
0.0371208 0.0113402 0.999314 
0.036045 0.0173487 0.999267 
0.0336837 0.0257194 0.999169 
0.03165 0.0365967 0.998896 
0.0292411 0.0512072 0.998326 
0.0269167 0.0695582 0.99728 
0.0222417 0.0931052 0.995473 
0.0175865 0.122729 0.992351 
0.0125975 0.165251 0.986238 
0.00811531 0.214797 0.97669 
0.00357519 0.28536 0.958477 
-0.00110246 0.365731 0.930779 
-0.00500448 0.459402 0.888265 
-0.00680422 0.563628 0.826028 
-0.00895639 0.675997 0.736868 
-0.0103539 0.801786 0.597466 
-0.00859368 0.915264 0.402603 
-0.00556159 0.97021 0.241722 
-0.00115485 0.999812 -0.0116368 
0.00275596 0.967196 -0.253585 
0.00641233 0.887945 -0.459768 
0.00674346 0.788281 -0.615234 
0.00637866 0.692084 -0.721782 
0.00559423 0.570474 -0.821342 
0.00411086 0.45872 -0.88861 
0.000215099 0.361778 -0.93232 
-0.00258836 0.296154 -0.955199 
-0.00695859 0.22705 -0.973923 
-0.0117168 0.173269 -0.98486 
-0.0170169 0.132388 -0.991118 
-0.0209743 0.0976026 -0.995072 
-0.0243405 0.0728264 -0.997116 
-0.0288081 0.0531202 -0.998239 
-0.0319495 0.0388362 -0.998801 
-0.0331658 0.0267505 -0.99916 
-0.0360707 0.0187842 -0.999239 
-0.0368403 0.0123453 -0.999312 
-0.0365039 0.0074551 -0.999375 
-0.0386566 0.00405479 -0.999311 
-0.0387379 0.000969131 -0.999316 
-0.0392109 -0.00130306 -0.999297 
-0.0392245 -0.00311203 -0.999292 
-0.0390232 -0.00475014 -0.999294 
-0.038619 -0.006414 -0.9993 
-0.0392888 -0.00838994 -0.999258 
-0.0382191 -0.0107041 -0.999279 
-0.0367196 -0.0132304 -0.999306 
-0.0371188 -0.0163081 -0.999245 
-0.035 -0.0202044 -0.999253 
-0.0341518 -0.0244967 -0.999187 
-0.0353663 -0.0303614 -0.998983 
-0.0312104 -0.0377819 -0.998872 
-0.0290892 -0.0462876 -0.99858 
-0.0280334 -0.056163 -0.998112 
-0.0254989 -0.0564245 -0.998153 
-0.0232824 -0.0437517 -0.998846 
-0.0195613 -0.040457 -0.999066 
-0.0209144 -0.0455607 -0.99878 
0.0216631 -0.0407845 0.998969 
0.0210011 -0.0364968 0.999172 
0.0289867 -0.041399 0.998813 
0.035097 -0.054068 0.997995 
0.0417369 -0.0574314 0.997543 
0.0356622 -0.048459 0.998256 
0.0431383 -0.0392178 0.998377 
0.0453008 -0.0298519 0.998592 
0.0465552 -0.0246956 0.998674 
0.0475212 -0.0196914 0.998739 
0.0506687 -0.0163098 0.998645 
0.0512821 -0.0136252 0.998653 
0.0515752 -0.0107364 0.998673 
0.0528431 -0.00817294 0.998631 
0.0527126 -0.00604631 0.998652 
0.0534661 -0.00431618 0.998621 
0.0530057 -0.00257842 0.998652 
0.0523938 -0.000498607 0.998687 
0.0517619 0.00223356 0.998718 
0.0515625 0.0056373 0.998716 
0.0507831 0.00996856 0.998722 
0.0496686 0.0155553 0.998706 
0.0474076 0.0231297 0.99867 
0.0451984 0.0330124 0.998494 
0.0422041 0.0459288 0.998115 
0.0392335 0.0625168 0.997334 
0.0348266 0.0844443 0.995882 
0.0292871 0.111099 0.993442 
0.0223754 0.145417 0.989183 
0.0160444 0.193176 0.9811 
0.00916669 0.250923 0.968029 
0.00118877 0.340061 0.940466 
-0.00438937 0.426328 0.904628 
-0.009255 0.530546 0.847636 
-0.00969382 0.562075 0.827077 
-0.0124433 0.690845 0.722892 
-0.0124282 0.818417 0.574441 
-0.00926359 0.926822 0.375163 
-0.00327635 0.994408 0.10437 
0.000267952 0.997644 -0.0666885 
0.00409316 0.967332 -0.253018 
0.00425699 0.940308 -0.340045 
0.0085833 0.865398 -0.500906 
0.0104004 0.732105 -0.68109 
0.00959361 0.618654 -0.785628 
0.00762187 0.507574 -0.861634 
0.00181932 0.383243 -0.923703 
-0.00444169 0.301891 -0.953398 
-0.0106243 0.233378 -0.972395 
-0.0170302 0.175643 -0.984384 
-0.0257055 0.129444 -0.991319 
-0.0314049 0.0978307 -0.994772 
-0.0354463 0.0722417 -0.99682 
-0.0408769 0.0550459 -0.99771 
-0.0439516 0.038832 -0.998341 
-0.0465003 0.027886 -0.998591 
-0.0492256 0.0191883 -0.998665 
-0.0501411 0.0125174 -0.998725 
-0.0508317 0.00795186 -0.998737 
-0.0523435 0.00397012 -0.998683 
-0.0531523 0.000966832 -0.998647 
-0.0534034 -0.0014827 -0.998633 
-0.0533819 -0.00341156 -0.998629 
-0.0534282 -0.0051005 -0.998619 
-0.0528518 -0.00695723 -0.998639 
-0.0528033 -0.00931823 -0.998622 
-0.0517896 -0.011889 -0.998649 
-0.0504592 -0.0145781 -0.998682 
-0.0492806 -0.0180003 -0.998685 
-0.0486379 -0.021762 -0.998643 
-0.047022 -0.0264519 -0.998608 
-0.0460488 -0.0337047 -0.998436 
-0.0433835 -0.0414646 -0.998264 
-0.0394131 -0.0510621 -0.997973 
-0.0413902 -0.0580535 -0.99752 
-0.0355648 -0.0569365 -0.997807 
-0.0332486 -0.0441745 -0.998539 
-0.0234001 -0.0371184 -0.99912 
-0.0213327 -0.0425681 -0.998904 
0.0193657 -0.0405146 0.999025 
0.0221995 -0.0338004 0.999236 
0.0358366 -0.0474772 0.998286 
0.0404472 -0.0590427 0.997502 
0.0401733 -0.0557485 0.997717 
0.0449304 -0.0485922 0.997864 
0.0438627 -0.0430808 0.998178 
0.0473441 -0.0350198 0.998333 
0.0473056 -0.0284695 0.998542 
0.0497627 -0.0230823 0.99856 
0.0503751 -0.019021 0.998614 
0.0500936 -0.0160442 0.998681 
0.0516925 -0.0130576 0.998642 
0.0525729 -0.0101653 0.998629 
0.0530757 -0.00751671 0.998626 
0.0534025 -0.00552146 0.998621 
0.0538825 -0.00363968 0.998604 
0.0539171 -0.00162266 0.998607 
0.0537455 0.000927885 0.998618 
0.0527883 0.00411532 0.998661 
0.051622 0.00809957 0.998697 
0.0501651 0.0131187 0.998718 
0.048789 0.0197209 0.998678 
0.0468841 0.0282358 0.998564 
0.0446206 0.0394471 0.998288 
0.0415789 0.0535314 0.997764 
0.0377765 0.0724856 0.996719 
0.0331104 0.0962631 0.994872 
0.0279605 0.126074 0.991695 
0.0217238 0.16449 0.986209 
0.0135911 0.221187 0.975207 
0.00682733 0.284113 0.958822 
0.000106511 0.360574 0.932795 
-0.00562062 0.455786 0.890127 
-0.0121338 0.652809 0.757455 
-0.0117096 0.762669 0.646658 
-0.00851599 0.890371 0.455039 
-0.00443037 0.934062 0.356845 
-0.00474738 0.969491 0.244665 
-0.00173521 0.994601 0.102642 
0.00170332 0.982191 -0.187231 
0.00433318 0.883628 -0.468033 
0.00767033 0.829596 -0.558242 
0.009951 0.706608 -0.707537 
0.00946597 0.581525 -0.813509 
0.00685788 0.490691 -0.87136 
0.00437134 0.423248 -0.906065 
-0.00100279 0.348033 -0.937535 
-0.0081025 0.269565 -0.963018 
-0.0158317 0.206117 -0.978469 
-0.0230915 0.156783 -0.987432 
-0.0292977 0.116735 -0.992799 
-0.0352813 0.0857321 -0.99576 
-0.0385385 0.0669116 -0.997081 
-0.0429037 0.0472395 -0.998027 
-0.0454493 0.0340088 -0.998452 
-0.0478509 0.0240978 -0.998628 
-0.0499578 0.0159791 -0.998687 
-0.0510464 0.0105016 -0.998704 
-0.0526321 0.00612866 -0.998659 
-0.0527222 0.00243204 -0.99867 
-0.0533144 -0.000481573 -0.998641 
-0.0536433 -0.00277254 -0.99862 
-0.0535475 -0.00461315 -0.998618 
-0.0534188 -0.00656117 -0.998614 
-0.0533524 -0.00881083 -0.9986 
-0.0524199 -0.0116415 -0.998621 
-0.0514437 -0.014494 -0.998635 
-0.051045 -0.0174225 -0.998609 
-0.0488523 -0.0212454 -0.998646 
-0.0477327 -0.0257398 -0.998595 
-0.0475258 -0.0314356 -0.998443 
-0.0452101 -0.0401699 -0.99825 
-0.0444988 -0.0493602 -0.997857 
-0.0415758 -0.0584766 -0.997491 
-0.0384059 -0.056312 -0.997739 
-0.0306785 -0.0409997 -0.998766 
-0.0235275 -0.0357077 -0.999161 
-0.0188263 -0.0406202 -0.999034 
0.0141779 -0.041397 0.999081 
0.0190954 -0.0372857 0.999189 
0.0265759 -0.0409858 0.998895 
0.0297307 -0.0504777 0.998351 
0.0337279 -0.0614833 0.997595 
0.0355481 -0.0508001 0.998146 
0.0378912 -0.038742 0.9986 
0.0400413 -0.0324961 0.998738 
0.0411667 -0.0256241 0.998891 
0.0423847 -0.0214764 0.998937 
0.0416392 -0.01826 0.999032 
0.0424768 -0.0148159 0.999054 
0.0440484 -0.0118565 0.999024 
0.0449049 -0.00896864 0.999016 
0.0443158 -0.00661366 0.99906 
0.0456762 -0.00460532 0.99901 
0.045806 -0.00252744 0.999011 
0.0455938 5.63843e-05 0.999024 
0.0447137 0.00316456 0.999059 
0.0438055 0.00701484 0.999079 
0.0425115 0.011824 0.99909 
0.0413037 0.0182051 0.999044 
0.0395803 0.0264166 0.998931 
0.0378427 0.0370992 0.998659 
0.0351448 0.0508114 0.998154 
0.0323172 0.0684814 0.997195 
0.0280245 0.0919298 0.995439 
0.0235282 0.122326 0.992282 
0.0187808 0.16024 0.986971 
0.0128137 0.210108 0.977667 
0.00497256 0.288884 0.957437 
-0.00172286 0.387455 0.921953 
-0.00626476 0.497672 0.867382 
-0.00773509 0.598429 0.801173 
-0.00935993 0.580725 0.814085 
-0.0098033 0.685609 0.72792 
-0.00871922 0.81731 0.576098 
-0.0062126 0.852196 0.523121 
-0.00156317 0.995797 0.0903668 
-0.000579478 0.999868 -0.00614197 
0.000560948 0.977354 -0.210864 
-0.00135798 0.983239 -0.181596 
0.0029487 0.870055 -0.492829 
0.00669116 0.751484 -0.659697 
0.00839426 0.619145 -0.785274 
0.006637 0.520503 -0.853884 
0.00302111 0.410011 -0.912139 
-0.0018849 0.325467 -0.945634 
-0.00829015 0.251618 -0.967862 
-0.0149414 0.194906 -0.980767 
-0.0209119 0.148293 -0.988806 
-0.0265185 0.107264 -0.993946 
-0.0283679 0.0851228 -0.996035 
-0.0337596 0.06179 -0.997585 
-0.0361523 0.0453411 -0.998383 
-0.0379375 0.0326632 -0.998811 
-0.0410595 0.0223642 -0.99897 
-0.0419968 0.0153035 -0.999064 
-0.0431319 0.00979248 -0.999085 
-0.0449901 0.00546257 -0.999036 
-0.0443406 0.00169855 -0.999079 
-0.0452294 -0.00130099 -0.99904 
-0.0449215 -0.00355494 -0.999049 
-0.0450089 -0.00550395 -0.999036 
-0.0445568 -0.00759154 -0.999043 
-0.0450078 -0.0101083 -0.999 
-0.0435103 -0.0130969 -0.999032 
-0.0430522 -0.0161839 -0.999007 
-0.0425865 -0.0191934 -0.998975 
-0.0397049 -0.0232203 -0.999009 
-0.0393149 -0.0282527 -0.998895 
-0.0403276 -0.0346665 -0.998642 
-0.0364286 -0.0425762 -0.998498 
-0.0382113 -0.0509228 -0.998041 
-0.0340749 -0.0603141 -0.997667 
-0.0328786 -0.0581103 -0.997835 
-0.0255437 -0.0422587 -0.998858 
-0.020071 -0.0377984 -0.999157 
-0.015065 -0.0413224 -0.999071 
0.0103601 -0.0415577 0.999119 
0.013243 -0.0388892 0.999236 
0.0217534 -0.0411444 0.998999 
0.0237099 -0.0583097 0.998095 
0.0291355 -0.060533 0.997811 
0.0256085 -0.0529656 0.998337 
0.0299388 -0.0435711 0.998659 
0.028092 -0.0351375 0.999067 
0.0325799 -0.0293332 0.999095 
0.0314971 -0.0243627 0.999274 
0.0319643 -0.0209475 0.999336 
0.0336929 -0.0173832 0.999346 
0.0333968 -0.0141439 0.999407 
0.0352299 -0.0110876 0.999382 
0.0354933 -0.00842503 0.999398 
0.0354196 -0.00612981 0.999418 
0.0366165 -0.00411339 0.999385 
0.0365762 -0.00169659 0.999393 
0.0356631 0.00124202 0.999427 
0.0351591 0.00484039 0.999433 
0.0344144 0.00917399 0.999428 
0.0335329 0.0146948 0.999392 
0.032168 0.0217285 0.999309 
0.0306902 0.0310355 0.99911 
0.0288482 0.0428376 0.998729 
0.0265031 0.0586641 0.997992 
0.023714 0.0788468 0.996673 
0.0199097 0.106575 0.994176 
0.015791 0.142034 0.98981 
0.0116281 0.185988 0.982559 
0.00671352 0.248582 0.968664 
0.000842714 0.334112 0.942605 
-0.00403008 0.453942 0.891093 
-0.00595434 0.557601 0.830136 
-0.00825622 0.72382 0.689958 
-0.00422208 0.848554 0.529027 
0.000224039 0.911564 0.410973 
0.00249532 0.961215 0.275502 
-0.00290421 0.950288 0.311079 
0.000677762 0.989164 0.14619 
-0.000121433 0.999878 -0.00463482 
-0.00156536 0.953526 -0.300821 
0.000818084 0.920456 -0.390634 
0.00386328 0.762168 -0.647335 
0.00636811 0.693933 -0.720034 
0.00670879 0.603036 -0.797729 
0.00347489 0.418925 -0.908077 
4.88707e-05 0.340895 -0.940159 
-0.004528 0.269651 -0.963019 
-0.00976438 0.20579 -0.978633 
-0.0144465 0.160572 -0.986977 
-0.0190119 0.125617 -0.991955 
-0.0194053 0.100252 -0.994842 
-0.0245372 0.0737505 -0.997042 
-0.0271797 0.0549737 -0.998184 
-0.0289003 0.0399295 -0.998849 
-0.0315748 0.0276223 -0.999183 
-0.0327518 0.0193584 -0.999339 
-0.0339623 0.0128121 -0.999404 
-0.035097 0.00761018 -0.999418 
-0.0360006 0.00360871 -0.999409 
-0.03593 -0.000247024 -0.999418 
-0.0357372 -0.00298756 -0.999421 
-0.0357947 -0.00521406 -0.99941 
-0.0353029 -0.00725855 -0.999415 
-0.0353756 -0.00974145 -0.999391 
-0.034713 -0.0126116 -0.999382 
-0.0340565 -0.0159464 -0.999358 
-0.0329743 -0.0192363 -0.999337 
-0.0316028 -0.022684 -0.99931 
-0.030337 -0.0277002 -0.999235 
-0.0310861 -0.0341655 -0.999002 
-0.0284407 -0.0433274 -0.998726 
-0.0287891 -0.0543492 -0.998177 
-0.0249786 -0.0626619 -0.99779 
-0.0253461 -0.0596306 -0.997964 
-0.0194648 -0.0449304 -0.998875 
-0.0160685 -0.0379634 -0.999233 
-0.0110887 -0.0418907 -0.999098 
0.00839364 -0.0425519 0.999095 
0.00949086 -0.0382439 0.999301 
0.016996 -0.0449438 0.998921 
0.0166939 -0.0604481 0.998097 
0.0215313 -0.0631211 0.997842 
0.0193361 -0.0547327 0.998382 
0.0219892 -0.0425848 0.998919 
0.0207256 -0.0342634 0.999265 
0.0241152 -0.0285057 0.99937 
0.0224666 -0.0244489 0.999515 
0.0247957 -0.0205778 0.999546 
0.0258852 -0.0172324 0.999581 
0.0254433 -0.0138486 0.999655 
0.0270777 -0.0108008 0.999638 
0.0278308 -0.00809381 0.999633 
0.0274889 -0.00587618 0.999679 
0.0286799 -0.00364551 0.999635 
0.0280021 -0.000919169 0.99967 
0.0273949 0.00258963 0.999694 
0.0271333 0.00672255 0.999671 
0.0265819 0.0117262 0.999639 
0.025513 0.0179546 0.999575 
0.0243609 0.026205 0.999422 
0.0227922 0.0367903 0.999126 
0.0211881 0.0507811 0.99855 
0.018887 0.0691772 0.997493 
0.0164143 0.0931386 0.995587 
0.0130228 0.125534 0.992077 
0.00946833 0.16742 0.985916 
0.00635021 0.220149 0.97551 
0.00258203 0.286249 0.958227 
-0.00153532 0.385913 0.922602 
-0.00357954 0.487603 0.873115 
-0.0046278 0.599495 0.800399 
-0.00682276 0.69854 0.715542 
-0.00094715 0.819675 0.57279 
0.00464605 0.955415 0.295049 
0.00447508 0.996544 0.0823545 
0.0030621 0.999349 0.0350652 
0.000329125 0.999638 -0.0269527 
-0.00308577 0.997732 -0.0669726 
-0.00537597 0.995165 -0.0976223 
-0.00362406 0.902487 -0.430358 
0.00167734 0.849883 -0.526888 
0.0045654 0.649245 -0.760594 
0.00535767 0.550463 -0.8349 
0.00539088 0.48954 -0.872021 
0.00289439 0.395733 -0.918428 
-0.00112823 0.295878 -0.9553 
-0.00523116 0.229126 -0.973458 
-0.00901571 0.173735 -0.984826 
-0.0126187 0.132222 -0.991226 
-0.0158533 0.0918173 -0.995731 
-0.0189381 0.0692492 -0.997475 
-0.0210865 0.0509967 -0.998541 
-0.0233564 0.0354009 -0.999164 
-0.024482 0.0251048 -0.999447 
-0.0258155 0.0171135 -0.999582 
-0.0270248 0.0109218 -0.999637 
-0.027294 0.00617592 -0.999681 
-0.0287807 0.00204598 -0.999636 
-0.027664 -0.00147352 -0.99969 
-0.0279153 -0.00427912 -0.999664 
-0.0273902 -0.00642654 -0.999668 
-0.0272902 -0.00861329 -0.999654 
-0.0266571 -0.011203 -0.999646 
-0.0265933 -0.0143845 -0.999607 
-0.02555 -0.0177406 -0.999581 
-0.0241608 -0.0210586 -0.999551 
-0.0239042 -0.0249476 -0.999469 
-0.0221223 -0.0299534 -0.999362 
-0.0235218 -0.0354735 -0.999162 
-0.0205337 -0.04295 -0.998935 
-0.0217435 -0.0525081 -0.998453 
-0.0189509 -0.0623328 -0.997943 
-0.018118 -0.060705 -0.998056 
-0.0139174 -0.0444663 -0.998991 
-0.0116064 -0.0380476 -0.999283 
-0.00877414 -0.0419274 -0.999119 
0.00724391 -0.0441626 0.999026 
0.00753657 -0.0366564 0.999384 
0.0115281 -0.0442428 0.999032 
0.012388 -0.0628096 0.998011 
0.0156773 -0.0632461 0.997942 