# vtk DataFile Version 3.0 
Exported using Morpho https://github.com/Morpho-lang/morpho 
ASCII 
DATASET UNSTRUCTURED_GRID 

POINTS 1978 float 
-12 -4 -2.76512e-10 
-11.6678 -4 2.58852e-09 
-11.3408 -4 3.05834e-09 
-11.0029 -4 1.69941e-09 
-10.6739 -4 1.84072e-09 
-10.3492 -4 1.60755e-09 
-10.0345 -4 6.68658e-10 
-9.69186 -4 1.67947e-09 
-9.34762 -4 6.71514e-11 
-9.02707 -4 -2.08015e-10 
-8.71514 -4 8.99712e-10 
-8.39688 -4 -1.42658e-10 
-8.08296 -4 3.08162e-10 
-7.77941 -4 -5.9416e-10 
-7.48058 -4 -4.91107e-10 
-7.18933 -4 -7.54712e-12 
-6.9067 -4 4.293e-11 
-6.60019 -4 -1.26887e-10 
-6.30368 -4 -1.64166e-10 
-6.00339 -4 -1.53254e-10 
-5.70702 -4 -2.81161e-10 
-5.41873 -4 -3.89006e-10 
-5.13508 -4 -4.14482e-10 
-4.8377 -4 -7.87948e-10 
-4.5345 -4 -8.7128e-10 
-4.23184 -4 -1.15896e-09 
-3.92264 -4 -1.44394e-09 
-3.60942 -4 -1.20049e-09 
-3.31004 -4 -1.69932e-09 
-3.0129 -4 -4.03902e-09 
-2.74058 -4 -3.90559e-09 
-2.46971 -4 -2.98904e-09 
-2.20534 -4 -6.31128e-09 
-1.96275 -4 7.38239e-10 
-1.73584 -4 -6.95393e-09 
-1.48233 -4 -6.41356e-09 
-1.24672 -4 -9.25163e-08 
-1.01745 -4 -4.01906e-07 
-0.566034 -4 -1.78534e-06 
-0.243118 -4.00001 -2.98813e-06 
0.415082 -4.00001 2.90055e-06 
1.01797 -4 8.07319e-07 
1.30436 -4 5.36793e-08 
1.51925 -4 2.50034e-08 
1.7191 -4 1.51355e-08 
1.9692 -4 6.11679e-09 
2.27651 -4 -2.05236e-09 
2.548 -4 4.39653e-09 
2.79736 -4 1.88282e-09 
3.06565 -4 3.5377e-09 
3.33715 -4 1.98896e-09 
3.64405 -4 8.57753e-10 
3.93912 -4 9.95225e-10 
4.23448 -4 1.25574e-09 
4.53584 -4 9.20479e-10 
4.83415 -4 1.14387e-09 
5.12718 -4 6.67332e-10 
5.41906 -4 4.77555e-10 
5.71631 -4 4.65131e-10 
6.00386 -4 4.4928e-10 
6.28773 -4 -1.91293e-10 
6.57656 -4 7.27381e-10 
6.86974 -4 -4.33529e-10 
7.16434 -4 2.93769e-10 
7.4635 -4 -3.07723e-10 
7.76007 -4 3.47292e-10 
8.06485 -4 -2.18727e-10 
8.3738 -4 3.77625e-10 
8.68404 -4 -7.61626e-10 
8.97332 -4 5.49011e-10 
9.30509 -4 -7.982e-10 
9.62908 -4 -1.18996e-09 
9.94392 -4 -3.82742e-10 
10.3126 -4 -2.2935e-09 
10.6364 -4 -1.31211e-09 
10.9982 -4 -1.60736e-09 
11.3278 -4 -2.81898e-09 
11.6153 -4 -2.59242e-09 
12 -4 -1.1874e-10 
-12 -3.65076 -1.91467e-09 
-11.6774 -3.66643 3.47099e-19 
-11.3465 -3.65239 -4.69219e-20 
-11.0202 -3.66998 1.86874e-19 
-10.6877 -3.66435 5.9332e-20 
-10.3578 -3.66218 2.35983e-19 
-10.0344 -3.65474 -8.13718e-20 
-9.722 -3.68514 1.14586e-19 
-9.37742 -3.68696 3.33588e-20 
-9.03444 -3.66638 1.47644e-20 
-8.71517 -3.65866 1.22497e-20 
-8.40097 -3.66587 7.2272e-21 
-8.0818 -3.66067 -8.25881e-21 
-7.76844 -3.66387 -1.20179e-21 
-7.46603 -3.65666 -3.36173e-21 
-7.17387 -3.64712 -6.63577e-21 
-6.86292 -3.67468 -8.10814e-21 
-6.55736 -3.66576 -1.28572e-20 
-6.25016 -3.67347 -1.57581e-20 
-5.94488 -3.67265 -2.2016e-20 
-5.64632 -3.66699 -2.93374e-20 
-5.35363 -3.66403 -3.67603e-20 
-5.05039 -3.67956 -4.83474e-20 
-4.73862 -3.68707 -6.8961e-20 
-4.42818 -3.68516 -8.39191e-20 
-4.1158 -3.68262 -1.12027e-19 
-3.79727 -3.68955 -1.48911e-19 
-3.48382 -3.672 -1.9064e-19 
-3.16992 -3.67128 -2.48061e-19 
-2.86238 -3.64382 -3.11224e-19 
-2.57605 -3.64484 -3.49099e-19 
-2.30131 -3.66692 -4.37489e-19 
-2.03177 -3.62937 8.90433e-21 
-1.78237 -3.62342 -4.19253e-19 
-1.54774 -3.70315 6.19766e-19 
-1.3582 -3.44941 3.62555e-18 
-1.29101 -3.72283 2.64308e-18 
-0.927605 -3.86523 4.20651e-17 
-0.69162 -3.79931 -5.65436e-17 
-0.380552 -3.82078 -1.91904e-16 
0.455047 -3.717 1.55834e-16 
1.31631 -3.72826 1.70309e-17 
1.42084 -3.37406 5.91121e-18 
1.54259 -3.67175 -5.50381e-18 
1.79365 -3.66319 1.63414e-18 
2.09329 -3.71648 7.92703e-19 
2.11644 -3.41631 -2.71523e-19 
2.40257 -3.66879 3.332e-19 
2.66745 -3.63277 2.53857e-19 
2.95118 -3.67162 2.60573e-19 
3.24948 -3.64862 2.34982e-19 
3.56056 -3.69915 1.82861e-19 
3.88895 -3.67684 1.34343e-19 
4.19779 -3.67912 1.01197e-19 
4.5102 -3.67691 3.12624e-20 
4.8198 -3.67247 1.98526e-19 
5.12394 -3.66853 -4.11059e-21 
5.42674 -3.66856 -1.05576e-20 
5.72299 -3.66353 2.439e-20 
6.01728 -3.65998 1.85702e-20 
6.31473 -3.66292 1.609e-20 
6.61298 -3.66475 1.11271e-20 
6.91243 -3.66414 1.11552e-20 
7.21579 -3.66409 7.48353e-21 
7.51734 -3.65852 5.45283e-21 
7.82362 -3.66287 4.83736e-21 
8.13154 -3.6623 1.52088e-21 
8.44298 -3.66212 -1.08674e-20 
8.74276 -3.64052 -1.036e-20 
9.06706 -3.68413 -1.92154e-20 
9.39563 -3.67233 -3.24303e-20 
9.71474 -3.65693 -4.05797e-20 
10.0606 -3.7035 -7.14589e-20 
10.3872 -3.65922 -9.5595e-20 
10.7385 -3.69486 -1.22742e-19 
11.0767 -3.66481 -1.32755e-19 
11.3766 -3.61234 -1.03598e-19 
11.7177 -3.7088 -2.5425e-19 
12 -3.60386 2.51512e-09 
-12 -3.30345 -3.12815e-09 
-11.6739 -3.32786 5.1752e-20 
-11.3449 -3.30708 6.59627e-20 
-11.0184 -3.33392 6.22765e-20 
-10.6828 -3.33236 8.13925e-20 
-10.3581 -3.32478 7.76461e-20 
-10.0279 -3.3264 6.13242e-20 
-9.6997 -3.33904 4.23809e-20 
-9.39264 -3.37395 3.09405e-20 
-9.0828 -3.32857 2.16509e-20 
-8.77012 -3.32272 1.54787e-20 
-8.45512 -3.32551 8.78465e-21 
-8.14384 -3.33033 2.71487e-21 
-7.82864 -3.33376 4.42186e-22 
-7.5196 -3.31986 -2.31611e-21 
-7.22012 -3.30094 -5.14782e-21 
-6.9221 -3.34293 -8.06568e-21 
-6.61996 -3.33694 -1.00859e-20 
-6.3151 -3.34537 -1.32579e-20 
-6.01427 -3.34799 -1.81893e-20 
-5.71448 -3.33982 -2.42152e-20 
-5.41892 -3.33166 -3.07368e-20 
-5.12274 -3.35695 -3.96419e-20 
-4.81596 -3.3748 -5.16707e-20 
-4.50581 -3.37091 -6.51574e-20 
-4.19803 -3.36776 -8.96738e-20 
-3.87841 -3.37444 -1.11716e-19 
-3.56536 -3.35812 -1.51222e-19 
-3.23787 -3.35614 -1.96865e-19 
-2.90975 -3.32822 -2.41008e-19 
-2.57681 -3.30259 -2.82476e-19 
-2.28275 -3.32178 -3.42676e-19 
-2.00197 -3.27279 -5.23004e-19 
-1.72111 -3.2909 4.27922e-19 
-1.51897 -3.26147 3.80337e-19 
-1.26175 -3.09241 1.85256e-18 
-1.13172 -3.35892 -8.82393e-19 
-1.06799 -3.63124 -8.20656e-18 
-0.833552 -3.58042 -5.36988e-18 
-0.550783 -3.62794 -3.37227e-17 
0.233325 -3.84104 1.08809e-17 
1.00553 -3.77974 -1.81291e-16 
1.18589 -3.50146 -3.14688e-18 
1.23484 -3.13943 -1.18034e-18 
1.5234 -3.07669 1.15896e-18 
1.68101 -3.34748 -2.5068e-18 
1.93879 -3.26086 8.37404e-19 
2.35466 -3.30517 2.92106e-19 
2.65657 -3.31185 2.54753e-19 
2.97194 -3.34007 2.57598e-19 
3.29255 -3.33173 1.8505e-19 
3.60076 -3.39294 1.48868e-19 
3.90619 -3.35244 1.13252e-19 
4.20619 -3.35402 8.80804e-20 
4.50678 -3.35655 6.7286e-20 
4.81277 -3.34968 4.92372e-20 
5.11392 -3.34085 4.14466e-20 
5.4143 -3.34466 3.07338e-20 
5.71517 -3.33299 2.31428e-20 
6.01267 -3.32796 1.72503e-20 
6.31203 -3.33192 1.30556e-20 
6.61425 -3.33093 1.01608e-20 
6.91707 -3.33297 8.28052e-21 
7.21959 -3.32764 5.84147e-21 
7.52525 -3.32381 2.6144e-21 
7.82947 -3.32359 -3.26602e-22 
8.137 -3.32449 -2.76468e-21 
8.44036 -3.31386 -8.61178e-21 
8.75342 -3.30574 -1.53825e-20 
9.06731 -3.35974 -2.1293e-20 
9.38285 -3.33713 -2.99858e-20 
9.6895 -3.30753 -4.22525e-20 
9.99993 -3.37815 -5.88414e-20 
10.3184 -3.32877 -7.54646e-20 
10.6512 -3.37082 -8.49275e-20 
10.9801 -3.3436 -6.29757e-20 
11.2958 -3.2611 -5.15159e-20 
11.6361 -3.35347 -6.2495e-20 
12 -3.30029 3.08429e-09 
-12 -2.98254 -2.13038e-09 
-11.6519 -2.99031 6.56662e-20 
-11.3112 -2.97034 1.29583e-20 
-10.9777 -3.00778 2.37631e-20 
-10.6499 -2.99543 4.73696e-20 
-10.3177 -2.99732 5.23108e-20 
-9.98907 -2.99973 3.8978e-20 
-9.67383 -2.99627 2.92783e-20 
-9.36652 -3.02665 2.1267e-20 
-9.05429 -2.98792 1.36365e-20 
-8.73918 -2.98699 1.14547e-20 
-8.42441 -2.99075 6.34304e-21 
-8.10888 -3.0018 2.07371e-21 
-7.79979 -3.00216 6.36041e-22 
-7.49836 -2.98091 -4.00087e-22 
-7.19281 -2.97119 -2.19398e-21 
-6.8923 -3.0101 -4.08019e-21 
-6.5875 -3.01113 -5.67913e-21 
-6.28936 -3.01635 -7.83061e-21 
-5.99174 -3.02056 -1.07003e-20 
-5.69751 -3.01039 -1.36563e-20 
-5.40264 -3.00469 -1.66261e-20 
-5.10785 -3.03058 -2.05644e-20 
-4.81376 -3.06089 -2.86459e-20 
-4.5211 -3.03844 -4.13118e-20 
-4.22954 -3.04487 -5.05706e-20 
-3.92292 -3.06262 -6.60866e-20 
-3.60468 -3.03209 -8.79907e-20 
-3.29221 -3.04302 -1.27778e-19 
-2.96383 -3.02363 -1.53833e-19 
-2.62231 -3.00356 -1.46411e-19 
-2.27674 -2.98314 -7.64963e-20 
-1.96088 -2.95033 2.01836e-19 
-1.71726 -2.87704 2.45928e-19 
-1.48017 -2.8959 4.21431e-19 
-1.16169 -2.80774 2.40033e-18 
-0.979041 -3.07836 5.75734e-18 
-0.884102 -3.32438 -6.7857e-19 
-0.625513 -3.40503 -6.6211e-18 
-0.0189129 -3.92039 2.02324e-15 
0.758564 -3.68021 3.64736e-17 
0.659223 -3.89384 -4.6797e-17 
1.00178 -3.2127 -7.36558e-18 
1.22607 -2.843 -2.1462e-18 
1.52768 -2.77462 -2.39337e-18 
1.80391 -2.98349 -2.47486e-20 
1.92528 -2.71871 -6.7616e-20 
2.16517 -2.97982 1.85895e-19 
2.46668 -2.97462 1.23322e-19 
2.79682 -3.01829 1.88796e-19 
3.13335 -3.04178 1.37989e-19 
3.51014 -3.06236 9.81846e-20 
3.81445 -3.04268 7.19454e-20 
4.13817 -3.03119 5.69533e-20 
4.45144 -3.03558 4.17393e-20 
4.7678 -3.03058 3.00597e-20 
5.07819 -3.0154 2.22527e-20 
5.38544 -3.02219 1.79656e-20 
5.69075 -3.01018 1.26534e-20 
5.99463 -3.00125 8.76402e-21 
6.29647 -3.00595 6.70287e-21 
6.60189 -3.00576 5.54953e-21 
6.90913 -3.00218 4.39445e-21 
7.21331 -2.99702 2.89207e-21 
7.51856 -2.99121 4.95617e-22 
7.82445 -2.98373 -1.12093e-21 
8.12795 -2.9839 -2.53893e-21 
8.43838 -2.9793 -6.01664e-21 
8.7469 -2.96907 -1.10986e-20 
9.06171 -3.02418 -1.49337e-20 
9.3749 -2.99669 -1.92578e-20 
9.6866 -2.9694 -2.76999e-20 
10.0053 -3.03551 -4.15539e-20 
10.3256 -2.98968 -5.0478e-20 
10.6437 -3.04101 -5.63386e-20 
10.9639 -3.00189 -2.41258e-20 
11.3121 -2.94472 -9.44193e-21 
11.6541 -3.03909 -9.00726e-20 
12 -2.98141 2.0201e-09 
-12 -2.66798 -1.76025e-09 
-11.6553 -2.67292 -2.22411e-21 
-11.3268 -2.639 -2.50049e-20 
-10.9865 -2.67716 -2.36879e-20 
-10.6478 -2.6714 7.85216e-21 
-10.3169 -2.67073 1.49066e-20 
-9.99345 -2.66553 1.14307e-20 
-9.66556 -2.67113 1.02223e-20 
-9.34062 -2.68358 6.2966e-21 
-9.01981 -2.65627 4.50256e-21 
-8.69798 -2.65968 5.42437e-21 
-8.37718 -2.66715 2.54407e-21 
-8.06552 -2.67208 5.45875e-22 
-7.76247 -2.66606 1.12082e-21 
-7.45405 -2.65287 9.53976e-22 
-7.14619 -2.64752 -2.18529e-22 
-6.84567 -2.68698 -7.32057e-22 
-6.54637 -2.68306 -8.80986e-22 
-6.2475 -2.69061 -1.42557e-21 
-5.95285 -2.69162 -2.53246e-21 
[...]
POINT_DATA 1978 
VECTORS vectors float
0.00209566 -0.00418244 0.999989 
0.00251536 -0.0200361 0.999797 
0.00189235 -0.0223982 0.999749 
0.0019255 -0.0182321 0.999833 
0.00196777 -0.0133911 0.999909 
0.00197994 -0.00965976 0.999952 
0.00196528 -0.00692188 0.999975 
0.00211702 -0.0047498 0.999987 
0.00209188 -0.00298907 0.999994 
0.00205368 -0.0016376 0.999998 
0.00210732 -0.000618227 0.999999 
0.00218639 0.000120183 0.999999 
0.00218861 0.000551463 0.999998 
0.00218432 0.000717161 0.999998 
0.00216098 0.000771163 0.999998 
0.00208003 0.000831689 0.999999 
0.00222213 0.000875055 0.999998 
0.00222811 0.000973793 0.999998 
0.00218921 0.00123379 0.999998 
0.00221202 0.00164959 0.999997 
0.00216799 0.00228687 0.999996 
0.00208051 0.00321809 0.999994 
0.00212047 0.00449664 0.999989 
0.00217955 0.00630662 0.999979 
0.0021109 0.00873416 0.999961 
0.00208291 0.0117652 0.99993 
0.00210691 0.0156793 0.999876 
0.00205416 0.0205364 0.999788 
0.0020046 0.0262079 0.999655 
0.00188364 0.0335917 0.999435 
0.00166771 0.0430169 0.999074 
0.00148611 0.0568579 0.998382 
0.00112461 0.0776421 0.996981 
0.000562173 0.107637 0.99419 
0.000356334 0.149314 0.98879 
-0.000200629 0.205646 0.978627 
-0.000979185 0.283398 0.959002 
-0.00287248 0.386494 0.922289 
-0.00301768 0.659939 0.751316 
0.00396433 0.880018 0.474933 
0.00653805 0.776306 -0.630341 
0.00512383 0.404938 -0.914337 
0.00144481 0.270723 -0.962657 
-0.000582171 0.223664 -0.974667 
-0.000262739 0.170305 -0.985391 
-0.00055076 0.115074 -0.993357 
-0.00125822 0.0780071 -0.996952 
-0.0014883 0.0567529 -0.998388 
-0.00152569 0.0424113 -0.9991 
-0.00175185 0.0321447 -0.999482 
-0.0019647 0.0251342 -0.999683 
-0.00212478 0.0193136 -0.999812 
-0.00207253 0.0148849 -0.999888 
-0.00207613 0.011221 -0.999936 
-0.00214192 0.00834523 -0.999964 
-0.00215359 0.00613249 -0.999979 
-0.00210417 0.00447995 -0.999989 
-0.0021866 0.00321434 -0.999993 
-0.00217928 0.00230771 -0.999996 
-0.00212851 0.00170192 -0.999997 
-0.00214294 0.00131683 -0.999998 
-0.00219718 0.00110395 -0.999998 
-0.00219348 0.000976813 -0.999998 
-0.00220186 0.000876425 -0.999998 
-0.00217468 0.000787666 -0.999998 
-0.00216172 0.000697246 -0.999998 
-0.00219819 0.000501556 -0.999998 
-0.0022304 0.000153214 -0.999999 
-0.00202387 -0.000476022 -0.999999 
-0.00213271 -0.00138759 -0.999998 
-0.0022013 -0.0026662 -0.999995 
-0.00194699 -0.00434736 -0.99999 
-0.00208207 -0.00628495 -0.999979 
-0.00194016 -0.00925932 -0.999956 
-0.00191454 -0.0128881 -0.999916 
-0.00196925 -0.0181355 -0.999834 
-0.00169109 -0.0226035 -0.999744 
-0.0025987 -0.0206963 -0.999783 
-0.00243967 -0.00407202 -0.999989 
-6.77743e-05 -0.0041033 0.999992 
0.00712033 -0.0163055 0.999842 
0.00945076 -0.0197348 0.999761 
0.0101396 -0.0179025 0.999789 
0.0106802 -0.0137575 0.999849 
0.0110813 -0.010008 0.999889 
0.0114422 -0.00715001 0.999909 
0.0112154 -0.0050498 0.999925 
0.0114297 -0.00326038 0.99993 
0.011826 -0.00184477 0.999929 
0.0121353 -0.000847682 0.999926 
0.0121666 -0.00014422 0.999926 
0.0123433 0.000310716 0.999924 
0.0125494 0.000570276 0.999921 
0.0128121 0.000691819 0.999918 
0.0130896 0.00076912 0.999914 
0.0126537 0.000873503 0.99992 
0.0128999 0.0010683 0.999917 
0.0127676 0.00139745 0.999918 
0.0127887 0.00189364 0.999917 
0.0128342 0.00261685 0.999914 
0.0127887 0.00363017 0.999912 
0.0123906 0.00507002 0.999911 
0.0121674 0.00705507 0.999901 
0.0120962 0.00962251 0.999881 
0.0120163 0.0129461 0.999844 
0.0118556 0.0171868 0.999782 
0.0120893 0.0223661 0.999677 
0.0120477 0.0292026 0.999501 
0.0124787 0.0387325 0.999172 
0.0121851 0.0517299 0.998587 
0.0123757 0.0710168 0.997399 
0.0133408 0.10143 0.994754 
0.014595 0.142223 0.989727 
0.013965 0.195758 0.980553 
0.031449 0.24081 0.970063 
0.0169156 0.277766 0.9605 
0.0113695 0.44509 0.895414 
0.0253724 0.584129 0.811264 
0.0344317 0.787496 0.615359 
-0.0360332 0.723322 -0.689584 
-0.0175831 0.299065 -0.954072 
-0.0343114 0.239018 -0.970409 
-0.0174734 0.216112 -0.976213 
-0.0152104 0.150254 -0.988531 
-0.0110701 0.102301 -0.994692 
-0.0183393 0.0925038 -0.995544 
-0.0114035 0.0699848 -0.997483 
-0.0119568 0.0508671 -0.998634 
-0.0118681 0.0367502 -0.999254 
-0.0121908 0.0270389 -0.99956 
-0.0116115 0.020492 -0.999723 
-0.0119636 0.0151692 -0.999814 
-0.0122124 0.0113231 -0.999862 
-0.0123213 0.00844381 -0.999889 
-0.0125527 0.00620999 -0.999902 
-0.0126626 0.00451432 -0.99991 
-0.0126702 0.00325766 -0.999915 
-0.0129579 0.00239445 -0.999913 
-0.0131253 0.00179968 -0.999913 
-0.0130926 0.0013945 -0.999914 
-0.0130906 0.00113359 -0.999914 
-0.0130215 0.000943884 -0.999915 
-0.0128643 0.000798779 -0.999917 
-0.0128431 0.000669982 -0.999918 
-0.0126074 0.000503448 -0.999921 
-0.0124537 0.000223816 -0.999923 
-0.0123298 -0.00021428 -0.999924 
-0.0125516 -0.000883797 -0.999921 
-0.011709 -0.00187617 -0.99993 
-0.0116564 -0.00324592 -0.999927 
-0.0115634 -0.00494788 -0.999921 
-0.0106478 -0.00727537 -0.999917 
-0.0110802 -0.0102759 -0.999886 
-0.01018 -0.0143891 -0.999845 
-0.0101001 -0.0183971 -0.99978 
-0.00982679 -0.0194118 -0.999764 
-0.00663138 -0.0152919 -0.999861 
-0.000202971 -0.00435831 -0.999991 
-0.000493379 -0.004329 0.999991 
0.00836411 -0.0150341 0.999852 
0.0117906 -0.0191148 0.999748 
0.0130739 -0.0178551 0.999755 
0.0138786 -0.0140539 0.999805 
0.0145066 -0.0103754 0.999841 
0.0149578 -0.00743144 0.999861 
0.0150844 -0.00513993 0.999873 
0.0152808 -0.00350537 0.999877 
0.0157864 -0.00225573 0.999873 
0.0159439 -0.00123582 0.999872 
0.016102 -0.000517451 0.999871 
0.0162741 -2.88337e-05 0.999868 
0.0164888 0.00032002 0.999864 
0.0167455 0.000543304 0.99986 
0.0169227 0.000696382 0.999857 
0.0169865 0.000868296 0.999856 
0.0170179 0.00109598 0.999855 
0.0169948 0.00142511 0.999855 
0.0169756 0.00189227 0.999854 
0.0169383 0.00257003 0.999854 
0.0168003 0.00350765 0.999853 
0.0166044 0.0047918 0.999851 
0.0164544 0.00652998 0.999844 
0.0162976 0.00873131 0.999829 
0.0162194 0.0115865 0.999802 
0.0162012 0.0153575 0.999751 
0.016323 0.0200318 0.999666 
0.0164103 0.0266265 0.999511 
0.0166251 0.036219 0.999206 
0.0173238 0.0512287 0.998537 
0.0187185 0.0729634 0.997159 
0.0222792 0.102532 0.99448 
0.0272996 0.145748 0.988945 
0.0346417 0.186847 0.981778 
0.0563286 0.227513 0.972145 
0.0503933 0.300855 0.952337 
0.0321961 0.370931 0.928102 
0.0535797 0.477779 0.876845 
0.0671658 0.645836 0.760517 
-0.016313 0.900638 -0.434272 
-0.0167748 0.435497 -0.900035 
-0.0447991 0.324192 -0.94493 
-0.0606686 0.245727 -0.967439 
-0.0430528 0.18204 -0.982349 
-0.0286655 0.159976 -0.986705 
-0.0249859 0.11384 -0.993185 
-0.0181649 0.0673692 -0.997563 
-0.0171507 0.0488282 -0.99866 
-0.0165621 0.0349645 -0.999252 
-0.0165844 0.0256901 -0.999533 
-0.016099 0.0194933 -0.999681 
-0.0165245 0.0149008 -0.999753 
-0.0164614 0.0112873 -0.999801 
-0.0165543 0.00846044 -0.999827 
-0.0166598 0.00632012 -0.999842 
-0.0167788 0.00465523 -0.999849 
-0.0168211 0.00342734 -0.999853 
-0.0169997 0.00255517 -0.999852 
-0.0171341 0.00194571 -0.999852 
-0.017144 0.00150188 -0.999852 
-0.0170762 0.00117244 -0.999854 
-0.0170908 0.000925924 -0.999854 
-0.0169352 0.000724963 -0.999857 
-0.0167727 0.000539324 -0.99986 
-0.0166454 0.000311691 -0.999862 
-0.0164372 -1.94046e-05 -0.999865 
-0.0162891 -0.000480624 -0.999867 
-0.0160694 -0.00116935 -0.99987 
-0.0156355 -0.00213698 -0.999876 
-0.0154737 -0.00348539 -0.999874 
-0.0152996 -0.00512929 -0.99987 
-0.0147434 -0.00716011 -0.999866 
-0.0144714 -0.00994556 -0.999846 
-0.0139264 -0.0137162 -0.999809 
-0.0132654 -0.0176144 -0.999757 
-0.0121381 -0.0190884 -0.999744 
-0.00901312 -0.0155838 -0.999838 
0.000144674 -0.00413346 -0.999992 
-0.000176179 -0.00374604 0.999993 
0.00795962 -0.0153437 0.999851 
0.011109 -0.0195238 0.999748 
0.0127191 -0.0181476 0.999755 
0.0133376 -0.0141787 0.999811 
0.0139237 -0.0103598 0.99985 
0.0143345 -0.00742409 0.99987 
0.0145912 -0.00524222 0.99988 
0.0149965 -0.0036213 0.999881 
0.0149807 -0.00238232 0.999885 
0.0151121 -0.00138703 0.999885 
0.0153464 -0.00069948 0.999882 
0.015621 -0.000216808 0.999878 
0.0158371 0.000167216 0.999875 
0.0158325 0.000449791 0.999875 
0.0158849 0.000683545 0.999874 
0.0161064 0.000911301 0.99987 
0.0162156 0.00119805 0.999868 
0.0162649 0.00155991 0.999867 
0.0162511 0.00205116 0.999866 
0.016097 0.00273487 0.999867 
0.0159948 0.00369 0.999865 
0.015979 0.00492534 0.99986 
0.0160614 0.00649203 0.99985 
0.0160884 0.0084991 0.999835 
0.0161265 0.0109143 0.999811 
0.0163421 0.0141486 0.999767 
0.0163953 0.018409 0.999696 
0.0167482 0.0241435 0.999568 
0.017201 0.0328166 0.999314 
0.0182698 0.0461531 0.998768 
0.0211549 0.0671283 0.99752 
0.0271552 0.0953215 0.995076 
0.0361234 0.125295 0.991462 
0.047741 0.161391 0.985735 
0.0760244 0.213433 0.973995 
0.0865333 0.300677 0.949792 
0.076495 0.385492 0.919535 
0.105341 0.527465 0.843022 
0.0124391 0.963938 0.265843 
-0.0643568 0.619014 -0.782745 
-0.0209974 0.581563 -0.813238 
-0.0807511 0.353209 -0.932055 
-0.0795379 0.226664 -0.970721 
-0.0527318 0.157093 -0.986175 
-0.0355694 0.126287 -0.991357 
-0.0310318 0.0956732 -0.994929 
-0.0238675 0.0839388 -0.996185 
-0.0201631 0.0598778 -0.998002 
-0.0178092 0.0419944 -0.998959 
-0.0168498 0.0295879 -0.99942 
-0.0164015 0.0204452 -0.999657 
-0.0162002 0.015393 -0.999751 
-0.0161419 0.0114401 -0.999805 
-0.0161402 0.00859328 -0.999833 
-0.0161092 0.00640512 -0.99985 
-0.0160275 0.00474881 -0.999861 
-0.0161442 0.00354451 -0.999864 
-0.0161397 0.00268327 -0.999866 
-0.0161334 0.00206411 -0.999868 
-0.0162008 0.00159584 -0.999868 
-0.0161812 0.00122431 -0.999869 
-0.0161249 0.000920862 -0.99987 
-0.0160495 0.000674791 -0.999871 
-0.0159514 0.000436757 -0.999873 
-0.0157235 0.000140801 -0.999877 
-0.015526 -0.000230702 -0.99988 
-0.0152511 -0.000697584 -0.999884 
-0.0150554 -0.00137093 -0.999886 
-0.0151864 -0.00234275 -0.999882 
-0.0148158 -0.00368199 -0.999884 
-0.0143966 -0.00533841 -0.999882 
-0.0144664 -0.00749644 -0.999868 
-0.0138652 -0.0104386 -0.99985 
-0.0136608 -0.0140508 -0.999808 
-0.0127389 -0.0179665 -0.999758 
-0.0110539 -0.0195932 -0.999747 
-0.00820238 -0.0151649 -0.999852 
0.000189109 -0.00417183 -0.999992 
-0.000372102 -0.00369777 0.999993 
0.00631244 -0.0158858 0.999854 
0.00871193 -0.0202603 0.999757 
0.0100789 -0.0186825 0.999775 
0.0106629 -0.0145909 0.999837 
0.0111218 -0.0106864 0.999881 
0.0114156 -0.00770241 0.999905 
0.0117491 -0.00544235 0.999916 
0.0120001 -0.00374211 0.999921 
0.0119432 -0.00248281 0.999926 
0.0121485 -0.00148672 0.999925 
0.0123982 -0.000824187 0.999923 
0.0126218 -0.000339509 0.999921 
0.0127376 7.49384e-05 0.999919 
0.0126958 0.000417911 0.99992 
0.012698 0.000704774 0.999919 
0.013101 0.000982495 0.999914 
0.0130806 0.00130059 0.999914 
0.0131407 0.00168406 0.999912 
0.0131024 0.00218172 0.999912 
0.0129616 0.00287116 0.999912 
0.0128791 0.00383832 0.99991 
0.0130123 0.00508504 0.999903 
0.0132512 0.00663715 0.99989 
0.013114 0.00848891 0.999878 
0.0135492 0.0110988 0.999847 
0.0140098 0.0145247 0.999797 
0.0141916 0.0190953 0.999717 
0.0151257 0.0256166 0.999558 
0.0164436 0.0355755 0.999232 
0.0190281 0.0504324 0.998546 
0.0238026 0.0693292 0.99731 
0.0317266 0.0902262 0.995416 
0.0430526 0.111032 0.992884 
0.0606987 0.154244 0.986167 
0.0898033 0.184138 0.97879 
0.1137 0.266219 0.957184 
0.153349 0.356769 0.921521 
0.134952 0.432454 0.8915 
0.107443 0.743301 0.660282 
-0.105943 0.747191 -0.656114 
-0.0463881 0.438796 -0.897389 
-0.114209 0.315721 -0.941954 
-0.11691 0.244698 -0.962525 
-0.0736764 0.170585 -0.982585 
-0.0454892 0.118055 -0.991965 
-0.0300624 0.0798188 -0.996356 
-0.0231762 0.0669248 -0.997489 
-0.0181539 0.0466972 -0.998744 
-0.0160117 0.0340537 -0.999292 
-0.0151123 0.0242313 -0.999592 
-0.0139012 0.0177335 -0.999746 
-0.0136621 0.013269 -0.999819 
-0.0134827 0.00999214 -0.999859 
-0.013414 0.00756962 -0.999882 
-0.0132227 0.00572703 -0.999896 
-0.0130773 0.00430334 -0.999905 
-0.0131742 0.00330565 -0.999908 
-0.0130562 0.00257207 -0.999912 
-0.0130099 0.00202245 -0.999914 
-0.0131234 0.00158441 -0.999913 
-0.013106 0.00121918 -0.999914 
-0.0130025 0.000904418 -0.999915 
-0.0128826 0.000613388 -0.999917 
-0.0127337 0.000317421 -0.999919 
-0.0124749 -3.7665e-05 -0.999922 
-0.012356 -0.000466057 -0.999924 
-0.0121235 -0.000960628 -0.999926 
-0.0118706 -0.00162836 -0.999928 
-0.0123078 -0.00253573 -0.999921 
-0.0117659 -0.00381828 -0.999924 
-0.0114099 -0.005524 -0.99992 
-0.0116627 -0.00775626 -0.999902 
-0.0110128 -0.0108296 -0.999881 
-0.0109297 -0.0146967 -0.999833 
-0.0101364 -0.0188614 -0.999771 
-0.0085012 -0.0200807 -0.999763 
-0.00641351 -0.0152619 -0.999863 
0.000163725 -0.00425329 -0.999991 
-0.000197146 -0.00397774 0.999992 
0.00382983 -0.0145041 0.999888 
0.00589296 -0.0201035 0.999781 
0.00723382 -0.0202083 0.99977 
0.00780964 -0.0166017 0.999832 
0.00814478 -0.012349 0.999891 
0.00846591 -0.00901234 0.999924 
0.00875831 -0.006439 0.999941 
0.00899141 -0.00453246 0.99995 
0.00907231 -0.00315931 0.999954 
0.00923883 -0.00203503 0.999956 
0.00945365 -0.00125554 0.999955 
0.00958921 -0.000695089 0.999954 
0.00966845 -0.000204916 0.999954 
0.00976444 0.000218759 0.999953 
0.0097667 0.000573613 0.999952 
0.00993825 0.000901269 0.99995 
0.0100371 0.00120523 0.999949 
0.0100767 0.0015492 0.999948 
0.0100658 0.00196683 0.999948 
0.010032 0.00253372 0.999947 
0.010053 0.00334327 0.999944 
0.0100569 0.00443865 0.99994 
0.01025 0.00578517 0.999931 
0.0102232 0.00730111 0.999921 
0.010701 0.009486 0.999898 
0.0112189 0.0124632 0.99986 
0.0116385 0.0162373 0.999801 
0.0125631 0.0219706 0.99968 
0.0142624 0.0299568 0.99945 
0.0170569 0.0421083 0.998968 
0.0216009 0.0569648 0.998143 
0.028408 0.0718012 0.997015 
0.0387553 0.0891116 0.995268 
0.0580075 0.123616 0.990634 
0.0589899 0.113025 0.99184 
0.0895736 0.154726 0.983889 
0.141687 0.243095 0.959599 
0.18407 0.647597 0.739418 
0.053787 0.91825 0.392327 
-0.0927105 0.531417 -0.842025 
-0.131214 0.463101 -0.876539 
-0.179843 0.317219 -0.931144 
-0.111895 0.19387 -0.974625 
-0.0715393 0.1408 -0.98745 
-0.0453183 0.101733 -0.993779 
-0.0300097 0.0711003 -0.997018 
-0.0220318 0.0567955 -0.998143 
-0.0178307 0.0454498 -0.998808 
-0.0144022 0.0325514 -0.999367 
-0.013329 0.0249257 -0.999601 
-0.0117802 0.0181641 -0.999766 
-0.011054 0.0132581 -0.999851 
-0.0107674 0.0100259 -0.999892 
-0.0106299 0.00759971 -0.999915 
-0.0103853 0.00576028 -0.99993 
-0.0102697 0.00439262 -0.999938 
-0.0101737 0.00337309 -0.999943 
-0.0101037 0.00266092 -0.999946 
-0.0100002 0.00210686 -0.999948 
-0.0101009 0.00168127 -0.999948 
-0.0101056 0.00132233 -0.999948 
-0.0099784 0.000990934 -0.99995 
-0.00992438 0.000664716 -0.999951 
-0.00977989 0.000320348 -0.999952 
-0.00954838 -8.09201e-05 -0.999955 
-0.00946609 -0.000565548 -0.999955 
-0.00918585 -0.00110382 -0.999957 
-0.0089116 -0.00175623 -0.999959 
-0.00918919 -0.00268239 -0.999954 
-0.00890613 -0.00405267 -0.999952 
-0.00858061 -0.00577116 -0.999947 
-0.00873375 -0.00802949 -0.99993 
-0.00826629 -0.0113403 -0.999902 
-0.00813796 -0.0154628 -0.999848 
-0.00748416 -0.0196634 -0.999779 
-0.00611553 -0.0206101 -0.999769 
-0.00462685 -0.0155368 -0.999869 
9.43586e-05 -0.00422747 -0.999991 
-3.70641e-05 -0.00388189 0.999993 
0.00307434 -0.0161907 0.999865 
0.00470306 -0.0212393 0.999764 
0.0054171 -0.019786 0.99979 
0.00585709 -0.0154821 0.999863 
0.00611227 -0.0113911 0.999917 
0.00643927 -0.00823615 0.999946 
0.00667697 -0.00587751 0.999961 
0.00676918 -0.00420588 0.999969 
0.00701166 -0.0028793 0.999972 
0.00720163 -0.00189769 0.999973 
0.00733501 -0.00122355 0.999973 
0.00738156 -0.000654509 0.999973 
0.00744003 -0.000124144 0.999973 
0.00755466 0.000327038 0.999972 
0.00764375 0.000718488 0.999971 
0.00760893 0.00104194 0.999971 
0.00775291 0.00134098 0.999969 
0.00775107 0.00166487 0.999969 
0.00774241 0.00208798 0.999968 
0.00781781 0.00271182 0.999966 
0.00789613 0.00358763 0.999963 
0.0079043 0.00471862 0.999958 
0.00788139 0.00594998 0.999952 
0.00825962 0.00764814 0.999937 
0.00875573 0.00982295 0.999914 
0.00916126 0.0125602 0.999879 
0.00994413 0.0165986 0.999813 
0.0110084 0.0219323 0.999699 
0.0132662 0.030034 0.999461 
0.0162817 0.0399945 0.999067 
0.0202641 0.0503787 0.998525 
0.0261476 0.061873 0.997742 
0.0379384 0.0817166 0.995934 
0.0493094 0.0980271 0.993962 
0.0806893 0.130856 0.988113 
0.131009 0.188158 0.973362 
0.208567 0.33957 0.917166 
0.228624 0.49908 0.835854 
-0.0373042 0.95616 -0.29045 
-0.187727 0.639293 -0.745696 
-0.185527 0.412436 -0.891895 
-0.191568 0.277787 -0.941348 
-0.116436 0.171232 -0.978327 
-0.0681648 0.118847 -0.99057 
-0.0448221 0.0910109 -0.994841 
-0.0287125 0.0645293 -0.997503 
-0.0200526 0.0491282 -0.998591 
-0.0155178 0.0383971 -0.999142 
-0.0127273 0.0295625 -0.999482 
-0.0110976 0.0221689 -0.999693 
-0.00966123 0.0160871 -0.999824 
-0.00884757 0.0120379 -0.999889 
-0.00859968 0.0090931 -0.999922 
-0.00839272 0.00694351 -0.999941 
-0.0081599 0.00526999 -0.999953 
-0.00811484 0.00405817 -0.999959 
-0.00787341 0.00314772 -0.999964 
-0.00784959 0.00249251 -0.999966 
-0.00771434 0.00196999 -0.999969 
-0.00780367 0.00159634 -0.999969 
-0.00776742 0.00127754 -0.999969 
-0.00766892 0.000955604 -0.99997 
-0.00765557 0.000603273 -0.999971 
-0.00749917 0.000215491 -0.999972 
-0.00739487 -0.000260146 -0.999973 
-0.00725691 -0.000805771 -0.999974 
-0.00698581 -0.0014073 -0.999975 
-0.00685038 -0.00213687 -0.999975 
-0.00701598 -0.00312029 -0.999971 
-0.00667003 -0.00449236 -0.999968 
-0.00645968 -0.00638441 -0.999959 
-0.00657603 -0.00886777 -0.999939 
-0.00607191 -0.0121856 -0.999908 
-0.00601187 -0.0161519 -0.999852 
-0.00538226 -0.0201793 -0.999782 
-0.00435398 -0.0211382 -0.999767 
-0.00329333 -0.0159518 -0.999868 
5.14982e-05 -0.00428097 -0.999991 
-2.35e-05 -0.00444307 0.99999 
0.00199267 -0.0156834 0.999875 
0.00328392 -0.0214376 0.999765 
0.00383924 -0.0203682 0.999785 
0.00426178 -0.016265 0.999859 
0.00451626 -0.0121272 0.999917 
0.00481777 -0.00882508 0.99995 
0.00507176 -0.00638623 0.999967 
0.00516935 -0.00460049 0.999976 
0.00542744 -0.00323366 0.99998 
0.00565784 -0.00224007 0.999982 
0.00579177 -0.00151964 0.999982 
0.0058454 -0.000884536 0.999983 
0.00589684 -0.000285029 0.999983 
0.00598136 0.000233967 0.999982 
0.00609369 0.000664023 0.999981 
0.00597057 0.00101483 0.999982 
0.00610557 0.00128893 0.999981 
0.00613986 0.00154447 0.99998 
0.00612573 0.00188915 0.99998 
0.00624015 0.00243087 0.999978 
0.00635286 0.00321042 0.999975 
0.00642481 0.0042376 0.999971 
0.00623069 0.00540736 0.999966 
0.00656843 0.00686768 0.999955 
0.00695562 0.00871224 0.999938 
0.00724296 0.0109107 0.999915 
0.00799518 0.014156 0.999868 
0.00889769 0.0184206 0.999791 
0.010851 0.025137 0.999625 
0.0133981 0.0330738 0.999363 
0.0167966 0.0420587 0.998974 
0.0227536 0.0552071 0.998216 
0.0323515 0.0735945 0.996764 
0.0479676 0.104693 0.993348 
0.115444 0.155189 0.981117 
0.204353 0.256833 0.944604 
0.313922 0.377617 0.871125 
0.308847 0.660706 0.684165 
0.0968685 0.949498 0.298443 
-0.164868 0.872831 -0.459331 
-0.303124 0.457765 -0.835804 
-0.175674 0.207083 -0.962422 
-0.0944885 0.13153 -0.986799 
-0.0561218 0.100539 -0.993349 
-0.0391296 0.0798221 -0.996041 
-0.0253899 0.0589965 -0.997936 
-0.0183033 0.0448789 -0.998825 
-0.013262 0.0333051 -0.999358 
-0.0103777 0.0249952 -0.999634 
-0.00925865 0.0198369 -0.999761 
-0.00791492 0.0148423 -0.999859 
-0.00720934 0.011008 -0.999914 
-0.00691016 0.0084577 -0.999941 
-0.00677185 0.00651751 -0.999956 
-0.00666219 0.00500901 -0.999966 
-0.00654179 0.00387246 -0.999971 
-0.00636488 0.00302964 -0.999975 
-0.00628998 0.00238258 -0.999978 
-0.00616645 0.00189952 -0.999979 
-0.00621209 0.00157031 -0.99998 
-0.0061421 0.00129415 -0.999981 
-0.00608077 0.00100953 -0.999982 
-0.00608311 0.000659919 -0.999981 
-0.00595414 0.000243464 -0.999983 
-0.00596586 -0.000258704 -0.999982 
-0.00578392 -0.000866978 -0.999983 
-0.00556755 -0.00151777 -0.999984 
-0.00543469 -0.00224247 -0.999983 
-0.00539472 -0.00327825 -0.99998 
-0.00517116 -0.00476185 -0.999976 
-0.00494712 -0.00667609 -0.999966 