# vtk DataFile Version 3.0 
Exported using Morpho https://github.com/Morpho-lang/morpho 
ASCII 
DATASET UNSTRUCTURED_GRID 

POINTS 1978 float 
-8.48044 -2.82057 1.70129e-05 
-8.23436 -2.82704 -0.000397454 
-8.04906 -2.82521 -0.000431433 
-7.78919 -2.82671 -0.000884171 
-7.47642 -2.82058 -0.000775374 
-7.20851 -2.82306 -0.000600726 
-7.00705 -2.82572 -0.000395397 
-6.76756 -2.81869 -0.000192466 
-6.51401 -2.82387 -0.000275402 
-6.33816 -2.82477 -8.68157e-05 
-6.16317 -2.82364 -0.000237098 
-5.93472 -2.82267 -0.000237019 
-5.71733 -2.82049 -0.000126658 
-5.51376 -2.82272 -6.74681e-05 
-5.29586 -2.82244 -0.000106104 
-5.08895 -2.82164 2.83331e-05 
-4.87633 -2.82241 -1.75817e-05 
-4.66588 -2.82268 -6.79582e-05 
-4.4501 -2.81927 -2.78214e-05 
-4.22224 -2.82094 -1.57665e-05 
-4.00339 -2.81933 0.000174333 
-3.78862 -2.82049 9.33355e-05 
-3.57131 -2.82345 0.000215596 
-3.36748 -2.82331 0.000267822 
-3.15084 -2.82746 0.000391706 
-2.94466 -2.82547 0.000630814 
-2.74226 -2.82924 0.000734926 
-2.54994 -2.8308 0.000850353 
-2.32595 -2.82788 0.000906141 
-2.11754 -2.83094 0.000799774 
-1.89677 -2.82923 0.000643003 
-1.69498 -2.8304 0.000399334 
-1.51082 -2.83077 0.000282744 
-1.29768 -2.83303 0.000262673 
-1.09761 -2.81467 -0.000428324 
-0.872856 -2.81536 0.000806872 
-0.684386 -2.80588 0.00181465 
-0.508451 -2.77898 0.00186313 
-0.218257 -2.75061 0.00220937 
0.0875373 -2.7573 -0.00213035 
0.277791 -2.7841 0.00021872 
0.461404 -2.78087 -0.00363513 
0.658198 -2.79656 -0.00203002 
0.886137 -2.81081 -0.000207777 
1.09219 -2.81481 -0.000392875 
1.26924 -2.82934 0.000212159 
1.4432 -2.82807 -0.000372845 
1.70028 -2.83393 -0.000269446 
1.88286 -2.83052 -0.000854384 
2.10138 -2.82704 -0.000973378 
2.33235 -2.82695 -0.00103966 
2.52542 -2.83055 -0.000900667 
2.75105 -2.82467 -0.000689382 
2.96976 -2.82844 -0.000528389 
3.17205 -2.82549 -0.00045004 
3.373 -2.8236 -0.000271024 
3.59719 -2.82273 -0.000253656 
3.79737 -2.82148 -0.000190568 
4.01396 -2.82022 -4.99091e-05 
4.2481 -2.81985 -0.000109454 
4.45151 -2.82207 8.03754e-06 
4.66634 -2.82236 0.000129814 
4.87109 -2.82204 9.21555e-05 
5.07847 -2.82226 7.20187e-05 
5.28768 -2.82175 5.89231e-05 
5.50168 -2.82084 0.000145774 
5.70547 -2.82283 3.86742e-05 
5.92095 -2.82131 0.000242048 
6.14626 -2.82153 0.00025532 
6.34648 -2.82227 0.000142501 
6.58227 -2.82249 0.000358242 
6.80241 -2.82272 0.000100011 
7.0021 -2.82244 0.000500477 
7.27104 -2.82145 0.000651202 
7.50461 -2.82631 0.000740273 
7.75034 -2.82376 0.000747894 
8.0148 -2.82675 0.000455588 
8.20276 -2.82869 0.000414491 
8.47671 -2.8176 6.67495e-06 
-8.48201 -2.56449 0.000365195 
-8.27911 -2.61356 0.000235573 
-8.04234 -2.53695 0.000100231 
-7.85477 -2.62154 -0.000136228 
-7.57732 -2.65349 -0.000165232 
-7.26429 -2.62435 7.99425e-05 
-7.01013 -2.5631 1.81459e-05 
-6.80744 -2.6016 -1.03928e-05 
-6.55883 -2.61792 1.0731e-05 
-6.3253 -2.53043 1.53211e-05 
-6.10895 -2.60272 5.1863e-05 
-5.88777 -2.59012 0.000104176 
-5.67761 -2.57309 6.44114e-05 
-5.46159 -2.59293 -6.13511e-05 
-5.24731 -2.58354 -3.30009e-05 
-5.03261 -2.59011 -5.27351e-05 
-4.81989 -2.58685 -2.38345e-05 
-4.60223 -2.58963 -7.9264e-05 
-4.37615 -2.59522 -7.87366e-05 
-4.15257 -2.58535 -8.98661e-05 
-3.9368 -2.57904 -8.09066e-05 
-3.72099 -2.58619 -8.2373e-05 
-3.51278 -2.57988 -5.8682e-05 
-3.2968 -2.60077 -7.71503e-05 
-3.08649 -2.59564 -0.000178647 
-2.87696 -2.59523 -0.000211024 
-2.68095 -2.58955 -0.000287012 
-2.46948 -2.62396 -0.000227426 
-2.24762 -2.60806 -0.000137967 
-2.0284 -2.61888 -9.87708e-05 
-1.81324 -2.58677 -0.000162555 
-1.61818 -2.56174 7.00846e-05 
-1.41635 -2.59484 -0.00016451 
-1.2179 -2.56947 -0.00107723 
-0.993855 -2.5898 -0.000652333 
-0.788406 -2.53601 -0.00215447 
-0.607774 -2.47826 -0.00233498 
-0.414522 -2.47597 -0.00417881 
-0.229166 -2.54623 -0.00252118 
-0.0206575 -2.48363 0.0040474 
0.206122 -2.44165 -0.000786145 
0.42448 -2.47402 0.00354423 
0.635028 -2.49467 0.00258751 
0.835816 -2.57414 0.00138357 
1.0607 -2.56867 0.000923661 
1.27131 -2.5542 0.000519706 
1.51152 -2.6514 0.000326425 
1.70049 -2.58145 5.05108e-05 
1.91961 -2.62105 0.000271948 
2.15655 -2.62729 0.000306133 
2.36191 -2.588 0.000188959 
2.57799 -2.62164 0.000206388 
2.80391 -2.60905 0.000137241 
3.00866 -2.5934 0.000193951 
3.21291 -2.58559 0.000176122 
3.43112 -2.60473 0.000116164 
3.63421 -2.57283 0.000128121 
3.84927 -2.58589 8.49389e-05 
4.08026 -2.59961 9.0379e-05 
4.29134 -2.56785 8.62996e-05 
4.50832 -2.58718 4.86401e-05 
4.72039 -2.58003 -5.16205e-05 
4.9349 -2.58813 -8.64806e-05 
5.14808 -2.59071 4.40593e-05 
5.36604 -2.59358 7.06635e-05 
5.57796 -2.57911 1.0947e-05 
5.79186 -2.59304 -2.03628e-05 
6.01855 -2.59969 -4.90761e-05 
6.23123 -2.56756 -4.26264e-05 
6.4527 -2.60566 1.97669e-05 
6.68274 -2.58518 2.11703e-05 
6.89326 -2.55725 -0.000126503 
7.12143 -2.62442 -3.08393e-05 
7.37459 -2.59582 5.87438e-05 
7.6143 -2.61037 5.52353e-06 
7.87366 -2.62394 -4.22922e-05 
8.07887 -2.54146 -0.000104523 
8.30021 -2.62956 -0.000194863 
8.48476 -2.52653 -0.000595406 
-8.47883 -2.37207 0.000590503 
-8.19702 -2.36637 0.000132114 
-7.93588 -2.29748 1.02759e-05 
-7.7301 -2.44175 -8.20588e-05 
-7.58492 -2.28576 -5.76623e-05 
-7.43429 -2.46928 -3.55779e-06 
-7.17033 -2.38992 4.63886e-07 
-6.93911 -2.3118 -7.21094e-06 
-6.71402 -2.39882 -4.79685e-05 
-6.49623 -2.37096 -7.77316e-05 
-6.21118 -2.33242 -4.25326e-05 
-6.00916 -2.36588 -2.66445e-05 
-5.79571 -2.34434 2.05623e-05 
-5.57049 -2.3504 -0.000125795 
-5.35914 -2.3564 -0.000187876 
-5.13831 -2.35572 -0.000155396 
-4.9262 -2.35427 -7.49097e-05 
-4.7075 -2.35956 -6.36793e-05 
-4.48191 -2.36682 -3.08127e-05 
-4.25961 -2.36018 -9.3798e-05 
-4.04066 -2.34256 -0.000136504 
-3.82333 -2.34636 -0.000192594 
-3.61595 -2.34234 -0.000139683 
-3.40157 -2.36378 -5.34341e-05 
-3.19487 -2.36999 -8.54009e-05 
-2.98115 -2.37198 -0.000140095 
-2.7764 -2.35223 -7.35612e-05 
-2.56671 -2.38739 0.000130299 
-2.36033 -2.40707 0.000290408 
-2.12621 -2.39782 0.000280106 
-1.91378 -2.37893 0.00024734 
-1.69615 -2.32041 7.26154e-05 
-1.48074 -2.33254 9.93437e-05 
-1.28969 -2.31167 -0.000496669 
-1.073 -2.35139 -0.00130481 
-0.841504 -2.30964 0.000531664 
-0.6215 -2.16858 -0.00221352 
-0.414399 -2.16074 -0.000324894 
-0.209199 -2.21306 -0.00144445 
0.0141915 -2.15655 0.000579232 
0.226683 -2.13811 0.00157185 
0.430078 -2.1375 0.00198662 
0.632722 -2.19576 0.00349639 
0.847635 -2.30934 0.00112089 
1.06167 -2.325 0.00133311 
1.25357 -2.29336 -0.00015335 
1.45848 -2.42832 0.000205995 
1.65586 -2.34677 0.000166127 
1.86898 -2.39604 -0.000249333 
2.08812 -2.42705 -0.000405471 
2.30711 -2.36941 -0.000205221 
2.53043 -2.39149 -7.63698e-05 
2.73754 -2.4026 -6.03768e-05 
2.95675 -2.3607 0.000190468 
3.15993 -2.35192 0.000105391 
3.37411 -2.37588 4.70549e-05 
3.57754 -2.3373 6.59035e-05 
3.78893 -2.34763 0.000161459 
4.00547 -2.3732 0.000186019 
4.21675 -2.33553 0.000131289 
4.44139 -2.34839 8.12439e-05 
4.65457 -2.34344 9.44902e-05 
4.87125 -2.35426 8.98425e-06 
5.08543 -2.35576 0.000131863 
5.29854 -2.36623 0.000144063 
5.51191 -2.35036 8.98882e-05 
5.73177 -2.35608 -1.96108e-06 
5.94842 -2.37726 -2.29013e-05 
6.16548 -2.33901 7.09962e-06 
6.39918 -2.36359 6.16235e-05 
6.61294 -2.36303 1.78534e-05 
6.83324 -2.31596 -4.73642e-05 
7.0668 -2.37496 -1.37959e-05 
7.28417 -2.39613 6.48209e-05 
7.54589 -2.38081 2.16426e-05 
7.7872 -2.41517 6.97571e-05 
8.00106 -2.31359 -8.79942e-05 
8.2555 -2.36827 9.27623e-05 
8.48123 -2.2906 -0.000608125 
-8.4763 -2.11681 0.000425684 
-8.26112 -2.17412 0.000219647 
-8.0711 -2.07346 7.29968e-05 
-7.78926 -2.1344 -9.9532e-05 
-7.52842 -2.05971 -0.000226119 
-7.33186 -2.23778 -0.000115067 
-7.09249 -2.12821 5.82901e-05 
-6.79554 -2.1364 6.1414e-05 
-6.59526 -2.14288 2.89199e-05 
-6.35892 -2.16822 8.60156e-06 
-6.11527 -2.09269 4.63883e-05 
-5.91842 -2.11778 0.000141434 
-5.69122 -2.12445 0.0001478 
-5.47196 -2.11611 1.78885e-05 
-5.25774 -2.13078 4.54621e-05 
-5.04164 -2.12037 9.78484e-05 
-4.82333 -2.12807 0.000201164 
-4.59996 -2.13923 0.000261544 
-4.3795 -2.13375 0.00028943 
-4.16384 -2.11843 0.00022512 
-3.94351 -2.11072 0.000188418 
-3.73429 -2.10468 0.000232512 
-3.51595 -2.12501 0.000363705 
-3.30769 -2.13368 0.000379637 
-3.09582 -2.14559 0.000328043 
-2.89057 -2.13131 0.000275004 
-2.66839 -2.14103 0.000341093 
-2.46457 -2.1641 0.00032262 
-2.25119 -2.19643 0.000302993 
-2.02968 -2.15517 0.000253254 
-1.81467 -2.12601 0.000131455 
-1.56402 -2.09359 -0.000216293 
-1.35892 -2.03928 -3.68866e-05 
-1.18007 -1.93553 -5.3499e-05 
-1.07442 -2.1035 -0.000670656 
-0.834788 -2.06401 0.000322304 
-0.577858 -1.86089 -0.00202972 
-0.356402 -1.84348 -0.00202497 
-0.132734 -1.877 0.00125706 
0.0584662 -1.71161 -0.00114656 
0.232143 -1.77989 0.00136331 
0.375816 -1.6406 0.00116538 
0.546838 -1.85303 -0.000864211 
0.745906 -1.94443 0.00287664 
0.946534 -2.05353 -0.000142699 
1.17999 -2.06028 0.00122375 
1.44904 -2.17771 8.74051e-05 
1.66711 -2.11564 -0.000179095 
1.88762 -2.17476 -0.000410245 
2.11255 -2.20553 -0.000291802 
2.3603 -2.16009 -0.000122541 
2.57039 -2.15861 -0.000340886 
2.77929 -2.17398 -0.000373663 
2.98565 -2.1167 -0.000321353 
3.20446 -2.12995 -0.000390715 
3.40413 -2.12932 -0.000403461 
3.61927 -2.10503 -0.000256518 
3.83569 -2.12244 -0.000253628 
4.03802 -2.1286 -0.000201409 
4.26563 -2.11233 -0.000255384 
4.47804 -2.1099 -0.000240505 
4.69904 -2.11282 -0.000196482 
4.91454 -2.12236 -0.000168908 
5.12967 -2.12329 -9.58118e-05 
5.3413 -2.13155 -5.0728e-05 
5.56443 -2.12649 -7.10998e-05 
5.78314 -2.12932 -0.000171718 
5.9908 -2.13562 -0.000115749 
6.23352 -2.12636 -6.34603e-05 
6.4469 -2.1198 -2.94456e-05 
6.65837 -2.11648 -5.61429e-05 
6.91666 -2.11219 -6.51836e-05 
7.13409 -2.13775 -2.88751e-06 
7.36714 -2.18604 0.000152276 
7.55686 -2.08938 0.000217014 
7.74101 -2.18552 0.000189449 
7.9546 -2.08245 4.58218e-05 
8.2032 -2.14565 4.38097e-05 
8.47846 -2.09312 -0.000304988 
-8.47376 -1.79886 0.000642142 
-8.30266 -1.90349 0.000142888 
-7.90011 -1.91292 6.00647e-05 
-7.66779 -1.88623 -0.000137987 
[...]
POINT_DATA 1978 
VECTORS vectors float
0.102296 -0.15188 0.98267 
0.112013 -0.117225 0.988789 
0.119243 -0.0953876 0.990591 
0.129157 -0.0702186 0.991901 
0.140605 -0.0509539 0.991684 
0.146599 -0.0412611 0.991108 
0.150819 -0.0369028 0.990426 
0.152344 -0.0320085 0.989969 
0.154679 -0.0289067 0.990039 
0.153859 -0.0271797 0.989202 
0.153961 -0.0244508 0.990142 
0.155364 -0.0182311 0.989621 
0.157015 -0.0176599 0.989662 
0.158008 -0.0168867 0.989608 
0.157148 -0.0148576 0.98962 
0.156546 -0.0144289 0.989725 
0.157137 -0.012934 0.98966 
0.156785 -0.0114697 0.989801 
0.1577 -0.0105608 0.989666 
0.156729 -0.00876468 0.989866 
0.156053 -0.00651927 0.990027 
0.153823 -0.00367716 0.990456 
0.150702 -0.000125402 0.990941 
0.146343 0.00524301 0.991558 
0.140341 0.0137538 0.992281 
0.133965 0.0249929 0.993088 
0.125543 0.0400451 0.993719 
0.116837 0.0591489 0.993828 
0.10363 0.0871851 0.993356 
0.0865135 0.120118 0.991512 
0.0629125 0.168451 0.986197 
0.0393047 0.227018 0.975756 
0.0153652 0.29556 0.957573 
-0.0135487 0.393912 0.921016 
-0.0385349 0.50599 0.863184 
-0.0567249 0.643451 0.764355 
-0.0613234 0.753993 0.653807 
-0.0567311 0.850138 0.52184 
-0.0316887 0.968899 0.239072 
0.00985669 0.991976 -0.10263 
0.0377717 0.951165 -0.299554 
0.0541292 0.877319 -0.474031 
0.0632231 0.771657 -0.63191 
0.0569772 0.631913 -0.77367 
0.0397507 0.507794 -0.862219 
0.0194551 0.409702 -0.913132 
-0.0041484 0.325423 -0.947564 
-0.0395622 0.224751 -0.975851 
-0.0609868 0.171256 -0.985997 
-0.085369 0.121866 -0.991461 
-0.104843 0.0859039 -0.993335 
-0.117741 0.0618683 -0.993645 
-0.126112 0.0403914 -0.993606 
-0.134431 0.0241218 -0.992988 
-0.140889 0.0127846 -0.992326 
-0.146003 0.00464334 -0.991498 
-0.151249 -0.00120831 -0.990757 
-0.154458 -0.0045005 -0.990343 
-0.155337 -0.00662764 -0.990052 
-0.156819 -0.00895643 -0.989907 
-0.156663 -0.00992563 -0.989886 
-0.157469 -0.0114608 -0.989606 
-0.155823 -0.0119213 -0.989905 
-0.157853 -0.0136422 -0.989478 
-0.156376 -0.0154111 -0.989584 
-0.158058 -0.0162757 -0.989507 
-0.158079 -0.0186359 -0.989414 
-0.15578 -0.0190038 -0.989671 
-0.153904 -0.0235947 -0.990182 
-0.153503 -0.0273131 -0.990152 
-0.153426 -0.0293929 -0.990024 
-0.151817 -0.0333517 -0.99048 
-0.150019 -0.0368507 -0.990455 
-0.146204 -0.0424039 -0.990813 
-0.140369 -0.0518065 -0.99155 
-0.131199 -0.0683484 -0.99154 
-0.120459 -0.0932389 -0.99087 
-0.113942 -0.11605 -0.989007 
-0.105789 -0.15521 -0.98206 
0.0751043 -0.160394 0.985986 
0.0884549 -0.130917 0.992653 
0.0882904 -0.104144 0.997752 
0.104127 -0.0832829 0.997995 
0.116205 -0.0614606 0.998711 
0.119906 -0.0458242 0.998733 
0.116995 -0.0395583 0.999487 
0.123313 -0.0345549 0.998466 
0.127284 -0.0292558 0.997949 
0.117093 -0.0261218 1.00036 
0.126301 -0.0232875 0.998357 
0.125498 -0.0197086 0.998323 
0.124614 -0.0178625 0.998634 
0.127793 -0.0160514 0.998203 
0.125801 -0.0141863 0.998374 
0.126058 -0.0132706 0.998315 
0.125857 -0.012493 0.998451 
0.126467 -0.0116158 0.998354 
0.127421 -0.0096856 0.9984 
0.125031 -0.00683193 0.99882 
0.123525 -0.00357256 0.998945 
0.122466 0.000591949 0.999066 
0.118326 0.00629849 0.999501 
0.115994 0.0142605 0.999608 
0.109304 0.0253451 1.00008 
0.102426 0.0394585 1.00031 
0.094527 0.0570339 1.0003 
0.0882832 0.079708 0.999229 
0.0736376 0.113683 0.997126 
0.0575322 0.157343 0.992102 
0.0367122 0.21694 0.982171 
0.0182804 0.283547 0.965146 
0.000351449 0.362232 0.937778 
-0.0173357 0.459835 0.892703 
-0.0333826 0.583861 0.813773 
-0.0379478 0.703128 0.71124 
-0.0348124 0.804817 0.587078 
-0.030088 0.897099 0.426448 
-0.0221149 0.960661 0.247115 
-0.00335413 0.989591 0.0217415 
0.0110391 0.965685 -0.221277 
0.0271757 0.892508 -0.435727 
0.0350436 0.789985 -0.607288 
0.0385854 0.674116 -0.739533 
0.0284616 0.543797 -0.841653 
0.0130402 0.432502 -0.907949 
-0.00991129 0.314714 -0.954711 
-0.0257966 0.251968 -0.97355 
-0.0486501 0.18266 -0.9881 
-0.0695669 0.128456 -0.995588 
-0.079522 0.0965655 -0.998798 
-0.0943527 0.0670412 -0.999715 
-0.100989 0.0452203 -1.0003 
-0.106272 0.0298458 -1.00044 
-0.111703 0.018198 -1.00005 
-0.119233 0.00842921 -0.999241 
-0.119505 0.00296461 -0.999404 
-0.123554 -0.00183525 -0.998972 
-0.126709 -0.00594452 -0.99848 
-0.123525 -0.00888796 -0.998964 
-0.125734 -0.0108791 -0.998529 
-0.124597 -0.0119251 -0.998606 
-0.125312 -0.0121723 -0.998426 
-0.126821 -0.0133911 -0.998128 
-0.126967 -0.0151019 -0.998106 
-0.1262 -0.0169377 -0.998305 
-0.126922 -0.0191143 -0.998058 
-0.126512 -0.0216837 -0.99822 
-0.121909 -0.0250212 -0.998904 
-0.125518 -0.0283797 -0.998154 
-0.122194 -0.0325873 -0.998726 
-0.117331 -0.0371252 -0.999314 
-0.12241 -0.0423576 -0.998249 
-0.113918 -0.0526715 -0.999339 
-0.11006 -0.0653262 -0.998836 
-0.103072 -0.0856357 -0.997584 
-0.0878736 -0.108233 -0.997026 
-0.090747 -0.133909 -0.991774 
-0.0744285 -0.162008 -0.985566 
0.0595119 -0.168196 0.985932 
0.0698359 -0.125177 0.996705 
0.0709478 -0.0984315 1.00052 
0.0896601 -0.0769951 0.999255 
0.0789534 -0.0691434 1.00164 
0.0997827 -0.0573133 0.999905 
0.0965413 -0.0463839 1.00151 
0.0903636 -0.0392024 1.002 
0.10119 -0.0330415 1.00085 
0.0991831 -0.0288048 1.00137 
0.0960324 -0.0250475 1.00162 
0.100156 -0.0225965 1.00104 
0.0989855 -0.019546 1.00116 
0.0999883 -0.0165577 1.00121 
0.100734 -0.0141735 1.0011 
0.0997693 -0.012678 1.00117 
0.0994973 -0.012593 1.00113 
0.100825 -0.0124819 1.00113 
0.101056 -0.0109289 1.00129 
0.100289 -0.00792594 1.00147 
0.097522 -0.00406163 1.00167 
0.0967524 0.0004818 1.00172 
0.0947528 0.00620806 1.00189 
0.0931182 0.0141231 1.00183 
0.0892265 0.0245936 1.00199 
0.0836045 0.0384869 1.00207 
0.0752254 0.0570167 1.00188 
0.0704445 0.0797769 1.0007 
0.0626345 0.107931 0.99863 
0.0490429 0.151794 0.993742 
0.0340139 0.204096 0.985108 
0.0166098 0.274165 0.968197 
0.00247802 0.354035 0.941334 
-0.00989325 0.440981 0.903673 
-0.0220241 0.54759 0.840622 
-0.0273298 0.680034 0.734327 
-0.0240122 0.803472 0.588681 
-0.0196425 0.899986 0.420887 
-0.0134101 0.965801 0.221401 
-0.00202084 0.989075 -0.0188983 
0.00732964 0.960286 -0.244564 
0.0143695 0.891254 -0.438346 
0.0215565 0.795379 -0.600187 
0.0247935 0.675407 -0.738422 
0.0197274 0.555378 -0.83505 
0.010672 0.456813 -0.895032 
-0.00243536 0.354469 -0.940311 
-0.0151096 0.285032 -0.964615 
-0.0314464 0.215256 -0.982556 
-0.0482841 0.15786 -0.992859 
-0.0567964 0.11928 -0.997808 
-0.0693508 0.0842561 -1.00048 
-0.0781617 0.0594606 -1.00162 
-0.0817665 0.0408341 -1.00231 
-0.0864961 0.0270115 -1.0023 
-0.0936542 0.0154251 -1.00178 
-0.0932498 0.007991 -1.00194 
-0.0970634 0.00146967 -1.00164 
-0.101135 -0.00340116 -1.00129 
-0.0980555 -0.00702586 -1.00161 
-0.0994146 -0.0104505 -1.00137 
-0.0983209 -0.012459 -1.00138 
-0.0997874 -0.0128841 -1.00118 
-0.0993741 -0.0128651 -1.00122 
-0.101212 -0.013886 -1.00097 
-0.0997269 -0.0159093 -1.00108 
-0.099915 -0.0187429 -1.00102 
-0.101701 -0.0217919 -1.00086 
-0.0966818 -0.0248599 -1.00148 
-0.0981318 -0.0275273 -1.00125 
-0.0971167 -0.0316803 -1.00128 
-0.0916623 -0.0368179 -1.00177 
-0.0950408 -0.0427908 -1.00122 
-0.0946606 -0.0518199 -1.00128 
-0.0882625 -0.0656303 -1.00206 
-0.0852642 -0.0834403 -0.998604 
-0.0714925 -0.105418 -0.999297 
-0.0679461 -0.133547 -0.995349 
-0.0554903 -0.168413 -0.98649 
0.0430619 -0.175489 0.985989 
0.0545101 -0.141392 0.99537 
0.0527267 -0.11843 0.998895 
0.0625926 -0.0878091 1.00147 
0.0615177 -0.0685783 1.00343 
0.0785597 -0.0552457 1.00258 
0.0722722 -0.0452923 1.00447 
0.0756833 -0.0360376 1.00351 
0.0771353 -0.0312899 1.00335 
0.0800799 -0.0265634 1.00309 
0.0750282 -0.0244785 1.00387 
0.0775766 -0.021656 1.00365 
0.0789897 -0.0176565 1.00353 
0.078001 -0.0142678 1.00361 
0.0786696 -0.0122027 1.00344 
0.077386 -0.011947 1.00359 
0.0780116 -0.0127794 1.00354 
0.0795275 -0.0123533 1.00346 
0.0790895 -0.00948236 1.00362 
0.0770874 -0.00531113 1.00383 
0.0758123 -0.000452719 1.00393 
0.0742821 0.00523274 1.00409 
0.0732944 0.012878 1.0039 
0.0705939 0.0227782 1.00393 
0.0670911 0.0361179 1.00391 
0.0606601 0.053542 1.00353 
0.0543734 0.0776569 1.00234 
0.048665 0.104803 1.00034 
0.0419557 0.13925 0.996444 
0.0291158 0.188675 0.98879 
0.0171371 0.246932 0.976078 
0.00346071 0.333151 0.949709 
-0.00579958 0.421721 0.91244 
-0.0111305 0.510067 0.865735 
-0.016485 0.558837 0.833704 
-0.0191483 0.691517 0.723174 
-0.0138214 0.830489 0.549437 
-0.0104073 0.923918 0.360764 
-0.00531561 0.980477 0.136992 
0.000144951 0.985424 -0.0691772 
0.00530369 0.958193 -0.251045 
0.00678631 0.913665 -0.387706 
0.011834 0.840624 -0.536067 
0.015367 0.737648 -0.673648 
0.0166785 0.626827 -0.781984 
0.0110753 0.505283 -0.867817 
0.000832345 0.375337 -0.933295 
-0.00882324 0.295282 -0.963152 
-0.0226046 0.224026 -0.981304 
-0.0357263 0.166982 -0.992374 
-0.0438262 0.121757 -0.998681 
-0.0517411 0.0902207 -1.00147 
-0.0601814 0.0642705 -1.00293 
-0.0622124 0.0455446 -1.004 
-0.0687154 0.0289952 -1.00399 
-0.072095 0.0178871 -1.004 
-0.0733876 0.00888307 -1.00417 
-0.0764526 0.00207419 -1.00379 
-0.0776065 -0.00257829 -1.00367 
-0.0770204 -0.00697393 -1.00385 
-0.077525 -0.0106927 -1.00382 
-0.0775385 -0.0128962 -1.00367 
-0.0776197 -0.0128525 -1.0036 
-0.077734 -0.0122298 -1.00367 
-0.0785375 -0.0131677 -1.0035 
-0.0791201 -0.0160201 -1.00346 
-0.0789131 -0.0195172 -1.0035 
-0.078717 -0.0227845 -1.00345 
-0.0773396 -0.0257598 -1.0036 
-0.0753688 -0.0282634 -1.00384 
-0.0747542 -0.0326324 -1.0038 
-0.0723147 -0.0396044 -1.00388 
-0.0723143 -0.0466563 -1.00365 
-0.0743657 -0.0580423 -1.00222 
-0.0632439 -0.0701977 -1.00311 
-0.0670311 -0.0825766 -1.00089 
-0.0560414 -0.105145 -0.999379 
-0.0547006 -0.132805 -0.9968 
-0.0431295 -0.175835 -0.986353 
0.0311087 -0.183993 0.984904 
0.0391594 -0.154072 0.994134 
0.0472581 -0.103058 1.00005 
0.0488486 -0.0818874 1.0034 
0.0466064 -0.0660951 1.00623 
0.0602946 -0.0555183 1.00405 
0.0516371 -0.0494527 1.00568 
0.0607642 -0.0408313 1.00518 
0.0569414 -0.0350582 1.00552 
0.0615605 -0.0289965 1.00539 
0.0621358 -0.0256788 1.00535 
0.0570731 -0.0238409 1.00552 
0.0615257 -0.0198113 1.00531 
0.0614143 -0.0155973 1.00535 
0.0605169 -0.0125853 1.00538 
0.0604576 -0.0114819 1.00531 
0.0600287 -0.0123286 1.0053 
0.061512 -0.0130438 1.00527 
0.0617497 -0.0112405 1.0053 
0.0603915 -0.00729625 1.00539 
0.0596494 -0.0022689 1.00537 
0.0576481 0.00297406 1.00549 
0.0571781 0.00972091 1.00542 
0.0552725 0.0182862 1.00533 
0.0532262 0.0298478 1.00528 
0.0492104 0.0453038 1.00497 
0.0444852 0.0661653 1.00402 
0.0385196 0.0912568 1.00248 
0.0338334 0.120604 0.999767 
0.0276867 0.157883 0.994877 
0.0170583 0.210564 0.985267 
0.00726599 0.280181 0.967862 
-0.00126503 0.359907 0.941445 
-0.00777455 0.469119 0.89018 
-0.0131839 0.654487 0.758431 
-0.011404 0.769119 0.636397 
-0.00675294 0.869272 0.489849 
-0.0035379 0.92414 0.365494 
-0.00365241 0.965392 0.220329 
0.00107203 0.987902 0.0375133 
0.00256194 0.971808 -0.182106 
0.0041739 0.909518 -0.396558 
0.00852014 0.806014 -0.584449 
0.00987704 0.698004 -0.718555 
0.0106298 0.588072 -0.813263 
0.0080909 0.496637 -0.874297 
0.00480821 0.414974 -0.916793 
-0.000570374 0.347464 -0.944668 
-0.0100248 0.264034 -0.972226 
-0.0207483 0.200257 -0.987347 
-0.0294922 0.150351 -0.996006 
-0.0352039 0.110599 -1.00098 
-0.0423824 0.0799637 -1.00352 
-0.0458143 0.0583479 -1.00476 
-0.0511768 0.0378016 -1.00522 
-0.0538694 0.023804 -1.00543 
-0.0562159 0.013776 -1.00552 
-0.0584178 0.0058662 -1.00542 
-0.0588097 0.000119431 -1.00537 
-0.06067 -0.00480368 -1.0053 
-0.0595645 -0.00939688 -1.00545 
-0.0601323 -0.0122387 -1.0054 
-0.0598068 -0.012814 -1.00535 
-0.059884 -0.011944 -1.00532 
-0.0602694 -0.0119676 -1.00524 
-0.0616991 -0.0141005 -1.00524 
-0.0618038 -0.0177908 -1.00527 
-0.0606366 -0.0218825 -1.00524 
-0.0617327 -0.0251005 -1.00514 
-0.0581525 -0.0276239 -1.00548 
-0.0567907 -0.0317426 -1.00546 
-0.0585928 -0.037837 -1.00529 
-0.0550264 -0.045549 -1.00616 
-0.0571307 -0.0561415 -1.00518 
-0.0500652 -0.0718131 -1.00489 
-0.0494459 -0.0903685 -1.00229 
-0.0423504 -0.118883 -0.999302 
-0.0427264 -0.144697 -0.995823 
-0.0335099 -0.183767 -0.984785 
0.0231019 -0.190052 0.983778 
0.0267855 -0.154854 0.994639 
0.0380799 -0.130653 0.998352 
0.0362683 -0.104495 1.00137 
0.0374229 -0.0831646 1.00335 
0.0391076 -0.0584404 1.00538 
0.0408334 -0.0454877 1.00563 
0.0434264 -0.0391168 1.0057 
0.044332 -0.0316715 1.00593 
0.0459153 -0.027775 1.00599 
0.0447739 -0.0257925 1.00584 
0.0444052 -0.0213582 1.00574 
0.0468339 -0.0170396 1.00575 
0.0462863 -0.0132302 1.00584 
0.0452419 -0.0114916 1.00583 
0.0458193 -0.0122427 1.00575 
0.0468217 -0.0134928 1.00575 
0.0471991 -0.0124254 1.0058 
0.0463944 -0.00887581 1.00592 
0.0461794 -0.00400915 1.0059 
0.0443569 0.00118009 1.00581 
0.0440313 0.00757638 1.00578 
0.0424165 0.0160162 1.00576 
0.0407015 0.0274402 1.00571 
0.0377268 0.042286 1.00536 
0.034777 0.0620755 1.00451 
0.0294793 0.0871421 1.00313 
0.0243844 0.119082 1.00028 
0.0194013 0.156986 0.995083 
0.0122179 0.205759 0.986424 
0.00453255 0.280966 0.967682 
-0.00283463 0.38159 0.931832 
-0.0060592 0.478989 0.884468 
-0.00616724 0.604777 0.7995 
-0.00881441 0.57942 0.819897 
-0.00651103 0.697652 0.723334 
-0.00567344 0.78215 0.615595 
-0.00228837 0.868264 0.489977 
0.000591157 0.972384 0.192071 
0.00140358 0.989045 0.0222385 
0.00161003 0.976467 -0.168947 
0.000718226 0.94808 -0.295311 
0.00450111 0.865456 -0.493134 
0.00759859 0.735514 -0.675028 
0.00788778 0.613429 -0.792796 
0.00679011 0.52239 -0.858978 
0.00497284 0.421844 -0.913959 
-0.000301069 0.326943 -0.953649 
-0.00754336 0.249931 -0.976061 
-0.0159157 0.190378 -0.988626 
-0.0224167 0.143109 -0.998099 
-0.0269591 0.104792 -1.00188 
-0.0303926 0.0799772 -1.00376 
-0.0361688 0.0545677 -1.0051 
-0.0390055 0.0358449 -1.00567 
-0.0406462 0.0221741 -1.0058 
-0.0440309 0.0115656 -1.0058 
-0.0446816 0.00461226 -1.00574 
-0.0452034 -0.000788656 -1.00576 
-0.0469522 -0.00582395 -1.00571 
-0.0456886 -0.0106572 -1.00571 
-0.0462351 -0.0133526 -1.00571 
-0.0451966 -0.0134249 -1.00572 
-0.0455386 -0.0119725 -1.00572 
-0.0455024 -0.012032 -1.00584 
-0.0467218 -0.0145982 -1.00591 
-0.0462006 -0.0187686 -1.00583 
-0.0457783 -0.0229432 -1.00575 
-0.0463601 -0.0262556 -1.00581 
-0.0425361 -0.0294118 -1.00594 
-0.0420504 -0.0340857 -1.0059 
-0.0442884 -0.0413576 -1.00499 
-0.0397398 -0.0493877 -1.00555 
-0.0420003 -0.0586201 -1.00564 
-0.037697 -0.0751929 -1.00494 
-0.0379124 -0.0943043 -1.00266 
-0.0323925 -0.12107 -0.999405 
-0.0316687 -0.151967 -0.994879 
-0.0248451 -0.188463 -0.983914 
0.0176042 -0.192164 0.983356 
0.0203014 -0.151049 0.995393 
0.0275458 -0.125561 0.999 
0.0255248 -0.0970926 1.00312 
0.0313273 -0.0726517 1.00502 
0.0259573 -0.060231 1.00522 
0.0305652 -0.050269 1.00463 
0.0283664 -0.0416233 1.00644 
0.0331633 -0.0355351 1.00503 
0.0321705 -0.0304541 1.00582 
0.0322729 -0.0281494 1.00579 
0.0343764 -0.0244516 1.00578 
0.0331123 -0.0191699 1.00597 
0.034887 -0.0148832 1.00593 
0.0339504 -0.0122649 1.00587 
0.0335084 -0.01274 1.00579 
0.0351478 -0.0143571 1.00578 
0.0355127 -0.0146619 1.00574 
0.035561 -0.0120241 1.00575 
0.0351557 -0.0073397 1.00586 
0.0344446 -0.00227286 1.00577 
0.0337789 0.00354357 1.00582 
0.0325092 0.01078 1.00589 
0.0312157 0.0206971 1.00591 
0.0292445 0.0335546 1.00579 
0.0272119 0.0511313 1.00526 
0.0237939 0.0730383 1.00425 
0.0194792 0.103223 1.00207 
0.0147328 0.139814 0.997912 
0.0103964 0.182445 0.991127 
0.00497413 0.246826 0.977147 
-0.000893839 0.327872 0.952577 
-0.00364474 0.460835 0.894768 
-0.00395151 0.56383 0.83197 
-0.00371311 0.725046 0.688879 
-0.000631831 0.848364 0.516547 
0.00255926 0.918358 0.383616 
0.0052363 0.969929 0.216747 
0.000930167 0.92812 0.356073 
0.000285473 0.968492 0.19266 
0.000484574 0.98884 -0.0593477 
-0.00507543 0.934158 -0.334345 
0.00300158 0.861101 -0.500885 
0.00306989 0.807488 -0.587368 
0.00486825 0.707663 -0.708877 
0.00550641 0.557917 -0.834462 
0.00426542 0.411695 -0.918139 
0.00148558 0.328824 -0.952387 
-0.00340388 0.25652 -0.974483 
-0.00995324 0.194794 -0.988394 
-0.0115937 0.16179 -0.99433 
-0.0174912 0.127138 -0.998607 
-0.0193876 0.0953722 -1.00266 
-0.0250399 0.0682401 -1.0044 
-0.0278936 0.0473621 -1.00549 
-0.0294449 0.0302903 -1.00604 
-0.0322863 0.0166616 -1.00594 
-0.0333598 0.00793237 -1.00583 
-0.0342635 0.00159847 -1.00593 
-0.0351463 -0.00387412 -1.00592 
-0.0357884 -0.00899513 -1.00587 
-0.0354003 -0.0136847 -1.00586 
-0.0341195 -0.0150905 -1.00585 
-0.034037 -0.01365 -1.0058 
-0.0334452 -0.0122067 -1.0059 
-0.0346351 -0.0134171 -1.00597 
-0.0342443 -0.0171863 -1.00591 
-0.034006 -0.0219126 -1.00583 
-0.0340389 -0.0265465 -1.0058 
-0.0317764 -0.0295291 -1.00592 
-0.0308331 -0.033705 -1.00664 
-0.0316131 -0.0412704 -1.00577 
-0.0295746 -0.050401 -1.00539 
-0.0294707 -0.0624532 -1.00541 
-0.0256462 -0.0789506 -1.00447 
-0.0267178 -0.0964407 -1.00225 
-0.0226573 -0.119561 -0.999424 
-0.0234794 -0.148916 -0.995794 
-0.0188347 -0.191354 -0.983586 
0.0142232 -0.193157 0.983033 
0.016281 -0.153889 0.994754 
0.0198949 -0.118822 0.999829 
0.0172049 -0.097319 1.00216 
0.0214391 -0.0806195 1.00447 
0.0185626 -0.0618564 1.0053 
0.0210997 -0.0486596 1.00567 
0.0189979 -0.0400563 1.00595 
0.0228684 -0.034076 1.00613 
0.019642 -0.0307359 1.0062 
0.0222604 -0.0277639 1.00602 
0.0235675 -0.0233982 1.006 
0.0215656 -0.0178564 1.00633 
0.0231465 -0.0137983 1.00672 
0.0233495 -0.0125345 1.00541 
0.023134 -0.0146428 1.00668 
0.0250215 -0.0162601 1.00543 
0.0247218 -0.0150147 1.00663 
0.0248141 -0.0109393 1.0055 
0.0245637 -0.00582945 1.00604 
0.0244916 -0.000158676 1.00592 
0.0235292 0.00624452 1.00606 
0.0220837 0.0149428 1.00605 
0.02047 0.0262928 1.00592 
0.0192415 0.0411162 1.00572 
0.0167693 0.0601245 1.00508 
0.0143753 0.0864314 1.00347 
0.0107267 0.119517 1.0004 
0.00702445 0.160374 0.994925 
0.00451404 0.215467 0.984754 
0.000551587 0.280877 0.967788 
-0.00283349 0.377115 0.933296 
-0.00336747 0.472856 0.887454 
-0.00151655 0.597353 0.805451 
-0.00135411 0.722484 0.69146 
0.00165308 0.835838 0.541675 
0.00408077 0.909814 0.386602 
0.00696647 0.990077 0.127559 
0.00128346 0.996517 0.0618723 
0.000278873 0.999834 0.0198394 
-0.00227947 0.996756 -0.0503475 
-0.00900586 0.989736 -0.128925 
-0.00574308 0.892314 -0.434391 
-0.000217704 0.797387 -0.600741 
0.00354708 0.664717 -0.750444 
0.00318771 0.587704 -0.813416 
0.00481428 0.48131 -0.882986 
0.00360589 0.392242 -0.927009 
0.00150791 0.301778 -0.960953 
-0.0023865 0.234084 -0.980164 
-0.00670106 0.170827 -0.99302 
-0.0111255 0.121216 -1.00025 
-0.0144632 0.0832503 -1.00377 
-0.017233 0.060366 -1.00508 
-0.019002 0.0407647 -1.0058 
-0.0213556 0.0243894 -1.0061 
-0.0224326 0.0134163 -1.00605 
-0.0236937 0.00516596 -1.00603 
-0.0251444 -0.00125295 -1.00615 
-0.0246963 -0.0062292 -1.00667 
-0.0260122 -0.0113631 -1.00542 
-0.0241912 -0.0153612 -1.00673 
-0.0240202 -0.0164253 -1.00608 
-0.0225865 -0.0145264 -1.00607 
-0.0226981 -0.0126471 -1.00615 
-0.0227423 -0.0140895 -1.00622 
-0.0230786 -0.0185789 -1.00549 
-0.0230857 -0.0239024 -1.00604 
-0.0215274 -0.028078 -1.00662 
-0.0217474 -0.0316018 -1.00531 
-0.020496 -0.0356431 -1.00598 
-0.022459 -0.0417705 -1.00578 
-0.0194544 -0.0489603 -1.00553 
-0.0213506 -0.05961 -1.00535 
-0.0182746 -0.0756036 -1.00468 
-0.018708 -0.0970208 -1.00236 
-0.0171126 -0.124111 -0.998784 
-0.0175174 -0.155829 -0.994493 
-0.0149443 -0.191628 -0.983375 
0.012025 -0.193653 0.983194 
0.0122755 -0.159629 0.99356 
0.0150362 -0.124406 0.998575 
0.0133571 -0.0957885 1.00224 
0.0148744 -0.0759597 1.0047 
0.0116322 -0.0604432 1.00535 
0.0138668 -0.0503798 1.00548 
0.0120654 -0.041605 1.00584 
0.0129628 -0.0340384 1.00621 
0.011602 -0.0301103 1.00682 
0.0125776 -0.0271865 1.00606 
0.0135563 -0.0226427 1.00613 
0.0113882 -0.0172463 1.00617 
0.0122183 -0.013954 1.00546 
0.0136157 -0.0136538 1.00596 
0.0132405 -0.0161462 1.00609 
0.0150721 -0.017781 1.00602 
0.0153247 -0.0164094 1.00613 
0.0154044 -0.0115076 1.00688 
0.0156404 -0.00568446 1.00612 
0.0156 -0.000170023 1.00605 
0.0146898 0.00612638 1.00612 
0.0134076 0.0143586 1.00606 
0.0119021 0.0264838 1.00587 