# vtk DataFile Version 3.0 
Exported using Morpho https://github.com/Morpho-lang/morpho 
ASCII 
DATASET UNSTRUCTURED_GRID 

POINTS 1978 float 
-8.48528 -2.82843 -2.58253e-15 
-8.25836 -2.82843 1.90325e-14 
-8.03557 -2.82843 4.52159e-14 
-7.82483 -2.82843 7.38423e-14 
-7.40314 -2.82843 6.23602e-14 
-7.12358 -2.82843 2.80641e-14 
-6.92224 -2.82843 1.42947e-14 
-6.69857 -2.82843 9.32529e-15 
-6.52505 -2.82843 4.04458e-15 
-6.34554 -2.82843 -9.19418e-16 
-6.16218 -2.82843 -5.1525e-15 
-5.97852 -2.82843 -8.01239e-15 
-5.74044 -2.82843 -1.20662e-14 
-5.53251 -2.82843 -1.52962e-14 
-5.30442 -2.82843 -1.54267e-14 
-5.09046 -2.82843 -1.54121e-14 
-4.87454 -2.82843 -1.5818e-14 
-4.66374 -2.82843 -1.80268e-14 
-4.44154 -2.82843 -2.19211e-14 
-4.22668 -2.82843 -2.63138e-14 
-4.0024 -2.82843 -3.0119e-14 
-3.80554 -2.82843 -3.58092e-14 
-3.60754 -2.82843 -4.43132e-14 
-3.39122 -2.82843 -5.44491e-14 
-3.19178 -2.82843 -6.45025e-14 
-2.98077 -2.82843 -7.40095e-14 
-2.78309 -2.82843 -8.2766e-14 
-2.58286 -2.82843 -8.91564e-14 
-2.38371 -2.82843 -9.19674e-14 
-2.19939 -2.82843 -1.01412e-13 
-1.99526 -2.82843 -1.16486e-13 
-1.73897 -2.82843 -1.1474e-13 
-1.5394 -2.82843 -8.04082e-14 
-1.33505 -2.82843 -7.37669e-14 
-1.14444 -2.82843 -5.05411e-14 
-0.909117 -2.82843 -2.93674e-15 
-0.677625 -2.82843 -7.07278e-15 
-0.433387 -2.82843 -1.34906e-13 
-0.170496 -2.82843 1.76795e-14 
0.0468488 -2.82843 5.60422e-14 
0.308359 -2.82843 5.38964e-14 
0.544399 -2.82843 4.50408e-14 
0.718679 -2.82843 3.46618e-14 
0.916835 -2.82843 4.19403e-14 
1.09972 -2.82843 5.19038e-14 
1.30242 -2.82843 6.67125e-14 
1.50587 -2.82843 7.83875e-14 
1.70651 -2.82843 9.17019e-14 
1.90826 -2.82843 1.01765e-13 
2.12483 -2.82843 1.15163e-13 
2.34357 -2.82843 1.11867e-13 
2.5642 -2.82843 1.01918e-13 
2.77714 -2.82843 8.84953e-14 
2.97828 -2.82843 7.37937e-14 
3.18427 -2.82843 6.29554e-14 
3.3802 -2.82843 5.36194e-14 
3.58337 -2.82843 4.55449e-14 
3.79382 -2.82843 3.78341e-14 
4.00037 -2.82843 3.20016e-14 
4.22667 -2.82843 2.63081e-14 
4.44256 -2.82843 2.10553e-14 
4.65857 -2.82843 1.79382e-14 
4.87816 -2.82843 1.60284e-14 
5.08549 -2.82843 1.46583e-14 
5.29861 -2.82843 1.43639e-14 
5.51285 -2.82843 1.45336e-14 
5.72498 -2.82843 1.29293e-14 
5.94985 -2.82843 9.50343e-15 
6.16347 -2.82843 4.27355e-15 
6.38025 -2.82843 -3.37355e-16 
6.60457 -2.82843 -7.45085e-15 
6.83127 -2.82843 -1.39549e-14 
7.03642 -2.82843 -2.21595e-14 
7.28153 -2.82843 -3.12809e-14 
7.51297 -2.82843 -3.77519e-14 
7.73813 -2.82843 -5.09048e-14 
7.9953 -2.82843 -5.49257e-14 
8.22174 -2.82843 -1.92076e-14 
8.48528 -2.82843 3.49644e-16 
-8.48528 -2.62327 -3.22012e-15 
-8.23857 -2.60789 -4.6056e-15 
-8.02502 -2.57173 -1.4507e-14 
-7.78022 -2.61178 -1.44133e-14 
-7.55242 -2.69982 -1.37716e-14 
-7.24097 -2.6318 -8.33809e-15 
-6.99709 -2.57016 -4.97249e-15 
-6.7818 -2.61591 -6.0178e-15 
-6.56531 -2.56193 -3.01422e-15 
-6.36995 -2.55887 -1.8992e-15 
-6.15094 -2.602 3.58656e-15 
-5.92968 -2.59513 -2.06785e-15 
-5.70957 -2.59054 2.04861e-15 
-5.47743 -2.61321 3.22953e-15 
-5.24584 -2.59909 3.37805e-15 
-5.01953 -2.60128 4.55428e-15 
-4.79978 -2.59464 4.82365e-15 
-4.57659 -2.60771 6.33623e-15 
-4.35149 -2.60194 7.4381e-15 
-4.12426 -2.61063 9.26974e-15 
-3.91005 -2.58233 9.69375e-15 
-3.70619 -2.58515 1.23998e-14 
-3.49209 -2.60754 1.67159e-14 
-3.27551 -2.5928 1.75961e-14 
-3.06137 -2.60755 2.39109e-14 
-2.84514 -2.59408 2.53427e-14 
-2.63559 -2.59713 3.01833e-14 
-2.42366 -2.59478 3.34512e-14 
-2.21418 -2.57307 3.04984e-14 
-2.01695 -2.59414 3.27189e-14 
-1.80057 -2.64577 5.33875e-14 
-1.54512 -2.5828 1.07738e-14 
-1.35142 -2.55965 7.78917e-15 
-1.14194 -2.57409 3.21736e-14 
-0.948172 -2.60794 -5.21664e-14 
-0.793726 -2.40298 -6.24323e-14 
-0.701126 -2.58846 -9.7757e-14 
-0.482598 -2.59495 1.60881e-13 
-0.256679 -2.58469 -1.25267e-14 
-0.0312129 -2.54827 2.04699e-13 
0.200079 -2.6318 -7.59043e-14 
0.445877 -2.60378 7.13024e-14 
0.653323 -2.50558 -5.54859e-14 
0.841584 -2.55673 -2.69618e-16 
1.0373 -2.54677 -3.501e-14 
1.2397 -2.58616 -2.63912e-14 
1.45721 -2.59395 -1.63628e-14 
1.677 -2.59733 -3.41431e-14 
1.8941 -2.59332 -3.19765e-14 
2.11222 -2.60794 -4.87803e-14 
2.34078 -2.60733 -3.69192e-14 
2.56477 -2.60592 -3.77966e-14 
2.77512 -2.59361 -2.72302e-14 
2.98689 -2.59564 -2.37668e-14 
3.19242 -2.58924 -2.1675e-14 
3.40049 -2.59631 -1.81565e-14 
3.61457 -2.60172 -1.45944e-14 
3.82493 -2.59371 -1.07394e-14 
4.04915 -2.61076 -1.01629e-14 
4.27017 -2.5998 -7.75161e-15 
4.48822 -2.59914 -6.47005e-15 
4.70943 -2.60315 -5.86619e-15 
4.92324 -2.59122 -4.58404e-15 
5.13885 -2.59701 -3.88067e-15 
5.35589 -2.59768 -3.0386e-15 
5.57217 -2.59579 -2.22576e-15 
5.79547 -2.60696 -1.63425e-15 
6.01628 -2.59534 -5.51653e-16 
6.23459 -2.59616 3.26818e-16 
6.45821 -2.59954 1.52173e-15 
6.67915 -2.59883 2.74413e-15 
6.89239 -2.57583 3.89056e-15 
7.11978 -2.61357 7.50188e-15 
7.35431 -2.60011 9.1433e-15 
7.57719 -2.58985 9.00833e-15 
7.8147 -2.61626 1.2741e-14 
8.04201 -2.58351 9.28931e-15 
8.27707 -2.61911 2.75056e-15 
8.48528 -2.56914 5.14709e-15 
-8.48528 -2.41569 -1.10389e-15 
-8.24293 -2.38314 7.21053e-16 
-7.99709 -2.34255 -1.35952e-14 
-7.76561 -2.41127 -1.0673e-14 
-7.58317 -2.28072 -1.33434e-14 
-7.48619 -2.50357 7.44682e-16 
-7.2343 -2.41467 -1.59828e-15 
-7.00474 -2.3428 -8.09803e-15 
-6.76302 -2.3818 -1.86016e-15 
-6.52488 -2.32251 -3.23514e-15 
-6.29411 -2.34737 1.06905e-15 
-6.07255 -2.37331 -2.03858e-15 
-5.85234 -2.36584 1.43025e-16 
-5.60698 -2.38377 2.77041e-15 
-5.38584 -2.38542 3.44519e-15 
-5.15537 -2.37501 3.96095e-15 
-4.93648 -2.37019 5.48367e-15 
-4.71061 -2.37393 6.53192e-15 
-4.49169 -2.38394 7.5274e-15 
-4.26158 -2.38667 8.48102e-15 
-4.04977 -2.369 1.11967e-14 
-3.83553 -2.34108 1.431e-14 
-3.61925 -2.36547 1.50527e-14 
-3.4096 -2.37675 1.78822e-14 
-3.18426 -2.37428 2.15868e-14 
-2.97257 -2.37957 2.68963e-14 
-2.75323 -2.36657 2.9719e-14 
-2.54018 -2.36913 3.15744e-14 
-2.32929 -2.35482 4.06546e-14 
-2.113 -2.33329 4.42145e-14 
-1.90003 -2.39163 2.87964e-14 
-1.69086 -2.42894 -2.40631e-15 
-1.45632 -2.31862 2.62155e-14 
-1.22565 -2.33372 2.23241e-14 
-1.00558 -2.31905 4.25929e-14 
-0.708033 -2.19118 -3.49913e-14 
-0.512 -2.34474 -1.14361e-13 
-0.334634 -2.27115 2.51238e-13 
-0.136117 -2.31116 -3.70879e-13 
0.0659532 -2.17205 2.97423e-13 
0.153442 -2.39027 -1.91307e-13 
0.376088 -2.37985 -5.15443e-14 
0.608503 -2.27446 9.65375e-14 
0.844381 -2.27037 1.33579e-14 
1.03612 -2.26414 4.21396e-14 
1.22675 -2.32571 -1.59779e-14 
1.43006 -2.35639 -2.35948e-14 
1.64533 -2.37115 -2.46669e-14 
1.86204 -2.36362 -2.64614e-14 
2.08134 -2.37864 -2.62251e-14 
2.29875 -2.38946 -3.53378e-14 
2.51938 -2.3866 -3.02571e-14 
2.73538 -2.36476 -3.28766e-14 
2.94741 -2.36626 -2.60249e-14 
3.1585 -2.35539 -2.18051e-14 
3.36668 -2.36264 -1.8458e-14 
3.57457 -2.37362 -1.59306e-14 
3.78488 -2.36179 -1.3535e-14 
4.00097 -2.38597 -1.04298e-14 
4.21979 -2.37739 -9.1394e-15 
4.44227 -2.37033 -7.73623e-15 
4.66149 -2.37664 -6.42173e-15 
4.87891 -2.36152 -5.95596e-15 
5.09789 -2.36598 -4.61062e-15 
5.31607 -2.36822 -3.29684e-15 
5.53478 -2.36606 -2.62175e-15 
5.7561 -2.38115 -1.20975e-15 
5.97854 -2.37106 -7.94791e-17 
6.20433 -2.36521 6.50351e-16 
6.42681 -2.37223 1.66351e-15 
6.6531 -2.36183 3.37839e-15 
6.87683 -2.34406 6.45547e-15 
7.10364 -2.38113 7.59278e-15 
7.32986 -2.37853 1.00794e-14 
7.565 -2.35288 8.87224e-15 
7.79049 -2.38667 6.93035e-15 
8.01685 -2.35013 7.5255e-15 
8.25034 -2.38006 -2.58914e-16 
8.48528 -2.34125 2.85616e-15 
-8.48528 -2.14691 -2.31946e-15 
-8.27911 -2.17066 -1.98389e-16 
-8.07185 -2.10036 -7.37919e-15 
-7.81938 -2.15603 -5.43573e-15 
-7.60633 -2.03256 -8.03973e-15 
-7.35486 -2.23891 -1.34951e-14 
-7.12509 -2.14068 -7.65208e-15 
-6.85702 -2.14894 -5.15635e-15 
-6.63924 -2.13733 -3.26359e-15 
-6.37984 -2.11176 -2.46445e-15 
-6.14961 -2.14214 -1.23582e-15 
-5.93218 -2.12718 6.34052e-16 
-5.71577 -2.16476 1.69067e-15 
-5.49379 -2.14794 3.02144e-15 
-5.27942 -2.16033 3.68657e-15 
-5.05895 -2.14228 4.41408e-15 
-4.8392 -2.14804 5.73935e-15 
-4.62054 -2.14755 6.96937e-15 
-4.40281 -2.16721 8.54332e-15 
-4.19278 -2.14594 9.52329e-15 
-3.98378 -2.12782 1.1545e-14 
-3.75753 -2.12122 1.35935e-14 
-3.5493 -2.13424 1.63347e-14 
-3.33328 -2.15857 2.07884e-14 
-3.11721 -2.14577 2.52634e-14 
-2.90466 -2.15347 2.97034e-14 
-2.68663 -2.13856 3.08235e-14 
-2.47525 -2.13496 3.28191e-14 
-2.25984 -2.12055 3.30459e-14 
-2.02144 -2.12167 4.27028e-14 
-1.81881 -2.16057 3.59949e-14 
-1.62114 -2.17884 4.50394e-14 
-1.32973 -2.10393 2.31188e-14 
-1.10572 -2.08244 2.36568e-15 
-0.872562 -2.07179 -1.6194e-15 
-0.687531 -1.8732 2.91476e-14 
-0.531417 -2.03427 8.96663e-15 
-0.325524 -1.97631 3.95422e-14 
-0.125256 -2.0142 1.31776e-13 
0.0801642 -1.90415 -1.06442e-13 
0.294702 -2.12305 5.58664e-14 
0.302189 -1.84881 -2.57483e-14 
0.508112 -2.08402 -4.42531e-14 
0.792973 -2.03061 1.07526e-14 
1.01766 -1.98274 1.94274e-14 
1.2187 -2.04684 -4.81861e-15 
1.41409 -2.10139 -1.44032e-14 
1.62307 -2.13625 -3.64205e-14 
1.83781 -2.13246 -3.93392e-14 
2.06031 -2.15314 -4.31766e-14 
2.28523 -2.16427 -4.4041e-14 
2.50621 -2.16257 -4.19634e-14 
2.71896 -2.1363 -3.25754e-14 
2.93153 -2.13943 -2.5024e-14 
3.14721 -2.12902 -2.44622e-14 
3.36548 -2.13294 -1.96319e-14 
3.57863 -2.14045 -1.58042e-14 
3.79621 -2.13575 -1.2904e-14 
4.01289 -2.15853 -1.11159e-14 
4.23479 -2.15293 -9.18367e-15 
4.45347 -2.14224 -7.37235e-15 
4.66947 -2.1459 -6.23567e-15 
4.88893 -2.13376 -5.16831e-15 
5.10781 -2.13745 -3.79265e-15 
5.32627 -2.13902 -2.82493e-15 
5.54816 -2.14027 -2.45504e-15 
5.76931 -2.15432 -1.34393e-15 
5.99468 -2.14673 2.15077e-16 
6.21707 -2.1364 9.20365e-16 
6.44132 -2.1446 1.80284e-15 
6.66335 -2.1285 3.79323e-15 
6.88798 -2.11154 5.19682e-15 
7.10986 -2.15002 7.87793e-15 
7.3399 -2.15247 9.39523e-15 
7.56455 -2.1188 7.67105e-15 
7.79229 -2.15111 5.75618e-15 
8.01812 -2.11551 7.40251e-15 
8.24931 -2.15256 1.71514e-15 
8.48528 -2.11586 1.15517e-15 
-8.48528 -1.85184 -1.69919e-15 
-8.29581 -1.91505 3.18509e-17 
-7.88166 -1.93072 4.42426e-15 
[...]
POINT_DATA 1978 
VECTORS vectors float
-0.000485685 -0.00172218 0.999998 
0.000486201 -0.0350643 0.999385 
-0.000395627 -0.0514583 0.998675 
2.666e-05 -0.0518537 0.998655 
2.00787e-05 -0.0343969 0.999408 
-0.000104031 -0.0226089 0.999744 
-6.11088e-05 -0.0150807 0.999886 
0.000194388 -0.00926048 0.999957 
-0.000371962 -0.00451554 0.99999 
0.000311839 0.00065519 1 
-0.0003245 0.00478418 0.999989 
0.000130882 0.00786004 0.999969 
-0.000144307 0.0105028 0.999945 
-0.000189944 0.0119487 0.999929 
-2.3773e-05 0.0123152 0.999924 
-0.000105422 0.0124242 0.999923 
-9.06369e-05 0.0131689 0.999913 
-4.92817e-05 0.0148192 0.99989 
-0.000158587 0.0179371 0.999839 
-6.66145e-05 0.0222785 0.999752 
-1.76523e-05 0.0285083 0.999594 
-0.000185443 0.0359755 0.999353 
4.10337e-05 0.0451558 0.99898 
-8.22774e-05 0.0570867 0.998369 
-0.000109434 0.0707817 0.997492 
1.4319e-05 0.0886488 0.996063 
-0.00011812 0.108657 0.994079 
2.00268e-05 0.133762 0.991014 
2.11936e-05 0.163993 0.986462 
-0.000117378 0.19828 0.980145 
-6.07634e-05 0.245064 0.969507 
-4.1914e-05 0.320813 0.947143 
-1.41607e-05 0.389245 0.921134 
-9.18034e-05 0.476119 0.879381 
3.80539e-05 0.558258 0.829667 
-1.93054e-05 0.664311 0.747456 
-1.80053e-05 0.793173 0.608996 
9.02986e-06 0.905123 0.42515 
1.03505e-05 0.985023 0.172421 
-1.05386e-05 0.998648 -0.0519842 
2.22305e-06 0.952269 -0.305259 
-1.90002e-06 0.861831 -0.507196 
-1.40649e-05 0.775843 -0.630925 
-5.18634e-07 0.673413 -0.739266 
4.57935e-05 0.5826 -0.812759 
1.98592e-06 0.488873 -0.872355 
-5.1768e-06 0.40237 -0.915477 
4.98148e-05 0.329958 -0.943996 
4.89023e-05 0.267064 -0.963679 
4.62807e-05 0.213768 -0.976884 
0.000111386 0.170846 -0.985298 
2.48293e-05 0.136903 -0.990584 
0.00012656 0.109674 -0.993968 
-3.58942e-06 0.0886548 -0.996062 
4.95376e-05 0.0710942 -0.99747 
9.05387e-05 0.0574003 -0.998351 
-1.28205e-05 0.0459703 -0.998943 
0.000136706 0.0362407 -0.999343 
6.31919e-05 0.0285904 -0.999591 
7.05833e-05 0.0222644 -0.999752 
0.00016935 0.0176729 -0.999844 
1.86824e-05 0.0146898 -0.999892 
0.000103414 0.0130556 -0.999915 
0.000118194 0.0121337 -0.999926 
4.36605e-06 0.0119542 -0.999929 
0.000156313 0.0118277 -0.99993 
6.65328e-05 0.0107059 -0.999943 
6.13706e-05 0.00812073 -0.999967 
0.000144709 0.0040669 -0.999992 
8.64876e-05 -0.000808896 -1 
2.15574e-05 -0.00681475 -0.999977 
0.000179891 -0.0134481 -0.99991 
6.17772e-05 -0.0197288 -0.999805 
7.34759e-05 -0.0276776 -0.999617 
0.000118102 -0.036669 -0.999327 
8.06404e-06 -0.0468164 -0.998904 
0.000376071 -0.053648 -0.99856 
-0.000124066 -0.0372272 -0.999307 
0.000308089 -0.00123875 -0.999999 
7.75413e-05 0.000454047 1 
0.0103056 -0.0352325 0.999326 
0.017442 -0.044729 0.998847 
0.0182151 -0.0473144 0.998714 
0.012294 -0.0415177 0.999062 
0.016181 -0.0277952 0.999483 
0.021084 -0.0183759 0.999609 
0.0201171 -0.0114343 0.999732 
0.0237031 -0.00575061 0.999703 
0.0226483 -0.00083859 0.999743 
0.0235146 0.00328878 0.999718 
0.0203609 0.00748873 0.999765 
0.0227671 0.00985977 0.999692 
0.0221489 0.011388 0.99969 
0.023187 0.0120783 0.999658 
0.0230283 0.012798 0.999653 
0.0232117 0.014106 0.999631 
0.0222526 0.0164645 0.999617 
0.0224289 0.0202529 0.999543 
0.0213527 0.0255474 0.999446 
0.0226327 0.0323883 0.999219 
0.0220291 0.0407066 0.998928 
0.0201587 0.0515417 0.998467 
0.0203305 0.0650778 0.997673 
0.018801 0.0814881 0.996497 
0.0185372 0.102172 0.994594 
0.0172585 0.127167 0.991731 
0.0160074 0.158345 0.987254 
0.0153382 0.195841 0.980516 
0.0128108 0.239013 0.970932 
0.00941309 0.302367 0.953145 
0.00897906 0.390637 0.920501 
0.00811417 0.470269 0.882486 
0.00634048 0.556607 0.830752 
0.00331017 0.654448 0.7561 
0.00452759 0.73753 0.675299 
0.00191846 0.792486 0.609888 
0.00175213 0.902809 0.430038 
0.00296389 0.960556 0.278072 
0.0025206 0.997319 0.0731382 
0.00106157 0.984365 -0.17614 
-0.000386396 0.912664 -0.408711 
-0.00187251 0.818442 -0.574586 
-0.0027091 0.716385 -0.6977 
-0.00435743 0.611772 -0.791022 
-0.00565881 0.515055 -0.857138 
-0.00730223 0.422689 -0.906245 
-0.00937095 0.339785 -0.940457 
-0.0114329 0.269946 -0.962808 
-0.0131379 0.21287 -0.976992 
-0.014866 0.16877 -0.985543 
-0.016712 0.134555 -0.990765 
-0.0183622 0.108668 -0.993908 
-0.0192635 0.0872504 -0.996 
-0.0206878 0.0705635 -0.997293 
-0.0209188 0.0564468 -0.998186 
-0.0209755 0.0446936 -0.998781 
-0.021708 0.035411 -0.999137 
-0.0211686 0.0275571 -0.999396 
-0.0222563 0.0217649 -0.999515 
-0.0226096 0.0175289 -0.999591 
-0.0227974 0.0146686 -0.999632 
-0.0237162 0.0130352 -0.999634 
-0.0233755 0.012089 -0.999654 
-0.0232064 0.0115054 -0.999664 
-0.0231705 0.0106266 -0.999675 
-0.0223164 0.00894864 -0.999711 
-0.0228119 0.00590756 -0.999722 
-0.0223308 0.00168804 -0.999749 
-0.0215913 -0.00352186 -0.999761 
-0.0210765 -0.0093697 -0.999734 
-0.0220855 -0.0154805 -0.999636 
-0.0195725 -0.0225584 -0.999554 
-0.0198674 -0.0307564 -0.999329 
-0.0194678 -0.0395896 -0.999026 
-0.0169084 -0.0469943 -0.998752 
-0.0145263 -0.0434705 -0.998949 
-0.00775558 -0.0294056 -0.999537 
-4.5222e-05 0.000552995 -1 
-0.000212325 -6.18914e-05 1 
0.0130645 -0.0300199 0.999464 
0.0257487 -0.0432412 0.998733 
0.0282993 -0.0459391 0.998543 
0.0323277 -0.0398494 0.998683 
0.0218369 -0.0369941 0.999077 
0.0263596 -0.0267114 0.999296 
0.0326521 -0.0193658 0.999279 
0.0318665 -0.0122785 0.999417 
0.035614 -0.00579457 0.999349 
0.0352452 -0.00065188 0.999378 
0.0348878 0.00431252 0.999382 
0.0347096 0.0072979 0.999371 
0.0362231 0.00963186 0.999297 
0.0367017 0.011055 0.999265 
0.0370787 0.0122828 0.999237 
0.0371674 0.0135542 0.999217 
0.0365342 0.0154505 0.999213 
0.0356741 0.018371 0.999195 
0.0349347 0.0228886 0.999127 
0.035032 0.0284484 0.998981 
0.0352377 0.0358974 0.998734 
0.0333525 0.0455236 0.998406 
0.0320637 0.0571921 0.997848 
0.03109 0.072808 0.996861 
0.0297024 0.0908763 0.995419 
0.028286 0.114596 0.993009 
0.0261837 0.143062 0.989367 
0.0245114 0.177383 0.983837 
0.0222574 0.220659 0.975097 
0.0176628 0.273071 0.961832 
0.0137635 0.340444 0.940164 
0.0136359 0.419826 0.907502 
0.0107684 0.525374 0.850803 
0.00792728 0.624207 0.781218 
0.00679287 0.769007 0.639204 
0.00391448 0.874581 0.484864 
0.003721 0.937955 0.346737 
0.00229225 0.986661 0.162775 
0.000517726 0.999462 -0.0327882 
0.000485179 0.987185 -0.159582 
-0.00176934 0.925695 -0.378267 
-0.00387106 0.8283 -0.560272 
-0.00545348 0.721991 -0.69188 
-0.00761035 0.624786 -0.780759 
-0.00953478 0.528485 -0.848889 
-0.0118402 0.438223 -0.898788 
-0.0144449 0.356533 -0.934171 
-0.0173706 0.2857 -0.958162 
-0.0200998 0.227756 -0.973511 
-0.0229544 0.181465 -0.983129 
-0.0256834 0.145292 -0.989055 
-0.0284909 0.11648 -0.992784 
-0.0301949 0.0940459 -0.99511 
-0.032005 0.0756817 -0.996618 
-0.0329237 0.0605131 -0.997624 
-0.0333146 0.0480131 -0.998291 
-0.0342766 0.0380136 -0.998689 
-0.0340407 0.0299995 -0.99897 
-0.0350869 0.0238172 -0.9991 
-0.0359296 0.0191557 -0.999171 
-0.036261 0.0158669 -0.999216 
-0.0374884 0.0137775 -0.999202 
-0.0374746 0.01238 -0.999221 
-0.0372831 0.0112603 -0.999241 
-0.037128 0.00989156 -0.999262 
-0.036068 0.00815629 -0.999316 
-0.0360358 0.00536764 -0.999336 
-0.0355063 0.00131159 -0.999369 
-0.0342417 -0.00347606 -0.999408 
-0.0338406 -0.00898228 -0.999387 
-0.0342575 -0.0151637 -0.999298 
-0.0321624 -0.0221433 -0.999237 
-0.0313124 -0.0300683 -0.999057 
-0.0307449 -0.0395557 -0.998744 
-0.0275468 -0.0458154 -0.99857 
-0.0228867 -0.0417064 -0.998868 
-0.0124693 -0.0277199 -0.999538 
6.83864e-05 -0.000128881 -1 
-0.000483955 1.75872e-05 1 
0.0127636 -0.0258851 0.999583 
0.0225927 -0.0384432 0.999005 
0.0310801 -0.046601 0.99843 
0.0324822 -0.0417511 0.9986 
0.0333762 -0.0309944 0.998962 
0.0354267 -0.0240791 0.999082 
0.0361707 -0.0154214 0.999227 
0.0374504 -0.00938839 0.999254 
0.0379291 -0.00308231 0.999276 
0.0391641 0.00161544 0.999231 
0.03972 0.00487749 0.999199 
0.0404021 0.00760576 0.999155 
0.040973 0.0094541 0.999116 
0.0414235 0.0112881 0.999078 
0.0412529 0.013006 0.999064 
0.0408722 0.0147758 0.999055 
0.0403038 0.0172201 0.999039 
0.039851 0.0206794 0.998992 
0.0388543 0.0253075 0.998924 
0.037857 0.0312244 0.998795 
0.0368728 0.0396826 0.998532 
0.0359559 0.0496673 0.998118 
0.0350255 0.0624524 0.997433 
0.0336602 0.0782816 0.996363 
0.0321638 0.0979564 0.994671 
0.0299599 0.123393 0.991906 
0.0275977 0.153504 0.987763 
0.0250485 0.191747 0.981125 
0.0223828 0.242875 0.969799 
0.0196423 0.296946 0.954692 
0.0170118 0.358226 0.93348 
0.0132464 0.470507 0.882297 
0.0106508 0.583471 0.812064 
0.00858742 0.689552 0.724185 
0.00788457 0.795125 0.606394 
0.00593976 0.859941 0.510358 
0.00459133 0.951013 0.309117 
0.00198814 0.99273 0.120348 
-0.000510447 0.995546 -0.0942757 
-0.00187242 0.956509 -0.291698 
-0.00224757 0.953783 -0.300487 
-0.00375191 0.875213 -0.483723 
-0.0066279 0.739906 -0.672677 
-0.00873669 0.63814 -0.769871 
-0.0104713 0.535763 -0.844303 
-0.0127808 0.445206 -0.895337 
-0.0158731 0.361798 -0.932121 
-0.0190295 0.292429 -0.956098 
-0.0223334 0.233515 -0.972097 
-0.0256057 0.185294 -0.98235 
-0.0283766 0.147213 -0.988698 
-0.0304287 0.119217 -0.992402 
-0.032084 0.0958125 -0.994882 
-0.0338503 0.0763874 -0.996503 
-0.0351654 0.060549 -0.997546 
-0.0362688 0.0482922 -0.998175 
-0.0372519 0.038309 -0.998571 
-0.0380755 0.0303064 -0.998815 
-0.039034 0.0242701 -0.998943 
-0.0397217 0.0198245 -0.999014 
-0.0403066 0.0165184 -0.999051 
-0.0408555 0.0141872 -0.999064 
-0.0411907 0.0124946 -0.999073 
-0.0412086 0.0108971 -0.999091 
-0.0410914 0.00895592 -0.999115 
-0.0404145 0.00680037 -0.99916 
-0.0398554 0.00395622 -0.999198 
-0.0389788 4.44236e-05 -0.99924 
-0.0381174 -0.00460808 -0.999263 
-0.0373487 -0.00978162 -0.999254 
-0.0367046 -0.0160156 -0.999198 
-0.0359558 -0.0227979 -0.999093 
-0.0352947 -0.0313707 -0.998884 
-0.033701 -0.040464 -0.998612 
-0.0311925 -0.0462883 -0.998441 
-0.0254956 -0.0421419 -0.998786 
-0.0147335 -0.0271221 -0.999524 
0.000140553 5.48541e-05 -1 
-0.000434897 -1.41862e-05 1 
0.0104082 -0.0237606 0.999663 
0.0256198 -0.0474184 0.998547 
0.0262993 -0.0452288 0.99863 
0.0257156 -0.0367662 0.998993 
0.0329479 -0.0335273 0.998895 
0.0301661 -0.0273345 0.999171 
0.0324721 -0.0194466 0.999283 
0.0321847 -0.0124236 0.999405 
0.034423 -0.00670089 0.999385 
0.0341111 -0.0011673 0.999417 
0.0342079 0.00235044 0.999412 
0.0353555 0.00564954 0.999359 
0.0362264 0.00788441 0.999313 
0.0361091 0.0103474 0.999294 
0.0364166 0.0124886 0.999259 
0.0359288 0.0146229 0.999247 
0.0354803 0.0170665 0.999225 
0.0353688 0.0203873 0.999166 
0.0340217 0.0245874 0.999119 
0.0326184 0.0301187 0.999014 
0.0322373 0.0374644 0.998778 
0.0309564 0.047678 0.998383 
0.0306828 0.0595647 0.997753 
0.0293516 0.0740056 0.996826 
0.0281328 0.0927151 0.995295 
0.0265874 0.115539 0.992947 
0.0242194 0.144927 0.989146 
0.0220221 0.180505 0.983328 
0.0202038 0.227009 0.973683 
0.0180097 0.285152 0.958313 
0.0157399 0.343502 0.93902 
0.0144275 0.416826 0.908872 
0.0119217 0.530432 0.847644 
0.0101318 0.676675 0.736212 
0.011193 0.786593 0.61737 
0.00734299 0.898777 0.438344 
0.0117414 0.894328 0.447258 
0.00908486 0.969314 0.245658 
0.0050266 0.994561 0.104031 
0.00190764 0.994769 -0.102136 
-0.00380588 0.919484 -0.393108 
-0.00498688 0.844642 -0.535308 
-0.00746262 0.772145 -0.635403 
-0.0088741 0.663458 -0.748161 
-0.0104632 0.554836 -0.831894 
-0.0117451 0.465718 -0.884855 
-0.0136431 0.385945 -0.922421 
-0.016049 0.312569 -0.949759 
-0.0188709 0.25219 -0.967494 
-0.0218007 0.201229 -0.979302 
-0.0241753 0.159458 -0.986909 
-0.0252809 0.128403 -0.9914 
-0.0267754 0.102624 -0.99436 
-0.0285339 0.0822593 -0.996202 
-0.0299778 0.0647304 -0.997452 
-0.0310382 0.0511048 -0.998211 
-0.0318925 0.0406459 -0.998664 
-0.0332785 0.0322015 -0.998927 
-0.0341552 0.0260522 -0.999077 
-0.034473 0.0213344 -0.999178 
-0.0350432 0.0177087 -0.999229 
-0.0354948 0.0151021 -0.999256 
-0.0359492 0.0130362 -0.999269 
-0.0360291 0.0110246 -0.99929 
-0.0360443 0.00861089 -0.999313 
-0.0359128 0.0060597 -0.999337 
-0.0353918 0.00340336 -0.999368 
-0.0342807 -0.000271855 -0.999412 
-0.0336941 -0.00470541 -0.999421 
-0.0325819 -0.00958313 -0.999423 
-0.0315018 -0.0154865 -0.999384 
-0.0313086 -0.0227284 -0.999251 
-0.0311952 -0.0304422 -0.99905 
-0.0288521 -0.0398072 -0.998791 
-0.0274974 -0.0469582 -0.998518 
-0.0225501 -0.0441398 -0.998771 
-0.0136454 -0.028102 -0.999512 
7.26193e-05 -2.69317e-05 -1 
-0.000274014 5.69646e-05 1 
0.00895884 -0.0266762 0.999604 
0.0172177 -0.0385227 0.999109 
0.0194597 -0.0485889 0.998629 
0.0201331 -0.0454584 0.998763 
0.0227142 -0.0302106 0.999285 
0.0256556 -0.0223844 0.99942 
0.0263424 -0.0158827 0.999527 
0.0276882 -0.00907503 0.999575 
0.0291868 -0.00439797 0.999564 
0.0272319 -0.000740479 0.999629 
0.0287893 0.00306687 0.999581 
0.0286197 0.00589324 0.999573 
0.0299322 0.00857773 0.999515 
0.0291666 0.0113979 0.99951 
0.0297734 0.0137813 0.999462 
0.0292695 0.0162914 0.999439 
0.0291251 0.0193724 0.999388 
0.0279515 0.0231338 0.999342 
0.0269728 0.0278364 0.999249 
0.0263763 0.0343881 0.99906 
0.0259018 0.0428426 0.998746 
0.0249415 0.0546718 0.998193 
0.024062 0.0675999 0.997422 
0.0230722 0.0843507 0.996169 
0.0218716 0.105239 0.994206 
0.0205133 0.131122 0.991154 
0.0185898 0.164194 0.986253 
0.0172114 0.206749 0.978243 
0.0158638 0.259583 0.96559 
0.0138906 0.316888 0.948361 
0.0129731 0.382887 0.923704 
0.012939 0.440941 0.897443 
0.0123799 0.507105 0.861795 
0.0120293 0.606723 0.794822 
0.0133764 0.709432 0.704647 
0.0155421 0.83008 0.557428 
0.0141043 0.93649 0.35041 
0.0102174 0.985896 0.167048 
0.00676051 0.999654 0.0254144 
-0.00105845 0.968099 -0.250566 
-0.0046217 0.951094 -0.308866 
-0.00849046 0.833016 -0.553184 
-0.0104547 0.811866 -0.58375 
-0.0101752 0.683454 -0.729923 
-0.0104459 0.553294 -0.83292 
-0.0115576 0.445648 -0.895134 
-0.0126887 0.364787 -0.931005 
-0.0141316 0.294978 -0.9554 
-0.0163033 0.236769 -0.971429 
-0.0183445 0.189216 -0.981764 
-0.0194861 0.152682 -0.988083 
-0.0205103 0.122285 -0.992283 
-0.0216664 0.0982588 -0.994925 
-0.023477 0.077982 -0.996678 
-0.0245231 0.0615553 -0.997802 
-0.0251782 0.0490349 -0.99848 
-0.0261706 0.038898 -0.9989 
-0.0271127 0.0314549 -0.999137 
-0.0278973 0.0257688 -0.999279 
-0.0281412 0.0213779 -0.999375 
-0.0284706 0.0180056 -0.999432 
-0.0290875 0.0152102 -0.999461 
-0.0293904 0.0129398 -0.999484 
-0.0294923 0.0105073 -0.99951 
-0.0295344 0.00756409 -0.999535 
-0.0292692 0.00464972 -0.999561 
-0.0287761 0.00177048 -0.999584 
-0.0278681 -0.00199536 -0.99961 
-0.0270708 -0.00627448 -0.999614 
-0.0260184 -0.0112304 -0.999598 
-0.0252723 -0.0175837 -0.999526 
-0.0246566 -0.0246608 -0.999392 
-0.0244817 -0.0326806 -0.999166 
-0.0216312 -0.0413185 -0.998912 
-0.0215654 -0.047906 -0.998619 
-0.0177114 -0.0459337 -0.998787 
-0.011373 -0.0294572 -0.999501 
9.54708e-05 7.76284e-05 -1 
-0.000140083 -4.71444e-05 1 
0.00623911 -0.0259575 0.999644 
0.0130102 -0.0421379 0.999027 
0.0150288 -0.0496387 0.998654 
0.0185751 -0.0385806 0.999083 
0.0172245 -0.0296342 0.999412 
0.0201716 -0.0227299 0.999538 
0.0209936 -0.0165036 0.999643 
0.0229914 -0.0105898 0.99968 
0.0235532 -0.00513354 0.999709 
0.0207709 -0.00371581 0.999777 
0.0231521 -4.92606e-05 0.999732 
0.0238365 0.00339791 0.99971 
0.0238452 0.00703519 0.999691 
0.0244393 0.0100491 0.999651 
0.0242638 0.0131723 0.999619 
0.0246082 0.0156445 0.999575 
0.0242952 0.0187389 0.999529 
0.0231915 0.0223889 0.99948 
0.0223567 0.0266989 0.999393 
0.0221157 0.0322157 0.999236 
0.0214536 0.0398777 0.998974 
0.0211182 0.0501675 0.998518 
0.0198002 0.0634358 0.997789 
0.0190856 0.0788702 0.996702 
0.0180685 0.0982368 0.994999 
0.0170795 0.122303 0.992346 
0.0158568 0.151442 0.988339 
0.01469 0.19062 0.981554 
0.0137318 0.240394 0.970578 
0.0124457 0.297035 0.954785 
0.0119311 0.367208 0.930062 
0.0123731 0.445036 0.895427 
0.0136535 0.530554 0.847541 
0.0141274 0.604676 0.796346 
0.0169404 0.725993 0.687494 
0.0191914 0.84941 0.527384 
0.0199936 0.932336 0.36104 
0.00898344 0.994888 0.100586 
-0.000890263 0.993574 -0.113184 
-0.00257648 0.994934 -0.100496 
-0.0136413 0.945582 -0.325097 
-0.00936471 0.914069 -0.405451 
-0.0137606 0.803927 -0.594569 
-0.0128297 0.698479 -0.715516 
-0.0116816 0.583217 -0.812233 
-0.0111761 0.463471 -0.886042 
-0.0114579 0.369535 -0.929146 
-0.0120666 0.302503 -0.953072 
-0.0133506 0.244081 -0.969663 
-0.0147632 0.196153 -0.980462 
-0.0156721 0.158001 -0.987315 
-0.0166032 0.127546 -0.991694 
-0.0175043 0.10272 -0.994556 
-0.018941 0.0820804 -0.996446 
-0.0199531 0.0655415 -0.99765 
-0.0204384 0.0521706 -0.998429 
-0.0212949 0.0417219 -0.998902 
-0.0219489 0.0336928 -0.999191 
-0.0226191 0.0278362 -0.999357 
-0.0230351 0.0234 -0.999461 
-0.0232393 0.019736 -0.999535 
-0.0238291 0.0165745 -0.999579 
-0.0242025 0.0139633 -0.99961 
-0.0244524 0.0113898 -0.999636 
-0.0244561 0.00815676 -0.999668 
-0.0242461 0.00473081 -0.999695 
-0.0238186 0.00167704 -0.999715 
-0.0232317 -0.00163154 -0.999729 
-0.0221353 -0.00595822 -0.999737 
-0.0213011 -0.0105689 -0.999717 
-0.0206382 -0.0162188 -0.999655 
-0.019523 -0.0234195 -0.999535 
-0.0188742 -0.0316542 -0.999321 
-0.0168433 -0.0419372 -0.998978 
-0.0157628 -0.0490922 -0.99867 
-0.0125511 -0.0438486 -0.998959 
-0.00735888 -0.0268669 -0.999612 
9.56271e-05 -5.13595e-05 -1 
-6.90267e-05 3.58989e-05 1 
0.00531854 -0.0292806 0.999557 
0.00994898 -0.0441724 0.998974 
0.0108239 -0.0505683 0.998662 
0.0143189 -0.045519 0.998861 
0.0137472 -0.0365831 0.999236 
0.0158539 -0.0223797 0.999624 
0.0171735 -0.0159804 0.999725 
0.019467 -0.00970556 0.999763 
0.0173376 -0.00826235 0.999816 
0.0178817 -0.00374195 0.999833 
0.019692 0.00016719 0.999806 
0.0204862 0.00401189 0.999782 
0.0201421 0.00798197 0.999765 
0.0208543 0.0114121 0.999717 
0.0206075 0.0144598 0.999683 
0.0210168 0.0172759 0.99963 
0.0202163 0.0205233 0.999585 
0.0193408 0.0242659 0.999518 
0.0188837 0.0288499 0.999405 
0.0187198 0.0345593 0.999227 
0.0179163 0.0420894 0.998953 
0.0177894 0.051461 0.998517 
0.0167113 0.0640289 0.997808 
0.0159039 0.0799336 0.996673 
0.0149943 0.0986706 0.995007 
0.0141649 0.121693 0.992467 
0.0132067 0.149659 0.98865 
0.0125352 0.184442 0.982763 
0.0118358 0.230196 0.973072 
0.0111349 0.2844 0.958641 
0.0111801 0.35033 0.93656 
0.0123421 0.437851 0.898963 
0.0150984 0.548434 0.836057 
0.0181094 0.660015 0.751034 
0.0224001 0.795467 0.605582 
0.0277135 0.921286 0.387898 
0.0275566 0.970854 0.238083 
0.0161248 0.99451 0.103393 
0.00407897 0.999958 -0.00821384 
-0.0114666 0.991374 -0.13056 
-0.0293989 0.959813 -0.279096 
-0.0188454 0.862521 -0.50567 
-0.0190589 0.742322 -0.669773 
-0.0149808 0.62732 -0.778617 
-0.0125359 0.523028 -0.852223 
-0.0109601 0.4091 -0.912424 
-0.0105012 0.334129 -0.942469 
-0.0109443 0.271731 -0.962311 
-0.0117803 0.221106 -0.975179 
-0.012566 0.180337 -0.983525 
-0.0132519 0.146304 -0.989151 
-0.0140139 0.118799 -0.992819 
-0.0150083 0.0951773 -0.995347 
-0.0160025 0.0771224 -0.996893 
-0.0168078 0.0622686 -0.997918 
-0.0173331 0.0499483 -0.998601 
-0.0180629 0.04031 -0.999024 
-0.018554 0.0330427 -0.999282 
-0.0190954 0.0277103 -0.999434 
-0.0195335 0.0235913 -0.999531 
-0.0197122 0.0199319 -0.999607 
-0.0202556 0.0166868 -0.999656 
-0.0206498 0.0138314 -0.999691 
-0.02089 0.0109019 -0.999722 
-0.0207578 0.00723278 -0.999758 
-0.0204912 0.00333117 -0.999784 
-0.0199287 -1.8787e-06 -0.999801 
-0.0191956 -0.00344346 -0.99981 
-0.0178923 -0.00793435 -0.999808 
-0.0172412 -0.0129045 -0.999768 
-0.016412 -0.0185591 -0.999693 
-0.0151428 -0.0258813 -0.99955 
-0.0144615 -0.0345585 -0.999298 
-0.0124443 -0.0441725 -0.998946 
-0.0120393 -0.0501468 -0.998669 
-0.00945683 -0.0454687 -0.998921 
-0.005928 -0.0288413 -0.999566 
6.33987e-05 0.000120142 -1 
-1.58521e-05 -6.71112e-06 1 
0.00381068 -0.0289518 0.999574 
0.00725945 -0.0464492 0.998894 
0.00809886 -0.0510398 0.998664 
0.0107114 -0.0449884 0.99893 
0.00999545 -0.036648 0.999278 
0.0128746 -0.0287727 0.999503 
0.0126915 -0.0211274 0.999696 
0.0146415 -0.0145846 0.999786 
0.0145013 -0.00973701 0.999847 
0.0151718 -0.00498086 0.999872 