# vtk DataFile Version 3.0 
Exported using Morpho https://github.com/Morpho-lang/morpho 
ASCII 
DATASET UNSTRUCTURED_GRID 

POINTS 1978 float 
-8.45077 -2.7818 0.000293893 
-8.23012 -2.79348 -0.00299071 
-8.05594 -2.78605 -0.00339489 
-7.81059 -2.76004 -0.00359708 
-7.44885 -2.74821 -0.0022453 
-7.17278 -2.76458 -0.00083717 
-6.97755 -2.77552 -0.000560384 
-6.74326 -2.77304 -0.000332613 
-6.49661 -2.78331 2.97825e-05 
-6.34367 -2.79128 -0.000612043 
-6.18962 -2.78231 -0.000799171 
-5.96119 -2.77151 -0.000865853 
-5.72854 -2.76831 -0.000455172 
-5.51998 -2.76872 -0.000313597 
-5.2944 -2.76883 -0.000170834 
-5.0815 -2.77071 -2.1219e-05 
-4.86216 -2.77234 -0.000141987 
-4.65598 -2.77101 5.71092e-05 
-4.4359 -2.771 0.000166547 
-4.21335 -2.7713 0.000364575 
-3.99741 -2.77393 0.000236213 
-3.78909 -2.77387 0.000338014 
-3.57024 -2.77184 0.000475795 
-3.35637 -2.76998 0.000600795 
-3.11952 -2.77139 0.0010315 
-2.90247 -2.77672 0.00179946 
-2.68103 -2.78571 0.00250593 
-2.48679 -2.79404 0.00224334 
-2.27739 -2.7934 0.00257113 
-2.06529 -2.79804 0.00331166 
-1.85837 -2.80141 0.00423252 
-1.65251 -2.80588 0.00429355 
-1.4607 -2.81373 0.0036758 
-1.24846 -2.8139 0.00320113 
-1.05805 -2.80845 0.00197263 
-0.816486 -2.80805 -0.000420319 
-0.605163 -2.80077 -0.000522873 
-0.434165 -2.79054 -0.00173787 
-0.192479 -2.78358 -0.000123818 
0.0583204 -2.77099 -0.000279298 
0.224242 -2.79985 0.0014326 
0.383211 -2.79412 0.00105878 
0.582003 -2.79681 0.000372327 
0.83541 -2.80983 0.000381602 
1.05328 -2.8078 -0.00232117 
1.22652 -2.82256 -0.00294381 
1.40021 -2.81214 -0.00342386 
1.65363 -2.81037 -0.00418431 
1.82808 -2.80157 -0.00420616 
2.05776 -2.79349 -0.00388165 
2.28881 -2.79257 -0.00255219 
2.47059 -2.78787 -0.00226228 
2.70827 -2.77923 -0.00197343 
2.93444 -2.77885 -0.001542 
3.14924 -2.77457 -0.000999802 
3.36252 -2.77232 -0.000798956 
3.59155 -2.77436 -0.000584848 
3.79395 -2.77299 -0.000549583 
4.01169 -2.7687 -0.00032648 
4.24557 -2.77129 2.16589e-05 
4.44375 -2.77385 6.14027e-05 
4.65682 -2.77432 -4.04285e-05 
4.86662 -2.77335 7.48317e-05 
5.06868 -2.77279 0.000120928 
5.28541 -2.77026 0.00022438 
5.49928 -2.77315 0.000479193 
5.70221 -2.77332 0.00038506 
5.92347 -2.77091 8.94412e-05 
6.14973 -2.77157 0.000681782 
6.34908 -2.77152 0.000646828 
6.59099 -2.77239 0.000612215 
6.79917 -2.77753 0.000522494 
6.99508 -2.76933 0.000890573 
7.26648 -2.76595 0.00185437 
7.4978 -2.77845 0.00252635 
7.72538 -2.78705 0.00248582 
7.96208 -2.79569 0.000289284 
8.1295 -2.78682 -0.000871261 
8.41343 -2.7425 -0.000145221 
-8.44755 -2.5589 0.0035326 
-8.2438 -2.58632 -0.00026173 
-8.01504 -2.51064 -0.00121118 
-7.84015 -2.56186 -0.00115196 
-7.57924 -2.61304 -0.00142199 
-7.23919 -2.57849 -0.000294232 
-6.98993 -2.52118 -0.000277141 
-6.79381 -2.56614 -0.000427893 
-6.5497 -2.58492 3.55485e-06 
-6.33202 -2.48156 -0.000215172 
-6.12759 -2.56911 -0.000456003 
-5.89629 -2.56057 -5.15739e-05 
-5.67941 -2.53467 1.63337e-05 
-5.45989 -2.55348 -0.000240609 
-5.24422 -2.54309 5.04109e-05 
-5.02646 -2.5538 7.29083e-05 
-4.81726 -2.54238 0.000187253 
-4.59877 -2.55535 -4.14848e-05 
-4.37744 -2.55688 -7.59231e-05 
-4.15889 -2.55163 0.00019164 
-3.94995 -2.54254 0.000362798 
-3.73536 -2.54913 0.000423772 
-3.52346 -2.53916 0.000142295 
-3.29808 -2.56034 0.000410628 
-3.08148 -2.54859 0.000624938 
-2.86066 -2.56613 0.000727416 
-2.66148 -2.55611 0.00026599 
-2.45592 -2.58719 0.000438477 
-2.23944 -2.59201 0.000456101 
-2.02761 -2.58922 0.000444423 
-1.81447 -2.58587 0.000489498 
-1.61207 -2.57074 0.000159015 
-1.4055 -2.59268 -0.000189381 
-1.20846 -2.56064 -0.000224601 
-0.978486 -2.60476 -7.32583e-06 
-0.762245 -2.56279 -0.000988949 
-0.58751 -2.48501 -0.00121915 
-0.40188 -2.48825 -0.00177784 
-0.211197 -2.54771 -0.00154825 
-0.00887503 -2.47843 0.00133927 
0.200922 -2.42616 0.000772439 
0.405925 -2.50189 0.00124274 
0.609212 -2.51535 0.00153682 
0.799984 -2.60473 0.00107723 
1.04594 -2.58707 0.000538189 
1.27079 -2.56369 0.00047724 
1.49812 -2.64368 -0.000683413 
1.68853 -2.56324 -0.000178913 
1.90498 -2.61262 -0.000601728 
2.14898 -2.60583 -0.000495808 
2.34572 -2.5496 -0.000376693 
2.55847 -2.59547 -0.000806522 
2.79018 -2.57369 -0.000732302 
3.00276 -2.55567 -0.000642002 
3.21593 -2.54415 -0.000316161 
3.43918 -2.56028 -0.000271202 
3.64656 -2.5343 -0.000197263 
3.86038 -2.54994 -0.000436938 
4.09275 -2.56473 -0.00023357 
4.30292 -2.53129 -8.31519e-05 
4.51548 -2.5515 -7.38575e-05 
4.72927 -2.55 -0.000105499 
4.93942 -2.54302 -0.000341371 
5.15236 -2.55732 7.48947e-05 
5.37284 -2.55223 0.00027277 
5.58242 -2.54028 1.90461e-05 
5.79824 -2.55794 -0.000134895 
6.02688 -2.55822 7.67861e-05 
6.23997 -2.5289 0.000304886 
6.46261 -2.57248 -8.20027e-06 
6.69061 -2.54132 6.97286e-05 
6.89407 -2.52135 9.77033e-05 
7.12086 -2.58508 0.000965062 
7.37884 -2.55623 0.00072227 
7.61014 -2.56836 0.000736543 
7.8495 -2.58737 0.000952608 
8.04478 -2.49966 -0.000285014 
8.24601 -2.59384 -0.000412926 
8.43147 -2.46906 0.000904753 
-8.43661 -2.38437 0.00386405 
-8.1616 -2.3588 0.00188426 
-7.91622 -2.2635 -0.000402269 
-7.71483 -2.39527 -0.000271919 
-7.56472 -2.26242 0.000779545 
-7.42531 -2.44711 -0.00087591 
-7.16179 -2.35686 9.13997e-05 
-6.93915 -2.27764 0.00050712 
-6.71764 -2.37041 0.000178024 
-6.50787 -2.34031 0.000338704 
-6.21318 -2.29658 9.50719e-05 
-6.01743 -2.35026 3.32083e-05 
-5.80114 -2.32307 0.000170924 
-5.56916 -2.31944 -0.000217288 
-5.35789 -2.32505 -0.000236012 
-5.13427 -2.32827 -7.16236e-05 
-4.9263 -2.31964 -4.87233e-05 
-4.70489 -2.3318 -9.25557e-05 
-4.48458 -2.34006 -8.62088e-05 
-4.26553 -2.33599 -8.00535e-05 
-4.05088 -2.31562 2.12367e-05 
-3.83481 -2.31948 -0.000214084 
-3.62361 -2.31273 -0.000221679 
-3.39842 -2.33237 -0.000309109 
-3.18775 -2.32882 -0.00025311 
-2.96661 -2.34277 -0.000335591 
-2.76177 -2.33139 -0.000260682 
-2.5512 -2.355 -0.000219545 
-2.34714 -2.38874 -0.000136808 
-2.12709 -2.38167 -0.000157748 
-1.90745 -2.3752 -0.000190983 
-1.68941 -2.34571 -0.000130484 
-1.46742 -2.35047 -1.03169e-05 
-1.26711 -2.31719 -0.000664146 
-1.03998 -2.37548 -0.000486633 
-0.812697 -2.33902 0.000687599 
-0.600769 -2.18188 -0.00126577 
-0.401039 -2.18126 -0.000163158 
-0.201532 -2.24104 -0.00108738 
0.0118125 -2.14637 -5.78531e-05 
0.213759 -2.11915 0.00117755 
0.416836 -2.17641 0.000590904 
0.614706 -2.22026 0.00227114 
0.831086 -2.36387 0.000318351 
1.05618 -2.36773 0.00119036 
1.25041 -2.31589 -0.000305554 
1.45943 -2.42775 0.000296786 
1.6564 -2.33746 0.000165262 
1.86954 -2.39579 -4.56141e-05 
2.08666 -2.42262 0.0001004 
2.30496 -2.33106 9.68925e-05 
2.52143 -2.37314 -5.92746e-06 
2.72712 -2.37875 0.000293853 
2.94948 -2.33267 0.000404126 
3.15374 -2.32038 0.000300246 
3.37256 -2.3367 3.56652e-05 
3.57778 -2.30608 0.000216786 
3.79142 -2.31747 0.000315407 
4.00989 -2.35065 4.88795e-06 
4.22132 -2.3123 6.58452e-05 
4.44527 -2.31764 0.000244792 
4.65405 -2.32424 0.000269843 
4.86493 -2.3207 3.27896e-05 
5.08258 -2.32891 -0.000161505 
5.29262 -2.33871 3.01936e-05 
5.50843 -2.31528 0.000297034 
5.72751 -2.32775 8.03803e-06 
5.94417 -2.34407 -0.000205157 
6.15975 -2.30873 0.000124608 
6.3948 -2.33615 0.000377199 
6.60506 -2.33372 -0.000239012 
6.82761 -2.2826 -5.98846e-05 
7.05643 -2.34396 3.60235e-05 
7.27345 -2.37276 0.000500148 
7.53531 -2.34574 -0.00127078 
7.77077 -2.37567 -7.26302e-05 
7.97276 -2.2832 3.23369e-05 
8.22351 -2.34107 1.94319e-05 
8.44669 -2.24662 -0.00102735 
-8.40905 -2.14385 0.00348152 
-8.21026 -2.18128 0.00151567 
-8.04795 -2.05334 -0.000970341 
-7.7732 -2.10829 -4.57315e-05 
-7.52184 -2.04576 0.000193961 
-7.31822 -2.21411 -0.000556164 
-7.08862 -2.09954 0.000219113 
-6.79058 -2.11362 -0.000427877 
-6.59424 -2.11352 -0.000175107 
-6.36263 -2.14835 -0.000192055 
-6.11034 -2.07129 3.9928e-05 
-5.91969 -2.1077 -5.24718e-05 
-5.69099 -2.10732 -0.000197472 
-5.46846 -2.08788 -5.29285e-05 
-5.25301 -2.10913 0.000260148 
-5.04144 -2.09058 0.000237649 
-4.82328 -2.10616 0.000235753 
-4.60501 -2.11634 1.49841e-05 
-4.38869 -2.11577 0.000277007 
-4.17767 -2.10122 0.00021028 
-3.95819 -2.08809 0.00024764 
-3.749 -2.08236 0.00021185 
-3.5268 -2.10082 0.000369734 
-3.31738 -2.09943 0.00040025 
-3.10057 -2.11626 0.000216603 
-2.89525 -2.11219 0.00042025 
-2.67916 -2.1207 0.000419511 
-2.47279 -2.14258 0.000180621 
-2.26553 -2.179 4.14966e-05 
-2.03773 -2.16155 0.000134586 
-1.81395 -2.14042 0.00010994 
-1.57133 -2.11956 0.000367423 
-1.35949 -2.06834 0.00057281 
-1.17722 -1.9645 0.000226795 
-1.06277 -2.13601 -0.000243895 
-0.817135 -2.10997 0.000340981 
-0.567932 -1.88746 -0.00243193 
-0.360892 -1.86341 -0.00188808 
-0.156063 -1.92772 -0.000300584 
0.0257295 -1.72173 -0.000193082 
0.191881 -1.77195 0.000349715 
0.354039 -1.73343 0.00167673 
0.537696 -1.88449 -2.03494e-05 
0.73426 -1.99723 0.00169968 
0.931192 -2.115 7.46616e-05 
1.16616 -2.09091 0.000560389 
1.44416 -2.18189 -0.000132537 
1.67041 -2.1123 -0.000288795 
1.89492 -2.18004 0.000139886 
2.11159 -2.19899 -0.000282284 
2.37427 -2.13154 -0.000185907 
2.57715 -2.14661 -0.000316253 
2.7827 -2.15365 -0.000349238 
2.9874 -2.0922 -0.000282282 
3.20631 -2.10575 -0.000379728 
3.40495 -2.09423 -0.000355474 
3.61974 -2.07855 -0.000258527 
3.84001 -2.1025 -0.000314613 
4.04274 -2.1117 -0.000274247 
4.27343 -2.09532 -0.000135884 
4.4852 -2.08598 -0.000255943 
4.69698 -2.09444 -3.15696e-05 
4.91668 -2.1027 -0.000148741 
5.12771 -2.10058 -0.000334168 
5.33739 -2.1112 -0.00018557 
5.5622 -2.09607 0.000210687 
5.77935 -2.10369 5.35269e-05 
5.98803 -2.10676 -0.000239354 
6.23431 -2.10546 -0.000177766 
6.44374 -2.09493 0.000203288 
6.65546 -2.09433 5.09981e-05 
6.91643 -2.0844 -0.000385325 
7.13169 -2.11941 -2.55969e-06 
7.35902 -2.1701 0.000135107 
7.54067 -2.06389 0.000649158 
7.71925 -2.15438 -8.67923e-05 
7.9321 -2.06684 0.000873739 
8.1758 -2.13736 0.000314983 
8.44583 -2.06737 -0.00179348 
-8.399 -1.75773 0.00186574 
-8.27191 -1.91874 0.00139237 
-7.88722 -1.89593 0.000398061 
-7.65957 -1.87384 0.000526053 
-7.42974 -1.7823 3.31301e-05 
-7.29927 -1.97703 -0.000501838 
[...]
POINT_DATA 1978 
VECTORS vectors float
0.139495 -0.214606 0.966312 
0.155805 -0.161232 0.976701 
0.166572 -0.121784 0.979877 
0.186611 -0.0889141 0.97839 
0.201684 -0.0811585 0.976444 
0.202799 -0.0819059 0.976449 
0.203107 -0.0731013 0.976929 
0.199856 -0.0587418 0.978382 
0.199018 -0.0441842 0.980262 
0.19901 -0.0290334 0.979793 
0.200331 -0.0147976 0.980837 
0.206923 -0.00639024 0.978579 
0.209554 -0.00743762 0.97807 
0.211827 -0.00818816 0.977548 
0.211994 -0.00878231 0.977307 
0.211666 -0.00909777 0.977425 
0.211664 -0.0068801 0.977402 
0.211138 -0.00548932 0.977689 
0.210293 -0.00429813 0.977698 
0.208821 -0.00196993 0.978136 
0.207229 0.0029357 0.978643 
0.20526 0.0106194 0.979155 
0.203806 0.018411 0.979398 
0.202307 0.0240631 0.979638 
0.198866 0.0296518 0.980328 
0.192818 0.0377373 0.981482 
0.18451 0.0555098 0.982394 
0.177308 0.0819716 0.982023 
0.169304 0.118522 0.979806 
0.159542 0.158973 0.97603 
0.145856 0.206676 0.969614 
0.128142 0.268252 0.957227 
0.109694 0.342786 0.935701 
0.0877239 0.442186 0.895161 
0.0665324 0.543645 0.838951 
0.0404174 0.686188 0.727944 
0.0233083 0.811181 0.586079 
0.0146722 0.895874 0.447584 
0.00521566 0.976325 0.208731 
-0.001154 0.998706 -0.0665342 
-0.00286503 0.968984 -0.243905 
-0.00817173 0.916717 -0.404217 
-0.0194705 0.820377 -0.572238 
-0.0416865 0.672105 -0.741397 
-0.0657836 0.546388 -0.83741 
-0.0853709 0.453312 -0.888375 
-0.102808 0.367804 -0.92672 
-0.128251 0.264869 -0.957686 
-0.143979 0.210646 -0.969146 
-0.159803 0.158085 -0.976099 
-0.170643 0.115777 -0.980011 
-0.178495 0.0858014 -0.981561 
-0.186301 0.0586002 -0.981657 
-0.193525 0.0415374 -0.981089 
-0.19769 0.0297499 -0.980666 
-0.200978 0.0223604 -0.980014 
-0.203618 0.0135867 -0.979497 
-0.206906 0.00673154 -0.978878 
-0.209528 0.00426406 -0.978036 
-0.210081 0.00432367 -0.977896 
-0.21009 0.00162018 -0.978058 
-0.209909 -0.00347724 -0.977949 
-0.210038 -0.00672256 -0.977894 
-0.211752 -0.00832788 -0.977515 
-0.210745 -0.00843548 -0.977687 
-0.208858 -0.00957851 -0.978214 
-0.207471 -0.0145228 -0.978514 
-0.207062 -0.0202525 -0.978389 
-0.206392 -0.0238693 -0.978626 
-0.205403 -0.0292599 -0.978808 
-0.203091 -0.0375799 -0.979026 
-0.202811 -0.0494269 -0.978659 
-0.203972 -0.0588925 -0.977953 
-0.199093 -0.0620147 -0.978481 
-0.189253 -0.0739222 -0.980026 
-0.173978 -0.109242 -0.979661 
-0.166137 -0.174179 -0.971682 
-0.168365 -0.228231 -0.960713 
-0.196124 -0.289255 -0.934694 
0.0891981 -0.225156 0.970641 
0.114469 -0.179405 0.983603 
0.122262 -0.139564 0.992345 
0.143661 -0.11067 0.992294 
0.165654 -0.0878871 0.990022 
0.16781 -0.077176 0.990488 
0.157858 -0.0642941 0.993923 
0.163642 -0.0552329 0.993013 
0.16549 -0.0431663 0.993098 
0.149148 -0.0290578 0.99791 
0.166364 -0.017812 0.993874 
0.16803 -0.0123464 0.993373 
0.166469 -0.0104993 0.994013 
0.17153 -0.00904231 0.99294 
0.169287 -0.0085548 0.993264 
0.171773 -0.00772761 0.992783 
0.170073 -0.00595599 0.993299 
0.171309 -0.00370613 0.992751 
0.170799 -0.00102321 0.992989 
0.167782 0.00242618 0.993589 
0.164485 0.0073774 0.994483 
0.163618 0.0138702 0.994653 
0.159399 0.0212121 0.995228 
0.160289 0.0292319 0.994742 
0.15359 0.0386971 0.995551 
0.150867 0.0517784 0.995326 
0.142517 0.071513 0.995465 
0.139896 0.0980701 0.993461 
0.131561 0.134363 0.990517 
0.120747 0.177506 0.985462 
0.108132 0.232727 0.975805 
0.091746 0.299838 0.959216 
0.077929 0.382526 0.930264 
0.0591665 0.478971 0.885421 
0.0450416 0.601844 0.804666 
0.0281465 0.726218 0.696806 
0.0177977 0.822919 0.573518 
0.0108261 0.911212 0.41873 
0.00540026 0.974699 0.230353 
0.00176545 1.00061 0.0103817 
-0.00350524 0.976497 -0.218427 
-0.00874473 0.909473 -0.422137 
-0.0171945 0.810171 -0.591807 
-0.0293582 0.701755 -0.721837 
-0.0476751 0.562113 -0.83354 
-0.0634421 0.445598 -0.904605 
-0.0906626 0.33833 -0.945353 
-0.0959459 0.271588 -0.966681 
-0.117611 0.20437 -0.980166 
-0.129989 0.149567 -0.988487 
-0.130313 0.11725 -0.993068 
-0.145986 0.0848492 -0.993623 
-0.149822 0.0607889 -0.99493 
-0.152329 0.0450636 -0.995502 
-0.154846 0.0331607 -0.995659 
-0.161633 0.0233121 -0.994743 
-0.160324 0.0157432 -0.995191 
-0.166129 0.0093838 -0.993935 
-0.170913 0.00571965 -0.992869 
-0.166165 0.00349137 -0.994154 
-0.169171 -0.000183162 -0.993476 
-0.169723 -0.00397023 -0.993281 
-0.168778 -0.00673358 -0.993418 
-0.170186 -0.00831987 -0.99278 
-0.169309 -0.00963163 -0.993245 
-0.165922 -0.0126962 -0.994108 
-0.167495 -0.0172891 -0.993472 
-0.167582 -0.0217077 -0.993558 
-0.161382 -0.0266035 -0.994889 
-0.166467 -0.0334702 -0.993071 
-0.161241 -0.0422179 -0.994606 
-0.157355 -0.0512794 -0.994863 
-0.164316 -0.0610119 -0.992074 
-0.155791 -0.0765192 -0.993343 
-0.148521 -0.100411 -0.992371 
-0.145077 -0.141891 -0.988362 
-0.138474 -0.180624 -0.983583 
-0.161031 -0.230422 -0.964669 
-0.165327 -0.247941 -0.95373 
0.0589724 -0.238936 0.969188 
0.0879983 -0.180125 0.98876 
0.0930116 -0.139135 0.996395 
0.121979 -0.106811 0.994621 
0.108173 -0.0960173 0.999075 
0.140775 -0.0838503 0.994537 
0.128534 -0.0696104 0.998557 
0.118675 -0.0575189 1.00024 
0.13264 -0.0478409 0.999106 
0.12824 -0.0374479 1.00019 
0.123216 -0.0250529 1.00067 
0.131181 -0.0185352 0.999961 
0.130165 -0.0142836 0.999967 
0.130448 -0.0110165 0.99994 
0.13251 -0.00954088 0.999458 
0.133721 -0.00881391 0.999303 
0.13257 -0.00733813 0.999376 
0.134271 -0.00451237 0.999276 
0.135138 -0.00114987 0.999223 
0.132872 0.00255603 0.999578 
0.127991 0.00706362 1.00016 
0.127021 0.0128185 1.00032 
0.12336 0.0199198 1.00086 
0.123094 0.0281982 1.00065 
0.118478 0.0379451 1.00091 
0.116664 0.0512797 1.00053 
0.110642 0.0691875 1.00017 
0.108073 0.0923575 0.998671 
0.106042 0.122073 0.995816 
0.0965595 0.164177 0.991065 
0.0860079 0.216938 0.982227 
0.0715696 0.28387 0.966411 
0.0593168 0.368154 0.938458 
0.0454381 0.460032 0.898636 
0.0364446 0.573544 0.828794 
0.0233372 0.699795 0.724791 
0.00932735 0.819373 0.5799 
0.00471163 0.913378 0.413669 
0.00114552 0.977632 0.216803 
-0.00327339 1.00021 -0.0132237 
-0.00503003 0.974339 -0.231133 
-0.00860199 0.906153 -0.429865 
-0.012864 0.811617 -0.591747 
-0.0242916 0.690783 -0.733567 
-0.0363979 0.565021 -0.834567 
-0.0440429 0.466281 -0.894445 
-0.0648857 0.36671 -0.937021 
-0.0687242 0.295572 -0.962901 
-0.0862235 0.225751 -0.980451 
-0.0999939 0.170302 -0.990091 
-0.0969698 0.131445 -0.995896 
-0.109934 0.0967695 -0.99832 
-0.116623 0.0726092 -0.999452 
-0.114873 0.0542065 -1.00063 
-0.116816 0.0407109 -1.00102 
-0.122569 0.0290882 -1.00065 
-0.12177 0.0212073 -1.00077 
-0.126743 0.0144686 -1.00036 
-0.133649 0.00868625 -0.999529 
-0.129259 0.00519058 -1.00002 
-0.132222 0.00142884 -0.999578 
-0.133063 -0.00243712 -0.999405 
-0.131627 -0.00618426 -0.999528 
-0.133187 -0.00879079 -0.999239 
-0.133337 -0.0101975 -0.999265 
-0.129296 -0.0124345 -0.999842 
-0.130623 -0.0161076 -0.999719 
-0.131137 -0.0202793 -0.999744 
-0.125662 -0.024763 -1.00043 
-0.129385 -0.0310623 -0.999977 
-0.127765 -0.0379336 -1.00008 
-0.119313 -0.0479337 -1.00063 
-0.126414 -0.0594944 -0.999335 
-0.128051 -0.0717161 -0.998661 
-0.11856 -0.0967011 -0.998711 
-0.119801 -0.126283 -0.992738 
-0.108045 -0.159113 -0.991754 
-0.123869 -0.207076 -0.979236 
-0.115452 -0.240423 -0.963637 
0.0424596 -0.260162 0.963044 
0.064971 -0.203533 0.985126 
0.0688462 -0.174036 0.991751 
0.0828744 -0.124706 0.99935 
0.0847702 -0.09723 1.00021 
0.107151 -0.0785723 1.00053 
0.0956661 -0.0648429 1.00262 
0.0992243 -0.048845 1.00203 
0.0997505 -0.0394608 1.00217 
0.103107 -0.0306417 1.00222 
0.0967214 -0.0228682 1.00282 
0.102159 -0.0181073 1.00232 
0.102838 -0.0138829 1.00215 
0.102246 -0.0113475 1.00225 
0.104895 -0.0101993 1.00179 
0.103266 -0.00873972 1.00196 
0.105861 -0.00605919 1.00176 
0.10669 -0.00188113 1.00174 
0.10513 0.0023434 1.00203 
0.102377 0.00726718 1.00231 
0.099133 0.0128993 1.00263 
0.0958828 0.0192452 1.00298 
0.0947363 0.0268399 1.00297 
0.0913729 0.0361119 1.00297 
0.0902417 0.0484766 1.0026 
0.0865569 0.0638774 1.00206 
0.0836064 0.0848766 1.00095 
0.0810045 0.110951 0.998927 
0.0785731 0.144337 0.995225 
0.0697127 0.192433 0.988413 
0.0597168 0.252261 0.976049 
0.0481949 0.335475 0.951619 
0.0354568 0.426334 0.913565 
0.0220161 0.516146 0.867095 
0.0255529 0.568188 0.833519 
0.0143887 0.703883 0.720834 
-8.81705e-05 0.84183 0.54634 
-0.00428635 0.932219 0.368521 
-0.00455067 0.988355 0.163961 
-0.00682684 1.00057 -0.0369352 
-0.00662688 0.97921 -0.213836 
-0.00534865 0.93157 -0.373003 
-0.00851017 0.852321 -0.534631 
-0.0130462 0.74972 -0.671392 
-0.021628 0.63921 -0.779487 
-0.0294481 0.517683 -0.865446 
-0.0458891 0.384067 -0.932897 
-0.0514744 0.299364 -0.964254 
-0.0657349 0.227229 -0.981247 
-0.0761419 0.173844 -0.99086 
-0.0772014 0.12673 -0.997724 
-0.0841749 0.0973274 -1.00001 
-0.0890977 0.0739592 -1.00142 
-0.0861936 0.0573455 -1.00259 
-0.0906469 0.0422654 -1.0028 
-0.0924187 0.0321235 -1.00289 
-0.0935792 0.0237816 -1.00308 
-0.0992222 0.016436 -1.0026 
-0.10277 0.0109981 -1.00228 
-0.102251 0.00595305 -1.00239 
-0.102107 0.0016746 -1.00229 
-0.104316 -0.00255393 -1.00207 
-0.104813 -0.00696566 -1.00196 
-0.10356 -0.00984848 -1.0019 
-0.104418 -0.0113787 -1.0018 
-0.101934 -0.0134923 -1.00216 
-0.102462 -0.0171921 -1.00213 
-0.101693 -0.0212745 -1.00225 
-0.100118 -0.0266875 -1.0024 
-0.0995258 -0.0326607 -1.00235 
-0.0980678 -0.0401612 -1.00234 
-0.0952922 -0.0530923 -1.00201 
-0.0969119 -0.0652338 -1.00151 
-0.099377 -0.0813028 -0.999906 
-0.0863208 -0.100702 -0.999696 
-0.0941338 -0.120303 -0.997413 
-0.0840175 -0.151482 -0.994621 
-0.0920051 -0.194385 -0.986005 
-0.0773751 -0.244102 -0.966528 
0.0546861 -0.272276 0.959613 
0.0531119 -0.231224 0.978216 
0.0635702 -0.148739 0.995497 
0.0667428 -0.114719 0.999792 
0.0639199 -0.0912594 1.00396 
0.0812796 -0.0786839 1.00111 
0.0706964 -0.0676186 1.00387 
0.0810371 -0.0555155 1.00339 
0.0736479 -0.0432243 1.00451 
0.0794942 -0.0343763 1.00437 
0.0805678 -0.0273946 1.00427 
0.0725878 -0.0219268 1.00524 
0.0792662 -0.0176846 1.0046 
0.0791155 -0.0143423 1.00454 
0.0789116 -0.0125482 1.0046 
0.0792856 -0.0112923 1.00445 
0.0813575 -0.00869344 1.00442 
0.0827364 -0.00439158 1.00445 
0.082061 0.000531508 1.00445 
0.0795381 0.00577713 1.00477 
0.0778146 0.0113162 1.00486 
0.0738101 0.0177209 1.00508 
0.0723788 0.0246848 1.00502 
0.0699149 0.0331085 1.00484 
0.0687778 0.0436536 1.00457 
0.0670801 0.055981 1.00414 
0.0659154 0.072887 1.00331 
0.0630309 0.0952561 1.00198 
0.0612808 0.123387 0.999516 
0.0591583 0.159165 0.995154 
0.0510885 0.2105 0.986753 
0.0425841 0.278071 0.970941 
0.0312655 0.361227 0.945341 
0.017833 0.484019 0.88743 
0.00801111 0.66545 0.756951 
-0.00211245 0.782608 0.630672 
-0.00728666 0.884963 0.479315 
-0.00820355 0.946805 0.331139 
-0.00673692 0.983548 0.190982 
-0.00302901 1.00124 -0.00720037 
-2.68186e-05 0.979355 -0.207376 
-0.00159664 0.915233 -0.414072 
-0.00292601 0.823225 -0.576095 
-0.00919938 0.719152 -0.709113 
-0.0163613 0.604038 -0.808832 
-0.0204901 0.504561 -0.875499 
-0.0324154 0.420335 -0.918194 
-0.0341243 0.3505 -0.946567 
-0.0450556 0.261373 -0.97527 
-0.054627 0.200117 -0.988402 
-0.0612073 0.152501 -0.995952 
-0.0620707 0.110032 -1.00096 
-0.0666318 0.0839229 -1.00286 
-0.0657862 0.0659193 -1.004 
-0.0682462 0.0493066 -1.0045 
-0.0680428 0.0379611 -1.00484 
-0.0705779 0.0288913 -1.00499 
-0.074513 0.0209069 -1.00492 
-0.0764323 0.0146506 -1.00482 
-0.0802212 0.00922084 -1.0047 
-0.0782314 0.00377531 -1.00491 
-0.0795269 -0.00185019 -1.00466 
-0.0813345 -0.00675431 -1.00456 
-0.0801905 -0.0103291 -1.00449 
-0.079602 -0.0123681 -1.00434 
-0.0792907 -0.0138362 -1.00448 
-0.078435 -0.0168906 -1.00461 
-0.0773296 -0.0207108 -1.00483 
-0.079435 -0.0248892 -1.00435 
-0.0748422 -0.0309229 -1.00498 
-0.0738341 -0.0378228 -1.00485 
-0.0768625 -0.04792 -1.00417 
-0.0734928 -0.0628479 -1.00443 
-0.0763372 -0.0778448 -1.00271 
-0.0679309 -0.0994913 -1.00151 
-0.0693408 -0.128314 -0.997952 
-0.0609131 -0.166989 -0.993916 
-0.0675857 -0.201838 -0.985937 
-0.0482531 -0.251505 -0.966831 
0.0610973 -0.26967 0.960593 
0.0528547 -0.223697 0.981383 
0.0558372 -0.192997 0.988966 
0.0528851 -0.147205 0.997485 
0.05327 -0.115325 1.00015 
0.0545664 -0.0793474 1.00434 
0.0566482 -0.0595512 1.00508 
0.0582714 -0.0486566 1.00522 
0.0587738 -0.0375295 1.00567 
0.060778 -0.0307625 1.00582 
0.0592783 -0.0252632 1.00582 
0.0586392 -0.0200334 1.00594 
0.0616293 -0.0168049 1.0056 
0.062654 -0.0144309 1.00555 
0.0614866 -0.013281 1.00545 
0.0643447 -0.0110937 1.00545 
0.0649598 -0.00676327 1.0056 
0.0649664 -0.000935276 1.0056 
0.0636374 0.00493901 1.0057 
0.0616326 0.0111237 1.00583 
0.0590552 0.0173213 1.00582 
0.0569704 0.0244078 1.00574 
0.0545781 0.0321891 1.0056 
0.053644 0.0417981 1.00532 
0.0521946 0.0536698 1.0049 
0.051586 0.0692864 1.00422 
0.049528 0.0898438 1.00315 
0.0472315 0.11806 1.00092 
0.0451629 0.154067 0.996916 
0.0410752 0.200002 0.989808 
0.0331202 0.276094 0.972422 
0.0207103 0.375285 0.939267 
0.0111051 0.493029 0.882112 
0.000599805 0.629359 0.786513 
0.00661966 0.60272 0.80963 
-0.00132499 0.719921 0.708462 
-0.00603178 0.808065 0.592906 
-0.00516519 0.891284 0.460217 
-0.00437424 0.988598 0.162203 
-0.00167761 0.999558 0.0538378 
0.00126057 0.996769 -0.106683 
0.00450188 0.968606 -0.256065 
0.00451536 0.885778 -0.476341 
-0.000927375 0.760542 -0.657968 
-0.00686195 0.634975 -0.784619 
-0.00951185 0.541666 -0.853323 
-0.0197557 0.427351 -0.916416 
-0.0282682 0.321906 -0.95994 
-0.0363131 0.24304 -0.980477 
-0.043831 0.184957 -0.991028 
-0.0496106 0.139391 -0.999515 
-0.0483356 0.104296 -1.00226 
-0.0492287 0.0822867 -1.00379 
-0.0525719 0.0616611 -1.00475 
-0.0522024 0.0483282 -1.00518 
-0.0528042 0.0377552 -1.00541 
-0.0565675 0.028628 -1.0056 
-0.0582969 0.0217249 -1.00563 
-0.0601802 0.015216 -1.00572 
-0.0633303 0.00912792 -1.00578 
-0.062267 0.00266742 -1.0058 
-0.0636943 -0.00366353 -1.00566 
-0.0635833 -0.00881826 -1.00563 
-0.0631714 -0.0123986 -1.00541 
-0.0621324 -0.0141297 -1.00544 
-0.0622405 -0.0156365 -1.00555 
-0.0599576 -0.0186937 -1.00566 
-0.0603932 -0.0227368 -1.00575 
-0.0611555 -0.0268122 -1.00571 
-0.0565979 -0.032702 -1.00592 
-0.0567787 -0.0411237 -1.00564 
-0.059524 -0.0523412 -1.00453 
-0.0537352 -0.0654428 -1.00487 
-0.0578996 -0.0804429 -1.00421 
-0.0510229 -0.101751 -1.0029 
-0.0527742 -0.129129 -0.999527 
-0.0457804 -0.16825 -0.995162 
-0.0460325 -0.211477 -0.984563 
-0.0307754 -0.26103 -0.965089 
0.0496962 -0.265123 0.962885 
0.0434925 -0.212905 0.985122 
0.0473788 -0.174713 0.99352 
0.0411535 -0.131138 1.00067 
0.0453409 -0.0983679 1.00311 
0.0390866 -0.0812654 1.00463 
0.0443104 -0.0660002 1.00407 
0.0418729 -0.0516739 1.00626 
0.0472626 -0.0422669 1.00484 
0.0442877 -0.0333895 1.0063 
0.0441023 -0.0276098 1.00614 
0.0470879 -0.022886 1.00608 
0.044072 -0.0191448 1.00617 
0.0477286 -0.016394 1.00585 
0.0478135 -0.0149729 1.00584 
0.0480741 -0.0135151 1.00582 
0.0505668 -0.00977332 1.00593 
0.0497906 -0.00406167 1.00607 
0.0485332 0.0023332 1.00607 
0.0474436 0.00867122 1.00612 
0.0455798 0.0151334 1.00608 
0.0444033 0.0218395 1.00597 
0.0421568 0.0288746 1.00581 
0.04077 0.0368327 1.00557 
0.0401298 0.0460836 1.00525 
0.0393938 0.0580051 1.00481 
0.0382697 0.0735336 1.00426 
0.0371845 0.0959387 1.00309 
0.0352543 0.12626 1.00061 
0.0329189 0.165989 0.995835 
0.0296343 0.226368 0.985 
0.0208571 0.31084 0.962804 
0.00940523 0.439865 0.910755 
0.000915785 0.561886 0.840088 
-0.00385125 0.745512 0.676036 
-0.00461136 0.872638 0.492237 
-0.00262604 0.916712 0.405799 
0.00228421 0.966684 0.25089 
-0.0013774 0.953113 0.314087 
-0.00070748 0.983202 0.165418 
0.00218648 0.999288 -0.0530646 
0.0032175 0.951015 -0.312859 
0.00758886 0.863245 -0.511435 
0.00765442 0.803795 -0.605014 
0.00228757 0.709707 -0.716388 
-0.00366431 0.552019 -0.845503 
-0.0129848 0.419804 -0.919618 
-0.0203987 0.319637 -0.960181 
-0.0273214 0.241921 -0.981414 
-0.0336285 0.183254 -0.992739 
-0.0320799 0.154984 -0.996968 
-0.038293 0.125259 -0.999503 
-0.0351177 0.0965519 -1.00324 
-0.0390125 0.0734839 -1.00438 
-0.0391648 0.0568518 -1.00503 
-0.039507 0.0444665 -1.00545 
-0.041754 0.0344203 -1.00569 
-0.0428678 0.0271891 -1.00585 
-0.0450328 0.0202607 -1.00599 
-0.0471185 0.0134647 -1.00621 
-0.0487534 0.00708225 -1.00628 
-0.0488925 -0.000450318 -1.00627 
-0.0488193 -0.00726191 -1.00625 
-0.0484718 -0.0123096 -1.006 
-0.0475447 -0.014893 -1.00588 
-0.0473004 -0.0161264 -1.0059 
-0.0463368 -0.0180826 -1.00583 
-0.046075 -0.0217248 -1.0061 
-0.0449332 -0.0255369 -1.00605 
-0.043635 -0.0303862 -1.00629 
-0.043333 -0.0388162 -1.00674 
-0.044856 -0.0495798 -1.00558 
-0.041959 -0.065031 -1.00517 
-0.0432806 -0.0860826 -1.0042 
-0.03735 -0.107391 -1.00243 
-0.0395816 -0.131234 -0.99963 
-0.0328792 -0.163988 -0.995869 
-0.0326907 -0.20742 -0.986803 
-0.0224493 -0.266799 -0.963329 
0.035246 -0.262213 0.963946 
0.032838 -0.210684 0.985998 
0.0372045 -0.164164 0.995912 
0.0290262 -0.13383 0.999522 
0.0346332 -0.108375 1.00267 
0.0288149 -0.0819919 1.00455 
0.0312015 -0.0624199 1.00537 
0.0278572 -0.0487256 1.00595 
0.0329471 -0.0396656 1.0064 
0.0287471 -0.0325846 1.00674 
0.0310987 -0.0269434 1.00646 
0.0337148 -0.0230092 1.00648 
0.0307785 -0.0198955 1.00645 
0.0348056 -0.0174576 1.00686 
0.0358738 -0.0166151 1.00557 
0.0363263 -0.0142567 1.00697 
0.0378298 -0.00902509 1.00589 
0.0367572 -0.00224789 1.00732 
0.0362655 0.00507 1.00602 
0.0351202 0.0119364 1.00656 
0.0338801 0.0190669 1.0064 
0.0324645 0.0258228 1.00617 
0.0312022 0.0333143 1.00587 
0.0303825 0.0418964 1.00557 
0.0302087 0.0526627 1.0052 
0.0294314 0.0665787 1.0047 
0.0289175 0.086059 1.00392 
0.02739 0.113838 1.00212 
0.0253607 0.153119 0.99797 
0.0234878 0.209523 0.98888 
0.0168471 0.285277 0.970753 
0.00747036 0.401578 0.928451 
-0.000465095 0.525453 0.862584 
-0.00321527 0.644132 0.774764 
-0.00406876 0.732682 0.690757 
-0.00363496 0.87772 0.477822 
0.00640559 0.969214 0.234574 
-0.0041176 0.999373 0.0900695 
0.00408491 1.00012 0.0466235 
0.00619048 1.00255 0.01403 
0.00282864 1.0034 -0.0357695 
0.00192258 0.997778 -0.0874246 
0.00224823 0.957295 -0.288302 
0.0077198 0.834158 -0.55093 
0.00379477 0.659705 -0.764849 
0.0056603 0.59102 -0.817913 
-0.00212329 0.489163 -0.884983 
-0.00641313 0.405256 -0.926196 
-0.014667 0.307466 -0.963159 
-0.0208939 0.232727 -0.983191 
-0.0249547 0.165286 -0.995744 
-0.0279199 0.11806 -1.00164 
-0.0284895 0.0827374 -1.00429 
-0.0296389 0.0641852 -1.00501 
-0.0295981 0.0504381 -1.00542 
-0.0309988 0.0396371 -1.00567 
-0.0313946 0.0318087 -1.00589 
-0.0329108 0.0249081 -1.00611 
-0.0345678 0.0183374 -1.00641 
-0.0352959 0.0116062 -1.00718 
-0.0378702 0.00431485 -1.00592 
-0.036315 -0.00329537 -1.00734 
-0.036375 -0.0104882 -1.00657 
-0.0362258 -0.0151453 -1.00632 
-0.0350566 -0.0173055 -1.00627 
-0.0337922 -0.0182613 -1.00635 
-0.0338038 -0.0203271 -1.0057 
-0.0324722 -0.0237908 -1.00646 
-0.029977 -0.0275524 -1.00718 
-0.0309746 -0.0328717 -1.006 
-0.0289807 -0.0414745 -1.00638 
-0.0321665 -0.0513339 -1.00581 
-0.0275432 -0.0626951 -1.00537 
-0.0311414 -0.0795874 -1.00498 
-0.0266994 -0.102095 -1.00345 
-0.027053 -0.132435 -0.999678 
-0.0232523 -0.172325 -0.994747 
-0.0233107 -0.216602 -0.984912 
-0.0172379 -0.269133 -0.962545 
0.0182566 -0.262532 0.965298 
0.0213194 -0.21819 0.984145 
0.0267164 -0.169594 0.99506 
0.0191502 -0.126659 1.00017 
0.0231796 -0.100921 1.00326 
0.0171626 -0.0813243 1.00485 
0.0210098 -0.0658985 1.0052 
0.0183254 -0.0519116 1.00601 
0.0199251 -0.0393285 1.00661 
0.0186732 -0.0315979 1.00745 
0.0210377 -0.0270649 1.00668 
0.022973 -0.0234316 1.00662 
0.0209211 -0.020923 1.00636 
0.0246381 -0.0194402 1.00586 
0.0267323 -0.0185016 1.00635 
0.0265508 -0.0160266 1.00662 
0.027387 -0.00998869 1.00673 
0.0268777 -0.00227811 1.00695 
0.0258512 0.00560674 1.00761 
0.0257114 0.0130942 1.00681 
0.0244264 0.0200775 1.00655 
0.0235739 0.0268129 1.00622 
0.0224838 0.0336055 1.00592 
0.0219373 0.0412642 1.00572 
0.0217726 0.0510835 1.00546 
0.021193 0.0644772 1.00513 
0.020892 0.0833978 1.00457 