# vtk DataFile Version 3.0 
Exported using Morpho https://github.com/Morpho-lang/morpho 
ASCII 
DATASET UNSTRUCTURED_GRID 

POINTS 1978 float 
-8.48529 -2.82843 -1.17383e-08 
-8.25228 -2.82843 2.16785e-09 
-8.01944 -2.82843 5.34239e-09 
-7.76509 -2.82843 1.20036e-07 
-7.44731 -2.82843 1.00217e-07 
-7.17958 -2.82843 4.09327e-08 
-6.98194 -2.82843 3.46469e-08 
-6.75336 -2.82843 6.58998e-08 
-6.54176 -2.82843 5.62961e-08 
-6.34169 -2.82843 -2.07092e-08 
-6.14172 -2.82843 4.76209e-09 
-5.93373 -2.82843 6.78662e-09 
-5.71403 -2.82843 1.34026e-08 
-5.50854 -2.82843 5.46886e-09 
-5.29229 -2.82843 5.94904e-09 
-5.08018 -2.82843 1.31497e-08 
-4.86355 -2.82843 -6.05921e-09 
-4.65464 -2.82843 1.756e-09 
-4.43483 -2.82843 -6.04609e-09 
-4.21163 -2.82843 3.88179e-09 
-3.99347 -2.82843 -1.3584e-08 
-3.78142 -2.82843 -1.48299e-08 
-3.56481 -2.82843 -1.80508e-08 
-3.35203 -2.82843 -3.75496e-08 
-3.12843 -2.82843 -5.0537e-08 
-2.91617 -2.82843 -4.45973e-08 
-2.70546 -2.82843 -3.08683e-08 
-2.5103 -2.82843 -8.57276e-08 
-2.29459 -2.82843 -1.2443e-07 
-2.08479 -2.82843 -1.33612e-07 
-1.8758 -2.82843 -1.50354e-07 
-1.67104 -2.82843 -1.03958e-07 
-1.473 -2.82843 -1.44922e-07 
-1.25912 -2.82843 -1.81849e-07 
-1.08274 -2.82843 -1.40161e-08 
-0.828466 -2.82843 -1.19103e-07 
-0.617977 -2.82843 9.05988e-08 
-0.428199 -2.82843 -2.65427e-07 
-0.208912 -2.82843 2.30293e-07 
0.0324062 -2.82843 -3.88834e-08 
0.219465 -2.82843 -1.0345e-07 
0.409293 -2.82843 6.00391e-08 
0.625474 -2.82843 -5.72381e-09 
0.83209 -2.82843 -8.56363e-08 
1.03743 -2.82843 1.13299e-07 
1.24132 -2.82843 6.20737e-08 
1.43763 -2.82843 2.4533e-07 
1.6697 -2.82843 1.6113e-07 
1.86244 -2.82843 1.55556e-07 
2.0767 -2.82843 1.87726e-07 
2.30595 -2.82843 9.19509e-08 
2.49178 -2.82843 9.05979e-08 
2.72128 -2.82843 8.68714e-08 
2.94432 -2.82843 4.79823e-08 
3.15741 -2.82843 3.56168e-08 
3.36203 -2.82843 2.99981e-08 
3.58828 -2.82843 2.52357e-08 
3.79161 -2.82843 4.8457e-09 
4.00968 -2.82843 7.39777e-09 
4.2411 -2.82843 1.69892e-08 
4.44138 -2.82843 6.03166e-09 
4.65529 -2.82843 -6.63305e-09 
4.86409 -2.82843 2.88412e-09 
5.07017 -2.82843 -7.22e-09 
5.28611 -2.82843 -1.03752e-08 
5.4989 -2.82843 6.37274e-09 
5.70351 -2.82843 -7.81959e-09 
5.92387 -2.82843 -3.853e-08 
6.14691 -2.82843 5.77411e-09 
6.34941 -2.82843 -2.86333e-08 
6.58865 -2.82843 -3.88931e-08 
6.80046 -2.82843 -1.77847e-08 
6.99706 -2.82843 -6.49114e-08 
7.25531 -2.82843 -7.6152e-08 
7.48463 -2.82843 -1.90999e-08 
7.71752 -2.82843 -1.13166e-07 
7.97769 -2.82843 -1.64184e-08 
8.16495 -2.82843 -1.48373e-07 
8.48529 -2.82843 -8.24747e-08 
-8.48529 -2.59527 1.15629e-07 
-8.24794 -2.58946 -1.33233e-07 
-8.02517 -2.55606 -1.02632e-07 
-7.81603 -2.60819 -1.08736e-07 
-7.54851 -2.65201 -1.0808e-07 
-7.24239 -2.62263 -1.05918e-07 
-6.99372 -2.55757 -7.4893e-08 
-6.79213 -2.59745 -7.01229e-08 
-6.55734 -2.58068 -6.28845e-08 
-6.34051 -2.56721 -4.70938e-08 
-6.12762 -2.57742 -3.97093e-08 
-5.90374 -2.58928 -3.21054e-08 
-5.68939 -2.57177 -2.5293e-08 
-5.46977 -2.58487 -1.96131e-08 
-5.25278 -2.57976 -1.41685e-08 
-5.03395 -2.58495 -9.58599e-09 
-4.82186 -2.57581 -4.65662e-09 
-4.60251 -2.58779 7.5187e-10 
-4.37941 -2.59039 6.54816e-09 
-4.1599 -2.58342 1.33498e-08 
-3.94818 -2.57487 2.17506e-08 
-3.73471 -2.57956 3.21486e-08 
-3.52286 -2.57756 4.45839e-08 
-3.3036 -2.5937 6.11014e-08 
-3.09037 -2.58758 7.84358e-08 
-2.87789 -2.59272 1.0169e-07 
-2.67862 -2.58192 1.23072e-07 
-2.46744 -2.60841 1.60387e-07 
-2.24982 -2.60172 1.78586e-07 
-2.03926 -2.60003 2.01743e-07 
-1.82674 -2.59251 2.20376e-07 
-1.61775 -2.5819 2.02775e-07 
-1.41025 -2.59426 2.42359e-07 
-1.22531 -2.52748 4.31827e-08 
-0.992063 -2.62601 1.80495e-07 
-0.766372 -2.57619 8.40257e-09 
-0.581459 -2.4731 -2.21555e-07 
-0.396491 -2.51984 6.13582e-08 
-0.187063 -2.53716 -2.15472e-07 
0.00706017 -2.46184 1.37363e-07 
0.196998 -2.46511 5.1625e-08 
0.389629 -2.48547 1.29882e-07 
0.592729 -2.56411 -4.21654e-08 
0.818876 -2.57135 -8.356e-08 
1.04288 -2.5766 -9.3581e-08 
1.2594 -2.5761 -1.3792e-07 
1.4986 -2.62472 -2.31865e-07 
1.71608 -2.5838 -2.07606e-07 
1.93215 -2.6127 -2.21567e-07 
2.16209 -2.6238 -2.02947e-07 
2.36698 -2.56876 -1.48438e-07 
2.57517 -2.61193 -1.38657e-07 
2.80107 -2.60176 -1.11856e-07 
3.01267 -2.58994 -8.8888e-08 
3.21919 -2.57464 -6.55373e-08 
3.43801 -2.59637 -5.36911e-08 
3.64552 -2.5682 -3.75434e-08 
3.85973 -2.58426 -2.65128e-08 
4.08884 -2.59886 -1.79065e-08 
4.29894 -2.56407 -1.02027e-08 
4.51274 -2.58291 -3.25377e-09 
4.72608 -2.5784 2.16344e-09 
4.93863 -2.5764 7.45419e-09 
5.15334 -2.58859 1.27494e-08 
5.37205 -2.58434 1.73703e-08 
5.58338 -2.57333 2.26443e-08 
5.80012 -2.58953 2.95937e-08 
6.0259 -2.58956 3.6134e-08 
6.24055 -2.56267 4.24414e-08 
6.46238 -2.60271 5.65408e-08 
6.68892 -2.57252 6.51825e-08 
6.89514 -2.55302 7.46866e-08 
7.11901 -2.61973 9.72108e-08 
7.36782 -2.5917 9.89812e-08 
7.60127 -2.59349 1.14617e-07 
7.85154 -2.61529 1.36449e-07 
8.06449 -2.52508 1.06392e-07 
8.29133 -2.6428 1.61681e-07 
8.48529 -2.51934 7.51246e-08 
-8.48529 -2.35815 5.52177e-08 
-8.21697 -2.35991 -7.12654e-08 
-7.95633 -2.3037 -3.15109e-08 
-7.71457 -2.41848 -5.97805e-08 
-7.5593 -2.2525 -3.85294e-08 
-7.42869 -2.46558 -5.96495e-08 
-7.16065 -2.38405 -5.37553e-08 
-6.924 -2.30397 -4.14478e-08 
-6.70737 -2.36963 -3.91228e-08 
-6.47455 -2.33727 -3.08073e-08 
-6.24131 -2.32896 -2.55568e-08 
-6.0206 -2.3469 -2.14068e-08 
-5.80613 -2.33649 -1.64342e-08 
-5.57697 -2.33847 -1.27189e-08 
-5.36099 -2.34072 -9.55466e-09 
-5.13823 -2.34344 -6.26754e-09 
-4.92446 -2.3333 -2.89695e-09 
-4.70313 -2.34477 2.37683e-10 
-4.48252 -2.35436 3.804e-09 
-4.26265 -2.34794 7.95931e-09 
-4.04723 -2.32985 1.21867e-08 
-3.83288 -2.33054 1.73732e-08 
-3.62154 -2.33158 2.40662e-08 
-3.40334 -2.35054 3.31962e-08 
-3.19214 -2.35228 4.31909e-08 
-2.97676 -2.3579 5.45454e-08 
-2.77187 -2.3433 6.4826e-08 
-2.56035 -2.36849 8.40873e-08 
-2.35143 -2.3899 1.05576e-07 
-2.12687 -2.36875 1.13919e-07 
-1.91313 -2.36882 1.22816e-07 
-1.68999 -2.35302 1.07369e-07 
-1.46675 -2.3408 4.42118e-08 
-1.26321 -2.26578 8.93698e-08 
-1.03525 -2.38877 -1.07644e-08 
-0.834103 -2.3123 -2.98816e-08 
-0.613352 -2.19743 2.17903e-09 
-0.389779 -2.2073 -9.00573e-08 
-0.173292 -2.20297 6.30804e-09 
0.032553 -2.0945 -1.22418e-07 
0.246982 -2.14274 1.15707e-08 
0.452859 -2.12545 1.64383e-07 
0.613448 -2.27103 -5.19529e-08 
0.825787 -2.30366 7.51766e-08 
1.03731 -2.3316 2.31041e-09 
1.25961 -2.33301 -4.97209e-08 
1.47276 -2.40364 -1.02411e-07 
1.6589 -2.33443 -1.0228e-07 
1.87393 -2.37915 -1.22738e-07 
2.08763 -2.41108 -1.192e-07 
2.29848 -2.35802 -1.0683e-07 
2.53659 -2.36666 -8.64434e-08 
2.7426 -2.38469 -7.2551e-08 
2.96472 -2.35086 -5.55882e-08 
3.16443 -2.33255 -4.27804e-08 
3.38041 -2.35539 -3.44194e-08 
3.58434 -2.32389 -2.51493e-08 
3.79652 -2.33445 -1.90571e-08 
4.01248 -2.36385 -1.3799e-08 
4.22187 -2.32537 -8.37112e-09 
4.44349 -2.33266 -4.34939e-09 
4.65275 -2.33379 -9.35596e-10 
4.86533 -2.33441 2.26041e-09 
5.08255 -2.34201 5.38711e-09 
5.29405 -2.35014 8.54032e-09 
5.51001 -2.33145 1.12256e-08 
5.72905 -2.34312 1.51408e-08 
5.94609 -2.35589 1.97124e-08 
6.16313 -2.32472 2.31057e-08 
6.39634 -2.34859 3.00583e-08 
6.60681 -2.34602 3.63873e-08 
6.82795 -2.298 3.74851e-08 
7.05649 -2.35998 4.91246e-08 
7.27163 -2.38794 5.56587e-08 
7.52662 -2.35808 5.56574e-08 
7.76919 -2.38782 6.34195e-08 
7.98466 -2.29693 3.64486e-08 
8.25323 -2.36628 1.08588e-07 
8.48529 -2.26881 2.21486e-08 
-8.48528 -2.11605 -7.68755e-08 
-8.24824 -2.14723 -5.89441e-08 
-8.06018 -2.04933 2.27198e-09 
-7.79365 -2.13713 -1.3198e-08 
-7.52197 -2.03149 -1.24553e-08 
-7.31105 -2.2255 -2.81444e-08 
-7.06854 -2.11936 -1.94669e-08 
-6.79397 -2.09884 -1.91079e-08 
-6.59301 -2.12342 -1.79885e-08 
-6.35439 -2.11321 -1.59933e-08 
-6.12212 -2.09508 -1.14045e-08 
-5.917 -2.09645 -9.57706e-09 
-5.69398 -2.11124 -7.90403e-09 
-5.47157 -2.0976 -5.90296e-09 
-5.25389 -2.10939 -4.14611e-09 
-5.03974 -2.09689 -1.82927e-09 
-4.81809 -2.10525 1.41992e-10 
-4.59893 -2.11575 2.2164e-09 
-4.38305 -2.11627 4.34778e-09 
-4.17046 -2.09999 6.68183e-09 
-3.95439 -2.08828 8.86604e-09 
-3.74347 -2.08842 1.20582e-08 
-3.52709 -2.10575 1.61899e-08 
-3.31878 -2.1132 2.12902e-08 
-3.10627 -2.12386 2.79725e-08 
-2.90171 -2.11565 3.42164e-08 
-2.68531 -2.12238 4.18216e-08 
-2.4776 -2.14434 5.02306e-08 
-2.26719 -2.16741 6.24057e-08 
-2.03712 -2.13244 6.53121e-08 
-1.81748 -2.13872 5.87025e-08 
-1.58866 -2.11615 4.06461e-08 
-1.38279 -2.05169 -5.29983e-08 
-1.15973 -1.94049 4.37153e-08 
-1.06486 -2.1342 -1.14392e-07 
-0.824099 -2.05796 7.89126e-08 
-0.589254 -1.91845 -1.64329e-07 
-0.36251 -1.91883 -5.66674e-09 
-0.139589 -1.87017 1.07011e-07 
0.0458916 -1.57416 5.78721e-07 
0.141357 -1.80112 1.10228e-08 
0.342352 -1.80615 -1.84823e-08 
0.572788 -1.85094 -6.41312e-08 
0.762593 -2.00319 2.11272e-07 
0.974899 -2.039 1.25591e-08 
1.18338 -2.09138 -4.61513e-09 
1.42205 -2.14205 -4.57088e-08 
1.64536 -2.10469 -4.64273e-08 
1.88135 -2.14857 -7.31781e-08 
2.10345 -2.17782 -7.87407e-08 
2.35503 -2.15767 -6.27807e-08 
2.57438 -2.13091 -4.9026e-08 
2.7903 -2.15655 -4.3544e-08 
2.98712 -2.09426 -2.9324e-08 
3.20966 -2.10972 -2.32424e-08 
3.40969 -2.10422 -1.8287e-08 
3.62347 -2.08558 -1.38779e-08 
3.84075 -2.10454 -1.10844e-08 
4.04336 -2.11258 -8.03272e-09 
4.27116 -2.09552 -5.13139e-09 
4.48222 -2.08856 -2.94884e-09 
4.69611 -2.09346 -9.84601e-10 
4.91417 -2.10253 8.85593e-10 
5.12744 -2.1019 2.65951e-09 
5.33935 -2.11123 4.50974e-09 
5.56346 -2.10027 6.06211e-09 
5.78078 -2.10806 8.30185e-09 
5.99222 -2.10972 1.09356e-08 
6.23351 -2.10677 1.36334e-08 
6.44405 -2.09579 1.64106e-08 
6.65548 -2.09582 1.95295e-08 
6.91083 -2.08782 1.90729e-08 
7.1243 -2.12122 1.95585e-08 
7.3496 -2.16936 2.24765e-08 
7.53561 -2.06533 1.1769e-08 
7.71927 -2.1554 2.22882e-08 
7.94117 -2.06635 9.17475e-10 
8.19757 -2.1409 3.75439e-08 
8.48529 -2.0708 -2.35339e-08 
-8.48528 -1.75612 -4.86091e-08 
-8.32324 -1.89074 -6.4381e-08 
-7.89315 -1.89091 1.37454e-08 
-7.66875 -1.87806 -2.54355e-09 
[...]
POINT_DATA 1978 
VECTORS vectors float
0.00638275 -0.0188097 0.999807 
0.0118085 -0.0891325 0.995954 
0.0111725 -0.101084 0.994819 
0.0134141 -0.0976604 0.995138 
0.013621 -0.0823069 0.996524 
0.0106299 -0.0674809 0.997667 
0.00930453 -0.0574632 0.998307 
0.00964703 -0.0465432 0.998873 
0.00926694 -0.0376091 0.999252 
0.00895657 -0.0302514 0.999505 
0.00924107 -0.0237493 0.999678 
0.00970552 -0.0183238 0.999788 
0.0096882 -0.0138623 0.99986 
0.0097879 -0.0107673 0.999897 
0.00987559 -0.00849133 0.999918 
0.00994548 -0.00662741 0.999932 
0.0098536 -0.00471187 0.999943 
0.0100047 -0.0025173 0.99995 
0.0102371 0.000457972 0.999951 
0.010164 0.00442267 0.999942 
0.00985043 0.00914588 0.999912 
0.00969527 0.0147691 0.999847 
0.00965573 0.0220039 0.999714 
0.00974104 0.0310522 0.999473 
0.00953161 0.0435821 0.999007 
0.00902733 0.0591139 0.998213 
0.00846288 0.0790818 0.996835 
0.00831603 0.10262 0.994688 
0.0080409 0.136181 0.990654 
0.00749507 0.178125 0.983981 
0.00667481 0.230733 0.972996 
0.0058152 0.294559 0.955617 
0.00494459 0.369952 0.929039 
0.00397604 0.464579 0.885524 
0.00322258 0.555626 0.831427 
0.00215528 0.695852 0.718183 
0.00111616 0.812783 0.582566 
0.000473219 0.895099 0.445866 
0.0001394 0.975561 0.21973 
2.94769e-05 0.99914 -0.0414562 
-0.000122125 0.971936 -0.235247 
-0.00045664 0.907838 -0.419321 
-0.00121373 0.807185 -0.590297 
-0.00191822 0.693216 -0.720728 
-0.00290022 0.577472 -0.816406 
-0.00401536 0.470783 -0.882241 
-0.00529862 0.383361 -0.923585 
-0.00599022 0.294616 -0.955598 
-0.00694174 0.234787 -0.972024 
-0.00776883 0.181609 -0.983342 
-0.00798084 0.134956 -0.990821 
-0.00856208 0.10634 -0.994295 
-0.00935518 0.0782232 -0.996895 
-0.00943856 0.0572895 -0.998316 
-0.00920766 0.0422435 -0.999067 
-0.00953944 0.0309865 -0.999477 
-0.00959054 0.0215271 -0.999725 
-0.00976386 0.0151119 -0.999841 
-0.0101889 0.00963541 -0.999905 
-0.00993762 0.00470815 -0.999942 
-0.00963047 0.00142581 -0.999955 
-0.00959755 -0.0015644 -0.999956 
-0.00962662 -0.00427977 -0.999947 
-0.00976607 -0.0067224 -0.999933 
-0.00982195 -0.00950372 -0.99991 
-0.00968264 -0.0123399 -0.99988 
-0.00984965 -0.0152245 -0.999838 
-0.0100327 -0.0192755 -0.999767 
-0.00986843 -0.0242885 -0.999659 
-0.0101041 -0.0296202 -0.999513 
-0.0099514 -0.0376536 -0.999244 
-0.00935682 -0.0462711 -0.998887 
-0.0100944 -0.056329 -0.998364 
-0.0106934 -0.0738616 -0.997215 
-0.0104422 -0.0917945 -0.995726 
-0.0107783 -0.108314 -0.994062 
-0.0106074 -0.11741 -0.99303 
-0.0142927 -0.108119 -0.994042 
-0.00814547 -0.017297 -0.999819 
0.00277863 -0.0110772 0.999937 
0.0382264 -0.0749108 0.996458 
0.0472132 -0.0920538 0.994634 
0.0458316 -0.0942804 0.994491 
0.0421857 -0.0854944 0.995446 
0.046182 -0.0699055 0.996485 
0.053933 -0.0574891 0.996888 
0.0512297 -0.0480572 0.99753 
0.0542167 -0.0378748 0.997811 
0.0563047 -0.0299619 0.997964 
0.056076 -0.023473 0.998151 
0.0552344 -0.0178558 0.998314 
0.0579082 -0.0137636 0.998227 
0.0570273 -0.010587 0.998317 
0.0579722 -0.00815097 0.998285 
0.0575978 -0.00597984 0.998322 
0.0586075 -0.00378839 0.998274 
0.0569374 -0.00118883 0.998377 
0.0561805 0.00214939 0.998419 
0.0564456 0.00631224 0.998386 
0.0566439 0.011262 0.998331 
0.0553175 0.0173774 0.998318 
0.0546917 0.0250389 0.99819 
0.0520381 0.0350642 0.99803 
0.0515906 0.0479457 0.997517 
0.0496607 0.0644891 0.996682 
0.0487685 0.0846008 0.995221 
0.0437598 0.111326 0.99282 
0.0407936 0.147339 0.988245 
0.0367897 0.191883 0.980728 
0.0324941 0.248368 0.968121 
0.0275783 0.317789 0.947761 
0.0216359 0.400553 0.916018 
0.0176695 0.48731 0.873051 
0.0105255 0.608973 0.793122 
0.00655565 0.733706 0.679436 
0.00426096 0.829603 0.558337 
0.00202129 0.91614 0.400854 
0.000805638 0.9794 0.201929 
-0.000868356 0.999999 0.000431958 
-0.00212 0.979113 -0.203306 
-0.00404535 0.918956 -0.39434 
-0.0064179 0.823965 -0.566605 
-0.0100672 0.7001 -0.713975 
-0.014445 0.574593 -0.818312 
-0.0194977 0.464941 -0.885127 
-0.0236648 0.360555 -0.932438 
-0.0306642 0.282143 -0.958883 
-0.0340745 0.218806 -0.975173 
-0.0376074 0.165249 -0.985535 
-0.0449958 0.128359 -0.990707 
-0.0440359 0.0976116 -0.99425 
-0.0477125 0.0721607 -0.996251 
-0.0507412 0.0540157 -0.99725 
-0.053402 0.0404043 -0.997756 
-0.0525681 0.0289762 -0.998197 
-0.0562388 0.0209162 -0.998198 
-0.0552708 0.0142377 -0.99837 
-0.054465 0.00855227 -0.998479 
-0.0588109 0.00447074 -0.998259 
-0.0573245 0.000911997 -0.998355 
-0.0581952 -0.0021374 -0.998303 
-0.0586663 -0.00492072 -0.998266 
-0.0572427 -0.00764946 -0.998331 
-0.057626 -0.0105191 -0.998283 
-0.0584372 -0.0134759 -0.9982 
-0.0559846 -0.0169669 -0.998288 
-0.0553066 -0.0214352 -0.99824 
-0.0572931 -0.0265712 -0.998004 
-0.0522001 -0.0331428 -0.998087 
-0.0545677 -0.0415394 -0.997646 
-0.055338 -0.0510786 -0.99716 
-0.0475379 -0.0638477 -0.996827 
-0.0497299 -0.0802143 -0.995537 
-0.0491797 -0.0950717 -0.994255 
-0.0468936 -0.106455 -0.993212 
-0.0518947 -0.0987471 -0.993759 
-0.0360881 -0.0757698 -0.996473 
-0.00079588 -0.0150942 -0.999893 
0.00098317 -0.0154398 0.999884 
0.0452904 -0.0752026 0.996139 
0.0545074 -0.0892877 0.994513 
0.0565284 -0.0885234 0.994469 
0.060672 -0.0822829 0.994761 
0.0568881 -0.0781512 0.995317 
0.062468 -0.0648948 0.995935 
0.0658199 -0.0530111 0.996423 
0.065814 -0.0435237 0.996882 
0.0680635 -0.034287 0.997092 
0.0693535 -0.0265731 0.997238 
0.0698945 -0.0207261 0.997339 
0.0710725 -0.0162398 0.997339 
0.0718661 -0.0124265 0.997337 
0.0723513 -0.00951685 0.997334 
0.072632 -0.00695511 0.997335 
0.0730024 -0.00457094 0.997321 
0.0725826 -0.00188846 0.997361 
0.0718145 0.0012675 0.997417 
0.0711769 0.00516163 0.997451 
0.0705686 0.0099318 0.997458 
0.0693692 0.0156971 0.997468 
0.0681346 0.0227683 0.997416 
0.0663619 0.0318773 0.997286 
0.064675 0.0433178 0.996966 
0.062411 0.0583551 0.996343 
0.0600279 0.0769971 0.995223 
0.0563695 0.101261 0.993262 
0.0518896 0.13201 0.98989 
0.0466013 0.175246 0.983421 
0.0405348 0.227604 0.97291 
0.0334265 0.296984 0.954298 
0.0258196 0.382051 0.923781 
0.0192572 0.474334 0.880134 
0.0135808 0.584754 0.811098 
0.00846164 0.697475 0.716559 
0.00437694 0.816391 0.577484 
0.00139944 0.916998 0.39889 
-0.00143356 0.981836 0.189729 
-0.00402904 0.999542 -0.0300024 
-0.00557447 0.967194 -0.25398 
-0.00715181 0.892281 -0.451425 
-0.00839461 0.815078 -0.57929 
-0.0118726 0.698002 -0.715997 
-0.0164171 0.580329 -0.814217 
-0.0221803 0.468997 -0.882921 
-0.0282616 0.374095 -0.92696 
-0.0339733 0.305732 -0.951511 
-0.0401051 0.23786 -0.970471 
-0.045481 0.183916 -0.981889 
-0.0512753 0.141772 -0.988571 
-0.0555933 0.105053 -0.992912 
-0.058658 0.0802384 -0.995048 
-0.0621796 0.059971 -0.996262 
-0.0646147 0.0456928 -0.996864 
-0.0660406 0.0334344 -0.997257 
-0.0682361 0.0247306 -0.997363 
-0.0693133 0.0173325 -0.997445 
-0.069664 0.0112756 -0.997507 
-0.0715577 0.00677351 -0.997414 
-0.0720634 0.00264405 -0.997397 
-0.0725663 -0.000684695 -0.997364 
-0.0729406 -0.00370439 -0.99733 
-0.0728249 -0.00660054 -0.997323 
-0.0724749 -0.00940207 -0.997326 
-0.0725164 -0.0124074 -0.99729 
-0.0715718 -0.0157835 -0.997311 
-0.0703903 -0.0197217 -0.997325 
-0.0701852 -0.0245102 -0.997233 
-0.0684226 -0.0309089 -0.997178 
-0.0673808 -0.0381745 -0.996997 
-0.066851 -0.047715 -0.996622 
-0.0645891 -0.0597104 -0.996124 
-0.0627381 -0.0725079 -0.995393 
-0.0620457 -0.0863484 -0.994331 
-0.0605421 -0.0971577 -0.993426 
-0.0595218 -0.0958596 -0.993614 
-0.0471938 -0.0736123 -0.99617 
-0.00194264 -0.0153626 -0.999883 
-0.000633004 -0.0196622 0.99982 
0.0408794 -0.0703067 0.996688 
0.0482268 -0.0855175 0.995169 
0.0557222 -0.0876235 0.994594 
0.0578762 -0.0805159 0.995072 
0.0629257 -0.0720589 0.995414 
0.0636409 -0.0599069 0.996173 
0.0656795 -0.0469452 0.996736 
0.0673589 -0.0385328 0.996985 
0.0686501 -0.0300788 0.997187 
0.0692964 -0.0235358 0.997319 
0.070305 -0.0188649 0.997347 
0.071465 -0.0147028 0.997335 
0.0719062 -0.0113341 0.997347 
0.0726115 -0.00846633 0.997325 
0.0726734 -0.00586486 0.997339 
0.0728223 -0.00304927 0.99734 
0.0726446 6.94551e-05 0.997358 
0.0719564 0.00371553 0.997401 
0.0707478 0.00811032 0.997461 
0.0693199 0.0135707 0.997502 
0.0679629 0.0200374 0.997487 
0.0667098 0.0281868 0.997374 
0.0650689 0.0381209 0.997153 
0.0630966 0.0509862 0.996704 
0.0603621 0.0670495 0.995922 
0.0570331 0.0888092 0.994415 
0.0533538 0.115631 0.991858 
0.0488711 0.150271 0.987436 
0.0419787 0.200003 0.978896 
0.0352804 0.260423 0.96485 
0.0273972 0.339289 0.940283 
0.0199217 0.424875 0.905033 
0.0127202 0.531071 0.847232 
0.0122935 0.574917 0.81812 
0.00680705 0.705741 0.708437 
0.00287458 0.827747 0.561094 
0.000453698 0.928904 0.370321 
-0.00201648 0.989132 0.147019 
-0.00259889 0.998692 -0.0510619 
-0.00443056 0.986904 -0.16125 
-0.00568313 0.93182 -0.362877 
-0.00742859 0.832484 -0.554 
-0.0100035 0.735762 -0.677167 
-0.0133805 0.622283 -0.782678 
-0.017971 0.514003 -0.8576 
-0.0247781 0.399927 -0.916212 
-0.0309269 0.315304 -0.948487 
-0.0384207 0.23925 -0.970198 
-0.0448648 0.182232 -0.982232 
-0.0508639 0.134106 -0.989661 
-0.0550155 0.102349 -0.993226 
-0.0593397 0.0776112 -0.995216 
-0.0607339 0.0604284 -0.996323 
-0.0638132 0.0448177 -0.996955 
-0.0656668 0.0339488 -0.997264 
-0.0671866 0.0247981 -0.997432 
-0.0690506 0.0172406 -0.997464 
-0.0702734 0.0116365 -0.99746 
-0.0711424 0.00653551 -0.997445 
-0.0717156 0.00253431 -0.997422 
-0.0723299 -0.00100546 -0.99738 
-0.0727793 -0.00424401 -0.997339 
-0.0727422 -0.00721164 -0.997325 
-0.0726153 -0.0101277 -0.997309 
-0.0719117 -0.0133786 -0.997321 
-0.0712618 -0.0168532 -0.997315 
-0.0703846 -0.0208169 -0.997303 
-0.0692349 -0.0263744 -0.997252 
-0.0678239 -0.0324966 -0.997168 
-0.0666108 -0.040188 -0.99697 
-0.0649369 -0.0518566 -0.996541 
-0.0641653 -0.0633925 -0.995924 
-0.0637069 -0.0761552 -0.995059 
-0.0606824 -0.0842589 -0.994595 
-0.0608854 -0.0913644 -0.993955 
-0.0564948 -0.0929305 -0.994069 
-0.0495285 -0.0787197 -0.995666 
-0.00323416 -0.0132213 -0.999909 
-0.00138173 -0.0209146 0.999797 
0.0285731 -0.0580124 0.997908 
0.0485745 -0.0895652 0.994796 
0.0519359 -0.0854488 0.994988 
0.0520055 -0.0774276 0.995641 
0.0594803 -0.0711575 0.99569 
0.05631 -0.064302 0.996341 
0.0605532 -0.0536723 0.996721 
0.0603452 -0.0428821 0.997256 
0.0631804 -0.0345853 0.997403 
0.0636974 -0.0273348 0.997595 
0.0632063 -0.0219127 0.99776 
0.0651863 -0.0174464 0.997721 
0.0660537 -0.0137919 0.997721 
0.066386 -0.0105167 0.997739 
0.0667669 -0.00769801 0.997739 
0.067102 -0.00467471 0.997735 
0.0671872 -0.00146155 0.99774 
0.0668476 0.00209318 0.997761 
0.0657068 0.00620236 0.99782 
0.0643241 0.0111827 0.997867 
0.0626639 0.0172396 0.997886 
0.061688 0.0245318 0.997794 
0.0602529 0.0332558 0.997629 
0.0588154 0.0441975 0.99729 
0.0565096 0.0577976 0.996728 
0.0539037 0.075857 0.995661 
0.0503316 0.0992818 0.993786 
0.0467282 0.128595 0.990596 
0.0422398 0.167558 0.984957 
0.0344656 0.226324 0.973442 
0.0280632 0.29362 0.95551 
0.0203776 0.370845 0.928471 
0.013525 0.464016 0.885724 
0.00675336 0.659331 0.751823 
0.00262937 0.777884 0.628402 
-0.000419973 0.903582 0.428415 
-0.00412851 0.959637 0.281211 
-0.00166765 0.973502 0.228674 
-0.00442628 0.998877 0.0471781 
-0.00533629 0.971435 -0.237245 
-0.00437541 0.945965 -0.324241 
-0.00549055 0.865315 -0.501199 
-0.00752528 0.725605 -0.68807 
-0.0101699 0.615639 -0.787963 
-0.0146253 0.509141 -0.860559 
-0.0200399 0.425541 -0.904717 
-0.0244186 0.345501 -0.938101 
-0.0315502 0.266756 -0.963248 
-0.0381355 0.204757 -0.97807 
-0.0440853 0.157441 -0.986544 
-0.048052 0.119222 -0.991704 
-0.0527822 0.0873562 -0.994778 
-0.0537089 0.0702931 -0.99608 
-0.057424 0.0519762 -0.996996 
-0.0589005 0.0392711 -0.997491 
-0.0607129 0.0294701 -0.99772 
-0.0627026 0.0208786 -0.997814 
-0.0637824 0.0144635 -0.997859 
-0.0654683 0.00911695 -0.997813 
-0.0653408 0.0043988 -0.997854 
-0.0661453 0.000427996 -0.99781 
-0.0668381 -0.00315838 -0.997759 
-0.0668237 -0.00637693 -0.997745 
-0.0667565 -0.00950907 -0.997724 
-0.0665742 -0.0125749 -0.997702 
-0.0655901 -0.0161166 -0.997717 
-0.0646093 -0.0199331 -0.997712 
-0.0644775 -0.0245736 -0.997617 
-0.0619372 -0.0307094 -0.997608 
-0.0607247 -0.0379562 -0.997433 
-0.0606445 -0.0473184 -0.997037 
-0.0582515 -0.0601534 -0.996488 
-0.0586917 -0.0722171 -0.995661 
-0.0546715 -0.0828819 -0.995059 
-0.0537217 -0.0901658 -0.994477 
-0.0477057 -0.0891654 -0.994874 
-0.0415431 -0.0721497 -0.996529 
-0.00112145 -0.0142543 -0.9999 
0.000951827 -0.015045 0.99989 
0.0264368 -0.0668117 0.997416 
0.0391427 -0.0811481 0.995933 
0.0418849 -0.0901334 0.995049 
0.0451064 -0.0858942 0.995283 
0.0480021 -0.0714822 0.996286 
0.0504988 -0.0577168 0.997055 
0.0526243 -0.0482907 0.997446 
0.0533133 -0.0373442 0.99788 
0.0550564 -0.0304944 0.998018 
0.0541758 -0.024798 0.998224 
0.0548292 -0.0196486 0.998303 
0.0563193 -0.0158749 0.998287 
0.0574023 -0.0124664 0.998273 
0.0567745 -0.0093148 0.998344 
0.0579078 -0.00616582 0.998303 
0.0580483 -0.00274836 0.99831 
0.0576809 0.000969515 0.998335 
0.0565966 0.00508082 0.998384 
0.0554151 0.00991156 0.998414 
0.0540448 0.015702 0.998415 
0.0530064 0.0228245 0.998333 
0.0516969 0.0311298 0.998178 
0.0506444 0.0413389 0.997861 
0.048693 0.053944 0.997356 
0.0467224 0.0704083 0.996424 
0.0437628 0.09193 0.994804 
0.0400804 0.121076 0.991834 
0.0367736 0.157742 0.986796 
0.0317295 0.20636 0.977962 
0.0231412 0.28426 0.958468 
0.0157163 0.372048 0.928081 
0.00875175 0.482029 0.876112 
0.00308637 0.597234 0.802061 
0.0070319 0.585061 0.810959 
0.00126739 0.707106 0.707106 
-0.00199632 0.858884 0.512168 
-0.00298173 0.872007 0.489485 
-0.00296508 0.999967 0.00757302 
0.000513427 0.994466 0.105061 
0.00225007 0.994673 -0.103099 
-0.00226468 0.968247 -0.249985 
-0.00427066 0.86323 -0.504793 
-0.00516875 0.76752 -0.641004 
-0.00562349 0.63124 -0.775567 
-0.00950566 0.516495 -0.856238 
-0.0147532 0.410449 -0.911765 
-0.0218269 0.314124 -0.949131 
-0.0286081 0.241183 -0.970058 
-0.0343623 0.185535 -0.982037 
-0.0390808 0.144753 -0.988696 
-0.0441454 0.10619 -0.993366 
-0.0430465 0.084804 -0.995468 
-0.0478244 0.0633861 -0.996843 
-0.0493413 0.0487491 -0.997592 
-0.0502145 0.0371556 -0.998047 
-0.0528909 0.0273252 -0.998227 
-0.0537413 0.0198307 -0.998358 
-0.0548175 0.0134617 -0.998406 
-0.0566405 0.00815437 -0.998362 
-0.0559678 0.00336798 -0.998427 
-0.0571013 -0.000765503 -0.998368 
-0.0571492 -0.00435248 -0.998356 
-0.0573982 -0.00775063 -0.998321 
-0.0569442 -0.0109616 -0.998317 
-0.0573075 -0.0141822 -0.998256 
-0.055728 -0.0177479 -0.998288 
-0.0553646 -0.0218594 -0.998227 
-0.0549361 -0.0265768 -0.998136 
-0.0518624 -0.0329902 -0.998109 
-0.0516535 -0.0412011 -0.997815 
-0.0526316 -0.0514608 -0.997287 
-0.0487477 -0.0624044 -0.99686 
-0.0506572 -0.0728208 -0.996058 
-0.046196 -0.0834696 -0.995439 
-0.0460578 -0.089935 -0.994882 
-0.0397773 -0.0894076 -0.995201 
-0.0321197 -0.067196 -0.997223 
-0.00111753 -0.0143041 -0.999899 
0.00146152 -0.0128008 0.999918 
0.0233056 -0.0729639 0.997062 
0.0339549 -0.088018 0.99554 
0.0350769 -0.0894698 0.995372 
0.0412985 -0.0812923 0.995835 
0.0369533 -0.0738333 0.996586 
0.0416448 -0.0632569 0.997128 
0.0397376 -0.0512968 0.997893 
0.0442104 -0.0424008 0.998122 
0.0424802 -0.0338772 0.998523 
0.043149 -0.0281987 0.998671 
0.0444166 -0.0227888 0.998753 
0.0439247 -0.0185446 0.998863 
0.0457685 -0.0150154 0.998839 
0.0463525 -0.0117822 0.998856 
0.0459215 -0.00842877 0.99891 
0.0470924 -0.00506449 0.998878 
0.0468886 -0.00137467 0.998899 
0.0458039 0.00258928 0.998947 
0.04487 0.00711319 0.998968 
0.0440643 0.0124372 0.998951 
0.0432809 0.018769 0.998887 
0.0420307 0.0261342 0.998775 
0.0411039 0.0349937 0.998542 
0.0399115 0.045623 0.998161 
0.0384535 0.0594819 0.997489 
0.0364801 0.077364 0.996336 
0.0338765 0.101877 0.99422 
0.0303581 0.135637 0.990294 
0.0272316 0.178402 0.983581 
0.0226595 0.24092 0.970281 
0.0139281 0.336202 0.941687 
0.00776154 0.443825 0.89608 
0.00299897 0.557019 0.830494 
-0.00172385 0.770662 0.637242 
-0.00146619 0.84573 0.533609 
0.000526225 0.916494 0.400062 
0.00134614 0.976208 0.216835 
-0.00126793 0.955557 0.294804 
0.00445993 0.997088 0.0761375 
0.000753565 0.996819 -0.0796868 
0.00234226 0.978303 -0.207184 
0.00105919 0.923488 -0.383628 
-0.0012518 0.809955 -0.586491 
-0.00319633 0.719787 -0.694188 
-0.00467438 0.54929 -0.835619 
-0.00802165 0.444954 -0.895518 
-0.013849 0.3479 -0.93743 
-0.0201253 0.262767 -0.96465 
-0.0254464 0.200722 -0.979318 
-0.0294214 0.154095 -0.987618 
-0.0349149 0.11957 -0.992212 
-0.0326602 0.0987466 -0.994577 
-0.0370413 0.0737662 -0.996588 
-0.0389025 0.0571332 -0.997609 
-0.0396026 0.0438225 -0.998254 
-0.0416294 0.0325224 -0.998604 
-0.0426093 0.0241946 -0.998799 
-0.0436603 0.0170322 -0.998901 
-0.0447694 0.0108785 -0.998938 
-0.0458184 0.00586646 -0.998933 
-0.0457742 0.000867745 -0.998952 
-0.0458003 -0.00311538 -0.998946 
-0.0462397 -0.00684898 -0.998907 
-0.0457722 -0.0102851 -0.998899 
-0.0459994 -0.0136732 -0.998848 
-0.0452598 -0.0170175 -0.99883 
-0.0447417 -0.0209979 -0.998778 
-0.0437112 -0.0256156 -0.998716 
-0.0422943 -0.0310516 -0.998623 
-0.0412731 -0.0392416 -0.998377 
-0.0422741 -0.049551 -0.997877 
-0.0396173 -0.0625348 -0.997256 
-0.0401419 -0.0757016 -0.996322 
-0.0355157 -0.0853226 -0.99572 
-0.0369841 -0.0905512 -0.995205 
-0.0310068 -0.0911375 -0.995356 
-0.0274064 -0.0744082 -0.996851 
-0.00136518 -0.0137104 -0.999907 
0.00109995 -0.0125201 0.999922 
0.0181986 -0.0737372 0.997112 
0.0276787 -0.091067 0.99546 
0.0261264 -0.0913237 0.995479 
0.0320758 -0.0852157 0.995846 
0.0289075 -0.0752375 0.996747 
0.0317804 -0.0609751 0.997633 
0.029875 -0.0490155 0.998351 
0.0336587 -0.0403592 0.998618 
0.0306749 -0.0335375 0.998967 
0.0333531 -0.0272859 0.999071 
0.0342109 -0.0223694 0.999164 
0.0334116 -0.0183463 0.999274 
0.0352453 -0.0148754 0.999268 
0.036037 -0.0113968 0.999286 
0.0352687 -0.00776613 0.999348 
0.0363586 -0.00408182 0.999331 
0.0354243 -8.56328e-05 0.999373 
0.034451 0.0044192 0.999397 
0.034105 0.00964962 0.999372 
0.0335934 0.0156505 0.999313 
0.0327064 0.0225372 0.999211 
0.0318136 0.0308301 0.999018 
0.0307762 0.0407061 0.998697 
0.0299247 0.0531246 0.99814 
0.028411 0.0693433 0.997188 
0.02662 0.0912164 0.995475 
0.0240619 0.121365 0.992316 
0.0208141 0.163645 0.9863 
0.0184702 0.217671 0.975848 
0.0138202 0.288126 0.957493 
0.00710871 0.398533 0.917127 
0.00343154 0.505944 0.86256 
0.000999764 0.641866 0.766816 
7.81199e-05 0.666313 0.745673 
0.00366003 0.871747 0.48995 
0.00681654 0.950415 0.31091 
0.00706225 0.993664 0.112174 
0.0063768 0.998305 0.0578341 
0.00509799 0.999978 -0.00416673 
0.00303287 0.998736 -0.050251 
0.00258561 0.996856 -0.0791858 
-0.00179979 0.943417 -0.331604 
0.00147366 0.871279 -0.490786 
-0.0025956 0.613909 -0.789373 
-0.00243263 0.567444 -0.823409 
-0.00353194 0.485358 -0.874309 
-0.00729526 0.385267 -0.922777 
-0.0124105 0.300563 -0.953681 
-0.0168215 0.227184 -0.973707 
-0.0205611 0.171228 -0.985017 
-0.0249244 0.12766 -0.991505 
-0.0265722 0.0888381 -0.995692 
-0.028471 0.0684291 -0.99725 
-0.0299955 0.0526848 -0.998161 
-0.031306 0.0394295 -0.998732 
-0.0318735 0.0298589 -0.999046 
-0.0330072 0.0217909 -0.999218 
-0.0340102 0.0148928 -0.999311 
-0.0342788 0.00911546 -0.999371 
-0.0361801 0.00388647 -0.999338 
-0.0348534 -0.000777159 -0.999392 
-0.0354404 -0.00494372 -0.99936 
-0.0351053 -0.00863226 -0.999347 
-0.0352217 -0.0122009 -0.999305 
-0.0345892 -0.0155222 -0.999281 
-0.0347792 -0.019062 -0.999213 
-0.0337854 -0.0230446 -0.999164 
-0.0322813 -0.0277157 -0.999095 
-0.0325452 -0.0341673 -0.998886 
-0.0306888 -0.0422905 -0.998634 
-0.0328112 -0.0510275 -0.998158 
-0.0292574 -0.0616599 -0.997669 
-0.0312787 -0.0733959 -0.996812 
-0.0273452 -0.0841398 -0.996079 
-0.0269884 -0.0913891 -0.99545 
-0.0227222 -0.0909081 -0.9956 
-0.0194481 -0.0705323 -0.99732 
-0.000564201 -0.0137894 -0.999907 
0.00092156 -0.0125181 0.999922 
0.0130203 -0.0737017 0.997196 
0.0204168 -0.0916585 0.995581 
0.0195135 -0.0922593 0.995544 
0.0239961 -0.084969 0.996095 
0.0205232 -0.075489 0.996936 