# vtk DataFile Version 3.0 
Exported using Morpho https://github.com/Morpho-lang/morpho 
ASCII 
DATASET UNSTRUCTURED_GRID 

POINTS 1245 float 
-0.303845 -0.952721 0 
-0.250833 -0.96803 0 
-0.195084 -0.980787 0 
-0.146308 -0.989239 0 
-0.0940719 -0.995565 0 
-0.0475118 -0.998871 0 
-0.000246339 -1 0 
0.0470875 -0.998891 0 
0.0937543 -0.995595 0 
0.146139 -0.989264 0 
0.195062 -0.980791 0 
0.250843 -0.968028 0 
0.303953 -0.952687 0 
-0.409153 -0.912466 0 
-0.356519 -0.934288 0 
-0.308871 -0.898929 0 
-0.258282 -0.916037 0 
-0.207345 -0.934859 0 
-0.154868 -0.930629 0 
-0.104343 -0.948989 0 
-0.0520099 -0.939193 0 
-8.5762e-05 -0.954582 0 
0.0518744 -0.939288 0 
0.104354 -0.949042 0 
0.154696 -0.9306 0 
0.207366 -0.934975 0 
0.258274 -0.916081 0 
0.308979 -0.898924 0 
0.356593 -0.93426 0 
0.409236 -0.912429 0 
-0.513788 -0.857917 0 
-0.461695 -0.887039 0 
-0.411157 -0.857936 0 
-0.359855 -0.879963 0 
-0.306888 -0.847481 0 
-0.254732 -0.866979 0 
-0.201991 -0.889059 0 
-0.149956 -0.874108 0 
-0.100608 -0.900088 0 
-0.0497575 -0.880388 0 
2.4595e-05 -0.904789 0 
0.0496869 -0.8804 0 
0.100612 -0.900177 0 
0.149872 -0.874171 0 
0.202071 -0.889165 0 
0.254695 -0.867031 0 
0.306946 -0.847482 0 
0.359894 -0.879943 0 
0.411236 -0.857929 0 
0.461748 -0.887011 0 
0.513842 -0.857885 0 
-0.564741 -0.825268 0 
-0.512908 -0.802945 0 
-0.462372 -0.832348 0 
-0.410124 -0.804631 0 
-0.358606 -0.827415 0 
-0.305781 -0.795641 0 
-0.25358 -0.816639 0 
-0.200756 -0.839997 0 
-0.149043 -0.818944 0 
-0.0987265 -0.846667 0 
-0.0490473 -0.822548 0 
5.00659e-05 -0.849932 0 
0.0490834 -0.822542 0 
0.0987838 -0.846676 0 
0.148997 -0.818924 0 
0.200826 -0.840131 0 
0.253508 -0.816728 0 
0.305831 -0.795701 0 
0.358581 -0.827419 0 
0.410181 -0.804654 0 
0.462414 -0.83234 0 
0.512965 -0.802929 0 
0.564777 -0.825243 0 
-0.660798 -0.750564 0 
-0.614015 -0.789295 0 
-0.561786 -0.769772 0 
-0.510673 -0.747856 0 
-0.460836 -0.778365 0 
-0.408794 -0.751554 0 
-0.357337 -0.774971 0 
-0.304815 -0.743684 0 
-0.252907 -0.765535 0 
-0.200631 -0.789263 0 
-0.149244 -0.764328 0 
-0.0986912 -0.791935 0 
-0.0492815 -0.765764 0 
4.16586e-05 -0.79382 0 
0.0492411 -0.765708 0 
0.0987508 -0.791951 0 
0.149196 -0.764326 0 
0.200666 -0.789356 0 
0.252841 -0.765599 0 
0.304862 -0.743741 0 
0.357323 -0.775038 0 
0.408863 -0.751626 0 
0.460863 -0.778382 0 
0.510716 -0.747859 0 
0.561819 -0.769761 0 
0.614041 -0.789274 0 
0.660811 -0.750552 0 
-0.707107 -0.707107 0 
-0.654819 -0.699058 0 
-0.60813 -0.73348 0 
-0.558104 -0.71337 0 
-0.509495 -0.692659 0 
-0.45935 -0.724356 0 
-0.407328 -0.698865 0 
-0.355968 -0.722823 0 
-0.303722 -0.691387 0 
-0.252254 -0.71362 0 
-0.20067 -0.737336 0 
-0.149608 -0.710068 0 
-0.0991558 -0.737129 0 
-0.0495872 -0.709825 0 
-2.23646e-05 -0.737917 0 
0.0494408 -0.709766 0 
0.0991291 -0.737116 0 
0.149502 -0.710042 0 
0.200696 -0.73743 0 
0.252186 -0.713735 0 
0.303753 -0.691518 0 
0.355952 -0.722893 0 
0.407371 -0.698945 0 
0.459374 -0.724407 0 
0.509524 -0.692668 0 
0.558131 -0.713361 0 
0.608151 -0.733462 0 
0.654824 -0.699048 0 
0.707107 -0.707107 0 
-0.750564 -0.660798 0 
-0.699058 -0.654819 0 
-0.647692 -0.647692 0 
-0.603437 -0.675718 0 
-0.55905 -0.655305 0 
-0.508501 -0.639581 0 
-0.457509 -0.671321 0 
-0.405555 -0.646545 0 
-0.354417 -0.670703 0 
-0.302427 -0.639219 0 
-0.251503 -0.661417 0 
-0.20061 -0.684911 0 
-0.149717 -0.655943 0 
-0.0995004 -0.682466 0 
-0.0498216 -0.654561 0 
-5.02113e-05 -0.682664 0 
0.0496787 -0.654499 0 
0.0994374 -0.682501 0 
0.149603 -0.655909 0 
0.200573 -0.684972 0 
0.251388 -0.661524 0 
0.302407 -0.639359 0 
0.354397 -0.670836 0 
0.405575 -0.646641 0 
0.457525 -0.67138 0 
0.508497 -0.639623 0 
0.559063 -0.655324 0 
0.603436 -0.675715 0 
0.64769 -0.64769 0 
0.699048 -0.654824 0 
0.750552 -0.660811 0 
-0.789295 -0.614015 0 
-0.73348 -0.60813 0 
-0.675718 -0.603437 0 
-0.613088 -0.613088 0 
-0.55962 -0.604068 0 
-0.506189 -0.588854 0 
-0.455505 -0.618874 0 
-0.403019 -0.594688 0 
-0.352514 -0.618952 0 
-0.300977 -0.586897 0 
-0.250543 -0.608767 0 
-0.200257 -0.632053 0 
-0.150049 -0.601979 0 
-0.0998281 -0.628222 0 
-0.0500377 -0.599914 0 
-3.12334e-05 -0.628076 0 
0.0498927 -0.599835 0 
0.0997818 -0.628253 0 
0.149924 -0.601867 0 
0.200214 -0.632118 0 
0.250423 -0.608915 0 
0.30086 -0.587085 0 
0.352457 -0.619096 0 
0.402948 -0.594743 0 
0.455483 -0.618952 0 
0.506147 -0.588901 0 
0.55964 -0.604067 0 
0.613069 -0.613069 0 
0.675715 -0.603436 0 
0.733462 -0.608151 0 
0.789274 -0.614041 0 
-0.825268 -0.564741 0 
-0.769772 -0.561786 0 
-0.71337 -0.558104 0 
-0.655305 -0.55905 0 
-0.604068 -0.55962 0 
-0.551031 -0.551031 0 
-0.497922 -0.537596 0 
-0.451508 -0.567021 0 
-0.399773 -0.542431 0 
-0.350494 -0.567003 0 
-0.301574 -0.534146 0 
-0.250874 -0.555692 0 
-0.200542 -0.579013 0 
-0.150324 -0.548268 0 
-0.100169 -0.57443 0 
-0.0500152 -0.545912 0 
-3.29278e-05 -0.574268 0 
0.0499208 -0.545788 0 
0.100058 -0.574485 0 
0.150038 -0.548073 0 
0.200377 -0.579041 0 
0.250556 -0.55585 0 
0.301273 -0.534348 0 
0.350318 -0.567174 0 
0.399615 -0.542384 0 
0.451404 -0.5671 0 
0.497945 -0.537702 0 
0.551073 -0.551073 0 
0.604067 -0.55964 0 
0.655324 -0.559063 0 
0.713361 -0.558131 0 
0.769761 -0.561819 0 
0.825243 -0.564777 0 
-0.857917 -0.513788 0 
-0.802945 -0.512908 0 
-0.747856 -0.510673 0 
-0.692659 -0.509495 0 
-0.639581 -0.508501 0 
-0.588854 -0.506189 0 
-0.537596 -0.497922 0 
-0.486157 -0.486157 0 
-0.444928 -0.512952 0 
-0.401787 -0.486784 0 
-0.351685 -0.513639 0 
-0.299695 -0.48291 0 
-0.250032 -0.503 0 
-0.200501 -0.526165 0 
-0.149489 -0.495195 0 
-0.0999281 -0.521367 0 
-0.0499712 -0.492294 0 
4.64723e-05 -0.520999 0 
0.050147 -0.492108 0 
0.099934 -0.52133 0 
0.14957 -0.494692 0 
0.200133 -0.526255 0 
0.249839 -0.503309 0 
0.299839 -0.483005 0 
0.351514 -0.513798 0 
0.401881 -0.486608 0 
0.444935 -0.513054 0 
0.486228 -0.486228 0 
0.537702 -0.497945 0 
0.588901 -0.506147 0 
0.639623 -0.508497 0 
0.692668 -0.509524 0 
0.747859 -0.510716 0 
0.802929 -0.512965 0 
0.857885 -0.513842 0 
-0.887039 -0.461695 0 
-0.832348 -0.462372 0 
-0.778365 -0.460836 0 
-0.724356 -0.45935 0 
-0.671321 -0.457509 0 
-0.618874 -0.455505 0 
-0.567021 -0.451508 0 
-0.512952 -0.444928 0 
-0.450685 -0.450685 0 
-0.397667 -0.437543 0 
-0.348492 -0.462546 0 
-0.295416 -0.432968 0 
-0.247004 -0.450633 0 
-0.198702 -0.473818 0 
-0.150161 -0.441625 0 
-0.100085 -0.468395 0 
-0.0502271 -0.439281 0 
0.000144229 -0.468374 0 
0.0504178 -0.439106 0 
0.100428 -0.468348 0 
0.150697 -0.441105 0 
0.199103 -0.473881 0 
0.247983 -0.450921 0 
0.296569 -0.432268 0 
0.348831 -0.462562 0 
0.397506 -0.4368 0 
0.450637 -0.450637 0 
0.513054 -0.444935 0 
0.5671 -0.451404 0 
0.618952 -0.455483 0 
0.67138 -0.457525 0 
0.724407 -0.459374 0 
0.778382 -0.460863 0 
0.83234 -0.462414 0 
0.887011 -0.461748 0 
-0.912466 -0.409153 0 
-0.857936 -0.411157 0 
-0.804631 -0.410124 0 
-0.751554 -0.408794 0 
-0.698865 -0.407328 0 
-0.646545 -0.405555 0 
-0.594688 -0.403019 0 
-0.542431 -0.399773 0 
-0.486784 -0.401787 0 
-0.437543 -0.397667 0 
-0.387256 -0.387256 0 
-0.344215 -0.411459 0 
-0.30136 -0.381507 0 
-0.25021 -0.395692 0 
-0.200211 -0.419975 0 
-0.150955 -0.389014 0 
-0.100617 -0.416095 0 
-0.0503197 -0.386922 0 
-4.02994e-05 -0.416525 0 
0.05006 -0.386948 0 
0.100784 -0.416323 0 
0.150432 -0.388572 0 
0.200855 -0.420694 0 
0.25086 -0.396905 0 
0.301746 -0.379789 0 
0.344135 -0.410678 0 
0.385823 -0.385823 0 
0.4368 -0.397506 0 
0.486608 -0.401881 0 
0.542384 -0.399615 0 
0.594743 -0.402948 0 
0.646641 -0.405575 0 
0.698945 -0.407371 0 
0.751626 -0.408863 0 
0.804654 -0.410181 0 
0.857929 -0.411236 0 
0.912429 -0.409236 0 
-0.934288 -0.356519 0 
-0.879963 -0.359855 0 
-0.827415 -0.358606 0 
-0.774971 -0.357337 0 
-0.722823 -0.355968 0 
-0.670703 -0.354417 0 
-0.618952 -0.352514 0 
-0.567003 -0.350494 0 
-0.513639 -0.351685 0 
-0.462546 -0.348492 0 
-0.411459 -0.344215 0 
-0.351697 -0.351697 0 
-0.29839 -0.336232 0 
-0.249846 -0.342529 0 
-0.200971 -0.367271 0 
-0.149995 -0.337521 0 
-0.100435 -0.3646 0 
-0.0498692 -0.335025 0 
-6.88684e-05 -0.365025 0 
0.0495433 -0.334795 0 
0.0996798 -0.364834 0 
0.148162 -0.337172 0 
0.199644 -0.368939 0 
0.24763 -0.345582 0 
0.295348 -0.332889 0 
0.34978 -0.34978 0 
0.410678 -0.344135 0 
0.462562 -0.348831 0 
0.513798 -0.351514 0 
0.567174 -0.350318 0 
0.619096 -0.352457 0 
0.670836 -0.354397 0 
0.722893 -0.355952 0 
0.775038 -0.357323 0 
0.827419 -0.358581 0 
0.879943 -0.359894 0 
0.93426 -0.356593 0 
-0.952721 -0.303845 0 
-0.898929 -0.308871 0 
-0.847481 -0.306888 0 
-0.795641 -0.305781 0 
-0.743684 -0.304815 0 
-0.691387 -0.303722 0 
-0.639219 -0.302427 0 
-0.586897 -0.300977 0 
-0.534146 -0.301574 0 
-0.48291 -0.299695 0 
-0.432968 -0.295416 0 
-0.381507 -0.30136 0 
-0.336232 -0.29839 0 
-0.288184 -0.288184 0 
-0.242975 -0.290577 0 
-0.198059 -0.315051 0 
-0.148383 -0.285894 0 
-0.0994753 -0.313232 0 
-0.0507184 -0.283118 0 
-0.000202902 -0.313447 0 
0.0500077 -0.282824 0 
0.0988289 -0.312817 0 
0.148102 -0.28482 0 
0.195742 -0.317413 0 
0.240766 -0.295824 0 
0.285014 -0.285014 0 
0.332889 -0.295348 0 
0.379789 -0.301746 0 
0.432268 -0.296569 0 
0.483005 -0.299839 0 
0.534348 -0.301273 0 
0.587085 -0.30086 0 
0.639359 -0.302407 0 
0.691518 -0.303753 0 
0.743741 -0.304862 0 
0.795701 -0.305831 0 
0.847482 -0.306946 0 
0.898924 -0.308979 0 
0.952687 -0.303953 0 
-0.96803 -0.250833 0 
-0.916037 -0.258282 0 
-0.866979 -0.254732 0 
-0.816639 -0.25358 0 
-0.765535 -0.252907 0 
-0.71362 -0.252254 0 
-0.661417 -0.251503 0 
-0.608767 -0.250543 0 
-0.555692 -0.250874 0 
-0.503 -0.250032 0 
-0.450633 -0.247004 0 
-0.395692 -0.25021 0 
-0.342529 -0.249846 0 
-0.290577 -0.242975 0 
-0.239946 -0.239946 0 
-0.194478 -0.26004 0 
-0.151293 -0.23238 0 
-0.101048 -0.260904 0 
-0.0503938 -0.232537 0 
-0.000203281 -0.262984 0 
0.050638 -0.232316 0 
0.100942 -0.260855 0 
0.152412 -0.232597 0 
0.195768 -0.261421 0 
0.241873 -0.241873 0 
0.295824 -0.240766 0 
0.345582 -0.24763 0 
0.396905 -0.25086 0 
0.450921 -0.247983 0 
[...]
POINT_DATA 1245 
VECTORS vectors float
0.593128 -0.211318 0.776881 
0.594792 -0.183175 0.782732 
0.593101 -0.148569 0.791302 
0.591142 -0.114142 0.79845 
0.589729 -0.0728082 0.804313 
0.590634 -0.0353533 0.806165 
0.593588 0.00190371 0.804767 
0.593842 0.0381958 0.803674 
0.595491 0.0730317 0.800036 
0.598342 0.109986 0.793656 
0.600072 0.140211 0.787562 
0.599732 0.170803 0.781759 
0.594889 0.196898 0.779319 
0.577667 -0.261054 0.773403 
0.587634 -0.236798 0.773701 
0.501196 -0.187145 0.844854 
0.506277 -0.163468 0.846736 
0.517358 -0.138711 0.844453 
0.490796 -0.101883 0.865297 
0.509908 -0.0721968 0.857194 
0.485068 -0.0341561 0.873809 
0.510286 0.000773442 0.860004 
0.487631 0.0340345 0.872386 
0.51438 0.0703881 0.854669 
0.495427 0.0966971 0.863251 
0.521883 0.13027 0.843011 
0.508472 0.152738 0.847424 
0.500717 0.175386 0.847657 
0.585833 0.22209 0.779407 
0.572451 0.247662 0.781642 
0.542903 -0.311209 0.780003 
0.562754 -0.285464 0.775769 
0.485746 -0.232507 0.84261 
0.494991 -0.209857 0.843175 
0.419455 -0.162294 0.893151 
0.426916 -0.140537 0.893304 
0.440624 -0.118212 0.889875 
0.403102 -0.0836405 0.911325 
0.430489 -0.0602268 0.900584 
0.395492 -0.0282687 0.918034 
0.42959 -0.000297886 0.903024 
0.396768 0.0265945 0.917534 
0.433582 0.057522 0.899276 
0.405523 0.0787175 0.910689 
0.443503 0.111132 0.889357 
0.427592 0.131734 0.894322 
0.417506 0.152725 0.895748 
0.491495 0.198138 0.848041 
0.479587 0.221781 0.849005 
0.554783 0.274366 0.785455 
0.533018 0.302706 0.790102 
0.518813 -0.33889 0.784848 
0.454344 -0.279435 0.845865 
0.472234 -0.255485 0.843636 
0.404252 -0.204888 0.891404 
0.413136 -0.183755 0.891938 
0.348196 -0.140941 0.926766 
0.356627 -0.121638 0.926294 
0.370233 -0.10186 0.923338 
0.330554 -0.070623 0.941141 
0.355842 -0.0507188 0.933169 
0.321043 -0.0238892 0.946763 
0.353199 -0.000930587 0.935548 
0.32167 0.0211862 0.946615 
0.357455 0.0474395 0.932725 
0.33153 0.0660274 0.941131 
0.371407 0.0953876 0.923557 
0.355785 0.114236 0.92756 
0.345696 0.133265 0.928835 
0.408761 0.174238 0.895855 
0.397937 0.196442 0.896134 
0.463809 0.246522 0.850945 
0.444571 0.272388 0.853324 
0.50778 0.332658 0.794668 
0.463493 -0.398734 0.791319 
0.491758 -0.368449 0.788935 
0.432631 -0.304335 0.848652 
0.375946 -0.248886 0.892592 
0.392133 -0.22659 0.891565 
0.334476 -0.180682 0.924921 
0.342226 -0.160532 0.925803 
0.287886 -0.122827 0.949755 
0.295504 -0.10533 0.949517 
0.307886 -0.0879044 0.947354 
0.270292 -0.0604759 0.960877 
0.291483 -0.0432432 0.955598 
0.260182 -0.0206149 0.96534 
0.287463 -0.00129401 0.957791 
0.26037 0.0175347 0.96535 
0.292061 0.0397516 0.955573 
0.270345 0.0560124 0.961133 
0.307865 0.0824366 0.947852 
0.294048 0.0991222 0.950637 
0.284571 0.116569 0.951541 
0.337724 0.153033 0.928721 
0.327997 0.173931 0.928529 
0.384117 0.219352 0.896849 
0.36643 0.243276 0.898079 
0.421908 0.299031 0.855905 
0.479941 0.363943 0.798249 
0.450714 0.395622 0.800213 
0.433305 -0.430085 0.792006 
0.391203 -0.360904 0.846586 
0.408651 -0.329658 0.851076 
0.356184 -0.27108 0.894231 
0.309245 -0.221998 0.924708 
0.323347 -0.200756 0.92474 
0.275413 -0.159337 0.948029 
0.28217 -0.140716 0.948989 
0.236125 -0.107078 0.965805 
0.243445 -0.0914748 0.965592 
0.253962 -0.0761749 0.96421 
0.220583 -0.0520459 0.973979 
0.237643 -0.0372863 0.970637 
0.210751 -0.0178276 0.977377 
0.233144 -0.00155642 0.972441 
0.210602 0.0147061 0.977461 
0.237562 0.0336993 0.970788 
0.219914 0.048168 0.974329 
0.252958 0.0713112 0.964846 
0.241403 0.0863906 0.966572 
0.233033 0.102077 0.967097 
0.277553 0.13479 0.951208 
0.269693 0.154084 0.950539 
0.315739 0.195225 0.928545 
0.30072 0.217695 0.928535 
0.345845 0.267063 0.899483 
0.396995 0.325849 0.858031 
0.378369 0.358935 0.853231 
0.418931 0.428834 0.800374 
0.402911 -0.459862 0.791321 
0.364104 -0.387863 0.846753 
0.327559 -0.324458 0.887374 
0.334954 -0.293729 0.895282 
0.291627 -0.244105 0.92486 
0.255486 -0.199509 0.946004 
0.266413 -0.178607 0.947166 
0.226328 -0.141134 0.963772 
0.232304 -0.123881 0.964722 
0.193735 -0.0940253 0.976538 
0.199618 -0.0798516 0.976615 
0.208165 -0.0660662 0.97586 
0.179412 -0.045217 0.982734 
0.193054 -0.0322084 0.980659 
0.170481 -0.0156575 0.985237 
0.18883 -0.00151971 0.982009 
0.170187 0.0124366 0.985333 
0.19274 0.0287775 0.980828 
0.178348 0.04157 0.983089 
0.206934 0.0617916 0.976402 
0.197193 0.0756126 0.977444 
0.190488 0.0900209 0.977553 
0.227763 0.119149 0.966399 
0.220674 0.137264 0.96564 
0.259095 0.174371 0.949981 
0.247413 0.19671 0.948732 
0.282011 0.241366 0.928554 
0.323927 0.291447 0.900072 
0.315597 0.323358 0.892098 
0.35008 0.38818 0.852502 
0.386563 0.461598 0.798434 
0.373571 -0.486018 0.790083 
0.333086 -0.40414 0.851895 
0.296343 -0.331401 0.895742 
0.274456 -0.272126 0.922292 
0.243629 -0.222824 0.943925 
0.211614 -0.179759 0.96068 
0.218866 -0.159133 0.962691 
0.185733 -0.125529 0.974549 
0.190169 -0.109184 0.975661 
0.15807 -0.0829185 0.98394 
0.162742 -0.0698922 0.98419 
0.170019 -0.0575959 0.983756 
0.145443 -0.0394822 0.988579 
0.156709 -0.0280011 0.987248 
0.137745 -0.0136435 0.990374 
0.152827 -0.00143549 0.988252 
0.137429 0.0107777 0.990453 
0.156042 0.0249884 0.987434 
0.144373 0.0362582 0.988859 
0.168337 0.0541008 0.984244 
0.160577 0.0662876 0.984795 
0.154908 0.0796873 0.98471 
0.186099 0.105544 0.976846 
0.180666 0.122419 0.975896 
0.212708 0.155978 0.964586 
0.204367 0.177893 0.962594 
0.23505 0.221457 0.946419 
0.264013 0.271619 0.925484 
0.284042 0.333169 0.899066 
0.318472 0.407225 0.856004 
0.355799 0.491713 0.794749 
0.343524 -0.509941 0.788639 
0.307371 -0.426152 0.850833 
0.273077 -0.351437 0.895501 
0.245713 -0.28835 0.925462 
0.224486 -0.241194 0.944156 
0.198395 -0.197021 0.960116 
0.172867 -0.159041 0.97202 
0.179452 -0.141744 0.973502 
0.151329 -0.11147 0.982178 
0.155692 -0.0969945 0.983032 
0.128763 -0.0741814 0.988897 
0.132419 -0.0619846 0.989254 
0.138333 -0.0508095 0.989082 
0.117843 -0.0347732 0.992423 
0.126843 -0.0247502 0.991614 
0.111202 -0.0120305 0.993725 
0.123581 -0.0014298 0.992333 
0.110734 0.00935868 0.993806 
0.126136 0.0217594 0.991774 
0.116427 0.0320405 0.992682 
0.136555 0.0476436 0.989486 
0.130073 0.0591597 0.989738 
0.126013 0.0715026 0.989448 
0.151868 0.0942064 0.983901 
0.146833 0.109301 0.983104 
0.173578 0.139857 0.974839 
0.166917 0.158053 0.97322 
0.190915 0.196814 0.961673 
0.215518 0.24209 0.946015 
0.23553 0.290078 0.927567 
0.260877 0.355819 0.897405 
0.292645 0.433245 0.852442 
0.325731 0.520329 0.789403 
0.31287 -0.531242 0.787334 
0.280569 -0.445708 0.850074 
0.24961 -0.369648 0.895017 
0.222676 -0.304864 0.925999 
0.200092 -0.25237 0.946717 
0.180318 -0.209605 0.961016 
0.15951 -0.171827 0.972128 
0.139915 -0.139286 0.980318 
0.1446 -0.125289 0.981526 
0.122486 -0.101243 0.987293 
0.126623 -0.087504 0.988084 
0.104741 -0.0663302 0.992285 
0.107363 -0.0552118 0.992686 
0.11205 -0.0450524 0.992681 
0.0949591 -0.0308432 0.995003 
0.102562 -0.0217398 0.994489 
0.0893599 -0.0107283 0.995942 
0.0997893 -0.001241 0.995008 
0.0889666 0.0083055 0.996 
0.101898 0.0192248 0.994609 
0.0936559 0.0282746 0.995203 
0.110542 0.0422944 0.992971 
0.105247 0.0527192 0.993048 
0.102168 0.0644653 0.992676 
0.123109 0.0853443 0.988717 
0.118488 0.100052 0.987902 
0.139844 0.123842 0.982398 
0.134776 0.139356 0.981028 
0.153404 0.172346 0.973018 
0.173135 0.210979 0.962035 
0.191738 0.255494 0.947607 
0.213012 0.309915 0.926595 
0.23835 0.377197 0.894937 
0.267318 0.456675 0.848522 
0.297234 0.546227 0.783127 
0.281635 -0.550026 0.786227 
0.25301 -0.462315 0.849854 
0.224898 -0.384761 0.895198 
0.199656 -0.318167 0.926772 
0.177828 -0.262652 0.948362 
0.158718 -0.216537 0.963286 
0.141583 -0.177861 0.973817 
0.124835 -0.144159 0.981649 
0.114657 -0.114908 0.986737 
0.100059 -0.0914416 0.990771 
0.102976 -0.0784846 0.991583 
0.0851387 -0.0593643 0.994599 
0.08631 -0.0490112 0.995062 
0.090681 -0.0398776 0.995081 
0.0761465 -0.0277082 0.996712 
0.0826788 -0.0194587 0.996386 
0.0716657 -0.00964117 0.997382 
0.0803717 -0.0011683 0.996764 
0.0712912 0.00743206 0.997428 
0.0818695 0.0171358 0.996496 
0.0750451 0.0257465 0.996848 
0.0890955 0.0377802 0.995306 
0.0847196 0.0473602 0.995279 
0.0826435 0.0578662 0.994898 
0.100033 0.0770158 0.991999 
0.0964006 0.0903797 0.991231 
0.110557 0.114379 0.987266 
0.120252 0.144761 0.982132 
0.136047 0.179772 0.974255 
0.152465 0.219821 0.963552 
0.170659 0.267766 0.948249 
0.191759 0.325713 0.925818 
0.215846 0.395585 0.892706 
0.24287 0.476583 0.844916 
0.270537 0.568419 0.776987 
0.250248 -0.56648 0.78516 
0.225212 -0.47635 0.849924 
0.199846 -0.397067 0.895767 
0.177272 -0.329103 0.927505 
0.156967 -0.271615 0.949519 
0.139593 -0.223837 0.964578 
0.124214 -0.184064 0.975034 
0.110693 -0.150584 0.982381 
0.100667 -0.122199 0.987387 
0.0907726 -0.100449 0.990793 
0.0802824 -0.0811158 0.993466 
0.0830406 -0.0705043 0.994049 
0.0689988 -0.055776 0.996056 
0.0689133 -0.0451035 0.996603 
0.0724909 -0.036294 0.996708 
0.0609139 -0.0252975 0.997822 
0.0661765 -0.0176474 0.997652 
0.0572007 -0.00879347 0.998324 
0.0644082 -0.00107905 0.997923 
0.0568922 0.00661454 0.998358 
0.0655942 0.0156096 0.997724 
0.0597398 0.0230226 0.997948 
0.0712857 0.0344184 0.996862 
0.0676026 0.0435825 0.99676 
0.0665226 0.054559 0.996292 
0.0802518 0.0691926 0.99437 
0.0767725 0.0798407 0.993847 
0.0875118 0.100037 0.991128 
0.0968839 0.122884 0.987681 
0.106594 0.152235 0.982579 
0.119563 0.187208 0.975017 
0.134774 0.228516 0.964166 
0.151786 0.278732 0.948298 
0.171615 0.338656 0.925127 
0.194451 0.409855 0.891183 
0.219705 0.492796 0.841951 
0.245528 0.586321 0.771974 
0.219144 -0.58074 0.784039 
0.197613 -0.488317 0.849998 
0.175318 -0.407682 0.896136 
0.154526 -0.337853 0.928427 
0.136641 -0.279251 0.950446 
0.120885 -0.229924 0.965672 
0.107195 -0.188974 0.976114 
0.0953607 -0.154882 0.98332 
0.0862295 -0.126565 0.988203 
0.0773199 -0.103258 0.991645 
0.069443 -0.0837966 0.99406 
0.0651367 -0.0662235 0.995676 
0.0564339 -0.0514967 0.997077 
0.0544199 -0.0411727 0.997669 
0.0576691 -0.0331984 0.997784 
0.0481551 -0.0229843 0.998575 
0.0528098 -0.0160522 0.998476 
0.0449959 -0.00796361 0.998955 
0.051302 -0.00103223 0.998683 
0.0446038 0.00604557 0.998986 
0.0522774 0.0139837 0.998535 
0.0471497 0.0210925 0.998665 
0.0569006 0.0315006 0.997883 
0.0536078 0.0395367 0.997779 
0.053562 0.0491882 0.997352 
0.0623307 0.064683 0.995957 
0.0669802 0.0833651 0.994266 
0.0746206 0.103874 0.991787 
0.0832515 0.127952 0.98828 
0.0921396 0.157568 0.9832 
0.104141 0.192937 0.975669 
0.117446 0.235901 0.964654 
0.133848 0.287026 0.948526 
0.152248 0.348634 0.924811 
0.173562 0.421101 0.890253 
0.197739 0.504921 0.840211 
0.221674 0.59983 0.768807 
0.188739 -0.592764 0.782949 
0.171313 -0.499181 0.849394 
0.150818 -0.417224 0.896202 
0.132997 -0.346372 0.928622 
0.117223 -0.286074 0.95101 
0.103128 -0.235113 0.966481 
0.0910844 -0.192887 0.976984 
0.0807878 -0.157852 0.984152 
0.0724233 -0.128736 0.989031 
0.0649221 -0.105269 0.992322 
0.0579049 -0.0858594 0.994623 
0.0544502 -0.0700744 0.996055 
0.0500687 -0.0577118 0.997077 
0.0443521 -0.0458919 0.997961 
0.042263 -0.0369982 0.998421 
0.045365 -0.0301494 0.998515 
0.0375402 -0.0211079 0.999072 
0.0415717 -0.0147021 0.999027 
0.0350128 -0.00748935 0.999359 
0.0404027 -0.00102728 0.999183 
0.0348313 0.00555616 0.999378 
0.040995 0.0126185 0.99908 
0.0366896 0.0193146 0.99914 
0.0446745 0.0280117 0.998609 
0.0420954 0.0356052 0.998479 
0.0422066 0.0439992 0.99814 
0.0473898 0.0559018 0.997311 
0.0523804 0.0692252 0.996225 
0.0562079 0.086037 0.994705 
0.0628016 0.106237 0.992356 
0.0702236 0.130765 0.988923 
0.0785794 0.160848 0.983846 
0.0892583 0.197448 0.976241 
0.102058 0.241212 0.965091 
0.11651 0.294321 0.948578 
0.133945 0.356707 0.924564 
0.153793 0.430051 0.889609 
0.176455 0.514275 0.839276 
0.198235 0.608979 0.768015 
0.159132 -0.60229 0.782255 
0.145759 -0.510186 0.847623 
0.127805 -0.429326 0.894061 
0.112548 -0.357897 0.926953 
0.0986927 -0.296242 0.95 
0.0868178 -0.243713 0.965954 
0.0764455 -0.199903 0.976829 
0.0672272 -0.16298 0.984336 
0.0599493 -0.132946 0.989309 
0.0533728 -0.107997 0.992717 
0.0474147 -0.0872447 0.995058 
0.043527 -0.0700688 0.996592 
0.0395737 -0.0558006 0.997657 
0.0353439 -0.0438829 0.998411 
0.0325332 -0.0342959 0.998882 
0.0342525 -0.0273129 0.99904 
0.0282853 -0.0201869 0.999396 
0.0319101 -0.0137898 0.999396 
0.0266014 -0.0071347 0.999621 
0.0310079 -0.000917963 0.999519 
0.0262605 0.00519661 0.999642 
0.0312577 0.0121933 0.999437 
0.0277935 0.0186243 0.99944 
0.0336259 0.0262199 0.99909 
0.0319192 0.0334167 0.998932 
0.0339089 0.0438936 0.998461 
0.0380384 0.055932 0.99771 
0.0423236 0.0703845 0.996622 
0.0460631 0.0879632 0.995058 
0.0518504 0.109371 0.992648 
0.0584837 0.135003 0.989118 
0.0663928 0.166338 0.983831 
0.0757737 0.204262 0.975979 
0.0873955 0.249708 0.964369 
0.100743 0.30364 0.947446 
0.11635 0.367041 0.922899 
0.134296 0.440069 0.887865 
0.155797 0.522153 0.8385 
0.174113 0.613908 0.769936 
0.127862 -0.608686 0.78304 
0.121855 -0.527627 0.840691 
0.10598 -0.448562 0.887446 
0.0927313 -0.37563 0.922119 
0.0814696 -0.311323 0.946806 
0.0713713 -0.256222 0.963979 
0.0624207 -0.209632 0.975786 
0.054864 -0.171161 0.983714 
0.0485169 -0.139314 0.989059 
0.0430808 -0.112978 0.992663 
0.0381057 -0.091821 0.995046 
0.0345212 -0.0737226 0.996681 
0.031514 -0.0591307 0.997753 
0.0283407 -0.0469449 0.998495 
0.0254016 -0.0360951 0.999025 
0.0246836 -0.0266573 0.99934 
0.0210293 -0.018588 0.999606 
0.0237434 -0.0128031 0.999636 
0.0193167 -0.00606194 0.999795 
0.0234842 -0.000825094 0.999724 
0.0191877 0.00470513 0.999805 
0.0236349 0.011162 0.999658 
0.0204285 0.0173946 0.99964 
0.0243254 0.0256354 0.999375 
0.0248797 0.035181 0.999071 
0.0270614 0.0468008 0.998538 
0.0301873 0.0589629 0.997804 
0.0335476 0.0742266 0.996677 
0.0372012 0.0924434 0.995023 
0.042137 0.114472 0.992532 
0.0477733 0.141408 0.988798 
0.0548852 0.174165 0.983186 
0.0634722 0.213723 0.97483 
0.0733643 0.261213 0.962489 
0.0856169 0.317479 0.944392 
0.0992464 0.38249 0.918614 
0.115858 0.455946 0.882434 
0.135118 0.535631 0.833572 
0.146152 0.61428 0.775435 
0.100263 -0.612003 0.784474 
0.0909992 -0.505355 0.8581 
0.0762123 -0.413039 0.907519 
0.0652608 -0.337265 0.939145 
0.0563422 -0.274696 0.959879 
0.0489489 -0.223451 0.973485 
0.0426008 -0.18145 0.982477 
0.0372632 -0.146898 0.98845 
0.0328315 -0.119247 0.992322 
0.0289424 -0.0962648 0.994935 
0.0259202 -0.0775366 0.996653 
0.0234686 -0.0624116 0.997775 
0.0210706 -0.049846 0.998535 
0.0192137 -0.0394003 0.999039 
0.0181546 -0.0302175 0.999378 
0.0164859 -0.0231098 0.999597 
0.013922 -0.0163385 0.99977 
0.0169625 -0.0116387 0.999788 
0.0126593 -0.00664539 0.999898 
0.0162092 -0.00108465 0.999868 
0.0126742 0.00485669 0.999908 
0.0165678 0.0100184 0.999813 
0.013782 0.0148133 0.999795 
0.0162444 0.0216239 0.999634 
0.0175517 0.0292255 0.999419 
0.0182793 0.0382162 0.999102 
0.0200011 0.0489207 0.998602 
0.0225111 0.0621772 0.997811 
0.0252522 0.0775085 0.996672 
0.0281709 0.0968949 0.994896 
0.0324745 0.120273 0.99221 
0.0374691 0.148871 0.988147 
0.0432228 0.183884 0.981997 
0.0509392 0.226588 0.972658 
0.0597989 0.278207 0.958658 
0.0708931 0.340991 0.93739 
0.0848554 0.416739 0.905057 
0.10388 0.508189 0.854958 
0.118637 0.612301 0.781673 
0.069504 -0.613541 0.786598 
0.0675488 -0.528322 0.846353 
0.0569155 -0.444294 0.894071 
0.0481594 -0.365375 0.929614 
0.0409971 -0.297773 0.953756 
0.0352028 -0.241823 0.969682 
0.03026 -0.195848 0.980167 
0.0262038 -0.158825 0.986959 
0.0228934 -0.128536 0.991441 
0.0199463 -0.104024 0.994375 
0.0176484 -0.084236 0.99629 
0.0157291 -0.0677691 0.997577 
0.0141705 -0.0545542 0.99841 
0.012694 -0.0433892 0.998978 
0.0116444 -0.0338851 0.999358 
0.010656 -0.0259875 0.999605 
0.00937238 -0.0190819 0.999774 
0.00958941 -0.0118311 0.999884 
0.00743302 -0.00609085 0.999954 
0.0105907 -0.000707811 0.999944 
0.00725645 0.00438637 0.999964 
0.00932886 0.0103553 0.999903 
0.00909258 0.0177513 0.999801 
0.0101423 0.0246893 0.999644 
0.0112403 0.032697 0.999402 
0.011923 0.0425457 0.999023 
0.013432 0.0540622 0.998447 
0.0151496 0.0676441 0.997594 
0.0173148 0.0844453 0.996278 
0.019816 0.104746 0.994302 
0.0228189 0.129661 0.991296 
0.0269839 0.160303 0.986699 
0.0317522 0.197739 0.97974 
0.0376905 0.24374 0.969108 
0.0452484 0.299555 0.953006 
0.0544428 0.366339 0.928887 
0.0661117 0.444221 0.893475 
0.0804511 0.52663 0.846279 
0.0852031 0.608535 0.78894 
0.0421736 -0.613765 0.788361 
0.0377677 -0.502151 0.863955 
0.0302333 -0.40709 0.912888 
0.0245782 -0.328693 0.944117 
0.0204791 -0.265193 0.963978 
0.0170922 -0.214164 0.976648 
0.0144389 -0.17288 0.984837 
0.012205 -0.139528 0.990143 
0.0104323 -0.112956 0.993545 
0.0089304 -0.0909116 0.995819 
0.00779785 -0.073368 0.997274 
0.00687711 -0.0588737 0.998242 
0.00577693 -0.0470147 0.998877 
0.00556194 -0.0369423 0.999302 
0.00468485 -0.0289015 0.999571 
0.00399415 -0.0213401 0.999764 
0.00407829 -0.0153891 0.999873 
0.00359271 -0.00973086 0.999946 
0.00131432 -0.00469998 0.999988 
0.00534185 -0.000608682 0.999986 
0.00133325 0.00209086 0.999997 
0.00360345 0.00840597 0.999958 
0.00383461 0.0133699 0.999903 
0.00369464 0.0203594 0.999786 
0.00441114 0.0273503 0.999616 
0.00481085 0.035977 0.999341 
0.00538256 0.046066 0.998924 
0.00637451 0.0583983 0.998273 
0.00754132 0.0732023 0.997289 
0.00866353 0.0910068 0.995813 
0.0105888 0.113326 0.993501 
0.0126865 0.14037 0.990018 
0.0152603 0.173787 0.984665 
0.0188566 0.215033 0.976425 
0.0231414 0.265658 0.963789 
0.0286585 0.328339 0.944125 
0.0363042 0.404957 0.913615 
0.0462027 0.49767 0.866135 
0.0536176 0.60533 0.794167 
0.0148296 -0.613087 0.789876 
0.0111974 -0.525792 0.850539 
0.0083847 -0.440755 0.897588 
0.00575695 -0.360751 0.932644 
0.00380585 -0.292489 0.956261 
0.0023358 -0.236402 0.971652 
0.00136127 -0.191108 0.981568 
0.000577856 -0.154733 0.987956 
7.02835e-05 -0.125195 0.992132 
-0.000372084 -0.101294 0.994856 
-0.000622153 -0.0821011 0.996624 
-0.000928129 -0.0661218 0.997811 
-0.000989412 -0.0532726 0.99858 
-0.00107767 -0.0423086 0.999104 
-0.00147026 -0.0333319 0.999443 
-0.00130166 -0.0256003 0.999671 
-0.00171083 -0.0189883 0.999818 
-0.00155686 -0.0127502 0.999918 
-0.0015222 -0.00768172 0.999969 
-0.00121152 -3.56482e-05 0.999999 
-0.00170627 0.00610073 0.99998 
-0.00172223 0.011631 0.999931 
-0.00187396 0.0169601 0.999854 
-0.00167159 0.0243291 0.999703 
-0.0017626 0.0321252 0.999482 
-0.00148999 0.0413239 0.999145 
-0.00135785 0.0525649 0.998617 
-0.00121596 0.0656495 0.997842 
-0.000598353 0.0818347 0.996646 
-0.000292312 0.101489 0.994837 
0.000263794 0.125472 0.992097 
0.00129741 0.155132 0.987893 
0.00232881 0.191538 0.981482 
0.00386535 0.236478 0.971629 
0.00602605 0.291659 0.956503 
0.00870116 0.358401 0.933527 
0.0121686 0.436148 0.899793 
0.0161939 0.518133 0.855147 
0.0204326 0.60266 0.797736 
-0.0141533 -0.6071 0.794499 
-0.0180215 -0.495987 0.868143 
-0.016746 -0.402583 0.91523 
-0.0157016 -0.325125 0.945541 
-0.0147185 -0.262666 0.964775 
-0.013719 -0.212293 0.97711 
-0.0127623 -0.171507 0.9851 
-0.0117574 -0.138673 0.990268 
-0.0108387 -0.112244 0.993622 
-0.0101157 -0.0904631 0.995848 
-0.00936536 -0.0730404 0.997285 
-0.00870616 -0.0587354 0.998236 
-0.0083051 -0.0467704 0.998871 
-0.00769317 -0.0368626 0.999291 
-0.00771507 -0.0287848 0.999556 
-0.00691935 -0.0213341 0.999748 
-0.00744347 -0.0154164 0.999853 
-0.00706053 -0.00974229 0.999928 
-0.00556585 -0.00473667 0.999973 
-0.00853396 -0.000618795 0.999963 
-0.00552301 0.00204026 0.999983 
-0.00702659 0.00832818 0.999941 
-0.00755269 0.0132628 0.999884 
-0.00708885 0.0202487 0.99977 
-0.00789692 0.0272405 0.999598 
-0.00810409 0.0358118 0.999326 
-0.00858538 0.0458313 0.998912 
-0.00885119 0.0579744 0.998279 
-0.00946808 0.0725962 0.997316 
-0.0100868 0.0902912 0.995864 
-0.0105421 0.112179 0.993632 
-0.0114496 0.138883 0.990243 
-0.0122168 0.171736 0.985067 
-0.012957 0.212228 0.977134 