# vtk DataFile Version 3.0 
Exported using Morpho https://github.com/Morpho-lang/morpho 
ASCII 
DATASET UNSTRUCTURED_GRID 

POINTS 1245 float 
-0.303845 -0.952721 0 
-0.250833 -0.96803 0 
-0.195084 -0.980787 0 
-0.146308 -0.989239 0 
-0.0940719 -0.995565 0 
-0.0475118 -0.998871 0 
-0.000246339 -1 0 
0.0470875 -0.998891 0 
0.0937543 -0.995595 0 
0.146139 -0.989264 0 
0.195062 -0.980791 0 
0.250843 -0.968028 0 
0.303953 -0.952687 0 
-0.409153 -0.912466 0 
-0.356519 -0.934288 0 
-0.308871 -0.898929 0 
-0.258282 -0.916037 0 
-0.207345 -0.934859 0 
-0.154868 -0.930629 0 
-0.104343 -0.948989 0 
-0.0520099 -0.939193 0 
-8.5762e-05 -0.954582 0 
0.0518744 -0.939288 0 
0.104354 -0.949042 0 
0.154696 -0.9306 0 
0.207366 -0.934975 0 
0.258274 -0.916081 0 
0.308979 -0.898924 0 
0.356593 -0.93426 0 
0.409236 -0.912429 0 
-0.513788 -0.857917 0 
-0.461695 -0.887039 0 
-0.411157 -0.857936 0 
-0.359855 -0.879963 0 
-0.306888 -0.847481 0 
-0.254732 -0.866979 0 
-0.201991 -0.889059 0 
-0.149956 -0.874108 0 
-0.100608 -0.900088 0 
-0.0497575 -0.880388 0 
2.4595e-05 -0.904789 0 
0.0496869 -0.8804 0 
0.100612 -0.900177 0 
0.149872 -0.874171 0 
0.202071 -0.889165 0 
0.254695 -0.867031 0 
0.306946 -0.847482 0 
0.359894 -0.879943 0 
0.411236 -0.857929 0 
0.461748 -0.887011 0 
0.513842 -0.857885 0 
-0.564741 -0.825268 0 
-0.512908 -0.802945 0 
-0.462372 -0.832348 0 
-0.410124 -0.804631 0 
-0.358606 -0.827415 0 
-0.305781 -0.795641 0 
-0.25358 -0.816639 0 
-0.200756 -0.839997 0 
-0.149043 -0.818944 0 
-0.0987265 -0.846667 0 
-0.0490473 -0.822548 0 
5.00659e-05 -0.849932 0 
0.0490834 -0.822542 0 
0.0987838 -0.846676 0 
0.148997 -0.818924 0 
0.200826 -0.840131 0 
0.253508 -0.816728 0 
0.305831 -0.795701 0 
0.358581 -0.827419 0 
0.410181 -0.804654 0 
0.462414 -0.83234 0 
0.512965 -0.802929 0 
0.564777 -0.825243 0 
-0.660798 -0.750564 0 
-0.614015 -0.789295 0 
-0.561786 -0.769772 0 
-0.510673 -0.747856 0 
-0.460836 -0.778365 0 
-0.408794 -0.751554 0 
-0.357337 -0.774971 0 
-0.304815 -0.743684 0 
-0.252907 -0.765535 0 
-0.200631 -0.789263 0 
-0.149244 -0.764328 0 
-0.0986912 -0.791935 0 
-0.0492815 -0.765764 0 
4.16586e-05 -0.79382 0 
0.0492411 -0.765708 0 
0.0987508 -0.791951 0 
0.149196 -0.764326 0 
0.200666 -0.789356 0 
0.252841 -0.765599 0 
0.304862 -0.743741 0 
0.357323 -0.775038 0 
0.408863 -0.751626 0 
0.460863 -0.778382 0 
0.510716 -0.747859 0 
0.561819 -0.769761 0 
0.614041 -0.789274 0 
0.660811 -0.750552 0 
-0.707107 -0.707107 0 
-0.654819 -0.699058 0 
-0.60813 -0.73348 0 
-0.558104 -0.71337 0 
-0.509495 -0.692659 0 
-0.45935 -0.724356 0 
-0.407328 -0.698865 0 
-0.355968 -0.722823 0 
-0.303722 -0.691387 0 
-0.252254 -0.71362 0 
-0.20067 -0.737336 0 
-0.149608 -0.710068 0 
-0.0991558 -0.737129 0 
-0.0495872 -0.709825 0 
-2.23646e-05 -0.737917 0 
0.0494408 -0.709766 0 
0.0991291 -0.737116 0 
0.149502 -0.710042 0 
0.200696 -0.73743 0 
0.252186 -0.713735 0 
0.303753 -0.691518 0 
0.355952 -0.722893 0 
0.407371 -0.698945 0 
0.459374 -0.724407 0 
0.509524 -0.692668 0 
0.558131 -0.713361 0 
0.608151 -0.733462 0 
0.654824 -0.699048 0 
0.707107 -0.707107 0 
-0.750564 -0.660798 0 
-0.699058 -0.654819 0 
-0.647692 -0.647692 0 
-0.603437 -0.675718 0 
-0.55905 -0.655305 0 
-0.508501 -0.639581 0 
-0.457509 -0.671321 0 
-0.405555 -0.646545 0 
-0.354417 -0.670703 0 
-0.302427 -0.639219 0 
-0.251503 -0.661417 0 
-0.20061 -0.684911 0 
-0.149717 -0.655943 0 
-0.0995004 -0.682466 0 
-0.0498216 -0.654561 0 
-5.02113e-05 -0.682664 0 
0.0496787 -0.654499 0 
0.0994374 -0.682501 0 
0.149603 -0.655909 0 
0.200573 -0.684972 0 
0.251388 -0.661524 0 
0.302407 -0.639359 0 
0.354397 -0.670836 0 
0.405575 -0.646641 0 
0.457525 -0.67138 0 
0.508497 -0.639623 0 
0.559063 -0.655324 0 
0.603436 -0.675715 0 
0.64769 -0.64769 0 
0.699048 -0.654824 0 
0.750552 -0.660811 0 
-0.789295 -0.614015 0 
-0.73348 -0.60813 0 
-0.675718 -0.603437 0 
-0.613088 -0.613088 0 
-0.55962 -0.604068 0 
-0.506189 -0.588854 0 
-0.455505 -0.618874 0 
-0.403019 -0.594688 0 
-0.352514 -0.618952 0 
-0.300977 -0.586897 0 
-0.250543 -0.608767 0 
-0.200257 -0.632053 0 
-0.150049 -0.601979 0 
-0.0998281 -0.628222 0 
-0.0500377 -0.599914 0 
-3.12334e-05 -0.628076 0 
0.0498927 -0.599835 0 
0.0997818 -0.628253 0 
0.149924 -0.601867 0 
0.200214 -0.632118 0 
0.250423 -0.608915 0 
0.30086 -0.587085 0 
0.352457 -0.619096 0 
0.402948 -0.594743 0 
0.455483 -0.618952 0 
0.506147 -0.588901 0 
0.55964 -0.604067 0 
0.613069 -0.613069 0 
0.675715 -0.603436 0 
0.733462 -0.608151 0 
0.789274 -0.614041 0 
-0.825268 -0.564741 0 
-0.769772 -0.561786 0 
-0.71337 -0.558104 0 
-0.655305 -0.55905 0 
-0.604068 -0.55962 0 
-0.551031 -0.551031 0 
-0.497922 -0.537596 0 
-0.451508 -0.567021 0 
-0.399773 -0.542431 0 
-0.350494 -0.567003 0 
-0.301574 -0.534146 0 
-0.250874 -0.555692 0 
-0.200542 -0.579013 0 
-0.150324 -0.548268 0 
-0.100169 -0.57443 0 
-0.0500152 -0.545912 0 
-3.29278e-05 -0.574268 0 
0.0499208 -0.545788 0 
0.100058 -0.574485 0 
0.150038 -0.548073 0 
0.200377 -0.579041 0 
0.250556 -0.55585 0 
0.301273 -0.534348 0 
0.350318 -0.567174 0 
0.399615 -0.542384 0 
0.451404 -0.5671 0 
0.497945 -0.537702 0 
0.551073 -0.551073 0 
0.604067 -0.55964 0 
0.655324 -0.559063 0 
0.713361 -0.558131 0 
0.769761 -0.561819 0 
0.825243 -0.564777 0 
-0.857917 -0.513788 0 
-0.802945 -0.512908 0 
-0.747856 -0.510673 0 
-0.692659 -0.509495 0 
-0.639581 -0.508501 0 
-0.588854 -0.506189 0 
-0.537596 -0.497922 0 
-0.486157 -0.486157 0 
-0.444928 -0.512952 0 
-0.401787 -0.486784 0 
-0.351685 -0.513639 0 
-0.299695 -0.48291 0 
-0.250032 -0.503 0 
-0.200501 -0.526165 0 
-0.149489 -0.495195 0 
-0.0999281 -0.521367 0 
-0.0499712 -0.492294 0 
4.64723e-05 -0.520999 0 
0.050147 -0.492108 0 
0.099934 -0.52133 0 
0.14957 -0.494692 0 
0.200133 -0.526255 0 
0.249839 -0.503309 0 
0.299839 -0.483005 0 
0.351514 -0.513798 0 
0.401881 -0.486608 0 
0.444935 -0.513054 0 
0.486228 -0.486228 0 
0.537702 -0.497945 0 
0.588901 -0.506147 0 
0.639623 -0.508497 0 
0.692668 -0.509524 0 
0.747859 -0.510716 0 
0.802929 -0.512965 0 
0.857885 -0.513842 0 
-0.887039 -0.461695 0 
-0.832348 -0.462372 0 
-0.778365 -0.460836 0 
-0.724356 -0.45935 0 
-0.671321 -0.457509 0 
-0.618874 -0.455505 0 
-0.567021 -0.451508 0 
-0.512952 -0.444928 0 
-0.450685 -0.450685 0 
-0.397667 -0.437543 0 
-0.348492 -0.462546 0 
-0.295416 -0.432968 0 
-0.247004 -0.450633 0 
-0.198702 -0.473818 0 
-0.150161 -0.441625 0 
-0.100085 -0.468395 0 
-0.0502271 -0.439281 0 
0.000144229 -0.468374 0 
0.0504178 -0.439106 0 
0.100428 -0.468348 0 
0.150697 -0.441105 0 
0.199103 -0.473881 0 
0.247983 -0.450921 0 
0.296569 -0.432268 0 
0.348831 -0.462562 0 
0.397506 -0.4368 0 
0.450637 -0.450637 0 
0.513054 -0.444935 0 
0.5671 -0.451404 0 
0.618952 -0.455483 0 
0.67138 -0.457525 0 
0.724407 -0.459374 0 
0.778382 -0.460863 0 
0.83234 -0.462414 0 
0.887011 -0.461748 0 
-0.912466 -0.409153 0 
-0.857936 -0.411157 0 
-0.804631 -0.410124 0 
-0.751554 -0.408794 0 
-0.698865 -0.407328 0 
-0.646545 -0.405555 0 
-0.594688 -0.403019 0 
-0.542431 -0.399773 0 
-0.486784 -0.401787 0 
-0.437543 -0.397667 0 
-0.387256 -0.387256 0 
-0.344215 -0.411459 0 
-0.30136 -0.381507 0 
-0.25021 -0.395692 0 
-0.200211 -0.419975 0 
-0.150955 -0.389014 0 
-0.100617 -0.416095 0 
-0.0503197 -0.386922 0 
-4.02994e-05 -0.416525 0 
0.05006 -0.386948 0 
0.100784 -0.416323 0 
0.150432 -0.388572 0 
0.200855 -0.420694 0 
0.25086 -0.396905 0 
0.301746 -0.379789 0 
0.344135 -0.410678 0 
0.385823 -0.385823 0 
0.4368 -0.397506 0 
0.486608 -0.401881 0 
0.542384 -0.399615 0 
0.594743 -0.402948 0 
0.646641 -0.405575 0 
0.698945 -0.407371 0 
0.751626 -0.408863 0 
0.804654 -0.410181 0 
0.857929 -0.411236 0 
0.912429 -0.409236 0 
-0.934288 -0.356519 0 
-0.879963 -0.359855 0 
-0.827415 -0.358606 0 
-0.774971 -0.357337 0 
-0.722823 -0.355968 0 
-0.670703 -0.354417 0 
-0.618952 -0.352514 0 
-0.567003 -0.350494 0 
-0.513639 -0.351685 0 
-0.462546 -0.348492 0 
-0.411459 -0.344215 0 
-0.351697 -0.351697 0 
-0.29839 -0.336232 0 
-0.249846 -0.342529 0 
-0.200971 -0.367271 0 
-0.149995 -0.337521 0 
-0.100435 -0.3646 0 
-0.0498692 -0.335025 0 
-6.88684e-05 -0.365025 0 
0.0495433 -0.334795 0 
0.0996798 -0.364834 0 
0.148162 -0.337172 0 
0.199644 -0.368939 0 
0.24763 -0.345582 0 
0.295348 -0.332889 0 
0.34978 -0.34978 0 
0.410678 -0.344135 0 
0.462562 -0.348831 0 
0.513798 -0.351514 0 
0.567174 -0.350318 0 
0.619096 -0.352457 0 
0.670836 -0.354397 0 
0.722893 -0.355952 0 
0.775038 -0.357323 0 
0.827419 -0.358581 0 
0.879943 -0.359894 0 
0.93426 -0.356593 0 
-0.952721 -0.303845 0 
-0.898929 -0.308871 0 
-0.847481 -0.306888 0 
-0.795641 -0.305781 0 
-0.743684 -0.304815 0 
-0.691387 -0.303722 0 
-0.639219 -0.302427 0 
-0.586897 -0.300977 0 
-0.534146 -0.301574 0 
-0.48291 -0.299695 0 
-0.432968 -0.295416 0 
-0.381507 -0.30136 0 
-0.336232 -0.29839 0 
-0.288184 -0.288184 0 
-0.242975 -0.290577 0 
-0.198059 -0.315051 0 
-0.148383 -0.285894 0 
-0.0994753 -0.313232 0 
-0.0507184 -0.283118 0 
-0.000202902 -0.313447 0 
0.0500077 -0.282824 0 
0.0988289 -0.312817 0 
0.148102 -0.28482 0 
0.195742 -0.317413 0 
0.240766 -0.295824 0 
0.285014 -0.285014 0 
0.332889 -0.295348 0 
0.379789 -0.301746 0 
0.432268 -0.296569 0 
0.483005 -0.299839 0 
0.534348 -0.301273 0 
0.587085 -0.30086 0 
0.639359 -0.302407 0 
0.691518 -0.303753 0 
0.743741 -0.304862 0 
0.795701 -0.305831 0 
0.847482 -0.306946 0 
0.898924 -0.308979 0 
0.952687 -0.303953 0 
-0.96803 -0.250833 0 
-0.916037 -0.258282 0 
-0.866979 -0.254732 0 
-0.816639 -0.25358 0 
-0.765535 -0.252907 0 
-0.71362 -0.252254 0 
-0.661417 -0.251503 0 
-0.608767 -0.250543 0 
-0.555692 -0.250874 0 
-0.503 -0.250032 0 
-0.450633 -0.247004 0 
-0.395692 -0.25021 0 
-0.342529 -0.249846 0 
-0.290577 -0.242975 0 
-0.239946 -0.239946 0 
-0.194478 -0.26004 0 
-0.151293 -0.23238 0 
-0.101048 -0.260904 0 
-0.0503938 -0.232537 0 
-0.000203281 -0.262984 0 
0.050638 -0.232316 0 
0.100942 -0.260855 0 
0.152412 -0.232597 0 
0.195768 -0.261421 0 
0.241873 -0.241873 0 
0.295824 -0.240766 0 
0.345582 -0.24763 0 
0.396905 -0.25086 0 
0.450921 -0.247983 0 
[...]
POINT_DATA 1245 
VECTORS vectors float
0.596369 -0.208694 0.775107 
0.59964 -0.179334 0.779917 
0.59983 -0.144337 0.787001 
0.599319 -0.110396 0.792862 
0.599079 -0.0703913 0.797589 
0.600405 -0.0344356 0.798954 
0.603227 0.00118742 0.797569 
0.602764 0.0361321 0.797101 
0.603347 0.0702106 0.794382 
0.604742 0.107011 0.789199 
0.605196 0.137791 0.784061 
0.603643 0.169619 0.779003 
0.598082 0.197186 0.776798 
0.579087 -0.262091 0.771988 
0.589691 -0.235901 0.772409 
0.504692 -0.186026 0.843019 
0.510977 -0.161264 0.844332 
0.523402 -0.135816 0.841192 
0.498129 -0.0994761 0.861378 
0.518387 -0.0701608 0.852263 
0.493869 -0.0333822 0.868895 
0.519296 0.000388381 0.854594 
0.495817 0.032955 0.867802 
0.521778 0.0684955 0.850327 
0.501645 0.0952372 0.859815 
0.527023 0.129114 0.839986 
0.512868 0.152672 0.844783 
0.504578 0.176453 0.845142 
0.588732 0.223842 0.776717 
0.57543 0.250693 0.778481 
0.544793 -0.315412 0.776992 
0.564139 -0.288303 0.773711 
0.488068 -0.234246 0.840784 
0.497702 -0.210143 0.841506 
0.423313 -0.162152 0.891355 
0.431671 -0.139452 0.891186 
0.446587 -0.116432 0.887132 
0.409814 -0.0822572 0.908453 
0.438264 -0.0589579 0.896911 
0.403284 -0.0277183 0.914655 
0.437787 -0.000377121 0.899079 
0.404255 0.026134 0.914273 
0.440637 0.0566194 0.895898 
0.411713 0.0781997 0.907952 
0.448903 0.110712 0.886696 
0.432324 0.132284 0.891963 
0.421935 0.154248 0.893408 
0.495229 0.200347 0.845346 
0.483407 0.224983 0.84599 
0.558121 0.278378 0.781669 
0.536889 0.307355 0.785674 
0.521574 -0.34382 0.780864 
0.457271 -0.283495 0.842932 
0.474667 -0.258566 0.841329 
0.407337 -0.207065 0.889495 
0.416386 -0.184721 0.890225 
0.352309 -0.141518 0.925122 
0.361353 -0.121358 0.924498 
0.375879 -0.100945 0.921154 
0.336712 -0.069967 0.939005 
0.362852 -0.0499478 0.930507 
0.327958 -0.023517 0.944399 
0.360538 -0.000842531 0.932744 
0.328431 0.0211964 0.94429 
0.364086 0.0471715 0.93017 
0.337459 0.0661499 0.939013 
0.376868 0.0956758 0.921313 
0.360776 0.11525 0.925504 
0.35039 0.135098 0.926809 
0.413052 0.176661 0.893409 
0.402336 0.199693 0.893448 
0.467985 0.250486 0.847495 
0.449152 0.276889 0.849468 
0.512257 0.337628 0.789684 
0.467933 -0.403302 0.786376 
0.495474 -0.373444 0.784248 
0.436223 -0.308872 0.845167 
0.379489 -0.252738 0.890007 
0.395321 -0.229745 0.889347 
0.337973 -0.183048 0.923183 
0.345887 -0.162026 0.924181 
0.292001 -0.123853 0.948365 
0.300209 -0.105688 0.948 
0.31322 -0.0876757 0.945625 
0.275955 -0.060296 0.959277 
0.297771 -0.0428594 0.953675 
0.266388 -0.0203738 0.96365 
0.29404 -0.00110972 0.955792 
0.266514 0.0177765 0.963667 
0.298214 0.0399352 0.953663 
0.275982 0.0565999 0.959495 
0.313234 0.0831575 0.946028 
0.299067 0.100527 0.948922 
0.289385 0.118581 0.949839 
0.342327 0.15562 0.926604 
0.332727 0.177145 0.926236 
0.388737 0.223236 0.893896 
0.371437 0.24755 0.894848 
0.42695 0.3038 0.851716 
0.485009 0.368973 0.792859 
0.456318 0.400507 0.794587 
0.438006 -0.433989 0.787276 
0.395715 -0.365203 0.842637 
0.412825 -0.334216 0.847275 
0.360146 -0.275269 0.89136 
0.313125 -0.225715 0.9225 
0.326996 -0.203944 0.922757 
0.279213 -0.161881 0.946485 
0.286108 -0.14253 0.947538 
0.240381 -0.108487 0.964597 
0.24798 -0.0922463 0.964363 
0.258989 -0.0763953 0.962854 
0.225787 -0.0522261 0.972776 
0.243345 -0.0371616 0.969228 
0.216349 -0.0176985 0.976156 
0.239076 -0.00129905 0.971 
0.21621 0.0150941 0.97623 
0.243265 0.0341805 0.969357 
0.225231 0.0489981 0.973073 
0.258206 0.0723668 0.963376 
0.246353 0.0879888 0.965178 
0.237863 0.104269 0.965686 
0.282351 0.137438 0.949415 
0.274457 0.157301 0.948646 
0.320622 0.198978 0.926072 
0.305794 0.221824 0.925896 
0.351147 0.271537 0.896083 
0.402483 0.330685 0.853613 
0.384245 0.363564 0.848632 
0.425006 0.433336 0.794726 
0.407323 -0.463228 0.787088 
0.368565 -0.391771 0.843015 
0.331875 -0.328611 0.884236 
0.339194 -0.297957 0.892283 
0.295706 -0.248074 0.922506 
0.25938 -0.203082 0.944182 
0.270205 -0.181709 0.945501 
0.230198 -0.143753 0.962468 
0.236195 -0.12584 0.963523 
0.197803 -0.0956057 0.975568 
0.203996 -0.0809 0.975623 
0.212947 -0.0666471 0.974788 
0.184231 -0.0456004 0.981825 
0.198283 -0.0322881 0.979613 
0.175586 -0.0155762 0.984341 
0.194233 -0.00125782 0.980955 
0.175335 0.012937 0.984424 
0.198023 0.0294551 0.979755 
0.183357 0.0425991 0.982123 
0.211945 0.0631046 0.975242 
0.202029 0.0773591 0.976319 
0.195152 0.0922218 0.976428 
0.232479 0.121795 0.964945 
0.22548 0.140369 0.964083 
0.264045 0.17795 0.947952 
0.252448 0.200555 0.946598 
0.287364 0.245656 0.925783 
0.329473 0.295899 0.8966 
0.321327 0.327877 0.888395 
0.356207 0.39245 0.847997 
0.392964 0.465478 0.793038 
0.377337 -0.489205 0.786318 
0.337122 -0.407874 0.848521 
0.300418 -0.335421 0.892884 
0.278572 -0.276154 0.919857 
0.24755 -0.226655 0.941991 
0.215436 -0.18323 0.959174 
0.222725 -0.162242 0.961286 
0.189506 -0.128109 0.973486 
0.194155 -0.111334 0.974632 
0.162037 -0.0846384 0.983148 
0.166946 -0.0711475 0.983396 
0.174488 -0.058401 0.982926 
0.149936 -0.0400481 0.987884 
0.161486 -0.0282299 0.986471 
0.142427 -0.0136449 0.989711 
0.157765 -0.00117301 0.987476 
0.142156 0.0113154 0.98978 
0.160946 0.0257608 0.986627 
0.149036 0.037408 0.988124 
0.173121 0.0555019 0.983335 
0.16517 0.0681598 0.983907 
0.159433 0.081947 0.983802 
0.190763 0.108238 0.97565 
0.185248 0.125457 0.974651 
0.217471 0.159502 0.962946 
0.209251 0.181611 0.960849 
0.240103 0.225475 0.944199 
0.269502 0.275804 0.92266 
0.289781 0.337148 0.895744 
0.324559 0.411092 0.85186 
0.362273 0.494873 0.789848 
0.346534 -0.513293 0.785139 
0.31083 -0.429888 0.847692 
0.276767 -0.355396 0.892801 
0.249533 -0.292373 0.923174 
0.22825 -0.245129 0.942239 
0.202113 -0.200739 0.958569 
0.176492 -0.162406 0.970811 
0.183146 -0.14481 0.972362 
0.155004 -0.114127 0.9813 
0.159448 -0.0991771 0.982212 
0.13251 -0.0760083 0.988263 
0.136362 -0.06338 0.98863 
0.142519 -0.0517557 0.988438 
0.121954 -0.0354549 0.991902 
0.13126 -0.0250382 0.991032 
0.115479 -0.0120665 0.993237 
0.128123 -0.00114366 0.991758 
0.11509 0.00993516 0.993305 
0.130685 0.0226337 0.991166 
0.120784 0.0332382 0.992122 
0.141062 0.0491722 0.988779 
0.134437 0.0610334 0.989041 
0.130231 0.0737993 0.988733 
0.156274 0.0968126 0.982958 
0.151205 0.112285 0.982104 
0.17819 0.143145 0.973529 
0.171418 0.161603 0.971854 
0.195733 0.200607 0.95992 
0.220555 0.245944 0.943858 
0.24081 0.294154 0.924924 
0.266452 0.35947 0.894307 
0.29855 0.43643 0.848762 
0.331957 0.52272 0.785219 
0.315261 -0.534967 0.78385 
0.283455 -0.449643 0.847039 
0.252796 -0.373714 0.89243 
0.226055 -0.30897 0.923816 
0.203539 -0.256385 0.944901 
0.183794 -0.213459 0.959508 
0.162944 -0.175406 0.970918 
0.143265 -0.142641 0.979351 
0.148133 -0.128238 0.980618 
0.125879 -0.103933 0.986586 
0.130218 -0.0897553 0.987414 
0.108264 -0.068225 0.991778 
0.111033 -0.0566674 0.9922 
0.115983 -0.0461086 0.99218 
0.0987917 -0.0315657 0.994607 
0.106629 -0.0221197 0.994053 
0.0933017 -0.0107781 0.99558 
0.103953 -0.000978628 0.994582 
0.0929666 0.00890446 0.995629 
0.106078 0.0201211 0.994154 
0.0976841 0.0295483 0.994779 
0.114734 0.0438701 0.992427 
0.109317 0.0546807 0.992502 
0.106144 0.0667291 0.992109 
0.127294 0.0879866 0.987955 
0.122527 0.102948 0.987111 
0.144117 0.127085 0.981366 
0.138965 0.142697 0.979962 
0.157776 0.175908 0.971681 
0.177698 0.21476 0.960365 
0.196495 0.259148 0.945639 
0.21797 0.313488 0.924237 
0.243523 0.380434 0.892169 
0.272727 0.459258 0.845401 
0.302843 0.547882 0.779815 
0.283648 -0.554138 0.782608 
0.255423 -0.466542 0.846817 
0.227622 -0.389049 0.892653 
0.202603 -0.322416 0.924662 
0.180862 -0.2668 0.946629 
0.161858 -0.220511 0.961861 
0.144696 -0.181635 0.972662 
0.127998 -0.147565 0.980735 
0.117861 -0.117918 0.986004 
0.103234 -0.0941172 0.990194 
0.106316 -0.0807519 0.991048 
0.0883665 -0.0612466 0.994203 
0.0897483 -0.05052 0.994682 
0.0942649 -0.0410031 0.994702 
0.0796396 -0.0285021 0.996416 
0.0863705 -0.0198676 0.996065 
0.0752464 -0.00972895 0.997118 
0.0841708 -0.000891732 0.996451 
0.0749311 0.00803982 0.997156 
0.0857193 0.0180945 0.996155 
0.0787124 0.0270087 0.996531 
0.0929884 0.0393819 0.994888 
0.0884666 0.0492828 0.994859 
0.0862936 0.0601627 0.994452 
0.103879 0.0796141 0.991398 
0.100129 0.0932735 0.990593 
0.114419 0.117544 0.986454 
0.124143 0.148191 0.981136 
0.140066 0.183304 0.973027 
0.156626 0.223414 0.962057 
0.174952 0.27128 0.946466 
0.196157 0.328965 0.923745 
0.220375 0.398332 0.890374 
0.247475 0.478664 0.842399 
0.275146 0.569519 0.77456 
0.252075 -0.57084 0.781409 
0.227311 -0.480841 0.84683 
0.202214 -0.401596 0.893213 
0.17975 -0.333529 0.925445 
0.159646 -0.275946 0.947822 
0.142321 -0.227971 0.96321 
0.127012 -0.187957 0.97393 
0.11352 -0.154218 0.981494 
0.103532 -0.125516 0.986675 
0.0936896 -0.103406 0.990217 
0.0831753 -0.0837211 0.993012 
0.086126 -0.0727887 0.993622 
0.0719646 -0.0577654 0.995733 
0.0719823 -0.046663 0.996314 
0.0757836 -0.0374661 0.99642 
0.0640454 -0.0261125 0.997605 
0.0695754 -0.0180926 0.997413 
0.0604126 -0.00886979 0.998134 
0.0678876 -0.000809981 0.997693 
0.0601672 0.00725624 0.998162 
0.0691183 0.0165652 0.997471 
0.0630719 0.0243973 0.997711 
0.0748578 0.0360905 0.996541 
0.0710084 0.0455967 0.996433 
0.0698347 0.0568407 0.995938 
0.0837657 0.071776 0.993897 
0.0801782 0.0826291 0.99335 
0.0909452 0.103098 0.990505 
0.100418 0.126129 0.986918 
0.110104 0.155676 0.981653 
0.123183 0.190694 0.97389 
0.138388 0.232014 0.962818 
0.155466 0.282034 0.946724 
0.17531 0.341657 0.923329 
0.198076 0.41235 0.889232 
0.223251 0.494517 0.840007 
0.248813 0.587138 0.770299 
0.220849 -0.58517 0.780258 
0.199507 -0.492992 0.846851 
0.177267 -0.412346 0.893615 
0.15671 -0.34251 0.926352 
0.13889 -0.28373 0.948792 
0.123226 -0.234213 0.964344 
0.109619 -0.193042 0.975048 
0.0978347 -0.158677 0.982471 
0.0887767 -0.13001 0.98753 
0.0799022 -0.106414 0.991106 
0.072042 -0.0865954 0.993635 
0.0678511 -0.0685925 0.995335 
0.0591062 -0.0534536 0.99682 
0.0571807 -0.0427879 0.997447 
0.0606483 -0.0344185 0.997566 
0.050998 -0.0238371 0.998414 
0.0558552 -0.0165172 0.998302 
0.0479142 -0.00806244 0.998819 
0.0544309 -0.000768024 0.998517 
0.0475929 0.00665998 0.998845 
0.0554368 0.0149565 0.99835 
0.0501709 0.0223719 0.99849 
0.0601104 0.0331113 0.997642 
0.0566786 0.0415286 0.997528 
0.0565571 0.051512 0.99707 
0.0654031 0.0672951 0.995587 
0.0700023 0.0863029 0.993807 
0.0777273 0.107025 0.991213 
0.0863276 0.131293 0.987578 
0.095225 0.161003 0.982349 
0.107144 0.196471 0.974638 
0.120523 0.239288 0.963439 
0.136749 0.290309 0.947112 
0.155057 0.351514 0.923252 
0.176174 0.42348 0.88861 
0.200016 0.506618 0.838649 
0.223418 0.600689 0.767631 
0.190227 -0.597135 0.779258 
0.172855 -0.503863 0.846311 
0.152535 -0.422064 0.893642 
0.134761 -0.35114 0.926575 
0.119074 -0.290712 0.949372 
0.105112 -0.239573 0.965172 
0.093131 -0.197098 0.97595 
0.0828875 -0.161758 0.983343 
0.0746162 -0.132388 0.988385 
0.0671446 -0.108556 0.99182 
0.0601793 -0.0888147 0.994229 
0.0568191 -0.0726871 0.995735 
0.0524554 -0.0599821 0.99682 
0.0467367 -0.0478142 0.997762 
0.0447122 -0.0385722 0.998255 
0.0479757 -0.0313444 0.998357 
0.0400237 -0.0219472 0.998958 
0.0442656 -0.0151528 0.998905 
0.0375402 -0.00759801 0.999266 
0.0431433 -0.000738894 0.999069 
0.0373786 0.00620446 0.999282 
0.0437851 0.0136352 0.998948 
0.0392973 0.0206658 0.999014 
0.0475312 0.0297292 0.998427 
0.0448214 0.0375468 0.998289 
0.044845 0.0462591 0.997922 
0.0500772 0.058412 0.997036 
0.0551582 0.0720193 0.995877 
0.058871 0.0890534 0.994286 
0.065461 0.10949 0.99183 
0.0728484 0.134166 0.988278 
0.0811467 0.164373 0.983055 
0.0917461 0.200965 0.975293 
0.104359 0.24474 0.963956 
0.118703 0.297588 0.947286 
0.135794 0.359724 0.923124 
0.155249 0.432588 0.888124 
0.177443 0.516181 0.837897 
0.198358 0.610237 0.766984 
0.160186 -0.606556 0.778736 
0.146987 -0.514892 0.84456 
0.129071 -0.434202 0.891521 
0.113885 -0.362788 0.924886 
0.100194 -0.301042 0.948333 
0.0883724 -0.24833 0.964636 
0.0780783 -0.204247 0.975801 
0.0689745 -0.167113 0.983522 
0.0617495 -0.136703 0.988686 
0.0552539 -0.111437 0.992234 
0.049323 -0.0903725 0.994686 
0.04552 -0.0727654 0.99631 
0.0416476 -0.0581318 0.99744 
0.0374078 -0.0458403 0.998248 
0.0346106 -0.0358367 0.998758 
0.0365375 -0.0285363 0.998925 
0.030395 -0.0210428 0.999316 
0.034259 -0.0142857 0.999311 
0.0287831 -0.00720184 0.99956 
0.0334757 -0.000645622 0.999439 
0.0285152 0.0058744 0.999576 
0.0337563 0.0131838 0.999343 
0.0300318 0.0200355 0.999348 
0.0361207 0.0278756 0.998959 
0.0342338 0.0354098 0.998786 
0.0362377 0.0462442 0.998273 
0.0403859 0.0585473 0.997467 
0.044628 0.0732592 0.996314 
0.0483382 0.0911293 0.994665 
0.0540733 0.112706 0.992156 
0.0606217 0.138523 0.988502 
0.0683829 0.169979 0.983072 
0.0776692 0.207946 0.975052 
0.0890111 0.25334 0.963274 
0.102059 0.30719 0.94616 
0.117227 0.37032 0.921478 
0.134655 0.442991 0.886356 
0.155439 0.524614 0.83703 
0.172667 0.61592 0.768654 
0.128238 -0.612926 0.779664 
0.122536 -0.532306 0.837637 
0.106721 -0.453486 0.884851 
0.0936523 -0.380637 0.91997 
0.0824687 -0.316281 0.945074 
0.072495 -0.260985 0.962617 
0.0636871 -0.214215 0.974708 
0.0561931 -0.175415 0.98289 
0.0499395 -0.143261 0.988424 
0.0445794 -0.116648 0.992172 
0.039663 -0.0950646 0.994681 
0.0361623 -0.0766325 0.996403 
0.033201 -0.0616631 0.997545 
0.0300623 -0.0490689 0.998343 
0.0271887 -0.037823 0.998915 
0.0265402 -0.0279246 0.999258 
0.0227991 -0.0194505 0.999551 
0.025771 -0.0132729 0.99958 
0.0211435 -0.00617512 0.999757 
0.025538 -0.000548686 0.999674 
0.0210543 0.00531724 0.999764 
0.0256888 0.0122014 0.999596 
0.0223753 0.0187456 0.999574 
0.0263613 0.0273795 0.999277 
0.026858 0.0373413 0.998942 
0.0290054 0.0492214 0.998367 
0.0321473 0.0617806 0.997572 
0.0354798 0.0772384 0.996381 
0.0390247 0.0957275 0.994642 
0.043884 0.117986 0.992045 
0.0494457 0.145082 0.988183 
0.0563443 0.177982 0.982419 
0.0646934 0.217649 0.973881 
0.0743229 0.265154 0.961337 
0.0860678 0.321373 0.943033 
0.0992073 0.386299 0.917023 
0.115001 0.459541 0.88068 
0.133601 0.538817 0.831762 
0.143313 0.617433 0.773458 
0.0999153 -0.616363 0.781098 
0.0911069 -0.510222 0.855203 
0.0765093 -0.418173 0.905139 
0.0657618 -0.342385 0.937255 
0.0570367 -0.279691 0.958394 
0.0497611 -0.228204 0.972341 
0.0435323 -0.185906 0.981603 
0.0383068 -0.151089 0.987778 
0.0339557 -0.123013 0.991824 
0.0301296 -0.0997354 0.994558 
0.0271758 -0.0806251 0.996374 
0.0247834 -0.0650918 0.997571 
0.0224656 -0.052176 0.998385 
0.0206019 -0.0413193 0.998934 
0.0196152 -0.0317389 0.999304 
0.0179872 -0.0242413 0.999544 
0.0153891 -0.0170927 0.999735 
0.0185743 -0.0120619 0.999755 
0.0141542 -0.00672545 0.999877 
0.0179232 -0.00073408 0.999839 
0.0141739 0.00555339 0.999884 
0.0183148 0.0110262 0.999771 
0.0153173 0.016122 0.999753 
0.0178721 0.0233041 0.999569 
0.0192196 0.0311483 0.99933 
0.0198949 0.0405139 0.998981 
0.021589 0.0515857 0.998435 
0.0240637 0.0650287 0.997593 
0.0267387 0.0807263 0.996378 
0.029612 0.100331 0.994513 
0.0337646 0.12395 0.991714 
0.0385958 0.152776 0.987507 
0.0441994 0.187968 0.98118 
0.0515553 0.230822 0.971629 
0.0600485 0.282611 0.957353 
0.070562 0.345454 0.935779 
0.0837676 0.421216 0.903084 
0.101778 0.512529 0.852617 
0.115007 0.616625 0.778812 
0.0683671 -0.618223 0.783024 
0.0669234 -0.533375 0.843227 
0.0566265 -0.449585 0.891441 
0.0481109 -0.370728 0.927495 
0.0411969 -0.302998 0.9521 
0.0355823 -0.246813 0.96841 
0.0307966 -0.200578 0.979194 
0.0268483 -0.163177 0.986232 
0.023626 -0.132564 0.990893 
0.0207665 -0.107713 0.993965 
0.0185246 -0.087497 0.995993 
0.0166883 -0.0707 0.997358 
0.0151539 -0.0570811 0.998255 
0.0137173 -0.0455316 0.998869 
0.0127719 -0.0356313 0.999283 
0.0117573 -0.0273375 0.999557 
0.0104835 -0.0200395 0.999744 
0.0107829 -0.0123315 0.999866 
0.00851673 -0.00616754 0.999945 
0.0119352 -0.000448759 0.999929 
0.00841362 0.00508735 0.999952 
0.0106153 0.0114041 0.999879 
0.010329 0.0192216 0.999762 
0.0114281 0.0265226 0.999583 
0.0124904 0.0348826 0.999313 
0.0131477 0.0450153 0.9989 
0.0146147 0.0568645 0.998275 
0.0163217 0.0707736 0.997359 
0.018377 0.0878013 0.995968 
0.0207798 0.108414 0.993889 
0.0237097 0.13358 0.990754 
0.0276389 0.164467 0.985995 
0.032183 0.202186 0.978818 
0.0378092 0.24842 0.967914 
0.0448777 0.30449 0.951458 
0.0534585 0.371559 0.926869 
0.0643398 0.449594 0.890913 
0.0775977 0.532072 0.843136 
0.0812577 0.614261 0.784908 
0.0404381 -0.618871 0.784451 
0.0366762 -0.507666 0.860773 
0.0296024 -0.412722 0.910376 
0.0242877 -0.334224 0.942181 
0.0204159 -0.270496 0.962505 
0.01722 -0.219122 0.975545 
0.0146934 -0.177503 0.984011 
0.0125798 -0.143809 0.989525 
0.0108724 -0.116797 0.993096 
0.00945026 -0.0944283 0.995487 
0.00836555 -0.0764638 0.997037 
0.00748267 -0.0615885 0.998074 
0.00648732 -0.0493312 0.998761 
0.00622481 -0.0388821 0.999224 
0.00546149 -0.0303856 0.999523 
0.00473387 -0.0225464 0.999735 
0.00491792 -0.0160544 0.999859 
0.0044302 -0.0101192 0.999939 
0.00215917 -0.00453811 0.999987 
0.00629533 -0.00036368 0.99998 
0.00216482 0.00277342 0.999994 
0.00447767 0.00929167 0.999947 
0.00477602 0.014732 0.99988 
0.00455493 0.0219599 0.999748 
0.00530786 0.0293698 0.999555 
0.0056768 0.0382827 0.999251 
0.00623176 0.0487467 0.998792 
0.00716857 0.0613699 0.998089 
0.00827502 0.076456 0.997039 
0.00937096 0.0946186 0.995469 
0.0111346 0.117187 0.993047 
0.0131172 0.14456 0.989409 
0.0155365 0.178292 0.983855 
0.0188416 0.219864 0.975349 
0.0228 0.2709 0.962337 
0.0278501 0.333965 0.942174 
0.0347648 0.411044 0.910952 
0.0437862 0.504138 0.862513 
0.0498798 0.612195 0.789132 
0.0126346 -0.61875 0.785486 
0.00960574 -0.531702 0.846877 
0.00719885 -0.446793 0.894608 
0.00498051 -0.366653 0.930344 
0.00332311 -0.298104 0.954528 
0.00208176 -0.2417 0.970349 
0.00124653 -0.196034 0.980596 
0.000581782 -0.159232 0.987241 
0.000152706 -0.129328 0.991602 
-0.000213948 -0.105046 0.994467 
-0.000431166 -0.0854115 0.996346 
-0.000655858 -0.0690991 0.99761 
-0.000709257 -0.055819 0.998441 
-0.000777367 -0.0444731 0.99901 
-0.00105326 -0.0351014 0.999383 
-0.000958806 -0.0270041 0.999635 
-0.00124247 -0.0198573 0.999802 
-0.00112912 -0.0134373 0.999909 
-0.00111784 -0.00789382 0.999968 
-0.000871617 3.12919e-05 1 
-0.00119476 0.00688873 0.999976 
-0.00123114 0.0127398 0.999918 
-0.00132088 0.0185136 0.999828 
-0.00117396 0.0262005 0.999656 
-0.0012401 0.0343415 0.999409 
-0.00103036 0.0438698 0.999037 
-0.000913219 0.0554152 0.998463 
-0.000778459 0.0688658 0.997626 
-0.000277844 0.0853288 0.996353 
-4.0945e-06 0.105296 0.994441 
0.000469112 0.129637 0.991561 
0.00133396 0.159613 0.987179 
0.00222578 0.196419 0.980517 
0.00353953 0.241781 0.970325 
0.00537858 0.297449 0.954723 
0.00765786 0.364773 0.931065 
0.0105844 0.443114 0.896403 
0.0139192 0.525634 0.850597 
0.0174308 0.610503 0.791822 
-0.0165051 -0.613318 0.789663 
-0.0197453 -0.502516 0.864343 
-0.0179382 -0.408891 0.912407 
-0.016543 -0.331186 0.94342 
-0.0153371 -0.268311 0.96321 
-0.0141661 -0.217499 0.975958 
-0.0130842 -0.176313 0.984247 
-0.0120065 -0.143051 0.989643 
-0.0110303 -0.116175 0.993168 
-0.0102456 -0.0940235 0.995517 
-0.0094793 -0.0761731 0.99705 
-0.00879022 -0.0614599 0.998071 
-0.00829784 -0.0491216 0.998758 
-0.00774948 -0.0387915 0.999217 
-0.00767372 -0.0302844 0.999512 
-0.00687875 -0.0225438 0.999722 
-0.00738011 -0.0160779 0.999844 
-0.00696701 -0.0101467 0.999924 
-0.00520854 -0.00455834 0.999976 
-0.00858952 -0.000404312 0.999963 
-0.00518452 0.00274155 0.999983 
-0.00689735 0.00921088 0.999934 
-0.00740667 0.0146355 0.999865 
-0.0069438 0.0218604 0.999737 
-0.00774691 0.0292836 0.999541 
-0.00801634 0.0381547 0.99924 
-0.00844779 0.0485523 0.998785 
-0.00880612 0.0610062 0.998099 
-0.0094323 0.0759499 0.997067 
-0.0100728 0.0940048 0.995521 
-0.0106497 0.116219 0.993167 
-0.011592 0.143281 0.989614 
-0.0124613 0.176536 0.984215 
-0.0133472 0.217471 0.975975 
-0.0144359 0.267848 0.963353 