# vtk DataFile Version 3.0 
Exported using Morpho https://github.com/Morpho-lang/morpho 
ASCII 
DATASET UNSTRUCTURED_GRID 

POINTS 1245 float 
-0.303845 -0.952721 0 
-0.250833 -0.96803 0 
-0.195084 -0.980787 0 
-0.146308 -0.989239 0 
-0.0940719 -0.995565 0 
-0.0475118 -0.998871 0 
-0.000246339 -1 0 
0.0470875 -0.998891 0 
0.0937543 -0.995595 0 
0.146139 -0.989264 0 
0.195062 -0.980791 0 
0.250843 -0.968028 0 
0.303953 -0.952687 0 
-0.409153 -0.912466 0 
-0.356519 -0.934288 0 
-0.308871 -0.898929 0 
-0.258282 -0.916037 0 
-0.207345 -0.934859 0 
-0.154868 -0.930629 0 
-0.104343 -0.948989 0 
-0.0520099 -0.939193 0 
-8.5762e-05 -0.954582 0 
0.0518744 -0.939288 0 
0.104354 -0.949042 0 
0.154696 -0.9306 0 
0.207366 -0.934975 0 
0.258274 -0.916081 0 
0.308979 -0.898924 0 
0.356593 -0.93426 0 
0.409236 -0.912429 0 
-0.513788 -0.857917 0 
-0.461695 -0.887039 0 
-0.411157 -0.857936 0 
-0.359855 -0.879963 0 
-0.306888 -0.847481 0 
-0.254732 -0.866979 0 
-0.201991 -0.889059 0 
-0.149956 -0.874108 0 
-0.100608 -0.900088 0 
-0.0497575 -0.880388 0 
2.4595e-05 -0.904789 0 
0.0496869 -0.8804 0 
0.100612 -0.900177 0 
0.149872 -0.874171 0 
0.202071 -0.889165 0 
0.254695 -0.867031 0 
0.306946 -0.847482 0 
0.359894 -0.879943 0 
0.411236 -0.857929 0 
0.461748 -0.887011 0 
0.513842 -0.857885 0 
-0.564741 -0.825268 0 
-0.512908 -0.802945 0 
-0.462372 -0.832348 0 
-0.410124 -0.804631 0 
-0.358606 -0.827415 0 
-0.305781 -0.795641 0 
-0.25358 -0.816639 0 
-0.200756 -0.839997 0 
-0.149043 -0.818944 0 
-0.0987265 -0.846667 0 
-0.0490473 -0.822548 0 
5.00659e-05 -0.849932 0 
0.0490834 -0.822542 0 
0.0987838 -0.846676 0 
0.148997 -0.818924 0 
0.200826 -0.840131 0 
0.253508 -0.816728 0 
0.305831 -0.795701 0 
0.358581 -0.827419 0 
0.410181 -0.804654 0 
0.462414 -0.83234 0 
0.512965 -0.802929 0 
0.564777 -0.825243 0 
-0.660798 -0.750564 0 
-0.614015 -0.789295 0 
-0.561786 -0.769772 0 
-0.510673 -0.747856 0 
-0.460836 -0.778365 0 
-0.408794 -0.751554 0 
-0.357337 -0.774971 0 
-0.304815 -0.743684 0 
-0.252907 -0.765535 0 
-0.200631 -0.789263 0 
-0.149244 -0.764328 0 
-0.0986912 -0.791935 0 
-0.0492815 -0.765764 0 
4.16586e-05 -0.79382 0 
0.0492411 -0.765708 0 
0.0987508 -0.791951 0 
0.149196 -0.764326 0 
0.200666 -0.789356 0 
0.252841 -0.765599 0 
0.304862 -0.743741 0 
0.357323 -0.775038 0 
0.408863 -0.751626 0 
0.460863 -0.778382 0 
0.510716 -0.747859 0 
0.561819 -0.769761 0 
0.614041 -0.789274 0 
0.660811 -0.750552 0 
-0.707107 -0.707107 0 
-0.654819 -0.699058 0 
-0.60813 -0.73348 0 
-0.558104 -0.71337 0 
-0.509495 -0.692659 0 
-0.45935 -0.724356 0 
-0.407328 -0.698865 0 
-0.355968 -0.722823 0 
-0.303722 -0.691387 0 
-0.252254 -0.71362 0 
-0.20067 -0.737336 0 
-0.149608 -0.710068 0 
-0.0991558 -0.737129 0 
-0.0495872 -0.709825 0 
-2.23646e-05 -0.737917 0 
0.0494408 -0.709766 0 
0.0991291 -0.737116 0 
0.149502 -0.710042 0 
0.200696 -0.73743 0 
0.252186 -0.713735 0 
0.303753 -0.691518 0 
0.355952 -0.722893 0 
0.407371 -0.698945 0 
0.459374 -0.724407 0 
0.509524 -0.692668 0 
0.558131 -0.713361 0 
0.608151 -0.733462 0 
0.654824 -0.699048 0 
0.707107 -0.707107 0 
-0.750564 -0.660798 0 
-0.699058 -0.654819 0 
-0.647692 -0.647692 0 
-0.603437 -0.675718 0 
-0.55905 -0.655305 0 
-0.508501 -0.639581 0 
-0.457509 -0.671321 0 
-0.405555 -0.646545 0 
-0.354417 -0.670703 0 
-0.302427 -0.639219 0 
-0.251503 -0.661417 0 
-0.20061 -0.684911 0 
-0.149717 -0.655943 0 
-0.0995004 -0.682466 0 
-0.0498216 -0.654561 0 
-5.02113e-05 -0.682664 0 
0.0496787 -0.654499 0 
0.0994374 -0.682501 0 
0.149603 -0.655909 0 
0.200573 -0.684972 0 
0.251388 -0.661524 0 
0.302407 -0.639359 0 
0.354397 -0.670836 0 
0.405575 -0.646641 0 
0.457525 -0.67138 0 
0.508497 -0.639623 0 
0.559063 -0.655324 0 
0.603436 -0.675715 0 
0.64769 -0.64769 0 
0.699048 -0.654824 0 
0.750552 -0.660811 0 
-0.789295 -0.614015 0 
-0.73348 -0.60813 0 
-0.675718 -0.603437 0 
-0.613088 -0.613088 0 
-0.55962 -0.604068 0 
-0.506189 -0.588854 0 
-0.455505 -0.618874 0 
-0.403019 -0.594688 0 
-0.352514 -0.618952 0 
-0.300977 -0.586897 0 
-0.250543 -0.608767 0 
-0.200257 -0.632053 0 
-0.150049 -0.601979 0 
-0.0998281 -0.628222 0 
-0.0500377 -0.599914 0 
-3.12334e-05 -0.628076 0 
0.0498927 -0.599835 0 
0.0997818 -0.628253 0 
0.149924 -0.601867 0 
0.200214 -0.632118 0 
0.250423 -0.608915 0 
0.30086 -0.587085 0 
0.352457 -0.619096 0 
0.402948 -0.594743 0 
0.455483 -0.618952 0 
0.506147 -0.588901 0 
0.55964 -0.604067 0 
0.613069 -0.613069 0 
0.675715 -0.603436 0 
0.733462 -0.608151 0 
0.789274 -0.614041 0 
-0.825268 -0.564741 0 
-0.769772 -0.561786 0 
-0.71337 -0.558104 0 
-0.655305 -0.55905 0 
-0.604068 -0.55962 0 
-0.551031 -0.551031 0 
-0.497922 -0.537596 0 
-0.451508 -0.567021 0 
-0.399773 -0.542431 0 
-0.350494 -0.567003 0 
-0.301574 -0.534146 0 
-0.250874 -0.555692 0 
-0.200542 -0.579013 0 
-0.150324 -0.548268 0 
-0.100169 -0.57443 0 
-0.0500152 -0.545912 0 
-3.29278e-05 -0.574268 0 
0.0499208 -0.545788 0 
0.100058 -0.574485 0 
0.150038 -0.548073 0 
0.200377 -0.579041 0 
0.250556 -0.55585 0 
0.301273 -0.534348 0 
0.350318 -0.567174 0 
0.399615 -0.542384 0 
0.451404 -0.5671 0 
0.497945 -0.537702 0 
0.551073 -0.551073 0 
0.604067 -0.55964 0 
0.655324 -0.559063 0 
0.713361 -0.558131 0 
0.769761 -0.561819 0 
0.825243 -0.564777 0 
-0.857917 -0.513788 0 
-0.802945 -0.512908 0 
-0.747856 -0.510673 0 
-0.692659 -0.509495 0 
-0.639581 -0.508501 0 
-0.588854 -0.506189 0 
-0.537596 -0.497922 0 
-0.486157 -0.486157 0 
-0.444928 -0.512952 0 
-0.401787 -0.486784 0 
-0.351685 -0.513639 0 
-0.299695 -0.48291 0 
-0.250032 -0.503 0 
-0.200501 -0.526165 0 
-0.149489 -0.495195 0 
-0.0999281 -0.521367 0 
-0.0499712 -0.492294 0 
4.64723e-05 -0.520999 0 
0.050147 -0.492108 0 
0.099934 -0.52133 0 
0.14957 -0.494692 0 
0.200133 -0.526255 0 
0.249839 -0.503309 0 
0.299839 -0.483005 0 
0.351514 -0.513798 0 
0.401881 -0.486608 0 
0.444935 -0.513054 0 
0.486228 -0.486228 0 
0.537702 -0.497945 0 
0.588901 -0.506147 0 
0.639623 -0.508497 0 
0.692668 -0.509524 0 
0.747859 -0.510716 0 
0.802929 -0.512965 0 
0.857885 -0.513842 0 
-0.887039 -0.461695 0 
-0.832348 -0.462372 0 
-0.778365 -0.460836 0 
-0.724356 -0.45935 0 
-0.671321 -0.457509 0 
-0.618874 -0.455505 0 
-0.567021 -0.451508 0 
-0.512952 -0.444928 0 
-0.450685 -0.450685 0 
-0.397667 -0.437543 0 
-0.348492 -0.462546 0 
-0.295416 -0.432968 0 
-0.247004 -0.450633 0 
-0.198702 -0.473818 0 
-0.150161 -0.441625 0 
-0.100085 -0.468395 0 
-0.0502271 -0.439281 0 
0.000144229 -0.468374 0 
0.0504178 -0.439106 0 
0.100428 -0.468348 0 
0.150697 -0.441105 0 
0.199103 -0.473881 0 
0.247983 -0.450921 0 
0.296569 -0.432268 0 
0.348831 -0.462562 0 
0.397506 -0.4368 0 
0.450637 -0.450637 0 
0.513054 -0.444935 0 
0.5671 -0.451404 0 
0.618952 -0.455483 0 
0.67138 -0.457525 0 
0.724407 -0.459374 0 
0.778382 -0.460863 0 
0.83234 -0.462414 0 
0.887011 -0.461748 0 
-0.912466 -0.409153 0 
-0.857936 -0.411157 0 
-0.804631 -0.410124 0 
-0.751554 -0.408794 0 
-0.698865 -0.407328 0 
-0.646545 -0.405555 0 
-0.594688 -0.403019 0 
-0.542431 -0.399773 0 
-0.486784 -0.401787 0 
-0.437543 -0.397667 0 
-0.387256 -0.387256 0 
-0.344215 -0.411459 0 
-0.30136 -0.381507 0 
-0.25021 -0.395692 0 
-0.200211 -0.419975 0 
-0.150955 -0.389014 0 
-0.100617 -0.416095 0 
-0.0503197 -0.386922 0 
-4.02994e-05 -0.416525 0 
0.05006 -0.386948 0 
0.100784 -0.416323 0 
0.150432 -0.388572 0 
0.200855 -0.420694 0 
0.25086 -0.396905 0 
0.301746 -0.379789 0 
0.344135 -0.410678 0 
0.385823 -0.385823 0 
0.4368 -0.397506 0 
0.486608 -0.401881 0 
0.542384 -0.399615 0 
0.594743 -0.402948 0 
0.646641 -0.405575 0 
0.698945 -0.407371 0 
0.751626 -0.408863 0 
0.804654 -0.410181 0 
0.857929 -0.411236 0 
0.912429 -0.409236 0 
-0.934288 -0.356519 0 
-0.879963 -0.359855 0 
-0.827415 -0.358606 0 
-0.774971 -0.357337 0 
-0.722823 -0.355968 0 
-0.670703 -0.354417 0 
-0.618952 -0.352514 0 
-0.567003 -0.350494 0 
-0.513639 -0.351685 0 
-0.462546 -0.348492 0 
-0.411459 -0.344215 0 
-0.351697 -0.351697 0 
-0.29839 -0.336232 0 
-0.249846 -0.342529 0 
-0.200971 -0.367271 0 
-0.149995 -0.337521 0 
-0.100435 -0.3646 0 
-0.0498692 -0.335025 0 
-6.88684e-05 -0.365025 0 
0.0495433 -0.334795 0 
0.0996798 -0.364834 0 
0.148162 -0.337172 0 
0.199644 -0.368939 0 
0.24763 -0.345582 0 
0.295348 -0.332889 0 
0.34978 -0.34978 0 
0.410678 -0.344135 0 
0.462562 -0.348831 0 
0.513798 -0.351514 0 
0.567174 -0.350318 0 
0.619096 -0.352457 0 
0.670836 -0.354397 0 
0.722893 -0.355952 0 
0.775038 -0.357323 0 
0.827419 -0.358581 0 
0.879943 -0.359894 0 
0.93426 -0.356593 0 
-0.952721 -0.303845 0 
-0.898929 -0.308871 0 
-0.847481 -0.306888 0 
-0.795641 -0.305781 0 
-0.743684 -0.304815 0 
-0.691387 -0.303722 0 
-0.639219 -0.302427 0 
-0.586897 -0.300977 0 
-0.534146 -0.301574 0 
-0.48291 -0.299695 0 
-0.432968 -0.295416 0 
-0.381507 -0.30136 0 
-0.336232 -0.29839 0 
-0.288184 -0.288184 0 
-0.242975 -0.290577 0 
-0.198059 -0.315051 0 
-0.148383 -0.285894 0 
-0.0994753 -0.313232 0 
-0.0507184 -0.283118 0 
-0.000202902 -0.313447 0 
0.0500077 -0.282824 0 
0.0988289 -0.312817 0 
0.148102 -0.28482 0 
0.195742 -0.317413 0 
0.240766 -0.295824 0 
0.285014 -0.285014 0 
0.332889 -0.295348 0 
0.379789 -0.301746 0 
0.432268 -0.296569 0 
0.483005 -0.299839 0 
0.534348 -0.301273 0 
0.587085 -0.30086 0 
0.639359 -0.302407 0 
0.691518 -0.303753 0 
0.743741 -0.304862 0 
0.795701 -0.305831 0 
0.847482 -0.306946 0 
0.898924 -0.308979 0 
0.952687 -0.303953 0 
-0.96803 -0.250833 0 
-0.916037 -0.258282 0 
-0.866979 -0.254732 0 
-0.816639 -0.25358 0 
-0.765535 -0.252907 0 
-0.71362 -0.252254 0 
-0.661417 -0.251503 0 
-0.608767 -0.250543 0 
-0.555692 -0.250874 0 
-0.503 -0.250032 0 
-0.450633 -0.247004 0 
-0.395692 -0.25021 0 
-0.342529 -0.249846 0 
-0.290577 -0.242975 0 
-0.239946 -0.239946 0 
-0.194478 -0.26004 0 
-0.151293 -0.23238 0 
-0.101048 -0.260904 0 
-0.0503938 -0.232537 0 
-0.000203281 -0.262984 0 
0.050638 -0.232316 0 
0.100942 -0.260855 0 
0.152412 -0.232597 0 
0.195768 -0.261421 0 
0.241873 -0.241873 0 
0.295824 -0.240766 0 
0.345582 -0.24763 0 
0.396905 -0.25086 0 
0.450921 -0.247983 0 
[...]
POINT_DATA 1245 
VECTORS vectors float
0.160472 0.0920954 0.982735 
0.241778 -0.192774 0.95099 
-0.0306559 -0.155843 0.987306 
-0.0542796 -0.160438 0.985552 
-0.244313 -0.137888 0.959843 
-0.391692 0.0376533 0.919326 
-0.268196 0.175311 0.947279 
0.110378 0.181236 0.977226 
0.233309 0.146328 0.96133 
0.011718 0.176627 0.984208 
0.276162 0.365336 0.888968 
0.375593 -0.307753 0.874195 
-0.106846 0.210405 0.971758 
-0.0311678 0.29997 0.953439 
0.200793 0.225158 0.953408 
-0.00181682 0.0168624 0.999856 
0.00236862 -0.130062 0.991503 
-0.0591626 -0.1551 0.986126 
-0.102531 -0.128292 0.986422 
-0.193789 -0.0582583 0.979312 
-0.290693 0.0509524 0.955459 
-0.267567 0.0259554 0.96319 
-0.0728656 0.0696692 0.994905 
0.0290518 0.152675 0.987849 
0.0151811 0.147413 0.988959 
0.147839 0.039011 0.988242 
0.0650291 -0.0496718 0.996646 
-0.013749 0.19066 0.98156 
0.233919 0.330451 0.914376 
0.218797 -0.18166 0.958711 
0.0683191 -0.0566596 0.996053 
-0.0775458 0.00331473 0.996983 
-0.036189 0.0594016 0.997578 
0.0109699 0.0987678 0.99505 
0.03958 -0.157046 0.986798 
-0.0346957 -0.213219 0.976388 
-0.0863388 -0.171229 0.981441 
-0.0637897 -0.10534 0.992388 
-0.110845 -0.00460901 0.993827 
-0.0812199 0.0370745 0.996006 
-0.144376 0.0232619 0.989249 
-0.0224636 -0.00606858 0.999729 
-0.0398557 0.122662 0.991648 
-0.0868998 0.0908611 0.992065 
-0.0253056 -0.0512454 0.998365 
-0.0542895 0.00222884 0.998523 
-0.0392654 0.141994 0.989088 
0.0792691 0.147127 0.985936 
0.104643 -0.0414466 0.993646 
0.169581 -0.126356 0.977382 
0.10952 -0.0881983 0.990064 
0.287407 -0.00683294 0.957784 
0.108414 0.0558431 0.992536 
-0.00718385 -0.0185195 0.999803 
0.0496543 -0.0973992 0.994006 
0.0612886 -0.100072 0.993091 
0.10654 -0.228299 0.967744 
0.0477141 -0.194357 0.97977 
-0.0459752 -0.159015 0.986205 
0.062762 -0.106164 0.992366 
0.0653446 -0.0364889 0.997195 
0.164337 -0.102742 0.981039 
0.0923732 -0.0922531 0.991442 
0.0564586 -0.0544062 0.996921 
-0.0440483 0.0892947 0.995031 
-0.109022 0.0521705 0.992669 
-0.0728358 -0.0564104 0.995747 
-0.0284705 -0.0434726 0.998649 
0.0123381 0.0236178 0.999645 
0.0391891 0.11261 0.992866 
-0.00166812 0.0893048 0.996003 
0.0529786 -0.0409842 0.997754 
0.0348368 -0.0545689 0.997902 
0.223717 0.112669 0.96812 
-0.0155536 0.0997686 0.994889 
0.0598645 0.215463 0.974675 
0.0205142 0.147918 0.988787 
-0.00794665 0.0751681 0.997139 
0.0274886 -0.0566634 0.998015 
-0.0145058 -0.131687 0.991185 
0.104591 -0.186601 0.976852 
0.0798145 -0.107843 0.990959 
0.0518595 -0.0991916 0.993716 
0.0441913 -0.0667546 0.99679 
0.094306 -0.0943665 0.991061 
0.129768 -0.147715 0.98048 
0.131452 -0.201028 0.970725 
0.139644 -0.180767 0.973562 
0.0201101 -0.0898572 0.995752 
-0.0660603 0.0834886 0.994317 
-0.108442 0.0471401 0.992984 
-0.0747332 -0.0528735 0.995801 
-0.0270693 -0.0960547 0.995008 
0.03549 -0.110659 0.993225 
0.00611029 0.0383683 0.999245 
-0.05938 0.121258 0.990843 
-0.0274114 0.0854387 0.995966 
0.0186142 -0.0641954 0.997764 
0.087366 -0.0552222 0.994645 
0.189525 -0.0384854 0.981121 
-0.0807151 0.267384 0.960203 
-0.0971155 -0.0305773 0.994803 
-0.0911443 0.0896154 0.991797 
-0.0187642 0.190971 0.981416 
-0.0289217 0.143781 0.989187 
0.0669274 0.0438459 0.996794 
-0.020853 -0.0781019 0.996727 
-0.0773412 -0.108129 0.991124 
0.0342468 -0.150606 0.988001 
0.0230311 0.10779 0.993907 
-0.0269134 0.0627993 0.997663 
0.0228881 0.0306751 0.999267 
0.037765 -0.0969426 0.994573 
0.0779365 -0.209658 0.974664 
0.101769 -0.218775 0.970454 
0.076433 -0.19438 0.977944 
0.00730926 -0.089314 0.995977 
-0.0330032 0.0743891 0.996683 
-0.0840495 0.0401332 0.995653 
-0.130276 -0.0493753 0.990248 
-0.0416422 -0.15488 0.987055 
0.00347098 -0.148762 0.988867 
-0.00762692 -0.0555878 0.998425 
-0.0600734 0.0500425 0.996939 
-0.0267612 0.064306 0.997571 
-0.00662028 -0.0557767 0.998421 
-0.0709545 -0.0827969 0.994037 
-0.0262709 0.0364754 0.998989 
0.0509262 0.181117 0.982142 
0.280851 0.349927 0.893686 
-0.121584 -0.200433 0.972134 
-0.118792 -0.0220561 0.992674 
-0.13202 0.103319 0.985848 
-0.0695563 0.144611 0.987041 
0.012092 0.0752749 0.99709 
0.130821 -0.0106248 0.991349 
0.046952 -0.0489389 0.997698 
-0.123269 -0.0703559 0.989876 
-0.132424 -0.0610047 0.989314 
0.0182539 0.212668 0.976954 
-0.0593126 0.217573 0.97424 
-0.0857148 0.0904729 0.992203 
-0.0804241 -0.11267 0.990372 
0.10346 -0.236285 0.96616 
0.151836 -0.123326 0.980682 
0.0982662 -0.129098 0.986751 
0.0280964 -0.0381857 0.998876 
-0.0549225 0.00305411 0.998486 
-0.0439383 0.0154695 0.998914 
-0.0742447 -0.0325309 0.996709 
-0.0392606 -0.142534 0.989011 
-0.0944044 -0.133393 0.986557 
-0.0437201 -0.136458 0.989681 
0.0613639 -0.0576317 0.99645 
0.0774318 -0.0395527 0.996213 
0.0350575 -0.0205289 0.999174 
-0.0343919 -0.0263794 0.99906 
-0.106032 -0.0252395 0.994042 
-0.128306 0.0842036 0.988153 
-0.0500311 0.126979 0.990643 
-0.0186521 0.105363 0.994259 
0.115373 -0.199858 0.973009 
-0.0286064 -0.0776021 0.996574 
-0.121633 0.0874283 0.988717 
-0.0797933 0.0990662 0.991876 
0.0295301 0.00299159 0.999559 
0.145397 -0.0395903 0.988581 
0.0571006 -0.0602074 0.996551 
-0.0668047 -0.0382332 0.997033 
-0.0464223 -0.0582226 0.997224 
0.0925796 0.181448 0.979033 
0.00275018 0.251617 0.967823 
-0.130243 0.12523 0.983542 
-0.128063 -0.0697422 0.989311 
-0.0374948 -0.164617 0.985645 
0.100031 -0.00293262 0.99498 
0.118382 -0.00115476 0.992967 
0.0566007 0.0449416 0.997385 
-0.0406493 -0.0133815 0.999084 
-0.00346679 0.00695301 0.99997 
0.0610779 -0.00559042 0.998117 
-0.0231471 -0.019492 0.999542 
-0.0830897 -0.0150578 0.996428 
-0.0482657 -0.0929028 0.994505 
-0.0260792 -0.0659112 0.997485 
0.0169412 -0.03588 0.999213 
0.0578478 -0.0586073 0.996604 
0.0590388 -0.0136602 0.998162 
-0.0325853 -0.0134954 0.999378 
-0.10813 -0.0115005 0.99407 
-0.00996579 0.04763 0.998815 
0.142364 0.0468927 0.988703 
0.129498 -0.103604 0.986152 
0.0733684 -0.0696677 0.994869 
-0.0035492 -0.0453159 0.998966 
-0.0857225 0.0832762 0.992833 
-0.049953 0.0600153 0.996947 
0.051062 -0.023175 0.998427 
0.129402 0.0270114 0.991224 
0.0787627 -0.00940129 0.996849 
-0.00357995 -0.0365895 0.999324 
0.0270655 -0.0152626 0.999517 
0.0660009 0.110133 0.991723 
0.0529527 0.169122 0.984172 
-0.0846641 0.0749166 0.993589 
-0.0254929 -0.116309 0.992886 
-0.0259102 -0.0432 0.99873 
0.0680235 -0.0390886 0.996918 
0.112718 0.0298247 0.993179 
0.102589 0.0245081 0.994422 
-0.0105293 0.0424353 0.999044 
-0.00850302 0.0492131 0.998752 
0.0427905 0.0668772 0.996843 
-0.0417384 0.0972512 0.994384 
-0.0971897 0.0340409 0.994684 
-0.084122 -0.0282984 0.996054 
-0.127874 -0.0709194 0.989252 
-0.089215 -0.106069 0.990348 
-0.141689 -0.156637 0.97744 
0.0158927 -0.0341102 0.999292 
0.0517964 -0.0460921 0.997593 
0.0221822 0.0834886 0.996262 
0.062599 0.0875951 0.994187 
0.0811457 0.0533793 0.995272 
-0.0549436 -0.110782 0.992325 
0.269319 -0.069178 0.960563 
0.116784 -0.0568266 0.99153 
0.0460815 -0.0869364 0.995148 
-0.0669639 -0.0411156 0.996908 
-0.0972786 0.0452287 0.994229 
-0.0535029 0.058372 0.99686 
-0.0134538 0.085776 0.996224 
0.020978 0.126933 0.991689 
0.0777673 0.0791399 0.993826 
-0.0367654 -0.021146 0.9991 
-0.0314656 0.000211587 0.999505 
-0.00249756 0.0638582 0.997956 
0.0738454 0.044128 0.996293 
0.0375221 -0.0861944 0.995572 
0.0622093 -0.157702 0.985525 
0.0298124 -0.095835 0.994951 
0.0937417 -0.128368 0.987286 
0.107589 -0.0757373 0.991306 
0.1464 -0.0926767 0.984875 
0.0507201 -0.00678416 0.99869 
-0.0344459 0.0662716 0.997207 
-0.0363782 0.151198 0.987834 
-0.0924012 0.1214 0.988293 
-0.115403 -0.0416171 0.992447 
-0.135736 -0.0322549 0.99022 
-0.242176 -0.128328 0.961708 
-0.234088 -0.138903 0.962242 
-0.222209 -0.165166 0.960908 
-0.178803 -0.10261 0.97852 
-0.16096 -0.0394483 0.986172 
-0.104099 0.0405009 0.993742 
0.000152781 0.119284 0.99286 
0.0479972 0.159279 0.986066 
-0.0451806 0.138656 0.989309 
-0.280715 0.162148 0.945995 
0.157738 0.0795918 0.984268 
0.132157 0.0156033 0.991106 
0.107336 -0.011971 0.994151 
-0.018833 -0.0599748 0.998022 
-0.124244 0.0126115 0.992172 
-0.11663 0.10387 0.987729 
-0.108896 0.16189 0.980782 
-0.0563027 0.21357 0.975304 
-0.0684281 0.11111 0.99145 
-0.124699 -0.0595168 0.990408 
-0.116322 -0.0331912 0.992657 
-0.0404019 0.00371938 0.999177 
0.0941021 -0.0274634 0.995184 
0.102757 -0.139227 0.984915 
0.0945889 -0.11286 0.989098 
0.0628406 -0.0774906 0.995011 
0.126451 -0.12033 0.984648 
0.15949 -0.162999 0.97365 
0.116755 -0.155009 0.98099 
0.0515836 -0.0702235 0.996197 
-0.0977245 0.053027 0.9938 
-0.0809861 0.16654 0.982703 
-0.157121 0.0346317 0.986972 
-0.15801 -0.0862032 0.983668 
-0.19157 -0.0537266 0.980007 
-0.210143 -0.110188 0.971442 
-0.209698 -0.128842 0.96924 
-0.148313 -0.0369217 0.988251 
-0.205389 -0.0165826 0.97854 
-0.264346 -0.0187274 0.964246 
-0.15805 0.0406269 0.986595 
-0.0628957 0.120709 0.990693 
-0.0277798 0.216676 0.975848 
-0.0989326 0.231386 0.967819 
-0.0971402 0.400943 0.910938 
-0.163479 0.128391 0.978157 
-0.0825794 -0.00508437 0.996572 
0.0733869 0.0778494 0.99426 
0.0875599 0.0505707 0.994875 
0.0054923 0.0886569 0.996047 
-0.0353284 0.156427 0.987058 
-0.0291882 0.20979 0.977311 
-0.020613 0.234893 0.971803 
-0.0689753 0.202298 0.976892 
-0.120988 0.0605527 0.990805 
-0.166527 -0.110235 0.979856 
-0.156339 -0.09437 0.983185 
-0.102397 -0.0644422 0.992654 
0.0266668 -0.0552204 0.998118 
0.103211 -0.0898856 0.99059 
0.0633751 -0.066993 0.995739 
0.0555726 -0.0352633 0.997832 
0.0679622 -0.0541019 0.99622 
0.161375 -0.144064 0.976321 
0.0345351 -0.113115 0.992982 
-0.0422848 -0.100778 0.99401 
-0.132775 0.0254063 0.99082 
-0.116543 0.160326 0.98016 
-0.157126 -0.000271897 0.987578 
-0.114491 -0.0413351 0.992564 
-0.104796 -0.0132924 0.994405 
0.013465 -0.061016 0.998046 
-0.0948449 -0.027397 0.995115 
-0.114608 0.0734903 0.990689 
-0.148994 0.129288 0.98035 
-0.210641 0.0615347 0.975625 
-0.187882 -0.025559 0.981859 
-0.179328 0.0725506 0.981111 
-0.156489 0.158582 0.974866 
-0.1338 0.220208 0.966233 
-0.0632484 0.237825 0.969247 
-0.0122254 0.32978 0.943979 
-0.0316799 -0.0973399 0.994747 
-0.0926619 0.024738 0.99539 
-0.093554 0.0773896 0.992602 
0.0940957 0.00395139 0.995555 
0.126895 0.0689242 0.989519 
0.103578 0.175709 0.978978 
0.0845686 0.199438 0.976254 
0.0874134 0.183564 0.979113 
0.0583927 0.177697 0.982351 
0.000740756 0.136353 0.99066 
-0.101786 0.0303093 0.994345 
-0.17832 -0.102201 0.978651 
-0.0960649 -0.0667503 0.993134 
0.0560283 -0.0401829 0.99762 
0.134627 -0.0570863 0.989251 
0.0453027 -0.0686691 0.99661 
-0.00303714 -0.0517356 0.998656 
-0.0265452 -0.0644104 0.99757 
0.0459874 -0.0346757 0.99834 
0.0172505 -0.075063 0.99703 
-0.0337163 -0.105477 0.99385 
-0.0102686 -0.0457729 0.998899 
-0.132007 0.0786433 0.988124 
-0.131462 0.0299299 0.990869 
-0.036219 0.0315228 0.998847 
0.0618869 -0.0483089 0.996913 
-0.00403374 -0.00950761 0.999947 
-0.137167 0.0977406 0.985714 
-0.18769 0.187843 0.964099 
-0.171471 0.156555 0.972671 
-0.204074 0.0766953 0.975946 
-0.185423 0.0678988 0.98031 
-0.18008 0.146718 0.972648 
-0.167386 0.136048 0.976459 
-0.132201 0.16351 0.977644 
-0.021439 0.174138 0.984488 
0.073701 0.321812 0.943931 
0.0760449 -0.0966021 0.992414 
-0.0268422 0.0441961 0.998662 
-0.0536363 0.0793931 0.995399 
0.0604917 -0.0209693 0.997948 
0.123905 -0.0674688 0.989998 
0.0580404 0.0419019 0.997434 
0.0171362 0.123964 0.992139 
0.0547334 0.105959 0.992863 
0.0869398 0.013278 0.996125 
0.0350272 0.0104494 0.999332 
-0.0499498 0.020613 0.998539 
-0.12873 -0.00766808 0.99165 
-0.11669 -0.0471899 0.992047 
0.046818 0.0300787 0.99845 
0.137388 0.0620399 0.988572 
0.123729 0.00577903 0.992299 
-0.0896405 0.00774527 0.995944 
-0.0857097 -0.0862175 0.992583 
-0.1206 -0.0645908 0.990598 
-0.0566691 0.0126247 0.998313 
-0.0220199 -0.0756207 0.996893 
0.0340133 -0.0998304 0.994423 
-0.0182808 -0.0213608 0.999605 
-0.0740027 0.0413384 0.996401 
-0.100222 -0.00342678 0.994959 
-0.12595 0.0726525 0.989373 
-0.0301567 -0.0173784 0.999394 
0.0140718 0.00204784 0.999899 
-0.189731 0.0453404 0.980789 
-0.235033 0.102759 0.96654 
-0.176694 0.121589 0.976727 
-0.182003 0.0762415 0.980338 
-0.180331 0.0315017 0.983101 
-0.0810564 0.0175434 0.996555 
0.0302765 -0.0336534 0.998975 
-0.0328683 0.0273336 0.999086 
-0.0369805 0.0394758 0.998536 
0.109721 0.100054 0.988914 
0.26123 0.197415 0.944874 
0.157274 -0.0845913 0.983925 
0.0257056 0.0618144 0.997757 
-0.0515377 0.102244 0.993423 
-0.0409673 0.0145189 0.999055 
-0.00260846 -0.106193 0.994342 
-0.0745005 -0.10512 0.991665 
-0.125478 -0.0222209 0.991847 
-0.0322031 0.00885882 0.999442 
0.0698475 -0.0392963 0.996783 
0.0701388 -0.0856253 0.993856 
-0.0107898 -0.0556258 0.998393 
0.0148347 -0.0569616 0.998266 
0.03878 -0.0301162 0.998794 
0.154165 0.0425614 0.987128 
0.123534 0.126795 0.984207 
0.0523176 0.126966 0.990526 
-0.132319 0.133847 0.982129 
-0.197196 -0.0512431 0.979024 
-0.159645 -0.0832 0.983662 
-0.073778 -0.00549509 0.99726 
-0.0670746 -0.0817172 0.994396 
0.0159915 -0.0827617 0.996441 
0.0144247 -0.102661 0.994612 
-0.0141378 -0.0718322 0.997317 
-0.0292335 -0.070876 0.997057 
-0.113455 0.0573915 0.991884 
-0.139162 0.0659838 0.988069 
-0.181509 0.0361167 0.982726 
-0.190199 0.0218818 0.981502 
-0.126709 -0.0124627 0.991862 
-0.0759012 -0.00186247 0.997114 
-0.113297 -0.0326084 0.993026 
-0.0500632 -0.0758405 0.995862 
0.0476539 -0.103566 0.99348 
0.0312848 -0.0850505 0.995885 
-0.0444554 -0.0808971 0.995731 
0.0543219 -0.0381599 0.997794 
0.0719662 0.0865916 0.993641 
0.0539577 0.146959 0.98767 
0.105559 -0.119776 0.987173 
0.0474123 0.0200727 0.998674 
-0.0521787 0.0647833 0.996534 
-0.0866411 0.0173116 0.996089 
-0.115347 -0.112021 0.986988 
-0.145677 -0.171822 0.974297 
-0.175198 -0.152495 0.972652 
-0.0934471 -0.0451113 0.994602 
0.0719525 0.00122181 0.997407 
0.103129 -0.0526891 0.993271 
0.02985 -0.0468798 0.998454 
0.0974509 -0.134045 0.986172 
0.162948 -0.140306 0.976607 
0.181132 -0.0449889 0.982429 
0.0971321 0.00989527 0.995222 
-0.0239924 0.10062 0.994636 
-0.148285 0.0310487 0.988457 
-0.167712 -0.0397395 0.985035 
-0.181727 -0.188469 0.965119 
-0.159704 -0.112248 0.980763 
-0.114449 -0.175071 0.977881 
-0.0138761 -0.0610407 0.998039 
0.0444639 -0.125817 0.991056 
0.0517314 -0.154198 0.986685 
0.00915362 -0.0535523 0.998523 
-0.104742 0.106879 0.98874 
-0.15532 0.0998781 0.982802 
-0.135392 0.0223445 0.99054 
-0.103474 -0.0221177 0.994386 
-0.0694714 -0.00668661 0.997562 
-0.058869 0.00247547 0.998263 
-0.0501861 -0.0339925 0.998161 
0.0344682 -0.0423804 0.998507 
0.074518 0.0275445 0.996839 
-0.014769 -0.0826515 0.996469 
-0.0456741 -0.110107 0.99287 
-0.114904 0.0943656 0.988884 
-0.077518 0.149837 0.985667 
-0.035856 0.173738 0.984139 
0.136165 -0.274263 0.951966 
0.114714 -0.0778754 0.990341 
0.007669 -0.0302485 0.999513 
-0.0422405 -0.0467571 0.998013 
-0.12565 -0.0974857 0.987273 
-0.175558 -0.100437 0.979332 
-0.137665 -0.0572918 0.98882 
-0.0260008 -0.0337221 0.999093 
0.0959619 0.0128154 0.995303 
0.0831502 -0.0310404 0.996053 
0.107045 -0.14531 0.983578 
0.150031 -0.201674 0.967894 
0.173954 -0.156195 0.972288 
0.101815 -0.110144 0.988687 
-0.0639829 -0.10493 0.992419 
-0.128526 -0.108101 0.985797 
-0.155097 -0.203817 0.966645 
-0.155995 -0.176926 0.971783 
-0.148576 -0.281239 0.948066 
-0.18358 -0.23952 0.953377 
-0.122464 -0.251894 0.959975 
-0.034488 -0.0816291 0.996066 
-0.00434202 -0.120544 0.992698 
0.0136466 -0.181895 0.983223 
-0.000715382 -0.142706 0.989765 
-0.027513 0.00304986 0.999617 
-0.0231033 0.0960007 0.995113 
-0.0089886 0.0312724 0.99947 
-0.0396983 0.00397222 0.999204 
-0.0457574 0.013094 0.998867 
-0.0792847 0.0586186 0.995127 
-0.148049 0.0613763 0.987074 
-0.0819722 0.0256438 0.996305 
0.0553196 0.161708 0.985287 
0.195567 0.182752 0.963512 
0.153943 -0.080954 0.984758 
0.014152 0.0808491 0.996626 
-0.0780024 0.182182 0.980166 
-0.0734625 0.204848 0.976033 
0.336166 -0.126045 0.93333 
0.231668 -0.100489 0.967591 
0.136835 -0.0949962 0.986028 
0.0200682 -0.0410401 0.998956 
-0.108241 0.0167976 0.993983 
-0.201867 0.0659319 0.977191 
-0.180765 0.062771 0.981521 
-0.184972 0.0489945 0.981522 
-0.140019 0.0529007 0.988735 
-0.096645 -0.00790938 0.995287 
-0.0739499 -0.0706052 0.994759 
-0.0515194 -0.157382 0.986193 
-0.0234347 -0.16859 0.985408 
0.0168578 -0.157371 0.987396 
0.0161798 -0.215653 0.976336 
-0.0591971 -0.268128 0.961563 
-0.0905927 -0.256966 0.962165 
-0.159931 -0.246718 0.955799 
-0.136015 -0.309338 0.941175 
-0.156387 -0.293053 0.943219 
-0.0608391 -0.274996 0.959519 
-0.0238267 -0.228948 0.973147 
-0.0436533 -0.249364 0.967425 
-0.0726603 -0.209743 0.975053 
-0.0873284 -0.0686479 0.993811 
-0.0527696 0.0594487 0.996836 
-0.0213795 0.101464 0.99461 
0.000275956 0.0737692 0.997275 
0.0205117 0.0480924 0.998632 
-0.0074722 0.0334946 0.999411 
-0.0706129 0.0433799 0.99656 
-0.105418 0.0404416 0.993605 
0.00392998 0.0639419 0.997946 
0.170262 0.16781 0.971005 
0.205671 0.02239 0.978365 
0.0921987 0.0193312 0.995553 
0.0181317 0.143784 0.989443 
0.000921941 0.185737 0.982599 
0.0549545 0.221827 0.973536 
0.380619 0.010525 0.924672 
0.245372 -0.0623895 0.967419 
0.112651 -0.093658 0.989211 
-0.011379 -0.0498821 0.99869 
-0.1187 0.108552 0.986979 
-0.124516 0.17981 0.975789 
-0.132992 0.14923 0.979818 
-0.125939 0.162656 0.978613 
-0.169499 0.152744 0.973622 
-0.211845 0.0787754 0.974123 
-0.204534 -0.0117271 0.978789 
-0.176592 -0.0494277 0.983042 
-0.139589 -0.0396572 0.989415 
-0.111534 -0.106757 0.98801 
-0.048668 -0.231026 0.97173 
-0.0145692 -0.214933 0.97652 
-0.124961 -0.110021 0.986043 
-0.149259 -0.17768 0.972703 
-0.0695513 -0.180467 0.981119 
-0.0844607 -0.286298 0.954411 
-0.028443 -0.1754 0.984086 
0.00533187 -0.275277 0.96135 
-0.0305644 -0.280138 0.959473 
-0.105848 -0.249569 0.962555 
-0.131708 -0.117167 0.98434 
-0.0868159 0.0090004 0.996184 
-0.0460434 0.129968 0.990448 
-0.0339189 0.154148 0.987465 
-0.000558722 0.120971 0.992656 
0.131029 0.102246 0.986092 
0.138169 0.0187306 0.990231 
0.086337 0.0525148 0.994881 
0.0490711 0.0621934 0.996857 
0.075997 0.0637403 0.995069 
0.0840972 -0.021637 0.996223 
0.0165918 -0.0207493 0.999647 
-0.0433538 0.0696228 0.996631 
0.00364196 0.0345491 0.999396 
0.0899027 0.0117334 0.995881 
0.139221 0.236586 0.961584 
0.150873 0.0147414 0.988443 
0.123536 -0.0890737 0.988334 
0.0491127 -0.105242 0.993233 
0.0139812 0.0170234 0.999757 
0.0531373 0.164251 0.984986 
0.0989905 0.187234 0.977315 
0.0690002 0.21244 0.974735 
-0.0580944 0.209712 0.976036 
-0.163185 0.213777 0.963156 
-0.244377 0.163248 0.95584 
-0.218596 0.05808 0.974086 
-0.180989 0.0405621 0.982648 
-0.16231 0.0573099 0.985074 
-0.118836 -0.0265767 0.992558 
-0.100688 -0.143253 0.984551 
-0.0967026 0.017911 0.995152 
-0.153464 0.0382447 0.987414 
-0.167007 -0.0799486 0.982709 
-0.0724798 -0.0758747 0.99448 
0.0251589 -0.115972 0.992934 
-0.00759351 -0.117069 0.993095 
-0.104214 -0.135038 0.985345 
-0.188278 -0.128743 0.973641 
-0.0932686 -0.0619804 0.99371 
0.00424992 0.0259378 0.999655 
0.0564927 0.098193 0.993563 
0.0404565 0.112751 0.992799 
0.0953687 0.0219018 0.995201 
0.234724 -0.00438461 0.972052 
0.233334 0.0484613 0.971188 
0.0882713 0.0337152 0.995526 
0.0681444 0.00204665 0.997673 
0.0552211 -0.0676204 0.996182 
-0.00728881 -0.115384 0.993294 
-0.0523651 -0.0248842 0.998318 
-0.0351643 0.0228223 0.999121 
0.0253558 -0.141114 0.989669 
0.109252 -0.178234 0.977904 
-0.368255 0.0618132 0.927668 
-0.0183767 -0.10405 0.994402 
0.0361995 -0.120346 0.992072 
0.0513055 -0.0850525 0.995055 
0.154597 0.0324367 0.987445 
0.225374 0.107695 0.968302 
0.200711 0.127523 0.971315 
0.0828455 0.140995 0.986538 
-0.0622293 0.164762 0.984368 
-0.192789 0.170497 0.966314 
-0.195627 0.0907513 0.97647 
-0.122142 0.0437336 0.991549 
-0.105207 0.0894101 0.990423 
-0.120619 0.0490239 0.991488 
-0.0865488 -0.0663203 0.994038 
-0.0949941 -0.0243157 0.995181 
-0.109808 0.112526 0.987563 
-0.184067 0.0116287 0.982845 
-0.136175 -0.0347214 0.990076 
-0.108319 -0.0211471 0.993891 
-0.0232189 -0.00700883 0.999706 