# vtk DataFile Version 3.0 
Exported using Morpho https://github.com/Morpho-lang/morpho 
ASCII 
DATASET UNSTRUCTURED_GRID 

POINTS 1245 float 
-0.303845 -0.952721 0 
-0.250833 -0.96803 0 
-0.195084 -0.980787 0 
-0.146308 -0.989239 0 
-0.0940719 -0.995565 0 
-0.0475118 -0.998871 0 
-0.000246339 -1 0 
0.0470875 -0.998891 0 
0.0937543 -0.995595 0 
0.146139 -0.989264 0 
0.195062 -0.980791 0 
0.250843 -0.968028 0 
0.303953 -0.952687 0 
-0.409153 -0.912466 0 
-0.356519 -0.934288 0 
-0.308871 -0.898929 0 
-0.258282 -0.916037 0 
-0.207345 -0.934859 0 
-0.154868 -0.930629 0 
-0.104343 -0.948989 0 
-0.0520099 -0.939193 0 
-8.5762e-05 -0.954582 0 
0.0518744 -0.939288 0 
0.104354 -0.949042 0 
0.154696 -0.9306 0 
0.207366 -0.934975 0 
0.258274 -0.916081 0 
0.308979 -0.898924 0 
0.356593 -0.93426 0 
0.409236 -0.912429 0 
-0.513788 -0.857917 0 
-0.461695 -0.887039 0 
-0.411157 -0.857936 0 
-0.359855 -0.879963 0 
-0.306888 -0.847481 0 
-0.254732 -0.866979 0 
-0.201991 -0.889059 0 
-0.149956 -0.874108 0 
-0.100608 -0.900088 0 
-0.0497575 -0.880388 0 
2.4595e-05 -0.904789 0 
0.0496869 -0.8804 0 
0.100612 -0.900177 0 
0.149872 -0.874171 0 
0.202071 -0.889165 0 
0.254695 -0.867031 0 
0.306946 -0.847482 0 
0.359894 -0.879943 0 
0.411236 -0.857929 0 
0.461748 -0.887011 0 
0.513842 -0.857885 0 
-0.564741 -0.825268 0 
-0.512908 -0.802945 0 
-0.462372 -0.832348 0 
-0.410124 -0.804631 0 
-0.358606 -0.827415 0 
-0.305781 -0.795641 0 
-0.25358 -0.816639 0 
-0.200756 -0.839997 0 
-0.149043 -0.818944 0 
-0.0987265 -0.846667 0 
-0.0490473 -0.822548 0 
5.00659e-05 -0.849932 0 
0.0490834 -0.822542 0 
0.0987838 -0.846676 0 
0.148997 -0.818924 0 
0.200826 -0.840131 0 
0.253508 -0.816728 0 
0.305831 -0.795701 0 
0.358581 -0.827419 0 
0.410181 -0.804654 0 
0.462414 -0.83234 0 
0.512965 -0.802929 0 
0.564777 -0.825243 0 
-0.660798 -0.750564 0 
-0.614015 -0.789295 0 
-0.561786 -0.769772 0 
-0.510673 -0.747856 0 
-0.460836 -0.778365 0 
-0.408794 -0.751554 0 
-0.357337 -0.774971 0 
-0.304815 -0.743684 0 
-0.252907 -0.765535 0 
-0.200631 -0.789263 0 
-0.149244 -0.764328 0 
-0.0986912 -0.791935 0 
-0.0492815 -0.765764 0 
4.16586e-05 -0.79382 0 
0.0492411 -0.765708 0 
0.0987508 -0.791951 0 
0.149196 -0.764326 0 
0.200666 -0.789356 0 
0.252841 -0.765599 0 
0.304862 -0.743741 0 
0.357323 -0.775038 0 
0.408863 -0.751626 0 
0.460863 -0.778382 0 
0.510716 -0.747859 0 
0.561819 -0.769761 0 
0.614041 -0.789274 0 
0.660811 -0.750552 0 
-0.707107 -0.707107 0 
-0.654819 -0.699058 0 
-0.60813 -0.73348 0 
-0.558104 -0.71337 0 
-0.509495 -0.692659 0 
-0.45935 -0.724356 0 
-0.407328 -0.698865 0 
-0.355968 -0.722823 0 
-0.303722 -0.691387 0 
-0.252254 -0.71362 0 
-0.20067 -0.737336 0 
-0.149608 -0.710068 0 
-0.0991558 -0.737129 0 
-0.0495872 -0.709825 0 
-2.23646e-05 -0.737917 0 
0.0494408 -0.709766 0 
0.0991291 -0.737116 0 
0.149502 -0.710042 0 
0.200696 -0.73743 0 
0.252186 -0.713735 0 
0.303753 -0.691518 0 
0.355952 -0.722893 0 
0.407371 -0.698945 0 
0.459374 -0.724407 0 
0.509524 -0.692668 0 
0.558131 -0.713361 0 
0.608151 -0.733462 0 
0.654824 -0.699048 0 
0.707107 -0.707107 0 
-0.750564 -0.660798 0 
-0.699058 -0.654819 0 
-0.647692 -0.647692 0 
-0.603437 -0.675718 0 
-0.55905 -0.655305 0 
-0.508501 -0.639581 0 
-0.457509 -0.671321 0 
-0.405555 -0.646545 0 
-0.354417 -0.670703 0 
-0.302427 -0.639219 0 
-0.251503 -0.661417 0 
-0.20061 -0.684911 0 
-0.149717 -0.655943 0 
-0.0995004 -0.682466 0 
-0.0498216 -0.654561 0 
-5.02113e-05 -0.682664 0 
0.0496787 -0.654499 0 
0.0994374 -0.682501 0 
0.149603 -0.655909 0 
0.200573 -0.684972 0 
0.251388 -0.661524 0 
0.302407 -0.639359 0 
0.354397 -0.670836 0 
0.405575 -0.646641 0 
0.457525 -0.67138 0 
0.508497 -0.639623 0 
0.559063 -0.655324 0 
0.603436 -0.675715 0 
0.64769 -0.64769 0 
0.699048 -0.654824 0 
0.750552 -0.660811 0 
-0.789295 -0.614015 0 
-0.73348 -0.60813 0 
-0.675718 -0.603437 0 
-0.613088 -0.613088 0 
-0.55962 -0.604068 0 
-0.506189 -0.588854 0 
-0.455505 -0.618874 0 
-0.403019 -0.594688 0 
-0.352514 -0.618952 0 
-0.300977 -0.586897 0 
-0.250543 -0.608767 0 
-0.200257 -0.632053 0 
-0.150049 -0.601979 0 
-0.0998281 -0.628222 0 
-0.0500377 -0.599914 0 
-3.12334e-05 -0.628076 0 
0.0498927 -0.599835 0 
0.0997818 -0.628253 0 
0.149924 -0.601867 0 
0.200214 -0.632118 0 
0.250423 -0.608915 0 
0.30086 -0.587085 0 
0.352457 -0.619096 0 
0.402948 -0.594743 0 
0.455483 -0.618952 0 
0.506147 -0.588901 0 
0.55964 -0.604067 0 
0.613069 -0.613069 0 
0.675715 -0.603436 0 
0.733462 -0.608151 0 
0.789274 -0.614041 0 
-0.825268 -0.564741 0 
-0.769772 -0.561786 0 
-0.71337 -0.558104 0 
-0.655305 -0.55905 0 
-0.604068 -0.55962 0 
-0.551031 -0.551031 0 
-0.497922 -0.537596 0 
-0.451508 -0.567021 0 
-0.399773 -0.542431 0 
-0.350494 -0.567003 0 
-0.301574 -0.534146 0 
-0.250874 -0.555692 0 
-0.200542 -0.579013 0 
-0.150324 -0.548268 0 
-0.100169 -0.57443 0 
-0.0500152 -0.545912 0 
-3.29278e-05 -0.574268 0 
0.0499208 -0.545788 0 
0.100058 -0.574485 0 
0.150038 -0.548073 0 
0.200377 -0.579041 0 
0.250556 -0.55585 0 
0.301273 -0.534348 0 
0.350318 -0.567174 0 
0.399615 -0.542384 0 
0.451404 -0.5671 0 
0.497945 -0.537702 0 
0.551073 -0.551073 0 
0.604067 -0.55964 0 
0.655324 -0.559063 0 
0.713361 -0.558131 0 
0.769761 -0.561819 0 
0.825243 -0.564777 0 
-0.857917 -0.513788 0 
-0.802945 -0.512908 0 
-0.747856 -0.510673 0 
-0.692659 -0.509495 0 
-0.639581 -0.508501 0 
-0.588854 -0.506189 0 
-0.537596 -0.497922 0 
-0.486157 -0.486157 0 
-0.444928 -0.512952 0 
-0.401787 -0.486784 0 
-0.351685 -0.513639 0 
-0.299695 -0.48291 0 
-0.250032 -0.503 0 
-0.200501 -0.526165 0 
-0.149489 -0.495195 0 
-0.0999281 -0.521367 0 
-0.0499712 -0.492294 0 
4.64723e-05 -0.520999 0 
0.050147 -0.492108 0 
0.099934 -0.52133 0 
0.14957 -0.494692 0 
0.200133 -0.526255 0 
0.249839 -0.503309 0 
0.299839 -0.483005 0 
0.351514 -0.513798 0 
0.401881 -0.486608 0 
0.444935 -0.513054 0 
0.486228 -0.486228 0 
0.537702 -0.497945 0 
0.588901 -0.506147 0 
0.639623 -0.508497 0 
0.692668 -0.509524 0 
0.747859 -0.510716 0 
0.802929 -0.512965 0 
0.857885 -0.513842 0 
-0.887039 -0.461695 0 
-0.832348 -0.462372 0 
-0.778365 -0.460836 0 
-0.724356 -0.45935 0 
-0.671321 -0.457509 0 
-0.618874 -0.455505 0 
-0.567021 -0.451508 0 
-0.512952 -0.444928 0 
-0.450685 -0.450685 0 
-0.397667 -0.437543 0 
-0.348492 -0.462546 0 
-0.295416 -0.432968 0 
-0.247004 -0.450633 0 
-0.198702 -0.473818 0 
-0.150161 -0.441625 0 
-0.100085 -0.468395 0 
-0.0502271 -0.439281 0 
0.000144229 -0.468374 0 
0.0504178 -0.439106 0 
0.100428 -0.468348 0 
0.150697 -0.441105 0 
0.199103 -0.473881 0 
0.247983 -0.450921 0 
0.296569 -0.432268 0 
0.348831 -0.462562 0 
0.397506 -0.4368 0 
0.450637 -0.450637 0 
0.513054 -0.444935 0 
0.5671 -0.451404 0 
0.618952 -0.455483 0 
0.67138 -0.457525 0 
0.724407 -0.459374 0 
0.778382 -0.460863 0 
0.83234 -0.462414 0 
0.887011 -0.461748 0 
-0.912466 -0.409153 0 
-0.857936 -0.411157 0 
-0.804631 -0.410124 0 
-0.751554 -0.408794 0 
-0.698865 -0.407328 0 
-0.646545 -0.405555 0 
-0.594688 -0.403019 0 
-0.542431 -0.399773 0 
-0.486784 -0.401787 0 
-0.437543 -0.397667 0 
-0.387256 -0.387256 0 
-0.344215 -0.411459 0 
-0.30136 -0.381507 0 
-0.25021 -0.395692 0 
-0.200211 -0.419975 0 
-0.150955 -0.389014 0 
-0.100617 -0.416095 0 
-0.0503197 -0.386922 0 
-4.02994e-05 -0.416525 0 
0.05006 -0.386948 0 
0.100784 -0.416323 0 
0.150432 -0.388572 0 
0.200855 -0.420694 0 
0.25086 -0.396905 0 
0.301746 -0.379789 0 
0.344135 -0.410678 0 
0.385823 -0.385823 0 
0.4368 -0.397506 0 
0.486608 -0.401881 0 
0.542384 -0.399615 0 
0.594743 -0.402948 0 
0.646641 -0.405575 0 
0.698945 -0.407371 0 
0.751626 -0.408863 0 
0.804654 -0.410181 0 
0.857929 -0.411236 0 
0.912429 -0.409236 0 
-0.934288 -0.356519 0 
-0.879963 -0.359855 0 
-0.827415 -0.358606 0 
-0.774971 -0.357337 0 
-0.722823 -0.355968 0 
-0.670703 -0.354417 0 
-0.618952 -0.352514 0 
-0.567003 -0.350494 0 
-0.513639 -0.351685 0 
-0.462546 -0.348492 0 
-0.411459 -0.344215 0 
-0.351697 -0.351697 0 
-0.29839 -0.336232 0 
-0.249846 -0.342529 0 
-0.200971 -0.367271 0 
-0.149995 -0.337521 0 
-0.100435 -0.3646 0 
-0.0498692 -0.335025 0 
-6.88684e-05 -0.365025 0 
0.0495433 -0.334795 0 
0.0996798 -0.364834 0 
0.148162 -0.337172 0 
0.199644 -0.368939 0 
0.24763 -0.345582 0 
0.295348 -0.332889 0 
0.34978 -0.34978 0 
0.410678 -0.344135 0 
0.462562 -0.348831 0 
0.513798 -0.351514 0 
0.567174 -0.350318 0 
0.619096 -0.352457 0 
0.670836 -0.354397 0 
0.722893 -0.355952 0 
0.775038 -0.357323 0 
0.827419 -0.358581 0 
0.879943 -0.359894 0 
0.93426 -0.356593 0 
-0.952721 -0.303845 0 
-0.898929 -0.308871 0 
-0.847481 -0.306888 0 
-0.795641 -0.305781 0 
-0.743684 -0.304815 0 
-0.691387 -0.303722 0 
-0.639219 -0.302427 0 
-0.586897 -0.300977 0 
-0.534146 -0.301574 0 
-0.48291 -0.299695 0 
-0.432968 -0.295416 0 
-0.381507 -0.30136 0 
-0.336232 -0.29839 0 
-0.288184 -0.288184 0 
-0.242975 -0.290577 0 
-0.198059 -0.315051 0 
-0.148383 -0.285894 0 
-0.0994753 -0.313232 0 
-0.0507184 -0.283118 0 
-0.000202902 -0.313447 0 
0.0500077 -0.282824 0 
0.0988289 -0.312817 0 
0.148102 -0.28482 0 
0.195742 -0.317413 0 
0.240766 -0.295824 0 
0.285014 -0.285014 0 
0.332889 -0.295348 0 
0.379789 -0.301746 0 
0.432268 -0.296569 0 
0.483005 -0.299839 0 
0.534348 -0.301273 0 
0.587085 -0.30086 0 
0.639359 -0.302407 0 
0.691518 -0.303753 0 
0.743741 -0.304862 0 
0.795701 -0.305831 0 
0.847482 -0.306946 0 
0.898924 -0.308979 0 
0.952687 -0.303953 0 
-0.96803 -0.250833 0 
-0.916037 -0.258282 0 
-0.866979 -0.254732 0 
-0.816639 -0.25358 0 
-0.765535 -0.252907 0 
-0.71362 -0.252254 0 
-0.661417 -0.251503 0 
-0.608767 -0.250543 0 
-0.555692 -0.250874 0 
-0.503 -0.250032 0 
-0.450633 -0.247004 0 
-0.395692 -0.25021 0 
-0.342529 -0.249846 0 
-0.290577 -0.242975 0 
-0.239946 -0.239946 0 
-0.194478 -0.26004 0 
-0.151293 -0.23238 0 
-0.101048 -0.260904 0 
-0.0503938 -0.232537 0 
-0.000203281 -0.262984 0 
0.050638 -0.232316 0 
0.100942 -0.260855 0 
0.152412 -0.232597 0 
0.195768 -0.261421 0 
0.241873 -0.241873 0 
0.295824 -0.240766 0 
0.345582 -0.24763 0 
0.396905 -0.25086 0 
0.450921 -0.247983 0 
[...]
POINT_DATA 1245 
VECTORS vectors float
0.574536 -0.21909 0.788611 
0.569165 -0.197398 0.798176 
0.558688 -0.165624 0.812673 
0.549246 -0.129757 0.825525 
0.541977 -0.0827861 0.836306 
0.5407 -0.0380115 0.840356 
0.54461 0.00685094 0.838662 
0.549161 0.0487467 0.834294 
0.556341 0.0865191 0.826438 
0.566552 0.122331 0.814895 
0.574081 0.148396 0.805239 
0.578384 0.172114 0.797401 
0.575769 0.191187 0.794945 
0.566059 -0.25166 0.785013 
0.573831 -0.236147 0.78419 
0.480365 -0.188166 0.856647 
0.480931 -0.169874 0.860144 
0.484817 -0.149208 0.861794 
0.453385 -0.111122 0.884361 
0.46613 -0.0793454 0.881151 
0.440381 -0.0367136 0.89706 
0.464572 0.0032448 0.88553 
0.44605 0.0399408 0.894117 
0.477611 0.0775725 0.87514 
0.463315 0.101972 0.880307 
0.494776 0.132893 0.8588 
0.484494 0.149744 0.861883 
0.477304 0.166807 0.862761 
0.566835 0.210089 0.796593 
0.552149 0.230789 0.801167 
0.528098 -0.288023 0.798847 
0.550727 -0.268189 0.790427 
0.469264 -0.220145 0.855177 
0.47771 -0.204583 0.854365 
0.396811 -0.159266 0.903977 
0.400229 -0.142577 0.905256 
0.40941 -0.123772 0.903916 
0.367423 -0.0877045 0.92591 
0.390475 -0.064885 0.918324 
0.355284 -0.0296284 0.934289 
0.38781 0.0010137 0.921739 
0.35858 0.0280332 0.933078 
0.397154 0.0615154 0.915688 
0.373359 0.0794358 0.92428 
0.414597 0.110147 0.903314 
0.400448 0.126396 0.90756 
0.392165 0.142968 0.908717 
0.468512 0.184936 0.863884 
0.455295 0.204733 0.866482 
0.532358 0.254335 0.807408 
0.50844 0.28093 0.813982 
0.499741 -0.312719 0.807754 
0.434775 -0.257195 0.863031 
0.454942 -0.237298 0.858322 
0.38483 -0.191439 0.902916 
0.392459 -0.175072 0.902954 
0.324712 -0.135201 0.9361 
0.329748 -0.119606 0.936462 
0.339756 -0.103369 0.934816 
0.297777 -0.07183 0.951929 
0.319522 -0.0527378 0.94611 
0.284881 -0.0246957 0.958245 
0.315315 -0.0009336 0.948987 
0.286376 0.0211883 0.957883 
0.322991 0.0478086 0.945194 
0.299926 0.0637445 0.95183 
0.341986 0.0924712 0.935144 
0.328285 0.106787 0.938523 
0.318635 0.122446 0.939935 
0.383134 0.160309 0.909676 
0.371744 0.179499 0.910816 
0.43855 0.226632 0.869662 
0.417546 0.251043 0.873288 
0.481574 0.310085 0.819716 
0.437044 -0.375296 0.817402 
0.468292 -0.34243 0.814521 
0.410131 -0.280156 0.867932 
0.353512 -0.22743 0.907361 
0.371563 -0.208279 0.904744 
0.312197 -0.165775 0.935442 
0.319888 -0.150379 0.935445 
0.262743 -0.114632 0.958032 
0.269541 -0.10118 0.957659 
0.278652 -0.0868592 0.956456 
0.239973 -0.0594857 0.968955 
0.258045 -0.0438091 0.965139 
0.227515 -0.0210372 0.973547 
0.253026 -0.0020607 0.967457 
0.227931 0.016033 0.973545 
0.259541 0.0379813 0.964985 
0.240036 0.0522806 0.969355 
0.278323 0.0770008 0.957396 
0.265997 0.0909213 0.959676 
0.257132 0.104704 0.960687 
0.310626 0.139015 0.940312 
0.301235 0.15677 0.940575 
0.35667 0.200079 0.912554 
0.338922 0.221978 0.914253 
0.393778 0.276704 0.876569 
0.452594 0.340982 0.823948 
0.422466 0.372609 0.826248 
0.406569 -0.410267 0.816323 
0.365351 -0.338317 0.867214 
0.383657 -0.305726 0.871401 
0.332108 -0.248357 0.909958 
0.286292 -0.201755 0.93666 
0.301238 -0.182963 0.935832 
0.252891 -0.144586 0.95663 
0.2596 -0.129454 0.957 
0.212735 -0.0983762 0.972145 
0.217551 -0.0854927 0.972298 
0.225933 -0.0727693 0.971421 
0.192084 -0.0499523 0.980106 
0.20696 -0.0365818 0.977665 
0.180669 -0.0180858 0.983378 
0.201562 -0.00241105 0.979473 
0.180579 0.0123373 0.983483 
0.20706 0.0306029 0.977849 
0.191018 0.0427561 0.980655 
0.224487 0.0645204 0.972339 
0.213668 0.0768463 0.973879 
0.206345 0.0904368 0.974291 
0.250934 0.120465 0.960479 
0.242025 0.137665 0.960454 
0.288208 0.176242 0.941209 
0.272466 0.197552 0.941666 
0.317428 0.244642 0.916182 
0.368395 0.303222 0.87883 
0.349682 0.335109 0.874885 
0.389779 0.406117 0.826524 
0.379132 -0.44245 0.81271 
0.339748 -0.367118 0.865908 
0.302905 -0.302402 0.903771 
0.31016 -0.271105 0.91121 
0.268151 -0.222505 0.937329 
0.232303 -0.17966 0.955907 
0.243244 -0.160462 0.9566 
0.203786 -0.126376 0.970824 
0.208211 -0.111256 0.971736 
0.169733 -0.0841255 0.981893 
0.174689 -0.0726353 0.981941 
0.182009 -0.0616785 0.98136 
0.152796 -0.041859 0.987371 
0.164931 -0.030939 0.98582 
0.142845 -0.0153565 0.989626 
0.159833 -0.00280055 0.98714 
0.142407 0.00982427 0.98976 
0.164118 0.0248891 0.986127 
0.151146 0.0356022 0.98787 
0.17914 0.0545308 0.982311 
0.170688 0.0655066 0.983145 
0.164056 0.0774098 0.983409 
0.200658 0.104439 0.974078 
0.194761 0.120474 0.973424 
0.232349 0.155346 0.960147 
0.220219 0.175919 0.959456 
0.254789 0.220324 0.941562 
0.294926 0.268025 0.917159 
0.286161 0.301668 0.909455 
0.321053 0.36496 0.873916 
0.356731 0.439612 0.824308 
0.354574 -0.468551 0.809158 
0.311698 -0.383962 0.869147 
0.273553 -0.30962 0.910662 
0.2517 -0.250105 0.93493 
0.220755 -0.201737 0.954238 
0.189713 -0.160333 0.96866 
0.19682 -0.141872 0.970121 
0.163357 -0.109999 0.980416 
0.168215 -0.097136 0.980953 
0.135622 -0.0726137 0.988096 
0.139343 -0.0622579 0.988285 
0.144911 -0.0523574 0.988058 
0.121005 -0.0358533 0.992004 
0.130363 -0.0264538 0.991113 
0.112293 -0.0135529 0.993583 
0.125999 -0.00294265 0.992026 
0.111572 0.00761747 0.993727 
0.129384 0.0202406 0.991388 
0.118581 0.0298118 0.992497 
0.142114 0.0456011 0.988799 
0.134837 0.0562564 0.98927 
0.130326 0.0672173 0.98919 
0.160733 0.0915118 0.982746 
0.154992 0.10597 0.982216 
0.185945 0.138272 0.972782 
0.178965 0.158252 0.971045 
0.207298 0.20023 0.957567 
0.237159 0.249259 0.938949 
0.255874 0.308999 0.915996 
0.289155 0.386096 0.875968 
0.325712 0.47165 0.819425 
0.329272 -0.490206 0.807018 
0.28966 -0.405052 0.867197 
0.253334 -0.329153 0.909659 
0.225121 -0.26605 0.937304 
0.202897 -0.219362 0.954313 
0.177434 -0.176555 0.968166 
0.152233 -0.139937 0.978388 
0.157745 -0.124817 0.97956 
0.130662 -0.0968824 0.986682 
0.133556 -0.0843138 0.987448 
0.10753 -0.0636752 0.992161 
0.110114 -0.0539455 0.992454 
0.114814 -0.0448359 0.992375 
0.0945869 -0.0309223 0.995036 
0.102704 -0.0225005 0.994457 
0.0875237 -0.0118474 0.996092 
0.098881 -0.002775 0.995095 
0.0869372 0.006019 0.996196 
0.101411 0.0169197 0.994701 
0.0926161 0.0249065 0.99539 
0.111848 0.0391187 0.992955 
0.106136 0.0481218 0.993187 
0.102237 0.058998 0.993009 
0.127144 0.079447 0.988697 
0.122965 0.093322 0.988014 
0.149046 0.121329 0.981358 
0.142054 0.139053 0.980043 
0.166175 0.176436 0.970184 
0.189331 0.219457 0.957075 
0.208887 0.270051 0.939914 
0.233585 0.333735 0.913268 
0.2643 0.412874 0.871596 
0.296219 0.503175 0.811831 
0.301772 -0.508116 0.806692 
0.266168 -0.422374 0.866461 
0.232718 -0.346116 0.908871 
0.204409 -0.281758 0.937459 
0.180859 -0.229722 0.956304 
0.160966 -0.188028 0.968884 
0.140155 -0.151338 0.978495 
0.120311 -0.121619 0.985258 
0.124762 -0.107871 0.986305 
0.102793 -0.0864141 0.990942 
0.106346 -0.0745213 0.991533 
0.0850985 -0.0558828 0.994804 
0.0864246 -0.0467188 0.995162 
0.090598 -0.0388597 0.995129 
0.074023 -0.0265416 0.996903 
0.0803083 -0.0197415 0.996575 
0.0679376 -0.0104058 0.997635 
0.0769703 -0.00295532 0.997029 
0.0671487 0.00475955 0.997732 
0.0787352 0.0138465 0.996799 
0.0716399 0.0212541 0.997204 
0.0872061 0.0333753 0.995631 
0.082841 0.0421134 0.995673 
0.0804842 0.0514684 0.995426 
0.100462 0.0709718 0.992406 
0.0962198 0.0834233 0.991858 
0.116561 0.106644 0.987442 
0.11241 0.120264 0.986357 
0.130292 0.152091 0.979741 
0.149232 0.190951 0.970189 
0.167384 0.233203 0.957914 
0.188074 0.288548 0.938812 
0.212622 0.357252 0.909485 
0.240779 0.438651 0.865801 
0.26993 0.532008 0.802562 
0.271503 -0.523924 0.807335 
0.240354 -0.436386 0.867062 
0.210446 -0.359494 0.909108 
0.183999 -0.293476 0.938092 
0.160784 -0.238879 0.957646 
0.141611 -0.193846 0.970757 
0.123662 -0.156999 0.979826 
0.10751 -0.124186 0.986418 
0.0966437 -0.0975475 0.990527 
0.0821987 -0.0766089 0.993667 
0.0839689 -0.0655999 0.994307 
0.0665932 -0.0487389 0.996589 
0.0675858 -0.0406892 0.996883 
0.070238 -0.0337626 0.996959 
0.0569399 -0.0235262 0.9981 
0.0618856 -0.0172474 0.997934 
0.0519842 -0.00955687 0.998602 
0.0593059 -0.00282601 0.998236 
0.0512458 0.00365171 0.998679 
0.0607292 0.0118299 0.998084 
0.0546157 0.0178602 0.998348 
0.0676881 0.0285927 0.997297 
0.0638691 0.0360179 0.997308 
0.0625202 0.0453262 0.997014 
0.0786109 0.0624284 0.994949 
0.076034 0.0745099 0.994317 
0.0895828 0.0968865 0.991256 
0.0991842 0.125886 0.987074 
0.114552 0.159425 0.980541 
0.130687 0.199014 0.971244 
0.14859 0.247034 0.957546 
0.169033 0.305476 0.937076 
0.19299 0.376468 0.906105 
0.219548 0.460877 0.859879 
0.247259 0.556758 0.793022 
0.239461 -0.538866 0.807639 
0.213381 -0.448657 0.867857 
0.187351 -0.370206 0.909861 
0.16287 -0.302734 0.939055 
0.142609 -0.246794 0.958517 
0.124171 -0.200138 0.971867 
0.108605 -0.161723 0.980842 
0.0947509 -0.130157 0.986956 
0.0840858 -0.104068 0.991009 
0.0744695 -0.0837757 0.993698 
0.0638476 -0.0664712 0.995743 
0.0657796 -0.0578385 0.996156 
0.0527097 -0.0451239 0.99759 
0.0514775 -0.0363658 0.998012 
0.0542243 -0.0298758 0.998082 
0.0431901 -0.0208619 0.998849 
0.0477599 -0.0154618 0.998739 
0.039135 -0.00850656 0.999198 
0.0455141 -0.00292352 0.998959 
0.0385156 0.00298251 0.999254 
0.0464554 0.00974658 0.998873 
0.0412553 0.0160281 0.99902 
0.0518181 0.0252885 0.998336 
0.0487644 0.0326158 0.998278 
0.0482786 0.0409455 0.997994 
0.0607045 0.0549615 0.996641 
0.0586856 0.0637053 0.996242 
0.0681956 0.0828749 0.994224 
0.0779553 0.104196 0.991497 
0.0873252 0.132736 0.987297 
0.100694 0.166572 0.980874 
0.115087 0.20802 0.97133 
0.132386 0.257944 0.957047 
0.152372 0.319153 0.935374 
0.174985 0.392458 0.902971 
0.200942 0.478002 0.855065 
0.22783 0.576113 0.784976 
0.207737 -0.553412 0.806586 
0.186654 -0.460291 0.867924 
0.162872 -0.379161 0.910884 
0.142807 -0.310891 0.939656 
0.123755 -0.252986 0.959522 
0.107554 -0.205105 0.972812 
0.0935885 -0.165854 0.981699 
0.0814225 -0.133476 0.987702 
0.0719363 -0.106654 0.991691 
0.0628652 -0.0857812 0.994329 
0.0547055 -0.0681811 0.996172 
0.0499648 -0.0532575 0.99733 
0.0413245 -0.0404589 0.998326 
0.0391246 -0.0327752 0.998697 
0.0414022 -0.0268232 0.998782 
0.0327764 -0.0188805 0.999284 
0.0359928 -0.0139269 0.999255 
0.0294314 -0.00800469 0.999535 
0.0341758 -0.00301523 0.999411 
0.0289356 0.00188241 0.99958 
0.0347491 0.00813013 0.999363 
0.0309749 0.0128068 0.999438 
0.0390702 0.021345 0.999008 
0.0365678 0.0281827 0.998934 
0.0372866 0.0365355 0.998637 
0.0449557 0.0501239 0.997731 
0.0496816 0.066964 0.996518 
0.0580107 0.085895 0.994614 
0.0660421 0.108976 0.991848 
0.0756509 0.137282 0.987639 
0.0868824 0.172767 0.981123 
0.101673 0.214517 0.971414 
0.117242 0.267109 0.956508 
0.136636 0.329083 0.934363 
0.15905 0.403805 0.900913 
0.184067 0.490865 0.85157 
0.210494 0.589561 0.779814 
0.177984 -0.566885 0.80434 
0.160267 -0.470911 0.8675 
0.140932 -0.389083 0.910359 
0.122278 -0.318261 0.940084 
0.106045 -0.259007 0.960037 
0.0920484 -0.209608 0.973443 
0.0794917 -0.168849 0.982431 
0.0686723 -0.135201 0.988436 
0.060202 -0.108719 0.992248 
0.0521806 -0.0866478 0.994872 
0.0453198 -0.0692814 0.996567 
0.0412785 -0.0558898 0.997583 
0.0365553 -0.0451998 0.998309 
0.0311691 -0.0355974 0.99888 
0.0289152 -0.0287121 0.999169 
0.0304998 -0.0235651 0.999257 
0.0238221 -0.0169093 0.999573 
0.0265099 -0.0124365 0.999571 
0.0209218 -0.00755802 0.999753 
0.0247174 -0.00286331 0.99969 
0.0200702 0.00154343 0.999797 
0.025217 0.0070507 0.999657 
0.021874 0.0115714 0.999694 
0.0286982 0.0191947 0.999404 
0.0271063 0.0240954 0.999342 
0.0273799 0.0312433 0.999137 
0.0319959 0.0412798 0.998635 
0.0378029 0.0536977 0.997841 
0.0412568 0.0685746 0.996793 
0.0479154 0.0878854 0.994978 
0.0555528 0.111126 0.992252 
0.0643814 0.14046 0.987991 
0.075491 0.176036 0.981485 
0.0881615 0.220558 0.971381 
0.104422 0.273027 0.956322 
0.12236 0.337251 0.933429 
0.143659 0.412247 0.899675 
0.168883 0.499044 0.849961 
0.193962 0.597232 0.778263 
0.15067 -0.577829 0.80213 
0.137363 -0.483034 0.86476 
0.119221 -0.4009 0.908331 
0.103536 -0.329486 0.938466 
0.0902118 -0.268627 0.959011 
0.0775224 -0.21732 0.973017 
0.0666689 -0.174581 0.982383 
0.0575703 -0.140252 0.988441 
0.0495928 -0.111303 0.992548 
0.0429325 -0.0885505 0.995146 
0.0365609 -0.0703326 0.996853 
0.0322534 -0.0549099 0.99797 
0.0282925 -0.0431898 0.998666 
0.023804 -0.033596 0.999152 
0.0206707 -0.0258447 0.999452 
0.0218768 -0.0213931 0.999532 
0.0165774 -0.0156819 0.99974 
0.0189676 -0.0118145 0.99975 
0.0145126 -0.00680955 0.999871 
0.0181695 -0.00304851 0.99983 
0.0142217 0.00124501 0.999898 
0.0183397 0.00578009 0.999815 
0.0150692 0.0108011 0.999828 
0.0202463 0.0162893 0.999662 
0.0188168 0.0220805 0.999579 
0.0212105 0.0308786 0.999298 
0.025149 0.0411632 0.998836 
0.0288446 0.0538932 0.99813 
0.0335202 0.070417 0.996954 
0.039406 0.090025 0.99516 
0.0462918 0.114781 0.992312 
0.0544181 0.145233 0.9879 
0.0652232 0.18252 0.981036 
0.0770861 0.22748 0.970727 
0.0919807 0.282225 0.954929 
0.109114 0.345971 0.931879 
0.129922 0.420477 0.897953 
0.15317 0.505318 0.849231 
0.176508 0.599256 0.780857 
0.123746 -0.584846 0.801649 
0.116207 -0.501024 0.857596 
0.0999499 -0.420407 0.901814 
0.0869863 -0.346932 0.933848 
0.0747009 -0.283183 0.956152 
0.0642086 -0.22867 0.971384 
0.0552877 -0.184128 0.981346 
0.0469941 -0.146721 0.988061 
0.0403437 -0.116807 0.992335 
0.0345674 -0.0931831 0.995049 
0.0294019 -0.0731432 0.996888 
0.0255308 -0.057811 0.998001 
0.0220047 -0.0455007 0.998722 
0.0186466 -0.035297 0.999203 
0.0160097 -0.0271211 0.999504 
0.0144705 -0.0202282 0.999691 
0.0110367 -0.014662 0.999832 
0.0130379 -0.0107938 0.999857 
0.00911464 -0.00686375 0.999935 
0.0116952 -0.00316494 0.999927 
0.00868852 0.000168809 0.999962 
0.0115664 0.00520154 0.99992 
0.010215 0.00899198 0.999907 
0.012907 0.0156471 0.999794 
0.0138115 0.0234305 0.99963 
0.0158935 0.032124 0.999358 
0.0192195 0.0439351 0.998849 
0.0229061 0.0567935 0.998123 
0.0264926 0.0737756 0.996923 
0.0318276 0.0946593 0.995001 
0.0385076 0.120221 0.992 
0.0457779 0.151981 0.987323 
0.0552064 0.191032 0.98003 
0.0670858 0.237896 0.968971 
0.0801944 0.293954 0.95245 
0.0971932 0.35973 0.927981 
0.115251 0.434156 0.893435 
0.13921 0.515217 0.845679 
0.154523 0.595212 0.788572 
0.100477 -0.587513 0.802952 
0.0889217 -0.477781 0.873967 
0.0730096 -0.384171 0.920371 
0.0612778 -0.308188 0.94935 
0.0519674 -0.246594 0.967725 
0.0437525 -0.196541 0.979519 
0.0369452 -0.156048 0.987058 
0.0313473 -0.1241 0.991774 
0.0264906 -0.0974315 0.99489 
0.0222377 -0.0773149 0.996759 
0.0188614 -0.0607097 0.997977 
0.0160321 -0.0474864 0.998743 
0.0137918 -0.0375296 0.9992 
0.0111754 -0.0291022 0.999514 
0.00983002 -0.0224629 0.999699 
0.00843645 -0.0172357 0.999816 
0.00633478 -0.0127601 0.999899 
0.00747535 -0.0097398 0.999925 
0.00512977 -0.0063725 0.999967 
0.00718188 -0.00242926 0.999971 
0.00438143 0.00066287 0.99999 
0.00720357 0.00410728 0.999966 
0.00493444 0.00724939 0.999962 
0.0068777 0.0126184 0.999897 
0.00835325 0.0176344 0.99981 
0.00924072 0.0252227 0.999639 
0.0111047 0.0347879 0.999333 
0.0135579 0.0451636 0.998888 
0.0164124 0.059997 0.998064 
0.0203187 0.0773425 0.996798 
0.0244942 0.0993804 0.994748 
0.0300241 0.12682 0.991471 
0.0374412 0.160556 0.986316 
0.0455262 0.202094 0.978307 
0.0565622 0.253343 0.965722 
0.0696829 0.315196 0.946465 
0.0869517 0.390901 0.916316 
0.110101 0.483684 0.86829 
0.131402 0.588252 0.79793 
0.0740628 -0.587064 0.806145 
0.0690001 -0.500088 0.863221 
0.0574504 -0.41454 0.908216 
0.0470059 -0.335499 0.940867 
0.0390201 -0.268491 0.962492 
0.0323782 -0.213735 0.976355 
0.0269794 -0.169808 0.985108 
0.0223781 -0.13404 0.990723 
0.0185488 -0.106116 0.994181 
0.0154383 -0.0839759 0.996348 
0.0126917 -0.0656889 0.997759 
0.0107063 -0.0520655 0.998586 
0.00856956 -0.0407821 0.999131 
0.00684526 -0.0319201 0.999467 
0.0060994 -0.0248062 0.999674 
0.00427391 -0.0191006 0.999808 
0.00313373 -0.0144212 0.999891 
0.00278518 -0.0100017 0.999946 
0.000927046 -0.00614504 0.999981 
0.00259013 -0.0038366 0.999989 
0.000924513 0.000412904 0.999999 
0.00218891 0.00396045 0.99999 
0.00208554 0.00891554 0.999958 
0.00313282 0.0142608 0.999893 
0.00391508 0.020761 0.999777 
0.00496857 0.0282256 0.999589 
0.00643515 0.038258 0.999247 
0.00873412 0.0506271 0.998679 
0.010725 0.0651636 0.997817 
0.0136519 0.0843693 0.996341 
0.017848 0.107684 0.994025 
0.0220021 0.136714 0.990366 
0.028002 0.173049 0.984515 
0.0355726 0.217418 0.97543 
0.0446688 0.271875 0.961295 
0.0566163 0.337967 0.939454 
0.0721549 0.414724 0.907082 
0.089577 0.49747 0.862844 
0.100502 0.578546 0.809434 
0.0495147 -0.585086 0.809458 
0.0415913 -0.471637 0.880811 
0.0323005 -0.375818 0.92613 
0.0253623 -0.29806 0.95421 
0.0200175 -0.236035 0.971538 
0.0160168 -0.18633 0.982357 
0.0126799 -0.147167 0.98903 
0.0101917 -0.116219 0.993171 
0.00787734 -0.0910416 0.995816 
0.00619818 -0.0719716 0.997387 
0.00465032 -0.0562677 0.998405 
0.00330764 -0.0441497 0.999019 
0.00272909 -0.0345258 0.9994 
0.00108509 -0.0270269 0.999634 
0.000926156 -0.0204669 0.99979 
-0.000351867 -0.0165738 0.999863 
-0.000335551 -0.0112143 0.999937 
-0.000860327 -0.00868248 0.999962 
-0.00279795 -0.00584868 0.999979 
0.000234762 -0.00241959 0.999997 
-0.00345722 -0.001589 0.999993 
-0.00170421 0.00210781 0.999996 
-0.00102752 0.00682217 0.999976 
-0.00157246 0.010297 0.999946 
-0.000653681 0.0164028 0.999865 
-0.000266986 0.0226772 0.999743 
0.000625125 0.0315069 0.999503 
0.0015498 0.0418125 0.999124 
0.00283691 0.0546186 0.998503 
0.00491024 0.0714658 0.997431 
0.0065275 0.0914745 0.995786 
0.00943039 0.117182 0.993066 
0.0131509 0.148879 0.988768 
0.0172629 0.188173 0.981984 
0.0232403 0.237384 0.971138 
0.0309331 0.297693 0.95416 
0.0408206 0.372631 0.927081 
0.0558632 0.463706 0.884226 
0.068496 0.570201 0.818645 
0.0236566 -0.581882 0.812929 
0.018566 -0.492764 0.869965 
0.0129399 -0.408104 0.912844 
0.00882888 -0.328612 0.944424 
0.00564926 -0.261442 0.965203 
0.0034877 -0.2074 0.97825 
0.00171529 -0.164194 0.986427 
0.000539145 -0.129501 0.991579 
-0.000402622 -0.102471 0.994736 
-0.00101944 -0.0809299 0.996719 
-0.00177068 -0.0633881 0.997987 
-0.00190963 -0.0503558 0.99873 
-0.00259703 -0.0392814 0.999225 
-0.00312696 -0.0307867 0.999521 
-0.00273305 -0.0239909 0.999708 
-0.0040193 -0.0188513 0.999814 
-0.00343133 -0.0129551 0.99991 
-0.00459118 -0.0116271 0.999922 
-0.00418318 -0.00598222 0.999973 
-0.00402982 -0.0026419 0.999988 
-0.0038138 0.00206436 0.999991 
-0.0055186 0.00376029 0.999978 
-0.0044206 0.00904862 0.999949 
-0.00499022 0.0136487 0.999894 
-0.00445398 0.0197757 0.999795 
-0.00461887 0.0271695 0.99962 
-0.00418356 0.0363173 0.999332 
-0.00343023 0.0482789 0.998828 
-0.0033629 0.0623033 0.998052 
-0.00221497 0.0801809 0.996778 
-0.00107526 0.102789 0.994703 
-5.50323e-05 0.130278 0.991478 
0.00202503 0.164991 0.986293 
0.00451982 0.20774 0.978174 
0.00771515 0.260511 0.96544 
0.0123581 0.324911 0.945664 
0.018311 0.399933 0.916361 
0.0249446 0.479675 0.877092 
0.0331499 0.562613 0.826055 
-0.00438249 -0.573369 0.819286 
-0.0111129 -0.461671 0.886982 
-0.011278 -0.368079 0.929726 
-0.0115999 -0.292802 0.956103 
-0.0117814 -0.231984 0.972648 
-0.0113823 -0.183543 0.982946 
-0.0107773 -0.145319 0.989326 
-0.0102327 -0.114736 0.993343 
-0.00964107 -0.0902212 0.995875 
-0.00895642 -0.0712686 0.997417 
-0.00866451 -0.055848 0.998402 
-0.00826949 -0.0437385 0.999009 
-0.00744156 -0.0344427 0.999379 
-0.00804336 -0.0266305 0.999613 
-0.00737598 -0.0203791 0.999765 
-0.00747781 -0.0164399 0.999837 
-0.00758562 -0.0110085 0.999911 
-0.00752157 -0.00873298 0.999934 
-0.00685617 -0.00564492 0.999961 
-0.00851557 -0.00264978 0.99996 
-0.00750759 -0.00135647 0.999971 
-0.00817488 0.0020269 0.999965 
-0.00817412 0.00676654 0.999944 
-0.00847687 0.0101606 0.999912 
-0.00859841 0.0162244 0.999831 
-0.00932325 0.0224375 0.999705 
-0.00896875 0.0310306 0.999478 
-0.00983731 0.0411221 0.999106 
-0.00993861 0.0538171 0.998501 
-0.010028 0.0700436 0.997494 
-0.010917 0.0899098 0.99589 
-0.0109469 0.114683 0.993342 