# vtk DataFile Version 3.0 
Exported using Morpho https://github.com/Morpho-lang/morpho 
ASCII 
DATASET UNSTRUCTURED_GRID 

POINTS 1245 float 
-0.303845 -0.952721 0 
-0.250833 -0.96803 0 
-0.195084 -0.980787 0 
-0.146308 -0.989239 0 
-0.0940719 -0.995565 0 
-0.0475118 -0.998871 0 
-0.000246339 -1 0 
0.0470875 -0.998891 0 
0.0937543 -0.995595 0 
0.146139 -0.989264 0 
0.195062 -0.980791 0 
0.250843 -0.968028 0 
0.303953 -0.952687 0 
-0.409153 -0.912466 0 
-0.356519 -0.934288 0 
-0.308871 -0.898929 0 
-0.258282 -0.916037 0 
-0.207345 -0.934859 0 
-0.154868 -0.930629 0 
-0.104343 -0.948989 0 
-0.0520099 -0.939193 0 
-8.5762e-05 -0.954582 0 
0.0518744 -0.939288 0 
0.104354 -0.949042 0 
0.154696 -0.9306 0 
0.207366 -0.934975 0 
0.258274 -0.916081 0 
0.308979 -0.898924 0 
0.356593 -0.93426 0 
0.409236 -0.912429 0 
-0.513788 -0.857917 0 
-0.461695 -0.887039 0 
-0.411157 -0.857936 0 
-0.359855 -0.879963 0 
-0.306888 -0.847481 0 
-0.254732 -0.866979 0 
-0.201991 -0.889059 0 
-0.149956 -0.874108 0 
-0.100608 -0.900088 0 
-0.0497575 -0.880388 0 
2.4595e-05 -0.904789 0 
0.0496869 -0.8804 0 
0.100612 -0.900177 0 
0.149872 -0.874171 0 
0.202071 -0.889165 0 
0.254695 -0.867031 0 
0.306946 -0.847482 0 
0.359894 -0.879943 0 
0.411236 -0.857929 0 
0.461748 -0.887011 0 
0.513842 -0.857885 0 
-0.564741 -0.825268 0 
-0.512908 -0.802945 0 
-0.462372 -0.832348 0 
-0.410124 -0.804631 0 
-0.358606 -0.827415 0 
-0.305781 -0.795641 0 
-0.25358 -0.816639 0 
-0.200756 -0.839997 0 
-0.149043 -0.818944 0 
-0.0987265 -0.846667 0 
-0.0490473 -0.822548 0 
5.00659e-05 -0.849932 0 
0.0490834 -0.822542 0 
0.0987838 -0.846676 0 
0.148997 -0.818924 0 
0.200826 -0.840131 0 
0.253508 -0.816728 0 
0.305831 -0.795701 0 
0.358581 -0.827419 0 
0.410181 -0.804654 0 
0.462414 -0.83234 0 
0.512965 -0.802929 0 
0.564777 -0.825243 0 
-0.660798 -0.750564 0 
-0.614015 -0.789295 0 
-0.561786 -0.769772 0 
-0.510673 -0.747856 0 
-0.460836 -0.778365 0 
-0.408794 -0.751554 0 
-0.357337 -0.774971 0 
-0.304815 -0.743684 0 
-0.252907 -0.765535 0 
-0.200631 -0.789263 0 
-0.149244 -0.764328 0 
-0.0986912 -0.791935 0 
-0.0492815 -0.765764 0 
4.16586e-05 -0.79382 0 
0.0492411 -0.765708 0 
0.0987508 -0.791951 0 
0.149196 -0.764326 0 
0.200666 -0.789356 0 
0.252841 -0.765599 0 
0.304862 -0.743741 0 
0.357323 -0.775038 0 
0.408863 -0.751626 0 
0.460863 -0.778382 0 
0.510716 -0.747859 0 
0.561819 -0.769761 0 
0.614041 -0.789274 0 
0.660811 -0.750552 0 
-0.707107 -0.707107 0 
-0.654819 -0.699058 0 
-0.60813 -0.73348 0 
-0.558104 -0.71337 0 
-0.509495 -0.692659 0 
-0.45935 -0.724356 0 
-0.407328 -0.698865 0 
-0.355968 -0.722823 0 
-0.303722 -0.691387 0 
-0.252254 -0.71362 0 
-0.20067 -0.737336 0 
-0.149608 -0.710068 0 
-0.0991558 -0.737129 0 
-0.0495872 -0.709825 0 
-2.23646e-05 -0.737917 0 
0.0494408 -0.709766 0 
0.0991291 -0.737116 0 
0.149502 -0.710042 0 
0.200696 -0.73743 0 
0.252186 -0.713735 0 
0.303753 -0.691518 0 
0.355952 -0.722893 0 
0.407371 -0.698945 0 
0.459374 -0.724407 0 
0.509524 -0.692668 0 
0.558131 -0.713361 0 
0.608151 -0.733462 0 
0.654824 -0.699048 0 
0.707107 -0.707107 0 
-0.750564 -0.660798 0 
-0.699058 -0.654819 0 
-0.647692 -0.647692 0 
-0.603437 -0.675718 0 
-0.55905 -0.655305 0 
-0.508501 -0.639581 0 
-0.457509 -0.671321 0 
-0.405555 -0.646545 0 
-0.354417 -0.670703 0 
-0.302427 -0.639219 0 
-0.251503 -0.661417 0 
-0.20061 -0.684911 0 
-0.149717 -0.655943 0 
-0.0995004 -0.682466 0 
-0.0498216 -0.654561 0 
-5.02113e-05 -0.682664 0 
0.0496787 -0.654499 0 
0.0994374 -0.682501 0 
0.149603 -0.655909 0 
0.200573 -0.684972 0 
0.251388 -0.661524 0 
0.302407 -0.639359 0 
0.354397 -0.670836 0 
0.405575 -0.646641 0 
0.457525 -0.67138 0 
0.508497 -0.639623 0 
0.559063 -0.655324 0 
0.603436 -0.675715 0 
0.64769 -0.64769 0 
0.699048 -0.654824 0 
0.750552 -0.660811 0 
-0.789295 -0.614015 0 
-0.73348 -0.60813 0 
-0.675718 -0.603437 0 
-0.613088 -0.613088 0 
-0.55962 -0.604068 0 
-0.506189 -0.588854 0 
-0.455505 -0.618874 0 
-0.403019 -0.594688 0 
-0.352514 -0.618952 0 
-0.300977 -0.586897 0 
-0.250543 -0.608767 0 
-0.200257 -0.632053 0 
-0.150049 -0.601979 0 
-0.0998281 -0.628222 0 
-0.0500377 -0.599914 0 
-3.12334e-05 -0.628076 0 
0.0498927 -0.599835 0 
0.0997818 -0.628253 0 
0.149924 -0.601867 0 
0.200214 -0.632118 0 
0.250423 -0.608915 0 
0.30086 -0.587085 0 
0.352457 -0.619096 0 
0.402948 -0.594743 0 
0.455483 -0.618952 0 
0.506147 -0.588901 0 
0.55964 -0.604067 0 
0.613069 -0.613069 0 
0.675715 -0.603436 0 
0.733462 -0.608151 0 
0.789274 -0.614041 0 
-0.825268 -0.564741 0 
-0.769772 -0.561786 0 
-0.71337 -0.558104 0 
-0.655305 -0.55905 0 
-0.604068 -0.55962 0 
-0.551031 -0.551031 0 
-0.497922 -0.537596 0 
-0.451508 -0.567021 0 
-0.399773 -0.542431 0 
-0.350494 -0.567003 0 
-0.301574 -0.534146 0 
-0.250874 -0.555692 0 
-0.200542 -0.579013 0 
-0.150324 -0.548268 0 
-0.100169 -0.57443 0 
-0.0500152 -0.545912 0 
-3.29278e-05 -0.574268 0 
0.0499208 -0.545788 0 
0.100058 -0.574485 0 
0.150038 -0.548073 0 
0.200377 -0.579041 0 
0.250556 -0.55585 0 
0.301273 -0.534348 0 
0.350318 -0.567174 0 
0.399615 -0.542384 0 
0.451404 -0.5671 0 
0.497945 -0.537702 0 
0.551073 -0.551073 0 
0.604067 -0.55964 0 
0.655324 -0.559063 0 
0.713361 -0.558131 0 
0.769761 -0.561819 0 
0.825243 -0.564777 0 
-0.857917 -0.513788 0 
-0.802945 -0.512908 0 
-0.747856 -0.510673 0 
-0.692659 -0.509495 0 
-0.639581 -0.508501 0 
-0.588854 -0.506189 0 
-0.537596 -0.497922 0 
-0.486157 -0.486157 0 
-0.444928 -0.512952 0 
-0.401787 -0.486784 0 
-0.351685 -0.513639 0 
-0.299695 -0.48291 0 
-0.250032 -0.503 0 
-0.200501 -0.526165 0 
-0.149489 -0.495195 0 
-0.0999281 -0.521367 0 
-0.0499712 -0.492294 0 
4.64723e-05 -0.520999 0 
0.050147 -0.492108 0 
0.099934 -0.52133 0 
0.14957 -0.494692 0 
0.200133 -0.526255 0 
0.249839 -0.503309 0 
0.299839 -0.483005 0 
0.351514 -0.513798 0 
0.401881 -0.486608 0 
0.444935 -0.513054 0 
0.486228 -0.486228 0 
0.537702 -0.497945 0 
0.588901 -0.506147 0 
0.639623 -0.508497 0 
0.692668 -0.509524 0 
0.747859 -0.510716 0 
0.802929 -0.512965 0 
0.857885 -0.513842 0 
-0.887039 -0.461695 0 
-0.832348 -0.462372 0 
-0.778365 -0.460836 0 
-0.724356 -0.45935 0 
-0.671321 -0.457509 0 
-0.618874 -0.455505 0 
-0.567021 -0.451508 0 
-0.512952 -0.444928 0 
-0.450685 -0.450685 0 
-0.397667 -0.437543 0 
-0.348492 -0.462546 0 
-0.295416 -0.432968 0 
-0.247004 -0.450633 0 
-0.198702 -0.473818 0 
-0.150161 -0.441625 0 
-0.100085 -0.468395 0 
-0.0502271 -0.439281 0 
0.000144229 -0.468374 0 
0.0504178 -0.439106 0 
0.100428 -0.468348 0 
0.150697 -0.441105 0 
0.199103 -0.473881 0 
0.247983 -0.450921 0 
0.296569 -0.432268 0 
0.348831 -0.462562 0 
0.397506 -0.4368 0 
0.450637 -0.450637 0 
0.513054 -0.444935 0 
0.5671 -0.451404 0 
0.618952 -0.455483 0 
0.67138 -0.457525 0 
0.724407 -0.459374 0 
0.778382 -0.460863 0 
0.83234 -0.462414 0 
0.887011 -0.461748 0 
-0.912466 -0.409153 0 
-0.857936 -0.411157 0 
-0.804631 -0.410124 0 
-0.751554 -0.408794 0 
-0.698865 -0.407328 0 
-0.646545 -0.405555 0 
-0.594688 -0.403019 0 
-0.542431 -0.399773 0 
-0.486784 -0.401787 0 
-0.437543 -0.397667 0 
-0.387256 -0.387256 0 
-0.344215 -0.411459 0 
-0.30136 -0.381507 0 
-0.25021 -0.395692 0 
-0.200211 -0.419975 0 
-0.150955 -0.389014 0 
-0.100617 -0.416095 0 
-0.0503197 -0.386922 0 
-4.02994e-05 -0.416525 0 
0.05006 -0.386948 0 
0.100784 -0.416323 0 
0.150432 -0.388572 0 
0.200855 -0.420694 0 
0.25086 -0.396905 0 
0.301746 -0.379789 0 
0.344135 -0.410678 0 
0.385823 -0.385823 0 
0.4368 -0.397506 0 
0.486608 -0.401881 0 
0.542384 -0.399615 0 
0.594743 -0.402948 0 
0.646641 -0.405575 0 
0.698945 -0.407371 0 
0.751626 -0.408863 0 
0.804654 -0.410181 0 
0.857929 -0.411236 0 
0.912429 -0.409236 0 
-0.934288 -0.356519 0 
-0.879963 -0.359855 0 
-0.827415 -0.358606 0 
-0.774971 -0.357337 0 
-0.722823 -0.355968 0 
-0.670703 -0.354417 0 
-0.618952 -0.352514 0 
-0.567003 -0.350494 0 
-0.513639 -0.351685 0 
-0.462546 -0.348492 0 
-0.411459 -0.344215 0 
-0.351697 -0.351697 0 
-0.29839 -0.336232 0 
-0.249846 -0.342529 0 
-0.200971 -0.367271 0 
-0.149995 -0.337521 0 
-0.100435 -0.3646 0 
-0.0498692 -0.335025 0 
-6.88684e-05 -0.365025 0 
0.0495433 -0.334795 0 
0.0996798 -0.364834 0 
0.148162 -0.337172 0 
0.199644 -0.368939 0 
0.24763 -0.345582 0 
0.295348 -0.332889 0 
0.34978 -0.34978 0 
0.410678 -0.344135 0 
0.462562 -0.348831 0 
0.513798 -0.351514 0 
0.567174 -0.350318 0 
0.619096 -0.352457 0 
0.670836 -0.354397 0 
0.722893 -0.355952 0 
0.775038 -0.357323 0 
0.827419 -0.358581 0 
0.879943 -0.359894 0 
0.93426 -0.356593 0 
-0.952721 -0.303845 0 
-0.898929 -0.308871 0 
-0.847481 -0.306888 0 
-0.795641 -0.305781 0 
-0.743684 -0.304815 0 
-0.691387 -0.303722 0 
-0.639219 -0.302427 0 
-0.586897 -0.300977 0 
-0.534146 -0.301574 0 
-0.48291 -0.299695 0 
-0.432968 -0.295416 0 
-0.381507 -0.30136 0 
-0.336232 -0.29839 0 
-0.288184 -0.288184 0 
-0.242975 -0.290577 0 
-0.198059 -0.315051 0 
-0.148383 -0.285894 0 
-0.0994753 -0.313232 0 
-0.0507184 -0.283118 0 
-0.000202902 -0.313447 0 
0.0500077 -0.282824 0 
0.0988289 -0.312817 0 
0.148102 -0.28482 0 
0.195742 -0.317413 0 
0.240766 -0.295824 0 
0.285014 -0.285014 0 
0.332889 -0.295348 0 
0.379789 -0.301746 0 
0.432268 -0.296569 0 
0.483005 -0.299839 0 
0.534348 -0.301273 0 
0.587085 -0.30086 0 
0.639359 -0.302407 0 
0.691518 -0.303753 0 
0.743741 -0.304862 0 
0.795701 -0.305831 0 
0.847482 -0.306946 0 
0.898924 -0.308979 0 
0.952687 -0.303953 0 
-0.96803 -0.250833 0 
-0.916037 -0.258282 0 
-0.866979 -0.254732 0 
-0.816639 -0.25358 0 
-0.765535 -0.252907 0 
-0.71362 -0.252254 0 
-0.661417 -0.251503 0 
-0.608767 -0.250543 0 
-0.555692 -0.250874 0 
-0.503 -0.250032 0 
-0.450633 -0.247004 0 
-0.395692 -0.25021 0 
-0.342529 -0.249846 0 
-0.290577 -0.242975 0 
-0.239946 -0.239946 0 
-0.194478 -0.26004 0 
-0.151293 -0.23238 0 
-0.101048 -0.260904 0 
-0.0503938 -0.232537 0 
-0.000203281 -0.262984 0 
0.050638 -0.232316 0 
0.100942 -0.260855 0 
0.152412 -0.232597 0 
0.195768 -0.261421 0 
0.241873 -0.241873 0 
0.295824 -0.240766 0 
0.345582 -0.24763 0 
0.396905 -0.25086 0 
0.450921 -0.247983 0 
[...]
POINT_DATA 1245 
VECTORS vectors float
0.480222 -0.196607 0.854829 
0.473111 -0.216742 0.853925 
0.420409 -0.210046 0.882688 
0.365968 -0.189731 0.911081 
0.33568 -0.111885 0.935308 
0.320259 -0.041763 0.946409 
0.322246 0.0372386 0.945923 
0.375615 0.0997122 0.921396 
0.4154 0.133621 0.899771 
0.441093 0.142808 0.886026 
0.461884 0.159419 0.872496 
0.473847 0.133107 0.870489 
0.468001 0.16019 0.869088 
0.469914 -0.181728 0.863803 
0.48123 -0.184183 0.857027 
0.366795 -0.156076 0.917116 
0.361825 -0.166076 0.917334 
0.353025 -0.164899 0.920968 
0.28806 -0.13344 0.94827 
0.277702 -0.0944951 0.956008 
0.242128 -0.0291647 0.969806 
0.263677 0.0231174 0.964334 
0.275116 0.0585792 0.959625 
0.330143 0.103629 0.938225 
0.330618 0.10994 0.937339 
0.374919 0.118686 0.919429 
0.359882 0.117155 0.925613 
0.354116 0.13102 0.925978 
0.457909 0.159407 0.874591 
0.43891 0.15894 0.884362 
0.432811 -0.200228 0.878967 
0.449101 -0.188624 0.873344 
0.360141 -0.151099 0.92058 
0.366671 -0.149297 0.918293 
0.27937 -0.129497 0.951411 
0.274231 -0.128388 0.953055 
0.265987 -0.126984 0.955576 
0.212742 -0.0881329 0.973125 
0.215584 -0.0625341 0.974481 
0.190445 -0.0155963 0.981574 
0.212013 0.0116159 0.977198 
0.201574 0.0322512 0.978942 
0.245627 0.0726077 0.966641 
0.236753 0.077784 0.968451 
0.287244 0.0911301 0.953513 
0.270951 0.0932112 0.95807 
0.264116 0.10476 0.958785 
0.348478 0.130552 0.928181 
0.333791 0.13653 0.932707 
0.419489 0.185194 0.888669 
0.388328 0.1816 0.90345 
0.412148 -0.214562 0.885493 
0.329213 -0.164262 0.929858 
0.347625 -0.157428 0.924323 
0.274152 -0.125685 0.953438 
0.282997 -0.123525 0.951133 
0.214553 -0.102204 0.97135 
0.204866 -0.100298 0.973638 
0.200331 -0.0896853 0.975615 
0.152402 -0.0603371 0.986475 
0.164986 -0.045447 0.985248 
0.141344 -0.0212719 0.989732 
0.168372 0.000449094 0.985723 
0.143522 0.0148914 0.989535 
0.17463 0.0485444 0.983437 
0.161517 0.0516765 0.985516 
0.213336 0.0642068 0.974867 
0.19962 0.0708696 0.977307 
0.196058 0.0762318 0.977625 
0.258159 0.104525 0.960431 
0.238338 0.115129 0.964334 
0.311261 0.149434 0.938502 
0.290299 0.159504 0.943549 
0.352941 0.220068 0.909397 
0.314021 -0.255918 0.914274 
0.357611 -0.226803 0.905911 
0.297219 -0.172474 0.939103 
0.238198 -0.130061 0.962469 
0.25906 -0.130136 0.957054 
0.199028 -0.100351 0.974842 
0.213056 -0.0995056 0.97196 
0.152572 -0.0746528 0.985469 
0.148279 -0.0693156 0.986513 
0.1475 -0.0590321 0.987299 
0.111889 -0.0416533 0.992847 
0.11729 -0.0387618 0.992341 
0.0898886 -0.0244319 0.995652 
0.116436 -0.00818614 0.993164 
0.0933795 0.00787553 0.995599 
0.118323 0.0323911 0.992447 
0.103691 0.0326236 0.994074 
0.14729 0.0428613 0.988164 
0.142445 0.0456079 0.988751 
0.140041 0.0522873 0.988764 
0.182482 0.0819001 0.979792 
0.163748 0.0991664 0.981505 
0.22317 0.127593 0.966393 
0.213277 0.133257 0.967861 
0.268135 0.185385 0.945376 
0.329082 0.260952 0.907529 
0.301077 0.293464 0.907321 
0.267515 -0.307098 0.913305 
0.238764 -0.226661 0.944254 
0.262354 -0.189153 0.946251 
0.215466 -0.135716 0.967034 
0.175012 -0.102085 0.97926 
0.184577 -0.102005 0.97751 
0.129325 -0.0752746 0.988741 
0.144327 -0.0705264 0.987014 
0.0997141 -0.0460936 0.993948 
0.100119 -0.0459704 0.993913 
0.105254 -0.0415141 0.993578 
0.0788667 -0.0394318 0.996105 
0.0804967 -0.0362617 0.996095 
0.0587347 -0.0250063 0.99796 
0.0714245 -0.0111687 0.997383 
0.0596093 0.00078582 0.998221 
0.0761836 0.0202159 0.996889 
0.0639172 0.0195539 0.997764 
0.0944461 0.0257972 0.995196 
0.096564 0.0270848 0.994958 
0.0921807 0.0313694 0.995248 
0.125951 0.0624798 0.990067 
0.116591 0.0778225 0.990126 
0.160758 0.105773 0.98131 
0.151196 0.110875 0.982266 
0.190618 0.156893 0.969046 
0.239665 0.217886 0.94609 
0.225801 0.252599 0.940855 
0.291876 0.325238 0.89946 
0.247607 -0.360075 0.899465 
0.212643 -0.26633 0.940134 
0.18282 -0.192973 0.964022 
0.193235 -0.157503 0.968428 
0.157435 -0.114829 0.980831 
0.128036 -0.0844237 0.98817 
0.128788 -0.0775157 0.988638 
0.0796826 -0.0581771 0.995121 
0.0909857 -0.0536138 0.994408 
0.0724654 -0.0334364 0.99681 
0.0672384 -0.0296434 0.997296 
0.0681411 -0.0353584 0.997049 
0.0445395 -0.0398135 0.998214 
0.0544274 -0.0373617 0.997818 
0.0401065 -0.0252339 0.998877 
0.048984 -0.0141947 0.998699 
0.0345228 -0.00516296 0.999391 
0.0449466 0.00827605 0.998955 
0.0388871 0.00644665 0.999223 
0.0633783 0.0130517 0.997904 
0.0620988 0.0133341 0.997981 
0.0506738 0.0215409 0.998483 
0.0828736 0.0452997 0.99553 
0.0774767 0.056796 0.995375 
0.112275 0.0815622 0.990324 
0.10102 0.0950371 0.990335 
0.128381 0.136266 0.982319 
0.165096 0.18877 0.968044 
0.158833 0.206402 0.96549 
0.199488 0.266998 0.942824 
0.241618 0.334358 0.910948 
0.269999 -0.390088 0.880302 
0.205903 -0.289202 0.934862 
0.163881 -0.20224 0.965527 
0.138193 -0.140517 0.980387 
0.113146 -0.102835 0.988242 
0.0889842 -0.0720939 0.99342 
0.0863271 -0.0598216 0.994469 
0.0532587 -0.0497446 0.997341 
0.0598703 -0.0465443 0.99712 
0.051003 -0.0279785 0.998307 
0.0461273 -0.0202715 0.99873 
0.0379311 -0.0296987 0.998839 
0.0183431 -0.029453 0.999398 
0.0278238 -0.0312162 0.999125 
0.0165966 -0.0183709 0.999693 
0.0297398 -0.0133629 0.999468 
0.0131737 -0.00355186 0.999907 
0.0187593 -0.000394035 0.999824 
0.018383 -0.00419676 0.999822 
0.0428847 0.0045197 0.99907 
0.0331113 0.00922169 0.999409 
0.02036 0.0164024 0.999658 
0.0455274 0.0322594 0.998442 
0.0441818 0.0439427 0.998057 
0.0691824 0.0632584 0.995596 
0.062994 0.0755182 0.995153 
0.101848 0.115714 0.988047 
0.121922 0.155536 0.980277 
0.137075 0.208332 0.968405 
0.169748 0.273286 0.946837 
0.213582 0.356492 0.909558 
0.272843 -0.39184 0.878646 
0.212395 -0.307346 0.927592 
0.15898 -0.228234 0.960539 
0.123289 -0.1548 0.980223 
0.102107 -0.112801 0.988357 
0.0807444 -0.0841216 0.993179 
0.0665699 -0.056898 0.996158 
0.0628356 -0.0444572 0.997033 
0.0396354 -0.0357352 0.998575 
0.0416699 -0.0401697 0.998324 
0.0265268 -0.0198063 0.999452 
0.0279506 -0.0207332 0.999394 
0.0210205 -0.0256927 0.999449 
0.0119045 -0.0230185 0.999664 
0.00838844 -0.0185118 0.999793 
-0.00166144 -0.0148444 0.999888 
0.0089227 -0.00987039 0.999911 
0.00572726 -0.00568371 0.999967 
0.00392788 -0.00689981 0.999968 
0.00163502 -0.0113558 0.999934 
0.0193543 0.000674732 0.999812 
0.00967648 0.0102002 0.999901 
0.00699116 0.0115942 0.999908 
0.0229332 0.0270614 0.999371 
0.0210911 0.0338777 0.999203 
0.0344396 0.0510203 0.998104 
0.0352711 0.0575974 0.997717 
0.0632445 0.0846875 0.994398 
0.0922396 0.127457 0.987546 
0.102876 0.162026 0.981409 
0.124256 0.230862 0.96502 
0.152362 0.302702 0.940828 
0.1743 0.383762 0.906833 
0.272008 -0.384318 0.882219 
0.214207 -0.306439 0.927475 
0.159453 -0.24016 0.957548 
0.112663 -0.177251 0.977696 
0.0892271 -0.121507 0.988572 
0.0747185 -0.088037 0.993311 
0.061464 -0.0653336 0.995969 
0.0500334 -0.0385255 0.998004 
0.0487322 -0.0331864 0.99826 
0.0276641 -0.0248202 0.999309 
0.0219932 -0.0257205 0.999427 
0.0109056 -0.0112856 0.999877 
0.0135018 -0.0235187 0.999632 
0.0141688 -0.0309871 0.999419 
0.00531094 -0.022364 0.999736 
-0.000185469 -0.0126758 0.99992 
-0.00988029 -0.0179538 0.99979 
-0.000675928 -0.0140026 0.999902 
0.00310731 -0.0149741 0.999883 
0.000370117 -0.0148261 0.99989 
-0.00924901 -0.015959 0.99983 
-5.05535e-05 0.00114468 0.999999 
-0.00287388 0.00453685 0.999986 
-0.00338009 0.0012104 0.999994 
0.00867944 0.0168182 0.999821 
0.000204769 0.0203804 0.999792 
0.0142531 0.0352956 0.999275 
0.0129903 0.0411476 0.999069 
0.0276806 0.0672702 0.997351 
0.0428339 0.0945432 0.994599 
0.0613525 0.140362 0.988198 
0.0866328 0.192613 0.977443 
0.111655 0.259032 0.959393 
0.130328 0.336431 0.932646 
0.136746 0.438213 0.888409 
0.232755 -0.374235 0.897649 
0.195474 -0.298269 0.934251 
0.155709 -0.230746 0.960474 
0.107322 -0.177483 0.978254 
0.0711053 -0.130144 0.988942 
0.0569139 -0.0905209 0.994267 
0.0486271 -0.0623976 0.996866 
0.0340846 -0.0413623 0.998563 
0.0256013 -0.0283538 0.99927 
0.0107588 -0.0252428 0.999623 
0.00927624 -0.0153664 0.999839 
0.00472051 -0.0100001 0.999939 
0.00467008 -0.0221625 0.999743 
0.006005 -0.0334892 0.999421 
-0.00967521 -0.0166865 0.999814 
-0.00927846 -0.0111632 0.999895 
-0.013427 -0.01849 0.999739 
-0.00471523 -0.0206931 0.999775 
-0.00993614 -0.0222931 0.999702 
-0.00898093 -0.0241139 0.999669 
-0.0211914 -0.019607 0.999583 
-0.0118986 -0.00319459 0.999924 
-0.0101606 -0.00384027 0.999941 
-0.0148475 -0.00544969 0.999875 
-0.00787284 0.00792909 0.999938 
-0.0115686 0.00950406 0.999888 
-0.000837889 0.0229703 0.999736 
0.0113282 0.0498281 0.998694 
0.0147607 0.0725061 0.997259 
0.0276161 0.099853 0.994619 
0.049857 0.145326 0.988127 
0.074249 0.208534 0.975193 
0.0966291 0.280779 0.954896 
0.120705 0.36845 0.921778 
0.153282 0.485036 0.860956 
0.16851 -0.371814 0.912885 
0.150076 -0.296659 0.943117 
0.130053 -0.223759 0.965929 
0.103888 -0.165821 0.980669 
0.0684247 -0.123496 0.989983 
0.0474376 -0.0875492 0.99503 
0.0380431 -0.0593246 0.997514 
0.0273555 -0.0374201 0.998925 
0.0151334 -0.0228101 0.999625 
0.00680634 -0.0210517 0.999755 
-0.000898201 -0.020908 0.999781 
0.00119406 -0.0177486 0.999842 
-0.00715011 -0.0134902 0.999883 
-0.00219497 -0.0190745 0.999816 
-0.00596766 -0.0252935 0.999662 
-0.0160816 -0.015618 0.999749 
-0.0172266 -0.0113653 0.999787 
-0.0136129 -0.021544 0.999675 
-0.0119334 -0.0211496 0.999705 
-0.0194562 -0.0257866 0.999478 
-0.0232372 -0.0305748 0.999262 
-0.0233054 -0.0241917 0.999436 
-0.016533 -0.00976808 0.999816 
-0.0209148 -0.0105428 0.999726 
-0.0167856 -0.00440282 0.999849 
-0.0153331 0.00218044 0.99988 
-0.0100762 0.00603004 0.999931 
-0.010014 0.0149795 0.999838 
-0.00292786 0.0377275 0.999284 
0.00793826 0.0580399 0.998283 
0.0168748 0.0734905 0.997153 
0.0313099 0.104162 0.994067 
0.0475313 0.1564 0.986549 
0.0593192 0.221431 0.97337 
0.0831656 0.296871 0.951289 
0.117881 0.391188 0.91273 
0.152114 0.507737 0.847977 
0.129946 -0.4033 0.905794 
0.113311 -0.310272 0.943871 
0.100673 -0.232878 0.967281 
0.0894985 -0.167186 0.981855 
0.0713954 -0.12122 0.990055 
0.0479385 -0.083703 0.995337 
0.0344572 -0.0537869 0.997958 
0.0264944 -0.034764 0.999044 
0.0169588 -0.0218525 0.999617 
0.0090986 -0.0103261 0.999905 
-0.000105239 -0.0118041 0.99993 
-0.0114615 -0.0168501 0.999792 
-0.0166679 -0.0134879 0.99977 
-0.00701569 -0.0183036 0.999808 
-0.00957121 -0.0198284 0.999758 
-0.0163052 -0.0221893 0.999621 
-0.0174786 -0.0218396 0.999609 
-0.0154977 -0.0275998 0.999499 
-0.0150935 -0.0197953 0.99969 
-0.0174041 -0.0235765 0.999571 
-0.0233296 -0.0317335 0.999224 
-0.0210637 -0.0194298 0.999589 
-0.0222497 -0.0112691 0.999689 
-0.0216595 -0.0113211 0.999701 
-0.0264727 -0.0104369 0.999595 
-0.00577934 -0.00527731 0.999969 
-0.00629353 0.0070336 0.999955 
-0.0163895 0.0268817 0.999504 
-0.00712351 0.0441663 0.998999 
0.00103686 0.0593868 0.998235 
0.0105293 0.0808331 0.996672 
0.0275569 0.120218 0.992365 
0.0413996 0.170546 0.98448 
0.0545015 0.233074 0.97093 
0.0807223 0.307417 0.948145 
0.121464 0.402727 0.907225 
0.160028 0.517912 0.840332 
0.0968259 -0.441457 0.892043 
0.0958899 -0.331118 0.938704 
0.0841249 -0.243026 0.966365 
0.0782659 -0.175893 0.981293 
0.0645175 -0.126532 0.989862 
0.0418385 -0.0865517 0.995368 
0.0249667 -0.0525076 0.998308 
0.0180012 -0.0357149 0.9992 
0.0129287 -0.0265134 0.999565 
0.00682536 -0.0172523 0.999828 
-0.00102168 -0.00919528 0.999957 
-0.00905707 -0.00763408 0.99993 
-0.0213985 -0.00836126 0.999736 
-0.00696518 -0.0124067 0.999899 
-0.00839751 -0.0131353 0.999878 
-0.00503417 -0.0204056 0.999779 
-0.0178074 -0.0251759 0.999524 
-0.019724 -0.0337795 0.999235 
-0.0193061 -0.0288831 0.999396 
-0.0149115 -0.0193816 0.999701 
-0.014869 -0.0217982 0.999652 
-0.0165562 -0.0262565 0.999518 
-0.0237672 -0.0152279 0.999602 
-0.0233323 -0.0126809 0.999647 
-0.0319331 -0.0116232 0.999422 
-0.0285449 -0.0174382 0.99944 
-0.0167891 -0.0108569 0.9998 
-0.0134187 -0.00704633 0.999885 
-0.0192516 0.0140652 0.999716 
-0.0165631 0.0266312 0.999508 
-0.00731881 0.0381544 0.999245 
-0.00358483 0.0562742 0.998409 
0.00446547 0.0856197 0.996318 
0.0279102 0.120658 0.992302 
0.0471771 0.170452 0.984236 
0.0612279 0.230459 0.971154 
0.0962352 0.309458 0.946031 
0.133047 0.403031 0.905464 
0.176211 0.506055 0.844309 
0.0904612 -0.472037 0.876925 
0.0839636 -0.35113 0.932555 
0.0746638 -0.258502 0.963121 
0.063665 -0.184768 0.980718 
0.0503464 -0.134482 0.989636 
0.0311667 -0.0944263 0.995044 
0.0145535 -0.0594459 0.998125 
0.0106346 -0.0349059 0.999334 
0.00904265 -0.0269519 0.999596 
0.000564928 -0.0202218 0.999795 
-0.00416352 -0.0130982 0.999906 
-0.00705115 -0.0108157 0.999917 
-0.00743333 -0.00902698 0.999932 
-0.0124735 -0.00654558 0.999901 
-0.00225295 -0.0131919 0.99991 
-0.00937093 -0.0150851 0.999842 
-0.0177194 -0.0182671 0.999676 
-0.0231782 -0.0312314 0.999243 
-0.0214893 -0.0251104 0.999454 
-0.0194186 -0.0190433 0.99963 
-0.0205714 -0.0239085 0.999502 
-0.0213732 -0.0205424 0.999561 
-0.0281606 -0.0181483 0.999439 
-0.0267472 -0.0170674 0.999497 
-0.0220107 -0.021979 0.999516 
-0.0314917 -0.00836123 0.999469 
-0.034885 -0.00963223 0.999345 
-0.0287782 0.00398285 0.999578 
-0.0259113 0.0106405 0.999608 
-0.0090877 0.0176732 0.999803 
0.0026063 0.0324767 0.999469 
0.00282438 0.0553429 0.998463 
0.0138598 0.0804579 0.996662 
0.0331559 0.117757 0.992489 
0.043775 0.165788 0.985189 
0.0642563 0.228942 0.971317 
0.0928689 0.308176 0.946786 
0.133842 0.399978 0.906699 
0.163183 0.493205 0.854471 
0.112975 -0.489014 0.864929 
0.0871048 -0.382945 0.919655 
0.0687334 -0.288058 0.955143 
0.0526076 -0.210018 0.976281 
0.0405208 -0.149009 0.988005 
0.0271314 -0.105549 0.994044 
0.0155441 -0.0707166 0.997375 
0.0132325 -0.0424717 0.99901 
0.0138847 -0.0224685 0.999651 
0.00749028 -0.0103303 0.999919 
-0.00137331 -0.00631123 0.999979 
-0.00212843 -0.00917957 0.999956 
-0.00339176 -0.00961083 0.999948 
-0.00628831 -0.0077285 0.99995 
-0.0144453 -0.00851869 0.999859 
-0.0160136 -0.0122265 0.999797 
-0.0179543 -0.0177532 0.999681 
-0.01901 -0.0244673 0.99952 
-0.019338 -0.0244858 0.999513 
-0.022266 -0.0220471 0.999509 
-0.0216671 -0.0247883 0.999458 
-0.022188 -0.0201511 0.999551 
-0.0246421 -0.0193391 0.999509 
-0.018542 -0.0271994 0.999458 
-0.0156022 -0.0190914 0.999696 
-0.0261728 -0.00154181 0.999656 
-0.030062 0.00299294 0.999544 
-0.0291442 0.00124445 0.999574 
-0.019538 0.00312729 0.999804 
-0.00823156 0.0172875 0.999817 
-0.000595489 0.0406066 0.999175 
0.00582226 0.0588615 0.998249 
0.016993 0.0880981 0.995967 
0.0279682 0.132451 0.990795 
0.0390938 0.17702 0.98343 
0.0571577 0.234709 0.970384 
0.0906387 0.317892 0.943785 
0.117362 0.405078 0.906718 
0.152432 0.482141 0.862731 
0.116212 -0.472072 0.873866 
0.0823509 -0.350865 0.932798 
0.0591881 -0.250397 0.966332 
0.0428935 -0.17216 0.984135 
0.031107 -0.114857 0.992895 
0.022223 -0.0776344 0.996734 
0.0148664 -0.0509939 0.998588 
0.010513 -0.0271653 0.999576 
0.00659105 -0.00966012 0.999932 
0.0011694 0.000461735 0.999999 
-0.00293225 -0.00152826 0.999995 
-0.0055795 -0.00757661 0.999956 
-0.0125112 -0.00579364 0.999905 
-0.0185232 -0.00718192 0.999803 
-0.0209419 -0.0147077 0.999673 
-0.0201706 -0.0200229 0.999596 
-0.0161698 -0.0251023 0.999554 
-0.0152049 -0.0261921 0.999541 
-0.0164635 -0.0262403 0.99952 
-0.0217101 -0.0218833 0.999525 
-0.0212821 -0.0208767 0.999556 
-0.0206603 -0.0178738 0.999627 
-0.0192476 -0.0170286 0.99967 
-0.0195856 -0.0269362 0.999445 
-0.0151884 -0.025617 0.999556 
-0.0172677 -0.0099377 0.999802 
-0.0191032 -0.00180936 0.999816 
-0.0154129 -0.00327008 0.999876 
-0.0149634 -0.00573882 0.999872 
-0.0198131 0.00314291 0.999799 
-0.0179249 0.0275081 0.999461 
-0.0112707 0.0454072 0.998905 
0.00010164 0.0637835 0.997964 
0.0165042 0.104781 0.994358 
0.0337406 0.14652 0.988632 
0.0542316 0.187271 0.98081 
0.0712708 0.263333 0.962069 
0.105328 0.365178 0.92496 
0.144601 0.464476 0.8737 
0.0978314 -0.443909 0.890715 
0.0805787 -0.35724 0.93053 
0.06054 -0.270181 0.960904 
0.0425829 -0.192359 0.9804 
0.0285547 -0.127558 0.99142 
0.0197208 -0.080451 0.996563 
0.0121554 -0.0507767 0.998636 
0.00302572 -0.0312179 0.999508 
-0.00349357 -0.0165101 0.999858 
-0.00465127 -0.00533975 0.999975 
-0.00578323 -0.000234811 0.999983 
-0.0115148 -0.00305678 0.999929 
-0.0168348 -0.00630836 0.999838 
-0.0184905 -0.00686356 0.999805 
-0.0179111 -0.0151538 0.999725 
-0.0149831 -0.0242955 0.999593 
-0.0171961 -0.0242142 0.999559 
-0.0179599 -0.0279701 0.999447 
-0.0144775 -0.028247 0.999496 
-0.0251709 -0.0303532 0.999222 
-0.0233127 -0.0220586 0.999485 
-0.0230846 -0.0221682 0.999488 
-0.0233655 -0.0253089 0.999407 
-0.0231485 -0.0235691 0.999454 
-0.0239569 -0.015018 0.9996 
-0.0222883 -0.00782865 0.999721 
-0.0165638 -0.00526866 0.999849 
-0.0122451 -0.00344868 0.999919 
-0.0127473 -0.000901173 0.999918 
-0.0154646 0.0105356 0.999825 
-0.0154169 0.0306247 0.999412 
-0.00943616 0.046125 0.998891 
0.00196084 0.0713428 0.99745 
0.0199042 0.109816 0.993753 
0.0380779 0.145515 0.988623 
0.0537278 0.199645 0.978394 
0.0738788 0.282132 0.956527 
0.0996336 0.368098 0.924433 
0.122208 0.44762 0.885834 
0.0805883 -0.434618 0.897002 
0.0594018 -0.318236 0.946149 
0.0404517 -0.223104 0.973955 
0.0244805 -0.151893 0.988094 
0.0144631 -0.0966323 0.995215 
0.00942825 -0.0560072 0.998386 
0.00545648 -0.029783 0.999541 
0.00128871 -0.016832 0.999858 
-0.000362697 -0.00940545 0.999956 
-0.00261048 0.00136291 0.999996 
-0.00769553 0.00321877 0.999965 
-0.0123289 -0.00260153 0.999921 
-0.0147893 -0.00348958 0.999885 
-0.0122284 -0.010161 0.999874 
-0.0109127 -0.0211618 0.999717 
-0.014167 -0.016431 0.999765 
-0.016814 -0.0140576 0.99976 
-0.0183688 -0.0212522 0.999605 
-0.0385773 -0.0556805 0.997703 
-0.00495432 -0.00493398 0.999976 
-0.0409609 -0.0501375 0.997902 
-0.0222771 -0.0262517 0.999407 
-0.0215277 -0.0300284 0.999317 
-0.0212276 -0.0235443 0.999497 
-0.0214625 -0.013416 0.99968 
-0.0187333 -0.00772117 0.999795 
-0.0198748 -0.0061968 0.999783 
-0.020408 0.00148205 0.999791 
-0.0162948 0.00402632 0.999859 
-0.00840355 -0.000408954 0.999965 
-0.00317082 0.0117371 0.999926 
-0.00530471 0.0348243 0.999379 
-0.00400452 0.054593 0.998501 
0.00488932 0.0775668 0.996975 
0.0139601 0.108098 0.994042 
0.0239369 0.158116 0.98713 
0.0425627 0.23299 0.971547 
0.0703238 0.319716 0.9449 
0.0945401 0.430769 0.897497 
0.0488728 -0.410815 0.910408 
0.0389019 -0.328874 0.943572 
0.031175 -0.250816 0.967533 
0.0219482 -0.176167 0.984116 
0.017503 -0.11815 0.992841 
0.0152169 -0.073906 0.997149 
0.0121347 -0.0397505 0.999136 
0.0107685 -0.0209062 0.999723 
0.00910552 -0.0125525 0.99988 
0.00351834 -0.000511789 0.999994 
-0.00310133 0.00962315 0.999949 
-0.00686755 0.00599839 0.999958 
-0.00757588 0.000521488 0.999971 
-0.00968103 -0.000949396 0.999953 
-0.013354 -0.0107866 0.999853 
-0.0130041 -0.0150804 0.999802 
-0.0132236 -0.000198005 0.999913 
-0.0239968 -0.0099914 0.999662 
-0.00218439 -0.00470965 0.999987 
0.0160163 0.0238496 0.999587 
-0.00504546 -0.00020626 0.999987 
-0.0205083 -0.0287715 0.999376 
-0.0189062 -0.0150222 0.999708 
-0.0226914 -0.0119881 0.999671 
-0.0187293 -0.0118936 0.999754 
-0.0134391 -0.0114213 0.999844 
-0.0161516 -0.00525583 0.999856 
-0.0189852 -0.0012282 0.999819 
-0.0115325 -0.00499122 0.999921 
-0.00350673 -0.000328321 0.999994 
-0.00599762 0.0230754 0.999716 
-0.0103153 0.0452258 0.998924 
-0.00460343 0.0604505 0.998161 
0.00296297 0.0805077 0.99675 
0.00469575 0.11908 0.992874 
0.0136701 0.182242 0.983159 
0.0345927 0.249424 0.967776 
0.0579452 0.316501 0.946821 
0.0849777 0.391914 0.916069 
-0.00376761 -0.393952 0.919123 
0.00831425 -0.302062 0.953252 
0.00706916 -0.212483 0.977139 
0.00907663 -0.142503 0.989753 
0.0149615 -0.0912781 0.995713 
0.0127877 -0.0559212 0.998353 
0.00785318 -0.0321796 0.999451 
0.00532745 -0.019867 0.999788 
0.000216207 -0.00945971 0.999955 
-0.00653288 0.00427773 0.99997 
-0.00689066 0.00513986 0.999963 
-0.00384864 -0.000210257 0.999993 
-0.00610833 0.00112069 0.999981 
-0.00925856 -0.00854608 0.999921 