# vtk DataFile Version 3.0 
Exported using Morpho https://github.com/Morpho-lang/morpho 
ASCII 
DATASET UNSTRUCTURED_GRID 

POINTS 1245 float 
-0.303845 -0.952721 0 
-0.250833 -0.96803 0 
-0.195084 -0.980787 0 
-0.146308 -0.989239 0 
-0.0940719 -0.995565 0 
-0.0475118 -0.998871 0 
-0.000246339 -1 0 
0.0470875 -0.998891 0 
0.0937543 -0.995595 0 
0.146139 -0.989264 0 
0.195062 -0.980791 0 
0.250843 -0.968028 0 
0.303953 -0.952687 0 
-0.409153 -0.912466 0 
-0.356519 -0.934288 0 
-0.308871 -0.898929 0 
-0.258282 -0.916037 0 
-0.207345 -0.934859 0 
-0.154868 -0.930629 0 
-0.104343 -0.948989 0 
-0.0520099 -0.939193 0 
-8.5762e-05 -0.954582 0 
0.0518744 -0.939288 0 
0.104354 -0.949042 0 
0.154696 -0.9306 0 
0.207366 -0.934975 0 
0.258274 -0.916081 0 
0.308979 -0.898924 0 
0.356593 -0.93426 0 
0.409236 -0.912429 0 
-0.513788 -0.857917 0 
-0.461695 -0.887039 0 
-0.411157 -0.857936 0 
-0.359855 -0.879963 0 
-0.306888 -0.847481 0 
-0.254732 -0.866979 0 
-0.201991 -0.889059 0 
-0.149956 -0.874108 0 
-0.100608 -0.900088 0 
-0.0497575 -0.880388 0 
2.4595e-05 -0.904789 0 
0.0496869 -0.8804 0 
0.100612 -0.900177 0 
0.149872 -0.874171 0 
0.202071 -0.889165 0 
0.254695 -0.867031 0 
0.306946 -0.847482 0 
0.359894 -0.879943 0 
0.411236 -0.857929 0 
0.461748 -0.887011 0 
0.513842 -0.857885 0 
-0.564741 -0.825268 0 
-0.512908 -0.802945 0 
-0.462372 -0.832348 0 
-0.410124 -0.804631 0 
-0.358606 -0.827415 0 
-0.305781 -0.795641 0 
-0.25358 -0.816639 0 
-0.200756 -0.839997 0 
-0.149043 -0.818944 0 
-0.0987265 -0.846667 0 
-0.0490473 -0.822548 0 
5.00659e-05 -0.849932 0 
0.0490834 -0.822542 0 
0.0987838 -0.846676 0 
0.148997 -0.818924 0 
0.200826 -0.840131 0 
0.253508 -0.816728 0 
0.305831 -0.795701 0 
0.358581 -0.827419 0 
0.410181 -0.804654 0 
0.462414 -0.83234 0 
0.512965 -0.802929 0 
0.564777 -0.825243 0 
-0.660798 -0.750564 0 
-0.614015 -0.789295 0 
-0.561786 -0.769772 0 
-0.510673 -0.747856 0 
-0.460836 -0.778365 0 
-0.408794 -0.751554 0 
-0.357337 -0.774971 0 
-0.304815 -0.743684 0 
-0.252907 -0.765535 0 
-0.200631 -0.789263 0 
-0.149244 -0.764328 0 
-0.0986912 -0.791935 0 
-0.0492815 -0.765764 0 
4.16586e-05 -0.79382 0 
0.0492411 -0.765708 0 
0.0987508 -0.791951 0 
0.149196 -0.764326 0 
0.200666 -0.789356 0 
0.252841 -0.765599 0 
0.304862 -0.743741 0 
0.357323 -0.775038 0 
0.408863 -0.751626 0 
0.460863 -0.778382 0 
0.510716 -0.747859 0 
0.561819 -0.769761 0 
0.614041 -0.789274 0 
0.660811 -0.750552 0 
-0.707107 -0.707107 0 
-0.654819 -0.699058 0 
-0.60813 -0.73348 0 
-0.558104 -0.71337 0 
-0.509495 -0.692659 0 
-0.45935 -0.724356 0 
-0.407328 -0.698865 0 
-0.355968 -0.722823 0 
-0.303722 -0.691387 0 
-0.252254 -0.71362 0 
-0.20067 -0.737336 0 
-0.149608 -0.710068 0 
-0.0991558 -0.737129 0 
-0.0495872 -0.709825 0 
-2.23646e-05 -0.737917 0 
0.0494408 -0.709766 0 
0.0991291 -0.737116 0 
0.149502 -0.710042 0 
0.200696 -0.73743 0 
0.252186 -0.713735 0 
0.303753 -0.691518 0 
0.355952 -0.722893 0 
0.407371 -0.698945 0 
0.459374 -0.724407 0 
0.509524 -0.692668 0 
0.558131 -0.713361 0 
0.608151 -0.733462 0 
0.654824 -0.699048 0 
0.707107 -0.707107 0 
-0.750564 -0.660798 0 
-0.699058 -0.654819 0 
-0.647692 -0.647692 0 
-0.603437 -0.675718 0 
-0.55905 -0.655305 0 
-0.508501 -0.639581 0 
-0.457509 -0.671321 0 
-0.405555 -0.646545 0 
-0.354417 -0.670703 0 
-0.302427 -0.639219 0 
-0.251503 -0.661417 0 
-0.20061 -0.684911 0 
-0.149717 -0.655943 0 
-0.0995004 -0.682466 0 
-0.0498216 -0.654561 0 
-5.02113e-05 -0.682664 0 
0.0496787 -0.654499 0 
0.0994374 -0.682501 0 
0.149603 -0.655909 0 
0.200573 -0.684972 0 
0.251388 -0.661524 0 
0.302407 -0.639359 0 
0.354397 -0.670836 0 
0.405575 -0.646641 0 
0.457525 -0.67138 0 
0.508497 -0.639623 0 
0.559063 -0.655324 0 
0.603436 -0.675715 0 
0.64769 -0.64769 0 
0.699048 -0.654824 0 
0.750552 -0.660811 0 
-0.789295 -0.614015 0 
-0.73348 -0.60813 0 
-0.675718 -0.603437 0 
-0.613088 -0.613088 0 
-0.55962 -0.604068 0 
-0.506189 -0.588854 0 
-0.455505 -0.618874 0 
-0.403019 -0.594688 0 
-0.352514 -0.618952 0 
-0.300977 -0.586897 0 
-0.250543 -0.608767 0 
-0.200257 -0.632053 0 
-0.150049 -0.601979 0 
-0.0998281 -0.628222 0 
-0.0500377 -0.599914 0 
-3.12334e-05 -0.628076 0 
0.0498927 -0.599835 0 
0.0997818 -0.628253 0 
0.149924 -0.601867 0 
0.200214 -0.632118 0 
0.250423 -0.608915 0 
0.30086 -0.587085 0 
0.352457 -0.619096 0 
0.402948 -0.594743 0 
0.455483 -0.618952 0 
0.506147 -0.588901 0 
0.55964 -0.604067 0 
0.613069 -0.613069 0 
0.675715 -0.603436 0 
0.733462 -0.608151 0 
0.789274 -0.614041 0 
-0.825268 -0.564741 0 
-0.769772 -0.561786 0 
-0.71337 -0.558104 0 
-0.655305 -0.55905 0 
-0.604068 -0.55962 0 
-0.551031 -0.551031 0 
-0.497922 -0.537596 0 
-0.451508 -0.567021 0 
-0.399773 -0.542431 0 
-0.350494 -0.567003 0 
-0.301574 -0.534146 0 
-0.250874 -0.555692 0 
-0.200542 -0.579013 0 
-0.150324 -0.548268 0 
-0.100169 -0.57443 0 
-0.0500152 -0.545912 0 
-3.29278e-05 -0.574268 0 
0.0499208 -0.545788 0 
0.100058 -0.574485 0 
0.150038 -0.548073 0 
0.200377 -0.579041 0 
0.250556 -0.55585 0 
0.301273 -0.534348 0 
0.350318 -0.567174 0 
0.399615 -0.542384 0 
0.451404 -0.5671 0 
0.497945 -0.537702 0 
0.551073 -0.551073 0 
0.604067 -0.55964 0 
0.655324 -0.559063 0 
0.713361 -0.558131 0 
0.769761 -0.561819 0 
0.825243 -0.564777 0 
-0.857917 -0.513788 0 
-0.802945 -0.512908 0 
-0.747856 -0.510673 0 
-0.692659 -0.509495 0 
-0.639581 -0.508501 0 
-0.588854 -0.506189 0 
-0.537596 -0.497922 0 
-0.486157 -0.486157 0 
-0.444928 -0.512952 0 
-0.401787 -0.486784 0 
-0.351685 -0.513639 0 
-0.299695 -0.48291 0 
-0.250032 -0.503 0 
-0.200501 -0.526165 0 
-0.149489 -0.495195 0 
-0.0999281 -0.521367 0 
-0.0499712 -0.492294 0 
4.64723e-05 -0.520999 0 
0.050147 -0.492108 0 
0.099934 -0.52133 0 
0.14957 -0.494692 0 
0.200133 -0.526255 0 
0.249839 -0.503309 0 
0.299839 -0.483005 0 
0.351514 -0.513798 0 
0.401881 -0.486608 0 
0.444935 -0.513054 0 
0.486228 -0.486228 0 
0.537702 -0.497945 0 
0.588901 -0.506147 0 
0.639623 -0.508497 0 
0.692668 -0.509524 0 
0.747859 -0.510716 0 
0.802929 -0.512965 0 
0.857885 -0.513842 0 
-0.887039 -0.461695 0 
-0.832348 -0.462372 0 
-0.778365 -0.460836 0 
-0.724356 -0.45935 0 
-0.671321 -0.457509 0 
-0.618874 -0.455505 0 
-0.567021 -0.451508 0 
-0.512952 -0.444928 0 
-0.450685 -0.450685 0 
-0.397667 -0.437543 0 
-0.348492 -0.462546 0 
-0.295416 -0.432968 0 
-0.247004 -0.450633 0 
-0.198702 -0.473818 0 
-0.150161 -0.441625 0 
-0.100085 -0.468395 0 
-0.0502271 -0.439281 0 
0.000144229 -0.468374 0 
0.0504178 -0.439106 0 
0.100428 -0.468348 0 
0.150697 -0.441105 0 
0.199103 -0.473881 0 
0.247983 -0.450921 0 
0.296569 -0.432268 0 
0.348831 -0.462562 0 
0.397506 -0.4368 0 
0.450637 -0.450637 0 
0.513054 -0.444935 0 
0.5671 -0.451404 0 
0.618952 -0.455483 0 
0.67138 -0.457525 0 
0.724407 -0.459374 0 
0.778382 -0.460863 0 
0.83234 -0.462414 0 
0.887011 -0.461748 0 
-0.912466 -0.409153 0 
-0.857936 -0.411157 0 
-0.804631 -0.410124 0 
-0.751554 -0.408794 0 
-0.698865 -0.407328 0 
-0.646545 -0.405555 0 
-0.594688 -0.403019 0 
-0.542431 -0.399773 0 
-0.486784 -0.401787 0 
-0.437543 -0.397667 0 
-0.387256 -0.387256 0 
-0.344215 -0.411459 0 
-0.30136 -0.381507 0 
-0.25021 -0.395692 0 
-0.200211 -0.419975 0 
-0.150955 -0.389014 0 
-0.100617 -0.416095 0 
-0.0503197 -0.386922 0 
-4.02994e-05 -0.416525 0 
0.05006 -0.386948 0 
0.100784 -0.416323 0 
0.150432 -0.388572 0 
0.200855 -0.420694 0 
0.25086 -0.396905 0 
0.301746 -0.379789 0 
0.344135 -0.410678 0 
0.385823 -0.385823 0 
0.4368 -0.397506 0 
0.486608 -0.401881 0 
0.542384 -0.399615 0 
0.594743 -0.402948 0 
0.646641 -0.405575 0 
0.698945 -0.407371 0 
0.751626 -0.408863 0 
0.804654 -0.410181 0 
0.857929 -0.411236 0 
0.912429 -0.409236 0 
-0.934288 -0.356519 0 
-0.879963 -0.359855 0 
-0.827415 -0.358606 0 
-0.774971 -0.357337 0 
-0.722823 -0.355968 0 
-0.670703 -0.354417 0 
-0.618952 -0.352514 0 
-0.567003 -0.350494 0 
-0.513639 -0.351685 0 
-0.462546 -0.348492 0 
-0.411459 -0.344215 0 
-0.351697 -0.351697 0 
-0.29839 -0.336232 0 
-0.249846 -0.342529 0 
-0.200971 -0.367271 0 
-0.149995 -0.337521 0 
-0.100435 -0.3646 0 
-0.0498692 -0.335025 0 
-6.88684e-05 -0.365025 0 
0.0495433 -0.334795 0 
0.0996798 -0.364834 0 
0.148162 -0.337172 0 
0.199644 -0.368939 0 
0.24763 -0.345582 0 
0.295348 -0.332889 0 
0.34978 -0.34978 0 
0.410678 -0.344135 0 
0.462562 -0.348831 0 
0.513798 -0.351514 0 
0.567174 -0.350318 0 
0.619096 -0.352457 0 
0.670836 -0.354397 0 
0.722893 -0.355952 0 
0.775038 -0.357323 0 
0.827419 -0.358581 0 
0.879943 -0.359894 0 
0.93426 -0.356593 0 
-0.952721 -0.303845 0 
-0.898929 -0.308871 0 
-0.847481 -0.306888 0 
-0.795641 -0.305781 0 
-0.743684 -0.304815 0 
-0.691387 -0.303722 0 
-0.639219 -0.302427 0 
-0.586897 -0.300977 0 
-0.534146 -0.301574 0 
-0.48291 -0.299695 0 
-0.432968 -0.295416 0 
-0.381507 -0.30136 0 
-0.336232 -0.29839 0 
-0.288184 -0.288184 0 
-0.242975 -0.290577 0 
-0.198059 -0.315051 0 
-0.148383 -0.285894 0 
-0.0994753 -0.313232 0 
-0.0507184 -0.283118 0 
-0.000202902 -0.313447 0 
0.0500077 -0.282824 0 
0.0988289 -0.312817 0 
0.148102 -0.28482 0 
0.195742 -0.317413 0 
0.240766 -0.295824 0 
0.285014 -0.285014 0 
0.332889 -0.295348 0 
0.379789 -0.301746 0 
0.432268 -0.296569 0 
0.483005 -0.299839 0 
0.534348 -0.301273 0 
0.587085 -0.30086 0 
0.639359 -0.302407 0 
0.691518 -0.303753 0 
0.743741 -0.304862 0 
0.795701 -0.305831 0 
0.847482 -0.306946 0 
0.898924 -0.308979 0 
0.952687 -0.303953 0 
-0.96803 -0.250833 0 
-0.916037 -0.258282 0 
-0.866979 -0.254732 0 
-0.816639 -0.25358 0 
-0.765535 -0.252907 0 
-0.71362 -0.252254 0 
-0.661417 -0.251503 0 
-0.608767 -0.250543 0 
-0.555692 -0.250874 0 
-0.503 -0.250032 0 
-0.450633 -0.247004 0 
-0.395692 -0.25021 0 
-0.342529 -0.249846 0 
-0.290577 -0.242975 0 
-0.239946 -0.239946 0 
-0.194478 -0.26004 0 
-0.151293 -0.23238 0 
-0.101048 -0.260904 0 
-0.0503938 -0.232537 0 
-0.000203281 -0.262984 0 
0.050638 -0.232316 0 
0.100942 -0.260855 0 
0.152412 -0.232597 0 
0.195768 -0.261421 0 
0.241873 -0.241873 0 
0.295824 -0.240766 0 
0.345582 -0.24763 0 
0.396905 -0.25086 0 
0.450921 -0.247983 0 
[...]
POINT_DATA 1245 
VECTORS vectors float
0.586961 -0.21491 0.78057 
0.586008 -0.188963 0.787965 
0.581191 -0.155168 0.798836 
0.57657 -0.120082 0.808175 
0.573189 -0.0767064 0.815825 
0.573324 -0.0365289 0.818514 
0.576556 0.00344776 0.81705 
0.578236 0.0417858 0.814799 
0.581681 0.0779499 0.809674 
0.587131 0.114715 0.801323 
0.591016 0.14365 0.793766 
0.592479 0.171927 0.787026 
0.588682 0.195521 0.784363 
0.574314 -0.258364 0.776796 
0.583339 -0.237333 0.776781 
0.494313 -0.18814 0.84868 
0.497814 -0.166374 0.851176 
0.505992 -0.142971 0.850607 
0.477966 -0.105665 0.872 
0.494663 -0.0748623 0.865855 
0.46957 -0.0353636 0.882187 
0.494361 0.00141884 0.869256 
0.47305 0.0362648 0.880289 
0.501661 0.0728634 0.86199 
0.484221 0.0989596 0.869331 
0.512567 0.131739 0.848481 
0.500632 0.152244 0.852167 
0.492932 0.172768 0.852742 
0.579868 0.218339 0.784909 
0.566156 0.241965 0.787985 
0.538509 -0.303357 0.786119 
0.559352 -0.279838 0.780267 
0.480638 -0.228626 0.846592 
0.489635 -0.208729 0.846575 
0.412049 -0.161827 0.896676 
0.417921 -0.141883 0.897336 
0.43007 -0.120719 0.894688 
0.390736 -0.0853837 0.916534 
0.416631 -0.062313 0.906937 
0.381536 -0.0288841 0.923902 
0.415068 0.000129446 0.90979 
0.383571 0.0269829 0.923117 
0.420823 0.0592376 0.905207 
0.394534 0.0792143 0.91546 
0.433635 0.11104 0.894221 
0.418307 0.130241 0.89892 
0.409302 0.149686 0.900037 
0.484169 0.193836 0.853234 
0.471742 0.215952 0.854883 
0.547761 0.267328 0.792776 
0.525153 0.294838 0.798301 
0.512863 -0.329911 0.792547 
0.448252 -0.271953 0.851535 
0.466897 -0.249454 0.848398 
0.398267 -0.200731 0.895037 
0.406416 -0.181082 0.895564 
0.340663 -0.139433 0.929789 
0.34753 -0.121321 0.929787 
0.35991 -0.10279 0.927307 
0.319318 -0.0714102 0.944953 
0.343416 -0.0516528 0.937762 
0.308536 -0.0243251 0.950902 
0.340085 -0.00101612 0.940394 
0.309476 0.0213099 0.950668 
0.345578 0.0476876 0.937177 
0.32068 0.0653616 0.94493 
0.361481 0.0948237 0.927545 
0.346688 0.111845 0.931288 
0.33669 0.129714 0.932638 
0.400394 0.16952 0.900526 
0.389407 0.190626 0.901124 
0.455756 0.239462 0.857289 
0.435664 0.264771 0.860286 
0.49918 0.324369 0.803495 
0.454826 -0.390675 0.800316 
0.484212 -0.359499 0.797684 
0.425458 -0.296136 0.855154 
0.368654 -0.241561 0.897631 
0.385607 -0.220504 0.895927 
0.327134 -0.175649 0.92851 
0.334962 -0.157483 0.928978 
0.279271 -0.120223 0.952656 
0.287 -0.104297 0.952236 
0.298004 -0.0879854 0.950501 
0.260079 -0.060357 0.963699 
0.279985 -0.0436947 0.959009 
0.24904 -0.0208669 0.968268 
0.275625 -0.00165173 0.961264 
0.249239 0.0170315 0.968292 
0.280929 0.0392407 0.958926 
0.260041 0.0549855 0.964031 
0.297797 0.0807026 0.951212 
0.284621 0.0965636 0.953764 
0.275381 0.112534 0.954726 
0.328642 0.14835 0.932731 
0.319291 0.1679 0.932664 
0.374918 0.212637 0.902342 
0.357365 0.23562 0.903755 
0.41237 0.291048 0.863274 
0.470678 0.35551 0.807511 
0.440811 0.387377 0.809706 
0.424388 -0.423264 0.800464 
0.382685 -0.353141 0.853723 
0.400493 -0.321499 0.858046 
0.348274 -0.263318 0.899649 
0.301874 -0.215288 0.928721 
0.316299 -0.194948 0.928413 
0.268152 -0.154592 0.950892 
0.275032 -0.13717 0.9516 
0.228696 -0.104442 0.967879 
0.234767 -0.0897207 0.967902 
0.244422 -0.0751842 0.96675 
0.210894 -0.0516034 0.976146 
0.227137 -0.0371539 0.973154 
0.200467 -0.0180724 0.979534 
0.222318 -0.00181421 0.974973 
0.200365 0.013879 0.979623 
0.227166 0.0327022 0.973307 
0.2101 0.0463428 0.976581 
0.243432 0.0690549 0.967457 
0.232046 0.0832266 0.969138 
0.224188 0.0982689 0.969579 
0.268901 0.129918 0.954366 
0.260179 0.148568 0.954062 
0.306569 0.188621 0.932972 
0.290964 0.210853 0.93321 
0.336206 0.259008 0.905472 
0.387119 0.317905 0.865491 
0.368421 0.350358 0.861113 
0.408441 0.421006 0.809895 
0.394829 -0.453876 0.798816 
0.355997 -0.380734 0.853409 
0.319237 -0.317029 0.893074 
0.326735 -0.286041 0.900791 
0.283964 -0.236813 0.929131 
0.247769 -0.192807 0.94944 
0.258681 -0.172359 0.950461 
0.218996 -0.136324 0.966156 
0.224032 -0.119601 0.967215 
0.185619 -0.0907864 0.978419 
0.191212 -0.0775035 0.978484 
0.199503 -0.0647998 0.977752 
0.170375 -0.0441017 0.984392 
0.183583 -0.0318859 0.982487 
0.161088 -0.0154964 0.986818 
0.178955 -0.00199428 0.983855 
0.160763 0.011635 0.986924 
0.182977 0.0275737 0.98273 
0.169185 0.0396095 0.984788 
0.197465 0.0595507 0.9785 
0.188376 0.0721403 0.979444 
0.181489 0.085722 0.97965 
0.218499 0.114053 0.969149 
0.212211 0.131433 0.968345 
0.250259 0.167611 0.95356 
0.238196 0.189297 0.952591 
0.272826 0.234196 0.933123 
0.313797 0.283073 0.906312 
0.305036 0.316398 0.898246 
0.33982 0.380149 0.860238 
0.375765 0.454244 0.807752 
0.366952 -0.48011 0.796769 
0.325781 -0.397335 0.8579 
0.288597 -0.324077 0.900936 
0.267021 -0.264621 0.926648 
0.235933 -0.215755 0.947516 
0.204408 -0.173211 0.963439 
0.211747 -0.153488 0.965197 
0.178191 -0.120178 0.97663 
0.183196 -0.105365 0.977414 
0.150605 -0.0794937 0.985393 
0.155034 -0.0674401 0.985605 
0.16153 -0.0559834 0.985279 
0.137313 -0.0383324 0.989786 
0.147716 -0.0276333 0.988644 
0.129135 -0.013673 0.991533 
0.1437 -0.00199955 0.989619 
0.128604 0.00971338 0.991649 
0.147015 0.0233455 0.988859 
0.135569 0.0342052 0.990177 
0.159537 0.0511725 0.985865 
0.151796 0.0630956 0.986396 
0.146788 0.0754436 0.986287 
0.177723 0.100911 0.978893 
0.171871 0.116781 0.978173 
0.203417 0.150175 0.967507 
0.195854 0.171175 0.965578 
0.22523 0.214276 0.950451 
0.254888 0.263787 0.930295 
0.274215 0.324519 0.905259 
0.30794 0.400494 0.863005 
0.344958 0.485275 0.803438 
0.338391 -0.503465 0.794994 
0.301226 -0.419164 0.856484 
0.266367 -0.343948 0.900416 
0.238859 -0.280857 0.929551 
0.217146 -0.233898 0.947702 
0.191476 -0.190182 0.962896 
0.166023 -0.152613 0.974241 
0.172173 -0.13613 0.975615 
0.144575 -0.10673 0.983721 
0.148207 -0.0927456 0.984598 
0.121684 -0.0706727 0.99005 
0.124929 -0.0593662 0.990388 
0.130368 -0.0488022 0.990264 
0.109861 -0.0335746 0.99338 
0.118711 -0.0238986 0.992641 
0.103121 -0.011979 0.994597 
0.115238 -0.00179925 0.993336 
0.102689 0.00828069 0.994679 
0.117808 0.0202264 0.99283 
0.108414 0.0295929 0.993665 
0.128239 0.0448212 0.99073 
0.122075 0.0553255 0.990978 
0.117837 0.0673907 0.990744 
0.143419 0.0891185 0.985641 
0.138802 0.103979 0.984846 
0.165421 0.133311 0.977172 
0.15828 0.151724 0.975668 
0.182524 0.189874 0.964693 
0.206438 0.234209 0.950016 
0.226113 0.283935 0.931801 
0.251255 0.348471 0.903017 
0.282594 0.426629 0.859144 
0.315178 0.515105 0.797076 
0.308832 -0.523843 0.793859 
0.275561 -0.438085 0.855656 
0.243764 -0.361866 0.899796 
0.216489 -0.297243 0.929935 
0.193598 -0.244791 0.950051 
0.173864 -0.202414 0.963743 
0.153074 -0.164884 0.974362 
0.133241 -0.133639 0.982032 
0.138087 -0.119283 0.983211 
0.115835 -0.0963232 0.988587 
0.119898 -0.0831313 0.9893 
0.0982468 -0.0628799 0.993174 
0.100231 -0.0523156 0.993588 
0.104986 -0.0429512 0.993546 
0.0879741 -0.029293 0.995692 
0.095078 -0.0210976 0.995246 
0.082176 -0.0105432 0.996562 
0.0920324 -0.00181621 0.995754 
0.0816096 0.00713751 0.996639 
0.0939727 0.0174119 0.995423 
0.0862633 0.0260359 0.995932 
0.102599 0.0393625 0.993944 
0.097688 0.0492668 0.993997 
0.0949493 0.0600063 0.993672 
0.115612 0.0805305 0.990025 
0.110882 0.0942819 0.989351 
0.131966 0.118185 0.984184 
0.127151 0.13277 0.982957 
0.145582 0.165477 0.975409 
0.164859 0.204463 0.964892 
0.183303 0.24786 0.951297 
0.204354 0.30282 0.930881 
0.22928 0.370917 0.899917 
0.257961 0.451106 0.854377 
0.287589 0.542069 0.789591 
0.27811 -0.541774 0.793181 
0.248596 -0.453928 0.855657 
0.219943 -0.376547 0.89991 
0.194435 -0.310019 0.930636 
0.171985 -0.254757 0.951588 
0.15307 -0.208983 0.965865 
0.135483 -0.17099 0.975913 
0.119187 -0.137324 0.983329 
0.108683 -0.108964 0.988086 
0.094116 -0.0865311 0.991794 
0.096578 -0.0740826 0.992565 
0.0787878 -0.0557285 0.995333 
0.08016 -0.0461826 0.995712 
0.0836581 -0.0378624 0.995775 
0.0697016 -0.026275 0.997222 
0.0755223 -0.0186786 0.996969 
0.0649966 -0.00956651 0.99784 
0.0731826 -0.00164876 0.997317 
0.0644754 0.00623022 0.9979 
0.0747198 0.0154801 0.997084 
0.0680302 0.0229819 0.997419 
0.081863 0.0346819 0.99604 
0.0776408 0.0434669 0.996033 
0.0758423 0.0537486 0.99567 
0.0927052 0.0721079 0.993079 
0.0895707 0.0851201 0.992336 
0.103493 0.108556 0.988688 
0.113116 0.138494 0.983882 
0.128603 0.17298 0.976493 
0.145046 0.212921 0.966243 
0.163043 0.261037 0.95146 
0.183828 0.319284 0.929659 
0.207941 0.389429 0.897277 
0.234736 0.471948 0.849802 
0.262422 0.565198 0.782103 
0.246725 -0.557712 0.792518 
0.221211 -0.467433 0.855905 
0.195817 -0.388415 0.900438 
0.172221 -0.320347 0.931514 
0.152265 -0.263534 0.952557 
0.13438 -0.215956 0.967112 
0.119012 -0.176604 0.97706 
0.105344 -0.143792 0.983985 
0.0950291 -0.116237 0.988665 
0.0853639 -0.0948539 0.991824 
0.0747057 -0.076065 0.9943 
0.0773184 -0.0662672 0.994802 
0.0635657 -0.0521821 0.996612 
0.0629806 -0.0420766 0.997127 
0.0663332 -0.034058 0.997216 
0.0548065 -0.0236973 0.998216 
0.060034 -0.016839 0.998054 
0.0509651 -0.0085938 0.998663 
0.0580681 -0.0016597 0.998311 
0.0505506 0.00551046 0.998706 
0.0591871 0.013611 0.998154 
0.0534801 0.0209859 0.998348 
0.0648097 0.0314991 0.9974 
0.0611872 0.0400153 0.997324 
0.0604147 0.0498368 0.996928 
0.0736221 0.0644721 0.9952 
0.0708096 0.0743406 0.994716 
0.080851 0.0942778 0.992257 
0.0905307 0.116587 0.989046 
0.0999667 0.145824 0.984247 
0.113321 0.180242 0.977073 
0.127882 0.22196 0.966633 
0.145196 0.271871 0.951317 
0.165085 0.332495 0.928544 
0.187695 0.404619 0.895016 
0.213329 0.488343 0.846175 
0.239495 0.583625 0.775902 
0.21563 -0.571941 0.791446 
0.194292 -0.479353 0.855845 
0.170958 -0.398234 0.901212 
0.150831 -0.329174 0.932145 
0.132331 -0.270549 0.953568 
0.116385 -0.221686 0.968148 
0.102638 -0.181344 0.978049 
0.0907399 -0.14777 0.98485 
0.0814484 -0.119812 0.98945 
0.0724895 -0.0974016 0.992602 
0.0644873 -0.0785666 0.994821 
0.0600575 -0.0618649 0.996276 
0.0513177 -0.0476244 0.997546 
0.0492461 -0.0383391 0.998051 
0.052243 -0.0309886 0.998153 
0.0430226 -0.0215609 0.998841 
0.0470984 -0.015261 0.998774 
0.0398421 -0.00790559 0.999175 
0.0455062 -0.00161151 0.998963 
0.0395121 0.00463942 0.999208 
0.0462815 0.0120719 0.998855 
0.0417843 0.0181146 0.998962 
0.0507817 0.0278613 0.998321 
0.0479216 0.0357771 0.99821 
0.0480665 0.0450459 0.997828 
0.0563817 0.0598404 0.996614 
0.0610374 0.0779139 0.99509 
0.0691345 0.0978651 0.992795 
0.0773777 0.121625 0.989555 
0.0866763 0.150785 0.984759 
0.0980516 0.186478 0.977554 
0.112456 0.228703 0.966979 
0.128014 0.280864 0.951172 
0.147042 0.342361 0.927991 
0.168813 0.415766 0.893667 
0.193161 0.500912 0.843668 
0.218073 0.59709 0.771963 
0.185564 -0.584288 0.790047 
0.167665 -0.489845 0.855535 
0.147859 -0.408129 0.900871 
0.129499 -0.337097 0.932521 
0.113403 -0.277111 0.954122 
0.0995389 -0.226747 0.968854 
0.0872814 -0.184921 0.97887 
0.0766417 -0.150192 0.985682 
0.0683799 -0.122191 0.990148 
0.0606007 -0.098976 0.993243 
0.0537266 -0.0802211 0.995328 
0.0500265 -0.0652741 0.996613 
0.0454413 -0.0534357 0.997537 
0.0399279 -0.0423522 0.998305 
0.0378085 -0.0341103 0.998703 
0.040225 -0.0277709 0.998805 
0.0328873 -0.0195586 0.999268 
0.036407 -0.0137739 0.999242 
0.0301826 -0.00744642 0.999517 
0.0349081 -0.00150159 0.999389 
0.0296058 0.00430463 0.999552 
0.035538 0.0109535 0.999308 
0.0315708 0.0168041 0.99936 
0.0392402 0.0253769 0.998908 
0.037014 0.0316139 0.998815 
0.0371613 0.039758 0.998518 
0.0421685 0.0509144 0.997812 
0.0476271 0.0640934 0.996807 
0.0511345 0.0800993 0.995474 
0.0577994 0.100158 0.993291 
0.0652538 0.124244 0.990104 
0.0738906 0.154118 0.985286 
0.0847271 0.19032 0.978059 
0.0971985 0.234686 0.9672 
0.112802 0.287288 0.951179 
0.130088 0.350661 0.927423 
0.150545 0.424627 0.892764 
0.174295 0.509644 0.842546 
0.197242 0.605678 0.770876 
0.156615 -0.594123 0.78898 
0.143288 -0.501239 0.853363 
0.125141 -0.419932 0.898886 
0.109484 -0.348484 0.930898 
0.0961334 -0.287152 0.953049 
0.0837415 -0.235008 0.968379 
0.0730842 -0.191346 0.978798 
0.0641156 -0.155618 0.985734 
0.05646 -0.125589 0.990474 
0.0499098 -0.101418 0.993591 
0.0437118 -0.0816646 0.995701 
0.0397014 -0.0648573 0.997104 
0.0358531 -0.0514843 0.99803 
0.03139 -0.0403692 0.998692 
0.0284075 -0.0312752 0.999107 
0.0301072 -0.0252887 0.999227 
0.024293 -0.0184651 0.999534 
0.0274755 -0.013096 0.999537 
0.0224554 -0.00674023 0.999725 
0.0268356 -0.00158195 0.999639 
0.0222765 0.00406286 0.999744 
0.0271012 0.00994455 0.999583 
0.0233676 0.016151 0.999596 
0.0292275 0.022824 0.999312 
0.0274256 0.0296019 0.999185 
0.0297464 0.0396437 0.998771 
0.033686 0.0509416 0.998133 
0.0377109 0.0648026 0.997185 
0.0419189 0.082207 0.995733 
0.0477168 0.102832 0.993554 
0.054448 0.128292 0.990241 
0.0622615 0.159396 0.985249 
0.0725376 0.19711 0.977694 
0.0839663 0.242385 0.96654 
0.0979848 0.296844 0.949886 
0.114188 0.360283 0.925828 
0.133338 0.433784 0.891096 
0.155309 0.51713 0.841698 
0.175641 0.609477 0.773103 
0.126678 -0.600677 0.789392 
0.120204 -0.518775 0.846418 
0.104039 -0.439191 0.892349 
0.0911121 -0.366086 0.92611 
0.0792425 -0.30206 0.94999 
0.0689644 -0.246941 0.966573 
0.0602009 -0.201317 0.977674 
0.0522235 -0.162916 0.985257 
0.045766 -0.131704 0.990232 
0.0402107 -0.106558 0.993493 
0.0352035 -0.0853267 0.995731 
0.0315334 -0.0683611 0.997162 
0.0282503 -0.0545035 0.998114 
0.0250187 -0.0428886 0.998767 
0.0223489 -0.0329669 0.999207 
0.021237 -0.0243688 0.999477 
0.0175234 -0.0172243 0.999698 
0.0202665 -0.0119702 0.999723 
0.0158226 -0.00648741 0.999854 
0.019365 -0.00156303 0.999811 
0.0155893 0.00305876 0.999874 
0.019372 0.0093124 0.999769 
0.0171341 0.014447 0.999749 
0.0204729 0.0223104 0.999541 
0.0211338 0.0314169 0.999283 
0.0232334 0.0415392 0.998867 
0.02656 0.0542037 0.998177 
0.0300457 0.06824 0.997216 
0.0335799 0.0861787 0.995714 
0.0386514 0.107903 0.99341 
0.0449057 0.134328 0.989919 
0.0518737 0.166776 0.984629 
0.0607157 0.206303 0.976603 
0.0716895 0.253543 0.964664 
0.0838866 0.309706 0.947125 
0.0991914 0.375163 0.921637 
0.115945 0.448998 0.885978 
0.137439 0.528928 0.837464 
0.149856 0.608159 0.779542 
0.100469 -0.603808 0.790773 
0.0905376 -0.496103 0.863531 
0.0752303 -0.403487 0.911887 
0.0640415 -0.327528 0.942669 
0.055024 -0.265384 0.962571 
0.0472458 -0.214465 0.975588 
0.0406941 -0.172871 0.984103 
0.0353293 -0.139496 0.989592 
0.0307345 -0.111691 0.993268 
0.0266609 -0.0899791 0.995587 
0.0235183 -0.0718801 0.997136 
0.0209188 -0.0572436 0.998141 
0.018709 -0.0456644 0.998782 
0.0163877 -0.0357809 0.999225 
0.0152383 -0.0275341 0.999505 
0.0137918 -0.0209406 0.999686 
0.011551 -0.0149497 0.999822 
0.013531 -0.0108342 0.99985 
0.010296 -0.00627713 0.999927 
0.0132162 -0.0010959 0.999912 
0.00987242 0.00357201 0.999945 
0.0134435 0.00813734 0.999877 
0.0108094 0.0123753 0.999865 
0.0129589 0.0187996 0.999739 
0.0145017 0.0251449 0.999579 
0.0152972 0.0338375 0.99931 
0.0170485 0.0444337 0.998867 
0.0195034 0.0561463 0.998232 
0.0222507 0.0717999 0.997171 
0.02575 0.0902902 0.995583 
0.0298031 0.113262 0.993118 
0.0349327 0.141541 0.989316 
0.0416637 0.176115 0.983487 
0.0491571 0.218364 0.974628 
0.0590512 0.270079 0.961026 
0.0708787 0.332386 0.940476 
0.0860642 0.408115 0.908865 
0.106774 0.500108 0.859355 
0.123985 0.604183 0.787141 
0.0712325 -0.604731 0.793238 
0.0680455 -0.519009 0.852056 
0.0574194 -0.434286 0.898943 
0.0478163 -0.355424 0.933481 
0.0404552 -0.287978 0.956782 
0.0342999 -0.232382 0.97202 
0.0292306 -0.187276 0.981872 
0.0249565 -0.150379 0.988313 
0.0213888 -0.121015 0.99242 
0.0184535 -0.0974006 0.995074 
0.0159509 -0.0777848 0.996843 
0.0140888 -0.0625258 0.997944 
0.0122112 -0.0497856 0.998685 
0.0106517 -0.0394301 0.999166 
0.00991073 -0.0307127 0.999479 
0.00842189 -0.0235378 0.999687 
0.00718262 -0.0173819 0.999823 
0.00717962 -0.0112036 0.999911 
0.0051351 -0.00596403 0.999969 
0.00778445 -0.00195917 0.999968 
0.00517176 0.00328058 0.999981 
0.00689856 0.00818123 0.999943 
0.00666424 0.0147005 0.99987 
0.00793933 0.0212125 0.999743 
0.0086824 0.0287782 0.999548 
0.00962461 0.0375968 0.999247 
0.0110621 0.0486914 0.998753 
0.0131597 0.0620606 0.997986 
0.0150671 0.0778223 0.996853 
0.017718 0.0979333 0.995035 
0.0214647 0.122304 0.992261 
0.0252967 0.152333 0.988005 
0.0306386 0.189546 0.981394 
0.0373261 0.23488 0.971307 
0.045294 0.290192 0.955896 
0.0555966 0.356889 0.932491 
0.0689469 0.434134 0.898206 
0.0839809 0.516795 0.85198 
0.0913912 0.598179 0.796134 
0.0448986 -0.604294 0.795496 
0.039215 -0.491958 0.869735 
0.0310849 -0.396611 0.917461 
0.0250347 -0.318399 0.947626 
0.0203546 -0.255486 0.966598 
0.0167995 -0.204732 0.978674 
0.0138251 -0.16424 0.986323 
0.0115683 -0.131847 0.991203 
0.00954839 -0.105362 0.994388 
0.00801122 -0.0846547 0.996378 
0.00670691 -0.0674939 0.997697 
0.00556747 -0.0538699 0.998532 
0.00495798 -0.0426682 0.999077 
0.00377789 -0.0335975 0.999428 
0.00357576 -0.0256959 0.999663 
0.0023932 -0.0199778 0.999798 
0.00270331 -0.0135479 0.999905 
0.00211584 -0.00935832 0.999954 
6.40675e-05 -0.00487905 0.999988 
0.00361639 -0.0011169 0.999993 
-0.000250976 0.00104948 0.999999 
0.00173835 0.00608451 0.99998 
0.00235024 0.0115951 0.99993 
0.00186439 0.0167139 0.999859 
0.00271676 0.0238047 0.999713 
0.00315177 0.031388 0.999502 
0.00387295 0.0412595 0.999141 
0.00475487 0.0527926 0.998594 
0.00592816 0.0667924 0.997749 
0.00767055 0.0845777 0.996387 
0.00916375 0.105869 0.994338 
0.0116616 0.132579 0.991104 
0.0148347 0.165415 0.986112 
0.0184006 0.2059 0.9784 
0.0234268 0.2562 0.96634 
0.0298532 0.31784 0.947674 
0.0380718 0.393969 0.918335 
0.0502516 0.485902 0.872567 
0.0593259 0.59314 0.802911 
0.0181015 -0.602742 0.797731 
0.0142013 -0.514581 0.857324 
0.0100395 -0.429857 0.902841 
0.00691484 -0.349938 0.936747 
0.00448169 -0.281943 0.959421 
0.00281586 -0.226677 0.973966 
0.00146527 -0.18213 0.983273 
0.000579308 -0.146111 0.989268 
-0.000128799 -0.117573 0.993064 
-0.000590818 -0.0945087 0.995524 
-0.00109118 -0.0755926 0.997138 
-0.00117833 -0.0608904 0.998144 
-0.00160974 -0.0483903 0.998827 
-0.00190443 -0.0383451 0.999263 
-0.00166138 -0.0300502 0.999547 
-0.00245684 -0.0233334 0.999725 
-0.00202636 -0.0163251 0.999865 
-0.00279676 -0.0127925 0.999914 
-0.00243004 -0.00675849 0.999974 
-0.00230145 -0.00120477 0.999997 
-0.00225794 0.00503808 0.999985 
-0.00314651 0.0086303 0.999958 
-0.00256643 0.0145877 0.99989 
-0.00281463 0.0207185 0.999781 
-0.00253326 0.0279477 0.999606 
-0.00261272 0.0365601 0.999328 
-0.00227084 0.0469458 0.998895 
-0.00175729 0.0599184 0.998202 
-0.00165076 0.0751764 0.997169 
-0.00084094 0.0942245 0.995551 
2.09079e-05 0.117894 0.993026 
0.000815734 0.146673 0.989185 
0.0023882 0.182583 0.983187 
0.00430296 0.226709 0.973953 
0.00676049 0.280999 0.959684 
0.0102535 0.346954 0.937826 
0.0146423 0.423623 0.90572 
0.0195007 0.504827 0.863 
0.0252275 0.588694 0.807963 
-0.0103469 -0.595678 0.803157 
-0.0155313 -0.484529 0.874637 
-0.0146706 -0.390666 0.920416 
-0.0141857 -0.31431 0.949215 
-0.0137256 -0.252273 0.967559 
-0.0129562 -0.202497 0.979197 
-0.0120743 -0.162741 0.986595 
-0.0113017 -0.130644 0.991365 
-0.01049 -0.104675 0.994451 
-0.00969991 -0.084086 0.996411 
-0.00922167 -0.0671435 0.997701 
-0.00864046 -0.0535875 0.998526 
-0.00784131 -0.0425881 0.999062 
-0.00803435 -0.0333352 0.999412 
-0.00745254 -0.0256356 0.999644 
-0.00723012 -0.019935 0.999775 
-0.00738516 -0.0134778 0.999882 
-0.00715963 -0.00942727 0.99993 
-0.00587447 -0.0048 0.999971 
-0.00848056 -0.00130329 0.999963 
-0.00615748 0.00115384 0.99998 
-0.00740728 0.00598143 0.999955 
-0.00766264 0.0115125 0.999904 
-0.00760753 0.0165704 0.999834 
-0.00800713 0.023653 0.999688 
-0.00859645 0.0311993 0.999476 
-0.00848085 0.0409053 0.999127 
-0.00929274 0.0522425 0.998591 
-0.00955642 0.0661649 0.997763 
-0.00987461 0.0835193 0.996457 
-0.0107714 0.10462 0.994454 
-0.0111497 0.130666 0.991364 
-0.0117795 0.162892 0.986574 
-0.0125543 0.202605 0.97918 