# vtk DataFile Version 3.0 
Exported using Morpho https://github.com/Morpho-lang/morpho 
ASCII 
DATASET UNSTRUCTURED_GRID 

POINTS 1245 float 
-0.303845 -0.952721 0 
-0.250833 -0.96803 0 
-0.195084 -0.980787 0 
-0.146308 -0.989239 0 
-0.0940719 -0.995565 0 
-0.0475118 -0.998871 0 
-0.000246339 -1 0 
0.0470875 -0.998891 0 
0.0937543 -0.995595 0 
0.146139 -0.989264 0 
0.195062 -0.980791 0 
0.250843 -0.968028 0 
0.303953 -0.952687 0 
-0.409153 -0.912466 0 
-0.356519 -0.934288 0 
-0.308871 -0.898929 0 
-0.258282 -0.916037 0 
-0.207345 -0.934859 0 
-0.154868 -0.930629 0 
-0.104343 -0.948989 0 
-0.0520099 -0.939193 0 
-8.5762e-05 -0.954582 0 
0.0518744 -0.939288 0 
0.104354 -0.949042 0 
0.154696 -0.9306 0 
0.207366 -0.934975 0 
0.258274 -0.916081 0 
0.308979 -0.898924 0 
0.356593 -0.93426 0 
0.409236 -0.912429 0 
-0.513788 -0.857917 0 
-0.461695 -0.887039 0 
-0.411157 -0.857936 0 
-0.359855 -0.879963 0 
-0.306888 -0.847481 0 
-0.254732 -0.866979 0 
-0.201991 -0.889059 0 
-0.149956 -0.874108 0 
-0.100608 -0.900088 0 
-0.0497575 -0.880388 0 
2.4595e-05 -0.904789 0 
0.0496869 -0.8804 0 
0.100612 -0.900177 0 
0.149872 -0.874171 0 
0.202071 -0.889165 0 
0.254695 -0.867031 0 
0.306946 -0.847482 0 
0.359894 -0.879943 0 
0.411236 -0.857929 0 
0.461748 -0.887011 0 
0.513842 -0.857885 0 
-0.564741 -0.825268 0 
-0.512908 -0.802945 0 
-0.462372 -0.832348 0 
-0.410124 -0.804631 0 
-0.358606 -0.827415 0 
-0.305781 -0.795641 0 
-0.25358 -0.816639 0 
-0.200756 -0.839997 0 
-0.149043 -0.818944 0 
-0.0987265 -0.846667 0 
-0.0490473 -0.822548 0 
5.00659e-05 -0.849932 0 
0.0490834 -0.822542 0 
0.0987838 -0.846676 0 
0.148997 -0.818924 0 
0.200826 -0.840131 0 
0.253508 -0.816728 0 
0.305831 -0.795701 0 
0.358581 -0.827419 0 
0.410181 -0.804654 0 
0.462414 -0.83234 0 
0.512965 -0.802929 0 
0.564777 -0.825243 0 
-0.660798 -0.750564 0 
-0.614015 -0.789295 0 
-0.561786 -0.769772 0 
-0.510673 -0.747856 0 
-0.460836 -0.778365 0 
-0.408794 -0.751554 0 
-0.357337 -0.774971 0 
-0.304815 -0.743684 0 
-0.252907 -0.765535 0 
-0.200631 -0.789263 0 
-0.149244 -0.764328 0 
-0.0986912 -0.791935 0 
-0.0492815 -0.765764 0 
4.16586e-05 -0.79382 0 
0.0492411 -0.765708 0 
0.0987508 -0.791951 0 
0.149196 -0.764326 0 
0.200666 -0.789356 0 
0.252841 -0.765599 0 
0.304862 -0.743741 0 
0.357323 -0.775038 0 
0.408863 -0.751626 0 
0.460863 -0.778382 0 
0.510716 -0.747859 0 
0.561819 -0.769761 0 
0.614041 -0.789274 0 
0.660811 -0.750552 0 
-0.707107 -0.707107 0 
-0.654819 -0.699058 0 
-0.60813 -0.73348 0 
-0.558104 -0.71337 0 
-0.509495 -0.692659 0 
-0.45935 -0.724356 0 
-0.407328 -0.698865 0 
-0.355968 -0.722823 0 
-0.303722 -0.691387 0 
-0.252254 -0.71362 0 
-0.20067 -0.737336 0 
-0.149608 -0.710068 0 
-0.0991558 -0.737129 0 
-0.0495872 -0.709825 0 
-2.23646e-05 -0.737917 0 
0.0494408 -0.709766 0 
0.0991291 -0.737116 0 
0.149502 -0.710042 0 
0.200696 -0.73743 0 
0.252186 -0.713735 0 
0.303753 -0.691518 0 
0.355952 -0.722893 0 
0.407371 -0.698945 0 
0.459374 -0.724407 0 
0.509524 -0.692668 0 
0.558131 -0.713361 0 
0.608151 -0.733462 0 
0.654824 -0.699048 0 
0.707107 -0.707107 0 
-0.750564 -0.660798 0 
-0.699058 -0.654819 0 
-0.647692 -0.647692 0 
-0.603437 -0.675718 0 
-0.55905 -0.655305 0 
-0.508501 -0.639581 0 
-0.457509 -0.671321 0 
-0.405555 -0.646545 0 
-0.354417 -0.670703 0 
-0.302427 -0.639219 0 
-0.251503 -0.661417 0 
-0.20061 -0.684911 0 
-0.149717 -0.655943 0 
-0.0995004 -0.682466 0 
-0.0498216 -0.654561 0 
-5.02113e-05 -0.682664 0 
0.0496787 -0.654499 0 
0.0994374 -0.682501 0 
0.149603 -0.655909 0 
0.200573 -0.684972 0 
0.251388 -0.661524 0 
0.302407 -0.639359 0 
0.354397 -0.670836 0 
0.405575 -0.646641 0 
0.457525 -0.67138 0 
0.508497 -0.639623 0 
0.559063 -0.655324 0 
0.603436 -0.675715 0 
0.64769 -0.64769 0 
0.699048 -0.654824 0 
0.750552 -0.660811 0 
-0.789295 -0.614015 0 
-0.73348 -0.60813 0 
-0.675718 -0.603437 0 
-0.613088 -0.613088 0 
-0.55962 -0.604068 0 
-0.506189 -0.588854 0 
-0.455505 -0.618874 0 
-0.403019 -0.594688 0 
-0.352514 -0.618952 0 
-0.300977 -0.586897 0 
-0.250543 -0.608767 0 
-0.200257 -0.632053 0 
-0.150049 -0.601979 0 
-0.0998281 -0.628222 0 
-0.0500377 -0.599914 0 
-3.12334e-05 -0.628076 0 
0.0498927 -0.599835 0 
0.0997818 -0.628253 0 
0.149924 -0.601867 0 
0.200214 -0.632118 0 
0.250423 -0.608915 0 
0.30086 -0.587085 0 
0.352457 -0.619096 0 
0.402948 -0.594743 0 
0.455483 -0.618952 0 
0.506147 -0.588901 0 
0.55964 -0.604067 0 
0.613069 -0.613069 0 
0.675715 -0.603436 0 
0.733462 -0.608151 0 
0.789274 -0.614041 0 
-0.825268 -0.564741 0 
-0.769772 -0.561786 0 
-0.71337 -0.558104 0 
-0.655305 -0.55905 0 
-0.604068 -0.55962 0 
-0.551031 -0.551031 0 
-0.497922 -0.537596 0 
-0.451508 -0.567021 0 
-0.399773 -0.542431 0 
-0.350494 -0.567003 0 
-0.301574 -0.534146 0 
-0.250874 -0.555692 0 
-0.200542 -0.579013 0 
-0.150324 -0.548268 0 
-0.100169 -0.57443 0 
-0.0500152 -0.545912 0 
-3.29278e-05 -0.574268 0 
0.0499208 -0.545788 0 
0.100058 -0.574485 0 
0.150038 -0.548073 0 
0.200377 -0.579041 0 
0.250556 -0.55585 0 
0.301273 -0.534348 0 
0.350318 -0.567174 0 
0.399615 -0.542384 0 
0.451404 -0.5671 0 
0.497945 -0.537702 0 
0.551073 -0.551073 0 
0.604067 -0.55964 0 
0.655324 -0.559063 0 
0.713361 -0.558131 0 
0.769761 -0.561819 0 
0.825243 -0.564777 0 
-0.857917 -0.513788 0 
-0.802945 -0.512908 0 
-0.747856 -0.510673 0 
-0.692659 -0.509495 0 
-0.639581 -0.508501 0 
-0.588854 -0.506189 0 
-0.537596 -0.497922 0 
-0.486157 -0.486157 0 
-0.444928 -0.512952 0 
-0.401787 -0.486784 0 
-0.351685 -0.513639 0 
-0.299695 -0.48291 0 
-0.250032 -0.503 0 
-0.200501 -0.526165 0 
-0.149489 -0.495195 0 
-0.0999281 -0.521367 0 
-0.0499712 -0.492294 0 
4.64723e-05 -0.520999 0 
0.050147 -0.492108 0 
0.099934 -0.52133 0 
0.14957 -0.494692 0 
0.200133 -0.526255 0 
0.249839 -0.503309 0 
0.299839 -0.483005 0 
0.351514 -0.513798 0 
0.401881 -0.486608 0 
0.444935 -0.513054 0 
0.486228 -0.486228 0 
0.537702 -0.497945 0 
0.588901 -0.506147 0 
0.639623 -0.508497 0 
0.692668 -0.509524 0 
0.747859 -0.510716 0 
0.802929 -0.512965 0 
0.857885 -0.513842 0 
-0.887039 -0.461695 0 
-0.832348 -0.462372 0 
-0.778365 -0.460836 0 
-0.724356 -0.45935 0 
-0.671321 -0.457509 0 
-0.618874 -0.455505 0 
-0.567021 -0.451508 0 
-0.512952 -0.444928 0 
-0.450685 -0.450685 0 
-0.397667 -0.437543 0 
-0.348492 -0.462546 0 
-0.295416 -0.432968 0 
-0.247004 -0.450633 0 
-0.198702 -0.473818 0 
-0.150161 -0.441625 0 
-0.100085 -0.468395 0 
-0.0502271 -0.439281 0 
0.000144229 -0.468374 0 
0.0504178 -0.439106 0 
0.100428 -0.468348 0 
0.150697 -0.441105 0 
0.199103 -0.473881 0 
0.247983 -0.450921 0 
0.296569 -0.432268 0 
0.348831 -0.462562 0 
0.397506 -0.4368 0 
0.450637 -0.450637 0 
0.513054 -0.444935 0 
0.5671 -0.451404 0 
0.618952 -0.455483 0 
0.67138 -0.457525 0 
0.724407 -0.459374 0 
0.778382 -0.460863 0 
0.83234 -0.462414 0 
0.887011 -0.461748 0 
-0.912466 -0.409153 0 
-0.857936 -0.411157 0 
-0.804631 -0.410124 0 
-0.751554 -0.408794 0 
-0.698865 -0.407328 0 
-0.646545 -0.405555 0 
-0.594688 -0.403019 0 
-0.542431 -0.399773 0 
-0.486784 -0.401787 0 
-0.437543 -0.397667 0 
-0.387256 -0.387256 0 
-0.344215 -0.411459 0 
-0.30136 -0.381507 0 
-0.25021 -0.395692 0 
-0.200211 -0.419975 0 
-0.150955 -0.389014 0 
-0.100617 -0.416095 0 
-0.0503197 -0.386922 0 
-4.02994e-05 -0.416525 0 
0.05006 -0.386948 0 
0.100784 -0.416323 0 
0.150432 -0.388572 0 
0.200855 -0.420694 0 
0.25086 -0.396905 0 
0.301746 -0.379789 0 
0.344135 -0.410678 0 
0.385823 -0.385823 0 
0.4368 -0.397506 0 
0.486608 -0.401881 0 
0.542384 -0.399615 0 
0.594743 -0.402948 0 
0.646641 -0.405575 0 
0.698945 -0.407371 0 
0.751626 -0.408863 0 
0.804654 -0.410181 0 
0.857929 -0.411236 0 
0.912429 -0.409236 0 
-0.934288 -0.356519 0 
-0.879963 -0.359855 0 
-0.827415 -0.358606 0 
-0.774971 -0.357337 0 
-0.722823 -0.355968 0 
-0.670703 -0.354417 0 
-0.618952 -0.352514 0 
-0.567003 -0.350494 0 
-0.513639 -0.351685 0 
-0.462546 -0.348492 0 
-0.411459 -0.344215 0 
-0.351697 -0.351697 0 
-0.29839 -0.336232 0 
-0.249846 -0.342529 0 
-0.200971 -0.367271 0 
-0.149995 -0.337521 0 
-0.100435 -0.3646 0 
-0.0498692 -0.335025 0 
-6.88684e-05 -0.365025 0 
0.0495433 -0.334795 0 
0.0996798 -0.364834 0 
0.148162 -0.337172 0 
0.199644 -0.368939 0 
0.24763 -0.345582 0 
0.295348 -0.332889 0 
0.34978 -0.34978 0 
0.410678 -0.344135 0 
0.462562 -0.348831 0 
0.513798 -0.351514 0 
0.567174 -0.350318 0 
0.619096 -0.352457 0 
0.670836 -0.354397 0 
0.722893 -0.355952 0 
0.775038 -0.357323 0 
0.827419 -0.358581 0 
0.879943 -0.359894 0 
0.93426 -0.356593 0 
-0.952721 -0.303845 0 
-0.898929 -0.308871 0 
-0.847481 -0.306888 0 
-0.795641 -0.305781 0 
-0.743684 -0.304815 0 
-0.691387 -0.303722 0 
-0.639219 -0.302427 0 
-0.586897 -0.300977 0 
-0.534146 -0.301574 0 
-0.48291 -0.299695 0 
-0.432968 -0.295416 0 
-0.381507 -0.30136 0 
-0.336232 -0.29839 0 
-0.288184 -0.288184 0 
-0.242975 -0.290577 0 
-0.198059 -0.315051 0 
-0.148383 -0.285894 0 
-0.0994753 -0.313232 0 
-0.0507184 -0.283118 0 
-0.000202902 -0.313447 0 
0.0500077 -0.282824 0 
0.0988289 -0.312817 0 
0.148102 -0.28482 0 
0.195742 -0.317413 0 
0.240766 -0.295824 0 
0.285014 -0.285014 0 
0.332889 -0.295348 0 
0.379789 -0.301746 0 
0.432268 -0.296569 0 
0.483005 -0.299839 0 
0.534348 -0.301273 0 
0.587085 -0.30086 0 
0.639359 -0.302407 0 
0.691518 -0.303753 0 
0.743741 -0.304862 0 
0.795701 -0.305831 0 
0.847482 -0.306946 0 
0.898924 -0.308979 0 
0.952687 -0.303953 0 
-0.96803 -0.250833 0 
-0.916037 -0.258282 0 
-0.866979 -0.254732 0 
-0.816639 -0.25358 0 
-0.765535 -0.252907 0 
-0.71362 -0.252254 0 
-0.661417 -0.251503 0 
-0.608767 -0.250543 0 
-0.555692 -0.250874 0 
-0.503 -0.250032 0 
-0.450633 -0.247004 0 
-0.395692 -0.25021 0 
-0.342529 -0.249846 0 
-0.290577 -0.242975 0 
-0.239946 -0.239946 0 
-0.194478 -0.26004 0 
-0.151293 -0.23238 0 
-0.101048 -0.260904 0 
-0.0503938 -0.232537 0 
-0.000203281 -0.262984 0 
0.050638 -0.232316 0 
0.100942 -0.260855 0 
0.152412 -0.232597 0 
0.195768 -0.261421 0 
0.241873 -0.241873 0 
0.295824 -0.240766 0 
0.345582 -0.24763 0 
0.396905 -0.25086 0 
0.450921 -0.247983 0 
[...]
POINT_DATA 1245 
VECTORS vectors float
0.577168 -0.218393 0.786881 
0.572589 -0.195817 0.796114 
0.563118 -0.163678 0.810005 
0.554908 -0.127874 0.822025 
0.548273 -0.0814194 0.832327 
0.547402 -0.0378848 0.836012 
0.551168 0.00602167 0.834373 
0.554997 0.0474432 0.830498 
0.561592 0.0845225 0.823086 
0.570754 0.120817 0.812184 
0.577532 0.147625 0.80291 
0.581404 0.172286 0.795165 
0.578486 0.192195 0.792726 
0.56791 -0.253166 0.783189 
0.575918 -0.236629 0.782512 
0.483524 -0.188381 0.85482 
0.484044 -0.16956 0.858458 
0.489931 -0.14809 0.859091 
0.457921 -0.109882 0.882176 
0.472317 -0.0791128 0.877871 
0.446151 -0.0362521 0.894223 
0.470694 0.00317276 0.882291 
0.451748 0.0385596 0.891312 
0.482065 0.0775996 0.872692 
0.467808 0.101161 0.878022 
0.498423 0.132616 0.856731 
0.487367 0.150236 0.860176 
0.481013 0.168255 0.860416 
0.569635 0.211848 0.794126 
0.555156 0.233104 0.798414 
0.53039 -0.29119 0.796175 
0.552633 -0.270607 0.788269 
0.471931 -0.222131 0.853193 
0.480037 -0.205297 0.852888 
0.399953 -0.159959 0.902469 
0.404164 -0.142234 0.90356 
0.413143 -0.123226 0.90229 
0.372672 -0.0875332 0.923826 
0.39574 -0.0640965 0.916123 
0.36078 -0.029616 0.93218 
0.393345 0.000541576 0.919391 
0.363529 0.0284277 0.931149 
0.402272 0.0605382 0.913517 
0.377515 0.0795307 0.922582 
0.418549 0.110866 0.901402 
0.404768 0.127196 0.905529 
0.395369 0.144282 0.90712 
0.471658 0.18674 0.861781 
0.45904 0.206999 0.863964 
0.535713 0.25693 0.804362 
0.512046 0.283713 0.81075 
0.502596 -0.316271 0.804593 
0.43763 -0.260134 0.860703 
0.457651 -0.239872 0.856164 
0.387254 -0.193052 0.901535 
0.395765 -0.176754 0.901181 
0.327563 -0.135931 0.935 
0.333752 -0.120375 0.934944 
0.343909 -0.103493 0.933282 
0.302186 -0.0717314 0.950546 
0.324192 -0.0526328 0.944526 
0.289813 -0.0247103 0.956764 
0.320372 -0.000960352 0.947291 
0.291191 0.0209536 0.956435 
0.327571 0.0478366 0.943615 
0.304255 0.0643625 0.950414 
0.345921 0.0925052 0.933692 
0.331757 0.108219 0.937137 
0.322552 0.123868 0.938412 
0.386799 0.162388 0.907753 
0.375429 0.181671 0.908872 
0.441828 0.22939 0.867276 
0.421499 0.253653 0.870631 
0.485222 0.312972 0.816461 
0.440809 -0.378468 0.81391 
0.47169 -0.345973 0.811056 
0.413234 -0.283414 0.865398 
0.356951 -0.230544 0.905227 
0.37456 -0.210937 0.90289 
0.315949 -0.1683 0.93373 
0.323162 -0.15174 0.934099 
0.26727 -0.116322 0.956575 
0.27267 -0.101683 0.956719 
0.282716 -0.0869453 0.955255 
0.24394 -0.0598107 0.967944 
0.262703 -0.0437504 0.963884 
0.231799 -0.0210114 0.972537 
0.257649 -0.00182572 0.966237 
0.23226 0.0162793 0.972517 
0.26396 0.0383268 0.963772 
0.244153 0.0525538 0.968312 
0.282589 0.0779975 0.956065 
0.269921 0.0917065 0.958505 
0.261115 0.106719 0.959391 
0.314749 0.140778 0.938677 
0.304581 0.159373 0.939058 
0.360943 0.20247 0.910344 
0.342254 0.22506 0.912256 
0.397851 0.279421 0.873864 
0.456294 0.343964 0.820661 
0.426279 0.375489 0.822978 
0.410395 -0.412893 0.813078 
0.368848 -0.341494 0.864484 
0.387163 -0.30892 0.86872 
0.335712 -0.251568 0.90775 
0.289271 -0.204334 0.935184 
0.30416 -0.185139 0.934457 
0.25586 -0.146498 0.955549 
0.262106 -0.130827 0.95613 
0.21504 -0.0991832 0.971556 
0.221387 -0.0864289 0.971348 
0.23 -0.073587 0.970404 
0.196078 -0.0501119 0.979307 
0.211192 -0.0368879 0.976748 
0.184825 -0.0179246 0.982608 
0.2059 -0.00249665 0.97857 
0.184662 0.0128091 0.982719 
0.211191 0.0310402 0.976952 
0.194993 0.043774 0.979827 
0.228155 0.0656474 0.971409 
0.217676 0.0784146 0.972866 
0.209697 0.0915094 0.973475 
0.254124 0.122381 0.959398 
0.246528 0.139469 0.959048 
0.292057 0.178694 0.939559 
0.276797 0.199666 0.939956 
0.321352 0.247951 0.913922 
0.37217 0.305621 0.876405 
0.352989 0.338859 0.872109 
0.393745 0.408941 0.823245 
0.382482 -0.444797 0.809854 
0.342862 -0.370079 0.863416 
0.306556 -0.305323 0.901555 
0.313799 -0.274196 0.909036 
0.271157 -0.225468 0.935755 
0.235859 -0.182432 0.95451 
0.246969 -0.163444 0.95514 
0.206791 -0.128077 0.969966 
0.212674 -0.11369 0.970487 
0.173663 -0.0856857 0.98107 
0.17828 -0.073864 0.981204 
0.185299 -0.0622141 0.980711 
0.156552 -0.0426202 0.98675 
0.168595 -0.0311257 0.985194 
0.146598 -0.0156575 0.989072 
0.163732 -0.00257743 0.986501 
0.146151 0.0100189 0.989212 
0.168066 0.0253475 0.98545 
0.154765 0.0363614 0.987282 
0.183151 0.0551842 0.981535 
0.174088 0.0670113 0.982447 
0.168098 0.0795622 0.982554 
0.204974 0.10679 0.972924 
0.197726 0.123 0.97251 
0.235542 0.158284 0.958888 
0.224094 0.179452 0.957903 
0.257563 0.222273 0.940349 
0.299293 0.27204 0.914559 
0.290812 0.302951 0.907551 
0.324366 0.368426 0.871234 
0.36062 0.442805 0.8209 
0.357114 -0.470989 0.806622 
0.314535 -0.386649 0.866931 
0.277054 -0.312577 0.908591 
0.254432 -0.253173 0.933364 
0.224261 -0.20469 0.95279 
0.192641 -0.16308 0.967623 
0.199495 -0.144076 0.969249 
0.166886 -0.112816 0.979501 
0.170372 -0.0983112 0.980463 
0.138587 -0.0741834 0.987568 
0.142335 -0.0632414 0.987796 
0.148551 -0.0530302 0.987482 
0.124049 -0.036296 0.991612 
0.13416 -0.0264789 0.990606 
0.115692 -0.0134418 0.993194 
0.129685 -0.00258913 0.991552 
0.115185 0.00814023 0.993311 
0.132998 0.0211143 0.990891 
0.122298 0.0305893 0.992022 
0.145635 0.0471746 0.988213 
0.13863 0.0572533 0.988688 
0.133323 0.0688545 0.988678 
0.163793 0.0928819 0.982112 
0.158896 0.108272 0.981341 
0.190234 0.139917 0.971717 
0.181759 0.160753 0.970115 
0.212251 0.203201 0.955855 
0.239732 0.252306 0.937481 
0.259553 0.314368 0.913129 
0.293135 0.388013 0.873795 
0.329511 0.474716 0.816129 
0.331096 -0.49302 0.804553 
0.292049 -0.40792 0.865048 
0.256052 -0.332412 0.907711 
0.227547 -0.269131 0.935837 
0.206282 -0.222461 0.952869 
0.180226 -0.179153 0.967173 
0.155013 -0.142839 0.977532 
0.161123 -0.126833 0.978751 
0.133195 -0.0984947 0.986184 
0.137161 -0.0861384 0.986796 
0.110466 -0.0651054 0.991745 
0.11329 -0.0549214 0.992043 
0.118168 -0.0458266 0.991936 
0.0981851 -0.0312792 0.994676 
0.105895 -0.0230987 0.994109 
0.0909499 -0.0118004 0.995786 
0.102184 -0.00276867 0.994762 
0.0901675 0.00650439 0.995905 
0.104662 0.0174385 0.994355 
0.0957723 0.0261124 0.995061 
0.115121 0.0401435 0.99254 
0.109297 0.0500795 0.992747 
0.105864 0.0605216 0.992537 
0.130842 0.0818934 0.988015 
0.126158 0.095242 0.987427 
0.151958 0.124508 0.980513 
0.146107 0.141401 0.979111 
0.168945 0.178903 0.969253 
0.193165 0.224016 0.955251 
0.21244 0.270248 0.939061 
0.237086 0.33746 0.910995 
0.267945 0.416019 0.868984 
0.300045 0.505714 0.808843 
0.303147 -0.511469 0.804053 
0.26799 -0.425675 0.864281 
0.235101 -0.349509 0.906957 
0.206873 -0.284837 0.935987 
0.183685 -0.232908 0.954994 
0.163519 -0.190991 0.967876 
0.142783 -0.154532 0.977616 
0.123514 -0.123016 0.984688 
0.127223 -0.111004 0.985643 
0.105854 -0.0881528 0.990467 
0.108994 -0.0765143 0.991093 
0.0876273 -0.0571114 0.994515 
0.0895699 -0.0480502 0.994821 
0.0931514 -0.0397512 0.994858 
0.076632 -0.0272888 0.996686 
0.0832161 -0.0198412 0.996334 
0.0706528 -0.0105488 0.997445 
0.0800617 -0.0025696 0.996787 
0.0700135 0.0052588 0.997532 
0.082075 0.0147578 0.996517 
0.0745358 0.0220053 0.996976 
0.0906035 0.0346195 0.995285 
0.0858408 0.0432136 0.995371 
0.0832706 0.0535296 0.995088 
0.10327 0.0727182 0.991992 
0.0993536 0.0861999 0.991311 
0.119832 0.108491 0.986848 
0.115189 0.123345 0.985656 
0.133378 0.155329 0.978817 
0.152512 0.192587 0.969356 
0.170619 0.237562 0.956271 
0.191385 0.291644 0.937185 
0.21606 0.359748 0.907689 
0.244289 0.441375 0.86343 
0.273516 0.53428 0.799833 
0.272808 -0.527727 0.804413 
0.24221 -0.44025 0.864589 
0.212404 -0.363001 0.907257 
0.185905 -0.297008 0.936603 
0.163432 -0.242232 0.956354 
0.14365 -0.197159 0.96979 
0.126509 -0.159479 0.979062 
0.109446 -0.127666 0.98576 
0.0990143 -0.100317 0.990017 
0.0845717 -0.0785556 0.993316 
0.0866689 -0.0674568 0.993951 
0.0694705 -0.0503121 0.996314 
0.0697253 -0.0417348 0.996693 
0.073424 -0.0344446 0.996706 
0.0594431 -0.0239834 0.997944 
0.0650657 -0.0175746 0.997726 
0.054636 -0.0093699 0.998462 
0.0623456 -0.00264763 0.998051 
0.0540008 0.00432908 0.998532 
0.0635956 0.0123512 0.997899 
0.0575616 0.0194712 0.998152 
0.0705498 0.029911 0.99706 
0.0668774 0.0380112 0.997037 
0.0652381 0.0467349 0.996775 
0.0817263 0.0645479 0.994562 
0.0787729 0.0764203 0.993959 
0.0924442 0.099164 0.990768 
0.102217 0.128068 0.986484 
0.117522 0.162478 0.979689 
0.133641 0.201886 0.970249 
0.151394 0.249715 0.956411 
0.172258 0.308313 0.935559 
0.195905 0.379716 0.904122 
0.222683 0.462993 0.857933 
0.250352 0.558666 0.790706 
0.241079 -0.542956 0.804413 
0.215097 -0.452745 0.865307 
0.188622 -0.373821 0.908119 
0.16548 -0.30675 0.937294 
0.144175 -0.250103 0.957425 
0.126487 -0.203443 0.970882 
0.110688 -0.165021 0.980059 
0.0969661 -0.132875 0.986378 
0.0867285 -0.106093 0.990567 
0.0765824 -0.0861947 0.993331 
0.0661983 -0.0685024 0.995452 
0.0681001 -0.0595706 0.995898 
0.0546337 -0.0462823 0.997433 
0.0541442 -0.0377426 0.99782 
0.0566731 -0.030748 0.997919 
0.0459244 -0.0215967 0.998711 
0.049981 -0.0156757 0.998627 
0.0418969 -0.00871161 0.999084 
0.0478837 -0.002613 0.99885 
0.0413024 0.00324525 0.999141 
0.0488606 0.0107734 0.998748 
0.0439018 0.0162267 0.998904 
0.0543213 0.0262283 0.998179 
0.0513065 0.0337272 0.998113 
0.0507697 0.0434783 0.997764 
0.0635378 0.0566527 0.99637 
0.0605504 0.0663431 0.995958 
0.0712585 0.0851426 0.993817 
0.0802397 0.107073 0.991008 
0.0901842 0.135298 0.986692 
0.102848 0.169702 0.980114 
0.118109 0.210673 0.970395 
0.134995 0.261199 0.955799 
0.154751 0.321927 0.934032 
0.177865 0.394804 0.901385 
0.203414 0.480607 0.853018 
0.230215 0.577776 0.783055 
0.209483 -0.5574 0.803382 
0.187754 -0.46399 0.865715 
0.165501 -0.383744 0.908488 
0.143798 -0.314335 0.938358 
0.125717 -0.256847 0.95824 
0.109495 -0.20867 0.971837 
0.0954164 -0.168991 0.980988 
0.0833718 -0.136333 0.987149 
0.073842 -0.109849 0.991202 
0.064766 -0.0879676 0.994016 
0.0568581 -0.0704072 0.995897 
0.05201 -0.0549435 0.997134 
0.0435849 -0.042266 0.998155 
0.0411265 -0.0336226 0.998588 
0.0433907 -0.0275321 0.998679 
0.0345754 -0.0191831 0.999218 
0.0382914 -0.0140916 0.999167 
0.0311186 -0.00780777 0.999485 
0.0364232 -0.00257312 0.999333 
0.030419 0.00278179 0.999533 
0.0372245 0.00904856 0.999266 
0.0327451 0.0146528 0.999356 
0.0415326 0.0235158 0.99886 
0.0390454 0.0298204 0.998792 
0.0391447 0.0378122 0.998518 
0.0476704 0.051952 0.997511 
0.0526192 0.069028 0.996226 
0.0598396 0.0884791 0.994279 
0.0687092 0.111446 0.991392 
0.0775665 0.140443 0.987046 
0.0899423 0.17501 0.98045 
0.103017 0.21824 0.970443 
0.120029 0.269409 0.955517 
0.138816 0.332265 0.932915 
0.160759 0.406432 0.899427 
0.186182 0.492898 0.849934 
0.212108 0.591296 0.778061 
0.179582 -0.570497 0.801426 
0.162558 -0.475278 0.864688 
0.141686 -0.392706 0.908684 
0.123974 -0.322383 0.938456 
0.107903 -0.26291 0.958768 
0.0933508 -0.213038 0.972574 
0.0810884 -0.172166 0.981725 
0.0705023 -0.138746 0.987815 
0.0617585 -0.110975 0.991902 
0.0541399 -0.0893936 0.994524 
0.0468916 -0.0716578 0.996326 
0.0429932 -0.0575796 0.997415 
0.0385374 -0.0469988 0.998151 
0.0329106 -0.0369053 0.998777 
0.0305327 -0.0297215 0.999092 
0.0328658 -0.024731 0.999154 
0.0257039 -0.0174312 0.999518 
0.0287357 -0.0128858 0.999504 
0.0229893 -0.00736413 0.999709 
0.0273488 -0.00276029 0.999622 
0.0226757 0.00209139 0.999741 
0.0276997 0.00746175 0.999588 
0.0242487 0.0125571 0.999627 
0.0310503 0.0195672 0.999326 
0.0289994 0.0260237 0.999241 
0.0295632 0.0329628 0.999019 
0.0346086 0.0436843 0.998446 
0.0389881 0.0555959 0.997692 
0.0434212 0.071276 0.996511 
0.0500735 0.0902444 0.99466 
0.0575904 0.113926 0.991819 
0.0662492 0.143146 0.987482 
0.0772066 0.179528 0.980719 
0.0906849 0.222823 0.970632 
0.105562 0.276716 0.955136 
0.124139 0.339778 0.932277 
0.145484 0.414907 0.898157 
0.169716 0.50155 0.848318 
0.194704 0.599138 0.776611 
0.152072 -0.581237 0.799398 
0.1383 -0.486681 0.862563 
0.120606 -0.405007 0.906324 
0.105251 -0.333518 0.93685 
0.090934 -0.272457 0.957861 
0.0789386 -0.220926 0.972091 
0.0682734 -0.178538 0.981561 
0.0586474 -0.142801 0.988012 
0.0511625 -0.114676 0.992085 
0.0442262 -0.0913687 0.994835 
0.0381604 -0.0722507 0.996656 
0.033914 -0.0572481 0.997784 
0.0296292 -0.0448011 0.998556 
0.0254238 -0.0347775 0.999072 
0.0225851 -0.02728 0.999373 
0.0233357 -0.0218037 0.99949 
0.0182327 -0.0165054 0.999698 
0.020689 -0.0118535 0.999716 
0.0162006 -0.00719566 0.999843 
0.0192619 -0.00264458 0.999811 
0.0155159 0.0016075 0.999878 
0.0193467 0.00707121 0.999788 
0.0170469 0.0115784 0.999788 
0.0217061 0.0180319 0.999602 
0.0207919 0.0236032 0.999505 
0.0227481 0.0324537 0.999214 
0.0266363 0.0431254 0.998715 
0.0312691 0.0563625 0.997921 
0.0350281 0.0724803 0.996755 
0.0410339 0.0929555 0.994824 
0.0480377 0.117544 0.991905 
0.0564586 0.148111 0.987358 
0.0662162 0.185532 0.980405 
0.0788383 0.230944 0.969768 
0.0932118 0.284895 0.954016 
0.110462 0.349237 0.930501 
0.130097 0.423522 0.896496 
0.1543 0.507592 0.847668 
0.176501 0.601483 0.779144 
0.124389 -0.588134 0.799141 
0.117069 -0.504715 0.855311 
0.101144 -0.424342 0.899835 
0.0873264 -0.351004 0.932293 
0.0759227 -0.286975 0.954925 
0.0654204 -0.232824 0.970316 
0.0559904 -0.187249 0.980716 
0.0482268 -0.150416 0.987446 
0.041501 -0.120142 0.991889 
0.0357695 -0.0952947 0.994806 
0.0305736 -0.0762245 0.996622 
0.0266179 -0.0598746 0.997851 
0.0233937 -0.0471756 0.998613 
0.0200946 -0.0370638 0.999111 
0.0168854 -0.0281516 0.999461 
0.0158499 -0.0209869 0.999654 
0.0125546 -0.0149342 0.99981 
0.014142 -0.0109733 0.99984 
0.0106225 -0.00604484 0.999925 
0.0137118 -0.0025533 0.999903 
0.0102835 0.00132862 0.999946 
0.0138281 0.00586575 0.999887 
0.0110949 0.0105837 0.999882 
0.0145701 0.0170258 0.999749 
0.0153197 0.0246606 0.999578 
0.0176338 0.0349177 0.999235 
0.0206948 0.0453266 0.998758 
0.0240884 0.0595102 0.997937 
0.0282499 0.0763927 0.996678 
0.0334329 0.0972349 0.9947 
0.0393501 0.123257 0.991594 
0.0472714 0.155172 0.986756 
0.0566911 0.194036 0.979355 
0.0675495 0.241234 0.968113 
0.0816109 0.297502 0.951227 
0.0969347 0.362762 0.926827 
0.116631 0.437138 0.8918 
0.137988 0.518564 0.843831 
0.154048 0.597878 0.786646 
0.100471 -0.590914 0.800454 
0.089127 -0.481683 0.871801 
0.0736363 -0.388105 0.918669 
0.0620027 -0.312322 0.947951 
0.0523569 -0.250413 0.966722 
0.0446001 -0.200354 0.978708 
0.037811 -0.159813 0.986423 
0.032066 -0.126656 0.991428 
0.0273341 -0.101059 0.994505 
0.0231779 -0.0796479 0.996554 
0.0198752 -0.0628333 0.997826 
0.0171702 -0.0497563 0.998614 
0.0144103 -0.0389598 0.999137 
0.0125976 -0.0305514 0.999454 
0.0111775 -0.0233662 0.999664 
0.00932403 -0.018139 0.999792 
0.00702981 -0.0131708 0.999889 
0.00922854 -0.0100893 0.999907 
0.00553206 -0.00668871 0.999962 
0.00797573 -0.00316192 0.999963 
0.00547708 0.00112324 0.999984 
0.00815665 0.00484888 0.999955 
0.00647706 0.00828614 0.999945 
0.00832982 0.0133338 0.999876 
0.0094802 0.0197585 0.99976 
0.0104573 0.0270183 0.99958 
0.012234 0.0360324 0.999276 
0.0148773 0.0482654 0.998724 
0.0178808 0.061908 0.997922 
0.0209508 0.0801622 0.996562 
0.0258512 0.102321 0.994415 
0.0314271 0.129752 0.991048 
0.0377496 0.163819 0.985768 
0.0467506 0.205696 0.977499 
0.0569236 0.2565 0.964867 
0.0701782 0.318973 0.945162 
0.0867723 0.3947 0.914704 
0.10956 0.486879 0.866571 
0.129988 0.591677 0.795626 
0.0733931 -0.590825 0.803455 
0.0690445 -0.503986 0.860947 
0.0570964 -0.418759 0.906301 
0.047356 -0.339613 0.939372 
0.0393103 -0.272595 0.961325 
0.0328674 -0.21775 0.975451 
0.0273568 -0.173068 0.98453 
0.0229183 -0.13784 0.990189 
0.0192627 -0.109173 0.993836 
0.0159727 -0.0863829 0.996134 
0.0134475 -0.0686732 0.997549 
0.0111605 -0.0539204 0.998483 
0.00948892 -0.042691 0.999043 
0.00784375 -0.0334795 0.999409 
0.00627692 -0.0259184 0.999644 
0.0054498 -0.0199712 0.999786 
0.00403805 -0.014974 0.99988 
0.00384493 -0.00995967 0.999943 
0.00227294 -0.00619279 0.999978 
0.00421485 -0.00237894 0.999988 
0.00169256 0.000703344 0.999998 
0.00307561 0.00495398 0.999983 
0.00302737 0.010422 0.999941 
0.00396402 0.0157137 0.999869 
0.00506942 0.0220461 0.999744 
0.00589462 0.030561 0.999516 
0.00755927 0.0404898 0.999151 
0.00930186 0.0525399 0.998576 
0.0118917 0.0681986 0.997601 
0.0147554 0.0869898 0.9961 
0.0180478 0.110691 0.993691 
0.0230627 0.140122 0.989866 
0.0286591 0.176249 0.983928 
0.035748 0.221165 0.974581 
0.0450666 0.275879 0.960135 
0.056511 0.341534 0.938169 
0.0711293 0.418925 0.905231 
0.08945 0.501405 0.860576 
0.0985578 0.582569 0.806783 
0.0485201 -0.589125 0.806584 
0.0414627 -0.475741 0.878608 
0.0320579 -0.380273 0.924319 
0.025142 -0.302323 0.952874 
0.0201965 -0.239884 0.970591 
0.0161302 -0.190425 0.981569 
0.0130093 -0.150736 0.988489 
0.010321 -0.11907 0.992832 
0.00831693 -0.0945524 0.995485 
0.00646744 -0.0741998 0.997222 
0.00514226 -0.0586842 0.998263 
0.00402683 -0.0461447 0.998927 
0.0024733 -0.0362102 0.999341 
0.00240247 -0.0280622 0.999603 
0.00106827 -0.0221792 0.999753 
0.000419485 -0.0160869 0.999871 
0.000144761 -0.0126515 0.99992 
-0.000456744 -0.00833505 0.999965 
-0.00273289 -0.00582048 0.999979 
0.000631106 -0.00229505 0.999997 
-0.00260125 -0.0015212 0.999995 
-0.000654015 0.0038006 0.999993 
-0.000751633 0.00663195 0.999978 
-0.000537105 0.0124206 0.999923 
-5.4771e-05 0.0175416 0.999846 
0.000530042 0.0247907 0.999693 
0.00112677 0.033141 0.99945 
0.00232393 0.0440751 0.999026 
0.00372464 0.0575239 0.998337 
0.00496146 0.0736507 0.997272 
0.00748775 0.0947714 0.995471 
0.0100129 0.120265 0.992691 
0.0131599 0.152255 0.988254 
0.0178165 0.192056 0.981222 
0.0232854 0.24095 0.970258 
0.0305506 0.302082 0.952792 
0.0409283 0.376995 0.925311 
0.0541669 0.468343 0.881885 
0.0669297 0.57483 0.815531 
0.0228984 -0.586112 0.809906 
0.0169129 -0.497891 0.867075 
0.0126336 -0.412364 0.910932 
0.00851383 -0.332965 0.942901 
0.00550295 -0.265963 0.963968 
0.00321312 -0.211309 0.977414 
0.00174039 -0.167699 0.985837 
0.000534263 -0.133266 0.99108 
-0.000286415 -0.105515 0.994418 
-0.00104595 -0.0834641 0.99651 
-0.00142996 -0.0663809 0.997793 
-0.00210487 -0.0521039 0.998639 
-0.00223548 -0.041335 0.999143 
-0.00242658 -0.0322947 0.999475 
-0.00338917 -0.0252573 0.999675 
-0.00292158 -0.0193189 0.999809 
-0.00388439 -0.015236 0.999876 
-0.00367007 -0.00992773 0.999944 
-0.00345431 -0.00719871 0.999968 
-0.00293964 -0.00081916 0.999995 
-0.00438444 0.00199951 0.999988 
-0.00410832 0.00601209 0.999973 
-0.00469519 0.00933501 0.999945 
-0.00417077 0.0152234 0.999875 
-0.0044421 0.0213733 0.999762 
-0.00390509 0.0290653 0.99957 
-0.00369088 0.0388503 0.999238 
-0.00354151 0.0502469 0.998731 
-0.00245808 0.0650844 0.997877 
-0.00204365 0.0832844 0.996524 
-0.00115526 0.105622 0.994406 
0.000500366 0.133853 0.991001 
0.00204515 0.168515 0.985697 
0.00439645 0.211675 0.97733 
0.00774298 0.264886 0.964249 
0.0118945 0.32932 0.944143 
0.017428 0.404751 0.914261 
0.0242676 0.484752 0.874315 
0.0314954 0.567991 0.822432 
-0.00557726 -0.578174 0.815895 
-0.0115017 -0.465853 0.884787 
-0.0120931 -0.373293 0.927635 
-0.0122852 -0.296924 0.954822 
-0.0120542 -0.236189 0.971632 
-0.011681 -0.187742 0.982149 
-0.0111672 -0.148781 0.988807 
-0.0104554 -0.117904 0.99297 
-0.00974495 -0.093548 0.995567 
-0.00929273 -0.0736085 0.997244 
-0.00865339 -0.0582083 0.998267 
-0.00814621 -0.0459644 0.99891 
-0.00818364 -0.0358002 0.999325 
-0.00735277 -0.0280038 0.999581 
-0.00780645 -0.0219456 0.999729 
-0.00713043 -0.0160245 0.999846 
-0.00771972 -0.0126548 0.99989 
-0.0075372 -0.00819322 0.999938 
-0.00738488 -0.00592528 0.999955 
-0.00833966 -0.00204632 0.999963 
-0.00717748 -0.00163979 0.999973 
-0.00772713 0.00380254 0.999963 
-0.00842875 0.00654359 0.999943 
-0.00793208 0.0123017 0.999893 
-0.00877528 0.0173727 0.999811 
-0.00870056 0.024511 0.999662 
-0.00939772 0.0327852 0.999418 
-0.00930931 0.0434404 0.999013 
-0.00985588 0.0565588 0.998351 
-0.0104016 0.0726045 0.997307 
-0.0103689 0.0929575 0.995616 
-0.0111518 0.11807 0.992943 