# vtk DataFile Version 3.0 
Exported using Morpho https://github.com/Morpho-lang/morpho 
ASCII 
DATASET UNSTRUCTURED_GRID 

POINTS 1245 float 
-0.303845 -0.952721 0 
-0.250833 -0.96803 0 
-0.195084 -0.980787 0 
-0.146308 -0.989239 0 
-0.0940719 -0.995565 0 
-0.0475118 -0.998871 0 
-0.000246339 -1 0 
0.0470875 -0.998891 0 
0.0937543 -0.995595 0 
0.146139 -0.989264 0 
0.195062 -0.980791 0 
0.250843 -0.968028 0 
0.303953 -0.952687 0 
-0.409153 -0.912466 0 
-0.356519 -0.934288 0 
-0.308871 -0.898929 0 
-0.258282 -0.916037 0 
-0.207345 -0.934859 0 
-0.154868 -0.930629 0 
-0.104343 -0.948989 0 
-0.0520099 -0.939193 0 
-8.5762e-05 -0.954582 0 
0.0518744 -0.939288 0 
0.104354 -0.949042 0 
0.154696 -0.9306 0 
0.207366 -0.934975 0 
0.258274 -0.916081 0 
0.308979 -0.898924 0 
0.356593 -0.93426 0 
0.409236 -0.912429 0 
-0.513788 -0.857917 0 
-0.461695 -0.887039 0 
-0.411157 -0.857936 0 
-0.359855 -0.879963 0 
-0.306888 -0.847481 0 
-0.254732 -0.866979 0 
-0.201991 -0.889059 0 
-0.149956 -0.874108 0 
-0.100608 -0.900088 0 
-0.0497575 -0.880388 0 
2.4595e-05 -0.904789 0 
0.0496869 -0.8804 0 
0.100612 -0.900177 0 
0.149872 -0.874171 0 
0.202071 -0.889165 0 
0.254695 -0.867031 0 
0.306946 -0.847482 0 
0.359894 -0.879943 0 
0.411236 -0.857929 0 
0.461748 -0.887011 0 
0.513842 -0.857885 0 
-0.564741 -0.825268 0 
-0.512908 -0.802945 0 
-0.462372 -0.832348 0 
-0.410124 -0.804631 0 
-0.358606 -0.827415 0 
-0.305781 -0.795641 0 
-0.25358 -0.816639 0 
-0.200756 -0.839997 0 
-0.149043 -0.818944 0 
-0.0987265 -0.846667 0 
-0.0490473 -0.822548 0 
5.00659e-05 -0.849932 0 
0.0490834 -0.822542 0 
0.0987838 -0.846676 0 
0.148997 -0.818924 0 
0.200826 -0.840131 0 
0.253508 -0.816728 0 
0.305831 -0.795701 0 
0.358581 -0.827419 0 
0.410181 -0.804654 0 
0.462414 -0.83234 0 
0.512965 -0.802929 0 
0.564777 -0.825243 0 
-0.660798 -0.750564 0 
-0.614015 -0.789295 0 
-0.561786 -0.769772 0 
-0.510673 -0.747856 0 
-0.460836 -0.778365 0 
-0.408794 -0.751554 0 
-0.357337 -0.774971 0 
-0.304815 -0.743684 0 
-0.252907 -0.765535 0 
-0.200631 -0.789263 0 
-0.149244 -0.764328 0 
-0.0986912 -0.791935 0 
-0.0492815 -0.765764 0 
4.16586e-05 -0.79382 0 
0.0492411 -0.765708 0 
0.0987508 -0.791951 0 
0.149196 -0.764326 0 
0.200666 -0.789356 0 
0.252841 -0.765599 0 
0.304862 -0.743741 0 
0.357323 -0.775038 0 
0.408863 -0.751626 0 
0.460863 -0.778382 0 
0.510716 -0.747859 0 
0.561819 -0.769761 0 
0.614041 -0.789274 0 
0.660811 -0.750552 0 
-0.707107 -0.707107 0 
-0.654819 -0.699058 0 
-0.60813 -0.73348 0 
-0.558104 -0.71337 0 
-0.509495 -0.692659 0 
-0.45935 -0.724356 0 
-0.407328 -0.698865 0 
-0.355968 -0.722823 0 
-0.303722 -0.691387 0 
-0.252254 -0.71362 0 
-0.20067 -0.737336 0 
-0.149608 -0.710068 0 
-0.0991558 -0.737129 0 
-0.0495872 -0.709825 0 
-2.23646e-05 -0.737917 0 
0.0494408 -0.709766 0 
0.0991291 -0.737116 0 
0.149502 -0.710042 0 
0.200696 -0.73743 0 
0.252186 -0.713735 0 
0.303753 -0.691518 0 
0.355952 -0.722893 0 
0.407371 -0.698945 0 
0.459374 -0.724407 0 
0.509524 -0.692668 0 
0.558131 -0.713361 0 
0.608151 -0.733462 0 
0.654824 -0.699048 0 
0.707107 -0.707107 0 
-0.750564 -0.660798 0 
-0.699058 -0.654819 0 
-0.647692 -0.647692 0 
-0.603437 -0.675718 0 
-0.55905 -0.655305 0 
-0.508501 -0.639581 0 
-0.457509 -0.671321 0 
-0.405555 -0.646545 0 
-0.354417 -0.670703 0 
-0.302427 -0.639219 0 
-0.251503 -0.661417 0 
-0.20061 -0.684911 0 
-0.149717 -0.655943 0 
-0.0995004 -0.682466 0 
-0.0498216 -0.654561 0 
-5.02113e-05 -0.682664 0 
0.0496787 -0.654499 0 
0.0994374 -0.682501 0 
0.149603 -0.655909 0 
0.200573 -0.684972 0 
0.251388 -0.661524 0 
0.302407 -0.639359 0 
0.354397 -0.670836 0 
0.405575 -0.646641 0 
0.457525 -0.67138 0 
0.508497 -0.639623 0 
0.559063 -0.655324 0 
0.603436 -0.675715 0 
0.64769 -0.64769 0 
0.699048 -0.654824 0 
0.750552 -0.660811 0 
-0.789295 -0.614015 0 
-0.73348 -0.60813 0 
-0.675718 -0.603437 0 
-0.613088 -0.613088 0 
-0.55962 -0.604068 0 
-0.506189 -0.588854 0 
-0.455505 -0.618874 0 
-0.403019 -0.594688 0 
-0.352514 -0.618952 0 
-0.300977 -0.586897 0 
-0.250543 -0.608767 0 
-0.200257 -0.632053 0 
-0.150049 -0.601979 0 
-0.0998281 -0.628222 0 
-0.0500377 -0.599914 0 
-3.12334e-05 -0.628076 0 
0.0498927 -0.599835 0 
0.0997818 -0.628253 0 
0.149924 -0.601867 0 
0.200214 -0.632118 0 
0.250423 -0.608915 0 
0.30086 -0.587085 0 
0.352457 -0.619096 0 
0.402948 -0.594743 0 
0.455483 -0.618952 0 
0.506147 -0.588901 0 
0.55964 -0.604067 0 
0.613069 -0.613069 0 
0.675715 -0.603436 0 
0.733462 -0.608151 0 
0.789274 -0.614041 0 
-0.825268 -0.564741 0 
-0.769772 -0.561786 0 
-0.71337 -0.558104 0 
-0.655305 -0.55905 0 
-0.604068 -0.55962 0 
-0.551031 -0.551031 0 
-0.497922 -0.537596 0 
-0.451508 -0.567021 0 
-0.399773 -0.542431 0 
-0.350494 -0.567003 0 
-0.301574 -0.534146 0 
-0.250874 -0.555692 0 
-0.200542 -0.579013 0 
-0.150324 -0.548268 0 
-0.100169 -0.57443 0 
-0.0500152 -0.545912 0 
-3.29278e-05 -0.574268 0 
0.0499208 -0.545788 0 
0.100058 -0.574485 0 
0.150038 -0.548073 0 
0.200377 -0.579041 0 
0.250556 -0.55585 0 
0.301273 -0.534348 0 
0.350318 -0.567174 0 
0.399615 -0.542384 0 
0.451404 -0.5671 0 
0.497945 -0.537702 0 
0.551073 -0.551073 0 
0.604067 -0.55964 0 
0.655324 -0.559063 0 
0.713361 -0.558131 0 
0.769761 -0.561819 0 
0.825243 -0.564777 0 
-0.857917 -0.513788 0 
-0.802945 -0.512908 0 
-0.747856 -0.510673 0 
-0.692659 -0.509495 0 
-0.639581 -0.508501 0 
-0.588854 -0.506189 0 
-0.537596 -0.497922 0 
-0.486157 -0.486157 0 
-0.444928 -0.512952 0 
-0.401787 -0.486784 0 
-0.351685 -0.513639 0 
-0.299695 -0.48291 0 
-0.250032 -0.503 0 
-0.200501 -0.526165 0 
-0.149489 -0.495195 0 
-0.0999281 -0.521367 0 
-0.0499712 -0.492294 0 
4.64723e-05 -0.520999 0 
0.050147 -0.492108 0 
0.099934 -0.52133 0 
0.14957 -0.494692 0 
0.200133 -0.526255 0 
0.249839 -0.503309 0 
0.299839 -0.483005 0 
0.351514 -0.513798 0 
0.401881 -0.486608 0 
0.444935 -0.513054 0 
0.486228 -0.486228 0 
0.537702 -0.497945 0 
0.588901 -0.506147 0 
0.639623 -0.508497 0 
0.692668 -0.509524 0 
0.747859 -0.510716 0 
0.802929 -0.512965 0 
0.857885 -0.513842 0 
-0.887039 -0.461695 0 
-0.832348 -0.462372 0 
-0.778365 -0.460836 0 
-0.724356 -0.45935 0 
-0.671321 -0.457509 0 
-0.618874 -0.455505 0 
-0.567021 -0.451508 0 
-0.512952 -0.444928 0 
-0.450685 -0.450685 0 
-0.397667 -0.437543 0 
-0.348492 -0.462546 0 
-0.295416 -0.432968 0 
-0.247004 -0.450633 0 
-0.198702 -0.473818 0 
-0.150161 -0.441625 0 
-0.100085 -0.468395 0 
-0.0502271 -0.439281 0 
0.000144229 -0.468374 0 
0.0504178 -0.439106 0 
0.100428 -0.468348 0 
0.150697 -0.441105 0 
0.199103 -0.473881 0 
0.247983 -0.450921 0 
0.296569 -0.432268 0 
0.348831 -0.462562 0 
0.397506 -0.4368 0 
0.450637 -0.450637 0 
0.513054 -0.444935 0 
0.5671 -0.451404 0 
0.618952 -0.455483 0 
0.67138 -0.457525 0 
0.724407 -0.459374 0 
0.778382 -0.460863 0 
0.83234 -0.462414 0 
0.887011 -0.461748 0 
-0.912466 -0.409153 0 
-0.857936 -0.411157 0 
-0.804631 -0.410124 0 
-0.751554 -0.408794 0 
-0.698865 -0.407328 0 
-0.646545 -0.405555 0 
-0.594688 -0.403019 0 
-0.542431 -0.399773 0 
-0.486784 -0.401787 0 
-0.437543 -0.397667 0 
-0.387256 -0.387256 0 
-0.344215 -0.411459 0 
-0.30136 -0.381507 0 
-0.25021 -0.395692 0 
-0.200211 -0.419975 0 
-0.150955 -0.389014 0 
-0.100617 -0.416095 0 
-0.0503197 -0.386922 0 
-4.02994e-05 -0.416525 0 
0.05006 -0.386948 0 
0.100784 -0.416323 0 
0.150432 -0.388572 0 
0.200855 -0.420694 0 
0.25086 -0.396905 0 
0.301746 -0.379789 0 
0.344135 -0.410678 0 
0.385823 -0.385823 0 
0.4368 -0.397506 0 
0.486608 -0.401881 0 
0.542384 -0.399615 0 
0.594743 -0.402948 0 
0.646641 -0.405575 0 
0.698945 -0.407371 0 
0.751626 -0.408863 0 
0.804654 -0.410181 0 
0.857929 -0.411236 0 
0.912429 -0.409236 0 
-0.934288 -0.356519 0 
-0.879963 -0.359855 0 
-0.827415 -0.358606 0 
-0.774971 -0.357337 0 
-0.722823 -0.355968 0 
-0.670703 -0.354417 0 
-0.618952 -0.352514 0 
-0.567003 -0.350494 0 
-0.513639 -0.351685 0 
-0.462546 -0.348492 0 
-0.411459 -0.344215 0 
-0.351697 -0.351697 0 
-0.29839 -0.336232 0 
-0.249846 -0.342529 0 
-0.200971 -0.367271 0 
-0.149995 -0.337521 0 
-0.100435 -0.3646 0 
-0.0498692 -0.335025 0 
-6.88684e-05 -0.365025 0 
0.0495433 -0.334795 0 
0.0996798 -0.364834 0 
0.148162 -0.337172 0 
0.199644 -0.368939 0 
0.24763 -0.345582 0 
0.295348 -0.332889 0 
0.34978 -0.34978 0 
0.410678 -0.344135 0 
0.462562 -0.348831 0 
0.513798 -0.351514 0 
0.567174 -0.350318 0 
0.619096 -0.352457 0 
0.670836 -0.354397 0 
0.722893 -0.355952 0 
0.775038 -0.357323 0 
0.827419 -0.358581 0 
0.879943 -0.359894 0 
0.93426 -0.356593 0 
-0.952721 -0.303845 0 
-0.898929 -0.308871 0 
-0.847481 -0.306888 0 
-0.795641 -0.305781 0 
-0.743684 -0.304815 0 
-0.691387 -0.303722 0 
-0.639219 -0.302427 0 
-0.586897 -0.300977 0 
-0.534146 -0.301574 0 
-0.48291 -0.299695 0 
-0.432968 -0.295416 0 
-0.381507 -0.30136 0 
-0.336232 -0.29839 0 
-0.288184 -0.288184 0 
-0.242975 -0.290577 0 
-0.198059 -0.315051 0 
-0.148383 -0.285894 0 
-0.0994753 -0.313232 0 
-0.0507184 -0.283118 0 
-0.000202902 -0.313447 0 
0.0500077 -0.282824 0 
0.0988289 -0.312817 0 
0.148102 -0.28482 0 
0.195742 -0.317413 0 
0.240766 -0.295824 0 
0.285014 -0.285014 0 
0.332889 -0.295348 0 
0.379789 -0.301746 0 
0.432268 -0.296569 0 
0.483005 -0.299839 0 
0.534348 -0.301273 0 
0.587085 -0.30086 0 
0.639359 -0.302407 0 
0.691518 -0.303753 0 
0.743741 -0.304862 0 
0.795701 -0.305831 0 
0.847482 -0.306946 0 
0.898924 -0.308979 0 
0.952687 -0.303953 0 
-0.96803 -0.250833 0 
-0.916037 -0.258282 0 
-0.866979 -0.254732 0 
-0.816639 -0.25358 0 
-0.765535 -0.252907 0 
-0.71362 -0.252254 0 
-0.661417 -0.251503 0 
-0.608767 -0.250543 0 
-0.555692 -0.250874 0 
-0.503 -0.250032 0 
-0.450633 -0.247004 0 
-0.395692 -0.25021 0 
-0.342529 -0.249846 0 
-0.290577 -0.242975 0 
-0.239946 -0.239946 0 
-0.194478 -0.26004 0 
-0.151293 -0.23238 0 
-0.101048 -0.260904 0 
-0.0503938 -0.232537 0 
-0.000203281 -0.262984 0 
0.050638 -0.232316 0 
0.100942 -0.260855 0 
0.152412 -0.232597 0 
0.195768 -0.261421 0 
0.241873 -0.241873 0 
0.295824 -0.240766 0 
0.345582 -0.24763 0 
0.396905 -0.25086 0 
0.450921 -0.247983 0 
[...]
POINT_DATA 1245 
VECTORS vectors float
0.581659 -0.217027 0.783947 
0.578648 -0.192924 0.792431 
0.571216 -0.160014 0.805052 
0.564692 -0.124479 0.81586 
0.559493 -0.0793175 0.825031 
0.559102 -0.0373741 0.828256 
0.562621 0.00478742 0.826701 
0.56542 0.0449136 0.823579 
0.570639 0.0815191 0.817145 
0.578105 0.118157 0.807362 
0.583594 0.146001 0.798813 
0.586472 0.172307 0.79143 
0.583182 0.193831 0.788878 
0.570969 -0.255649 0.780153 
0.579398 -0.237154 0.779779 
0.488552 -0.188482 0.851934 
0.490203 -0.168345 0.855196 
0.497398 -0.145963 0.855155 
0.466835 -0.108023 0.877722 
0.482472 -0.0774831 0.872478 
0.456659 -0.0358364 0.88892 
0.481356 0.00243982 0.876522 
0.461395 0.0373591 0.886408 
0.49073 0.0757818 0.86801 
0.475269 0.100178 0.874119 
0.504836 0.132293 0.853018 
0.493253 0.151216 0.856642 
0.486633 0.170433 0.85682 
0.574396 0.214862 0.789876 
0.560288 0.237132 0.793628 
0.534232 -0.296708 0.791556 
0.555839 -0.274831 0.784545 
0.476079 -0.225214 0.850075 
0.484425 -0.206897 0.850015 
0.4055 -0.160925 0.899818 
0.410495 -0.142138 0.900717 
0.420677 -0.122202 0.898943 
0.38096 -0.0867418 0.920514 
0.405154 -0.0632449 0.912058 
0.37017 -0.0293788 0.928499 
0.403124 0.000256463 0.915145 
0.372505 0.0279558 0.927609 
0.41073 0.0598286 0.909792 
0.385137 0.0794779 0.919431 
0.425403 0.111174 0.898149 
0.411145 0.128647 0.902447 
0.401628 0.146733 0.903971 
0.477387 0.189973 0.857911 
0.464991 0.211034 0.859795 
0.541336 0.261579 0.799081 
0.518128 0.288653 0.805123 
0.507392 -0.322452 0.799111 
0.442549 -0.265471 0.856549 
0.462024 -0.244278 0.852562 
0.392225 -0.196475 0.898642 
0.400803 -0.178945 0.898518 
0.333406 -0.137557 0.932694 
0.340152 -0.121001 0.932553 
0.351158 -0.10333 0.930597 
0.309963 -0.0716336 0.948046 
0.332795 -0.0522867 0.941548 
0.298305 -0.0245793 0.954154 
0.329264 -0.000992207 0.944237 
0.299471 0.021036 0.953873 
0.335692 0.0478179 0.940757 
0.311729 0.0649363 0.947949 
0.352945 0.0934554 0.930965 
0.338459 0.110006 0.934529 
0.329063 0.126534 0.935792 
0.393059 0.165694 0.904461 
0.381838 0.185681 0.905385 
0.448145 0.233952 0.862805 
0.428031 0.258567 0.865986 
0.491612 0.318024 0.810665 
0.447253 -0.384 0.80778 
0.477475 -0.35211 0.805007 
0.418837 -0.289154 0.860794 
0.362437 -0.235632 0.90173 
0.37969 -0.215332 0.899704 
0.321295 -0.171846 0.931256 
0.328636 -0.154347 0.931759 
0.273111 -0.118292 0.954682 
0.279055 -0.102897 0.954746 
0.28968 -0.0874249 0.953122 
0.251186 -0.0601524 0.966068 
0.270569 -0.0437463 0.961706 
0.23955 -0.0209762 0.970658 
0.265765 -0.00171162 0.964036 
0.23994 0.0166423 0.970645 
0.271634 0.038781 0.961619 
0.251356 0.05358 0.966411 
0.289578 0.0793325 0.953861 
0.276645 0.0938318 0.95638 
0.267682 0.109471 0.957268 
0.32124 0.144159 0.935961 
0.311171 0.163325 0.936214 
0.367498 0.206976 0.906701 
0.348995 0.229889 0.908489 
0.404534 0.28454 0.869131 
0.462809 0.349099 0.814824 
0.432831 0.380754 0.817119 
0.416825 -0.417574 0.807396 
0.375142 -0.346815 0.859644 
0.393277 -0.314607 0.863919 
0.341549 -0.256952 0.904058 
0.294962 -0.209233 0.932319 
0.309672 -0.189509 0.931767 
0.261438 -0.150127 0.953474 
0.267813 -0.133695 0.95415 
0.220974 -0.101489 0.969985 
0.22756 -0.0879654 0.969783 
0.236654 -0.0744628 0.968736 
0.202846 -0.050753 0.977894 
0.218458 -0.0370962 0.975141 
0.191937 -0.0179434 0.981243 
0.213352 -0.00226137 0.976973 
0.191776 0.0133467 0.981348 
0.218425 0.03182 0.975335 
0.201865 0.0450414 0.978377 
0.235017 0.0672843 0.96966 
0.224277 0.0806608 0.971182 
0.216207 0.0944472 0.971769 
0.260685 0.125794 0.957193 
0.25301 0.14344 0.956771 
0.298673 0.183134 0.936619 
0.283415 0.204491 0.936942 
0.328073 0.253025 0.910135 
0.378928 0.310943 0.871624 
0.359767 0.344231 0.867221 
0.400352 0.414309 0.817353 
0.388122 -0.448903 0.80489 
0.348773 -0.374963 0.858929 
0.312436 -0.310596 0.897727 
0.319765 -0.27958 0.90531 
0.276941 -0.230626 0.9328 
0.241415 -0.187181 0.952199 
0.252509 -0.167692 0.952952 
0.212326 -0.131753 0.968276 
0.218242 -0.1166 0.968904 
0.179307 -0.088074 0.979843 
0.18425 -0.0756186 0.979966 
0.19165 -0.0633867 0.979414 
0.162878 -0.0434098 0.985691 
0.175328 -0.0314894 0.984006 
0.153171 -0.0156878 0.988075 
0.170622 -0.0022944 0.985334 
0.15276 0.0107006 0.988205 
0.174856 0.0263238 0.984242 
0.161273 0.0378417 0.986184 
0.189741 0.0570512 0.980175 
0.180504 0.0694251 0.981121 
0.174329 0.0824574 0.981229 
0.211334 0.110188 0.971183 
0.204099 0.126896 0.970691 
0.242075 0.162644 0.956528 
0.2305 0.184127 0.955493 
0.264245 0.227428 0.937257 
0.305949 0.27724 0.910787 
0.297443 0.308492 0.903527 
0.331156 0.373854 0.866354 
0.367365 0.448067 0.815033 
0.361547 -0.475148 0.802196 
0.319632 -0.391495 0.862883 
0.282405 -0.317792 0.905127 
0.260031 -0.258432 0.930374 
0.229708 -0.209723 0.950395 
0.197982 -0.167728 0.965749 
0.204968 -0.148276 0.967472 
0.172205 -0.116382 0.978162 
0.175941 -0.101381 0.979166 
0.144046 -0.0766472 0.986598 
0.148028 -0.0651417 0.986835 
0.154521 -0.0543585 0.986493 
0.129971 -0.0372136 0.990819 
0.140384 -0.0269306 0.989731 
0.121769 -0.0135021 0.992467 
0.136055 -0.00226602 0.990699 
0.121315 0.00889117 0.992574 
0.13935 0.0222178 0.989994 
0.128399 0.0321854 0.9912 
0.151919 0.0491244 0.987171 
0.144723 0.0597671 0.987666 
0.139308 0.0718614 0.987638 
0.169988 0.0963682 0.980723 
0.164934 0.112156 0.979907 
0.196454 0.144286 0.969839 
0.187968 0.165443 0.968141 
0.218455 0.208166 0.953386 
0.246284 0.257603 0.934337 
0.266064 0.319574 0.909441 
0.29981 0.393428 0.869096 
0.336368 0.479646 0.81043 
0.334343 -0.497821 0.800243 
0.29619 -0.413039 0.861203 
0.260728 -0.337729 0.904412 
0.232591 -0.274491 0.933036 
0.211368 -0.227673 0.95052 
0.185312 -0.184137 0.965274 
0.160025 -0.147355 0.976053 
0.166281 -0.130997 0.977338 
0.138283 -0.102115 0.985114 
0.142364 -0.0891856 0.985788 
0.115578 -0.0676439 0.990992 
0.118621 -0.0569029 0.991308 
0.123774 -0.0472403 0.991185 
0.10363 -0.032251 0.994093 
0.11168 -0.0235681 0.993465 
0.096536 -0.0118497 0.995259 
0.108078 -0.00238553 0.99414 
0.0958347 0.00732082 0.99537 
0.110584 0.0186608 0.993692 
0.101476 0.0277862 0.99445 
0.121054 0.0422471 0.991746 
0.11505 0.0526153 0.991965 
0.111454 0.0635647 0.991735 
0.136679 0.0852939 0.986937 
0.131877 0.0991158 0.986298 
0.157922 0.128731 0.979024 
0.151822 0.145983 0.977568 
0.174947 0.183851 0.96726 
0.199208 0.228997 0.952826 
0.218651 0.275784 0.936021 
0.24342 0.342652 0.907379 
0.274474 0.421011 0.864531 
0.306808 0.510098 0.803535 
0.305657 -0.517199 0.799424 
0.271358 -0.431392 0.860387 
0.239066 -0.355198 0.903705 
0.211234 -0.290462 0.93328 
0.188242 -0.238361 0.952759 
0.168206 -0.196193 0.966031 
0.14746 -0.159362 0.976145 
0.128108 -0.127554 0.983524 
0.132093 -0.114986 0.984545 
0.110509 -0.0917996 0.989627 
0.113925 -0.0795724 0.990298 
0.0923909 -0.0596624 0.993934 
0.0945223 -0.0500367 0.994264 
0.0983918 -0.0412255 0.994293 
0.0816992 -0.0282599 0.996256 
0.0885578 -0.0203524 0.995863 
0.0758082 -0.0105696 0.997066 
0.0855015 -0.00217359 0.996336 
0.0752354 0.00613953 0.997147 
0.087546 0.0160293 0.996032 
0.0798122 0.0237694 0.996526 
0.0961174 0.0367669 0.994691 
0.0912144 0.0458614 0.994775 
0.0884969 0.0565747 0.994469 
0.108757 0.0762159 0.991142 
0.104651 0.0900416 0.990425 
0.125349 0.112726 0.985688 
0.120591 0.12779 0.984443 
0.138856 0.160045 0.977295 
0.158129 0.197719 0.967421 
0.176331 0.242587 0.95397 
0.197196 0.296835 0.934346 
0.222024 0.364788 0.904232 
0.250426 0.445915 0.85933 
0.279829 0.537989 0.79515 
0.275178 -0.534254 0.799281 
0.245137 -0.446608 0.860493 
0.215826 -0.369203 0.90394 
0.189697 -0.302996 0.933921 
0.167426 -0.247984 0.954187 
0.147842 -0.202594 0.968038 
0.130718 -0.164626 0.977656 
0.113743 -0.132269 0.984666 
0.103384 -0.104383 0.989149 
0.0888926 -0.0821243 0.99265 
0.0912203 -0.0705201 0.993331 
0.0738283 -0.0528039 0.995872 
0.0743236 -0.0437316 0.996275 
0.0782096 -0.0359286 0.996289 
0.0640541 -0.0249779 0.997634 
0.0699289 -0.018063 0.997388 
0.0593265 -0.00940184 0.998194 
0.067311 -0.00220002 0.99773 
0.0587633 0.00522927 0.998258 
0.0686333 0.0137102 0.997548 
0.0623905 0.0212469 0.997826 
0.0756778 0.032121 0.996615 
0.071809 0.0406205 0.996591 
0.0700564 0.0498322 0.996298 
0.0867967 0.068003 0.993902 
0.0836441 0.0802976 0.993255 
0.0974383 0.103385 0.989857 
0.107171 0.132721 0.985342 
0.122607 0.167314 0.97825 
0.138769 0.206933 0.968464 
0.156629 0.254849 0.954211 
0.177533 0.313325 0.932904 
0.201285 0.384391 0.900959 
0.228123 0.467118 0.85426 
0.255789 0.561799 0.786737 
0.243706 -0.549827 0.798935 
0.217934 -0.459564 0.860991 
0.191739 -0.380473 0.904697 
0.16876 -0.313109 0.934603 
0.14773 -0.256179 0.955274 
0.130138 -0.209187 0.969177 
0.11446 -0.170363 0.978711 
0.100795 -0.137829 0.985314 
0.090619 -0.110583 0.989727 
0.0805365 -0.0901492 0.992667 
0.070121 -0.0720021 0.994937 
0.0722493 -0.0625797 0.995421 
0.0586213 -0.0488836 0.997083 
0.0582304 -0.0397418 0.997512 
0.061047 -0.0322489 0.997614 
0.0500607 -0.022568 0.998491 
0.0544417 -0.0161745 0.998386 
0.0461109 -0.00867563 0.998899 
0.0524302 -0.00213757 0.998622 
0.0455955 0.00422958 0.998951 
0.0534671 0.0121561 0.998496 
0.0482648 0.0181382 0.99867 
0.0589963 0.0285196 0.997851 
0.0558204 0.0364811 0.997774 
0.0551178 0.0465609 0.997394 
0.0681629 0.0601439 0.99586 
0.0650419 0.070091 0.995418 
0.0757564 0.0892914 0.99312 
0.084838 0.111483 0.990138 
0.0947104 0.140037 0.985606 
0.107434 0.174641 0.978753 
0.122687 0.215732 0.968714 
0.139585 0.266238 0.953747 
0.159362 0.326805 0.931559 
0.182404 0.399284 0.898499 
0.207871 0.484374 0.849807 
0.234416 0.580592 0.779719 
0.212384 -0.564137 0.797899 
0.190605 -0.470983 0.861304 
0.168299 -0.390592 0.905049 
0.146814 -0.321018 0.935624 
0.128775 -0.263191 0.956111 
0.112682 -0.214666 0.970166 
0.0987059 -0.174604 0.979679 
0.0867141 -0.141528 0.986129 
0.0772964 -0.11451 0.99041 
0.0682622 -0.0922212 0.993396 
0.0603542 -0.0741012 0.995423 
0.055651 -0.0580394 0.996762 
0.047134 -0.0447808 0.997884 
0.0448024 -0.0356605 0.998359 
0.0473297 -0.0290491 0.998457 
0.0383121 -0.0201695 0.999062 
0.0422856 -0.0145731 0.998999 
0.0349282 -0.00778649 0.999359 
0.0405129 -0.00209105 0.999177 
0.0343108 0.00374008 0.999404 
0.0413709 0.0104609 0.999089 
0.0367118 0.0164804 0.99919 
0.0457834 0.0257648 0.998619 
0.0430503 0.0325265 0.998543 
0.0431491 0.0409847 0.998228 
0.0517296 0.0554977 0.997118 
0.056592 0.0730214 0.995723 
0.0639363 0.09277 0.993633 
0.0727331 0.116069 0.990575 
0.0815995 0.145259 0.986023 
0.0938797 0.18008 0.979162 
0.106997 0.223287 0.968863 
0.123873 0.274487 0.953579 
0.142547 0.337069 0.930626 
0.164344 0.410833 0.896776 
0.189446 0.496621 0.847041 
0.214856 0.594106 0.775161 
0.182389 -0.576814 0.796254 
0.165166 -0.482085 0.860415 
0.144332 -0.399674 0.905223 
0.126551 -0.329188 0.935746 
0.110546 -0.269464 0.956644 
0.0960954 -0.21926 0.970923 
0.0838837 -0.177991 0.98045 
0.0733802 -0.1441 0.986839 
0.0647308 -0.115931 0.991146 
0.0571388 -0.0938042 0.99395 
0.0499492 -0.0755871 0.995887 
0.0461683 -0.0610196 0.997068 
0.0417328 -0.0499224 0.997881 
0.0360663 -0.039337 0.998575 
0.0337631 -0.0316725 0.998928 
0.0363095 -0.0261629 0.998998 
0.0289545 -0.0183751 0.999412 
0.0322629 -0.0133181 0.999391 
0.0262893 -0.00732319 0.999628 
0.0309378 -0.00221658 0.999519 
0.0260204 0.00311022 0.999657 
0.0313582 0.00893259 0.999468 
0.0276744 0.0144649 0.999512 
0.0348063 0.0219278 0.999153 
0.0326257 0.0287078 0.999055 
0.0330616 0.0360347 0.998804 
0.0381316 0.0470766 0.998163 
0.0427147 0.0593882 0.997321 
0.0469742 0.0753894 0.996047 
0.0536083 0.0947111 0.99406 
0.061112 0.118643 0.991055 
0.0696821 0.148134 0.986509 
0.0805741 0.184608 0.979504 
0.0938905 0.228076 0.969106 
0.108647 0.281804 0.953301 
0.126964 0.34473 0.930076 
0.147917 0.419418 0.895661 
0.171774 0.505457 0.845581 
0.195948 0.602273 0.773868 
0.154251 -0.587117 0.79467 
0.140545 -0.493306 0.858427 
0.122729 -0.41187 0.90294 
0.107376 -0.340407 0.934127 
0.0931446 -0.279164 0.955715 
0.0811717 -0.227342 0.970426 
0.0705789 -0.184543 0.980287 
0.061047 -0.148449 0.987034 
0.0536129 -0.119778 0.991352 
0.0467705 -0.0959918 0.994283 
0.0407298 -0.0763937 0.996245 
0.0365758 -0.0607702 0.997481 
0.0323691 -0.0478023 0.998332 
0.0281613 -0.0372351 0.99891 
0.025324 -0.0291468 0.999254 
0.0263361 -0.0232523 0.999383 
0.0209923 -0.0174404 0.999628 
0.0237734 -0.0123043 0.999642 
0.0190547 -0.00710903 0.999793 
0.0224847 -0.00209335 0.999745 
0.018465 0.00265419 0.999826 
0.0226203 0.00854537 0.999708 
0.0200147 0.0135636 0.999708 
0.0249897 0.0203262 0.999481 
0.0238696 0.0263414 0.999368 
0.0258325 0.0356283 0.999031 
0.0298159 0.0466928 0.998464 
0.0343321 0.0602591 0.997592 
0.0381067 0.0767899 0.996319 
0.0440572 0.0975418 0.994256 
0.0509632 0.122439 0.991167 
0.0592674 0.153242 0.98641 
0.0689223 0.190838 0.979199 
0.0813038 0.236294 0.968274 
0.0954337 0.290279 0.952172 
0.112265 0.354403 0.928329 
0.131512 0.428391 0.893972 
0.155027 0.511935 0.84492 
0.176281 0.605248 0.776273 
0.125475 -0.593845 0.794735 
0.118533 -0.51112 0.851297 
0.102606 -0.431144 0.89643 
0.0889185 -0.357924 0.929507 
0.0775374 -0.293817 0.952712 
0.0671279 -0.239404 0.968597 
0.0578063 -0.193524 0.979391 
0.0500921 -0.156225 0.98645 
0.0434625 -0.125495 0.991142 
0.037804 -0.100206 0.994248 
0.0326619 -0.0805469 0.996216 
0.028801 -0.0636834 0.997554 
0.0256375 -0.0504414 0.998398 
0.0223661 -0.039736 0.99896 
0.0192217 -0.0302775 0.999357 
0.0182726 -0.022472 0.99958 
0.0148852 -0.0158546 0.999764 
0.0167666 -0.0113987 0.999794 
0.0130078 -0.00595608 0.999898 
0.0163912 -0.00200664 0.999864 
0.0127306 0.00233328 0.999916 
0.0165253 0.00737415 0.999836 
0.0136665 0.0125091 0.999828 
0.0172627 0.0194345 0.999662 
0.0179706 0.0275781 0.999458 
0.020256 0.0382287 0.999064 
0.0233346 0.0490974 0.998521 
0.0267358 0.063604 0.997617 
0.0307585 0.0808601 0.996251 
0.0358892 0.102043 0.994132 
0.0417344 0.12834 0.990852 
0.0494559 0.16051 0.985794 
0.0586767 0.199588 0.978122 
0.0692903 0.246898 0.966561 
0.0829164 0.303194 0.949315 
0.0978318 0.368403 0.924504 
0.116754 0.442539 0.889116 
0.137641 0.523515 0.840825 
0.152445 0.602594 0.783352 
0.100475 -0.596803 0.796072 
0.0897417 -0.488309 0.868044 
0.074445 -0.395084 0.915623 
0.062979 -0.319318 0.945552 
0.0535196 -0.257215 0.964871 
0.0458475 -0.206821 0.977304 
0.0391674 -0.165865 0.98537 
0.0335216 -0.132296 0.990643 
0.0288632 -0.106123 0.993934 
0.0247764 -0.0842453 0.996137 
0.0215445 -0.0668814 0.997528 
0.0189065 -0.0532193 0.998404 
0.0162402 -0.0419136 0.998989 
0.0144149 -0.0329289 0.999354 
0.0130965 -0.0251751 0.999597 
0.01129 -0.0194276 0.999748 
0.00890727 -0.0139607 0.999863 
0.011359 -0.0104308 0.999881 
0.00748756 -0.00660243 0.99995 
0.0102456 -0.0025213 0.999944 
0.00746117 0.00221425 0.99997 
0.010478 0.00632617 0.999925 
0.00848447 0.0101204 0.999913 
0.0105278 0.0156467 0.999822 
0.0117196 0.0223996 0.99968 
0.0126284 0.0301232 0.999466 
0.0144019 0.0395926 0.999112 
0.0170155 0.052131 0.998495 
0.0199529 0.0662296 0.997605 
0.0229896 0.0848139 0.996132 
0.0277397 0.107322 0.993837 
0.0331775 0.13509 0.990278 
0.0393524 0.169437 0.984755 
0.0480471 0.21156 0.976183 
0.0578974 0.262594 0.963168 
0.070613 0.325163 0.943018 
0.0865848 0.400897 0.912022 
0.108436 0.492868 0.863321 
0.127475 0.597412 0.791738 
0.0723826 -0.597225 0.798801 
0.0687243 -0.5108 0.856948 
0.0571311 -0.42591 0.90296 
0.0476646 -0.346813 0.936722 
0.0398382 -0.279632 0.95928 
0.0335575 -0.224477 0.973901 
0.028186 -0.179422 0.983368 
0.023842 -0.143692 0.989335 
0.0202738 -0.114556 0.99321 
0.0170706 -0.0912669 0.99568 
0.0146047 -0.0729707 0.997227 
0.0124148 -0.0577159 0.998256 
0.0107752 -0.0459238 0.998887 
0.00917355 -0.0361518 0.999304 
0.00775059 -0.0280425 0.999577 
0.00687405 -0.0215491 0.999744 
0.00550976 -0.0160199 0.999856 
0.0054311 -0.0103841 0.999931 
0.00369171 -0.00608496 0.999975 
0.00595886 -0.00184874 0.999981 
0.00322898 0.00176775 0.999993 
0.00481271 0.00649755 0.999967 
0.00471996 0.0124791 0.999911 
0.00567138 0.0182064 0.999818 
0.00679878 0.024998 0.999664 
0.00758297 0.0338775 0.999397 
0.00921128 0.0442438 0.998978 
0.0109502 0.0567136 0.99833 
0.0134359 0.0727014 0.997263 
0.0162116 0.0919168 0.995635 
0.0194263 0.115962 0.993064 
0.0242382 0.14574 0.989026 
0.029628 0.182231 0.982809 
0.0364292 0.227453 0.973107 
0.0453216 0.282466 0.958206 
0.0562104 0.348412 0.935655 
0.0700901 0.425916 0.902044 
0.0874455 0.508331 0.85671 
0.0954316 0.589631 0.802015 
0.0468997 -0.596081 0.801554 
0.0405554 -0.483138 0.874604 
0.0316483 -0.387753 0.92122 
0.0250519 -0.309671 0.950514 
0.0203221 -0.246931 0.96882 
0.0164222 -0.19704 0.980258 
0.0134185 -0.156898 0.987524 
0.0108432 -0.124748 0.992129 
0.0088973 -0.0996598 0.994982 
0.0071396 -0.0788097 0.996864 
0.00586555 -0.0627222 0.998014 
0.00480643 -0.0496169 0.998757 
0.00336933 -0.0391417 0.999228 
0.00327516 -0.0304397 0.999531 
0.00205063 -0.0239642 0.999711 
0.00141412 -0.01744 0.999847 
0.00121726 -0.0133295 0.99991 
0.000668227 -0.00863757 0.999962 
-0.0016179 -0.00545735 0.999984 
0.00195571 -0.00174323 0.999997 
-0.00152268 -0.000477548 0.999999 
0.000532202 0.00512371 0.999987 
0.000525698 0.00851167 0.999964 
0.000650842 0.0146434 0.999893 
0.0012025 0.0202521 0.999794 
0.0017336 0.0278845 0.99961 
0.00232876 0.0367042 0.999323 
0.00347767 0.0480296 0.99884 
0.00482067 0.0618583 0.998073 
0.00602284 0.0784476 0.9969 
0.00840499 0.0999103 0.994961 
0.0108224 0.125836 0.991992 
0.013825 0.158223 0.987307 
0.0182224 0.198422 0.979947 
0.0233995 0.247775 0.968535 
0.0302247 0.309312 0.95048 
0.0399276 0.384647 0.9222 
0.0523182 0.476324 0.877712 
0.0636975 0.583051 0.809935 
0.0208979 -0.593693 0.80442 
0.0155076 -0.505681 0.862581 
0.0115894 -0.42025 0.907335 
0.00783368 -0.340676 0.940148 
0.00508229 -0.273329 0.961907 
0.00299102 -0.218274 0.975883 
0.00164209 -0.174197 0.984709 
0.000538175 -0.13923 0.99026 
-0.000199761 -0.110968 0.993824 
-0.000875321 -0.088389 0.996086 
-0.00122279 -0.0707157 0.997496 
-0.0017972 -0.0559416 0.998432 
-0.00190231 -0.0445897 0.999004 
-0.00206109 -0.0349981 0.999385 
-0.00286849 -0.0274142 0.99962 
-0.00247115 -0.0209744 0.999777 
-0.00329007 -0.0161993 0.999863 
-0.00307307 -0.0106241 0.999939 
-0.00291183 -0.00724276 0.99997 
-0.00243891 -0.000526032 0.999997 
-0.00360379 0.00317958 0.999988 
-0.00344035 0.00759992 0.999965 
-0.00388818 0.0114537 0.999927 
-0.00345956 0.0177419 0.999837 
-0.00367435 0.0243448 0.999697 
-0.00320361 0.0324439 0.999468 
-0.00301585 0.0426317 0.999086 
-0.00286661 0.0544897 0.99851 
-0.00190007 0.0697083 0.997566 
-0.00151317 0.0883138 0.996092 
-0.000712886 0.111106 0.993808 
0.000790351 0.139735 0.990189 
0.00220538 0.17487 0.984589 
0.00435396 0.218506 0.975826 
0.00740557 0.272233 0.962203 
0.0111842 0.33726 0.941345 
0.0161911 0.413283 0.910459 
0.0222929 0.493771 0.869306 
0.0287256 0.577328 0.816007 
-0.00765012 -0.586208 0.810125 
-0.0131257 -0.474161 0.88034 
-0.0132816 -0.381385 0.924321 
-0.0131811 -0.304704 0.952356 
-0.0127743 -0.243514 0.969813 
-0.0122474 -0.194545 0.980817 
-0.0116261 -0.155074 0.987835 
-0.0108367 -0.123656 0.992266 
-0.0100733 -0.0987236 0.995064 
-0.00954768 -0.078254 0.996888 
-0.00886964 -0.062287 0.998019 
-0.00831695 -0.0494523 0.998742 
-0.00823559 -0.0387802 0.999214 
-0.00744578 -0.0303841 0.999511 
-0.00778981 -0.0237726 0.999687 
-0.00705792 -0.0174029 0.999824 
-0.00763745 -0.0133498 0.999882 
-0.00739122 -0.00855303 0.999936 
-0.00686252 -0.00554791 0.999961 
-0.00836706 -0.00158555 0.999964 
-0.00671181 -0.000584145 0.999977 
-0.00751172 0.00509172 0.999959 
-0.0081534 0.00840577 0.999931 
-0.00766788 0.0145186 0.999865 
-0.00850398 0.0200902 0.999762 
-0.00850305 0.0276274 0.999582 
-0.00914812 0.0363727 0.999296 
-0.00914544 0.0474449 0.998832 
-0.00971736 0.0609793 0.998092 
-0.0102834 0.0774781 0.996941 
-0.0103737 0.098263 0.995106 
-0.0111924 0.123811 0.992243 
-0.0116731 0.155382 0.987785 