# vtk DataFile Version 3.0 
Exported using Morpho https://github.com/Morpho-lang/morpho 
ASCII 
DATASET UNSTRUCTURED_GRID 

POINTS 1245 float 
-0.303845 -0.952721 0 
-0.250833 -0.96803 0 
-0.195084 -0.980787 0 
-0.146308 -0.989239 0 
-0.0940719 -0.995565 0 
-0.0475118 -0.998871 0 
-0.000246339 -1 0 
0.0470875 -0.998891 0 
0.0937543 -0.995595 0 
0.146139 -0.989264 0 
0.195062 -0.980791 0 
0.250843 -0.968028 0 
0.303953 -0.952687 0 
-0.409153 -0.912466 0 
-0.356519 -0.934288 0 
-0.308871 -0.898929 0 
-0.258282 -0.916037 0 
-0.207345 -0.934859 0 
-0.154868 -0.930629 0 
-0.104343 -0.948989 0 
-0.0520099 -0.939193 0 
-8.5762e-05 -0.954582 0 
0.0518744 -0.939288 0 
0.104354 -0.949042 0 
0.154696 -0.9306 0 
0.207366 -0.934975 0 
0.258274 -0.916081 0 
0.308979 -0.898924 0 
0.356593 -0.93426 0 
0.409236 -0.912429 0 
-0.513788 -0.857917 0 
-0.461695 -0.887039 0 
-0.411157 -0.857936 0 
-0.359855 -0.879963 0 
-0.306888 -0.847481 0 
-0.254732 -0.866979 0 
-0.201991 -0.889059 0 
-0.149956 -0.874108 0 
-0.100608 -0.900088 0 
-0.0497575 -0.880388 0 
2.4595e-05 -0.904789 0 
0.0496869 -0.8804 0 
0.100612 -0.900177 0 
0.149872 -0.874171 0 
0.202071 -0.889165 0 
0.254695 -0.867031 0 
0.306946 -0.847482 0 
0.359894 -0.879943 0 
0.411236 -0.857929 0 
0.461748 -0.887011 0 
0.513842 -0.857885 0 
-0.564741 -0.825268 0 
-0.512908 -0.802945 0 
-0.462372 -0.832348 0 
-0.410124 -0.804631 0 
-0.358606 -0.827415 0 
-0.305781 -0.795641 0 
-0.25358 -0.816639 0 
-0.200756 -0.839997 0 
-0.149043 -0.818944 0 
-0.0987265 -0.846667 0 
-0.0490473 -0.822548 0 
5.00659e-05 -0.849932 0 
0.0490834 -0.822542 0 
0.0987838 -0.846676 0 
0.148997 -0.818924 0 
0.200826 -0.840131 0 
0.253508 -0.816728 0 
0.305831 -0.795701 0 
0.358581 -0.827419 0 
0.410181 -0.804654 0 
0.462414 -0.83234 0 
0.512965 -0.802929 0 
0.564777 -0.825243 0 
-0.660798 -0.750564 0 
-0.614015 -0.789295 0 
-0.561786 -0.769772 0 
-0.510673 -0.747856 0 
-0.460836 -0.778365 0 
-0.408794 -0.751554 0 
-0.357337 -0.774971 0 
-0.304815 -0.743684 0 
-0.252907 -0.765535 0 
-0.200631 -0.789263 0 
-0.149244 -0.764328 0 
-0.0986912 -0.791935 0 
-0.0492815 -0.765764 0 
4.16586e-05 -0.79382 0 
0.0492411 -0.765708 0 
0.0987508 -0.791951 0 
0.149196 -0.764326 0 
0.200666 -0.789356 0 
0.252841 -0.765599 0 
0.304862 -0.743741 0 
0.357323 -0.775038 0 
0.408863 -0.751626 0 
0.460863 -0.778382 0 
0.510716 -0.747859 0 
0.561819 -0.769761 0 
0.614041 -0.789274 0 
0.660811 -0.750552 0 
-0.707107 -0.707107 0 
-0.654819 -0.699058 0 
-0.60813 -0.73348 0 
-0.558104 -0.71337 0 
-0.509495 -0.692659 0 
-0.45935 -0.724356 0 
-0.407328 -0.698865 0 
-0.355968 -0.722823 0 
-0.303722 -0.691387 0 
-0.252254 -0.71362 0 
-0.20067 -0.737336 0 
-0.149608 -0.710068 0 
-0.0991558 -0.737129 0 
-0.0495872 -0.709825 0 
-2.23646e-05 -0.737917 0 
0.0494408 -0.709766 0 
0.0991291 -0.737116 0 
0.149502 -0.710042 0 
0.200696 -0.73743 0 
0.252186 -0.713735 0 
0.303753 -0.691518 0 
0.355952 -0.722893 0 
0.407371 -0.698945 0 
0.459374 -0.724407 0 
0.509524 -0.692668 0 
0.558131 -0.713361 0 
0.608151 -0.733462 0 
0.654824 -0.699048 0 
0.707107 -0.707107 0 
-0.750564 -0.660798 0 
-0.699058 -0.654819 0 
-0.647692 -0.647692 0 
-0.603437 -0.675718 0 
-0.55905 -0.655305 0 
-0.508501 -0.639581 0 
-0.457509 -0.671321 0 
-0.405555 -0.646545 0 
-0.354417 -0.670703 0 
-0.302427 -0.639219 0 
-0.251503 -0.661417 0 
-0.20061 -0.684911 0 
-0.149717 -0.655943 0 
-0.0995004 -0.682466 0 
-0.0498216 -0.654561 0 
-5.02113e-05 -0.682664 0 
0.0496787 -0.654499 0 
0.0994374 -0.682501 0 
0.149603 -0.655909 0 
0.200573 -0.684972 0 
0.251388 -0.661524 0 
0.302407 -0.639359 0 
0.354397 -0.670836 0 
0.405575 -0.646641 0 
0.457525 -0.67138 0 
0.508497 -0.639623 0 
0.559063 -0.655324 0 
0.603436 -0.675715 0 
0.64769 -0.64769 0 
0.699048 -0.654824 0 
0.750552 -0.660811 0 
-0.789295 -0.614015 0 
-0.73348 -0.60813 0 
-0.675718 -0.603437 0 
-0.613088 -0.613088 0 
-0.55962 -0.604068 0 
-0.506189 -0.588854 0 
-0.455505 -0.618874 0 
-0.403019 -0.594688 0 
-0.352514 -0.618952 0 
-0.300977 -0.586897 0 
-0.250543 -0.608767 0 
-0.200257 -0.632053 0 
-0.150049 -0.601979 0 
-0.0998281 -0.628222 0 
-0.0500377 -0.599914 0 
-3.12334e-05 -0.628076 0 
0.0498927 -0.599835 0 
0.0997818 -0.628253 0 
0.149924 -0.601867 0 
0.200214 -0.632118 0 
0.250423 -0.608915 0 
0.30086 -0.587085 0 
0.352457 -0.619096 0 
0.402948 -0.594743 0 
0.455483 -0.618952 0 
0.506147 -0.588901 0 
0.55964 -0.604067 0 
0.613069 -0.613069 0 
0.675715 -0.603436 0 
0.733462 -0.608151 0 
0.789274 -0.614041 0 
-0.825268 -0.564741 0 
-0.769772 -0.561786 0 
-0.71337 -0.558104 0 
-0.655305 -0.55905 0 
-0.604068 -0.55962 0 
-0.551031 -0.551031 0 
-0.497922 -0.537596 0 
-0.451508 -0.567021 0 
-0.399773 -0.542431 0 
-0.350494 -0.567003 0 
-0.301574 -0.534146 0 
-0.250874 -0.555692 0 
-0.200542 -0.579013 0 
-0.150324 -0.548268 0 
-0.100169 -0.57443 0 
-0.0500152 -0.545912 0 
-3.29278e-05 -0.574268 0 
0.0499208 -0.545788 0 
0.100058 -0.574485 0 
0.150038 -0.548073 0 
0.200377 -0.579041 0 
0.250556 -0.55585 0 
0.301273 -0.534348 0 
0.350318 -0.567174 0 
0.399615 -0.542384 0 
0.451404 -0.5671 0 
0.497945 -0.537702 0 
0.551073 -0.551073 0 
0.604067 -0.55964 0 
0.655324 -0.559063 0 
0.713361 -0.558131 0 
0.769761 -0.561819 0 
0.825243 -0.564777 0 
-0.857917 -0.513788 0 
-0.802945 -0.512908 0 
-0.747856 -0.510673 0 
-0.692659 -0.509495 0 
-0.639581 -0.508501 0 
-0.588854 -0.506189 0 
-0.537596 -0.497922 0 
-0.486157 -0.486157 0 
-0.444928 -0.512952 0 
-0.401787 -0.486784 0 
-0.351685 -0.513639 0 
-0.299695 -0.48291 0 
-0.250032 -0.503 0 
-0.200501 -0.526165 0 
-0.149489 -0.495195 0 
-0.0999281 -0.521367 0 
-0.0499712 -0.492294 0 
4.64723e-05 -0.520999 0 
0.050147 -0.492108 0 
0.099934 -0.52133 0 
0.14957 -0.494692 0 
0.200133 -0.526255 0 
0.249839 -0.503309 0 
0.299839 -0.483005 0 
0.351514 -0.513798 0 
0.401881 -0.486608 0 
0.444935 -0.513054 0 
0.486228 -0.486228 0 
0.537702 -0.497945 0 
0.588901 -0.506147 0 
0.639623 -0.508497 0 
0.692668 -0.509524 0 
0.747859 -0.510716 0 
0.802929 -0.512965 0 
0.857885 -0.513842 0 
-0.887039 -0.461695 0 
-0.832348 -0.462372 0 
-0.778365 -0.460836 0 
-0.724356 -0.45935 0 
-0.671321 -0.457509 0 
-0.618874 -0.455505 0 
-0.567021 -0.451508 0 
-0.512952 -0.444928 0 
-0.450685 -0.450685 0 
-0.397667 -0.437543 0 
-0.348492 -0.462546 0 
-0.295416 -0.432968 0 
-0.247004 -0.450633 0 
-0.198702 -0.473818 0 
-0.150161 -0.441625 0 
-0.100085 -0.468395 0 
-0.0502271 -0.439281 0 
0.000144229 -0.468374 0 
0.0504178 -0.439106 0 
0.100428 -0.468348 0 
0.150697 -0.441105 0 
0.199103 -0.473881 0 
0.247983 -0.450921 0 
0.296569 -0.432268 0 
0.348831 -0.462562 0 
0.397506 -0.4368 0 
0.450637 -0.450637 0 
0.513054 -0.444935 0 
0.5671 -0.451404 0 
0.618952 -0.455483 0 
0.67138 -0.457525 0 
0.724407 -0.459374 0 
0.778382 -0.460863 0 
0.83234 -0.462414 0 
0.887011 -0.461748 0 
-0.912466 -0.409153 0 
-0.857936 -0.411157 0 
-0.804631 -0.410124 0 
-0.751554 -0.408794 0 
-0.698865 -0.407328 0 
-0.646545 -0.405555 0 
-0.594688 -0.403019 0 
-0.542431 -0.399773 0 
-0.486784 -0.401787 0 
-0.437543 -0.397667 0 
-0.387256 -0.387256 0 
-0.344215 -0.411459 0 
-0.30136 -0.381507 0 
-0.25021 -0.395692 0 
-0.200211 -0.419975 0 
-0.150955 -0.389014 0 
-0.100617 -0.416095 0 
-0.0503197 -0.386922 0 
-4.02994e-05 -0.416525 0 
0.05006 -0.386948 0 
0.100784 -0.416323 0 
0.150432 -0.388572 0 
0.200855 -0.420694 0 
0.25086 -0.396905 0 
0.301746 -0.379789 0 
0.344135 -0.410678 0 
0.385823 -0.385823 0 
0.4368 -0.397506 0 
0.486608 -0.401881 0 
0.542384 -0.399615 0 
0.594743 -0.402948 0 
0.646641 -0.405575 0 
0.698945 -0.407371 0 
0.751626 -0.408863 0 
0.804654 -0.410181 0 
0.857929 -0.411236 0 
0.912429 -0.409236 0 
-0.934288 -0.356519 0 
-0.879963 -0.359855 0 
-0.827415 -0.358606 0 
-0.774971 -0.357337 0 
-0.722823 -0.355968 0 
-0.670703 -0.354417 0 
-0.618952 -0.352514 0 
-0.567003 -0.350494 0 
-0.513639 -0.351685 0 
-0.462546 -0.348492 0 
-0.411459 -0.344215 0 
-0.351697 -0.351697 0 
-0.29839 -0.336232 0 
-0.249846 -0.342529 0 
-0.200971 -0.367271 0 
-0.149995 -0.337521 0 
-0.100435 -0.3646 0 
-0.0498692 -0.335025 0 
-6.88684e-05 -0.365025 0 
0.0495433 -0.334795 0 
0.0996798 -0.364834 0 
0.148162 -0.337172 0 
0.199644 -0.368939 0 
0.24763 -0.345582 0 
0.295348 -0.332889 0 
0.34978 -0.34978 0 
0.410678 -0.344135 0 
0.462562 -0.348831 0 
0.513798 -0.351514 0 
0.567174 -0.350318 0 
0.619096 -0.352457 0 
0.670836 -0.354397 0 
0.722893 -0.355952 0 
0.775038 -0.357323 0 
0.827419 -0.358581 0 
0.879943 -0.359894 0 
0.93426 -0.356593 0 
-0.952721 -0.303845 0 
-0.898929 -0.308871 0 
-0.847481 -0.306888 0 
-0.795641 -0.305781 0 
-0.743684 -0.304815 0 
-0.691387 -0.303722 0 
-0.639219 -0.302427 0 
-0.586897 -0.300977 0 
-0.534146 -0.301574 0 
-0.48291 -0.299695 0 
-0.432968 -0.295416 0 
-0.381507 -0.30136 0 
-0.336232 -0.29839 0 
-0.288184 -0.288184 0 
-0.242975 -0.290577 0 
-0.198059 -0.315051 0 
-0.148383 -0.285894 0 
-0.0994753 -0.313232 0 
-0.0507184 -0.283118 0 
-0.000202902 -0.313447 0 
0.0500077 -0.282824 0 
0.0988289 -0.312817 0 
0.148102 -0.28482 0 
0.195742 -0.317413 0 
0.240766 -0.295824 0 
0.285014 -0.285014 0 
0.332889 -0.295348 0 
0.379789 -0.301746 0 
0.432268 -0.296569 0 
0.483005 -0.299839 0 
0.534348 -0.301273 0 
0.587085 -0.30086 0 
0.639359 -0.302407 0 
0.691518 -0.303753 0 
0.743741 -0.304862 0 
0.795701 -0.305831 0 
0.847482 -0.306946 0 
0.898924 -0.308979 0 
0.952687 -0.303953 0 
-0.96803 -0.250833 0 
-0.916037 -0.258282 0 
-0.866979 -0.254732 0 
-0.816639 -0.25358 0 
-0.765535 -0.252907 0 
-0.71362 -0.252254 0 
-0.661417 -0.251503 0 
-0.608767 -0.250543 0 
-0.555692 -0.250874 0 
-0.503 -0.250032 0 
-0.450633 -0.247004 0 
-0.395692 -0.25021 0 
-0.342529 -0.249846 0 
-0.290577 -0.242975 0 
-0.239946 -0.239946 0 
-0.194478 -0.26004 0 
-0.151293 -0.23238 0 
-0.101048 -0.260904 0 
-0.0503938 -0.232537 0 
-0.000203281 -0.262984 0 
0.050638 -0.232316 0 
0.100942 -0.260855 0 
0.152412 -0.232597 0 
0.195768 -0.261421 0 
0.241873 -0.241873 0 
0.295824 -0.240766 0 
0.345582 -0.24763 0 
0.396905 -0.25086 0 
0.450921 -0.247983 0 
[...]
POINT_DATA 1245 
VECTORS vectors float
0.595658 -0.209352 0.775476 
0.598576 -0.180253 0.780523 
0.598374 -0.145317 0.787929 
0.597468 -0.111273 0.794135 
0.597007 -0.0710276 0.799085 
0.598217 -0.0346237 0.800586 
0.601062 0.00136136 0.799201 
0.600788 0.0365589 0.798572 
0.601539 0.0709334 0.795688 
0.60329 0.107719 0.790213 
0.604058 0.138349 0.784839 
0.602746 0.169905 0.779634 
0.597401 0.197164 0.777328 
0.578809 -0.261892 0.772265 
0.589251 -0.23613 0.772674 
0.503862 -0.186258 0.843463 
0.510055 -0.161758 0.844795 
0.521849 -0.136484 0.842049 
0.496626 -0.100127 0.86217 
0.516422 -0.070419 0.853434 
0.491946 -0.0336544 0.869975 
0.517267 0.000374545 0.855824 
0.493913 0.0333728 0.86887 
0.520282 0.0686634 0.85123 
0.500188 0.0956597 0.860617 
0.525862 0.129467 0.840659 
0.512116 0.152775 0.84522 
0.503587 0.176185 0.845789 
0.588129 0.223484 0.777277 
0.574817 0.250028 0.779148 
0.544415 -0.314493 0.777629 
0.563889 -0.287713 0.774112 
0.487525 -0.233832 0.841214 
0.497221 -0.210236 0.841767 
0.422497 -0.162247 0.891724 
0.430573 -0.139812 0.891661 
0.4454 -0.116886 0.887669 
0.408208 -0.0825125 0.909152 
0.436524 -0.059413 0.897729 
0.401518 -0.0277988 0.915429 
0.435965 -0.000284952 0.899963 
0.402648 0.026066 0.914984 
0.438941 0.0570037 0.896706 
0.410426 0.0783183 0.908525 
0.447693 0.110671 0.887312 
0.431052 0.132178 0.892594 
0.421132 0.153993 0.893831 
0.494494 0.199894 0.845883 
0.482518 0.224293 0.846681 
0.557414 0.27749 0.782489 
0.536051 0.3063 0.786657 
0.52099 -0.342715 0.781739 
0.456698 -0.282647 0.843527 
0.474129 -0.257867 0.841847 
0.406848 -0.206761 0.889789 
0.415577 -0.184372 0.890675 
0.351606 -0.141472 0.925397 
0.360198 -0.121356 0.924949 
0.374659 -0.101128 0.921631 
0.335312 -0.0701675 0.939491 
0.361394 -0.0500907 0.931067 
0.326375 -0.0236068 0.944945 
0.358899 -0.000882398 0.933376 
0.326902 0.021294 0.944818 
0.362627 0.0472177 0.930737 
0.336093 0.0660436 0.93951 
0.375727 0.0958138 0.921764 
0.359811 0.114962 0.925916 
0.349329 0.134702 0.927267 
0.412125 0.176073 0.893952 
0.401411 0.199004 0.894017 
0.467208 0.249539 0.848202 
0.448139 0.275911 0.850321 
0.511305 0.336469 0.790795 
0.466971 -0.402283 0.787469 
0.494682 -0.372316 0.785284 
0.435515 -0.307914 0.845882 
0.378643 -0.251789 0.890636 
0.394643 -0.229049 0.889828 
0.337037 -0.182335 0.923667 
0.345072 -0.161819 0.924521 
0.290751 -0.123516 0.948793 
0.299351 -0.105676 0.948273 
0.312043 -0.0878465 0.945998 
0.27481 -0.060309 0.959605 
0.296328 -0.0430093 0.954117 
0.265074 -0.0204231 0.964012 
0.292594 -0.0012068 0.956236 
0.265143 0.0177057 0.964047 
0.296866 0.0398918 0.954086 
0.274748 0.0566068 0.959849 
0.311965 0.0829398 0.946466 
0.297939 0.100324 0.949298 
0.288281 0.118061 0.95024 
0.341171 0.155122 0.927114 
0.331874 0.176311 0.926701 
0.387564 0.22243 0.894605 
0.370504 0.246458 0.895536 
0.425758 0.302786 0.852673 
0.483918 0.367784 0.794077 
0.455043 0.399429 0.79586 
0.436951 -0.433134 0.788333 
0.394785 -0.364203 0.843505 
0.411936 -0.333229 0.848096 
0.359229 -0.274284 0.892033 
0.312415 -0.225025 0.922909 
0.326321 -0.20338 0.92312 
0.278477 -0.16145 0.946776 
0.285513 -0.142204 0.947766 
0.239785 -0.108312 0.964765 
0.246949 -0.0921348 0.964639 
0.257767 -0.0762538 0.963193 
0.224597 -0.052303 0.973047 
0.242035 -0.0371335 0.969557 
0.215083 -0.0178238 0.976433 
0.237743 -0.00127924 0.971327 
0.214982 0.0149575 0.976503 
0.242012 0.03406 0.969675 
0.22405 0.0487337 0.973358 
0.257154 0.0720621 0.96368 
0.245221 0.0876359 0.965498 
0.236904 0.103901 0.965961 
0.281547 0.136853 0.949738 
0.2731 0.156747 0.949129 
0.319587 0.198167 0.926603 
0.304446 0.221147 0.926502 
0.350034 0.270379 0.896867 
0.401238 0.329758 0.854557 
0.383085 0.362275 0.849707 
0.423569 0.432408 0.795998 
0.406327 -0.462483 0.788041 
0.367675 -0.390844 0.843834 
0.330819 -0.327762 0.884947 
0.338244 -0.297019 0.892956 
0.29491 -0.247209 0.922993 
0.25844 -0.202253 0.944618 
0.26921 -0.180812 0.945956 
0.229445 -0.143266 0.96272 
0.234976 -0.125232 0.9639 
0.196764 -0.0952442 0.975814 
0.202934 -0.0805963 0.97587 
0.212048 -0.0665762 0.974989 
0.183115 -0.0454135 0.982042 
0.197219 -0.0322784 0.979828 
0.174464 -0.0154771 0.984542 
0.193044 -0.00134127 0.981189 
0.174227 0.0128945 0.984621 
0.196816 0.0293773 0.98 
0.182307 0.0423708 0.982328 
0.21074 0.0629805 0.975511 
0.201077 0.076855 0.976556 
0.193995 0.0916959 0.976708 
0.231229 0.121111 0.965332 
0.224712 0.139595 0.964374 
0.263152 0.176958 0.948386 
0.251382 0.199444 0.947116 
0.286367 0.244879 0.926298 
0.328135 0.294688 0.897489 
0.319777 0.32746 0.889108 
0.354921 0.391374 0.849033 
0.39149 0.464604 0.794279 
0.376495 -0.488492 0.787164 
0.33622 -0.407069 0.849265 
0.299447 -0.334563 0.893532 
0.277845 -0.275191 0.920365 
0.246578 -0.225843 0.94244 
0.214655 -0.182436 0.9595 
0.222047 -0.161707 0.961533 
0.188529 -0.127344 0.973776 
0.193595 -0.111033 0.974778 
0.161172 -0.0842279 0.983326 
0.166159 -0.0709139 0.983546 
0.173447 -0.0582867 0.983117 
0.149084 -0.039943 0.988017 
0.160355 -0.0282964 0.986654 
0.141417 -0.0137009 0.989855 
0.156667 -0.00129351 0.987651 
0.141053 0.011169 0.989939 
0.159886 0.0255005 0.986806 
0.147918 0.0372476 0.988298 
0.172129 0.0550773 0.983533 
0.164029 0.0679387 0.984113 
0.158613 0.081392 0.98398 
0.189903 0.107787 0.975868 
0.184083 0.12475 0.974962 
0.216143 0.159036 0.963322 
0.208338 0.180798 0.961201 
0.238659 0.2247 0.94475 
0.268531 0.274685 0.923277 
0.288601 0.335718 0.896662 
0.323103 0.41053 0.852684 
0.360807 0.494173 0.790956 
0.345847 -0.512564 0.785919 
0.310058 -0.429097 0.848375 
0.275967 -0.35448 0.893413 
0.248782 -0.291472 0.923662 
0.227299 -0.244294 0.942685 
0.201368 -0.199947 0.958891 
0.175721 -0.161637 0.97108 
0.182243 -0.144183 0.972625 
0.154324 -0.113697 0.981457 
0.158494 -0.0986682 0.982418 
0.13171 -0.0756146 0.9884 
0.135476 -0.0631268 0.988768 
0.141529 -0.0514967 0.988594 
0.120896 -0.0354078 0.992034 
0.130328 -0.0248495 0.991159 
0.114473 -0.0120894 0.993353 
0.127165 -0.00113413 0.991881 
0.114161 0.00981955 0.993414 
0.129742 0.0225042 0.991292 
0.119873 0.0328783 0.992245 
0.140103 0.0488466 0.988931 
0.133565 0.0604759 0.989193 
0.12912 0.0734047 0.988908 
0.155177 0.0961447 0.983197 
0.150275 0.111734 0.98231 
0.17736 0.142159 0.973825 
0.170229 0.160951 0.972171 
0.194781 0.199745 0.960293 
0.219423 0.244841 0.944408 
0.239512 0.293886 0.925346 
0.265199 0.358599 0.895029 
0.297251 0.43565 0.849618 
0.330532 0.522253 0.78613 
0.314719 -0.534173 0.784609 
0.28285 -0.448785 0.847696 
0.252035 -0.372809 0.893024 
0.225316 -0.308135 0.924276 
0.20276 -0.255476 0.945315 
0.183058 -0.212635 0.959831 
0.162218 -0.17452 0.971199 
0.142381 -0.142201 0.979544 
0.147458 -0.127399 0.980829 
0.125047 -0.103405 0.986747 
0.129468 -0.0892276 0.987561 
0.107588 -0.0678781 0.991876 
0.110109 -0.0563097 0.992323 
0.115295 -0.0458466 0.992273 
0.0980452 -0.0313145 0.994689 
0.105785 -0.0220888 0.994144 
0.0925212 -0.0107294 0.995653 
0.103013 -0.00107234 0.994679 
0.0921321 0.00874169 0.995708 
0.105065 0.0198795 0.994267 
0.0968659 0.0293587 0.994864 
0.113739 0.043575 0.992555 
0.10843 0.05435 0.992617 
0.105383 0.0661365 0.99223 
0.12654 0.087442 0.9881 
0.121554 0.102139 0.987316 
0.143187 0.126545 0.981572 
0.13802 0.141807 0.980225 
0.1569 0.175064 0.971975 
0.176624 0.214147 0.9607 
0.195439 0.258118 0.946139 
0.21692 0.312603 0.924784 
0.242315 0.379872 0.892738 
0.271506 0.458746 0.846072 
0.301574 0.547549 0.78054 
0.283213 -0.553272 0.783377 
0.254838 -0.465597 0.847512 
0.227001 -0.388162 0.893197 
0.202059 -0.321472 0.92511 
0.18008 -0.265874 0.947039 
0.16127 -0.219635 0.96216 
0.143904 -0.180903 0.972916 
0.127462 -0.146647 0.980942 
0.117202 -0.117122 0.986178 
0.102575 -0.093615 0.99031 
0.105544 -0.0801908 0.991176 
0.0875219 -0.0608054 0.994305 
0.089165 -0.0501867 0.994752 
0.0933294 -0.0408384 0.994797 
0.0789267 -0.0283564 0.996477 
0.0854266 -0.019795 0.996148 
0.0744612 -0.00972113 0.997177 
0.0832834 -0.000927879 0.996525 
0.0741103 0.0079288 0.997219 
0.0848904 0.0179734 0.996228 
0.0777921 0.0265622 0.996616 
0.0921431 0.0389884 0.994982 
0.0875967 0.0487518 0.994962 
0.0854878 0.0597529 0.994546 
0.102922 0.0790337 0.991545 
0.0993705 0.0927307 0.99072 
0.113611 0.11691 0.986623 
0.123312 0.147491 0.981346 
0.139062 0.182542 0.973314 
0.155778 0.222604 0.962383 
0.173997 0.270587 0.946841 
0.195114 0.32837 0.924177 
0.219414 0.397578 0.890949 
0.246432 0.478341 0.842889 
0.274111 0.569333 0.775063 
0.251657 -0.569902 0.782228 
0.22679 -0.47986 0.847526 
0.20189 -0.400701 0.893689 
0.178971 -0.332441 0.925987 
0.159192 -0.275121 0.948138 
0.141681 -0.227031 0.963526 
0.12643 -0.187077 0.974175 
0.112877 -0.153451 0.981688 
0.102808 -0.124912 0.986827 
0.0931068 -0.102768 0.990338 
0.0824669 -0.0830377 0.993128 
0.0855275 -0.0723385 0.993706 
0.0713749 -0.0573712 0.995798 
0.0712473 -0.0462904 0.996384 
0.0750692 -0.0371876 0.996485 
0.0632408 -0.0259024 0.997662 
0.0689413 -0.0179904 0.997458 
0.0595938 -0.00883374 0.998184 
0.0672064 -0.000907791 0.997739 
0.0593316 0.00716522 0.998213 
0.0684351 0.0162561 0.997523 
0.0623463 0.0243977 0.997756 
0.0741912 0.0358501 0.996599 
0.0702187 0.0452704 0.996504 
0.069153 0.0561522 0.996024 
0.0829639 0.0712861 0.994 
0.0795914 0.0819068 0.993457 
0.090041 0.102423 0.990657 
0.0997045 0.125381 0.987086 
0.109234 0.155015 0.981855 
0.122587 0.189776 0.974145 
0.137395 0.23145 0.963096 
0.154706 0.281162 0.947108 
0.174564 0.341053 0.923694 
0.197169 0.411971 0.889609 
0.222509 0.49407 0.840467 
0.248093 0.587027 0.770616 
0.220477 -0.584212 0.78108 
0.199308 -0.492092 0.847421 
0.176528 -0.411157 0.894309 
0.156443 -0.341666 0.926709 
0.138383 -0.28269 0.949177 
0.122664 -0.233246 0.96465 
0.109071 -0.192205 0.975275 
0.0973504 -0.157869 0.98265 
0.0882215 -0.129154 0.987692 
0.0793533 -0.105743 0.991222 
0.0714675 -0.086027 0.993726 
0.0672866 -0.068124 0.995405 
0.0584936 -0.0529278 0.996884 
0.056573 -0.0425131 0.997493 
0.0600817 -0.0341655 0.997609 
0.0504687 -0.0237107 0.998444 
0.0551779 -0.0164272 0.998341 
0.0474243 -0.00806804 0.998842 
0.0537644 -0.000809758 0.998553 
0.0471973 0.00642769 0.998865 
0.0546868 0.0147472 0.998395 
0.0496377 0.021816 0.998529 
0.0593139 0.0324699 0.997711 
0.0560686 0.0411236 0.99758 
0.0559204 0.0511164 0.997126 
0.06463 0.066777 0.995673 
0.0692042 0.0857158 0.993913 
0.0771826 0.106339 0.99133 
0.0855719 0.130553 0.987741 
0.0946673 0.160198 0.982535 
0.106191 0.195895 0.974858 
0.120228 0.238296 0.963722 
0.135848 0.289873 0.947375 
0.154475 0.350786 0.923627 
0.175712 0.422948 0.888954 
0.199444 0.506389 0.838923 
0.223051 0.60055 0.767847 
0.189956 -0.596207 0.780034 
0.172305 -0.502747 0.847087 
0.152378 -0.421146 0.894101 
0.134379 -0.350058 0.927039 
0.118519 -0.289656 0.949765 
0.10477 -0.238678 0.965431 
0.0927587 -0.19619 0.976169 
0.0823093 -0.160773 0.983553 
0.0741937 -0.131759 0.988501 
0.0666029 -0.107791 0.99194 
0.0597421 -0.0881233 0.994316 
0.056307 -0.0721304 0.995805 
0.0518628 -0.0594879 0.996881 
0.0462535 -0.0474033 0.997804 
0.0442495 -0.038224 0.998289 
0.0472887 -0.0310131 0.9984 
0.039485 -0.0217365 0.998984 
0.0436234 -0.0149871 0.998936 
0.0369429 -0.00761603 0.999288 
0.0423576 -0.00074785 0.999102 
0.0365791 0.00608517 0.999312 
0.0430576 0.0135699 0.99898 
0.0386135 0.0204186 0.999046 
0.0468763 0.0296828 0.99846 
0.0442153 0.0369627 0.998338 
0.0442185 0.045804 0.997971 
0.0494253 0.0577531 0.997107 
0.0547454 0.0714972 0.995937 
0.0582323 0.0882906 0.994391 
0.064874 0.108836 0.991941 
0.072225 0.13344 0.988422 
0.0806579 0.163614 0.983222 
0.0912758 0.200104 0.975514 
0.103587 0.244188 0.964179 
0.118522 0.296679 0.947594 
0.135287 0.35919 0.923407 
0.154867 0.432141 0.888409 
0.177355 0.515688 0.838219 
0.198372 0.610007 0.767163 
0.159955 -0.605628 0.779505 
0.146817 -0.513909 0.845188 
0.128837 -0.433128 0.892077 
0.113394 -0.361692 0.925376 
0.100083 -0.300035 0.948663 
0.0880186 -0.247366 0.964916 
0.0775817 -0.203128 0.976074 
0.0687149 -0.16645 0.983653 
0.061328 -0.135745 0.988844 
0.0548877 -0.110629 0.992345 
0.0488439 -0.0898321 0.994758 
0.0450625 -0.072107 0.996378 
0.0412907 -0.0576216 0.997484 
0.0369063 -0.0454608 0.998284 
0.0340436 -0.0354324 0.998792 
0.0360991 -0.0283632 0.998946 
0.0299247 -0.0207598 0.999337 
0.0337071 -0.0142761 0.99933 
0.0282654 -0.00699852 0.999576 
0.0331609 -0.000752948 0.99945 
0.0281424 0.0058482 0.999587 
0.0334724 0.0127909 0.999358 
0.029412 0.0198539 0.99937 
0.0357169 0.0274082 0.998986 
0.0336462 0.0349398 0.998823 
0.0358547 0.04586 0.998304 
0.0398684 0.0579493 0.997523 
0.0440061 0.0725686 0.996392 
0.0479083 0.0905735 0.994737 
0.0536104 0.111888 0.992274 
0.0601764 0.137773 0.988634 
0.0677569 0.169231 0.983245 
0.077508 0.207142 0.975236 
0.0885453 0.252478 0.963543 
0.101777 0.306561 0.946394 
0.117029 0.369595 0.921794 
0.134756 0.442238 0.886717 
0.155401 0.52428 0.837246 
0.173033 0.615508 0.768902 
0.128167 -0.612002 0.780402 
0.122428 -0.5313 0.838291 
0.106455 -0.452411 0.885433 
0.0936409 -0.379513 0.920435 
0.0821889 -0.315285 0.945431 
0.0721583 -0.259794 0.962964 
0.0635493 -0.213406 0.974895 
0.0558714 -0.174375 0.983093 
0.0496004 -0.142301 0.98858 
0.0442314 -0.116103 0.992252 
0.0393592 -0.0941345 0.994781 
0.0358502 -0.0760402 0.99646 
0.0327799 -0.0611424 0.997591 
0.0296472 -0.0485603 0.99838 
0.0269499 -0.037451 0.998935 
0.0261613 -0.0276416 0.999276 
0.0222879 -0.0193682 0.999564 
0.0255149 -0.0131311 0.999588 
0.0207183 -0.00645393 0.999765 
0.0249541 -0.000673553 0.999688 
0.0206086 0.00495288 0.999775 
0.0250405 0.0120712 0.999614 
0.0221343 0.0182595 0.999588 
0.0259212 0.0270095 0.999299 
0.0264024 0.0370698 0.998964 
0.0284917 0.0483172 0.998426 
0.0317688 0.0614932 0.997602 
0.0351227 0.0764317 0.996456 
0.0385553 0.0950027 0.99473 
0.04342 0.117272 0.99215 
0.0492797 0.144259 0.988312 
0.0559636 0.177115 0.982598 
0.0642847 0.216873 0.974081 
0.074381 0.264292 0.96157 
0.0857467 0.32044 0.94338 
0.0995022 0.385558 0.917303 
0.114909 0.458869 0.881042 
0.134259 0.537957 0.832212 
0.14392 0.6168 0.773851 
0.100022 -0.615401 0.781842 
0.0911846 -0.509102 0.855863 
0.076387 -0.417122 0.905635 
0.0656553 -0.341212 0.937691 
0.0569553 -0.278652 0.958702 
0.0495725 -0.227148 0.972598 
0.0432769 -0.184816 0.98182 
0.0381196 -0.150436 0.987885 
0.0337471 -0.121922 0.991966 
0.02984 -0.0990958 0.99463 
0.0268813 -0.0800014 0.996432 
0.0244644 -0.0644211 0.997623 
0.0222813 -0.0517296 0.998413 
0.0201878 -0.0408546 0.998961 
0.0192006 -0.031466 0.99932 
0.0177112 -0.0239275 0.999557 
0.0153047 -0.0168647 0.999741 
0.0179884 -0.0119292 0.999767 
0.0140504 -0.00652807 0.99988 
0.0176399 -0.000421394 0.999844 
0.0138539 0.00545405 0.999889 
0.0179864 0.0108558 0.999779 
0.0149963 0.0159003 0.999761 
0.0173662 0.0231352 0.999582 
0.0189106 0.0305087 0.999356 
0.0195952 0.0399983 0.999008 
0.0212653 0.0513141 0.998456 
0.0236959 0.0640624 0.997665 
0.0263297 0.0802254 0.996429 
0.0294886 0.099535 0.994597 
0.033407 0.123133 0.991828 
0.0381941 0.151958 0.987649 
0.0442681 0.187088 0.981345 
0.0512429 0.229808 0.971886 
0.0600801 0.281789 0.957593 
0.0706585 0.344422 0.936152 
0.084011 0.420191 0.903539 
0.102344 0.511645 0.85308 
0.115901 0.615636 0.779461 
0.0687022 -0.61716 0.783832 
0.0668991 -0.532379 0.843858 
0.0569028 -0.448336 0.892052 
0.0480326 -0.369588 0.927954 
0.0411891 -0.301842 0.952468 
0.0354782 -0.245662 0.968706 
0.0307136 -0.199702 0.979375 
0.026735 -0.162061 0.986418 
0.0234044 -0.131693 0.991014 
0.0206192 -0.107059 0.994039 
0.018316 -0.0865828 0.996076 
0.016551 -0.0701805 0.997397 
0.0148781 -0.0564707 0.998293 
0.0134337 -0.0450739 0.998893 
0.0127061 -0.035251 0.999298 
0.0114366 -0.0270449 0.999569 
0.0101655 -0.0198333 0.999752 
0.0104096 -0.0123539 0.99987 
0.00816456 -0.0061206 0.999948 
0.0115204 -0.000853352 0.999933 
0.00821555 0.00509902 0.999953 
0.0103118 0.01109 0.999885 
0.00997143 0.01878 0.999774 
0.0113141 0.0261385 0.999594 
0.0120906 0.0345203 0.999331 
0.0129016 0.0443399 0.998933 
0.0142994 0.0562071 0.998317 
0.0162121 0.0702662 0.997397 
0.0180453 0.0869215 0.996052 
0.0204592 0.107654 0.993978 
0.0237759 0.132753 0.990864 
0.0273392 0.163489 0.986166 
0.0320689 0.201302 0.979004 
0.037926 0.247359 0.968181 
0.0448865 0.303336 0.951826 
0.053685 0.370544 0.927262 
0.0649992 0.448288 0.891523 
0.0779266 0.53098 0.843794 
0.0822949 0.612965 0.785813 
0.0408548 -0.617772 0.785295 
0.0368842 -0.506438 0.861487 
0.029738 -0.411492 0.910928 
0.0244485 -0.332984 0.942615 
0.0203833 -0.269415 0.962808 
0.0172294 -0.217929 0.975813 
0.014593 -0.176479 0.984196 
0.0125416 -0.143047 0.989636 
0.0107654 -0.115714 0.993224 
0.00935139 -0.0938315 0.995544 
0.00822915 -0.0757105 0.997096 
0.00725175 -0.0610295 0.99811 
0.00658507 -0.048775 0.998788 
0.00578828 -0.0385815 0.999239 
0.00548082 -0.0297923 0.999541 
0.00443798 -0.0226968 0.999733 
0.00486001 -0.0155684 0.999867 
0.00428423 -0.0101451 0.999939 
0.00213602 -0.00444028 0.999988 
0.00608745 -0.000410213 0.999981 
0.00201234 0.0027785 0.999994 
0.00418092 0.0088076 0.999952 
0.00472906 0.014867 0.999878 
0.00428512 0.02131 0.999764 
0.00509076 0.0290786 0.999564 
0.00551542 0.0376689 0.999275 
0.00610582 0.0482853 0.998815 
0.00695013 0.0607261 0.99813 
0.00802025 0.07559 0.997107 
0.00945254 0.0940186 0.995526 
0.0108557 0.116239 0.993162 
0.0129859 0.143664 0.989541 
0.0156553 0.17733 0.984027 
0.0187334 0.218723 0.975607 
0.0228991 0.269869 0.962625 
0.0281586 0.332621 0.94264 
0.0349166 0.409775 0.911518 
0.0445815 0.50262 0.863357 
0.0506985 0.610694 0.790242 
0.0130435 -0.617538 0.786433 
0.0102365 -0.53025 0.847779 
0.00737331 -0.445554 0.895225 
0.00514327 -0.365371 0.930848 
0.00340504 -0.296775 0.954941 
0.00219791 -0.240576 0.970628 
0.00124184 -0.195042 0.980794 
0.000605641 -0.158099 0.987423 
0.000109289 -0.128467 0.991714 
-0.000223967 -0.104329 0.994543 
-0.000536602 -0.0845003 0.996423 
-0.000598433 -0.0686097 0.997643 
-0.00083732 -0.055162 0.998477 
-0.000974308 -0.0440229 0.99903 
-0.000870152 -0.0346836 0.999398 
-0.00129728 -0.0268514 0.999639 
-0.00105134 -0.0190901 0.999817 
-0.00147222 -0.0138991 0.999902 
-0.00124638 -0.00758258 0.99997 
-0.00115907 -0.000454636 0.999999 
-0.00114708 0.00697204 0.999975 
-0.00154034 0.0120595 0.999926 
-0.00128924 0.0184785 0.999828 
-0.00135054 0.0257721 0.999667 
-0.00124196 0.0338519 0.999426 
-0.0012553 0.0433482 0.999059 
-0.00101621 0.0546516 0.998505 
-0.000695731 0.0683335 0.997662 
-0.00055282 0.0845029 0.996423 
-2.87609e-05 0.104391 0.994536 
0.00057456 0.128823 0.991667 
0.0011805 0.158567 0.987347 
0.0022901 0.195384 0.980724 
0.00367758 0.240601 0.970617 
0.00546939 0.296129 0.955132 
0.00794253 0.363405 0.931597 
0.011002 0.441534 0.897177 
0.0143747 0.524005 0.851594 
0.0181472 0.608724 0.793175 
-0.0159252 -0.611888 0.790784 
-0.0195089 -0.501269 0.865072 
-0.0175884 -0.407271 0.913138 
-0.0162993 -0.329999 0.943841 
-0.0152308 -0.267047 0.963563 
-0.0140937 -0.216254 0.976235 
-0.0129645 -0.175329 0.984424 
-0.0119802 -0.142142 0.989774 
-0.0110062 -0.115161 0.993286 
-0.0101466 -0.0933883 0.995578 
-0.00952306 -0.0754203 0.997106 
-0.00882743 -0.0608383 0.998109 
-0.00809298 -0.0486721 0.998782 
-0.00796748 -0.0383962 0.999231 
-0.00752366 -0.0297237 0.99953 
-0.00702432 -0.0226867 0.999718 
-0.0072915 -0.0155526 0.999852 
-0.00695062 -0.0102034 0.999924 
-0.00514386 -0.0044105 0.999977 
-0.00857339 -0.000536719 0.999963 
-0.00524279 0.0028198 0.999982 
-0.00696574 0.00871801 0.999938 
-0.0073692 0.0147942 0.999863 
-0.00707544 0.0211967 0.99975 
-0.00768996 0.0289805 0.99955 
-0.0081753 0.0375497 0.999261 
-0.00826353 0.0480543 0.998811 
-0.00899624 0.0603241 0.998138 
-0.00941412 0.0751341 0.997129 
-0.009917 0.0932867 0.99559 
-0.0108099 0.115312 0.993271 
-0.0114923 0.14229 0.989758 
-0.0123392 0.175489 0.984404 
-0.0133476 0.216318 0.976232 
-0.0142376 0.266561 0.963713 
-0.015348 0.328419 0.944407 