# vtk DataFile Version 3.0 
Exported using Morpho https://github.com/Morpho-lang/morpho 
ASCII 
DATASET UNSTRUCTURED_GRID 

POINTS 1245 float 
-0.303845 -0.952721 0 
-0.250833 -0.96803 0 
-0.195084 -0.980787 0 
-0.146308 -0.989239 0 
-0.0940719 -0.995565 0 
-0.0475118 -0.998871 0 
-0.000246339 -1 0 
0.0470875 -0.998891 0 
0.0937543 -0.995595 0 
0.146139 -0.989264 0 
0.195062 -0.980791 0 
0.250843 -0.968028 0 
0.303953 -0.952687 0 
-0.409153 -0.912466 0 
-0.356519 -0.934288 0 
-0.308871 -0.898929 0 
-0.258282 -0.916037 0 
-0.207345 -0.934859 0 
-0.154868 -0.930629 0 
-0.104343 -0.948989 0 
-0.0520099 -0.939193 0 
-8.5762e-05 -0.954582 0 
0.0518744 -0.939288 0 
0.104354 -0.949042 0 
0.154696 -0.9306 0 
0.207366 -0.934975 0 
0.258274 -0.916081 0 
0.308979 -0.898924 0 
0.356593 -0.93426 0 
0.409236 -0.912429 0 
-0.513788 -0.857917 0 
-0.461695 -0.887039 0 
-0.411157 -0.857936 0 
-0.359855 -0.879963 0 
-0.306888 -0.847481 0 
-0.254732 -0.866979 0 
-0.201991 -0.889059 0 
-0.149956 -0.874108 0 
-0.100608 -0.900088 0 
-0.0497575 -0.880388 0 
2.4595e-05 -0.904789 0 
0.0496869 -0.8804 0 
0.100612 -0.900177 0 
0.149872 -0.874171 0 
0.202071 -0.889165 0 
0.254695 -0.867031 0 
0.306946 -0.847482 0 
0.359894 -0.879943 0 
0.411236 -0.857929 0 
0.461748 -0.887011 0 
0.513842 -0.857885 0 
-0.564741 -0.825268 0 
-0.512908 -0.802945 0 
-0.462372 -0.832348 0 
-0.410124 -0.804631 0 
-0.358606 -0.827415 0 
-0.305781 -0.795641 0 
-0.25358 -0.816639 0 
-0.200756 -0.839997 0 
-0.149043 -0.818944 0 
-0.0987265 -0.846667 0 
-0.0490473 -0.822548 0 
5.00659e-05 -0.849932 0 
0.0490834 -0.822542 0 
0.0987838 -0.846676 0 
0.148997 -0.818924 0 
0.200826 -0.840131 0 
0.253508 -0.816728 0 
0.305831 -0.795701 0 
0.358581 -0.827419 0 
0.410181 -0.804654 0 
0.462414 -0.83234 0 
0.512965 -0.802929 0 
0.564777 -0.825243 0 
-0.660798 -0.750564 0 
-0.614015 -0.789295 0 
-0.561786 -0.769772 0 
-0.510673 -0.747856 0 
-0.460836 -0.778365 0 
-0.408794 -0.751554 0 
-0.357337 -0.774971 0 
-0.304815 -0.743684 0 
-0.252907 -0.765535 0 
-0.200631 -0.789263 0 
-0.149244 -0.764328 0 
-0.0986912 -0.791935 0 
-0.0492815 -0.765764 0 
4.16586e-05 -0.79382 0 
0.0492411 -0.765708 0 
0.0987508 -0.791951 0 
0.149196 -0.764326 0 
0.200666 -0.789356 0 
0.252841 -0.765599 0 
0.304862 -0.743741 0 
0.357323 -0.775038 0 
0.408863 -0.751626 0 
0.460863 -0.778382 0 
0.510716 -0.747859 0 
0.561819 -0.769761 0 
0.614041 -0.789274 0 
0.660811 -0.750552 0 
-0.707107 -0.707107 0 
-0.654819 -0.699058 0 
-0.60813 -0.73348 0 
-0.558104 -0.71337 0 
-0.509495 -0.692659 0 
-0.45935 -0.724356 0 
-0.407328 -0.698865 0 
-0.355968 -0.722823 0 
-0.303722 -0.691387 0 
-0.252254 -0.71362 0 
-0.20067 -0.737336 0 
-0.149608 -0.710068 0 
-0.0991558 -0.737129 0 
-0.0495872 -0.709825 0 
-2.23646e-05 -0.737917 0 
0.0494408 -0.709766 0 
0.0991291 -0.737116 0 
0.149502 -0.710042 0 
0.200696 -0.73743 0 
0.252186 -0.713735 0 
0.303753 -0.691518 0 
0.355952 -0.722893 0 
0.407371 -0.698945 0 
0.459374 -0.724407 0 
0.509524 -0.692668 0 
0.558131 -0.713361 0 
0.608151 -0.733462 0 
0.654824 -0.699048 0 
0.707107 -0.707107 0 
-0.750564 -0.660798 0 
-0.699058 -0.654819 0 
-0.647692 -0.647692 0 
-0.603437 -0.675718 0 
-0.55905 -0.655305 0 
-0.508501 -0.639581 0 
-0.457509 -0.671321 0 
-0.405555 -0.646545 0 
-0.354417 -0.670703 0 
-0.302427 -0.639219 0 
-0.251503 -0.661417 0 
-0.20061 -0.684911 0 
-0.149717 -0.655943 0 
-0.0995004 -0.682466 0 
-0.0498216 -0.654561 0 
-5.02113e-05 -0.682664 0 
0.0496787 -0.654499 0 
0.0994374 -0.682501 0 
0.149603 -0.655909 0 
0.200573 -0.684972 0 
0.251388 -0.661524 0 
0.302407 -0.639359 0 
0.354397 -0.670836 0 
0.405575 -0.646641 0 
0.457525 -0.67138 0 
0.508497 -0.639623 0 
0.559063 -0.655324 0 
0.603436 -0.675715 0 
0.64769 -0.64769 0 
0.699048 -0.654824 0 
0.750552 -0.660811 0 
-0.789295 -0.614015 0 
-0.73348 -0.60813 0 
-0.675718 -0.603437 0 
-0.613088 -0.613088 0 
-0.55962 -0.604068 0 
-0.506189 -0.588854 0 
-0.455505 -0.618874 0 
-0.403019 -0.594688 0 
-0.352514 -0.618952 0 
-0.300977 -0.586897 0 
-0.250543 -0.608767 0 
-0.200257 -0.632053 0 
-0.150049 -0.601979 0 
-0.0998281 -0.628222 0 
-0.0500377 -0.599914 0 
-3.12334e-05 -0.628076 0 
0.0498927 -0.599835 0 
0.0997818 -0.628253 0 
0.149924 -0.601867 0 
0.200214 -0.632118 0 
0.250423 -0.608915 0 
0.30086 -0.587085 0 
0.352457 -0.619096 0 
0.402948 -0.594743 0 
0.455483 -0.618952 0 
0.506147 -0.588901 0 
0.55964 -0.604067 0 
0.613069 -0.613069 0 
0.675715 -0.603436 0 
0.733462 -0.608151 0 
0.789274 -0.614041 0 
-0.825268 -0.564741 0 
-0.769772 -0.561786 0 
-0.71337 -0.558104 0 
-0.655305 -0.55905 0 
-0.604068 -0.55962 0 
-0.551031 -0.551031 0 
-0.497922 -0.537596 0 
-0.451508 -0.567021 0 
-0.399773 -0.542431 0 
-0.350494 -0.567003 0 
-0.301574 -0.534146 0 
-0.250874 -0.555692 0 
-0.200542 -0.579013 0 
-0.150324 -0.548268 0 
-0.100169 -0.57443 0 
-0.0500152 -0.545912 0 
-3.29278e-05 -0.574268 0 
0.0499208 -0.545788 0 
0.100058 -0.574485 0 
0.150038 -0.548073 0 
0.200377 -0.579041 0 
0.250556 -0.55585 0 
0.301273 -0.534348 0 
0.350318 -0.567174 0 
0.399615 -0.542384 0 
0.451404 -0.5671 0 
0.497945 -0.537702 0 
0.551073 -0.551073 0 
0.604067 -0.55964 0 
0.655324 -0.559063 0 
0.713361 -0.558131 0 
0.769761 -0.561819 0 
0.825243 -0.564777 0 
-0.857917 -0.513788 0 
-0.802945 -0.512908 0 
-0.747856 -0.510673 0 
-0.692659 -0.509495 0 
-0.639581 -0.508501 0 
-0.588854 -0.506189 0 
-0.537596 -0.497922 0 
-0.486157 -0.486157 0 
-0.444928 -0.512952 0 
-0.401787 -0.486784 0 
-0.351685 -0.513639 0 
-0.299695 -0.48291 0 
-0.250032 -0.503 0 
-0.200501 -0.526165 0 
-0.149489 -0.495195 0 
-0.0999281 -0.521367 0 
-0.0499712 -0.492294 0 
4.64723e-05 -0.520999 0 
0.050147 -0.492108 0 
0.099934 -0.52133 0 
0.14957 -0.494692 0 
0.200133 -0.526255 0 
0.249839 -0.503309 0 
0.299839 -0.483005 0 
0.351514 -0.513798 0 
0.401881 -0.486608 0 
0.444935 -0.513054 0 
0.486228 -0.486228 0 
0.537702 -0.497945 0 
0.588901 -0.506147 0 
0.639623 -0.508497 0 
0.692668 -0.509524 0 
0.747859 -0.510716 0 
0.802929 -0.512965 0 
0.857885 -0.513842 0 
-0.887039 -0.461695 0 
-0.832348 -0.462372 0 
-0.778365 -0.460836 0 
-0.724356 -0.45935 0 
-0.671321 -0.457509 0 
-0.618874 -0.455505 0 
-0.567021 -0.451508 0 
-0.512952 -0.444928 0 
-0.450685 -0.450685 0 
-0.397667 -0.437543 0 
-0.348492 -0.462546 0 
-0.295416 -0.432968 0 
-0.247004 -0.450633 0 
-0.198702 -0.473818 0 
-0.150161 -0.441625 0 
-0.100085 -0.468395 0 
-0.0502271 -0.439281 0 
0.000144229 -0.468374 0 
0.0504178 -0.439106 0 
0.100428 -0.468348 0 
0.150697 -0.441105 0 
0.199103 -0.473881 0 
0.247983 -0.450921 0 
0.296569 -0.432268 0 
0.348831 -0.462562 0 
0.397506 -0.4368 0 
0.450637 -0.450637 0 
0.513054 -0.444935 0 
0.5671 -0.451404 0 
0.618952 -0.455483 0 
0.67138 -0.457525 0 
0.724407 -0.459374 0 
0.778382 -0.460863 0 
0.83234 -0.462414 0 
0.887011 -0.461748 0 
-0.912466 -0.409153 0 
-0.857936 -0.411157 0 
-0.804631 -0.410124 0 
-0.751554 -0.408794 0 
-0.698865 -0.407328 0 
-0.646545 -0.405555 0 
-0.594688 -0.403019 0 
-0.542431 -0.399773 0 
-0.486784 -0.401787 0 
-0.437543 -0.397667 0 
-0.387256 -0.387256 0 
-0.344215 -0.411459 0 
-0.30136 -0.381507 0 
-0.25021 -0.395692 0 
-0.200211 -0.419975 0 
-0.150955 -0.389014 0 
-0.100617 -0.416095 0 
-0.0503197 -0.386922 0 
-4.02994e-05 -0.416525 0 
0.05006 -0.386948 0 
0.100784 -0.416323 0 
0.150432 -0.388572 0 
0.200855 -0.420694 0 
0.25086 -0.396905 0 
0.301746 -0.379789 0 
0.344135 -0.410678 0 
0.385823 -0.385823 0 
0.4368 -0.397506 0 
0.486608 -0.401881 0 
0.542384 -0.399615 0 
0.594743 -0.402948 0 
0.646641 -0.405575 0 
0.698945 -0.407371 0 
0.751626 -0.408863 0 
0.804654 -0.410181 0 
0.857929 -0.411236 0 
0.912429 -0.409236 0 
-0.934288 -0.356519 0 
-0.879963 -0.359855 0 
-0.827415 -0.358606 0 
-0.774971 -0.357337 0 
-0.722823 -0.355968 0 
-0.670703 -0.354417 0 
-0.618952 -0.352514 0 
-0.567003 -0.350494 0 
-0.513639 -0.351685 0 
-0.462546 -0.348492 0 
-0.411459 -0.344215 0 
-0.351697 -0.351697 0 
-0.29839 -0.336232 0 
-0.249846 -0.342529 0 
-0.200971 -0.367271 0 
-0.149995 -0.337521 0 
-0.100435 -0.3646 0 
-0.0498692 -0.335025 0 
-6.88684e-05 -0.365025 0 
0.0495433 -0.334795 0 
0.0996798 -0.364834 0 
0.148162 -0.337172 0 
0.199644 -0.368939 0 
0.24763 -0.345582 0 
0.295348 -0.332889 0 
0.34978 -0.34978 0 
0.410678 -0.344135 0 
0.462562 -0.348831 0 
0.513798 -0.351514 0 
0.567174 -0.350318 0 
0.619096 -0.352457 0 
0.670836 -0.354397 0 
0.722893 -0.355952 0 
0.775038 -0.357323 0 
0.827419 -0.358581 0 
0.879943 -0.359894 0 
0.93426 -0.356593 0 
-0.952721 -0.303845 0 
-0.898929 -0.308871 0 
-0.847481 -0.306888 0 
-0.795641 -0.305781 0 
-0.743684 -0.304815 0 
-0.691387 -0.303722 0 
-0.639219 -0.302427 0 
-0.586897 -0.300977 0 
-0.534146 -0.301574 0 
-0.48291 -0.299695 0 
-0.432968 -0.295416 0 
-0.381507 -0.30136 0 
-0.336232 -0.29839 0 
-0.288184 -0.288184 0 
-0.242975 -0.290577 0 
-0.198059 -0.315051 0 
-0.148383 -0.285894 0 
-0.0994753 -0.313232 0 
-0.0507184 -0.283118 0 
-0.000202902 -0.313447 0 
0.0500077 -0.282824 0 
0.0988289 -0.312817 0 
0.148102 -0.28482 0 
0.195742 -0.317413 0 
0.240766 -0.295824 0 
0.285014 -0.285014 0 
0.332889 -0.295348 0 
0.379789 -0.301746 0 
0.432268 -0.296569 0 
0.483005 -0.299839 0 
0.534348 -0.301273 0 
0.587085 -0.30086 0 
0.639359 -0.302407 0 
0.691518 -0.303753 0 
0.743741 -0.304862 0 
0.795701 -0.305831 0 
0.847482 -0.306946 0 
0.898924 -0.308979 0 
0.952687 -0.303953 0 
-0.96803 -0.250833 0 
-0.916037 -0.258282 0 
-0.866979 -0.254732 0 
-0.816639 -0.25358 0 
-0.765535 -0.252907 0 
-0.71362 -0.252254 0 
-0.661417 -0.251503 0 
-0.608767 -0.250543 0 
-0.555692 -0.250874 0 
-0.503 -0.250032 0 
-0.450633 -0.247004 0 
-0.395692 -0.25021 0 
-0.342529 -0.249846 0 
-0.290577 -0.242975 0 
-0.239946 -0.239946 0 
-0.194478 -0.26004 0 
-0.151293 -0.23238 0 
-0.101048 -0.260904 0 
-0.0503938 -0.232537 0 
-0.000203281 -0.262984 0 
0.050638 -0.232316 0 
0.100942 -0.260855 0 
0.152412 -0.232597 0 
0.195768 -0.261421 0 
0.241873 -0.241873 0 
0.295824 -0.240766 0 
0.345582 -0.24763 0 
0.396905 -0.25086 0 
0.450921 -0.247983 0 
[...]
POINT_DATA 1245 
VECTORS vectors float
0.591003 -0.212712 0.778119 
0.591704 -0.185342 0.784561 
0.588865 -0.151017 0.793998 
0.586012 -0.116325 0.801909 
0.583868 -0.0742005 0.80845 
0.584517 -0.035841 0.810589 
0.587568 0.00240237 0.809171 
0.588288 0.0394897 0.807687 
0.590613 0.0747386 0.803486 
0.594368 0.111716 0.796396 
0.596865 0.14154 0.789759 
0.597222 0.17133 0.783564 
0.592759 0.196516 0.781036 
0.576586 -0.260208 0.774493 
0.586201 -0.237125 0.774687 
0.498881 -0.187638 0.846115 
0.503247 -0.164645 0.848313 
0.513525 -0.140335 0.846521 
0.486172 -0.103241 0.867743 
0.504587 -0.0733537 0.860239 
0.479554 -0.0345654 0.876831 
0.504655 0.00105242 0.863321 
0.482519 0.0346944 0.875198 
0.509763 0.0715065 0.857338 
0.49152 0.0974969 0.865392 
0.518618 0.130835 0.844937 
0.505621 0.152616 0.84915 
0.498147 0.174574 0.849337 
0.583825 0.22084 0.781267 
0.570348 0.245687 0.783799 
0.541478 -0.308479 0.782075 
0.561663 -0.283539 0.777265 
0.484092 -0.231256 0.843905 
0.493127 -0.209487 0.844358 
0.416899 -0.162213 0.894361 
0.423835 -0.141042 0.89469 
0.43682 -0.119166 0.891621 
0.39885 -0.0843824 0.913126 
0.425594 -0.0609214 0.902861 
0.390592 -0.0285526 0.920121 
0.424452 -0.000221296 0.905451 
0.392065 0.026871 0.919545 
0.429152 0.05803 0.901366 
0.401605 0.0789571 0.912403 
0.440055 0.111272 0.89105 
0.424518 0.131265 0.895854 
0.414583 0.151667 0.897284 
0.488964 0.196653 0.849848 
0.476982 0.219731 0.851003 
0.552442 0.271862 0.787971 
0.530367 0.299878 0.792959 
0.516843 -0.335749 0.787494 
0.452288 -0.276806 0.847829 
0.470491 -0.25343 0.845229 
0.402127 -0.20339 0.892707 
0.41093 -0.182991 0.893113 
0.345477 -0.140437 0.927859 
0.353553 -0.121671 0.927468 
0.366614 -0.102297 0.924732 
0.326627 -0.0709312 0.942488 
0.351407 -0.0511169 0.934826 
0.316669 -0.0240746 0.948231 
0.348575 -0.000965094 0.937281 
0.317396 0.0211685 0.948057 
0.353264 0.0475621 0.934314 
0.327752 0.0658854 0.942464 
0.367906 0.0951122 0.924986 
0.352544 0.11351 0.928886 
0.342616 0.132038 0.930151 
0.4059 0.172648 0.897462 
0.395002 0.194375 0.897882 
0.460987 0.244055 0.853187 
0.441535 0.26963 0.855773 
0.504813 0.329672 0.797797 
0.460529 -0.395883 0.794475 
0.489209 -0.365304 0.791977 
0.430169 -0.301441 0.850933 
0.37353 -0.246393 0.894296 
0.389934 -0.224509 0.893055 
0.332109 -0.179086 0.926084 
0.339768 -0.159466 0.926892 
0.285169 -0.122068 0.950672 
0.292438 -0.104986 0.950504 
0.30445 -0.0879344 0.948461 
0.266664 -0.0605043 0.961889 
0.287483 -0.0434152 0.956801 
0.256234 -0.0207266 0.966393 
0.283295 -0.0013927 0.959032 
0.256462 0.0173734 0.966398 
0.288151 0.0396014 0.956766 
0.266738 0.0555936 0.962164 
0.30441 0.0819119 0.949012 
0.29079 0.0981693 0.951737 
0.281428 0.115249 0.952636 
0.334688 0.151359 0.930094 
0.324886 0.171891 0.930001 
0.381062 0.216928 0.89874 
0.363171 0.240633 0.900113 
0.418644 0.296124 0.858515 
0.476691 0.360919 0.801563 
0.447219 0.392644 0.803633 
0.430238 -0.427656 0.794988 
0.388234 -0.358198 0.849099 
0.405853 -0.326775 0.853523 
0.353525 -0.268399 0.896093 
0.306646 -0.219596 0.926146 
0.320882 -0.198666 0.926049 
0.272871 -0.157647 0.949046 
0.279548 -0.139468 0.949948 
0.233325 -0.106096 0.966594 
0.240486 -0.0908947 0.966387 
0.25071 -0.075943 0.965079 
0.217232 -0.0518652 0.974741 
0.233995 -0.0373082 0.971522 
0.207171 -0.0178789 0.978141 
0.229365 -0.00170521 0.973339 
0.207018 0.014454 0.97823 
0.233918 0.0333679 0.971683 
0.216498 0.0476064 0.975122 
0.249574 0.0705913 0.965779 
0.238192 0.0853342 0.967462 
0.229889 0.10065 0.967998 
0.274416 0.133086 0.952357 
0.266585 0.15204 0.951744 
0.312556 0.192872 0.930113 
0.297452 0.215115 0.930187 
0.342459 0.264294 0.901593 
0.393521 0.322882 0.860748 
0.374719 0.356056 0.856043 
0.415219 0.426014 0.803807 
0.400098 -0.457749 0.79397 
0.361222 -0.385393 0.849112 
0.324741 -0.321817 0.889369 
0.332154 -0.291036 0.897202 
0.288926 -0.241557 0.926376 
0.252903 -0.197195 0.947182 
0.26388 -0.176578 0.948255 
0.22376 -0.139404 0.964623 
0.229725 -0.122562 0.965508 
0.191064 -0.092953 0.977166 
0.196758 -0.0791131 0.977255 
0.205066 -0.0656252 0.976546 
0.176298 -0.0449213 0.983311 
0.189696 -0.0321136 0.981318 
0.167201 -0.0156849 0.985798 
0.18537 -0.00167552 0.982667 
0.166882 0.0121131 0.985903 
0.18935 0.0283285 0.981501 
0.175122 0.0408876 0.983697 
0.203697 0.060921 0.977137 
0.19406 0.074466 0.978159 
0.187461 0.088597 0.978268 
0.224694 0.11745 0.967325 
0.217562 0.135283 0.966626 
0.255894 0.17211 0.951261 
0.244195 0.194282 0.950065 
0.278611 0.238667 0.930276 
0.320443 0.28867 0.902212 
0.312038 0.320497 0.894379 
0.346321 0.385454 0.85527 
0.38269 0.459074 0.801748 
0.371224 -0.483968 0.792444 
0.330518 -0.401748 0.854023 
0.293716 -0.328827 0.897554 
0.271768 -0.26954 0.923846 
0.241052 -0.220356 0.945165 
0.209096 -0.177506 0.96165 
0.216311 -0.157106 0.963601 
0.183241 -0.123833 0.975237 
0.187542 -0.107752 0.976329 
0.155468 -0.0817698 0.984451 
0.159999 -0.0690371 0.9847 
0.167116 -0.0570288 0.984286 
0.142533 -0.0390829 0.989018 
0.153628 -0.0278236 0.987737 
0.134727 -0.0136266 0.990789 
0.149651 -0.00159592 0.988738 
0.134384 0.0104288 0.990874 
0.152886 0.02448 0.987941 
0.141362 0.0355044 0.989321 
0.165245 0.0531804 0.984818 
0.157601 0.0650684 0.985357 
0.151977 0.07822 0.985284 
0.183076 0.103808 0.977603 
0.177707 0.12047 0.976682 
0.20964 0.153736 0.965617 
0.201247 0.175518 0.963687 
0.231856 0.218905 0.947799 
0.260572 0.268948 0.927237 
0.280496 0.330603 0.901123 
0.314752 0.404678 0.858584 
0.351884 0.489559 0.797816 
0.341684 -0.507721 0.790868 
0.305202 -0.423715 0.852829 
0.270723 -0.348873 0.897216 
0.243245 -0.285751 0.926919 
0.222036 -0.238653 0.945381 
0.195961 -0.194609 0.961107 
0.170487 -0.156855 0.972795 
0.177018 -0.139742 0.974237 
0.148913 -0.109729 0.982743 
0.153224 -0.0955524 0.983561 
0.126311 -0.0729727 0.989303 
0.129846 -0.0610517 0.989653 
0.135609 -0.0501647 0.989492 
0.115175 -0.0343113 0.992752 
0.123987 -0.0245426 0.99198 
0.108437 -0.0119979 0.994031 
0.120652 -0.0016093 0.992694 
0.107922 0.00898346 0.994119 
0.123201 0.0211871 0.992156 
0.11361 0.0312548 0.993034 
0.13364 0.0466424 0.989932 
0.127248 0.057939 0.990177 
0.123279 0.0700123 0.989899 
0.149015 0.0925247 0.984497 
0.144013 0.107376 0.983733 
0.170615 0.137747 0.975662 
0.164043 0.155768 0.974077 
0.187857 0.194367 0.962773 
0.212356 0.239611 0.94736 
0.232239 0.287415 0.929224 
0.257436 0.353399 0.899353 
0.289032 0.431064 0.854777 
0.321947 0.518592 0.792094 
0.311415 -0.528725 0.789601 
0.278769 -0.443096 0.852029 
0.247589 -0.36698 0.896675 
0.220508 -0.302187 0.927394 
0.197864 -0.249758 0.947877 
0.178055 -0.2071 0.96198 
0.157266 -0.169499 0.972902 
0.137721 -0.137097 0.980937 
0.14228 -0.123366 0.982109 
0.120262 -0.0994835 0.987745 
0.124265 -0.0860268 0.988513 
0.102438 -0.0650857 0.992608 
0.104967 -0.0542501 0.992995 
0.109491 -0.0443465 0.992998 
0.0924694 -0.0303616 0.995253 
0.0999272 -0.0214818 0.994763 
0.086807 -0.0106926 0.996168 
0.0970964 -0.00140958 0.995274 
0.0863783 0.00791164 0.996231 
0.0991944 0.0186372 0.994894 
0.0910487 0.0274404 0.995468 
0.107828 0.0412657 0.993313 
0.10261 0.0514395 0.993391 
0.0995957 0.062991 0.993032 
0.120405 0.0836301 0.989196 
0.115881 0.0981733 0.988399 
0.1371 0.121745 0.983047 
0.13209 0.137187 0.981699 
0.150623 0.170035 0.973859 
0.17025 0.208508 0.963088 
0.188752 0.253098 0.948849 
0.209924 0.307528 0.928094 
0.235146 0.374981 0.896714 
0.263985 0.454824 0.850557 
0.293791 0.544912 0.78534 
0.280377 -0.547226 0.788627 
0.25149 -0.45948 0.85184 
0.223165 -0.381919 0.896848 
0.197767 -0.315372 0.928132 
0.175869 -0.259936 0.949475 
0.15668 -0.213944 0.964199 
0.139555 -0.175397 0.974556 
0.122769 -0.14194 0.982233 
0.11256 -0.112944 0.987205 
0.0979804 -0.0896965 0.991138 
0.100789 -0.0769992 0.991924 
0.0830287 -0.0581336 0.99485 
0.0840675 -0.0480211 0.995302 
0.0883464 -0.0391365 0.995321 
0.0738755 -0.0271884 0.996897 
0.0802824 -0.0191898 0.996587 
0.0693429 -0.00958477 0.997547 
0.0779111 -0.00135043 0.996959 
0.068932 0.0070322 0.997597 
0.0793765 0.016506 0.996708 
0.0726664 0.0249173 0.997045 
0.0865728 0.0367312 0.995568 
0.0822917 0.0461046 0.995541 
0.0802784 0.0563669 0.995177 
0.097544 0.0753261 0.992377 
0.0939949 0.0884939 0.991632 
0.108074 0.112319 0.987777 
0.117764 0.142518 0.982762 
0.133486 0.177456 0.975034 
0.149833 0.217444 0.964504 
0.167954 0.265413 0.949393 
0.189001 0.323493 0.927163 
0.213015 0.39364 0.894244 
0.239997 0.475015 0.846618 
0.267662 0.567433 0.778702 
0.249051 -0.563517 0.787669 
0.223853 -0.473328 0.851968 
0.19832 -0.394049 0.897438 
0.175673 -0.326174 0.928843 
0.155233 -0.268767 0.950614 
0.137822 -0.221126 0.965458 
0.122392 -0.181519 0.975741 
0.108847 -0.148209 0.982948 
0.0987948 -0.120032 0.987842 
0.0888649 -0.098521 0.991159 
0.0783892 -0.0794132 0.993755 
0.0810249 -0.0690151 0.99432 
0.0670607 -0.0544785 0.99626 
0.0669122 -0.0440883 0.996784 
0.0703459 -0.0355282 0.99689 
0.0588763 -0.0247702 0.997958 
0.063969 -0.0173586 0.997801 
0.0551146 -0.00875154 0.998442 
0.0621519 -0.00126062 0.998066 
0.0547665 0.00618688 0.99848 
0.0633099 0.0149788 0.997882 
0.0575794 0.0221198 0.998096 
0.0689713 0.0333231 0.997062 
0.0653919 0.0422631 0.996964 
0.0643764 0.0530673 0.996514 
0.0779778 0.067505 0.994667 
0.0745675 0.0780192 0.994159 
0.0852966 0.098035 0.991521 
0.094609 0.120761 0.988163 
0.104342 0.149972 0.983169 
0.117253 0.184898 0.975738 
0.13247 0.226181 0.965036 
0.14945 0.276487 0.949326 
0.169269 0.336568 0.926321 
0.192147 0.408049 0.892511 
0.217445 0.491442 0.843328 
0.243417 0.585511 0.773256 
0.217971 -0.577751 0.78657 
0.196348 -0.485181 0.852084 
0.174032 -0.404573 0.897794 
0.153096 -0.334768 0.92978 
0.135175 -0.276296 0.951519 
0.119357 -0.227106 0.966528 
0.105613 -0.18631 0.976798 
0.0937468 -0.1524 0.983863 
0.0845645 -0.124316 0.988633 
0.0756312 -0.101198 0.991987 
0.0677453 -0.0819752 0.994329 
0.0633638 -0.0646819 0.995892 
0.0546909 -0.0502257 0.997239 
0.0526187 -0.0401244 0.997808 
0.0557287 -0.0324062 0.99792 
0.046305 -0.0224359 0.998675 
0.0508301 -0.0157556 0.998583 
0.0430998 -0.00790855 0.999039 
0.0492705 -0.00121189 0.998785 
0.0426636 0.00563424 0.999074 
0.050226 0.013341 0.998649 
0.0451869 0.0202472 0.998773 
0.0548148 0.0304416 0.998032 
0.0516177 0.0382318 0.997935 
0.0516138 0.0476639 0.997529 
0.0603393 0.0629726 0.99619 
0.0650252 0.0814399 0.994555 
0.0726117 0.101808 0.992151 
0.0812682 0.125752 0.988727 
0.0901516 0.155298 0.983746 
0.102207 0.190582 0.976336 
0.115469 0.233617 0.965448 
0.131974 0.284783 0.949464 
0.150427 0.346613 0.925868 
0.171849 0.419363 0.891405 
0.19622 0.503587 0.841366 
0.220462 0.599011 0.769794 
0.187672 -0.589847 0.785404 
0.170244 -0.496061 0.851435 
0.149656 -0.414012 0.897885 
0.131823 -0.343218 0.929959 
0.115998 -0.283016 0.952075 
0.101825 -0.232183 0.967328 
0.0897449 -0.190127 0.977649 
0.0794115 -0.155297 0.984671 
0.0709894 -0.126349 0.989442 
0.0634695 -0.103126 0.992641 
0.0564188 -0.083934 0.994873 
0.0529021 -0.0683728 0.996256 
0.04851 -0.0562383 0.997238 
0.0427975 -0.044646 0.998086 
0.040667 -0.0359801 0.998525 
0.0436646 -0.0293798 0.998614 
0.0359246 -0.0205713 0.999143 
0.03982 -0.0144189 0.999103 
0.03337 -0.00743146 0.999415 
0.0386216 -0.00122692 0.999253 
0.0331747 0.0051209 0.999436 
0.0391822 0.0119455 0.999161 
0.0349947 0.0184228 0.999218 
0.0428193 0.0268836 0.998721 
0.0403214 0.0343285 0.998597 
0.0404913 0.0425172 0.998275 
0.0456471 0.0542568 0.997483 
0.0505735 0.0673937 0.996444 
0.0544784 0.0840572 0.994971 
0.0610772 0.104098 0.99269 
0.0685192 0.128522 0.989337 
0.0769132 0.15851 0.984357 
0.0876379 0.195101 0.97686 
0.100547 0.238834 0.965841 
0.11506 0.292086 0.949446 
0.132691 0.354604 0.925554 
0.152767 0.428229 0.890664 
0.175691 0.512829 0.840321 
0.197973 0.607943 0.768903 
0.158334 -0.599476 0.784576 
0.144873 -0.507074 0.849639 
0.126919 -0.426109 0.895725 
0.11163 -0.354674 0.928302 
0.0976846 -0.293087 0.951082 
0.0857839 -0.240683 0.966805 
0.0753654 -0.197056 0.977491 
0.0660797 -0.160277 0.984858 
0.0587697 -0.130493 0.989706 
0.0521416 -0.105754 0.993024 
0.0461666 -0.0852086 0.995293 
0.042226 -0.0683169 0.99677 
0.0382213 -0.0542877 0.997794 
0.0339974 -0.0426165 0.998513 
0.0311794 -0.0333047 0.998959 
0.0327643 -0.0265267 0.999111 
0.0269127 -0.019643 0.999445 
0.0303806 -0.0134814 0.999447 
0.0251815 -0.00710431 0.999658 
0.0294033 -0.00111044 0.999567 
0.0247936 0.00474185 0.999681 
0.0296331 0.0115332 0.999494 
0.0263353 0.0176926 0.999497 
0.0320033 0.0251298 0.999172 
0.0304114 0.0321052 0.999022 
0.032394 0.0423529 0.998577 
0.0365063 0.0542149 0.997862 
0.0408254 0.0684988 0.996816 
0.0445795 0.0858847 0.995307 
0.0503993 0.107177 0.992962 
0.0570856 0.13268 0.989514 
0.0650808 0.163927 0.984323 
0.0745166 0.201807 0.976587 
0.0863008 0.247271 0.965095 
0.0998187 0.301234 0.948311 
0.115681 0.364792 0.923875 
0.133918 0.438026 0.888931 
0.155837 0.520398 0.839584 
0.174781 0.612447 0.770947 
0.127505 -0.605913 0.785246 
0.121317 -0.524557 0.842687 
0.10542 -0.445332 0.889138 
0.0920723 -0.372347 0.923515 
0.0807754 -0.308076 0.947926 
0.0706077 -0.253104 0.964859 
0.0615754 -0.206638 0.976478 
0.0539841 -0.168382 0.984242 
0.0475799 -0.136738 0.989464 
0.0420979 -0.110588 0.992974 
0.0370879 -0.089709 0.995277 
0.0334495 -0.0718322 0.996856 
0.0304129 -0.0574878 0.997883 
0.0272188 -0.045572 0.99859 
0.0242382 -0.0349805 0.999094 
0.0234759 -0.0258446 0.99939 
0.0198755 -0.018043 0.99964 
0.0224263 -0.0125112 0.99967 
0.0181286 -0.00600736 0.999818 
0.0221484 -0.00102021 0.999754 
0.0179732 0.00428887 0.999829 
0.0222985 0.0104715 0.999697 
0.01916 0.0164992 0.99968 
0.0230002 0.0244875 0.999436 
0.0235885 0.0337643 0.999151 
0.0257919 0.0452094 0.998645 
0.0289081 0.0571189 0.997949 
0.0322826 0.07225 0.996864 
0.0360059 0.0902882 0.995265 
0.0409856 0.112164 0.992844 
0.0466653 0.138988 0.989194 
0.0539039 0.171645 0.983683 
0.0626276 0.211122 0.975451 
0.0726711 0.258592 0.963249 
0.0852178 0.314876 0.945299 
0.0991261 0.379934 0.919687 
0.116218 0.453524 0.883634 
0.135847 0.533464 0.834842 
0.147664 0.612164 0.776821 
0.100376 -0.609165 0.786666 
0.0908359 -0.502179 0.85998 
0.0759442 -0.409693 0.909057 
0.0648803 -0.333926 0.940364 
0.0558495 -0.27144 0.960834 
0.0483927 -0.220354 0.974219 
0.0419749 -0.178546 0.983036 
0.0365719 -0.144169 0.988877 
0.0320927 -0.116794 0.992637 
0.0281645 -0.0940091 0.995173 
0.0251002 -0.075531 0.996827 
0.0226119 -0.0606743 0.997901 
0.0201621 -0.0483388 0.998627 
0.0183104 -0.0381626 0.999104 
0.0172037 -0.0292419 0.999424 
0.0155084 -0.0223886 0.999629 
0.0129717 -0.0158624 0.99979 
0.0159113 -0.0113803 0.999809 
0.0116863 -0.0066091 0.99991 
0.0150913 -0.00132811 0.999885 
0.0116967 0.00438637 0.999922 
0.0154275 0.00934731 0.999837 
0.0127846 0.0139486 0.999821 
0.0151791 0.020517 0.999674 
0.0164625 0.02796 0.999473 
0.0172241 0.0367084 0.999178 
0.0189607 0.0471766 0.998707 
0.0214924 0.0603066 0.997948 
0.0242734 0.0754021 0.996858 
0.0272182 0.0946436 0.995139 
0.031613 0.117863 0.992527 
0.0367026 0.146309 0.988558 
0.0425433 0.181204 0.982525 
0.0504693 0.223804 0.973327 
0.0595401 0.275314 0.959509 
0.070974 0.33806 0.938445 
0.0853717 0.413803 0.906355 
0.104989 0.505345 0.856506 
0.120647 0.609503 0.78355 
0.0701227 -0.610505 0.788902 
0.0678488 -0.525048 0.848364 
0.0570206 -0.440861 0.895762 
0.0481237 -0.361904 0.930972 
0.0408199 -0.294382 0.954816 
0.0349226 -0.238582 0.970494 
0.0298889 -0.192776 0.980788 
0.0257712 -0.155997 0.987421 
0.0224081 -0.125918 0.991788 
0.0194084 -0.101629 0.994633 
0.0170768 -0.0821186 0.996476 
0.0151048 -0.0658701 0.997714 
0.0135311 -0.0529185 0.998507 
0.0120297 -0.0420075 0.999045 
0.0109113 -0.0327619 0.999404 
0.0099415 -0.0251245 0.999635 
0.00864813 -0.0184754 0.999792 
0.00881069 -0.0115248 0.999895 
0.00672877 -0.00605904 0.999959 
0.00971702 -0.000893902 0.999952 
0.00650192 0.00391566 0.999971 
0.00848722 0.00965533 0.999917 
0.00828113 0.0167796 0.999825 
0.0093045 0.0234841 0.999681 
0.0104185 0.0312626 0.999457 
0.0111189 0.0409276 0.9991 
0.0126532 0.0522278 0.998555 
0.0143762 0.0655987 0.997743 
0.0166077 0.0822512 0.996473 
0.0191667 0.102349 0.994564 
0.0222123 0.127102 0.991641 
0.0265153 0.157585 0.987149 
0.0314141 0.194841 0.980332 
0.0375337 0.240694 0.969875 
0.0453761 0.296352 0.954 
0.0549282 0.362965 0.930182 
0.0670588 0.440762 0.895116 
0.0820352 0.523148 0.848284 
0.0874441 0.604902 0.791484 
0.0431663 -0.610469 0.790863 
0.0383742 -0.498592 0.865987 
0.0305648 -0.403459 0.914487 
0.0247126 -0.325123 0.945349 
0.0204818 -0.261765 0.964914 
0.0169853 -0.210955 0.977348 
0.0142585 -0.169884 0.985361 
0.0119535 -0.136754 0.990533 
0.0101437 -0.110463 0.993829 
0.00859193 -0.088633 0.996027 
0.00743075 -0.0713612 0.997423 
0.00648512 -0.0571187 0.998346 
0.00531855 -0.045518 0.998949 
0.00513185 -0.0356947 0.99935 
0.00418375 -0.0279491 0.999601 
0.00351219 -0.0205733 0.999782 
0.00353564 -0.0149729 0.999882 
0.00304652 -0.00949506 0.99995 
0.000764538 -0.00481928 0.999988 
0.00471568 -0.000788496 0.999989 
0.000794555 0.00163112 0.999998 
0.00303168 0.00781304 0.999965 
0.00321879 0.0124711 0.999917 
0.00313081 0.0193034 0.999809 
0.00382003 0.0260256 0.999654 
0.00424208 0.0344662 0.999397 
0.00482146 0.0443132 0.999006 
0.00584658 0.0564571 0.998388 
0.00704963 0.0710785 0.997446 
0.00818709 0.0886529 0.996029 
0.0102085 0.110812 0.993789 
0.0123731 0.137645 0.990404 
0.0150366 0.170865 0.98518 
0.0188026 0.211909 0.977109 
0.0232765 0.262281 0.964711 
0.0290667 0.32473 0.94536 
0.0371431 0.401078 0.915291 
0.0475579 0.493569 0.868405 
0.0557727 0.601011 0.797292 
0.0161076 -0.609453 0.792658 
0.0121145 -0.522005 0.852856 
0.00906709 -0.436885 0.899472 
0.00620048 -0.356963 0.934098 
0.00407931 -0.288878 0.957357 
0.00247678 -0.232989 0.972476 
0.00142242 -0.187927 0.982182 
0.000570452 -0.151822 0.988408 
1.62136e-05 -0.122521 0.992466 
-0.000472383 -0.0988649 0.995101 
-0.000741861 -0.0799568 0.996798 
-0.00109938 -0.0641961 0.997937 
-0.00116669 -0.0516262 0.998666 
-0.00126765 -0.0409134 0.999162 
-0.00173741 -0.0321947 0.99948 
-0.00152215 -0.0247029 0.999694 
-0.00201137 -0.0184377 0.999828 
-0.00183665 -0.0123202 0.999922 
-0.00178312 -0.00756486 0.99997 
-0.00143534 -9.82748e-05 0.999999 
-0.00204722 0.00557286 0.999982 
-0.00204207 0.0108938 0.999939 
-0.00224047 0.0159375 0.99987 
-0.00199934 0.0231009 0.999731 
-0.00210969 0.0306726 0.999527 
-0.00179767 0.0396604 0.999212 
-0.00165588 0.0507037 0.998712 
-0.00151119 0.0635542 0.997977 
-0.000822487 0.0795596 0.99683 
-0.000498783 0.0990148 0.995086 
0.000106531 0.122771 0.992435 
0.00123912 0.152233 0.988344 
0.00235101 0.188391 0.982091 
0.00401672 0.233073 0.972451 
0.0063647 0.28796 0.957621 
0.00927037 0.354352 0.935066 
0.0130561 0.431746 0.901901 
0.0174981 0.513416 0.857962 
0.0221749 0.597741 0.801383 
-0.0127741 -0.603142 0.797531 
-0.0170017 -0.491834 0.870523 
-0.0160355 -0.398559 0.917003 
-0.0151946 -0.321251 0.946872 
-0.014338 -0.259044 0.965759 
-0.0134384 -0.208945 0.977835 
-0.0125537 -0.168409 0.985637 
-0.0115922 -0.135846 0.990662 
-0.0107064 -0.109701 0.993907 
-0.0100218 -0.0881607 0.996056 
-0.00928264 -0.071012 0.997432 
-0.00864258 -0.0569756 0.998338 
-0.00830164 -0.0452519 0.998941 
-0.00765041 -0.0356218 0.999336 
-0.00773536 -0.0278214 0.999583 
-0.00694344 -0.0205644 0.999764 
-0.00748081 -0.0150019 0.999859 
-0.00711998 -0.0094937 0.99993 
-0.00580117 -0.00486694 0.999971 
-0.00849733 -0.000774639 0.999964 
-0.00574309 0.00156841 0.999982 
-0.00711171 0.00773946 0.999945 
-0.00765326 0.0123596 0.999894 
-0.00718725 0.0191871 0.99979 
-0.00800004 0.0259026 0.999632 
-0.00816707 0.0342798 0.999379 
-0.00868083 0.0440559 0.998991 
-0.00889072 0.0559985 0.998391 
-0.00950111 0.0704142 0.997473 
-0.0101083 0.0878806 0.99608 
-0.0104897 0.10956 0.993925 
-0.0113786 0.136041 0.990638 
-0.012086 0.168644 0.985603 
-0.0127421 0.208865 0.977861 