# vtk DataFile Version 3.0 
Exported using Morpho https://github.com/Morpho-lang/morpho 
ASCII 
DATASET UNSTRUCTURED_GRID 

POINTS 1245 float 
-0.303845 -0.952721 0 
-0.250833 -0.96803 0 
-0.195084 -0.980787 0 
-0.146308 -0.989239 0 
-0.0940719 -0.995565 0 
-0.0475118 -0.998871 0 
-0.000246339 -1 0 
0.0470875 -0.998891 0 
0.0937543 -0.995595 0 
0.146139 -0.989264 0 
0.195062 -0.980791 0 
0.250843 -0.968028 0 
0.303953 -0.952687 0 
-0.409153 -0.912466 0 
-0.356519 -0.934288 0 
-0.308871 -0.898929 0 
-0.258282 -0.916037 0 
-0.207345 -0.934859 0 
-0.154868 -0.930629 0 
-0.104343 -0.948989 0 
-0.0520099 -0.939193 0 
-8.5762e-05 -0.954582 0 
0.0518744 -0.939288 0 
0.104354 -0.949042 0 
0.154696 -0.9306 0 
0.207366 -0.934975 0 
0.258274 -0.916081 0 
0.308979 -0.898924 0 
0.356593 -0.93426 0 
0.409236 -0.912429 0 
-0.513788 -0.857917 0 
-0.461695 -0.887039 0 
-0.411157 -0.857936 0 
-0.359855 -0.879963 0 
-0.306888 -0.847481 0 
-0.254732 -0.866979 0 
-0.201991 -0.889059 0 
-0.149956 -0.874108 0 
-0.100608 -0.900088 0 
-0.0497575 -0.880388 0 
2.4595e-05 -0.904789 0 
0.0496869 -0.8804 0 
0.100612 -0.900177 0 
0.149872 -0.874171 0 
0.202071 -0.889165 0 
0.254695 -0.867031 0 
0.306946 -0.847482 0 
0.359894 -0.879943 0 
0.411236 -0.857929 0 
0.461748 -0.887011 0 
0.513842 -0.857885 0 
-0.564741 -0.825268 0 
-0.512908 -0.802945 0 
-0.462372 -0.832348 0 
-0.410124 -0.804631 0 
-0.358606 -0.827415 0 
-0.305781 -0.795641 0 
-0.25358 -0.816639 0 
-0.200756 -0.839997 0 
-0.149043 -0.818944 0 
-0.0987265 -0.846667 0 
-0.0490473 -0.822548 0 
5.00659e-05 -0.849932 0 
0.0490834 -0.822542 0 
0.0987838 -0.846676 0 
0.148997 -0.818924 0 
0.200826 -0.840131 0 
0.253508 -0.816728 0 
0.305831 -0.795701 0 
0.358581 -0.827419 0 
0.410181 -0.804654 0 
0.462414 -0.83234 0 
0.512965 -0.802929 0 
0.564777 -0.825243 0 
-0.660798 -0.750564 0 
-0.614015 -0.789295 0 
-0.561786 -0.769772 0 
-0.510673 -0.747856 0 
-0.460836 -0.778365 0 
-0.408794 -0.751554 0 
-0.357337 -0.774971 0 
-0.304815 -0.743684 0 
-0.252907 -0.765535 0 
-0.200631 -0.789263 0 
-0.149244 -0.764328 0 
-0.0986912 -0.791935 0 
-0.0492815 -0.765764 0 
4.16586e-05 -0.79382 0 
0.0492411 -0.765708 0 
0.0987508 -0.791951 0 
0.149196 -0.764326 0 
0.200666 -0.789356 0 
0.252841 -0.765599 0 
0.304862 -0.743741 0 
0.357323 -0.775038 0 
0.408863 -0.751626 0 
0.460863 -0.778382 0 
0.510716 -0.747859 0 
0.561819 -0.769761 0 
0.614041 -0.789274 0 
0.660811 -0.750552 0 
-0.707107 -0.707107 0 
-0.654819 -0.699058 0 
-0.60813 -0.73348 0 
-0.558104 -0.71337 0 
-0.509495 -0.692659 0 
-0.45935 -0.724356 0 
-0.407328 -0.698865 0 
-0.355968 -0.722823 0 
-0.303722 -0.691387 0 
-0.252254 -0.71362 0 
-0.20067 -0.737336 0 
-0.149608 -0.710068 0 
-0.0991558 -0.737129 0 
-0.0495872 -0.709825 0 
-2.23646e-05 -0.737917 0 
0.0494408 -0.709766 0 
0.0991291 -0.737116 0 
0.149502 -0.710042 0 
0.200696 -0.73743 0 
0.252186 -0.713735 0 
0.303753 -0.691518 0 
0.355952 -0.722893 0 
0.407371 -0.698945 0 
0.459374 -0.724407 0 
0.509524 -0.692668 0 
0.558131 -0.713361 0 
0.608151 -0.733462 0 
0.654824 -0.699048 0 
0.707107 -0.707107 0 
-0.750564 -0.660798 0 
-0.699058 -0.654819 0 
-0.647692 -0.647692 0 
-0.603437 -0.675718 0 
-0.55905 -0.655305 0 
-0.508501 -0.639581 0 
-0.457509 -0.671321 0 
-0.405555 -0.646545 0 
-0.354417 -0.670703 0 
-0.302427 -0.639219 0 
-0.251503 -0.661417 0 
-0.20061 -0.684911 0 
-0.149717 -0.655943 0 
-0.0995004 -0.682466 0 
-0.0498216 -0.654561 0 
-5.02113e-05 -0.682664 0 
0.0496787 -0.654499 0 
0.0994374 -0.682501 0 
0.149603 -0.655909 0 
0.200573 -0.684972 0 
0.251388 -0.661524 0 
0.302407 -0.639359 0 
0.354397 -0.670836 0 
0.405575 -0.646641 0 
0.457525 -0.67138 0 
0.508497 -0.639623 0 
0.559063 -0.655324 0 
0.603436 -0.675715 0 
0.64769 -0.64769 0 
0.699048 -0.654824 0 
0.750552 -0.660811 0 
-0.789295 -0.614015 0 
-0.73348 -0.60813 0 
-0.675718 -0.603437 0 
-0.613088 -0.613088 0 
-0.55962 -0.604068 0 
-0.506189 -0.588854 0 
-0.455505 -0.618874 0 
-0.403019 -0.594688 0 
-0.352514 -0.618952 0 
-0.300977 -0.586897 0 
-0.250543 -0.608767 0 
-0.200257 -0.632053 0 
-0.150049 -0.601979 0 
-0.0998281 -0.628222 0 
-0.0500377 -0.599914 0 
-3.12334e-05 -0.628076 0 
0.0498927 -0.599835 0 
0.0997818 -0.628253 0 
0.149924 -0.601867 0 
0.200214 -0.632118 0 
0.250423 -0.608915 0 
0.30086 -0.587085 0 
0.352457 -0.619096 0 
0.402948 -0.594743 0 
0.455483 -0.618952 0 
0.506147 -0.588901 0 
0.55964 -0.604067 0 
0.613069 -0.613069 0 
0.675715 -0.603436 0 
0.733462 -0.608151 0 
0.789274 -0.614041 0 
-0.825268 -0.564741 0 
-0.769772 -0.561786 0 
-0.71337 -0.558104 0 
-0.655305 -0.55905 0 
-0.604068 -0.55962 0 
-0.551031 -0.551031 0 
-0.497922 -0.537596 0 
-0.451508 -0.567021 0 
-0.399773 -0.542431 0 
-0.350494 -0.567003 0 
-0.301574 -0.534146 0 
-0.250874 -0.555692 0 
-0.200542 -0.579013 0 
-0.150324 -0.548268 0 
-0.100169 -0.57443 0 
-0.0500152 -0.545912 0 
-3.29278e-05 -0.574268 0 
0.0499208 -0.545788 0 
0.100058 -0.574485 0 
0.150038 -0.548073 0 
0.200377 -0.579041 0 
0.250556 -0.55585 0 
0.301273 -0.534348 0 
0.350318 -0.567174 0 
0.399615 -0.542384 0 
0.451404 -0.5671 0 
0.497945 -0.537702 0 
0.551073 -0.551073 0 
0.604067 -0.55964 0 
0.655324 -0.559063 0 
0.713361 -0.558131 0 
0.769761 -0.561819 0 
0.825243 -0.564777 0 
-0.857917 -0.513788 0 
-0.802945 -0.512908 0 
-0.747856 -0.510673 0 
-0.692659 -0.509495 0 
-0.639581 -0.508501 0 
-0.588854 -0.506189 0 
-0.537596 -0.497922 0 
-0.486157 -0.486157 0 
-0.444928 -0.512952 0 
-0.401787 -0.486784 0 
-0.351685 -0.513639 0 
-0.299695 -0.48291 0 
-0.250032 -0.503 0 
-0.200501 -0.526165 0 
-0.149489 -0.495195 0 
-0.0999281 -0.521367 0 
-0.0499712 -0.492294 0 
4.64723e-05 -0.520999 0 
0.050147 -0.492108 0 
0.099934 -0.52133 0 
0.14957 -0.494692 0 
0.200133 -0.526255 0 
0.249839 -0.503309 0 
0.299839 -0.483005 0 
0.351514 -0.513798 0 
0.401881 -0.486608 0 
0.444935 -0.513054 0 
0.486228 -0.486228 0 
0.537702 -0.497945 0 
0.588901 -0.506147 0 
0.639623 -0.508497 0 
0.692668 -0.509524 0 
0.747859 -0.510716 0 
0.802929 -0.512965 0 
0.857885 -0.513842 0 
-0.887039 -0.461695 0 
-0.832348 -0.462372 0 
-0.778365 -0.460836 0 
-0.724356 -0.45935 0 
-0.671321 -0.457509 0 
-0.618874 -0.455505 0 
-0.567021 -0.451508 0 
-0.512952 -0.444928 0 
-0.450685 -0.450685 0 
-0.397667 -0.437543 0 
-0.348492 -0.462546 0 
-0.295416 -0.432968 0 
-0.247004 -0.450633 0 
-0.198702 -0.473818 0 
-0.150161 -0.441625 0 
-0.100085 -0.468395 0 
-0.0502271 -0.439281 0 
0.000144229 -0.468374 0 
0.0504178 -0.439106 0 
0.100428 -0.468348 0 
0.150697 -0.441105 0 
0.199103 -0.473881 0 
0.247983 -0.450921 0 
0.296569 -0.432268 0 
0.348831 -0.462562 0 
0.397506 -0.4368 0 
0.450637 -0.450637 0 
0.513054 -0.444935 0 
0.5671 -0.451404 0 
0.618952 -0.455483 0 
0.67138 -0.457525 0 
0.724407 -0.459374 0 
0.778382 -0.460863 0 
0.83234 -0.462414 0 
0.887011 -0.461748 0 
-0.912466 -0.409153 0 
-0.857936 -0.411157 0 
-0.804631 -0.410124 0 
-0.751554 -0.408794 0 
-0.698865 -0.407328 0 
-0.646545 -0.405555 0 
-0.594688 -0.403019 0 
-0.542431 -0.399773 0 
-0.486784 -0.401787 0 
-0.437543 -0.397667 0 
-0.387256 -0.387256 0 
-0.344215 -0.411459 0 
-0.30136 -0.381507 0 
-0.25021 -0.395692 0 
-0.200211 -0.419975 0 
-0.150955 -0.389014 0 
-0.100617 -0.416095 0 
-0.0503197 -0.386922 0 
-4.02994e-05 -0.416525 0 
0.05006 -0.386948 0 
0.100784 -0.416323 0 
0.150432 -0.388572 0 
0.200855 -0.420694 0 
0.25086 -0.396905 0 
0.301746 -0.379789 0 
0.344135 -0.410678 0 
0.385823 -0.385823 0 
0.4368 -0.397506 0 
0.486608 -0.401881 0 
0.542384 -0.399615 0 
0.594743 -0.402948 0 
0.646641 -0.405575 0 
0.698945 -0.407371 0 
0.751626 -0.408863 0 
0.804654 -0.410181 0 
0.857929 -0.411236 0 
0.912429 -0.409236 0 
-0.934288 -0.356519 0 
-0.879963 -0.359855 0 
-0.827415 -0.358606 0 
-0.774971 -0.357337 0 
-0.722823 -0.355968 0 
-0.670703 -0.354417 0 
-0.618952 -0.352514 0 
-0.567003 -0.350494 0 
-0.513639 -0.351685 0 
-0.462546 -0.348492 0 
-0.411459 -0.344215 0 
-0.351697 -0.351697 0 
-0.29839 -0.336232 0 
-0.249846 -0.342529 0 
-0.200971 -0.367271 0 
-0.149995 -0.337521 0 
-0.100435 -0.3646 0 
-0.0498692 -0.335025 0 
-6.88684e-05 -0.365025 0 
0.0495433 -0.334795 0 
0.0996798 -0.364834 0 
0.148162 -0.337172 0 
0.199644 -0.368939 0 
0.24763 -0.345582 0 
0.295348 -0.332889 0 
0.34978 -0.34978 0 
0.410678 -0.344135 0 
0.462562 -0.348831 0 
0.513798 -0.351514 0 
0.567174 -0.350318 0 
0.619096 -0.352457 0 
0.670836 -0.354397 0 
0.722893 -0.355952 0 
0.775038 -0.357323 0 
0.827419 -0.358581 0 
0.879943 -0.359894 0 
0.93426 -0.356593 0 
-0.952721 -0.303845 0 
-0.898929 -0.308871 0 
-0.847481 -0.306888 0 
-0.795641 -0.305781 0 
-0.743684 -0.304815 0 
-0.691387 -0.303722 0 
-0.639219 -0.302427 0 
-0.586897 -0.300977 0 
-0.534146 -0.301574 0 
-0.48291 -0.299695 0 
-0.432968 -0.295416 0 
-0.381507 -0.30136 0 
-0.336232 -0.29839 0 
-0.288184 -0.288184 0 
-0.242975 -0.290577 0 
-0.198059 -0.315051 0 
-0.148383 -0.285894 0 
-0.0994753 -0.313232 0 
-0.0507184 -0.283118 0 
-0.000202902 -0.313447 0 
0.0500077 -0.282824 0 
0.0988289 -0.312817 0 
0.148102 -0.28482 0 
0.195742 -0.317413 0 
0.240766 -0.295824 0 
0.285014 -0.285014 0 
0.332889 -0.295348 0 
0.379789 -0.301746 0 
0.432268 -0.296569 0 
0.483005 -0.299839 0 
0.534348 -0.301273 0 
0.587085 -0.30086 0 
0.639359 -0.302407 0 
0.691518 -0.303753 0 
0.743741 -0.304862 0 
0.795701 -0.305831 0 
0.847482 -0.306946 0 
0.898924 -0.308979 0 
0.952687 -0.303953 0 
-0.96803 -0.250833 0 
-0.916037 -0.258282 0 
-0.866979 -0.254732 0 
-0.816639 -0.25358 0 
-0.765535 -0.252907 0 
-0.71362 -0.252254 0 
-0.661417 -0.251503 0 
-0.608767 -0.250543 0 
-0.555692 -0.250874 0 
-0.503 -0.250032 0 
-0.450633 -0.247004 0 
-0.395692 -0.25021 0 
-0.342529 -0.249846 0 
-0.290577 -0.242975 0 
-0.239946 -0.239946 0 
-0.194478 -0.26004 0 
-0.151293 -0.23238 0 
-0.101048 -0.260904 0 
-0.0503938 -0.232537 0 
-0.000203281 -0.262984 0 
0.050638 -0.232316 0 
0.100942 -0.260855 0 
0.152412 -0.232597 0 
0.195768 -0.261421 0 
0.241873 -0.241873 0 
0.295824 -0.240766 0 
0.345582 -0.24763 0 
0.396905 -0.25086 0 
0.450921 -0.247983 0 
[...]
POINT_DATA 1245 
VECTORS vectors float
0.467672 -0.195124 0.862096 
0.427313 -0.211947 0.87891 
0.38627 -0.231786 0.892788 
0.33697 -0.188301 0.922493 
0.256024 -0.12102 0.959065 
0.247344 -0.0198573 0.968724 
0.2896 0.0672091 0.954785 
0.311927 0.118611 0.942673 
0.364573 0.147907 0.919353 
0.418263 0.167476 0.892753 
0.442751 0.130466 0.887102 
0.437328 0.1574 0.885421 
0.423647 0.13155 0.896224 
0.427754 -0.167969 0.888151 
0.453103 -0.173111 0.874488 
0.352252 -0.146884 0.924307 
0.335746 -0.151981 0.929611 
0.312188 -0.17062 0.934574 
0.252619 -0.126648 0.959241 
0.229902 -0.104476 0.96759 
0.216045 -0.0452356 0.975335 
0.241364 0.0370028 0.969729 
0.23731 0.0801887 0.968119 
0.291724 0.101424 0.95111 
0.294149 0.0922837 0.951294 
0.335313 0.116963 0.934818 
0.337754 0.120924 0.933434 
0.331096 0.102021 0.938066 
0.427851 0.15379 0.89067 
0.423826 0.171103 0.889435 
0.398354 -0.194473 0.896379 
0.416998 -0.185584 0.889759 
0.328983 -0.137958 0.934204 
0.348391 -0.144435 0.926155 
0.245863 -0.0964692 0.964492 
0.243046 -0.105661 0.964243 
0.244889 -0.120626 0.962018 
0.18371 -0.084696 0.979325 
0.183204 -0.0868588 0.97923 
0.146745 -0.059907 0.987359 
0.179373 0.0099866 0.98373 
0.157251 0.0438696 0.986584 
0.215045 0.0586087 0.974844 
0.202769 0.0535511 0.977761 
0.244201 0.0898236 0.965556 
0.24865 0.0831839 0.965015 
0.241919 0.0705038 0.967732 
0.309816 0.116576 0.943623 
0.296106 0.130157 0.946246 
0.396303 0.149687 0.905835 
0.355562 0.187373 0.915678 
0.364405 -0.175807 0.914495 
0.290084 -0.149922 0.945185 
0.304504 -0.13988 0.942184 
0.231339 -0.0997937 0.967741 
0.239152 -0.102622 0.965544 
0.156166 -0.0623202 0.985763 
0.168435 -0.0704093 0.983195 
0.17903 -0.0938341 0.979359 
0.130717 -0.0580968 0.989716 
0.127113 -0.0565888 0.990273 
0.0833103 -0.0290856 0.996099 
0.0999811 0.0026754 0.994986 
0.104775 0.0231792 0.994226 
0.158542 0.0281336 0.986951 
0.137617 0.0373733 0.98978 
0.165821 0.0688969 0.983746 
0.166081 0.0519795 0.984741 
0.156045 0.0602633 0.98591 
0.219283 0.0944435 0.97108 
0.223374 0.0928061 0.970305 
0.289079 0.133133 0.948003 
0.254707 0.159702 0.95374 
0.312749 0.199966 0.928548 
0.273875 -0.205844 0.939479 
0.340694 -0.173414 0.924043 
0.278995 -0.151769 0.948224 
0.222149 -0.115989 0.968089 
0.223815 -0.0992123 0.969569 
0.167801 -0.0740072 0.983039 
0.153685 -0.0712779 0.985546 
0.109844 -0.0512529 0.992626 
0.12187 -0.0541354 0.991069 
0.120257 -0.0820808 0.989344 
0.0766995 -0.0520481 0.995695 
0.0922308 -0.0286058 0.995327 
0.073323 -0.0183084 0.99714 
0.0702587 0.00303698 0.997524 
0.0717287 0.00145221 0.997423 
0.104149 0.00615164 0.994543 
0.0871087 0.0237525 0.995916 
0.114403 0.0536139 0.991987 
0.105389 0.0434699 0.99348 
0.0865006 0.0489783 0.995047 
0.159435 0.0772814 0.984179 
0.169886 0.0525244 0.984063 
0.208473 0.0932758 0.97357 
0.167017 0.13403 0.976802 
0.221405 0.178711 0.958667 
0.276924 0.232997 0.932215 
0.263969 0.282299 0.922295 
0.226955 -0.271271 0.935363 
0.19819 -0.187316 0.962098 
0.235272 -0.159397 0.95877 
0.193208 -0.129991 0.972509 
0.14135 -0.0906386 0.985802 
0.165468 -0.0735523 0.983469 
0.132414 -0.0604972 0.989347 
0.116981 -0.0615167 0.991227 
0.0805531 -0.054419 0.995264 
0.0893433 -0.0414791 0.995137 
0.0740583 -0.0620778 0.99532 
0.0332115 -0.030573 0.998981 
0.0596961 -0.0218459 0.997978 
0.0408759 -0.0193174 0.998977 
0.0572632 -0.00982307 0.998311 
0.0340707 -0.00227728 0.999417 
0.0511551 -0.00475173 0.998679 
0.0540024 0.00486092 0.998529 
0.0911426 0.0369998 0.99515 
0.065596 0.0347133 0.997242 
0.0452145 0.0348759 0.998368 
0.10142 0.0512227 0.993524 
0.0986991 0.0404062 0.994297 
0.128172 0.069803 0.989292 
0.107632 0.109398 0.988154 
0.157394 0.143316 0.977081 
0.204206 0.191147 0.960085 
0.192419 0.217335 0.956943 
0.236811 0.294495 0.925847 
0.223159 -0.344025 0.912056 
0.186171 -0.234027 0.954239 
0.154451 -0.161907 0.974644 
0.154522 -0.139753 0.978055 
0.123204 -0.106198 0.986683 
0.0864292 -0.0719998 0.993653 
0.102946 -0.0624656 0.992724 
0.10236 -0.044544 0.99375 
0.0914874 -0.0426335 0.994893 
0.0318343 -0.0439781 0.998525 
0.0501369 -0.0383434 0.998006 
0.0471511 -0.0330557 0.998341 
0.0259934 -0.00534618 0.999648 
0.0230553 -0.0040133 0.999726 
0.00460169 -0.0119023 0.999919 
0.0163434 -0.0107508 0.999809 
0.013447 -0.00294345 0.999905 
0.0274634 -0.0040442 0.999615 
0.019155 -0.00386782 0.999809 
0.0458983 0.0190913 0.998764 
0.0238216 0.0285997 0.999307 
0.0329157 0.0221686 0.999212 
0.0536192 0.0322596 0.99804 
0.0468061 0.0395266 0.998122 
0.0710411 0.0677136 0.995172 
0.0771778 0.0763652 0.994088 
0.114157 0.104567 0.987944 
0.149802 0.138533 0.978963 
0.155649 0.18287 0.970738 
0.201433 0.243828 0.948669 
0.246553 0.302535 0.920697 
0.229082 -0.384487 0.894254 
0.174124 -0.264011 0.948672 
0.141956 -0.179641 0.973436 
0.122297 -0.123482 0.984782 
0.0993728 -0.0777371 0.992009 
0.0695929 -0.0473885 0.996449 
0.0732837 -0.0539219 0.995852 
0.067475 -0.024534 0.997419 
0.0556704 -0.0159004 0.998323 
0.00135063 -0.0275499 0.99962 
0.0168122 -0.0405813 0.999035 
0.0350094 -0.0236349 0.999107 
0.0262342 -0.0168411 0.999514 
0.0194772 -0.00656172 0.999789 
0.00437939 -0.0220909 0.999746 
-0.00656456 -0.0151889 0.999863 
0.00157128 -0.0277285 0.999614 
0.02286 -0.0116039 0.999671 
-0.000384376 -0.00310465 0.999995 
-0.0132153 0.00832907 0.999878 
-0.00159459 0.0119508 0.999927 
0.0231103 0.00637764 0.999713 
0.0326128 0.0215141 0.999236 
0.0197622 0.0233178 0.999533 
0.0476913 0.0528734 0.997462 
0.0480371 0.0594328 0.997076 
0.0501648 0.0902705 0.994653 
0.087093 0.138189 0.986569 
0.131521 0.191659 0.972609 
0.163979 0.259399 0.951747 
0.192726 0.318619 0.928083 
0.26712 -0.388792 0.881752 
0.185822 -0.280538 0.941684 
0.136864 -0.188331 0.972522 
0.106798 -0.142002 0.984088 
0.081811 -0.0967953 0.991936 
0.0641841 -0.0467196 0.996844 
0.0342238 -0.0296201 0.998975 
0.0434911 -0.0417818 0.99818 
0.0227735 -0.0197448 0.999546 
0.0209611 -0.000240106 0.99978 
0.00750875 -0.0217795 0.999735 
0.00724751 -0.0281902 0.999576 
0.0186591 -0.0227563 0.999567 
-0.00790008 -0.0221738 0.999723 
0.0100409 -0.032486 0.999422 
0.00585155 -0.0261865 0.99964 
-0.0041053 -0.0260985 0.999651 
-0.0195121 -0.0429969 0.998885 
0.00432369 -0.0227101 0.999733 
-0.00573525 0.000814223 0.999983 
-0.0213475 -0.00412944 0.999764 
-0.00253051 -0.01668 0.999858 
-0.0120617 -0.00325744 0.999922 
0.00185195 0.00362236 0.999992 
-0.0057776 0.00747216 0.999955 
0.033544 0.0306852 0.998966 
0.0193666 0.0504366 0.998539 
0.0132844 0.0858643 0.996218 
0.0214579 0.113125 0.993349 
0.0614596 0.154636 0.986058 
0.0855185 0.201924 0.975661 
0.114461 0.2742 0.954837 
0.138569 0.373653 0.91716 
0.261486 -0.352854 0.898398 
0.189344 -0.276331 0.942226 
0.141525 -0.187708 0.971975 
0.111295 -0.124087 0.98601 
0.0711516 -0.0987774 0.992563 
0.0426712 -0.0627866 0.997114 
0.0261445 -0.0281766 0.999261 
-0.0017512 -0.0259281 0.999662 
-0.0030691 -0.0297694 0.999552 
-0.00164176 -0.0152202 0.999883 
0.0145654 -0.0103882 0.99984 
0.000651625 -0.0277193 0.999616 
-0.00226236 -0.0123512 0.999921 
-0.00623232 -0.00154173 0.999979 
-0.0201652 -0.016807 0.999655 
-0.0108281 -0.0403796 0.999126 
-0.000691944 -0.0215871 0.999767 
-0.00506451 -0.0242059 0.999694 
-0.0354179 -0.0370402 0.998686 
-0.0269937 -0.0168987 0.999493 
-0.0197415 -0.00315711 0.9998 
-0.0125183 -0.0243126 0.999626 
-0.0193027 -0.0225256 0.99956 
-0.0326871 0.00390736 0.999458 
-0.0288779 -0.00123245 0.999582 
-0.00835788 0.00967769 0.999918 
0.00257627 0.0244364 0.999698 
-0.00921601 0.0381238 0.999231 
0.0135507 0.0614128 0.99802 
0.0346889 0.089914 0.995345 
0.04575 0.104096 0.993514 
0.0480063 0.14851 0.987745 
0.0670986 0.214462 0.974425 
0.0931721 0.303127 0.948384 
0.125506 0.424359 0.896754 
0.229893 -0.318466 0.919635 
0.166119 -0.256241 0.952232 
0.11224 -0.199357 0.973478 
0.104111 -0.128342 0.98625 
0.0901093 -0.0825251 0.992507 
0.0513886 -0.0592195 0.996921 
0.0271617 -0.0329631 0.999087 
0.0143789 -0.0177782 0.999739 
0.000416559 -0.00924562 0.999957 
0.00270262 0.00342921 0.99999 
0.00356986 -0.0173156 0.999844 
-0.020995 -0.0267653 0.999421 
-0.0171121 -0.012792 0.999772 
-0.0151465 0.00621517 0.999866 
0.00139934 -0.0309965 0.999519 
-0.00450101 -0.0444454 0.999002 
-0.0122824 -0.0275617 0.999545 
-0.0194528 -0.0228762 0.999549 
-0.0265831 -0.0349066 0.999037 
-0.0284676 -0.00911765 0.999553 
-0.0129619 -0.0182731 0.999749 
-0.0250166 -0.0360655 0.999036 
-0.0342356 -0.0124656 0.999336 
-0.0252155 0.00101639 0.999682 
-0.0211087 -0.00871305 0.999739 
-0.00999259 0.00847269 0.999914 
-0.0192599 0.0298243 0.99937 
-0.023039 0.0261021 0.999394 
0.0187973 0.0584792 0.998112 
0.0318087 0.0963451 0.99484 
0.0294014 0.132684 0.990722 
0.044685 0.178264 0.982968 
0.0600626 0.243383 0.968069 
0.0719118 0.341008 0.937306 
0.102718 0.465233 0.879208 
0.168838 -0.33286 0.927738 
0.151236 -0.243099 0.958139 
0.0996595 -0.199733 0.974769 
0.0690407 -0.152715 0.985856 
0.0737214 -0.0970688 0.992544 
0.0518374 -0.0613023 0.996772 
0.0242722 -0.0335612 0.999142 
0.0144276 -0.0194246 0.999707 
0.0108292 -0.0150445 0.999828 
0.00582871 -0.0013213 0.999982 
-0.00434482 0.006547 0.999969 
-0.0131622 -0.00641654 0.999893 
-0.0103577 -0.0141817 0.999846 
-0.0150203 -0.0142337 0.999786 
-0.00686328 -0.0107695 0.999918 
-0.00669558 -0.0356561 0.999342 
0.00023506 -0.0487746 0.99881 
-0.0213395 -0.028197 0.999375 
-0.0245787 -0.0323064 0.999176 
-0.0149476 -0.0310873 0.999405 
-0.00602545 -0.0101585 0.99993 
-0.0152914 -0.0167476 0.999743 
-0.0314305 -0.0331157 0.998957 
-0.0269529 -0.00300163 0.999632 
-0.027246 -0.0203415 0.999422 
-0.0212767 -0.022841 0.999513 
-0.0405748 -0.00431205 0.999167 
-0.0273593 0.020731 0.999411 
-0.0282312 0.0112099 0.999539 
-0.0228721 0.0262553 0.999394 
-0.0140138 0.075394 0.997055 
-0.00932459 0.111888 0.993677 
0.0157676 0.142275 0.989702 
0.0537063 0.192062 0.979912 
0.0666388 0.268422 0.960994 
0.0829802 0.372011 0.924512 
0.136363 0.48993 0.861031 
0.0882299 -0.360559 0.928554 
0.113894 -0.254236 0.960413 
0.09905 -0.194049 0.975978 
0.06281 -0.147299 0.987096 
0.0437689 -0.0946455 0.994548 
0.0334267 -0.0636649 0.997411 
0.0156992 -0.0411698 0.999029 
0.00518853 -0.0215268 0.999755 
-0.00382122 -0.0150645 0.999879 
-0.0118477 -0.0190958 0.999747 
-0.0116108 -0.0114164 0.999867 
-0.00135842 0.00129721 0.999998 
0.00182443 -0.01243 0.999921 
-0.0117295 -0.0140266 0.999833 
-0.0167769 -0.0187445 0.999684 
-0.0195203 -0.02652 0.999458 
-0.0163265 -0.0310814 0.999384 
-0.0233931 -0.0228836 0.999464 
-0.0175442 -0.0396799 0.999058 
-0.0248307 -0.0287396 0.999278 
-0.0195033 -0.00754579 0.999781 
-0.0333662 -0.0250926 0.999128 
-0.0306273 -0.0262655 0.999186 
-0.0285114 -0.0132241 0.999506 
-0.0257397 -0.0180244 0.999506 
-0.0619608 -0.00788604 0.998047 
-0.0499468 0.00656535 0.99873 
-0.0122541 -0.000807273 0.999925 
-0.0161012 0.00677181 0.999847 
-0.0208432 0.0391221 0.999017 
-0.00661702 0.0675277 0.997695 
0.00641042 0.0869078 0.996196 
0.027583 0.131281 0.990961 
0.066682 0.193461 0.978839 
0.0939166 0.278886 0.955721 
0.11221 0.383066 0.91688 
0.164313 0.486218 0.85825 
0.0801179 -0.408418 0.909272 
0.0661731 -0.287609 0.955459 
0.0622958 -0.215865 0.974434 
0.0392816 -0.150302 0.987859 
0.0232457 -0.0896228 0.995704 
0.024544 -0.0574406 0.998047 
0.0226072 -0.0421176 0.998857 
0.0127969 -0.0192225 0.999733 
-0.000905019 0.00284307 0.999996 
-0.0112448 0.00485764 0.999925 
-0.0127256 -0.00833296 0.999884 
-0.00416663 -0.0113978 0.999926 
0.00758884 -0.0140345 0.999873 
-0.0136494 -0.0246353 0.999603 
-0.0276531 -0.0226486 0.999361 
-0.0296438 -0.0227296 0.999302 
-0.00647348 -0.0265845 0.999626 
-0.0148396 -0.0114046 0.999825 
-0.0246085 -0.02631 0.999351 
-0.0215406 -0.0463246 0.998694 
-0.0347003 -0.033083 0.99885 
-0.0421672 -0.0189422 0.998931 
-0.0223794 -0.0420662 0.998864 
-0.0298927 -0.0300236 0.999102 
-0.0189196 -0.0213081 0.999594 
-0.0188115 -0.0165036 0.999687 
-0.0425496 0.00212152 0.999092 
-0.0525111 0.0109416 0.99856 
-0.0269105 -0.0143489 0.999535 
-0.0199416 -0.00389477 0.999794 
-0.0302993 0.0239846 0.999253 
-0.00673889 0.0389312 0.999219 
0.0206806 0.0542443 0.998314 
0.00359999 0.0985489 0.995126 
0.00698617 0.149967 0.988666 
0.0533316 0.204465 0.97742 
0.076155 0.277978 0.957564 
0.104347 0.378848 0.919557 
0.165506 0.480365 0.861312 
0.0929379 -0.449602 0.888381 
0.0656948 -0.324921 0.943457 
0.0511406 -0.239091 0.96965 
0.0368815 -0.16964 0.984816 
0.0266656 -0.106964 0.993905 
0.0309094 -0.0632927 0.997516 
0.0349856 -0.0362669 0.99873 
0.0191094 -0.0196883 0.999624 
0.000997395 0.00492804 0.999987 
0.00499554 0.0171341 0.999841 
0.00236641 0.00624157 0.999978 
-0.011567 0.000886446 0.999933 
-0.0114748 -0.0120221 0.999862 
-0.0187691 -0.026032 0.999485 
-0.0327511 -0.0169863 0.999319 
-0.0232882 -0.0301039 0.999275 
-0.0165529 -0.039546 0.999081 
-0.00690952 -0.0172143 0.999828 
-0.0248545 -0.0325524 0.999161 
-0.0254265 -0.0508472 0.998383 
-0.0262848 -0.0273001 0.999282 
-0.0262717 -0.0374192 0.998954 
-0.0104741 -0.0331351 0.999396 
-0.0194661 -0.0246184 0.999507 
-0.0380002 -0.00736868 0.999251 
-0.0154511 -0.0188486 0.999703 
-0.00944598 0.00089238 0.999955 
-0.018509 -0.00948122 0.999784 
-0.0205333 -0.009421 0.999745 
-0.0420351 0.0238882 0.998831 
-0.0420258 0.034488 0.998521 
-0.00695816 0.0372631 0.999281 
0.00149027 0.077613 0.996982 
-0.00509845 0.118532 0.992937 
0.032362 0.157719 0.986954 
0.0643107 0.207274 0.976167 
0.0744535 0.274228 0.958778 
0.100335 0.365247 0.925488 
0.165396 0.47085 0.866571 
0.0973469 -0.448107 0.888664 
0.0786319 -0.345576 0.935091 
0.0683106 -0.253534 0.964911 
0.0568261 -0.173506 0.983192 
0.0423058 -0.111946 0.992813 
0.0347229 -0.0655303 0.997246 
0.0290762 -0.0301938 0.999121 
0.0122572 -0.0100554 0.999874 
-0.011264 -0.00389163 0.999929 
-0.00996066 -0.00266664 0.999947 
0.00158628 -0.00501885 0.999986 
-0.0128949 0.00319123 0.999912 
-0.0221273 -0.000712024 0.999755 
-0.0186529 -0.0208719 0.999608 
-0.0116739 -0.0207929 0.999716 
-0.0210875 -0.0282871 0.999377 
-0.0291401 -0.0364672 0.99891 
-0.0254827 -0.0262879 0.99933 
-0.0252641 -0.0355785 0.999047 
-0.0212532 -0.0417578 0.998902 
-0.0275322 -0.0236556 0.999341 
-0.0257772 -0.0356011 0.999034 
-0.0235581 -0.0301513 0.999268 
-0.0397527 -0.00155288 0.999208 
-0.0472487 -0.0145567 0.998777 
-0.0224785 -0.0289888 0.999327 
-0.0150767 -0.0161698 0.999756 
-0.0139316 -0.00916299 0.999861 
-0.0185333 0.0149813 0.999716 
-0.0272085 0.0238467 0.999345 
-0.0264162 0.00944422 0.999606 
-0.0187936 0.0442937 0.998842 
-0.0059611 0.076818 0.997027 
0.028653 0.086479 0.995842 
0.0652389 0.153744 0.985955 
0.0841016 0.229486 0.969672 
0.0997811 0.270528 0.957527 
0.1333 0.349123 0.927548 
0.138112 0.455418 0.8795 
0.125463 -0.440669 0.888859 
0.0773634 -0.308537 0.948061 
0.0521388 -0.205233 0.977323 
0.03333 -0.134042 0.990415 
0.0239341 -0.0824934 0.996304 
0.0117365 -0.038676 0.999183 
0.00477578 -0.00744911 0.999961 
-0.00149092 0.00138579 0.999998 
-0.0123817 0.00211859 0.999921 
-0.013293 -0.00577815 0.999895 
-0.0165685 -0.00422711 0.999854 
-0.0173715 0.00200406 0.999847 
-0.0122607 -0.0138173 0.999829 
-0.00908942 -0.0242269 0.999665 
-0.00312622 -0.0225124 0.999742 
-0.0129319 -0.0245964 0.999614 
-0.024919 -0.0198835 0.999492 
-0.0328041 -0.0229678 0.999198 
-0.0292458 -0.0333948 0.999014 
-0.0180236 -0.0375136 0.999134 
-0.0293544 -0.0326959 0.999034 
-0.0370014 -0.0414409 0.998456 
-0.033057 -0.0444977 0.998462 
-0.028467 -0.0142493 0.999493 
-0.0355983 -0.009761 0.999319 
-0.0335592 -0.0261934 0.999093 
-0.036238 -0.0204947 0.999133 
-0.042633 -0.00337992 0.999085 
-0.0324538 0.0111954 0.999411 
-0.0104092 0.0194731 0.999756 
-0.00227135 -0.000315258 0.999997 
-0.00344687 0.00917718 0.999952 
0.00141683 0.0576995 0.998333 
0.0101728 0.0466714 0.998858 
0.0128583 0.0777182 0.996892 
0.0201756 0.186196 0.982305 
0.0648903 0.232063 0.970534 
0.105392 0.302222 0.947393 
0.123497 0.447402 0.885765 
0.133244 -0.415911 0.899591 
0.0912866 -0.324758 0.941381 
0.0606658 -0.233439 0.970477 
0.0364745 -0.159358 0.986547 
0.0263227 -0.108251 0.993775 
0.0196147 -0.0646103 0.997718 
0.00933913 -0.0228203 0.999696 
0.0173043 -0.00133375 0.999849 
0.0208276 0.00820582 0.999749 
0.00598701 0.01468 0.999874 
-0.00551678 0.00709892 0.99996 
-0.000569796 -0.000135559 1 
0.0041977 -0.00193956 0.999989 
-0.00682224 -0.012632 0.999897 
-0.0181172 -0.0145092 0.999731 
-0.0245609 -0.00930058 0.999655 
-0.0230186 -0.018898 0.999556 
-0.0191163 -0.0213876 0.999588 
-0.0341906 -0.0237278 0.999134 
-0.0240294 -0.0370357 0.999025 
-0.0171432 -0.031537 0.999356 
-0.0250618 -0.0379389 0.998966 
-0.0194015 -0.0226609 0.999555 
-0.0166158 -0.0108975 0.999803 
-0.0139851 -0.0149359 0.999791 
-0.0153522 -0.0128861 0.999799 
-0.0289193 -0.00231617 0.999579 
-0.0364171 0.000285725 0.999337 
-0.029683 0.0076564 0.99953 
-0.0145867 0.0136912 0.9998 
-0.00128348 0.00325125 0.999994 
0.00518048 0.032188 0.999468 
0.0128302 0.0590232 0.998174 
0.0101903 0.0589628 0.998208 
0.00812848 0.12377 0.992278 
0.0351123 0.1857 0.981979 
0.0687969 0.235003 0.969557 
0.0928114 0.327867 0.940154 
0.119458 0.419675 0.899779 
0.0913584 -0.367553 0.925505 
0.065049 -0.277023 0.958659 
0.0489111 -0.192256 0.980125 
0.0335893 -0.118514 0.992384 
0.0307745 -0.0770932 0.996549 
0.0185153 -0.0402334 0.999019 
0.00599524 -0.0125847 0.999903 
0.00729729 -0.00207293 0.999971 
-0.000220664 0.0142961 0.999898 
-0.00765473 0.0108932 0.999911 
-0.00704637 -0.00219408 0.999973 
-0.00564868 0.00280584 0.99998 
-0.00837881 -0.00418023 0.999956 
-0.017821 -0.0121525 0.999767 
-0.0266756 0.00159918 0.999643 
-0.0290719 -0.0166267 0.999439 
-0.018576 -0.0383931 0.99909 
-0.0195796 -0.024085 0.999518 
-0.027807 -0.0100554 0.999563 
-0.0319114 -0.0381712 0.998762 
-0.011752 -0.0308525 0.999455 
-0.0150683 -0.0191008 0.999704 
-0.0210132 -0.0108099 0.999721 
-0.0267879 -0.0183578 0.999473 
-0.0301577 -0.0259527 0.999208 
-0.0270328 -0.0248932 0.999325 
-0.0153104 -0.010189 0.999831 
-0.0111224 -0.0153695 0.99982 
-0.0155453 -0.0206373 0.999666 
-0.0264213 0.00865116 0.999613 
-0.0290761 0.017937 0.999416 
-0.0179261 0.00176328 0.999838 
-0.00965976 0.021108 0.999731 
0.00103295 0.0523894 0.998626 
0.0217 0.0960096 0.995144 
0.0438126 0.136731 0.989639 
0.0580468 0.182758 0.981443 
0.0774306 0.295642 0.952156 
0.127412 0.380579 0.915929 
0.0555268 -0.361439 0.930741 
0.0379387 -0.283497 0.958222 
0.0290572 -0.216581 0.975832 
0.0221727 -0.143298 0.989431 
0.0135767 -0.0819017 0.996548 
0.0111672 -0.0487458 0.998749 
0.00240351 -0.0222656 0.999749 
-0.0091921 -0.0036017 0.999951 
-0.0197324 0.013741 0.999711 
-0.0189928 0.0152676 0.999703 
-0.0104014 -0.00559128 0.99993 
-0.0146397 -0.00156743 0.999892 
-0.0240458 0.00775958 0.999681 
-0.0208304 -0.0171171 0.999636 
-0.0117991 -0.0169954 0.999786 
-0.0164739 -0.00490767 0.999852 
-0.0230683 -0.045778 0.998685 
-0.0163981 -0.0520409 0.99851 
-0.0260407 -0.0181902 0.999495 
-0.0325638 -0.0520939 0.998111 
-0.0277933 -0.0353247 0.998989 
-0.0306196 -0.0166643 0.999392 
-0.0211575 -0.025049 0.999462 
-0.0182088 -0.0289327 0.999415 
-0.0287631 -0.027066 0.99922 
-0.0355851 -0.012431 0.999289 
-0.0262415 -0.00568956 0.999639 
-0.0113154 -0.0145992 0.999829 
-0.0144899 0.00305702 0.99989 
-0.0259859 0.0253162 0.999342 
-0.0161895 0.00551053 0.999854 
-0.0023 -0.000492367 0.999997 
-0.0085143 0.0258628 0.999629 
-0.00433767 0.0671431 0.997734 
0.0150712 0.113472 0.993427 
0.0213781 0.134696 0.990656 
0.0280074 0.201422 0.979104 
0.049335 0.294847 0.95427 
0.0776886 0.365646 0.927506 
0.0283316 -0.387151 0.921581 
-0.00259256 -0.249837 0.968284 
0.00778368 -0.179085 0.983803 
0.000664877 -0.116841 0.99315 
-0.0136292 -0.064041 0.997854 
-0.00634869 -0.0291073 0.999556 
0.00378317 -0.00658954 0.999971 
0.00165152 0.0159278 0.999872 
0.000442303 0.0293826 0.999568 
0.00887766 0.00673568 0.999938 
0.00245064 0.000476531 0.999997 
-0.0100226 0.0158606 0.999824 