# vtk DataFile Version 3.0 
Exported using Morpho https://github.com/Morpho-lang/morpho 
ASCII 
DATASET UNSTRUCTURED_GRID 

POINTS 1245 float 
-0.303845 -0.952721 0 
-0.250833 -0.96803 0 
-0.195084 -0.980787 0 
-0.146308 -0.989239 0 
-0.0940719 -0.995565 0 
-0.0475118 -0.998871 0 
-0.000246339 -1 0 
0.0470875 -0.998891 0 
0.0937543 -0.995595 0 
0.146139 -0.989264 0 
0.195062 -0.980791 0 
0.250843 -0.968028 0 
0.303953 -0.952687 0 
-0.409153 -0.912466 0 
-0.356519 -0.934288 0 
-0.308871 -0.898929 0 
-0.258282 -0.916037 0 
-0.207345 -0.934859 0 
-0.154868 -0.930629 0 
-0.104343 -0.948989 0 
-0.0520099 -0.939193 0 
-8.5762e-05 -0.954582 0 
0.0518744 -0.939288 0 
0.104354 -0.949042 0 
0.154696 -0.9306 0 
0.207366 -0.934975 0 
0.258274 -0.916081 0 
0.308979 -0.898924 0 
0.356593 -0.93426 0 
0.409236 -0.912429 0 
-0.513788 -0.857917 0 
-0.461695 -0.887039 0 
-0.411157 -0.857936 0 
-0.359855 -0.879963 0 
-0.306888 -0.847481 0 
-0.254732 -0.866979 0 
-0.201991 -0.889059 0 
-0.149956 -0.874108 0 
-0.100608 -0.900088 0 
-0.0497575 -0.880388 0 
2.4595e-05 -0.904789 0 
0.0496869 -0.8804 0 
0.100612 -0.900177 0 
0.149872 -0.874171 0 
0.202071 -0.889165 0 
0.254695 -0.867031 0 
0.306946 -0.847482 0 
0.359894 -0.879943 0 
0.411236 -0.857929 0 
0.461748 -0.887011 0 
0.513842 -0.857885 0 
-0.564741 -0.825268 0 
-0.512908 -0.802945 0 
-0.462372 -0.832348 0 
-0.410124 -0.804631 0 
-0.358606 -0.827415 0 
-0.305781 -0.795641 0 
-0.25358 -0.816639 0 
-0.200756 -0.839997 0 
-0.149043 -0.818944 0 
-0.0987265 -0.846667 0 
-0.0490473 -0.822548 0 
5.00659e-05 -0.849932 0 
0.0490834 -0.822542 0 
0.0987838 -0.846676 0 
0.148997 -0.818924 0 
0.200826 -0.840131 0 
0.253508 -0.816728 0 
0.305831 -0.795701 0 
0.358581 -0.827419 0 
0.410181 -0.804654 0 
0.462414 -0.83234 0 
0.512965 -0.802929 0 
0.564777 -0.825243 0 
-0.660798 -0.750564 0 
-0.614015 -0.789295 0 
-0.561786 -0.769772 0 
-0.510673 -0.747856 0 
-0.460836 -0.778365 0 
-0.408794 -0.751554 0 
-0.357337 -0.774971 0 
-0.304815 -0.743684 0 
-0.252907 -0.765535 0 
-0.200631 -0.789263 0 
-0.149244 -0.764328 0 
-0.0986912 -0.791935 0 
-0.0492815 -0.765764 0 
4.16586e-05 -0.79382 0 
0.0492411 -0.765708 0 
0.0987508 -0.791951 0 
0.149196 -0.764326 0 
0.200666 -0.789356 0 
0.252841 -0.765599 0 
0.304862 -0.743741 0 
0.357323 -0.775038 0 
0.408863 -0.751626 0 
0.460863 -0.778382 0 
0.510716 -0.747859 0 
0.561819 -0.769761 0 
0.614041 -0.789274 0 
0.660811 -0.750552 0 
-0.707107 -0.707107 0 
-0.654819 -0.699058 0 
-0.60813 -0.73348 0 
-0.558104 -0.71337 0 
-0.509495 -0.692659 0 
-0.45935 -0.724356 0 
-0.407328 -0.698865 0 
-0.355968 -0.722823 0 
-0.303722 -0.691387 0 
-0.252254 -0.71362 0 
-0.20067 -0.737336 0 
-0.149608 -0.710068 0 
-0.0991558 -0.737129 0 
-0.0495872 -0.709825 0 
-2.23646e-05 -0.737917 0 
0.0494408 -0.709766 0 
0.0991291 -0.737116 0 
0.149502 -0.710042 0 
0.200696 -0.73743 0 
0.252186 -0.713735 0 
0.303753 -0.691518 0 
0.355952 -0.722893 0 
0.407371 -0.698945 0 
0.459374 -0.724407 0 
0.509524 -0.692668 0 
0.558131 -0.713361 0 
0.608151 -0.733462 0 
0.654824 -0.699048 0 
0.707107 -0.707107 0 
-0.750564 -0.660798 0 
-0.699058 -0.654819 0 
-0.647692 -0.647692 0 
-0.603437 -0.675718 0 
-0.55905 -0.655305 0 
-0.508501 -0.639581 0 
-0.457509 -0.671321 0 
-0.405555 -0.646545 0 
-0.354417 -0.670703 0 
-0.302427 -0.639219 0 
-0.251503 -0.661417 0 
-0.20061 -0.684911 0 
-0.149717 -0.655943 0 
-0.0995004 -0.682466 0 
-0.0498216 -0.654561 0 
-5.02113e-05 -0.682664 0 
0.0496787 -0.654499 0 
0.0994374 -0.682501 0 
0.149603 -0.655909 0 
0.200573 -0.684972 0 
0.251388 -0.661524 0 
0.302407 -0.639359 0 
0.354397 -0.670836 0 
0.405575 -0.646641 0 
0.457525 -0.67138 0 
0.508497 -0.639623 0 
0.559063 -0.655324 0 
0.603436 -0.675715 0 
0.64769 -0.64769 0 
0.699048 -0.654824 0 
0.750552 -0.660811 0 
-0.789295 -0.614015 0 
-0.73348 -0.60813 0 
-0.675718 -0.603437 0 
-0.613088 -0.613088 0 
-0.55962 -0.604068 0 
-0.506189 -0.588854 0 
-0.455505 -0.618874 0 
-0.403019 -0.594688 0 
-0.352514 -0.618952 0 
-0.300977 -0.586897 0 
-0.250543 -0.608767 0 
-0.200257 -0.632053 0 
-0.150049 -0.601979 0 
-0.0998281 -0.628222 0 
-0.0500377 -0.599914 0 
-3.12334e-05 -0.628076 0 
0.0498927 -0.599835 0 
0.0997818 -0.628253 0 
0.149924 -0.601867 0 
0.200214 -0.632118 0 
0.250423 -0.608915 0 
0.30086 -0.587085 0 
0.352457 -0.619096 0 
0.402948 -0.594743 0 
0.455483 -0.618952 0 
0.506147 -0.588901 0 
0.55964 -0.604067 0 
0.613069 -0.613069 0 
0.675715 -0.603436 0 
0.733462 -0.608151 0 
0.789274 -0.614041 0 
-0.825268 -0.564741 0 
-0.769772 -0.561786 0 
-0.71337 -0.558104 0 
-0.655305 -0.55905 0 
-0.604068 -0.55962 0 
-0.551031 -0.551031 0 
-0.497922 -0.537596 0 
-0.451508 -0.567021 0 
-0.399773 -0.542431 0 
-0.350494 -0.567003 0 
-0.301574 -0.534146 0 
-0.250874 -0.555692 0 
-0.200542 -0.579013 0 
-0.150324 -0.548268 0 
-0.100169 -0.57443 0 
-0.0500152 -0.545912 0 
-3.29278e-05 -0.574268 0 
0.0499208 -0.545788 0 
0.100058 -0.574485 0 
0.150038 -0.548073 0 
0.200377 -0.579041 0 
0.250556 -0.55585 0 
0.301273 -0.534348 0 
0.350318 -0.567174 0 
0.399615 -0.542384 0 
0.451404 -0.5671 0 
0.497945 -0.537702 0 
0.551073 -0.551073 0 
0.604067 -0.55964 0 
0.655324 -0.559063 0 
0.713361 -0.558131 0 
0.769761 -0.561819 0 
0.825243 -0.564777 0 
-0.857917 -0.513788 0 
-0.802945 -0.512908 0 
-0.747856 -0.510673 0 
-0.692659 -0.509495 0 
-0.639581 -0.508501 0 
-0.588854 -0.506189 0 
-0.537596 -0.497922 0 
-0.486157 -0.486157 0 
-0.444928 -0.512952 0 
-0.401787 -0.486784 0 
-0.351685 -0.513639 0 
-0.299695 -0.48291 0 
-0.250032 -0.503 0 
-0.200501 -0.526165 0 
-0.149489 -0.495195 0 
-0.0999281 -0.521367 0 
-0.0499712 -0.492294 0 
4.64723e-05 -0.520999 0 
0.050147 -0.492108 0 
0.099934 -0.52133 0 
0.14957 -0.494692 0 
0.200133 -0.526255 0 
0.249839 -0.503309 0 
0.299839 -0.483005 0 
0.351514 -0.513798 0 
0.401881 -0.486608 0 
0.444935 -0.513054 0 
0.486228 -0.486228 0 
0.537702 -0.497945 0 
0.588901 -0.506147 0 
0.639623 -0.508497 0 
0.692668 -0.509524 0 
0.747859 -0.510716 0 
0.802929 -0.512965 0 
0.857885 -0.513842 0 
-0.887039 -0.461695 0 
-0.832348 -0.462372 0 
-0.778365 -0.460836 0 
-0.724356 -0.45935 0 
-0.671321 -0.457509 0 
-0.618874 -0.455505 0 
-0.567021 -0.451508 0 
-0.512952 -0.444928 0 
-0.450685 -0.450685 0 
-0.397667 -0.437543 0 
-0.348492 -0.462546 0 
-0.295416 -0.432968 0 
-0.247004 -0.450633 0 
-0.198702 -0.473818 0 
-0.150161 -0.441625 0 
-0.100085 -0.468395 0 
-0.0502271 -0.439281 0 
0.000144229 -0.468374 0 
0.0504178 -0.439106 0 
0.100428 -0.468348 0 
0.150697 -0.441105 0 
0.199103 -0.473881 0 
0.247983 -0.450921 0 
0.296569 -0.432268 0 
0.348831 -0.462562 0 
0.397506 -0.4368 0 
0.450637 -0.450637 0 
0.513054 -0.444935 0 
0.5671 -0.451404 0 
0.618952 -0.455483 0 
0.67138 -0.457525 0 
0.724407 -0.459374 0 
0.778382 -0.460863 0 
0.83234 -0.462414 0 
0.887011 -0.461748 0 
-0.912466 -0.409153 0 
-0.857936 -0.411157 0 
-0.804631 -0.410124 0 
-0.751554 -0.408794 0 
-0.698865 -0.407328 0 
-0.646545 -0.405555 0 
-0.594688 -0.403019 0 
-0.542431 -0.399773 0 
-0.486784 -0.401787 0 
-0.437543 -0.397667 0 
-0.387256 -0.387256 0 
-0.344215 -0.411459 0 
-0.30136 -0.381507 0 
-0.25021 -0.395692 0 
-0.200211 -0.419975 0 
-0.150955 -0.389014 0 
-0.100617 -0.416095 0 
-0.0503197 -0.386922 0 
-4.02994e-05 -0.416525 0 
0.05006 -0.386948 0 
0.100784 -0.416323 0 
0.150432 -0.388572 0 
0.200855 -0.420694 0 
0.25086 -0.396905 0 
0.301746 -0.379789 0 
0.344135 -0.410678 0 
0.385823 -0.385823 0 
0.4368 -0.397506 0 
0.486608 -0.401881 0 
0.542384 -0.399615 0 
0.594743 -0.402948 0 
0.646641 -0.405575 0 
0.698945 -0.407371 0 
0.751626 -0.408863 0 
0.804654 -0.410181 0 
0.857929 -0.411236 0 
0.912429 -0.409236 0 
-0.934288 -0.356519 0 
-0.879963 -0.359855 0 
-0.827415 -0.358606 0 
-0.774971 -0.357337 0 
-0.722823 -0.355968 0 
-0.670703 -0.354417 0 
-0.618952 -0.352514 0 
-0.567003 -0.350494 0 
-0.513639 -0.351685 0 
-0.462546 -0.348492 0 
-0.411459 -0.344215 0 
-0.351697 -0.351697 0 
-0.29839 -0.336232 0 
-0.249846 -0.342529 0 
-0.200971 -0.367271 0 
-0.149995 -0.337521 0 
-0.100435 -0.3646 0 
-0.0498692 -0.335025 0 
-6.88684e-05 -0.365025 0 
0.0495433 -0.334795 0 
0.0996798 -0.364834 0 
0.148162 -0.337172 0 
0.199644 -0.368939 0 
0.24763 -0.345582 0 
0.295348 -0.332889 0 
0.34978 -0.34978 0 
0.410678 -0.344135 0 
0.462562 -0.348831 0 
0.513798 -0.351514 0 
0.567174 -0.350318 0 
0.619096 -0.352457 0 
0.670836 -0.354397 0 
0.722893 -0.355952 0 
0.775038 -0.357323 0 
0.827419 -0.358581 0 
0.879943 -0.359894 0 
0.93426 -0.356593 0 
-0.952721 -0.303845 0 
-0.898929 -0.308871 0 
-0.847481 -0.306888 0 
-0.795641 -0.305781 0 
-0.743684 -0.304815 0 
-0.691387 -0.303722 0 
-0.639219 -0.302427 0 
-0.586897 -0.300977 0 
-0.534146 -0.301574 0 
-0.48291 -0.299695 0 
-0.432968 -0.295416 0 
-0.381507 -0.30136 0 
-0.336232 -0.29839 0 
-0.288184 -0.288184 0 
-0.242975 -0.290577 0 
-0.198059 -0.315051 0 
-0.148383 -0.285894 0 
-0.0994753 -0.313232 0 
-0.0507184 -0.283118 0 
-0.000202902 -0.313447 0 
0.0500077 -0.282824 0 
0.0988289 -0.312817 0 
0.148102 -0.28482 0 
0.195742 -0.317413 0 
0.240766 -0.295824 0 
0.285014 -0.285014 0 
0.332889 -0.295348 0 
0.379789 -0.301746 0 
0.432268 -0.296569 0 
0.483005 -0.299839 0 
0.534348 -0.301273 0 
0.587085 -0.30086 0 
0.639359 -0.302407 0 
0.691518 -0.303753 0 
0.743741 -0.304862 0 
0.795701 -0.305831 0 
0.847482 -0.306946 0 
0.898924 -0.308979 0 
0.952687 -0.303953 0 
-0.96803 -0.250833 0 
-0.916037 -0.258282 0 
-0.866979 -0.254732 0 
-0.816639 -0.25358 0 
-0.765535 -0.252907 0 
-0.71362 -0.252254 0 
-0.661417 -0.251503 0 
-0.608767 -0.250543 0 
-0.555692 -0.250874 0 
-0.503 -0.250032 0 
-0.450633 -0.247004 0 
-0.395692 -0.25021 0 
-0.342529 -0.249846 0 
-0.290577 -0.242975 0 
-0.239946 -0.239946 0 
-0.194478 -0.26004 0 
-0.151293 -0.23238 0 
-0.101048 -0.260904 0 
-0.0503938 -0.232537 0 
-0.000203281 -0.262984 0 
0.050638 -0.232316 0 
0.100942 -0.260855 0 
0.152412 -0.232597 0 
0.195768 -0.261421 0 
0.241873 -0.241873 0 
0.295824 -0.240766 0 
0.345582 -0.24763 0 
0.396905 -0.25086 0 
0.450921 -0.247983 0 
[...]
POINT_DATA 1245 
VECTORS vectors float
-0.153653 0.366756 0.801941 
0.463488 -0.39536 0.726322 
-0.00236669 0.155227 0.97139 
-0.344146 -0.0857718 0.973219 
0.0373068 -0.119713 0.919482 
-0.453632 0.186382 0.617905 
-0.482444 0.273486 0.765131 
0.275969 -0.159389 0.808086 
0.300378 0.231586 0.568538 
-0.286267 -0.0427566 0.725591 
0.0485494 0.432325 0.718547 
0.451858 -0.489212 0.596061 
-0.185315 0.370069 0.628399 
0.0736852 0.124902 0.553582 
0.438801 0.183829 0.576839 
-0.253627 0.136906 0.849819 
-0.377699 -0.0800358 0.985523 
-0.322717 0.19036 0.933932 
0.330786 -0.333528 0.787582 
-0.362991 -0.319111 0.832092 
-0.284142 0.378799 0.979862 
-0.31581 -0.439258 0.607163 
-0.373964 0.0622073 0.851139 
0.234605 0.345724 0.803883 
0.376729 0.191097 0.604501 
0.22433 0.36822 0.844073 
0.0548333 -0.448445 0.731429 
0.100786 0.421225 0.742575 
-0.0426166 0.216279 0.52104 
-0.16075 -0.312695 0.607458 
-0.143172 0.212369 0.89093 
-0.171902 -0.0588811 0.625059 
-0.284154 0.187866 0.53054 
-0.26808 0.491002 0.77635 
0.0645834 -0.439511 0.683272 
0.244359 -0.497875 0.630062 
-0.105549 -0.20516 0.597317 
-0.130552 -0.367675 0.893271 
-0.39189 0.0164622 0.589837 
-0.25481 0.273797 0.535067 
-0.0832354 0.391633 0.732325 
0.170543 -0.225808 0.847837 
-0.460086 0.464946 0.995659 
-0.375403 0.197363 0.803909 
-0.23889 -0.451253 0.576439 
-0.299565 0.11946 0.534935 
0.159918 0.11671 0.844488 
0.265443 0.291657 0.845072 
0.497056 -0.43669 0.885046 
0.0491907 -0.440527 0.934815 
0.392283 -0.31432 0.954248 
0.269987 -0.295666 0.622469 
0.428067 0.369026 0.621328 
0.141696 -0.153148 0.768541 
0.473623 -0.483371 0.94854 
-0.0144144 -0.00369421 0.609639 
-0.0815087 -0.477367 0.65044 
0.269304 0.0882605 0.547956 
-0.491337 -0.15075 0.616042 
0.256134 -0.29121 0.959351 
0.342867 0.268407 0.727838 
0.478983 -0.48517 0.891505 
0.369305 -0.203274 0.589134 
0.385737 -0.309882 0.652992 
-0.435672 -0.0512128 0.889179 
0.266348 0.362118 0.976966 
0.211984 -0.132797 0.849534 
0.325522 0.331893 0.886264 
-0.319456 0.22057 0.91682 
-0.137784 0.147118 0.834699 
-0.129629 0.40893 0.729413 
0.205256 0.163771 0.840888 
-0.473446 -0.33203 0.876764 
0.362753 0.455976 0.866333 
0.277038 0.357041 0.949094 
-0.354425 0.401151 0.844389 
0.0616351 0.0493621 0.892656 
-0.489729 0.145763 0.853097 
-0.0893436 -0.420387 0.86203 
-0.42484 0.195559 0.783928 
0.447438 -0.116763 0.61314 
0.147632 -0.146435 0.526048 
-0.298933 -0.318108 0.834044 
-0.0805155 0.124588 0.685812 
0.438297 -0.158563 0.676382 
0.412301 0.0746549 0.779846 
-0.200944 -0.275394 0.83766 
0.0512673 -0.206141 0.879904 
0.0305598 -0.0286704 0.660305 
-0.176738 0.395233 0.600488 
-0.332265 -0.203195 0.724367 
-0.234386 -0.313146 0.835836 
-0.0606599 -0.381096 0.504996 
0.335724 -0.243127 0.506634 
-0.287938 -0.0372846 0.81022 
-0.103307 0.195921 0.541041 
-0.102093 0.467745 0.932901 
0.442692 -0.383884 0.992513 
0.320804 -0.193703 0.502392 
0.168443 0.062651 0.977339 
-0.207674 0.120562 0.515 
0.0490625 -0.264235 0.946045 
0.260692 -0.0453657 0.862037 
-0.380141 0.218975 0.998048 
0.154539 0.344113 0.621127 
0.254722 0.348561 0.921341 
0.316096 -0.264543 0.821444 
-0.395824 -0.221428 0.655916 
0.373024 -0.422628 0.78991 
0.328871 0.453618 0.620044 
-0.337742 -0.124948 0.743858 
0.350062 0.329497 0.67066 
-0.147373 -0.0958385 0.901619 
-0.425626 -0.351448 0.851971 
0.00140548 -0.216272 0.87458 
-0.296435 -0.191895 0.964279 
-0.0588547 -0.38938 0.645205 
0.178149 0.401372 0.598102 
-0.329555 0.0864845 0.660591 
0.0352842 -0.076354 0.607513 
-0.331251 -0.101311 0.685608 
0.406396 0.237268 0.807102 
0.335967 -0.321066 0.763698 
-0.414918 0.215223 0.693132 
-0.0463692 0.417479 0.790585 
-0.262217 0.048561 0.583425 
-0.430175 -0.428908 0.790881 
-0.201722 0.158333 0.623841 
0.455656 0.0450684 0.530524 
0.342914 0.484494 0.706648 
-0.247811 -0.165662 0.579465 
-0.342429 -0.0696393 0.654682 
-0.236376 0.393388 0.867331 
-0.477248 0.0161138 0.754765 
0.100506 0.0731211 0.877156 
0.368305 -0.304396 0.708239 
-0.16668 -0.219748 0.922405 
-0.0628568 0.235286 0.640976 
-0.498607 -0.0875876 0.595826 
-0.0729431 0.495716 0.530162 
-0.193391 -0.184829 0.864062 
-0.0733173 0.382363 0.54591 
-0.116071 -0.401719 0.744251 
0.443486 -0.310234 0.516595 
0.0734381 0.10666 0.737098 
0.385543 -0.10752 0.692642 
0.21976 -0.177486 0.935731 
-0.258988 -0.183607 0.586125 
0.181549 -0.165423 0.853594 
0.0323491 0.417587 0.649364 
-0.309321 -0.228118 0.636676 
-0.421264 -0.304672 0.526964 
-0.486154 -0.392976 0.774717 
0.471035 -0.0496939 0.657835 
0.460872 -0.44655 0.800629 
0.344054 0.0599009 0.891672 
-0.0604598 0.308223 0.790129 
-0.235279 -0.249395 0.516405 
-0.16649 0.38369 0.523877 
-0.130414 0.457593 0.993648 
-0.403695 -0.0651609 0.732798 
0.250976 -0.0556084 0.834635 
-0.103696 0.204959 0.898299 
0.10845 0.00946155 0.900377 
-0.280036 0.0833736 0.755071 
0.0664473 0.0837709 0.937744 
0.371448 -0.157287 0.542477 
0.416085 0.127974 0.938554 
-0.474811 0.173404 0.69369 
0.0302297 -0.420079 0.549099 
0.407191 0.447371 0.613008 
0.336312 0.462145 0.817452 
-0.440088 0.401096 0.837333 
-0.00207731 -0.235503 0.625232 
-0.317345 -0.481952 0.529735 
0.452709 0.186627 0.60166 
0.464072 0.106133 0.850674 
-0.316779 0.0343393 0.733865 
-0.0172278 0.395711 0.932966 
-0.400912 -0.17137 0.722728 
0.491821 -0.168548 0.569725 
-0.0210268 -0.420806 0.870583 
0.0236268 0.195572 0.73505 
0.0527686 -0.15914 0.687282 
0.262803 -0.360581 0.911951 
-0.40338 0.266433 0.792528 
0.434583 -0.240372 0.66185 
0.0304353 0.195119 0.868395 
-0.104529 -0.411509 0.954583 
-0.37418 -0.45116 0.570546 
-0.0500087 0.0367932 0.50948 
0.217796 -0.140486 0.738765 
-0.080905 0.0900889 0.765093 
-0.0929784 -0.303059 0.829698 
-0.0575293 0.135158 0.952563 
0.263097 0.389148 0.885042 
-0.39481 0.317698 0.892834 
0.00223079 -0.433438 0.656167 
0.149166 0.181941 0.92659 
0.0339552 -0.20788 0.555179 
-0.281122 -0.299114 0.809363 
0.343052 -0.117882 0.650383 
0.0378398 -0.386704 0.81178 
0.251523 0.33218 0.847722 
-0.329562 0.255497 0.569622 
-0.273985 -0.138023 0.887094 
-0.0720539 0.472562 0.603756 
-0.362028 0.0104157 0.999117 
-0.121097 0.146069 0.889383 
0.286578 0.444075 0.722293 
0.196794 -0.171189 0.732211 
0.157685 0.203625 0.556843 
-0.108327 0.270749 0.690609 
0.246144 0.370102 0.67104 
-0.486721 0.401023 0.996481 
0.268211 0.373385 0.953859 
-0.233956 0.0608922 0.679904 
-0.0375571 0.00999856 0.851071 
-0.488987 -0.308757 0.594122 
0.260413 0.245468 0.717088 
0.438621 -0.382059 0.691952 
0.0768365 0.301401 0.507363 
0.472596 0.00730596 0.763761 
-0.0923146 0.1435 0.877463 
-0.172022 -0.251759 0.565673 
0.070266 -0.0303213 0.721837 
0.474908 -0.0924445 0.905983 
-0.00405359 -0.21281 0.797831 
0.318086 -0.209366 0.994523 
-0.240949 -0.268357 0.705678 
-0.111485 0.166961 0.502398 
0.330223 0.433694 0.983209 
0.0121464 0.31005 0.842608 
0.486709 0.345533 0.661791 
-0.212749 -0.240908 0.754352 
-0.307481 0.287604 0.744708 
0.0557624 0.447486 0.659841 
0.00199322 0.359016 0.917703 
0.158507 -0.458736 0.696634 
0.274774 -0.372715 0.578457 
0.372358 -0.0436875 0.983794 
-0.15269 -0.37427 0.583025 
0.102217 -0.232698 0.689583 
0.157128 -0.458376 0.76208 
-0.456675 -0.00179656 0.881196 
0.259593 -0.10945 0.825719 
0.0904256 0.174251 0.943899 
-0.16085 0.110252 0.837567 
0.20725 -0.472389 0.620829 
-0.299276 -0.0316935 0.636954 
-0.476864 0.190964 0.895852 
-0.128549 -0.260883 0.549455 
0.0278353 -0.0154203 0.570326 
-0.370809 -0.261268 0.753003 
-0.457212 0.194813 0.672699 
-0.406609 0.00409921 0.876405 
0.176677 0.490464 0.838165 
0.422843 0.422749 0.808243 
0.293354 0.459933 0.890284 
-0.316535 -0.118808 0.583097 
0.031811 0.157949 0.650199 
0.344829 0.165639 0.630337 
0.0191128 -0.131894 0.958595 
-0.303676 -0.496724 0.710831 
-0.267647 0.215372 0.619612 
-0.26888 -0.100261 0.977246 
0.120953 -0.034889 0.697842 
-0.300766 0.298693 0.631312 
-0.341747 -0.109864 0.877987 
0.08597 -0.422974 0.709529 
0.0289815 0.154298 0.788776 
-0.244061 0.299944 0.843978 
0.457295 -0.250758 0.7893 
-0.331048 -0.449992 0.864038 
-0.111242 0.242394 0.873976 
0.310165 -0.341928 0.990653 
0.108412 0.304901 0.963648 
0.377998 -0.326738 0.592462 
0.495423 -0.237656 0.847586 
0.468754 0.10055 0.893449 
-0.342425 -0.228245 0.667969 
-0.306473 0.15475 0.701259 
-0.345877 0.213775 0.579287 
0.00420368 -0.147575 0.81242 
-0.052417 -0.197484 0.527595 
-0.262188 -0.207472 0.71287 
-0.443012 -0.435458 0.563522 
0.445155 -0.13327 0.923043 
-0.477271 -0.126287 0.841278 
-0.163582 -0.169359 0.719562 
-0.314182 -0.344826 0.949693 
-0.116794 0.197218 0.764789 
-0.389538 0.0432567 0.854164 
0.135366 0.491906 0.843858 
-0.155776 0.311081 0.879124 
-0.203924 0.475484 0.807922 
-0.490979 -0.468507 0.740674 
0.399174 0.461347 0.652174 
0.114158 0.139096 0.825134 
-0.238559 0.292955 0.935895 
-0.361551 0.106235 0.982424 
0.0361795 -0.0185812 0.673696 
-0.283582 0.197798 0.779782 
-0.470935 0.472215 0.850794 
0.251413 0.166439 0.873642 
-0.077864 -0.117093 0.785471 
-0.406107 -0.250437 0.55317 
-0.240496 -0.273895 0.571781 
0.305379 0.136886 0.844768 
0.293223 -0.044404 0.864553 
0.114903 0.142205 0.819439 
0.0770963 0.0882436 0.861306 
-0.0776412 -0.17949 0.948675 
0.141006 0.0444086 0.839179 
0.303413 -0.0372759 0.761958 
-0.443164 0.011857 0.802585 
-0.446839 0.16595 0.533408 
0.328555 0.466358 0.595474 
-0.245144 -0.359946 0.562443 
-0.287163 -0.261734 0.630542 
-0.146576 0.499582 0.700323 
0.469363 -0.109308 0.741429 
-0.424131 -0.00607594 0.731956 
0.299977 0.404983 0.843635 
-0.1488 0.371504 0.655801 
-0.0461378 -0.285764 0.840479 
-0.402574 0.0940925 0.955417 
-0.0830116 -0.345678 0.918429 
-0.125121 0.216137 0.933436 
0.337926 0.0561654 0.977398 
-0.179072 0.235209 0.81411 
0.0271085 0.0119813 0.808626 
0.046371 0.140972 0.916532 
0.191774 -0.295801 0.980741 
-0.488508 0.292001 0.573237 
0.322666 -0.492223 0.892694 
0.460473 0.224187 0.717344 
0.498902 0.441085 0.726663 
0.330166 0.427955 0.67719 
0.435425 0.270452 0.604846 
0.330033 0.333882 0.627583 
-0.460336 0.170446 0.889896 
0.414108 0.298209 0.996652 
-0.249962 -0.423358 0.507417 
-0.308474 -0.00973924 0.865219 
0.211025 0.146699 0.663466 
-0.0978371 -0.157952 0.591919 
0.372272 -0.223373 0.579291 
-0.19701 0.290263 0.718899 
0.114278 -0.358844 0.532644 
0.145387 -0.0743486 0.816079 
-0.234746 -0.0366636 0.727131 
-0.15444 -0.373024 0.672361 
0.305091 -0.275898 0.668124 
0.0158548 0.15805 0.638054 
-0.470072 -0.119458 0.815564 
0.207553 0.296254 0.565088 
0.160166 -0.442138 0.746842 
0.205967 0.0536046 0.644557 
-0.451998 0.214434 0.901689 
-0.104591 0.305823 0.935473 
-0.38387 0.476478 0.869036 
-0.132819 0.193132 0.569413 
0.241259 0.0688738 0.670962 
-0.383071 0.36826 0.509862 
-0.367221 0.228736 0.511187 
-0.0711598 0.145333 0.559155 
-0.323125 0.268928 0.739755 
0.103997 0.204489 0.810409 
0.283256 -0.0294436 0.904735 
0.082294 0.139698 0.912928 
0.00207885 -0.20053 0.865744 
0.219937 -0.469648 0.879263 
0.0151713 0.160216 0.863655 
-0.179627 -0.0357422 0.661034 
-0.312443 -0.0540509 0.974491 
-0.26371 0.0246462 0.678602 
0.294145 -0.351954 0.584632 
-0.428341 -0.0456441 0.951485 
0.120977 0.265306 0.566414 
-0.414092 -0.148383 0.654317 
-0.210595 0.307111 0.980033 
-0.115049 0.269701 0.884502 
0.468324 -0.241996 0.857519 
0.045789 -0.193494 0.657316 
-0.396815 -0.0688772 0.613364 
-0.451018 -0.33414 0.966285 
-0.185457 -0.485241 0.958488 
-0.14282 0.449032 0.651934 
-0.388549 -0.303944 0.872529 
0.401176 -0.171942 0.561874 
-0.248798 0.380005 0.644407 
-0.0929166 0.335952 0.622629 
0.121279 -0.184033 0.827646 
-0.307922 0.404003 0.536934 
-0.106493 -0.484447 0.947918 
0.487663 0.111396 0.579054 
-0.49133 0.11182 0.517212 
-0.193927 -0.136681 0.984946 
-0.311129 0.197947 0.719454 
-0.169584 0.309453 0.5469 
-0.251043 -0.193776 0.728554 
-0.363618 0.0715606 0.539204 
0.485284 -0.327869 0.634105 
0.120672 0.368036 0.853336 
-0.249069 -0.0992735 0.515407 
0.442192 -0.0870486 0.659604 
0.47051 0.382026 0.97912 
0.411253 -0.331424 0.969745 
-0.390934 0.391015 0.834656 
-0.332038 0.397969 0.648629 
0.0116563 0.391495 0.861991 
0.40853 -0.0381742 0.61285 
0.14799 -0.300858 0.898948 
-0.151707 -0.116702 0.999052 
-0.180946 0.431927 0.789359 
-0.0753236 0.0383715 0.517533 
0.374884 -0.329704 0.564804 
0.110148 -0.27201 0.946778 
-0.142606 0.162978 0.917038 
-0.0807785 -0.0825768 0.807575 
0.0908886 0.246116 0.88486 
0.476943 0.415813 0.691096 
0.463348 0.361817 0.974045 
-0.275887 0.453133 0.508477 
-0.0878606 0.0133891 0.811308 
-0.0918947 0.286837 0.627342 
0.299125 0.294954 0.73263 
-0.332243 -0.261126 0.75565 
0.437963 -0.0511945 0.72762 
-0.136312 -0.298174 0.509506 
9.94434e-05 -0.26571 0.557321 
0.0498514 -0.105047 0.649299 
-0.461743 -0.000310404 0.750209 
-0.423499 -0.115272 0.945235 
-0.121675 0.0907742 0.84718 
-0.249545 -0.4129 0.819366 
-0.137894 -0.0149557 0.880127 
0.356066 -0.432945 0.944164 
-3.33925e-05 -0.119905 0.844566 
-0.307521 -0.391889 0.737012 
0.201584 0.115345 0.812648 
0.320073 -0.265685 0.81942 
-0.467006 0.0307196 0.693807 
0.45221 -0.238293 0.676349 
-0.142901 -0.0528787 0.855283 
-0.134783 0.280826 0.975135 
0.0610711 0.129729 0.569997 
0.207753 -0.0458947 0.921896 
0.238329 0.0750449 0.739274 
-0.344547 0.232595 0.659911 
-0.34154 -0.451709 0.656004 
-0.418757 -0.0500048 0.882208 
-0.439983 -0.49358 0.510932 
-0.0663328 -0.0488283 0.683014 
0.315097 0.307768 0.679627 
-0.00749651 -0.419275 0.8811 
-0.418344 0.14989 0.738775 
-0.0274545 -0.250148 0.534936 
0.481952 -0.195777 0.581038 
0.216928 -0.170581 0.746083 
0.331154 -0.117545 0.77723 
-0.274853 0.388292 0.968929 
-0.167214 0.331681 0.69129 
-0.0757124 -0.335415 0.771838 
0.0792175 -0.0186462 0.988289 
-0.349116 -0.482031 0.702063 
-0.169232 0.0455511 0.735809 
-0.0278579 0.255769 0.66906 
0.409075 -0.019404 0.732475 
0.0337022 -0.240969 0.677148 
0.410081 -0.0839173 0.572543 
0.176878 0.240769 0.973336 
-0.258561 0.46669 0.727087 
-0.355464 0.0146751 0.868232 
-0.195812 -0.0330446 0.801026 
0.229933 0.121536 0.613207 
-0.0562266 0.393426 0.863054 
-0.254861 -0.16671 0.605162 
0.254183 -0.297505 0.554267 
0.355795 0.156091 0.684212 
-0.301693 -0.258054 0.525056 
0.142783 -0.2414 0.594807 
-0.495782 0.449609 0.688712 
-0.0111775 0.144292 0.621895 
-0.0831718 -0.026642 0.669754 
0.259948 -0.383501 0.875811 
-0.202298 -0.423714 0.810837 
0.100384 -0.0223217 0.618168 
-0.134791 -0.0555542 0.789833 
0.294999 -0.245676 0.59871 
-0.288084 0.126403 0.987415 
-0.225116 -0.0888478 0.704799 
0.407765 -0.359896 0.831444 
0.406973 0.273967 0.742194 
0.268554 0.373396 0.724438 
0.291537 -0.0655643 0.546471 
0.286921 -0.183262 0.714493 
0.285097 -0.400768 0.660978 
0.0228283 0.187418 0.631249 
-0.382914 -0.216016 0.562754 
-0.32656 -0.361637 0.931597 
0.212038 -0.13936 0.812905 
-0.0468492 -0.21099 0.576827 
-0.378772 -0.353424 0.797008 
-0.470619 -0.0350969 0.99332 
0.104703 -0.115121 0.906426 
0.0733537 -0.213258 0.966075 
-0.142659 0.240302 0.596329 
-0.423407 -0.247866 0.948231 
0.237876 -0.265305 0.702777 
-0.0473951 0.325206 0.693933 
-0.159425 0.247719 0.53267 
0.313561 -0.363878 0.764786 
0.102289 0.357053 0.763268 
-0.30705 -0.211679 0.908319 
-0.242511 0.100784 0.828629 
0.0748284 0.0323232 0.976204 
0.0900266 0.400009 0.885326 
-0.34204 0.39334 0.682133 
0.148172 0.457228 0.538429 
0.472397 -0.488162 0.716824 
-0.324762 0.264826 0.697677 
0.106151 0.185159 0.714857 
-0.0932616 -0.142116 0.954868 
0.381532 -0.0417974 0.720041 
-0.106465 0.126055 0.845194 
0.40312 0.0549472 0.975926 
0.203092 -0.339694 0.815579 
-0.491916 0.203829 0.667902 
0.0750777 0.103425 0.527812 
-0.458162 0.118154 0.824803 
-0.174761 0.067604 0.962203 
-0.406616 -0.156239 0.515025 
-0.12131 -0.472224 0.663958 
-0.0137148 0.0699019 0.865393 
-0.460367 -0.194245 0.601415 
0.36557 -0.221444 0.879044 
-0.153152 0.0852469 0.880068 
0.479531 -0.297191 0.755636 
0.265916 -0.27924 0.927808 
-0.332051 -0.366001 0.509968 
-0.0576603 -0.417015 0.670331 
-0.401211 -0.34418 0.768182 
-0.166774 -0.434641 0.594258 
-0.0774378 -0.397926 0.518488 
0.155444 -0.409668 0.822344 
0.242354 -0.343372 0.684812 
-0.407462 0.0201252 0.932411 
-0.0730905 -0.480114 0.837834 
-0.119487 -0.437361 0.881601 
-0.319464 0.429841 0.914971 
0.0435506 -0.246135 0.986908 
0.252243 -0.306388 0.675193 
-0.175552 -0.000821339 0.572934 
-0.21615 0.353293 0.696553 
-0.373524 -0.12518 0.510924 
-0.111932 -0.372259 0.639607 
0.488466 0.409005 0.586224 
0.466078 -0.115321 0.586503 
0.0632539 0.196793 0.735984 
0.395451 0.463609 0.816845 
0.0158108 -0.0174407 0.722215 
0.108598 0.469983 0.739631 
0.183031 0.173199 0.912991 
0.494412 -0.299623 0.635989 
0.4325 0.333843 0.926985 
-0.135899 0.210659 0.961413 
-0.109938 0.195566 0.994732 
-0.47959 0.149848 0.780651 
0.0887845 0.401067 0.793032 
-0.486482 0.423538 0.92609 
-0.0176113 0.465061 0.747294 
0.0875387 0.174359 0.779266 
-0.368341 -0.479084 0.768683 
-0.165239 -0.178471 0.963083 
-0.351385 -0.165613 0.906299 
-0.396772 -0.329807 0.536172 
-0.221308 -0.26286 0.852636 
0.446381 -0.434542 0.696901 
-0.290241 0.238885 0.612756 
0.134122 -0.384509 0.818593 
0.414608 -0.226694 0.619826 
-0.144917 -0.324622 0.886519 
-0.462408 0.243381 0.880507 
0.230929 -0.449337 0.610118 
0.0482162 -0.434782 0.936986 
-0.460663 -0.036414 0.827566 
-0.182751 -0.460651 0.919562 
-0.138387 0.384196 0.829532 
0.157104 -0.0343012 0.901718 
0.255416 0.269665 0.628968 
-0.438763 0.203816 0.709691 
0.393084 0.460733 0.596676 
0.139328 -0.148629 0.516031 
0.161388 -0.164387 0.603129 
0.332439 0.166573 0.766167 
0.0259894 0.433066 0.718118 
-0.0842668 -0.113801 0.791066 
-0.440171 -0.328323 0.817431 
0.0268683 -0.142844 0.95276 
-0.31001 0.145888 0.825222 
-0.16744 -0.325491 0.893185 
0.473051 0.217327 0.96319 
-0.0209049 0.177904 0.56451 
0.12636 -0.286989 0.529709 
-0.197645 -0.368089 0.617445 
-0.157373 -0.254293 0.705567 
0.126501 0.376085 0.55854 
0.130802 -0.146333 0.50952 
-0.0744015 -0.00966763 0.730085 
0.165746 0.376358 0.670554 
-0.390055 0.253354 0.589118 
-0.455903 0.394241 0.517867 
0.238121 0.238971 0.820993 
-0.253325 0.466124 0.721993 
-0.0395251 0.348411 0.929307 
0.10921 0.285531 0.563856 
-0.427011 -0.379133 0.686476 
0.123291 0.456781 0.785242 
-0.488629 0.436158 0.942541 
-0.334601 -0.0774685 0.513277 
0.102768 -0.187049 0.710448 
0.204967 0.255333 0.860276 
-0.0665777 -0.326016 0.911458 
-0.0628995 -0.420179 0.585691 
-0.19748 -0.284739 0.902641 
0.189923 0.286693 0.543177 
-0.0735155 0.25798 0.856468 
-0.24665 0.179733 0.87851 
0.0352067 0.426196 0.5689 
-0.217947 -0.251156 0.689221 
0.486435 -0.364386 0.529418 
-0.0186191 0.0765122 0.57571 
0.26625 0.413059 0.806108 
0.0122832 0.193912 0.859491 
0.199349 -0.322931 0.62987 
-0.487297 -0.200062 0.909293 
-0.349197 0.0640824 0.716748 
0.278921 0.127799 0.781658 
-0.0110405 -0.487961 0.556638 
0.182998 -0.0661884 0.571796 
-0.343107 0.235886 0.512968 
-0.189386 -0.387549 0.893372 
0.24865 0.292589 0.989605 
0.22776 -0.29232 0.590116 
0.170119 0.204892 0.888106 
0.134288 0.310872 0.519115 
0.405786 0.213258 0.598515 
0.447818 0.109295 0.806809 
-0.0375308 0.10514 0.91694 
-0.119023 -0.20209 0.585952 
-0.467574 0.481753 0.913867 
-0.185619 -0.411039 0.832167 
-0.368884 -0.304666 0.760541 
0.00598938 0.319009 0.713333 
0.172649 -0.0551212 0.975834 
-0.178032 -0.476437 0.833844 
0.465339 0.464295 0.910013 
-0.162996 -0.321857 0.818868 
-0.320014 0.425486 0.816238 
-0.253584 0.178639 0.609246 
0.311203 -0.352797 0.790356 
0.148566 -0.018408 0.828133 
-0.0194078 0.401353 0.535337 
-0.271256 0.445664 0.880542 
-0.38628 -0.47579 0.576288 
-0.352391 -0.457556 0.566462 
0.242894 -0.282768 0.514581 
0.313274 -0.0118078 0.936281 
-0.0106349 -0.459224 0.807482 
0.110337 0.316843 0.54006 
0.192162 0.181035 0.663288 
0.333816 0.343832 0.688581 
-0.474776 -0.480247 0.588346 
0.016947 0.140553 0.697264 
0.29784 -0.45238 0.822764 
0.0485778 0.013243 0.540554 
0.177811 0.366192 0.547497 
-0.28924 0.455981 0.949768 
0.286854 -0.37341 0.951161 
-0.379739 -0.396409 0.605563 
0.383437 -0.355485 0.565551 
-0.294714 0.0307896 0.695004 