# vtk DataFile Version 3.0 
Exported using Morpho https://github.com/Morpho-lang/morpho 
ASCII 
DATASET UNSTRUCTURED_GRID 

POINTS 1245 float 
-0.303845 -0.952721 0 
-0.250833 -0.96803 0 
-0.195084 -0.980787 0 
-0.146308 -0.989239 0 
-0.0940719 -0.995565 0 
-0.0475118 -0.998871 0 
-0.000246339 -1 0 
0.0470875 -0.998891 0 
0.0937543 -0.995595 0 
0.146139 -0.989264 0 
0.195062 -0.980791 0 
0.250843 -0.968028 0 
0.303953 -0.952687 0 
-0.409153 -0.912466 0 
-0.356519 -0.934288 0 
-0.308871 -0.898929 0 
-0.258282 -0.916037 0 
-0.207345 -0.934859 0 
-0.154868 -0.930629 0 
-0.104343 -0.948989 0 
-0.0520099 -0.939193 0 
-8.5762e-05 -0.954582 0 
0.0518744 -0.939288 0 
0.104354 -0.949042 0 
0.154696 -0.9306 0 
0.207366 -0.934975 0 
0.258274 -0.916081 0 
0.308979 -0.898924 0 
0.356593 -0.93426 0 
0.409236 -0.912429 0 
-0.513788 -0.857917 0 
-0.461695 -0.887039 0 
-0.411157 -0.857936 0 
-0.359855 -0.879963 0 
-0.306888 -0.847481 0 
-0.254732 -0.866979 0 
-0.201991 -0.889059 0 
-0.149956 -0.874108 0 
-0.100608 -0.900088 0 
-0.0497575 -0.880388 0 
2.4595e-05 -0.904789 0 
0.0496869 -0.8804 0 
0.100612 -0.900177 0 
0.149872 -0.874171 0 
0.202071 -0.889165 0 
0.254695 -0.867031 0 
0.306946 -0.847482 0 
0.359894 -0.879943 0 
0.411236 -0.857929 0 
0.461748 -0.887011 0 
0.513842 -0.857885 0 
-0.564741 -0.825268 0 
-0.512908 -0.802945 0 
-0.462372 -0.832348 0 
-0.410124 -0.804631 0 
-0.358606 -0.827415 0 
-0.305781 -0.795641 0 
-0.25358 -0.816639 0 
-0.200756 -0.839997 0 
-0.149043 -0.818944 0 
-0.0987265 -0.846667 0 
-0.0490473 -0.822548 0 
5.00659e-05 -0.849932 0 
0.0490834 -0.822542 0 
0.0987838 -0.846676 0 
0.148997 -0.818924 0 
0.200826 -0.840131 0 
0.253508 -0.816728 0 
0.305831 -0.795701 0 
0.358581 -0.827419 0 
0.410181 -0.804654 0 
0.462414 -0.83234 0 
0.512965 -0.802929 0 
0.564777 -0.825243 0 
-0.660798 -0.750564 0 
-0.614015 -0.789295 0 
-0.561786 -0.769772 0 
-0.510673 -0.747856 0 
-0.460836 -0.778365 0 
-0.408794 -0.751554 0 
-0.357337 -0.774971 0 
-0.304815 -0.743684 0 
-0.252907 -0.765535 0 
-0.200631 -0.789263 0 
-0.149244 -0.764328 0 
-0.0986912 -0.791935 0 
-0.0492815 -0.765764 0 
4.16586e-05 -0.79382 0 
0.0492411 -0.765708 0 
0.0987508 -0.791951 0 
0.149196 -0.764326 0 
0.200666 -0.789356 0 
0.252841 -0.765599 0 
0.304862 -0.743741 0 
0.357323 -0.775038 0 
0.408863 -0.751626 0 
0.460863 -0.778382 0 
0.510716 -0.747859 0 
0.561819 -0.769761 0 
0.614041 -0.789274 0 
0.660811 -0.750552 0 
-0.707107 -0.707107 0 
-0.654819 -0.699058 0 
-0.60813 -0.73348 0 
-0.558104 -0.71337 0 
-0.509495 -0.692659 0 
-0.45935 -0.724356 0 
-0.407328 -0.698865 0 
-0.355968 -0.722823 0 
-0.303722 -0.691387 0 
-0.252254 -0.71362 0 
-0.20067 -0.737336 0 
-0.149608 -0.710068 0 
-0.0991558 -0.737129 0 
-0.0495872 -0.709825 0 
-2.23646e-05 -0.737917 0 
0.0494408 -0.709766 0 
0.0991291 -0.737116 0 
0.149502 -0.710042 0 
0.200696 -0.73743 0 
0.252186 -0.713735 0 
0.303753 -0.691518 0 
0.355952 -0.722893 0 
0.407371 -0.698945 0 
0.459374 -0.724407 0 
0.509524 -0.692668 0 
0.558131 -0.713361 0 
0.608151 -0.733462 0 
0.654824 -0.699048 0 
0.707107 -0.707107 0 
-0.750564 -0.660798 0 
-0.699058 -0.654819 0 
-0.647692 -0.647692 0 
-0.603437 -0.675718 0 
-0.55905 -0.655305 0 
-0.508501 -0.639581 0 
-0.457509 -0.671321 0 
-0.405555 -0.646545 0 
-0.354417 -0.670703 0 
-0.302427 -0.639219 0 
-0.251503 -0.661417 0 
-0.20061 -0.684911 0 
-0.149717 -0.655943 0 
-0.0995004 -0.682466 0 
-0.0498216 -0.654561 0 
-5.02113e-05 -0.682664 0 
0.0496787 -0.654499 0 
0.0994374 -0.682501 0 
0.149603 -0.655909 0 
0.200573 -0.684972 0 
0.251388 -0.661524 0 
0.302407 -0.639359 0 
0.354397 -0.670836 0 
0.405575 -0.646641 0 
0.457525 -0.67138 0 
0.508497 -0.639623 0 
0.559063 -0.655324 0 
0.603436 -0.675715 0 
0.64769 -0.64769 0 
0.699048 -0.654824 0 
0.750552 -0.660811 0 
-0.789295 -0.614015 0 
-0.73348 -0.60813 0 
-0.675718 -0.603437 0 
-0.613088 -0.613088 0 
-0.55962 -0.604068 0 
-0.506189 -0.588854 0 
-0.455505 -0.618874 0 
-0.403019 -0.594688 0 
-0.352514 -0.618952 0 
-0.300977 -0.586897 0 
-0.250543 -0.608767 0 
-0.200257 -0.632053 0 
-0.150049 -0.601979 0 
-0.0998281 -0.628222 0 
-0.0500377 -0.599914 0 
-3.12334e-05 -0.628076 0 
0.0498927 -0.599835 0 
0.0997818 -0.628253 0 
0.149924 -0.601867 0 
0.200214 -0.632118 0 
0.250423 -0.608915 0 
0.30086 -0.587085 0 
0.352457 -0.619096 0 
0.402948 -0.594743 0 
0.455483 -0.618952 0 
0.506147 -0.588901 0 
0.55964 -0.604067 0 
0.613069 -0.613069 0 
0.675715 -0.603436 0 
0.733462 -0.608151 0 
0.789274 -0.614041 0 
-0.825268 -0.564741 0 
-0.769772 -0.561786 0 
-0.71337 -0.558104 0 
-0.655305 -0.55905 0 
-0.604068 -0.55962 0 
-0.551031 -0.551031 0 
-0.497922 -0.537596 0 
-0.451508 -0.567021 0 
-0.399773 -0.542431 0 
-0.350494 -0.567003 0 
-0.301574 -0.534146 0 
-0.250874 -0.555692 0 
-0.200542 -0.579013 0 
-0.150324 -0.548268 0 
-0.100169 -0.57443 0 
-0.0500152 -0.545912 0 
-3.29278e-05 -0.574268 0 
0.0499208 -0.545788 0 
0.100058 -0.574485 0 
0.150038 -0.548073 0 
0.200377 -0.579041 0 
0.250556 -0.55585 0 
0.301273 -0.534348 0 
0.350318 -0.567174 0 
0.399615 -0.542384 0 
0.451404 -0.5671 0 
0.497945 -0.537702 0 
0.551073 -0.551073 0 
0.604067 -0.55964 0 
0.655324 -0.559063 0 
0.713361 -0.558131 0 
0.769761 -0.561819 0 
0.825243 -0.564777 0 
-0.857917 -0.513788 0 
-0.802945 -0.512908 0 
-0.747856 -0.510673 0 
-0.692659 -0.509495 0 
-0.639581 -0.508501 0 
-0.588854 -0.506189 0 
-0.537596 -0.497922 0 
-0.486157 -0.486157 0 
-0.444928 -0.512952 0 
-0.401787 -0.486784 0 
-0.351685 -0.513639 0 
-0.299695 -0.48291 0 
-0.250032 -0.503 0 
-0.200501 -0.526165 0 
-0.149489 -0.495195 0 
-0.0999281 -0.521367 0 
-0.0499712 -0.492294 0 
4.64723e-05 -0.520999 0 
0.050147 -0.492108 0 
0.099934 -0.52133 0 
0.14957 -0.494692 0 
0.200133 -0.526255 0 
0.249839 -0.503309 0 
0.299839 -0.483005 0 
0.351514 -0.513798 0 
0.401881 -0.486608 0 
0.444935 -0.513054 0 
0.486228 -0.486228 0 
0.537702 -0.497945 0 
0.588901 -0.506147 0 
0.639623 -0.508497 0 
0.692668 -0.509524 0 
0.747859 -0.510716 0 
0.802929 -0.512965 0 
0.857885 -0.513842 0 
-0.887039 -0.461695 0 
-0.832348 -0.462372 0 
-0.778365 -0.460836 0 
-0.724356 -0.45935 0 
-0.671321 -0.457509 0 
-0.618874 -0.455505 0 
-0.567021 -0.451508 0 
-0.512952 -0.444928 0 
-0.450685 -0.450685 0 
-0.397667 -0.437543 0 
-0.348492 -0.462546 0 
-0.295416 -0.432968 0 
-0.247004 -0.450633 0 
-0.198702 -0.473818 0 
-0.150161 -0.441625 0 
-0.100085 -0.468395 0 
-0.0502271 -0.439281 0 
0.000144229 -0.468374 0 
0.0504178 -0.439106 0 
0.100428 -0.468348 0 
0.150697 -0.441105 0 
0.199103 -0.473881 0 
0.247983 -0.450921 0 
0.296569 -0.432268 0 
0.348831 -0.462562 0 
0.397506 -0.4368 0 
0.450637 -0.450637 0 
0.513054 -0.444935 0 
0.5671 -0.451404 0 
0.618952 -0.455483 0 
0.67138 -0.457525 0 
0.724407 -0.459374 0 
0.778382 -0.460863 0 
0.83234 -0.462414 0 
0.887011 -0.461748 0 
-0.912466 -0.409153 0 
-0.857936 -0.411157 0 
-0.804631 -0.410124 0 
-0.751554 -0.408794 0 
-0.698865 -0.407328 0 
-0.646545 -0.405555 0 
-0.594688 -0.403019 0 
-0.542431 -0.399773 0 
-0.486784 -0.401787 0 
-0.437543 -0.397667 0 
-0.387256 -0.387256 0 
-0.344215 -0.411459 0 
-0.30136 -0.381507 0 
-0.25021 -0.395692 0 
-0.200211 -0.419975 0 
-0.150955 -0.389014 0 
-0.100617 -0.416095 0 
-0.0503197 -0.386922 0 
-4.02994e-05 -0.416525 0 
0.05006 -0.386948 0 
0.100784 -0.416323 0 
0.150432 -0.388572 0 
0.200855 -0.420694 0 
0.25086 -0.396905 0 
0.301746 -0.379789 0 
0.344135 -0.410678 0 
0.385823 -0.385823 0 
0.4368 -0.397506 0 
0.486608 -0.401881 0 
0.542384 -0.399615 0 
0.594743 -0.402948 0 
0.646641 -0.405575 0 
0.698945 -0.407371 0 
0.751626 -0.408863 0 
0.804654 -0.410181 0 
0.857929 -0.411236 0 
0.912429 -0.409236 0 
-0.934288 -0.356519 0 
-0.879963 -0.359855 0 
-0.827415 -0.358606 0 
-0.774971 -0.357337 0 
-0.722823 -0.355968 0 
-0.670703 -0.354417 0 
-0.618952 -0.352514 0 
-0.567003 -0.350494 0 
-0.513639 -0.351685 0 
-0.462546 -0.348492 0 
-0.411459 -0.344215 0 
-0.351697 -0.351697 0 
-0.29839 -0.336232 0 
-0.249846 -0.342529 0 
-0.200971 -0.367271 0 
-0.149995 -0.337521 0 
-0.100435 -0.3646 0 
-0.0498692 -0.335025 0 
-6.88684e-05 -0.365025 0 
0.0495433 -0.334795 0 
0.0996798 -0.364834 0 
0.148162 -0.337172 0 
0.199644 -0.368939 0 
0.24763 -0.345582 0 
0.295348 -0.332889 0 
0.34978 -0.34978 0 
0.410678 -0.344135 0 
0.462562 -0.348831 0 
0.513798 -0.351514 0 
0.567174 -0.350318 0 
0.619096 -0.352457 0 
0.670836 -0.354397 0 
0.722893 -0.355952 0 
0.775038 -0.357323 0 
0.827419 -0.358581 0 
0.879943 -0.359894 0 
0.93426 -0.356593 0 
-0.952721 -0.303845 0 
-0.898929 -0.308871 0 
-0.847481 -0.306888 0 
-0.795641 -0.305781 0 
-0.743684 -0.304815 0 
-0.691387 -0.303722 0 
-0.639219 -0.302427 0 
-0.586897 -0.300977 0 
-0.534146 -0.301574 0 
-0.48291 -0.299695 0 
-0.432968 -0.295416 0 
-0.381507 -0.30136 0 
-0.336232 -0.29839 0 
-0.288184 -0.288184 0 
-0.242975 -0.290577 0 
-0.198059 -0.315051 0 
-0.148383 -0.285894 0 
-0.0994753 -0.313232 0 
-0.0507184 -0.283118 0 
-0.000202902 -0.313447 0 
0.0500077 -0.282824 0 
0.0988289 -0.312817 0 
0.148102 -0.28482 0 
0.195742 -0.317413 0 
0.240766 -0.295824 0 
0.285014 -0.285014 0 
0.332889 -0.295348 0 
0.379789 -0.301746 0 
0.432268 -0.296569 0 
0.483005 -0.299839 0 
0.534348 -0.301273 0 
0.587085 -0.30086 0 
0.639359 -0.302407 0 
0.691518 -0.303753 0 
0.743741 -0.304862 0 
0.795701 -0.305831 0 
0.847482 -0.306946 0 
0.898924 -0.308979 0 
0.952687 -0.303953 0 
-0.96803 -0.250833 0 
-0.916037 -0.258282 0 
-0.866979 -0.254732 0 
-0.816639 -0.25358 0 
-0.765535 -0.252907 0 
-0.71362 -0.252254 0 
-0.661417 -0.251503 0 
-0.608767 -0.250543 0 
-0.555692 -0.250874 0 
-0.503 -0.250032 0 
-0.450633 -0.247004 0 
-0.395692 -0.25021 0 
-0.342529 -0.249846 0 
-0.290577 -0.242975 0 
-0.239946 -0.239946 0 
-0.194478 -0.26004 0 
-0.151293 -0.23238 0 
-0.101048 -0.260904 0 
-0.0503938 -0.232537 0 
-0.000203281 -0.262984 0 
0.050638 -0.232316 0 
0.100942 -0.260855 0 
0.152412 -0.232597 0 
0.195768 -0.261421 0 
0.241873 -0.241873 0 
0.295824 -0.240766 0 
0.345582 -0.24763 0 
0.396905 -0.25086 0 
0.450921 -0.247983 0 
[...]
POINT_DATA 1245 
VECTORS vectors float
0.568473 -0.220208 0.792683 
0.561244 -0.200559 0.802983 
0.548204 -0.169922 0.818901 
0.536473 -0.133876 0.833231 
0.527301 -0.085335 0.845382 
0.525335 -0.0384626 0.850026 
0.529621 0.00864819 0.84819 
0.535641 0.0520878 0.842838 
0.544666 0.0903993 0.833767 
0.557091 0.125509 0.820913 
0.566188 0.150069 0.8105 
0.571594 0.171624 0.802387 
0.569317 0.188701 0.800169 
0.561517 -0.248055 0.78941 
0.568887 -0.234875 0.788163 
0.473469 -0.187551 0.860611 
0.472828 -0.170848 0.864433 
0.474856 -0.151567 0.866914 
0.441858 -0.11323 0.889911 
0.452758 -0.0811587 0.887932 
0.42673 -0.0371237 0.903617 
0.450651 0.0042376 0.89269 
0.433502 0.0416375 0.90019 
0.466436 0.0796184 0.880964 
0.453546 0.103055 0.885254 
0.486346 0.132995 0.863586 
0.476635 0.148173 0.866524 
0.469577 0.16373 0.867577 
0.560176 0.205969 0.802359 
0.544968 0.225502 0.807564 
0.522582 -0.280801 0.805021 
0.545958 -0.262535 0.795616 
0.463315 -0.215832 0.859509 
0.471582 -0.202109 0.858349 
0.389283 -0.157568 0.907541 
0.391679 -0.142387 0.909018 
0.399612 -0.1247 0.908163 
0.356437 -0.088454 0.930123 
0.378217 -0.065779 0.923377 
0.34299 -0.0298255 0.938865 
0.375082 0.00151013 0.92699 
0.346889 0.0285108 0.937473 
0.386115 0.06241 0.920337 
0.363357 0.0793245 0.928267 
0.405534 0.109423 0.907507 
0.391815 0.124316 0.911607 
0.383736 0.139613 0.912828 
0.46067 0.180611 0.869001 
0.447071 0.199473 0.871974 
0.524535 0.248371 0.814355 
0.50008 0.274673 0.821264 
0.493098 -0.304627 0.814897 
0.427916 -0.250176 0.868505 
0.448726 -0.231422 0.863185 
0.377973 -0.186791 0.906778 
0.385424 -0.171877 0.906591 
0.316824 -0.13285 0.939134 
0.321154 -0.118402 0.939596 
0.330131 -0.103253 0.938271 
0.28758 -0.0717313 0.955067 
0.308267 -0.0530182 0.949821 
0.273772 -0.0247355 0.961477 
0.303709 -0.000832852 0.952764 
0.275524 0.0210845 0.961063 
0.312379 0.0477482 0.948757 
0.290094 0.0628298 0.954933 
0.33266 0.0911152 0.938635 
0.319378 0.104227 0.941878 
0.309843 0.118911 0.943323 
0.374619 0.155908 0.913976 
0.363035 0.174297 0.915328 
0.43 0.220751 0.875425 
0.408675 0.244822 0.879231 
0.472936 0.303743 0.827087 
0.428331 -0.367886 0.825344 
0.460432 -0.334296 0.822343 
0.402514 -0.27254 0.873902 
0.345979 -0.220673 0.911922 
0.364466 -0.202366 0.908962 
0.30475 -0.160941 0.938736 
0.312383 -0.146729 0.938556 
0.254688 -0.111739 0.960546 
0.261056 -0.099415 0.960191 
0.269382 -0.0860127 0.959185 
0.230391 -0.0588711 0.971316 
0.247682 -0.0436853 0.967856 
0.217348 -0.0210314 0.975867 
0.242392 -0.00221296 0.970176 
0.21788 0.0155321 0.975852 
0.249435 0.0372955 0.967673 
0.230525 0.0508708 0.971736 
0.26901 0.0751057 0.960205 
0.257019 0.0881277 0.96238 
0.248292 0.100942 0.963411 
0.301842 0.134574 0.943812 
0.29242 0.151579 0.9442 
0.347775 0.194282 0.917228 
0.329993 0.21575 0.918998 
0.384835 0.270231 0.88254 
0.443937 0.33454 0.831266 
0.413933 0.365947 0.833512 
0.397856 -0.404014 0.823701 
0.356892 -0.331187 0.873466 
0.375398 -0.29817 0.877594 
0.324163 -0.241196 0.914736 
0.278599 -0.19524 0.940353 
0.29374 -0.177151 0.939326 
0.245339 -0.139685 0.959321 
0.251953 -0.125603 0.959554 
0.204911 -0.0953193 0.974128 
0.209223 -0.0832844 0.974315 
0.217072 -0.0714227 0.973539 
0.18312 -0.0490252 0.981867 
0.197407 -0.0361925 0.979653 
0.1713 -0.0180369 0.985054 
0.191764 -0.00268816 0.981437 
0.17122 0.011577 0.985165 
0.19753 0.0295414 0.979852 
0.181939 0.0409786 0.982456 
0.215407 0.0622784 0.974536 
0.204833 0.0737461 0.976015 
0.197732 0.0866772 0.976417 
0.242202 0.115988 0.963268 
0.233282 0.132539 0.963334 
0.279327 0.170501 0.944937 
0.263635 0.191373 0.945449 
0.308489 0.238063 0.920956 
0.359567 0.296539 0.884746 
0.340993 0.328088 0.880955 
0.381311 0.399164 0.833828 
0.371529 -0.437008 0.81914 
0.331865 -0.360574 0.871695 
0.294985 -0.295345 0.908711 
0.302075 -0.263924 0.916021 
0.260421 -0.215621 0.94111 
0.224749 -0.173325 0.958878 
0.235666 -0.154738 0.959436 
0.196329 -0.121539 0.972976 
0.200513 -0.107173 0.973811 
0.162052 -0.0808637 0.983463 
0.16672 -0.0702055 0.983502 
0.173604 -0.0600581 0.982983 
0.144418 -0.0407323 0.988678 
0.156068 -0.030421 0.987278 
0.134206 -0.015294 0.990835 
0.150784 -0.00318627 0.988562 
0.133713 0.00891258 0.99098 
0.155173 0.0235451 0.987607 
0.142557 0.0336335 0.989215 
0.170389 0.0520567 0.984001 
0.162198 0.0623182 0.984788 
0.155702 0.0734511 0.985069 
0.19208 0.0998978 0.976282 
0.186346 0.115323 0.975692 
0.223726 0.149647 0.963095 
0.211651 0.169689 0.962502 
0.246255 0.213861 0.945316 
0.286071 0.261064 0.921959 
0.27744 0.29468 0.914435 
0.312487 0.357749 0.879981 
0.348174 0.4325 0.831696 
0.348737 -0.463029 0.814854 
0.304956 -0.377525 0.874344 
0.266301 -0.302629 0.91515 
0.244246 -0.243116 0.938743 
0.213388 -0.19497 0.957315 
0.182556 -0.154129 0.971039 
0.189511 -0.136252 0.972379 
0.156161 -0.10511 0.982123 
0.160887 -0.0931218 0.98257 
0.128393 -0.0692928 0.9893 
0.131786 -0.0597358 0.989477 
0.136961 -0.0505606 0.989285 
0.113231 -0.0346593 0.992964 
0.122134 -0.0258674 0.992176 
0.10432 -0.0135197 0.994452 
0.117626 -0.00341433 0.993052 
0.103518 0.00656774 0.994606 
0.121023 0.0187162 0.992473 
0.110519 0.0276549 0.993489 
0.133796 0.0429109 0.990079 
0.12674 0.0529483 0.990522 
0.12243 0.0632931 0.990457 
0.152553 0.0870382 0.984455 
0.146925 0.100864 0.983992 
0.177613 0.132642 0.97512 
0.170921 0.152163 0.973464 
0.198855 0.19359 0.960718 
0.228857 0.242432 0.942789 
0.24738 0.301609 0.920779 
0.280593 0.379031 0.881818 
0.317005 0.464785 0.82673 
0.325163 -0.483712 0.812584 
0.284222 -0.398178 0.872165 
0.247094 -0.321971 0.913936 
0.218491 -0.258873 0.940875 
0.196024 -0.212318 0.957338 
0.170619 -0.169969 0.970567 
0.145552 -0.133831 0.980257 
0.150747 -0.11936 0.98134 
0.123919 -0.09214 0.988005 
0.126489 -0.0802661 0.988715 
0.10074 -0.0603504 0.993081 
0.103022 -0.0513549 0.993352 
0.107394 -0.0429458 0.993289 
0.087355 -0.0296865 0.995735 
0.0951184 -0.0218775 0.995226 
0.0801679 -0.011841 0.996711 
0.0911496 -0.00330257 0.995832 
0.0794998 0.00487255 0.996823 
0.0936446 0.0152764 0.995488 
0.0851252 0.0226285 0.996113 
0.104046 0.036355 0.993908 
0.0985311 0.0446846 0.99413 
0.0948168 0.0549793 0.993975 
0.119377 0.0748651 0.990022 
0.115393 0.0882564 0.989391 
0.141222 0.115696 0.983194 
0.134356 0.133022 0.981964 
0.158443 0.170059 0.972613 
0.1813 0.21243 0.96021 
0.200886 0.263307 0.943565 
0.225416 0.326533 0.917913 
0.255896 0.405998 0.877316 
0.28752 0.496988 0.81874 
0.298678 -0.500193 0.812772 
0.261811 -0.414604 0.871526 
0.227495 -0.338389 0.913093 
0.198621 -0.274195 0.940939 
0.174728 -0.222402 0.95917 
0.154736 -0.181053 0.971224 
0.133908 -0.144803 0.980357 
0.114089 -0.115808 0.986698 
0.118314 -0.102407 0.987681 
0.0965297 -0.0816834 0.991973 
0.0998231 -0.070417 0.99251 
0.0788098 -0.0525795 0.995502 
0.0798578 -0.044107 0.99583 
0.0837412 -0.0369559 0.995802 
0.0674214 -0.0253206 0.997403 
0.0733291 -0.0191596 0.997124 
0.0612293 -0.0104398 0.998069 
0.0698781 -0.00357197 0.997549 
0.0603395 0.00354399 0.998172 
0.0715518 0.0120894 0.997364 
0.0647253 0.0189078 0.997724 
0.079908 0.0304784 0.996336 
0.0757899 0.0386677 0.996374 
0.0735898 0.047412 0.996161 
0.0932183 0.0664218 0.993428 
0.0892427 0.0782851 0.992929 
0.109209 0.101134 0.988861 
0.10541 0.114332 0.987835 
0.123027 0.145695 0.98165 
0.141863 0.184446 0.972551 
0.159914 0.22613 0.960881 
0.180472 0.28156 0.942419 
0.204886 0.350417 0.913909 
0.232806 0.432285 0.871167 
0.261721 0.526681 0.808771 
0.268452 -0.514787 0.814204 
0.236493 -0.427583 0.872493 
0.205937 -0.351041 0.913433 
0.179 -0.285346 0.941561 
0.155409 -0.231122 0.960433 
0.136077 -0.186483 0.972989 
0.117976 -0.150213 0.981589 
0.101872 -0.117873 0.98779 
0.0908508 -0.0920993 0.991597 
0.076492 -0.0718871 0.994475 
0.0779482 -0.0616075 0.995052 
0.0608165 -0.0454964 0.997112 
0.0616133 -0.038161 0.99737 
0.0639047 -0.0318869 0.997446 
0.0509307 -0.0223329 0.998452 
0.055486 -0.0166739 0.99832 
0.0458882 -0.0096659 0.9989 
0.0527955 -0.00349069 0.998599 
0.045049 0.00233168 0.998982 
0.0541448 0.0100049 0.998483 
0.0483142 0.0153833 0.998714 
0.0609906 0.0256624 0.997808 
0.0573448 0.0324573 0.997827 
0.0562075 0.0413008 0.997565 
0.0719124 0.0578105 0.995734 
0.069582 0.0694571 0.995155 
0.0829485 0.0913125 0.992362 
0.0925466 0.119838 0.988471 
0.107901 0.152904 0.982333 
0.123889 0.192262 0.973492 
0.141781 0.240174 0.96032 
0.162088 0.298606 0.940512 
0.185973 0.369929 0.910256 
0.212431 0.455123 0.864717 
0.240154 0.552199 0.798375 
0.235806 -0.529227 0.815055 
0.209576 -0.439196 0.873605 
0.183245 -0.361126 0.914336 
0.158386 -0.294055 0.942574 
0.137939 -0.238569 0.961279 
0.119258 -0.192421 0.974039 
0.103592 -0.154503 0.982546 
0.0896535 -0.123575 0.988277 
0.0788483 -0.0982237 0.992036 
0.0692515 -0.0784991 0.994506 
0.0586865 -0.0619744 0.996351 
0.060279 -0.0538775 0.996726 
0.0475819 -0.0418718 0.997989 
0.0460561 -0.0337727 0.998368 
0.0485217 -0.0280128 0.998429 
0.0377674 -0.0196661 0.999093 
0.0420047 -0.0149395 0.999006 
0.0336294 -0.00861375 0.999397 
0.0396394 -0.00364005 0.999207 
0.032907 0.00166384 0.999457 
0.0404791 0.0078355 0.99915 
0.035521 0.0135788 0.999277 
0.0456702 0.0222746 0.998708 
0.0429224 0.0290745 0.998655 
0.0425084 0.0367207 0.998421 
0.0545757 0.0504413 0.997235 
0.0529061 0.0586448 0.996876 
0.0621816 0.0774443 0.995056 
0.0719541 0.0982794 0.992554 
0.0813139 0.126429 0.988637 
0.0946578 0.159966 0.982574 
0.109028 0.201189 0.973466 
0.126294 0.251069 0.959695 
0.146337 0.312455 0.938593 
0.168966 0.386219 0.9068 
0.19506 0.472579 0.859431 
0.222315 0.571976 0.789569 
0.203537 -0.544089 0.813966 
0.182747 -0.45074 0.873749 
0.158899 -0.369703 0.915462 
0.138861 -0.301841 0.943191 
0.119596 -0.244361 0.962281 
0.103293 -0.197006 0.974946 
0.0892244 -0.158318 0.983349 
0.0769412 -0.126565 0.98897 
0.0673785 -0.100344 0.992669 
0.0582698 -0.080253 0.99507 
0.0500594 -0.063273 0.99674 
0.0451864 -0.0492452 0.997764 
0.0366139 -0.037199 0.998637 
0.0343871 -0.0302723 0.99895 
0.0363159 -0.0249938 0.999028 
0.0279935 -0.0177779 0.99945 
0.0308148 -0.0134531 0.999435 
0.0245792 -0.00821018 0.999664 
0.0288943 -0.00381676 0.999575 
0.0239882 0.000462104 0.999712 
0.0293701 0.00617252 0.99955 
0.0259046 0.0102488 0.999612 
0.0335888 0.0182471 0.999269 
0.0311821 0.0245461 0.999212 
0.0322219 0.0324924 0.998952 
0.0395415 0.0455141 0.998181 
0.044274 0.0617573 0.997109 
0.0526949 0.0801797 0.995387 
0.0606241 0.102911 0.992841 
0.0703601 0.130775 0.988912 
0.0815624 0.166075 0.982734 
0.0964558 0.207572 0.973453 
0.1121 0.260246 0.959013 
0.131608 0.322399 0.93741 
0.154326 0.397654 0.904464 
0.179661 0.485532 0.855559 
0.206801 0.585379 0.783942 
0.173872 -0.558354 0.811178 
0.156443 -0.461573 0.873199 
0.137399 -0.379669 0.914862 
0.118698 -0.30899 0.943629 
0.102461 -0.250131 0.962775 
0.088397 -0.201225 0.975548 
0.0757215 -0.161033 0.98404 
0.0648507 -0.127963 0.989656 
0.0562844 -0.102235 0.993167 
0.0481705 -0.080777 0.995568 
0.0413286 -0.0641287 0.997085 
0.0371376 -0.0515172 0.997981 
0.0323948 -0.0414091 0.998617 
0.0270641 -0.0325422 0.999104 
0.0247576 -0.026329 0.999347 
0.0259743 -0.0217554 0.999426 
0.0196147 -0.0158485 0.999682 
0.0219224 -0.0119877 0.999688 
0.0166378 -0.00777802 0.999831 
0.0200115 -0.00365647 0.999793 
0.0156699 0.000113745 0.999877 
0.020422 0.00509393 0.999778 
0.0173607 0.00902562 0.999809 
0.0237565 0.0161892 0.999587 
0.0224662 0.0205418 0.999537 
0.0227745 0.0272106 0.99937 
0.027149 0.036711 0.998957 
0.0331398 0.0487686 0.99826 
0.0365469 0.0631084 0.997337 
0.0431772 0.0820263 0.995694 
0.0509035 0.104825 0.993187 
0.0597842 0.133854 0.989196 
0.0710121 0.169089 0.983039 
0.0838007 0.213585 0.973324 
0.100272 0.265947 0.958758 
0.118555 0.330469 0.936341 
0.140186 0.405877 0.903112 
0.166084 0.493467 0.85376 
0.192117 0.592602 0.782249 
0.147497 -0.570026 0.808279 
0.13425 -0.474174 0.870135 
0.116195 -0.391589 0.912774 
0.100575 -0.320197 0.941997 
0.0872557 -0.259561 0.961777 
0.0744842 -0.208688 0.975142 
0.0635756 -0.166446 0.983999 
0.0544106 -0.132795 0.989649 
0.0463079 -0.104453 0.993451 
0.0396081 -0.0824214 0.99581 
0.0331791 -0.0649691 0.997336 
0.0287521 -0.0502808 0.998321 
0.0247272 -0.0393864 0.998918 
0.0202764 -0.0305496 0.999328 
0.0170823 -0.023475 0.999578 
0.0180511 -0.0197383 0.999642 
0.0130101 -0.0145779 0.999809 
0.0150383 -0.0113908 0.999822 
0.0108433 -0.00704988 0.999916 
0.0141398 -0.00389181 0.999892 
0.0104759 -0.000228576 0.999945 
0.0142462 0.0037392 0.999892 
0.0112194 0.0082104 0.999903 
0.0160241 0.0131703 0.999785 
0.014773 0.0185092 0.99972 
0.0171557 0.0267254 0.999496 
0.0211248 0.0365673 0.999108 
0.0246047 0.0487326 0.998509 
0.0294933 0.0648106 0.997462 
0.0353993 0.0839252 0.995843 
0.0423375 0.108297 0.993217 
0.0506177 0.138381 0.989085 
0.0615987 0.175413 0.982566 
0.0736694 0.220163 0.972677 
0.0889417 0.274956 0.957334 
0.106435 0.338793 0.934821 
0.127981 0.413723 0.901363 
0.151748 0.499172 0.853112 
0.176379 0.593853 0.785003 
0.12227 -0.577296 0.807328 
0.114133 -0.492451 0.862824 
0.0978672 -0.411297 0.906232 
0.0848743 -0.337598 0.937456 
0.0724494 -0.27397 0.959006 
0.0618811 -0.219786 0.973583 
0.0528802 -0.175762 0.983011 
0.0444753 -0.138901 0.989307 
0.0377487 -0.109653 0.993253 
0.0318832 -0.0867742 0.995718 
0.0266596 -0.0674052 0.997369 
0.0226965 -0.0528782 0.998343 
0.0190907 -0.0413499 0.998962 
0.0156789 -0.0318662 0.999369 
0.0130481 -0.0245484 0.999613 
0.0113349 -0.0184692 0.999765 
0.00804927 -0.0136616 0.999874 
0.00967376 -0.0104468 0.999899 
0.00602511 -0.00717925 0.999956 
0.00815208 -0.00407619 0.999958 
0.00550075 -0.00128325 0.999984 
0.00794818 0.00315227 0.999963 
0.00696508 0.00637956 0.999955 
0.00936503 0.0124896 0.999878 
0.0103653 0.0196438 0.999753 
0.0124234 0.0277362 0.999538 
0.0157123 0.0390653 0.999113 
0.0194892 0.0514097 0.998487 
0.0230764 0.0678957 0.997426 
0.0285256 0.0883393 0.995682 
0.0353521 0.113459 0.992914 
0.0427642 0.144841 0.98853 
0.052445 0.183601 0.981601 
0.0646636 0.230246 0.970982 
0.0781908 0.286209 0.954972 
0.0958746 0.352068 0.931051 
0.114469 0.426725 0.897108 
0.139471 0.508317 0.849801 
0.155959 0.588693 0.793169 
0.100555 -0.579632 0.80865 
0.0880914 -0.468908 0.878843 
0.0718743 -0.374771 0.924327 
0.059874 -0.298795 0.952437 
0.0504348 -0.237457 0.970088 
0.042047 -0.187849 0.981298 
0.0351375 -0.147927 0.988374 
0.0294402 -0.116669 0.992734 
0.024474 -0.0906426 0.995583 
0.0201536 -0.0713044 0.997251 
0.016675 -0.0554688 0.998321 
0.0137526 -0.0429818 0.998981 
0.0114875 -0.0338259 0.999362 
0.00876356 -0.0261325 0.99962 
0.00733753 -0.0202634 0.999768 
0.00595366 -0.0157139 0.999859 
0.00389239 -0.011943 0.999921 
0.0047045 -0.00942634 0.999945 
0.00271055 -0.00663059 0.999974 
0.00438527 -0.0032552 0.999985 
0.00181967 -0.000833799 0.999998 
0.00430127 0.00212067 0.999989 
0.00217731 0.00477263 0.999986 
0.00403547 0.00965631 0.999945 
0.00545502 0.014124 0.999885 
0.0063615 0.0211842 0.999755 
0.00826681 0.0302357 0.999509 
0.010709 0.0400465 0.99914 
0.0135936 0.0544149 0.998426 
0.0176573 0.0712198 0.997304 
0.0218878 0.0927737 0.995447 
0.0275934 0.119767 0.992419 
0.0352598 0.15307 0.987586 
0.043628 0.194233 0.979985 
0.0551239 0.245194 0.967906 
0.0687693 0.30683 0.949277 
0.0869395 0.382517 0.919849 
0.111039 0.475656 0.872595 
0.134049 0.580546 0.803117 
0.0754813 -0.578353 0.812287 
0.0694616 -0.490835 0.868479 
0.0573872 -0.404935 0.912543 
0.0465654 -0.325813 0.944287 
0.0382783 -0.259037 0.965109 
0.0314258 -0.20471 0.978318 
0.0258795 -0.161352 0.986558 
0.0211446 -0.126193 0.99178 
0.0172082 -0.0989851 0.99494 
0.0140167 -0.0775844 0.996887 
0.0111695 -0.0600164 0.998135 
0.0091237 -0.0471897 0.998844 
0.0068818 -0.0366605 0.999304 
0.00508325 -0.0285363 0.99958 
0.00431876 -0.0222105 0.999744 
0.00234717 -0.0172206 0.999849 
0.00126847 -0.0132343 0.999912 
0.000757796 -0.00962185 0.999953 
-0.0010372 -0.00641207 0.999979 
0.000181484 -0.00482784 0.999988 
-0.00107939 -0.001075 0.999999 
-1.25002e-05 0.00191666 0.999998 
-6.01672e-05 0.00618528 0.999981 
0.000831296 0.0109801 0.999939 
0.00165989 0.0170036 0.999854 
0.00274007 0.0238659 0.999711 
0.00421031 0.0333855 0.999434 
0.00657845 0.0452514 0.998954 
0.00861245 0.059217 0.998208 
0.0116554 0.0779481 0.996889 
0.0160078 0.100731 0.994785 
0.0203261 0.129257 0.991403 
0.0265921 0.165127 0.985914 
0.0345144 0.20903 0.9773 
0.0441079 0.263075 0.963767 
0.0567346 0.328866 0.942671 
0.0731498 0.405437 0.911192 
0.0916331 0.488248 0.867881 
0.104018 0.569322 0.815508 
0.05164 -0.575534 0.816146 
0.0426356 -0.461686 0.886018 
0.0327897 -0.365721 0.930147 
0.0254443 -0.288207 0.95723 
0.0198252 -0.226619 0.973782 
0.0156298 -0.177463 0.984003 
0.0121434 -0.138955 0.990224 
0.00954649 -0.108717 0.994027 
0.0071115 -0.0842456 0.99642 
0.00535982 -0.065968 0.997807 
0.00370699 -0.0510265 0.99869 
0.0022704 -0.0396614 0.999211 
0.00167068 -0.0308354 0.999523 
-0.000135664 -0.0240925 0.99971 
-0.000336038 -0.0182292 0.999834 
-0.0016061 -0.0151216 0.999884 
-0.00179235 -0.0103618 0.999945 
-0.00225677 -0.00854185 0.999961 
-0.00408163 -0.00636371 0.999971 
-0.00139201 -0.00322899 0.999994 
-0.00490325 -0.00283108 0.999984 
-0.00334005 0.000191659 0.999994 
-0.00265861 0.00448053 0.999986 
-0.0032035 0.00732596 0.999968 
-0.00227407 0.012922 0.999914 
-0.00192232 0.0186349 0.999825 
-0.000961004 0.026952 0.999636 
-1.72954e-05 0.0366897 0.999327 
0.00132175 0.0489351 0.998801 
0.00350293 0.0652768 0.997861 
0.00520634 0.0846809 0.996395 
0.00827139 0.109866 0.993912 
0.0122079 0.140997 0.989935 
0.0165715 0.179718 0.983579 
0.0229448 0.228386 0.9733 
0.0311603 0.288102 0.957093 
0.0418006 0.362509 0.931042 
0.0580265 0.453276 0.88948 
0.0722648 0.559532 0.825652 
0.0260129 -0.571545 0.820158 
0.0204071 -0.482127 0.875864 
0.0141905 -0.397533 0.917478 
0.00965784 -0.318309 0.947938 
0.00616932 -0.251575 0.967818 
0.00378909 -0.198112 0.980172 
0.00185086 -0.155559 0.987825 
0.000540508 -0.121555 0.992585 
-0.000497903 -0.0952629 0.995452 
-0.00119407 -0.0744794 0.997222 
-0.00205878 -0.0576717 0.998333 
-0.00224223 -0.0454383 0.998965 
-0.00304077 -0.0351123 0.999379 
-0.00367597 -0.0273669 0.999619 
-0.00326728 -0.0213134 0.999768 
-0.0047362 -0.0169207 0.999846 
-0.0041492 -0.0116224 0.999924 
-0.00541379 -0.0111878 0.999923 
-0.00510059 -0.00586703 0.99997 
-0.00503192 -0.00361151 0.999981 
-0.00463449 0.000496774 0.999989 
-0.00666098 0.00149361 0.999977 
-0.00535784 0.00640046 0.999965 
-0.00606439 0.0103459 0.999928 
-0.0054257 0.0159809 0.999858 
-0.00560382 0.0228122 0.999724 
-0.00514717 0.0313826 0.999494 
-0.00429633 0.0428342 0.999073 
-0.0042176 0.0562732 0.998407 
-0.00293864 0.0735776 0.997285 
-0.00168808 0.0956365 0.995415 
-0.00054982 0.122507 0.992468 
0.00173671 0.156625 0.987657 
0.00447797 0.198721 0.980046 
0.00799846 0.250795 0.968007 
0.0131329 0.314488 0.94917 
0.0197828 0.38881 0.921106 
0.0272411 0.467924 0.883349 
0.0365924 0.550491 0.834039 
-0.00201664 -0.562518 0.826782 
-0.00926116 -0.450635 0.89266 
-0.0097941 -0.357281 0.933946 
-0.01042 -0.282459 0.959223 
-0.0108483 -0.222248 0.97493 
-0.0106014 -0.174465 0.984606 
-0.0101197 -0.136961 0.990525 
-0.00967383 -0.107133 0.994198 
-0.00918776 -0.0833636 0.996477 
-0.0085697 -0.0652072 0.997835 
-0.0083589 -0.0505653 0.998686 
-0.00806822 -0.0391846 0.999199 
-0.0072727 -0.0307207 0.999502 
-0.00802571 -0.0236212 0.999689 
-0.00738666 -0.0180996 0.999809 
-0.00759502 -0.0149193 0.99986 
-0.00774592 -0.0100628 0.999919 
-0.00775164 -0.00855697 0.999933 
-0.00726846 -0.00607919 0.999955 
-0.00866642 -0.00343834 0.999957 
-0.00811647 -0.00253188 0.999964 
-0.00861073 0.00014791 0.999963 
-0.00849156 0.00446157 0.999954 
-0.0089372 0.00721573 0.999934 
-0.00895548 0.0127518 0.999879 
-0.00971772 0.0183887 0.999784 
-0.00928483 0.0264356 0.999607 
-0.0101409 0.0359528 0.999302 
-0.0101815 0.0480591 0.998793 
-0.0101796 0.0637104 0.997917 