# vtk DataFile Version 3.0 
Exported using Morpho https://github.com/Morpho-lang/morpho 
ASCII 
DATASET UNSTRUCTURED_GRID 

POINTS 1245 float 
-0.303845 -0.952721 0 
-0.250833 -0.96803 0 
-0.195084 -0.980787 0 
-0.146308 -0.989239 0 
-0.0940719 -0.995565 0 
-0.0475118 -0.998871 0 
-0.000246339 -1 0 
0.0470875 -0.998891 0 
0.0937543 -0.995595 0 
0.146139 -0.989264 0 
0.195062 -0.980791 0 
0.250843 -0.968028 0 
0.303953 -0.952687 0 
-0.409153 -0.912466 0 
-0.356519 -0.934288 0 
-0.308871 -0.898929 0 
-0.258282 -0.916037 0 
-0.207345 -0.934859 0 
-0.154868 -0.930629 0 
-0.104343 -0.948989 0 
-0.0520099 -0.939193 0 
-8.5762e-05 -0.954582 0 
0.0518744 -0.939288 0 
0.104354 -0.949042 0 
0.154696 -0.9306 0 
0.207366 -0.934975 0 
0.258274 -0.916081 0 
0.308979 -0.898924 0 
0.356593 -0.93426 0 
0.409236 -0.912429 0 
-0.513788 -0.857917 0 
-0.461695 -0.887039 0 
-0.411157 -0.857936 0 
-0.359855 -0.879963 0 
-0.306888 -0.847481 0 
-0.254732 -0.866979 0 
-0.201991 -0.889059 0 
-0.149956 -0.874108 0 
-0.100608 -0.900088 0 
-0.0497575 -0.880388 0 
2.4595e-05 -0.904789 0 
0.0496869 -0.8804 0 
0.100612 -0.900177 0 
0.149872 -0.874171 0 
0.202071 -0.889165 0 
0.254695 -0.867031 0 
0.306946 -0.847482 0 
0.359894 -0.879943 0 
0.411236 -0.857929 0 
0.461748 -0.887011 0 
0.513842 -0.857885 0 
-0.564741 -0.825268 0 
-0.512908 -0.802945 0 
-0.462372 -0.832348 0 
-0.410124 -0.804631 0 
-0.358606 -0.827415 0 
-0.305781 -0.795641 0 
-0.25358 -0.816639 0 
-0.200756 -0.839997 0 
-0.149043 -0.818944 0 
-0.0987265 -0.846667 0 
-0.0490473 -0.822548 0 
5.00659e-05 -0.849932 0 
0.0490834 -0.822542 0 
0.0987838 -0.846676 0 
0.148997 -0.818924 0 
0.200826 -0.840131 0 
0.253508 -0.816728 0 
0.305831 -0.795701 0 
0.358581 -0.827419 0 
0.410181 -0.804654 0 
0.462414 -0.83234 0 
0.512965 -0.802929 0 
0.564777 -0.825243 0 
-0.660798 -0.750564 0 
-0.614015 -0.789295 0 
-0.561786 -0.769772 0 
-0.510673 -0.747856 0 
-0.460836 -0.778365 0 
-0.408794 -0.751554 0 
-0.357337 -0.774971 0 
-0.304815 -0.743684 0 
-0.252907 -0.765535 0 
-0.200631 -0.789263 0 
-0.149244 -0.764328 0 
-0.0986912 -0.791935 0 
-0.0492815 -0.765764 0 
4.16586e-05 -0.79382 0 
0.0492411 -0.765708 0 
0.0987508 -0.791951 0 
0.149196 -0.764326 0 
0.200666 -0.789356 0 
0.252841 -0.765599 0 
0.304862 -0.743741 0 
0.357323 -0.775038 0 
0.408863 -0.751626 0 
0.460863 -0.778382 0 
0.510716 -0.747859 0 
0.561819 -0.769761 0 
0.614041 -0.789274 0 
0.660811 -0.750552 0 
-0.707107 -0.707107 0 
-0.654819 -0.699058 0 
-0.60813 -0.73348 0 
-0.558104 -0.71337 0 
-0.509495 -0.692659 0 
-0.45935 -0.724356 0 
-0.407328 -0.698865 0 
-0.355968 -0.722823 0 
-0.303722 -0.691387 0 
-0.252254 -0.71362 0 
-0.20067 -0.737336 0 
-0.149608 -0.710068 0 
-0.0991558 -0.737129 0 
-0.0495872 -0.709825 0 
-2.23646e-05 -0.737917 0 
0.0494408 -0.709766 0 
0.0991291 -0.737116 0 
0.149502 -0.710042 0 
0.200696 -0.73743 0 
0.252186 -0.713735 0 
0.303753 -0.691518 0 
0.355952 -0.722893 0 
0.407371 -0.698945 0 
0.459374 -0.724407 0 
0.509524 -0.692668 0 
0.558131 -0.713361 0 
0.608151 -0.733462 0 
0.654824 -0.699048 0 
0.707107 -0.707107 0 
-0.750564 -0.660798 0 
-0.699058 -0.654819 0 
-0.647692 -0.647692 0 
-0.603437 -0.675718 0 
-0.55905 -0.655305 0 
-0.508501 -0.639581 0 
-0.457509 -0.671321 0 
-0.405555 -0.646545 0 
-0.354417 -0.670703 0 
-0.302427 -0.639219 0 
-0.251503 -0.661417 0 
-0.20061 -0.684911 0 
-0.149717 -0.655943 0 
-0.0995004 -0.682466 0 
-0.0498216 -0.654561 0 
-5.02113e-05 -0.682664 0 
0.0496787 -0.654499 0 
0.0994374 -0.682501 0 
0.149603 -0.655909 0 
0.200573 -0.684972 0 
0.251388 -0.661524 0 
0.302407 -0.639359 0 
0.354397 -0.670836 0 
0.405575 -0.646641 0 
0.457525 -0.67138 0 
0.508497 -0.639623 0 
0.559063 -0.655324 0 
0.603436 -0.675715 0 
0.64769 -0.64769 0 
0.699048 -0.654824 0 
0.750552 -0.660811 0 
-0.789295 -0.614015 0 
-0.73348 -0.60813 0 
-0.675718 -0.603437 0 
-0.613088 -0.613088 0 
-0.55962 -0.604068 0 
-0.506189 -0.588854 0 
-0.455505 -0.618874 0 
-0.403019 -0.594688 0 
-0.352514 -0.618952 0 
-0.300977 -0.586897 0 
-0.250543 -0.608767 0 
-0.200257 -0.632053 0 
-0.150049 -0.601979 0 
-0.0998281 -0.628222 0 
-0.0500377 -0.599914 0 
-3.12334e-05 -0.628076 0 
0.0498927 -0.599835 0 
0.0997818 -0.628253 0 
0.149924 -0.601867 0 
0.200214 -0.632118 0 
0.250423 -0.608915 0 
0.30086 -0.587085 0 
0.352457 -0.619096 0 
0.402948 -0.594743 0 
0.455483 -0.618952 0 
0.506147 -0.588901 0 
0.55964 -0.604067 0 
0.613069 -0.613069 0 
0.675715 -0.603436 0 
0.733462 -0.608151 0 
0.789274 -0.614041 0 
-0.825268 -0.564741 0 
-0.769772 -0.561786 0 
-0.71337 -0.558104 0 
-0.655305 -0.55905 0 
-0.604068 -0.55962 0 
-0.551031 -0.551031 0 
-0.497922 -0.537596 0 
-0.451508 -0.567021 0 
-0.399773 -0.542431 0 
-0.350494 -0.567003 0 
-0.301574 -0.534146 0 
-0.250874 -0.555692 0 
-0.200542 -0.579013 0 
-0.150324 -0.548268 0 
-0.100169 -0.57443 0 
-0.0500152 -0.545912 0 
-3.29278e-05 -0.574268 0 
0.0499208 -0.545788 0 
0.100058 -0.574485 0 
0.150038 -0.548073 0 
0.200377 -0.579041 0 
0.250556 -0.55585 0 
0.301273 -0.534348 0 
0.350318 -0.567174 0 
0.399615 -0.542384 0 
0.451404 -0.5671 0 
0.497945 -0.537702 0 
0.551073 -0.551073 0 
0.604067 -0.55964 0 
0.655324 -0.559063 0 
0.713361 -0.558131 0 
0.769761 -0.561819 0 
0.825243 -0.564777 0 
-0.857917 -0.513788 0 
-0.802945 -0.512908 0 
-0.747856 -0.510673 0 
-0.692659 -0.509495 0 
-0.639581 -0.508501 0 
-0.588854 -0.506189 0 
-0.537596 -0.497922 0 
-0.486157 -0.486157 0 
-0.444928 -0.512952 0 
-0.401787 -0.486784 0 
-0.351685 -0.513639 0 
-0.299695 -0.48291 0 
-0.250032 -0.503 0 
-0.200501 -0.526165 0 
-0.149489 -0.495195 0 
-0.0999281 -0.521367 0 
-0.0499712 -0.492294 0 
4.64723e-05 -0.520999 0 
0.050147 -0.492108 0 
0.099934 -0.52133 0 
0.14957 -0.494692 0 
0.200133 -0.526255 0 
0.249839 -0.503309 0 
0.299839 -0.483005 0 
0.351514 -0.513798 0 
0.401881 -0.486608 0 
0.444935 -0.513054 0 
0.486228 -0.486228 0 
0.537702 -0.497945 0 
0.588901 -0.506147 0 
0.639623 -0.508497 0 
0.692668 -0.509524 0 
0.747859 -0.510716 0 
0.802929 -0.512965 0 
0.857885 -0.513842 0 
-0.887039 -0.461695 0 
-0.832348 -0.462372 0 
-0.778365 -0.460836 0 
-0.724356 -0.45935 0 
-0.671321 -0.457509 0 
-0.618874 -0.455505 0 
-0.567021 -0.451508 0 
-0.512952 -0.444928 0 
-0.450685 -0.450685 0 
-0.397667 -0.437543 0 
-0.348492 -0.462546 0 
-0.295416 -0.432968 0 
-0.247004 -0.450633 0 
-0.198702 -0.473818 0 
-0.150161 -0.441625 0 
-0.100085 -0.468395 0 
-0.0502271 -0.439281 0 
0.000144229 -0.468374 0 
0.0504178 -0.439106 0 
0.100428 -0.468348 0 
0.150697 -0.441105 0 
0.199103 -0.473881 0 
0.247983 -0.450921 0 
0.296569 -0.432268 0 
0.348831 -0.462562 0 
0.397506 -0.4368 0 
0.450637 -0.450637 0 
0.513054 -0.444935 0 
0.5671 -0.451404 0 
0.618952 -0.455483 0 
0.67138 -0.457525 0 
0.724407 -0.459374 0 
0.778382 -0.460863 0 
0.83234 -0.462414 0 
0.887011 -0.461748 0 
-0.912466 -0.409153 0 
-0.857936 -0.411157 0 
-0.804631 -0.410124 0 
-0.751554 -0.408794 0 
-0.698865 -0.407328 0 
-0.646545 -0.405555 0 
-0.594688 -0.403019 0 
-0.542431 -0.399773 0 
-0.486784 -0.401787 0 
-0.437543 -0.397667 0 
-0.387256 -0.387256 0 
-0.344215 -0.411459 0 
-0.30136 -0.381507 0 
-0.25021 -0.395692 0 
-0.200211 -0.419975 0 
-0.150955 -0.389014 0 
-0.100617 -0.416095 0 
-0.0503197 -0.386922 0 
-4.02994e-05 -0.416525 0 
0.05006 -0.386948 0 
0.100784 -0.416323 0 
0.150432 -0.388572 0 
0.200855 -0.420694 0 
0.25086 -0.396905 0 
0.301746 -0.379789 0 
0.344135 -0.410678 0 
0.385823 -0.385823 0 
0.4368 -0.397506 0 
0.486608 -0.401881 0 
0.542384 -0.399615 0 
0.594743 -0.402948 0 
0.646641 -0.405575 0 
0.698945 -0.407371 0 
0.751626 -0.408863 0 
0.804654 -0.410181 0 
0.857929 -0.411236 0 
0.912429 -0.409236 0 
-0.934288 -0.356519 0 
-0.879963 -0.359855 0 
-0.827415 -0.358606 0 
-0.774971 -0.357337 0 
-0.722823 -0.355968 0 
-0.670703 -0.354417 0 
-0.618952 -0.352514 0 
-0.567003 -0.350494 0 
-0.513639 -0.351685 0 
-0.462546 -0.348492 0 
-0.411459 -0.344215 0 
-0.351697 -0.351697 0 
-0.29839 -0.336232 0 
-0.249846 -0.342529 0 
-0.200971 -0.367271 0 
-0.149995 -0.337521 0 
-0.100435 -0.3646 0 
-0.0498692 -0.335025 0 
-6.88684e-05 -0.365025 0 
0.0495433 -0.334795 0 
0.0996798 -0.364834 0 
0.148162 -0.337172 0 
0.199644 -0.368939 0 
0.24763 -0.345582 0 
0.295348 -0.332889 0 
0.34978 -0.34978 0 
0.410678 -0.344135 0 
0.462562 -0.348831 0 
0.513798 -0.351514 0 
0.567174 -0.350318 0 
0.619096 -0.352457 0 
0.670836 -0.354397 0 
0.722893 -0.355952 0 
0.775038 -0.357323 0 
0.827419 -0.358581 0 
0.879943 -0.359894 0 
0.93426 -0.356593 0 
-0.952721 -0.303845 0 
-0.898929 -0.308871 0 
-0.847481 -0.306888 0 
-0.795641 -0.305781 0 
-0.743684 -0.304815 0 
-0.691387 -0.303722 0 
-0.639219 -0.302427 0 
-0.586897 -0.300977 0 
-0.534146 -0.301574 0 
-0.48291 -0.299695 0 
-0.432968 -0.295416 0 
-0.381507 -0.30136 0 
-0.336232 -0.29839 0 
-0.288184 -0.288184 0 
-0.242975 -0.290577 0 
-0.198059 -0.315051 0 
-0.148383 -0.285894 0 
-0.0994753 -0.313232 0 
-0.0507184 -0.283118 0 
-0.000202902 -0.313447 0 
0.0500077 -0.282824 0 
0.0988289 -0.312817 0 
0.148102 -0.28482 0 
0.195742 -0.317413 0 
0.240766 -0.295824 0 
0.285014 -0.285014 0 
0.332889 -0.295348 0 
0.379789 -0.301746 0 
0.432268 -0.296569 0 
0.483005 -0.299839 0 
0.534348 -0.301273 0 
0.587085 -0.30086 0 
0.639359 -0.302407 0 
0.691518 -0.303753 0 
0.743741 -0.304862 0 
0.795701 -0.305831 0 
0.847482 -0.306946 0 
0.898924 -0.308979 0 
0.952687 -0.303953 0 
-0.96803 -0.250833 0 
-0.916037 -0.258282 0 
-0.866979 -0.254732 0 
-0.816639 -0.25358 0 
-0.765535 -0.252907 0 
-0.71362 -0.252254 0 
-0.661417 -0.251503 0 
-0.608767 -0.250543 0 
-0.555692 -0.250874 0 
-0.503 -0.250032 0 
-0.450633 -0.247004 0 
-0.395692 -0.25021 0 
-0.342529 -0.249846 0 
-0.290577 -0.242975 0 
-0.239946 -0.239946 0 
-0.194478 -0.26004 0 
-0.151293 -0.23238 0 
-0.101048 -0.260904 0 
-0.0503938 -0.232537 0 
-0.000203281 -0.262984 0 
0.050638 -0.232316 0 
0.100942 -0.260855 0 
0.152412 -0.232597 0 
0.195768 -0.261421 0 
0.241873 -0.241873 0 
0.295824 -0.240766 0 
0.345582 -0.24763 0 
0.396905 -0.25086 0 
0.450921 -0.247983 0 
[...]
POINT_DATA 1245 
VECTORS vectors float
0.594897 -0.209976 0.775892 
0.597412 -0.181176 0.7812 
0.596724 -0.14635 0.788988 
0.59554 -0.112174 0.795456 
0.594755 -0.0715429 0.800717 
0.595884 -0.034884 0.802313 
0.598764 0.00150536 0.800924 
0.598628 0.0370868 0.800168 
0.599702 0.0715325 0.79702 
0.601774 0.108424 0.791273 
0.602827 0.138962 0.785678 
0.601851 0.170226 0.780255 
0.596642 0.197109 0.777925 
0.578483 -0.261667 0.772585 
0.588779 -0.23638 0.772957 
0.50311 -0.186601 0.843837 
0.508828 -0.162339 0.845423 
0.52062 -0.137207 0.842692 
0.494746 -0.100631 0.863191 
0.514468 -0.0711351 0.854554 
0.489799 -0.0337609 0.871181 
0.515125 0.00055631 0.857115 
0.492027 0.033459 0.869936 
0.518352 0.0693896 0.852347 
0.498773 0.0959443 0.861406 
0.524659 0.129693 0.841376 
0.510862 0.152748 0.845983 
0.502834 0.176 0.846275 
0.587445 0.223074 0.777912 
0.574118 0.249313 0.779892 
0.543986 -0.313496 0.778331 
0.56356 -0.287032 0.774605 
0.487049 -0.233487 0.841586 
0.496494 -0.210064 0.842239 
0.421567 -0.162265 0.892161 
0.4295 -0.140002 0.892149 
0.443848 -0.1173 0.888391 
0.406724 -0.0829312 0.909779 
0.434676 -0.0595725 0.898615 
0.399687 -0.0279895 0.916224 
0.433997 -0.000347796 0.900914 
0.400796 0.0263504 0.915788 
0.437378 0.0570529 0.897466 
0.408862 0.0784627 0.909217 
0.446423 0.11094 0.887918 
0.430166 0.132064 0.893038 
0.419928 0.153573 0.89447 
0.493555 0.199355 0.846558 
0.4817 0.223516 0.847352 
0.556646 0.276521 0.783378 
0.535161 0.305183 0.787697 
0.520365 -0.341555 0.782663 
0.45598 -0.281641 0.844251 
0.473603 -0.257177 0.842354 
0.405964 -0.206096 0.890347 
0.41493 -0.184318 0.890988 
0.350446 -0.14129 0.925864 
0.359199 -0.121527 0.925315 
0.373291 -0.101406 0.922155 
0.333883 -0.0702988 0.939989 
0.359623 -0.0503277 0.93174 
0.324772 -0.0237023 0.945495 
0.357151 -0.000888947 0.934046 
0.325315 0.0211948 0.945368 
0.36103 0.047308 0.931354 
0.334735 0.0661114 0.93999 
0.374365 0.095569 0.922344 
0.3585 0.114807 0.926443 
0.348258 0.134273 0.927732 
0.411116 0.175561 0.894518 
0.400352 0.198198 0.894671 
0.466111 0.24865 0.849067 
0.44708 0.274791 0.85124 
0.510232 0.335295 0.791985 
0.465931 -0.401186 0.788643 
0.493818 -0.371138 0.786384 
0.434621 -0.306788 0.84675 
0.377906 -0.250979 0.891177 
0.393903 -0.228316 0.890344 
0.336405 -0.181986 0.923966 
0.344239 -0.161372 0.92491 
0.290136 -0.12341 0.948995 
0.298067 -0.105556 0.948691 
0.310779 -0.0878128 0.946417 
0.273359 -0.0604026 0.960014 
0.29488 -0.0430559 0.954564 
0.263535 -0.0204962 0.964432 
0.291012 -0.00119959 0.956719 
0.263689 0.0176673 0.964446 
0.295384 0.0398601 0.954547 
0.273397 0.0563423 0.96025 
0.310777 0.0828445 0.946866 
0.296778 0.099898 0.949707 
0.287195 0.117667 0.950617 
0.340241 0.154439 0.927569 
0.330581 0.175666 0.927285 
0.386646 0.221437 0.895249 
0.369156 0.245565 0.896338 
0.424648 0.301573 0.853656 
0.482687 0.366612 0.795367 
0.453722 0.398225 0.797216 
0.435866 -0.432178 0.789457 
0.393669 -0.363218 0.844451 
0.410946 -0.332116 0.849013 
0.358364 -0.273347 0.892668 
0.311378 -0.224016 0.923504 
0.325359 -0.202496 0.923654 
0.277501 -0.160732 0.947185 
0.28433 -0.141722 0.948194 
0.23845 -0.107863 0.965146 
0.245915 -0.0919166 0.964923 
0.256693 -0.0763195 0.963475 
0.223406 -0.0521617 0.973329 
0.240729 -0.0372349 0.969878 
0.213781 -0.0177666 0.97672 
0.236351 -0.00142162 0.971667 
0.213637 0.014917 0.976799 
0.240648 0.0339662 0.970018 
0.222796 0.0486257 0.973652 
0.255806 0.0718949 0.964051 
0.244094 0.0872653 0.965817 
0.235662 0.103271 0.966333 
0.280169 0.136227 0.950236 
0.272288 0.155822 0.949515 
0.318399 0.197244 0.927209 
0.303472 0.219913 0.927115 
0.348713 0.269459 0.897659 
0.399955 0.328432 0.855668 
0.381519 0.361418 0.850776 
0.422171 0.431254 0.797366 
0.405297 -0.461673 0.789046 
0.366527 -0.389969 0.844738 
0.329911 -0.326701 0.885678 
0.337274 -0.296014 0.893657 
0.293861 -0.246256 0.923582 
0.257619 -0.20145 0.945013 
0.268495 -0.180298 0.946257 
0.228448 -0.142567 0.963061 
0.234435 -0.12496 0.964067 
0.195956 -0.094898 0.97601 
0.202004 -0.0804381 0.976076 
0.210764 -0.0664 0.975279 
0.182029 -0.0454387 0.982243 
0.195888 -0.0322639 0.980095 
0.173248 -0.0156206 0.984754 
0.191756 -0.00138144 0.981442 
0.172976 0.0127082 0.984844 
0.195602 0.0291485 0.98025 
0.181065 0.0421335 0.982568 
0.209655 0.0625108 0.975775 
0.199822 0.076566 0.976836 
0.193024 0.0912168 0.976945 
0.23033 0.120583 0.965613 
0.223286 0.138943 0.9648 
0.261784 0.176301 0.948887 
0.250138 0.198783 0.947585 
0.284902 0.243676 0.927067 
0.326911 0.293837 0.898214 
0.318669 0.325796 0.890117 
0.353352 0.39049 0.850094 
0.389966 0.463709 0.79555 
0.375592 -0.487746 0.788058 
0.335267 -0.406161 0.850076 
0.298555 -0.333577 0.894199 
0.276699 -0.274308 0.920974 
0.24577 -0.224902 0.942876 
0.213703 -0.181647 0.959862 
0.220979 -0.160826 0.961927 
0.187797 -0.126938 0.973971 
0.192348 -0.110363 0.975101 
0.160235 -0.0838633 0.98351 
0.165033 -0.0705864 0.983759 
0.17245 -0.0580464 0.983306 
0.147885 -0.0397993 0.988203 
0.159301 -0.028134 0.986829 
0.140286 -0.013649 0.990017 
0.155504 -0.00129581 0.987834 
0.139994 0.0110697 0.99009 
0.158702 0.0254101 0.987 
0.146905 0.0368855 0.988463 
0.170935 0.0548658 0.983754 
0.163074 0.067307 0.984315 
0.157367 0.0809165 0.98422 
0.188635 0.107006 0.9762 
0.183154 0.124065 0.975224 
0.215292 0.157882 0.963703 
0.20701 0.179904 0.961656 
0.237774 0.223628 0.945227 
0.266964 0.273883 0.923969 
0.287113 0.335328 0.897285 
0.321717 0.409338 0.85378 
0.359239 0.49346 0.792114 
0.34513 -0.511775 0.786747 
0.309232 -0.428186 0.849136 
0.275072 -0.353588 0.894042 
0.247788 -0.290534 0.924224 
0.226535 -0.24333 0.943118 
0.200423 -0.199042 0.959277 
0.174846 -0.160872 0.971365 
0.181471 -0.143415 0.972882 
0.153336 -0.112919 0.981701 
0.157743 -0.0981889 0.982586 
0.130807 -0.0751817 0.988553 
0.134568 -0.0627515 0.988915 
0.140611 -0.051333 0.988733 
0.120079 -0.0351499 0.992142 
0.129242 -0.024913 0.9913 
0.113525 -0.0120532 0.993462 
0.126046 -0.00127627 0.992024 
0.113099 0.00967213 0.993537 
0.128606 0.022236 0.991447 
0.118793 0.032694 0.992381 
0.139004 0.0484774 0.989105 
0.132444 0.06018 0.989362 
0.128306 0.0727516 0.989063 
0.154262 0.0956212 0.983392 
0.149206 0.11092 0.982565 
0.176078 0.141639 0.974133 
0.169352 0.159979 0.972485 
0.193516 0.198872 0.96073 
0.218227 0.244181 0.944856 
0.238364 0.2923 0.926144 
0.263859 0.357819 0.895737 
0.295795 0.435009 0.850454 
0.329044 0.521681 0.787133 
0.314144 -0.533294 0.785437 
0.282119 -0.447863 0.848427 
0.25133 -0.371867 0.893615 
0.224507 -0.3071 0.924817 
0.201964 -0.254555 0.945734 
0.182211 -0.211702 0.960199 
0.161382 -0.173774 0.971472 
0.141743 -0.141114 0.979794 
0.146529 -0.126895 0.981034 
0.124338 -0.10271 0.98691 
0.128585 -0.0887333 0.987721 
0.106662 -0.0673653 0.992011 
0.109363 -0.0560087 0.992423 
0.114191 -0.045633 0.99241 
0.0970443 -0.0312402 0.99479 
0.104773 -0.0219501 0.994254 
0.0915024 -0.0107569 0.995747 
0.102051 -0.00109928 0.994779 
0.09114 0.00863221 0.995801 
0.104169 0.0197135 0.994364 
0.0958448 0.0289692 0.994975 
0.11282 0.0431529 0.992678 
0.107459 0.0537878 0.992753 
0.104328 0.0656978 0.992371 
0.125381 0.0867812 0.988306 
0.120681 0.101627 0.987476 
0.14216 0.125604 0.981842 
0.137045 0.141173 0.980453 
0.155766 0.174283 0.972297 
0.175595 0.21304 0.961135 
0.194296 0.257489 0.946546 
0.215672 0.311878 0.92532 
0.241121 0.37899 0.893436 
0.270209 0.458129 0.846821 
0.300229 0.547195 0.781307 
0.282715 -0.552297 0.784245 
0.254309 -0.464638 0.848197 
0.22637 -0.387109 0.893814 
0.201252 -0.320488 0.925627 
0.179475 -0.264914 0.947422 
0.160425 -0.218702 0.962514 
0.143278 -0.179917 0.973191 
0.126559 -0.146014 0.981154 
0.116405 -0.116548 0.98634 
0.101791 -0.0928995 0.990459 
0.104798 -0.0797219 0.991293 
0.0868985 -0.0603911 0.994385 
0.0881832 -0.0498354 0.994857 
0.0926326 -0.0404933 0.994877 
0.0780476 -0.0281419 0.996552 
0.0846868 -0.0196827 0.996213 
0.073613 -0.00968941 0.99724 
0.0824367 -0.0010177 0.996596 
0.0732701 0.00776361 0.997282 
0.0839618 0.0176589 0.996312 
0.0770393 0.0264354 0.996678 
0.0912116 0.0386537 0.995081 
0.0867564 0.0484079 0.995053 
0.0846275 0.0591176 0.994657 
0.102122 0.07843 0.991675 
0.0984244 0.0919558 0.990887 
0.11265 0.116102 0.986828 
0.122358 0.146632 0.981594 
0.13822 0.1817 0.973592 
0.154709 0.221788 0.962744 
0.172971 0.269698 0.947282 
0.194123 0.327513 0.92469 
0.218279 0.397124 0.89143 
0.245342 0.477777 0.843526 
0.273011 0.569094 0.775627 
0.251244 -0.568887 0.783099 
0.226352 -0.478821 0.848231 
0.201131 -0.399551 0.894374 
0.178617 -0.331525 0.926384 
0.158422 -0.27398 0.948598 
0.141076 -0.226093 0.963836 
0.125738 -0.186186 0.974436 
0.112233 -0.152564 0.9819 
0.102229 -0.124007 0.987001 
0.0923632 -0.10206 0.990481 
0.0818603 -0.0825362 0.99322 
0.0847226 -0.0717492 0.993818 
0.0706156 -0.0568604 0.995882 
0.0705852 -0.0459532 0.996447 
0.0742841 -0.0369336 0.996553 
0.0626187 -0.0257411 0.997706 
0.0680258 -0.0178902 0.997523 
0.0589482 -0.00883362 0.998222 
0.0663002 -0.000931415 0.997799 
0.0586736 0.00696607 0.998253 
0.0675102 0.0161319 0.997588 
0.0615516 0.023773 0.997821 
0.0732275 0.0353305 0.996689 
0.0694549 0.0446812 0.996584 
0.0683231 0.055803 0.996101 
0.0821609 0.0706006 0.994115 
0.0786231 0.0813607 0.993579 
0.0893753 0.101707 0.990792 
0.0988005 0.124654 0.987269 
0.108495 0.154115 0.982078 
0.121521 0.189118 0.974406 
0.136727 0.230437 0.963434 
0.153773 0.280556 0.94744 
0.17361 0.340328 0.924141 
0.196409 0.411265 0.890104 
0.221622 0.493799 0.84086 
0.247309 0.586845 0.771007 
0.220088 -0.58318 0.78196 
0.198652 -0.490887 0.848273 
0.176383 -0.410241 0.894758 
0.155717 -0.340402 0.927296 
0.137866 -0.281699 0.949546 
0.12216 -0.232266 0.96495 
0.108516 -0.191193 0.975535 
0.0967086 -0.156951 0.98286 
0.0876182 -0.128442 0.987839 
0.0787279 -0.104978 0.991353 
0.0708598 -0.0853206 0.993831 
0.0666163 -0.0675137 0.995492 
0.05789 -0.052562 0.996938 
0.0559242 -0.0420519 0.997549 
0.0592916 -0.0338629 0.997666 
0.049703 -0.0234476 0.998489 
0.0544673 -0.0163045 0.998382 
0.046584 -0.00801561 0.998882 
0.0530042 -0.000886959 0.998594 
0.0462299 0.00638264 0.99891 
0.0539961 0.0145155 0.998436 
0.0487935 0.0217921 0.998571 
0.058647 0.0323801 0.997754 
0.0552773 0.0406233 0.997644 
0.0551919 0.0504565 0.9972 
0.0640009 0.0661078 0.995758 
0.068622 0.0849682 0.994018 
0.0763079 0.105594 0.991477 
0.0849207 0.129778 0.9879 
0.0938134 0.159448 0.982739 
0.10577 0.194876 0.975108 
0.119114 0.237767 0.963991 
0.135423 0.288843 0.94775 
0.153776 0.350243 0.92395 
0.174988 0.422449 0.889335 
0.19899 0.505909 0.83932 
0.222646 0.600371 0.768104 
0.189575 -0.595164 0.780923 
0.17217 -0.50175 0.847705 
0.151765 -0.419876 0.894803 
0.133965 -0.348981 0.927505 
0.118236 -0.288609 0.950118 
0.104211 -0.237548 0.96577 
0.0922007 -0.195185 0.976423 
0.0819335 -0.159982 0.983714 
0.073619 -0.130726 0.988681 
0.0661339 -0.10706 0.992051 
0.0591449 -0.087469 0.99441 
0.0557418 -0.0714974 0.995882 
0.0513697 -0.0589472 0.996939 
0.0456513 -0.0469377 0.997854 
0.0435972 -0.0378541 0.998332 
0.0467868 -0.0307986 0.99843 
0.0388924 -0.021563 0.999011 
0.0430381 -0.0149455 0.998962 
0.0363884 -0.0075458 0.999309 
0.0418942 -0.000867678 0.999122 
0.0362179 0.00591216 0.999326 
0.0425132 0.0131747 0.999009 
0.0381087 0.0200533 0.999072 
0.0462286 0.0289494 0.998511 
0.0435793 0.0366657 0.998377 
0.0436423 0.0452325 0.998023 
0.0488512 0.0572716 0.997163 
0.053892 0.07075 0.996037 
0.0576564 0.0876839 0.994478 
0.0642474 0.108014 0.992071 
0.0716511 0.132625 0.988573 
0.0799756 0.162779 0.983416 
0.0906127 0.199379 0.975724 
0.103314 0.243156 0.96447 
0.11771 0.29613 0.947867 
0.134966 0.358389 0.923765 
0.154608 0.43148 0.888775 
0.177027 0.51537 0.838484 
0.198354 0.609725 0.767393 
0.159737 -0.604624 0.780329 
0.146451 -0.512762 0.845948 
0.128511 -0.431993 0.892674 
0.113289 -0.360571 0.925826 
0.0995189 -0.298864 0.949092 
0.0876703 -0.246233 0.965237 
0.0773392 -0.202273 0.976271 
0.0681814 -0.165233 0.983895 
0.0609316 -0.134994 0.988971 
0.0543989 -0.109871 0.992456 
0.0484554 -0.0889478 0.994857 
0.0446132 -0.0715364 0.99644 
0.0407037 -0.0570691 0.99754 
0.0364686 -0.0449472 0.998323 
0.0336648 -0.0351324 0.998815 
0.0354971 -0.0279771 0.998978 
0.029434 -0.0206501 0.999353 
0.0331893 -0.0140568 0.99935 
0.0277893 -0.00716832 0.999588 
0.0323512 -0.000766286 0.999476 
0.027488 0.00556885 0.999607 
0.0326177 0.0127362 0.999387 
0.0290124 0.0193959 0.999391 
0.0349838 0.0271245 0.99902 
0.0331796 0.0345056 0.998854 
0.0351765 0.0451763 0.99836 
0.0393172 0.0573599 0.997579 
0.0435776 0.0719537 0.996456 
0.0473022 0.0896919 0.994846 
0.0530615 0.111193 0.992381 
0.0596493 0.136928 0.988783 
0.0674806 0.168332 0.983418 
0.076812 0.206284 0.975473 
0.0882869 0.251706 0.963768 
0.101478 0.305599 0.946737 
0.116855 0.368858 0.922111 
0.134532 0.441699 0.887019 
0.155656 0.523536 0.837664 
0.173402 0.615045 0.769188 
0.1281 -0.610999 0.781198 
0.122253 -0.530181 0.839025 
0.106406 -0.45125 0.886031 
0.0932497 -0.378362 0.920949 
0.082026 -0.314027 0.945864 
0.0719922 -0.25882 0.963239 
0.0631162 -0.21213 0.975201 
0.0555919 -0.173479 0.983267 
0.0492946 -0.141464 0.988715 
0.0438989 -0.114977 0.992398 
0.0389548 -0.0935872 0.994849 
0.0354159 -0.0753061 0.996531 
0.0324334 -0.0605084 0.997641 
0.0292786 -0.0480993 0.998413 
0.0263748 -0.0370338 0.998966 
0.0256944 -0.0273448 0.999296 
0.0219935 -0.019054 0.999577 
0.0248468 -0.0130559 0.999606 
0.0203112 -0.00611922 0.999775 
0.0246023 -0.000671093 0.999697 
0.0202039 0.00504263 0.999783 
0.0247531 0.0117313 0.999625 
0.0214888 0.0181342 0.999605 
0.0254339 0.0265883 0.999323 
0.0259576 0.0363602 0.999002 
0.0281207 0.048123 0.998445 
0.0312552 0.0605 0.997679 
0.0346013 0.0758708 0.996517 
0.0381961 0.0942363 0.994817 
0.0430918 0.116391 0.992268 
0.0486891 0.143416 0.988464 
0.0556882 0.176253 0.982768 
0.0641507 0.215873 0.974312 
0.0739055 0.263374 0.961859 
0.0858917 0.319618 0.943646 
0.0992658 0.384585 0.917737 
0.115446 0.457926 0.881462 
0.134364 0.537391 0.832561 
0.1447 0.616014 0.774331 
0.100108 -0.614376 0.782637 
0.0910853 -0.508006 0.856524 
0.0763957 -0.415835 0.906226 
0.0655493 -0.340054 0.938119 
0.056732 -0.277416 0.959073 
0.049399 -0.226039 0.972865 
0.0431136 -0.183876 0.982003 
0.0378349 -0.149179 0.988086 
0.0334457 -0.121297 0.992053 
0.0295903 -0.0981535 0.994731 
0.0266048 -0.0792171 0.996502 
0.0241849 -0.0638693 0.997665 
0.0218305 -0.0511125 0.998454 
0.0199696 -0.0404426 0.998982 
0.01895 -0.0310426 0.999338 
0.0173035 -0.0237225 0.999569 
0.0147197 -0.0167459 0.999751 
0.0178406 -0.0118653 0.99977 
0.0134732 -0.00668537 0.999887 
0.017143 -0.000890223 0.999853 
0.0134911 0.00524007 0.999895 
0.0175198 0.0105708 0.999791 
0.0146175 0.0155291 0.999773 
0.017132 0.0225422 0.999599 
0.0184606 0.0302761 0.999371 
0.0191597 0.0394706 0.999037 
0.0208673 0.0503744 0.998512 
0.0233585 0.0637336 0.997694 
0.0260644 0.0792638 0.996513 
0.0289593 0.09877 0.994689 
0.0331827 0.12228 0.991941 
0.0380915 0.151003 0.987799 
0.0437666 0.186114 0.981553 
0.0512937 0.228901 0.972097 
0.0599616 0.280612 0.957946 
0.0707504 0.343428 0.93651 
0.0843165 0.419183 0.903978 
0.102808 0.510557 0.853676 
0.116759 0.614651 0.78011 
0.0689217 -0.616086 0.784658 
0.06724 -0.531068 0.844657 
0.0567826 -0.44717 0.892645 
0.0481524 -0.368285 0.928465 
0.0411196 -0.300614 0.952859 
0.0354191 -0.244537 0.968993 
0.0305585 -0.19842 0.979641 
0.0265586 -0.161193 0.986566 
0.0232949 -0.130728 0.991145 
0.0203942 -0.106031 0.994154 
0.018126 -0.08601 0.996129 
0.0162515 -0.0693627 0.997459 
0.0147059 -0.0559279 0.998327 
0.0132508 -0.0445527 0.998919 
0.0122582 -0.0348329 0.999318 
0.0112552 -0.0267191 0.99958 
0.00997763 -0.0195995 0.999758 
0.0102397 -0.0120991 0.999874 
0.00802279 -0.00612837 0.999949 
0.0113224 -0.000562619 0.999936 
0.0078868 0.00477161 0.999958 
0.0100303 0.0109306 0.99989 
0.00976738 0.0185556 0.99978 
0.0108425 0.0256907 0.999611 
0.0119229 0.0338902 0.999354 
0.0125915 0.0438932 0.998957 
0.0140782 0.0555909 0.998354 
0.0157904 0.0693504 0.997467 
0.0178972 0.0862752 0.996111 
0.0203465 0.106745 0.994078 
0.0233112 0.131797 0.991003 
0.0273521 0.162572 0.986317 
0.0320027 0.200161 0.97924 
0.0377772 0.246288 0.96846 
0.0450782 0.302239 0.952166 
0.0539503 0.369174 0.927793 
0.0652047 0.447136 0.892086 
0.0789736 0.529576 0.844578 
0.0831464 0.611626 0.786765 
0.0412689 -0.616535 0.786245 
0.0372038 -0.505143 0.862233 
0.0299127 -0.410145 0.91153 
0.0244359 -0.331695 0.94307 
0.0204558 -0.268072 0.963182 
0.0171687 -0.216858 0.976052 
0.0145819 -0.175392 0.984391 
0.0124114 -0.141855 0.98981 
0.0106727 -0.115045 0.993303 
0.00921369 -0.0928234 0.99564 
0.00810646 -0.0750514 0.997147 
0.00720632 -0.0603489 0.998151 
0.00616279 -0.0482734 0.998815 
0.00592246 -0.037995 0.99926 
0.00510663 -0.0297064 0.999546 
0.00439692 -0.0219928 0.999748 
0.00453448 -0.0157474 0.999866 
0.00404888 -0.00993842 0.999942 
0.0017742 -0.00460854 0.999988 
0.00586224 -0.000470462 0.999983 
0.0017853 0.00246627 0.999995 
0.00408003 0.00889227 0.999952 
0.00434784 0.0141148 0.999891 
0.00416387 0.0212345 0.999766 
0.00490113 0.0284527 0.999583 
0.00528352 0.0372352 0.999293 
0.00584697 0.0475279 0.998853 
0.00680962 0.0600182 0.998174 
0.00794441 0.0749755 0.997154 
0.00905293 0.0929741 0.995627 
0.0108927 0.115428 0.993256 
0.0129301 0.14265 0.989689 
0.0154228 0.176237 0.984227 
0.0188661 0.217658 0.975843 
0.0229798 0.268502 0.963005 
0.0282515 0.331387 0.943072 
0.0355118 0.408248 0.91218 
0.0449482 0.50116 0.864186 
0.0516608 0.609026 0.791466 
0.0136772 -0.616153 0.787508 
0.0103645 -0.52899 0.848564 
0.00776453 -0.444024 0.895981 
0.00535196 -0.363948 0.931404 
0.00355481 -0.295533 0.955326 
0.00220471 -0.239276 0.970949 
0.00130294 -0.193782 0.981044 
0.000581714 -0.157177 0.98757 
0.00011555 -0.127441 0.991846 
-0.000286485 -0.103333 0.994647 
-0.000519248 -0.0839006 0.996474 
-0.000781361 -0.0677397 0.997703 
-0.000838199 -0.0546563 0.998505 
-0.000915643 -0.0434839 0.999054 
-0.00124434 -0.034292 0.999411 
-0.00111584 -0.0263608 0.999652 
-0.00145699 -0.019458 0.99981 
-0.00132381 -0.0131203 0.999913 
-0.00130275 -0.00779217 0.999969 
-0.00102599 5.40914e-06 0.999999 
-0.00142602 0.00653353 0.999978 
-0.00145495 0.0122386 0.999924 
-0.00157138 0.017809 0.99984 
-0.00139987 0.0253508 0.999678 
-0.00147652 0.0333346 0.999443 
-0.00123774 0.0427119 0.999087 
-0.00111367 0.0541186 0.998534 
-0.000975105 0.0674013 0.997725 
-0.000419851 0.0837373 0.996488 
-0.000130375 0.10356 0.994623 
0.00038202 0.127737 0.991808 
0.00132676 0.157566 0.987508 
0.00228519 0.194187 0.980962 
0.00370494 0.239352 0.970926 
0.00569677 0.294791 0.955545 
0.00816414 0.361842 0.932204 
0.0113468 0.439904 0.897973 
0.0150056 0.52217 0.852709 
0.0188588 0.606878 0.794571 
-0.015392 -0.610458 0.791899 
-0.0189316 -0.499513 0.8661 
-0.0173766 -0.405993 0.913711 
-0.016148 -0.328404 0.944399 
-0.0150487 -0.265724 0.963932 
-0.0139592 -0.215115 0.976489 
-0.0129369 -0.174114 0.98464 
-0.0118936 -0.14105 0.989931 
-0.0109448 -0.11438 0.993377 
-0.0101887 -0.0923973 0.99567 
-0.0094296 -0.0747431 0.997158 
-0.00875431 -0.0602153 0.998147 
-0.0083033 -0.0480477 0.998811 
-0.00772564 -0.0379093 0.999251 
-0.00769437 -0.0295984 0.999532 
-0.00689812 -0.0219887 0.999734 
-0.0074102 -0.0157728 0.999848 
-0.00701022 -0.00995908 0.999926 
-0.0053709 -0.00463617 0.999975 
-0.00856462 -0.000498109 0.999963 
-0.005339 0.00242592 0.999983 
-0.00695622 0.00881235 0.999937 
-0.00747208 0.0140128 0.999874 
-0.00700914 0.0211295 0.999752 
-0.00781409 0.0283553 0.999567 
-0.00805507 0.0370894 0.999279 
-0.00850912 0.0473141 0.998844 
-0.0088242 0.0596258 0.998182 
-0.00944617 0.074422 0.997182 
-0.010076 0.0923112 0.995679 
-0.0105961 0.114375 0.993381 
-0.0115212 0.141272 0.989904 
-0.0123421 0.17434 0.984608 
-0.0131586 0.215068 0.97651 
-0.0141834 0.265204 0.964088 
-0.0150994 0.326834 0.944961 