# vtk DataFile Version 3.0 
Exported using Morpho https://github.com/Morpho-lang/morpho 
ASCII 
DATASET UNSTRUCTURED_GRID 

POINTS 1245 float 
-0.303845 -0.952721 0 
-0.250833 -0.96803 0 
-0.195084 -0.980787 0 
-0.146308 -0.989239 0 
-0.0940719 -0.995565 0 
-0.0475118 -0.998871 0 
-0.000246339 -1 0 
0.0470875 -0.998891 0 
0.0937543 -0.995595 0 
0.146139 -0.989264 0 
0.195062 -0.980791 0 
0.250843 -0.968028 0 
0.303953 -0.952687 0 
-0.409153 -0.912466 0 
-0.356519 -0.934288 0 
-0.308871 -0.898929 0 
-0.258282 -0.916037 0 
-0.207345 -0.934859 0 
-0.154868 -0.930629 0 
-0.104343 -0.948989 0 
-0.0520099 -0.939193 0 
-8.5762e-05 -0.954582 0 
0.0518744 -0.939288 0 
0.104354 -0.949042 0 
0.154696 -0.9306 0 
0.207366 -0.934975 0 
0.258274 -0.916081 0 
0.308979 -0.898924 0 
0.356593 -0.93426 0 
0.409236 -0.912429 0 
-0.513788 -0.857917 0 
-0.461695 -0.887039 0 
-0.411157 -0.857936 0 
-0.359855 -0.879963 0 
-0.306888 -0.847481 0 
-0.254732 -0.866979 0 
-0.201991 -0.889059 0 
-0.149956 -0.874108 0 
-0.100608 -0.900088 0 
-0.0497575 -0.880388 0 
2.4595e-05 -0.904789 0 
0.0496869 -0.8804 0 
0.100612 -0.900177 0 
0.149872 -0.874171 0 
0.202071 -0.889165 0 
0.254695 -0.867031 0 
0.306946 -0.847482 0 
0.359894 -0.879943 0 
0.411236 -0.857929 0 
0.461748 -0.887011 0 
0.513842 -0.857885 0 
-0.564741 -0.825268 0 
-0.512908 -0.802945 0 
-0.462372 -0.832348 0 
-0.410124 -0.804631 0 
-0.358606 -0.827415 0 
-0.305781 -0.795641 0 
-0.25358 -0.816639 0 
-0.200756 -0.839997 0 
-0.149043 -0.818944 0 
-0.0987265 -0.846667 0 
-0.0490473 -0.822548 0 
5.00659e-05 -0.849932 0 
0.0490834 -0.822542 0 
0.0987838 -0.846676 0 
0.148997 -0.818924 0 
0.200826 -0.840131 0 
0.253508 -0.816728 0 
0.305831 -0.795701 0 
0.358581 -0.827419 0 
0.410181 -0.804654 0 
0.462414 -0.83234 0 
0.512965 -0.802929 0 
0.564777 -0.825243 0 
-0.660798 -0.750564 0 
-0.614015 -0.789295 0 
-0.561786 -0.769772 0 
-0.510673 -0.747856 0 
-0.460836 -0.778365 0 
-0.408794 -0.751554 0 
-0.357337 -0.774971 0 
-0.304815 -0.743684 0 
-0.252907 -0.765535 0 
-0.200631 -0.789263 0 
-0.149244 -0.764328 0 
-0.0986912 -0.791935 0 
-0.0492815 -0.765764 0 
4.16586e-05 -0.79382 0 
0.0492411 -0.765708 0 
0.0987508 -0.791951 0 
0.149196 -0.764326 0 
0.200666 -0.789356 0 
0.252841 -0.765599 0 
0.304862 -0.743741 0 
0.357323 -0.775038 0 
0.408863 -0.751626 0 
0.460863 -0.778382 0 
0.510716 -0.747859 0 
0.561819 -0.769761 0 
0.614041 -0.789274 0 
0.660811 -0.750552 0 
-0.707107 -0.707107 0 
-0.654819 -0.699058 0 
-0.60813 -0.73348 0 
-0.558104 -0.71337 0 
-0.509495 -0.692659 0 
-0.45935 -0.724356 0 
-0.407328 -0.698865 0 
-0.355968 -0.722823 0 
-0.303722 -0.691387 0 
-0.252254 -0.71362 0 
-0.20067 -0.737336 0 
-0.149608 -0.710068 0 
-0.0991558 -0.737129 0 
-0.0495872 -0.709825 0 
-2.23646e-05 -0.737917 0 
0.0494408 -0.709766 0 
0.0991291 -0.737116 0 
0.149502 -0.710042 0 
0.200696 -0.73743 0 
0.252186 -0.713735 0 
0.303753 -0.691518 0 
0.355952 -0.722893 0 
0.407371 -0.698945 0 
0.459374 -0.724407 0 
0.509524 -0.692668 0 
0.558131 -0.713361 0 
0.608151 -0.733462 0 
0.654824 -0.699048 0 
0.707107 -0.707107 0 
-0.750564 -0.660798 0 
-0.699058 -0.654819 0 
-0.647692 -0.647692 0 
-0.603437 -0.675718 0 
-0.55905 -0.655305 0 
-0.508501 -0.639581 0 
-0.457509 -0.671321 0 
-0.405555 -0.646545 0 
-0.354417 -0.670703 0 
-0.302427 -0.639219 0 
-0.251503 -0.661417 0 
-0.20061 -0.684911 0 
-0.149717 -0.655943 0 
-0.0995004 -0.682466 0 
-0.0498216 -0.654561 0 
-5.02113e-05 -0.682664 0 
0.0496787 -0.654499 0 
0.0994374 -0.682501 0 
0.149603 -0.655909 0 
0.200573 -0.684972 0 
0.251388 -0.661524 0 
0.302407 -0.639359 0 
0.354397 -0.670836 0 
0.405575 -0.646641 0 
0.457525 -0.67138 0 
0.508497 -0.639623 0 
0.559063 -0.655324 0 
0.603436 -0.675715 0 
0.64769 -0.64769 0 
0.699048 -0.654824 0 
0.750552 -0.660811 0 
-0.789295 -0.614015 0 
-0.73348 -0.60813 0 
-0.675718 -0.603437 0 
-0.613088 -0.613088 0 
-0.55962 -0.604068 0 
-0.506189 -0.588854 0 
-0.455505 -0.618874 0 
-0.403019 -0.594688 0 
-0.352514 -0.618952 0 
-0.300977 -0.586897 0 
-0.250543 -0.608767 0 
-0.200257 -0.632053 0 
-0.150049 -0.601979 0 
-0.0998281 -0.628222 0 
-0.0500377 -0.599914 0 
-3.12334e-05 -0.628076 0 
0.0498927 -0.599835 0 
0.0997818 -0.628253 0 
0.149924 -0.601867 0 
0.200214 -0.632118 0 
0.250423 -0.608915 0 
0.30086 -0.587085 0 
0.352457 -0.619096 0 
0.402948 -0.594743 0 
0.455483 -0.618952 0 
0.506147 -0.588901 0 
0.55964 -0.604067 0 
0.613069 -0.613069 0 
0.675715 -0.603436 0 
0.733462 -0.608151 0 
0.789274 -0.614041 0 
-0.825268 -0.564741 0 
-0.769772 -0.561786 0 
-0.71337 -0.558104 0 
-0.655305 -0.55905 0 
-0.604068 -0.55962 0 
-0.551031 -0.551031 0 
-0.497922 -0.537596 0 
-0.451508 -0.567021 0 
-0.399773 -0.542431 0 
-0.350494 -0.567003 0 
-0.301574 -0.534146 0 
-0.250874 -0.555692 0 
-0.200542 -0.579013 0 
-0.150324 -0.548268 0 
-0.100169 -0.57443 0 
-0.0500152 -0.545912 0 
-3.29278e-05 -0.574268 0 
0.0499208 -0.545788 0 
0.100058 -0.574485 0 
0.150038 -0.548073 0 
0.200377 -0.579041 0 
0.250556 -0.55585 0 
0.301273 -0.534348 0 
0.350318 -0.567174 0 
0.399615 -0.542384 0 
0.451404 -0.5671 0 
0.497945 -0.537702 0 
0.551073 -0.551073 0 
0.604067 -0.55964 0 
0.655324 -0.559063 0 
0.713361 -0.558131 0 
0.769761 -0.561819 0 
0.825243 -0.564777 0 
-0.857917 -0.513788 0 
-0.802945 -0.512908 0 
-0.747856 -0.510673 0 
-0.692659 -0.509495 0 
-0.639581 -0.508501 0 
-0.588854 -0.506189 0 
-0.537596 -0.497922 0 
-0.486157 -0.486157 0 
-0.444928 -0.512952 0 
-0.401787 -0.486784 0 
-0.351685 -0.513639 0 
-0.299695 -0.48291 0 
-0.250032 -0.503 0 
-0.200501 -0.526165 0 
-0.149489 -0.495195 0 
-0.0999281 -0.521367 0 
-0.0499712 -0.492294 0 
4.64723e-05 -0.520999 0 
0.050147 -0.492108 0 
0.099934 -0.52133 0 
0.14957 -0.494692 0 
0.200133 -0.526255 0 
0.249839 -0.503309 0 
0.299839 -0.483005 0 
0.351514 -0.513798 0 
0.401881 -0.486608 0 
0.444935 -0.513054 0 
0.486228 -0.486228 0 
0.537702 -0.497945 0 
0.588901 -0.506147 0 
0.639623 -0.508497 0 
0.692668 -0.509524 0 
0.747859 -0.510716 0 
0.802929 -0.512965 0 
0.857885 -0.513842 0 
-0.887039 -0.461695 0 
-0.832348 -0.462372 0 
-0.778365 -0.460836 0 
-0.724356 -0.45935 0 
-0.671321 -0.457509 0 
-0.618874 -0.455505 0 
-0.567021 -0.451508 0 
-0.512952 -0.444928 0 
-0.450685 -0.450685 0 
-0.397667 -0.437543 0 
-0.348492 -0.462546 0 
-0.295416 -0.432968 0 
-0.247004 -0.450633 0 
-0.198702 -0.473818 0 
-0.150161 -0.441625 0 
-0.100085 -0.468395 0 
-0.0502271 -0.439281 0 
0.000144229 -0.468374 0 
0.0504178 -0.439106 0 
0.100428 -0.468348 0 
0.150697 -0.441105 0 
0.199103 -0.473881 0 
0.247983 -0.450921 0 
0.296569 -0.432268 0 
0.348831 -0.462562 0 
0.397506 -0.4368 0 
0.450637 -0.450637 0 
0.513054 -0.444935 0 
0.5671 -0.451404 0 
0.618952 -0.455483 0 
0.67138 -0.457525 0 
0.724407 -0.459374 0 
0.778382 -0.460863 0 
0.83234 -0.462414 0 
0.887011 -0.461748 0 
-0.912466 -0.409153 0 
-0.857936 -0.411157 0 
-0.804631 -0.410124 0 
-0.751554 -0.408794 0 
-0.698865 -0.407328 0 
-0.646545 -0.405555 0 
-0.594688 -0.403019 0 
-0.542431 -0.399773 0 
-0.486784 -0.401787 0 
-0.437543 -0.397667 0 
-0.387256 -0.387256 0 
-0.344215 -0.411459 0 
-0.30136 -0.381507 0 
-0.25021 -0.395692 0 
-0.200211 -0.419975 0 
-0.150955 -0.389014 0 
-0.100617 -0.416095 0 
-0.0503197 -0.386922 0 
-4.02994e-05 -0.416525 0 
0.05006 -0.386948 0 
0.100784 -0.416323 0 
0.150432 -0.388572 0 
0.200855 -0.420694 0 
0.25086 -0.396905 0 
0.301746 -0.379789 0 
0.344135 -0.410678 0 
0.385823 -0.385823 0 
0.4368 -0.397506 0 
0.486608 -0.401881 0 
0.542384 -0.399615 0 
0.594743 -0.402948 0 
0.646641 -0.405575 0 
0.698945 -0.407371 0 
0.751626 -0.408863 0 
0.804654 -0.410181 0 
0.857929 -0.411236 0 
0.912429 -0.409236 0 
-0.934288 -0.356519 0 
-0.879963 -0.359855 0 
-0.827415 -0.358606 0 
-0.774971 -0.357337 0 
-0.722823 -0.355968 0 
-0.670703 -0.354417 0 
-0.618952 -0.352514 0 
-0.567003 -0.350494 0 
-0.513639 -0.351685 0 
-0.462546 -0.348492 0 
-0.411459 -0.344215 0 
-0.351697 -0.351697 0 
-0.29839 -0.336232 0 
-0.249846 -0.342529 0 
-0.200971 -0.367271 0 
-0.149995 -0.337521 0 
-0.100435 -0.3646 0 
-0.0498692 -0.335025 0 
-6.88684e-05 -0.365025 0 
0.0495433 -0.334795 0 
0.0996798 -0.364834 0 
0.148162 -0.337172 0 
0.199644 -0.368939 0 
0.24763 -0.345582 0 
0.295348 -0.332889 0 
0.34978 -0.34978 0 
0.410678 -0.344135 0 
0.462562 -0.348831 0 
0.513798 -0.351514 0 
0.567174 -0.350318 0 
0.619096 -0.352457 0 
0.670836 -0.354397 0 
0.722893 -0.355952 0 
0.775038 -0.357323 0 
0.827419 -0.358581 0 
0.879943 -0.359894 0 
0.93426 -0.356593 0 
-0.952721 -0.303845 0 
-0.898929 -0.308871 0 
-0.847481 -0.306888 0 
-0.795641 -0.305781 0 
-0.743684 -0.304815 0 
-0.691387 -0.303722 0 
-0.639219 -0.302427 0 
-0.586897 -0.300977 0 
-0.534146 -0.301574 0 
-0.48291 -0.299695 0 
-0.432968 -0.295416 0 
-0.381507 -0.30136 0 
-0.336232 -0.29839 0 
-0.288184 -0.288184 0 
-0.242975 -0.290577 0 
-0.198059 -0.315051 0 
-0.148383 -0.285894 0 
-0.0994753 -0.313232 0 
-0.0507184 -0.283118 0 
-0.000202902 -0.313447 0 
0.0500077 -0.282824 0 
0.0988289 -0.312817 0 
0.148102 -0.28482 0 
0.195742 -0.317413 0 
0.240766 -0.295824 0 
0.285014 -0.285014 0 
0.332889 -0.295348 0 
0.379789 -0.301746 0 
0.432268 -0.296569 0 
0.483005 -0.299839 0 
0.534348 -0.301273 0 
0.587085 -0.30086 0 
0.639359 -0.302407 0 
0.691518 -0.303753 0 
0.743741 -0.304862 0 
0.795701 -0.305831 0 
0.847482 -0.306946 0 
0.898924 -0.308979 0 
0.952687 -0.303953 0 
-0.96803 -0.250833 0 
-0.916037 -0.258282 0 
-0.866979 -0.254732 0 
-0.816639 -0.25358 0 
-0.765535 -0.252907 0 
-0.71362 -0.252254 0 
-0.661417 -0.251503 0 
-0.608767 -0.250543 0 
-0.555692 -0.250874 0 
-0.503 -0.250032 0 
-0.450633 -0.247004 0 
-0.395692 -0.25021 0 
-0.342529 -0.249846 0 
-0.290577 -0.242975 0 
-0.239946 -0.239946 0 
-0.194478 -0.26004 0 
-0.151293 -0.23238 0 
-0.101048 -0.260904 0 
-0.0503938 -0.232537 0 
-0.000203281 -0.262984 0 
0.050638 -0.232316 0 
0.100942 -0.260855 0 
0.152412 -0.232597 0 
0.195768 -0.261421 0 
0.241873 -0.241873 0 
0.295824 -0.240766 0 
0.345582 -0.24763 0 
0.396905 -0.25086 0 
0.450921 -0.247983 0 
[...]
POINT_DATA 1245 
VECTORS vectors float
0.592102 -0.212041 0.777467 
0.593318 -0.184262 0.783595 
0.591122 -0.149759 0.792557 
0.588631 -0.115217 0.800149 
0.58693 -0.0735911 0.806286 
0.587679 -0.0355464 0.808313 
0.590671 0.00217462 0.80691 
0.591196 0.0387669 0.805596 
0.593072 0.0739784 0.801744 
0.5964 0.110855 0.794996 
0.598533 0.140841 0.788621 
0.598479 0.171047 0.782666 
0.593882 0.196733 0.780128 
0.577163 -0.260653 0.773914 
0.586944 -0.236951 0.774178 
0.499988 -0.187329 0.845529 
0.504983 -0.16399 0.847408 
0.5152 -0.139483 0.845644 
0.488761 -0.102672 0.866355 
0.507227 -0.0724559 0.858761 
0.482473 -0.0344785 0.875232 
0.507555 0.000767553 0.861619 
0.48506 0.034612 0.873796 
0.512375 0.0705348 0.85586 
0.493442 0.0972058 0.86433 
0.520288 0.130639 0.843939 
0.507385 0.152765 0.84807 
0.499275 0.174925 0.848602 
0.584888 0.221502 0.780284 
0.571465 0.24671 0.782664 
0.542231 -0.309899 0.780991 
0.562268 -0.284565 0.776452 
0.484876 -0.231837 0.843296 
0.494233 -0.209851 0.843621 
0.418257 -0.162299 0.893711 
0.425354 -0.140916 0.893989 
0.438993 -0.118726 0.890612 
0.400877 -0.0838929 0.912282 
0.428131 -0.0607772 0.901671 
0.393085 -0.0283371 0.919065 
0.427122 -0.000147765 0.904194 
0.394588 0.0264732 0.918477 
0.431281 0.0580225 0.90035 
0.403752 0.0788101 0.911467 
0.441825 0.11099 0.890209 
0.4258 0.131517 0.895208 
0.416321 0.152307 0.89637 
0.490376 0.197459 0.848847 
0.478237 0.220815 0.850017 
0.553658 0.273171 0.786664 
0.531733 0.301333 0.791491 
0.517861 -0.337361 0.786135 
0.453415 -0.278228 0.846761 
0.471357 -0.254461 0.844436 
0.403471 -0.204383 0.891874 
0.411925 -0.183184 0.892615 
0.347163 -0.140793 0.927176 
0.354984 -0.121533 0.926939 
0.368524 -0.102013 0.924004 
0.328627 -0.0708306 0.9418 
0.353839 -0.0508624 0.933922 
0.318875 -0.0239761 0.947493 
0.350966 -0.000968129 0.936388 
0.319574 0.0213157 0.947322 
0.355456 0.0474746 0.933487 
0.329649 0.0658408 0.941805 
0.369803 0.0955191 0.924187 
0.354406 0.113765 0.928145 
0.344163 0.132688 0.929487 
0.407389 0.17339 0.896644 
0.396566 0.195492 0.89695 
0.462629 0.245248 0.851955 
0.443079 0.271109 0.854507 
0.506385 0.331175 0.796177 
0.462068 -0.397364 0.79284 
0.490536 -0.366915 0.79041 
0.431531 -0.302999 0.84969 
0.37467 -0.247558 0.893497 
0.391083 -0.225569 0.892285 
0.33308 -0.179649 0.925626 
0.34101 -0.160156 0.926317 
0.286075 -0.122277 0.950373 
0.294279 -0.105247 0.949907 
0.306224 -0.088056 0.947878 
0.268682 -0.0604398 0.961331 
0.289489 -0.0433912 0.956197 
0.258364 -0.0206609 0.965827 
0.285471 -0.00141619 0.958386 
0.258483 0.017433 0.965858 
0.290194 0.0396638 0.956145 
0.268623 0.0559886 0.961617 
0.306087 0.082088 0.948458 
0.29245 0.0988226 0.951161 
0.282989 0.115801 0.952107 
0.336066 0.152323 0.929439 
0.326742 0.17278 0.929186 
0.382422 0.218268 0.897838 
0.365098 0.241821 0.899014 
0.420227 0.297709 0.857192 
0.478411 0.362418 0.79986 
0.448995 0.394218 0.80187 
0.431794 -0.428941 0.79345 
0.389848 -0.359544 0.847789 
0.407328 -0.328304 0.852233 
0.354821 -0.269715 0.895185 
0.308173 -0.221002 0.925304 
0.322314 -0.199931 0.925279 
0.274317 -0.158676 0.948458 
0.28128 -0.140214 0.949327 
0.235265 -0.106799 0.966046 
0.24195 -0.0912427 0.965989 
0.252249 -0.0759232 0.964679 
0.218913 -0.0520969 0.974353 
0.235824 -0.0372148 0.971083 
0.20899 -0.0179691 0.977753 
0.231295 -0.00152106 0.972882 
0.208887 0.014514 0.977832 
0.23582 0.0335229 0.971218 
0.218255 0.0477768 0.974722 
0.251471 0.0708638 0.965267 
0.239788 0.0858472 0.967022 
0.231672 0.101579 0.967476 
0.276368 0.133973 0.951668 
0.267788 0.15332 0.951201 
0.314241 0.194126 0.929283 
0.29885 0.21678 0.929352 
0.34427 0.265517 0.900543 
0.395301 0.324653 0.859266 
0.376832 0.3572 0.854638 
0.417041 0.427582 0.802029 
0.401527 -0.45885 0.792611 
0.362846 -0.386597 0.847871 
0.326061 -0.323277 0.888356 
0.333562 -0.292432 0.896225 
0.290463 -0.24289 0.925546 
0.25411 -0.198351 0.946618 
0.264958 -0.177342 0.947812 
0.22521 -0.140438 0.964136 
0.23053 -0.122973 0.965264 
0.192212 -0.0934652 0.976893 
0.198122 -0.0793919 0.976957 
0.206875 -0.0659237 0.976144 
0.177844 -0.0449285 0.983033 
0.191556 -0.0321688 0.980954 
0.168907 -0.0155122 0.98551 
0.187176 -0.00162736 0.982325 
0.168631 0.0123759 0.985602 
0.191061 0.0286496 0.98116 
0.176868 0.0412488 0.98337 
0.205245 0.061593 0.976771 
0.195837 0.0749205 0.97777 
0.188839 0.0892344 0.977945 
0.22599 0.118179 0.966934 
0.219557 0.136185 0.966048 
0.257824 0.17302 0.950574 
0.245893 0.195174 0.949444 
0.280681 0.240356 0.929219 
0.322086 0.289765 0.901275 
0.313497 0.322812 0.893035 
0.348418 0.386688 0.85386 
0.384656 0.460344 0.800077 
0.372439 -0.485018 0.791232 
0.33185 -0.403019 0.852907 
0.294957 -0.330203 0.896642 
0.273405 -0.270794 0.922995 
0.242229 -0.221668 0.944557 
0.210478 -0.178631 0.96114 
0.217865 -0.158336 0.96305 
0.184319 -0.124417 0.97496 
0.189361 -0.108739 0.975868 
0.156847 -0.0823166 0.984186 
0.161595 -0.0695301 0.984405 
0.168537 -0.0573931 0.984023 
0.144225 -0.0393161 0.988764 
0.155118 -0.0280606 0.987497 
0.136327 -0.013708 0.990569 
0.151283 -0.00159589 0.988489 
0.135889 0.0105701 0.990668 
0.154548 0.0246204 0.987679 
0.142805 0.0360076 0.989096 
0.166923 0.0534827 0.984518 
0.158977 0.0659518 0.985077 
0.153735 0.0789339 0.984954 
0.184879 0.104932 0.977143 
0.17903 0.121433 0.976321 
0.210863 0.15533 0.965096 
0.203125 0.176777 0.963063 
0.233024 0.220344 0.947179 
0.262746 0.270117 0.926283 
0.282456 0.331091 0.900332 
0.316561 0.406434 0.857088 
0.353916 0.490639 0.796252 
0.342625 -0.508873 0.789719 
0.306323 -0.425022 0.851776 
0.27196 -0.350137 0.896349 
0.244673 -0.287084 0.926131 
0.223123 -0.24 0.944784 
0.197317 -0.195916 0.960564 
0.171755 -0.157926 0.972399 
0.178138 -0.140873 0.973869 
0.150344 -0.110845 0.9824 
0.154293 -0.096255 0.983325 
0.127603 -0.0736017 0.989091 
0.131147 -0.0616079 0.989447 
0.136933 -0.0504218 0.989296 
0.116344 -0.0346759 0.992603 
0.125525 -0.024478 0.991788 
0.109777 -0.0120526 0.993883 
0.122225 -0.00141249 0.992501 
0.109413 0.00919046 0.993954 
0.124801 0.0215743 0.991947 
0.115135 0.0315334 0.992849 
0.135199 0.0471961 0.989694 
0.128822 0.0583581 0.989949 
0.124458 0.0709282 0.989687 
0.150318 0.0932383 0.984231 
0.145524 0.108522 0.983385 
0.172403 0.138476 0.975244 
0.165249 0.157127 0.973655 
0.189635 0.195642 0.962166 
0.213944 0.240451 0.94679 
0.233809 0.289783 0.928094 
0.259228 0.354496 0.898406 
0.290938 0.43207 0.853622 
0.323885 0.519538 0.790682 
0.312166 -0.530048 0.788417 
0.279753 -0.444452 0.851 
0.248564 -0.368341 0.895846 
0.221645 -0.303666 0.926639 
0.198975 -0.251081 0.947295 
0.179275 -0.208428 0.961467 
0.158468 -0.170557 0.972522 
0.138638 -0.13868 0.980585 
0.143627 -0.124068 0.981824 
0.121278 -0.100498 0.987518 
0.125552 -0.0867362 0.988288 
0.103759 -0.0658336 0.992421 
0.106051 -0.0546818 0.992856 
0.111055 -0.0446734 0.99281 
0.0938949 -0.0304899 0.995115 
0.101364 -0.0216907 0.994613 
0.0882483 -0.0106528 0.996042 
0.0984704 -0.00137763 0.995139 
0.0877827 0.00808748 0.996107 
0.100477 0.0188717 0.99476 
0.0924866 0.0280017 0.99532 
0.109137 0.0418505 0.993145 
0.103993 0.052262 0.993204 
0.101076 0.0636138 0.992843 
0.122025 0.0845877 0.988916 
0.117131 0.0988968 0.98818 
0.13853 0.123087 0.982679 
0.13349 0.138079 0.981384 
0.152171 0.171118 0.973428 
0.171676 0.210159 0.962476 
0.190309 0.253936 0.948314 
0.211583 0.308648 0.927345 
0.236749 0.376322 0.89573 
0.265702 0.455815 0.849491 
0.295566 0.545589 0.784202 
0.281049 -0.548709 0.787356 
0.252208 -0.460912 0.850853 
0.224047 -0.383457 0.895971 
0.198889 -0.316803 0.927404 
0.176729 -0.261324 0.948934 
0.157889 -0.215268 0.963707 
0.140443 -0.176831 0.97417 
0.124068 -0.142821 0.981942 
0.113712 -0.11377 0.986978 
0.0991093 -0.0907088 0.990934 
0.101869 -0.0776827 0.99176 
0.0839356 -0.0587198 0.99474 
0.0854664 -0.048543 0.995158 
0.089349 -0.0396224 0.995212 
0.0751268 -0.027499 0.996795 
0.0813396 -0.0193371 0.996499 
0.0705548 -0.00964889 0.997461 
0.0791108 -0.00121805 0.996865 
0.0701309 0.00724335 0.997512 
0.0806889 0.0169582 0.996595 
0.0737591 0.0250996 0.99696 
0.0878974 0.0372233 0.995434 
0.0834875 0.0465852 0.995419 
0.0815043 0.0572879 0.995025 
0.0986961 0.0761852 0.992197 
0.0953169 0.0896006 0.991406 
0.109415 0.113474 0.987498 
0.119071 0.143795 0.982418 
0.134684 0.178633 0.974654 
0.151275 0.218664 0.964003 
0.169377 0.266737 0.948769 
0.190341 0.324764 0.926444 
0.21455 0.394417 0.893534 
0.241467 0.475974 0.845661 
0.269147 0.567966 0.777802 
0.249647 -0.565057 0.786376 
0.224486 -0.47488 0.850938 
0.199378 -0.395742 0.896458 
0.176178 -0.327529 0.92827 
0.156331 -0.2704 0.949971 
0.138673 -0.222501 0.96502 
0.123379 -0.182788 0.97538 
0.109783 -0.149488 0.98265 
0.0996179 -0.121348 0.987599 
0.0899324 -0.099519 0.990963 
0.0792814 -0.0801643 0.993624 
0.0821631 -0.0698454 0.994168 
0.0681658 -0.0552309 0.996144 
0.0678508 -0.0445548 0.9967 
0.0714744 -0.0358971 0.996796 
0.059766 -0.0249871 0.9979 
0.0652694 -0.017508 0.997714 
0.0560335 -0.008724 0.998391 
0.0634349 -0.00120639 0.997985 
0.0557066 0.00649766 0.998426 
0.0646186 0.0151797 0.997795 
0.0586902 0.0230098 0.998011 
0.0703228 0.0340717 0.996942 
0.0664889 0.0431168 0.996855 
0.0655503 0.0535653 0.996411 
0.079106 0.0684867 0.994511 
0.0759598 0.0788053 0.993992 
0.0862359 0.0990798 0.991336 
0.0958956 0.12178 0.987914 
0.105378 0.151265 0.98286 
0.118726 0.185898 0.97537 
0.133414 0.227626 0.964566 
0.150726 0.277453 0.948842 
0.170591 0.337698 0.925667 
0.193201 0.409174 0.891768 
0.218674 0.492002 0.842684 
0.244518 0.58597 0.772561 
0.218575 -0.579301 0.785261 
0.197295 -0.486973 0.850842 
0.17426 -0.405937 0.897134 
0.154146 -0.336602 0.928945 
0.135901 -0.277747 0.950993 
0.120084 -0.228527 0.966103 
0.106429 -0.187763 0.976431 
0.0946393 -0.153729 0.98357 
0.0854418 -0.125322 0.98843 
0.0765367 -0.102312 0.991804 
0.068605 -0.0829617 0.994188 
0.0643196 -0.065547 0.995774 
0.0555467 -0.050738 0.997166 
0.0535584 -0.0407854 0.997731 
0.0568564 -0.0328477 0.997842 
0.0474013 -0.0228108 0.998615 
0.0518475 -0.0159331 0.998528 
0.0442983 -0.00798223 0.998986 
0.0503573 -0.0011216 0.998731 
0.0440295 0.00571011 0.999014 
0.0512179 0.0136631 0.998594 
0.0463986 0.0203068 0.998717 
0.0557907 0.0305848 0.997974 
0.0527161 0.0389395 0.99785 
0.0526759 0.0486284 0.997427 
0.0612275 0.0639335 0.996074 
0.0658356 0.0825191 0.994413 
0.0738539 0.102874 0.991949 
0.0821813 0.126906 0.988505 
0.0913556 0.156371 0.983464 
0.102813 0.192087 0.975978 
0.11701 0.234444 0.965062 
0.1326 0.286305 0.948919 
0.151413 0.347501 0.925374 
0.172887 0.420225 0.890798 
0.196903 0.504423 0.840706 
0.221095 0.599451 0.76927 
0.188284 -0.59139 0.784096 
0.170484 -0.497532 0.850527 
0.150577 -0.415873 0.89687 
0.132411 -0.344793 0.929293 
0.116436 -0.284546 0.951565 
0.102635 -0.233809 0.96685 
0.0905192 -0.191581 0.977294 
0.079984 -0.156438 0.984444 
0.0718101 -0.127833 0.989193 
0.0641412 -0.10417 0.992489 
0.0572733 -0.0848708 0.994745 
0.0537271 -0.0693017 0.996148 
0.0492226 -0.0569908 0.997161 
0.0436534 -0.0453116 0.998019 
0.0415997 -0.0365147 0.998467 
0.0443808 -0.0296652 0.998574 
0.0367679 -0.0208191 0.999107 
0.0406494 -0.0144686 0.999069 
0.0341568 -0.00752451 0.999388 
0.0392849 -0.00103794 0.999228 
0.033703 0.00537355 0.999417 
0.0399571 0.0125135 0.999123 
0.0357119 0.0189499 0.999182 
0.0437302 0.0279287 0.998653 
0.0412452 0.0347741 0.998544 
0.0413126 0.0433317 0.998206 
0.0464427 0.0549551 0.997408 
0.0518068 0.0684662 0.996307 
0.0553066 0.0849391 0.99485 
0.0619594 0.105291 0.992509 
0.0693487 0.129694 0.989126 
0.077873 0.159757 0.98408 
0.0885847 0.196154 0.976564 
0.100969 0.240379 0.965414 
0.116206 0.29295 0.94904 
0.133204 0.355855 0.924999 
0.15319 0.429268 0.890091 
0.176243 0.513453 0.839824 
0.19813 0.608501 0.768421 
0.158724 -0.600936 0.783379 
0.145473 -0.508754 0.848532 
0.1274 -0.427758 0.89487 
0.11184 -0.356309 0.927651 
0.098501 -0.29478 0.950475 
0.0862868 -0.242317 0.966352 
0.0757479 -0.198305 0.977209 
0.0668375 -0.162012 0.984523 
0.0593355 -0.131577 0.989529 
0.0528464 -0.106843 0.99287 
0.0467365 -0.0864708 0.995158 
0.0428607 -0.0691185 0.996687 
0.0390571 -0.0550838 0.997718 
0.0346352 -0.0433494 0.998459 
0.0317226 -0.0337043 0.998928 
0.0336312 -0.0270769 0.999067 
0.0276049 -0.0197919 0.999423 
0.0311367 -0.0137696 0.99942 
0.0258697 -0.00686452 0.999642 
0.0305535 -0.00107304 0.999533 
0.0257255 0.00513874 0.999656 
0.0308474 0.0116374 0.999456 
0.0269212 0.0183502 0.999469 
0.0330456 0.0255395 0.999127 
0.0310854 0.0327568 0.99898 
0.0333453 0.04332 0.998505 
0.0373199 0.0550777 0.997784 
0.0414225 0.0693906 0.996729 
0.0454469 0.0871527 0.995158 
0.0511912 0.10819 0.992811 
0.0578324 0.13391 0.989305 
0.0655121 0.165238 0.984076 
0.0754998 0.203083 0.976246 
0.0867143 0.248419 0.964764 
0.100299 0.302682 0.947799 
0.115989 0.365911 0.923393 
0.134348 0.438929 0.888421 
0.155608 0.52154 0.838917 
0.174447 0.61322 0.770409 
0.127685 -0.607354 0.784103 
0.121629 -0.526176 0.841632 
0.105554 -0.447002 0.888283 
0.0926736 -0.374021 0.922778 
0.0810307 -0.309875 0.947318 
0.0708816 -0.254529 0.964464 
0.0622 -0.208454 0.976052 
0.0543888 -0.169674 0.983998 
0.0480337 -0.137949 0.989274 
0.0425845 -0.112181 0.992775 
0.0376551 -0.0905063 0.995184 
0.0340769 -0.0728737 0.996759 
0.0309162 -0.0583977 0.997815 
0.0277424 -0.0462111 0.998546 
0.0250563 -0.0355833 0.999053 
0.0241344 -0.0262702 0.999364 
0.0203214 -0.0184615 0.999623 
0.0233557 -0.0126255 0.999647 
0.0187024 -0.00644521 0.999804 
0.0226521 -0.00101378 0.999743 
0.0185431 0.00419452 0.999819 
0.0227075 0.0109591 0.999682 
0.0200777 0.0167074 0.999659 
0.0236827 0.0250935 0.999405 
0.0242365 0.034762 0.999102 
0.0263321 0.0455371 0.998616 
0.029634 0.0585137 0.997847 
0.0330403 0.0730756 0.996779 
0.0365221 0.0913924 0.995145 
0.0414748 0.113444 0.992678 
0.0475088 0.140207 0.988982 
0.054322 0.172905 0.983439 
0.0628752 0.212582 0.975118 
0.0733681 0.259941 0.962833 
0.0851098 0.316108 0.944898 
0.0995583 0.381378 0.919042 
0.115588 0.454917 0.883 
0.135887 0.534357 0.834265 
0.146787 0.613328 0.776069 
0.10033 -0.610633 0.785533 
0.0910287 -0.503761 0.859033 
0.0759975 -0.411525 0.908224 
0.0650594 -0.335592 0.939758 
0.056208 -0.273205 0.960312 
0.0486489 -0.22194 0.973846 
0.0422351 -0.179907 0.982776 
0.0369857 -0.145941 0.988602 
0.0325165 -0.11771 0.992516 
0.0285354 -0.0953419 0.995036 
0.0254989 -0.0766513 0.996732 
0.0230057 -0.0614548 0.997845 
0.0208101 -0.0492164 0.998571 
0.0186223 -0.038745 0.999076 
0.0175667 -0.0298251 0.999401 
0.0160947 -0.0226716 0.999613 
0.0137645 -0.0160456 0.999777 
0.0161481 -0.0114511 0.999804 
0.0125047 -0.00639411 0.999901 
0.0158152 -0.000669995 0.999875 
0.0122161 0.0047035 0.999914 
0.0161147 0.00975996 0.999823 
0.0132826 0.014473 0.999807 
0.0155517 0.0213694 0.999651 
0.0171012 0.028315 0.999453 
0.0178355 0.0374766 0.999138 
0.0195381 0.0484991 0.998632 
0.0219819 0.0608138 0.997907 
0.0246661 0.0767746 0.996743 
0.0279719 0.0957472 0.995013 
0.0319531 0.119091 0.992369 
0.0368911 0.147696 0.988344 
0.0432598 0.182602 0.982235 
0.0504675 0.225131 0.973021 
0.0597784 0.277008 0.959006 
0.0709233 0.339505 0.937927 
0.0850905 0.415252 0.905718 
0.104499 0.506921 0.855635 
0.119673 0.610903 0.782609 
0.0698802 -0.612042 0.787732 
0.0674838 -0.526877 0.847258 
0.057218 -0.442543 0.89492 
0.0480185 -0.363752 0.930257 
0.0409445 -0.296131 0.954269 
0.0350326 -0.240192 0.970093 
0.0301292 -0.194588 0.980422 
0.0260195 -0.15725 0.987216 
0.0225826 -0.127295 0.991608 
0.0197317 -0.10308 0.994477 
0.0173433 -0.082951 0.996403 
0.0155365 -0.0670184 0.997631 
0.0137776 -0.0537013 0.998462 
0.0122864 -0.0427317 0.999011 
0.0115517 -0.0333587 0.999377 
0.0101951 -0.0255751 0.999621 
0.00893246 -0.0187961 0.999783 
0.00907544 -0.0118548 0.999889 
0.00692046 -0.00602813 0.999958 
0.0099865 -0.00128274 0.999949 
0.00696636 0.00437885 0.999966 
0.0089073 0.00991138 0.999911 
0.00861074 0.0171177 0.999816 
0.00993731 0.024128 0.999659 
0.0106922 0.0321701 0.999425 
0.0115633 0.0415758 0.999068 
0.0129794 0.0531235 0.998504 
0.0149733 0.0669009 0.997647 
0.0168395 0.0831859 0.996392 
0.0193572 0.103664 0.994424 
0.0228659 0.128464 0.991451 
0.0265487 0.158906 0.986937 
0.0315532 0.196472 0.980002 
0.0377838 0.242224 0.969484 
0.0451947 0.297916 0.953522 
0.0546655 0.364898 0.929441 
0.0668903 0.442411 0.894314 
0.0807545 0.525076 0.847216 
0.0864528 0.606758 0.790171 
0.0426769 -0.612211 0.789542 
0.0379702 -0.500449 0.864933 
0.0303848 -0.405338 0.913662 
0.0247573 -0.326953 0.944716 
0.0204149 -0.263661 0.964399 
0.0170809 -0.21248 0.977016 
0.014292 -0.17143 0.985093 
0.0121482 -0.13843 0.990298 
0.0102669 -0.11144 0.993718 
0.00879747 -0.0900456 0.995899 
0.00759939 -0.0723133 0.997353 
0.00655275 -0.0580681 0.998291 
0.00591228 -0.0462396 0.998913 
0.00495388 -0.0365087 0.999321 
0.00469654 -0.0280776 0.999595 
0.00358973 -0.0215533 0.999761 
0.00397597 -0.0147067 0.999884 
0.0033895 -0.00979154 0.999946 
0.00128264 -0.00459225 0.999989 
0.00506736 -0.000676397 0.999987 
0.00108793 0.0020887 0.999997 
0.00318035 0.00770711 0.999965 
0.00375655 0.0135432 0.999901 
0.00329681 0.019431 0.999806 
0.00411954 0.0269229 0.999629 
0.00455525 0.0350937 0.999374 
0.00519935 0.0454028 0.998955 
0.00606077 0.0574673 0.998329 
0.00717695 0.0719733 0.997381 
0.008746 0.0901372 0.995891 
0.0101893 0.111972 0.993659 
0.012483 0.139098 0.9902 
0.0153777 0.172416 0.984904 
0.0186746 0.213422 0.976782 
0.023225 0.264205 0.964187 
0.0290071 0.326471 0.944762 
0.0364155 0.403174 0.914398 
0.0471881 0.495598 0.867269 
0.0545942 0.603283 0.795656 
0.0153106 -0.611405 0.79117 
0.0120138 -0.523745 0.85179 
0.00857742 -0.439033 0.89843 
0.0059468 -0.358962 0.933333 
0.00389581 -0.290624 0.956829 
0.00248121 -0.234821 0.972035 
0.00134792 -0.189702 0.981841 
0.000600598 -0.153143 0.988204 
9.70926e-06 -0.123968 0.992286 
-0.000380612 -0.100274 0.99496 
-0.000772378 -0.0808177 0.996729 
-0.000844201 -0.0654175 0.997858 
-0.00116365 -0.0523545 0.998628 
-0.00136357 -0.041665 0.999131 
-0.00120117 -0.0327525 0.999463 
-0.00177994 -0.0253781 0.999676 
-0.00145122 -0.0179215 0.999838 
-0.00202321 -0.0134172 0.999908 
-0.00172661 -0.00721886 0.999972 
-0.00162246 -0.000734709 0.999998 
-0.00160577 0.00620178 0.999979 
-0.0021906 0.0106632 0.999941 
-0.00181056 0.0168951 0.999856 
-0.00194213 0.0237055 0.999717 
-0.00176432 0.0314299 0.999504 
-0.00180391 0.0405622 0.999175 
-0.00151823 0.0514833 0.998673 
-0.00111507 0.0648736 0.997893 
-0.000986475 0.080662 0.996741 
-0.000338172 0.100201 0.994967 
0.000380989 0.124313 0.992243 
0.00107143 0.153651 0.988125 
0.0023881 0.190081 0.981766 
0.00401232 0.234827 0.972029 
0.00610324 0.289818 0.957062 
0.00903029 0.356514 0.934246 
0.0126755 0.433997 0.900825 
0.0167026 0.515911 0.856479 
0.021316 0.600249 0.799529 
-0.0134331 -0.605123 0.796019 
-0.0177431 -0.494275 0.869124 
-0.0163045 -0.400339 0.916222 
-0.0153805 -0.323466 0.946115 
-0.0145854 -0.260906 0.965254 
-0.0136166 -0.210547 0.977489 
-0.0125981 -0.170117 0.985343 
-0.0117095 -0.137386 0.990448 
-0.0108041 -0.110824 0.993781 
-0.00997425 -0.089545 0.995933 
-0.00941261 -0.0719947 0.997361 
-0.00876233 -0.057838 0.998288 
-0.00799868 -0.0461468 0.998903 
-0.00800477 -0.0362925 0.999309 
-0.00749821 -0.0280136 0.999579 
-0.00711569 -0.021532 0.999743 
-0.00732937 -0.0146719 0.999865 
-0.00703571 -0.00985526 0.999927 
-0.00544993 -0.00454604 0.999975 
-0.0085271 -0.000827984 0.999963 
-0.00561498 0.00215283 0.999982 
-0.00713843 0.00761014 0.999946 
-0.0074859 0.0134644 0.999881 
-0.00728579 0.019302 0.999787 
-0.00781161 0.026799 0.99961 
-0.00833845 0.0349423 0.999355 
-0.00833957 0.0451164 0.998947 
-0.00910795 0.0569975 0.998333 
-0.00945668 0.0714387 0.9974 
-0.00988036 0.08926 0.995959 
-0.0107729 0.110896 0.993774 
-0.0113223 0.137481 0.99044 
-0.0120714 0.170265 0.985324 
-0.0129742 0.210614 0.977483 
-0.0136706 0.260303 0.96543 