# vtk DataFile Version 3.0 
Exported using Morpho https://github.com/Morpho-lang/morpho 
ASCII 
DATASET UNSTRUCTURED_GRID 

POINTS 1978 float 
-8.49283 -2.836 4.90861e-06 
-8.25333 -2.83429 2.183e-06 
-8.07485 -2.83319 2.54431e-06 
-7.81437 -2.84294 1.04148e-06 
-7.47138 -2.83729 -1.1514e-05 
-7.21089 -2.83946 -2.48373e-06 
-6.99819 -2.84201 -3.39674e-06 
-6.76299 -2.83549 -5.41339e-06 
-6.50839 -2.83765 -3.48303e-06 
-6.33685 -2.83746 -2.22356e-06 
-6.16692 -2.83559 -6.74534e-06 
-5.93831 -2.83772 -2.2325e-06 
-5.71609 -2.83442 -4.08441e-06 
-5.51335 -2.83739 -2.25359e-06 
-5.29328 -2.83623 -3.13344e-06 
-5.08256 -2.83845 -5.29146e-06 
-4.86121 -2.83639 -4.43583e-06 
-4.66112 -2.83793 -4.4159e-06 
-4.43317 -2.8349 -5.74205e-06 
-4.2189 -2.83592 -8.29097e-06 
-3.99488 -2.8318 -1.11309e-05 
-3.7886 -2.83561 -1.90231e-05 
-3.58289 -2.83335 -2.87454e-05 
-3.37732 -2.83642 -3.01202e-05 
-3.1743 -2.83578 -2.92607e-05 
-2.96981 -2.83502 -2.68626e-05 
-2.76132 -2.83051 -2.91233e-05 
-2.544 -2.82635 -4.54258e-05 
-2.32477 -2.82615 -0.000121316 
-2.08949 -2.82681 -5.71824e-05 
-1.86223 -2.82985 0.000328366 
-1.64239 -2.82442 0.00169472 
-1.41388 -2.81865 0.00315529 
-1.17282 -2.79836 0.00386029 
-1.00441 -2.79969 0.00694385 
-0.857279 -2.80292 0.00838883 
-0.762454 -2.81054 0.010841 
-0.634007 -2.84329 0.0418364 
-0.269662 -2.84949 0.0383229 
0.0914379 -2.88526 0.0257845 
0.287683 -2.84556 -0.0659311 
0.585497 -2.81918 -0.0440914 
0.731536 -2.79598 -0.0160521 
0.90911 -2.82711 -0.00946618 
1.07722 -2.80687 -0.00528483 
1.22244 -2.80654 -0.00326402 
1.38991 -2.82081 -0.00253543 
1.59243 -2.82722 -0.00238953 
1.81076 -2.8309 -0.00117129 
2.07346 -2.83249 0.00013894 
2.31415 -2.83164 0.000153332 
2.54291 -2.8328 6.03749e-05 
2.76873 -2.83113 3.7543e-05 
2.98705 -2.83647 2.67688e-05 
3.20258 -2.83472 2.07123e-05 
3.40223 -2.83461 3.24595e-05 
3.61377 -2.83534 2.41031e-05 
3.80344 -2.83072 1.99986e-05 
4.01964 -2.8342 1.22648e-05 
4.24499 -2.83287 9.26006e-06 
4.44587 -2.83353 5.06399e-06 
4.65863 -2.83493 4.12063e-06 
4.867 -2.83674 5.69796e-06 
5.06844 -2.83561 2.00799e-06 
5.28622 -2.83672 2.16519e-06 
5.4978 -2.83492 3.4262e-06 
5.69936 -2.83823 1.8855e-06 
5.91987 -2.83733 2.53839e-06 
6.13909 -2.83618 3.79078e-06 
6.33715 -2.84072 4.48299e-06 
6.58455 -2.83838 2.12296e-06 
6.79225 -2.83848 5.80799e-06 
6.99535 -2.83787 6.11577e-06 
7.26067 -2.83732 4.48878e-07 
7.49556 -2.83984 6.17991e-06 
7.75664 -2.83712 -4.98226e-07 
8.01671 -2.83457 -1.49754e-06 
8.19936 -2.83658 -2.13777e-06 
8.48816 -2.83356 -5.79637e-06 
-8.49093 -2.58419 3.92923e-07 
-8.28172 -2.6122 9.08997e-06 
-8.04332 -2.52396 -3.26881e-07 
-7.86979 -2.62897 -6.42412e-06 
-7.59066 -2.67771 8.18831e-06 
-7.26922 -2.62352 1.14473e-05 
-7.01783 -2.58105 9.53566e-07 
-6.80471 -2.60455 1.10328e-06 
-6.56091 -2.62589 6.32631e-06 
-6.33369 -2.52984 5.93556e-06 
-6.11798 -2.60851 3.17146e-06 
-5.89414 -2.60174 3.84263e-06 
-5.68336 -2.5745 3.5905e-06 
-5.46679 -2.59745 1.27823e-06 
-5.2497 -2.58791 4.74438e-06 
-5.02856 -2.60384 4.50421e-06 
-4.82191 -2.57649 6.15376e-06 
-4.60028 -2.6089 5.55951e-06 
-4.38122 -2.59215 7.52824e-06 
-4.16074 -2.60255 4.28561e-06 
-3.94776 -2.58043 1.08197e-05 
-3.74083 -2.58635 2.24187e-05 
-3.52576 -2.59077 3.72604e-05 
-3.31489 -2.59385 4.58799e-05 
-3.09801 -2.59234 3.85157e-05 
-2.87585 -2.58462 3.38316e-05 
-2.64198 -2.57982 6.05251e-06 
-2.40126 -2.57221 -3.22908e-05 
-2.15957 -2.57943 -0.000143908 
-1.91367 -2.57689 -0.000300973 
-1.68164 -2.57904 -0.000530753 
-1.46732 -2.60558 0.000521886 
-1.25723 -2.6318 0.00190925 
-1.05346 -2.60515 0.00347798 
-0.903102 -2.62768 0.00201035 
-0.783034 -2.60292 0.00392255 
-0.684671 -2.72262 -0.000742127 
-0.544739 -2.81767 0.00670849 
-0.251551 -2.82766 0.0124065 
0.0511832 -2.86858 -0.0132749 
0.280738 -2.80623 -0.0321872 
0.491851 -2.78052 -0.00815777 
0.640634 -2.69246 -0.00465199 
0.829581 -2.68707 -0.00445554 
0.973787 -2.65401 -0.00154391 
1.12058 -2.5679 -0.00203438 
1.30777 -2.59182 -0.00051161 
1.52494 -2.5962 1.20245e-05 
1.79139 -2.61922 0.000582254 
2.03793 -2.59215 0.000356566 
2.2879 -2.58236 5.71969e-05 
2.5339 -2.58795 -1.28413e-05 
2.7773 -2.58842 -2.56522e-05 
3.01273 -2.60216 -2.65834e-05 
3.22789 -2.58707 -4.09306e-05 
3.44674 -2.60192 -3.64872e-05 
3.64603 -2.5723 -3.05308e-05 
3.86458 -2.5981 -1.47328e-05 
4.09015 -2.60434 -8.93245e-06 
4.29977 -2.57341 -8.43734e-06 
4.51478 -2.59248 -5.66677e-06 
4.72992 -2.59079 -4.44026e-06 
4.94027 -2.58552 -5.86057e-06 
5.15533 -2.60531 -3.39298e-06 
5.37445 -2.59619 -2.78861e-06 
5.58519 -2.58091 -2.75048e-06 
5.80028 -2.60365 -1.74284e-06 
6.02638 -2.59992 -2.61854e-06 
6.23999 -2.57234 -5.72386e-06 
6.45854 -2.62433 -2.89346e-06 
6.68575 -2.57682 -1.60495e-06 
6.89306 -2.56762 -4.09656e-06 
7.12311 -2.62968 -1.38946e-06 
7.37479 -2.60291 -2.96287e-06 
7.62137 -2.62884 -6.57386e-06 
7.88401 -2.62623 5.43382e-06 
8.08991 -2.53671 -5.02295e-07 
8.30777 -2.64471 -6.68468e-06 
8.495 -2.54352 1.3824e-06 
-8.49002 -2.39662 -3.40628e-06 
-8.19501 -2.35684 3.66944e-06 
-7.92477 -2.27732 2.70833e-06 
-7.7351 -2.45085 -2.71035e-06 
-7.58857 -2.29004 -1.17774e-06 
-7.44504 -2.47638 -8.62419e-07 
-7.17418 -2.38498 6.64422e-07 
-6.93967 -2.3304 -2.85761e-06 
-6.70685 -2.39712 -3.97609e-07 
-6.49343 -2.36523 -1.51388e-06 
-6.2107 -2.33443 1.90503e-06 
-6.00836 -2.37419 5.33026e-07 
-5.79466 -2.34683 -1.0065e-07 
-5.56584 -2.34513 -3.05346e-07 
-5.35817 -2.35651 -5.49821e-07 
-5.13171 -2.36438 -1.48237e-07 
-4.9278 -2.34423 -8.48331e-07 
-4.69578 -2.36732 -8.5839e-07 
-4.48267 -2.36797 -1.75255e-06 
-4.2568 -2.36767 -2.41248e-06 
-4.04897 -2.35381 -2.63866e-06 
-3.83386 -2.3388 -4.39573e-06 
-3.62407 -2.35942 -6.65766e-06 
-3.40776 -2.35686 -1.30183e-05 
-3.1946 -2.36284 -1.76857e-05 
-2.97311 -2.35286 -2.53077e-05 
-2.74148 -2.35132 -3.78984e-05 
-2.49962 -2.34497 -5.85308e-05 
-2.2498 -2.3438 -0.000107627 
-2.00302 -2.34711 -0.000217897 
-1.75218 -2.33974 -0.00068189 
-1.51814 -2.36086 -0.000942917 
-1.31022 -2.40809 -9.00605e-05 
-1.12313 -2.44236 -0.000734847 
-0.933653 -2.44096 0.00139412 
-0.74507 -2.50194 -0.000112044 
-0.605261 -2.65843 0.00594303 
-0.475787 -2.76801 0.0223102 
-0.267221 -2.79333 -0.0185048 
0.00531353 -2.85203 0.0279505 
0.242102 -2.76796 0.00510515 
0.452892 -2.72904 0.0223882 
0.615535 -2.59458 0.000813301 
0.774628 -2.56437 -0.000513699 
0.928781 -2.47866 -0.00348027 
1.0977 -2.37848 -0.00196915 
1.28517 -2.37229 1.16376e-05 
1.48991 -2.37297 0.00115631 
1.72021 -2.4045 0.000996096 
1.96221 -2.36647 0.000394479 
2.21027 -2.35205 0.00012428 
2.4618 -2.35036 6.27665e-05 
2.70022 -2.36206 4.79242e-05 
2.94606 -2.36894 2.88775e-05 
3.16369 -2.35273 2.13721e-05 
3.38383 -2.37016 1.11824e-05 
3.58644 -2.3303 1.05069e-05 
3.7969 -2.36057 5.42849e-06 
4.01085 -2.37529 3.15378e-06 
4.21615 -2.34147 4.34911e-06 
4.43806 -2.3513 1.93488e-06 
4.64805 -2.35622 1.50768e-06 
4.86105 -2.34864 6.38475e-07 
5.07978 -2.36176 8.19545e-07 
5.28906 -2.37137 5.67668e-07 
5.50608 -2.34404 8.47112e-07 
5.72604 -2.35628 1.88313e-07 
5.93916 -2.37421 5.61824e-08 
6.15659 -2.34015 -4.66093e-07 
6.39329 -2.36683 -4.34533e-07 
6.59841 -2.36121 -5.14016e-07 
6.82821 -2.31008 1.84985e-07 
7.05758 -2.3741 2.79302e-07 
7.28089 -2.39397 -4.1004e-06 
7.54811 -2.39708 3.63884e-06 
7.79357 -2.41891 -5.42071e-07 
8.0091 -2.30643 -1.09997e-06 
8.26988 -2.37122 -5.27745e-06 
8.49259 -2.29829 4.0223e-06 
-8.49173 -2.14087 -3.38011e-06 
-8.27089 -2.17499 -3.21872e-07 
-8.08122 -2.06837 -2.96712e-06 
-7.77973 -2.11693 3.75814e-06 
-7.52196 -2.06279 1.59593e-06 
-7.3321 -2.23545 1.2424e-06 
-7.08245 -2.13155 6.56726e-07 
-6.80197 -2.14575 2.15676e-06 
-6.59873 -2.13958 1.60906e-07 
-6.35958 -2.16835 3.15658e-07 
-6.11413 -2.10394 7.22758e-08 
-5.91718 -2.12826 -3.077e-08 
-5.68699 -2.13097 -4.35384e-07 
-5.46174 -2.11054 -4.4668e-07 
-5.24908 -2.14314 3.33951e-07 
-5.04397 -2.11118 -3.54149e-07 
-4.81936 -2.14132 1.99103e-07 
-4.60556 -2.1377 -5.22751e-07 
-4.38729 -2.15063 -9.38327e-07 
-4.1814 -2.12638 -1.53936e-06 
-3.9755 -2.12217 -8.56119e-07 
-3.76255 -2.11348 -2.87127e-06 
-3.55403 -2.1364 -3.71889e-06 
-3.3386 -2.13048 -8.06067e-06 
-3.12485 -2.1349 -8.60666e-06 
-2.8977 -2.12628 -1.12708e-05 
-2.66521 -2.12704 -8.63955e-06 
-2.4255 -2.12488 1.79557e-06 
-2.18561 -2.12253 2.5761e-05 
-1.94705 -2.12389 -1.48103e-05 
-1.70096 -2.12249 -0.000313232 
-1.48617 -2.13313 -0.000435649 
-1.28778 -2.19166 -0.000162373 
-1.12287 -2.21261 -0.000114296 
-0.976778 -2.28999 -0.00165863 
-0.843418 -2.30813 -0.00279525 
-0.633832 -2.50155 -7.90131e-05 
-0.44481 -2.7247 4.26204e-05 
-0.173307 -2.76852 0.0183889 
0.0582919 -2.81867 -0.0122532 
0.323051 -2.70218 0.0440858 
0.519554 -2.62932 -0.0297427 
0.647176 -2.46958 0.0149976 
0.786525 -2.39675 0.000667072 
0.942433 -2.29346 -0.00184609 
1.12612 -2.18469 0.00102234 
1.33135 -2.16414 0.000846261 
1.55934 -2.17151 0.00076298 
1.77988 -2.17392 0.000282444 
2.02193 -2.13861 3.09172e-05 
2.27203 -2.13231 -1.4269e-05 
2.50726 -2.12052 5.67119e-06 
2.75022 -2.14904 2.02969e-06 
2.96923 -2.12876 1.59863e-05 
3.19841 -2.13132 6.86272e-06 
3.40313 -2.12919 3.65517e-06 
3.62265 -2.10668 4.03576e-06 
3.83568 -2.13918 5.12255e-07 
4.0364 -2.13507 1.64411e-06 
4.26731 -2.12749 1.66108e-07 
4.47671 -2.11978 9.53257e-07 
4.68789 -2.12612 5.41693e-07 
4.91071 -2.12835 1.8984e-07 
5.12406 -2.12758 3.80057e-07 
5.3352 -2.14007 -1.69051e-07 
5.56428 -2.12129 -7.45077e-08 
5.77976 -2.12565 2.25998e-07 
5.98839 -2.13664 -2.03165e-07 
6.2388 -2.13557 -8.4442e-07 
6.44838 -2.11333 -5.4006e-07 
6.66168 -2.11906 -7.53119e-07 
6.9258 -2.10528 1.13864e-06 
7.1463 -2.14094 1.80963e-06 
7.38819 -2.18887 -9.90345e-07 
7.57703 -2.08848 -7.88853e-07 
7.74577 -2.19012 9.7446e-08 
7.94932 -2.07206 -6.57648e-07 
8.20232 -2.14259 1.04238e-06 
8.48857 -2.10532 1.05532e-06 
-8.48869 -1.79548 9.40667e-07 
-8.32903 -1.91331 -2.2084e-06 
-7.91549 -1.90628 -1.30107e-08 
-7.67554 -1.88592 -8.58782e-07 
-7.43764 -1.81106 1.06688e-06 
[...]
POINT_DATA 1978 
VECTORS vectors float
0.00155766 0.00610774 1.00221 
0.00206111 0.00487568 1.00364 
0.00223666 0.00382208 1.00397 
0.00231556 0.00205414 1.0044 
0.00175595 -7.93838e-05 1.00428 
0.00128847 -0.00158158 1.00407 
0.000793876 -0.00277186 1.00401 
0.000200925 -0.0040186 1.00396 
-0.000549967 -0.00510209 1.00371 
-0.000991012 -0.00586447 1.00293 
-0.00145012 -0.00654835 1.00363 
-0.00204237 -0.00741293 1.0037 
-0.00266926 -0.00830372 1.00379 
-0.00318723 -0.00910008 1.00377 
-0.00388672 -0.00980387 1.00377 
-0.00460438 -0.0105297 1.00372 
-0.00560867 -0.0111101 1.00368 
-0.00657343 -0.0115527 1.00367 
-0.00783363 -0.0119691 1.00369 
-0.00943636 -0.0122486 1.00363 
-0.0119789 -0.0119909 1.00361 
-0.0154788 -0.011323 1.00352 
-0.0202932 -0.0102616 1.0034 
-0.0263488 -0.00907733 1.00322 
-0.0327184 -0.00787596 1.00303 
-0.0401776 -0.00560481 1.00288 
-0.0489238 -0.000988153 1.00269 
-0.0608891 0.00613991 1.00213 
-0.0779977 0.019214 1.00085 
-0.098192 0.0461743 0.998289 
-0.113298 0.0854181 0.994021 
-0.122495 0.144896 0.985609 
-0.128144 0.222604 0.969817 
-0.128036 0.32137 0.941039 
-0.122383 0.424015 0.899877 
-0.0984692 0.516508 0.852338 
-0.0847761 0.579643 0.812484 
-0.0983407 0.665087 0.750592 
-0.0403795 0.911841 0.403648 
-0.0485174 0.999821 -0.080859 
0.0702126 0.918077 -0.404033 
0.0937712 0.684721 -0.73121 
0.0805079 0.58068 -0.811668 
0.118781 0.481704 -0.870738 
0.115116 0.389287 -0.915889 
0.121476 0.310559 -0.944689 
0.127129 0.237797 -0.966299 
0.127109 0.164413 -0.982003 
0.118814 0.102686 -0.991728 
0.103946 0.0451876 -0.997882 
0.0800327 0.0160674 -1.00082 
0.0603562 0.00453396 -1.00222 
0.0474463 -0.00136284 -1.0029 
0.0381858 -0.00479077 -1.00301 
0.0314314 -0.00724799 -1.00311 
0.0258376 -0.00920462 -1.00323 
0.0198802 -0.0108795 -1.00332 
0.0154329 -0.01174 -1.00344 
0.0115877 -0.0122276 -1.00355 
0.00911277 -0.0122089 -1.00364 
0.00757406 -0.012094 -1.00363 
0.0063589 -0.0116583 -1.0036 
0.00524779 -0.0110306 -1.0036 
0.00447138 -0.0103188 -1.00356 
0.00383757 -0.00953485 -1.00359 
0.00329254 -0.008869 -1.00363 
0.00280254 -0.00817608 -1.00368 
0.00229598 -0.00734976 -1.00374 
0.00171258 -0.0065461 -1.00378 
0.00118431 -0.00578197 -1.00384 
0.000555385 -0.00484116 -1.00388 
-7.80969e-05 -0.00405845 -1.00391 
-0.000832422 -0.00294863 -1.00399 
-0.00151691 -0.00131257 -1.004 
-0.00189208 6.83981e-05 -1.00402 
-0.00228763 0.00179402 -1.00411 
-0.00227075 0.00344213 -1.00396 
-0.00212145 0.00460236 -1.00369 
-0.00158876 0.00611928 -1.00242 
0.000635949 0.00548671 1.00363 
0.0010458 0.00465671 1.00516 
0.00101767 0.00342216 1.00657 
0.00137593 0.00251269 1.00662 
0.00128889 0.000745724 1.00744 
0.000575979 -0.000917207 1.00667 
-5.60667e-05 -0.00209056 1.00662 
-0.000484768 -0.00315745 1.00646 
-0.00106595 -0.00427161 1.00628 
-0.00180737 -0.00488446 1.007 
-0.00225697 -0.00602124 1.00609 
-0.00288037 -0.00689644 1.00618 
-0.00353822 -0.00756372 1.00624 
-0.00408819 -0.00840671 1.00616 
-0.00474075 -0.00904706 1.00616 
-0.00551552 -0.00960633 1.00608 
-0.00645651 -0.00980007 1.00609 
-0.00755188 -0.010214 1.00606 
-0.00893432 -0.0100644 1.00601 
-0.0106792 -0.00952397 1.00597 
-0.0131382 -0.00785191 1.00599 
-0.0165043 -0.0060657 1.00589 
-0.0214064 -0.00400985 1.00578 
-0.0275596 -0.0016518 1.00559 
-0.0344075 0.0015529 1.00554 
-0.0411111 0.00699368 1.00554 
-0.0478141 0.0159911 1.00533 
-0.054061 0.0303547 1.00475 
-0.0601033 0.0505809 1.00368 
-0.0619199 0.0814708 1.00123 
-0.0648281 0.131342 0.994888 
-0.0694171 0.199753 0.981847 
-0.0694952 0.28519 0.959067 
-0.0456295 0.378742 0.926238 
-0.030446 0.466609 0.884167 
0.00888313 0.530974 0.846629 
-0.0217886 0.61411 0.78669 
-0.0332734 0.725525 0.685292 
-0.0012072 0.919638 0.386308 
0.00925361 0.999778 -0.0372859 
0.0148273 0.909025 -0.407939 
0.0113438 0.753875 -0.6574 
0.00355847 0.626246 -0.778755 
0.0428508 0.50757 -0.862442 
0.0519056 0.427092 -0.904047 
0.0422354 0.344841 -0.940837 
0.0593743 0.266793 -0.965445 
0.0712628 0.186383 -0.985013 
0.0757626 0.111398 -0.996816 
0.0666987 0.0615812 -1.00252 
0.0575823 0.0342934 -1.00462 
0.0499705 0.0200934 -1.00525 
0.0432028 0.0106108 -1.00558 
0.0363677 0.00360754 -1.00554 
0.0295554 -0.000359356 -1.00558 
0.0236401 -0.00365637 -1.00566 
0.0187829 -0.00499284 -1.00584 
0.0145719 -0.00756279 -1.00591 
0.0113928 -0.00921612 -1.00599 
0.00941871 -0.00977027 -1.00605 
0.00789966 -0.0102167 -1.00601 
0.00670862 -0.0100176 -1.00601 
0.00575115 -0.00959622 -1.006 
0.00494762 -0.00911303 -1.00598 
0.00432298 -0.00849968 -1.00601 
0.00378766 -0.00782488 -1.00612 
0.0032454 -0.00714363 -1.00614 
0.00268923 -0.00625831 -1.00616 
0.00215986 -0.00533818 -1.00629 
0.00149193 -0.00462668 -1.00634 
0.000995977 -0.00362805 -1.00645 
0.000431955 -0.0026986 -1.00654 
-0.000340202 -0.00163985 -1.00654 
-0.000752024 -0.000290384 -1.00663 
-0.00121555 0.00109027 -1.0066 
-0.00137738 0.00264272 -1.00643 
-0.00102001 0.00369497 -1.00638 
-0.00119365 0.00485309 -1.0052 
-0.00052145 0.0053446 -1.0038 
0.000184518 0.0050318 1.00404 
0.000517124 0.00387054 1.00657 
0.00042051 0.00276995 1.00776 
0.000682005 0.00183059 1.00627 
0.000127923 0.00122148 1.00699 
0.000453355 0.000285501 1.00622 
-0.000259445 -0.000935504 1.00686 
-0.000833255 -0.00182874 1.00681 
-0.00120228 -0.00303959 1.00656 
-0.00176853 -0.0038638 1.00653 
-0.00248269 -0.00484323 1.00648 
-0.0030048 -0.00572346 1.00637 
-0.00362921 -0.00649261 1.0064 
-0.00420137 -0.00730978 1.00637 
-0.0047461 -0.00790376 1.00628 
-0.0054848 -0.00838085 1.00625 
-0.00626866 -0.00852002 1.00628 
-0.00730921 -0.00877459 1.00623 
-0.00848133 -0.00855943 1.00616 
-0.0100592 -0.00765336 1.00613 
-0.0119532 -0.00579004 1.00613 
-0.0144568 -0.00306424 1.0061 
-0.0178776 -0.00076561 1.006 
-0.0225003 0.00221394 1.00593 
-0.0280889 0.00585387 1.00583 
-0.0336776 0.0117379 1.00588 
-0.0375557 0.0194126 1.00584 
-0.037247 0.0296295 1.00567 
-0.0319849 0.0432584 1.0055 
-0.0271822 0.0648983 1.00429 
-0.0215105 0.106156 1.00037 
-0.010689 0.164205 0.991849 
-0.0102222 0.234633 0.976317 
-0.00152203 0.31605 0.952113 
0.0333461 0.410698 0.911598 
0.0615634 0.524454 0.847953 
0.0254395 0.648391 0.756103 
0.0027693 0.762626 0.647506 
0.0466617 0.901654 0.411619 
-0.0461924 0.997624 0.0327606 
-0.0496704 0.915204 -0.373671 
-0.0547107 0.764971 -0.637727 
-0.0601627 0.624152 -0.778475 
-0.0252602 0.519933 -0.854012 
-0.0211864 0.422339 -0.907729 
-0.0196918 0.322195 -0.949484 
-0.00112079 0.244573 -0.972724 
0.0125183 0.176227 -0.989314 
0.0320439 0.119182 -0.998112 
0.0308679 0.070691 -1.00351 
0.0326925 0.0426713 -1.00556 
0.0365868 0.0296819 -1.00581 
0.0377685 0.0205523 -1.00588 
0.0339893 0.01247 -1.00599 
0.0283798 0.00703996 -1.00593 
0.0231995 0.00225519 -1.00591 
0.0186585 4.11782e-05 -1.00603 
0.0152575 -0.00318267 -1.00604 
0.0124477 -0.0057567 -1.00609 
0.0103942 -0.00705405 -1.00617 
0.00861082 -0.00828899 -1.00614 
0.00739283 -0.00865912 -1.00618 
0.00639891 -0.00858564 -1.00622 
0.00558031 -0.00835022 -1.00623 
0.00490452 -0.00794957 -1.00621 
0.00434244 -0.00732139 -1.00631 
0.00378824 -0.00671494 -1.00634 
0.00326248 -0.00601419 -1.00635 
0.00277931 -0.00508576 -1.00643 
0.00210573 -0.00421751 -1.00654 
0.00162736 -0.00338555 -1.00659 
0.00116012 -0.00230708 -1.00674 
0.000515003 -0.00145847 -1.00678 
3.31204e-05 -0.000433942 -1.00681 
-0.000326405 0.000922855 -1.00764 
-0.000626818 0.00216419 -1.00614 
-0.000453057 0.00319493 -1.00742 
-0.000474602 0.00425207 -1.00643 
-7.06597e-05 0.00483902 -1.004 
-0.000140092 0.00442073 1.0043 
9.44298e-05 0.00403554 1.00669 
9.18578e-05 0.00337302 1.00696 
-1.21197e-05 0.00223013 1.00797 
-0.000285978 0.00109721 1.00714 
-0.000298956 3.19009e-05 1.00693 
-0.000855535 -0.000922436 1.00763 
-0.00136982 -0.00203928 1.00679 
-0.00179421 -0.00276183 1.00669 
-0.0023117 -0.00382496 1.00662 
-0.00304183 -0.0045487 1.00656 
-0.00351828 -0.00546432 1.00651 
-0.00409446 -0.00631341 1.00645 
-0.00467709 -0.00681521 1.00639 
-0.00528453 -0.00733929 1.00632 
-0.00594995 -0.00749125 1.00632 
-0.00682108 -0.00764907 1.00629 
-0.00776836 -0.00732345 1.00628 
-0.00911968 -0.00654559 1.00621 
-0.0105431 -0.00474253 1.00619 
-0.0124316 -0.00229729 1.00612 
-0.0147109 0.00081185 1.0061 
-0.0176274 0.00340552 1.00611 
-0.0211162 0.00703286 1.00606 
-0.0251178 0.0114293 1.00605 
-0.0279454 0.0178369 1.00617 
-0.0277341 0.0248117 1.0062 
-0.0214091 0.032063 1.00616 
-0.0116465 0.0421713 1.00588 
-0.00350968 0.0631624 1.00472 
0.0121529 0.097375 1.00144 
0.0340475 0.139255 0.995045 
0.0470089 0.203476 0.981824 
0.0669047 0.259152 0.967145 
0.0731684 0.336922 0.941219 
0.105259 0.401969 0.909536 
0.100388 0.582412 0.805278 
0.0537199 0.772931 0.630698 
0.0110283 0.939815 0.2923 
0.00092337 1.00265 -0.0671533 
-0.118955 0.844397 -0.508533 
-0.0687927 0.699823 -0.723236 
-0.108454 0.557806 -0.812995 
-0.0898136 0.464058 -0.881627 
-0.0788226 0.362144 -0.930055 
-0.0738989 0.26017 -0.966199 
-0.0491432 0.185624 -0.986062 
-0.0205919 0.131655 -0.997304 
-0.00342642 0.088285 -1.00252 
0.00657534 0.0555736 -1.00522 
0.0160316 0.0371755 -1.00613 
0.0233673 0.0283575 -1.00624 
0.0289733 0.0217191 -1.0062 
0.0271863 0.0155616 -1.00622 
0.0236725 0.00984516 -1.0061 
0.020047 0.00569936 -1.00613 
0.0167044 0.00275573 -1.00615 
0.0141322 -0.000648372 -1.00609 
0.0118801 -0.00320756 -1.00616 
0.00981309 -0.00545051 -1.00622 
0.00835034 -0.00677248 -1.00624 
0.00721769 -0.00750627 -1.00628 
0.0063101 -0.00761646 -1.00632 
0.00562629 -0.00738149 -1.00637 
0.00496668 -0.00707121 -1.00636 
0.00440074 -0.00655815 -1.00639 
0.00386407 -0.00583835 -1.00642 
0.00338807 -0.00508304 -1.0065 
0.00279605 -0.00413502 -1.00659 
0.00229169 -0.00335449 -1.00669 
0.00181981 -0.00253223 -1.00674 
0.00123588 -0.0014183 -1.00686 
0.000726666 -0.000510555 -1.00692 
0.000323051 0.000420441 -1.00633 
0.000218618 0.00139116 -1.00718 
-0.000132803 0.00207835 -1.00716 
-3.76443e-05 0.00301661 -1.00705 
-0.000136381 0.00390358 -1.00663 
9.13042e-05 0.00456775 -1.00411 
-9.60073e-05 0.00405999 1.00409 
-7.3619e-05 0.00392319 1.00658 
-0.0001194 0.00282725 1.00635 
-0.000347632 0.00197706 1.00705 
-0.000680111 0.00105733 1.00764 
-0.000677942 0.00019853 1.00624 
-0.00108038 -8.42336e-05 1.00671 
-0.00130415 -0.00108081 1.00672 
-0.00179841 -0.00176239 1.00667 
-0.00222597 -0.00282684 1.00666 
-0.00275974 -0.00360384 1.00664 
-0.00337674 -0.00433066 1.00657 
-0.00386021 -0.00523189 1.00653 
-0.0043775 -0.00597661 1.00639 
-0.005003 -0.00652056 1.00635 
-0.00553615 -0.00668872 1.0063 
-0.00631247 -0.00680716 1.00631 
-0.00713719 -0.00641671 1.00629 
-0.00821781 -0.00578843 1.00629 
-0.00947615 -0.0040975 1.00623 
-0.011056 -0.00168577 1.00615 
-0.0129874 0.0013597 1.00614 
-0.0153024 0.00472212 1.00625 
-0.0176678 0.00785407 1.00628 
-0.0196674 0.0113426 1.00628 
-0.0207789 0.0151656 1.00641 
-0.0192926 0.0202454 1.00655 
-0.0139109 0.0263521 1.00656 
-0.00444264 0.0342047 1.00637 
0.00719654 0.0478668 1.00567 
0.0234238 0.0696117 1.00395 
0.0488585 0.093987 1.00006 
0.0752449 0.132152 0.993844 
0.101869 0.193077 0.979596 
0.128723 0.268464 0.955469 
0.152718 0.385549 0.912052 
0.144886 0.538616 0.831343 
0.150453 0.636827 0.760962 
0.0953 0.813835 0.589921 
-0.0434175 0.996328 0.0385789 
-0.0443317 0.877303 -0.492112 
-0.132138 0.665061 -0.735996 
-0.158662 0.481804 -0.864919 
-0.141338 0.362675 -0.922137 
-0.124005 0.26428 -0.958273 
-0.107352 0.173932 -0.982816 
-0.0774988 0.143908 -0.99128 
-0.0540795 0.105672 -0.997817 
-0.0279404 0.0774515 -1.00272 
-0.01272 0.053409 -1.00504 
0.000882563 0.0371938 -1.00605 
0.0100269 0.0264384 -1.00654 
0.018467 0.021834 -1.0065 
0.0201908 0.0173879 -1.00648 
0.020264 0.0131142 -1.0064 
0.0181554 0.00902716 -1.00633 
0.0161677 0.00584977 -1.0063 
0.0138565 0.00225114 -1.00621 
0.0118109 -0.000653171 -1.00617 
0.0100646 -0.00327917 -1.00624 
0.00856583 -0.00494564 -1.00633 
0.00743407 -0.00612192 -1.00633 
0.00654929 -0.00671713 -1.00635 
0.00581861 -0.00673636 -1.00633 
0.00515998 -0.00649981 -1.00634 
0.00457073 -0.00618341 -1.0063 
0.0040707 -0.00557542 -1.00632 
0.00362105 -0.00477635 -1.0064 
0.00311779 -0.00400668 -1.0065 
0.00259722 -0.00302071 -1.00657 
0.00210287 -0.0021639 -1.00661 
0.00163905 -0.00144851 -1.00663 
0.00115515 -0.000471274 -1.00745 
0.000723676 0.000443799 -1.00696 
0.000526258 0.00143718 -1.00706 
0.000251101 0.00242477 -1.00713 
0.000122513 0.00344222 -1.00685 
2.41197e-05 0.00399649 -1.00656 
0.000206466 0.00434311 -1.00399 
0.000271971 0.00414336 1.00387 
-8.00502e-07 0.00396449 1.00639 
-8.98051e-05 0.00357676 1.00677 
-0.000313053 0.00287303 1.00694 
-0.000575466 0.00209987 1.00631 
-0.00107352 0.000756869 1.00686 
-0.00145023 -0.000314575 1.00664 
-0.00177506 -0.000985767 1.00663 
-0.00228214 -0.00190557 1.00661 
-0.00270843 -0.00265194 1.00661 
-0.00320943 -0.00346239 1.00663 
-0.00385703 -0.00441833 1.00658 
-0.00426655 -0.00523812 1.00651 
-0.00481914 -0.00570117 1.00643 
-0.00546087 -0.00588731 1.0064 
-0.00599434 -0.00604865 1.00638 
-0.00678677 -0.00576107 1.00633 
-0.00763173 -0.0051787 1.00635 
-0.00867907 -0.00375776 1.00633 
-0.010007 -0.0017684 1.00625 
-0.0115025 0.000923735 1.0062 
-0.0132592 0.00386269 1.00622 
-0.0150038 0.00707006 1.00629 
-0.0162166 0.00987967 1.00639 
-0.016416 0.0121257 1.00655 
-0.0147957 0.0136936 1.00672 
-0.0106976 0.0154769 1.00681 
-0.00352478 0.020677 1.00682 
0.00673239 0.0292174 1.00648 
0.0205119 0.0393642 1.00575 
0.0382953 0.0537287 1.00415 
0.0659101 0.0681628 1.00116 
0.0961166 0.101248 0.995056 
0.129632 0.129612 0.986616 
0.153497 0.187867 0.973037 
0.18441 0.246187 0.954721 
0.195742 0.404554 0.893701 
0.199736 0.585998 0.769126 
0.137989 0.838192 0.50534 
0.0203767 0.999936 -0.00278876 
-0.121152 0.872105 -0.440416 
-0.179203 0.622655 -0.745021 
-0.200322 0.396354 -0.896234 
-0.177891 0.269483 -0.948763 
-0.152525 0.175912 -0.975656 
-0.118042 0.110817 -0.990827 
-0.0877241 0.0903563 -0.997098 
-0.0578113 0.0700409 -1.00218 
-0.0371311 0.0527318 -1.00419 
-0.0177626 0.0394484 -1.00489 
-0.00408438 0.0269065 -1.00716 
0.0051061 0.0187383 -1.00675 
0.010507 0.0152722 -1.00673 
0.0147451 0.0136147 -1.00671 
0.0162544 0.0118567 -1.00655 
0.015906 0.00934535 -1.00637 
0.0146665 0.0061007 -1.00631 
0.0129951 0.00328653 -1.00624 
0.0111548 0.000218618 -1.00629 
0.00964993 -0.00244733 -1.00641 
0.00834474 -0.00420138 -1.00644 
0.00725161 -0.00525394 -1.00648 
0.00646813 -0.00587904 -1.00645 
0.00578543 -0.00602264 -1.00637 
0.00515637 -0.00582161 -1.00635 
0.00451341 -0.00548332 -1.00634 
0.00408245 -0.004879 -1.00639 
0.00362041 -0.00407768 -1.00645 
0.00313344 -0.00326997 -1.00655 
0.0027293 -0.00224907 -1.0066 
0.00217411 -0.00143716 -1.00663 
0.00169188 -0.000774732 -1.00588 
0.00138888 9.16513e-05 -1.00666 
0.000970904 0.000755901 -1.00678 
0.000691463 0.00182176 -1.00696 
0.000432381 0.00263616 -1.007 
0.000269669 0.00350822 -1.00669 
0.000154164 0.00407239 -1.00638 
1.67745e-05 0.00432669 -1.00381 
0.000429287 0.00451542 1.00384 
-1.4729e-05 0.00415998 1.00643 
-0.000218772 0.003495 1.00681 
-0.000584244 0.00278512 1.00781 
-0.000862892 0.00172445 1.00701 
-0.00136693 0.00123596 1.00683 
-0.00157809 0.000390832 1.0061 
-0.00215679 -0.000168028 1.00742 
-0.00231601 -0.00103747 1.00603 
-0.00291865 -0.00183156 1.00668 
-0.00334464 -0.00257277 1.00669 
-0.00385028 -0.00355593 1.00662 
-0.00440299 -0.00432531 1.00651 
-0.00486793 -0.00500376 1.00651 
-0.0053834 -0.00530951 1.00639 
-0.00614253 -0.00537048 1.00644 
-0.00674202 -0.00521952 1.00638 
-0.00758281 -0.00449643 1.00643 
-0.00856659 -0.00326285 1.00637 
-0.00964536 -0.00144606 1.00628 
-0.0110726 0.00123618 1.00622 
-0.0124472 0.0041075 1.00615 
-0.0139415 0.00672282 1.0062 
-0.0147493 0.00902247 1.00626 
-0.0145062 0.00979973 1.00646 
-0.0121168 0.00922678 1.00672 
-0.0077111 0.00868905 1.00683 
-0.000752346 0.0100693 1.00689 
0.00840583 0.0145807 1.00683 
0.0214097 0.0216744 1.00626 
0.0438254 0.028081 1.00517 
0.0677117 0.0366818 1.00305 
0.0976589 0.0607964 0.99883 
0.135479 0.0735258 0.993018 
0.172537 0.114677 0.98302 
0.216905 0.160597 0.967103 
0.221216 0.300251 0.925454 
0.190348 0.529764 0.838368 
0.103889 0.80591 0.605671 
-0.0309379 0.994448 0.0604569 
-0.0879635 0.831246 -0.573899 
-0.187786 0.570861 -0.810138 
-0.226641 0.281535 -0.931716 
-0.203727 0.152417 -0.971925 
-0.168277 0.109279 -0.984771 
-0.136686 0.0632903 -0.993006 
-0.0997262 0.0555804 -0.998797 
-0.0706553 0.0444292 -1.00243 
-0.046292 0.0311123 -1.00475 
-0.0249497 0.0256488 -1.00588 
-0.0123957 0.0150637 -1.0066 
-0.00287143 0.0115445 -1.00611 
0.00411051 0.00732224 -1.00685 
0.0100392 0.00903001 -1.00683 
0.013425 0.00987474 -1.0067 
0.0145963 0.0100047 -1.00641 
0.0144374 0.00809122 -1.00619 
0.0131266 0.00532521 -1.00613 
0.0116138 0.00262916 -1.00615 
0.0101988 -0.000290201 -1.00634 
0.00902099 -0.00247584 -1.00635 
0.0078113 -0.00419301 -1.00644 
0.00690695 -0.00511767 -1.00647 
0.00619045 -0.00536958 -1.00639 
0.0056924 -0.00524893 -1.00637 
0.00503446 -0.00517471 -1.00642 
0.00459206 -0.00469884 -1.00647 
0.00412346 -0.0039515 -1.00655 
0.00362922 -0.00294362 -1.00665 
0.00324636 -0.00213186 -1.00669 
0.00266747 -0.0012146 -1.00751 
0.0020905 -0.000341191 -1.00682 
0.00166356 0.000550981 -1.00682 
0.00118732 0.00124908 -1.00685 
0.000918345 0.0022028 -1.00693 
0.00058603 0.00281615 -1.00696 
0.000413586 0.00357381 -1.00676 
0.000162916 0.0040804 -1.00637 
-0.000164137 0.00448313 -1.00384 
0.000427013 0.00508331 1.00392 
-8.91988e-05 0.00453948 1.00639 
-0.000366672 0.00362764 1.00688 
-0.000860241 0.00315408 1.00705 
-0.00104324 0.00234609 1.00704 
-0.00164914 0.00165497 1.00677 
-0.00203151 0.000781852 1.00672 
-0.00266868 7.29549e-05 1.00671 
-0.00292699 -0.000858913 1.00668 
-0.00346371 -0.00137168 1.00669 
-0.00388197 -0.00240961 1.00664 
-0.00429613 -0.00340585 1.00653 
-0.00478225 -0.00405333 1.00646 
-0.00519288 -0.00458968 1.00699 
-0.00582196 -0.0048342 1.00568 
-0.00665564 -0.00470777 1.00692 
-0.00721337 -0.00434428 1.00567 
-0.00804183 -0.00330072 1.00695 
-0.00898116 -0.00179436 1.00566 
-0.00998627 0.000456873 1.00618 
-0.0114924 0.00302855 1.00614 
-0.012578 0.0056426 1.00605 
-0.0139419 0.00822002 1.00613 
-0.013749 0.00879824 1.00627 
-0.0125442 0.00732253 1.00653 
-0.00905843 0.00359724 1.00678 
-0.00368178 0.0010333 1.00686 
0.00440464 -0.000286918 1.00698 
0.0144189 0.00132367 1.00678 
0.0276426 0.00507962 1.00624 
0.0471933 0.00229428 1.00534 
0.0806333 0.0120118 1.00279 
0.114152 0.023862 0.998257 
0.154133 0.0261713 0.99246 
0.189813 0.0671283 0.983697 
0.223977 0.0692657 0.97515 
0.264774 0.162738 0.959045 
0.228793 0.496991 0.83934 
0.164842 0.794643 0.578281 
0.0417236 0.999312 0.0293065 
-0.149183 0.817323 -0.550463 
-0.220783 0.537556 -0.816388 
-0.26082 0.150764 -0.962407 
-0.220134 0.066086 -0.97727 
-0.18351 0.0595316 -0.98501 
-0.146643 0.0130254 -0.993595 
-0.109436 0.0131981 -0.999157 
-0.0746527 0.0114412 -1.00332 
-0.0493448 0.00642145 -1.00493 
-0.0274574 0.00492583 -1.00618 
-0.0126625 0.000663433 -1.00685 
-0.0035837 0.000684998 -1.00695 
0.00400487 0.000318701 -1.00686 
0.00938049 0.0044891 -1.00679 
0.0121917 0.00718095 -1.00659 
0.0138082 0.00876558 -1.00628 
0.0137253 0.00772698 -1.00611 
0.0126035 0.00548984 -1.00607 
0.0112102 0.00285259 -1.00617 
0.00995613 0.000476966 -1.00689 
0.00885261 -0.00187158 -1.00564 
0.00784246 -0.00343084 -1.00699 
0.00692956 -0.00450707 -1.00638 
0.006349 -0.0049636 -1.00634 
0.005753 -0.004937 -1.00637 
0.00532508 -0.00446865 -1.00643 
0.00480629 -0.00406884 -1.0058 
0.00434088 -0.00327612 -1.00658 
0.00392601 -0.00235866 -1.00732 
0.00343658 -0.0014034 -1.00598 
0.00303061 -0.000488355 -1.00673 
0.00244061 7.77251e-05 -1.00683 
0.00213068 0.00090056 -1.00677 
0.00161354 0.00151224 -1.00678 
0.0013093 0.00241422 -1.00682 
0.000855555 0.00316218 -1.00687 
0.000543587 0.00395649 -1.00671 
0.000166255 0.00442123 -1.00634 
-0.000203375 0.00494699 -1.00388 
-3.09385e-05 0.00565417 1.00374 
-0.000315332 0.00498273 1.00636 