# vtk DataFile Version 3.0 
Exported using Morpho https://github.com/Morpho-lang/morpho 
ASCII 
DATASET UNSTRUCTURED_GRID 

POINTS 1978 float 
-8.4857 -2.82885 2.81687e-07 
-8.25449 -2.82935 1.16996e-07 
-8.07421 -2.82814 1.49273e-07 
-7.81435 -2.82942 6.01427e-08 
-7.47134 -2.82905 -6.64991e-07 
-7.21089 -2.82912 -1.43567e-07 
-6.99818 -2.8293 -1.95147e-07 
-6.76279 -2.82884 -3.09662e-07 
-6.50987 -2.82972 -2.18664e-07 
-6.33683 -2.82773 -9.81443e-08 
-6.1656 -2.82946 -4.07735e-07 
-5.9385 -2.82903 -1.29626e-07 
-5.71607 -2.82877 -2.34303e-07 
-5.51336 -2.829 -1.29624e-07 
-5.29328 -2.8289 -1.79905e-07 
-5.08259 -2.82906 -3.04557e-07 
-4.86118 -2.82892 -2.54977e-07 
-4.66112 -2.82901 -2.54247e-07 
-4.43314 -2.82883 -3.30649e-07 
-4.21891 -2.8289 -4.77925e-07 
-3.99485 -2.82862 -6.41351e-07 
-3.78863 -2.82888 -1.09831e-06 
-3.58289 -2.82872 -1.65593e-06 
-3.37734 -2.82896 -1.74537e-06 
-3.17428 -2.8289 -1.69887e-06 
-2.9697 -2.82885 -1.56763e-06 
-2.76113 -2.82854 -1.72552e-06 
-2.5437 -2.82828 -2.78415e-06 
-2.32418 -2.82828 -6.98291e-06 
-2.08894 -2.82829 -2.3036e-06 
-1.86173 -2.82846 2.36075e-05 
-1.64199 -2.82817 0.00010592 
-1.41364 -2.82775 0.000201105 
-1.17306 -2.82641 0.000272898 
-1.0049 -2.82655 0.000464919 
-0.858139 -2.82671 0.000568299 
-0.762599 -2.82728 0.000784166 
-0.635265 -2.8317 0.00397115 
-0.292255 -2.86482 0.00994194 
0.15742 -2.86494 0.0108849 
0.283084 -2.86454 -0.0133057 
0.590798 -2.82778 -0.00294903 
0.732367 -2.82591 -0.00107932 
0.909709 -2.82827 -0.000643666 
1.07703 -2.82701 -0.000354843 
1.22213 -2.82698 -0.000219586 
1.39032 -2.82792 -0.000165352 
1.59202 -2.82808 -0.000142477 
1.81123 -2.829 -7.25453e-05 
2.07248 -2.82849 4.50637e-06 
2.31346 -2.82856 8.79611e-06 
2.5426 -2.82882 3.60362e-06 
2.76851 -2.82857 2.22896e-06 
2.98692 -2.82896 1.57315e-06 
3.20255 -2.82884 1.20611e-06 
3.40222 -2.82883 1.87414e-06 
3.61373 -2.82888 1.39386e-06 
3.80347 -2.82856 1.15151e-06 
4.01967 -2.82879 7.07767e-07 
4.245 -2.8287 5.32524e-07 
4.44583 -2.82873 2.91158e-07 
4.65862 -2.82884 2.37165e-07 
4.86698 -2.82894 3.27755e-07 
5.06844 -2.82891 1.15923e-07 
5.28622 -2.82896 1.24705e-07 
5.49782 -2.82884 1.97014e-07 
5.69934 -2.82904 1.08467e-07 
5.91986 -2.82899 1.45922e-07 
6.13911 -2.82891 2.1767e-07 
6.33713 -2.82922 2.58264e-07 
6.58458 -2.82906 1.21867e-07 
6.79225 -2.82905 3.33408e-07 
6.99534 -2.82903 3.51513e-07 
7.26069 -2.829 2.58169e-08 
7.49553 -2.82918 3.56323e-07 
7.75666 -2.829 -2.89064e-08 
8.01671 -2.82882 -8.58596e-08 
8.19935 -2.82898 -1.22198e-07 
8.48549 -2.82879 -3.32178e-07 
-8.48625 -2.58529 1.6507e-08 
-8.28006 -2.61057 5.19054e-07 
-8.04393 -2.5242 -6.75896e-09 
-7.86947 -2.62996 -3.80711e-07 
-7.59061 -2.67707 4.70269e-07 
-7.26921 -2.62346 6.57826e-07 
-7.01786 -2.58095 5.52957e-08 
-6.80476 -2.60452 6.36172e-08 
-6.5598 -2.62516 3.71427e-07 
-6.33377 -2.53177 3.3622e-07 
-6.11887 -2.60787 1.92719e-07 
-5.89405 -2.60169 2.21432e-07 
-5.68334 -2.57449 2.0588e-07 
-5.46679 -2.59742 7.37113e-08 
-5.24972 -2.58789 2.72194e-07 
-5.02856 -2.6038 2.5921e-07 
-4.82194 -2.57647 3.53287e-07 
-4.60025 -2.60886 3.19154e-07 
-4.38123 -2.59214 4.32398e-07 
-4.16069 -2.60255 2.46423e-07 
-3.94778 -2.58047 6.1877e-07 
-3.74081 -2.58636 1.28546e-06 
-3.52579 -2.59079 2.13128e-06 
-3.31486 -2.59383 2.63342e-06 
-3.09794 -2.59231 2.20435e-06 
-2.87581 -2.58466 1.91453e-06 
-2.64196 -2.57993 2.4048e-07 
-2.40131 -2.57233 -2.16665e-06 
-2.15956 -2.57959 -9.08084e-06 
-1.91367 -2.57691 -1.96687e-05 
-1.68173 -2.57899 -3.41269e-05 
-1.46726 -2.60544 2.56641e-05 
-1.25712 -2.63212 0.000106379 
-1.05356 -2.60552 0.000188166 
-0.90305 -2.62824 0.000125706 
-0.780609 -2.60521 0.000231725 
-0.685221 -2.7223 -0.000208473 
-0.543609 -2.81372 -0.000982321 
-0.241837 -2.83187 0.00228476 
0.0525445 -2.87932 -0.00809068 
0.286458 -2.80741 -0.00306712 
0.494651 -2.78348 -0.00159457 
0.640747 -2.69365 -0.000334431 
0.827225 -2.68825 -0.000289076 
0.974702 -2.65277 -8.61517e-05 
1.12113 -2.56817 -0.000112764 
1.30744 -2.59169 -2.87632e-05 
1.52525 -2.5965 9.12998e-07 
1.79051 -2.61836 3.63715e-05 
2.03807 -2.59243 2.21317e-05 
2.28804 -2.58244 4.11906e-06 
2.53386 -2.58779 -5.00715e-07 
2.77728 -2.58847 -1.44351e-06 
3.01269 -2.60211 -1.52542e-06 
3.22784 -2.58706 -2.34499e-06 
3.44679 -2.60191 -2.09404e-06 
3.64607 -2.57233 -1.75162e-06 
3.86453 -2.59812 -8.44316e-07 
4.09015 -2.60435 -5.12823e-07 
4.29974 -2.57343 -4.8345e-07 
4.51476 -2.59253 -3.25377e-07 
4.72992 -2.59079 -2.55194e-07 
4.94027 -2.58548 -3.36518e-07 
5.15529 -2.60525 -1.95321e-07 
5.3745 -2.59614 -1.60326e-07 
5.58518 -2.58088 -1.5806e-07 
5.80027 -2.60361 -1.00405e-07 
6.02638 -2.59989 -1.50544e-07 
6.23997 -2.57228 -3.2876e-07 
6.45855 -2.62423 -1.66797e-07 
6.68574 -2.57678 -9.22607e-08 
6.89307 -2.56757 -2.35851e-07 
7.12311 -2.62958 -8.04063e-08 
7.37477 -2.60284 -1.70018e-07 
7.62142 -2.62872 -3.78951e-07 
7.88387 -2.62655 3.16259e-07 
8.09002 -2.53632 -3.06223e-08 
8.30771 -2.64465 -3.857e-07 
8.48596 -2.54347 8.15929e-08 
-8.48493 -2.39593 -1.9025e-07 
-8.19514 -2.35762 2.15311e-07 
-7.92544 -2.27776 1.49754e-07 
-7.73533 -2.45061 -1.478e-07 
-7.58836 -2.28947 -6.71283e-08 
-7.44513 -2.47688 -4.74772e-08 
-7.17415 -2.38508 3.80176e-08 
-6.93968 -2.33045 -1.644e-07 
-6.7069 -2.39717 -2.33897e-08 
-6.49362 -2.36505 -9.03682e-08 
-6.21057 -2.33423 1.07972e-07 
-6.00833 -2.37425 3.02562e-08 
-5.79467 -2.34695 -5.99472e-09 
-5.56585 -2.34524 -1.73236e-08 
-5.35816 -2.35664 -3.17481e-08 
-5.13169 -2.36449 -8.52155e-09 
-4.92777 -2.34434 -4.8899e-08 
-4.6958 -2.36744 -4.94587e-08 
-4.48269 -2.36809 -1.00744e-07 
-4.25679 -2.36778 -1.38884e-07 
-4.04897 -2.35392 -1.5243e-07 
-3.83385 -2.33895 -2.53906e-07 
-3.6241 -2.3595 -3.87696e-07 
-3.4078 -2.35699 -7.55977e-07 
-3.19457 -2.36295 -1.03163e-06 
-2.97305 -2.35298 -1.46437e-06 
-2.74146 -2.3514 -2.20064e-06 
-2.4996 -2.34506 -3.47546e-06 
-2.24982 -2.34392 -6.56607e-06 
-2.00289 -2.34722 -1.35129e-05 
-1.75224 -2.33982 -4.07545e-05 
-1.518 -2.36095 -5.81719e-05 
-1.30971 -2.40852 -1.17697e-05 
-1.124 -2.44164 -4.60445e-05 
-0.932356 -2.44149 7.77665e-05 
-0.748906 -2.49383 -6.75583e-05 
-0.600452 -2.65145 0.000250013 
-0.476205 -2.77783 0.00202661 
-0.274621 -2.7888 -0.00099334 
-0.00258816 -2.85561 0.00892955 
0.230315 -2.76993 0.00295558 
0.445333 -2.72241 0.00143725 
0.622116 -2.59148 0.000288025 
0.774692 -2.56341 -6.22172e-06 
0.928248 -2.47997 -0.000184177 
1.09755 -2.37892 -0.000112837 
1.28547 -2.37235 4.28301e-06 
1.48982 -2.37296 7.20492e-05 
1.72026 -2.40468 6.01795e-05 
1.96225 -2.36663 2.44287e-05 
2.21024 -2.35214 7.79249e-06 
2.46179 -2.35047 3.74055e-06 
2.70019 -2.36215 2.78468e-06 
2.94602 -2.36904 1.66926e-06 
3.16364 -2.3528 1.24142e-06 
3.38381 -2.37026 6.52837e-07 
3.58646 -2.33041 6.09308e-07 
3.79691 -2.36067 3.15024e-07 
4.01083 -2.37543 1.81493e-07 
4.21618 -2.34158 2.50526e-07 
4.43809 -2.35143 1.11513e-07 
4.64806 -2.35634 8.6758e-08 
4.86105 -2.34874 3.67495e-08 
5.07977 -2.36183 4.69625e-08 
5.28908 -2.37146 3.27228e-08 
5.50608 -2.34413 4.86815e-08 
5.72605 -2.35636 1.07611e-08 
5.93915 -2.37431 3.3695e-09 
6.15659 -2.34023 -2.65206e-08 
6.3933 -2.36693 -2.47891e-08 
6.59844 -2.36129 -2.93734e-08 
6.8282 -2.31018 1.06299e-08 
7.05757 -2.37415 1.62407e-08 
7.2809 -2.39403 -2.35664e-07 
7.54808 -2.39711 2.09256e-07 
7.79369 -2.41865 -3.34359e-08 
8.009 -2.30689 -6.26496e-08 
8.26983 -2.37129 -3.03706e-07 
8.48576 -2.29827 2.31558e-07 
-8.48571 -2.14087 -1.9365e-07 
-8.27215 -2.17435 -2.10986e-08 
-8.08032 -2.06879 -1.68593e-07 
-7.77967 -2.11682 2.16824e-07 
-7.52197 -2.06283 9.17906e-08 
-7.33217 -2.23549 7.17721e-08 
-7.08244 -2.13157 3.77714e-08 
-6.80198 -2.14578 1.24743e-07 
-6.59874 -2.13957 9.0428e-09 
-6.35958 -2.16838 1.80719e-08 
-6.11412 -2.10392 3.96383e-09 
-5.91717 -2.12823 -1.72542e-09 
-5.68703 -2.13098 -2.50008e-08 
-5.46176 -2.11056 -2.57175e-08 
-5.24908 -2.14312 1.95638e-08 
-5.04395 -2.11118 -2.05938e-08 
-4.81938 -2.14133 1.17142e-08 
-4.60554 -2.13768 -3.00837e-08 
-4.38733 -2.15063 -5.37344e-08 
-4.18144 -2.12639 -8.8904e-08 
-3.97548 -2.12215 -4.88135e-08 
-3.76253 -2.11346 -1.66406e-07 
-3.55405 -2.13634 -2.15296e-07 
-3.3386 -2.13046 -4.70269e-07 
-3.12478 -2.13485 -5.0588e-07 
-2.89769 -2.12625 -6.6086e-07 
-2.66527 -2.12698 -5.12695e-07 
-2.42552 -2.12487 3.66607e-08 
-2.18549 -2.12243 1.28028e-06 
-1.94699 -2.1239 -1.4648e-06 
-1.7009 -2.12254 -1.95543e-05 
-1.48609 -2.13316 -2.64296e-05 
-1.28902 -2.19106 -1.34801e-05 
-1.12239 -2.2139 -1.29921e-05 
-0.978784 -2.28641 -9.53007e-05 
-0.838691 -2.31487 -0.00018456 
-0.632546 -2.51084 0.000122927 
-0.449278 -2.71306 -5.13701e-05 
-0.1742 -2.77733 0.0015452 
0.0732674 -2.81846 -0.00069511 
0.328311 -2.70158 0.0120309 
0.517306 -2.63674 -0.00220074 
0.650451 -2.47162 0.00080448 
0.785943 -2.39657 2.28135e-05 
0.942376 -2.29341 -0.000103068 
1.1273 -2.18372 6.83084e-05 
1.32998 -2.1648 5.45283e-05 
1.55934 -2.17156 4.62617e-05 
1.77978 -2.17394 1.77456e-05 
2.02187 -2.13865 2.19699e-06 
2.272 -2.13235 -6.99673e-07 
2.50727 -2.12049 3.7071e-07 
2.75023 -2.14901 1.21861e-07 
2.96919 -2.12876 9.29227e-07 
3.19839 -2.13129 3.99216e-07 
3.40319 -2.12912 2.13168e-07 
3.62263 -2.10661 2.32742e-07 
3.83565 -2.13915 2.89149e-08 
4.03644 -2.13508 9.50692e-08 
4.26729 -2.1275 8.91722e-09 
4.47671 -2.11971 5.48107e-08 
4.68791 -2.12611 3.09669e-08 
4.91072 -2.12836 1.07638e-08 
5.12407 -2.12761 2.1831e-08 
5.3352 -2.14007 -9.87276e-09 
5.56427 -2.12134 -4.36759e-09 
5.77975 -2.12567 1.3001e-08 
5.9884 -2.13663 -1.17354e-08 
6.23882 -2.13561 -4.85846e-08 
6.44838 -2.11335 -3.08726e-08 
6.66168 -2.11909 -4.31755e-08 
6.92585 -2.10534 6.59397e-08 
7.14632 -2.14097 1.04145e-07 
7.38817 -2.18887 -5.67378e-08 
7.57702 -2.08848 -4.53563e-08 
7.74568 -2.19012 5.89356e-09 
7.95006 -2.07169 -3.66054e-08 
8.20167 -2.14278 5.81434e-08 
8.48548 -2.10525 6.03722e-08 
-8.48551 -1.79557 5.40011e-08 
-8.32903 -1.91334 -1.26483e-07 
-7.9155 -1.90629 -3.42985e-10 
-7.67551 -1.88591 -5.01418e-08 
[...]
POINT_DATA 1978 
VECTORS vectors float
0.00148595 0.00609146 1.00012 
0.00191525 0.00485756 1.0002 
0.00206602 0.00380546 1.00025 
0.00208762 0.0020448 1.00026 
0.00157277 -8.04014e-05 1.00026 
0.00118317 -0.00157566 1.00025 
0.000736197 -0.00276051 1.00024 
0.000188623 -0.00400123 1.00024 
-0.000512449 -0.0050835 1.0002 
-0.000928565 -0.00584513 1.00018 
-0.00134302 -0.00652379 1.00019 
-0.00187859 -0.00738495 1.0002 
-0.00246824 -0.00827084 1.0002 
-0.0029456 -0.00906349 1.00019 
-0.00358999 -0.00976598 1.00018 
-0.00424934 -0.0104882 1.00017 
-0.00519212 -0.011067 1.00016 
-0.00607236 -0.011507 1.00015 
-0.00722306 -0.0119208 1.00014 
-0.00870177 -0.0121976 1.00012 
-0.0110713 -0.011942 1.0001 
-0.0143469 -0.0112802 1.00006 
-0.0188122 -0.0102273 0.999995 
-0.0244456 -0.009048 0.999878 
-0.0303563 -0.0078416 0.999723 
-0.0372403 -0.00556984 0.999508 
-0.0452174 -0.000971607 0.999199 
-0.0561526 0.00613521 0.998622 
-0.0717045 0.0191706 0.997445 
-0.0902619 0.0460225 0.995033 
-0.104507 0.0851783 0.991021 
-0.113072 0.144482 0.983136 
-0.117984 0.222112 0.967924 
-0.119241 0.320986 0.93959 
-0.115957 0.423355 0.898571 
-0.0943964 0.515982 0.851439 
-0.0813974 0.578771 0.811491 
-0.0905194 0.660671 0.745829 
-0.0343466 0.913678 0.40486 
-0.0449025 0.995985 -0.0827199 
0.0652335 0.913787 -0.401851 
0.0865285 0.681105 -0.727454 
0.075841 0.580152 -0.811011 
0.112123 0.480935 -0.869616 
0.109045 0.388717 -0.914918 
0.115092 0.310271 -0.943688 
0.119091 0.237285 -0.964204 
0.117949 0.163997 -0.979494 
0.109039 0.102359 -0.988885 
0.0949031 0.045062 -0.994638 
0.0733552 0.0160304 -0.99738 
0.0554488 0.00452743 -0.99866 
0.0436937 -0.00134334 -0.999275 
0.0352538 -0.00476565 -0.999588 
0.0291165 -0.0072177 -0.999767 
0.0239712 -0.00917202 -0.999889 
0.0184543 -0.01084 -0.99999 
0.0143338 -0.0116957 -1.00005 
0.0106824 -0.012179 -1.0001 
0.00841928 -0.0121598 -1.00012 
0.00702038 -0.0120452 -1.00013 
0.00588436 -0.0116128 -1.00014 
0.0048635 -0.0109885 -1.00016 
0.00413903 -0.0102799 -1.00016 
0.00354493 -0.00949934 -1.00017 
0.00305002 -0.00883508 -1.00018 
0.00259264 -0.00814454 -1.00019 
0.00211663 -0.00732137 -1.0002 
0.00158298 -0.00652025 -1.00021 
0.00109218 -0.00575865 -1.00022 
0.000507327 -0.0048214 -1.00023 
-7.44634e-05 -0.0040408 -1.00023 
-0.000764791 -0.00293657 -1.00024 
-0.00139167 -0.00130765 -1.00025 
-0.00173065 6.83248e-05 -1.00025 
-0.00208738 0.00178594 -1.00025 
-0.00209693 0.00342897 -1.00024 
-0.00195512 0.00458381 -1.00022 
-0.00149961 0.00610113 -1.00013 
0.00063313 0.00546388 1.0002 
0.00104246 0.00463085 1.00034 
0.0010113 0.00339776 1.00041 
0.00136717 0.00249495 1.0004 
0.0012801 0.00074306 1.00046 
0.000573761 -0.000909653 1.00042 
-5.46157e-05 -0.00207618 1.00042 
-0.00048006 -0.00313675 1.0004 
-0.00105631 -0.00424455 1.0004 
-0.0017947 -0.00485254 1.00042 
-0.00224016 -0.00598411 1.00038 
-0.00286014 -0.00685283 1.00037 
-0.00351316 -0.0075171 1.00036 
-0.00405944 -0.00835448 1.00035 
-0.00470961 -0.00898915 1.00034 
-0.00547931 -0.0095467 1.00033 
-0.00641527 -0.0097392 1.00032 
-0.00750254 -0.01015 1.00031 
-0.00887809 -0.00999843 1.0003 
-0.0106152 -0.0094616 1.00028 
-0.0130619 -0.00780271 1.00027 
-0.0164093 -0.00603367 1.00023 
-0.021278 -0.00399185 1.00015 
-0.0273806 -0.00164823 1 
-0.0341682 0.00154471 0.999804 
-0.0408152 0.00695464 0.999549 
-0.0474608 0.0158784 0.999166 
-0.0536551 0.0301124 0.99853 
-0.0596636 0.0502079 0.997385 
-0.0615663 0.0810356 0.995219 
-0.0644577 0.130729 0.989681 
-0.0690621 0.1989 0.977869 
-0.0692615 0.284216 0.956455 
-0.0454816 0.37806 0.924778 
-0.030335 0.466406 0.88406 
0.00885059 0.531203 0.847156 
-0.0219369 0.615016 0.788066 
-0.0339358 0.72642 0.68607 
-0.000861874 0.921991 0.386721 
0.00830421 0.999286 -0.0369137 
0.0138849 0.911813 -0.409683 
0.0115436 0.753498 -0.657261 
0.00343218 0.626644 -0.779221 
0.0426854 0.506875 -0.861059 
0.0517784 0.426545 -0.903063 
0.0419473 0.343807 -0.9383 
0.0591703 0.265806 -0.962435 
0.0707974 0.185444 -0.980426 
0.0752911 0.110768 -0.991366 
0.0662324 0.0612458 -0.996343 
0.0571663 0.0340615 -0.998219 
0.0496147 0.0199224 -0.999006 
0.0428812 0.0105268 -0.999441 
0.0361087 0.00358367 -0.999735 
0.0293672 -0.000351012 -0.999951 
0.0234947 -0.0036355 -1.0001 
0.0186701 -0.00497216 -1.0002 
0.0144864 -0.00751942 -1.00025 
0.0113251 -0.00915732 -1.00028 
0.00936188 -0.0097051 -1.0003 
0.00784918 -0.0101508 -1.0003 
0.00666538 -0.00995536 -1.00031 
0.00571449 -0.00953716 -1.00032 
0.00491506 -0.00905847 -1.00033 
0.00429399 -0.00844751 -1.00034 
0.00376237 -0.00777583 -1.00035 
0.00322202 -0.00709922 -1.00036 
0.00266943 -0.00622037 -1.00037 
0.00214465 -0.00530577 -1.00038 
0.00147991 -0.00459897 -1.00039 
0.000987422 -0.00360459 -1.0004 
0.000428013 -0.00268033 -1.00041 
-0.000339353 -0.0016306 -1.00041 
-0.000747931 -0.000287621 -1.00042 
-0.00120742 0.00108319 -1.00042 
-0.00136877 0.00262466 -1.00039 
-0.00101455 0.00366964 -1.00041 
-0.00118728 0.0048267 -1.00032 
-0.000519573 0.00532106 -1.00022 
0.000183177 0.00500697 1.00025 
0.000513237 0.0038466 1.00041 
0.000416465 0.00274861 1.00048 
0.000679114 0.00181829 1.0004 
0.000128815 0.00121248 1.00044 
0.000450517 0.000282707 1.0004 
-0.000256372 -0.000928893 1.00043 
-0.000826039 -0.00181802 1.00043 
-0.00119327 -0.00301947 1.00041 
-0.00175515 -0.00383702 1.0004 
-0.00246635 -0.00481181 1.00039 
-0.00298406 -0.00568824 1.00038 
-0.00360404 -0.00645108 1.00038 
-0.0041738 -0.00726134 1.00037 
-0.00471638 -0.0078527 1.00036 
-0.00544994 -0.00832722 1.00035 
-0.00622925 -0.00846627 1.00034 
-0.00726339 -0.00871674 1.00033 
-0.00842971 -0.00850083 1.00032 
-0.00999888 -0.00759879 1.00031 
-0.0118819 -0.00575042 1.0003 
-0.0143739 -0.00304913 1.00028 
-0.0177759 -0.00076591 1.00023 
-0.0223663 0.00219842 1.00014 
-0.0279066 0.00581688 0.999986 
-0.0334269 0.011649 0.999783 
-0.0372593 0.0192606 0.999543 
-0.0369668 0.0294038 0.999312 
-0.0318244 0.0429685 0.999005 
-0.0271048 0.0645579 0.997971 
-0.0213886 0.105549 0.994579 
-0.0107316 0.163316 0.986869 
-0.0101358 0.233728 0.972517 
-0.00140681 0.315055 0.949276 
0.0333997 0.410269 0.911383 
0.0617521 0.524776 0.848918 
0.0258249 0.650563 0.758702 
0.00276671 0.762519 0.646941 
0.0465174 0.908246 0.414593 
-0.044917 0.997995 0.0339525 
-0.0499492 0.924201 -0.376653 
-0.0544027 0.766738 -0.639298 
-0.0601946 0.624136 -0.77895 
-0.0252844 0.519741 -0.853955 
-0.0212028 0.421611 -0.906621 
-0.0197738 0.321213 -0.946979 
-0.00116794 0.24384 -0.970013 
0.0125345 0.175407 -0.984733 
0.0318783 0.118555 -0.992799 
0.0307309 0.0703241 -0.99746 
0.0325277 0.0424487 -0.999008 
0.0363178 0.0294555 -0.999341 
0.037466 0.0203844 -0.999518 
0.033734 0.0123689 -0.999772 
0.0281896 0.00698919 -0.999978 
0.0230597 0.00223988 -1.00012 
0.0185483 3.74054e-05 -1.00022 
0.0151702 -0.00316354 -1.00027 
0.0123748 -0.0057179 -1.0003 
0.0103302 -0.00700558 -1.00032 
0.00855982 -0.00823205 -1.00032 
0.00734723 -0.0086034 -1.00033 
0.00635923 -0.00853081 -1.00034 
0.00554503 -0.0082969 -1.00035 
0.00487358 -0.00789941 -1.00035 
0.00431446 -0.00727475 -1.00036 
0.0037633 -0.006671 -1.00037 
0.00324064 -0.00597458 -1.00038 
0.00275985 -0.00505175 -1.00039 
0.00209173 -0.00418971 -1.0004 
0.00161562 -0.00336348 -1.00041 
0.00115124 -0.00229164 -1.00042 
0.000510362 -0.00144764 -1.00043 
3.21609e-05 -0.000430144 -1.00043 
-0.000326082 0.000915935 -1.00048 
-0.000624789 0.00215091 -1.00039 
-0.000449858 0.00317142 -1.00046 
-0.000471747 0.00422509 -1.0004 
-7.0495e-05 0.00481605 -1.00024 
-0.000140363 0.00439805 1.00025 
9.56705e-05 0.0040062 1.0004 
9.09125e-05 0.0033484 1.00044 
-1.02796e-05 0.00221141 1.00049 
-0.000284252 0.00109059 1.00044 
-0.000295641 3.23321e-05 1.00043 
-0.000848502 -0.000913357 1.00048 
-0.00136002 -0.00202467 1.00042 
-0.00178218 -0.00274594 1.00041 
-0.00229659 -0.00379995 1.0004 
-0.00302054 -0.00452148 1.0004 
-0.00349457 -0.00542752 1.00039 
-0.00406713 -0.00627086 1.00038 
-0.00464686 -0.00677241 1.00037 
-0.00525022 -0.00729309 1.00036 
-0.00591221 -0.00744284 1.00035 
-0.00677747 -0.00759861 1.00035 
-0.00772125 -0.00727449 1.00034 
-0.00906227 -0.00650061 1.00033 
-0.0104801 -0.00470992 1.00033 
-0.0123564 -0.0022841 1.00031 
-0.0146245 0.000799423 1.00028 
-0.017525 0.00338196 1.00023 
-0.02099 0.00698429 1.00015 
-0.024949 0.0113461 1.00003 
-0.0277325 0.0176838 0.99988 
-0.0275076 0.0246028 0.999749 
-0.0212752 0.0318468 0.999698 
-0.0116444 0.0419768 0.999479 
-0.00350274 0.0628379 0.998438 
0.0120669 0.0968624 0.995617 
0.0337729 0.138647 0.990094 
0.046775 0.20268 0.978375 
0.066643 0.258359 0.963971 
0.0730842 0.336222 0.939094 
0.105273 0.402036 0.909543 
0.10046 0.583046 0.806107 
0.0535741 0.773669 0.63116 
0.0110356 0.953904 0.296339 
0.000681044 0.99797 -0.0668917 
-0.11898 0.850327 -0.511717 
-0.0682286 0.694119 -0.717234 
-0.109622 0.561933 -0.819296 
-0.0898659 0.463901 -0.881338 
-0.0788318 0.361608 -0.929074 
-0.0736002 0.259222 -0.963225 
-0.0487964 0.184915 -0.981832 
-0.0204154 0.130916 -0.991576 
-0.00331491 0.0878468 -0.99653 
0.00658697 0.0552757 -0.998874 
0.0159646 0.0369536 -0.999623 
0.023204 0.0281445 -0.999767 
0.0287346 0.0215315 -0.999783 
0.0269802 0.0154398 -0.999936 
0.0235162 0.009775 -1.00008 
0.019927 0.00566479 -1.00018 
0.016604 0.00273071 -1.00025 
0.0140466 -0.000649637 -1.00029 
0.0118089 -0.00318783 -1.00032 
0.00975392 -0.00541371 -1.00033 
0.00830027 -0.00672524 -1.00034 
0.00717412 -0.00745381 -1.00034 
0.00627091 -0.0075661 -1.00035 
0.00558938 -0.00733461 -1.00036 
0.00493494 -0.00702656 -1.00036 
0.00437117 -0.00651437 -1.00037 
0.00383883 -0.00580194 -1.00038 
0.00336501 -0.00505198 -1.00039 
0.00277648 -0.00410996 -1.0004 
0.002276 -0.00333148 -1.00041 
0.00180612 -0.00251514 -1.00042 
0.0012268 -0.00140903 -1.00043 
0.000722034 -0.000509102 -1.00043 
0.000319281 0.000418158 -1.00039 
0.000216562 0.00138123 -1.00045 
-0.000131461 0.00206291 -1.00044 
-3.81207e-05 0.00299415 -1.00043 
-0.000136318 0.00387575 -1.00042 
9.13039e-05 0.00454573 -1.00024 
-9.53071e-05 0.00403871 1.00024 
-7.26472e-05 0.00389744 1.00041 
-0.000119127 0.00280923 1.00039 
-0.000345033 0.00196186 1.00044 
-0.000675488 0.00104974 1.00048 
-0.000673937 0.000196899 1.00039 
-0.0010736 -8.43755e-05 1.00042 
-0.00129558 -0.00107412 1.00042 
-0.00178673 -0.00175228 1.00041 
-0.0022117 -0.00280613 1.00041 
-0.00274147 -0.00358047 1.00041 
-0.00335491 -0.0043024 1.0004 
-0.00383496 -0.00519837 1.00039 
-0.0043506 -0.00593735 1.00038 
-0.00497214 -0.00647545 1.00037 
-0.00550344 -0.00664544 1.00036 
-0.00627486 -0.00676022 1.00036 
-0.00709544 -0.00637555 1.00035 
-0.00817038 -0.0057435 1.00035 
-0.0094218 -0.004067 1.00034 
-0.0109935 -0.00167087 1.00033 
-0.012911 0.00134804 1.00031 
-0.0152088 0.00468469 1.00027 
-0.0175546 0.00779464 1.00022 
-0.0195398 0.0112624 1.00016 
-0.0206302 0.0150586 1.0001 
-0.0191424 0.0200865 1.00005 
-0.0138041 0.0261494 1 
-0.00441467 0.0339871 0.999848 
0.0071664 0.0475751 0.99927 
0.0232739 0.0691739 0.997748 
0.0485983 0.0935266 0.994796 
0.0748275 0.131606 0.988811 
0.101488 0.192418 0.976285 
0.128679 0.268112 0.954824 
0.15244 0.384742 0.910476 
0.144894 0.537754 0.830625 
0.149776 0.634837 0.758225 
0.0946201 0.806487 0.584524 
-0.0427305 0.998195 0.0387744 
-0.0450941 0.871465 -0.489207 
-0.131643 0.664888 -0.73528 
-0.158378 0.480353 -0.862801 
-0.141226 0.3624 -0.921321 
-0.123816 0.263797 -0.956718 
-0.106969 0.173343 -0.97928 
-0.0770868 0.143363 -0.986959 
-0.0537532 0.105244 -0.993295 
-0.027809 0.0770461 -0.997023 
-0.0126273 0.0531419 -0.998917 
0.000892611 0.0369702 -0.999738 
0.00995948 0.0262776 -1.00004 
0.0183182 0.0216622 -1.00003 
0.0200385 0.0172448 -1.00008 
0.0201244 0.0130095 -1.00013 
0.018039 0.0089624 -1.00021 
0.0160654 0.00580426 -1.00026 
0.0137736 0.00223314 -1.0003 
0.0117424 -0.000646565 -1.00032 
0.0100073 -0.00325556 -1.00034 
0.00851527 -0.00491154 -1.00035 
0.00739 -0.0060791 -1.00035 
0.00650992 -0.00667052 -1.00036 
0.00578326 -0.00669117 -1.00036 
0.00512838 -0.00645793 -1.00037 
0.00454377 -0.00614298 -1.00037 
0.00404551 -0.00553735 -1.00037 
0.00359787 -0.00474536 -1.00038 
0.00309724 -0.00398118 -1.00039 
0.00258103 -0.0030007 -1.0004 
0.00209012 -0.0021505 -1.00041 
0.0016283 -0.00143896 -1.00041 
0.00114701 -0.00046557 -1.00047 
0.000719054 0.000439859 -1.00043 
0.000522311 0.00142835 -1.00044 
0.000249363 0.00240815 -1.00044 
0.000122051 0.00341688 -1.00044 
2.51552e-05 0.0039696 -1.0004 
0.000204701 0.00432192 -1.00024 
0.000270166 0.00412418 1.00023 
-8.22888e-07 0.00393712 1.0004 
-8.9112e-05 0.003551 1.00042 
-0.000311172 0.00285278 1.00043 
-0.000571817 0.00208579 1.00039 
-0.00106588 0.000753093 1.00043 
-0.00144305 -0.000311363 1.00042 
-0.00176404 -0.000979164 1.00041 
-0.00226823 -0.00189314 1.00041 
-0.00269228 -0.00263708 1.00041 
-0.00318996 -0.00343927 1.00041 
-0.0038328 -0.00438891 1.0004 
-0.00424087 -0.00520054 1.00039 
-0.00478989 -0.00566463 1.00038 
-0.00542737 -0.00584799 1.00037 
-0.00595952 -0.00600868 1.00037 
-0.00674643 -0.0057214 1.00036 
-0.00758726 -0.00513922 1.00036 
-0.00862881 -0.00372985 1.00036 
-0.00994732 -0.00175309 1.00034 
-0.011435 0.000920089 1.00033 
-0.0131783 0.00383855 1.0003 
-0.0149043 0.00701598 1.00027 
-0.0161088 0.00979846 1.00023 
-0.0162957 0.0120196 1.00022 
-0.0146922 0.0135879 1.00023 
-0.0106167 0.0153867 1.00026 
-0.0035052 0.0205451 1.00022 
0.00667911 0.0289899 0.999991 
0.0203916 0.0390859 0.99945 
0.0381232 0.053392 0.998242 
0.0655461 0.0678267 0.995889 
0.0956941 0.100834 0.990596 
0.129122 0.129153 0.98341 
0.15312 0.187372 0.970464 
0.183812 0.245446 0.95201 
0.195656 0.404395 0.893418 
0.20175 0.593885 0.777735 
0.138074 0.847809 0.510383 
0.0192817 0.999697 -0.00277173 
-0.121416 0.885235 -0.446508 
-0.180686 0.63051 -0.753804 
-0.200069 0.396258 -0.896072 
-0.177536 0.268855 -0.946828 
-0.152034 0.175421 -0.97288 
-0.117683 0.110378 -0.98716 
-0.0872599 0.08999 -0.992423 
-0.0575254 0.069615 -0.996315 
-0.03689 0.0524055 -0.998338 
-0.0176509 0.0391866 -0.999449 
-0.00408529 0.0267023 -1.0001 
0.00507821 0.0186095 -1.00025 
0.0104422 0.0151636 -1.00026 
0.0146399 0.0135061 -1.00023 
0.0161408 0.0117575 -1.00022 
0.0157972 0.00927795 -1.00024 
0.0145725 0.00606055 -1.00028 
0.0129139 0.00326411 -1.00031 
0.0110886 0.000220905 -1.00034 
0.00959239 -0.00242403 -1.00036 
0.00829414 -0.00416651 -1.00036 
0.00720905 -0.00521795 -1.00037 
0.00642832 -0.00583911 -1.00037 
0.00574959 -0.00598176 -1.00037 
0.00512563 -0.00578313 -1.00037 
0.00448835 -0.0054489 -1.00037 
0.00405867 -0.00484666 -1.00038 
0.0035984 -0.00405116 -1.00039 
0.00311493 -0.00324972 -1.0004 
0.00271209 -0.00223585 -1.00041 
0.00216213 -0.0014286 -1.00041 
0.00168277 -0.000769723 -1.00036 
0.00138069 9.21982e-05 -1.00042 
0.000965335 0.000750318 -1.00042 
0.000688095 0.0018069 -1.00043 
0.000429114 0.00261817 -1.00043 
0.000267839 0.00348388 -1.00042 
0.000152236 0.00404504 -1.0004 
1.68193e-05 0.00430622 -1.00023 
0.00042745 0.00449474 1.00023 
-1.50129e-05 0.00413217 1.0004 
-0.00021726 0.00347072 1.00042 
-0.000580283 0.00276483 1.00049 
-0.000858856 0.0017134 1.00044 
-0.00135854 0.00122834 1.00043 
-0.00156897 0.000389285 1.00038 
-0.00214059 -0.000168112 1.00047 
-0.00230411 -0.00103257 1.00037 
-0.00289921 -0.00181936 1.00041 
-0.00332343 -0.00255555 1.00041 
-0.00382393 -0.00353182 1.0004 
-0.00437493 -0.00429634 1.0004 
-0.00483536 -0.00496915 1.00038 
-0.0053497 -0.00527298 1.00038 
-0.00610263 -0.00533309 1.00037 
-0.00669949 -0.00518283 1.00037 
-0.00753569 -0.00446282 1.00037 
-0.00851168 -0.00323723 1.00036 
-0.00958713 -0.00142773 1.00035 
-0.0110012 0.00122697 1.00033 
-0.0123707 0.00407593 1.00031 
-0.0138478 0.00667566 1.00028 
-0.014648 0.00894972 1.00026 
-0.0143983 0.00972113 1.00026 
-0.0120303 0.00915951 1.00031 
-0.00766093 0.00863402 1.00037 
-0.000753129 0.010011 1.00038 
0.00835071 0.0144785 1.0003 
0.0212879 0.0214925 0.999965 
0.0434828 0.0279063 0.999075 
0.0672863 0.0364347 0.997447 
0.0971618 0.0604375 0.993775 
0.134869 0.0731242 0.988478 
0.171777 0.114215 0.97878 
0.216064 0.159887 0.963443 
0.221864 0.300816 0.927331 
0.188589 0.524743 0.830745 
0.102918 0.795884 0.597816 
-0.0302914 0.997472 0.0606592 
-0.0868241 0.820611 -0.56613 
-0.186146 0.566107 -0.803662 
-0.227077 0.281309 -0.932266 
-0.203089 0.151545 -0.96764 
-0.167369 0.10888 -0.980173 
-0.136104 0.0630165 -0.988968 
-0.0992284 0.0552875 -0.993871 
-0.0702482 0.0440824 -0.996917 
-0.0459901 0.0309308 -0.998859 
-0.0248352 0.0254549 -0.999766 
-0.0123243 0.0149697 -1.00025 
-0.00283453 0.0115079 -1.00031 
0.00409281 0.00729271 -1.0004 
0.00996714 0.00896589 -1.00034 
0.0133258 0.00979667 -1.00029 
0.0144882 0.00990813 -1.00026 
0.0143393 0.00802305 -1.00026 
0.0130422 0.00528797 -1.00029 
0.0115435 0.0026075 -1.00032 
0.0101344 -0.000285003 -1.00035 
0.0089638 -0.00245465 -1.00036 
0.00776257 -0.00415735 -1.00037 
0.00686334 -0.00507777 -1.00037 
0.00615281 -0.00533374 -1.00037 
0.00565442 -0.00521757 -1.00037 
0.00500346 -0.00513761 -1.00038 
0.00456271 -0.00466609 -1.00039 
0.00409574 -0.0039229 -1.0004 
0.00360568 -0.0029256 -1.00041 
0.00322362 -0.00211796 -1.00041 
0.0026485 -0.00120405 -1.00047 
0.00207683 -0.000340878 -1.00042 
0.00165334 0.000547194 -1.00043 
0.00117943 0.00124364 -1.00043 
0.000913619 0.002188 -1.00043 
0.000583005 0.00279642 -1.00043 
0.000412165 0.00354854 -1.00042 
0.000162245 0.00405371 -1.0004 
-0.000162908 0.00446283 -1.00023 
0.000423906 0.00505969 1.00023 
-8.87577e-05 0.00450947 1.0004 
-0.000365565 0.00360108 1.00043 
-0.000854367 0.0031332 1.00044 
-0.00103624 0.00232894 1.00044 
-0.00163743 0.00164538 1.00042 
-0.00201848 0.000775236 1.00042 
-0.00264915 7.19014e-05 1.00042 
-0.00290651 -0.000852174 1.00041 
-0.00343885 -0.00136567 1.00041 
-0.00385407 -0.00239492 1.00041 
-0.00426624 -0.00338165 1.0004 
-0.00474949 -0.00402555 1.00039 
-0.00515646 -0.004556 1.00042 
-0.00578786 -0.00480593 1.00033 
-0.00660402 -0.00467147 1.00041 
-0.0071716 -0.00431591 1.00032 
-0.00798378 -0.0032739 1.00041 
-0.00892657 -0.00177903 1.00032 
-0.009925 0.000455313 1.00034 
-0.0114132 0.00300972 1.00032 
-0.0124995 0.00560395 1.00029 
-0.0138351 0.00814161 1.00027 
-0.0136518 0.00871809 1.00027 
-0.0124463 0.0072586 1.00031 
-0.00899434 0.00359544 1.00038 
-0.00365549 0.00105986 1.00042 
0.00435682 -0.000245511 1.00043 
0.0143089 0.00134387 1.00033 
0.0275014 0.00501664 1.00002 
0.0469347 0.00228046 0.99931 
0.0801607 0.0119394 0.997094 
0.113585 0.0237395 0.993556 
0.15346 0.0260747 0.98811 
0.189037 0.0668405 0.979954 
0.223402 0.0691309 0.972444 
0.262421 0.161638 0.951789 
0.228801 0.495473 0.8383 
0.166194 0.796295 0.581403 
0.0415104 0.998762 0.0299576 
-0.150607 0.819678 -0.552577 
-0.220833 0.536159 -0.815011 
-0.258258 0.150257 -0.954801 
-0.219334 0.0659793 -0.973652 
-0.182822 0.0591813 -0.981605 
-0.146055 0.0130009 -0.989468 
-0.108875 0.013167 -0.9943 
-0.0742489 0.0113074 -0.997562 
-0.0490206 0.00635314 -0.999167 
-0.0272971 0.00486505 -1.00004 
-0.0125913 0.000677372 -1.00035 
-0.00354928 0.000711917 -1.00043 
0.00397806 0.000344317 -1.00043 
0.00930875 0.00446383 -1.00037 
0.0121009 0.00711877 -1.00032 
0.0137034 0.0086894 -1.00028 
0.0136297 0.00767104 -1.00026 
0.0125172 0.00545494 -1.0003 
0.0111389 0.00283467 -1.00032 
0.00988587 0.000474926 -1.00039 
0.00880021 -0.00186013 -1.00031 
0.00778503 -0.0034041 -1.00041 
0.00688578 -0.00447302 -1.00037 
0.00630641 -0.0049254 -1.00037 
0.00571514 -0.00489969 -1.00037 
0.00528774 -0.00444285 -1.00038 
0.00477559 -0.00404361 -1.00035 
0.00431034 -0.00325355 -1.0004 
0.00389596 -0.00234078 -1.00044 
0.0034141 -0.00139689 -1.00037 
0.00300813 -0.000486333 -1.00042 
0.0024238 7.68169e-05 -1.00043 
0.00211615 0.000894333 -1.00042 
0.00160247 0.00150179 -1.00042 
0.0013 0.00239759 -1.00042 
0.000850017 0.00314078 -1.00042 
0.000540001 0.00393004 -1.00042 
0.00016549 0.00439203 -1.00039 
-0.000201057 0.00492398 -1.00023 
-3.00852e-05 0.0056294 1.00021 
-0.000313171 0.00495045 1.0004 