# vtk DataFile Version 3.0 
Exported using Morpho https://github.com/Morpho-lang/morpho 
ASCII 
DATASET UNSTRUCTURED_GRID 

POINTS 1978 float 
-8.48528 -2.82843 -3.67252e-15 
-8.28131 -2.82843 2.634e-15 
-8.07223 -2.82843 -1.25765e-15 
-7.7925 -2.82843 -2.88105e-15 
-7.48146 -2.82843 7.81173e-16 
-7.21052 -2.82843 5.34104e-16 
-6.99936 -2.82843 -1.15306e-15 
-6.76485 -2.82843 -4.28758e-15 
-6.54941 -2.82843 -7.34318e-15 
-6.33408 -2.82843 -9.63656e-15 
-6.13388 -2.82843 -1.22918e-14 
-5.93522 -2.82843 -1.8147e-14 
-5.71428 -2.82843 -2.43302e-14 
-5.51224 -2.82843 -2.76349e-14 
-5.29388 -2.82843 -3.11332e-14 
-5.08306 -2.82843 -3.23582e-14 
-4.86063 -2.82843 -2.83064e-14 
-4.66031 -2.82843 -1.66077e-14 
-4.43199 -2.82843 3.80787e-15 
-4.21832 -2.82843 4.81302e-14 
-3.99512 -2.82843 9.13019e-14 
-3.79215 -2.82843 1.2959e-13 
-3.58752 -2.82843 1.37735e-13 
-3.38237 -2.82843 1.4031e-13 
-3.17641 -2.82843 9.06273e-14 
-2.96889 -2.82843 -3.80884e-13 
-2.75796 -2.82843 -2.34335e-12 
-2.53892 -2.82843 -8.63444e-12 
-2.31606 -2.82843 -2.72888e-11 
-2.08246 -2.82843 -7.36557e-11 
-1.85184 -2.82843 -1.63995e-10 
-1.62936 -2.82843 -3.23385e-10 
-1.40473 -2.82843 -6.3993e-10 
-1.17327 -2.82843 -3.27936e-10 
-1.01101 -2.82843 6.99227e-10 
-0.862641 -2.82843 2.61193e-09 
-0.76659 -2.82843 4.20016e-09 
-0.653939 -2.82843 9.95025e-09 
-0.33128 -2.82843 2.79219e-08 
0.1452 -2.82843 -4.56869e-09 
0.238446 -2.82843 -5.63277e-08 
0.59964 -2.82843 -2.5469e-08 
0.756168 -2.82843 -5.93771e-09 
0.903987 -2.82843 -1.35515e-09 
1.06602 -2.82843 -1.63672e-10 
1.19887 -2.82843 1.0107e-10 
1.38495 -2.82843 4.60067e-10 
1.59564 -2.82843 3.61462e-10 
1.83118 -2.82843 2.19526e-10 
2.06843 -2.82843 9.3149e-11 
2.30343 -2.82843 3.01488e-11 
2.53849 -2.82843 7.44113e-12 
2.76671 -2.82843 2.15765e-12 
2.98064 -2.82843 6.03979e-13 
3.20167 -2.82843 -9.89542e-14 
3.40424 -2.82843 -9.87806e-14 
3.6157 -2.82843 -1.85184e-13 
3.80758 -2.82843 -8.16385e-14 
4.02239 -2.82843 -6.21826e-14 
4.24549 -2.82843 -3.42302e-14 
4.44319 -2.82843 5.09153e-15 
4.65789 -2.82843 2.37764e-14 
4.86641 -2.82843 3.19693e-14 
5.06858 -2.82843 3.54059e-14 
5.28642 -2.82843 3.15997e-14 
5.49889 -2.82843 2.54788e-14 
5.69856 -2.82843 2.31001e-14 
5.91936 -2.82843 1.9417e-14 
6.13998 -2.82843 1.35543e-14 
6.33766 -2.82843 1.02972e-14 
6.58477 -2.82843 6.64613e-15 
6.79306 -2.82843 3.01521e-15 
6.99555 -2.82843 1.27645e-15 
7.26058 -2.82843 4.65018e-17 
7.49621 -2.82843 -3.95894e-16 
7.75279 -2.82843 1.77325e-15 
8.01928 -2.82843 1.90853e-15 
8.198 -2.82843 -3.72647e-16 
8.48528 -2.82843 -7.65801e-15 
-8.48528 -2.61158 7.92824e-15 
-8.24982 -2.57795 -8.39865e-15 
-8.0395 -2.54908 1.87268e-15 
-7.84629 -2.63736 2.19297e-15 
-7.57686 -2.64988 5.42817e-16 
-7.26441 -2.62783 -5.56039e-16 
-7.00556 -2.57755 -8.49298e-16 
-6.79227 -2.60944 -1.12799e-16 
-6.55035 -2.59773 2.15671e-16 
-6.33524 -2.57931 1.87574e-15 
-6.12145 -2.58777 2.6306e-15 
-5.89827 -2.60373 5.06543e-15 
-5.68617 -2.5791 8.38036e-15 
-5.469 -2.59738 9.5389e-15 
-5.25141 -2.59033 1.16422e-14 
-5.0296 -2.60386 1.20746e-14 
-4.82222 -2.57944 1.19698e-14 
-4.59921 -2.60961 5.86338e-15 
-4.37911 -2.5956 7.49996e-16 
-4.15711 -2.60581 -2.58295e-14 
-3.9469 -2.58555 -3.27689e-14 
-3.73893 -2.59027 -2.74722e-14 
-3.52571 -2.59278 -8.23766e-20 
-3.31065 -2.59425 -3.74062e-19 
-3.09155 -2.59218 -9.54313e-19 
-2.86938 -2.58901 -2.10057e-18 
-2.63913 -2.58877 -5.02071e-18 
-2.40155 -2.58364 -1.46802e-17 
-2.15873 -2.58882 -4.55665e-17 
-1.91339 -2.58604 -1.37197e-16 
-1.68118 -2.58778 -3.61202e-16 
-1.46392 -2.61205 -8.45111e-16 
-1.25907 -2.65 -1.75235e-15 
-1.07829 -2.63263 -2.85441e-15 
-0.928658 -2.66224 -3.7679e-15 
-0.811271 -2.64075 -4.70657e-15 
-0.70575 -2.7033 -6.12451e-15 
-0.560869 -2.784 -8.32857e-15 
-0.169145 -2.85571 -5.97258e-14 
0.0899948 -2.9298 1.42679e-15 
0.313392 -2.75434 7.57e-15 
0.497863 -2.78678 1.12623e-15 
0.674166 -2.73479 4.91618e-15 
0.832142 -2.69554 5.10073e-15 
0.995149 -2.67666 3.55699e-15 
1.14544 -2.58654 2.41083e-15 
1.30978 -2.61544 1.43165e-15 
1.5236 -2.60569 7.51476e-16 
1.76826 -2.60822 2.99389e-16 
2.02541 -2.59692 1.04122e-16 
2.28252 -2.58797 2.89649e-17 
2.52846 -2.58905 7.05154e-18 
2.76831 -2.5898 2.73779e-18 
3.00625 -2.60155 1.18458e-18 
3.22428 -2.58713 4.8207e-19 
3.44641 -2.60072 1.9186e-19 
3.64781 -2.57751 5.5667e-20 
3.86336 -2.60135 -3.92402e-15 
4.08918 -2.60831 2.0542e-14 
4.2976 -2.57758 2.68471e-15 
4.51197 -2.59897 -9.78751e-15 
4.72742 -2.5924 -1.43686e-14 
4.93876 -2.5862 -1.59592e-14 
5.15422 -2.60325 -1.36845e-14 
5.3756 -2.5975 -9.69742e-15 
5.58495 -2.58058 -8.79824e-15 
5.7995 -2.60334 -6.68164e-15 
6.02534 -2.60097 -3.94521e-15 
6.23852 -2.57075 -2.68738e-15 
6.45852 -2.62016 -7.89436e-16 
6.68608 -2.57758 2.41248e-17 
6.89401 -2.56563 4.36438e-16 
7.12415 -2.62629 6.20715e-16 
7.3782 -2.59771 9.77991e-17 
7.62255 -2.61788 -1.01836e-15 
7.88353 -2.62908 -2.20706e-15 
8.08754 -2.53049 -1.81963e-15 
8.3028 -2.63911 1.65656e-14 
8.48528 -2.53899 -3.10746e-15 
-8.48528 -2.38742 -3.53264e-15 
-8.22848 -2.34787 1.77146e-15 
-7.96933 -2.32052 8.05198e-16 
-7.75372 -2.42421 8.4914e-16 
-7.58043 -2.27145 1.98242e-16 
-7.45797 -2.47345 4.38868e-16 
-7.1817 -2.40114 -2.45067e-16 
-6.94053 -2.33549 2.38722e-16 
-6.70877 -2.39563 4.13831e-16 
-6.47532 -2.36318 1.33181e-15 
-6.23346 -2.34874 2.5995e-15 
-6.0126 -2.369 4.125e-15 
-5.79951 -2.35558 5.9505e-15 
-5.56821 -2.35246 7.40592e-15 
-5.35688 -2.36222 7.88261e-15 
-5.13054 -2.36877 7.23252e-15 
-4.92544 -2.34978 4.72276e-15 
-4.6962 -2.37178 -2.79421e-16 
-4.48324 -2.37483 -1.18969e-14 
-4.25728 -2.37519 -3.20798e-14 
-4.04952 -2.35849 5.30252e-20 
-3.8356 -2.34893 7.10997e-20 
-3.62553 -2.36091 4.97923e-20 
-3.40855 -2.36234 -8.03479e-20 
-3.1899 -2.3639 -4.50608e-19 
-2.96534 -2.35722 -1.1414e-18 
-2.73401 -2.35709 -2.74393e-18 
-2.49419 -2.35336 -7.25015e-18 
-2.24322 -2.35328 -2.21894e-17 
-1.99425 -2.35512 -6.34889e-17 
-1.74913 -2.3519 -1.64919e-16 
-1.51909 -2.37981 -2.904e-16 
-1.3106 -2.42892 -6.60525e-16 
-1.13273 -2.44621 -9.5921e-16 
-0.960707 -2.48025 -9.99891e-16 
-0.8243 -2.47285 -8.98064e-16 
-0.599211 -2.66176 -8.09779e-15 
-0.405634 -2.74605 -8.41041e-15 
-0.277526 -2.70335 -6.04135e-15 
-0.0159469 -2.79648 3.37078e-14 
0.187047 -2.67283 -1.27562e-14 
0.430263 -2.68917 5.13275e-15 
0.694508 -2.61773 2.78048e-15 
0.843042 -2.55808 2.66916e-15 
0.977392 -2.49992 1.70275e-15 
1.11449 -2.38911 7.96231e-16 
1.29051 -2.39304 6.37811e-16 
1.4775 -2.3937 3.21692e-16 
1.70877 -2.39659 1.76714e-16 
1.95646 -2.37879 6.97809e-17 
2.20868 -2.36541 2.37267e-17 
2.46174 -2.35447 7.62396e-18 
2.69599 -2.36274 2.66712e-18 
2.94012 -2.37024 1.10036e-18 
3.15925 -2.35383 4.98259e-19 
3.38118 -2.37133 1.20404e-19 
3.5883 -2.33618 2.21246e-14 
3.79772 -2.36409 -6.30669e-20 
4.0117 -2.38362 -5.59931e-20 
4.21878 -2.34912 3.83492e-14 
4.44107 -2.35766 1.77278e-14 
4.64807 -2.36121 2.87289e-15 
4.86129 -2.35332 -3.82122e-15 
5.07922 -2.36425 -6.81602e-15 
5.29093 -2.37576 -7.77841e-15 
5.50619 -2.34816 -6.80028e-15 
5.72662 -2.36119 -6.08274e-15 
5.93967 -2.37787 -4.83178e-15 
6.156 -2.34449 -3.27571e-15 
6.39412 -2.37003 -1.88679e-15 
6.60031 -2.36479 -9.97374e-16 
6.82886 -2.31445 -4.50196e-16 
7.05933 -2.37624 1.99934e-16 
7.28213 -2.39639 2.02847e-17 
7.54984 -2.38626 -5.10433e-16 
7.78906 -2.41573 -1.007e-15 
8.00182 -2.31591 -8.09667e-16 
8.26624 -2.36733 -9.21255e-15 
8.48528 -2.29408 7.26926e-15 
-8.48528 -2.12949 4.89036e-15 
-8.27437 -2.13413 -1.57186e-15 
-8.04605 -2.10129 -4.527e-16 
-7.78508 -2.13638 -1.43295e-16 
-7.51985 -2.04948 -1.44307e-16 
-7.32986 -2.24127 6.87531e-17 
-7.0816 -2.14283 -8.93091e-17 
-6.80346 -2.14254 1.95621e-16 
-6.59601 -2.15198 6.41746e-16 
-6.35645 -2.14755 1.08885e-15 
-6.1179 -2.11971 1.5483e-15 
-5.91498 -2.12234 2.43861e-15 
-5.68942 -2.13516 2.87464e-15 
-5.46448 -2.11472 2.63072e-15 
-5.24996 -2.14262 2.27455e-15 
-5.0428 -2.1132 5.88521e-16 
-4.81966 -2.14067 -2.57871e-15 
-4.60552 -2.13841 -8.9786e-15 
-4.3898 -2.15257 -1.79036e-14 
-4.18409 -2.1281 -3.42173e-14 
-3.97524 -2.12228 5.13697e-20 
-3.76294 -2.11629 7.92636e-20 
-3.55296 -2.13222 9.40687e-20 
-3.33747 -2.13055 8.80245e-20 
-3.1212 -2.13057 8.16963e-20 
-2.89569 -2.125 1.35892e-19 
-2.6652 -2.12531 2.08242e-19 
-2.4235 -2.1264 1.34878e-19 
-2.18031 -2.12259 3.80238e-19 
-1.94182 -2.12475 2.34976e-18 
-1.70578 -2.13182 1.56801e-17 
-1.50537 -2.13973 -8.53083e-17 
-1.32243 -2.2114 -9.40658e-17 
-1.13787 -2.2365 2.22776e-17 
-0.982661 -2.2985 -6.96926e-17 
-0.834972 -2.32246 -5.7694e-16 
-0.707081 -2.5593 -3.03937e-15 
-0.473561 -2.67397 -4.85866e-15 
-0.177658 -2.76449 -9.77424e-15 
0.0436967 -2.755 -4.18419e-15 
0.322664 -2.61675 -4.87916e-14 
0.561619 -2.66127 4.76465e-15 
0.687039 -2.5048 3.2328e-15 
0.823586 -2.40109 2.12188e-16 
0.958549 -2.30471 4.96931e-16 
1.15137 -2.19641 -1.06487e-16 
1.32313 -2.17413 3.86358e-17 
1.53708 -2.18719 2.79058e-17 
1.76559 -2.17665 4.16994e-17 
2.011 -2.15301 1.34469e-17 
2.26345 -2.14219 2.39298e-18 
2.50216 -2.11645 1.33392e-19 
2.74645 -2.14614 1.40396e-19 
2.96763 -2.12676 -3.91462e-14 
3.19666 -2.12825 2.89019e-14 
3.40456 -2.12809 -5.66624e-20 
3.62181 -2.10404 -8.2752e-20 
3.83672 -2.13907 -6.16502e-20 
4.03933 -2.13877 -4.60552e-20 
4.26851 -2.12916 2.86651e-14 
4.477 -2.11635 1.43623e-14 
4.68938 -2.12629 5.71474e-15 
4.90984 -2.1276 4.68364e-16 
5.12485 -2.13113 -1.59327e-15 
5.3348 -2.13995 -2.40958e-15 
5.56424 -2.12534 -2.69576e-15 
5.78017 -2.12884 -2.54411e-15 
5.99036 -2.13697 -1.96945e-15 
6.23948 -2.13938 -1.5634e-15 
6.44902 -2.11546 -8.93891e-16 
6.66207 -2.12145 -3.7672e-16 
6.92826 -2.11023 -2.00617e-16 
7.14614 -2.14258 3.56069e-17 
7.3837 -2.18964 -1.14517e-16 
7.57708 -2.09341 2.45776e-16 
7.75723 -2.18161 -7.90025e-17 
7.96317 -2.0718 4.19651e-17 
8.19223 -2.14656 7.51978e-17 
8.48528 -2.10834 -2.33857e-15 
-8.48528 -1.80537 1.5406e-15 
-8.31775 -1.8945 -2.59754e-16 
-7.91171 -1.9084 -3.26761e-16 
-7.68067 -1.89198 -1.60612e-16 
[...]
POINT_DATA 1978 
VECTORS vectors float
-3.59269e-05 0.00214561 0.999998 
1.86487e-05 0.00434401 0.999991 
2.7555e-05 0.00344948 0.999994 
3.41567e-05 0.00201798 0.999998 
3.13945e-05 0.000167298 1 
2.39328e-05 -0.00126582 0.999999 
1.50239e-05 -0.00231715 0.999997 
1.2166e-05 -0.00346635 0.999994 
3.36505e-06 -0.0044552 0.99999 
-5.0055e-06 -0.00525737 0.999986 
-7.10206e-06 -0.00604056 0.999982 
-1.39825e-05 -0.00676752 0.999977 
-1.65199e-05 -0.0075977 0.999971 
-2.78668e-05 -0.00829564 0.999966 
-3.14052e-05 -0.00897126 0.99996 
-4.31083e-05 -0.0095312 0.999955 
-5.18575e-05 -0.0100137 0.99995 
-7.11895e-05 -0.0102762 0.999947 
-7.78349e-05 -0.0103764 0.999946 
-0.000108251 -0.010156 0.999948 
-0.000132609 -0.00950611 0.999955 
-0.000183844 -0.0085073 0.999964 
-0.000218862 -0.00712787 0.999975 
-0.000265866 -0.00540308 0.999985 
-0.00032597 -0.00301672 0.999995 
-0.00039401 0.000705308 1 
-0.000458388 0.00656873 0.999978 
-0.000537989 0.0158991 0.999873 
-0.000647556 0.0309392 0.999521 
-0.000803598 0.0560102 0.99843 
-0.00109108 0.094043 0.995568 
-0.0014318 0.147248 0.989099 
-0.00134865 0.220129 0.97547 
-0.00234198 0.322982 0.946402 
-0.00319278 0.413719 0.910399 
-0.00516546 0.507389 0.861702 
-0.00562025 0.570677 0.821155 
-0.004953 0.641638 0.766992 
-0.00207869 0.892211 0.451613 
-0.00265102 0.990138 -0.14007 
0.00127765 0.934628 -0.355625 
0.00159305 0.673121 -0.739531 
0.00328819 0.575812 -0.817576 
0.00334396 0.47373 -0.880664 
0.00354224 0.381723 -0.92427 
0.00303577 0.312393 -0.949948 
0.001604 0.234228 -0.97218 
0.00134513 0.164788 -0.986328 
0.00117104 0.10305 -0.994676 
0.000931901 0.0575227 -0.998344 
0.000640232 0.0297551 -0.999557 
0.00052046 0.0144568 -0.999895 
0.000424869 0.00615705 -0.999981 
0.000370833 0.000932259 -0.999999 
0.000313412 -0.00285985 -0.999996 
0.000268662 -0.00550344 -0.999985 
0.000227058 -0.00752896 -0.999972 
0.000177625 -0.00887487 -0.999961 
0.000121371 -0.00975016 -0.999952 
0.000106473 -0.0102763 -0.999947 
8.60054e-05 -0.01048 -0.999945 
6.14001e-05 -0.0103283 -0.999947 
5.26958e-05 -0.00994882 -0.999951 
3.9924e-05 -0.00943049 -0.999956 
3.17256e-05 -0.0087889 -0.999961 
2.89341e-05 -0.00815539 -0.999967 
2.02095e-05 -0.00750646 -0.999972 
1.3452e-05 -0.00672539 -0.999977 
1.04449e-05 -0.00593415 -0.999982 
2.3856e-06 -0.00518844 -0.999987 
-6.6242e-07 -0.00424292 -0.999991 
-9.95415e-06 -0.00339914 -0.999994 
-1.74362e-05 -0.00242106 -0.999997 
-2.09361e-05 -0.000998304 -1 
-2.77814e-05 0.00028958 -1 
-2.55768e-05 0.0017601 -0.999998 
-3.07907e-05 0.00324315 -0.999995 
-2.1138e-05 0.0040327 -0.999992 
4.44039e-05 0.00150033 -0.999999 
0.00012242 -0.000124441 1 
0.000307856 0.00373628 0.999993 
0.000395665 0.00306721 0.999995 
0.00034351 0.00228072 0.999997 
0.000237703 0.000831677 1 
3.4175e-05 -0.0007662 1 
-0.000246823 -0.00190424 0.999998 
-0.000428308 -0.00293804 0.999996 
-0.000758256 -0.00396858 0.999992 
-0.00114584 -0.00475753 0.999988 
-0.00139911 -0.0055492 0.999984 
-0.00160971 -0.00644308 0.999978 
-0.00212255 -0.00711808 0.999972 
-0.00232655 -0.00785133 0.999966 
-0.00277983 -0.00840828 0.999961 
-0.003089 -0.00892707 0.999955 
-0.00389005 -0.00909471 0.999951 
-0.00411686 -0.00931472 0.999948 
-0.0051757 -0.00896198 0.999946 
-0.00606557 -0.00835362 0.999947 
-0.00792316 -0.00701717 0.999944 
-0.00957474 -0.00553339 0.999939 
-0.0116617 -0.00358861 0.999926 
-0.0140464 -0.00105364 0.999901 
-0.0165606 0.00259709 0.999859 
-0.0187199 0.00802441 0.999793 
-0.01986 0.0162517 0.999671 
-0.0202759 0.0294046 0.999362 
-0.0194252 0.0506565 0.998527 
-0.0188014 0.0849739 0.996206 
-0.0169647 0.133036 0.990966 
-0.0137466 0.196365 0.980435 
-0.0100704 0.279474 0.960101 
0.000426761 0.368689 0.929553 
0.00633109 0.46132 0.887211 
0.026299 0.534412 0.844815 
0.0192478 0.605947 0.795272 
0.00244123 0.709706 0.704494 
-0.0159817 0.961737 0.273508 
3.01177e-05 0.998396 -0.0566153 
-0.0245428 0.883991 -0.466859 
-0.0105129 0.75441 -0.65632 
-0.0219436 0.621874 -0.78281 
-0.00893307 0.5203 -0.853937 
0.000918218 0.416126 -0.909307 
0.00114373 0.330164 -0.943923 
0.0109187 0.257544 -0.966205 
0.0152739 0.180872 -0.983388 
0.0177896 0.115317 -0.993169 
0.0192311 0.0667556 -0.997584 
0.0198607 0.0367653 -0.999127 
0.0191801 0.0200427 -0.999615 
0.0189575 0.0107122 -0.999763 
0.0165177 0.00431419 -0.999854 
0.0151931 0.000574603 -0.999884 
0.0122597 -0.00283708 -0.999921 
0.0109366 -0.00467641 -0.999929 
0.0081939 -0.00679522 -0.999943 
0.0064225 -0.00815007 -0.999946 
0.00581839 -0.00866771 -0.999946 
0.00454164 -0.00921832 -0.999947 
0.00390931 -0.00921 -0.99995 
0.00343925 -0.00892593 -0.999954 
0.00279475 -0.00854904 -0.99996 
0.00248889 -0.00795825 -0.999965 
0.00228498 -0.00731285 -0.999971 
0.00180994 -0.00668398 -0.999976 
0.00152115 -0.00589682 -0.999981 
0.00137097 -0.0050594 -0.999986 
0.000859152 -0.00435224 -0.99999 
0.000695824 -0.00336177 -0.999994 
0.000437518 -0.00245478 -0.999997 
8.91549e-05 -0.00148919 -0.999999 
-0.000118012 -0.000176392 -1 
-0.000269815 0.00108841 -0.999999 
-0.000347335 0.0024492 -0.999997 
-0.000383385 0.00330502 -0.999994 
-0.000253059 0.00395587 -0.999992 
-0.000162409 -0.000764775 -1 
3.50934e-05 -0.00016697 1 
0.000271642 0.00346508 0.999994 
0.000298424 0.00266465 0.999996 
0.000321184 0.00176211 0.999998 
8.06507e-05 0.00110547 0.999999 
0.000136212 0.000323036 1 
-0.00027127 -0.000835096 1 
-0.00072105 -0.00175288 0.999998 
-0.00100244 -0.00284756 0.999995 
-0.00151615 -0.00367422 0.999992 
-0.00209512 -0.00458189 0.999987 
-0.00248609 -0.00545796 0.999982 
-0.00301291 -0.00614496 0.999977 
-0.00356186 -0.0068363 0.99997 
-0.00403852 -0.00740626 0.999964 
-0.00464066 -0.00785744 0.999958 
-0.00540593 -0.00798815 0.999953 
-0.00620121 -0.00805617 0.999948 
-0.00722605 -0.00767589 0.999944 
-0.00864223 -0.00674898 0.99994 
-0.0104622 -0.00522877 0.999932 
-0.0128108 -0.0031831 0.999913 
-0.0154194 -0.0010826 0.999881 
-0.018671 0.00174335 0.999824 
-0.0219344 0.00523781 0.999746 
-0.0247388 0.0101577 0.999642 
-0.0261455 0.0169097 0.999515 
-0.0257141 0.0270393 0.999304 
-0.0233293 0.0433988 0.998785 
-0.0189539 0.0692744 0.997418 
-0.0108968 0.108028 0.994088 
-0.00121671 0.162473 0.986712 
0.00703776 0.233954 0.972222 
0.0239209 0.307553 0.95123 
0.0435167 0.402647 0.91432 
0.0711506 0.478115 0.875411 
0.0495812 0.669989 0.740713 
0.0211254 0.807753 0.589143 
0.0342561 0.892426 0.449891 
0.00101777 0.998527 0.0542485 
-0.0508787 0.930316 -0.363212 
-0.0514389 0.805543 -0.5903 
-0.0625087 0.601865 -0.796148 
-0.0414823 0.499215 -0.865485 
-0.0357667 0.410757 -0.911043 
-0.0363434 0.31491 -0.948425 
-0.0141365 0.239269 -0.97085 
0.0020241 0.176106 -0.984369 
0.0138754 0.118974 -0.9928 
0.0196047 0.0741806 -0.997052 
0.0232155 0.0453715 -0.9987 
0.0253049 0.0277108 -0.999296 
0.0258579 0.017659 -0.99951 
0.0243984 0.0104554 -0.999648 
0.0222356 0.00608443 -0.999734 
0.0188756 0.00197549 -0.99982 
0.0162677 -0.000317235 -0.999868 
0.0132223 -0.00312169 -0.999908 
0.0106579 -0.00526654 -0.999929 
0.00911818 -0.00632712 -0.999938 
0.0075073 -0.00742586 -0.999944 
0.00638548 -0.00793175 -0.999948 
0.00554275 -0.00798361 -0.999953 
0.00475425 -0.00783123 -0.999958 
0.00412541 -0.00748858 -0.999963 
0.00371441 -0.00688807 -0.999969 
0.00318047 -0.00629361 -0.999975 
0.0026787 -0.00564455 -0.99998 
0.00233366 -0.00479977 -0.999986 
0.00176863 -0.00399874 -0.99999 
0.00136901 -0.0032061 -0.999994 
0.00100953 -0.00218195 -0.999997 
0.000494339 -0.00133972 -0.999999 
0.000135677 -0.000364955 -1 
-0.000159344 0.000895602 -1 
-0.000341825 0.00201325 -0.999998 
-0.000320301 0.00291155 -0.999996 
-0.000276973 0.0035932 -0.999994 
-9.04336e-05 0.00012952 -1 
-0.000153275 -0.000601826 1 
7.5624e-05 0.00334562 0.999994 
8.84294e-05 0.00295175 0.999996 
3.47672e-05 0.00201827 0.999998 
-0.000278457 0.00105402 0.999999 
-0.000252619 5.8353e-05 1 
-0.000772974 -0.000808231 0.999999 
-0.00125074 -0.00192441 0.999997 
-0.00165179 -0.00270943 0.999995 
-0.00215865 -0.00363128 0.999991 
-0.00277008 -0.00442471 0.999986 
-0.00322304 -0.00514847 0.999982 
-0.00376224 -0.00588478 0.999976 
-0.00436074 -0.00641411 0.99997 
-0.00491273 -0.00689679 0.999964 
-0.00561205 -0.0069801 0.99996 
-0.00641871 -0.00703576 0.999955 
-0.00740918 -0.00660212 0.999951 
-0.00862186 -0.00578181 0.999946 
-0.0101167 -0.00419892 0.99994 
-0.0119455 -0.0022056 0.999926 
-0.0142125 0.000289529 0.999899 
-0.0168595 0.00281704 0.999854 
-0.0196716 0.00605155 0.999788 
-0.0220962 0.00978724 0.999708 
-0.0232574 0.0146607 0.999622 
-0.0225144 0.0211288 0.999523 
-0.0192218 0.0308373 0.99934 
-0.0128427 0.0456229 0.998876 
-0.0031889 0.067749 0.997697 
0.0115325 0.100733 0.994847 
0.029577 0.14002 0.989707 
0.0420919 0.196174 0.979665 
0.0669297 0.257388 0.963987 
0.0828333 0.340921 0.936436 
0.117705 0.416464 0.901501 
0.07752 0.584654 0.807571 
0.0536157 0.749614 0.6597 
0.0120842 0.962141 0.272285 
-0.00518239 0.999898 -0.0132788 
-0.0860519 0.865014 -0.494313 
-0.0566023 0.698961 -0.712917 
-0.0984181 0.563377 -0.820317 
-0.0965181 0.454795 -0.88535 
-0.0880154 0.356813 -0.93002 
-0.0715192 0.247549 -0.966232 
-0.0452745 0.18787 -0.98115 
-0.0185594 0.136787 -0.990427 
-0.00184725 0.093794 -0.99559 
0.00799364 0.0602675 -0.99815 
0.0159232 0.0386525 -0.999126 
0.0200378 0.0261345 -0.999458 
0.023244 0.0179804 -0.999568 
0.0227756 0.0128716 -0.999658 
0.0211432 0.00841681 -0.999741 
0.0187278 0.00500499 -0.999812 
0.0159529 0.00210937 -0.999871 
0.0134547 -0.000922192 -0.999909 
0.0113734 -0.00301538 -0.999931 
0.00944734 -0.00485592 -0.999944 
0.00805874 -0.00597925 -0.99995 
0.00692348 -0.00672583 -0.999953 
0.00599244 -0.00700294 -0.999958 
0.00525539 -0.00693299 -0.999962 
0.00463238 -0.00666852 -0.999967 
0.00407268 -0.00612514 -0.999973 
0.00356637 -0.00553752 -0.999978 
0.00308524 -0.00488345 -0.999983 
0.00253293 -0.00400536 -0.999989 
0.00210424 -0.00318362 -0.999993 
0.00163951 -0.00240388 -0.999996 
0.00112338 -0.00135857 -0.999998 
0.000689055 -0.000542515 -1 
0.000264103 0.00039195 -1 
0.000180506 0.00130325 -0.999999 
-8.47898e-05 0.00195745 -0.999998 
-4.99004e-05 0.00278179 -0.999996 
-0.00012525 0.00336927 -0.999994 
9.83068e-05 8.56102e-05 -1 
-4.13874e-05 -0.000626007 1 
-4.07995e-05 0.00318418 0.999995 
-0.000127814 0.00260248 0.999997 
-0.000323027 0.00180975 0.999998 
-0.000676685 0.00102521 0.999999 
-0.000645639 0.00019123 1 
-0.00106695 -7.8162e-05 0.999999 
-0.00125015 -0.00103069 0.999999 
-0.00174165 -0.00173937 0.999997 
-0.00214262 -0.00265224 0.999994 
-0.00264087 -0.00346367 0.999991 
-0.00322133 -0.00411084 0.999986 
-0.00367199 -0.00492303 0.999981 
-0.00421676 -0.00554768 0.999976 
-0.00483789 -0.00597997 0.99997 
-0.00541441 -0.00617677 0.999966 
-0.00619152 -0.0061685 0.999962 
-0.00705495 -0.00578743 0.999958 
-0.0081543 -0.00489835 0.999955 
-0.00939748 -0.00341386 0.99995 
-0.0109318 -0.00133942 0.999939 
-0.0127134 0.00107997 0.999919 
-0.0147604 0.00384304 0.999884 
-0.0167376 0.00658317 0.999838 
-0.0181713 0.00973198 0.999788 
-0.0184728 0.013197 0.999742 
-0.0166179 0.0177088 0.999705 
-0.0123691 0.024184 0.999631 
-0.0045385 0.0339499 0.999413 
0.00753255 0.0485687 0.998791 
0.0238321 0.0707792 0.997207 
0.0480977 0.0980611 0.994017 
0.0725104 0.140929 0.987361 
0.0981558 0.188941 0.977071 
0.124163 0.266501 0.955804 
0.158768 0.339 0.927293 
0.126387 0.537194 0.833936 
0.122091 0.663658 0.738005 
0.0848181 0.856592 0.508976 
-0.0203393 0.999228 0.0336137 
-0.0190925 0.872719 -0.48785 
-0.114848 0.708327 -0.696478 
-0.165418 0.448435 -0.878375 
-0.150488 0.347073 -0.925685 
-0.121203 0.263816 -0.956928 
-0.104169 0.179839 -0.978165 
-0.0713757 0.141327 -0.987387 
-0.047756 0.106546 -0.99316 
-0.0262921 0.0805123 -0.996407 
-0.0109227 0.05617 -0.998361 
0.0018697 0.0379195 -0.999279 
0.0092892 0.0260636 -0.999617 
0.0158556 0.0190718 -0.999692 
0.0176317 0.0144637 -0.99974 
0.0183362 0.0108526 -0.999773 
0.017076 0.00771959 -0.999824 
0.0154502 0.00494691 -0.999868 
0.0134573 0.00183181 -0.999908 
0.0116074 -0.00051609 -0.999933 
0.00998239 -0.00278333 -0.999946 
0.00849778 -0.00426829 -0.999955 
0.0073496 -0.00539972 -0.999958 
0.00642129 -0.00602589 -0.999961 
0.00565272 -0.00617961 -0.999965 
0.00500676 -0.00605324 -0.999969 
0.00445428 -0.00574408 -0.999974 
0.00392735 -0.00514369 -0.999979 
0.00345001 -0.00449494 -0.999984 
0.00294276 -0.0038349 -0.999988 
0.00251483 -0.0028975 -0.999993 
0.00206174 -0.00209908 -0.999996 
0.00157083 -0.00138041 -0.999998 
0.00112968 -0.000364916 -0.999999 
0.000702033 0.000403368 -1 
0.000508553 0.0013778 -0.999999 
0.000237968 0.00226439 -0.999997 
0.000130359 0.00306836 -0.999995 
5.49274e-05 0.00338756 -0.999994 
0.000144574 -0.000346591 -1 
0.000221599 -0.000129863 1 
-1.06727e-05 0.00327302 0.999995 
-8.06923e-05 0.00316041 0.999995 
-0.000321042 0.00266609 0.999996 
-0.000577856 0.00195882 0.999998 
-0.00105267 0.000783347 0.999999 
-0.00149212 -0.000249406 0.999999 
-0.00176845 -0.000946372 0.999998 
-0.00225923 -0.00184974 0.999996 
-0.0026701 -0.00261915 0.999993 
-0.00314539 -0.00329102 0.99999 
-0.00372433 -0.00411589 0.999985 
-0.00416211 -0.00477816 0.99998 
-0.00469881 -0.00527729 0.999975 
-0.00531365 -0.00540453 0.999971 
-0.00591963 -0.00551269 0.999967 
-0.0066953 -0.00512024 0.999964 
-0.00758462 -0.00439312 0.999962 
-0.00860674 -0.00307607 0.999958 
-0.00982499 -0.00128459 0.999951 
-0.0112129 0.000955974 0.999937 
-0.0127144 0.00337433 0.999913 
-0.0140251 0.00579817 0.999885 
-0.0150029 0.00794731 0.999856 
-0.014861 0.00991653 0.99984 
-0.0134604 0.0121623 0.999835 
-0.00964457 0.0151103 0.999839 
-0.00346096 0.0199224 0.999796 
0.00641563 0.0269417 0.999616 
0.0207501 0.0372649 0.99909 
0.0391305 0.0518576 0.997888 
0.0638896 0.068861 0.995578 
0.0939284 0.0990874 0.990636 
0.126027 0.134301 0.982894 
0.154082 0.193083 0.969009 
0.196242 0.254707 0.946897 
0.213469 0.396759 0.892756 
0.19024 0.617574 0.763159 
0.0840607 0.921509 0.379151 
-0.0288962 0.992224 -0.121067 
-0.105417 0.914371 -0.390912 
-0.173652 0.667912 -0.723698 
-0.2151 0.387976 -0.896218 
-0.184977 0.256301 -0.948732 
-0.152101 0.182585 -0.971354 
-0.119759 0.117401 -0.985837 
-0.0863934 0.0916012 -0.992041 
-0.0580984 0.0685105 -0.995957 
-0.0358036 0.0519836 -0.998006 
-0.0171532 0.0373031 -0.999157 
-0.00522436 0.0258347 -0.999653 
0.00503483 0.0183367 -0.999819 
0.00997162 0.0140949 -0.999851 
0.0135028 0.0116255 -0.999841 
0.0148457 0.00966718 -0.999843 
0.0146099 0.00775547 -0.999863 
0.0138087 0.00523665 -0.999891 
0.0124237 0.00289229 -0.999919 
0.0109071 0.000413252 -0.99994 
0.00952795 -0.00179234 -0.999953 
0.00821965 -0.0034093 -0.99996 
0.00719108 -0.00459785 -0.999964 
0.00634091 -0.00527606 -0.999966 
0.00562599 -0.0054936 -0.999969 
0.00504197 -0.00538266 -0.999973 
0.00449047 -0.00510655 -0.999977 
0.00401476 -0.00450554 -0.999982 
0.00352235 -0.00383342 -0.999986 
0.00307354 -0.00315142 -0.99999 
0.00265422 -0.00221693 -0.999994 
0.00218673 -0.00141445 -0.999997 
0.00168482 -0.000720899 -0.999998 
0.00139806 0.000147257 -0.999999 
0.000989539 0.000731113 -0.999999 
0.000732223 0.00167508 -0.999998 
0.000429038 0.0024697 -0.999997 
0.00027377 0.0031788 -0.999995 
0.000121248 0.00340002 -0.999994 
7.92089e-06 -6.08937e-05 -1 
0.000348111 5.06175e-06 1 
-5.19393e-05 0.00358356 0.999994 
-0.000222536 0.00317431 0.999995 
-0.000599584 0.00264264 0.999996 
-0.000907714 0.00167379 0.999998 
-0.0013374 0.00122965 0.999998 
-0.00155224 0.000416752 0.999999 
-0.0020407 -0.000234289 0.999998 
-0.00228593 -0.00105845 0.999997 
-0.00277729 -0.0017785 0.999995 
-0.00317843 -0.00246103 0.999992 
-0.00361897 -0.00331455 0.999988 
-0.00415726 -0.00398276 0.999983 
-0.00459445 -0.0045518 0.999979 
-0.00512519 -0.00482241 0.999975 
-0.00580052 -0.00482756 0.999972 
-0.00645291 -0.00460794 0.999969 
-0.00729075 -0.00382199 0.999966 
-0.00817816 -0.00259372 0.999963 
-0.00924538 -0.000891783 0.999957 
-0.0104303 0.00119701 0.999945 
-0.0116767 0.00344788 0.999926 
-0.01268 0.00553282 0.999904 
-0.0131986 0.00709538 0.999888 
-0.0127862 0.00796083 0.999887 
-0.010932 0.00839191 0.999905 
-0.00723504 0.00901469 0.999933 
-0.00101146 0.0107049 0.999942 
0.00804254 0.0140856 0.999868 
0.0215801 0.0193049 0.999581 
0.0408409 0.0264576 0.998815 
0.0651761 0.0355532 0.99724 
0.0956581 0.055502 0.993866 
0.134467 0.0729838 0.988227 
0.167487 0.108251 0.979913 
0.197508 0.140691 0.970153 
0.250933 0.309394 0.917228 
0.17443 0.474652 0.862716 
0.114876 0.761364 0.638066 
0.0122923 0.99392 0.109419 
-0.0918431 0.825276 -0.557211 
-0.156544 0.545084 -0.823636 
-0.249362 0.308764 -0.917869 
-0.200435 0.127641 -0.971357 
-0.158797 0.105613 -0.981646 
-0.132272 0.0608416 -0.989344 
-0.0991237 0.0535946 -0.993631 
-0.068947 0.039414 -0.996841 
-0.04476 0.0290895 -0.998574 
-0.0261174 0.0232064 -0.999389 
-0.012753 0.0149118 -0.999807 
-0.00203507 0.0128062 -0.999916 
0.00441485 0.00856305 -0.999954 
0.00929081 0.00852198 -0.999921 
0.0119663 0.00822079 -0.999895 
0.012785 0.0074671 -0.99989 
0.0130279 0.00635353 -0.999895 
0.0121074 0.00444988 -0.999917 
0.011002 0.00221363 -0.999937 
0.00972294 -4.10662e-05 -0.999953 
0.00861386 -0.00188745 -0.999961 
0.00750369 -0.00337709 -0.999966 
0.00666195 -0.0043348 -0.999968 
0.00595098 -0.00481611 -0.999971 
0.0053608 -0.00486873 -0.999974 
0.00481305 -0.00469608 -0.999977 
0.00435848 -0.00426576 -0.999981 
0.00386705 -0.0035944 -0.999986 
0.00342639 -0.00282891 -0.99999 
0.00302269 -0.00206769 -0.999993 
0.00254284 -0.00114923 -0.999996 
0.00203063 -0.000401193 -0.999998 
0.00163431 0.000528315 -0.999999 
0.00117522 0.00128583 -0.999998 
0.000949457 0.00210182 -0.999997 
0.00062949 0.00263837 -0.999996 
0.00045777 0.00328211 -0.999995 
0.000184329 0.00355913 -0.999994 
-8.63647e-05 5.71004e-06 -1 
0.000296345 4.57043e-05 1 
-0.000108076 0.00394017 0.999992 
-0.000407552 0.00331338 0.999994 
-0.000806418 0.00299635 0.999995 
-0.00100524 0.002222 0.999997 
-0.00150666 0.00161452 0.999998 
-0.00190214 0.000668668 0.999998 
-0.00236799 1.72687e-05 0.999997 
-0.00266405 -0.000832659 0.999996 
-0.00307924 -0.0014329 0.999994 
-0.00348028 -0.00232528 0.999991 
-0.00389885 -0.00311935 0.999988 
-0.00434129 -0.00367389 0.999984 
-0.00478989 -0.00414738 0.99998 
-0.0053787 -0.004398 0.999976 
-0.00596116 -0.00414305 0.999974 
-0.0066865 -0.00374303 0.999971 
-0.00737231 -0.00269779 0.999969 
-0.00825845 -0.00124586 0.999965 
-0.00926595 0.000613988 0.999957 
-0.0103268 0.00271189 0.999943 
-0.0112897 0.00464922 0.999925 
-0.0118837 0.00605183 0.999911 
-0.0117703 0.00649181 0.99991 
-0.0106176 0.00596844 0.999926 
-0.00781685 0.0045447 0.999959 
-0.00317249 0.00333825 0.999989 
0.00391626 0.002579 0.999989 
0.0141729 0.0033046 0.999894 
0.0290641 0.00409787 0.999569 
0.0494785 0.004166 0.998767 
0.0769481 0.00977812 0.996987 
0.110713 0.0240679 0.993561 
0.148059 0.0227668 0.988716 
0.184637 0.0546121 0.981288 
0.226672 0.0772118 0.970906 
0.232003 0.172155 0.957359 
0.261696 0.493481 0.829453 
0.206085 0.750369 0.628072 
0.0327708 0.990762 0.13159 
-0.17642 0.803313 -0.568826 
-0.258885 0.513514 -0.818097 
-0.220761 0.188287 -0.956981 
-0.224072 0.0754977 -0.971644 
-0.18087 0.0518966 -0.982137 
-0.142606 0.015308 -0.989661 
-0.104552 0.0118395 -0.994449 
-0.0740305 0.00897673 -0.997216 
-0.0479998 0.00456729 -0.998837 
-0.0288904 0.0045369 -0.999572 
-0.0136744 0.00247181 -0.999903 
-0.00319537 0.00317991 -0.99999 
0.00355057 0.00249409 -0.999991 
0.00790953 0.00454749 -0.999958 
0.0104171 0.00585186 -0.999929 
0.0116089 0.00650951 -0.999911 
0.0119168 0.00609141 -0.99991 
0.0111664 0.00462956 -0.999927 
0.010292 0.00261447 -0.999944 
0.00917105 0.000601104 -0.999958 
0.00819126 -0.00146538 -0.999965 
0.00718901 -0.00281304 -0.99997 
0.0064535 -0.003809 -0.999972 
0.0058227 -0.00425225 -0.999974 
0.00525969 -0.00435732 -0.999977 
0.00479423 -0.00414384 -0.99998 
0.00433531 -0.0037106 -0.999984 
0.0039108 -0.00301846 -0.999988 
0.00351893 -0.0022353 -0.999991 