# vtk DataFile Version 3.0 
Exported using Morpho https://github.com/Morpho-lang/morpho 
ASCII 
DATASET UNSTRUCTURED_GRID 

POINTS 1978 float 
-11.9994 -3.99989 -1.1891e-05 
-11.6122 -4.00704 -0.000115154 
-11.3105 -4.00206 -7.83179e-05 
-10.9649 -4.00481 -0.000106795 
-10.6331 -4.00279 -0.000219693 
-10.2839 -4.003 -4.75455e-05 
-9.96283 -4.00343 -7.08369e-06 
-9.6522 -4.00011 -4.93081e-05 
-9.31632 -3.99884 -8.52497e-06 
-8.99735 -3.99788 2.62505e-05 
-8.68044 -3.99949 -3.74773e-05 
-8.36192 -3.99949 5.02296e-05 
-8.05065 -4.00129 -2.60488e-05 
-7.74623 -3.99863 3.42481e-05 
-7.47757 -4.00086 3.87893e-05 
-7.2087 -4.00023 1.37337e-05 
-6.90455 -4.00212 5.56893e-05 
-6.59151 -4.00181 3.89879e-05 
-6.2964 -4.00127 6.0033e-05 
-5.99205 -4.00027 7.06905e-05 
-5.69177 -3.99942 8.05307e-05 
-5.38663 -3.99602 0.00010467 
-5.08269 -3.99636 0.00012619 
-4.7866 -3.99522 0.000125907 
-4.4488 -3.99637 0.000126386 
-4.16455 -3.99871 0.000195774 
-3.86138 -4.00016 0.000252056 
-3.5381 -4.00103 0.000266731 
-3.23921 -4.00296 0.000348047 
-2.93677 -4.00527 0.000274288 
-2.67815 -4.00585 0.000349124 
-2.4215 -3.99911 0.000171017 
-2.14135 -4.01011 0.000176888 
-1.86103 -4.0021 -1.85789e-05 
-1.6009 -4.00258 2.79056e-05 
-1.34188 -4.00044 0.000361255 
-1.07784 -3.98863 0.00246541 
-0.833267 -3.95676 0.0106423 
-0.461688 -3.8971 0.00133907 
-0.0406353 -3.8363 -0.000327411 
0.439648 -3.86682 -0.00301107 
0.867017 -3.95187 -0.00820759 
1.07881 -3.99308 -0.00124724 
1.27387 -4.00767 -0.00249045 
1.54605 -3.99813 -0.000112135 
1.78898 -4.00415 0.000159799 
2.03287 -4.00513 -0.000348806 
2.34818 -4.0047 -0.000169021 
2.66651 -4.00796 -0.000223545 
2.97861 -4.00429 -0.000359755 
3.29173 -3.99988 -0.000309934 
3.58253 -4.00108 -0.000253328 
3.88221 -4.002 -0.000236329 
4.19446 -4.00123 -0.000182255 
4.49712 -3.99911 -0.000143917 
4.79211 -3.99873 -0.000102855 
5.11068 -3.99647 -0.000113505 
5.4152 -3.99727 -8.79839e-05 
5.72643 -3.99674 -7.77692e-05 
6.01925 -3.99835 -6.57015e-05 
6.30714 -3.99863 -6.26997e-05 
6.60168 -3.9987 -5.87913e-05 
6.89777 -3.99813 -5.24507e-05 
7.17185 -3.99826 -3.91447e-05 
7.47782 -3.9962 -1.2895e-05 
7.76519 -4.00273 -7.84135e-05 
8.05749 -3.99819 3.18919e-05 
8.35388 -4.00348 -7.30758e-05 
8.65285 -4.00113 6.8942e-06 
8.92781 -4.00072 -2.6637e-05 
9.27951 -4.00186 5.07152e-05 
9.60389 -3.99864 3.53175e-05 
9.89603 -4.0009 7.00269e-07 
10.2684 -4.00371 8.01515e-05 
10.5813 -4.00303 0.000123723 
10.9873 -4.00484 0.000118893 
11.3086 -4.00298 6.50962e-05 
11.6021 -4.00914 0.000106139 
12.0013 -4.00033 1.74334e-05 
-12.0065 -3.60656 0.000149024 
-11.7182 -3.71279 -2.58713e-05 
-11.3725 -3.62602 4.26759e-05 
-11.0611 -3.6773 -3.46788e-05 
-10.7221 -3.66738 1.73122e-05 
-10.3836 -3.68844 -1.86484e-07 
-10.0425 -3.66538 -7.81085e-05 
-9.72834 -3.65588 -2.18108e-06 
-9.40739 -3.68264 -7.62294e-05 
-9.07759 -3.6677 -6.14429e-05 
-8.75587 -3.6695 -1.22481e-05 
-8.43737 -3.67702 -7.52944e-05 
-8.11884 -3.6715 -4.96443e-05 
-7.80642 -3.6671 -7.16525e-05 
-7.50896 -3.62393 -6.458e-05 
-7.19924 -3.66842 -6.54415e-05 
-6.88208 -3.68348 -8.13357e-05 
-6.57983 -3.66664 -0.00010198 
-6.27173 -3.67837 -0.000120894 
-5.96533 -3.67127 -0.000122532 
-5.65888 -3.66911 -0.000135002 
-5.3514 -3.65925 -0.000156208 
-5.05382 -3.6466 -0.000178323 
-4.7261 -3.68863 -0.000155413 
-4.43732 -3.63919 -0.000132783 
-4.13453 -3.67011 -0.000174692 
-3.81025 -3.69934 -0.000207955 
-3.50248 -3.68329 -0.000186138 
-3.19347 -3.69877 -0.000162572 
-2.89974 -3.68515 -0.000187385 
-2.61192 -3.66026 -9.76623e-05 
-2.32707 -3.68151 -0.000106429 
-2.05249 -3.70761 0.000214325 
-1.7705 -3.68297 -0.000200478 
-1.50041 -3.69067 -0.000589401 
-1.22956 -3.68186 -0.000436074 
-0.971237 -3.61151 -0.00294034 
-0.692489 -3.62694 -0.00669647 
-0.366826 -3.61041 0.000532209 
0.0190547 -3.52156 -0.0040868 
0.392206 -3.61121 0.00360129 
0.71782 -3.61759 0.00632965 
0.985855 -3.5503 0.00296028 
1.26827 -3.71163 0.00157009 
1.54645 -3.69417 0.000284549 
1.82243 -3.67459 0.000142999 
2.10818 -3.72857 -7.28421e-06 
2.40776 -3.74372 -0.000189159 
2.71213 -3.72819 0.000149116 
3.01714 -3.71027 0.000143357 
3.30442 -3.66822 0.000182314 
3.60312 -3.67191 0.000209729 
3.91384 -3.68067 0.000175558 
4.21582 -3.66301 0.000164534 
4.51598 -3.65245 0.000135966 
4.83094 -3.67522 0.000155764 
5.14316 -3.66264 0.00015314 
5.46292 -3.67446 0.000135291 
5.7683 -3.65758 0.000130488 
6.0634 -3.6594 0.000109959 
6.36056 -3.6665 0.000110103 
6.66239 -3.66594 0.000110128 
6.94507 -3.63447 0.000116662 
7.2446 -3.66895 3.03676e-05 
7.55405 -3.66252 8.35629e-05 
7.85799 -3.65629 6.80591e-05 
8.15904 -3.65624 3.22616e-05 
8.4514 -3.66527 0.000106567 
8.73668 -3.62858 2.54586e-05 
9.05589 -3.70669 6.8932e-05 
9.38817 -3.67893 4.29653e-05 
9.69428 -3.63365 1.84827e-05 
10.0289 -3.71073 8.57119e-05 
10.3516 -3.65215 -2.86091e-05 
10.7179 -3.72761 9.12455e-05 
11.0523 -3.65398 2.76236e-05 
11.3593 -3.62221 -2.71153e-05 
11.7103 -3.7262 2.375e-05 
12.0076 -3.61892 -0.000156543 
-12.0033 -3.31053 7.53426e-05 
-11.6294 -3.36117 -4.27912e-05 
-11.2771 -3.2822 -7.62916e-06 
-10.96 -3.34163 4.85173e-05 
-10.6483 -3.29994 4.95475e-05 
-10.3567 -3.36388 -2.55712e-05 
-10.0449 -3.31934 -1.90881e-05 
-9.71004 -3.33226 5.00972e-05 
-9.3847 -3.3571 1.57649e-06 
-9.05781 -3.3437 -2.69323e-05 
-8.76306 -3.31529 -7.72046e-06 
-8.46966 -3.35547 1.60756e-05 
-8.17012 -3.33281 3.88218e-05 
-7.87001 -3.34019 1.88207e-05 
-7.56484 -3.29366 -1.4104e-06 
-7.25495 -3.33182 -4.9529e-06 
-6.94821 -3.36162 -1.09998e-05 
-6.64065 -3.34146 -9.87764e-06 
-6.33019 -3.35408 3.83824e-06 
-6.02599 -3.34834 1.5776e-05 
-5.71745 -3.34151 1.506e-05 
-5.40739 -3.32909 -6.70408e-06 
-5.09979 -3.30363 -2.87683e-05 
-4.79385 -3.3681 1.93704e-05 
-4.4931 -3.3019 2.82122e-05 
-4.19102 -3.33594 -1.59111e-05 
-3.88893 -3.38776 -1.59182e-05 
-3.58165 -3.37403 -7.07665e-06 
-3.26839 -3.38571 -1.13144e-05 
-2.96092 -3.37638 5.0393e-05 
-2.66834 -3.34022 1.55224e-06 
-2.39057 -3.34184 0.000168344 
-2.09289 -3.40388 -0.000178355 
-1.79574 -3.38238 -6.60085e-05 
-1.50946 -3.37123 -0.000229441 
-1.22301 -3.36168 -0.000744291 
-0.936628 -3.25226 -0.00184566 
-0.646122 -3.24989 -0.00370904 
-0.338588 -3.27724 -0.00315756 
0.00823775 -3.12756 0.000532877 
0.353807 -3.25332 0.00236903 
0.665247 -3.22834 0.00423104 
0.950849 -3.19919 0.00166663 
1.25231 -3.40227 0.000838723 
1.54129 -3.37623 0.000269 
1.8118 -3.38014 0.000155151 
2.08423 -3.40946 4.8685e-06 
2.36494 -3.46313 2.09571e-05 
2.6528 -3.42878 3.07969e-05 
2.95084 -3.41588 -1.33465e-05 
3.25464 -3.34376 8.56848e-06 
3.55815 -3.34398 -1.17999e-05 
3.8634 -3.35966 1.14169e-05 
4.16987 -3.33007 4.30438e-05 
4.47381 -3.31384 -4.00122e-05 
4.77902 -3.3441 -2.24945e-05 
5.0819 -3.33781 1.26079e-05 
5.39635 -3.35245 3.71644e-06 
5.70485 -3.33172 -1.89772e-05 
6.01191 -3.32218 1.42855e-06 
6.30527 -3.33283 -1.04327e-05 
6.60437 -3.34055 -1.3589e-05 
6.90125 -3.28775 -1.93767e-05 
7.1945 -3.33088 1.56674e-05 
7.49221 -3.33938 -2.05791e-06 
7.8062 -3.32338 -9.36985e-06 
8.12266 -3.33605 -3.1074e-05 
8.43857 -3.3166 -2.83858e-05 
8.7584 -3.31113 2.73561e-05 
9.07497 -3.39193 3.58812e-05 
9.38317 -3.34277 -2.50586e-05 
9.68586 -3.28658 -5.44825e-05 
9.99516 -3.38126 2.4233e-05 
10.3067 -3.3101 3.67041e-05 
10.6401 -3.41085 -1.31462e-05 
10.9745 -3.33147 -5.70429e-05 
11.3053 -3.26217 -3.16543e-05 
11.6405 -3.37797 5.67299e-05 
12.0012 -3.30385 -7.53335e-05 
-12.0032 -2.98702 5.72316e-05 
-11.6631 -3.0531 6.02279e-05 
-11.3249 -2.96375 -1.28879e-05 
-10.9751 -2.98537 6.00822e-06 
-10.6342 -2.97283 -4.44215e-05 
-10.3005 -3.00101 -7.96395e-05 
-9.95807 -3.00325 -1.53818e-05 
-9.63545 -3.00073 5.6306e-05 
-9.32913 -3.03597 2.8452e-05 
-9.02762 -2.99327 -2.38959e-05 
-8.72354 -2.97312 2.84945e-05 
-8.4349 -3.01245 5.47579e-05 
-8.13959 -2.98884 5.59831e-05 
-7.84724 -3.00642 1.85206e-05 
-7.54005 -2.96483 4.0656e-07 
-7.2406 -3.00973 2.5601e-05 
-6.93799 -3.03483 4.75053e-05 
-6.62565 -3.02243 6.99085e-05 
-6.32222 -3.0279 7.26002e-05 
-6.01624 -3.02243 7.55745e-05 
-5.70795 -3.01404 7.77947e-05 
-5.39661 -2.9988 6.2855e-05 
-5.08327 -2.97834 7.23648e-05 
-4.78727 -3.03635 0.000102496 
-4.48225 -2.97941 0.000101409 
-4.18843 -3.00707 9.27114e-05 
-3.89595 -3.06213 7.672e-05 
-3.60004 -3.05638 0.000118451 
-3.29752 -3.07461 9.56828e-05 
-2.96878 -3.07454 4.28447e-05 
-2.64469 -3.00466 8.41538e-05 
-2.34201 -3.01751 4.43392e-05 
-2.05367 -3.10183 -7.43682e-05 
-1.76344 -3.03869 0.000158453 
-1.49177 -3.04788 -0.000464698 
-1.20639 -2.99694 -0.000549579 
-0.915934 -2.87271 -0.00204112 
-0.621714 -2.81609 -0.00153774 
-0.295211 -2.84415 0.00302989 
0.0207312 -2.58725 -0.00185645 
0.340089 -2.8058 0.00176248 
0.621087 -2.72312 0.00110645 
0.913198 -2.815 -0.000143762 
1.20461 -3.01646 0.00148546 
1.48127 -3.04347 4.14473e-05 
1.77651 -3.052 9.9194e-05 
2.06913 -3.08308 0.00014957 
2.35934 -3.14671 -4.07996e-05 
2.65558 -3.10986 -4.47943e-05 
2.95099 -3.10052 8.47214e-06 
3.24563 -3.01691 -9.65474e-05 
3.55039 -3.02401 -0.000116545 
3.86096 -3.03437 -5.17472e-05 
4.16165 -3.00494 -9.55393e-05 
4.46443 -2.98483 -0.000107819 
4.7587 -3.00954 -0.000123 
5.06337 -3.01468 -7.21428e-05 
5.36955 -3.02654 -6.95767e-05 
5.67577 -3.00647 -9.42447e-05 
5.98855 -3.00673 -6.96215e-05 
6.30377 -2.99354 -4.70492e-05 
6.59666 -3.00846 -8.74992e-05 
6.92011 -2.97872 -3.82773e-05 
7.23646 -2.99968 -3.95275e-05 
7.535 -3.00735 -1.17062e-05 
7.83783 -3.00529 -3.05526e-05 
8.14292 -3.00463 -6.39964e-05 
8.44754 -2.99878 -5.95843e-05 
8.75242 -2.97693 -7.1449e-06 
9.0573 -3.06379 2.28392e-06 
9.35524 -3.0057 -2.43014e-05 
9.66584 -2.95359 -5.24142e-05 
9.99264 -3.03332 -1.39132e-06 
10.3249 -2.97903 6.15809e-05 
10.6529 -3.08046 1.15891e-05 
10.9868 -2.99127 -1.39207e-05 
11.3379 -2.93735 5.22181e-06 
11.6715 -3.05298 -2.10486e-05 
12.0053 -2.96219 -9.02694e-05 
-12.0046 -2.66736 0.000219521 
-11.6642 -2.726 -9.83673e-06 
-11.3185 -2.64314 -5.13901e-05 
-10.9763 -2.6609 -2.19741e-05 
-10.6457 -2.64083 -4.4385e-05 
[...]
POINT_DATA 1978 
VECTORS vectors float
0.0683524 -0.099904 0.996268 
0.0792079 -0.0634022 1.00172 
0.0865339 -0.0438673 1.00259 
0.0936002 -0.0296726 1.00233 
0.0979094 -0.0199822 1.00205 
0.101223 -0.0133842 1.00156 
0.103472 -0.00824285 1.0013 
0.105858 -0.00535451 1.00097 
0.107896 -0.00372527 1.00073 
0.109453 -0.00507873 1.00051 
0.108864 -0.0054251 1.00035 
0.10882 -0.00400845 1.00062 
0.110138 -0.0035875 1.00011 
0.110416 -0.00424318 1.00008 
0.111375 -0.00451066 0.998325 
0.109944 -0.00423497 0.999787 
0.109155 -0.00402219 1.00044 
0.108626 -0.00373445 1.00013 
0.108965 -0.00370083 1.00017 
0.1093 -0.00346925 1.00009 
0.10908 -0.00284574 1.00015 
0.10851 -0.00158087 1.00034 
0.107754 6.0146e-05 1.00053 
0.105722 0.000944758 1.00081 
0.103109 0.00295194 1.001 
0.0998464 0.00803049 1.00122 
0.0965034 0.0153999 1.00128 
0.0926044 0.0235216 1.00146 
0.0860582 0.0337024 1.00147 
0.0745069 0.0510362 1.0031 
0.0635769 0.0749295 0.99895 
0.0486488 0.104905 1.00004 
0.0310183 0.149741 0.991586 
0.00418268 0.208883 0.982302 
-0.0257794 0.285869 0.961847 
-0.0556081 0.38623 0.924116 
-0.0836503 0.510487 0.858132 
-0.100773 0.648914 0.757242 
-0.0817935 0.859831 0.496546 
-0.00630793 0.989802 0.059228 
0.0793263 0.872778 -0.471771 
0.0986914 0.626355 -0.776277 
0.084027 0.506728 -0.859066 
0.0636078 0.409321 -0.915343 
0.0304026 0.301425 -0.95692 
0.00348324 0.226328 -0.976942 
-0.0210714 0.166593 -0.991417 
-0.0443199 0.114788 -0.995861 
-0.0621359 0.0752954 -1.00044 
-0.0758651 0.0482326 -1.00148 
-0.0869403 0.0323674 -1.00161 
-0.0926972 0.0228239 -1.00152 
-0.0962708 0.0155294 -1.0015 
-0.0998171 0.00794436 -1.00118 
-0.103495 0.00336378 -1.00089 
-0.10622 0.00137112 -1.00065 
-0.108011 0.000115844 -1.00039 
-0.109445 -0.00175928 -1.00032 
-0.10996 -0.00270765 -1.00015 
-0.110095 -0.00313032 -0.999933 
-0.110168 -0.0035435 -0.999915 
-0.10974 -0.00363895 -0.999917 
-0.110205 -0.00374707 -1.00002 
-0.110419 -0.00409335 -0.99994 
-0.110449 -0.00404684 -1.00162 
-0.112513 -0.00488673 -0.998179 
-0.110719 -0.00422708 -1.00162 
-0.111463 -0.00437874 -0.998176 
-0.110945 -0.00567406 -0.99993 
-0.111232 -0.005041 -1.00008 
-0.11008 -0.00390598 -1.00033 
-0.107562 -0.00572463 -1.00077 
-0.105073 -0.00725541 -1.00107 
-0.103563 -0.013304 -1.00147 
-0.0996806 -0.0194586 -1.00201 
-0.094602 -0.0307556 -1.00231 
-0.0869925 -0.0444206 -1.00246 
-0.0796053 -0.0628829 -1.00168 
-0.0684794 -0.099923 -0.996176 
0.0406056 -0.109883 0.999828 
0.0548437 -0.0796328 1.00621 
0.0558972 -0.0554454 1.01062 
0.0646012 -0.0380992 1.01109 
0.0688912 -0.0262079 1.01265 
0.073403 -0.0179158 1.00946 
0.0734133 -0.0120598 1.01024 
0.0741531 -0.00808461 1.01185 
0.0778843 -0.00615204 1.00811 
0.0783815 -0.00570373 1.00971 
0.0789196 -0.00540778 1.01117 
0.0806837 -0.00468428 1.00797 
0.0797212 -0.00421338 1.01031 
0.080066 -0.00399153 1.0094 
0.0766855 -0.0034328 1.01074 
0.0793151 -0.00296099 1.00926 
0.0799112 -0.00339837 1.00866 
0.0783254 -0.00377276 1.0092 
0.0795373 -0.00399262 1.00874 
0.0790854 -0.00323085 1.00893 
0.0783406 -0.00202 1.00912 
0.077028 -0.000778458 1.00938 
0.0752316 0.00113722 1.00958 
0.0760791 0.00418533 1.00915 
0.0699326 0.00868652 1.00977 
0.0695475 0.0134663 1.00945 
0.0682702 0.0211161 1.00937 
0.0629622 0.0320646 1.00885 
0.057743 0.0471354 1.00731 
0.0484781 0.0680634 1.00737 
0.0365441 0.0983084 1.00571 
0.0252844 0.136955 0.999357 
0.0114594 0.185468 0.99411 
-0.00795355 0.25912 0.976527 
-0.0272375 0.34795 0.944491 
-0.0442902 0.460793 0.894307 
-0.0495003 0.593931 0.80424 
-0.0529399 0.740391 0.65938 
-0.0378155 0.897926 0.401249 
0.00293966 0.974053 -0.0143099 
0.0428869 0.887629 -0.42195 
0.0538354 0.725653 -0.675268 
0.0468846 0.586998 -0.810124 
0.0432044 0.439424 -0.90423 
0.0237684 0.328743 -0.952663 
0.00452755 0.243848 -0.979065 
-0.0142163 0.17287 -0.994718 
-0.0319512 0.121242 -1.00214 
-0.0438747 0.0836532 -1.00736 
-0.0530738 0.0577273 -1.00805 
-0.0576238 0.0420108 -1.00946 
-0.0636542 0.0288239 -1.00941 
-0.0676587 0.0189172 -1.00961 
-0.0699255 0.0122621 -1.00986 
-0.071952 0.00773338 -1.00991 
-0.07609 0.00319999 -1.00927 
-0.0764747 0.000625049 -1.00969 
-0.0785488 -0.00111687 -1.00881 
-0.0775483 -0.00228462 -1.00907 
-0.077642 -0.00344341 -1.00904 
-0.0781051 -0.00402179 -1.00857 
-0.0776014 -0.00341683 -1.00918 
-0.0757856 -0.00322281 -1.00908 
-0.0788837 -0.00318803 -1.00895 
-0.0793618 -0.00384019 -1.00734 
-0.0788499 -0.00448178 -1.00894 
-0.0782536 -0.00475426 -1.00895 
-0.0791316 -0.00501 -1.00923 
-0.0755143 -0.00540852 -1.01112 
-0.081539 -0.0053374 -1.00746 
-0.0780962 -0.00598471 -1.00973 
-0.0725682 -0.00811201 -1.01191 
-0.0770495 -0.0115009 -1.00865 
-0.0706198 -0.0177424 -1.01246 
-0.0727594 -0.0257945 -1.01047 
-0.063248 -0.0385725 -1.01114 
-0.0559824 -0.0548463 -1.01082 
-0.0558464 -0.0787848 -1.00612 
-0.0411042 -0.11032 -0.999924 
0.026816 -0.118138 0.999898 
0.0370036 -0.0787492 1.00989 
0.0379992 -0.0549053 1.01314 
0.0453364 -0.0385776 1.01094 
0.0460851 -0.0273932 1.01313 
0.0514569 -0.0198232 1.01159 
0.0505391 -0.0138023 1.01271 
0.0529964 -0.00923898 1.01188 
0.0555185 -0.00739323 1.01148 
0.055511 -0.00659617 1.01147 
0.054601 -0.00594562 1.01132 
0.057227 -0.00527392 1.0113 
0.0569831 -0.00470554 1.01085 
0.0576308 -0.00400486 1.00954 
0.054786 -0.00284153 1.01242 
0.056586 -0.00230962 1.00956 
0.0577128 -0.00262373 1.01085 
0.0561979 -0.00354182 1.01074 
0.0567979 -0.00411422 1.01081 
0.0564808 -0.00351441 1.01084 
0.0560078 -0.001797 1.01104 
0.055111 -0.000194301 1.01122 
0.0526982 0.00190397 1.01134 
0.0540648 0.00563144 1.01117 
0.0485475 0.0110825 1.01126 
0.0477886 0.0167555 1.01257 
0.0477494 0.0238921 1.01081 
0.0436398 0.0355244 1.01077 
0.0402228 0.0512003 1.00997 
0.0332076 0.0732293 1.00896 
0.0245381 0.103104 1.00639 
0.0160953 0.140008 1.00326 
0.00643043 0.191599 0.991015 
-0.00644705 0.265908 0.974728 
-0.0182186 0.360898 0.941542 
-0.0279668 0.479219 0.884393 
-0.0291091 0.623018 0.782246 
-0.0280422 0.771984 0.620677 
-0.0184881 0.907785 0.368856 
-0.000399395 0.969857 -0.00467298 
0.0202844 0.9028 -0.378659 
0.0295707 0.761768 -0.633133 
0.0285733 0.616058 -0.78809 
0.0296395 0.46324 -0.893246 
0.0180174 0.347854 -0.94688 
0.00675895 0.261529 -0.9753 
-0.00541447 0.192957 -0.992164 
-0.0172305 0.139731 -1.00092 
-0.0262216 0.101986 -1.00616 
-0.034096 0.0725503 -1.00706 
-0.0372775 0.0539257 -1.01137 
-0.0413026 0.0381818 -1.01109 
-0.0461451 0.0255629 -1.00975 
-0.0478537 0.0180133 -1.01255 
-0.0496203 0.011966 -1.00981 
-0.052563 0.00631 -1.01142 
-0.054262 0.00163315 -1.01075 
-0.0560121 -0.000219526 -1.01127 
-0.0552057 -0.00172199 -1.01118 
-0.0547286 -0.00337201 -1.01213 
-0.0554018 -0.00398334 -1.01114 
-0.0561559 -0.00360754 -1.00928 
-0.0528007 -0.00233737 -1.01231 
-0.056493 -0.00240255 -1.00951 
-0.0570771 -0.00287562 -1.01274 
-0.0565986 -0.00419167 -1.01082 
-0.057222 -0.00488191 -1.01109 
-0.0551191 -0.0053159 -1.01105 
-0.0543701 -0.00594719 -1.01137 
-0.0578137 -0.00625009 -1.01084 
-0.0544429 -0.00725056 -1.0115 
-0.0500008 -0.00946667 -1.01219 
-0.0540614 -0.0129513 -1.01159 
-0.0484502 -0.0190623 -1.01274 
-0.051984 -0.0266513 -1.01092 
-0.0444612 -0.0387369 -1.01243 
-0.0368874 -0.0561883 -1.01335 
-0.0375802 -0.0793619 -1.0099 
-0.0266296 -0.117875 -1.00015 
0.0161635 -0.125958 0.999031 
0.0243834 -0.0871726 1.00969 
0.026293 -0.0619063 1.01024 
0.0299967 -0.0420434 1.01516 
0.0325159 -0.02971 1.01199 
0.0349122 -0.0205004 1.01552 
0.0367788 -0.0137797 1.01312 
0.0379604 -0.0101745 1.01299 
0.0405795 -0.00803408 1.01275 
0.0395421 -0.00712404 1.01248 
0.0390829 -0.0064446 1.01229 
0.041946 -0.00568905 1.01241 
0.0409203 -0.00493142 1.01223 
0.0423349 -0.00359516 1.01198 
0.0400378 -0.00215312 1.01109 
0.0410465 -0.00143711 1.01334 
0.0418934 -0.00215217 1.0121 
0.0410021 -0.0033372 1.01221 
0.0415256 -0.00421678 1.01191 
0.0415536 -0.00348269 1.01216 
0.0409316 -0.0015754 1.01227 
0.0396049 0.000437505 1.01234 
0.0375727 0.00332671 1.01232 
0.0386855 0.00786373 1.01185 
0.0344169 0.0148129 1.0118 
0.034232 0.0208086 1.01017 
0.0335913 0.0292923 1.01152 
0.0302923 0.0415446 1.01143 
0.0273502 0.0565293 1.01221 
0.0222386 0.079818 1.01 
0.0142077 0.113631 1.00671 
0.00733862 0.157205 1.0009 
0.00123496 0.210483 0.989859 
-0.00723749 0.287054 0.970357 
-0.0138335 0.377498 0.936224 
-0.019574 0.498157 0.874913 
-0.0189953 0.64038 0.767281 
-0.0149515 0.786937 0.597894 
-0.00935276 0.920235 0.322267 
0.00119134 0.962677 -0.0252367 
0.0100345 0.903273 -0.364473 
0.014515 0.785603 -0.59895 
0.0194215 0.640546 -0.767939 
0.0208704 0.497258 -0.875793 
0.0157232 0.383292 -0.934373 
0.00781374 0.283505 -0.970666 
-0.000880389 0.207105 -0.990812 
-0.00915944 0.150173 -1.00097 
-0.0160603 0.109897 -1.00679 
-0.0223436 0.0806013 -1.00909 
-0.0240035 0.0615304 -1.00958 
-0.0283548 0.0449458 -1.0113 
-0.0320603 0.0314211 -1.01319 
-0.0337246 0.0222612 -1.01075 
-0.0344469 0.0157939 -1.01363 
-0.0375369 0.00867709 -1.01194 
-0.039004 0.00331487 -1.01252 
-0.0407792 0.000448904 -1.01192 
-0.0402974 -0.00136281 -1.01208 
-0.0407599 -0.00325612 -1.01076 
-0.0400932 -0.00418185 -1.01199 
-0.0401273 -0.00356226 -1.01359 
-0.0393952 -0.00226613 -1.01064 
-0.0405846 -0.00143643 -1.01354 
-0.0418649 -0.00236319 -1.01171 
-0.0416576 -0.00379653 -1.01265 
-0.0415893 -0.00496057 -1.01218 
-0.0408431 -0.00577266 -1.012 
-0.0392769 -0.00634775 -1.01259 
-0.0422732 -0.00709427 -1.01236 
-0.0388166 -0.00830471 -1.01281 
-0.0362653 -0.0104019 -1.013 
-0.0378604 -0.0144157 -1.01309 
-0.0344659 -0.021322 -1.01358 
-0.0361261 -0.0289502 -1.01337 
-0.0305323 -0.0425972 -1.01353 
-0.025117 -0.0627808 -1.01206 
-0.0241317 -0.0876732 -1.00965 
-0.0157222 -0.126396 -0.999231 
0.0103643 -0.131249 0.998148 
0.0159553 -0.0914365 1.01091 
0.0176852 -0.0637637 1.01249 
0.0204787 -0.0440835 1.01365 
0.0214767 -0.0315411 1.01374 
0.0242946 -0.0221444 1.01329 
0.0247051 -0.0149203 1.01321 
0.0259858 -0.0112364 1.01136 
0.0266381 -0.00937058 1.01466 
0.0265976 -0.00787478 1.01263 
0.0272694 -0.0070189 1.01087 
0.0284797 -0.00593419 1.01378 
0.0290645 -0.00443229 1.01134 
0.0287447 -0.00256819 1.01346 
0.0277308 -0.000795615 1.01235 
0.0283461 -0.000900762 1.01216 
0.0288057 -0.00232799 1.01226 
0.0284961 -0.00410354 1.01213 
0.0285234 -0.00413893 1.01241 
0.0280983 -0.00266417 1.01244 
0.0273836 -0.000587007 1.01239 
0.026286 0.00187823 1.01231 
0.0247576 0.00625781 1.01201 
0.0252468 0.0115667 1.01176 
0.0230251 0.0188472 1.01159 
0.0226234 0.0275346 1.01142 
0.0218757 0.0369312 1.01114 
0.0191023 0.0497731 1.01127 
0.0166029 0.0673148 1.01073 
0.0119817 0.0907391 1.00804 
0.0055122 0.126383 1.00757 
0.000461648 0.173895 0.997726 
-0.00263372 0.223943 0.989305 
-0.00830441 0.314734 0.960925 
-0.0119657 0.430491 0.913371 
-0.0122398 0.550817 0.841314 
-0.0109132 0.682806 0.730753 
-0.00840558 0.777706 0.611587 
-0.00588046 0.87381 0.434055 
-0.00178908 0.951075 0.124922 
0.00572415 0.912537 -0.320051 
0.00945057 0.762973 -0.626298 
0.0124088 0.632081 -0.775321 
0.0149012 0.495274 -0.879887 
0.011771 0.377009 -0.939158 
0.0075408 0.287094 -0.97088 
0.00335068 0.214982 -0.990377 
-0.00383505 0.155919 -1.00119 
-0.00805384 0.114736 -1.00766 
-0.0124925 0.084737 -1.01128 
-0.0156755 0.0622793 -1.01115 
-0.0193826 0.0464283 -1.01169 
-0.021516 0.0342615 -1.01165 
-0.0225061 0.0242803 -1.01177 
-0.0231241 0.0163258 -1.0118 
-0.025027 0.00956824 -1.01227 
-0.0261116 0.00378224 -1.01197 
-0.0273467 0.000427144 -1.01244 
-0.0280515 -0.00159646 -1.01238 
-0.0283108 -0.00331944 -1.01211 
-0.0272419 -0.00425945 -1.01217 
-0.0285693 -0.00361941 -1.01206 
-0.0274592 -0.00168835 -1.01198 
-0.0281479 -0.000800914 -1.01182 
-0.0282026 -0.00150229 -1.01084 
-0.0289841 -0.00328342 -1.01184 
-0.0285819 -0.0049552 -1.0122 
-0.0283541 -0.0059196 -1.01256 
-0.0265225 -0.00686943 -1.01243 
-0.0287911 -0.00785742 -1.01277 
-0.0262647 -0.00933533 -1.01288 
-0.0244458 -0.011322 -1.01301 
-0.0261854 -0.0151383 -1.01326 
-0.0233637 -0.0228431 -1.01329 
-0.0246354 -0.0316001 -1.01391 
-0.020428 -0.0457065 -1.01355 
-0.0166345 -0.0667954 -1.01163 
-0.0157069 -0.0934146 -1.00911 
-0.00906896 -0.131701 -0.998143 
0.00736464 -0.134711 0.997308 
0.00997801 -0.101452 1.0066 
0.0112951 -0.0738412 1.0106 
0.0129537 -0.0505994 1.01296 
0.0137687 -0.0364495 1.01309 
0.0153092 -0.0255352 1.01304 
0.0166443 -0.0176218 1.01304 
0.017142 -0.0131367 1.013 
0.0181919 -0.0109656 1.01293 
0.0188736 -0.00954619 1.01268 
0.019487 -0.008038 1.01257 
0.0202973 -0.00670954 1.01271 
0.020848 -0.00497726 1.01237 
0.0208479 -0.0027975 1.01243 
0.0205299 -0.000566207 1.01239 
0.0194927 4.9701e-05 1.01212 
0.0200108 -0.00153805 1.01216 
0.0204394 -0.00372928 1.0123 
0.0201528 -0.00453047 1.01245 
0.02016 -0.00337691 1.01252 
0.0197316 -0.00152187 1.01249 
0.0187883 0.000835442 1.01238 
0.0174498 0.00484451 1.01218 
0.0164762 0.0106613 1.01171 
0.0171873 0.0164009 1.01144 
0.0161024 0.0254485 1.01123 
0.0155223 0.0347287 1.01107 
0.0144699 0.0447942 1.01106 
0.0127154 0.0592955 1.01094 
0.00921109 0.0775952 1.01103 
0.00457807 0.105848 1.00934 
-0.000488932 0.152241 1.00339 
-0.00408419 0.217519 0.990806 
-0.00634107 0.271863 0.976887 
-0.0083543 0.369084 0.944039 
-0.00884272 0.477246 0.890545 
-0.00604143 0.599601 0.810743 
-0.00619837 0.72581 0.677671 
-0.00647757 0.901376 0.362051 
0.00131184 0.956941 -0.10311 
0.0052184 0.879232 -0.413877 
-0.000308106 0.870748 -0.451201 
0.00643817 0.74182 -0.665206 
0.010336 0.543935 -0.842578 
0.00916335 0.410452 -0.924661 
0.00754402 0.305163 -0.966243 
0.00500905 0.232744 -0.987556 
0.00112728 0.170588 -0.99961 
-0.00153726 0.1268 -1.00664 
-0.00589089 0.0935611 -1.00846 
-0.00963502 0.0697909 -1.01084 
-0.0130472 0.0514939 -1.0116 
-0.014631 0.0389045 -1.01172 
-0.015695 0.0281144 -1.01138 
-0.0157352 0.0199647 -1.0118 
-0.0166424 0.0125734 -1.0119 
-0.0173118 0.00642782 -1.01197 
-0.0184518 0.00205278 -1.01233 
-0.0194446 -0.000719486 -1.01241 
-0.0202392 -0.00283149 -1.01252 
-0.0197304 -0.00429338 -1.01242 
-0.0203329 -0.00419563 -1.01222 
-0.0203973 -0.00232965 -1.01201 
-0.0198406 -0.000271186 -1.01226 
-0.0206218 -0.000301148 -1.01216 
-0.0209648 -0.00224163 -1.01377 
-0.0205109 -0.00445122 -1.01266 
-0.0202555 -0.0061838 -1.01241 
-0.0187759 -0.00748078 -1.01256 
-0.01969 -0.00888497 -1.01255 
-0.0179448 -0.0105455 -1.01274 
-0.0160296 -0.0126747 -1.01301 
-0.0173354 -0.0164474 -1.01292 
-0.0152382 -0.0242082 -1.01281 
-0.0164167 -0.0336706 -1.01313 
-0.0133687 -0.0477593 -1.01289 
-0.0106156 -0.0673275 -1.01136 
-0.0102525 -0.094473 -1.00879 
-0.00782524 -0.134568 -0.997441 
0.00435096 -0.135711 0.99738 
0.00683605 -0.0949721 1.00885 
0.00805125 -0.0662544 1.0117 
0.0088779 -0.0472604 1.01296 
0.0101276 -0.0329663 1.01309 
0.0109076 -0.0231922 1.01453 
0.0117617 -0.0166909 1.0133 
0.011868 -0.0129528 1.01314 
0.0122579 -0.0113332 1.01275 
0.0131964 -0.00984977 1.01276 
0.0137535 -0.00817621 1.01272 
0.01385 -0.00633099 1.01272 
0.0138659 -0.00388429 1.01244 
0.0139645 -0.0011045 1.01248 
0.0132833 0.000760696 1.01232 
0.0123548 -0.000146945 1.01227 
0.0129956 -0.00283655 1.01238 
0.0134677 -0.00487129 1.01252 
0.013273 -0.00451816 1.01263 
0.0134672 -0.00256705 1.01269 
0.0128675 -0.000210646 1.01263 
0.011468 0.0030298 1.01238 
0.0103781 0.00808103 1.012 
0.00998747 0.0145511 1.01173 
0.0114643 0.0212504 1.01129 
0.0105653 0.0306105 1.01124 
0.0098562 0.0406454 1.01111 
0.00934744 0.0527933 1.00977 
0.00634356 0.0683864 1.01286 
0.00303491 0.09345 1.01076 
-0.000796931 0.135581 1.00681 
-0.00408147 0.211147 0.993105 
-0.00637848 0.30756 0.966672 
-0.00631305 0.382383 0.934919 
-0.00575425 0.547898 0.842181 
-0.00382494 0.688073 0.717446 
0.00170414 0.860836 0.478568 
0.000769842 0.948821 0.270101 
-0.00263417 0.855742 0.476068 
0.000496278 0.936508 0.230225 
-0.00137197 0.95941 -0.149803 
-0.00385982 0.819246 -0.533866 
0.00157733 0.735417 -0.668403 
0.00614546 0.623765 -0.782455 
0.00669533 0.507428 -0.873013 
0.00732078 0.369875 -0.942715 
0.00546982 0.265729 -0.979063 
0.00302897 0.183541 -0.998531 
0.000645119 0.127083 -1.0073 
-0.00313272 0.0901882 -1.01224 
-0.00693657 0.0645234 -1.01014 
-0.0088656 0.0492329 -1.01303 
-0.0102066 0.0372898 -1.01161 
-0.0105406 0.0277155 -1.01133 
-0.00993377 0.0192007 -1.01176 
-0.00991895 0.0122972 -1.01177 
-0.0107761 0.00658848 -1.01236 
-0.0118762 0.00187704 -1.0127 
-0.0131655 -0.00107652 -1.01265 
-0.0134276 -0.00313886 -1.0128 
-0.0136164 -0.00476487 -1.01267 
-0.0133679 -0.00435331 -1.01248 
-0.0134231 -0.00200544 -1.01241 
-0.0125593 0.000456199 -1.01232 
-0.0132496 0.000511246 -1.01218 
-0.013357 -0.00186445 -1.01128 
-0.0132899 -0.00485729 -1.01235 
-0.0130928 -0.00672928 -1.01281 
-0.0123833 -0.00837195 -1.01287 
-0.0139468 -0.00981922 -1.01299 
-0.0129337 -0.0114746 -1.01293 
-0.0113186 -0.0134399 -1.01334 
-0.0119099 -0.0177818 -1.01316 
-0.0104687 -0.025653 -1.01295 
-0.0109078 -0.0354872 -1.01289 
-0.00867386 -0.0493793 -1.01266 
-0.0070962 -0.0700003 -1.01106 
-0.00685061 -0.0971827 -1.00831 
-0.00469949 -0.136136 -0.997252 
0.0012509 -0.136769 0.997322 
0.00361529 -0.0996769 1.00992 
0.00464673 -0.0708819 1.01116 
0.00528593 -0.049465 1.01269 
0.00581798 -0.0355591 1.01286 
0.00610284 -0.025945 1.01119 
0.00608431 -0.0186317 1.01161 
0.00652095 -0.0141215 1.01285 
0.00693189 -0.0123769 1.01272 
0.00766131 -0.0110827 1.01265 
0.0082899 -0.00911225 1.01232 
0.00788801 -0.0071704 1.0124 
0.00794106 -0.004511 1.01246 
0.0075421 -0.00101396 1.01227 
0.00707874 0.00116002 1.01228 
0.00667163 0.000290695 1.01219 
0.00663325 -0.00316438 1.01214 
0.00718657 -0.00539355 1.01233 
0.0074197 -0.0052693 1.0125 
0.00757436 -0.00317796 1.01252 
0.00685752 -0.000595638 1.01252 
0.00587079 0.00251245 1.01211 
0.00512638 0.0072283 1.01182 
0.00494427 0.0133145 1.0116 
0.00571973 0.020724 1.01152 
0.0060701 0.0283855 1.01114 
0.00583338 0.0387362 1.01275 
0.00500969 0.0508467 1.01118 
0.00251853 0.0663044 1.00969 
0.000197796 0.0916599 1.01068 
-0.00167414 0.1335 1.00679 
-0.00275915 0.202175 0.995206 
-0.00506136 0.31692 0.964313 
-0.00364557 0.448758 0.904151 
-0.00154078 0.607364 0.798217 
3.07742e-05 0.709131 0.698832 
0.00552546 0.788742 0.580446 
0.00164031 0.991547 0.118561 
0.00233845 0.989722 0.0874262 
0.00211463 0.989806 0.0145383 
0.00062785 0.99016 -0.0596501 
0.000643107 0.990255 -0.10956 
-0.00431539 0.723962 -0.668244 
0.000765663 0.632339 -0.775027 
0.00374543 0.525452 -0.860389 
0.00510303 0.420554 -0.919878 
0.00445212 0.305845 -0.96584 
0.00338275 0.210924 -0.992211 
0.00200509 0.140642 -1.00614 
0.000180389 0.0961372 -1.01079 
-0.00211921 0.0682519 -1.0116 
-0.00359908 0.0520841 -1.01144 
-0.00514966 0.0401224 -1.01139 
-0.00555952 0.0297735 -1.01144 
-0.00524584 0.0215038 -1.01114 
-0.00467303 0.0144197 -1.01133 
-0.00476774 0.00873911 -1.0105 
-0.00562822 0.00396266 -1.01328 
-0.00723099 3.52786e-05 -1.01092 
-0.00768279 -0.00257859 -1.01278 
-0.00818027 -0.00491822 -1.01248 
-0.0074165 -0.00549476 -1.01241 
-0.00725658 -0.00339878 -1.01232 
-0.00679375 -0.000207338 -1.01227 
-0.00675468 0.00138615 -1.01244 
-0.00725252 -0.000373545 -1.01377 
-0.0077647 -0.00428432 -1.01233 
-0.00765754 -0.00702819 -1.01302 
-0.00756392 -0.00893465 -1.01247 
-0.00831684 -0.0107255 -1.01295 
-0.00764169 -0.0126245 -1.01284 
-0.00632031 -0.0144136 -1.01296 
-0.00742673 -0.018179 -1.0134 
-0.00638115 -0.0251825 -1.01307 
-0.00708153 -0.035072 -1.01304 
-0.00568326 -0.0491992 -1.01275 
-0.00478549 -0.0702697 -1.01103 
-0.00400424 -0.0996342 -1.00797 
-0.00122364 -0.137077 -0.997199 
0.00058502 -0.1384 0.996947 
0.00212401 -0.100047 1.00649 
0.00315604 -0.0714529 1.01094 
0.00373044 -0.0505359 1.01241 
0.00436634 -0.0356071 1.01281 
0.00474928 -0.0254972 1.01302 
0.00513846 -0.0180754 1.01443 
0.00578396 -0.0144134 1.0129 
0.00646141 -0.0126951 1.01236 
0.00647979 -0.0108025 1.0137 
0.00623685 -0.0089545 1.01095 
0.00599211 -0.00660766 1.01371 
0.00553875 -0.00366523 1.0121 
0.00482224 1.82283e-05 1.01216 
0.00430837 0.00139799 1.01182 