# vtk DataFile Version 3.0 
Exported using Morpho https://github.com/Morpho-lang/morpho 
ASCII 
DATASET UNSTRUCTURED_GRID 

POINTS 1978 float 
-12 -4 3.62525e-13 
-11.6103 -4 1.49713e-12 
-11.3091 -4 6.84676e-13 
-10.9564 -4 1.22981e-12 
-10.6392 -4 8.06488e-13 
-10.2902 -4 7.22309e-13 
-9.96873 -4 4.79919e-13 
-9.64893 -4 4.16802e-13 
-9.31356 -4 3.16374e-13 
-8.99484 -4 2.4847e-13 
-8.68112 -4 2.21563e-13 
-8.36716 -4 1.75273e-13 
-8.05963 -4 1.38959e-13 
-7.76299 -4 1.27516e-13 
-7.48167 -4 1.09494e-13 
-7.18791 -4 1.0488e-13 
-6.8917 -4 3.52249e-14 
-6.5973 -4 1.23775e-13 
-6.29724 -4 8.66802e-14 
-5.98943 -4 5.65144e-14 
-5.68528 -4 9.62943e-15 
-5.38036 -4 -5.82674e-14 
-5.07899 -4 -1.1632e-13 
-4.78546 -4 -2.99503e-13 
-4.45511 -4 -4.40411e-13 
-4.16711 -4 -5.11736e-13 
-3.87022 -4 -1.11559e-12 
-3.55184 -4 -1.35045e-12 
-3.25454 -4 -1.2138e-12 
-2.96574 -4 -1.82542e-12 
-2.66808 -4 -1.7195e-12 
-2.41751 -4 -9.88323e-13 
-2.15322 -4 -5.78191e-13 
-1.87543 -4 -1.17774e-12 
-1.61705 -4 -1.51339e-12 
-1.35691 -4 -7.38261e-12 
-1.08358 -4 -1.99241e-11 
-0.799722 -4 -4.48736e-11 
-0.48588 -4 -7.58384e-11 
-0.0255851 -4 -3.59876e-11 
0.450132 -4 9.05977e-11 
0.797369 -4 4.34981e-11 
1.05694 -4 2.17115e-11 
1.33153 -4 1.01315e-11 
1.57998 -4 -2.61876e-12 
1.82871 -4 -1.47078e-11 
2.08285 -4 1.71868e-11 
2.35623 -4 3.66e-13 
2.67652 -4 1.70027e-12 
2.98072 -4 1.93385e-12 
3.29577 -4 1.46641e-12 
3.58369 -4 1.02973e-12 
3.88297 -4 8.79426e-13 
4.19648 -4 6.00651e-13 
4.49626 -4 3.85557e-13 
4.79299 -4 2.69131e-13 
5.1045 -4 1.46978e-13 
5.41171 -4 5.13174e-14 
5.72244 -4 -1.50194e-14 
6.01646 -4 -4.83446e-14 
6.30903 -4 -8.36824e-14 
6.60089 -4 -1.0638e-13 
6.8983 -4 -9.46841e-14 
7.17252 -4 -1.13136e-13 
7.4719 -4 -1.19331e-13 
7.7676 -4 -1.46696e-13 
8.06421 -4 -1.31148e-13 
8.35487 -4 -1.94049e-13 
8.65469 -4 -1.41483e-13 
8.93104 -4 -2.48889e-13 
9.2787 -4 -3.42009e-13 
9.60495 -4 -3.09609e-13 
9.89716 -4 -5.50354e-13 
10.2666 -4 -6.68854e-13 
10.5828 -4 -8.92916e-13 
10.9846 -4 -1.33799e-12 
11.305 -4 -4.57515e-13 
11.5971 -4 -1.58925e-12 
12 -4 -4.03045e-13 
-12 -3.61131 -2.31254e-13 
-11.7111 -3.7117 1.60226e-17 
-11.3633 -3.62736 1.26234e-17 
-11.0502 -3.67929 1.50479e-17 
-10.7122 -3.64589 1.57863e-17 
-10.3939 -3.68004 2.01362e-17 
-10.0572 -3.66314 3.30254e-18 
-9.7331 -3.67156 6.86049e-18 
-9.39876 -3.6875 1.54766e-17 
-9.06173 -3.67072 -2.18886e-14 
-8.74639 -3.66477 1.73069e-17 
-8.431 -3.67158 -3.06546e-18 
-8.11487 -3.66919 3.50903e-18 
-7.80409 -3.66317 2.04178e-18 
-7.50408 -3.65204 -3.43369e-14 
-7.20944 -3.67005 5.68489e-18 
-6.90169 -3.66934 -1.54779e-17 
-6.59374 -3.66354 1.37184e-17 
-6.28073 -3.67523 4.64036e-14 
-5.96977 -3.67012 1.53389e-14 
-5.65908 -3.6694 4.50103e-14 
-5.35264 -3.66475 -2.84409e-18 
-5.05593 -3.65671 -4.93504e-18 
-4.7312 -3.69538 -8.96138e-18 
-4.43491 -3.65927 -9.44004e-18 
-4.13251 -3.67484 -8.65414e-18 
-3.81232 -3.69803 -5.78527e-17 
-3.50108 -3.68543 -3.48497e-17 
-3.20107 -3.68106 2.44627e-17 
-2.90211 -3.69677 -5.4046e-17 
-2.63518 -3.63637 -8.79542e-17 
-2.36537 -3.66405 -1.15282e-17 
-2.08108 -3.69583 -4.8101e-17 
-1.80859 -3.68201 -1.15194e-16 
-1.53744 -3.67146 -7.94243e-17 
-1.25429 -3.65971 -1.92403e-16 
-0.962271 -3.62954 -4.95314e-16 
-0.659933 -3.57499 -4.99695e-16 
-0.315303 -3.69336 -7.20097e-16 
0.00965911 -3.53778 6.15442e-16 
0.32253 -3.67771 -1.26529e-15 
0.691942 -3.6093 2.38383e-15 
1.01135 -3.59711 4.56308e-17 
1.28212 -3.67094 2.12961e-16 
1.56818 -3.66025 -6.24851e-17 
1.82933 -3.67553 -9.56156e-16 
2.10178 -3.68338 1.19254e-15 
2.41331 -3.72851 -1.30926e-16 
2.71531 -3.69834 4.88367e-17 
3.02534 -3.69941 6.44076e-17 
3.31628 -3.66706 3.92358e-17 
3.61454 -3.67439 2.14601e-17 
3.92668 -3.68713 1.47885e-17 
4.22765 -3.66808 1.18737e-17 
4.52477 -3.66238 9.16729e-18 
4.83378 -3.67621 5.61724e-18 
5.14368 -3.67216 3.48824e-18 
5.45727 -3.67604 2.44843e-18 
5.76044 -3.6598 -2.43828e-14 
6.05995 -3.66159 5.65795e-16 
6.35729 -3.65988 2.74843e-14 
6.66188 -3.67001 2.94425e-14 
6.94749 -3.64197 2.96362e-14 
7.24718 -3.671 -2.33816e-18 
7.5492 -3.66547 4.49495e-14 
7.85156 -3.66471 -2.29885e-18 
8.14909 -3.65704 -3.02615e-18 
8.44617 -3.66599 -4.12948e-18 
8.7349 -3.63432 -3.56484e-18 
9.05538 -3.7055 -6.10738e-18 
9.38746 -3.68163 -6.03076e-18 
9.69438 -3.63695 -8.31626e-18 
10.0294 -3.70981 -1.18327e-17 
10.3586 -3.65589 -7.64897e-18 
10.7245 -3.72448 -1.54818e-17 
11.0592 -3.65211 -1.16755e-17 
11.3616 -3.61751 -1.39366e-17 
11.7118 -3.72313 -1.64513e-17 
12 -3.61179 2.32411e-13 
-12 -3.31099 -1.61356e-13 
-11.6328 -3.36491 1.27204e-17 
-11.2887 -3.28559 1.02304e-17 
-10.9764 -3.33674 1.56385e-17 
-10.6582 -3.2974 1.93199e-17 
-10.3371 -3.34844 1.64448e-17 
-10.0104 -3.33041 8.43344e-18 
-9.69372 -3.33033 2.61836e-17 
-9.38751 -3.37175 5.10091e-18 
-9.07842 -3.33149 -1.18617e-17 
-8.77229 -3.32428 3.59047e-14 
-8.46873 -3.33798 1.1236e-17 
-8.16186 -3.3391 4.7698e-18 
-7.85452 -3.3342 3.57058e-18 
-7.55135 -3.31499 -4.64056e-14 
-7.25106 -3.32859 -4.90485e-14 
-6.95402 -3.34563 3.84034e-18 
-6.64412 -3.33841 1.2021e-14 
-6.33368 -3.35054 -2.10992e-14 
-6.0235 -3.34361 1.12137e-14 
-5.71314 -3.34051 -3.33198e-18 
-5.40543 -3.33308 -3.90199e-18 
-5.10264 -3.31533 -7.8738e-18 
-4.80138 -3.37493 -8.78799e-18 
-4.49982 -3.33092 -1.1148e-17 
-4.19748 -3.34632 -7.17532e-18 
-3.89291 -3.38699 -3.45503e-17 
-3.58151 -3.37944 9.48112e-17 
-3.2704 -3.36366 -1.69522e-16 
-2.96968 -3.37322 -1.07279e-16 
-2.67632 -3.31292 5.91369e-17 
-2.38693 -3.32408 -7.04232e-17 
-2.10914 -3.38144 4.13303e-17 
-1.82607 -3.36117 1.1431e-17 
-1.53543 -3.34678 -3.13833e-17 
-1.24089 -3.31048 -6.32705e-17 
-0.948101 -3.2446 -2.60529e-16 
-0.610279 -3.15951 -1.66544e-15 
-0.30305 -3.28076 -1.10651e-15 
0.0462915 -3.07673 -1.16749e-15 
0.356346 -3.25257 2.44132e-16 
0.632219 -3.13335 3.41435e-15 
0.941036 -3.23407 2.48122e-16 
1.27156 -3.28869 7.61846e-17 
1.53805 -3.3303 -4.73016e-17 
1.82212 -3.33622 1.80561e-16 
2.08932 -3.37111 -7.09593e-17 
2.37288 -3.43814 2.46034e-17 
2.67057 -3.39561 4.78522e-17 
2.9732 -3.39309 3.07205e-17 
3.2734 -3.34256 4.72594e-17 
3.57416 -3.34599 3.68868e-17 
3.87523 -3.36876 3.0242e-17 
4.17811 -3.34126 2.68242e-17 
4.4795 -3.32625 1.58671e-17 
4.77857 -3.34677 9.68054e-18 
5.08233 -3.34675 6.17919e-18 
5.39296 -3.35236 4.06403e-18 
5.70161 -3.33151 2.36236e-18 
6.01142 -3.32492 -2.03555e-14 
6.31027 -3.32257 8.54495e-15 
6.61294 -3.34124 2.01232e-14 
6.91262 -3.2974 2.53635e-14 
7.20967 -3.3355 4.63233e-14 
7.51058 -3.33478 -2.20399e-18 
7.81529 -3.33386 -2.78214e-18 
8.12097 -3.32012 -3.02291e-18 
8.42168 -3.32146 -3.7928e-18 
8.74489 -3.31744 -4.97377e-18 
9.06918 -3.38933 -5.6241e-18 
9.38265 -3.34518 -8.24162e-18 
9.69509 -3.29509 -6.59079e-18 
10.0086 -3.38529 -4.56064e-18 
10.312 -3.30708 -1.63758e-17 
10.6374 -3.40806 -2.26898e-17 
10.9686 -3.33788 -1.86268e-17 
11.2988 -3.25993 -1.05549e-17 
11.6338 -3.37541 -1.17909e-17 
12 -3.30459 1.51522e-13 
-12 -2.98566 -4.41333e-13 
-11.6607 -3.0527 6.69779e-18 
-11.3187 -2.96763 -3.69875e-18 
-10.9707 -2.98331 8.8184e-18 
-10.6291 -2.97026 1.97328e-18 
-10.2987 -3.01212 -1.21408e-17 
-9.97326 -2.99337 2.50117e-18 
-9.65308 -2.99215 2.00045e-17 
-9.34991 -3.02884 -1.51603e-17 
-9.04319 -2.98814 2.11831e-17 
-8.73926 -2.98042 -3.99417e-15 
-8.43644 -3.0009 3.59544e-14 
-8.1297 -3.00538 -2.9215e-14 
-7.82922 -2.99736 -1.00712e-14 
-7.52535 -2.98122 -2.68676e-14 
-7.22677 -2.99317 4.68022e-15 
-6.92126 -3.02187 -1.61974e-14 
-6.61257 -3.01372 -1.6341e-14 
-6.30694 -3.02271 8.17353e-15 
-5.9993 -3.01472 5.99626e-15 
-5.69357 -3.00929 -6.60433e-15 
-5.39047 -2.99934 -7.09759e-15 
-5.08832 -2.98395 3.50408e-14 
-4.7898 -3.0435 -3.34694e-18 
-4.49204 -2.99878 -4.6398e-18 
-4.19701 -3.02086 -2.29169e-17 
-3.89762 -3.06362 -7.98887e-18 
-3.59435 -3.06793 -1.59013e-16 
-3.28708 -3.05039 1.88292e-16 
-2.96881 -3.04881 -8.05252e-17 
-2.67159 -2.97332 -1.2959e-16 
-2.37829 -2.98436 -4.16171e-18 
-2.10033 -3.05321 -1.37408e-17 
-1.80941 -3.03744 8.06181e-17 
-1.51505 -3.0007 6.24051e-17 
-1.233 -2.91694 8.50814e-16 
-0.888416 -2.87493 -2.69926e-15 
-0.580531 -2.70337 8.8492e-15 
-0.259219 -2.82699 -1.00099e-15 
0.0111007 -2.50953 7.9604e-16 
0.313461 -2.70822 -1.97624e-15 
0.575247 -2.566 -1.49732e-15 
0.869003 -2.81147 -2.43677e-16 
1.2037 -2.94046 -5.14023e-16 
1.53003 -2.94026 1.98744e-17 
1.80042 -3.00016 7.41978e-17 
2.0947 -3.03849 -1.06941e-16 
2.37252 -3.12493 1.45806e-16 
2.65933 -3.06272 -2.21185e-17 
2.94339 -3.07783 3.05644e-17 
3.24445 -3.02217 1.16607e-18 
3.55195 -3.02338 1.11199e-17 
3.86268 -3.04265 1.18897e-17 
4.16422 -3.0135 -1.52434e-14 
4.4683 -3.0009 6.60464e-18 
4.77367 -3.0126 5.10891e-18 
5.07198 -3.01573 3.36379e-18 
5.37382 -3.02748 3.4399e-18 
5.678 -3.00214 -2.65839e-14 
5.98405 -3.0024 -2.88404e-14 
6.29722 -2.98333 -5.05386e-15 
6.59553 -3.00848 -7.76558e-15 
6.9173 -2.98365 3.36355e-16 
7.23551 -3.00125 9.84509e-15 
7.53614 -3.00219 1.57653e-14 
7.84053 -3.0027 2.15892e-14 
8.1372 -2.98141 3.03493e-14 
8.44864 -3.00126 3.71732e-14 
8.74594 -2.97275 -2.37047e-18 
9.04638 -3.06221 -5.04804e-18 
9.35568 -3.01294 -5.36379e-18 
9.65866 -2.95384 -6.0614e-18 
9.98515 -3.03539 -1.41446e-17 
10.3228 -2.98114 -9.80394e-18 
10.655 -3.07368 -2.51412e-18 
10.9878 -2.9987 -2.77402e-18 
11.3381 -2.93729 7.5381e-18 
11.6677 -3.05836 -7.12053e-18 
12 -2.96789 4.45361e-13 
-12 -2.66771 -1.70744e-13 
-11.6542 -2.72567 -4.14228e-14 
-11.3183 -2.63845 -1.26352e-17 
-10.9813 -2.66028 -6.67233e-18 
-10.6455 -2.64277 3.59288e-18 
-10.3068 -2.67706 1.98512e-17 
-9.97374 -2.66529 -1.6002e-17 
-9.64307 -2.66964 3.40016e-14 
-9.31612 -2.68322 4.92598e-18 
-9.00032 -2.64967 2.90744e-14 
-8.68814 -2.64465 -1.08488e-14 
-8.37709 -2.67209 -2.99631e-14 
-8.07247 -2.66734 -9.59871e-15 
-7.76346 -2.66618 -1.14127e-14 
-7.4525 -2.65142 1.32933e-14 
-7.144 -2.6736 -6.93526e-15 
-6.84128 -2.69542 1.63655e-14 
-6.53044 -2.68607 8.81677e-15 
-6.22662 -2.69139 2.618e-14 
-5.92048 -2.68242 1.1465e-14 
[...]
POINT_DATA 1978 
VECTORS vectors float
6.99505e-05 0.000243221 1 
0.000315315 -0.0325388 0.99947 
0.000537027 -0.0353354 0.999375 
0.000305031 -0.0283128 0.999599 
0.000398513 -0.0224067 0.999749 
0.000455537 -0.0162163 0.999868 
0.000312605 -0.0118034 0.99993 
0.000452856 -0.00856945 0.999963 
0.000483774 -0.00637157 0.99998 
0.000393278 -0.00493524 0.999988 
0.000432417 -0.00393718 0.999992 
0.000473991 -0.00335948 0.999994 
0.000432161 -0.003008 0.999995 
0.000285541 -0.00277267 0.999996 
0.000281102 -0.00259112 0.999997 
0.000432833 -0.0024376 0.999997 
0.000371198 -0.00242512 0.999997 
0.000364461 -0.00227128 0.999997 
0.000455142 -0.0019099 0.999998 
0.000429466 -0.00129776 0.999999 
0.00043841 -0.000296854 1 
0.000404743 0.00115803 0.999999 
0.00029854 0.00336805 0.999994 
0.000515654 0.00620751 0.999981 
0.000457427 0.0106668 0.999943 
0.000211957 0.0160145 0.999872 
0.000438316 0.0233297 0.999728 
0.000433684 0.0342764 0.999412 
0.000254389 0.0483351 0.998831 
0.000288433 0.067659 0.997708 
0.000110735 0.0944522 0.995529 
-7.96886e-05 0.126697 0.991942 
4.41258e-05 0.172529 0.985005 
-1.23389e-05 0.237875 0.971296 
-3.52918e-05 0.316965 0.948437 
3.4242e-06 0.418531 0.908202 
-0.00020236 0.548323 0.836266 
-0.000122438 0.698204 0.715899 
-0.000647355 0.867444 0.497534 
-0.00020624 0.999375 0.0353501 
0.000721462 0.883279 -0.468847 
4.1164e-05 0.696166 -0.717881 
1.42456e-06 0.558656 -0.829399 
4.65496e-05 0.427497 -0.904017 
-1.16201e-05 0.330567 -0.943783 
2.2859e-05 0.251069 -0.967969 
9.70279e-06 0.186353 -0.982483 
-0.000121219 0.135463 -0.990782 
-0.000321392 0.094336 -0.99554 
-0.000349376 0.0666335 -0.997777 
-0.000313473 0.0462916 -0.998928 
-0.000238069 0.0329661 -0.999456 
-0.000434924 0.0231084 -0.999733 
-0.000441316 0.0156205 -0.999878 
-0.000310149 0.0102058 -0.999948 
-0.00039608 0.00627323 -0.99998 
-0.000457166 0.00322738 -0.999995 
-0.000467592 0.00110819 -0.999999 
-0.000416178 -0.000363211 -1 
-0.000324449 -0.00132497 -0.999999 
-0.000365049 -0.00187807 -0.999998 
-0.000424338 -0.00218947 -0.999998 
-0.000281464 -0.00242187 -0.999997 
-0.000286818 -0.00256627 -0.999997 
-0.000447339 -0.00270942 -0.999996 
-0.000404635 -0.00292888 -0.999996 
-0.000368661 -0.00320556 -0.999995 
-0.000407279 -0.00351018 -0.999994 
-0.000179904 -0.00405157 -0.999992 
-0.000429626 -0.00478173 -0.999988 
-0.000667655 -0.0060478 -0.999981 
-0.00019642 -0.00821665 -0.999966 
-0.000398261 -0.0109937 -0.999939 
-0.000329205 -0.0159208 -0.999873 
-0.000343329 -0.0212839 -0.999773 
-0.000368358 -0.0288957 -0.999582 
-0.000213141 -0.0354698 -0.999371 
-0.00039398 -0.0329427 -0.999457 
-0.000131197 0.000273756 -1 
0.000118578 -0.000359036 1 
0.00859029 -0.0216793 0.999728 
0.0135791 -0.0305057 0.999442 
0.0137032 -0.029254 0.999478 
0.0150449 -0.0232924 0.999615 
0.0146493 -0.0180456 0.99973 
0.0157816 -0.0133803 0.999786 
0.0161958 -0.00984735 0.99982 
0.0162464 -0.00723499 0.999842 
0.0169467 -0.00541593 0.999842 
0.0173049 -0.00425911 0.999841 
0.0175707 -0.00352281 0.999839 
0.0179553 -0.00303017 0.999834 
0.0185407 -0.002702 0.999824 
0.0191824 -0.00252896 0.999813 
0.0185391 -0.00241325 0.999825 
0.0182054 -0.00223939 0.999832 
0.0183171 -0.0019543 0.99983 
0.0179111 -0.00151846 0.999838 
0.017939 -0.000776276 0.999839 
0.0178137 0.000383181 0.999841 
0.0178161 0.00205966 0.999839 
0.0176663 0.0043404 0.999835 
0.0160296 0.00766268 0.999842 
0.0170429 0.012148 0.999781 
0.0156777 0.0179887 0.999715 
0.0140053 0.0263685 0.999554 
0.0134203 0.0381791 0.999181 
0.0118195 0.0543006 0.998455 
0.0098081 0.0765832 0.997015 
0.00805513 0.105403 0.994397 
0.0048134 0.143828 0.989591 
0.00115134 0.197752 0.980251 
-0.00249736 0.268821 0.963187 
-0.00599955 0.357527 0.933884 
-0.00881375 0.471415 0.881867 
-0.0103641 0.611975 0.790809 
-0.0090749 0.770475 0.637406 
-0.0044685 0.934974 0.354687 
0.000480044 0.999981 -0.00616116 
0.00526141 0.932063 -0.362257 
0.0094801 0.755201 -0.655425 
0.0108618 0.591478 -0.806248 
0.00824302 0.459522 -0.888128 
0.00553391 0.344028 -0.938943 
0.00201794 0.25813 -0.966108 
-0.00149802 0.18954 -0.981872 
-0.00486163 0.132445 -0.991178 
-0.00799792 0.0940943 -0.995531 
-0.0103304 0.0665334 -0.997731 
-0.0127728 0.0476971 -0.99878 
-0.0138807 0.0338276 -0.999331 
-0.0147407 0.0233967 -0.999618 
-0.016097 0.0161247 -0.99974 
-0.0167677 0.0107966 -0.999801 
-0.0166873 0.00665819 -0.999839 
-0.0171847 0.00363183 -0.999846 
-0.0174315 0.00141259 -0.999847 
-0.0184332 -2.3479e-05 -0.99983 
-0.0185899 -0.000977192 -0.999827 
-0.01873 -0.00159049 -0.999823 
-0.0188 -0.00203517 -0.999821 
-0.0198071 -0.00226267 -0.999801 
-0.0185648 -0.00243398 -0.999825 
-0.0186968 -0.00267088 -0.999822 
-0.0187057 -0.00293599 -0.999821 
-0.0188537 -0.00326044 -0.999817 
-0.0184548 -0.00371808 -0.999823 
-0.0192554 -0.00430558 -0.999805 
-0.0161248 -0.00529723 -0.999856 
-0.0164833 -0.00712985 -0.999839 
-0.0173317 -0.00951511 -0.999805 
-0.0144161 -0.0128935 -0.999813 
-0.0152743 -0.0174254 -0.999731 
-0.0129902 -0.0235656 -0.999638 
-0.0145586 -0.0294344 -0.999461 
-0.0137303 -0.0305725 -0.999438 
-0.00841009 -0.0218396 -0.999726 
-0.000121441 -0.00020647 -1 
0.000208899 -0.000571431 1 
0.0140242 -0.0221171 0.999657 
0.0197136 -0.0306673 0.999335 
0.0210476 -0.0279628 0.999387 
0.0221273 -0.022525 0.999501 
0.0227198 -0.0179169 0.999581 
0.0240391 -0.0137154 0.999617 
0.02504 -0.0102823 0.999634 
0.0251329 -0.00759598 0.999655 
0.0262056 -0.00581051 0.99964 
0.0269798 -0.00462523 0.999625 
0.0268931 -0.003751 0.999631 
0.0271294 -0.00318802 0.999627 
0.0273041 -0.00280575 0.999623 
0.0277459 -0.0025307 0.999612 
0.0276217 -0.00230469 0.999616 
0.0274642 -0.00208936 0.999621 
0.0275594 -0.00175747 0.999619 
0.0272431 -0.00125119 0.999628 
0.0269903 -0.000450884 0.999636 
0.0266112 0.000745668 0.999646 
0.026252 0.00249756 0.999652 
0.0258686 0.00493422 0.999653 
0.0248486 0.00793804 0.99966 
0.0247184 0.0123968 0.999618 
0.0236804 0.0182461 0.999553 
0.0220685 0.026057 0.999417 
0.0203383 0.0370396 0.999107 
0.0179229 0.0533947 0.998413 
0.0147723 0.0756009 0.997029 
0.0112181 0.106639 0.994234 
0.00681229 0.147854 0.988986 
0.00211602 0.199956 0.979803 
-0.00300497 0.270412 0.96274 
-0.00814251 0.365702 0.930696 
-0.0119395 0.485951 0.873904 
-0.0130635 0.628337 0.777832 
-0.010835 0.791544 0.611016 
-0.00628863 0.935616 0.352964 
0.00152892 0.99954 -0.0302972 
0.00778312 0.926385 -0.376498 
0.0112464 0.786733 -0.617191 
0.0130825 0.622393 -0.782596 
0.0115312 0.469541 -0.882835 
0.00801442 0.359938 -0.932942 
0.00301918 0.269095 -0.963109 
-0.00192604 0.201403 -0.979507 
-0.00690067 0.145663 -0.98931 
-0.011249 0.104192 -0.994494 
-0.0147897 0.0746975 -0.997097 
-0.0178624 0.0544527 -0.998357 
-0.0200567 0.038718 -0.999049 
-0.0217342 0.0272469 -0.999392 
-0.0232191 0.0190174 -0.99955 
-0.0242995 0.0129498 -0.999621 
-0.0249795 0.00844467 -0.999652 
-0.0256875 0.00510932 -0.999657 
-0.0261459 0.00259754 -0.999655 
-0.0267636 0.000878959 -0.999641 
-0.027221 -0.00032037 -0.999629 
-0.0274599 -0.00112462 -0.999622 
-0.0275487 -0.00170849 -0.999619 
-0.0279584 -0.00203354 -0.999607 
-0.0277498 -0.0023275 -0.999612 
-0.0276172 -0.00257098 -0.999615 
-0.0275225 -0.00284635 -0.999617 
-0.027391 -0.00321016 -0.99962 
-0.027035 -0.00373444 -0.999628 
-0.0270918 -0.00458877 -0.999622 
-0.0255382 -0.00577499 -0.999657 
-0.0256242 -0.00766116 -0.999642 
-0.0253899 -0.0102862 -0.999625 
-0.0233297 -0.0134165 -0.999638 
-0.0232975 -0.0176054 -0.999574 
-0.0210208 -0.0222816 -0.999531 
-0.0211144 -0.0279361 -0.999387 
-0.0195529 -0.0306115 -0.99934 
-0.0138147 -0.0219773 -0.999663 
-0.00020095 -0.000360291 -1 
0.00011943 3.50153e-05 1 
0.0129726 -0.0208446 0.999699 
0.0173496 -0.0308781 0.999373 
0.0191734 -0.028049 0.999423 
0.0202984 -0.0227906 0.999534 
0.0216968 -0.0181665 0.9996 
0.0225259 -0.0140062 0.999648 
0.0235977 -0.010513 0.999666 
0.0246332 -0.00791769 0.999665 
0.0246819 -0.00609779 0.999677 
0.0248952 -0.00475366 0.999679 
0.0254695 -0.00381091 0.999668 
0.0256583 -0.00320346 0.999666 
0.025679 -0.00280274 0.999666 
0.025537 -0.0024981 0.999671 
0.0259464 -0.0022316 0.999661 
0.0262611 -0.00192942 0.999653 
0.0260744 -0.00149311 0.999659 
0.025837 -0.000853135 0.999666 
0.0254826 9.29018e-05 0.999675 
0.0250214 0.00144196 0.999686 
0.0244702 0.00337412 0.999695 
0.0238236 0.00605969 0.999698 
0.0237009 0.00928345 0.999676 
0.0225309 0.0141874 0.999645 
0.0216102 0.020214 0.999562 
0.020718 0.0282292 0.999387 
0.0189191 0.0400327 0.999019 
0.0165397 0.0558467 0.998302 
0.0130874 0.0799787 0.996711 
0.00875064 0.114047 0.993437 
0.00481685 0.156615 0.987648 
0.00102749 0.210934 0.9775 
-0.0034771 0.286491 0.958077 
-0.00736224 0.3847 0.923012 
-0.00927149 0.498338 0.866934 
-0.00906627 0.64254 0.766199 
-0.00645163 0.811966 0.583669 
-0.00350109 0.953704 0.300725 
0.000816757 0.99998 -0.00632584 
0.0047868 0.94547 -0.325675 
0.00709489 0.81843 -0.574562 
0.00954261 0.651348 -0.758719 
0.00968785 0.495812 -0.868376 
0.00701949 0.372607 -0.927963 
0.00360647 0.285057 -0.958504 
-0.000772706 0.210895 -0.977508 
-0.00555996 0.154771 -0.987935 
-0.00948351 0.113656 -0.993475 
-0.0128357 0.0820865 -0.996543 
-0.0153647 0.0598074 -0.998092 
-0.0177815 0.0423881 -0.998943 
-0.0198943 0.0296258 -0.999363 
-0.0211668 0.0210438 -0.999554 
-0.0222381 0.0146874 -0.999645 
-0.0233048 0.00977264 -0.999681 
-0.0241008 0.00622768 -0.99969 
-0.0247257 0.00352908 -0.999688 
-0.0249802 0.00161995 -0.999687 
-0.0253253 0.0002285 -0.999679 
-0.0254277 -0.000743902 -0.999676 
-0.0257879 -0.00141595 -0.999666 
-0.0258402 -0.00190513 -0.999664 
-0.025894 -0.002253 -0.999662 
-0.0259684 -0.0025504 -0.99966 
-0.0258997 -0.00286845 -0.99966 
-0.0255278 -0.00328559 -0.999669 
-0.0254741 -0.0039198 -0.999668 
-0.0249581 -0.00484981 -0.999677 
-0.0255301 -0.00607876 -0.999656 
-0.0243513 -0.00803495 -0.999671 
-0.0230292 -0.0107858 -0.999677 
-0.022964 -0.0142303 -0.999635 
-0.0214507 -0.01869 -0.999595 
-0.0213169 -0.0230009 -0.999508 
-0.019387 -0.0283996 -0.999409 
-0.0168041 -0.0308503 -0.999383 
-0.0127143 -0.0205476 -0.999708 
-4.38313e-05 -4.24152e-05 -1 
4.28315e-05 0.000413209 1 
0.0102863 -0.0211185 0.999724 
0.0135973 -0.032051 0.999394 
0.0153602 -0.0289402 0.999463 
0.016489 -0.0239481 0.999577 
0.0178931 -0.0191944 0.999656 
0.0189459 -0.014998 0.999708 
0.0197274 -0.0111478 0.999743 
0.0204892 -0.0082298 0.999756 
0.0206767 -0.00624092 0.999767 
0.0208777 -0.00480276 0.999771 
0.0214924 -0.00381257 0.999762 
0.0215909 -0.00318386 0.999762 
0.0216894 -0.0027586 0.999761 
0.0215704 -0.00241694 0.999764 
0.0219248 -0.00208736 0.999757 
0.0221956 -0.00168621 0.999752 
0.0218174 -0.00109424 0.999761 
0.0216062 -0.000279623 0.999767 
0.0212373 0.000880118 0.999774 
0.0208108 0.00252309 0.99978 
0.0202369 0.00478998 0.999784 
0.0197196 0.00793853 0.999774 
0.0195453 0.0115687 0.999742 
0.0182881 0.0170606 0.999687 
0.0174893 0.0239137 0.999561 
0.0165842 0.0328736 0.999322 
0.0146725 0.0456882 0.998848 
0.0124882 0.0645169 0.997838 
0.00932682 0.090224 0.995878 
0.0052804 0.132046 0.99123 
0.00204128 0.180694 0.983537 
-0.000750944 0.234786 0.972047 
-0.00398172 0.31833 0.947972 
-0.00584862 0.417381 0.908713 
-0.00645622 0.554256 0.832321 
-0.00527574 0.707185 0.707009 
-0.00272943 0.809598 0.586979 
-0.00198109 0.923704 0.383101 
0.000387592 0.995903 0.0904302 
0.00166001 0.950079 -0.312004 
0.00363843 0.803449 -0.595363 
0.00646816 0.658621 -0.752447 
0.00703221 0.508225 -0.861196 
0.00536698 0.374884 -0.927056 
0.00277889 0.278334 -0.96048 
-8.35176e-05 0.212634 -0.977132 
-0.00389996 0.155472 -0.987833 
-0.00684922 0.115202 -0.993318 
-0.0100092 0.0833155 -0.996473 
-0.0123054 0.0593341 -0.998162 
-0.0147089 0.041721 -0.999021 
-0.0163925 0.0299421 -0.999417 
-0.0175136 0.0212756 -0.99962 
-0.0184807 0.0148376 -0.999719 
-0.0194062 0.0101108 -0.999761 
-0.0201231 0.0065374 -0.999776 
-0.0207108 0.00386201 -0.999778 
-0.0208998 0.00186621 -0.99978 
-0.0213563 0.000398201 -0.999772 
-0.0212461 -0.000585771 -0.999774 
-0.0219974 -0.00133552 -0.999757 
-0.0218586 -0.00187207 -0.999759 
-0.0218487 -0.00224503 -0.999759 
-0.0219033 -0.00257728 -0.999757 
-0.0217144 -0.00292578 -0.99976 
-0.0215534 -0.00340961 -0.999762 
-0.0214647 -0.00410602 -0.999761 
-0.0207195 -0.00512635 -0.999772 
-0.0215589 -0.00643556 -0.999747 
-0.020355 -0.00850059 -0.999757 
-0.0191777 -0.011574 -0.999749 
-0.0192422 -0.0151632 -0.9997 
-0.0175782 -0.0196852 -0.999652 
-0.0174623 -0.0239551 -0.999561 
-0.0154025 -0.029401 -0.999449 
-0.0129475 -0.0314235 -0.999422 
-0.00972319 -0.0202835 -0.999747 
-0.000114226 -7.72975e-05 -1 
7.69973e-05 0.000540648 1 
0.00654686 -0.0184114 0.999809 
0.00992751 -0.0306303 0.999481 
0.0118163 -0.0313306 0.999439 
0.0129611 -0.0263793 0.999568 
0.0142756 -0.0216121 0.999665 
0.0152707 -0.0172857 0.999734 
0.0160035 -0.0131193 0.999786 
0.0166465 -0.00971154 0.999814 
0.0169044 -0.00732825 0.99983 
0.0169464 -0.00553843 0.999841 
0.0173285 -0.00426892 0.999841 
0.0174969 -0.00348008 0.999841 
0.017625 -0.00294588 0.99984 
0.0176512 -0.00256122 0.999841 
0.0176778 -0.00219035 0.999841 
0.0178485 -0.00176881 0.999839 
0.0178634 -0.00123124 0.99984 
0.0174969 -0.000451894 0.999847 
0.0172584 0.000591104 0.999851 
0.016947 0.0020781 0.999854 
0.0164717 0.00412808 0.999856 
0.0161498 0.00691441 0.999846 
0.0154993 0.0105647 0.999824 
0.0152743 0.0148413 0.999773 
0.0142227 0.0212417 0.999673 
0.013506 0.0292431 0.999481 
0.0123407 0.0394364 0.999146 
0.0108227 0.0551862 0.998417 
0.00850534 0.0762319 0.997054 
0.00578546 0.108586 0.99407 
0.00236207 0.15698 0.987599 
-0.00013245 0.213974 0.976839 
-0.00215507 0.273731 0.961804 
-0.00400555 0.35678 0.93418 
-0.00523352 0.478225 0.878222 
-0.00446589 0.6079 0.794001 
-0.00256687 0.766914 0.641745 
-0.000265822 0.960051 0.279825 
0.00190571 0.998223 -0.0595591 
0.00130177 0.932425 -0.361362 
0.000649088 0.906674 -0.421831 
0.00229596 0.790087 -0.61299 
0.00434762 0.595871 -0.803068 
0.00490599 0.437502 -0.899204 
0.00349581 0.319868 -0.947456 
0.00117269 0.234495 -0.972117 
-0.00163989 0.174758 -0.98461 
-0.00407027 0.130499 -0.99144 
-0.00681701 0.0926721 -0.995673 
-0.00898493 0.0672532 -0.997695 
-0.0111454 0.0469681 -0.998834 
-0.0126028 0.0335333 -0.999358 
-0.0137227 0.0242306 -0.999612 
-0.0145874 0.0171243 -0.999747 
-0.0153105 0.0118447 -0.999813 
-0.0159548 0.00792409 -0.999841 
-0.0164878 0.00495804 -0.999852 
-0.0168172 0.00274109 -0.999855 
-0.0172044 0.00101572 -0.999851 
-0.0170897 -0.000144693 -0.999854 
-0.0177181 -0.00105233 -0.999842 
-0.017966 -0.00165687 -0.999837 
-0.0175676 -0.00212966 -0.999843 
-0.0177514 -0.00250124 -0.999839 
-0.017458 -0.00287543 -0.999843 
-0.0174316 -0.00334898 -0.999842 
-0.0172264 -0.00407253 -0.999843 
-0.0167777 -0.00516868 -0.999846 
-0.0175217 -0.00677538 -0.999824 
-0.0167545 -0.00918173 -0.999817 
-0.0156326 -0.0124145 -0.999801 
-0.0158334 -0.0161735 -0.999744 
-0.0143199 -0.0208986 -0.999679 
-0.0141728 -0.0250931 -0.999585 
-0.0122632 -0.0304983 -0.99946 
-0.010046 -0.0325983 -0.999418 
-0.00769331 -0.0216199 -0.999737 
-8.42991e-05 -0.000105813 -1 
9.63157e-05 0.000119532 1 
0.00557973 -0.0224109 0.999733 
0.00810433 -0.0336177 0.999402 
0.00916045 -0.0309236 0.99948 
0.0103363 -0.0255836 0.999619 
0.0112431 -0.0211343 0.999713 
0.012114 -0.0165762 0.999789 
0.0127082 -0.012394 0.999842 
0.0129145 -0.00928272 0.999874 
0.013171 -0.00691157 0.999889 
0.0133287 -0.00513654 0.999898 
0.0133231 -0.00402813 0.999903 
0.0135048 -0.00329245 0.999903 
0.0135221 -0.00280878 0.999905 
0.013669 -0.00241476 0.999904 
0.0134773 -0.00199865 0.999907 
0.0134417 -0.00149913 0.999909 
0.0135174 -0.000837359 0.999908 
0.0130811 9.48945e-05 0.999914 
0.0129421 0.00137643 0.999915 
0.0126243 0.00317905 0.999915 
0.0124051 0.00570666 0.999907 
0.0119655 0.00898373 0.999888 
0.0113295 0.0132664 0.999848 
0.0111942 0.0184551 0.999767 
0.0103178 0.0262409 0.999602 
0.00930401 0.0355928 0.999323 
0.00859092 0.0490711 0.998758 
0.00681145 0.0682011 0.997648 
0.00482526 0.0982001 0.995155 
0.00225027 0.140688 0.990051 
-0.000484643 0.215036 0.976606 
-0.00239177 0.296364 0.955072 
-0.00400104 0.412232 0.91107 
-0.00366085 0.56333 0.826224 
-0.00163998 0.707309 0.706903 
7.42048e-05 0.896174 0.443703 
0.000257791 0.929688 0.368348 
0.000482526 0.897693 0.440621 
-0.00275333 0.998972 0.0452491 
-0.00375846 0.966615 -0.256207 
-0.00327002 0.876892 -0.480675 
0.00167742 0.778649 -0.627458 
0.00302889 0.645542 -0.763719 
0.00388984 0.472747 -0.88119 
0.00340501 0.353929 -0.935266 
0.00178403 0.25657 -0.966524 
-0.000464519 0.180814 -0.983517 
-0.00295557 0.126212 -0.991999 
-0.00483655 0.0905376 -0.995881 
-0.0070211 0.0632287 -0.997974 
-0.00847959 0.0450553 -0.998949 
-0.00937958 0.0327522 -0.999419 
-0.0104038 0.0235745 -0.999668 
-0.0110342 0.0168276 -0.999798 
-0.0115289 0.0117466 -0.999865 
-0.0119826 0.00789332 -0.999897 
-0.0123525 0.00498341 -0.999911 
-0.0128694 0.00264481 -0.999914 
-0.0129108 0.00102601 -0.999916 
-0.0132672 -0.000264591 -0.999912 
-0.0134261 -0.00107768 -0.999909 
-0.0138184 -0.0017016 -0.999903 
-0.0133157 -0.00217507 -0.999909 
-0.01352 -0.00255974 -0.999905 
-0.013224 -0.00296318 -0.999908 
-0.0133056 -0.00350571 -0.999905 
-0.0131232 -0.00432384 -0.999905 
-0.0126565 -0.00553431 -0.999905 
-0.0137628 -0.00705948 -0.99988 
-0.0129865 -0.00945529 -0.999871 
-0.0122134 -0.0130494 -0.99984 
-0.0123817 -0.0173092 -0.999774 
-0.0110617 -0.0222412 -0.999691 
-0.0110226 -0.0265631 -0.999586 
-0.00917324 -0.0316413 -0.999457 
-0.00729363 -0.0333669 -0.999417 
-0.00559205 -0.0216634 -0.99975 
-2.57505e-05 -0.000275298 -1 
-5.22477e-06 -0.000326277 1 
0.00371708 -0.0216319 0.999759 
0.00555794 -0.033727 0.999416 
0.00641658 -0.0326813 0.999445 
0.00734784 -0.0275046 0.999595 
0.00805587 -0.0227631 0.999708 
0.00877571 -0.0180648 0.999798 
0.00934317 -0.0137438 0.999862 
0.00940716 -0.0102519 0.999903 
0.00964887 -0.0076063 0.999925 
0.00999651 -0.00566713 0.999934 
0.00974413 -0.00431701 0.999943 
0.00990798 -0.00346742 0.999945 
0.00986923 -0.00291946 0.999947 
0.0100277 -0.00250655 0.999947 
0.00986634 -0.00209011 0.999949 
0.00958822 -0.00157823 0.999953 
0.00965141 -0.000936886 0.999953 
0.00942804 -7.93196e-05 0.999956 
0.00923944 0.00117939 0.999957 
0.00904718 0.00290682 0.999955 
0.00901463 0.00533715 0.999945 
0.00864333 0.00859635 0.999926 
0.00816079 0.0127642 0.999885 
0.00785594 0.0182004 0.999803 
0.00762091 0.0250891 0.999656 
0.00638432 0.0347799 0.999375 
0.00610545 0.0475307 0.998851 
0.00478547 0.0652341 0.997859 
0.00353391 0.0917529 0.995776 
0.00158558 0.136475 0.990642 
-0.000218561 0.199159 0.979967 
-0.00184916 0.290191 0.956967 
-0.00309017 0.399398 0.916772 
-0.00282068 0.558685 0.829375 
-0.000749931 0.714437 0.699699 
-0.00233017 0.851209 0.524821 
0.00247107 0.993405 0.114631 
0.00249123 0.996431 0.0843742 
-0.000595979 0.998805 0.0488725 
-0.0025665 0.999419 0.0339982 
-0.00667962 0.99523 -0.097328 
-0.0026269 0.752772 -0.658277 
0.00182982 0.654183 -0.756334 
0.00300137 0.548471 -0.836164 
0.00295569 0.405028 -0.914299 
0.00215319 0.296941 -0.954894 
0.000598916 0.202432 -0.979296 
-0.00123486 0.141395 -0.989952 
-0.002717 0.0989477 -0.995089 
-0.00445219 0.0694613 -0.997575 
-0.0056142 0.0499631 -0.998735 
-0.00629729 0.0362264 -0.999324 
-0.00714424 0.0261124 -0.999633 
-0.0076699 0.0189154 -0.999792 
-0.00809271 0.0134491 -0.999877 
-0.00840918 0.00915102 -0.999923 
-0.00858325 0.00586457 -0.999946 
-0.0091855 0.00340204 -0.999952 
-0.00906942 0.00154644 -0.999958 
-0.00974794 0.000158155 -0.999952 
-0.00953613 -0.000819275 -0.999954 
-0.00994677 -0.00150935 -0.999949 
-0.00978288 -0.002018 -0.99995 
-0.00977887 -0.00247089 -0.999949 
-0.00968875 -0.00287249 -0.999949 
-0.00968526 -0.00342592 -0.999947 
-0.00942543 -0.00424666 -0.999947 
-0.00929106 -0.00557445 -0.999941 
-0.0099674 -0.00752702 -0.999922 
-0.0096713 -0.0103757 -0.999899 
-0.00877353 -0.0140109 -0.999863 