# vtk DataFile Version 3.0 
Exported using Morpho https://github.com/Morpho-lang/morpho 
ASCII 
DATASET UNSTRUCTURED_GRID 

POINTS 1978 float 
-12 -4 1.82552e-10 
-11.6103 -4 4.21434e-10 
-11.3092 -4 -1.03645e-10 
-10.9564 -4 2.51515e-10 
-10.6392 -4 1.04828e-10 
-10.2901 -4 1.3696e-10 
-9.96867 -4 8.46368e-11 
-9.64895 -4 7.70051e-11 
-9.3136 -4 6.42697e-11 
-8.99489 -4 4.70881e-11 
-8.68107 -4 2.97628e-11 
-8.36716 -4 3.59973e-11 
-8.05961 -4 1.99056e-11 
-7.76293 -4 2.1899e-11 
-7.48164 -4 1.66623e-11 
-7.18803 -4 1.55091e-11 
-6.8916 -4 1.69239e-11 
-6.59741 -4 1.4549e-11 
-6.2972 -4 1.42831e-11 
-5.98943 -4 6.6967e-12 
-5.6853 -4 -1.10045e-13 
-5.38038 -4 -1.49889e-11 
-5.079 -4 -1.23377e-11 
-4.7855 -4 -5.9785e-11 
-4.45505 -4 -9.10606e-11 
-4.16708 -4 -7.02498e-11 
-3.87025 -4 -2.00369e-10 
-3.55176 -4 -2.61072e-10 
-3.25456 -4 -2.6293e-10 
-2.96567 -4 -4.41853e-10 
-2.66811 -4 -3.57392e-10 
-2.41748 -4 -1.43147e-10 
-2.15311 -4 -1.46785e-10 
-1.87526 -4 -1.49506e-10 
-1.61695 -4 1.80014e-10 
-1.35688 -4 6.49423e-10 
-1.08349 -4 -8.32676e-10 
-0.800138 -4 -8.65191e-10 
-0.485838 -4 1.05749e-10 
-0.0257278 -4 -2.26523e-09 
0.450415 -4 6.66792e-09 
0.797749 -4 -1.94126e-09 
1.05676 -4 2.10187e-09 
1.33142 -4 -2.02753e-10 
1.57988 -4 -5.33073e-10 
1.82877 -4 -4.82901e-10 
2.08241 -4 3.01276e-10 
2.35629 -4 6.82645e-10 
2.67641 -4 4.92478e-10 
2.98072 -4 4.57571e-10 
3.29582 -4 2.88676e-10 
3.58366 -4 1.85883e-10 
3.88299 -4 1.83972e-10 
4.19645 -4 1.12567e-10 
4.49626 -4 6.49105e-11 
4.79298 -4 5.11685e-11 
5.10453 -4 2.86591e-11 
5.41172 -4 1.01529e-11 
5.72247 -4 -1.9134e-12 
6.01648 -4 -2.88165e-12 
6.309 -4 -1.15018e-11 
6.60093 -4 -1.90377e-11 
6.8983 -4 -1.14326e-11 
7.1725 -4 -1.60411e-11 
7.47189 -4 -1.77525e-11 
7.76759 -4 -2.86818e-11 
8.0642 -4 -1.46155e-11 
8.35488 -4 -4.24127e-11 
8.65471 -4 -1.0854e-11 
8.93101 -4 -4.53263e-11 
9.27871 -4 -7.65689e-11 
9.60495 -4 -4.19556e-11 
9.89715 -4 -1.15118e-10 
10.2666 -4 -1.19606e-10 
10.5828 -4 -1.23693e-10 
10.9846 -4 -2.87791e-10 
11.305 -4 2.06127e-10 
11.5972 -4 -4.73203e-10 
12 -4 -1.98466e-10 
-12 -3.61127 -9.12998e-11 
-11.7112 -3.71175 1.23205e-16 
-11.3633 -3.62745 3.10745e-16 
-11.05 -3.67934 3.47261e-16 
-10.7123 -3.64635 4.07268e-16 
-10.3947 -3.68103 3.42708e-16 
-10.0578 -3.66234 2.86919e-16 
-9.73508 -3.66948 2.36358e-16 
-9.40227 -3.68858 1.89655e-16 
-9.06542 -3.67222 1.38107e-16 
-8.7453 -3.66816 1.05486e-16 
-8.42907 -3.67143 8.45033e-17 
-8.11432 -3.66952 7.74197e-17 
-7.80334 -3.66286 7.73455e-17 
-7.50368 -3.65202 6.20482e-17 
-7.20984 -3.6707 4.31187e-17 
-6.9005 -3.66568 2.34946e-17 
-6.59317 -3.66977 3.28404e-17 
-6.27987 -3.67546 5.23605e-18 
-5.96812 -3.67053 -1.84348e-17 
-5.6576 -3.66928 -4.9466e-17 
-5.35137 -3.66429 -9.85662e-17 
-5.05497 -3.65616 -1.68591e-16 
-4.73025 -3.69521 -2.31319e-16 
-4.43494 -3.65803 -3.79664e-16 
-4.13256 -3.67397 -4.44841e-16 
-3.8131 -3.7003 -5.84575e-16 
-3.50009 -3.68592 -8.89797e-16 
-3.20006 -3.68158 -9.34444e-16 
-2.89954 -3.69873 -1.56324e-15 
-2.63196 -3.63689 -1.33056e-15 
-2.36187 -3.66634 -1.28235e-15 
-2.07806 -3.69845 -9.68856e-16 
-1.80578 -3.68468 -1.05337e-15 
-1.53603 -3.67569 -1.05539e-15 
-1.25655 -3.6616 -4.14531e-15 
-0.967526 -3.63626 -1.12512e-14 
-0.665465 -3.58179 -4.94936e-14 
-0.315417 -3.69453 3.7502e-14 
0.00883437 -3.5313 6.96776e-14 
0.323365 -3.67542 -1.05177e-13 
0.696017 -3.61031 4.11184e-14 
1.01404 -3.6 3.94465e-15 
1.28074 -3.67436 3.72492e-15 
1.56222 -3.66742 6.59712e-16 
1.82526 -3.66873 8.61837e-16 
2.10423 -3.6923 3.13339e-16 
2.41575 -3.72985 1.02257e-15 
2.71558 -3.70139 1.08207e-15 
3.02374 -3.701 1.115e-15 
3.31506 -3.66823 9.8431e-16 
3.61347 -3.67445 7.37971e-16 
3.92575 -3.68653 6.01011e-16 
4.22687 -3.66732 4.68881e-16 
4.52417 -3.66166 3.22904e-16 
4.83378 -3.67597 2.05233e-16 
5.1439 -3.67201 1.39032e-16 
5.45735 -3.67589 9.05472e-17 
5.76073 -3.65984 5.20523e-17 
6.06009 -3.6618 1.09256e-17 
6.35775 -3.66083 -1.51178e-17 
6.66221 -3.67013 -2.86583e-17 
6.94739 -3.64164 -4.29081e-17 
7.24726 -3.67117 -6.37132e-17 
7.54942 -3.66548 -5.78777e-17 
7.85196 -3.66508 -6.88923e-17 
8.14974 -3.65755 -8.08543e-17 
8.4471 -3.66694 -9.63555e-17 
8.73577 -3.63414 -1.38481e-16 
9.056 -3.70609 -1.54137e-16 
9.38786 -3.68149 -1.70592e-16 
9.6944 -3.63672 -2.44129e-16 
10.0292 -3.70955 -2.78437e-16 
10.3578 -3.65544 -3.07882e-16 
10.7238 -3.72454 -3.99007e-16 
11.0582 -3.65197 -3.6729e-16 
11.3608 -3.6177 -2.60829e-16 
11.7113 -3.72293 -1.50261e-16 
12 -3.61182 9.5188e-11 
-12 -3.31099 -9.0653e-11 
-11.6326 -3.36492 3.85147e-16 
-11.2884 -3.28591 4.64881e-16 
-10.9762 -3.33694 7.16473e-16 
-10.6587 -3.29762 7.70875e-16 
-10.3387 -3.34859 5.96195e-16 
-10.0134 -3.32672 5.28412e-16 
-9.69593 -3.33194 4.4532e-16 
-9.3847 -3.37247 3.38789e-16 
-9.07064 -3.3409 2.76505e-16 
-8.77278 -3.31847 2.19526e-16 
-8.47335 -3.339 1.68751e-16 
-8.16468 -3.33883 1.34639e-16 
-7.85703 -3.33464 1.07797e-16 
-7.55246 -3.31414 9.80669e-17 
-7.25273 -3.32969 8.88037e-17 
-6.95584 -3.34662 7.30147e-17 
-6.64333 -3.34163 5.02033e-17 
-6.33428 -3.35111 1.91006e-17 
-6.02339 -3.34427 -2.36313e-17 
-5.71249 -3.34041 -8.5558e-17 
-5.40474 -3.3327 -1.58149e-16 
-5.10136 -3.31377 -2.55112e-16 
-4.80061 -3.37437 -3.75723e-16 
-4.49972 -3.32848 -5.8879e-16 
-4.19813 -3.34526 -7.91333e-16 
-3.89272 -3.38641 -1.05665e-15 
-3.58556 -3.38428 -1.48082e-15 
-3.26927 -3.36441 -1.75129e-15 
-2.96788 -3.37734 -1.75779e-15 
-2.67461 -3.31341 -2.03037e-15 
-2.38304 -3.32803 -1.46244e-15 
-2.10599 -3.38425 9.17801e-17 
-1.82395 -3.36655 7.4552e-18 
-1.535 -3.3523 9.89429e-16 
-1.24487 -3.3126 -1.57046e-15 
-0.953467 -3.2508 -1.14752e-14 
-0.620963 -3.16527 -2.76337e-14 
-0.313989 -3.2849 5.20044e-15 
0.0402375 -3.07831 1.52343e-13 
0.359127 -3.25057 -4.30127e-14 
0.642331 -3.14555 9.14306e-15 
0.954023 -3.23261 8.2245e-15 
1.27547 -3.29494 2.24448e-15 
1.53709 -3.34227 -1.74149e-15 
1.81952 -3.33984 -1.83344e-16 
2.08725 -3.38054 7.7059e-16 
2.37288 -3.44136 1.4199e-15 
2.67067 -3.39957 2.36761e-15 
2.9724 -3.395 1.792e-15 
3.27167 -3.34435 1.78484e-15 
3.57222 -3.34602 1.34039e-15 
3.87295 -3.36826 1.05705e-15 
4.17584 -3.34044 7.91616e-16 
4.47785 -3.32507 5.77456e-16 
4.77733 -3.34648 4.01874e-16 
5.08155 -3.34647 2.69701e-16 
5.39226 -3.35176 1.62393e-16 
5.70084 -3.33177 8.7289e-17 
6.01101 -3.32489 2.39621e-17 
6.30966 -3.32413 -1.60625e-17 
6.61218 -3.34158 -4.07315e-17 
6.91167 -3.2967 -6.2672e-17 
7.20858 -3.33598 -8.07834e-17 
7.50983 -3.33504 -9.62067e-17 
7.81496 -3.33454 -1.16916e-16 
8.1207 -3.32112 -1.35268e-16 
8.4219 -3.32303 -1.57831e-16 
8.74512 -3.31718 -2.20794e-16 
9.06936 -3.3901 -2.56242e-16 
9.38276 -3.34475 -3.5155e-16 
9.69368 -3.29347 -4.61203e-16 
10.0064 -3.38441 -4.97314e-16 
10.3115 -3.30798 -6.56475e-16 
10.6382 -3.40848 -6.69429e-16 
10.9696 -3.33691 -7.7836e-16 
11.2996 -3.26016 -4.32147e-16 
11.6341 -3.3755 -4.16683e-16 
12 -3.30457 8.34153e-11 
-12 -2.98566 -2.43838e-10 
-11.6612 -3.05301 1.77642e-16 
-11.3197 -2.96818 -1.8205e-16 
-10.9717 -2.9833 1.3388e-16 
-10.6293 -2.97261 2.14466e-16 
-10.2959 -3.01081 1.83924e-16 
-9.9702 -2.99022 1.62734e-16 
-9.6491 -2.99861 1.59245e-16 
-9.34652 -3.0309 1.57021e-16 
-9.04463 -2.98944 9.91441e-17 
-8.73961 -2.97534 7.32338e-17 
-8.43665 -3.00283 6.81992e-17 
-8.13046 -3.00457 4.86538e-17 
-7.82994 -2.99808 3.17545e-17 
-7.52645 -2.97941 1.71302e-17 
-7.22766 -2.99577 1.40218e-17 
-6.92379 -3.02411 1.02377e-17 
-6.6148 -3.01598 -5.44758e-18 
-6.30925 -3.02221 -1.66756e-17 
-6.0014 -3.01535 -3.42603e-17 
-5.69551 -3.0094 -6.29461e-17 
-5.39117 -2.99949 -8.99837e-17 
-5.08842 -2.98209 -1.12766e-16 
-4.78957 -3.04194 -1.97335e-16 
-4.4903 -2.99775 -2.1102e-16 
-4.19432 -3.01948 -3.0621e-16 
-3.89611 -3.06463 -5.04731e-16 
-3.5917 -3.06459 -5.76704e-16 
-3.289 -3.05826 -7.87335e-16 
-2.96579 -3.05288 -9.62604e-16 
-2.6668 -2.97158 -1.76103e-16 
-2.3738 -2.99109 -1.14779e-15 
-2.09458 -3.05491 7.91087e-16 
-1.80578 -3.04277 1.49116e-15 
-1.51525 -3.00641 4.29504e-15 
-1.23698 -2.92321 1.26539e-14 
-0.90206 -2.86804 1.52985e-14 
-0.586102 -2.71275 9.17626e-14 
-0.261087 -2.82798 -2.08799e-13 
0.00842496 -2.50437 1.72205e-13 
0.30703 -2.71593 -1.33553e-13 
0.583426 -2.60158 -4.72729e-14 
0.884778 -2.82184 6.17571e-15 
1.2202 -2.93869 -3.76038e-15 
1.5376 -2.95681 -7.75634e-16 
1.80223 -3.00915 2.17699e-16 
2.09382 -3.04462 1.00391e-16 
2.36939 -3.13026 8.98904e-16 
2.65585 -3.06831 7.77454e-16 
2.94173 -3.07887 1.06644e-15 
3.24377 -3.02397 5.85616e-16 
3.55165 -3.02336 5.90062e-16 
3.86234 -3.04217 4.90859e-16 
4.16461 -3.01313 3.26135e-16 
4.46782 -2.99851 2.26848e-16 
4.77199 -3.01221 1.83471e-16 
5.07049 -3.01563 1.32793e-16 
5.37282 -3.02648 9.66695e-17 
5.67775 -3.00246 6.04433e-17 
5.9841 -3.00278 3.60987e-17 
6.2981 -2.98471 1.92496e-17 
6.59584 -3.00872 3.78094e-18 
6.9177 -2.98325 -2.5155e-18 
7.23628 -3.00207 -1.56717e-17 
7.53733 -3.00285 -2.54716e-17 
7.84112 -3.0032 -3.63376e-17 
8.13859 -2.98311 -4.42696e-17 
8.44919 -3.00259 -5.90751e-17 
8.74619 -2.9727 -7.01099e-17 
9.04734 -3.06343 -1.37437e-16 
9.35553 -3.01125 -1.36648e-16 
9.66011 -2.95382 -1.15598e-16 
9.98761 -3.03496 -2.01037e-16 
10.3239 -2.98039 -1.56532e-16 
10.6544 -3.07474 -4.2524e-16 
10.9875 -2.99812 -1.39592e-16 
11.3377 -2.93773 2.4348e-16 
11.6678 -3.05817 -1.74011e-16 
12 -2.96788 2.479e-10 
-12 -2.66771 -9.7504e-11 
-11.654 -2.72583 2.04055e-17 
-11.318 -2.63921 -4.90104e-16 
-10.9809 -2.6607 -1.39279e-16 
-10.6463 -2.64396 -1.9873e-18 
-10.3101 -2.67833 -8.62754e-18 
-9.97291 -2.66936 1.29358e-17 
-9.63872 -2.66826 4.2479e-17 
-9.31684 -2.68267 5.09038e-17 
-9.00069 -2.65125 4.09264e-17 
-8.68698 -2.64206 3.06892e-17 
-8.37752 -2.6726 2.59252e-17 
-8.07244 -2.6666 1.73724e-17 
-7.76413 -2.66587 8.13184e-18 
-7.4511 -2.6514 8.27947e-20 
-7.1439 -2.67463 -5.02167e-18 
-6.84114 -2.6981 -1.06253e-17 
-6.53095 -2.68742 -1.56927e-17 
-6.22623 -2.69097 -2.09897e-17 
-5.92023 -2.68291 -3.14432e-17 
-5.6155 -2.67701 -4.18522e-17 
[...]
POINT_DATA 1978 
VECTORS vectors float
0.00255448 -0.0020273 0.999995 
0.00357953 -0.032839 0.999456 
0.00264868 -0.0355036 0.999367 
0.00296006 -0.0283458 0.999595 
0.00286231 -0.0224274 0.999745 
0.00291616 -0.0162166 0.999865 
0.00304311 -0.0117963 0.999927 
0.00303666 -0.00855886 0.99996 
0.0030612 -0.00636644 0.999976 
0.00313173 -0.00493313 0.999984 
0.00314599 -0.00393482 0.999988 
0.0031488 -0.00335989 0.99999 
0.00321933 -0.00301087 0.999991 
0.00333386 -0.0027764 0.999991 
0.00336171 -0.00259318 0.999992 
0.00325068 -0.00243826 0.999993 
0.00329188 -0.00243082 0.999993 
0.00327157 -0.00227832 0.999993 
0.00317637 -0.00191838 0.999994 
0.00319459 -0.00130886 0.999995 
0.00315548 -0.000309074 0.999996 
0.00318252 0.00114155 0.999995 
0.00316983 0.00335438 0.99999 
0.00301988 0.0061906 0.999977 
0.00302487 0.0106447 0.99994 
0.00305645 0.0159937 0.999868 
0.00286605 0.0233039 0.999725 
0.00271854 0.0342431 0.999411 
0.00261096 0.0482822 0.998831 
0.00240326 0.0675966 0.99771 
0.00210373 0.0943343 0.995539 
0.00170518 0.126558 0.991958 
0.000973961 0.172352 0.985035 
0.000206503 0.237682 0.971343 
-0.000770924 0.316761 0.948505 
-0.00196041 0.418373 0.908273 
-0.00269732 0.548266 0.8363 
-0.00353775 0.698114 0.715979 
-0.0027365 0.86758 0.497292 
-4.8741e-05 0.999374 0.0353744 
0.00251371 0.883402 -0.468611 
0.00369936 0.69603 -0.718004 
0.00287106 0.558517 -0.829489 
0.00190772 0.427321 -0.904098 
0.000905245 0.330458 -0.94382 
1.71844e-05 0.250952 -0.968 
-0.000770306 0.186161 -0.982519 
-0.00153121 0.135317 -0.990801 
-0.00192247 0.0942422 -0.995548 
-0.00231569 0.0665649 -0.99778 
-0.00260467 0.0462415 -0.998928 
-0.0028342 0.0329265 -0.999454 
-0.00286881 0.0230789 -0.99973 
-0.00295319 0.0156004 -0.999875 
-0.00308492 0.0101865 -0.999944 
-0.00309225 0.00625597 -0.999977 
-0.00308472 0.00321128 -0.999991 
-0.00311058 0.00109507 -0.999996 
-0.00319642 -0.000373704 -0.999996 
-0.00327853 -0.00133558 -0.999995 
-0.00327296 -0.0018869 -0.999994 
-0.00329224 -0.00219472 -0.999993 
-0.00335083 -0.00242642 -0.999992 
-0.0033426 -0.00257124 -0.999992 
-0.00326413 -0.0027127 -0.999992 
-0.00324546 -0.0029313 -0.999991 
-0.00327515 -0.00320833 -0.99999 
-0.0032817 -0.0035097 -0.999989 
-0.0033619 -0.00405186 -0.999987 
-0.00313754 -0.00478364 -0.999985 
-0.00300177 -0.00603863 -0.999979 
-0.00315802 -0.00820787 -0.999962 
-0.00303258 -0.0109881 -0.999936 
-0.00300316 -0.0159226 -0.99987 
-0.00287624 -0.021302 -0.99977 
-0.00294856 -0.0289261 -0.999578 
-0.00283377 -0.0356374 -0.999362 
-0.00353602 -0.0332372 -0.999443 
-0.00255043 -0.00203318 -0.999995 
0.00213001 0.0013799 0.999996 
0.00880109 -0.0219056 0.999721 
0.0137342 -0.0306842 0.999435 
0.0138606 -0.029357 0.999473 
0.015179 -0.0233178 0.999613 
0.0147915 -0.0180534 0.999728 
0.0159206 -0.01338 0.999784 
0.0163472 -0.00984566 0.999818 
0.0164022 -0.00723232 0.999839 
0.0170996 -0.00541549 0.999839 
0.0174391 -0.00425704 0.999839 
0.0177262 -0.00352333 0.999837 
0.0181111 -0.00303056 0.999831 
0.0187043 -0.00270149 0.999821 
0.0193482 -0.00253153 0.99981 
0.0187143 -0.00241926 0.999822 
0.0183445 -0.00224524 0.999829 
0.0184822 -0.00195952 0.999827 
0.0180684 -0.00152589 0.999836 
0.0180957 -0.000785154 0.999836 
0.0179723 0.000374144 0.999838 
0.0179793 0.00205027 0.999836 
0.0178161 0.00432745 0.999832 
0.0161829 0.00764923 0.99984 
0.0172019 0.0121372 0.999778 
0.0158158 0.0179716 0.999713 
0.0141364 0.0263403 0.999553 
0.013556 0.0381452 0.99918 
0.0119283 0.0542579 0.998456 
0.00992903 0.076515 0.997019 
0.00813176 0.105354 0.994402 
0.00487139 0.143783 0.989597 
0.00116979 0.1977 0.980262 
-0.00252132 0.268807 0.963191 
-0.0060637 0.357558 0.933871 
-0.00891717 0.471353 0.881899 
-0.0105149 0.611857 0.790899 
-0.00918688 0.770335 0.637573 
-0.00457268 0.934776 0.35521 
0.000445044 0.99998 -0.00627741 
0.00535695 0.931678 -0.363246 
0.00961109 0.755012 -0.655641 
0.0110084 0.591698 -0.806085 
0.00834013 0.459553 -0.888111 
0.00559221 0.343963 -0.938967 
0.00203016 0.258001 -0.966142 
-0.00151623 0.189477 -0.981884 
-0.00492561 0.132396 -0.991185 
-0.00808164 0.09402 -0.995537 
-0.0104421 0.0665056 -0.997731 
-0.0128961 0.0476417 -0.998781 
-0.01401 0.0337965 -0.999331 
-0.0148885 0.0233775 -0.999616 
-0.0162471 0.0161068 -0.999738 
-0.0169181 0.0107832 -0.999799 
-0.0168389 0.00664739 -0.999836 
-0.0173352 0.00362052 -0.999843 
-0.0175868 0.00140036 -0.999844 
-0.0185971 -3.45522e-05 -0.999827 
-0.0187551 -0.000985318 -0.999824 
-0.0188865 -0.00159638 -0.99982 
-0.0189767 -0.00204206 -0.999818 
-0.0199773 -0.00226789 -0.999798 
-0.0187288 -0.00243507 -0.999822 
-0.0188591 -0.00267417 -0.999819 
-0.0188722 -0.00293923 -0.999818 
-0.0190172 -0.00326288 -0.999814 
-0.0186228 -0.00372045 -0.99982 
-0.0194182 -0.00430343 -0.999802 
-0.0162784 -0.0052894 -0.999854 
-0.0166362 -0.00712917 -0.999836 
-0.0174737 -0.00951299 -0.999802 
-0.0145645 -0.0128886 -0.999811 
-0.0154042 -0.0174313 -0.999729 
-0.0131493 -0.0235908 -0.999635 
-0.0147162 -0.0295438 -0.999455 
-0.0138803 -0.0307581 -0.99943 
-0.00862462 -0.0220693 -0.999719 
-0.00206645 0.00121042 -0.999997 
0.00225909 0.000480333 0.999997 
0.0142265 -0.0222945 0.99965 
0.0199252 -0.030896 0.999324 
0.0212254 -0.0280425 0.999381 
0.022302 -0.0225444 0.999497 
0.0228935 -0.0179357 0.999577 
0.0242304 -0.0137293 0.999612 
0.0252412 -0.0102894 0.999628 
0.0253225 -0.00759354 0.99965 
0.0263949 -0.00580532 0.999635 
0.0272012 -0.00462749 0.999619 
0.0270909 -0.0037519 0.999626 
0.0273329 -0.00319047 0.999621 
0.0274993 -0.00280893 0.999618 
0.027948 -0.00253365 0.999606 
0.0278137 -0.00230722 0.99961 
0.0276642 -0.00209321 0.999615 
0.0277673 -0.00176272 0.999613 
0.0274506 -0.00125714 0.999622 
0.0271931 -0.000457779 0.99963 
0.026808 0.000737701 0.99964 
0.0264444 0.00249004 0.999647 
0.02606 0.00492847 0.999648 
0.0250314 0.00792931 0.999655 
0.0249116 0.0123873 0.999613 
0.0238676 0.0182347 0.999549 
0.0222547 0.0260522 0.999413 
0.0205061 0.0369857 0.999105 
0.0180786 0.0533789 0.998411 
0.0148995 0.0755797 0.997028 
0.0113228 0.106588 0.994239 
0.0068833 0.147793 0.988994 
0.00215149 0.19989 0.979816 
-0.00301217 0.270332 0.962763 
-0.0082129 0.365628 0.930725 
-0.0120606 0.485915 0.873923 
-0.0132234 0.628759 0.777488 
-0.010979 0.791156 0.611516 
-0.00638407 0.935464 0.353365 
0.00154183 0.99955 -0.0299708 
0.00783399 0.92645 -0.376337 
0.0113686 0.786336 -0.617694 
0.0132405 0.622274 -0.782688 
0.0116563 0.469692 -0.882753 
0.00808213 0.359789 -0.932999 
0.00302548 0.269004 -0.963134 
-0.00196337 0.201346 -0.979518 
-0.00698547 0.14557 -0.989323 
-0.0113667 0.104103 -0.994502 
-0.0149209 0.0746426 -0.997099 
-0.0180201 0.0544698 -0.998353 
-0.0202182 0.0387109 -0.999046 
-0.021906 0.0272384 -0.999389 
-0.0233972 0.0190099 -0.999545 
-0.024484 0.0129422 -0.999616 
-0.0251663 0.00843676 -0.999648 
-0.0258833 0.00510158 -0.999652 
-0.0263361 0.00258909 -0.99965 
-0.0269664 0.000871889 -0.999636 
-0.027419 -0.000326292 -0.999624 
-0.0276549 -0.00113015 -0.999617 
-0.0277436 -0.00171405 -0.999614 
-0.028153 -0.00203798 -0.999602 
-0.0279458 -0.00233125 -0.999607 
-0.0278135 -0.00257424 -0.99961 
-0.0277217 -0.00284867 -0.999612 
-0.0275837 -0.00321151 -0.999614 
-0.0272264 -0.00373583 -0.999622 
-0.027305 -0.0045898 -0.999617 
-0.0257313 -0.00577473 -0.999652 
-0.0258257 -0.00766183 -0.999637 
-0.0255935 -0.0102875 -0.999619 
-0.0235115 -0.0134231 -0.999633 
-0.0234862 -0.0176241 -0.999569 
-0.021174 -0.0223009 -0.999527 
-0.0213036 -0.0280195 -0.99938 
-0.0197618 -0.0308456 -0.999329 
-0.0140149 -0.0221449 -0.999657 
-0.00209781 0.000247513 -0.999997 
0.00155149 0.000105908 0.999998 
0.013144 -0.0210449 0.999692 
0.0174543 -0.0311148 0.999363 
0.0192457 -0.0281262 0.999419 
0.0203646 -0.022817 0.999532 
0.0217748 -0.018193 0.999597 
0.0225958 -0.0140156 0.999646 
0.0236733 -0.0105153 0.999664 
0.0247295 -0.00791943 0.999663 
0.0247583 -0.00609946 0.999675 
0.024962 -0.00475366 0.999677 
0.0255518 -0.00381094 0.999666 
0.0257362 -0.00320496 0.999664 
0.0257537 -0.00280524 0.999664 
0.0255976 -0.0025014 0.999669 
0.026026 -0.0022358 0.999659 
0.0263467 -0.00193429 0.999651 
0.0261575 -0.00149912 0.999657 
0.0259173 -0.000859059 0.999664 
0.0255631 8.65742e-05 0.999673 
0.0250978 0.00143447 0.999684 
0.0245421 0.00336679 0.999693 
0.0238872 0.00605407 0.999696 
0.0237835 0.00927667 0.999674 
0.0225921 0.014183 0.999644 
0.0216721 0.0202117 0.999561 
0.0207931 0.0282175 0.999386 
0.0189928 0.0400636 0.999017 
0.0166074 0.0558055 0.998304 
0.0131397 0.079959 0.996712 
0.00876979 0.114045 0.993437 
0.00483031 0.156605 0.98765 
0.00103535 0.210927 0.977501 
-0.00348937 0.286522 0.958067 
-0.00739453 0.384811 0.922966 
-0.00933011 0.498779 0.866679 
-0.00910384 0.641722 0.766883 
-0.00648045 0.811942 0.583703 
-0.00351096 0.953599 0.301058 
0.000889755 0.99998 -0.00616685 
0.00483786 0.94562 -0.325237 
0.00715928 0.817823 -0.575425 
0.00954402 0.650413 -0.759521 
0.00972605 0.495611 -0.86849 
0.00705526 0.372762 -0.9279 
0.00361792 0.285076 -0.958498 
-0.000772269 0.210957 -0.977495 
-0.00558535 0.154798 -0.98793 
-0.00953113 0.113629 -0.993478 
-0.0128895 0.0820564 -0.996544 
-0.0154136 0.0597828 -0.998092 
-0.0178404 0.0423708 -0.998943 
-0.0199654 0.0296151 -0.999362 
-0.021233 0.0210339 -0.999553 
-0.0222994 0.0146816 -0.999644 
-0.0233775 0.0097682 -0.999679 
-0.0241782 0.00622341 -0.999688 
-0.0248102 0.00352466 -0.999686 
-0.0250489 0.0016132 -0.999685 
-0.0253983 0.000222951 -0.999677 
-0.0255013 -0.000749528 -0.999675 
-0.0258654 -0.00142083 -0.999664 
-0.0259089 -0.00190975 -0.999662 
-0.0259696 -0.00225692 -0.99966 
-0.026046 -0.00255372 -0.999657 
-0.0259762 -0.00287078 -0.999658 
-0.0255997 -0.00328719 -0.999667 
-0.025547 -0.00392066 -0.999666 
-0.0250257 -0.00485128 -0.999675 
-0.0256342 -0.00608082 -0.999653 
-0.0244277 -0.0080357 -0.999669 
-0.0230897 -0.0107939 -0.999675 
-0.0230523 -0.0142491 -0.999633 
-0.0215191 -0.0187177 -0.999593 
-0.0214217 -0.0230221 -0.999505 
-0.0194664 -0.0284842 -0.999405 
-0.016904 -0.0310994 -0.999373 
-0.0128829 -0.0207442 -0.999702 
-0.00136098 0.000294889 -0.999999 
0.0009509 -0.000249724 0.999999 
0.0103824 -0.0212987 0.999719 
0.013643 -0.0323184 0.999385 
0.0153824 -0.029023 0.99946 
0.0165072 -0.0239749 0.999576 
0.0179192 -0.0192252 0.999655 
0.0189786 -0.0150206 0.999707 
0.0197533 -0.0111518 0.999743 
0.0205228 -0.00823296 0.999755 
0.020712 -0.0062424 0.999766 
0.0209098 -0.00480355 0.99977 
0.0215274 -0.00381348 0.999761 
0.0216265 -0.00318545 0.999761 
0.0217254 -0.00276159 0.99976 
0.0216049 -0.00242059 0.999764 
0.0219606 -0.00209194 0.999757 
0.0222357 -0.00169124 0.999751 
0.0218514 -0.00109911 0.999761 
0.0216398 -0.00028416 0.999766 
0.0212719 0.000874863 0.999773 
0.0208447 0.00251836 0.99978 
0.0202691 0.00478616 0.999783 
0.0197493 0.00793626 0.999773 
0.0195802 0.0115657 0.999741 
0.0183173 0.0170588 0.999687 
0.0175163 0.0239153 0.999561 
0.0166149 0.0328627 0.999322 
0.0146917 0.045689 0.998848 
0.0125153 0.0644841 0.99784 
0.00934782 0.0901546 0.995884 
0.00528779 0.13201 0.991234 
0.00204402 0.180659 0.983544 
-0.000760887 0.234868 0.972027 
-0.00399712 0.318415 0.947943 
-0.00587994 0.417799 0.90852 
-0.00645833 0.554284 0.832303 
-0.00533129 0.7069 0.707294 
-0.00286739 0.808813 0.588059 
-0.001996 0.92364 0.383256 
0.00032608 0.996041 0.0888945 
0.00181279 0.949708 -0.313132 
0.00371422 0.804039 -0.594565 
0.00649653 0.66004 -0.751202 
0.00703004 0.508285 -0.86116 
0.00538196 0.374836 -0.927075 
0.00279037 0.27841 -0.960458 
-7.53034e-05 0.212659 -0.977127 
-0.00390001 0.155472 -0.987833 
-0.00685932 0.115222 -0.993316 
-0.0100235 0.0833095 -0.996473 
-0.0123221 0.0593395 -0.998162 
-0.0147326 0.0417225 -0.999021 
-0.0164202 0.0299391 -0.999417 
-0.0175431 0.0212733 -0.99962 
-0.0185075 0.0148368 -0.999719 
-0.0194399 0.0101073 -0.99976 
-0.0201563 0.00653303 -0.999775 
-0.0207439 0.00385671 -0.999777 
-0.0209328 0.0018607 -0.999779 
-0.0213919 0.000392179 -0.999771 
-0.021282 -0.00059088 -0.999773 
-0.0220352 -0.00134039 -0.999756 
-0.0218941 -0.001877 -0.999759 
-0.0218869 -0.00224947 -0.999758 
-0.0219393 -0.00258084 -0.999756 
-0.021751 -0.00292856 -0.999759 
-0.0215899 -0.00341125 -0.999761 
-0.0215076 -0.00410811 -0.99976 
-0.0207433 -0.00512498 -0.999772 
-0.0215962 -0.00643386 -0.999746 
-0.0203892 -0.00850248 -0.999756 
-0.0192053 -0.0115777 -0.999749 
-0.0192701 -0.0151788 -0.999699 
-0.0175996 -0.0197165 -0.999651 
-0.0174851 -0.023986 -0.999559 
-0.0154211 -0.029497 -0.999446 
-0.0129918 -0.0316762 -0.999414 
-0.00981715 -0.0204775 -0.999742 
-0.0012554 0.000252353 -0.999999 
0.000930478 -0.000429525 0.999999 
0.00661547 -0.0186134 0.999805 
0.00997125 -0.0308691 0.999474 
0.0118421 -0.031471 0.999434 
0.0129851 -0.0264164 0.999567 
0.0143026 -0.0216484 0.999663 
0.0153005 -0.0173132 0.999733 
0.0160334 -0.0131321 0.999785 
0.0166772 -0.00971568 0.999814 
0.0169372 -0.00733031 0.99983 
0.0169755 -0.00553982 0.999841 
0.0173571 -0.00426986 0.99984 
0.017527 -0.00348147 0.99984 
0.0176536 -0.00294828 0.99984 
0.0176821 -0.00256484 0.99984 
0.0177075 -0.00219491 0.999841 
0.0178797 -0.00177346 0.999839 
0.0178951 -0.00123603 0.999839 
0.0175259 -0.000456711 0.999846 
0.0172862 0.000586122 0.99985 
0.0169775 0.00207301 0.999854 
0.016499 0.00412483 0.999855 
0.016176 0.00691222 0.999845 
0.0155251 0.0105652 0.999824 
0.015302 0.0148418 0.999773 
0.0142489 0.0212457 0.999673 
0.0135284 0.0292497 0.999481 
0.0123661 0.0394331 0.999146 
0.01084 0.0551942 0.998417 
0.00852468 0.0762026 0.997056 
0.00580185 0.108536 0.994076 
0.00236167 0.157023 0.987592 
-0.000129611 0.213898 0.976856 
-0.00215682 0.273624 0.961834 
-0.00401982 0.356827 0.934162 
-0.00525303 0.477362 0.878691 
-0.00448579 0.608175 0.79379 
-0.00261714 0.766504 0.642235 
-0.000303303 0.9581 0.286433 
0.00152759 0.997871 -0.0651861 
0.00138413 0.930701 -0.365777 
0.000392026 0.904493 -0.426488 
0.00237346 0.789073 -0.614295 
0.00441568 0.59515 -0.803602 
0.0049382 0.437159 -0.899371 
0.0035071 0.31984 -0.947465 
0.00117887 0.234512 -0.972112 
-0.0016457 0.174694 -0.984621 
-0.00408133 0.13043 -0.991449 
-0.00683358 0.0926442 -0.995676 
-0.00900313 0.0672291 -0.997697 
-0.0111662 0.0469609 -0.998834 
-0.0126278 0.0335311 -0.999358 
-0.0137489 0.024229 -0.999612 
-0.0146105 0.0171245 -0.999747 
-0.0153378 0.0118423 -0.999812 
-0.0159825 0.00792184 -0.999841 
-0.0165153 0.00495513 -0.999851 
-0.0168444 0.00273663 -0.999854 
-0.0172364 0.00101044 -0.999851 
-0.0171171 -0.000149568 -0.999853 
-0.0177467 -0.00105681 -0.999842 
-0.0179987 -0.00166137 -0.999837 
-0.0175974 -0.00213411 -0.999843 
-0.0177791 -0.00250505 -0.999839 
-0.0174885 -0.00287803 -0.999843 
-0.0174581 -0.00335029 -0.999842 
-0.0172534 -0.00407183 -0.999843 
-0.0168097 -0.00517241 -0.999845 
-0.0175584 -0.00677959 -0.999823 
-0.0167833 -0.00918565 -0.999817 
-0.0156636 -0.012428 -0.9998 
-0.015864 -0.0161986 -0.999743 
-0.0143462 -0.0209365 -0.999678 
-0.014197 -0.0251261 -0.999583 
-0.0122868 -0.0306 -0.999456 
-0.0100833 -0.0328588 -0.999409 
-0.00776134 -0.021817 -0.999732 
-0.00099678 0.000234193 -0.999999 
0.000811614 -3.94412e-05 0.999999 
0.00562582 -0.0226037 0.999729 
0.0081289 -0.0338913 0.999392 
0.00917603 -0.031009 0.999477 
0.0103524 -0.0256167 0.999618 
0.0112603 -0.0211736 0.999712 
0.0121324 -0.0165995 0.999789 
0.0127288 -0.0124014 0.999842 
0.012933 -0.00928489 0.999873 
0.0131892 -0.00691252 0.999889 
0.0133459 -0.00513649 0.999898 
0.0133392 -0.00402824 0.999903 
0.0135199 -0.00329385 0.999903 
0.0135365 -0.00281167 0.999904 
0.0136861 -0.00241906 0.999903 
0.0134917 -0.00200351 0.999907 
0.0134566 -0.00150406 0.999908 
0.0135336 -0.000842215 0.999908 
0.0130949 8.95099e-05 0.999914 
0.0129552 0.00137118 0.999915 
0.0126395 0.00317338 0.999915 
0.0124176 0.0057027 0.999907 
0.0119792 0.00898142 0.999888 
0.0113407 0.0132655 0.999848 
0.0112087 0.0184536 0.999767 
0.01033 0.0262374 0.999602 
0.00931388 0.0355863 0.999323 
0.00860551 0.0490441 0.99876 
0.00682147 0.0681794 0.99765 
0.00483683 0.0981906 0.995156 
0.00225663 0.140511 0.990077 
-0.000497161 0.215287 0.976551 
-0.00240369 0.29678 0.954943 
-0.0040096 0.412578 0.910913 
-0.00368403 0.563692 0.825977 
-0.00179529 0.708245 0.705965 
0.000195577 0.893605 0.448849 
0.000535575 0.941819 0.336107 
0.000361898 0.897392 0.441234 
-0.00251796 0.998591 0.0529396 
-0.0038737 0.96698 -0.254824 
-0.00353217 0.879284 -0.476284 
0.00157205 0.778416 -0.627748 
0.00302972 0.645496 -0.763758 
0.00390508 0.472607 -0.881265 
0.00341908 0.354228 -0.935153 
0.0017939 0.256792 -0.966465 
-0.000460087 0.180911 -0.983499 
-0.00295816 0.126217 -0.991998 
-0.00484514 0.0905201 -0.995883 
-0.00702867 0.063226 -0.997974 
-0.00849206 0.0450459 -0.998949 
-0.00939156 0.032756 -0.999419 
-0.010416 0.0235798 -0.999668 
-0.011046 0.0168266 -0.999797 
-0.0115416 0.0117452 -0.999864 
-0.0119954 0.00789056 -0.999897 
-0.0123665 0.00497874 -0.999911 
-0.012883 0.00263901 -0.999914 
-0.0129261 0.00102031 -0.999916 
-0.013281 -0.000270254 -0.999912 
-0.0134399 -0.00108296 -0.999909 
-0.013837 -0.00170682 -0.999903 
-0.0133296 -0.00218011 -0.999909 
-0.0135332 -0.00256383 -0.999905 
-0.0132396 -0.00296574 -0.999908 
-0.013318 -0.00350711 -0.999905 
-0.0131473 -0.00432567 -0.999904 
-0.0126588 -0.0055315 -0.999905 
-0.013786 -0.00705566 -0.99988 
-0.0130067 -0.00945612 -0.999871 
-0.0122326 -0.0130562 -0.99984 
-0.0124017 -0.0173342 -0.999773 
-0.011079 -0.0222819 -0.99969 
-0.011042 -0.0266032 -0.999585 
-0.00918906 -0.0317521 -0.999454 
-0.00731641 -0.0336338 -0.999407 
-0.0056406 -0.0218625 -0.999745 
-0.000643397 0.000518513 -0.999999 
0.000363991 0.000562409 0.999999 
0.00375089 -0.0218492 0.999754 
0.00557099 -0.0339886 0.999407 
0.0064244 -0.0328008 0.999441 
0.00735267 -0.0275465 0.999593 
0.00806297 -0.0228043 0.999707 
0.00878402 -0.0180926 0.999798 
0.00935347 -0.0137568 0.999862 
0.0094158 -0.0102575 0.999903 
0.00965699 -0.00760841 0.999924 
0.0100057 -0.00566777 0.999934 
0.0097517 -0.00431713 0.999943 
0.00991463 -0.00346843 0.999945 
0.0098754 -0.00292214 0.999947 
0.0100354 -0.00251073 0.999946 
0.00987259 -0.00209504 0.999949 
0.00959215 -0.00158313 0.999953 
0.00965785 -0.00094212 0.999953 
0.00943208 -8.49314e-05 0.999956 
0.00924495 0.00117273 0.999957 
0.00905072 0.00290147 0.999955 
0.00902028 0.0053319 0.999945 
0.00864916 0.00859433 0.999926 
0.00816445 0.012765 0.999885 
0.0078619 0.0182046 0.999803 
0.00762456 0.0250939 0.999656 
0.00638527 0.034787 0.999374 
0.00610858 0.0475353 0.998851 
0.00479152 0.0652175 0.99786 
0.00353823 0.0916058 0.995789 
0.00158456 0.13657 0.990629 
-0.000222546 0.199237 0.979951 
-0.00185401 0.290206 0.956962 
-0.00310808 0.399882 0.916562 
-0.0028662 0.558854 0.829261 
-0.000856216 0.708846 0.705362 
-0.00196947 0.841325 0.540522 
0.0024041 0.993635 0.112615 
0.0026059 0.996351 0.0853102 
-0.00054441 0.998799 0.0490014 
-0.0025903 0.999537 0.0303006 
-0.00669234 0.995055 -0.0990993 
-0.00241347 0.753578 -0.657354 
0.00184979 0.652622 -0.757682 
0.00299829 0.548305 -0.836273 
0.00295364 0.405145 -0.914248 
0.00216006 0.297225 -0.954805 
0.000603074 0.202396 -0.979304 
-0.00123503 0.141377 -0.989955 
-0.00271877 0.0989467 -0.995089 
-0.00445546 0.0694463 -0.997576 
-0.00561951 0.0499528 -0.998736 
-0.00630048 0.0362213 -0.999324 
-0.0071483 0.0261153 -0.999633 
-0.00767474 0.01892 -0.999792 
-0.00809708 0.0134511 -0.999877 
-0.00841377 0.00915057 -0.999923 
-0.00858798 0.00586071 -0.999946 
-0.00919057 0.00339764 -0.999952 
-0.00907101 0.00154124 -0.999958 
-0.00975416 0.000153718 -0.999952 
-0.00954338 -0.000823565 -0.999954 
-0.00995228 -0.00151391 -0.999949 
-0.00978849 -0.00202248 -0.99995 
-0.00978501 -0.00247499 -0.999949 
-0.00969531 -0.00287512 -0.999949 
-0.00969112 -0.00342627 -0.999947 
-0.00942912 -0.00424452 -0.999946 
-0.00929609 -0.0055767 -0.999941 
-0.00998275 -0.00753017 -0.999922 
-0.00968116 -0.0103837 -0.999899 
-0.00877814 -0.014028 -0.999863 
-0.00929936 -0.0179471 -0.999796 