# vtk DataFile Version 3.0 
Exported using Morpho https://github.com/Morpho-lang/morpho 
ASCII 
DATASET UNSTRUCTURED_GRID 

POINTS 1978 float 
-12 -4 9.38303e-12 
-11.6103 -4 2.64672e-11 
-11.3092 -4 1.59903e-12 
-10.9564 -4 1.84223e-11 
-10.6392 -4 1.02797e-11 
-10.2901 -4 1.05153e-11 
-9.96869 -4 6.36249e-12 
-9.64894 -4 6.21218e-12 
-9.31359 -4 4.56522e-12 
-8.99487 -4 3.70244e-12 
-8.68109 -4 3.59062e-12 
-8.36716 -4 2.63598e-12 
-8.05962 -4 1.87351e-12 
-7.76295 -4 1.71951e-12 
-7.48165 -4 1.39384e-12 
-7.188 -4 1.35434e-12 
-6.89163 -4 -5.44317e-13 
-6.59737 -4 1.9002e-12 
-6.29722 -4 1.12537e-12 
-5.98943 -4 6.64914e-13 
-5.68529 -4 2.97503e-14 
-5.38037 -4 -9.7103e-13 
-5.079 -4 -1.26146e-12 
-4.78549 -4 -4.41591e-12 
-4.45507 -4 -6.29876e-12 
-4.16709 -4 -5.65448e-12 
-3.87024 -4 -1.89111e-11 
-3.55179 -4 -2.20958e-11 
-3.25455 -4 -1.63515e-11 
-2.96569 -4 -3.15698e-11 
-2.6681 -4 -3.09051e-11 
-2.4175 -4 -1.56579e-11 
-2.15314 -4 -1.01423e-11 
-1.87532 -4 -2.24953e-11 
-1.61698 -4 -3.3899e-12 
-1.35688 -4 -8.13567e-11 
-1.08352 -4 -2.55604e-10 
-0.800015 -4 -5.77062e-10 
-0.485857 -4 -6.05386e-10 
-0.0256836 -4 -6.86168e-10 
0.450339 -4 9.40381e-10 
0.79764 -4 4.17109e-10 
1.0568 -4 3.53958e-10 
1.33145 -4 1.46244e-10 
1.57991 -4 -9.8489e-11 
1.82881 -4 -4.04464e-10 
2.08248 -4 4.59271e-10 
2.35626 -4 -4.98907e-13 
2.67645 -4 2.94992e-11 
2.98072 -4 3.36666e-11 
3.29581 -4 2.35972e-11 
3.58367 -4 1.43215e-11 
3.88298 -4 1.27769e-11 
4.19646 -4 8.18831e-12 
4.49626 -4 4.99795e-12 
4.79298 -4 3.80446e-12 
5.10452 -4 2.09618e-12 
5.41172 -4 7.45643e-13 
5.72246 -4 -1.91238e-13 
6.01648 -4 -4.58313e-13 
6.30901 -4 -1.0913e-12 
6.60091 -4 -1.50019e-12 
6.8983 -4 -1.09885e-12 
7.1725 -4 -1.40779e-12 
7.47189 -4 -1.53326e-12 
7.76759 -4 -2.12829e-12 
8.06421 -4 -1.56609e-12 
8.35487 -4 -3.10765e-12 
8.65471 -4 -1.43668e-12 
8.93102 -4 -3.57379e-12 
9.2787 -4 -5.45621e-12 
9.60495 -4 -3.71456e-12 
9.89716 -4 -8.21332e-12 
10.2666 -4 -9.08992e-12 
10.5828 -4 -1.10887e-11 
10.9846 -4 -2.03239e-11 
11.305 -4 4.35115e-12 
11.5972 -4 -2.90473e-11 
12 -4 -1.02015e-11 
-12 -3.61128 -5.3124e-12 
-11.7112 -3.71171 -2.69861e-12 
-11.3633 -3.62741 -2.17294e-12 
-11.0501 -3.67923 -2.50928e-12 
-10.7122 -3.6461 -3.25945e-12 
-10.3944 -3.68072 -5.73585e-12 
-10.0581 -3.66287 1.36369e-12 
-9.73446 -3.66901 -8.24304e-13 
-9.39925 -3.68885 -5.36034e-12 
-9.0625 -3.6732 1.16764e-12 
-8.74655 -3.6648 -7.05249e-12 
-8.43194 -3.67126 2.28391e-12 
-8.11476 -3.66892 -8.73974e-13 
-7.8032 -3.6629 -1.93967e-13 
-7.50381 -3.65214 -1.84363e-14 
-7.20918 -3.67029 -2.15483e-12 
-6.90125 -3.67022 7.48029e-12 
-6.59317 -3.66427 -5.99865e-12 
-6.28001 -3.67537 1.22218e-12 
-5.9689 -3.67032 2.49284e-13 
-5.65834 -3.66934 5.46498e-13 
-5.35179 -3.66448 5.09255e-13 
-5.05524 -3.65626 8.27852e-13 
-4.73059 -3.69525 2.0206e-12 
-4.435 -3.65852 1.10331e-12 
-4.1328 -3.67446 -3.74485e-13 
-3.81168 -3.69749 2.11629e-11 
-3.5017 -3.68636 8.06362e-12 
-3.19983 -3.68243 -2.03318e-11 
-2.90028 -3.69774 1.11915e-11 
-2.63351 -3.63608 2.99786e-11 
-2.36278 -3.66599 -5.90098e-12 
-2.07937 -3.69656 1.4003e-11 
-1.80744 -3.68374 4.74902e-11 
-1.53707 -3.67364 2.49546e-11 
-1.25554 -3.66046 4.30321e-11 
-0.964967 -3.63286 1.03831e-10 
-0.662422 -3.58009 -2.06687e-10 
-0.315711 -3.69328 5.43372e-10 
0.00937205 -3.53478 2.24486e-10 
0.323465 -3.67648 -8.45691e-11 
0.693463 -3.61039 -7.39807e-10 
1.01157 -3.5983 6.11593e-11 
1.28114 -3.67331 -6.30038e-11 
1.56722 -3.66424 3.70878e-11 
1.8286 -3.67774 4.47983e-10 
2.10107 -3.68469 -5.48074e-10 
2.41309 -3.72954 7.04886e-11 
2.71513 -3.70001 -1.31302e-11 
3.02482 -3.70018 -1.97462e-11 
3.31574 -3.66768 -8.9496e-12 
3.61384 -3.67446 -2.84844e-12 
3.92598 -3.68685 -1.19622e-12 
4.22713 -3.66765 -1.30831e-12 
4.52437 -3.6619 -1.33522e-12 
4.83371 -3.67604 -7.11892e-13 
5.14379 -3.67207 -4.05032e-13 
5.45735 -3.67591 -3.97376e-13 
5.76062 -3.65982 -7.21864e-14 
6.06005 -3.66167 3.28159e-14 
6.35759 -3.6605 3.61965e-13 
6.66205 -3.67005 2.26931e-13 
6.94743 -3.64177 1.08923e-13 
7.24725 -3.67111 4.49096e-13 
7.54934 -3.66549 2.66995e-13 
7.85182 -3.66498 3.88232e-13 
8.1495 -3.65727 6.27963e-13 
8.44674 -3.66655 9.87425e-13 
8.73544 -3.6342 4.13552e-13 
9.05575 -3.7059 1.3213e-12 
9.38769 -3.68147 1.12465e-12 
9.69441 -3.63681 1.61676e-12 
10.0293 -3.70962 2.44732e-12 
10.3581 -3.65558 2.80972e-13 
10.7241 -3.7245 2.31307e-12 
11.0587 -3.65203 1.09898e-12 
11.3611 -3.61764 2.95753e-12 
11.7115 -3.72299 2.8078e-12 
12 -3.6118 5.32003e-12 
-12 -3.311 -4.61257e-12 
-11.6327 -3.36489 -2.11244e-12 
-11.2885 -3.28581 -1.53141e-12 
-10.9762 -3.33678 -2.26913e-12 
-10.6585 -3.29774 -3.64574e-12 
-10.3388 -3.34861 -3.48059e-12 
-10.0131 -3.32867 -3.60137e-13 
-9.69439 -3.32943 -9.19798e-12 
-9.38429 -3.37558 4.78091e-14 
-9.07806 -3.33284 7.50825e-12 
-8.7723 -3.32325 2.75726e-12 
-8.4692 -3.3386 -4.06737e-12 
-8.16255 -3.33906 -1.27799e-12 
-7.85624 -3.33434 -9.1529e-13 
-7.55256 -3.31442 -1.72314e-13 
-7.2523 -3.32922 -3.42112e-13 
-6.95473 -3.34717 -1.28328e-12 
-6.64471 -3.33964 7.01261e-13 
-6.33346 -3.35073 -2.86118e-13 
-6.02339 -3.344 4.27298e-14 
-5.71293 -3.34053 9.56579e-13 
-5.405 -3.33285 7.14053e-13 
-5.10181 -3.31432 1.89905e-12 
-4.80086 -3.37452 1.45246e-12 
-4.49969 -3.32943 1.0747e-12 
-4.19779 -3.34572 -2.31308e-12 
-3.89312 -3.38779 8.61414e-12 
-3.58152 -3.37912 -5.46199e-11 
-3.27126 -3.36635 6.67573e-11 
-2.96992 -3.37491 3.74878e-11 
-2.67479 -3.3135 -4.18627e-11 
-2.38421 -3.32727 2.22546e-11 
-2.10674 -3.38263 -1.88181e-11 
-1.82467 -3.36412 -5.53206e-12 
-1.53582 -3.35037 2.27399e-11 
-1.24362 -3.31241 1.83904e-11 
-0.951038 -3.2474 4.38812e-11 
-0.617272 -3.16487 5.86194e-10 
-0.309921 -3.28309 5.40911e-10 
0.0417718 -3.07879 6.05455e-10 
0.357721 -3.25121 -4.09075e-10 
0.63891 -3.14152 -1.57899e-09 
0.949159 -3.23419 -6.79041e-11 
1.27355 -3.29233 -1.83146e-11 
1.53802 -3.33837 9.36321e-12 
1.82078 -3.34054 -8.46685e-11 
2.08791 -3.37413 3.78764e-11 
2.37227 -3.44054 -4.29413e-13 
2.67076 -3.39809 -4.45549e-12 
2.97273 -3.39416 -9.01461e-13 
3.27234 -3.34349 -1.04308e-11 
3.57292 -3.34602 -8.01465e-12 
3.87379 -3.36854 -6.83401e-12 
4.17679 -3.34079 -7.04899e-12 
4.47851 -3.32549 -3.3832e-12 
4.77771 -3.34657 -1.70267e-12 
5.08177 -3.34657 -9.71276e-13 
5.39249 -3.35197 -7.38089e-13 
5.7011 -3.33166 -4.98423e-13 
6.01112 -3.32494 -2.46707e-13 
6.30993 -3.32354 5.70792e-14 
6.61248 -3.34141 8.95357e-14 
6.91203 -3.29702 1.6803e-14 
7.20903 -3.33579 3.2634e-13 
7.51014 -3.33491 3.52887e-13 
7.81506 -3.3343 4.80531e-13 
8.12078 -3.32074 4.63468e-13 
8.42185 -3.3225 6.65827e-13 
8.74498 -3.31729 7.71628e-13 
9.06933 -3.38988 8.18575e-13 
9.3827 -3.34487 1.39223e-12 
9.69421 -3.29414 -2.03323e-13 
10.0073 -3.38475 -1.45864e-12 
10.3117 -3.30757 3.10857e-12 
10.6378 -3.40833 5.93327e-12 
10.9692 -3.33731 3.33673e-12 
11.2993 -3.26006 1.91365e-12 
11.634 -3.3755 1.618e-12 
12 -3.30458 4.21369e-12 
-12 -2.98566 -1.21489e-11 
-11.6611 -3.05288 -1.05521e-12 
-11.3194 -2.96806 5.48464e-13 
-10.9712 -2.98326 -3.22211e-12 
-10.6291 -2.97166 6.26887e-13 
-10.2979 -3.01147 6.96909e-12 
-9.97187 -2.99211 8.1839e-14 
-9.64774 -2.99637 -8.04995e-12 
-9.34846 -3.0282 8.16978e-12 
-9.04268 -2.98999 -9.14192e-12 
-8.74047 -2.97737 5.54196e-13 
-8.4373 -3.0024 1.44643e-12 
-8.13024 -3.00484 -2.19242e-13 
-7.82971 -2.99785 7.66928e-14 
-7.52616 -2.98021 -4.55664e-13 
-7.22743 -2.99446 2.51005e-13 
-6.92244 -3.02314 -2.78042e-13 
-6.61369 -3.01552 -4.23947e-13 
-6.30848 -3.02244 1.86276e-14 
-6.00075 -3.01527 -2.06462e-13 
-5.69476 -3.0094 -7.47256e-13 
-5.39074 -2.99937 -1.0071e-12 
-5.08831 -2.98276 -2.61697e-13 
-4.78967 -3.04253 1.03561e-13 
-4.49087 -2.99822 6.35384e-13 
-4.19572 -3.0199 8.63423e-12 
-3.89736 -3.06418 1.75166e-13 
-3.59337 -3.06739 7.03791e-11 
-3.28654 -3.05327 -9.37084e-11 
-2.96672 -3.05269 3.11657e-11 
-2.66918 -2.97203 5.95308e-11 
-2.37555 -2.98827 -6.1382e-12 
-2.09645 -3.05518 1.18725e-11 
-1.80635 -3.04072 -2.66456e-11 
-1.5149 -3.00518 4.42377e-12 
-1.23713 -2.92274 -3.28193e-10 
-0.897528 -2.86614 8.38995e-10 
-0.58417 -2.70961 -3.02799e-09 
-0.25901 -2.82893 1.38323e-10 
0.00967974 -2.50516 -4.63261e-10 
0.309984 -2.7131 1.13407e-09 
0.580215 -2.58503 3.7839e-10 
0.879396 -2.81871 1.74368e-10 
1.21473 -2.94029 2.27926e-10 
1.5343 -2.95055 -2.06911e-11 
1.80238 -3.0053 -3.28702e-11 
2.09397 -3.04206 5.02013e-11 
2.3712 -3.12917 -6.19928e-11 
2.65691 -3.06584 1.55714e-11 
2.94218 -3.07846 -7.09191e-12 
3.24398 -3.0232 4.15625e-12 
3.55171 -3.02341 -9.08401e-13 
3.86245 -3.04244 -1.95489e-12 
4.1645 -3.0133 2.81707e-12 
4.46801 -2.99945 -1.44574e-12 
4.77259 -3.01235 -1.08021e-12 
5.07102 -3.01565 -6.2528e-13 
5.37319 -3.02683 -9.50727e-13 
5.67781 -3.00235 -3.88911e-14 
5.98405 -3.00266 -3.29475e-13 
6.29778 -2.98419 6.33227e-14 
6.59576 -3.0086 -1.4887e-13 
6.91766 -2.98342 -2.69842e-14 
7.23602 -3.00186 7.46826e-14 
7.53688 -3.00253 1.20117e-13 
7.84093 -3.00305 1.52692e-13 
8.13812 -2.98259 2.7591e-13 
8.44886 -3.00202 2.90315e-13 
8.74612 -2.97267 6.27766e-13 
9.04687 -3.06304 1.40851e-12 
9.35552 -3.01192 1.53191e-12 
9.65957 -2.95373 2.06033e-12 
9.98663 -3.03518 5.26178e-12 
10.3234 -2.98071 3.46115e-12 
10.6547 -3.07436 -1.85285e-12 
10.9876 -2.99827 2.90202e-13 
11.3379 -2.93756 -1.96874e-12 
11.6677 -3.05828 1.27434e-12 
12 -2.96788 1.23168e-11 
-12 -2.66771 -4.66652e-12 
-11.654 -2.7258 -3.6732e-13 
-11.3182 -2.639 2.59631e-12 
-10.9812 -2.66058 2.13257e-12 
-10.6459 -2.64374 -1.66152e-12 
-10.3075 -2.67733 -9.24985e-12 
-9.97269 -2.66676 7.50628e-12 
-9.64247 -2.67192 1.20002e-12 
-9.31643 -2.68145 -1.95675e-12 
-9.00073 -2.65081 1.03251e-12 
-8.68715 -2.64251 4.04044e-14 
-8.37725 -2.67279 -4.40549e-13 
-8.07238 -2.66689 -5.58042e-14 
-7.76387 -2.66605 -1.85606e-13 
-7.45181 -2.65118 3.08209e-13 
-7.1439 -2.67462 -2.02686e-13 
-6.84117 -2.69669 2.82794e-13 
-6.53085 -2.68705 6.04543e-14 
-6.22644 -2.6914 4.11942e-13 
-5.92032 -2.68272 -2.99607e-14 
[...]
POINT_DATA 1978 
VECTORS vectors float
0.000288109 -0.00214648 0.999998 
0.000427861 -0.0327504 0.999463 
0.000147069 -0.0354536 0.999371 
0.000309057 -0.028336 0.999598 
0.000241976 -0.0224213 0.999748 
0.000239066 -0.0162164 0.999868 
0.000354328 -0.0117983 0.99993 
0.000290606 -0.00856212 0.999963 
0.000296025 -0.00636787 0.99998 
0.000371819 -0.0049336 0.999988 
0.000374735 -0.00393548 0.999992 
0.000381935 -0.00335962 0.999994 
0.000432827 -0.0030097 0.999995 
0.000537108 -0.00277507 0.999996 
0.000554364 -0.00259268 0.999996 
0.000459833 -0.00243819 0.999997 
0.000491874 -0.00242926 0.999997 
0.000481822 -0.00227625 0.999997 
0.000412958 -0.00191596 0.999998 
0.000425138 -0.00130555 0.999999 
0.000414564 -0.000305376 1 
0.00042934 0.00114658 0.999999 
0.00048274 0.00335831 0.999994 
0.000346666 0.00619552 0.999981 
0.000370723 0.0106516 0.999943 
0.00050493 0.016 0.999872 
0.000355508 0.0233114 0.999728 
0.000338736 0.0342534 0.999413 
0.00041203 0.0482981 0.998833 
0.000360346 0.0676151 0.997711 
0.0003859 0.0943696 0.995537 
0.000399355 0.126599 0.991954 
0.000178716 0.172404 0.985026 
5.18057e-05 0.237739 0.971329 
-0.000138105 0.316821 0.948485 
-0.000421568 0.418421 0.908253 
-0.000442995 0.548286 0.836291 
-0.000664646 0.698145 0.715956 
-0.000247436 0.867541 0.497365 
2.27636e-05 0.999374 0.0353676 
8.54805e-05 0.883367 -0.468682 
0.000702518 0.696075 -0.717969 
0.000570966 0.558559 -0.829465 
0.000380161 0.427373 -0.904075 
0.000197202 0.330494 -0.943808 
-5.3073e-06 0.250999 -0.967987 
-0.000156691 0.186208 -0.98251 
-0.000250177 0.135358 -0.990797 
-0.000228255 0.09427 -0.995547 
-0.000297698 0.0665854 -0.997781 
-0.000363129 0.0462563 -0.998929 
-0.000454427 0.0329384 -0.999457 
-0.000362719 0.0230879 -0.999733 
-0.000375281 0.0156063 -0.999878 
-0.000460987 0.0101923 -0.999948 
-0.000414558 0.0062613 -0.99998 
-0.000384466 0.00321619 -0.999995 
-0.000386991 0.00109889 -0.999999 
-0.00043501 -0.0003708 -1 
-0.000506571 -0.00133253 -0.999999 
-0.000497322 -0.00188425 -0.999998 
-0.000475448 -0.00219326 -0.999997 
-0.000555688 -0.00242516 -0.999997 
-0.000550843 -0.0025696 -0.999996 
-0.000454792 -0.00271158 -0.999996 
-0.000470605 -0.00293062 -0.999996 
-0.000497504 -0.00320755 -0.999995 
-0.000463574 -0.00350997 -0.999994 
-0.000577258 -0.00405152 -0.999992 
-0.000383494 -0.00478241 -0.999988 
-0.000195353 -0.00604144 -0.999982 
-0.000453592 -0.00821061 -0.999966 
-0.000261104 -0.0109894 -0.99994 
-0.000232427 -0.0159218 -0.999873 
-0.000124344 -0.0212965 -0.999773 
-0.000140934 -0.0289176 -0.999582 
-0.000326898 -0.0355878 -0.999366 
-0.000375591 -0.0331499 -0.99945 
-0.000279867 -0.00213777 -0.999998 
0.000498331 0.000529241 1 
0.00874396 -0.0218349 0.999723 
0.0136878 -0.0306308 0.999437 
0.0138135 -0.0293261 0.999474 
0.0151391 -0.0233103 0.999614 
0.0147493 -0.018051 0.999728 
0.0158793 -0.0133802 0.999784 
0.0163031 -0.00984629 0.999819 
0.0163558 -0.00723309 0.99984 
0.0170531 -0.00541563 0.99984 
0.0174001 -0.00425768 0.99984 
0.0176804 -0.0035232 0.999837 
0.0180656 -0.00303044 0.999832 
0.0186566 -0.00270164 0.999822 
0.0192996 -0.00253076 0.999811 
0.0186636 -0.00241744 0.999823 
0.0182996 -0.00224343 0.99983 
0.0184381 -0.00195796 0.999828 
0.0180215 -0.00152369 0.999836 
0.0180496 -0.000782508 0.999837 
0.0179256 0.000376862 0.999839 
0.0179313 0.00205309 0.999837 
0.0177722 0.00433134 0.999833 
0.0161377 0.00765331 0.99984 
0.017155 0.0121404 0.999779 
0.0157755 0.0179766 0.999714 
0.0140986 0.0263493 0.999553 
0.0135157 0.0381544 0.99918 
0.0118965 0.0542713 0.998455 
0.00989364 0.0765364 0.997018 
0.0081097 0.105368 0.9944 
0.00485473 0.143797 0.989595 
0.00116475 0.197716 0.980259 
-0.0025141 0.268811 0.96319 
-0.00604505 0.357549 0.933875 
-0.00888753 0.471373 0.881889 
-0.010471 0.61189 0.790874 
-0.0091546 0.770377 0.637523 
-0.00454253 0.934839 0.355043 
0.000454731 0.99998 -0.00624874 
0.00532824 0.931793 -0.362951 
0.00957358 0.755065 -0.65558 
0.010966 0.591643 -0.806125 
0.00831218 0.459554 -0.888111 
0.00557478 0.343963 -0.938967 
0.00202611 0.258022 -0.966137 
-0.00151151 0.189516 -0.981877 
-0.00490661 0.132415 -0.991182 
-0.00805701 0.0940415 -0.995536 
-0.0104094 0.0665131 -0.997731 
-0.0128599 0.0476584 -0.998781 
-0.0139723 0.033806 -0.999331 
-0.014845 0.0233832 -0.999616 
-0.0162029 0.0161122 -0.999739 
-0.016874 0.0107872 -0.999799 
-0.0167944 0.00665059 -0.999837 
-0.0172908 0.00362389 -0.999844 
-0.0175411 0.00140403 -0.999845 
-0.0185488 -3.12353e-05 -0.999828 
-0.0187067 -0.000982887 -0.999825 
-0.0188406 -0.00159463 -0.999821 
-0.0189249 -0.00203999 -0.999819 
-0.0199274 -0.00226633 -0.999799 
-0.0186809 -0.00243476 -0.999823 
-0.0188115 -0.00267318 -0.999819 
-0.0188233 -0.00293826 -0.999818 
-0.0189693 -0.00326215 -0.999815 
-0.0185736 -0.00371973 -0.999821 
-0.0193704 -0.00430409 -0.999803 
-0.0162329 -0.00529177 -0.999854 
-0.0165908 -0.00712936 -0.999837 
-0.0174317 -0.00951364 -0.999803 
-0.0145203 -0.0128901 -0.999811 
-0.0153653 -0.0174295 -0.99973 
-0.0131009 -0.0235832 -0.999636 
-0.0146689 -0.029511 -0.999457 
-0.0138358 -0.0307026 -0.999433 
-0.00856606 -0.0219983 -0.999721 
-0.000483622 0.000413113 -1 
0.00062639 -0.00023813 1 
0.0141695 -0.0222396 0.999652 
0.0198616 -0.0308273 0.999327 
0.0211721 -0.0280188 0.999383 
0.0222495 -0.0225386 0.999498 
0.0228415 -0.0179301 0.999578 
0.0241726 -0.0137254 0.999614 
0.0251807 -0.0102875 0.99963 
0.0252649 -0.00759384 0.999652 
0.0263387 -0.00580704 0.999636 
0.0271345 -0.00462678 0.999621 
0.0270315 -0.0037516 0.999628 
0.0272718 -0.00318973 0.999623 
0.0274408 -0.00280799 0.999619 
0.0278874 -0.00253277 0.999608 
0.027756 -0.00230647 0.999612 
0.0276044 -0.00209204 0.999617 
0.0277045 -0.0017612 0.999615 
0.0273883 -0.00125532 0.999624 
0.0271322 -0.000455733 0.999632 
0.0267489 0.000740088 0.999642 
0.0263866 0.00249229 0.999649 
0.0260026 0.00493022 0.99965 
0.0249766 0.0079319 0.999657 
0.0248537 0.0123901 0.999614 
0.0238114 0.0182381 0.99955 
0.0221985 0.0260532 0.999414 
0.0204558 0.0370028 0.999106 
0.0180319 0.0533827 0.998411 
0.0148615 0.0755847 0.997029 
0.0112912 0.106604 0.994237 
0.00686193 0.147811 0.988992 
0.00214083 0.199911 0.979812 
-0.00301004 0.270356 0.962756 
-0.00819165 0.365649 0.930717 
-0.0120243 0.485926 0.873917 
-0.0131756 0.628634 0.77759 
-0.0109358 0.79127 0.611369 
-0.00635644 0.935499 0.353271 
0.00153743 0.999547 -0.0300499 
0.00781853 0.926429 -0.376389 
0.0113322 0.786445 -0.617557 
0.0131939 0.622297 -0.78267 
0.0116194 0.469657 -0.882773 
0.00806199 0.359841 -0.932979 
0.00302325 0.269029 -0.963127 
-0.00195172 0.201366 -0.979514 
-0.00696002 0.145595 -0.98932 
-0.0113314 0.104128 -0.994499 
-0.0148816 0.0746591 -0.997098 
-0.0179726 0.0544649 -0.998354 
-0.0201697 0.0387131 -0.999047 
-0.0218544 0.027241 -0.99939 
-0.0233437 0.0190122 -0.999547 
-0.0244286 0.0129445 -0.999618 
-0.0251102 0.00843913 -0.999649 
-0.0258244 0.00510389 -0.999653 
-0.0262791 0.00259163 -0.999651 
-0.0269054 0.000874005 -0.999638 
-0.0273596 -0.000324518 -0.999626 
-0.0275963 -0.0011285 -0.999619 
-0.0276851 -0.00171238 -0.999615 
-0.0280946 -0.00203665 -0.999603 
-0.027887 -0.00233013 -0.999608 
-0.0277545 -0.00257326 -0.999611 
-0.0276619 -0.00284797 -0.999613 
-0.0275258 -0.0032111 -0.999616 
-0.0271689 -0.00373541 -0.999624 
-0.0272409 -0.00458948 -0.999618 
-0.0256733 -0.0057748 -0.999654 
-0.0257652 -0.00766164 -0.999639 
-0.0255324 -0.0102871 -0.999621 
-0.0234571 -0.013421 -0.999635 
-0.0234294 -0.0176184 -0.99957 
-0.0211281 -0.0222952 -0.999528 
-0.0212468 -0.0279947 -0.999382 
-0.019699 -0.0307752 -0.999332 
-0.0139583 -0.022093 -0.999658 
-0.000546878 -0.000431154 -1 
0.000325536 -0.000460528 1 
0.0130962 -0.0209833 0.999694 
0.017423 -0.0310437 0.999366 
0.0192241 -0.0281033 0.99942 
0.0203449 -0.022809 0.999533 
0.0217515 -0.0181852 0.999598 
0.0225737 -0.0140118 0.999647 
0.0236523 -0.0105146 0.999665 
0.0247006 -0.00791925 0.999664 
0.0247359 -0.00609883 0.999675 
0.0249418 -0.00475375 0.999678 
0.0255274 -0.00381094 0.999667 
0.0257129 -0.00320451 0.999664 
0.0257315 -0.00280448 0.999665 
0.0255796 -0.00250041 0.99967 
0.0260022 -0.00223454 0.999659 
0.0263212 -0.00193282 0.999652 
0.0261328 -0.00149732 0.999657 
0.0258934 -0.000857316 0.999664 
0.0255391 8.84425e-05 0.999674 
0.025075 0.00143669 0.999685 
0.0245207 0.00336897 0.999694 
0.0238683 0.00605572 0.999697 
0.0237588 0.00927867 0.999675 
0.0225739 0.0141844 0.999645 
0.0216536 0.0202124 0.999561 
0.0207707 0.028221 0.999386 
0.0189708 0.0400543 0.999017 
0.0165872 0.055818 0.998303 
0.013124 0.079966 0.996711 
0.00876397 0.114046 0.993437 
0.00482649 0.156607 0.987649 
0.00103292 0.210931 0.977501 
-0.00348578 0.286515 0.958069 
-0.00738518 0.384783 0.922977 
-0.00931265 0.498648 0.866755 
-0.00909222 0.641936 0.766704 
-0.00647226 0.811972 0.583661 
-0.00350707 0.953636 0.300941 
0.000871245 0.99998 -0.00619979 
0.0048231 0.945584 -0.325341 
0.00714127 0.818001 -0.575172 
0.00954369 0.650678 -0.759293 
0.00971439 0.495658 -0.868463 
0.0070449 0.37272 -0.927917 
0.0036143 0.285068 -0.9585 
-0.000772451 0.210939 -0.977499 
-0.00557807 0.154788 -0.987932 
-0.0095167 0.113638 -0.993477 
-0.0128734 0.0820651 -0.996544 
-0.0153991 0.0597898 -0.998092 
-0.0178228 0.0423759 -0.998943 
-0.0199441 0.0296183 -0.999362 
-0.0212133 0.0210368 -0.999554 
-0.0222812 0.0146834 -0.999644 
-0.0233558 0.00976955 -0.999679 
-0.0241551 0.00622468 -0.999689 
-0.0247849 0.00352598 -0.999687 
-0.0250285 0.00161522 -0.999685 
-0.0253765 0.000224617 -0.999678 
-0.0254793 -0.00074785 -0.999675 
-0.0258423 -0.00141937 -0.999665 
-0.0258884 -0.00190837 -0.999663 
-0.025947 -0.00225574 -0.999661 
-0.0260228 -0.00255273 -0.999658 
-0.0259534 -0.00287008 -0.999659 
-0.0255783 -0.00328673 -0.999667 
-0.0255253 -0.00392041 -0.999666 
-0.0250056 -0.00485085 -0.999676 
-0.0256031 -0.00608021 -0.999654 
-0.0244049 -0.00803549 -0.99967 
-0.0230717 -0.0107916 -0.999676 
-0.0230259 -0.0142436 -0.999633 
-0.0214987 -0.0187094 -0.999594 
-0.0213903 -0.0230157 -0.999506 
-0.0194427 -0.028459 -0.999406 
-0.0168742 -0.0310246 -0.999376 
-0.012836 -0.0206834 -0.999704 
-0.000164069 -0.000375894 -1 
6.40813e-05 -0.000740676 1 
0.0103559 -0.0212445 0.999721 
0.0136294 -0.032238 0.999387 
0.0153758 -0.0289984 0.999461 
0.0165018 -0.023967 0.999577 
0.0179115 -0.0192157 0.999655 
0.0189694 -0.0150147 0.999707 
0.0197454 -0.0111502 0.999743 
0.0205123 -0.00823199 0.999756 
0.0207016 -0.006242 0.999766 
0.0209001 -0.00480327 0.99977 
0.0215171 -0.00381321 0.999761 
0.0216159 -0.00318497 0.999761 
0.0217146 -0.0027607 0.99976 
0.0215945 -0.00241949 0.999764 
0.02195 -0.00209056 0.999757 
0.0222237 -0.00168974 0.999752 
0.0218413 -0.00109766 0.999761 
0.0216298 -0.000282796 0.999766 
0.0212616 0.00087644 0.999774 
0.0208346 0.00251979 0.99978 
0.0202595 0.00478731 0.999783 
0.0197404 0.00793693 0.999774 
0.0195698 0.0115666 0.999742 
0.0183086 0.0170594 0.999687 
0.0175081 0.023915 0.999561 
0.0166058 0.0328662 0.999322 
0.014686 0.0456881 0.998848 
0.0125073 0.0644938 0.99784 
0.00934164 0.0901737 0.995882 
0.00528539 0.132023 0.991233 
0.00204322 0.180669 0.983542 
-0.000758003 0.234846 0.972032 
-0.00399253 0.318392 0.947951 
-0.00587061 0.417672 0.908579 
-0.00645851 0.554305 0.832289 
-0.00531676 0.706944 0.70725 
-0.00282937 0.809015 0.587782 
-0.00199094 0.923654 0.383222 
0.000342925 0.996011 0.0892335 
0.00177216 0.949822 -0.312784 
0.00369291 0.803867 -0.594798 
0.00648801 0.659623 -0.751569 
0.00703058 0.508272 -0.861168 
0.00537754 0.374851 -0.927069 
0.00278707 0.278393 -0.960463 
-7.77352e-05 0.212653 -0.977128 
-0.00389975 0.155475 -0.987832 
-0.00685644 0.115216 -0.993317 
-0.0100192 0.0833115 -0.996473 
-0.0123171 0.0593383 -0.998162 
-0.0147255 0.0417221 -0.999021 
-0.016412 0.02994 -0.999417 
-0.0175343 0.0212741 -0.99962 
-0.0184994 0.0148371 -0.999719 
-0.0194299 0.0101083 -0.99976 
-0.0201464 0.00653434 -0.999776 
-0.020734 0.00385827 -0.999778 
-0.020923 0.00186234 -0.999779 
-0.0213813 0.000393957 -0.999771 
-0.0212713 -0.000589354 -0.999774 
-0.0220239 -0.00133894 -0.999757 
-0.0218835 -0.00187553 -0.999759 
-0.0218755 -0.00224815 -0.999758 
-0.0219285 -0.00257977 -0.999756 
-0.0217402 -0.00292773 -0.999759 
-0.0215789 -0.00341075 -0.999761 
-0.0214948 -0.00410747 -0.999761 
-0.0207361 -0.0051254 -0.999772 
-0.0215852 -0.00643434 -0.999746 
-0.020379 -0.00850187 -0.999756 
-0.0191971 -0.0115765 -0.999749 
-0.0192618 -0.015174 -0.999699 
-0.0175933 -0.0197071 -0.999651 
-0.0174784 -0.0239769 -0.99956 
-0.0154156 -0.0294685 -0.999447 
-0.0129786 -0.0316002 -0.999416 
-0.00979222 -0.0204176 -0.999744 
-0.000259003 -0.000399439 -1 
0.000147506 -0.000873985 1 
0.0065983 -0.0185525 0.999806 
0.00995823 -0.0307976 0.999476 
0.0118344 -0.0314289 0.999436 
0.0129779 -0.0264054 0.999567 
0.0142944 -0.0216376 0.999664 
0.0152916 -0.0173051 0.999733 
0.0160244 -0.0131281 0.999785 
0.0166679 -0.00971453 0.999814 
0.0169275 -0.00732965 0.99983 
0.0169668 -0.00553943 0.999841 
0.0173484 -0.00426957 0.99984 
0.017518 -0.00348106 0.99984 
0.0176449 -0.00294756 0.99984 
0.017673 -0.00256375 0.999841 
0.0176985 -0.00219354 0.999841 
0.0178705 -0.00177207 0.999839 
0.0178856 -0.00123459 0.999839 
0.0175172 -0.000455271 0.999846 
0.0172778 0.000587626 0.999851 
0.0169684 0.00207454 0.999854 
0.0164908 0.00412581 0.999856 
0.0161681 0.0069129 0.999845 
0.0155173 0.0105651 0.999824 
0.0152937 0.0148418 0.999773 
0.014241 0.0212446 0.999673 
0.0135217 0.0292478 0.999481 
0.0123585 0.0394339 0.999146 
0.0108347 0.0551918 0.998417 
0.00851912 0.0762095 0.997055 
0.005797 0.108554 0.994074 
0.00236164 0.157009 0.987594 
-0.000130512 0.213922 0.976851 
-0.00215629 0.273658 0.961825 
-0.00401538 0.35681 0.934168 
-0.00524732 0.477617 0.878552 
-0.00447922 0.608066 0.793874 
-0.00260275 0.766643 0.642069 
-0.000282282 0.958579 0.284827 
0.00162545 0.997922 -0.064418 
0.00137346 0.931126 -0.364694 
0.000456622 0.905197 -0.424992 
0.00235089 0.789371 -0.613912 
0.00439582 0.595368 -0.803441 
0.00492858 0.437255 -0.899324 
0.00350357 0.319845 -0.947463 
0.00117699 0.234507 -0.972114 
-0.00164387 0.174714 -0.984618 
-0.00407815 0.130449 -0.991447 
-0.00682863 0.0926521 -0.995675 
-0.00899769 0.0672357 -0.997697 
-0.01116 0.0469629 -0.998834 
-0.0126203 0.0335316 -0.999358 
-0.0137411 0.0242294 -0.999612 
-0.0146035 0.0171245 -0.999747 
-0.0153296 0.011843 -0.999812 
-0.0159742 0.00792252 -0.999841 
-0.0165071 0.00495602 -0.999851 
-0.0168362 0.00273799 -0.999855 
-0.0172268 0.00101203 -0.999851 
-0.0171088 -0.000148098 -0.999854 
-0.0177381 -0.00105546 -0.999842 
-0.0179889 -0.00166002 -0.999837 
-0.0175885 -0.00213278 -0.999843 
-0.0177707 -0.0025039 -0.999839 
-0.0174794 -0.00287725 -0.999843 
-0.0174501 -0.00334991 -0.999842 
-0.0172454 -0.00407206 -0.999843 
-0.0168001 -0.00517127 -0.999846 
-0.0175474 -0.00677834 -0.999823 
-0.0167746 -0.00918455 -0.999817 
-0.0156543 -0.0124241 -0.9998 
-0.0158549 -0.0161912 -0.999743 
-0.0143382 -0.0209252 -0.999678 
-0.0141898 -0.0251162 -0.999584 
-0.0122797 -0.0305696 -0.999457 
-0.0100722 -0.0327806 -0.999412 
-0.00774317 -0.0217564 -0.999733 
-0.000217158 -0.000415743 -1 
0.00021977 -0.000572428 1 
0.00561365 -0.022545 0.99973 
0.00812147 -0.0338091 0.999395 
0.00917142 -0.0309835 0.999478 
0.0103476 -0.0256068 0.999619 
0.0112551 -0.0211617 0.999713 
0.0121269 -0.0165926 0.999789 
0.0127227 -0.0123992 0.999842 
0.0129273 -0.00928416 0.999873 
0.0131838 -0.00691225 0.999889 
0.0133408 -0.0051365 0.999898 
0.0133344 -0.0040282 0.999903 
0.0135154 -0.00329342 0.999903 
0.0135322 -0.0028108 0.999904 
0.013681 -0.00241777 0.999903 
0.0134873 -0.00200205 0.999907 
0.0134522 -0.00150259 0.999908 
0.0135287 -0.000840759 0.999908 
0.0130908 9.11087e-05 0.999914 
0.0129513 0.00137276 0.999915 
0.012635 0.00317506 0.999915 
0.0124139 0.00570387 0.999907 
0.0119751 0.0089821 0.999888 
0.0113374 0.0132657 0.999848 
0.0112044 0.018454 0.999767 
0.0103263 0.0262384 0.999602 
0.00931092 0.0355878 0.999323 
0.00860129 0.0490516 0.998759 
0.00681806 0.0681901 0.997649 
0.00483329 0.0981976 0.995155 
0.0022552 0.140552 0.990071 
-0.000493194 0.215207 0.976568 
-0.00240022 0.296663 0.954979 
-0.00400669 0.412483 0.910956 
-0.00367693 0.563624 0.826023 
-0.00175462 0.708029 0.706181 
0.000230815 0.894364 0.447339 
0.000428757 0.938028 0.346567 
0.000417898 0.897308 0.441404 
-0.0026172 0.998725 0.050422 
-0.00385773 0.966865 -0.255259 
-0.00345926 0.878817 -0.477147 
0.00159325 0.778465 -0.627686 
0.00302884 0.645504 -0.763751 
0.00390054 0.472642 -0.881246 
0.00341496 0.354151 -0.935182 
0.00179087 0.256724 -0.966483 
-0.000461361 0.180883 -0.983505 
-0.00295727 0.126217 -0.991998 
-0.00484263 0.0905247 -0.995882 
-0.00702639 0.0632266 -0.997974 
-0.00848832 0.0450487 -0.998949 
-0.00938802 0.0327549 -0.999419 
-0.0104124 0.0235782 -0.999668 
-0.0110425 0.0168269 -0.999797 
-0.0115378 0.0117456 -0.999864 
-0.0119915 0.00789138 -0.999897 
-0.0123623 0.00498012 -0.999911 
-0.0128789 0.0026407 -0.999914 
-0.0129215 0.001022 -0.999916 
-0.0132768 -0.000268575 -0.999912 
-0.0134358 -0.0010814 -0.999909 
-0.0138315 -0.00170526 -0.999903 
-0.0133254 -0.0021786 -0.999909 
-0.0135293 -0.00256261 -0.999905 
-0.013235 -0.00296498 -0.999908 
-0.0133142 -0.00350669 -0.999905 
-0.0131401 -0.0043251 -0.999904 
-0.0126581 -0.00553236 -0.999905 
-0.0137791 -0.00705677 -0.99988 
-0.0130006 -0.00945576 -0.999871 
-0.0122269 -0.0130539 -0.99984 
-0.0123957 -0.0173267 -0.999773 
-0.0110738 -0.0222697 -0.999691 
-0.0110362 -0.0265913 -0.999585 
-0.0091843 -0.031719 -0.999455 
-0.0073096 -0.0335536 -0.99941 
-0.00562777 -0.0218007 -0.999746 
-9.16032e-05 -0.000219716 -1 
1.88663e-05 -0.000181251 1 
0.0037422 -0.0217839 0.999756 
0.00556698 -0.0339093 0.999409 
0.00642208 -0.0327652 0.999442 
0.00735122 -0.0275341 0.999594 
0.00806091 -0.0227919 0.999708 
0.00878146 -0.0180843 0.999798 
0.00935043 -0.0137529 0.999862 
0.00941323 -0.0102559 0.999903 
0.00965453 -0.00760776 0.999924 
0.010003 -0.0056676 0.999934 
0.00974945 -0.0043171 0.999943 
0.00991263 -0.00346813 0.999945 
0.00987356 -0.00292134 0.999947 
0.0100331 -0.00250948 0.999947 
0.00987075 -0.00209357 0.999949 
0.00959092 -0.00158167 0.999953 
0.00965602 -0.00094056 0.999953 
0.00943078 -8.32488e-05 0.999956 
0.00924336 0.00117471 0.999957 
0.00904965 0.00290305 0.999955 
0.00901858 0.00533347 0.999945 
0.00864744 0.00859493 0.999926 
0.00816333 0.0127648 0.999885 
0.00786011 0.0182035 0.999803 
0.00762351 0.0250925 0.999656 
0.00638494 0.0347849 0.999374 
0.00610758 0.0475344 0.998851 
0.00479034 0.0652237 0.997859 
0.00353695 0.0916333 0.995787 
0.00158445 0.136554 0.990631 
-0.000221579 0.199226 0.979954 
-0.00185267 0.290206 0.956962 
-0.00310343 0.399745 0.916621 
-0.00285402 0.558796 0.829301 
-0.00083213 0.710133 0.704067 
-0.00209483 0.844796 0.535085 
0.0024465 0.993596 0.112966 
0.00257334 0.996384 0.0849212 
-0.000580799 0.998811 0.0487439 
-0.00257111 0.999478 0.0321909 
-0.0066927 0.995109 -0.0985576 
-0.00246994 0.7532 -0.657787 
0.00184331 0.653028 -0.757332 
0.00299791 0.548339 -0.83625 
0.0029538 0.405098 -0.914268 
0.00215809 0.297146 -0.95483 
0.000601867 0.202408 -0.979301 
-0.0012349 0.141384 -0.989954 
-0.00271821 0.0989484 -0.995089 
-0.00445448 0.0694506 -0.997575 
-0.00561795 0.0499556 -0.998736 
-0.00629955 0.0362227 -0.999324 
-0.00714709 0.0261144 -0.999633 
-0.0076733 0.0189186 -0.999792 
-0.00809577 0.0134506 -0.999877 
-0.00841238 0.00915075 -0.999923 
-0.00858656 0.00586191 -0.999946 
-0.00918908 0.00339898 -0.999952 
-0.00907049 0.00154281 -0.999958 
-0.0097523 0.000155075 -0.999952 
-0.00954122 -0.000822268 -0.999954 
-0.00995063 -0.00151254 -0.999949 
-0.00978681 -0.00202113 -0.99995 
-0.00978321 -0.00247376 -0.999949 
-0.00969333 -0.00287433 -0.999949 
-0.00968932 -0.00342617 -0.999947 
-0.0094281 -0.00424516 -0.999947 
-0.00929446 -0.00557599 -0.999941 
-0.0099781 -0.00752914 -0.999922 
-0.0096785 -0.0103812 -0.999899 
-0.00877663 -0.0140236 -0.999863 