# vtk DataFile Version 3.0 
Exported using Morpho https://github.com/Morpho-lang/morpho 
ASCII 
DATASET UNSTRUCTURED_GRID 

POINTS 1978 float 
-12 -4 1.6531e-16 
-11.5938 -4 5.50133e-16 
-11.2894 -4 3.47754e-16 
-10.9499 -4 6.08387e-16 
-10.6363 -4 1.46993e-16 
-10.3057 -4 3.12288e-16 
-9.98401 -4 4.69717e-16 
-9.65485 -4 -1.08872e-16 
-9.30294 -4 2.52693e-16 
-8.98752 -4 4.06116e-16 
-8.6875 -4 -1.66816e-16 
-8.3737 -4 7.41293e-16 
-8.07615 -4 -7.14397e-17 
-7.7715 -4 5.54182e-16 
-7.47682 -4 2.10157e-16 
-7.18883 -4 3.0853e-18 
-6.8881 -4 4.62561e-16 
-6.58836 -4 1.24565e-16 
-6.28521 -4 -1.40407e-16 
-5.97929 -4 -5.94955e-16 
-5.68023 -4 -8.19079e-16 
-5.38072 -4 -1.60977e-15 
-5.08487 -4 -2.29781e-15 
-4.80296 -4 -1.21816e-15 
-4.49377 -4 -1.95343e-15 
-4.20733 -4 1.22842e-15 
-3.90645 -4 8.76342e-18 
-3.589 -4 -4.20029e-15 
-3.26853 -4 -1.46373e-14 
-2.92438 -4 -2.60973e-14 
-2.5961 -4 -4.53136e-14 
-2.27088 -4 -2.37689e-13 
-1.97548 -4 -7.91737e-13 
-1.71146 -4 -1.76872e-12 
-1.50011 -4 -4.82378e-12 
-1.32092 -4 -1.77779e-11 
-1.11722 -4 -1.05722e-10 
-0.883408 -4 -4.61043e-10 
-0.640289 -4 -7.05561e-10 
-0.431713 -4 5.91945e-10 
0.558558 -4 7.02749e-10 
0.844815 -4 7.23042e-10 
1.07751 -4 1.16947e-10 
1.26315 -4 2.21343e-11 
1.43825 -4 6.19902e-12 
1.64394 -4 3.2669e-12 
1.93892 -4 7.92119e-13 
2.28387 -4 1.79205e-13 
2.63564 -4 3.2352e-14 
2.96886 -4 2.33936e-14 
3.29852 -4 1.47038e-14 
3.59686 -4 4.21964e-15 
3.90442 -4 1.10335e-15 
4.20872 -4 -1.01351e-16 
4.51323 -4 1.02629e-15 
4.80763 -4 2.53415e-15 
5.11134 -4 1.61954e-15 
5.41014 -4 1.16098e-15 
5.71103 -4 9.38899e-16 
6.00565 -4 7.19453e-16 
6.29738 -4 2.43465e-16 
6.59326 -4 -1.53691e-16 
6.89709 -4 -4.01227e-16 
7.17335 -4 -2.05834e-16 
7.47675 -4 -5.81024e-18 
7.76922 -4 -6.67859e-16 
8.07031 -4 2.88525e-16 
8.36262 -4 -4.53385e-16 
8.65585 -4 -1.37739e-16 
8.94287 -4 -4.49831e-16 
9.27963 -4 2.54316e-16 
9.60739 -4 -2.20515e-16 
9.90131 -4 -6.55445e-16 
10.2681 -4 3.73986e-17 
10.5805 -4 -7.46363e-16 
10.9797 -4 -2.56838e-16 
11.298 -4 -5.13109e-16 
11.5912 -4 -5.40565e-16 
12 -4 -1.69186e-16 
-12 -3.61493 -3.19799e-16 
-11.7077 -3.71912 5.92573e-19 
-11.3576 -3.63173 2.39974e-19 
-11.0423 -3.67276 1.40014e-18 
-10.7101 -3.64963 1.24581e-19 
-10.3925 -3.67025 1.50725e-19 
-10.0613 -3.66408 4.45896e-19 
-9.73547 -3.67526 -5.25792e-19 
-9.39552 -3.69575 7.06277e-19 
-9.05355 -3.66717 1.87334e-20 
-8.74232 -3.65538 2.67418e-19 
-8.4358 -3.67448 1.93943e-19 
-8.11978 -3.65904 1.23108e-19 
-7.81544 -3.6695 -7.7606e-19 
-7.50489 -3.66108 -1.66756e-19 
-7.20272 -3.65957 -2.81553e-20 
-6.89512 -3.67207 5.33483e-19 
-6.58441 -3.67064 -2.79198e-19 
-6.26923 -3.67635 3.72882e-19 
-5.96041 -3.67083 3.70557e-18 
-5.65152 -3.67303 7.98466e-18 
-5.34499 -3.66969 1.69589e-17 
-5.05226 -3.65374 4.07106e-17 
-4.73785 -3.68382 8.12211e-17 
-4.43735 -3.65717 1.36179e-16 
-4.12663 -3.66799 5.87378e-17 
-3.80036 -3.67415 1.13112e-16 
-3.46901 -3.66135 3.59547e-16 
-3.12046 -3.67246 1.40782e-15 
-2.77549 -3.65686 6.24436e-15 
-2.44334 -3.6728 3.25151e-14 
-2.13179 -3.68216 1.6435e-13 
-1.84438 -3.6879 6.65891e-13 
-1.60716 -3.68368 2.02843e-12 
-1.41281 -3.70334 8.57056e-12 
-1.22587 -3.80059 1.51111e-11 
-1.02479 -3.84787 5.78249e-11 
-0.787616 -3.87894 1.39358e-10 
-0.588306 -3.85044 7.53433e-11 
-0.250032 -4.04349 2.70221e-10 
0.366263 -4.05538 -9.27002e-10 
0.960382 -3.87056 -1.20952e-10 
1.12187 -3.78284 -3.14404e-11 
1.28281 -3.73377 -1.09133e-11 
1.46233 -3.69485 -3.74657e-12 
1.70022 -3.72668 -1.45989e-12 
1.95861 -3.68376 -2.40199e-13 
2.24633 -3.70257 -7.14999e-14 
2.58353 -3.68399 -1.40897e-14 
2.9263 -3.66537 -2.58098e-15 
3.26658 -3.66724 -6.56017e-16 
3.59827 -3.6456 -2.33336e-16 
3.9106 -3.65732 -1.02701e-16 
4.22507 -3.66391 -6.11447e-17 
4.5307 -3.66161 -1.21789e-16 
4.84211 -3.67824 -5.84118e-17 
5.14851 -3.67428 -2.53341e-17 
5.45354 -3.67531 -1.19917e-17 
5.75641 -3.66534 -6.21847e-18 
6.05322 -3.66091 -2.9504e-18 
6.355 -3.66568 -1.289e-18 
6.65993 -3.67544 -4.96978e-19 
6.94979 -3.63925 3.69153e-19 
7.24986 -3.67082 -1.33992e-19 
7.54658 -3.65828 1.02086e-19 
7.84809 -3.66688 9.00297e-20 
8.14453 -3.65725 2.50854e-20 
8.44274 -3.65781 -2.19393e-20 
8.74164 -3.65101 -3.72285e-19 
9.06036 -3.69866 2.73885e-19 
9.38612 -3.68154 2.41979e-19 
9.69543 -3.63837 -2.14903e-19 
10.0298 -3.7088 -6.00615e-19 
10.3545 -3.65295 2.77458e-19 
10.7209 -3.72452 -3.68861e-19 
11.0553 -3.65044 -2.03581e-19 
11.3588 -3.618 -1.00813e-19 
11.713 -3.72463 -7.04708e-19 
12 -3.60355 3.30867e-16 
-12 -3.30869 -1.8352e-16 
-11.6363 -3.37225 -1.25878e-19 
-11.2956 -3.28923 -4.75737e-20 
-10.9799 -3.33215 6.79439e-20 
-10.6613 -3.3036 -7.65687e-20 
-10.3372 -3.33897 7.18268e-20 
-10.0093 -3.33244 -1.44301e-20 
-9.69209 -3.3324 2.34248e-20 
-9.38817 -3.38118 9.55468e-20 
-9.08132 -3.32635 8.53735e-20 
-8.77644 -3.31599 -1.01382e-18 
-8.4715 -3.33364 2.6045e-19 
-8.17023 -3.33457 7.71008e-20 
-7.85598 -3.32966 -4.83632e-19 
-7.55682 -3.33193 -5.53972e-20 
-7.25081 -3.32179 2.60029e-19 
-6.94641 -3.34731 2.52598e-19 
-6.63771 -3.34383 4.41942e-19 
-6.3299 -3.35273 4.5276e-19 
-6.02298 -3.34427 1.50966e-20 
-5.71719 -3.34668 3.9106e-18 
-5.41275 -3.34451 9.01244e-18 
-5.11089 -3.31585 1.62374e-17 
-4.80639 -3.36019 4.07316e-17 
-4.50117 -3.32743 5.33698e-17 
-4.19122 -3.33943 1.01066e-16 
-3.87116 -3.35151 7.73565e-17 
-3.54421 -3.3321 1.10375e-16 
-3.20805 -3.34336 8.1315e-16 
-2.87212 -3.3253 3.39852e-15 
-2.53762 -3.32981 1.54113e-14 
-2.22757 -3.34297 5.89784e-14 
-1.93879 -3.37143 1.4836e-13 
-1.67379 -3.35982 5.65264e-13 
-1.45149 -3.39012 -1.40943e-13 
-1.26772 -3.49266 -2.22074e-12 
-1.13224 -3.62436 8.60392e-12 
-0.909198 -3.73618 1.70129e-11 
-0.694551 -3.71904 -1.56693e-11 
-0.0602364 -3.92185 -1.96189e-10 
0.32679 -3.92801 -6.18985e-10 
0.72757 -3.88313 -2.34976e-10 
1.09178 -3.52686 -2.042e-12 
1.2569 -3.44949 9.74989e-13 
1.44026 -3.37245 1.80574e-13 
1.65759 -3.42601 -2.79655e-14 
1.90348 -3.37504 -5.11198e-14 
2.19739 -3.37756 -1.04073e-14 
2.51212 -3.36893 -3.20575e-15 
2.84573 -3.34302 -1.04416e-15 
3.19258 -3.3421 -6.01439e-16 
3.53222 -3.31882 -1.15746e-16 
3.86608 -3.31902 -6.69699e-17 
4.18117 -3.32874 -1.24852e-16 
4.48973 -3.3267 -6.87567e-17 
4.79506 -3.35286 -3.9274e-17 
5.09915 -3.35114 -2.04772e-17 
5.40476 -3.34917 -9.88987e-18 
5.70596 -3.34077 -4.73231e-18 
6.0146 -3.32287 -3.52757e-18 
6.31155 -3.33291 -1.06917e-18 
6.61481 -3.34107 -4.45297e-19 
6.91157 -3.30058 -3.82305e-19 
7.21147 -3.33286 -8.20309e-20 
7.51028 -3.32126 -1.3571e-19 
7.81155 -3.33503 -1.42669e-20 
8.11856 -3.32068 -4.54972e-20 
8.4225 -3.32443 -7.47787e-19 
8.73462 -3.31989 -1.91091e-19 
9.05524 -3.37928 -1.44347e-19 
9.37896 -3.35122 -1.28829e-19 
9.68638 -3.29163 -4.90616e-20 
9.99912 -3.38262 -7.75888e-20 
10.3069 -3.30813 4.89254e-20 
10.6352 -3.4103 -4.87558e-21 
10.9678 -3.33524 -7.90689e-21 
11.2978 -3.25927 2.36946e-20 
11.6312 -3.3768 1.49432e-19 
12 -3.29792 2.13616e-16 
-12 -2.97705 3.93639e-17 
-11.665 -3.05462 -2.0813e-19 
-11.3216 -2.97292 -1.18573e-19 
-10.9719 -2.98322 -2.4151e-19 
-10.6375 -2.97263 7.34052e-19 
-10.3104 -3.0057 1.43226e-18 
-9.98888 -2.99417 6.26678e-20 
-9.66971 -2.99707 -2.34746e-20 
-9.35411 -3.03197 3.81608e-20 
-9.04578 -2.98109 5.98664e-20 
-8.73859 -2.97719 1.5045e-18 
-8.43864 -2.99306 2.20907e-20 
-8.12607 -3.00912 -2.09008e-20 
-7.8259 -2.98889 1.50353e-19 
-7.52071 -2.99926 4.69233e-20 
-7.21735 -2.98836 -7.09554e-20 
-6.91664 -3.02214 2.58949e-19 
-6.60904 -3.01682 2.61025e-19 
-6.30615 -3.02351 -6.79232e-19 
-6.00224 -3.01536 6.75253e-19 
-5.70197 -3.01624 1.0282e-18 
-5.40232 -3.01217 1.92998e-18 
-5.10471 -2.98239 2.53486e-18 
-4.80416 -3.03105 6.89435e-19 
-4.5034 -2.99527 6.10084e-18 
-4.19636 -3.00956 8.09213e-19 
-3.88677 -3.02777 -6.78166e-17 
-3.55139 -3.01227 1.14581e-16 
-3.21052 -3.01335 -2.92794e-16 
-2.85714 -2.99942 -1.28352e-15 
-2.51691 -2.99374 -1.11243e-14 
-2.18267 -3.01503 -3.57776e-14 
-1.87852 -3.05656 5.72446e-14 
-1.60868 -3.04656 -3.22444e-13 
-1.37177 -3.09859 -2.42476e-13 
-1.18045 -3.23848 -2.20992e-12 
-1.04114 -3.38726 -2.29307e-13 
-0.930224 -3.57149 9.63604e-12 
-0.219094 -3.86617 5.23042e-09 
0.131617 -3.96635 2.14283e-09 
0.522524 -3.87345 -4.15651e-10 
0.942324 -3.66582 -2.14615e-11 
1.00625 -3.26516 9.35479e-12 
1.16972 -3.16364 1.32335e-12 
1.38087 -3.07878 2.11111e-13 
1.6329 -3.09381 2.03233e-13 
1.90643 -3.06713 1.73395e-14 
2.21347 -3.0579 2.35848e-15 
2.52386 -3.03384 1.45805e-16 
2.84803 -3.00298 9.0806e-17 
3.17817 -3.01938 3.32135e-16 
3.50784 -2.98663 9.49823e-17 
3.83241 -2.99772 8.47789e-17 
4.15959 -2.99442 2.42841e-17 
4.47158 -2.99242 8.71214e-18 
4.77786 -3.02084 -9.74309e-19 
5.07948 -3.02235 -2.16373e-18 
5.38056 -3.02459 -1.92917e-18 
5.68488 -3.00925 -1.12641e-18 
5.98407 -3.00415 -7.75797e-19 
6.29955 -2.99209 -5.91034e-19 
6.59373 -3.00847 -3.09306e-19 
6.91152 -2.98206 -5.86821e-20 
7.22772 -2.99661 -1.18229e-19 
7.52792 -2.98541 1.31428e-19 
7.83522 -3.00589 1.09324e-19 
8.13604 -2.98483 -5.82661e-20 
8.44676 -2.99753 5.05287e-20 
8.75778 -2.98851 5.85872e-21 
9.0618 -3.05823 1.10221e-18 
9.3641 -3.01006 -4.16373e-20 
9.66662 -2.9473 5.84186e-19 
9.98723 -3.03557 6.11907e-19 
10.3233 -2.98169 3.48125e-20 
10.6539 -3.07954 -4.25308e-20 
10.9876 -2.99654 1.35408e-18 
11.3392 -2.93866 3.73365e-20 
11.6701 -3.05966 1.38084e-19 
12 -2.95881 5.36329e-18 
-12 -2.66095 -7.87545e-17 
-11.6524 -2.72543 -1.42003e-19 
-11.3065 -2.65376 1.08885e-19 
-10.9717 -2.65215 -5.97944e-20 
-10.6343 -2.64629 4.14126e-20 
-10.2984 -2.67052 -3.26523e-20 
-9.96695 -2.66357 -2.56361e-20 
-9.63501 -2.67094 8.51953e-20 
-9.32006 -2.69054 -3.47284e-20 
-8.99636 -2.64707 1.99688e-20 
-8.68655 -2.63906 2.52955e-20 
-8.372 -2.67262 1.76889e-18 
-8.07205 -2.66772 1.51552e-18 
-7.75976 -2.66163 -6.71601e-20 
-7.45881 -2.6635 -1.02231e-19 
-7.14769 -2.66404 7.77064e-21 
-6.84761 -2.69576 2.45129e-20 
-6.5414 -2.68669 -5.88165e-19 
-6.23967 -2.69285 -1.17711e-19 
-5.93717 -2.68257 -8.04819e-19 
[...]
POINT_DATA 1978 
VECTORS vectors float
1.44585e-06 -0.000396287 1 
-6.36915e-07 -0.000358861 1 
5.07624e-07 -0.000311918 1 
1.08787e-07 -0.000246841 1 
2.75423e-07 -0.000176825 1 
3.23965e-07 -9.30691e-05 1 
3.42834e-07 -5.5074e-06 1 
4.71259e-07 8.11808e-05 1 
4.40331e-07 0.000166221 1 
2.72853e-07 0.000245031 1 
2.83878e-07 0.000329665 1 
2.05817e-07 0.000421865 1 
2.06963e-07 0.0004983 1 
1.62666e-07 0.000565985 1 
1.1978e-07 0.000622364 1 
1.44527e-07 0.000665932 1 
1.7111e-07 0.000706565 1 
2.43311e-07 0.000748455 1 
2.98062e-07 0.000830155 1 
3.8904e-07 0.000978345 1 
4.2918e-07 0.00120099 0.999999 
5.54643e-07 0.00149716 0.999999 
6.82939e-07 0.00192779 0.999998 
5.76127e-07 0.00261388 0.999997 
1.19623e-06 0.00375152 0.999993 
9.16543e-07 0.00497801 0.999988 
2.76876e-06 0.00635897 0.99998 
3.69553e-06 0.00813403 0.999967 
9.16067e-06 0.0108676 0.999941 
1.64088e-05 0.0155485 0.999879 
1.92355e-05 0.0231508 0.999732 
1.96198e-05 0.0370844 0.999312 
8.96645e-06 0.0604108 0.998174 
3.41832e-05 0.0962082 0.995361 
-9.99651e-05 0.139548 0.990215 
-0.000309124 0.197179 0.980368 
-0.000282007 0.292928 0.956135 
0.000736779 0.450437 0.892808 
-0.0014551 0.680616 0.732638 
0.00115178 0.910729 0.413003 
-5.63561e-05 0.831778 -0.555109 
0.00143201 0.488466 -0.872581 
-0.00115447 0.330541 -0.943791 
0.00105581 0.232448 -0.972608 
0.000126524 0.159792 -0.987151 
-7.82471e-05 0.103029 -0.994678 
-4.23677e-05 0.0607135 -0.998155 
-1.91178e-05 0.0362335 -0.999343 
-4.12155e-05 0.022746 -0.999741 
-1.0778e-05 0.0154423 -0.999881 
-4.39514e-06 0.0110881 -0.999939 
-2.38032e-06 0.0085091 -0.999964 
-2.2791e-06 0.00658436 -0.999978 
-1.38387e-06 0.00492639 -0.999988 
-1.43584e-06 0.00358777 -0.999994 
-7.38852e-07 0.00258824 -0.999997 
-9.67561e-07 0.00191892 -0.999998 
-5.95713e-07 0.00153133 -0.999999 
-4.25964e-07 0.00123837 -0.999999 
-3.14395e-07 0.000997144 -1 
-2.60723e-07 0.000827428 -1 
-2.01861e-07 0.000724165 -1 
-1.8377e-07 0.000661027 -1 
-6.69969e-08 0.000620075 -1 
-1.96028e-07 0.00058827 -1 
-9.10749e-08 0.000562554 -1 
-1.65369e-07 0.000529075 -1 
-1.55221e-07 0.000481927 -1 
-1.75425e-07 0.000411922 -1 
-2.82874e-07 0.000323318 -1 
-4.71471e-07 0.000202864 -1 
-2.99566e-07 9.0874e-05 -1 
-4.04541e-07 -1.54649e-06 -1 
-4.35024e-07 -0.000104769 -1 
-4.39678e-07 -0.000177596 -1 
-3.04766e-07 -0.000257311 -1 
-4.54605e-07 -0.000311256 -1 
6.45035e-07 -0.000351425 -1 
-1.37031e-06 -0.000389524 -1 
-3.25247e-06 -0.000302337 1 
-3.86193e-05 -0.000324654 1 
-8.73693e-05 -0.000265284 1 
-0.000108323 -0.000222838 1 
-0.000139799 -0.000155566 1 
-0.000155824 -8.87789e-05 1 
-0.000177068 -9.00771e-06 1 
-0.000188552 6.91933e-05 1 
-0.00019738 0.000149556 1 
-0.00022685 0.000231272 1 
-0.000249248 0.000308186 1 
-0.000247471 0.000381049 1 
-0.00025385 0.000442864 1 
-0.000233194 0.000491829 1 
-0.000209221 0.000531087 1 
-0.000177735 0.000571376 1 
-0.000146263 0.000630956 1 
-0.000140093 0.000721068 1 
-0.000166173 0.000865215 1 
-0.000233325 0.00107491 0.999999 
-0.000333563 0.00135266 0.999999 
-0.000457692 0.00171098 0.999998 
-0.000579454 0.00218939 0.999997 
-0.000620048 0.00291358 0.999996 
-0.000646277 0.00386785 0.999992 
-0.000561627 0.00507911 0.999987 
-0.000493061 0.00667649 0.999978 
-0.000564304 0.00900146 0.999959 
-0.000843932 0.0129873 0.999915 
-0.00144184 0.0200049 0.999799 
-0.00275886 0.0320297 0.999483 
-0.00472093 0.0520926 0.998631 
-0.0071517 0.0822787 0.996584 
-0.00980096 0.122536 0.992416 
-0.0111751 0.174706 0.984557 
-0.0126602 0.242267 0.970127 
-0.0119182 0.358719 0.933369 
-0.00322163 0.549367 0.835575 
0.0295328 0.734042 0.678462 
0.012495 0.966534 0.256233 
0.0468135 0.881645 -0.469585 
0.018306 0.402922 -0.915051 
0.0176252 0.296898 -0.954747 
0.0126386 0.218893 -0.975667 
0.00929154 0.153363 -0.988126 
0.00597984 0.0992649 -0.995043 
0.00334849 0.0648405 -0.99789 
0.00159212 0.041358 -0.999143 
0.000349993 0.0257736 -0.999668 
0.000255276 0.0166742 -0.999861 
0.000417195 0.0114864 -0.999934 
0.000509795 0.00831446 -0.999965 
0.000557799 0.00625188 -0.99998 
0.000620867 0.00469824 -0.999989 
0.000660286 0.00352974 -0.999994 
0.000618468 0.00262646 -0.999996 
0.000542898 0.00202298 -0.999998 
0.000431119 0.00161386 -0.999999 
0.000326332 0.00129899 -0.999999 
0.000236804 0.00103637 -0.999999 
0.000176232 0.000827382 -1 
0.000151164 0.00068366 -1 
0.000167297 0.000580677 -1 
0.000180562 0.000538599 -1 
0.000215258 0.000509274 -1 
0.000236136 0.000493107 -1 
0.000257622 0.000467349 -1 
0.000263378 0.000425799 -1 
0.000263806 0.000361326 -1 
0.000226996 0.000275161 -1 
0.000217738 0.000172794 -1 
0.000216658 8.03616e-05 -1 
0.000167822 -1.86974e-05 -1 
0.000164273 -9.18954e-05 -1 
0.000116111 -0.000177694 -1 
0.000109776 -0.000224046 -1 
8.62977e-05 -0.000260387 -1 
3.53709e-05 -0.000320456 -1 
1.03478e-06 -0.000294516 -1 
-2.41867e-05 -0.000240653 1 
-8.29481e-05 -0.00024534 1 
-0.000141687 -0.000193207 1 
-0.000179728 -0.000158415 1 
-0.00021944 -0.00010089 1 
-0.000248675 -4.37463e-05 1 
-0.000278602 2.59317e-05 1 
-0.000304095 9.64825e-05 1 
-0.000316893 0.000162912 1 
-0.000353687 0.000234236 1 
-0.000373855 0.000297875 1 
-0.000380104 0.000352023 1 
-0.000377579 0.000390942 1 
-0.000356642 0.000412561 1 
-0.000318954 0.000427807 1 
-0.000270944 0.000451461 1 
-0.00022479 0.000530075 1 
-0.000203292 0.000650238 1 
-0.000222812 0.000845977 1 
-0.000295106 0.00111204 0.999999 
-0.000416092 0.00143546 0.999999 
-0.000565901 0.00181006 0.999998 
-0.000702807 0.00226175 0.999997 
-0.000794457 0.00282443 0.999996 
-0.000764763 0.00354515 0.999993 
-0.00064639 0.00453189 0.99999 
-0.000487198 0.00595084 0.999982 
-0.000362819 0.00805905 0.999967 
-0.0004323 0.0117846 0.99993 
-0.000627343 0.0177825 0.999842 
-0.000999208 0.0281685 0.999603 
-0.00130151 0.0438758 0.999036 
-0.000363423 0.0671655 0.997742 
0.00340997 0.0998047 0.995001 
0.00869225 0.143409 0.989625 
0.0161067 0.20175 0.979305 
0.00546148 0.275506 0.961284 
0.00674994 0.416441 0.909138 
0.0346647 0.54694 0.836454 
0.0279084 0.997644 0.062668 
0.00120631 0.910294 -0.41396 
0.00498254 0.615337 -0.788249 
-0.0248072 0.255877 -0.966391 
-0.0194785 0.186693 -0.982225 
-0.0155258 0.133555 -0.99092 
-0.00562658 0.0989617 -0.995075 
-0.00347751 0.0670236 -0.997745 
-0.00225103 0.043225 -0.999063 
-0.00164531 0.0273677 -0.999624 
-0.000760939 0.0177239 -0.999843 
-5.24338e-05 0.0120256 -0.999928 
0.000284073 0.00843505 -0.999964 
0.000506891 0.00617024 -0.999981 
0.000674941 0.00467125 -0.999989 
0.000788184 0.00360928 -0.999993 
0.000813121 0.00283758 -0.999996 
0.000740722 0.00227489 -0.999997 
0.00060653 0.00184506 -0.999998 
0.000458557 0.00148623 -0.999999 
0.000329766 0.00115629 -0.999999 
0.00025048 0.00087718 -1 
0.000219497 0.00065944 -1 
0.000234895 0.000511367 -1 
0.000268629 0.000448125 -1 
0.00031328 0.000418004 -1 
0.0003497 0.000420275 -1 
0.000377374 0.000412967 -1 
0.000387646 0.000392094 -1 
0.000382629 0.000340247 -1 
0.000355231 0.000269089 -1 
0.00033918 0.000181573 -1 
0.00032428 0.000102434 -1 
0.00027705 1.8327e-05 -1 
0.000259003 -4.31204e-05 -1 
0.000205877 -0.000119435 -1 
0.000177738 -0.000160507 -1 
0.00013939 -0.000186925 -1 
7.96887e-05 -0.000241357 -1 
1.96911e-05 -0.000232504 -1 
-3.00009e-05 -0.000174054 1 
-9.30741e-05 -0.000181795 1 
-0.00015273 -0.000139023 1 
-0.000200552 -0.000102024 1 
-0.000242639 -5.54417e-05 1 
-0.00027675 -5.2138e-06 1 
-0.00030741 5.46891e-05 1 
-0.000334566 0.00011755 1 
-0.000354051 0.000179664 1 
-0.00037529 0.000241598 1 
-0.000389419 0.000294504 1 
-0.000394725 0.000330465 1 
-0.000385695 0.000345901 1 
-0.000356911 0.000337588 1 
-0.000316369 0.000335252 1 
-0.000268029 0.000355259 1 
-0.000226035 0.000444144 1 
-0.000202454 0.000606547 1 
-0.000214056 0.000858147 1 
-0.000266851 0.00118614 0.999999 
-0.00036117 0.00156181 0.999999 
-0.000476532 0.00196473 0.999998 
-0.000558115 0.00239767 0.999997 
-0.000620473 0.0028446 0.999996 
-0.000532986 0.0034235 0.999994 
-0.000383826 0.00417751 0.999991 
-0.000167974 0.00531615 0.999986 
0.000145517 0.00734347 0.999973 
0.000465408 0.0107326 0.999942 
0.00102188 0.0163073 0.999867 
0.0023062 0.0248765 0.999688 
0.00515184 0.0393637 0.999212 
0.0106013 0.0633949 0.997932 
0.0247357 0.0905664 0.995583 
0.0375776 0.126095 0.991306 
0.0544033 0.18043 0.982082 
0.0545008 0.255858 0.965177 
0.0332932 0.348298 0.936792 
0.080491 0.915608 0.393934 
0.00295532 0.983327 -0.18182 
-0.0203243 0.791083 -0.611371 
-0.0106185 0.354854 -0.934862 
-0.0807831 0.205734 -0.975268 
-0.0600952 0.148324 -0.987111 
-0.0406201 0.10421 -0.993725 
-0.0220311 0.079373 -0.996602 
-0.0125978 0.0546369 -0.998427 
-0.00741753 0.0358355 -0.99933 
-0.00441751 0.0237209 -0.999709 
-0.00226242 0.0159272 -0.999871 
-0.000882636 0.0111872 -0.999937 
-0.000295139 0.00800519 -0.999968 
0.000111143 0.00589311 -0.999983 
0.000374727 0.00444496 -0.99999 
0.000551188 0.00352196 -0.999994 
0.000650153 0.00289419 -0.999996 
0.000625041 0.00240835 -0.999997 
0.000530021 0.00199624 -0.999998 
0.000401099 0.00160647 -0.999999 
0.00029757 0.00123406 -0.999999 
0.000230357 0.000877781 -1 
0.000213499 0.00061577 -1 
0.000229668 0.000426476 -1 
0.000269752 0.000341995 -1 
0.000315585 0.000322613 -1 
0.000358716 0.000343304 -1 
0.000382555 0.000353923 -1 
0.000399455 0.000352937 -1 
0.000397429 0.000316461 -1 
0.000387307 0.000261875 -1 
0.00036609 0.000191894 -1 
0.000339713 0.000122053 -1 
0.000310567 4.74745e-05 -1 
0.000277157 -1.33317e-05 -1 
0.000237281 -7.80498e-05 -1 
0.000196334 -0.000109875 -1 
0.000146066 -0.000133668 -1 
8.84444e-05 -0.000179114 -1 
2.81571e-05 -0.000162075 -1 
-2.98959e-05 -0.000101553 1 
-9.90259e-05 -0.000112802 1 
-0.000155052 -8.33646e-05 1 
-0.000198954 -5.64321e-05 1 
-0.000236819 -2.01795e-05 1 
-0.00026699 2.14804e-05 1 
-0.000293597 7.38594e-05 1 
-0.000316985 0.000132188 1 
-0.000336223 0.000189986 1 
-0.000343167 0.000244799 1 
-0.000345173 0.000282856 1 
-0.000345211 0.000302162 1 
-0.000323603 0.000291715 1 
-0.000287908 0.000265819 1 
-0.000247422 0.000251843 1 
-0.000203909 0.000281783 1 
-0.000175301 0.000392691 1 
-0.000154116 0.000594598 1 
-0.000160613 0.000896042 1 
-0.000190963 0.00127436 0.999999 
-0.000249567 0.00169306 0.999999 
-0.000306733 0.00210649 0.999998 
-0.000342821 0.00253791 0.999997 
-0.000329024 0.00292463 0.999996 
-0.000193428 0.0033988 0.999994 
-1.37047e-05 0.00402477 0.999992 
0.000230306 0.00510962 0.999987 
0.000674368 0.00694431 0.999976 
0.00136213 0.0101655 0.999947 
0.00262602 0.0144507 0.999892 
0.00496457 0.0201936 0.999784 
0.00908802 0.0300098 0.999508 
0.0174522 0.0460616 0.998786 
0.0351137 0.0641069 0.997325 
0.0617629 0.0857424 0.994401 
0.0778745 0.138468 0.987301 
0.113608 0.223526 0.968054 
0.0954597 0.337923 0.93632 
0.0765471 0.739964 0.668277 
0.0457061 0.998016 0.043303 
-0.0658171 0.675454 -0.734459 
-0.0873111 0.314358 -0.945281 
-0.11538 0.122 -0.985801 
-0.0800868 0.0912925 -0.992599 
-0.0514727 0.0667742 -0.99644 
-0.0305961 0.0543351 -0.998054 
-0.0176983 0.0389109 -0.999086 
-0.0106036 0.0266186 -0.999589 
-0.00572408 0.0183705 -0.999815 
-0.00281653 0.0128849 -0.999913 
-0.0013381 0.00939497 -0.999955 
-0.000599077 0.00673801 -0.999977 
-0.000171762 0.00505777 -0.999987 
9.63284e-05 0.0039441 -0.999992 
0.00028822 0.00325064 -0.999995 
0.000397687 0.0027791 -0.999996 
0.000399337 0.00237468 -0.999997 
0.000340813 0.00197934 -0.999998 
0.000255089 0.00157262 -0.999999 
0.000197462 0.00115354 -0.999999 
0.000159779 0.000789016 -1 
0.000165624 0.000512122 -1 
0.000183625 0.000320005 -1 
0.000217209 0.000246536 -1 
0.000262918 0.000244036 -1 
0.000301628 0.000274789 -1 
0.000326016 0.000301399 -1 
0.000348385 0.000312243 -1 
0.000350889 0.000292011 -1 
0.000357471 0.000252398 -1 
0.000336575 0.000192817 -1 
0.000311825 0.00012576 -1 
0.000296127 6.16147e-05 -1 
0.00026307 1.21403e-05 -1 
0.000235096 -3.98926e-05 -1 
0.000191851 -6.63696e-05 -1 
0.000145883 -7.97102e-05 -1 
9.35622e-05 -0.000112297 -1 
3.4337e-05 -8.89475e-05 -1 
-5.20425e-05 -1.22448e-05 1 
-9.05694e-05 -4.89679e-05 1 
-0.000134402 -4.1054e-05 1 
-0.000172131 -2.38472e-05 1 
-0.000202537 -1.45765e-06 1 
-0.000229365 2.88894e-05 1 
-0.000250163 6.69652e-05 1 
-0.00026715 0.000114672 1 
-0.000278983 0.000167388 1 
-0.000281426 0.000215197 1 
-0.000270359 0.000251272 1 
-0.00026353 0.000267244 1 
-0.000238383 0.00025405 1 
-0.000207522 0.000222667 1 
-0.000161089 0.000189171 1 
-0.000126916 0.000197634 1 
-9.6868e-05 0.000279461 1 
-8.11976e-05 0.000447883 1 
-7.30698e-05 0.000728003 1 
-8.06938e-05 0.00108685 0.999999 
-0.000102202 0.00151333 0.999999 
-0.000123618 0.0019391 0.999998 
-0.000147427 0.00235733 0.999997 
-0.000103174 0.00273328 0.999996 
-2.72512e-05 0.00308288 0.999995 
0.00014916 0.0035059 0.999994 
0.000336076 0.00418488 0.999991 
0.000634102 0.00528672 0.999986 
0.00127611 0.00734655 0.999972 
0.00239208 0.0100328 0.999947 
0.00445808 0.0133877 0.9999 
0.00855446 0.0188326 0.999786 
0.0165647 0.0276662 0.99948 
0.0308387 0.0366255 0.998853 
0.0549661 0.0448038 0.997483 
0.0933257 0.0693506 0.993217 
0.117183 0.121064 0.985704 
0.168158 0.334863 0.927141 
0.123291 0.632123 0.764996 
0.0536584 0.996901 -0.0575193 
-0.108545 0.546988 -0.830074 
-0.134098 0.227797 -0.96443 
-0.124002 0.0474937 -0.991145 
-0.0780792 0.0426614 -0.996034 
-0.0474642 0.0344021 -0.99828 
-0.0291672 0.0317629 -0.99907 
-0.0178433 0.0238522 -0.999556 
-0.0103713 0.0181171 -0.999782 
-0.00578222 0.0140185 -0.999885 
-0.00317569 0.0111098 -0.999933 
-0.00158493 0.00832315 -0.999964 
-0.000802948 0.00610477 -0.999981 
-0.000403636 0.00466925 -0.999989 
-0.000149451 0.00375906 -0.999993 
4.49092e-05 0.0031741 -0.999995 
0.000162824 0.00276425 -0.999996 
0.000195825 0.00241015 -0.999997 
0.000175774 0.00203151 -0.999998 
0.00012987 0.00162581 -0.999999 
0.000103513 0.00119856 -0.999999 
7.32021e-05 0.000809587 -1 
7.96411e-05 0.00049469 -1 
9.55794e-05 0.000295764 -1 
0.00011108 0.000186963 -1 
0.000156093 0.000176327 -1 
0.000190046 0.000206647 -1 
0.000219663 0.00024375 -1 
0.000255284 0.000271134 -1 
0.000265415 0.000262994 -1 
0.000287612 0.000234972 -1 
0.000280032 0.000181061 -1 
0.000259951 0.000125434 -1 
0.000259898 7.29904e-05 -1 
0.000230958 2.94855e-05 -1 
0.000214196 -1.09562e-05 -1 
0.000175982 -2.86815e-05 -1 
0.000138696 -3.25462e-05 -1 
9.93166e-05 -5.19867e-05 -1 
5.03686e-05 -2.42685e-05 -1 
-8.00419e-05 2.58182e-05 1 
-0.000105661 7.92772e-07 1 
-0.000132347 -7.56881e-07 1 
-0.00015318 1.02026e-05 1 
-0.000173643 2.69018e-05 1 
-0.000188373 5.23068e-05 1 
-0.000202988 8.68381e-05 1 
-0.00020933 0.000129819 1 
-0.000205819 0.00017372 1 
-0.000196546 0.000212892 1 
-0.000176285 0.000236432 1 
-0.000148341 0.000230914 1 
-0.0001157 0.000202598 1 
-7.52312e-05 0.000163483 1 
-3.02762e-05 0.000141321 1 
-3.67447e-06 0.000178289 1 
1.8212e-05 0.000292928 1 
1.78311e-05 0.000503867 1 
1.92972e-05 0.000807283 1 
5.62324e-06 0.0011921 0.999999 
-5.8578e-06 0.00161161 0.999999 
-1.75646e-05 0.00205763 0.999998 
-6.34588e-06 0.00244378 0.999997 
5.57751e-05 0.00279232 0.999996 
0.000148962 0.00309994 0.999995 
0.000296775 0.00349393 0.999994 
0.000442614 0.00403776 0.999992 
0.000717572 0.0050568 0.999987 
0.0012349 0.00633492 0.999979 
0.00225453 0.0079381 0.999966 
0.00433899 0.0100933 0.99994 
0.00798352 0.0125378 0.99989 
0.0148451 0.0158811 0.999764 
0.0252738 0.0161991 0.999549 
0.0417867 0.0146073 0.99902 
0.0745385 0.0182336 0.997051 
0.129365 0.0533123 0.990163 
0.165759 0.140902 0.976048 
0.0924634 0.469248 0.878212 
0.0463789 0.998863 0.0110393 
-0.0302691 0.479284 -0.877138 
-0.169898 0.128158 -0.977093 
-0.106005 0.00821524 -0.994332 
-0.0618502 0.0105387 -0.99803 
-0.0351072 0.0124124 -0.999306 
-0.0223234 0.0140624 -0.999652 
-0.0131833 0.0129847 -0.999829 
-0.00754541 0.0117385 -0.999903 
-0.00434939 0.010415 -0.999936 
-0.00236212 0.00880419 -0.999958 
-0.00119387 0.00677607 -0.999976 
-0.000649309 0.00514721 -0.999987 
-0.000392367 0.00411807 -0.999991 
-0.000198963 0.0034449 -0.999994 
-4.9965e-05 0.00299954 -0.999996 
2.66981e-05 0.00265706 -0.999996 
5.49607e-05 0.00231586 -0.999997 
4.57827e-05 0.00194386 -0.999998 
2.39811e-05 0.00151086 -0.999999 
2.10739e-06 0.00110426 -0.999999 
-1.63141e-05 0.000698749 -1 
-2.07435e-05 0.000419173 -1 
-5.12717e-06 0.000230303 -1 
4.77291e-07 0.000136166 -1 
4.77728e-05 0.000133533 -1 
7.19786e-05 0.000163066 -1 
0.000112094 0.000206342 -1 
0.000148318 0.000233066 -1 
0.000171019 0.000232514 -1 
0.000206712 0.000213111 -1 
0.000203314 0.000170215 -1 
0.000195492 0.000118643 -1 
0.00020582 7.40705e-05 -1 
0.000183939 3.90663e-05 -1 
0.000179419 1.02078e-05 -1 
0.000148153 1.05364e-06 -1 
0.000121052 -8.65578e-07 -1 
9.95695e-05 -7.88521e-06 -1 
7.68999e-05 1.74684e-05 -1 
-9.96103e-05 3.34991e-05 1 
-0.000100587 2.34132e-05 1 
-0.000107927 2.03483e-05 1 
-0.000116029 2.44491e-05 1 
-0.000124853 3.49992e-05 1 
-0.000130208 5.31506e-05 1 
-0.000137522 8.02188e-05 1 
-0.000138237 0.000115848 1 
-0.000126413 0.00015491 1 
-0.000112026 0.000189937 1 
-9.51778e-05 0.000212438 1 
-5.14399e-05 0.000205038 1 
-1.78438e-05 0.000177449 1 
2.76232e-05 0.000136638 1 
6.82408e-05 0.000112249 1 
0.000100287 0.000138383 1 
0.000119002 0.000239251 1 
0.000112871 0.000432979 1 
0.000100803 0.000705556 1 
7.68478e-05 0.00106529 0.999999 
5.28987e-05 0.0014639 0.999999 
3.08675e-05 0.00190164 0.999998 
3.25338e-05 0.00231261 0.999997 
6.77943e-05 0.00266667 0.999996 
0.000146972 0.00298775 0.999996 
0.000254605 0.00332481 0.999994 
0.000345522 0.00373445 0.999993 
0.000471976 0.00437707 0.99999 
0.000697372 0.00514506 0.999987 
0.001246 0.00598436 0.999981 
0.00254089 0.00700922 0.999972 
0.00495863 0.0075941 0.999959 
0.00934854 0.00755332 0.999928 
0.0152748 0.0039373 0.999876 
0.0243436 -0.00530158 0.99969 
0.0493133 -0.0169811 0.998639 
0.105465 -0.00921396 0.99438 
0.230995 0.179119 0.956325 
0.181121 0.550689 0.814823 
0.058773 0.997443 -0.0406497 
-0.155629 0.420927 -0.893644 
-0.203861 0.0349292 -0.978377 
-0.0746616 -0.0280092 -0.996815 
-0.0408912 -0.0120168 -0.999091 
-0.0217744 -0.00348782 -0.999757 
-0.0141153 0.00413208 -0.999892 
-0.00855556 0.00736116 -0.999936 
-0.00508502 0.00839564 -0.999952 
-0.00293224 0.00809594 -0.999963 
-0.00178726 0.00748646 -0.99997 
-0.000897542 0.00605685 -0.999981 
-0.000505502 0.00483063 -0.999988 
-0.000328425 0.00397456 -0.999992 
-0.000201952 0.00342606 -0.999994 
-9.39503e-05 0.00302924 -0.999995 
-2.62583e-05 0.00267807 -0.999996 
6.99107e-07 0.00232811 -0.999997 
-4.15276e-06 0.00195055 -0.999998 
-2.68568e-05 0.00156314 -0.999999 
-6.09188e-05 0.00113952 -0.999999 
-8.42921e-05 0.000774289 -1 
-0.000111917 0.000454805 -1 
-0.000111202 0.000247064 -1 
-0.000107501 0.000130615 -1 
-7.35443e-05 9.86448e-05 -1 
-4.52449e-05 0.000119227 -1 
-1.8448e-06 0.000162935 -1 
4.21458e-05 0.000196836 -1 
7.38608e-05 0.000203258 -1 
0.000111597 0.000187417 -1 
0.000127674 0.000149358 -1 
0.000122723 0.000106007 -1 
0.00014539 7.31144e-05 -1 
0.000127313 4.61147e-05 -1 
0.000135455 2.57111e-05 -1 
0.000113789 1.6849e-05 -1 
9.8513e-05 1.45323e-05 -1 
9.53032e-05 1.43141e-05 -1 
9.34812e-05 2.44247e-05 -1 
-9.60085e-05 2.04314e-05 1 
-8.64733e-05 2.44685e-05 1 
-8.11308e-05 2.56359e-05 1 
-7.99963e-05 3.00115e-05 1 
-7.77683e-05 3.90914e-05 1 
-7.55331e-05 5.55312e-05 1 
-7.47863e-05 8.04979e-05 1 
-6.8223e-05 0.000112683 1 
-5.19695e-05 0.000147795 1 
-3.47271e-05 0.000178046 1 
-1.35738e-05 0.000194022 1 
3.08438e-05 0.000176424 1 
6.84477e-05 0.000144528 1 
0.00011389 0.000105803 1 
0.000152269 9.22933e-05 1 
0.000180525 0.000134498 1 
0.000187278 0.00025991 1 
0.000170574 0.000468633 1 
0.000136898 0.000766562 1 
9.48365e-05 0.00111737 0.999999 
4.90777e-05 0.00153573 0.999999 
1.42376e-05 0.00195236 0.999998 
4.45576e-07 0.00236169 0.999997 
3.70582e-05 0.002747 0.999996 
0.000103016 0.00307279 0.999995 
0.000202275 0.00337931 0.999994 
0.000251233 0.00374207 0.999993 
0.000306735 0.00420058 0.999991 
0.000351405 0.00466985 0.999989 