# vtk DataFile Version 3.0 
Exported using Morpho https://github.com/Morpho-lang/morpho 
ASCII 
DATASET UNSTRUCTURED_GRID 

POINTS 1978 float 
-12.0003 -4.00041 7.52021e-09 
-11.5929 -4.00133 2.46466e-08 
-11.2883 -4.00066 1.55481e-08 
-10.9499 -4.00093 2.74923e-08 
-10.6361 -4.001 6.41897e-09 
-10.3055 -4.00091 1.40318e-08 
-9.98403 -4.00095 2.1492e-08 
-9.65531 -4.00081 -5.43153e-09 
-9.30231 -4.00104 1.17711e-08 
-8.98785 -4.00097 1.79466e-08 
-8.68683 -4.00092 -7.73115e-09 
-8.37334 -4.00088 3.40277e-08 
-8.07599 -4.00088 -3.02845e-09 
-7.77092 -4.00083 2.57126e-08 
-7.47276 -4.00088 1.00096e-08 
-7.18549 -4.00096 8.96136e-10 
-6.89866 -4.00075 2.09024e-08 
-6.58637 -4.00094 5.44158e-09 
-6.28438 -4.00091 -7.41072e-09 
-5.9792 -4.00088 -2.87048e-08 
-5.67976 -4.00089 -3.92021e-08 
-5.38021 -4.00083 -7.60857e-08 
-5.08476 -4.00086 -1.08571e-07 
-4.80293 -4.00102 -5.81632e-08 
-4.49242 -4.00094 -8.74605e-08 
-4.20656 -4.00079 6.16374e-08 
-3.90676 -4.00094 6.69741e-09 
-3.59189 -4.00094 -1.81246e-07 
-3.26945 -4.00076 -6.14159e-07 
-2.92629 -4.00049 -9.0605e-07 
-2.5987 -4.0006 -4.67733e-07 
-2.26745 -3.99988 -1.92314e-06 
-1.97644 -4.00211 4.26519e-07 
-1.71203 -3.99995 1.74637e-05 
-1.50285 -3.99932 2.82337e-05 
-1.3268 -4.00201 0.000179599 
-1.11184 -3.99695 0.000454993 
-0.880749 -3.99559 0.00222023 
-0.608032 -4.00004 0.00752666 
-0.405576 -4.00305 0.0177577 
0.54848 -3.9981 -0.0180925 
0.908102 -3.99725 -0.00301006 
1.07433 -4.00148 -0.000715435 
1.23665 -3.99941 -0.000304731 
1.4122 -4.00019 -0.000133415 
1.64935 -4.00104 -1.95289e-05 
1.94922 -4.00028 -2.4055e-06 
2.2892 -4.00067 1.97409e-06 
2.64351 -4.0002 5.70336e-07 
2.97425 -4.00088 8.8715e-07 
3.29848 -4.00084 6.23403e-07 
3.59835 -4.00072 1.68767e-07 
3.89719 -4.00076 4.42082e-08 
4.2112 -4.00096 -1.06523e-09 
4.51406 -4.00089 4.64259e-08 
4.80755 -4.00096 1.18073e-07 
5.11108 -4.00096 7.69876e-08 
5.41004 -4.00096 5.49366e-08 
5.71076 -4.00076 4.44821e-08 
6.00559 -4.00093 3.44869e-08 
6.29711 -4.00083 1.23041e-08 
6.59496 -4.00082 -6.68363e-09 
6.89565 -4.00083 -1.80002e-08 
7.17323 -4.00079 -9.80166e-09 
7.47619 -4.00089 -5.3778e-10 
7.76882 -4.00082 -3.08813e-08 
8.07041 -4.00082 1.29246e-08 
8.36195 -4.00107 -2.09873e-08 
8.6591 -4.00078 -6.58728e-09 
8.9406 -4.00089 -2.07239e-08 
9.27976 -4.00118 1.20511e-08 
9.60763 -4.00059 -9.67208e-09 
9.90149 -4.00104 -2.98509e-08 
10.2681 -4.00103 2.30974e-09 
10.5803 -4.00085 -3.37377e-08 
10.9798 -4.0011 -1.14365e-08 
11.2979 -4.00065 -2.31546e-08 
11.5915 -4.00124 -2.4276e-08 
12.0005 -4.00038 -7.70262e-09 
-12.0014 -3.61437 -1.34365e-08 
-11.7089 -3.71968 -2.85966e-09 
-11.3588 -3.63168 -9.38152e-10 
-11.0427 -3.6723 -7.09941e-09 
-10.7097 -3.65031 1.24591e-09 
-10.3918 -3.67073 -8.18466e-09 
-10.0606 -3.66397 -5.82445e-09 
-9.73516 -3.67253 2.60092e-09 
-9.3966 -3.69957 -5.93652e-09 
-9.05378 -3.66763 -8.03298e-09 
-8.74148 -3.65813 5.66306e-10 
-8.43525 -3.67453 -5.15948e-10 
-8.12102 -3.65978 -1.90466e-08 
-7.81848 -3.66951 5.75828e-09 
-7.50903 -3.66253 -3.79272e-08 
-7.20752 -3.6506 -1.43556e-08 
-6.88988 -3.67946 -1.90061e-08 
-6.58112 -3.67151 -7.99142e-09 
-6.26805 -3.67676 2.50923e-09 
-5.95941 -3.67169 1.42834e-08 
-5.65063 -3.6733 2.68923e-08 
-5.34304 -3.67047 4.32161e-08 
-5.05025 -3.65448 6.45485e-08 
-4.73739 -3.68751 1.61168e-08 
-4.4381 -3.65587 6.58332e-08 
-4.12827 -3.66765 -3.31645e-08 
-3.80476 -3.67436 -1.8982e-07 
-3.47656 -3.6608 3.74949e-08 
-3.1307 -3.66986 -1.25269e-07 
-2.78086 -3.65121 -2.69845e-07 
-2.43577 -3.67444 1.35712e-07 
-2.10817 -3.68411 -4.37959e-06 
-1.84321 -3.70917 -3.12318e-06 
-1.60575 -3.66884 -1.53555e-05 
-1.40613 -3.70117 -7.87312e-05 
-1.23107 -3.78193 -0.000112315 
-0.997546 -3.82364 -0.000351568 
-0.74029 -3.86899 -0.00123173 
-0.533794 -3.85214 0.000984913 
-0.286411 -4.0066 -0.018686 
0.427551 -3.97647 0.00693879 
0.855222 -3.89416 0.00462519 
1.11687 -3.77931 0.000487797 
1.2914 -3.73559 0.000213049 
1.47783 -3.69291 0.000134811 
1.6712 -3.71105 2.5171e-05 
1.93286 -3.69818 3.67021e-06 
2.23758 -3.69642 -2.0883e-06 
2.58086 -3.67718 1.25162e-06 
2.92396 -3.65795 -1.08103e-07 
3.26587 -3.67335 3.12177e-07 
3.5957 -3.63496 -1.37227e-07 
3.91606 -3.66315 1.00119e-07 
4.22883 -3.66392 4.26237e-08 
4.53243 -3.66215 -2.91104e-08 
4.84246 -3.67898 -4.93623e-08 
5.1483 -3.67557 -5.93561e-08 
5.45322 -3.67578 -4.06421e-08 
5.75598 -3.66599 -2.16971e-08 
6.05233 -3.66123 -1.66577e-08 
6.35558 -3.66766 -2.55305e-09 
6.66294 -3.67054 1.41048e-08 
6.94989 -3.64199 1.24977e-08 
7.25137 -3.67176 8.07151e-09 
7.54921 -3.65887 -6.22068e-10 
7.8527 -3.66784 5.34419e-09 
8.15048 -3.65739 1.40217e-08 
8.44499 -3.66276 9.29594e-09 
8.73342 -3.64011 9.59945e-09 
9.05363 -3.69941 1.21003e-10 
9.38439 -3.68317 4.61408e-09 
9.69408 -3.63888 7.65134e-09 
10.0289 -3.70875 3.14414e-09 
10.3536 -3.65214 3.06257e-09 
10.7203 -3.72506 8.22977e-09 
11.0542 -3.65069 9.65956e-09 
11.3581 -3.61805 1.57359e-09 
11.7128 -3.72398 7.65691e-10 
12.0013 -3.60325 1.39261e-08 
-12.0007 -3.30904 -7.50122e-09 
-11.637 -3.37165 -1.26666e-08 
-11.2958 -3.28956 -2.08711e-09 
-10.9798 -3.33265 -1.91515e-09 
-10.662 -3.30374 -5.67003e-10 
-10.339 -3.33909 -5.46932e-09 
-10.0131 -3.33081 -7.62211e-09 
-9.69499 -3.33163 -3.63514e-09 
-9.38532 -3.38553 2.96007e-09 
-9.07823 -3.33002 -9.29022e-09 
-8.7763 -3.31384 -2.25516e-09 
-8.47339 -3.3335 -1.12648e-09 
-8.17085 -3.33512 5.58108e-09 
-7.85668 -3.32926 9.02547e-10 
-7.55781 -3.33399 1.07056e-08 
-7.25039 -3.31494 9.84134e-10 
-6.94596 -3.35433 2.6102e-09 
-6.63775 -3.34403 -3.94245e-09 
-6.33081 -3.35253 -8.64114e-10 
-6.02432 -3.34491 3.01318e-11 
-5.71875 -3.34674 1.14675e-09 
-5.41408 -3.34541 1.5322e-08 
-5.11211 -3.31574 -1.70218e-10 
-4.80732 -3.36044 5.49907e-08 
-4.50129 -3.33025 1.41952e-08 
-4.18871 -3.33888 -8.19645e-08 
-3.87133 -3.35196 -5.58887e-08 
-3.54645 -3.33261 -3.08608e-08 
-3.20434 -3.33885 -1.99934e-08 
-2.86352 -3.3211 2.29231e-07 
-2.52052 -3.32465 -6.39896e-07 
-2.21578 -3.35505 1.21369e-06 
-1.93594 -3.3655 -3.57581e-06 
-1.69963 -3.38038 -4.54615e-06 
-1.44419 -3.40552 -1.47537e-05 
-1.24946 -3.46674 -0.000147916 
-1.09828 -3.63128 -0.000320911 
-0.856185 -3.69888 0.000315433 
-0.63595 -3.72323 -0.00237083 
-0.0818512 -3.98659 0.0225091 
0.333703 -3.94513 0.0159807 
0.693634 -3.84137 -0.00133395 
1.09496 -3.53827 1.4275e-06 
1.26255 -3.47039 6.17323e-05 
1.4277 -3.37738 3.13018e-05 
1.65313 -3.40759 2.36694e-06 
1.90163 -3.38928 1.04344e-06 
2.19059 -3.3793 -1.13539e-07 
2.50894 -3.36637 -6.60693e-07 
2.85214 -3.3339 2.16249e-07 
3.19941 -3.34842 -2.65107e-07 
3.52967 -3.31256 1.77749e-07 
3.86883 -3.32463 -6.90275e-08 
4.1847 -3.3285 1.73757e-08 
4.492 -3.32676 -6.35849e-09 
4.79528 -3.35327 -2.59864e-08 
5.09804 -3.35189 -2.13728e-08 
5.40292 -3.34973 -1.54305e-08 
5.70442 -3.3412 -6.44179e-09 
6.01318 -3.32209 8.01764e-09 
6.30969 -3.33494 -5.21507e-09 
6.61442 -3.34303 4.69212e-09 
6.91545 -3.29458 -3.90776e-10 
7.20978 -3.33429 5.93468e-09 
7.50741 -3.32125 1.96086e-09 
7.80819 -3.33592 -5.69903e-09 
8.11332 -3.32105 -3.81832e-09 
8.41418 -3.31638 -1.051e-09 
8.73802 -3.32441 2.51016e-09 
9.06399 -3.38257 2.86428e-09 
9.38367 -3.35019 -2.28504e-09 
9.68733 -3.28932 2.88549e-10 
9.99811 -3.38226 7.33616e-09 
10.3063 -3.30725 4.32971e-09 
10.6353 -3.41094 5.8076e-09 
10.9684 -3.3344 8.1374e-10 
11.298 -3.25891 2.56108e-09 
11.6314 -3.37592 1.2944e-08 
12.0006 -3.29748 8.82514e-09 
-12.001 -2.97673 2.94073e-09 
-11.6666 -3.05366 -8.73761e-09 
-11.3223 -2.97398 -7.28667e-10 
-10.9719 -2.98371 -1.11296e-10 
-10.6368 -2.97401 -2.30933e-09 
-10.3064 -3.00488 -1.67969e-10 
-9.98027 -2.99445 -3.05309e-09 
-9.65779 -2.99473 5.00416e-09 
-9.35985 -3.03354 1.18398e-10 
-9.05333 -2.98232 7.76487e-10 
-8.74383 -2.97579 -2.52539e-09 
-8.43982 -2.9937 7.31463e-09 
-8.12599 -3.00992 -4.16025e-09 
-7.82532 -2.98879 -6.45855e-10 
-7.52115 -2.99919 -1.42939e-08 
-7.2184 -2.98605 1.50533e-08 
-6.91471 -3.0263 -3.56484e-09 
-6.60773 -3.0161 1.82785e-09 
-6.30496 -3.0232 9.2693e-10 
-6.0018 -3.01579 -5.52744e-11 
-5.70199 -3.01621 1.92962e-09 
-5.4023 -3.01263 1.73147e-08 
-5.10545 -2.98077 2.23926e-09 
-4.80481 -3.03196 6.02754e-09 
-4.50389 -2.99536 -9.6728e-10 
-4.19811 -3.01114 4.54038e-09 
-3.88878 -3.02802 1.45975e-07 
-3.55742 -3.0113 -3.49289e-08 
-3.21757 -3.01225 9.96219e-08 
-2.86442 -2.99995 -1.55803e-07 
-2.53226 -2.9929 -5.03366e-08 
-2.19622 -3.00405 9.58885e-08 
-1.87371 -3.06529 1.6645e-07 
-1.5658 -3.03572 -7.0009e-06 
-1.39596 -3.16199 -1.5817e-05 
-1.13602 -3.20329 6.51472e-05 
-1.03629 -3.39914 -0.00144516 
-0.916193 -3.53541 0.0017218 
-0.28604 -3.92086 0.00835408 
0.162083 -3.98389 -0.0282899 
0.449298 -3.96822 -0.0196065 
0.971397 -3.71611 0.00225161 
1.01545 -3.2771 -0.000214926 
1.17127 -3.17187 1.26799e-05 
1.37684 -3.07886 -4.53344e-06 
1.62409 -3.10021 4.74484e-06 
1.90669 -3.07568 7.96705e-07 
2.22175 -3.06219 1.04587e-07 
2.52986 -3.01375 -9.79477e-08 
2.84758 -3.01439 -1.09446e-08 
3.17249 -3.01634 -3.70604e-08 
3.5037 -2.98335 -1.26269e-07 
3.83301 -3.00217 -4.38626e-09 
4.16126 -2.9942 1.53094e-08 
4.47318 -2.99229 -6.85922e-09 
4.77834 -3.02092 -1.90831e-09 
5.07893 -3.0228 -1.4353e-10 
5.37944 -3.02465 -4.11617e-09 
5.68348 -3.00971 -7.36017e-09 
5.98281 -3.00326 1.87383e-09 
6.29931 -2.99277 6.76636e-09 
6.59318 -3.01198 -4.09319e-09 
6.9115 -2.97868 1.93403e-09 
7.2297 -2.99543 -8.91003e-09 
7.52966 -2.98535 8.8008e-09 
7.83543 -3.00557 5.78729e-09 
8.13448 -2.98335 -4.00866e-09 
8.44921 -2.9991 4.82829e-10 
8.75999 -2.99173 3.90311e-11 
9.0627 -3.06154 1.15928e-09 
9.3616 -3.00717 -1.97116e-09 
9.66642 -2.94665 -8.07011e-10 
9.98761 -3.03468 -1.24852e-10 
10.3241 -2.98111 5.49176e-10 
10.6543 -3.0807 9.2881e-10 
10.9875 -2.99537 -1.96384e-09 
11.3397 -2.93904 6.3509e-10 
11.6713 -3.05896 6.25764e-09 
12.0011 -2.95856 -9.41629e-10 
-12.0008 -2.66038 -1.89194e-09 
-11.6521 -2.72397 3.23035e-09 
-11.3057 -2.65517 2.44336e-09 
-10.9707 -2.65329 -1.3051e-09 
-10.6347 -2.64579 -2.90161e-09 
[...]
POINT_DATA 1978 
VECTORS vectors float
-6.45815e-06 -0.000469181 1.00047 
-8.57798e-05 -0.0004263 1.0007 
-0.00012405 -0.000374163 1.0007 
-0.000159477 -0.000295143 1.00069 
-0.000183484 -0.000215493 1.00069 
-0.000211776 -0.000121556 1.00068 
-0.000230807 -1.53703e-05 1.00068 
-0.000231358 8.21623e-05 1.00068 
-0.000240125 0.000164218 1.00066 
-0.000270128 0.000238532 1.00065 
-0.000302548 0.000342099 1.00065 
-0.000314762 0.000455742 1.00064 
-0.000317054 0.000556592 1.00064 
-0.000296715 0.000638388 1.00064 
-0.000245188 0.00072801 1.00063 
-0.000156554 0.000777827 1.00043 
-6.52407e-05 0.000799576 1.00063 
-2.37462e-05 0.000793148 1.00063 
-7.54187e-05 0.00080749 1.00063 
-0.000255137 0.000887182 1.00062 
-0.000494754 0.00109223 1.00062 
-0.000740706 0.00136612 1.00062 
-0.00110153 0.0016733 1.00062 
-0.00158754 0.00237701 1.00061 
-0.00189794 0.00385708 1.00061 
-0.00184033 0.00539044 1.00062 
-0.00162834 0.00681221 1.00062 
-0.00159657 0.00819302 1.00064 
-0.00235656 0.0105277 1.00065 
-0.00488304 0.0146164 1.00061 
-0.00954668 0.020534 1.00045 
-0.0154781 0.0302806 1.00005 
-0.0289792 0.0497001 0.99885 
-0.0487642 0.0873144 0.995417 
-0.0636133 0.126684 0.990219 
-0.0892173 0.185976 0.978684 
-0.120176 0.283053 0.951691 
-0.143854 0.431824 0.890628 
-0.107074 0.70289 0.70345 
-0.026831 0.899229 0.452927 
0.0789022 0.786983 -0.620546 
0.137597 0.452868 -0.881287 
0.131818 0.327822 -0.935564 
0.114135 0.23323 -0.965881 
0.086641 0.151138 -0.985 
0.0506648 0.0875665 -0.995311 
0.0242987 0.0501973 -0.999022 
0.00858948 0.0313445 -1.00014 
0.0056457 0.021557 -1.00046 
0.00436482 0.0149476 -1.00036 
0.00278841 0.0109496 -1.00085 
0.00211073 0.00882457 -1.00042 
0.00199758 0.00687341 -1.00065 
0.00187647 0.00514127 -1.00064 
0.00178899 0.00361703 -1.00063 
0.00150006 0.00233832 -1.00062 
0.00101774 0.00170476 -1.00061 
0.00073126 0.0014511 -1.00061 
0.000526982 0.00115885 -1.00062 
0.000301016 0.000907206 -1.00062 
0.000122225 0.000792264 -1.00062 
5.35483e-05 0.000757253 -1.00063 
8.62291e-05 0.000733591 -1.00063 
0.00015134 0.000706467 -1.00063 
0.000220027 0.000669653 -1.00063 
0.000267515 0.000635636 -1.00063 
0.00028723 0.000586864 -1.00063 
0.000297453 0.00053425 -1.00063 
0.000310889 0.000454166 -1.00063 
0.00031842 0.00034849 -1.00064 
0.000294543 0.000199692 -1.00065 
0.00026692 8.13049e-05 -1.00067 
0.000244655 -2.59619e-05 -1.00067 
0.000212419 -0.000143901 -1.00068 
0.00018386 -0.000220779 -1.00069 
0.000145644 -0.000311607 -1.0007 
0.00011032 -0.000368135 -1.0007 
8.22988e-05 -0.000412966 -1.0007 
9.67515e-06 -0.000462743 -1.00048 
-2.08005e-05 -0.000360536 1.00069 
-7.56864e-05 -0.000371629 1.00115 
-0.000142523 -0.000302584 1.00138 
-0.000185782 -0.000254776 1.00137 
-0.000230728 -0.00018072 1.00136 
-0.000262819 -0.000107569 1.00135 
-0.000292841 -1.6445e-05 1.00134 
-0.000315537 7.39069e-05 1.00154 
-0.000334755 0.000160447 1.00111 
-0.000376668 0.000245853 1.0013 
-0.0004129 0.000335494 1.00149 
-0.00043242 0.00042453 1.00127 
-0.0004399 0.000493491 1.00126 
-0.000413636 0.000543083 1.00126 
-0.000360908 0.000575556 1.00126 
-0.000280354 0.000602862 1.00145 
-0.000180065 0.000665765 1.00125 
-0.000148667 0.000751385 1.00124 
-0.000197619 0.000894302 1.00124 
-0.000354182 0.00111511 1.00124 
-0.000592624 0.00141109 1.00123 
-0.000892957 0.00176069 1.00123 
-0.00119276 0.00220727 1.00123 
-0.00144865 0.00294927 1.00103 
-0.00143707 0.00399808 1.00144 
-0.00130927 0.0053336 1.00126 
-0.0010832 0.00685931 1.00128 
-0.000994317 0.00906829 1.00133 
-0.0018876 0.0130267 1.00134 
-0.0041916 0.019131 1.00124 
-0.00716593 0.0294476 1.00089 
-0.0125721 0.050737 0.99978 
-0.0207154 0.0866264 0.996968 
-0.0225199 0.127912 0.9923 
-0.0323544 0.175556 0.984499 
-0.0533865 0.238184 0.970151 
-0.0673234 0.349277 0.93466 
-0.0534083 0.548274 0.833988 
0.00654629 0.727958 0.681897 
0.0251079 0.937838 0.329361 
0.0354332 0.85181 -0.51476 
0.066065 0.490396 -0.869273 
0.0461635 0.289983 -0.956495 
0.03965 0.21041 -0.977216 
0.0257443 0.145269 -0.989653 
0.0251412 0.101914 -0.995446 
0.0100229 0.0653152 -0.998876 
0.00299825 0.040888 -1.0004 
0.00212155 0.0243683 -1.00106 
0.00196595 0.0162667 -1.00146 
0.00156032 0.0117177 -1.00107 
0.00120112 0.00857788 -1.00152 
0.00129981 0.00650814 -1.00129 
0.00140009 0.00488306 -1.00126 
0.00143925 0.00361061 -1.00124 
0.00134772 0.00259927 -1.00122 
0.00110363 0.00203251 -1.00122 
0.000818723 0.00167966 -1.00122 
0.000556165 0.00137393 -1.00123 
0.0003501 0.00109123 -1.00124 
0.000208763 0.000857977 -1.00124 
0.000169361 0.000703182 -1.00124 
0.000217473 0.000602588 -1.00124 
0.000282682 0.000566366 -1.00124 
0.000360872 0.000546004 -1.00124 
0.00041108 0.000546939 -1.00124 
0.000432511 0.000525206 -1.00124 
0.000436472 0.000482098 -1.00105 
0.000433505 0.00040398 -1.00146 
0.000400196 0.00030352 -1.00107 
0.000374984 0.000181503 -1.00129 
0.000354253 8.20553e-05 -1.00152 
0.000297593 -3.1866e-05 -1.00111 
0.0002728 -0.000111058 -1.00156 
0.000211424 -0.000206398 -1.00136 
0.000178005 -0.000256485 -1.00138 
0.000139008 -0.000295788 -1.00139 
7.21929e-05 -0.000363721 -1.00115 
1.97624e-05 -0.00035321 -1.0007 
-4.24235e-05 -0.000286947 1.0007 
-0.000111246 -0.000274211 1.00138 
-0.000175672 -0.000216701 1.00158 
-0.000225535 -0.000177928 1.00115 
-0.000273613 -0.000112024 1.00157 
-0.00031249 -5.03978e-05 1.00113 
-0.000346871 2.6933e-05 1.00134 
-0.000380433 0.000104873 1.00112 
-0.000402493 0.000178636 1.00152 
-0.000440452 0.000258176 1.0013 
-0.000471325 0.000335849 1.00128 
-0.000495456 0.000406123 1.00107 
-0.000501106 0.000446686 1.00127 
-0.000478786 0.000454893 1.00126 
-0.000429731 0.000449317 1.00145 
-0.000355436 0.000440889 1.00106 
-0.000270143 0.000506994 1.00125 
-0.000221525 0.00063866 1.00125 
-0.000229636 0.000868387 1.00124 
-0.000322936 0.00119645 1.00124 
-0.000495564 0.00158352 1.00124 
-0.000736718 0.00196751 1.00124 
-0.000977458 0.00239867 1.00144 
-0.00117298 0.0029312 1.00124 
-0.00110622 0.00372278 1.00125 
-0.000888772 0.00470176 1.00125 
-0.000614503 0.00597247 1.00107 
-0.000319681 0.00786955 1.00152 
-0.000335185 0.0118232 1.0011 
-0.000843653 0.0181208 1.00123 
-0.00156559 0.0278009 1.0012 
-0.00275678 0.0429468 1.00012 
-0.00356749 0.0662385 0.999065 
-0.00124748 0.098934 0.995972 
0.00395861 0.148558 0.989594 
0.0122211 0.202325 0.979762 
-0.012344 0.279161 0.96044 
-0.000913353 0.431389 0.901975 
0.0409881 0.590329 0.806368 
-0.0100578 0.989679 0.104345 
0.00696555 0.898472 -0.430411 
0.023134 0.599156 -0.799113 
-0.0228276 0.257586 -0.966367 
-0.0152395 0.189427 -0.982305 
-0.00907703 0.135654 -0.991432 
-0.000366938 0.0985394 -0.995869 
-0.00318302 0.0666648 -0.998792 
-0.00321611 0.0430671 -1.00025 
-0.00178078 0.0264978 -1.00118 
-0.000386956 0.0172625 -1.001 
0.000398499 0.0120227 -1.0015 
0.000401007 0.00859948 -1.00131 
0.000654032 0.00627431 -1.00131 
0.000907357 0.00478025 -1.00128 
0.00108861 0.00371819 -1.00125 
0.00117715 0.00293885 -1.00123 
0.00105735 0.0024021 -1.00122 
0.000804614 0.00201301 -1.00123 
0.00055231 0.00165004 -1.00123 
0.000368206 0.00126827 -1.00124 
0.000270791 0.000919159 -1.00124 
0.000242807 0.000652762 -1.00105 
0.000282431 0.000475099 -1.00144 
0.000346953 0.00042997 -1.00105 
0.000420863 0.000430589 -1.00124 
0.000473531 0.000464021 -1.00125 
0.000500714 0.000476335 -1.00125 
0.000498361 0.000450015 -1.00146 
0.000488078 0.000391175 -1.00128 
0.000461289 0.000299734 -1.00128 
0.000429294 0.000200281 -1.0013 
0.00039619 0.000114098 -1.00132 
0.000351413 1.62266e-05 -1.00133 
0.00032302 -5.145e-05 -1.00135 
0.000270149 -0.000134812 -1.00114 
0.000222168 -0.000179659 -1.00137 
0.000169675 -0.000209159 -1.00159 
0.00010615 -0.000270238 -1.00139 
3.73319e-05 -0.000277012 -1.00071 
-4.19854e-05 -0.000207182 1.00069 
-0.000114727 -0.000203934 1.00138 
-0.000183166 -0.000155365 1.00115 
-0.000240807 -0.00011414 1.00159 
-0.000289389 -6.11727e-05 1.00136 
-0.000332102 -6.71517e-06 1.00135 
-0.000364956 5.94149e-05 1.00134 
-0.000395171 0.000127686 1.00153 
-0.000429522 0.00020087 1.0011 
-0.000452532 0.000275769 1.00129 
-0.000473454 0.000337492 1.00108 
-0.00048451 0.000386033 1.00147 
-0.000482005 0.000404048 1.00126 
-0.000450401 0.000370403 1.00125 
-0.000403292 0.000329225 1.00105 
-0.000330597 0.000303024 1.00144 
-0.000269874 0.000386384 1.00125 
-0.000227788 0.000554564 1.00124 
-0.000231764 0.00086012 1.00124 
-0.00028262 0.00128886 1.00123 
-0.000389403 0.00175727 1.00123 
-0.00054741 0.00220018 1.00123 
-0.000696758 0.0026306 1.00103 
-0.000845382 0.00303128 1.00143 
-0.000704725 0.00358054 1.00104 
-0.000434739 0.00425444 1.00125 
-0.000123132 0.00522536 1.00147 
0.000192423 0.006911 1.00109 
0.000701284 0.0102859 1.00153 
0.00154355 0.0168609 1.00123 
0.00190763 0.0252387 1.00105 
0.0042893 0.03777 1.00057 
0.00895211 0.0598417 0.99919 
0.0228718 0.0916403 0.996736 
0.0326709 0.12862 0.99195 
0.0622014 0.184001 0.981587 
0.0508618 0.238031 0.972095 
0.0405627 0.358652 0.931495 
0.0374868 0.915578 0.394998 
0.0542258 0.96891 -0.224788 
0.0784332 0.827562 -0.553935 
0.00848535 0.364417 -0.930442 
-0.0785339 0.20735 -0.975455 
-0.0588798 0.148945 -0.987741 
-0.0368356 0.1074 -0.994366 
-0.0212803 0.0809974 -0.997475 
-0.0153935 0.0559034 -0.999471 
-0.00850456 0.0345293 -1.00064 
-0.00426434 0.0216748 -1.00111 
-0.00200793 0.0159584 -1.00123 
-0.000822678 0.0115957 -1.00107 
-0.000287744 0.00794278 -1.00131 
8.68704e-05 0.00584355 -1.00131 
0.000407239 0.00447565 -1.00129 
0.000697329 0.00362848 -1.00126 
0.000869257 0.00304482 -1.00124 
0.000807467 0.00260585 -1.00123 
0.000624149 0.00222433 -1.00123 
0.000434238 0.00181125 -1.00123 
0.000310344 0.00135015 -1.00124 
0.000245856 0.000897018 -1.00125 
0.000239878 0.000579286 -1.00144 
0.000269531 0.00035594 -1.00105 
0.000332978 0.000289263 -1.00144 
0.000394111 0.000312062 -1.00125 
0.000449774 0.000378424 -1.00125 
0.000477799 0.000411395 -1.00145 
0.000494811 0.000414466 -1.00106 
0.000480152 0.000367007 -1.00126 
0.000469007 0.000296897 -1.00128 
0.000438542 0.000215264 -1.00129 
0.00040224 0.000133186 -1.00131 
0.00037344 4.95348e-05 -1.00133 
0.000326594 -1.58865e-05 -1.00134 
0.000283761 -8.57924e-05 -1.00136 
0.000233641 -0.000121297 -1.00136 
0.000175768 -0.000148625 -1.00137 
0.000110434 -0.000199002 -1.00137 
3.74719e-05 -0.000190482 -1.00069 
-3.49324e-05 -0.000124195 1.00069 
-0.000116407 -0.000126004 1.00159 
-0.000180602 -9.20383e-05 1.00137 
-0.000229591 -6.03999e-05 1.00137 
-0.000269955 -2.04862e-05 1.00114 
-0.000303249 2.61907e-05 1.00156 
-0.000331818 8.0503e-05 1.00133 
-0.000356421 0.000144009 1.00111 
-0.000375725 0.000212898 1.00151 
-0.000387914 0.000281578 1.00128 
-0.000396913 0.000334795 1.00127 
-0.000396963 0.000356668 1.00126 
-0.000375183 0.000337978 1.00125 
-0.000332281 0.000270734 1.00124 
-0.000279201 0.000212201 1.00124 
-0.000227993 0.000205403 1.00124 
-0.000190232 0.000308126 1.00124 
-0.000159965 0.000529484 1.00124 
-0.000152885 0.000887682 1.00124 
-0.000169865 0.00136561 1.00123 
-0.000229208 0.00189513 1.00123 
-0.000302929 0.00237805 1.00123 
-0.000380804 0.00279895 1.00122 
-0.000419646 0.00313734 1.00124 
-0.000248357 0.00353677 1.00124 
6.37773e-05 0.00402734 1.00125 
0.000372322 0.00487616 1.00126 
0.000688204 0.00638777 1.0013 
0.00148209 0.009552 1.0013 
0.00317933 0.014731 1.00124 
0.00537738 0.0214401 1.00089 
0.00852438 0.0291167 1.00107 
0.0170248 0.0442284 1.00012 
0.0323249 0.0649565 0.998331 
0.0592933 0.0904373 0.99508 
0.0783476 0.133445 0.988667 
0.117115 0.235844 0.964913 
0.0897269 0.335516 0.93674 
0.0868441 0.668056 0.738481 
0.0357906 0.983089 0.149482 
-0.0338064 0.625717 -0.77552 
-0.0936801 0.30545 -0.948204 
-0.116573 0.119297 -0.986742 
-0.0784176 0.0910736 -0.993531 
-0.0526407 0.0697505 -0.997107 
-0.0336398 0.0574541 -0.998884 
-0.0189734 0.0379641 -1.00036 
-0.0101287 0.0240154 -1.00122 
-0.00551021 0.0179538 -1.00097 
-0.00269346 0.0135933 -1.00148 
-0.00113935 0.00942078 -1.00129 
-0.00071645 0.00647607 -1.0013 
-0.000338555 0.00489224 -1.00129 
6.55922e-05 0.00393548 -1.00126 
0.000379029 0.00336013 -1.00124 
0.000504775 0.00296434 -1.00123 
0.000447203 0.00262344 -1.00123 
0.000334365 0.00223932 -1.00123 
0.000232385 0.00176315 -1.00123 
0.00017749 0.0012183 -1.00123 
0.000149347 0.000752012 -1.00124 
0.000169936 0.000430963 -1.00124 
0.000199639 0.000219314 -1.00124 
0.000243328 0.000168618 -1.00124 
0.000301073 0.000220792 -1.00124 
0.000349195 0.000297696 -1.00124 
0.000374607 0.000352722 -1.00105 
0.000403521 0.000371062 -1.00125 
0.000395232 0.00034018 -1.00127 
0.00040417 0.000288447 -1.00128 
0.000378683 0.000212589 -1.0013 
0.000348825 0.000134422 -1.00131 
0.000336715 6.48332e-05 -1.00132 
0.000298576 1.1651e-05 -1.00133 
0.000271837 -4.40535e-05 -1.00135 
0.000223977 -7.30229e-05 -1.00136 
0.000170403 -8.77643e-05 -1.00136 
0.000109388 -0.000125168 -1.00136 
4.00706e-05 -0.000107493 -1.00069 
-6.09323e-05 -1.09413e-05 1.00068 
-0.000105363 -5.37727e-05 1.00113 
-0.000155811 -4.50193e-05 1.00136 
-0.000198246 -2.53076e-05 1.00136 
-0.000231484 -2.78214e-06 1.00135 
-0.000260369 2.85027e-05 1.00134 
-0.000283667 6.92544e-05 1.00132 
-0.000303601 0.000121526 1.00131 
-0.000317195 0.000180418 1.0013 
-0.000321184 0.000242187 1.00128 
-0.000316958 0.000295333 1.00127 
-0.000312799 0.000320181 1.00125 
-0.000286822 0.00029723 1.00125 
-0.000245373 0.00023472 1.00124 
-0.000189751 0.000156732 1.00124 
-0.000149392 0.000126296 1.00124 
-0.000120419 0.000185459 1.00124 
-0.000101496 0.000358252 1.00124 
-8.07324e-05 0.000667394 1.00124 
-7.03809e-05 0.00109497 1.00123 
-8.31687e-05 0.00163386 1.00123 
-0.000107913 0.00216332 1.00122 
-0.000131748 0.00265052 1.00122 
-8.51551e-05 0.00299233 1.00122 
-2.12914e-05 0.00325043 1.00123 
0.000206606 0.00354091 1.00124 
0.000475737 0.00404253 1.00125 
0.000703652 0.00494001 1.00127 
0.00108661 0.00673526 1.00129 
0.00239026 0.00952689 1.00129 
0.00481339 0.0135478 1.00126 
0.00870648 0.019631 1.00113 
0.015822 0.0270076 1.00086 
0.0298535 0.0349234 1.00023 
0.0555273 0.0469036 0.9987 
0.0954237 0.0695114 0.993918 
0.121869 0.126475 0.985328 
0.162335 0.347706 0.923438 
0.122148 0.64381 0.750925 
0.0722874 1.00028 -0.0770488 
-0.0825602 0.534548 -0.838524 
-0.139836 0.2199 -0.965255 
-0.118481 0.0580745 -0.99182 
-0.0786701 0.0454457 -0.996755 
-0.0489444 0.034535 -0.999259 
-0.0301753 0.0300389 -1.00033 
-0.0169611 0.0216001 -1.00096 
-0.00987812 0.0170915 -1.00096 
-0.00621857 0.0154942 -1.00122 
-0.00298266 0.0120357 -1.00125 
-0.00132109 0.00825231 -1.00127 
-0.000949355 0.00583506 -1.00129 
-0.000592081 0.00449776 -1.00128 
-0.000188877 0.00370155 -1.00126 
8.18059e-05 0.00324729 -1.00124 
0.000178583 0.00295702 -1.00123 
0.000183645 0.00267402 -1.00122 
0.00015485 0.00228375 -1.00122 
0.00010701 0.00178767 -1.00122 
9.21957e-05 0.00125642 -1.00122 
8.08101e-05 0.000774525 -1.00123 
9.47985e-05 0.000408515 -1.00123 
0.00011179 0.000191119 -1.00123 
0.000131567 0.000100058 -1.00123 
0.000187225 0.000132929 -1.00123 
0.0002305 0.000211939 -1.00124 
0.000264316 0.000285116 -1.00124 
0.000299618 0.000322167 -1.00145 
0.000313101 0.000312899 -1.00127 
0.000331789 0.000268883 -1.00128 
0.000315317 0.000199377 -1.00129 
0.000293492 0.00013196 -1.00131 
0.000288771 7.31297e-05 -1.00133 
0.000258941 2.74554e-05 -1.00134 
0.000240855 -1.38842e-05 -1.00135 
0.000200531 -3.01779e-05 -1.00135 
0.000159395 -3.27285e-05 -1.00135 
0.000114023 -5.53548e-05 -1.00136 
5.85708e-05 -2.59321e-05 -1.00069 
-9.47515e-05 4.11902e-05 1.00068 
-0.000125719 8.52678e-06 1.00156 
-0.000158275 4.51094e-06 1.00136 
-0.00018383 1.52042e-05 1.00135 
-0.000209562 3.08496e-05 1.00134 
-0.000227191 5.4567e-05 1.00132 
-0.000244567 9.09904e-05 1.00131 
-0.000253127 0.000139472 1.0013 
-0.000249927 0.000192092 1.00128 
-0.000237584 0.000243931 1.00126 
-0.000214319 0.000280514 1.00125 
-0.000181835 0.000279502 1.00124 
-0.00014341 0.000231249 1.00123 
-9.02185e-05 0.00015607 1.00123 
-3.27033e-05 9.23303e-05 1.00123 
-6.98987e-06 9.91655e-05 1.00123 
1.2369e-05 0.000209152 1.00123 
5.29857e-06 0.000434014 1.00123 
1.43372e-05 0.000770247 1.00123 
1.74639e-05 0.00121313 1.00122 
1.60732e-05 0.00171179 1.00121 
-1.11908e-06 0.00226503 1.00121 
2.14335e-05 0.00272892 1.00121 
0.0001243 0.00306314 1.00121 
0.000238044 0.00325444 1.00122 
0.000404687 0.00348677 1.00124 
0.000541676 0.0039093 1.00125 
0.000680215 0.00476261 1.00125 
0.000841601 0.00598912 1.00127 
0.00167005 0.00764929 1.00128 
0.00427633 0.00981378 1.00128 
0.00852726 0.0129674 1.00123 
0.0147277 0.0164417 1.00111 
0.0245078 0.0153425 1.00091 
0.0414497 0.0131583 1.00009 
0.0743295 0.0176074 0.998133 
0.128734 0.0523014 0.990852 
0.166547 0.147224 0.97526 
0.046153 0.4702 0.880876 
0.0365268 0.999988 -0.0359857 
0.0308833 0.438143 -0.898984 
-0.173433 0.0983923 -0.980351 
-0.10547 0.00484794 -0.995165 
-0.063947 0.010288 -0.998933 
-0.035714 0.0107361 -1.00052 
-0.0220424 0.012884 -1.00103 
-0.0127135 0.0129682 -1.00124 
-0.00788055 0.0130007 -1.00128 
-0.00433288 0.011819 -1.00147 
-0.00168145 0.00904875 -1.00125 
-0.000952333 0.00653065 -1.00127 
-0.000747415 0.00494983 -1.00126 
-0.000478965 0.00396337 -1.00125 
-0.000215344 0.00340447 -1.00124 
-9.30945e-05 0.00311269 -1.00123 
-1.94321e-05 0.00290594 -1.00122 
2.53636e-05 0.00259997 -1.00122 
2.09832e-05 0.0021461 -1.00122 
-2.08355e-06 0.00159911 -1.00122 
-7.32851e-06 0.00111636 -1.00122 
-8.02326e-06 0.000653828 -1.00122 
-1.29924e-05 0.00033236 -1.00123 
-1.52267e-06 0.000130968 -1.00123 
-5.35883e-06 5.82273e-05 -1.00123 
5.45651e-05 9.25822e-05 -1.00123 
8.33125e-05 0.000165527 -1.00123 
0.000133857 0.000242561 -1.00124 
0.000186104 0.000286321 -1.00105 
0.000204286 0.000275874 -1.00126 
0.000249287 0.000249222 -1.00128 
0.000245299 0.000188675 -1.00129 
0.0002359 0.000125765 -1.0013 
0.000246384 7.47885e-05 -1.00132 
0.000220437 4.03625e-05 -1.00132 
0.000212259 1.0997e-05 -1.00134 
0.000177235 6.07595e-06 -1.00134 
0.000144368 6.55271e-06 -1.00134 
0.00011772 -7.32278e-07 -1.00135 
9.02962e-05 3.18173e-05 -1.00068 
-0.000110183 4.95375e-05 1.00066 
-0.000113556 3.67574e-05 1.00111 
-0.00012272 3.15644e-05 1.00134 
-0.000131875 3.32227e-05 1.00133 
-0.000141289 4.00196e-05 1.00133 
-0.00014727 5.55791e-05 1.00131 
-0.000155824 8.22585e-05 1.0013 
-0.000155253 0.00012142 1.00129 
-0.000138734 0.000168423 1.00128 
-0.00011803 0.000214842 1.00126 
-9.66578e-05 0.000250756 1.00124 
-3.84035e-05 0.000244154 1.00123 
4.61424e-06 0.000203803 1.00122 
6.45699e-05 0.000128926 1.00122 
0.000120132 6.85864e-05 1.00121 
0.000162839 6.5345e-05 1.00122 
0.000184138 0.000162694 1.00122 
0.000161918 0.000374614 1.00122 
0.000141519 0.000683105 1.00122 
0.000124236 0.00107743 1.00121 
0.000114401 0.00151517 1.00121 
8.01351e-05 0.00201549 1.0012 
6.05129e-05 0.0025231 1.0012 
0.00010637 0.00294139 1.0012 
0.000231872 0.00321029 1.00122 
0.000376295 0.00339898 1.00122 
0.000461376 0.00373024 1.00144 
0.000467152 0.00431078 1.00104 
0.000351928 0.00512832 1.00125 
0.000497391 0.00605853 1.00128 
0.00177107 0.0068219 1.00131 
0.00439846 0.00711577 1.00157 
0.00891833 0.00821783 1.0011 
0.015197 0.00437804 1.0013 
0.0235549 -0.00600631 1.00133 
0.0491567 -0.019501 0.999815 
0.106764 -0.0114105 0.994663 
0.229026 0.177547 0.958396 
0.17941 0.517636 0.842323 
0.0694584 0.995147 -0.086218 
-0.147836 0.405536 -0.907762 
-0.203284 0.0463679 -0.979429 
-0.0752684 -0.0301037 -0.99735 
-0.041542 -0.0137812 -1.00024 
-0.0212599 -0.00406368 -1.00115 
-0.0134173 0.00483699 -1.00137 
-0.00842571 0.00840494 -1.00163 
-0.0049862 0.00950374 -1.00133 
-0.00209633 0.00883347 -1.00108 
-0.000937763 0.00769583 -1.00126 
-0.000605382 0.0060516 -1.00105 
-0.000500178 0.00478561 -1.00145 
-0.000358152 0.00392474 -1.00123 
-0.000239611 0.00343063 -1.00122 
-0.000152716 0.00316886 -1.00103 
-7.43406e-05 0.00291085 -1.0014 
-3.79155e-05 0.00255913 -1.00102 
-5.26398e-05 0.00209776 -1.00121 
-8.92064e-05 0.00163579 -1.00121 
-0.000111854 0.00117035 -1.00121 