# vtk DataFile Version 3.0 
Exported using Morpho https://github.com/Morpho-lang/morpho 
ASCII 
DATASET UNSTRUCTURED_GRID 

POINTS 1978 float 
-12 -4 5.92348e-14 
-11.5938 -4 1.97079e-13 
-11.2894 -4 1.24599e-13 
-10.9499 -4 2.17983e-13 
-10.6363 -4 5.26608e-14 
-10.3057 -4 1.11891e-13 
-9.98401 -4 1.68305e-13 
-9.65485 -4 -3.90021e-14 
-9.30294 -4 9.05592e-14 
-8.98752 -4 1.45539e-13 
-8.6875 -4 -5.97388e-14 
-8.37369 -4 2.65655e-13 
-8.07615 -4 -2.55617e-14 
-7.7715 -4 1.98601e-13 
-7.47682 -4 7.53271e-14 
-7.18883 -4 1.12855e-15 
-6.88811 -4 1.65811e-13 
-6.58836 -4 4.46342e-14 
-6.28521 -4 -5.02031e-14 
-5.97929 -4 -2.12926e-13 
-5.68023 -4 -2.92906e-13 
-5.38072 -4 -5.75434e-13 
-5.08487 -4 -8.2001e-13 
-4.80297 -4 -4.28117e-13 
-4.49376 -4 -6.86098e-13 
-4.20733 -4 4.58966e-13 
-3.90646 -4 3.19225e-14 
-3.589 -4 -1.44384e-12 
-3.26854 -4 -5.04317e-12 
-2.92438 -4 -8.55951e-12 
-2.5961 -4 -1.22598e-11 
-2.27088 -4 -6.53055e-11 
-1.97549 -4 -2.05105e-10 
-1.71145 -4 -4.21011e-10 
-1.50013 -4 -1.19891e-09 
-1.3209 -4 -4.60248e-09 
-1.11721 -4 -3.08448e-08 
-0.883366 -4 -1.48786e-07 
-0.640262 -3.99996 -3.02493e-07 
-0.432258 -4.00004 1.7023e-07 
0.559271 -4.00001 3.33452e-07 
0.842933 -4 2.00766e-07 
1.07746 -4 3.09199e-08 
1.26319 -4 5.69816e-09 
1.43824 -4 1.54148e-09 
1.64394 -4 9.2852e-10 
1.93892 -4 2.28458e-10 
2.28388 -4 5.47631e-11 
2.63565 -4 1.05589e-11 
2.96887 -4 8.1628e-12 
3.29853 -4 5.16212e-12 
3.59685 -4 1.46056e-12 
3.90443 -4 3.63337e-13 
4.20872 -4 -5.99649e-14 
4.51324 -4 3.53481e-13 
4.80763 -4 9.00785e-13 
5.11134 -4 5.77247e-13 
5.41014 -4 4.14684e-13 
5.71103 -4 3.358e-13 
6.00565 -4 2.57509e-13 
6.29738 -4 8.71072e-14 
6.59326 -4 -5.51359e-14 
6.89709 -4 -1.43802e-13 
7.17335 -4 -7.37707e-14 
7.47675 -4 -2.09385e-15 
7.76922 -4 -2.39315e-13 
8.07031 -4 1.0336e-13 
8.36262 -4 -1.62487e-13 
8.65585 -4 -4.93937e-14 
8.94287 -4 -1.61222e-13 
9.27963 -4 9.10962e-14 
9.60739 -4 -7.90232e-14 
9.90131 -4 -2.34854e-13 
10.2681 -4 1.3407e-14 
10.5805 -4 -2.67421e-13 
10.9797 -4 -9.20199e-14 
11.298 -4 -1.83849e-13 
11.5912 -4 -1.93689e-13 
12 -4 -6.06234e-14 
-12 -3.61492 -1.14587e-13 
-11.7079 -3.71918 2.1794e-16 
-11.3579 -3.63179 9.00305e-17 
-11.0424 -3.67274 5.06751e-16 
-10.71 -3.64968 4.83265e-17 
-10.3924 -3.67046 5.59723e-17 
-10.0611 -3.66388 1.59124e-16 
-9.73547 -3.67491 -1.93147e-16 
-9.39561 -3.69612 2.44691e-16 
-9.05352 -3.6677 -8.19096e-18 
-8.7424 -3.65554 7.58537e-17 
-8.43604 -3.67432 4.85445e-17 
-8.12037 -3.65909 2.11371e-17 
-7.81619 -3.66954 -3.02247e-16 
-7.5053 -3.66143 -8.40982e-17 
-7.20311 -3.65882 -2.99941e-17 
-6.89498 -3.67274 1.34042e-16 
-6.58395 -3.67098 -7.27351e-17 
-6.26888 -3.67631 6.64315e-17 
-5.95985 -3.671 1.08677e-15 
-5.65111 -3.67308 2.24398e-15 
-5.34458 -3.66981 4.62894e-15 
-5.05199 -3.65374 1.09704e-14 
-4.73759 -3.68423 2.13375e-14 
-4.43732 -3.65718 3.54595e-14 
-4.12739 -3.66793 5.51331e-14 
-3.80225 -3.67426 1.02938e-13 
-3.47147 -3.66095 3.19858e-13 
-3.12209 -3.67097 1.21285e-12 
-2.77375 -3.6545 5.41033e-12 
-2.44275 -3.67436 3.01344e-11 
-2.12933 -3.68543 1.59897e-10 
-1.84328 -3.69063 6.55606e-10 
-1.60554 -3.68398 2.05269e-09 
-1.4059 -3.69769 8.31039e-09 
-1.21591 -3.79788 1.39045e-08 
-1.01415 -3.85319 5.56971e-08 
-0.769769 -3.8872 1.20051e-07 
-0.573718 -3.87008 2.43967e-08 
-0.251926 -4.03683 4.3367e-07 
0.388961 -4.05346 -8.69787e-07 
0.949043 -3.86979 -1.10207e-07 
1.12027 -3.79429 -3.17848e-08 
1.27786 -3.73745 -1.03995e-08 
1.45721 -3.6987 -3.61625e-09 
1.69511 -3.7239 -1.4215e-09 
1.95486 -3.68463 -2.28786e-10 
2.24541 -3.70103 -6.41825e-11 
2.58247 -3.68323 -1.17578e-11 
2.92579 -3.66479 -2.15573e-12 
3.26626 -3.66753 -5.85148e-13 
3.59826 -3.64476 -2.15241e-13 
3.91103 -3.65809 -9.79217e-14 
4.22568 -3.66388 -5.97131e-14 
4.5313 -3.66171 -3.19766e-14 
4.84238 -3.67843 -1.54972e-14 
5.14851 -3.6745 -6.81478e-15 
5.45337 -3.67538 -3.26124e-15 
5.75626 -3.66542 -1.74028e-15 
6.05296 -3.6609 -8.63125e-16 
6.35515 -3.66597 -3.95015e-16 
6.66021 -3.67528 -1.43202e-16 
6.95037 -3.63906 1.55786e-16 
7.25078 -3.67118 -2.93385e-17 
7.54753 -3.6584 5.21537e-17 
7.84895 -3.66715 4.44064e-17 
8.14497 -3.65708 2.1597e-17 
8.44258 -3.65732 9.57962e-18 
8.7412 -3.6502 -1.10601e-16 
9.05943 -3.69911 1.20043e-16 
9.3852 -3.68164 1.01733e-16 
9.69484 -3.63861 -6.83557e-17 
10.0294 -3.70875 -2.13047e-16 
10.3542 -3.65272 9.76919e-17 
10.7207 -3.7246 -1.36712e-16 
11.055 -3.6504 -7.7148e-17 
11.3586 -3.61795 -3.96496e-17 
11.7129 -3.72444 -2.58302e-16 
12 -3.60355 1.18555e-13 
-12 -3.30869 -6.57567e-14 
-11.6364 -3.3721 -4.43733e-17 
-11.2957 -3.28938 -1.59701e-17 
-10.98 -3.33227 2.53613e-17 
-10.6615 -3.30354 -2.70715e-17 
-10.3378 -3.33896 2.55859e-17 
-10.0103 -3.33184 -7.5226e-18 
-9.69216 -3.33285 4.38481e-18 
-9.38781 -3.38151 2.71029e-17 
-9.08102 -3.32697 2.11774e-17 
-8.77642 -3.31602 -3.73449e-16 
-8.47174 -3.33359 8.29714e-17 
-8.17034 -3.33457 2.07358e-17 
-7.85608 -3.32951 -1.77682e-16 
-7.55684 -3.33242 -2.57674e-17 
-7.25092 -3.32049 7.86231e-17 
-6.94666 -3.34825 6.11157e-17 
-6.6373 -3.34443 1.16354e-16 
-6.33024 -3.35272 9.44662e-17 
-6.02332 -3.34447 -1.41274e-16 
-5.71766 -3.34675 1.03595e-15 
-5.41319 -3.34477 2.39441e-15 
-5.11116 -3.31578 4.24384e-15 
-4.80648 -3.36065 1.08232e-14 
-4.50125 -3.32783 1.41408e-14 
-4.19091 -3.33937 2.67488e-14 
-3.87104 -3.35151 7.82593e-14 
-3.54428 -3.33235 1.14998e-13 
-3.20622 -3.3418 8.3087e-13 
-2.8673 -3.32513 3.5148e-12 
-2.53378 -3.32812 1.60709e-11 
-2.22603 -3.34627 5.92921e-11 
-1.94311 -3.37096 1.45418e-10 
-1.67783 -3.36002 4.94857e-10 
-1.45571 -3.40015 -5.87378e-11 
-1.26008 -3.48411 -2.19664e-09 
-1.12949 -3.61808 8.91617e-09 
-0.914888 -3.74195 1.85562e-08 
-0.703617 -3.73629 2.00802e-08 
-0.0710429 -3.93539 -2.61151e-07 
0.328287 -3.92991 -6.3836e-07 
0.721473 -3.87952 -1.74703e-07 
1.09613 -3.53063 -1.88715e-09 
1.25982 -3.45346 1.01237e-09 
1.43982 -3.37318 2.02764e-10 
1.65447 -3.42419 -5.6427e-11 
1.90214 -3.37683 -5.33443e-11 
2.19675 -3.37767 -1.12385e-11 
2.51304 -3.36627 -3.3485e-12 
2.84629 -3.34251 -1.06513e-12 
3.19347 -3.34217 -6.09987e-13 
3.53258 -3.31747 -1.17107e-13 
3.8666 -3.32027 -6.74236e-14 
4.18197 -3.32872 -3.31081e-14 
4.49047 -3.32673 -1.82048e-14 
4.79534 -3.35296 -1.03994e-14 
5.09887 -3.35143 -5.42342e-15 
5.40418 -3.34929 -2.62035e-15 
5.70546 -3.34095 -1.25311e-15 
6.01422 -3.32258 -1.06917e-15 
6.31126 -3.33372 -2.92042e-16 
6.61518 -3.34108 -1.11317e-16 
6.91184 -3.29968 -1.07348e-16 
7.21104 -3.33311 -1.38212e-17 
7.50935 -3.32136 -4.41721e-17 
7.81052 -3.33535 -3.87015e-18 
8.11747 -3.32061 -1.45783e-17 
8.42173 -3.32389 -2.61365e-16 
8.73438 -3.31982 -5.62688e-17 
9.05636 -3.37973 -3.77106e-17 
9.38079 -3.35132 -3.59867e-17 
9.68695 -3.29067 -1.16517e-17 
9.99879 -3.38266 -2.49924e-17 
10.3067 -3.30794 1.8428e-17 
10.6352 -3.4105 -2.18081e-18 
10.968 -3.33501 -3.80537e-18 
11.2979 -3.25919 7.47289e-18 
11.6312 -3.37661 5.2886e-17 
12 -3.29792 7.65407e-14 
-12 -2.97705 1.41054e-14 
-11.6653 -3.05439 -7.47201e-17 
-11.3219 -2.97316 -4.2754e-17 
-10.9721 -2.9833 -8.71918e-17 
-10.637 -2.97328 2.62735e-16 
-10.309 -3.00537 5.12446e-16 
-9.98676 -2.99463 2.1263e-17 
-9.66873 -2.99663 -9.79508e-18 
-9.35399 -3.03213 1.04333e-17 
-9.0466 -2.98114 1.80456e-17 
-8.73974 -2.97678 5.35475e-16 
-8.43937 -2.99333 5.94382e-18 
-8.12651 -3.00928 -5.59335e-18 
-7.82608 -2.98887 5.93497e-17 
-7.52107 -2.99922 2.16721e-17 
-7.21732 -2.98734 -2.83224e-17 
-6.91611 -3.02364 7.90386e-17 
-6.60877 -3.01659 5.93247e-17 
-6.3058 -3.02336 -2.96389e-16 
-6.00202 -3.01546 1.74781e-16 
-5.70196 -3.01629 2.71967e-16 
-5.4023 -3.01239 5.37378e-16 
-5.10482 -2.98205 6.68653e-16 
-4.8043 -3.0315 2.11504e-16 
-4.50371 -2.99513 1.58539e-15 
-4.1972 -3.01013 1.5284e-16 
-3.88732 -3.02795 -1.77096e-14 
-3.55331 -3.01191 3.01613e-14 
-3.21453 -3.01382 -2.80112e-13 
-2.8634 -2.99841 -1.25941e-12 
-2.51814 -2.99419 -1.13284e-11 
-2.18281 -3.0132 -3.60979e-11 
-1.87086 -3.05818 2.77135e-11 
-1.59043 -3.04512 -4.2263e-10 
-1.37734 -3.1151 -1.66921e-10 
-1.17505 -3.23225 -1.91812e-09 
-1.0343 -3.3864 -6.62414e-11 
-0.9276 -3.5719 1.00306e-08 
-0.237969 -3.86807 3.62297e-06 
0.149699 -3.95903 1.68108e-06 
0.517821 -3.8788 -3.71751e-07 
0.951434 -3.66924 -1.94535e-08 
1.00845 -3.26823 9.50833e-09 
1.16886 -3.16748 1.37305e-09 
1.37903 -3.08003 2.17982e-10 
1.63142 -3.09252 2.13787e-10 
1.90565 -3.07063 2.0172e-11 
2.21342 -3.0584 2.82516e-12 
2.5241 -3.03072 2.01255e-13 
2.84878 -3.00202 7.41785e-14 
3.17789 -3.01978 3.36899e-13 
3.50768 -2.9854 2.46362e-14 
3.83233 -2.99874 2.24627e-14 
4.15979 -2.99437 6.44726e-15 
4.47197 -2.99242 2.31377e-15 
4.778 -3.02099 -3.24015e-16 
5.07942 -3.0225 -5.72169e-16 
5.38016 -3.02462 -5.10263e-16 
5.68445 -3.00957 -2.97987e-16 
5.98374 -3.00373 -2.03998e-16 
6.29955 -2.99259 -1.53495e-16 
6.5935 -3.00892 -8.39949e-17 
6.91153 -2.98132 -5.3433e-18 
7.22811 -2.99627 -4.17947e-17 
7.52831 -2.98547 4.19188e-17 
7.83522 -3.0059 3.25012e-17 
8.13597 -2.98483 -2.32373e-17 
8.44712 -2.99753 2.01853e-17 
8.75856 -2.98895 5.80705e-18 
9.06224 -3.05959 4.01166e-16 
9.36314 -3.00916 -1.12723e-17 
9.66652 -2.94714 2.10165e-16 
9.98766 -3.03527 2.20571e-16 
10.3235 -2.98145 1.2628e-17 
10.654 -3.07994 -1.49998e-17 
10.9877 -2.99625 4.85484e-16 
11.3393 -2.93872 1.3916e-17 
11.6703 -3.05955 4.98703e-17 
12 -2.95881 1.92118e-15 
-12 -2.66095 -2.82182e-14 
-11.6524 -2.72504 -5.21558e-17 
-11.3064 -2.65414 3.81117e-17 
-10.9714 -2.65254 -2.18419e-17 
-10.6346 -2.6463 1.48377e-17 
-10.2991 -2.67111 -1.16362e-17 
-9.96757 -2.66352 -8.924e-18 
-9.63499 -2.67061 3.01325e-17 
-9.3196 -2.68993 -1.31157e-17 
-8.99562 -2.64687 5.36609e-18 
-8.68528 -2.63918 6.8786e-18 
-8.3711 -2.67285 6.32672e-16 
-8.07157 -2.66777 5.45463e-16 
-7.75967 -2.66128 -1.80599e-17 
-7.45925 -2.66312 -2.92212e-17 
-7.14748 -2.66402 7.75215e-18 
-6.84797 -2.69646 3.8514e-18 
-6.54147 -2.68651 -2.29197e-16 
-6.23952 -2.69277 -7.12092e-17 
-5.93722 -2.68252 -2.92671e-16 
[...]
POINT_DATA 1978 
VECTORS vectors float
2.93562e-06 -0.000406905 1 
-4.19901e-06 -0.000358949 1 
-2.81994e-06 -0.000311992 1 
-4.29989e-06 -0.000246902 1 
-4.9612e-06 -0.000176874 1 
-5.73635e-06 -9.31024e-05 1 
-6.72133e-06 -5.52134e-06 1 
-7.6427e-06 8.11805e-05 1 
-7.48151e-06 0.000166223 1 
-6.49358e-06 0.000245037 1 
-5.98412e-06 0.000329689 1 
-5.88125e-06 0.000421918 1 
-5.22323e-06 0.000498376 1 
-4.65696e-06 0.000566081 1 
-3.97746e-06 0.000622479 1 
-3.59001e-06 0.00066605 1 
-3.73359e-06 0.00070667 1 
-4.37656e-06 0.000748485 1 
-6.01925e-06 0.000830135 1 
-8.1894e-06 0.000978275 1 
-1.09268e-05 0.0012009 0.999999 
-1.38621e-05 0.001497 0.999999 
-1.77199e-05 0.00192755 0.999998 
-2.51328e-05 0.0026137 0.999997 
-2.9426e-05 0.00375166 0.999993 
-3.59448e-05 0.00497842 0.999988 
-4.69648e-05 0.00635936 0.99998 
-7.661e-05 0.00813405 0.999967 
-0.000133361 0.0108671 0.999941 
-0.000233054 0.0155467 0.999879 
-0.000348281 0.0231462 0.999732 
-0.000410451 0.0370758 0.999313 
-0.000474725 0.0603989 0.998175 
-0.00065565 0.0961957 0.995363 
-0.00143251 0.139528 0.990217 
-0.00254544 0.197159 0.980369 
-0.00274743 0.292903 0.956142 
-0.00220773 0.450395 0.892834 
-0.00710266 0.680571 0.732653 
0.00667646 0.910654 0.413125 
0.00717677 0.831792 -0.555045 
0.00941351 0.488414 -0.872565 
0.00104807 0.330539 -0.943795 
0.00396415 0.232439 -0.972603 
0.00215983 0.159775 -0.987151 
0.000742031 0.103008 -0.994681 
0.000509087 0.0606996 -0.998157 
0.00071053 0.0362271 -0.999344 
0.0004039 0.0227432 -0.999741 
0.000191454 0.0154413 -0.999881 
9.72792e-05 0.0110878 -0.999939 
6.00359e-05 0.0085093 -0.999964 
4.62557e-05 0.00658473 -0.999978 
4.0122e-05 0.00492661 -0.999988 
3.17548e-05 0.00358778 -0.999994 
2.6323e-05 0.00258806 -0.999997 
1.90639e-05 0.00191871 -0.999998 
1.44429e-05 0.00153123 -0.999999 
1.1217e-05 0.00123831 -0.999999 
8.14762e-06 0.000997085 -1 
5.8841e-06 0.000827401 -1 
4.63586e-06 0.000724191 -1 
3.66431e-06 0.000661099 -1 
3.65565e-06 0.000620163 -1 
3.49031e-06 0.000588363 -1 
4.11541e-06 0.000562645 -1 
4.29442e-06 0.000529159 -1 
4.72865e-06 0.000482003 -1 
5.55853e-06 0.000411982 -1 
7.02499e-06 0.000323356 -1 
7.62333e-06 0.000202869 -1 
7.10716e-06 9.08615e-05 -1 
7.15169e-06 -1.5737e-06 -1 
7.17265e-06 -0.000104814 -1 
7.24872e-06 -0.000177649 -1 
5.8814e-06 -0.000257376 -1 
2.81901e-06 -0.000311328 -1 
3.7308e-06 -0.000351507 -1 
-2.94712e-06 -0.000400246 -1 
-3.33468e-06 -0.000318616 1 
-3.86505e-05 -0.000324726 1 
-8.74196e-05 -0.000265338 1 
-0.000108389 -0.000222885 1 
-0.000139877 -0.000155601 1 
-0.000155915 -8.88024e-05 1 
-0.000177169 -9.01622e-06 1 
-0.000188661 6.91953e-05 1 
-0.000197496 0.000149563 1 
-0.000226978 0.000231292 1 
-0.000249393 0.000308222 1 
-0.000247626 0.0003811 1 
-0.000254008 0.000442931 1 
-0.000233344 0.000491897 1 
-0.000209345 0.000531156 1 
-0.000177831 0.000571435 1 
-0.000146327 0.000630994 1 
-0.000140146 0.00072111 1 
-0.000166249 0.000865235 1 
-0.000233453 0.00107493 1 
-0.000333789 0.00135268 0.999999 
-0.000458046 0.00171098 0.999999 
-0.000579934 0.00218939 0.999998 
-0.000620638 0.00291361 0.999996 
-0.000646911 0.00386805 0.999992 
-0.000562175 0.00507936 0.999987 
-0.000493552 0.00667663 0.999978 
-0.000564997 0.00900127 0.999959 
-0.000845113 0.0129862 0.999915 
-0.0014436 0.0200031 0.999799 
-0.00276294 0.0320271 0.999483 
-0.00472895 0.0520915 0.998631 
-0.00716391 0.0822741 0.996584 
-0.00982058 0.122527 0.992417 
-0.0112064 0.174714 0.984556 
-0.0126941 0.242248 0.970131 
-0.0119652 0.358742 0.93336 
-0.00327057 0.549445 0.835524 
0.0295033 0.734285 0.678197 
0.0125 0.96651 0.25632 
0.0468847 0.881512 -0.469827 
0.018382 0.402952 -0.915037 
0.0176777 0.296914 -0.95474 
0.0126685 0.218899 -0.975665 
0.00931611 0.153352 -0.988128 
0.00599413 0.0992556 -0.995044 
0.00335714 0.064838 -0.99789 
0.00159677 0.0413554 -0.999143 
0.000351545 0.0257727 -0.999668 
0.00025633 0.0166735 -0.999861 
0.000418171 0.0114863 -0.999934 
0.000510534 0.00831462 -0.999965 
0.000558405 0.00625212 -0.99998 
0.000621485 0.00469841 -0.999989 
0.000660901 0.00352983 -0.999994 
0.000619018 0.00262645 -0.999996 
0.000543332 0.00202297 -0.999998 
0.000431432 0.00161389 -0.999999 
0.00032654 0.00129904 -0.999999 
0.000236931 0.0010364 -1 
0.000176311 0.000827403 -1 
0.000151231 0.00068369 -1 
0.000167369 0.000580704 -1 
0.00018066 0.000538648 -1 
0.000215383 0.000509334 -1 
0.000236278 0.000493177 -1 
0.000257778 0.000467422 -1 
0.000263536 0.000425868 -1 
0.000263965 0.000361382 -1 
0.00022714 0.000275197 -1 
0.00021787 0.00017281 -1 
0.000216774 8.03604e-05 -1 
0.000167931 -1.87179e-05 -1 
0.000164365 -9.19241e-05 -1 
0.00011619 -0.000177737 -1 
0.000109839 -0.000224091 -1 
8.63448e-05 -0.000260437 -1 
3.54006e-05 -0.000320525 -1 
1.09284e-06 -0.000310669 -1 
-2.44376e-05 -0.000252239 1 
-8.29863e-05 -0.000245388 1 
-0.000141742 -0.00019324 1 
-0.000179798 -0.000158443 1 
-0.000219522 -0.00010091 1 
-0.000248769 -4.3759e-05 1 
-0.000278707 2.59288e-05 1 
-0.000304207 9.64926e-05 1 
-0.000317016 0.000162932 1 
-0.000353825 0.000234271 1 
-0.000374006 0.000297924 1 
-0.000380265 0.000352081 1 
-0.000377747 0.000391005 1 
-0.000356805 0.000412612 1 
-0.000319094 0.000427835 1 
-0.000271049 0.000451458 1 
-0.000224854 0.000530074 1 
-0.00020333 0.000650237 1 
-0.000222854 0.000846009 1 
-0.000295189 0.00111212 0.999999 
-0.00041626 0.00143559 0.999999 
-0.000566188 0.00181022 0.999998 
-0.000703214 0.00226192 0.999997 
-0.000794987 0.00282459 0.999996 
-0.000765282 0.00354531 0.999994 
-0.000646824 0.00453204 0.99999 
-0.000487502 0.0059509 0.999982 
-0.00036307 0.00805902 0.999968 
-0.000432752 0.0117845 0.999931 
-0.000628345 0.0177822 0.999842 
-0.00100129 0.028169 0.999603 
-0.00130653 0.0438762 0.999036 
-0.000369509 0.0671624 0.997742 
0.00340031 0.0997974 0.995002 
0.00866996 0.143411 0.989625 
0.016109 0.201741 0.979306 
0.005436 0.275534 0.961276 
0.00672957 0.416455 0.909131 
0.0345884 0.546894 0.836487 
0.0279309 0.997632 0.0628384 
0.00124277 0.910362 -0.413811 
0.00506519 0.615403 -0.788196 
-0.0247879 0.255879 -0.966391 
-0.0194661 0.186691 -0.982226 
-0.0155188 0.133556 -0.99092 
-0.00562192 0.0989598 -0.995076 
-0.00347132 0.0670237 -0.997745 
-0.00224961 0.043224 -0.999063 
-0.00164501 0.0273658 -0.999624 
-0.000760141 0.0177233 -0.999843 
-5.17604e-05 0.0120255 -0.999928 
0.000284598 0.00843513 -0.999965 
0.00050732 0.00617038 -0.999981 
0.000675393 0.00467137 -0.999989 
0.000788698 0.00360941 -0.999993 
0.000813635 0.00283771 -0.999996 
0.00074115 0.00227504 -0.999997 
0.00060684 0.00184523 -0.999998 
0.00045875 0.00148638 -0.999999 
0.000329864 0.0011564 -0.999999 
0.000250531 0.00087723 -1 
0.000219541 0.000659441 -1 
0.00023496 0.000511348 -1 
0.000268727 0.000448121 -1 
0.000313411 0.000418021 -1 
0.000349854 0.000420324 -1 
0.000377537 0.000413032 -1 
0.00038781 0.000392166 -1 
0.000382785 0.000340308 -1 
0.000355376 0.000269127 -1 
0.000339315 0.000181592 -1 
0.000324404 0.000102443 -1 
0.000277161 1.83226e-05 -1 
0.0002591 -4.31317e-05 -1 
0.000205959 -0.000119461 -1 
0.000177807 -0.000160536 -1 
0.000139443 -0.000186956 -1 
7.97265e-05 -0.000241403 -1 
1.99038e-05 -0.000243778 -1 
-3.03241e-05 -0.000182601 1 
-9.31047e-05 -0.000181829 1 
-0.000152771 -0.000139045 1 
-0.000200604 -0.000102039 1 
-0.000242699 -5.54508e-05 1 
-0.000276821 -5.21274e-06 1 
-0.000307489 5.46986e-05 1 
-0.000334651 0.000117568 1 
-0.000354142 0.00017969 1 
-0.000375386 0.000241636 1 
-0.000389523 0.000294561 1 
-0.000394841 0.00033053 1 
-0.000385817 0.000345956 1 
-0.000357024 0.000337616 1 
-0.000316467 0.000335244 1 
-0.000268103 0.000355213 1 
-0.000226084 0.000444096 1 
-0.00020248 0.000606515 1 
-0.000214072 0.000858178 1 
-0.000266879 0.00118626 0.999999 
-0.00036124 0.001562 0.999999 
-0.000476674 0.00196497 0.999998 
-0.00055831 0.00239793 0.999997 
-0.000620742 0.00284483 0.999996 
-0.000533207 0.00342368 0.999994 
-0.00038399 0.00417756 0.999991 
-0.000168041 0.005316 0.999986 
0.000145601 0.00734314 0.999973 
0.000465464 0.0107324 0.999942 
0.00102159 0.0163065 0.999867 
0.00230537 0.0248748 0.999688 
0.00515051 0.0393597 0.999212 
0.0105972 0.0633975 0.997932 
0.0247432 0.0905765 0.995582 
0.0375634 0.126106 0.991305 
0.0544138 0.180422 0.982083 
0.0544938 0.255857 0.965178 
0.0332573 0.348267 0.936805 
0.0802887 0.915629 0.393931 
0.00288352 0.983238 -0.182309 
-0.0203022 0.791133 -0.611307 
-0.0105457 0.354818 -0.934876 
-0.0807838 0.205738 -0.975267 
-0.0600931 0.148327 -0.987111 
-0.0406196 0.104211 -0.993725 
-0.022029 0.0793736 -0.996602 
-0.0125959 0.054637 -0.998427 
-0.00741771 0.035834 -0.99933 
-0.00441799 0.0237201 -0.999709 
-0.00226218 0.0159266 -0.999871 
-0.000882262 0.0111872 -0.999937 
-0.000295029 0.0080053 -0.999968 
0.000111246 0.00589315 -0.999983 
0.000374874 0.004445 -0.99999 
0.000551411 0.00352208 -0.999994 
0.00065042 0.00289438 -0.999996 
0.000625274 0.00240858 -0.999997 
0.000530186 0.00199649 -0.999998 
0.000401183 0.00160668 -0.999999 
0.000297604 0.0012342 -0.999999 
0.000230376 0.000877818 -1 
0.000213525 0.000615743 -1 
0.000229714 0.000426411 -1 
0.000269825 0.000341947 -1 
0.000315682 0.000322601 -1 
0.000358832 0.000343334 -1 
0.000382671 0.000353982 -1 
0.000399569 0.000353007 -1 
0.000397538 0.000316523 -1 
0.000387418 0.000261921 -1 
0.000366185 0.000191925 -1 
0.000339793 0.000122068 -1 
0.000310647 4.74778e-05 -1 
0.000277226 -1.33367e-05 -1 
0.000237348 -7.8064e-05 -1 
0.000196386 -0.000109891 -1 
0.000146103 -0.000133688 -1 
8.84729e-05 -0.000179147 -1 
2.84803e-05 -0.000170423 -1 
-3.03044e-05 -0.000106769 1 
-9.90505e-05 -0.000112822 1 
-0.000155087 -8.33767e-05 1 
-0.000198997 -5.64401e-05 1 
-0.000236869 -2.01827e-05 1 
-0.000267045 2.14787e-05 1 
-0.000293655 7.38654e-05 1 
-0.00031705 0.000132205 1 
-0.000336296 0.000190017 1 
-0.000343244 0.000244847 1 
-0.000345253 0.000282916 1 
-0.000345299 0.000302224 1 
-0.000323687 0.000291756 1 
-0.000287983 0.000265825 1 
-0.000247488 0.000251803 1 
-0.000203958 0.000281707 1 
-0.000175337 0.000392604 1 
-0.000154135 0.00059454 1 
-0.00016062 0.000896059 1 
-0.000190966 0.00127447 0.999999 
-0.000249585 0.00169328 0.999999 
-0.000306781 0.00210678 0.999998 
-0.000342907 0.00253822 0.999997 
-0.000329115 0.00292489 0.999996 
-0.00019345 0.00339893 0.999994 
-1.36945e-05 0.00402475 0.999992 
0.00023035 0.00510932 0.999987 
0.000674504 0.00694392 0.999976 
0.00136237 0.0101656 0.999948 
0.00262617 0.0144511 0.999892 
0.00496454 0.0201933 0.999784 
0.00908749 0.0300084 0.999508 
0.0174489 0.0460602 0.998786 
0.0351076 0.0641026 0.997326 
0.061774 0.0857386 0.994401 
0.0778619 0.138449 0.987304 
0.113606 0.223553 0.968048 
0.095449 0.337957 0.936309 
0.0765851 0.7396 0.668669 
0.0457534 0.998014 0.0432694 
-0.0657793 0.675464 -0.734452 
-0.0872989 0.314367 -0.945279 
-0.11538 0.121995 -0.985802 
-0.0800863 0.0912973 -0.992598 
-0.0514749 0.0667732 -0.99644 
-0.0305961 0.0543376 -0.998054 
-0.0176994 0.0389113 -0.999086 
-0.0106047 0.0266179 -0.99959 
-0.00572384 0.0183694 -0.999815 
-0.00281624 0.0128846 -0.999913 
-0.00133796 0.00939496 -0.999955 
-0.000599073 0.00673803 -0.999977 
-0.000171793 0.00505767 -0.999987 
9.6331e-05 0.00394408 -0.999992 
0.000288288 0.00325076 -0.999995 
0.000397801 0.00277933 -0.999996 
0.000399432 0.00237496 -0.999997 
0.000340865 0.0019796 -0.999998 
0.000255101 0.00157282 -0.999999 
0.000197463 0.00115364 -0.999999 
0.000159789 0.000789013 -1 
0.000165647 0.000512054 -1 
0.000183662 0.000319908 -1 
0.000217261 0.000246463 -1 
0.000262987 0.000244009 -1 
0.000301708 0.00027481 -1 
0.000326099 0.000301452 -1 
0.00034847 0.000312309 -1 
0.00035097 0.000292073 -1 
0.000357551 0.000252447 -1 
0.000336645 0.000192847 -1 
0.000311887 0.000125776 -1 
0.000296187 6.16185e-05 -1 
0.000263122 1.21383e-05 -1 
0.000235146 -3.98997e-05 -1 
0.000191891 -6.63784e-05 -1 
0.000145914 -7.97202e-05 -1 
9.35855e-05 -0.000112316 -1 
3.47363e-05 -9.35423e-05 -1 
-5.26488e-05 -1.35241e-05 1 
-9.05891e-05 -4.89731e-05 1 
-0.000134431 -4.10567e-05 1 
-0.000172168 -2.38487e-05 1 
-0.000202579 -1.45633e-06 1 
-0.000229412 2.88929e-05 1 
-0.000250214 6.69712e-05 1 
-0.000267202 0.000114684 1 
-0.000279039 0.000167412 1 
-0.000281482 0.000215236 1 
-0.000270416 0.000251325 1 
-0.000263587 0.000267301 1 
-0.000238435 0.000254095 1 
-0.000207569 0.000222679 1 
-0.000161119 0.000189134 1 
-0.000126942 0.000197556 1 
-9.68848e-05 0.000279362 1 
-8.12087e-05 0.000447794 1 
-7.30706e-05 0.000727968 1 
-8.06823e-05 0.0010869 1 
-0.000102184 0.00151349 0.999999 
-0.000123599 0.00193935 0.999998 
-0.000147427 0.00235764 0.999997 
-0.000103172 0.00273357 0.999996 
-2.72282e-05 0.00308308 0.999995 
0.000149256 0.00350595 0.999994 
0.000336144 0.00418466 0.999991 
0.000634097 0.00528626 0.999986 
0.00127614 0.00734608 0.999972 
0.00239205 0.0100327 0.999947 
0.00445793 0.0133877 0.999901 
0.00855413 0.0188322 0.999786 
0.0165645 0.0276659 0.99948 
0.0308374 0.0366254 0.998853 
0.0549655 0.0448048 0.997483 
0.0933341 0.0693556 0.993216 
0.117188 0.121095 0.985699 
0.168142 0.334858 0.927145 
0.123299 0.631936 0.765149 
0.0536647 0.996901 -0.0575226 
-0.108515 0.546793 -0.830205 
-0.134089 0.22776 -0.96444 
-0.123999 0.0474894 -0.991145 
-0.0780805 0.0426619 -0.996034 
-0.0474641 0.0344034 -0.99828 
-0.0291677 0.0317634 -0.99907 
-0.0178441 0.0238513 -0.999556 
-0.0103712 0.0181166 -0.999782 
-0.0057817 0.0140183 -0.999885 
-0.00317543 0.0111101 -0.999933 
-0.00158487 0.00832364 -0.999964 
-0.000802871 0.00610459 -0.999981 
-0.000403702 0.00466905 -0.999989 
-0.000149531 0.00375901 -0.999993 
4.48914e-05 0.00317421 -0.999995 
0.000162852 0.00276449 -0.999996 
0.000195844 0.00241044 -0.999997 
0.000175767 0.00203177 -0.999998 
0.000129844 0.001626 -0.999999 
0.0001035 0.00119865 -0.999999 
7.31927e-05 0.000809567 -1 
7.96448e-05 0.000494607 -1 
9.55946e-05 0.000295657 -1 
0.000111097 0.000186869 -1 
0.000156123 0.000176274 -1 
0.000190084 0.000206647 -1 
0.000219708 0.000243786 -1 
0.000255343 0.000271195 -1 
0.00026547 0.000263051 -1 
0.00028767 0.000235016 -1 
0.000280087 0.000181089 -1 
0.00026 0.000125447 -1 
0.00025995 7.29951e-05 -1 
0.000231004 2.94862e-05 -1 
0.00021424 -1.09585e-05 -1 
0.00017602 -2.86835e-05 -1 
0.000138726 -3.25461e-05 -1 
9.93383e-05 -5.19916e-05 -1 
5.09401e-05 -2.566e-05 -1 
-8.08874e-05 2.68492e-05 1 
-0.000105682 8.00711e-07 1 
-0.000132373 -7.51e-07 1 
-0.000153209 1.02072e-05 1 
-0.000173676 2.6905e-05 1 
-0.000188408 5.23106e-05 1 
-0.000203027 8.68449e-05 1 
-0.000209368 0.000129833 1 
-0.000205859 0.000173745 1 
-0.000196578 0.000212932 1 
-0.000176317 0.000236484 1 
-0.000148365 0.00023096 1 
-0.000115715 0.000202623 1 
-7.52337e-05 0.000163468 1 
-3.02638e-05 0.000141261 1 
-3.65832e-06 0.000178199 1 
1.82313e-05 0.000292831 1 
1.78486e-05 0.000503793 1 
1.93229e-05 0.000807259 1 
5.65574e-06 0.00119216 0.999999 
-5.81959e-06 0.00161176 0.999999 
-1.75229e-05 0.00205788 0.999998 
-6.30491e-06 0.00244408 0.999997 
5.5826e-05 0.0027926 0.999996 
0.00014904 0.00310012 0.999995 
0.000296889 0.00349395 0.999994 
0.000442668 0.00403763 0.999992 
0.000717444 0.00505651 0.999987 
0.00123467 0.00633465 0.999979 
0.00225429 0.00793791 0.999966 
0.00433871 0.0100935 0.99994 
0.00798298 0.0125379 0.99989 
0.0148442 0.0158802 0.999764 
0.0252734 0.016199 0.999549 
0.0417861 0.0146073 0.99902 
0.0745339 0.0182299 0.997052 
0.12936 0.0533021 0.990164 
0.165761 0.14089 0.97605 
0.0924606 0.469237 0.878218 
0.0463721 0.998863 0.0110517 
-0.030285 0.47925 -0.877156 
-0.169895 0.128121 -0.977098 
-0.106004 0.00821815 -0.994332 
-0.061849 0.01054 -0.99803 
-0.0351091 0.0124132 -0.999307 
-0.0223235 0.0140609 -0.999652 
-0.0131828 0.0129842 -0.999829 
-0.00754477 0.0117385 -0.999903 
-0.00434906 0.0104158 -0.999936 
-0.00236181 0.00880487 -0.999959 
-0.00119356 0.0067762 -0.999976 
-0.000649231 0.00514705 -0.999987 
-0.000392442 0.00411794 -0.999992 
-0.000199039 0.0034449 -0.999994 
-4.99898e-05 0.00299969 -0.999996 
2.66752e-05 0.00265731 -0.999997 
5.49259e-05 0.00231613 -0.999997 
4.57382e-05 0.00194409 -0.999998 
2.39376e-05 0.001511 -0.999999 
2.07659e-06 0.00110432 -0.999999 
-1.63437e-05 0.000698711 -1 
-2.07653e-05 0.000419082 -1 
-5.14451e-06 0.000230195 -1 
4.56152e-07 0.000136076 -1 
4.77678e-05 0.000133487 -1 
7.19806e-05 0.000163066 -1 
0.000112109 0.000206377 -1 
0.000148339 0.000233116 -1 
0.000171048 0.000232568 -1 
0.00020675 0.000213154 -1 
0.00020335 0.000170243 -1 
0.000195525 0.000118655 -1 
0.000205857 7.4075e-05 -1 
0.000183973 3.90673e-05 -1 
0.000179454 1.02094e-05 -1 
0.000148181 1.05801e-06 -1 
0.000121075 -8.57795e-07 -1 
9.95883e-05 -7.87818e-06 -1 
7.77359e-05 1.80619e-05 -1 
-0.00010066 3.50084e-05 1 
-0.000100603 2.34272e-05 1 
-0.000107943 2.03591e-05 1 
-0.000116046 2.44574e-05 1 
-0.000124871 3.50045e-05 1 
-0.000130225 5.31533e-05 1 
-0.000137542 8.02229e-05 1 
-0.000138255 0.000115859 1 
-0.000126427 0.000154932 1 
-0.000112036 0.000189971 1 
-9.51831e-05 0.000212484 1 
-5.14324e-05 0.000205083 1 
-1.7826e-05 0.000177473 1 
2.76579e-05 0.000136627 1 
6.82895e-05 0.000112199 1 
0.000100347 0.000138304 1 
0.000119064 0.000239164 1 
0.000112926 0.000432909 1 
0.000100858 0.000705523 1 
7.68986e-05 0.00106532 1 
5.2946e-05 0.001464 0.999999 
3.09068e-05 0.00190183 0.999998 
3.25699e-05 0.00231287 0.999997 
6.78335e-05 0.00266695 0.999997 
0.000147028 0.00298798 0.999996 
0.000254699 0.00332496 0.999995 
0.000345582 0.00373451 0.999993 
0.000471862 0.00437703 0.99999 
0.000696995 0.00514506 0.999987 
0.00124544 0.00598432 0.999981 
0.00254031 0.00700922 0.999972 
0.00495813 0.00759448 0.999959 
0.00934763 0.0075527 0.999928 
0.0152741 0.00393702 0.999876 
0.0243428 -0.00530261 0.99969 
0.0493125 -0.016985 0.998639 
0.105468 -0.00921097 0.99438 
0.230993 0.179121 0.956325 
0.181154 0.550739 0.814781 
0.0588951 0.997427 -0.0408431 
-0.155571 0.420984 -0.893629 
-0.203866 0.0349466 -0.978375 
-0.0746652 -0.0280078 -0.996815 
-0.0408922 -0.0120166 -0.999091 
-0.021773 -0.00348981 -0.999757 
-0.0141154 0.00413238 -0.999892 
-0.00855462 0.00736162 -0.999936 
-0.00508424 0.00839653 -0.999952 
-0.00293181 0.00809692 -0.999963 
-0.00178685 0.00748721 -0.99997 
-0.000897125 0.00605706 -0.999981 
-0.000505372 0.00483062 -0.999988 
-0.000328447 0.00397456 -0.999992 
-0.000201988 0.00342613 -0.999994 
-9.39727e-05 0.0030294 -0.999995 
-2.62873e-05 0.0026783 -0.999997 
6.63079e-07 0.00232834 -0.999997 
-4.19332e-06 0.00195075 -0.999998 
-2.69042e-05 0.00156329 -0.999999 
-6.09746e-05 0.00113957 -0.999999 
-8.43441e-05 0.000774278 -1 
-0.000111975 0.000454741 -1 
-0.000111263 0.000246969 -1 
-0.000107565 0.000130526 -1 
-7.35944e-05 9.85859e-05 -1 
-4.52887e-05 0.000119208 -1 
-1.87331e-06 0.000162955 -1 
4.21355e-05 0.000196877 -1 
7.38591e-05 0.000203302 -1 
0.000111608 0.000187453 -1 
0.000127689 0.000149378 -1 
0.000122736 0.000106015 -1 
0.000145412 7.31177e-05 -1 
0.00012733 4.61168e-05 -1 
0.000135477 2.5715e-05 -1 
0.000113805 1.68562e-05 -1 
9.85258e-05 1.4543e-05 -1 
9.53175e-05 1.43271e-05 -1 
9.44272e-05 2.54487e-05 -1 
-9.69831e-05 2.13925e-05 1 
-8.64804e-05 2.44807e-05 1 
-8.11347e-05 2.56466e-05 1 
-7.99987e-05 3.0019e-05 1 
-7.77681e-05 3.9095e-05 1 
-7.55302e-05 5.55333e-05 1 
-7.47824e-05 8.05012e-05 1 
-6.82156e-05 0.000112691 1 
-5.19575e-05 0.000147815 1 
-3.47106e-05 0.000178078 1 
-1.35522e-05 0.000194063 1 
3.08781e-05 0.000176457 1 
6.8495e-05 0.000144539 1 
0.000113955 0.000105781 1 
0.000152349 9.2235e-05 1 
0.000180618 0.000134417 1 
0.000187373 0.000259833 1 
0.000170661 0.000468585 1 
0.00013697 0.000766564 1 
9.48966e-05 0.00111741 0.999999 
4.91177e-05 0.00153583 0.999999 
1.42537e-05 0.00195253 0.999998 
4.35586e-07 0.00236192 0.999997 
3.70536e-05 0.00274727 0.999996 
0.000103036 0.00307306 0.999995 
0.000202335 0.00337954 0.999994 
0.000251283 0.00374231 0.999993 
0.000306648 0.0042008 0.999991 
0.000351072 0.00467014 0.999989 
0.000626401 0.00512389 0.999987 
0.00146111 0.00549058 0.999984 