# vtk DataFile Version 3.0 
Exported using Morpho https://github.com/Morpho-lang/morpho 
ASCII 
DATASET UNSTRUCTURED_GRID 

POINTS 2054 float 
-8.48528 -2.82843 0 
-8.20636 -2.82843 0 
-7.94054 -2.82843 0 
-7.6904 -2.82843 0 
-7.45357 -2.82843 0 
-7.22694 -2.82843 0 
-7.00705 -2.82843 0 
-6.79111 -2.82843 0 
-6.57731 -2.82843 0 
-6.36453 -2.82843 0 
-6.15219 -2.82843 0 
-5.94 -2.82843 0 
-5.72786 -2.82843 0 
-5.51573 -2.82843 0 
-5.3036 -2.82843 0 
-5.09147 -2.82843 0 
-4.87933 -2.82843 0 
-4.6672 -2.82843 0 
-4.45507 -2.82843 0 
-4.24294 -2.82843 0 
-4.03081 -2.82843 0 
-3.81867 -2.82843 0 
-3.60654 -2.82843 0 
-3.39441 -2.82843 0 
-3.18228 -2.82843 0 
-2.97015 -2.82843 0 
-2.75801 -2.82843 0 
-2.54588 -2.82843 0 
-2.33375 -2.82843 0 
-2.12162 -2.82843 0 
-1.90949 -2.82843 0 
-1.69735 -2.82843 0 
-1.48522 -2.82843 0 
-1.27309 -2.82843 0 
-1.06096 -2.82843 0 
-0.848825 -2.82843 0 
-0.636693 -2.82843 0 
-0.424561 -2.82843 0 
-0.212429 -2.82843 0 
-0.000296761 -2.82843 0 
0.211835 -2.82843 0 
0.423967 -2.82843 0 
0.636099 -2.82843 0 
0.848231 -2.82843 0 
1.06036 -2.82843 0 
1.2725 -2.82843 0 
1.48463 -2.82843 0 
1.69676 -2.82843 0 
1.90889 -2.82843 0 
2.12102 -2.82843 0 
2.33316 -2.82843 0 
2.54529 -2.82843 0 
2.75742 -2.82843 0 
2.96955 -2.82843 0 
3.18168 -2.82843 0 
3.39382 -2.82843 0 
3.60595 -2.82843 0 
3.81808 -2.82843 0 
4.03021 -2.82843 0 
4.24234 -2.82843 0 
4.45448 -2.82843 0 
4.66661 -2.82843 0 
4.87874 -2.82843 0 
5.09087 -2.82843 0 
5.303 -2.82843 0 
5.51514 -2.82843 0 
5.72727 -2.82843 0 
5.93941 -2.82843 0 
6.15159 -2.82843 0 
6.36393 -2.82843 0 
6.57672 -2.82843 0 
6.79055 -2.82843 0 
7.00652 -2.82843 0 
7.22647 -2.82843 0 
7.45313 -2.82843 0 
7.69005 -2.82843 0 
7.9403 -2.82843 0 
8.20621 -2.82843 0 
8.48528 -2.82843 0 
-8.48528 -2.5495 0 
-8.30526 -2.64845 0 
-8.07062 -2.59995 0 
-7.83904 -2.59637 0 
-7.59595 -2.59733 0 
-7.36578 -2.59177 0 
-7.13796 -2.5933 0 
-6.90908 -2.59428 0 
-6.68421 -2.5916 0 
-6.46568 -2.58832 0 
-6.24926 -2.58859 0 
-6.03358 -2.58941 0 
-5.81848 -2.59013 0 
-5.60402 -2.59075 0 
-5.39005 -2.59135 0 
-5.17642 -2.59186 0 
-4.96311 -2.59223 0 
-4.75009 -2.59242 0 
-4.53736 -2.59244 0 
-4.32497 -2.59236 0 
-4.1128 -2.59242 0 
-3.90059 -2.59259 0 
-3.68835 -2.5926 0 
-3.47627 -2.59248 0 
-3.26428 -2.59251 0 
-3.05216 -2.59271 0 
-2.83986 -2.59283 0 
-2.62755 -2.59274 0 
-2.41539 -2.59253 0 
-2.20336 -2.59238 0 
-1.99135 -2.59238 0 
-1.77924 -2.59246 0 
-1.56704 -2.59244 0 
-1.35495 -2.59215 0 
-1.14319 -2.59183 0 
-0.931581 -2.59195 0 
-0.719663 -2.59256 0 
-0.507197 -2.59324 0 
-0.294425 -2.59354 0 
-0.0817689 -2.59344 0 
0.130587 -2.59325 0 
0.342804 -2.59322 0 
0.555051 -2.59322 0 
0.767233 -2.59303 0 
0.97919 -2.59278 0 
1.19107 -2.59278 0 
1.40311 -2.59289 0 
1.61524 -2.59286 0 
1.82732 -2.59279 0 
2.03943 -2.59281 0 
2.25163 -2.5928 0 
2.46381 -2.59266 0 
2.67591 -2.59254 0 
2.88801 -2.59237 0 
3.10001 -2.59226 0 
3.31203 -2.59216 0 
3.52402 -2.59207 0 
3.73601 -2.59208 0 
3.94815 -2.59221 0 
4.16052 -2.5923 0 
4.37309 -2.59232 0 
4.58593 -2.59227 0 
4.79921 -2.5922 0 
5.01319 -2.59212 0 
5.22833 -2.5921 0 
5.44534 -2.59239 0 
5.6657 -2.59346 0 
5.89185 -2.59569 0 
6.12685 -2.59429 0 
6.36853 -2.59189 0 
6.6108 -2.57787 0 
6.84491 -2.61411 0 
7.08804 -2.58476 0 
7.34858 -2.60369 0 
7.58803 -2.59327 0 
7.83059 -2.59326 0 
8.06387 -2.59199 0 
8.30038 -2.64348 0 
8.48528 -2.54936 0 
-8.48528 -2.28369 0 
-8.25701 -2.4138 0 
-8.01078 -2.35334 0 
-7.73666 -2.37963 0 
-7.49744 -2.35565 0 
-7.26898 -2.35831 0 
-7.03324 -2.36676 0 
-6.7997 -2.36275 0 
-6.5773 -2.35166 0 
-6.35808 -2.3495 0 
-6.14038 -2.35058 0 
-5.92336 -2.35185 0 
-5.70723 -2.35272 0 
-5.49199 -2.35362 0 
-5.27734 -2.35447 0 
-5.0632 -2.35505 0 
-4.84958 -2.35534 0 
-4.63641 -2.35533 0 
-4.42363 -2.35504 0 
-4.21126 -2.35485 0 
-3.99909 -2.35513 0 
-3.78684 -2.3554 0 
-3.57461 -2.35516 0 
-3.36263 -2.35498 0 
-3.15066 -2.35537 0 
-2.93843 -2.35586 0 
-2.72604 -2.35589 0 
-2.51374 -2.35551 0 
-2.30162 -2.35509 0 
-2.08964 -2.35496 0 
-1.87761 -2.35518 0 
-1.66544 -2.3554 0 
-1.45322 -2.35518 0 
-1.2412 -2.35438 0 
-1.02967 -2.35407 0 
-0.818162 -2.35505 0 
-0.606054 -2.35676 0 
-0.393243 -2.3579 0 
-0.180256 -2.35789 0 
0.0323765 -2.35727 0 
0.244686 -2.35692 0 
0.456926 -2.35692 0 
0.669206 -2.35667 0 
0.881318 -2.35598 0 
1.09315 -2.35559 0 
1.305 -2.35583 0 
1.51709 -2.35595 0 
1.72919 -2.35571 0 
1.9412 -2.35566 0 
2.15334 -2.3558 0 
2.36559 -2.3556 0 
2.57772 -2.35522 0 
2.78976 -2.35507 0 
3.0019 -2.35461 0 
3.21373 -2.35451 0 
3.42571 -2.35439 0 
3.63769 -2.35431 0 
3.84965 -2.35453 0 
4.06183 -2.35491 0 
4.27435 -2.35507 0 
4.48707 -2.35507 0 
4.70017 -2.35506 0 
4.91376 -2.35498 0 
5.12819 -2.35502 0 
5.34378 -2.35528 0 
5.56106 -2.35662 0 
5.78097 -2.35971 0 
6.00401 -2.36251 0 
6.2308 -2.3624 0 
6.45748 -2.35551 0 
6.68075 -2.33423 0 
6.88797 -2.39744 0 
7.05313 -2.27289 0 
7.24377 -2.40237 0 
7.48542 -2.36016 0 
7.73055 -2.36599 0 
7.99177 -2.33552 0 
8.24864 -2.40698 0 
8.48528 -2.28345 0 
-8.48528 -2.03355 0 
-8.25312 -2.18214 0 
-8.03669 -2.07913 0 
-7.83956 -2.18231 0 
-7.6106 -2.12852 0 
-7.38852 -2.10959 0 
-7.16268 -2.14097 0 
-6.9229 -2.1435 0 
-6.70119 -2.12055 0 
-6.48111 -2.11285 0 
-6.26282 -2.11284 0 
-6.045 -2.1151 0 
-5.82775 -2.11658 0 
-5.61153 -2.11776 0 
-5.3962 -2.1192 0 
-5.18144 -2.1203 0 
-4.96732 -2.12084 0 
-4.75387 -2.12105 0 
-4.54086 -2.12091 0 
-4.32822 -2.12045 0 
-4.11596 -2.12045 0 
-3.90382 -2.12107 0 
-3.69156 -2.12116 0 
-3.47938 -2.12058 0 
-3.26746 -2.12068 0 
-3.05542 -2.12154 0 
-2.84307 -2.12198 0 
-2.63064 -2.12162 0 
-2.41836 -2.12087 0 
-2.20626 -2.12031 0 
-1.99426 -2.12034 0 
-1.78217 -2.1207 0 
-1.56989 -2.12074 0 
-1.35755 -2.11993 0 
-1.14542 -2.11838 0 
-0.934012 -2.11859 0 
-0.722404 -2.12089 0 
-0.509943 -2.12344 0 
-0.296911 -2.12431 0 
-0.0840921 -2.12359 0 
0.128295 -2.12281 0 
0.340414 -2.12274 0 
0.552564 -2.12288 0 
0.76478 -2.12226 0 
0.976792 -2.1213 0 
1.18855 -2.12128 0 
1.40042 -2.12188 0 
1.61256 -2.12177 0 
1.82458 -2.12141 0 
2.03655 -2.12164 0 
2.24875 -2.12174 0 
2.46099 -2.12114 0 
2.67302 -2.12065 0 
2.88504 -2.12054 0 
3.09728 -2.1194 0 
3.30873 -2.11968 0 
3.52086 -2.1195 0 
3.7329 -2.11938 0 
3.94484 -2.11986 0 
4.15715 -2.12044 0 
4.36983 -2.12035 0 
4.58282 -2.1204 0 
4.79606 -2.12017 0 
5.01004 -2.12012 0 
5.22483 -2.12002 0 
5.44073 -2.12051 0 
5.6582 -2.123 0 
5.8782 -2.12696 0 
6.10217 -2.12971 0 
6.33095 -2.12707 0 
6.567 -2.11601 0 
6.82301 -2.12303 0 
7.06572 -2.04567 0 
7.29733 -2.17484 0 
7.54632 -2.11408 0 
7.79371 -2.13741 0 
8.02274 -2.07453 0 
8.25027 -2.1738 0 
8.48528 -2.0332 0 
-8.48528 -1.79671 0 
-8.25436 -1.93882 0 
-8.01299 -1.83977 0 
-7.78596 -1.953 0 
-7.5297 -1.87194 0 
-7.2756 -1.88722 0 
-7.05707 -1.93544 0 
-6.84369 -1.89677 0 
-6.62219 -1.88079 0 
-6.40169 -1.87606 0 
-6.18206 -1.87854 0 
-5.96274 -1.881 0 
-5.74458 -1.88208 0 
-5.52796 -1.88344 0 
-5.31232 -1.88506 0 
-5.09736 -1.88569 0 
-4.88338 -1.88564 0 
-4.67019 -1.88555 0 
-4.45737 -1.88507 0 
-4.24485 -1.88447 0 
-4.03271 -1.88482 0 
-3.82061 -1.88562 0 
-3.60832 -1.88529 0 
-3.39617 -1.88464 0 
-3.18427 -1.88547 0 
-2.97209 -1.88672 0 
-2.7596 -1.88684 0 
-2.54714 -1.88601 0 
-2.33483 -1.88505 0 
-2.12268 -1.8846 0 
-1.91058 -1.885 0 
-1.69824 -1.88561 0 
-1.48561 -1.88547 0 
-1.27286 -1.88413 0 
-1.06032 -1.88216 0 
-0.848858 -1.8839 0 
-0.636875 -1.88781 0 
-0.424169 -1.89034 0 
-0.211518 -1.89004 0 
0.000731944 -1.88866 0 
0.21257 -1.88788 0 
0.424308 -1.88807 0 
0.636257 -1.88793 0 
0.848362 -1.88664 0 
1.06025 -1.88556 0 
1.27191 -1.88605 0 
1.48381 -1.88664 0 
1.69595 -1.886 0 
1.90782 -1.88577 0 
2.11974 -1.88637 0 
2.33202 -1.88609 0 
2.54419 -1.88502 0 
2.75607 -1.88472 0 
2.96812 -1.88462 0 
3.18055 -1.88217 0 
3.39117 -1.88415 0 
3.60398 -1.8838 0 
3.81618 -1.88366 0 
4.02827 -1.88469 0 
4.24071 -1.88523 0 
4.4544 -1.88509 0 
4.66716 -1.88476 0 
4.88099 -1.88493 0 
5.09545 -1.88466 0 
5.31057 -1.88453 0 
5.52653 -1.88564 0 
5.7436 -1.88981 0 
5.96352 -1.89563 0 
6.18733 -1.89813 0 
6.41543 -1.89522 0 
6.65059 -1.89622 0 
6.87542 -1.86913 0 
7.11122 -1.81621 0 
7.31223 -1.94975 0 
7.53264 -1.87683 0 
7.77077 -1.89068 0 
8.01717 -1.8297 0 
8.25014 -1.93148 0 
8.48528 -1.79628 0 
-8.48528 -1.57009 0 
-8.24868 -1.70836 0 
-8.015 -1.61096 0 
-7.76734 -1.73071 0 
-7.54593 -1.61782 0 
-7.32306 -1.66278 0 
-7.05152 -1.7082 0 
-6.79786 -1.66675 0 
-6.56099 -1.64764 0 
-6.33267 -1.64541 0 
-6.10856 -1.64921 0 
-5.88638 -1.65073 0 
-5.66697 -1.65153 0 
-5.44986 -1.65353 0 
-5.23379 -1.65525 0 
-5.01882 -1.6551 0 
-4.80519 -1.6548 0 
-4.59235 -1.65478 0 
-4.37976 -1.65422 0 
-4.16737 -1.65386 0 
-3.95537 -1.65471 0 
-3.74326 -1.6554 0 
-3.5309 -1.65455 0 
-3.31876 -1.65426 0 
-3.10682 -1.65593 0 
-2.89443 -1.65705 0 
-2.68177 -1.65644 0 
-2.46924 -1.65516 0 
-2.25682 -1.65408 0 
-2.04447 -1.65386 0 
-1.83202 -1.65455 0 
-1.61911 -1.65506 0 
-1.40572 -1.65429 0 
-1.19212 -1.65207 0 
-0.97885 -1.64982 0 
-0.767325 -1.65372 0 
-0.555434 -1.6581 0 
-0.343588 -1.65935 0 
-0.132061 -1.65818 0 
0.0792288 -1.65687 0 
0.290417 -1.65682 0 
0.501823 -1.6575 0 
0.713729 -1.65709 0 
0.925861 -1.65545 0 
1.13768 -1.65488 0 
1.34929 -1.65604 0 
1.56128 -1.6563 0 
1.77337 -1.65516 0 
1.985 -1.65561 0 
2.19698 -1.65642 0 
2.40939 -1.65525 0 
2.62143 -1.65394 0 
2.83323 -1.65414 0 
3.04553 -1.65355 0 
3.25842 -1.64868 0 
3.46746 -1.65522 0 
3.68272 -1.65284 0 
3.89574 -1.65288 0 
4.10731 -1.65378 0 
4.32287 -1.65565 0 
4.53627 -1.65249 0 
4.74932 -1.65397 0 
4.96428 -1.65355 0 
5.17935 -1.65257 0 
5.3944 -1.65202 0 
5.60927 -1.65354 0 
5.82513 -1.66019 0 
6.04295 -1.66711 0 
6.26383 -1.66843 0 
6.48537 -1.66776 0 
6.70098 -1.65646 0 
6.91299 -1.6206 0 
7.11709 -1.6046 0 
7.3526 -1.69716 0 
7.60698 -1.65764 0 
7.8325 -1.64214 0 
8.05985 -1.58842 0 
8.2608 -1.69223 0 
8.48528 -1.56961 0 
-8.48528 -1.35019 0 
-8.24958 -1.48044 0 
-8.0219 -1.3751 0 
-7.79713 -1.50391 0 
-7.58956 -1.39834 0 
-7.36199 -1.38754 0 
-7.16079 -1.49923 0 
-6.93764 -1.46284 0 
[...]
POINT_DATA 2054 
VECTORS vectors float
0.00187383 -0.00386356 0.999991 
0.00280914 -0.0110256 0.999935 
0.00282056 -0.00957149 0.99995 
0.00285457 -0.00769521 0.999966 
0.00253845 -0.00526187 0.999983 
0.00256752 -0.00255034 0.999993 
0.00252248 -0.00259526 0.999993 
0.00249653 -0.00523927 0.999983 
0.00247934 -0.00858723 0.99996 
0.00245636 -0.00986185 0.999948 
0.00244074 -0.00864977 0.99996 
0.00240483 -0.00491097 0.999985 
0.00239334 0.000814893 0.999997 
0.00239413 0.00711169 0.999972 
0.00238945 0.0139911 0.999899 
0.00238664 0.021235 0.999772 
0.0023702 0.029144 0.999572 
0.00236463 0.0375191 0.999293 
0.00235878 0.0457006 0.998952 
0.00234903 0.0533107 0.998575 
0.00232746 0.0605236 0.998164 
0.00229115 0.0681379 0.997673 
0.00224084 0.0768337 0.997041 
0.00217378 0.0873229 0.996178 
0.00209362 0.0998323 0.995002 
0.00199671 0.114219 0.993454 
0.00188493 0.129974 0.991516 
0.00175938 0.146149 0.989261 
0.00162435 0.161455 0.986879 
0.00148482 0.174383 0.984677 
0.00134405 0.183588 0.983002 
0.00120753 0.188151 0.982139 
0.00108169 0.187859 0.982195 
0.000973563 0.183262 0.983064 
0.000886918 0.175602 0.984461 
0.000823748 0.166678 0.986011 
0.000783836 0.158526 0.987355 
0.000763899 0.153153 0.988202 
0.000755944 0.152471 0.988308 
0.000747974 0.158411 0.987373 
0.000725872 0.1731 0.984904 
0.000676951 0.198959 0.980008 
0.000589538 0.238701 0.971093 
0.000450043 0.295259 0.955417 
0.000244409 0.371467 0.928446 
-3.23766e-05 0.46932 0.883028 
-0.00036067 0.588253 0.808677 
-0.000689882 0.7221 0.691788 
-0.000944119 0.854862 0.518854 
-0.00104231 0.958505 0.285075 
-0.000971416 0.99998 0.00627545 
-0.000835848 0.960432 -0.278512 
-0.000790515 0.850953 -0.525241 
-0.000909004 0.705093 -0.709114 
-0.00114917 0.556932 -0.830557 
-0.00142694 0.427126 -0.904191 
-0.00168345 0.322859 -0.946446 
-0.00188678 0.243049 -0.970012 
-0.00203857 0.183131 -0.983086 
-0.00214425 0.138152 -0.990409 
-0.00221648 0.103663 -0.99461 
-0.00226701 0.0767249 -0.99705 
-0.002306 0.0554942 -0.998456 
-0.00234301 0.0390269 -0.999235 
-0.00236271 0.0260947 -0.999657 
-0.00237458 0.0155875 -0.999876 
-0.00237528 0.006959 -0.999973 
-0.0024023 -0.000235026 -0.999997 
-0.0024248 -0.0049209 -0.999985 
-0.00246875 -0.0066955 -0.999975 
-0.00244837 -0.00599152 -0.999979 
-0.00251367 -0.00354507 -0.999991 
-0.00250962 -0.00163757 -0.999996 
-0.00257835 -0.00235201 -0.999994 
-0.00253261 -0.00536228 -0.999982 
-0.00285499 -0.00788147 -0.999965 
-0.00281605 -0.00986276 -0.999947 
-0.00282072 -0.0113047 -0.999932 
-0.00186688 -0.00384901 -0.999991 
-0.000699511 -0.00301963 0.999995 
0.00302788 -0.00927231 0.999952 
0.00364871 -0.00950957 0.999948 
0.00501074 -0.00895909 0.999947 
0.00537149 -0.00573182 0.999969 
0.00530723 -0.00429235 0.999977 
0.00564551 -0.00291433 0.99998 
0.00556134 -0.00339213 0.999979 
0.00542395 -0.00554529 0.99997 
0.00532146 -0.00738251 0.999959 
0.00537202 -0.00747611 0.999958 
0.00539895 -0.00538686 0.999971 
0.00548351 -0.0012355 0.999984 
0.00569503 0.00435632 0.999974 
0.00564966 0.0108462 0.999925 
0.00536388 0.017857 0.999826 
0.00495575 0.0254179 0.999665 
0.00427553 0.0334597 0.999431 
0.00313837 0.0416511 0.999127 
0.00151638 0.0497975 0.998758 
-0.000722172 0.0578978 0.998322 
-0.00378683 0.0663612 0.997788 
-0.00785715 0.0759069 0.997084 
-0.0131971 0.0871865 0.996105 
-0.0201209 0.100565 0.994727 
-0.0290104 0.116064 0.992818 
-0.040292 0.133272 0.99026 
-0.0542909 0.151271 0.987 
-0.071095 0.168694 0.983101 
-0.0904418 0.183876 0.97878 
-0.111655 0.195159 0.974395 
-0.133657 0.201234 0.970382 
-0.155086 0.201481 0.967137 
-0.174463 0.196198 0.964919 
-0.190198 0.186553 0.963858 
-0.200887 0.174465 0.963954 
-0.206021 0.162298 0.964995 
-0.206165 0.152506 0.96656 
-0.202469 0.147411 0.96813 
-0.196028 0.149116 0.969194 
-0.187792 0.159672 0.969143 
-0.178779 0.181253 0.96705 
-0.170169 0.216226 0.961399 
-0.162971 0.267117 0.949784 
-0.15764 0.336512 0.928391 
-0.154136 0.426501 0.891257 
-0.152212 0.53768 0.829296 
-0.151027 0.666333 0.730199 
-0.148807 0.800766 0.580199 
-0.143151 0.917826 0.370274 
-0.131977 0.985416 0.107411 
-0.11481 0.977412 -0.177438 
-0.0936984 0.893153 -0.439884 
-0.0724221 0.75922 -0.646792 
-0.0540208 0.610955 -0.78982 
-0.039753 0.474104 -0.879571 
-0.0294387 0.360423 -0.932324 
-0.0222482 0.271532 -0.962172 
-0.0173213 0.204118 -0.978793 
-0.0139435 0.15344 -0.98806 
-0.0116259 0.114991 -0.993299 
-0.0100385 0.0853668 -0.996299 
-0.00889567 0.0623111 -0.998017 
-0.00801104 0.0442718 -0.998987 
-0.00737123 0.0300351 -0.999522 
-0.00686117 0.0185735 -0.999804 
-0.0061976 0.00922377 -0.999938 
-0.00563225 0.00192393 -0.999982 
-0.00536767 -0.00274009 -0.999982 
-0.00549041 -0.00476319 -0.999974 
-0.00510782 -0.00402701 -0.999979 
-0.00592708 -0.00258319 -0.999979 
-0.00593343 -0.00232367 -0.99998 
-0.00565638 -0.00398757 -0.999976 
-0.0053 -0.00579553 -0.999969 
-0.00492054 -0.0092211 -0.999945 
-0.00354194 -0.00964163 -0.999947 
-0.00349724 -0.00939918 -0.99995 
0.000663524 -0.00302209 -0.999995 
0.000344284 -0.00349309 0.999994 
0.00328716 -0.00758444 0.999966 
0.00581739 -0.0102594 0.99993 
0.00577639 -0.00571066 0.999967 
0.00674067 -0.00435735 0.999968 
0.00627375 -0.00334711 0.999975 
0.00596737 -0.0023073 0.99998 
0.00581774 -0.0027451 0.999979 
0.00543803 -0.00419271 0.999976 
0.00519667 -0.00510025 0.999973 
0.00507051 -0.00470988 0.999976 
0.00498643 -0.00233973 0.999985 
0.00501822 0.00197338 0.999985 
0.00496726 0.00768009 0.999958 
0.00465261 0.014158 0.999889 
0.00408982 0.021282 0.999765 
0.00314856 0.0290985 0.999572 
0.00148139 0.0373769 0.9993 
-0.00109767 0.0461528 0.998934 
-0.00472454 0.0554681 0.998449 
-0.00970722 0.0654536 0.997808 
-0.0164773 0.0767736 0.996912 
-0.0255252 0.0902237 0.995594 
-0.0374573 0.106305 0.993628 
-0.0530463 0.125193 0.990713 
-0.0731822 0.146664 0.986476 
-0.0987124 0.169882 0.980508 
-0.13012 0.193307 0.972472 
-0.167235 0.214787 0.962236 
-0.209021 0.231824 0.950036 
-0.253537 0.242101 0.93654 
-0.298154 0.244089 0.922781 
-0.339877 0.237505 0.909986 
-0.375672 0.223453 0.89941 
-0.402211 0.204171 0.892491 
-0.41741 0.182897 0.890122 
-0.421712 0.163329 0.891898 
-0.417432 0.14884 0.896436 
-0.407021 0.142131 0.902293 
-0.392317 0.145455 0.908257 
-0.37495 0.16078 0.912996 
-0.357094 0.190025 0.914535 
-0.341081 0.235193 0.910136 
-0.328383 0.298214 0.896233 
-0.31914 0.380869 0.867807 
-0.312967 0.483884 0.817256 
-0.309074 0.605156 0.733661 
-0.304796 0.736205 0.604236 
-0.295407 0.858694 0.418782 
-0.276159 0.944449 0.17819 
-0.244912 0.964811 -0.095702 
-0.204078 0.909302 -0.36266 
-0.160193 0.794957 -0.585133 
-0.120228 0.654 -0.74688 
-0.0877656 0.515704 -0.85226 
-0.0633891 0.395909 -0.916099 
-0.0459553 0.299669 -0.952936 
-0.0337947 0.225545 -0.973647 
-0.0254068 0.169487 -0.985205 
-0.0196107 0.127031 -0.991705 
-0.0156151 0.0945177 -0.995401 
-0.0127963 0.0694957 -0.9975 
-0.0106967 0.0500845 -0.998688 
-0.00911704 0.034753 -0.999354 
-0.00810596 0.0226855 -0.99971 
-0.00733433 0.0130198 -0.999888 
-0.00672967 0.00537774 -0.999963 
-0.00641399 0.000370279 -0.999979 
-0.00610481 -0.00215378 -0.999979 
-0.00597759 -0.00268319 -0.999979 
-0.00665154 -0.00164249 -0.999977 
-0.00572082 -0.00146439 -0.999983 
-0.00615547 -0.00120741 -0.99998 
-0.00606408 -0.00296868 -0.999977 
-0.0069646 -0.00393435 -0.999968 
-0.00614219 -0.005783 -0.999964 
-0.00581708 -0.0102834 -0.99993 
-0.0031374 -0.00775288 -0.999965 
-0.000315682 -0.00349559 -0.999994 
-2.42159e-05 -0.00321989 0.999995 
0.00283556 -0.00791304 0.999965 
0.000255953 -0.00862438 0.999963 
0.00378385 -0.00665496 0.999971 
0.00330039 -0.00376071 0.999987 
0.00257255 -0.00311441 0.999992 
0.00280942 -0.00197538 0.999994 
0.00269206 -0.000584203 0.999996 
0.00170013 -0.000977138 0.999998 
0.000924286 -0.00214566 0.999997 
0.000716267 -0.00282692 0.999996 
0.00069759 -0.00247479 0.999997 
0.000636811 4.84925e-05 1 
0.000563896 0.00466112 0.999989 
0.000319972 0.0104344 0.999946 
-0.000329589 0.0169707 0.999856 
-0.00136489 0.0244909 0.999699 
-0.00309611 0.0327747 0.999458 
-0.00597505 0.0419207 0.999103 
-0.0101891 0.0523027 0.998579 
-0.0160326 0.0639218 0.997826 
-0.0240425 0.0772318 0.996723 
-0.0349137 0.0932721 0.995028 
-0.0495509 0.112889 0.992371 
-0.0690464 0.13647 0.988235 
-0.0947403 0.16403 0.981895 
-0.128149 0.195014 0.972393 
-0.170461 0.227892 0.958649 
-0.222051 0.260015 0.939726 
-0.282046 0.287772 0.915225 
-0.348012 0.307134 0.885752 
-0.416179 0.314792 0.853054 
-0.481984 0.30914 0.819832 
-0.54075 0.290781 0.789326 
-0.588234 0.262445 0.764921 
-0.619797 0.228232 0.75084 
-0.634499 0.193621 0.748279 
-0.634955 0.163958 0.754951 
-0.625144 0.143375 0.767227 
-0.608047 0.134753 0.782381 
-0.585664 0.140163 0.798343 
-0.560567 0.161203 0.812267 
-0.535997 0.199149 0.820394 
-0.514945 0.255228 0.818346 
-0.49845 0.330434 0.801474 
-0.485798 0.425015 0.763782 
-0.476013 0.537437 0.696113 
-0.466857 0.661641 0.58675 
-0.452615 0.783374 0.425986 
-0.426217 0.879393 0.212149 
-0.383446 0.922656 -0.0409156 
-0.325761 0.896419 -0.300521 
-0.260659 0.80773 -0.5288 
-0.198069 0.682533 -0.703504 
-0.145114 0.549092 -0.823067 
-0.103836 0.428214 -0.897692 
-0.0734006 0.327182 -0.942106 
-0.0517832 0.247512 -0.9675 
-0.036691 0.186557 -0.981759 
-0.0262242 0.140257 -0.989768 
-0.0189578 0.104746 -0.994318 
-0.0139303 0.0773982 -0.996903 
-0.0103443 0.0564607 -0.998351 
-0.00769492 0.0400241 -0.999169 
-0.00582853 0.0269698 -0.999619 
-0.00452578 0.0169305 -0.999846 
-0.00350627 0.00890204 -0.999954 
-0.00289259 0.00298842 -0.999991 
-0.00258674 5.40247e-05 -0.999997 
-0.00238125 -0.000752959 -0.999997 
-0.00229834 -0.000140029 -0.999997 
-0.00297368 0.000511559 -0.999995 
-0.00179147 -0.000114679 -0.999998 
-0.00418703 -0.00265468 -0.999988 
-0.00340815 -0.00336986 -0.999989 
-0.00327394 -0.00597438 -0.999977 
-0.000459263 -0.00909674 -0.999959 
-0.00268602 -0.0081414 -0.999963 
3.16806e-05 -0.00321889 -0.999995 
-0.00011289 -0.00322139 0.999995 
0.000677087 -0.00702599 0.999975 
-3.96374e-06 -0.00770387 0.99997 
0.00171195 -0.00455943 0.999988 
0.00117313 -0.00243065 0.999996 
0.000331061 -0.00134643 0.999999 
0.000256746 0.000518296 1 
-0.000823737 0.00197666 0.999998 
-0.00198412 0.00125934 0.999997 
-0.002607 -3.63996e-05 0.999997 
-0.0026065 -0.00119441 0.999996 
-0.00266922 -0.000849128 0.999996 
-0.00282562 0.00211591 0.999994 
-0.00302673 0.00698675 0.999971 
-0.00364508 0.0127566 0.999912 
-0.00466767 0.0196868 0.999795 
-0.00614476 0.027781 0.999595 
-0.00865706 0.0369143 0.999281 
-0.0126477 0.0478187 0.998776 
-0.0184017 0.0607998 0.99798 
-0.0264627 0.0759852 0.996758 
-0.0376311 0.0944215 0.994821 
-0.0529855 0.117487 0.99166 
-0.0739173 0.146069 0.986509 
-0.102063 0.180453 0.978274 
-0.139469 0.220537 0.965356 
-0.188233 0.265249 0.945628 
-0.249633 0.311752 0.916785 
-0.323447 0.355327 0.876997 
-0.407306 0.389827 0.825916 
-0.496397 0.408987 0.765715 
-0.584489 0.408719 0.700943 
-0.665139 0.388418 0.637748 
-0.732837 0.351063 0.582842 
-0.783709 0.302417 0.542535 
-0.813913 0.2494 0.524733 
-0.825607 0.199866 0.527662 
-0.823327 0.160142 0.544506 
-0.8111 0.134397 0.569258 
-0.791154 0.12521 0.598663 
-0.76575 0.134193 0.628983 
-0.737837 0.16222 0.655195 
-0.711177 0.209731 0.671 
-0.688429 0.27683 0.670396 
-0.669418 0.362928 0.648199 
-0.652271 0.465958 0.597851 
-0.634969 0.580894 0.50929 
-0.612798 0.696641 0.373056 
-0.57757 0.794373 0.188106 
-0.523428 0.851328 -0.0355353 
-0.450946 0.849387 -0.274209 
-0.367523 0.787699 -0.494426 
-0.28443 0.684729 -0.671003 
-0.211214 0.564993 -0.797604 
-0.152454 0.448216 -0.88083 
-0.108061 0.348502 -0.931058 
-0.0756205 0.265993 -0.961004 
-0.0526732 0.201626 -0.978045 
-0.0365748 0.152396 -0.987643 
-0.0252782 0.114584 -0.993092 
-0.0173206 0.0850206 -0.996229 
-0.0117842 0.0623917 -0.997982 
-0.00775794 0.0450579 -0.998954 
-0.0047982 0.0312428 -0.9995 
-0.00281961 0.0203944 -0.999788 
-0.0013567 0.0122017 -0.999925 
-0.000153377 0.00564651 -0.999984 
0.000533511 0.00156446 -0.999999 
0.000941005 0.000671197 -0.999999 
0.00124905 0.00129181 -0.999998 
0.000858563 0.00231872 -0.999997 
0.000516007 0.00283702 -0.999996 
0.000358255 0.00123054 -0.999999 
-0.0011656 -0.00199395 -0.999997 
-0.0015504 -0.0025575 -0.999996 
-0.00168089 -0.0048204 -0.999987 
0.00032111 -0.00816177 -0.999967 
-0.000374575 -0.00731501 -0.999973 
8.28838e-05 -0.00319814 -0.999995 
6.45962e-05 -0.0031451 0.999995 
0.000291049 -0.00676617 0.999977 
-0.000426284 -0.00741849 0.999972 
0.00139285 -0.00362451 0.999992 
-0.000952425 -0.00135321 0.999999 
-0.00183903 -0.000243758 0.999998 
-0.00260284 0.00266736 0.999993 
-0.00458315 0.00440357 0.99998 
-0.00613999 0.00348149 0.999975 
-0.00659075 0.00157064 0.999977 
-0.00672146 -8.46309e-05 0.999977 
-0.00707642 0.000699316 0.999975 
-0.00738464 0.00423295 0.999964 
-0.00786259 0.00912813 0.999927 
-0.00879975 0.015145 0.999847 
-0.0100558 0.0227284 0.999691 
-0.0119455 0.0315513 0.999431 
-0.0151649 0.0422745 0.998991 
-0.0200826 0.0558544 0.998237 
-0.0271714 0.072385 0.997007 
-0.0372655 0.0925755 0.995008 
-0.0514819 0.118143 0.991661 
-0.0713566 0.150735 0.985996 
-0.0987698 0.191292 0.976551 
-0.135968 0.240034 0.961195 
-0.185736 0.296708 0.936732 
-0.25041 0.35909 0.899082 
-0.330655 0.421759 0.844267 
-0.424641 0.476479 0.769836 
-0.527143 0.513387 0.677166 
-0.63018 0.524266 0.572728 
-0.725438 0.506126 0.46645 
-0.806306 0.461949 0.369424 
-0.86916 0.39932 0.291728 
-0.913296 0.328065 0.241381 
-0.938905 0.257779 0.228051 
-0.950344 0.196922 0.240971 
-0.950993 0.15111 0.269775 
-0.943076 0.123615 0.308751 
-0.928084 0.116427 0.353701 
-0.907622 0.130538 0.398976 
-0.884117 0.166063 0.43676 
-0.860585 0.222476 0.458147 
-0.838381 0.298395 0.456156 
-0.815811 0.390946 0.426161 
-0.790046 0.494993 0.361676 
-0.75764 0.601376 0.253631 
-0.712141 0.694891 0.0999097 
-0.647078 0.757298 -0.0882597 
-0.562404 0.772922 -0.293755 
-0.464959 0.735975 -0.492092 
-0.366118 0.657649 -0.658373 
-0.276487 0.557832 -0.782546 
-0.202047 0.453677 -0.86796 
-0.14412 0.357095 -0.922883 
-0.101567 0.279099 -0.954876 
-0.0699738 0.212735 -0.974601 
-0.047739 0.161726 -0.98568 
-0.0320597 0.12271 -0.991925 
-0.0207237 0.0917801 -0.995564 
-0.0127475 0.0675242 -0.997636 
-0.00716346 0.0491549 -0.998765 
-0.00305457 0.0349938 -0.999383 
-0.000189421 0.0235698 -0.999722 
0.0015588 0.0148064 -0.999889 
0.00270615 0.00826128 -0.999962 
0.00348008 0.00323593 -0.999989 
0.00387846 0.00106047 -0.999992 
0.00421194 0.00184188 -0.999989 
0.00444201 0.00343984 -0.999984 
0.00413845 0.00484204 -0.99998 
0.00380183 0.00509206 -0.99998 
0.00315865 0.00299213 -0.999991 
0.000544515 -0.000702177 -1 
-0.000535573 -0.00215711 -0.999998 
-0.00100138 -0.00524088 -0.999986 
0.000756209 -0.00772775 -0.99997 
-0.000760566 -0.00674757 -0.999977 
-6.48689e-05 -0.00310616 -0.999995 
-0.000114405 -0.00308719 0.999995 
-0.000764363 -0.00623469 0.99998 
-0.00246007 -0.0069416 0.999973 
-0.0010772 -0.00354238 0.999993 
-0.00419007 -0.000504038 0.999991 
-0.00630932 0.00132918 0.999979 
-0.0056992 0.00322957 0.999979 
-0.00787012 0.0063502 0.999949 
-0.00999682 0.00679773 0.999927 
-0.0111204 0.00501298 0.999926 
-0.0113296 0.00227456 0.999933 
-0.0115336 0.000684964 0.999933 
-0.0119132 0.00227032 0.999926 
-0.0123059 0.00611614 0.999906 
-0.013031 0.0110179 0.999854 
-0.0141134 0.0176437 0.999745 
-0.015526 0.025887 0.999544 
-0.0178232 0.0358791 0.999197 
-0.0215267 0.0491177 0.998561 
-0.0270737 0.0661812 0.99744 
-0.0352592 0.0873475 0.995554 
-0.0471327 0.114247 0.992334 
-0.0641149 0.149137 0.986736 
-0.0881553 0.193976 0.977037 
-0.121613 0.249767 0.960639 
-0.167327 0.316642 0.93367 
-0.228413 0.393762 0.890381 
-0.306639 0.476325 0.824067 
-0.400916 0.554343 0.729363 
-0.506261 0.614279 0.605277 
-0.613603 0.642474 0.459041 
-0.712598 0.631517 0.305597 
-0.795572 0.583899 0.16164 
-0.859404 0.509604 0.0415735 
-0.905496 0.42193 -0.0453032 
-0.938169 0.333386 -0.0932353 
-0.9624 0.253708 -0.0970454 
-0.979023 0.188685 -0.0768935 
-0.989041 0.141998 -0.0404414 
-0.993219 0.116017 0.00749573 
-0.99176 0.112258 0.061724 
-0.984648 0.131233 0.115093 
-0.972342 0.172412 0.157562 
-0.955719 0.2341 0.178322 
-0.934254 0.312891 0.171082 
-0.905313 0.4033 0.13326 
-0.865592 0.497228 0.0592864 
-0.810984 0.582387 -0.0559542 
-0.737352 0.643971 -0.203997 
-0.645168 0.67057 -0.366188 
-0.539938 0.655121 -0.528472 
-0.431678 0.60115 -0.672513 
-0.331754 0.524247 -0.784286 
-0.246605 0.438806 -0.86408 
-0.177986 0.354197 -0.918077 
-0.125234 0.277437 -0.952547 
-0.0880932 0.22016 -0.971478 
-0.058538 0.16603 -0.984382 
-0.0389352 0.127243 -0.991107 
-0.0242183 0.0959703 -0.99509 
-0.0137768 0.0710969 -0.997374 
-0.0063587 0.0515304 -0.998651 
-0.00121781 0.0370701 -0.999312 
0.00263357 0.025658 -0.999667 
0.00522355 0.0165044 -0.99985 
0.0068016 0.00978438 -0.999929 
0.00784489 0.00488046 -0.999957 
0.00851194 0.00154634 -0.999963 
0.0088292 0.00121904 -0.99996 
0.00915006 0.00341956 -0.999952 
0.00920017 0.00576691 -0.999941 
0.00865709 0.00737864 -0.999935 
0.00802649 0.00643542 -0.999947 
0.00520688 0.00184184 -0.999985 
0.00357632 -0.000169418 -0.999994 
0.00229693 -0.00194242 -0.999995 
0.0019137 -0.00696273 -0.999974 
0.000704113 -0.00654079 -0.999978 
0.000104233 -0.00306343 -0.999995 
-0.000282681 -0.00307609 0.999995 
-0.00211834 -0.00577307 0.999981 
-0.00388175 -0.00612389 0.999974 
-0.00392939 -0.00205949 0.99999 
-0.00698277 0.00105283 0.999975 
-0.00933994 0.00429537 0.999947 
-0.00965915 0.00656265 0.999932 
-0.0118195 0.00931241 0.999887 
-0.0133309 0.00843534 0.999876 
-0.0139184 0.00568532 0.999887 
-0.013982 0.00225946 0.9999 
-0.0140679 0.00125844 0.9999 
-0.0143938 0.00364561 0.99989 
-0.0148709 0.00742646 0.999862 
-0.0156447 0.0126888 0.999797 
-0.0166838 0.0200424 0.99966 
-0.0182283 0.0290289 0.999412 
-0.0207575 0.0408893 0.998948 
-0.0246811 0.0572461 0.998055 
-0.0306189 0.0782671 0.996462 
-0.0395403 0.105027 0.993683 
-0.0526642 0.139983 0.988752 
-0.0716446 0.185848 0.979963 
-0.098684 0.244867 0.964521 
-0.136501 0.318037 0.9382 
-0.188197 0.405252 0.894624 
-0.256376 0.503994 0.82478 
-0.341054 0.60464 0.719787 
-0.438226 0.690659 0.575281 
-0.539157 0.743055 0.396459 
-0.632455 0.747956 0.201404 
-0.709236 0.704829 0.014128 
-0.766342 0.625549 -0.146313 
-0.806247 0.527034 -0.268701 
-0.834961 0.424691 -0.349968 
-0.860226 0.329405 -0.389234 
-0.887263 0.247925 -0.388971 
-0.911149 0.183236 -0.369095 
-0.932687 0.138339 -0.333103 
-0.95123 0.115102 -0.286205 
-0.96553 0.11445 -0.23378 
-0.973525 0.136192 -0.183579 
-0.972936 0.178888 -0.146272 
-0.961826 0.239392 -0.132598 
-0.938754 0.312311 -0.145614 
-0.901675 0.390615 -0.185478 
-0.847323 0.464784 -0.256943 
-0.773131 0.522476 -0.359566 
-0.681575 0.554167 -0.477863 
-0.579144 0.556146 -0.596065 
-0.471148 0.525653 -0.708313 
-0.368083 0.470467 -0.801982 
-0.279303 0.405564 -0.870349 
-0.205636 0.337521 -0.918582 
-0.146359 0.270555 -0.951514 
-0.10088 0.209923 -0.9725 
-0.0712563 0.171082 -0.982677 
-0.0461842 0.126839 -0.990848 
-0.0286823 0.0968347 -0.994887 
-0.01641 0.0722192 -0.997254 
-0.00751842 0.0524983 -0.998593 
-0.00123593 0.0370374 -0.999313 
0.00312331 0.0261794 -0.999652 
0.00649471 0.0168163 -0.999838 
0.00858887 0.00988396 -0.999914 
0.00997165 0.00515286 -0.999937 
0.0109447 0.00184448 -0.999938 
0.0116245 0.000392401 -0.999932 
0.0120679 0.00186141 -0.999925 
0.0123845 0.00516406 -0.99991 
0.0122935 0.00796317 -0.999893 
0.0116102 0.00945335 -0.999888 
0.0105815 0.00794401 -0.999912 
0.00823627 0.00291756 -0.999962 
0.00624921 0.000862017 -0.99998 
0.00409977 -0.00219508 -0.999989 
0.00295139 -0.00626144 -0.999976 
0.00163572 -0.00651421 -0.999977 
0.000212933 -0.003099 -0.999995 
7.15347e-05 -0.0030581 0.999995 
-0.00235894 -0.00581248 0.99998 
-0.00426659 -0.00543916 0.999976 
-0.00497559 -0.000386625 0.999988 
-0.00714842 0.00269159 0.999971 
-0.00900208 0.00646394 0.999939 
-0.0112577 0.0101439 0.999885 