# vtk DataFile Version 3.0 
Exported using Morpho https://github.com/Morpho-lang/morpho 
ASCII 
DATASET UNSTRUCTURED_GRID 

POINTS 1978 float 
-8.4903 -2.83382 1.8837e-06 
-8.2395 -2.83178 5.03677e-06 
-8.05389 -2.83505 4.34073e-06 
-7.79408 -2.8412 1.07575e-05 
-7.47577 -2.83906 6.70784e-06 
-7.20456 -2.84022 5.09424e-06 
-6.9983 -2.84366 4.77209e-06 
-6.75741 -2.84069 7.92654e-07 
-6.49836 -2.83817 4.67768e-06 
-6.329 -2.84017 -2.73666e-06 
-6.16093 -2.83592 -5.80508e-06 
-5.93349 -2.84119 4.04514e-06 
-5.71111 -2.83616 -2.29082e-06 
-5.51221 -2.8366 7.54025e-08 
-5.29449 -2.83809 1.31272e-06 
-5.08736 -2.83879 -4.12984e-06 
-4.87144 -2.83871 -5.66236e-06 
-4.66585 -2.83869 -9.30631e-06 
-4.44581 -2.8385 -1.05873e-05 
-4.223 -2.83904 -7.18112e-06 
-4.0097 -2.83438 -2.95934e-06 
-3.80743 -2.8357 6.60693e-06 
-3.60019 -2.83283 -1.58211e-07 
-3.39566 -2.83468 8.54114e-06 
-3.18303 -2.8328 1.24135e-05 
-2.97552 -2.83306 3.18291e-06 
-2.76087 -2.83063 -2.15757e-05 
-2.54622 -2.83327 -7.68291e-06 
-2.32002 -2.83579 -6.22589e-05 
-2.07078 -2.83523 -2.42114e-05 
-1.81933 -2.83094 -0.000100367 
-1.58856 -2.83277 0.000312933 
-1.38413 -2.83256 0.000138549 
-1.12177 -2.82924 0.00129379 
-0.961191 -2.82621 0.00348032 
-0.794545 -2.82697 0.0067237 
-0.705431 -2.82033 0.00788364 
-0.571361 -2.81005 0.0400584 
-0.245957 -2.74361 0.0680112 
0.0192255 -2.74476 0.0435697 
0.238278 -2.7488 -0.0715975 
0.558493 -2.80055 -0.0388587 
0.720909 -2.80853 -0.0110765 
0.845378 -2.83057 -0.00591381 
1.0314 -2.83079 -0.0016454 
1.16143 -2.83051 -0.000845896 
1.30307 -2.83376 -0.000475885 
1.54521 -2.83262 -0.000547285 
1.78693 -2.83663 8.96239e-05 
2.06144 -2.83709 1.00551e-05 
2.30286 -2.83708 -1.24376e-05 
2.53588 -2.83664 4.84671e-05 
2.75541 -2.83366 6.09234e-05 
2.98481 -2.83618 7.21508e-07 
3.20191 -2.83244 -1.70389e-05 
3.41026 -2.83364 -1.07549e-05 
3.62371 -2.83785 -1.27956e-05 
3.81795 -2.83318 1.74652e-07 
4.02703 -2.83502 2.66756e-06 
4.25014 -2.8342 8.83407e-06 
4.44732 -2.833 1.09175e-05 
4.66335 -2.83383 4.01468e-06 
4.86439 -2.83801 6.47309e-06 
5.07477 -2.83854 1.82289e-06 
5.28075 -2.84009 3.22834e-06 
5.50315 -2.83999 1.11678e-06 
5.69973 -2.83883 -5.50113e-07 
5.91494 -2.84231 -2.20493e-07 
6.14888 -2.84016 -1.02382e-06 
6.3508 -2.84436 3.19959e-06 
6.58706 -2.84272 -2.35821e-06 
6.81057 -2.84024 -1.97985e-06 
7.00725 -2.84198 -2.50476e-06 
7.2731 -2.83832 -8.18369e-06 
7.51334 -2.8378 -3.23353e-06 
7.76796 -2.83646 -1.06434e-05 
8.03917 -2.83332 -3.07076e-06 
8.2229 -2.83341 -5.59319e-06 
8.48806 -2.82963 -1.39493e-06 
-8.49012 -2.55655 -5.31306e-06 
-8.29384 -2.61511 6.37971e-06 
-8.05428 -2.5424 1.4459e-06 
-7.86321 -2.63164 -9.96806e-06 
-7.59072 -2.6711 -5.42129e-06 
-7.27748 -2.64392 8.42297e-07 
-7.01691 -2.58698 -3.96149e-06 
-6.80657 -2.62295 -4.62402e-06 
-6.55812 -2.63629 2.47572e-06 
-6.32973 -2.53672 2.38536e-06 
-6.1128 -2.61681 -1.04872e-06 
-5.88713 -2.61905 3.51603e-07 
-5.67779 -2.58971 2.83632e-06 
-5.45985 -2.61273 -8.29681e-07 
-5.245 -2.60402 7.46436e-07 
-5.02673 -2.61641 2.34703e-06 
-4.81474 -2.60359 8.4399e-06 
-4.59583 -2.61632 1.57426e-05 
-4.3639 -2.62105 1.91292e-05 
-4.14477 -2.61029 1.54466e-05 
-3.93009 -2.59771 5.81502e-06 
-3.71646 -2.60417 2.95079e-06 
-3.50189 -2.59969 9.11291e-06 
-3.28385 -2.60822 8.83e-06 
-3.06648 -2.60131 -3.84708e-06 
-2.85085 -2.6077 1.97447e-05 
-2.62587 -2.60503 3.46546e-05 
-2.39736 -2.61255 5.65752e-05 
-2.15484 -2.62796 5.6829e-05 
-1.8945 -2.62543 -1.64604e-05 
-1.64056 -2.60114 -0.000162217 
-1.42103 -2.59798 0.000474045 
-1.21461 -2.667 0.000554047 
-1.00564 -2.60889 -8.94731e-05 
-0.846582 -2.65438 -0.000225967 
-0.728628 -2.56438 -0.00364219 
-0.636788 -2.68852 -0.000299785 
-0.490264 -2.74794 0.0224953 
-0.220699 -2.69832 0.0386666 
0.0335017 -2.72789 -0.0154572 
0.262656 -2.71372 -0.0454197 
0.482713 -2.72787 -0.0156797 
0.641254 -2.68625 0.00138722 
0.7763 -2.61327 0.00132296 
0.917118 -2.65532 -0.000290791 
1.04221 -2.54969 -0.000130584 
1.28343 -2.64954 0.000298227 
1.51101 -2.6259 -0.000353333 
1.78477 -2.64834 0.000161137 
2.02959 -2.62204 3.2909e-05 
2.27493 -2.61892 -3.89953e-05 
2.50393 -2.60913 -6.7794e-05 
2.74908 -2.62066 -3.74267e-05 
2.97449 -2.61294 -2.92137e-07 
3.19146 -2.59901 1.01168e-05 
3.41989 -2.61075 -3.7018e-06 
3.62538 -2.59368 -6.00264e-06 
3.8441 -2.60562 -8.96443e-06 
4.07315 -2.62205 -1.12655e-05 
4.28179 -2.59286 -1.70226e-05 
4.49983 -2.61289 -1.3281e-05 
4.71268 -2.59797 -8.39243e-06 
4.92599 -2.61053 -5.15302e-06 
5.13898 -2.60341 -3.33099e-06 
5.36138 -2.62323 -1.82068e-06 
5.57064 -2.59424 -3.22343e-07 
5.78472 -2.6143 3.97662e-07 
6.01356 -2.62652 4.68632e-07 
6.22976 -2.58434 -1.79453e-06 
6.45029 -2.62445 -1.54531e-06 
6.68194 -2.60539 3.81581e-06 
6.89209 -2.56846 2.8108e-06 
7.1191 -2.6404 1.98998e-06 
7.37176 -2.61224 2.83637e-06 
7.62287 -2.6223 8.9247e-07 
7.88671 -2.6319 6.96002e-06 
8.08781 -2.53379 4.60929e-07 
8.31003 -2.62406 -4.94164e-06 
8.49265 -2.52911 6.00989e-06 
-8.49214 -2.3685 -4.5437e-06 
-8.20612 -2.36343 4.39878e-06 
-7.94009 -2.30985 2.89456e-06 
-7.73899 -2.44755 -3.36651e-06 
-7.59754 -2.29284 -2.61258e-07 
-7.44999 -2.48375 5.38102e-07 
-7.1843 -2.41162 3.56364e-06 
-6.94804 -2.33688 -3.74301e-06 
-6.71937 -2.41305 -9.83098e-07 
-6.50325 -2.3805 -3.12816e-06 
-6.2088 -2.34061 2.9649e-06 
-6.00378 -2.38788 1.47578e-08 
-5.79462 -2.36122 -2.20241e-07 
-5.56544 -2.36448 -5.56727e-07 
-5.35566 -2.37122 -1.36653e-06 
-5.13133 -2.37796 -3.49494e-07 
-4.92179 -2.37134 -8.33586e-07 
-4.70028 -2.3753 -2.53691e-07 
-4.47621 -2.39917 -1.10113e-06 
-4.25476 -2.38087 -1.68662e-06 
-4.03851 -2.36621 -3.34326e-06 
-3.81773 -2.36358 -5.70107e-06 
-3.60447 -2.36465 -8.92981e-06 
-3.38053 -2.37734 -1.63744e-05 
-3.16101 -2.37543 -2.03881e-05 
-2.93505 -2.37396 -2.67489e-05 
-2.71516 -2.3814 -3.97598e-05 
-2.48345 -2.3828 -6.18566e-05 
-2.246 -2.40366 -0.000101998 
-1.99836 -2.41699 -0.000145016 
-1.74099 -2.39672 -0.000247658 
-1.49051 -2.35871 -0.000413285 
-1.26707 -2.41951 -0.000166321 
-1.08724 -2.44339 -0.000821126 
-0.874057 -2.44815 -0.000754734 
-0.680574 -2.42828 0.00190631 
-0.567162 -2.58584 -0.000349142 
-0.436458 -2.67136 -0.00754593 
-0.230445 -2.64983 0.016376 
-0.0241465 -2.7022 0.0504883 
0.214818 -2.65175 -0.021231 
0.401962 -2.65257 0.00888286 
0.541996 -2.58979 0.00213886 
0.688886 -2.50012 0.00647742 
0.856776 -2.4298 0.000690736 
1.03623 -2.34498 -0.000241604 
1.23664 -2.45107 -0.000173339 
1.45759 -2.41564 0.000224696 
1.70729 -2.44774 0.000401654 
1.95827 -2.40856 0.000209561 
2.21409 -2.40043 8.56772e-05 
2.45787 -2.37566 5.72066e-05 
2.68886 -2.40514 4.33216e-05 
2.92401 -2.38371 3.0146e-05 
3.13916 -2.36547 2.30711e-05 
3.36098 -2.38606 1.50681e-05 
3.57597 -2.35187 1.50729e-05 
3.78626 -2.37177 5.58504e-06 
4.00825 -2.397 4.21579e-06 
4.22177 -2.35854 3.3116e-06 
4.44312 -2.37284 1.27325e-06 
4.64893 -2.3663 8.85887e-07 
4.86699 -2.3699 8.74619e-07 
5.07723 -2.36772 1.46549e-06 
5.29896 -2.39239 1.18293e-06 
5.51081 -2.36266 1.25156e-06 
5.7313 -2.37102 3.91982e-08 
5.94693 -2.39626 4.73772e-07 
6.16211 -2.35422 -4.1008e-07 
6.4008 -2.37189 2.57901e-08 
6.61184 -2.37925 2.496e-07 
6.83259 -2.32355 5.61366e-08 
7.0705 -2.38677 4.15288e-07 
7.28815 -2.40709 -1.1767e-06 
7.55019 -2.4004 2.53525e-06 
7.80087 -2.42055 2.75354e-06 
8.00721 -2.30525 -2.27659e-06 
8.25845 -2.35702 -5.16501e-06 
8.49184 -2.30428 5.12678e-06 
-8.49888 -2.12962 -6.87616e-06 
-8.27386 -2.17446 1.75967e-06 
-8.07435 -2.08963 -2.03725e-06 
-7.80072 -2.13177 1.90772e-06 
-7.53828 -2.06973 2.25131e-06 
-7.34062 -2.25017 -2.16611e-06 
-7.09614 -2.15006 2.04277e-06 
-6.80579 -2.14749 8.41799e-07 
-6.60319 -2.14542 6.66311e-08 
-6.36374 -2.17965 8.57464e-07 
-6.11744 -2.10127 2.98115e-07 
-5.92253 -2.1254 -4.49469e-07 
-5.69441 -2.13706 -1.84841e-08 
-5.47322 -2.11796 -5.83509e-07 
-5.25596 -2.14406 -1.74408e-07 
-5.04462 -2.12579 -5.39266e-07 
-4.82628 -2.13745 -1.16359e-07 
-4.59997 -2.15368 -1.06736e-06 
-4.3876 -2.15529 -1.72084e-06 
-4.17541 -2.13046 -2.30107e-06 
-3.9623 -2.1237 -2.27921e-06 
-3.75241 -2.11508 -5.87501e-06 
-3.53412 -2.13434 -7.79518e-06 
-3.32081 -2.13699 -1.30185e-05 
-3.1017 -2.14328 -1.27188e-05 
-2.88178 -2.13611 -1.80482e-05 
-2.65736 -2.14994 -1.96163e-05 
-2.42513 -2.15344 -3.24073e-05 
-2.18446 -2.17807 -3.94493e-05 
-1.93106 -2.18856 -7.97472e-06 
-1.67473 -2.15844 -4.44277e-05 
-1.41247 -2.13962 -0.000252026 
-1.21282 -2.17604 -9.46442e-05 
-1.02401 -2.22966 0.000367653 
-0.858639 -2.2914 -0.00195048 
-0.709086 -2.2516 0.00180365 
-0.531469 -2.46029 0.00125803 
-0.393316 -2.59799 -0.0371907 
-0.189825 -2.58828 -0.000395444 
0.0313462 -2.67763 -0.0145154 
0.298995 -2.58332 -0.00443975 
0.439123 -2.49435 0.0107764 
0.574889 -2.43103 0.00712015 
0.691632 -2.26576 0.00244147 
0.82015 -2.25938 0.00117015 
1.00156 -2.15116 -0.000592197 
1.23869 -2.23488 -6.8955e-05 
1.49765 -2.21287 0.000251408 
1.74187 -2.21964 0.000158519 
2.01142 -2.18736 5.15042e-05 
2.26835 -2.17079 4.00595e-05 
2.51785 -2.14624 3.0712e-05 
2.74537 -2.1752 1.37224e-05 
2.96498 -2.13322 1.91522e-05 
3.19367 -2.13715 8.92655e-06 
3.40063 -2.13613 6.28727e-06 
3.61596 -2.10676 7.39106e-06 
3.83372 -2.14386 3.20606e-06 
4.03894 -2.14582 2.50586e-06 
4.26863 -2.12697 1.78238e-06 
4.47512 -2.11832 1.65217e-06 
4.69422 -2.13261 1.37064e-06 
4.90479 -2.12402 9.61013e-07 
5.12775 -2.13878 5.81599e-07 
5.33783 -2.14673 -3.68797e-07 
5.56491 -2.13242 -4.92954e-08 
5.7862 -2.1358 -2.44948e-07 
5.99354 -2.14278 -5.26253e-07 
6.24391 -2.14177 -6.6261e-07 
6.4583 -2.11999 -9.64703e-07 
6.66652 -2.12266 -1.00641e-06 
6.93324 -2.1216 1.66233e-06 
7.14923 -2.14306 -8.07451e-07 
7.38133 -2.19705 -1.16698e-06 
7.5616 -2.09283 -2.9182e-06 
7.73362 -2.19962 3.07441e-06 
7.94976 -2.08918 -2.45512e-06 
8.21247 -2.13821 -2.71696e-06 
8.49417 -2.11744 4.11223e-06 
-8.4921 -1.817 -1.48655e-06 
-8.31687 -1.92011 1.29872e-06 
-7.9095 -1.91177 6.72273e-07 
-7.67706 -1.89141 -5.03333e-07 
-7.43393 -1.80617 1.4797e-06 
[...]
POINT_DATA 1978 
VECTORS vectors float
0.000736555 0.000669211 1.0022 
0.00175237 3.89893e-05 1.00361 
0.00248836 -0.000435937 1.00387 
0.00345781 -0.00126963 1.00436 
0.00457669 -0.00262635 1.00422 
0.00550629 -0.00433677 1.00405 
0.00614702 -0.00583152 1.00396 
0.00653219 -0.00769013 1.00375 
0.00670161 -0.01001 1.00367 
0.00679067 -0.0115415 1.0028 
0.00662488 -0.0128481 1.00353 
0.00655865 -0.0146384 1.00339 
0.00660099 -0.016432 1.00342 
0.00646211 -0.0182177 1.00341 
0.00637735 -0.0201469 1.00334 
0.00607127 -0.0218272 1.00327 
0.00511603 -0.0234483 1.00318 
0.0039038 -0.0249473 1.00324 
0.00232604 -0.0265497 1.00324 
0.000863599 -0.02876 1.0031 
-0.000145849 -0.0309075 1.00297 
-0.00068681 -0.0331011 1.00287 
-0.00107263 -0.0354844 1.0028 
-0.00125644 -0.0375375 1.00273 
-0.000969401 -0.0397713 1.00261 
-0.00268515 -0.041358 1.00246 
-0.00702738 -0.0401258 1.00253 
-0.0133734 -0.0354162 1.00279 
-0.0219519 -0.0249177 1.00303 
-0.0302118 -0.00878478 1.00312 
-0.0410456 0.00872158 1.00266 
-0.0545034 0.0294117 1.00137 
-0.0725912 0.0621692 0.998286 
-0.104975 0.128099 0.988717 
-0.127809 0.197326 0.974097 
-0.151428 0.295517 0.944801 
-0.154252 0.351805 0.925023 
-0.17582 0.462773 0.880194 
-0.106083 0.809187 0.568501 
-0.0935011 0.999999 -0.0157393 
0.137249 0.859525 -0.50373 
0.193483 0.478943 -0.863188 
0.15916 0.33187 -0.931642 
0.144936 0.254847 -0.957438 
0.108448 0.166812 -0.981794 
0.0931676 0.124001 -0.989653 
0.0840466 0.0854228 -0.995602 
0.0626253 0.0411174 -1.00045 
0.0464492 0.0100658 -1.0023 
0.0297061 -0.0100734 -1.00322 
0.022694 -0.0222866 -1.00317 
0.0172779 -0.0341806 -1.00287 
0.00856183 -0.0422272 -1.00265 
0.00114068 -0.0434711 -1.00249 
-0.00106304 -0.0403468 -1.00262 
-0.000232551 -0.0373376 -1.00282 
0.000955272 -0.0346159 -1.00285 
0.000940951 -0.0324877 -1.00283 
0.000144651 -0.0307232 -1.00291 
-0.00106654 -0.028595 -1.00304 
-0.00249997 -0.0268923 -1.00303 
-0.00381786 -0.0250356 -1.00305 
-0.00496182 -0.0236191 -1.00313 
-0.00562288 -0.0219325 -1.00325 
-0.0063773 -0.0203946 -1.00328 
-0.00655968 -0.0183766 -1.00335 
-0.00670668 -0.0165536 -1.00343 
-0.00668472 -0.0147303 -1.00351 
-0.00659219 -0.0128146 -1.00371 
-0.00673797 -0.0111483 -1.0038 
-0.00661486 -0.00915117 -1.0038 
-0.0063861 -0.00730358 -1.00391 
-0.00603109 -0.00582062 -1.00391 
-0.00531052 -0.0039413 -1.00394 
-0.00454116 -0.00256583 -1.00414 
-0.00362843 -0.00127526 -1.00429 
-0.002542 -0.000350581 -1.00401 
-0.00179304 0.000121921 -1.00371 
-0.000760639 0.000600603 -1.00237 
0.000247124 -0.000588716 1.00366 
0.00110471 -0.000609415 1.00529 
0.00179866 -0.00151347 1.00651 
0.00267829 -0.00169971 1.00654 
0.0036286 -0.00263783 1.00724 
0.00443607 -0.00433327 1.00656 
0.00472973 -0.0061304 1.00656 
0.00520481 -0.00748475 1.00631 
0.00554052 -0.00940413 1.00619 
0.00509132 -0.0110552 1.00696 
0.00540294 -0.0128904 1.00607 
0.00532795 -0.0145416 1.00583 
0.00508269 -0.0162105 1.00594 
0.00506881 -0.017986 1.00589 
0.00475717 -0.0194463 1.0058 
0.00433925 -0.0209605 1.00568 
0.003389 -0.0221183 1.00574 
0.00218576 -0.0236705 1.00574 
0.000457377 -0.0257205 1.00568 
-0.000998058 -0.0280978 1.00559 
-0.0021543 -0.0304711 1.00546 
-0.0025338 -0.0331062 1.0054 
-0.00274581 -0.0357033 1.0053 
-0.00271507 -0.0374497 1.00519 
-0.00318894 -0.0373814 1.00515 
-0.00468771 -0.0352969 1.00526 
-0.00668679 -0.0305265 1.00547 
-0.00973505 -0.0220737 1.00573 
-0.0147729 -0.00831449 1.00595 
-0.0210017 0.0109995 1.00579 
-0.0246864 0.0370031 1.00494 
-0.0305172 0.0722393 1.00228 
-0.0508598 0.116961 0.996394 
-0.0368816 0.192858 0.983802 
-0.0561937 0.269489 0.962878 
-0.000647559 0.333563 0.942691 
-0.064005 0.40617 0.912053 
-0.0993798 0.547822 0.826091 
-0.0385166 0.837681 0.535425 
0.0290487 0.992277 -0.0644803 
0.0651193 0.823398 -0.553642 
0.0977438 0.568882 -0.814453 
0.0695192 0.410392 -0.909509 
0.0286615 0.30841 -0.951801 
0.0562026 0.232844 -0.973197 
0.0220703 0.178869 -0.988505 
0.0441556 0.104889 -0.998321 
0.0350282 0.0604953 -1.00315 
0.0278154 0.0221492 -1.00525 
0.0182726 0.000857789 -1.00598 
0.0135725 -0.014089 -1.00605 
0.00989389 -0.0268989 -1.00568 
0.00570962 -0.0355088 -1.00536 
0.00250773 -0.0380292 -1.00529 
0.00174234 -0.0378552 -1.00526 
0.00201521 -0.0367226 -1.00528 
0.00236769 -0.0343717 -1.00536 
0.00227101 -0.0314102 -1.00542 
0.0013086 -0.0288699 -1.00545 
0.000143717 -0.026488 -1.00559 
-0.00146259 -0.0245878 -1.00554 
-0.00268483 -0.0228222 -1.00567 
-0.00376628 -0.0215146 -1.00572 
-0.00447434 -0.0202008 -1.00578 
-0.00506028 -0.0188377 -1.00574 
-0.00507004 -0.0171655 -1.00581 
-0.00535366 -0.0154433 -1.00584 
-0.00549116 -0.0136567 -1.00603 
-0.00527395 -0.0118707 -1.00631 
-0.00552072 -0.0102385 -1.00623 
-0.00526748 -0.00843278 -1.00633 
-0.00484689 -0.00691611 -1.00645 
-0.00478054 -0.00539864 -1.00635 
-0.00405037 -0.0039367 -1.00665 
-0.00341856 -0.0026695 -1.00672 
-0.00263583 -0.00157283 -1.00647 
-0.00176953 -0.00132459 -1.00638 
-0.00121329 -0.000607952 -1.0052 
-0.000337268 -0.000656214 -1.00361 
8.36915e-05 -0.00135121 1.00388 
0.00115003 -0.00168071 1.00651 
0.00171255 -0.00237982 1.00753 
0.00260563 -0.00262696 1.00619 
0.00263386 -0.00354549 1.0069 
0.0034178 -0.00375136 1.00617 
0.00377767 -0.00525757 1.00683 
0.00380319 -0.00670893 1.00682 
0.00433577 -0.00819865 1.00654 
0.00430403 -0.00965776 1.00659 
0.0041106 -0.0117719 1.00655 
0.00429162 -0.0132467 1.00636 
0.00403077 -0.0147759 1.00635 
0.00382729 -0.0165059 1.00644 
0.00366677 -0.0179402 1.0063 
0.00332578 -0.0191334 1.0062 
0.00270258 -0.0200436 1.00622 
0.00176187 -0.0212419 1.00621 
0.000489919 -0.0233282 1.00613 
-0.00109552 -0.0257728 1.0061 
-0.00224848 -0.0284531 1.00606 
-0.00287062 -0.0314708 1.00595 
-0.0030181 -0.0341723 1.00584 
-0.00316625 -0.0364631 1.00563 
-0.00310635 -0.0366181 1.00559 
-0.00266502 -0.0349085 1.00573 
-0.00251745 -0.0306898 1.00584 
-0.00244331 -0.0233575 1.00603 
-0.00300599 -0.0125697 1.00647 
-0.00425864 0.00325731 1.00651 
-0.0023361 0.0263797 1.00622 
0.00386355 0.0604748 1.00457 
0.00525516 0.104171 1.0001 
0.0109713 0.155053 0.992558 
0.0271486 0.233805 0.973054 
0.0741363 0.334312 0.939564 
0.0219462 0.450994 0.892962 
0.00670709 0.590194 0.80707 
0.0295793 0.81331 0.559229 
-0.0966395 0.991068 0.0899287 
-0.0158788 0.854719 -0.491049 
-0.013358 0.643063 -0.754427 
-0.0165407 0.482952 -0.870427 
-0.0450052 0.349545 -0.934639 
-0.0405752 0.242308 -0.970764 
-0.0402324 0.162323 -0.99003 
0.00346716 0.117921 -0.997544 
0.00503062 0.0701169 -1.00327 
0.00887557 0.0347583 -1.00576 
0.0046408 0.00814471 -1.00659 
0.00502768 -0.00856231 -1.00658 
0.00353352 -0.0219432 -1.00628 
0.0030068 -0.0304283 -1.00591 
0.00249532 -0.0352696 -1.00581 
0.00242097 -0.0373986 -1.00567 
0.00245836 -0.0371176 -1.00557 
0.00268227 -0.0348121 -1.00569 
0.00273708 -0.0315823 -1.00581 
0.00217888 -0.028643 -1.00594 
0.00114931 -0.0260466 -1.00611 
-0.000145866 -0.0236387 -1.00609 
-0.00138026 -0.0217847 -1.0061 
-0.0024151 -0.0203977 -1.00617 
-0.00309478 -0.0193048 -1.00624 
-0.0036454 -0.0183811 -1.00617 
-0.00385952 -0.0169443 -1.00617 
-0.00399163 -0.0153632 -1.00627 
-0.0043123 -0.0136873 -1.00636 
-0.00422357 -0.0120179 -1.00657 
-0.0042499 -0.010392 -1.00655 
-0.00426209 -0.00896174 -1.00657 
-0.00390821 -0.00751174 -1.00672 
-0.00383149 -0.00597055 -1.00663 
-0.00355828 -0.00468586 -1.00676 
-0.00300191 -0.00349287 -1.00762 
-0.00240739 -0.00251359 -1.00588 
-0.00165225 -0.00220061 -1.00711 
-0.00096348 -0.00156558 -1.00622 
-0.00019364 -0.00155718 -1.00387 
-8.9665e-06 -0.0022999 1.00435 
0.000737487 -0.00227965 1.00658 
0.00113774 -0.00272492 1.00702 
0.00188654 -0.00321724 1.00767 
0.00223792 -0.00410513 1.00727 
0.00298878 -0.00470331 1.00705 
0.00302412 -0.00590902 1.00783 
0.00327975 -0.0076395 1.00702 
0.00334783 -0.00886306 1.00688 
0.00355375 -0.0104983 1.00671 
0.0032098 -0.012082 1.00685 
0.0031655 -0.0133979 1.00677 
0.00303401 -0.0149546 1.00669 
0.00279386 -0.0164652 1.0066 
0.00259817 -0.0176671 1.00648 
0.00211116 -0.0182607 1.00657 
0.00155997 -0.0192615 1.00657 
0.000702422 -0.0209987 1.00643 
-0.000363406 -0.0234311 1.00636 
-0.00153893 -0.0263454 1.00635 
-0.00231697 -0.0293336 1.0063 
-0.00247412 -0.0324379 1.0062 
-0.00248239 -0.0350484 1.00605 
-0.00213966 -0.0366931 1.00596 
-0.00139564 -0.036721 1.00594 
9.88344e-05 -0.0349086 1.00606 
0.00140477 -0.0305796 1.00627 
0.00330507 -0.022836 1.00671 
0.00547132 -0.0111936 1.00711 
0.008577 0.00479211 1.00709 
0.0170486 0.0269968 1.00662 
0.0340889 0.0593902 1.00441 
0.0512469 0.0950879 0.999006 
0.0672455 0.138978 0.992585 
0.0807102 0.203548 0.978039 
0.127709 0.244928 0.961576 
0.102701 0.437241 0.892345 
0.103009 0.615526 0.781509 
0.109425 0.847718 0.503363 
0.0245836 0.988283 -0.0639567 
-0.0827333 0.737785 -0.665724 
-0.128838 0.533591 -0.839444 
-0.113022 0.392296 -0.912742 
-0.136409 0.266408 -0.953837 
-0.106352 0.215487 -0.97249 
-0.0859387 0.130775 -0.992225 
-0.0371599 0.0981813 -0.999907 
-0.0191822 0.0539712 -1.00547 
-0.00942078 0.0238545 -1.00675 
-0.0060128 0.00075383 -1.0071 
-0.00334766 -0.0144032 -1.00681 
-0.00209789 -0.0253372 -1.00651 
-0.000386449 -0.0319964 -1.0062 
0.000619314 -0.0355342 -1.00611 
0.00137582 -0.0373405 -1.00592 
0.00189384 -0.0366949 -1.00599 
0.00223266 -0.0346617 -1.00618 
0.0023205 -0.0311362 -1.00617 
0.00180925 -0.0280241 -1.00629 
0.000888248 -0.0248279 -1.00644 
-4.88522e-05 -0.0221142 -1.00646 
-0.000980206 -0.020099 -1.00641 
-0.00164787 -0.018922 -1.0065 
-0.00219636 -0.0181291 -1.0066 
-0.00269255 -0.0172555 -1.00652 
-0.00296012 -0.0158112 -1.00662 
-0.00314436 -0.0144391 -1.00677 
-0.00324375 -0.0130721 -1.00674 
-0.00336083 -0.0112575 -1.00674 
-0.00327339 -0.00974946 -1.00685 
-0.00330685 -0.00844879 -1.00692 
-0.00309739 -0.00691165 -1.00703 
-0.0029012 -0.00579871 -1.00704 
-0.00278902 -0.00461351 -1.00637 
-0.0021675 -0.00396748 -1.00724 
-0.0020642 -0.00324711 -1.00689 
-0.0014457 -0.00291079 -1.00677 
-0.000897454 -0.0022955 -1.00647 
-0.000104213 -0.00217795 -1.00417 
3.86603e-05 -0.00304657 1.00431 
0.000468636 -0.00290524 1.00676 
0.00130752 -0.00334869 1.00637 
0.00166418 -0.00394426 1.00742 
0.00188338 -0.00480586 1.00831 
0.0024219 -0.0050865 1.0066 
0.00223294 -0.00595364 1.00724 
0.00261909 -0.00683916 1.00723 
0.00251347 -0.00805295 1.00719 
0.00274218 -0.00942031 1.00708 
0.00265808 -0.0108211 1.00702 
0.00226563 -0.0120718 1.0069 
0.00230157 -0.0134896 1.00682 
0.00214733 -0.0149009 1.00671 
0.00180679 -0.0160967 1.00669 
0.00140059 -0.016897 1.00672 
0.00096641 -0.0177125 1.00668 
0.000573268 -0.0192119 1.00662 
-0.000138377 -0.0213783 1.00656 
-0.000923473 -0.024453 1.00652 
-0.00163922 -0.027992 1.00639 
-0.00212444 -0.0313087 1.00622 
-0.0021934 -0.0342597 1.00615 
-0.00197053 -0.0361044 1.00613 
-0.000954507 -0.0364988 1.00609 
0.000982835 -0.0361101 1.00615 
0.00349217 -0.0336826 1.00637 
0.00597746 -0.0284802 1.00666 
0.0102269 -0.0197014 1.00715 
0.0159626 -0.00714751 1.00747 
0.0246723 0.00830491 1.00724 
0.0412696 0.0273283 1.00616 
0.0715038 0.0465945 1.00326 
0.094211 0.0866402 0.997116 
0.126976 0.132638 0.987161 
0.176568 0.168767 0.97167 
0.163921 0.320705 0.92736 
0.0897366 0.546163 0.838202 
0.224828 0.774639 0.578542 
-0.080844 0.994279 0.0888622 
-0.165483 0.831455 -0.466634 
-0.234249 0.54863 -0.789194 
-0.189831 0.343149 -0.921059 
-0.17027 0.182248 -0.96955 
-0.131023 0.117273 -0.98819 
-0.0938937 0.0659447 -0.999032 
-0.059714 0.0680493 -1.00181 
-0.0471574 0.0382541 -1.00431 
-0.0287334 0.0230158 -1.00667 
-0.01819 0.00295571 -1.00741 
-0.011071 -0.0130125 -1.00722 
-0.00696659 -0.023816 -1.00684 
-0.00379942 -0.0312 -1.00653 
-0.00192975 -0.0350279 -1.00631 
0.000184024 -0.0374516 -1.00608 
0.00146863 -0.0371392 -1.00616 
0.00190833 -0.0356907 -1.00623 
0.00188389 -0.0327678 -1.00621 
0.00158588 -0.0292077 -1.00625 
0.00117605 -0.0259045 -1.00645 
0.000371357 -0.0225663 -1.00655 
-0.0001235 -0.0198354 -1.0066 
-0.000605386 -0.0180455 -1.00667 
-0.00112451 -0.0171668 -1.00673 
-0.00159842 -0.016409 -1.00668 
-0.00200547 -0.0155774 -1.00663 
-0.00227656 -0.0142651 -1.00672 
-0.00237281 -0.0128572 -1.00675 
-0.00258224 -0.011555 -1.00681 
-0.00252479 -0.00998601 -1.00697 
-0.00246377 -0.00871701 -1.00699 
-0.00258461 -0.00744515 -1.00702 
-0.00231628 -0.00619699 -1.00789 
-0.00225591 -0.00519516 -1.00728 
-0.00176635 -0.00439761 -1.00748 
-0.00153176 -0.00351591 -1.00732 
-0.000952454 -0.00315413 -1.00694 
-0.000591681 -0.00273606 -1.0066 
-8.19912e-05 -0.00274984 -1.00418 
0.000271315 -0.00344996 1.00424 
0.000485845 -0.00338098 1.00678 
0.000778258 -0.00318791 1.00708 
0.00109275 -0.00371431 1.00726 
0.00138413 -0.00424246 1.00683 
0.00168477 -0.00543649 1.0073 
0.00182719 -0.0065735 1.00703 
0.00193388 -0.00740896 1.00707 
0.00205267 -0.00881955 1.00691 
0.00198584 -0.00996061 1.00689 
0.00177899 -0.0111078 1.0068 
0.00160229 -0.0125538 1.00657 
0.00147001 -0.0136969 1.00655 
0.00133149 -0.0149861 1.00652 
0.000862491 -0.0157166 1.00649 
0.000463301 -0.016616 1.00647 
0.000148078 -0.0176632 1.00645 
-0.000216711 -0.0196969 1.00642 
-0.000523239 -0.0227765 1.00631 
-0.000863781 -0.0261629 1.00616 
-0.00109797 -0.0298231 1.00596 
-0.00155396 -0.0328557 1.00577 
-0.00188172 -0.0349815 1.00572 
-0.00154576 -0.0366641 1.00572 
9.76294e-05 -0.0373838 1.00562 
0.00308085 -0.0364786 1.00577 
0.00689863 -0.0333563 1.00603 
0.0105977 -0.0281038 1.00638 
0.0169134 -0.0210667 1.00684 
0.0258024 -0.0114537 1.00716 
0.0369714 -0.000992505 1.00684 
0.0560893 0.00824098 1.00532 
0.0905399 0.0202822 1.00169 
0.118982 0.0290722 0.997057 
0.150048 0.0628616 0.991 
0.203912 0.072562 0.980865 
0.230733 0.252547 0.940915 
0.171257 0.535721 0.822793 
0.0738612 0.837591 0.521451 
0.0594448 0.994481 -0.044717 
-0.0104405 0.839185 -0.532859 
-0.156132 0.538226 -0.843994 
-0.225652 0.241645 -0.94192 
-0.196352 0.0998879 -0.979159 
-0.146653 0.0622161 -0.991825 
-0.117106 0.024897 -0.998673 
-0.079221 0.0256586 -1.00288 
-0.0525173 0.0123017 -1.00645 
-0.0337436 0.00319857 -1.00705 
-0.0227034 -0.00917972 -1.00646 
-0.0150786 -0.0199191 -1.00773 
-0.00883279 -0.0292617 -1.00649 
-0.00603941 -0.0346867 -1.00609 
-0.00257832 -0.0362157 -1.00594 
0.000162818 -0.0373596 -1.00586 
0.00127017 -0.0371327 -1.00569 
0.00151725 -0.0351228 -1.00569 
0.00116584 -0.0324337 -1.00577 
0.000863884 -0.029098 -1.00602 
0.000695819 -0.0252763 -1.00612 
0.000592284 -0.0215609 -1.0062 
0.000259783 -0.0189283 -1.00638 
-0.00013338 -0.0170839 -1.00645 
-0.000607371 -0.0160967 -1.0065 
-0.00100133 -0.0152913 -1.00645 
-0.00137194 -0.0145177 -1.0065 
-0.00165184 -0.0134222 -1.00661 
-0.00178063 -0.0120936 -1.00673 
-0.00190171 -0.0108836 -1.00684 
-0.00193455 -0.00957877 -1.00686 
-0.00187772 -0.00836298 -1.00693 
-0.00199175 -0.00728354 -1.00628 
-0.00177186 -0.00626622 -1.0071 
-0.0017464 -0.0053724 -1.00727 
-0.00140701 -0.00451467 -1.00752 
-0.00120344 -0.00383206 -1.00737 
-0.000839922 -0.00347757 -1.00703 
-0.000485944 -0.00313209 -1.00661 
-9.96828e-05 -0.0031987 -1.00405 
0.000363611 -0.0036551 1.00409 
0.000578519 -0.00363722 1.00676 
0.000793747 -0.00357285 1.00702 
0.00103874 -0.00403325 1.00793 
0.00135381 -0.00479007 1.00733 
0.00134363 -0.0053687 1.00687 
0.00148073 -0.00616124 1.00613 
0.00150555 -0.00721124 1.00751 
0.001632 -0.00815285 1.00607 
0.0014389 -0.00924398 1.00659 
0.00139586 -0.010311 1.00656 
0.00128613 -0.0115052 1.00644 
0.000997382 -0.0128326 1.00639 
0.000899315 -0.0139137 1.0063 
0.000478763 -0.014773 1.00612 
0.000157193 -0.0155033 1.00617 
-0.00026814 -0.0166483 1.00618 
-0.000455732 -0.0186866 1.00619 
-0.00069636 -0.0213898 1.00599 
-0.00078845 -0.0251068 1.00587 
-0.000673918 -0.0290889 1.00577 
-0.00102548 -0.0327007 1.00562 
-0.00124564 -0.0354533 1.00538 
-0.00140978 -0.0366692 1.00548 
-0.000283112 -0.0371246 1.0055 
0.00236309 -0.0373224 1.00549 
0.00689676 -0.0375451 1.00572 
0.0125716 -0.0354673 1.00609 
0.0189829 -0.0303334 1.00646 
0.0275536 -0.0247856 1.0067 
0.0375654 -0.018463 1.00677 
0.0541204 -0.0156174 1.00595 
0.0833869 -0.0108469 1.00324 
0.118332 -0.0238099 0.999793 
0.159226 -0.00973698 0.992454 
0.229499 0.00938848 0.977302 
0.287932 0.163543 0.945603 
0.324064 0.257699 0.9125 
0.255349 0.580853 0.788275 
-0.0491763 0.991831 0.103498 
-0.25862 0.582987 -0.783701 
-0.324689 0.233993 -0.917359 
-0.288058 0.166577 -0.945269 
-0.240416 0.0583304 -0.97189 
-0.170191 0.0134406 -0.989676 
-0.121079 -0.0222064 -0.998501 
-0.0842996 -0.00736136 -1.00318 
-0.0558821 -0.00917129 -1.00585 
-0.0379889 -0.0153349 -1.00688 
-0.0281664 -0.0195382 -1.00697 
-0.020991 -0.0281353 -1.00666 
-0.0133933 -0.0307241 -1.00569 
-0.0089471 -0.0364383 -1.00598 
-0.00460475 -0.0377075 -1.00568 
-0.000910622 -0.0381649 -1.00566 
0.000887307 -0.0379705 -1.00556 
0.00119213 -0.0365197 -1.0054 
0.000880949 -0.0338176 -1.00553 
0.00063252 -0.0308336 -1.00578 
0.000627107 -0.0267082 -1.00586 
0.000765841 -0.0228292 -1.00586 
0.000601074 -0.0192891 -1.00614 
0.000430078 -0.0170173 -1.00621 
-0.000131407 -0.0157628 -1.0062 
-0.000337561 -0.0149154 -1.00626 
-0.000751905 -0.0140854 -1.0063 
-0.000983139 -0.0130883 -1.00631 
-0.00124071 -0.0120775 -1.00646 
-0.00140409 -0.0108507 -1.00648 
-0.00139649 -0.00970644 -1.00649 
-0.00149731 -0.00837297 -1.00751 
-0.00154563 -0.00726674 -1.00692 
-0.00144834 -0.00624514 -1.00694 
-0.00136791 -0.00524626 -1.0072 
-0.00113216 -0.00459756 -1.00731 
-0.000976431 -0.00406429 -1.00728 
-0.000717307 -0.00375384 -1.00688 
-0.000484973 -0.00348787 -1.00671 
-0.000157672 -0.00355588 -1.00408 
0.000555641 -0.00390774 1.00383 
0.00068078 -0.00373093 1.00642 
0.00076973 -0.00377305 1.0069 
0.000933287 -0.00421675 1.00708 
0.00110516 -0.00459223 1.00725 
0.00116213 -0.00533366 1.00691 
0.00122297 -0.00638687 1.00679 
0.00115156 -0.00730379 1.00663 
0.00120402 -0.00822969 1.0067 
0.000977894 -0.00926868 1.00659 
0.000834764 -0.0105139 1.00643 
0.000742711 -0.0117108 1.00635 
0.00039957 -0.01284 1.00642 
0.000222225 -0.0137841 1.00676 
-0.000205545 -0.0146463 1.00563 
-0.000525492 -0.0154037 1.00689 
-0.000809537 -0.0169375 1.00567 
-0.00101655 -0.0192023 1.00659 
-0.00122554 -0.022526 1.00535 
-0.00113744 -0.0263683 1.00577 
-0.00114067 -0.0303356 1.00572 
-0.000995446 -0.03404 1.00552 
-0.00154464 -0.0365215 1.00532 
-0.00111552 -0.0386092 1.00532 
-0.00014289 -0.0389122 1.00544 
0.00248454 -0.0393748 1.00559 
0.0065254 -0.0404175 1.00581 
0.012365 -0.0400722 1.00605 
0.0202755 -0.0360478 1.00645 
0.0299922 -0.0326548 1.00668 
0.0419934 -0.0311058 1.00664 
0.0648104 -0.0324243 1.00543 
0.0895767 -0.0411171 1.00282 
0.118887 -0.061667 0.997731 
0.159827 -0.0538547 0.991315 
0.189364 -0.0748581 0.982454 
0.282221 -0.0163651 0.964964 
0.391166 0.221856 0.893337 
0.365251 0.593233 0.706415 
0.0655825 0.99941 -0.029928 
-0.356207 0.60239 -0.701619 
-0.384192 0.195398 -0.904049 
-0.282945 0.00462162 -0.962972 
-0.197621 -0.0416901 -0.98268 
-0.142166 -0.0588566 -0.994211 
-0.102117 -0.0606212 -1.00023 
-0.0879534 -0.0356408 -1.00321 
-0.0635656 -0.0324646 -1.00575 
-0.0448424 -0.0297299 -1.00642 
-0.0326988 -0.0297513 -1.00686 
-0.0222629 -0.0356133 -1.00655 
-0.0131835 -0.0383174 -1.00632 
-0.00642627 -0.040073 -1.00598 
-0.0024656 -0.0394202 -1.00558 
0.00037945 -0.0393636 -1.00545 
0.00134331 -0.0386099 -1.00542 
0.00124594 -0.036489 -1.00541 
0.00103855 -0.0332677 -1.00553 
0.00089546 -0.0299193 -1.00578 
0.00108152 -0.0262409 -1.00638 
0.00115881 -0.0222574 -1.00544 
0.00105239 -0.0190168 -1.00682 
0.000826549 -0.016557 -1.00623 
0.000389767 -0.0150165 -1.00623 
0.000173054 -0.0141931 -1.00629 
-0.00019204 -0.0135932 -1.00625 
-0.000490881 -0.0126838 -1.00561 
-0.000764591 -0.0114306 -1.00633 
-0.000839894 -0.0103311 -1.00702 
-0.0010703 -0.00922219 -1.00591 
-0.00112667 -0.00808762 -1.00673 
-0.00123261 -0.00719448 -1.00678 
-0.00115706 -0.00623164 -1.00665 
-0.00120469 -0.00549515 -1.00699 
-0.00102252 -0.00480038 -1.00707 
-0.000885699 -0.00415902 -1.00709 
-0.000731143 -0.00388142 -1.00667 
-0.00051143 -0.00370517 -1.00649 