# vtk DataFile Version 3.0 
Exported using Morpho https://github.com/Morpho-lang/morpho 
ASCII 
DATASET UNSTRUCTURED_GRID 

POINTS 1978 float 
-8.48528 -2.82843 -4.67972e-14 
-8.25554 -2.82843 -3.97537e-14 
-8.03388 -2.82843 -6.69907e-14 
-7.78676 -2.82843 -4.34466e-14 
-7.46979 -2.82843 -8.43068e-14 
-7.16812 -2.82843 -5.48287e-14 
-6.97316 -2.82843 -9.01582e-14 
-6.76019 -2.82843 4.56223e-14 
-6.55026 -2.82843 -1.42366e-14 
-6.35711 -2.82843 -2.36823e-13 
-6.16264 -2.82843 -5.15122e-14 
-5.94759 -2.82843 -8.44006e-14 
-5.73507 -2.82843 -8.51749e-14 
-5.53578 -2.82843 -1.44011e-13 
-5.31078 -2.82843 -1.24913e-13 
-5.10374 -2.82843 -1.32702e-13 
-4.89158 -2.82843 -1.67693e-13 
-4.68438 -2.82843 -3.65254e-13 
-4.47554 -2.82843 -6.54834e-13 
-4.26642 -2.82843 -1.03159e-12 
-4.06166 -2.82843 -1.70401e-12 
-3.85128 -2.82843 -2.74309e-12 
-3.65015 -2.82843 -4.76259e-12 
-3.43558 -2.82843 -7.93411e-12 
-3.22002 -2.82843 -1.25147e-11 
-3.01544 -2.82843 -1.85007e-11 
-2.80851 -2.82843 -2.89064e-11 
-2.59557 -2.82843 -5.03885e-11 
-2.37654 -2.82843 -4.27175e-11 
-2.17235 -2.82843 -6.12515e-11 
-1.96677 -2.82843 3.43903e-11 
-1.77532 -2.82843 6.27229e-10 
-1.58682 -2.82843 2.515e-09 
-1.38736 -2.82843 8.15693e-09 
-1.21764 -2.82843 2.55227e-08 
-0.994291 -2.82843 7.7392e-08 
-0.829432 -2.82843 1.47404e-07 
-0.684016 -2.82843 1.04939e-06 
-0.166137 -2.82842 8.83473e-07 
0.281215 -2.82842 -4.28622e-07 
0.830012 -2.82842 1.40082e-06 
0.620143 -2.82844 -1.89338e-06 
0.784317 -2.82843 -4.18501e-07 
0.981225 -2.82843 -7.1707e-08 
1.16325 -2.82843 -2.34428e-08 
1.34345 -2.82843 -6.71466e-09 
1.52896 -2.82843 -3.85606e-09 
1.71388 -2.82843 -1.14141e-09 
1.92882 -2.82843 -1.2117e-12 
2.16183 -2.82843 1.785e-10 
2.40324 -2.82843 1.00086e-10 
2.63057 -2.82843 4.77212e-11 
2.82353 -2.82843 2.68221e-11 
3.03585 -2.82843 2.13443e-11 
3.24852 -2.82843 9.56171e-12 
3.43103 -2.82843 6.02822e-12 
3.63623 -2.82843 4.8958e-12 
3.83869 -2.82843 2.95139e-12 
4.04369 -2.82843 1.89866e-12 
4.25096 -2.82843 8.31717e-13 
4.46602 -2.82843 8.95221e-13 
4.67451 -2.82843 2.35848e-13 
4.88303 -2.82843 2.49201e-13 
5.08745 -2.82843 9.72209e-14 
5.29347 -2.82843 1.02032e-13 
5.50501 -2.82843 1.39226e-13 
5.72126 -2.82843 1.59354e-13 
5.94206 -2.82843 1.12123e-13 
6.16651 -2.82843 8.39153e-14 
6.38523 -2.82843 7.05447e-14 
6.60255 -2.82843 4.71789e-14 
6.83241 -2.82843 8.34581e-14 
7.0477 -2.82843 7.71359e-14 
7.30226 -2.82843 6.58306e-14 
7.54246 -2.82843 5.25653e-14 
7.75893 -2.82843 1.34565e-14 
8.03317 -2.82843 5.55859e-14 
8.22621 -2.82843 7.62927e-14 
8.48528 -2.82843 3.17586e-14 
-8.48528 -2.58285 1.47783e-13 
-8.26594 -2.59249 1.578e-16 
-8.04019 -2.58085 4.50102e-16 
-7.80661 -2.608 -7.95461e-16 
-7.54775 -2.65964 1.60004e-15 
-7.2497 -2.65063 1.74157e-15 
-6.98606 -2.55395 -1.466e-14 
-6.77899 -2.59485 -7.41874e-14 
-6.56241 -2.5765 3.69746e-15 
-6.34336 -2.57373 5.01346e-14 
-6.11101 -2.59737 2.98136e-14 
-5.88417 -2.59262 4.31632e-16 
-5.6702 -2.57463 1.59936e-15 
-5.44642 -2.60659 1.1747e-15 
-5.22396 -2.59093 2.17522e-15 
-5.00597 -2.60059 6.30916e-15 
-4.78957 -2.59735 1.39436e-14 
-4.57612 -2.59981 3.37788e-14 
-4.36137 -2.59919 8.09278e-14 
-4.14861 -2.59225 1.9086e-13 
-3.93619 -2.59718 4.25702e-13 
-3.72484 -2.58586 8.73676e-13 
-3.51398 -2.60133 1.85958e-12 
-3.29053 -2.60254 3.82354e-12 
-3.06857 -2.58925 7.0879e-12 
-2.85381 -2.59213 1.34969e-11 
-2.63481 -2.59802 2.89686e-11 
-2.40433 -2.60244 7.12313e-11 
-2.1698 -2.58068 1.37475e-10 
-1.95569 -2.56389 3.11119e-10 
-1.74377 -2.57762 8.12209e-10 
-1.52921 -2.60166 2.48312e-09 
-1.33 -2.57186 6.04607e-09 
-1.12842 -2.64876 1.36823e-08 
-0.930255 -2.60189 3.10796e-08 
-0.87583 -2.38135 1.00468e-08 
-0.771658 -2.60659 4.7669e-08 
-0.582774 -2.77509 -9.43851e-09 
-0.250424 -2.71919 4.03128e-07 
-0.0556146 -2.77067 9.06221e-07 
0.304239 -2.6863 -2.20695e-07 
0.468055 -2.76948 -4.48189e-07 
0.74836 -2.65532 -6.54379e-08 
0.939301 -2.64384 -2.38762e-08 
1.13577 -2.60007 -1.0402e-08 
1.19158 -2.36365 -4.51913e-09 
1.32828 -2.59108 -4.64327e-09 
1.52717 -2.58108 -1.9005e-09 
1.75364 -2.60253 -9.41064e-10 
1.99904 -2.61938 -3.19357e-10 
2.26063 -2.62817 -1.0708e-10 
2.51035 -2.61547 -4.02188e-11 
2.74094 -2.57351 -2.07361e-11 
2.95572 -2.60351 -9.65596e-12 
3.18586 -2.60723 -4.36447e-12 
3.40568 -2.5652 -2.51464e-12 
3.60741 -2.59625 -1.11484e-12 
3.82719 -2.5942 -6.50637e-13 
4.04536 -2.59452 -3.29157e-13 
4.26592 -2.59981 -1.17759e-13 
4.48231 -2.59534 -4.98964e-14 
4.6983 -2.59695 -1.99314e-14 
4.90957 -2.59176 -9.14923e-15 
5.121 -2.59169 -5.91613e-15 
5.3357 -2.59523 -4.1664e-15 
5.555 -2.59714 -2.37511e-15 
5.77906 -2.59873 -1.2313e-15 
6.00644 -2.59944 -7.42267e-16 
6.23095 -2.59057 -1.85673e-15 
6.45178 -2.58671 -2.56754e-16 
6.68009 -2.59774 -1.42017e-15 
6.90115 -2.57957 2.51869e-16 
7.14091 -2.61643 1.8527e-17 
7.39058 -2.60359 -5.02722e-16 
7.61386 -2.57898 -2.58868e-16 
7.86216 -2.63068 -3.29039e-16 
8.06882 -2.54777 -3.28626e-16 
8.29592 -2.61811 6.82691e-17 
8.48528 -2.54079 -7.88569e-14 
-8.48528 -2.33803 5.38702e-14 
-8.2623 -2.35035 2.17312e-16 
-8.02166 -2.34842 -9.83646e-16 
-7.77946 -2.39115 9.03628e-17 
-7.55092 -2.25817 5.39895e-16 
-7.51889 -2.46976 -3.00128e-16 
-7.24368 -2.4476 -5.82185e-16 
-6.99019 -2.33521 2.87246e-16 
-6.7413 -2.3542 -2.87316e-15 
-6.49629 -2.3344 -1.52441e-15 
-6.25738 -2.36294 -2.23725e-16 
-6.0294 -2.36424 7.21838e-16 
-5.81192 -2.34351 7.12305e-16 
-5.57531 -2.35773 1.17403e-15 
-5.35972 -2.37288 2.00584e-15 
-5.12946 -2.36836 3.66918e-15 
-4.91073 -2.37384 7.24192e-15 
-4.691 -2.37137 1.58202e-14 
-4.47329 -2.37489 3.76314e-14 
-4.25569 -2.36819 8.98945e-14 
-4.03418 -2.36525 2.11537e-13 
-3.82086 -2.35813 4.58471e-13 
-3.60006 -2.35998 9.52008e-13 
-3.38367 -2.38031 1.93946e-12 
-3.15918 -2.37008 3.75976e-12 
-2.93251 -2.35582 7.21327e-12 
-2.71332 -2.36213 1.38271e-11 
-2.48628 -2.38098 2.91657e-11 
-2.25118 -2.37008 6.65739e-11 
-2.01087 -2.33353 1.50971e-10 
-1.7616 -2.33791 3.59737e-10 
-1.54449 -2.3671 8.50135e-10 
-1.29924 -2.37727 2.14322e-09 
-1.07693 -2.44704 7.77433e-09 
-1.07458 -2.2519 1.50071e-09 
-0.739001 -2.3158 1.27875e-08 
-0.661025 -2.54079 5.68525e-08 
-0.483697 -2.72183 1.07762e-07 
-0.428008 -2.61893 1.07654e-07 
-0.0819504 -2.61675 1.72567e-07 
0.265998 -2.54304 -7.64948e-08 
0.583301 -2.65282 -6.77366e-08 
0.650171 -2.48611 -3.77993e-08 
0.821543 -2.46251 -3.11018e-08 
0.997206 -2.42505 -1.21359e-08 
1.09375 -2.18418 -1.79278e-09 
1.37999 -2.35465 -2.42866e-09 
1.568 -2.31301 -1.23667e-09 
1.7529 -2.38061 -3.06952e-10 
1.98606 -2.40584 -1.53698e-10 
2.22869 -2.42669 -6.85844e-11 
2.47578 -2.40346 -3.02132e-11 
2.70443 -2.34918 -1.17658e-11 
2.93344 -2.36308 -7.15632e-12 
3.14618 -2.38784 -4.0326e-12 
3.36064 -2.34015 -1.63783e-12 
3.58981 -2.35055 -1.00092e-12 
3.79939 -2.36622 -4.86618e-13 
4.01885 -2.36953 -2.37539e-13 
4.2377 -2.37213 -1.05164e-13 
4.4535 -2.36515 -4.58992e-14 
4.66731 -2.36756 -2.01287e-14 
4.87986 -2.35913 -9.60373e-15 
5.09127 -2.35842 -5.03607e-15 
5.3045 -2.36224 -2.88492e-15 
5.51927 -2.36682 -1.75827e-15 
5.73954 -2.37072 -1.09956e-15 
5.96478 -2.37154 -6.5993e-16 
6.19035 -2.35945 -1.5655e-15 
6.41583 -2.34795 -9.43745e-16 
6.6392 -2.36224 -7.09347e-17 
6.86115 -2.33913 -1.46848e-17 
7.09092 -2.38235 -1.32959e-16 
7.32402 -2.39121 7.09731e-16 
7.56285 -2.33918 9.70953e-17 
7.79721 -2.39645 -1.75116e-17 
8.00902 -2.31491 2.42287e-17 
8.25001 -2.36065 -1.82381e-16 
8.48528 -2.31226 -9.96841e-14 
-8.48528 -2.09646 9.16265e-14 
-8.25784 -2.09738 7.12388e-17 
-8.0527 -2.11447 -9.08578e-17 
-7.80211 -2.15965 1.24221e-16 
-7.54143 -2.05027 -3.80148e-17 
-7.2926 -2.25425 -5.06426e-16 
-7.08388 -2.12824 1.64507e-16 
-6.82257 -2.12798 -5.01023e-16 
-6.59285 -2.1309 8.87438e-17 
-6.33134 -2.13088 4.71348e-16 
-6.11003 -2.13282 2.41705e-16 
-5.89315 -2.10603 1.71857e-15 
-5.66992 -2.1298 6.83292e-16 
-5.4487 -2.12667 1.07776e-15 
-5.23807 -2.14962 1.89636e-15 
-5.01719 -2.14364 3.74159e-15 
-4.80502 -2.14714 7.37455e-15 
-4.59008 -2.14658 1.56815e-14 
-4.37955 -2.14527 3.41121e-14 
-4.16302 -2.1429 7.59559e-14 
-3.95079 -2.12869 1.55691e-13 
-3.73577 -2.13045 3.29493e-13 
-3.51751 -2.13492 6.86457e-13 
-3.30536 -2.15203 1.32367e-12 
-3.08488 -2.14 2.31789e-12 
-2.86399 -2.12155 4.03905e-12 
-2.63743 -2.13951 8.2226e-12 
-2.4137 -2.15573 1.78017e-11 
-2.18039 -2.13953 4.00692e-11 
-1.89273 -2.13773 1.33107e-10 
-1.63894 -2.11699 2.22969e-10 
-1.41303 -1.93597 -4.66242e-10 
-1.41979 -2.17114 7.66788e-10 
-1.21325 -1.87713 -5.03707e-10 
-1.21331 -2.12358 -2.26314e-10 
-0.907659 -2.15542 3.69941e-10 
-0.572679 -2.25822 1.91249e-09 
-0.572852 -2.43915 3.99579e-08 
-0.24258 -2.56077 3.10736e-07 
0.0999309 -2.71965 1.35865e-07 
0.453681 -2.58136 -2.07618e-07 
0.523508 -2.39536 -1.13873e-07 
0.7307 -2.28048 -1.56334e-08 
0.898333 -2.23382 -4.79851e-09 
0.932208 -2.01123 1.19554e-09 
1.14969 -1.96232 1.1398e-09 
1.32252 -2.11194 -1.96644e-10 
1.51172 -2.06983 3.52576e-10 
1.74568 -2.12047 -1.29806e-10 
1.95723 -2.18663 -7.82167e-11 
2.2101 -2.21433 -5.80149e-11 
2.46234 -2.18811 -1.53245e-11 
2.69138 -2.12053 -5.24272e-12 
2.92032 -2.13789 -3.40239e-12 
3.1481 -2.151 -1.95887e-12 
3.38836 -2.12307 -8.80763e-13 
3.60698 -2.11698 -4.77644e-13 
3.8271 -2.14095 -2.35175e-13 
4.04433 -2.14327 -1.11582e-13 
4.25863 -2.14198 -4.86462e-14 
4.47327 -2.13536 -2.13921e-14 
4.68527 -2.1365 -1.05573e-14 
4.89804 -2.12775 -5.40634e-15 
5.11229 -2.12857 -3.02758e-15 
5.32585 -2.13038 -1.75462e-15 
5.5443 -2.13813 -1.10404e-15 
5.76749 -2.14395 -6.74761e-16 
5.99064 -2.14049 -4.03592e-16 
6.21605 -2.12664 -1.52503e-15 
6.44059 -2.11302 -8.41133e-16 
6.6581 -2.12001 -1.81514e-16 
6.89445 -2.11095 -2.7396e-16 
7.12049 -2.15315 2.83548e-16 
7.35125 -2.16038 -2.03051e-16 
7.55765 -2.08147 -1.18179e-16 
7.76707 -2.15659 9.73045e-18 
7.99198 -2.0841 -7.37974e-16 
8.23029 -2.13493 -1.65048e-16 
8.48528 -2.10135 -9.8646e-14 
-8.48528 -1.78907 1.48138e-13 
-8.31384 -1.85732 8.73758e-18 
-7.89902 -1.92457 -3.23638e-17 
[...]
POINT_DATA 1978 
VECTORS vectors float
2.97126e-06 3.82666e-05 1 
-7.93383e-07 0.000103244 1 
2.19108e-06 0.000162142 1 
-1.30326e-06 0.000228784 1 
-5.11309e-06 0.000333761 1 
-7.62604e-08 0.000451881 1 
7.70031e-06 0.000536584 1 
7.96123e-06 0.000638168 1 
9.94046e-06 0.000736291 1 
1.14028e-05 0.000858543 1 
1.27572e-05 0.000995014 1 
1.43326e-05 0.00118495 0.999999 
1.73088e-05 0.0014093 0.999999 
1.71518e-05 0.00166234 0.999999 
2.00251e-05 0.00201292 0.999998 
2.30308e-05 0.00240053 0.999997 
2.65865e-05 0.00289868 0.999996 
3.15189e-05 0.00353501 0.999994 
4.31551e-05 0.00441264 0.99999 
6.26687e-05 0.00563153 0.999984 
9.05175e-05 0.00725355 0.999974 
0.000125723 0.0094587 0.999955 
0.000153295 0.0121998 0.999926 
0.000192485 0.01598 0.999872 
0.000260534 0.02087 0.999782 
0.00032671 0.0265173 0.999648 
0.000334016 0.0336765 0.999433 
0.000327573 0.0431209 0.99907 
0.000558855 0.0563777 0.998409 
0.000568221 0.0717816 0.99742 
0.000686332 0.0918465 0.995773 
0.00133493 0.117675 0.993051 
0.00186401 0.151361 0.988477 
0.00194711 0.204374 0.978891 
0.00207111 0.268307 0.963331 
0.00368007 0.378496 0.925596 
0.0032972 0.475985 0.879447 
0.00306402 0.580762 0.814067 
0.0074059 0.952945 0.303052 
-0.00309521 0.88609 -0.463503 
-0.00248625 0.475581 -0.879669 
0.00575222 0.637182 -0.770693 
-0.00515028 0.490068 -0.871669 
-0.0028311 0.365831 -0.930677 
-0.00134595 0.281572 -0.959539 
-0.00176939 0.215108 -0.976589 
-0.00201649 0.165383 -0.986227 
-0.00135392 0.124283 -0.992246 
-0.000539445 0.0927209 -0.995692 
-0.000120116 0.0689687 -0.997619 
-0.000198683 0.0519664 -0.998649 
-0.000347087 0.0402817 -0.999188 
-0.000347661 0.0323137 -0.999478 
-0.000280036 0.025306 -0.99968 
-0.000208172 0.0198044 -0.999804 
-0.000210294 0.0161659 -0.999869 
-0.000160449 0.0127847 -0.999918 
-0.000127729 0.010086 -0.999949 
-9.18716e-05 0.00783818 -0.999969 
-5.86396e-05 0.00601645 -0.999982 
-4.51411e-05 0.00469925 -0.999989 
-3.54092e-05 0.00378981 -0.999993 
-2.96901e-05 0.00313814 -0.999995 
-2.72105e-05 0.00264293 -0.999997 
-2.47171e-05 0.00222019 -0.999998 
-2.08905e-05 0.0018395 -0.999998 
-1.64461e-05 0.00151169 -0.999999 
-1.27773e-05 0.00124224 -0.999999 
-1.13069e-05 0.00103083 -0.999999 
-1.02786e-05 0.000868678 -1 
-8.34769e-06 0.000735884 -1 
-6.78451e-06 0.000613749 -1 
-3.39038e-06 0.000510585 -1 
-1.9107e-06 0.000396986 -1 
-2.49969e-06 0.000301207 -1 
-1.33862e-06 0.000225892 -1 
-9.92406e-07 0.000143427 -1 
4.42882e-07 9.05046e-05 -1 
-2.40181e-06 1.48868e-05 -1 
6.86254e-05 8.80427e-05 1 
2.34911e-05 0.000134471 1 
-5.94074e-06 0.000187034 1 
-3.02408e-05 0.000244275 1 
-4.64127e-05 0.000318128 1 
-7.30679e-05 0.000428067 1 
-0.000134431 0.000547293 1 
-0.000141409 0.000638246 1 
-0.000186119 0.000758714 1 
-0.00020867 0.000890122 1 
-0.000223913 0.00105861 0.999999 
-0.00025809 0.00126821 0.999999 
-0.000304643 0.00150979 0.999999 
-0.000307516 0.0018128 0.999998 
-0.000367454 0.00219643 0.999998 
-0.000409659 0.00267378 0.999996 
-0.00048964 0.00330457 0.999994 
-0.000597708 0.00415124 0.999991 
-0.000767393 0.00532378 0.999986 
-0.00101314 0.00689309 0.999976 
-0.00127504 0.00892249 0.999959 
-0.00164729 0.0115856 0.999932 
-0.00194334 0.0149184 0.999887 
-0.00231575 0.0194395 0.999808 
-0.00269088 0.0250982 0.999681 
-0.0028911 0.0320689 0.999482 
-0.00311576 0.0413942 0.999138 
-0.00345248 0.0547323 0.998495 
-0.00365594 0.0721098 0.99739 
-0.00354698 0.0931916 0.995642 
-0.00318003 0.122512 0.992462 
-0.0025778 0.166418 0.986052 
-0.000657931 0.224934 0.974374 
-0.00124182 0.310227 0.950662 
0.00591927 0.412139 0.911102 
0.0396162 0.4094 0.911495 
0.0102896 0.510936 0.859557 
-0.00344506 0.67068 0.741738 
0.00938836 0.904669 0.426012 
0.00147472 0.992356 0.123399 
-0.00974834 0.879587 -0.475638 
-0.0157941 0.762758 -0.646492 
-0.00837759 0.521176 -0.853409 
-0.00365018 0.39466 -0.91882 
-0.00104556 0.298319 -0.954466 
-0.012587 0.25864 -0.965892 
0.00201283 0.224928 -0.974373 
0.00361203 0.167408 -0.985881 
0.0039976 0.11993 -0.992774 
0.00384895 0.0854812 -0.996332 
0.00357479 0.0618738 -0.998078 
0.00330332 0.0465437 -0.998911 
0.00323841 0.0358154 -0.999353 
0.0027315 0.0281026 -0.999601 
0.002339 0.0217108 -0.999762 
0.00216501 0.0170121 -0.999853 
0.00167006 0.0135207 -0.999907 
0.00136909 0.0105067 -0.999944 
0.00105756 0.00807492 -0.999967 
0.00080923 0.0061973 -0.999981 
0.000655131 0.00482975 -0.999988 
0.000541702 0.00383656 -0.999993 
0.000472614 0.0031327 -0.999995 
0.000414648 0.00259192 -0.999997 
0.000364464 0.00214911 -0.999998 
0.000324161 0.00177411 -0.999998 
0.000287973 0.00145913 -0.999999 
0.000254041 0.00120408 -0.999999 
0.000228742 0.00100752 -1 
0.000199298 0.000850733 -1 
0.000160869 0.000712658 -1 
0.000138735 0.000600188 -1 
9.52737e-05 0.000483357 -1 
7.15349e-05 0.000378461 -1 
5.0642e-05 0.000297658 -1 
2.09776e-05 0.000211653 -1 
-1.36271e-06 0.0001687 -1 
-2.8838e-05 0.000102882 -1 
-8.23947e-05 7.73735e-05 -1 
0.00010064 0.000160232 1 
3.83687e-05 0.000190897 1 
-1.09275e-05 0.000234695 1 
-5.02621e-05 0.000284584 1 
-0.000100324 0.000375507 1 
-8.18508e-05 0.00035118 1 
-0.00012857 0.000456035 1 
-0.000204104 0.000580262 1 
-0.000248689 0.000691768 1 
-0.00031004 0.000832417 1 
-0.000346186 0.000981953 1 
-0.000392641 0.00116217 0.999999 
-0.000447761 0.00137352 0.999999 
-0.00049065 0.00165188 0.999999 
-0.000530988 0.00197409 0.999998 
-0.00060114 0.00242952 0.999997 
-0.00068114 0.00301277 0.999995 
-0.000803941 0.0038231 0.999992 
-0.000985277 0.00493198 0.999987 
-0.00126243 0.00643398 0.999979 
-0.00163878 0.00840177 0.999963 
-0.00208869 0.0108255 0.999939 
-0.00261988 0.0140027 0.999899 
-0.00310268 0.0178764 0.999835 
-0.00352345 0.0229559 0.99973 
-0.00376225 0.0294637 0.999559 
-0.00384766 0.0376103 0.999285 
-0.00380223 0.048869 0.998798 
-0.00341074 0.0642587 0.997928 
-0.00226196 0.0855652 0.99633 
0.000136215 0.117507 0.993072 
0.00286161 0.157996 0.987436 
0.00908415 0.224875 0.974345 
0.0136656 0.318855 0.947705 
0.0342511 0.289202 0.956655 
0.0710623 0.470024 0.879788 
0.0275349 0.581001 0.813437 
0.00343942 0.745312 0.666707 
0.0281933 0.77192 0.635094 
0.0165883 0.984342 0.175486 
-0.0418993 0.890303 -0.453437 
-0.0140049 0.681067 -0.732087 
-0.0390043 0.573628 -0.818187 
-0.0295028 0.445984 -0.894555 
-0.0204903 0.346235 -0.937924 
-0.0384999 0.264664 -0.963572 
-0.00511833 0.197727 -0.980244 
-0.00220367 0.149752 -0.988721 
0.00177763 0.117323 -0.993092 
0.00343877 0.086188 -0.996273 
0.00411279 0.0641984 -0.997929 
0.00414397 0.0481164 -0.998833 
0.00405253 0.037118 -0.999303 
0.00384935 0.0288677 -0.999576 
0.00343774 0.0229167 -0.999732 
0.00303948 0.0182442 -0.999829 
0.00247606 0.0142026 -0.999896 
0.00199197 0.0112383 -0.999935 
0.00153911 0.00873971 -0.999961 
0.00120343 0.00676126 -0.999976 
0.000986002 0.00525215 -0.999986 
0.000839274 0.00412613 -0.999991 
0.000742613 0.00331227 -0.999994 
0.000662983 0.00270523 -0.999996 
0.000593242 0.00223542 -0.999997 
0.000533416 0.00185865 -0.999998 
0.000478882 0.00154482 -0.999999 
0.000427756 0.00128767 -0.999999 
0.000384495 0.00108525 -0.999999 
0.000338879 0.000920873 -1 
0.00028098 0.000778022 -1 
0.000236947 0.000660844 -1 
0.000174125 0.000542065 -1 
0.000125324 0.000436762 -1 
8.74115e-05 0.000351903 -1 
4.30862e-05 0.000266373 -1 
7.93751e-06 0.000228521 -1 
-4.21281e-05 0.000173149 -1 
-0.0001129 0.000152521 -1 
0.000115041 0.000244498 1 
4.44953e-05 0.0002622 1 
-4.23595e-06 0.000280596 1 
-5.53571e-05 0.000321561 1 
-0.000113586 0.000417595 1 
-0.000153501 0.000468255 1 
-0.000219329 0.00058023 1 
-0.000285926 0.000700174 1 
-0.000343204 0.000817091 1 
-0.000405789 0.000974638 0.999999 
-0.000456143 0.0011321 0.999999 
-0.000509829 0.00132165 0.999999 
-0.000554851 0.00155212 0.999999 
-0.00060509 0.00184843 0.999998 
-0.000653688 0.00221931 0.999997 
-0.000722176 0.00275298 0.999996 
-0.000806206 0.00346121 0.999994 
-0.000927775 0.00445962 0.99999 
-0.00110851 0.0057873 0.999983 
-0.00138182 0.00754166 0.999971 
-0.00172334 0.00967044 0.999952 
-0.00217087 0.0123101 0.999922 
-0.00267092 0.0156511 0.999874 
-0.00309736 0.0196405 0.999802 
-0.00322449 0.0247485 0.999689 
-0.00304501 0.031148 0.99951 
-0.00278462 0.0398509 0.999202 
-0.0020903 0.0509571 0.998699 
-0.000361206 0.0661918 0.997807 
0.00333189 0.0945679 0.995513 
0.0106213 0.128501 0.991653 
0.0326192 0.150594 0.988057 
0.0172514 0.174876 0.984439 
0.0556049 0.178907 0.982293 
0.0353399 0.221224 0.974583 
0.0695439 0.332508 0.940533 
0.122423 0.539836 0.83282 
0.0624258 0.624486 0.778537 
0.0483008 0.897999 0.437339 
-0.000177179 0.988545 -0.150923 
-0.0349064 0.741836 -0.669672 
-0.0824049 0.639479 -0.76438 
-0.0811905 0.456751 -0.885882 
-0.0607911 0.352841 -0.933706 
-0.0852572 0.273601 -0.958057 
-0.0535839 0.204357 -0.977429 
-0.0249522 0.187405 -0.981966 
-0.0167899 0.142836 -0.989604 
-0.00616618 0.109432 -0.993975 
-0.000339948 0.085502 -0.996338 
0.00231389 0.0633291 -0.99799 
0.0030533 0.0472296 -0.998879 
0.00307207 0.036255 -0.999338 
0.00331754 0.0285586 -0.999587 
0.00314753 0.0226054 -0.99974 
0.00268008 0.0177078 -0.99984 
0.00222616 0.0141322 -0.999898 
0.00181426 0.0111829 -0.999936 
0.00142887 0.00881149 -0.99996 
0.00115471 0.00687107 -0.999976 
0.000985472 0.00531894 -0.999985 
0.000882295 0.00416107 -0.999991 
0.000804747 0.00330864 -0.999994 
0.00073637 0.00267961 -0.999996 
0.000674493 0.00221376 -0.999997 
0.000616315 0.00184541 -0.999998 
0.000560672 0.00154485 -0.999999 
0.000507643 0.00130561 -0.999999 
0.000455419 0.00111417 -0.999999 
0.000400161 0.000957151 -1 
0.000339164 0.000821285 -1 
0.000274078 0.000693546 -1 
0.000205599 0.00057044 -1 
0.000147355 0.00046756 -1 
0.000102692 0.000402196 -1 
5.66583e-05 0.000321039 -1 
1.10921e-05 0.000284592 -1 
-4.45221e-05 0.000239205 -1 
-0.000124537 0.000229249 -1 
9.4684e-05 0.00035702 1 
5.25437e-05 0.000332006 1 
-3.75533e-05 0.000348308 1 
-8.36184e-05 0.000404931 1 
-0.000138673 0.000498082 1 
-0.000168103 0.000506142 1 
-0.000209873 0.000595727 1 
-0.000267754 0.000678654 1 
-0.000334817 0.000801066 1 
-0.000393335 0.000920183 1 
-0.000447207 0.00106558 0.999999 
-0.000492542 0.00121668 0.999999 
-0.000540472 0.00141846 0.999999 
-0.00058336 0.00165119 0.999999 
-0.00062397 0.00196092 0.999998 
-0.000667126 0.00236952 0.999997 
-0.000710845 0.00294527 0.999995 
-0.00076494 0.00374811 0.999993 
-0.000829703 0.00484804 0.999988 
-0.000943922 0.00632859 0.99998 
-0.00109909 0.00815216 0.999966 
-0.00132167 0.0103758 0.999945 
-0.00164924 0.0131087 0.999913 
-0.00194785 0.0164421 0.999863 
-0.00214601 0.0204428 0.999789 
-0.00187348 0.0254053 0.999676 
-0.00126774 0.03237 0.999475 
-0.000185137 0.0410245 0.999158 
0.00164273 0.0516529 0.998664 
0.00467769 0.0724883 0.997358 
0.0126754 0.0959721 0.995303 
0.0253139 0.116387 0.992881 
0.0525455 0.128122 0.990366 
0.0880696 0.186254 0.978546 
0.0713224 0.246849 0.966426 
0.115595 0.271105 0.955583 
0.116717 0.380972 0.91719 
0.176663 0.415039 0.892487 
0.0771779 0.760928 0.644229 
0.0568239 0.966714 0.24947 
-0.0663919 0.949472 -0.306748 
-0.136915 0.500096 -0.855078 
-0.126215 0.346025 -0.929697 
-0.133023 0.232826 -0.963378 
-0.0883469 0.194988 -0.976819 
-0.0684219 0.141922 -0.98751 
-0.042872 0.147622 -0.988114 
-0.0252211 0.114773 -0.993072 
-0.0127868 0.0938672 -0.995503 
-0.00500803 0.0738967 -0.997253 
-0.000834439 0.0585522 -0.998284 
0.000559727 0.0448253 -0.998995 
0.00107932 0.034441 -0.999406 
0.00180203 0.0276096 -0.999617 
0.00200345 0.0223359 -0.999749 
0.00184958 0.0180491 -0.999835 
0.00147391 0.0142676 -0.999897 
0.0012889 0.0114957 -0.999933 
0.00104252 0.00915101 -0.999958 
0.000896092 0.00718543 -0.999974 
0.000828026 0.00557814 -0.999984 
0.000795413 0.0043365 -0.99999 
0.00076301 0.00343866 -0.999994 
0.000723523 0.00277195 -0.999996 
0.000678093 0.0022862 -0.999997 
0.00063337 0.00192133 -0.999998 
0.000587441 0.00162986 -0.999999 
0.000539542 0.00139351 -0.999999 
0.000489128 0.00120288 -0.999999 
0.000433498 0.00104454 -0.999999 
0.000371936 0.000905106 -1 
0.000307883 0.000776988 -1 
0.000233952 0.000645306 -1 
0.0001715 0.000538135 -1 
0.000111274 0.000454128 -1 
5.42614e-05 0.000367528 -1 
3.78321e-06 0.000330966 -1 
-5.1448e-05 0.000299502 -1 
-0.000112424 0.000320817 -1 
4.84112e-05 0.000420414 1 
1.51604e-05 0.000395893 1 
4.09188e-06 0.000343198 1 
-4.207e-05 0.000398579 1 
-8.55173e-05 0.000452175 1 
-0.000176493 0.000585899 1 
-0.000246919 0.000690412 1 
-0.00030467 0.000779862 1 
-0.000372311 0.00090841 1 
-0.000419766 0.00102351 0.999999 
-0.000464249 0.00117202 0.999999 
-0.000505999 0.00133354 0.999999 
-0.000545135 0.00154808 0.999999 
-0.000579936 0.00180016 0.999998 
-0.000611186 0.00216266 0.999998 
-0.000635605 0.00263055 0.999996 
-0.000651256 0.00332834 0.999994 
-0.000652791 0.00427849 0.999991 
-0.000653796 0.00559776 0.999984 
-0.000663728 0.00724351 0.999974 
-0.00071236 0.00925324 0.999957 
-0.000843858 0.0117036 0.999931 
-0.000982626 0.014608 0.999893 
-0.00100626 0.0181503 0.999835 
-0.000758431 0.0222245 0.999753 
-0.000112764 0.027896 0.999611 
0.00138042 0.0351693 0.99938 
0.00385254 0.0434196 0.99905 
0.00643047 0.0576176 0.998318 
0.0124836 0.0728203 0.997267 
0.0224991 0.084275 0.996189 
0.0372393 0.0987446 0.994416 
0.0775704 0.129029 0.988602 
0.0995959 0.118026 0.988003 
0.126459 0.187013 0.974184 
0.160366 0.157029 0.974487 
0.171157 0.272898 0.946695 
0.240546 0.340378 0.909 
0.131872 0.704321 0.697525 
-0.00848588 0.993176 -0.116314 
-0.104595 0.761252 -0.639965 
-0.193719 0.566319 -0.801096 
-0.190477 0.347615 -0.918086 
-0.167974 0.186612 -0.967967 
-0.108494 0.142528 -0.983827 
-0.080245 0.100013 -0.991745 
-0.0520033 0.10312 -0.993309 
-0.0348149 0.0978345 -0.994594 
-0.0190896 0.0791617 -0.996679 
-0.00989816 0.0664634 -0.99774 
-0.00419387 0.0525082 -0.998612 
-0.0017486 0.0404197 -0.999181 
-0.000747541 0.0314523 -0.999505 
0.000251545 0.0254654 -0.999676 
0.000644035 0.0207718 -0.999784 
0.000801258 0.0168442 -0.999858 
0.000612368 0.0135928 -0.999907 
0.000596835 0.0110612 -0.999939 
0.000542566 0.00885704 -0.999961 
0.000569131 0.0069585 -0.999976 
0.000626455 0.00537888 -0.999985 
0.000664951 0.00419326 -0.999991 
0.000677067 0.00330065 -0.999994 
0.000661348 0.0026686 -0.999996 
0.000631479 0.00221013 -0.999997 
0.000598437 0.00187118 -0.999998 
0.000561808 0.0016063 -0.999999 
0.000520422 0.00139009 -0.999999 
0.000473542 0.00121187 -0.999999 
0.000419054 0.00106148 -0.999999 
0.000358544 0.000928158 -1 
0.00029042 0.000787301 -1 
0.000223431 0.000673425 -1 
0.000160989 0.000565827 -1 
0.000104864 0.000492918 -1 
5.99471e-05 0.000415397 -1 
1.85319e-05 0.000383854 -1 
-2.76307e-05 0.000361636 -1 
-7.89586e-05 0.000387523 -1 
-7.07825e-06 0.000449464 1 
-1.64654e-05 0.000431064 1 
-1.94751e-05 0.000404773 1 
-5.94849e-05 0.000457152 1 
-0.000118597 0.000520943 1 
-0.000160886 0.000614591 1 
-0.000222298 0.00069634 1 
-0.000286889 0.000805067 1 
-0.000344452 0.000898762 1 
-0.000390844 0.00102357 0.999999 
-0.000428671 0.00114001 0.999999 
-0.000464239 0.00130496 0.999999 
-0.000498085 0.00148254 0.999999 
-0.000523829 0.00171718 0.999998 
-0.000552621 0.00202302 0.999998 
-0.000560599 0.00244495 0.999997 
-0.000563463 0.00303577 0.999995 
-0.000528996 0.00386732 0.999992 
-0.000464474 0.00502452 0.999987 
-0.00036598 0.0065167 0.999979 
-0.000278417 0.00832046 0.999965 
-0.00025754 0.0105355 0.999945 
-0.000262338 0.0130451 0.999915 
-0.000197693 0.0160987 0.99987 
0.000120791 0.019576 0.999808 
0.000651873 0.0241633 0.999708 
0.00190882 0.0298651 0.999552 
0.00443917 0.0360552 0.99934 
0.00809954 0.0471743 0.998854 
0.0132444 0.0575881 0.998253 
0.0214932 0.064881 0.997662 
0.0344201 0.07319 0.996724 
0.0545975 0.0911115 0.994343 
0.0659127 0.0758026 0.994942 
0.0994237 0.0780287 0.991981 
0.149308 0.0995476 0.983767 
0.221037 0.196546 0.955255 
0.289577 0.514502 0.807114 
0.204639 0.594659 0.777498 
0.157292 0.828193 0.537918 
-0.175311 0.798632 -0.575719 
-0.28507 0.495067 -0.820758 
-0.2374 0.284118 -0.928934 
-0.21424 0.139316 -0.966795 
-0.135072 0.103125 -0.985455 
-0.0934624 0.0664257 -0.993404 
-0.0519468 0.0738626 -0.995915 
-0.0342885 0.0704843 -0.996923 
-0.0223384 0.0659331 -0.997574 
-0.0123907 0.05511 -0.998403 
-0.00675951 0.0473184 -0.998857 
-0.00397953 0.0378357 -0.999276 
-0.00241051 0.0300834 -0.999545 
-0.00110093 0.0244608 -0.9997 
-0.000525081 0.0201961 -0.999796 
-0.000135219 0.0168573 -0.999858 
-0.000118875 0.0137688 -0.999905 
-2.11933e-05 0.0110637 -0.999939 
0.000101891 0.00893312 -0.99996 
0.00027192 0.00704131 -0.999975 
0.000432951 0.00547573 -0.999985 
0.000531787 0.00424354 -0.999991 
0.000584539 0.00334979 -0.999994 
0.000589912 0.00269419 -0.999996 
0.000575768 0.00223943 -0.999997 
0.000553682 0.00190282 -0.999998 
0.00052616 0.00164515 -0.999999 
0.000493751 0.0014379 -0.999999 
0.000454405 0.00126325 -0.999999 
0.000406739 0.00111414 -0.999999 
0.000350721 0.000979617 -1 
0.000291126 0.000844044 -1 
0.000223669 0.000725801 -1 
0.000160684 0.00061412 -1 
0.000101457 0.000531173 -1 
5.5769e-05 0.000452245 -1 
2.24369e-05 0.000419298 -1 
-8.48915e-06 0.000403366 -1 
-2.84704e-05 0.00043047 -1 
-4.28982e-05 0.00044879 1 
-3.49809e-05 0.000444847 1 
-3.68871e-05 0.000444347 1 
-6.30671e-05 0.000500736 1 
-9.66927e-05 0.000528392 1 
-0.000152145 0.000644533 1 
-0.000223691 0.000750321 1 
-0.000280271 0.000855599 1 
-0.000334799 0.000949888 1 
-0.000360227 0.00105913 0.999999 
-0.000403133 0.00119078 0.999999 
-0.00042103 0.00134238 0.999999 
-0.000452302 0.00152782 0.999999 
-0.000464577 0.00175059 0.999998 
-0.000485399 0.00204071 0.999998 
-0.000481233 0.002441 0.999997 
-0.000468147 0.00299481 0.999995 
-0.000410637 0.00378381 0.999993 
-0.000302071 0.00487111 0.999988 
-0.000132983 0.00628305 0.99998 
4.8238e-05 0.00809707 0.999967 
0.000170273 0.0101634 0.999948 
0.00025753 0.0125346 0.999921 
0.000396593 0.0152028 0.999884 
0.00075021 0.018358 0.999831 
0.00129876 0.0222365 0.999752 
0.0024388 0.0267895 0.999638 
0.00482393 0.0318364 0.999481 
0.008521 0.0395178 0.999183 
0.0140263 0.0467521 0.998808 
0.0229192 0.0527279 0.998346 
0.0399792 0.0604521 0.99737 
0.0594122 0.0506911 0.996946 
0.0919199 0.0430441 0.994836 
0.145182 0.0461208 0.98833 
0.223257 0.0920118 0.970407 
0.310537 0.265566 0.912711 
0.39783 0.413986 0.818747 
0.272877 0.792415 0.545543 
0.00817172 0.999895 0.0119981 
-0.269388 0.799965 -0.536177 
-0.396768 0.439783 -0.805709 
-0.308687 0.242676 -0.919685 
-0.193082 0.0636159 -0.979118 
-0.119488 0.0453533 -0.991799 
-0.0633203 0.0290997 -0.997569 
-0.0625892 0.0581172 -0.996346 
-0.0359085 0.0505892 -0.998074 
-0.023912 0.0511007 -0.998407 
-0.0150678 0.0477762 -0.998744 
-0.00835126 0.0405525 -0.999143 
-0.00499679 0.0330505 -0.999441 
-0.00266494 0.0261008 -0.999656 
-0.00166872 0.0217805 -0.999761 
-0.00117302 0.0182904 -0.999832 
-0.000831549 0.0154191 -0.999881 
-0.000637628 0.0125078 -0.999922 
-0.000451028 0.0101917 -0.999948 
-0.000166296 0.00820394 -0.999966 
0.000109612 0.00645667 -0.999979 
0.000316666 0.00504901 -0.999987 
0.000437371 0.00393493 -0.999992 
0.000499794 0.00313786 -0.999995 
0.000508667 0.00255961 -0.999997 
0.000501945 0.00214865 -0.999998 
0.000486149 0.0018493 -0.999998 
0.000465129 0.00161869 -0.999999 
0.000439613 0.00142703 -0.999999 
0.000406628 0.00126366 -0.999999 
0.000365694 0.00111824 -0.999999 
0.000315875 0.000981292 -1 
0.000264825 0.000861251 -1 
0.000205444 0.00075685 -1 
0.000152487 0.000651394 -1 
9.68485e-05 0.000568072 -1 
5.59379e-05 0.000485982 -1 
3.08135e-05 0.000446631 -1 
1.49646e-05 0.000430313 -1 
2.08602e-05 0.000441459 -1 
-5.97764e-05 0.00043014 1 
-4.25593e-05 0.000445946 1 
-4.34448e-05 0.000469918 1 
-6.259e-05 0.000537982 1 
-0.0001007 0.000579586 1 
-0.000136567 0.000679217 1 
-0.000193811 0.000756846 1 
-0.000243644 0.00085919 1 
-0.000295616 0.000960247 1 
-0.000317177 0.00107523 0.999999 
-0.000351743 0.00120126 0.999999 
-0.000359999 0.00135102 0.999999 
-0.00038231 0.00152975 0.999999 