# vtk DataFile Version 3.0 
Exported using Morpho https://github.com/Morpho-lang/morpho 
ASCII 
DATASET UNSTRUCTURED_GRID 

POINTS 1978 float 
-8.48528 -2.82843 4.52195e-18 
-8.25554 -2.82843 3.84118e-18 
-8.03388 -2.82843 6.4722e-18 
-7.78676 -2.82843 4.19595e-18 
-7.46979 -2.82843 8.13958e-18 
-7.16812 -2.82843 5.28792e-18 
-6.97317 -2.82843 8.69855e-18 
-6.7602 -2.82843 -4.42675e-18 
-6.55026 -2.82843 1.34639e-18 
-6.35711 -2.82843 2.28341e-17 
-6.16264 -2.82843 4.89917e-18 
-5.94759 -2.82843 8.02467e-18 
-5.73507 -2.82843 8.0322e-18 
-5.53578 -2.82843 1.35795e-17 
-5.31078 -2.82843 1.15127e-17 
-5.10374 -2.82843 1.18896e-17 
-4.89158 -2.82843 1.45054e-17 
-4.68438 -2.82843 3.19402e-17 
-4.47554 -2.82843 5.6066e-17 
-4.26642 -2.82843 8.41022e-17 
-4.06166 -2.82843 1.30468e-16 
-3.85128 -2.82843 1.93913e-16 
-3.65015 -2.82843 3.09838e-16 
-3.43558 -2.82843 4.49226e-16 
-3.22002 -2.82843 6.35582e-16 
-3.01544 -2.82843 8.02607e-16 
-2.80851 -2.82843 1.01607e-15 
-2.59557 -2.82843 1.45768e-15 
-2.37654 -2.82843 -1.71607e-15 
-2.17235 -2.82843 -4.19468e-15 
-1.96677 -2.82843 -1.80183e-14 
-1.77532 -2.82843 -8.53388e-14 
-1.58682 -2.82843 -2.98409e-13 
-1.38736 -2.82843 -8.47604e-13 
-1.21763 -2.82843 -2.63445e-12 
-0.994281 -2.82843 -7.19317e-12 
-0.829441 -2.82843 -1.32915e-11 
-0.683961 -2.82843 -1.11901e-10 
-0.166095 -2.82843 -6.98624e-11 
0.281269 -2.82843 4.95703e-11 
0.829972 -2.82843 -1.35755e-10 
0.620192 -2.82843 1.71643e-10 
0.784346 -2.82843 3.926e-11 
0.98119 -2.82843 6.70984e-12 
1.16324 -2.82843 2.3418e-12 
1.34345 -2.82843 6.73679e-13 
1.52896 -2.82843 4.16466e-13 
1.71388 -2.82843 1.4796e-13 
1.92882 -2.82843 2.55515e-14 
2.16183 -2.82843 -3.20177e-15 
2.40324 -2.82843 -3.00691e-15 
2.63057 -2.82843 -1.62273e-15 
2.82354 -2.82843 -1.06097e-15 
3.03585 -2.82843 -1.12943e-15 
3.24852 -2.82843 -4.52101e-16 
3.43103 -2.82843 -3.49273e-16 
3.63623 -2.82843 -3.33949e-16 
3.83869 -2.82843 -2.12626e-16 
4.04369 -2.82843 -1.48194e-16 
4.25096 -2.82843 -6.2412e-17 
4.46602 -2.82843 -7.87979e-17 
4.67451 -2.82843 -1.91123e-17 
4.88303 -2.82843 -2.21487e-17 
5.08745 -2.82843 -8.26789e-18 
5.29347 -2.82843 -9.14097e-18 
5.50501 -2.82843 -1.29897e-17 
5.72126 -2.82843 -1.51089e-17 
5.94206 -2.82843 -1.06628e-17 
6.16651 -2.82843 -8.01109e-18 
6.38523 -2.82843 -6.76023e-18 
6.60255 -2.82843 -4.52357e-18 
6.83241 -2.82843 -8.04269e-18 
7.0477 -2.82843 -7.43923e-18 
7.30226 -2.82843 -6.3527e-18 
7.54246 -2.82843 -5.07554e-18 
7.75893 -2.82843 -1.29898e-18 
8.03317 -2.82843 -5.37025e-18 
8.22621 -2.82843 -7.37141e-18 
8.48528 -2.82843 -3.0688e-18 
-8.48528 -2.58285 -1.42772e-17 
-8.26586 -2.59387 -1.52919e-20 
-8.0393 -2.57962 -4.25794e-20 
-7.80881 -2.61301 7.80383e-20 
-7.5434 -2.65724 -1.52339e-19 
-7.24586 -2.64859 -1.63166e-19 
-6.98214 -2.55343 1.42439e-18 
-6.77916 -2.59278 7.06035e-21 
-6.55743 -2.56868 -3.42996e-19 
-6.34129 -2.57856 -4.81847e-18 
-6.11411 -2.59828 -2.83981e-18 
-5.88751 -2.5926 2.37451e-20 
-5.67438 -2.57571 -4.7346e-20 
-5.45106 -2.60601 6.76412e-20 
-5.22827 -2.59186 9.7484e-20 
-5.00951 -2.60041 -4.3744e-20 
-4.79205 -2.59728 -1.72373e-19 
-4.57745 -2.59961 -4.86857e-19 
-4.36158 -2.59965 6.93656e-18 
-4.14781 -2.59287 1.6444e-17 
-3.93498 -2.59727 3.6192e-17 
-3.7228 -2.58656 7.45682e-17 
-3.51087 -2.60135 1.55938e-16 
-3.28745 -2.60276 3.18253e-16 
-3.06495 -2.58928 5.8416e-16 
-2.84989 -2.59143 1.12504e-15 
-2.62831 -2.59945 2.46114e-15 
-2.39419 -2.59008 5.65257e-15 
-2.16743 -2.5935 1.20191e-14 
-1.95164 -2.56758 2.70791e-14 
-1.73429 -2.58241 6.79403e-14 
-1.52227 -2.60255 2.0207e-13 
-1.32908 -2.56785 5.00971e-13 
-1.13053 -2.64818 1.06091e-12 
-0.933532 -2.60511 2.79972e-12 
-0.890965 -2.3846 8.28319e-13 
-0.775609 -2.61459 4.50622e-12 
-0.572557 -2.77398 1.02547e-11 
-0.24376 -2.7169 3.64286e-11 
-0.0109194 -2.77462 -4.60089e-11 
0.334189 -2.67756 -1.5117e-11 
0.470676 -2.76724 2.78039e-11 
0.765873 -2.65822 -3.93414e-12 
0.962185 -2.63776 -1.85633e-12 
1.14545 -2.61159 -8.51853e-13 
1.18472 -2.37493 -5.18607e-13 
1.33719 -2.58874 -2.95492e-13 
1.533 -2.5736 -1.38013e-13 
1.75607 -2.6055 -7.51136e-14 
2.00347 -2.62025 -2.74365e-14 
2.25997 -2.62734 -9.68181e-15 
2.50913 -2.61654 -3.57869e-15 
2.74018 -2.57511 -1.79923e-15 
2.95443 -2.60203 -7.90385e-16 
3.18357 -2.60732 -3.55923e-16 
3.40354 -2.56997 -2.19831e-16 
3.60621 -2.59699 -9.75779e-17 
3.82519 -2.59363 -5.30477e-17 
4.04233 -2.58974 -2.47477e-17 
4.26373 -2.60102 -1.14058e-17 
4.47979 -2.59556 7.97483e-19 
4.69591 -2.59696 1.9273e-19 
4.90747 -2.59182 3.98986e-20 
5.11976 -2.59224 8.1836e-20 
5.33477 -2.59518 9.35785e-20 
5.55427 -2.5973 3.80169e-20 
5.77847 -2.59909 4.69092e-21 
6.00576 -2.59954 7.56373e-21 
6.23008 -2.59073 1.43311e-19 
6.45102 -2.58688 3.21813e-21 
6.67918 -2.59715 1.23393e-19 
6.9006 -2.57971 -3.3039e-20 
7.14055 -2.61627 -7.84919e-21 
7.39049 -2.6043 4.50994e-20 
7.61362 -2.57835 2.32678e-20 
7.86184 -2.63038 3.09722e-20 
8.06846 -2.54752 3.10508e-20 
8.29569 -2.618 -6.63777e-21 
8.48528 -2.54079 7.61765e-18 
-8.48528 -2.33803 -5.20355e-18 
-8.26452 -2.35301 -2.07583e-20 
-8.02432 -2.34815 9.53255e-20 
-7.78028 -2.39305 -7.72397e-21 
-7.54747 -2.25393 -5.09683e-20 
-7.52539 -2.46723 3.14696e-20 
-7.247 -2.44751 5.95686e-20 
-6.98513 -2.34118 -2.13231e-20 
-6.73152 -2.34989 2.89903e-19 
-6.49413 -2.33739 1.6497e-19 
-6.25624 -2.36154 4.97089e-20 
-6.02944 -2.36456 -2.28092e-20 
-5.81174 -2.34414 7.86568e-21 
-5.57733 -2.35879 1.00868e-20 
-5.36077 -2.37314 1.67551e-20 
-5.13093 -2.36888 2.47088e-20 
-4.91141 -2.37397 4.8351e-20 
-4.6909 -2.37146 1.02355e-19 
-4.47258 -2.37519 2.31877e-19 
-4.2552 -2.369 9.25172e-18 
-4.03491 -2.36503 2.15844e-17 
-3.82238 -2.35904 4.69419e-17 
-3.60177 -2.36089 9.77717e-17 
-3.38499 -2.37949 1.97539e-16 
-3.16107 -2.37132 3.85665e-16 
-2.9338 -2.35402 7.33179e-16 
-2.71447 -2.3631 1.41544e-15 
-2.4873 -2.37943 2.95219e-15 
-2.24534 -2.36878 6.81193e-15 
-2.00976 -2.33739 1.50806e-14 
-1.76424 -2.34545 3.84869e-14 
-1.54548 -2.36724 9.65219e-14 
-1.30219 -2.37278 2.24509e-13 
-1.08449 -2.44586 8.47641e-13 
-1.08207 -2.24597 6.22809e-14 
-0.740833 -2.31709 1.75241e-12 
-0.684647 -2.53052 6.49552e-12 
-0.48161 -2.721 3.55881e-12 
-0.446431 -2.61321 9.94995e-12 
-0.0714379 -2.6308 2.63304e-11 
0.24866 -2.55885 -1.40694e-11 
0.607564 -2.64669 -5.23749e-12 
0.648689 -2.46047 -4.96579e-12 
0.817361 -2.48117 -3.09711e-12 
0.995482 -2.41855 -1.32307e-12 
1.11317 -2.17594 -2.7768e-13 
1.37407 -2.34469 -2.52499e-13 
1.56736 -2.31504 -1.30903e-13 
1.76079 -2.37748 -3.08799e-14 
1.98359 -2.41282 -1.53729e-14 
2.23511 -2.42122 -6.5394e-15 
2.47822 -2.40573 -3.32537e-15 
2.70546 -2.35183 -1.19424e-15 
2.93703 -2.36137 -7.35398e-16 
3.14944 -2.38661 -4.09959e-16 
3.36261 -2.34358 -1.68867e-16 
3.58916 -2.353 -1.02254e-16 
3.79767 -2.36704 -5.00493e-17 
4.01717 -2.36279 -2.40092e-17 
4.23669 -2.37349 -1.08361e-17 
4.45257 -2.36562 -3.44056e-19 
4.66671 -2.36795 -1.33885e-19 
4.88005 -2.35918 -5.61791e-20 
5.09187 -2.35956 -2.83767e-20 
5.30548 -2.36232 -1.88562e-20 
5.52038 -2.36698 -1.24861e-20 
5.74045 -2.3712 -6.59014e-21 
5.96532 -2.37176 -4.0358e-21 
6.19062 -2.35944 1.10545e-19 
6.41575 -2.34838 6.57337e-20 
6.63903 -2.36151 -8.45097e-21 
6.86142 -2.33958 -9.93302e-21 
7.09142 -2.38254 7.46799e-21 
7.32476 -2.39169 -7.22851e-20 
7.5627 -2.33854 -1.18007e-20 
7.79716 -2.39577 6.7459e-22 
8.00859 -2.31439 -2.78453e-21 
8.24965 -2.36044 1.75661e-20 
8.48528 -2.31226 9.62982e-18 
-8.48528 -2.09646 -8.8516e-18 
-8.25454 -2.09802 -7.14972e-21 
-8.05021 -2.11402 8.82599e-21 
-7.80073 -2.1641 -1.12815e-20 
-7.54271 -2.04498 4.80101e-21 
-7.28966 -2.25524 5.24577e-20 
-7.0835 -2.13271 -1.16654e-20 
-6.823 -2.13136 5.55664e-20 
-6.58903 -2.12363 2.31519e-21 
-6.33768 -2.13358 -2.796e-20 
-6.11204 -2.12886 4.40358e-21 
-5.89642 -2.10923 -1.2536e-19 
-5.67213 -2.13003 2.99282e-21 
-5.4504 -2.12889 9.67809e-21 
-5.2386 -2.14908 1.92469e-20 
-5.01763 -2.14396 1.64705e-20 
-4.80488 -2.14749 4.39246e-20 
-4.58936 -2.14692 9.48044e-20 
-4.37882 -2.14535 2.00174e-19 
-4.16373 -2.14226 7.75345e-18 
-3.95232 -2.12838 1.58327e-17 
-3.73772 -2.13175 3.35409e-17 
-3.51956 -2.13557 7.04983e-17 
-3.30632 -2.15055 1.34555e-16 
-3.08536 -2.141 2.35732e-16 
-2.85998 -2.12049 4.0475e-16 
-2.63272 -2.14292 8.37144e-16 
-2.40565 -2.15623 1.74764e-15 
-2.16841 -2.13978 3.77446e-15 
-1.89243 -2.13183 1.42691e-14 
-1.64707 -2.12536 2.44997e-14 
-1.42487 -1.94255 -5.59069e-14 
-1.42424 -2.17214 8.23867e-14 
-1.21855 -1.88511 -6.01797e-14 
-1.21796 -2.11866 -4.30253e-14 
-0.907291 -2.16286 1.05299e-13 
-0.599801 -2.23564 8.52246e-15 
-0.569418 -2.44746 6.07045e-12 
-0.240322 -2.57818 2.90649e-11 
0.147706 -2.71517 1.35468e-12 
0.467617 -2.56684 -2.17788e-11 
0.530832 -2.36927 -2.83832e-11 
0.758302 -2.27118 -2.39021e-12 
0.912674 -2.23765 -7.60313e-13 
0.947542 -2.02288 2.83966e-13 
1.1502 -1.94398 1.91693e-13 
1.32305 -2.10263 -3.73021e-14 
1.51548 -2.07006 3.40411e-14 
1.74425 -2.12352 -1.36967e-14 
1.96216 -2.17978 -1.14356e-14 
2.19311 -2.21569 -3.1267e-15 
2.44831 -2.1886 -1.43438e-15 
2.68271 -2.12986 -6.14358e-16 
2.91874 -2.13803 -3.51993e-16 
3.14994 -2.14816 -2.01475e-16 
3.38852 -2.12532 -9.0737e-17 
3.60418 -2.11794 -4.82922e-17 
3.82355 -2.14121 -2.44842e-17 
4.04397 -2.13867 -1.15778e-17 
4.258 -2.14333 -3.66544e-19 
4.47296 -2.13606 -1.44612e-19 
4.68549 -2.13757 -6.72347e-20 
4.89865 -2.12792 -2.96085e-20 
5.11266 -2.12946 -1.75988e-20 
5.32648 -2.13051 -1.51727e-20 
5.54484 -2.13819 -8.05115e-21 
5.76764 -2.14425 -6.13636e-21 
5.99041 -2.14072 -4.5049e-21 
6.21545 -2.12661 1.21283e-19 
6.43942 -2.11327 6.51128e-20 
6.65798 -2.12027 6.54451e-21 
6.89329 -2.11095 2.06895e-20 
7.11931 -2.15349 -3.25461e-20 
7.34932 -2.16019 1.76906e-20 
7.55555 -2.08128 1.0292e-20 
7.76572 -2.15572 -1.67888e-21 
7.99225 -2.08473 7.13188e-20 
8.23085 -2.13486 1.59981e-20 
8.48528 -2.10135 9.5297e-18 
-8.48528 -1.78907 -1.4313e-17 
-8.31349 -1.85972 -1.94488e-21 
-7.89835 -1.92406 2.96529e-21 
[...]
POINT_DATA 1978 
VECTORS vectors float
1.45665e-06 3.26567e-05 1 
-9.82048e-07 0.000103248 1 
3.55605e-07 0.000162145 1 
2.49541e-07 0.000228788 1 
4.3253e-07 0.000333763 1 
-2.09091e-07 0.000451881 1 
1.33882e-07 0.000536585 1 
-1.23924e-06 0.000638167 1 
-7.33746e-07 0.000736293 1 
-6.4661e-07 0.000858545 1 
-1.16077e-06 0.000995016 1 
-1.8804e-06 0.00118495 0.999999 
-1.05993e-06 0.0014093 0.999999 
-2.19953e-06 0.00166234 0.999999 
-2.26388e-06 0.00201292 0.999998 
-2.28668e-06 0.00240053 0.999997 
-2.70527e-06 0.00289869 0.999996 
-3.57261e-06 0.00353503 0.999994 
-4.93485e-06 0.00441268 0.99999 
-6.42433e-06 0.00563159 0.999984 
-9.78338e-06 0.00725362 0.999974 
-1.00457e-05 0.00945877 0.999955 
-1.51989e-05 0.0121999 0.999926 
-2.52713e-05 0.01598 0.999872 
-2.6436e-05 0.02087 0.999782 
-2.31191e-05 0.0265174 0.999648 
-2.80461e-05 0.0336765 0.999433 
-6.8603e-05 0.043121 0.99907 
-2.86093e-05 0.0563778 0.99841 
-5.93741e-05 0.0717818 0.99742 
-0.000112268 0.0918469 0.995773 
-5.47839e-05 0.117675 0.993052 
-9.36964e-05 0.151362 0.988478 
-5.12436e-05 0.204376 0.978893 
-0.000401227 0.268309 0.963333 
-3.28192e-05 0.378499 0.925602 
0.000529579 0.475989 0.879451 
-0.000372089 0.580761 0.814074 
0.000332792 0.95296 0.303097 
0.00108141 0.886109 -0.463476 
-5.19319e-05 0.475582 -0.879671 
0.00187858 0.6372 -0.770696 
-0.00149943 0.49008 -0.871676 
0.000476426 0.365837 -0.930679 
0.000241178 0.281574 -0.959539 
3.86867e-05 0.21511 -0.97659 
-9.14451e-06 0.165384 -0.986229 
9.60106e-05 0.124284 -0.992247 
0.00011167 0.0927217 -0.995692 
5.65956e-05 0.0689691 -0.997619 
2.94689e-05 0.0519665 -0.998649 
1.71832e-05 0.0402817 -0.999188 
2.26973e-05 0.0323138 -0.999478 
3.27225e-05 0.0253061 -0.99968 
2.33849e-05 0.0198045 -0.999804 
5.24751e-06 0.0161659 -0.999869 
1.83844e-05 0.0127847 -0.999918 
1.04703e-05 0.010086 -0.999949 
8.5639e-06 0.00783822 -0.999969 
8.1442e-06 0.00601652 -0.999982 
4.77431e-06 0.00469929 -0.999989 
3.71804e-06 0.00378984 -0.999993 
3.05934e-06 0.00313815 -0.999995 
2.39404e-06 0.00264293 -0.999997 
2.29971e-06 0.00222019 -0.999998 
2.22045e-06 0.0018395 -0.999998 
1.95812e-06 0.00151169 -0.999999 
1.78334e-06 0.00124225 -0.999999 
1.38598e-06 0.00103084 -0.999999 
1.0191e-06 0.00086868 -1 
1.14489e-06 0.000735885 -1 
5.92686e-07 0.00061375 -1 
6.13727e-07 0.000510586 -1 
5.19956e-07 0.000396988 -1 
6.01937e-08 0.000301209 -1 
3.47076e-07 0.000225895 -1 
-5.25384e-08 0.000143431 -1 
6.31622e-07 9.05088e-05 -1 
-9.46557e-07 1.06289e-05 -1 
6.80794e-05 6.93371e-05 1 
2.34918e-05 0.000134472 1 
-5.93932e-06 0.000187037 1 
-3.02375e-05 0.000244276 1 
-4.64083e-05 0.000318132 1 
-7.30622e-05 0.000428069 1 
-0.000134425 0.000547294 1 
-0.000141402 0.000638246 1 
-0.000186109 0.000758713 1 
-0.000208659 0.000890121 1 
-0.000223899 0.00105861 0.999999 
-0.000258075 0.00126821 0.999999 
-0.000304626 0.00150978 0.999999 
-0.000307497 0.00181279 0.999998 
-0.000367431 0.00219643 0.999998 
-0.000409633 0.00267378 0.999996 
-0.000489609 0.00330458 0.999994 
-0.000597669 0.00415126 0.999991 
-0.000767336 0.00532381 0.999986 
-0.00101306 0.00689313 0.999976 
-0.00127494 0.00892254 0.999959 
-0.00164716 0.0115857 0.999932 
-0.00194316 0.0149184 0.999887 
-0.00231552 0.0194395 0.999808 
-0.00269062 0.0250983 0.999681 
-0.00289081 0.032069 0.999481 
-0.00311537 0.0413944 0.999138 
-0.00345197 0.0547325 0.998495 
-0.00365524 0.0721098 0.99739 
-0.00354623 0.0931921 0.995642 
-0.00317897 0.122514 0.992462 
-0.00257649 0.16642 0.986052 
-0.000656268 0.224935 0.974374 
-0.00123895 0.310226 0.950662 
0.00592205 0.412139 0.911102 
0.0396167 0.409396 0.911496 
0.0102927 0.51094 0.859555 
-0.00343941 0.670688 0.741731 
0.00939256 0.904673 0.426003 
0.00147557 0.992362 0.123347 
-0.00975501 0.879575 -0.475661 
-0.0158001 0.762761 -0.646487 
-0.00837998 0.521177 -0.853407 
-0.00365289 0.394655 -0.918822 
-0.00104723 0.298318 -0.954466 
-0.0125888 0.258642 -0.965891 
0.00201108 0.224927 -0.974374 
0.00361048 0.167408 -0.985881 
0.00399651 0.119931 -0.992774 
0.00384815 0.0854815 -0.996332 
0.00357419 0.0618742 -0.998078 
0.00330286 0.0465438 -0.998911 
0.00323808 0.0358154 -0.999353 
0.00273122 0.0281026 -0.999601 
0.00233876 0.0217109 -0.999762 
0.00216483 0.0170121 -0.999853 
0.00166992 0.0135207 -0.999907 
0.00136896 0.0105067 -0.999944 
0.00105749 0.00807499 -0.999967 
0.000809166 0.00619733 -0.99998 
0.000655086 0.00482979 -0.999988 
0.000541667 0.00383658 -0.999992 
0.000472586 0.00313271 -0.999995 
0.000414623 0.00259192 -0.999997 
0.000364442 0.00214911 -0.999998 
0.000324141 0.00177411 -0.999998 
0.000287956 0.00145913 -0.999999 
0.000254026 0.00120408 -0.999999 
0.000228729 0.00100752 -0.999999 
0.000199287 0.000850734 -1 
0.000160861 0.000712658 -1 
0.000138728 0.000600188 -1 
9.52675e-05 0.000483357 -1 
7.153e-05 0.000378462 -1 
5.06389e-05 0.00029766 -1 
2.09749e-05 0.000211656 -1 
-1.36399e-06 0.000168703 -1 
-2.88385e-05 0.000102884 -1 
-8.17381e-05 6.08819e-05 -1 
9.98007e-05 0.000127479 1 
3.83699e-05 0.000190897 1 
-1.09258e-05 0.000234697 1 
-5.02603e-05 0.000284585 1 
-0.000100322 0.000375508 1 
-8.18474e-05 0.000351178 1 
-0.000128566 0.000456034 1 
-0.000204097 0.000580261 1 
-0.000248683 0.000691769 1 
-0.000310029 0.000832414 1 
-0.000346175 0.000981952 0.999999 
-0.000392628 0.00116217 0.999999 
-0.000447746 0.00137352 0.999999 
-0.000490632 0.00165188 0.999999 
-0.00053097 0.00197409 0.999998 
-0.000601119 0.00242952 0.999997 
-0.000681118 0.00301278 0.999995 
-0.000803915 0.00382312 0.999992 
-0.000985243 0.00493199 0.999987 
-0.00126238 0.00643399 0.999979 
-0.0016387 0.00840177 0.999963 
-0.00208859 0.0108255 0.999939 
-0.00261973 0.0140027 0.999899 
-0.00310249 0.0178764 0.999835 
-0.00352321 0.0229558 0.99973 
-0.00376198 0.0294637 0.999559 
-0.00384736 0.0376102 0.999285 
-0.00380188 0.0488688 0.998798 
-0.0034103 0.0642587 0.997927 
-0.0022613 0.0855651 0.99633 
0.000136947 0.117506 0.993072 
0.0028628 0.157996 0.987436 
0.00908579 0.224875 0.974345 
0.0136677 0.318854 0.947705 
0.0342532 0.289201 0.956655 
0.0710636 0.470028 0.879786 
0.0275392 0.580988 0.813446 
0.00344323 0.745312 0.666707 
0.0281962 0.771907 0.63511 
0.0165891 0.984342 0.175487 
-0.0419004 0.890314 -0.453415 
-0.0140076 0.681046 -0.732107 
-0.0390107 0.573632 -0.818184 
-0.0295033 0.445993 -0.89455 
-0.0204937 0.346235 -0.937924 
-0.0385015 0.26466 -0.963573 
-0.00512036 0.197728 -0.980244 
-0.00220471 0.149752 -0.988721 
0.00177684 0.117323 -0.993092 
0.00343822 0.0861888 -0.996273 
0.00411231 0.0641978 -0.997929 
0.00414362 0.0481162 -0.998833 
0.00405222 0.0371178 -0.999303 
0.00384907 0.0288676 -0.999576 
0.00343751 0.0229166 -0.999731 
0.00303929 0.0182441 -0.999829 
0.00247591 0.0142026 -0.999896 
0.00199186 0.0112383 -0.999935 
0.00153905 0.00873971 -0.999961 
0.00120338 0.00676126 -0.999976 
0.000985965 0.00525216 -0.999986 
0.000839243 0.00412614 -0.999991 
0.000742585 0.00331228 -0.999994 
0.000662959 0.00270523 -0.999996 
0.000593221 0.00223542 -0.999997 
0.000533397 0.00185865 -0.999998 
0.000478865 0.00154481 -0.999999 
0.000427741 0.00128766 -0.999999 
0.000384482 0.00108525 -0.999999 
0.000338867 0.00092087 -1 
0.000280971 0.00077802 -1 
0.00023694 0.000660841 -1 
0.00017412 0.000542064 -1 
0.00012532 0.000436761 -1 
8.7409e-05 0.000351903 -1 
4.30844e-05 0.000266375 -1 
7.93629e-06 0.000228523 -1 
-4.21288e-05 0.00017315 -1 
-0.00011205 0.000124749 -1 
0.000113982 0.000186836 1 
4.44953e-05 0.000262199 1 
-4.23528e-06 0.000280597 1 
-5.53557e-05 0.000321561 1 
-0.000113584 0.000417594 1 
-0.000153498 0.000468255 1 
-0.000219324 0.000580226 1 
-0.000285918 0.000700169 1 
-0.000343197 0.000817089 1 
-0.000405777 0.000974631 0.999999 
-0.000456131 0.0011321 0.999999 
-0.000509815 0.00132165 0.999999 
-0.000554837 0.00155212 0.999999 
-0.000605075 0.00184843 0.999998 
-0.000653673 0.00221932 0.999997 
-0.000722159 0.00275299 0.999996 
-0.000806188 0.00346122 0.999994 
-0.000927756 0.00445964 0.99999 
-0.00110849 0.0057873 0.999983 
-0.00138178 0.00754164 0.999971 
-0.00172329 0.00967041 0.999952 
-0.00217079 0.01231 0.999922 
-0.0026708 0.015651 0.999874 
-0.00309719 0.0196405 0.999802 
-0.00322431 0.0247484 0.999689 
-0.00304482 0.031148 0.99951 
-0.00278438 0.0398509 0.999202 
-0.00209001 0.0509572 0.998699 
-0.000360858 0.0661924 0.997807 
0.0033325 0.0945676 0.995513 
0.0106217 0.1285 0.991653 
0.0326189 0.150594 0.988057 
0.0172523 0.174876 0.984439 
0.0556045 0.178908 0.982293 
0.0353406 0.221223 0.974583 
0.069545 0.332513 0.940531 
0.122424 0.539825 0.832827 
0.062429 0.624494 0.77853 
0.0482998 0.897998 0.43734 
-0.000180917 0.98854 -0.150959 
-0.0349116 0.741838 -0.66967 
-0.0824135 0.639469 -0.764387 
-0.0811908 0.456744 -0.885886 
-0.0607911 0.352844 -0.933705 
-0.0852555 0.273604 -0.958057 
-0.0535854 0.204355 -0.977429 
-0.0249536 0.187406 -0.981966 
-0.0167901 0.142836 -0.989604 
-0.00616663 0.109432 -0.993975 
-0.000340525 0.0855017 -0.996338 
0.00231345 0.0633302 -0.99799 
0.00305295 0.0472299 -0.998879 
0.00307185 0.0362552 -0.999338 
0.00331732 0.0285586 -0.999587 
0.00314735 0.0226053 -0.99974 
0.00267996 0.0177078 -0.99984 
0.00222607 0.0141322 -0.999898 
0.00181419 0.0111829 -0.999936 
0.00142883 0.00881145 -0.99996 
0.00115469 0.00687106 -0.999976 
0.00098545 0.00531895 -0.999985 
0.000882273 0.00416107 -0.999991 
0.000804726 0.00330865 -0.999994 
0.000736352 0.00267961 -0.999996 
0.000674477 0.00221376 -0.999997 
0.0006163 0.00184541 -0.999998 
0.000560658 0.00154484 -0.999999 
0.00050763 0.0013056 -0.999999 
0.000455407 0.00111416 -0.999999 
0.000400151 0.000957147 -0.999999 
0.000339155 0.000821281 -1 
0.000274072 0.000693543 -1 
0.000205595 0.000570438 -1 
0.000147352 0.000467559 -1 
0.000102691 0.000402197 -1 
5.66573e-05 0.00032104 -1 
1.10914e-05 0.000284593 -1 
-4.45227e-05 0.000239205 -1 
-0.000123568 0.000185068 -1 
9.38e-05 0.000278945 1 
5.25437e-05 0.000332001 1 
-3.75535e-05 0.000348309 1 
-8.36177e-05 0.00040493 1 
-0.000138672 0.000498081 1 
-0.0001681 0.00050614 1 
-0.00020987 0.000595723 1 
-0.00026775 0.00067865 1 
-0.00033481 0.000801059 1 
-0.000393328 0.00092018 0.999999 
-0.0004472 0.00106557 0.999999 
-0.000492535 0.00121668 0.999999 
-0.000540464 0.00141846 0.999999 
-0.000583351 0.00165119 0.999998 
-0.000623961 0.00196092 0.999998 
-0.000667117 0.00236953 0.999997 
-0.000710836 0.00294528 0.999995 
-0.000764932 0.00374813 0.999993 
-0.000829698 0.00484805 0.999988 
-0.000943917 0.00632858 0.99998 
-0.00109909 0.00815213 0.999966 
-0.00132166 0.0103758 0.999945 
-0.00164922 0.0131087 0.999913 
-0.00194779 0.016442 0.999863 
-0.00214592 0.0204427 0.999789 
-0.00187342 0.0254053 0.999675 
-0.00126763 0.03237 0.999475 
-0.000185033 0.0410245 0.999158 
0.00164284 0.0516533 0.998664 
0.00467804 0.0724879 0.997358 
0.0126757 0.0959723 0.995303 
0.0253142 0.116387 0.992881 
0.0525456 0.128123 0.990365 
0.0880684 0.186252 0.978547 
0.0713239 0.24685 0.966425 
0.115595 0.271102 0.955584 
0.116718 0.380966 0.917192 
0.176663 0.415044 0.892485 
0.0771815 0.760943 0.644212 
0.0568238 0.966714 0.249468 
-0.0663999 0.949469 -0.306756 
-0.136914 0.500084 -0.855085 
-0.126215 0.346019 -0.929699 
-0.133025 0.23283 -0.963377 
-0.0883488 0.194989 -0.976818 
-0.0684222 0.141922 -0.98751 
-0.0428717 0.147622 -0.988114 
-0.0252213 0.114774 -0.993071 
-0.012787 0.0938672 -0.995503 
-0.00500824 0.0738965 -0.997253 
-0.000834552 0.0585515 -0.998284 
0.00055962 0.0448249 -0.998995 
0.00107924 0.0344408 -0.999406 
0.00180196 0.0276096 -0.999617 
0.00200338 0.0223358 -0.999749 
0.00184953 0.018049 -0.999835 
0.00147387 0.0142675 -0.999897 
0.00128888 0.0114957 -0.999933 
0.00104252 0.00915098 -0.999958 
0.000896092 0.00718541 -0.999974 
0.000828021 0.00557814 -0.999984 
0.000795403 0.00433651 -0.99999 
0.000762998 0.00343867 -0.999994 
0.000723512 0.00277195 -0.999996 
0.000678083 0.0022862 -0.999997 
0.000633361 0.00192132 -0.999998 
0.000587432 0.00162985 -0.999998 
0.000539533 0.0013935 -0.999999 
0.000489119 0.00120287 -0.999999 
0.000433491 0.00104454 -0.999999 
0.00037193 0.0009051 -1 
0.000307878 0.000776983 -1 
0.000233949 0.000645303 -1 
0.000171499 0.000538133 -1 
0.000111274 0.000454127 -1 
5.42614e-05 0.000367528 -1 
3.78332e-06 0.000330967 -1 
-5.14481e-05 0.0002995 -1 
-0.000111546 0.000261367 -1 
4.80271e-05 0.000341675 1 
1.51609e-05 0.000395889 1 
4.09128e-06 0.000343198 1 
-4.20704e-05 0.00039858 1 
-8.55178e-05 0.000452174 1 
-0.000176493 0.000585897 1 
-0.000246916 0.000690407 1 
-0.000304666 0.000779857 1 
-0.000372305 0.000908403 1 
-0.00041976 0.0010235 0.999999 
-0.000464242 0.00117201 0.999999 
-0.000505992 0.00133353 0.999999 
-0.000545128 0.00154808 0.999999 
-0.000579928 0.00180016 0.999998 
-0.000611178 0.00216266 0.999997 
-0.000635598 0.00263056 0.999996 
-0.000651249 0.00332835 0.999994 
-0.000652786 0.00427851 0.999991 
-0.000653796 0.00559776 0.999984 
-0.000663734 0.00724349 0.999974 
-0.000712371 0.0092532 0.999957 
-0.000843862 0.0117035 0.999931 
-0.000982616 0.014608 0.999893 
-0.00100623 0.0181502 0.999835 
-0.00075841 0.0222244 0.999753 
-0.000112753 0.0278959 0.999611 
0.0013805 0.0351691 0.99938 
0.00385241 0.0434196 0.999049 
0.0064306 0.0576172 0.998318 
0.0124837 0.0728203 0.997267 
0.0224993 0.0842749 0.996188 
0.0372394 0.0987448 0.994416 
0.0775708 0.129028 0.988602 
0.0995954 0.118025 0.988003 
0.12646 0.187014 0.974184 
0.160365 0.157028 0.974487 
0.171158 0.2729 0.946694 
0.240549 0.340383 0.908997 
0.131871 0.704299 0.697548 
-0.00848677 0.993177 -0.116307 
-0.104587 0.761274 -0.63994 
-0.193713 0.566333 -0.801088 
-0.190482 0.347633 -0.918078 
-0.167974 0.186611 -0.967968 
-0.108494 0.142528 -0.983827 
-0.0802456 0.100012 -0.991745 
-0.0520027 0.103121 -0.993309 
-0.0348147 0.0978337 -0.994594 
-0.0190896 0.0791618 -0.996679 
-0.00989825 0.0664632 -0.99774 
-0.00419395 0.0525084 -0.998612 
-0.00174871 0.0404198 -0.999181 
-0.000747581 0.0314524 -0.999505 
0.00025151 0.0254654 -0.999676 
0.000644039 0.0207718 -0.999784 
0.00080125 0.0168442 -0.999858 
0.000612375 0.0135928 -0.999907 
0.000596842 0.0110611 -0.999939 
0.000542583 0.008857 -0.999961 
0.000569136 0.00695849 -0.999976 
0.000626451 0.00537889 -0.999985 
0.000664942 0.00419327 -0.999991 
0.000677057 0.00330066 -0.999994 
0.000661338 0.0026686 -0.999996 
0.000631471 0.00221013 -0.999997 
0.000598429 0.00187117 -0.999998 
0.0005618 0.0016063 -0.999999 
0.000520415 0.00139008 -0.999999 
0.000473535 0.00121186 -0.999999 
0.000419047 0.00106147 -0.999999 
0.000358539 0.000928152 -1 
0.000290416 0.000787296 -1 
0.000223429 0.000673421 -1 
0.000160988 0.000565824 -1 
0.000104864 0.000492917 -1 
5.99476e-05 0.000415397 -1 
1.85326e-05 0.000383854 -1 
-2.76306e-05 0.000361635 -1 
-7.8377e-05 0.000317962 -1 
-7.04871e-06 0.0003694 1 
-1.64656e-05 0.00043106 1 
-1.94755e-05 0.000404773 1 
-5.94865e-05 0.000457152 1 
-0.000118598 0.000520942 1 
-0.000160885 0.000614587 1 
-0.000222296 0.000696336 1 
-0.000286885 0.000805061 1 
-0.000344447 0.000898756 1 
-0.000390837 0.00102356 0.999999 
-0.000428665 0.00114 0.999999 
-0.000464233 0.00130496 0.999999 
-0.000498079 0.00148253 0.999999 
-0.000523822 0.00171717 0.999998 
-0.000552613 0.00202302 0.999998 
-0.000560591 0.00244496 0.999997 
-0.000563455 0.00303579 0.999995 
-0.000528988 0.00386734 0.999992 
-0.000464472 0.00502453 0.999987 
-0.000365987 0.00651669 0.999979 
-0.000278436 0.00832044 0.999965 
-0.00025756 0.0105355 0.999944 
-0.000262346 0.0130451 0.999915 
-0.000197692 0.0160987 0.99987 
0.000120783 0.019576 0.999808 
0.000651893 0.0241633 0.999708 
0.00190884 0.029865 0.999552 
0.00443921 0.0360553 0.99934 
0.00809931 0.0471737 0.998854 
0.0132441 0.0575877 0.998253 
0.0214931 0.0648812 0.997662 
0.0344205 0.07319 0.996724 
0.0545977 0.0911122 0.994343 
0.0659117 0.0758016 0.994942 
0.0994216 0.0780285 0.991981 
0.149307 0.099547 0.983767 
0.221036 0.196546 0.955255 
0.289578 0.514511 0.807108 
0.204641 0.594666 0.777492 
0.157292 0.828188 0.537926 
-0.175318 0.7986 -0.575762 
-0.285076 0.495073 -0.820752 
-0.237394 0.284111 -0.928938 
-0.214242 0.139316 -0.966794 
-0.135073 0.103124 -0.985455 
-0.0934598 0.0664261 -0.993405 
-0.0519477 0.0738641 -0.995914 
-0.0342885 0.0704833 -0.996923 
-0.0223388 0.0659336 -0.997574 
-0.0123907 0.05511 -0.998403 
-0.00675957 0.0473183 -0.998857 
-0.0039796 0.0378356 -0.999276 
-0.00241049 0.0300833 -0.999544 
-0.00110093 0.0244607 -0.9997 
-0.000525053 0.020196 -0.999796 
-0.000135205 0.0168572 -0.999858 
-0.000118854 0.0137687 -0.999905 
-2.11644e-05 0.0110637 -0.999939 
0.000101916 0.00893307 -0.99996 
0.000271926 0.00704129 -0.999975 
0.000432947 0.00547573 -0.999985 
0.000531776 0.00424355 -0.999991 
0.000584529 0.00334981 -0.999994 
0.000589904 0.0026942 -0.999996 
0.000575761 0.00223943 -0.999997 
0.000553675 0.00190282 -0.999998 
0.000526153 0.00164514 -0.999999 
0.000493744 0.00143789 -0.999999 
0.000454398 0.00126324 -0.999999 
0.000406733 0.00111413 -0.999999 
0.000350715 0.000979609 -0.999999 
0.000291122 0.000844038 -1 
0.000223667 0.000725796 -1 
0.000160684 0.000614117 -1 
0.000101458 0.000531172 -1 
5.577e-05 0.000452245 -1 
2.24375e-05 0.000419297 -1 
-8.48923e-06 0.000403363 -1 
-2.82402e-05 0.000348061 -1 
-4.26139e-05 0.000373065 1 
-3.49808e-05 0.000444844 1 
-3.68882e-05 0.000444346 1 
-6.30678e-05 0.000500735 1 
-9.66932e-05 0.00052839 1 
-0.000152144 0.000644529 1 
-0.000223688 0.000750315 1 
-0.000280266 0.000855592 1 
-0.000334793 0.000949881 0.999999 
-0.000360221 0.00105913 0.999999 
-0.000403126 0.00119077 0.999999 
-0.000421025 0.00134238 0.999999 
-0.000452296 0.00152781 0.999999 
-0.00046457 0.00175059 0.999998 
-0.000485392 0.00204071 0.999998 
-0.000481225 0.002441 0.999997 
-0.000468138 0.00299482 0.999995 
-0.000410627 0.00378382 0.999993 
-0.000302066 0.00487112 0.999988 
-0.00013299 0.00628305 0.99998 
4.82127e-05 0.00809704 0.999967 
0.000170243 0.0101634 0.999948 
0.000257511 0.0125346 0.999921 
0.000396584 0.0152028 0.999884 
0.000750196 0.018358 0.999831 
0.00129877 0.0222365 0.999752 
0.00243887 0.0267896 0.999638 
0.00482401 0.0318364 0.999481 
0.0085212 0.039518 0.999183 
0.0140265 0.0467521 0.998808 
0.0229196 0.0527284 0.998346 
0.0399793 0.0604515 0.99737 
0.0594124 0.0506903 0.996946 
0.0919223 0.0430448 0.994835 
0.145184 0.0461214 0.988329 
0.22326 0.0920131 0.970406 
0.310534 0.26556 0.912714 
0.397829 0.413982 0.818749 
0.272877 0.792416 0.545541 
0.00817479 0.999895 0.012001 
-0.269386 0.799974 -0.536164 
-0.396765 0.439777 -0.805714 
-0.308689 0.242683 -0.919683 
-0.193085 0.0636151 -0.979118 
-0.119487 0.0453549 -0.991799 
-0.0633232 0.0291001 -0.997569 
-0.0625869 0.0581157 -0.996346 
-0.0359084 0.0505893 -0.998074 
-0.0239115 0.0510999 -0.998407 
-0.015068 0.0477765 -0.998744 
-0.00835133 0.0405523 -0.999143 
-0.00499678 0.0330504 -0.999441 
-0.00266497 0.0261008 -0.999656 
-0.00166872 0.0217805 -0.999761 
-0.00117299 0.0182903 -0.999832 
-0.000831514 0.0154191 -0.999881 
-0.000637588 0.0125078 -0.999922 
-0.000450989 0.0101917 -0.999948 
-0.000166278 0.00820392 -0.999966 
0.000109611 0.00645666 -0.999979 
0.000316656 0.00504902 -0.999987 
0.000437359 0.00393495 -0.999992 
0.000499784 0.00313788 -0.999995 
0.000508659 0.00255962 -0.999997 
0.000501939 0.00214866 -0.999998 
0.000486143 0.0018493 -0.999998 
0.000465123 0.00161869 -0.999999 
0.000439607 0.00142702 -0.999999 
0.000406622 0.00126365 -0.999999 
0.000365688 0.00111823 -0.999999 
0.00031587 0.000981286 -0.999999 
0.000264822 0.000861245 -1 
0.000205441 0.000756845 -1 
0.000152486 0.000651391 -1 
9.68488e-05 0.00056807 -1 
5.5939e-05 0.000485982 -1 
3.08142e-05 0.00044663 -1 
1.49644e-05 0.000430309 -1 
2.0736e-05 0.000360186 -1 
-5.93813e-05 0.000359016 1 
-4.25594e-05 0.000445943 1 
-4.34454e-05 0.000469917 1 
-6.2591e-05 0.00053798 1 
-0.000100701 0.000579583 1 
-0.000136567 0.000679212 1 
-0.000193808 0.000756841 1 
-0.00024364 0.000859184 1 
-0.00029561 0.00096024 0.999999 
-0.000317171 0.00107522 0.999999 
-0.000351737 0.00120125 0.999999 