# vtk DataFile Version 3.0 
Exported using Morpho https://github.com/Morpho-lang/morpho 
ASCII 
DATASET UNSTRUCTURED_GRID 

POINTS 1978 float 
-12 -4 1.55964e-10 
-11.662 -4 -4.18541e-10 
-11.3402 -4 -5.63575e-11 
-10.9952 -4 1.14377e-10 
-10.6784 -4 8.1976e-11 
-10.354 -4 6.51365e-11 
-10.0191 -4 2.53458e-11 
-9.69444 -4 3.34276e-11 
-9.35113 -4 1.65814e-11 
-9.01703 -4 2.69954e-11 
-8.69802 -4 -5.45175e-11 
-8.36273 -4 -5.31086e-11 
-8.05062 -4 2.918e-11 
-7.7449 -4 2.58531e-11 
-7.45688 -4 -2.91164e-11 
-7.17276 -4 -1.55467e-11 
-6.87567 -4 -3.03254e-11 
-6.58526 -4 6.23968e-12 
-6.28448 -4 -3.75062e-11 
-5.98561 -4 -1.22546e-11 
-5.68838 -4 -3.09704e-11 
-5.38815 -4 -5.58294e-11 
-5.07836 -4 -9.33456e-11 
-4.76352 -4 -7.92961e-11 
-4.45283 -4 -1.52567e-10 
-4.13902 -4 -2.15221e-10 
-3.8287 -4 -1.08423e-10 
-3.5286 -4 -1.15267e-10 
-3.22442 -4 -3.28238e-10 
-2.94018 -4 -1.9486e-10 
-2.6965 -4 -2.70401e-10 
-2.41383 -4 -8.80259e-11 
-2.12986 -4 -2.09399e-10 
-1.84488 -4 -3.12118e-11 
-1.51628 -4 9.07314e-11 
-1.23176 -4 -5.32934e-10 
-0.934836 -4 -1.68016e-09 
-0.63822 -4 -6.42388e-09 
-0.234062 -4 1.01215e-10 
0.0710536 -4 1.36087e-08 
0.35301 -4 -7.74041e-09 
0.647499 -4 2.48666e-09 
0.937231 -4 7.15996e-10 
1.19907 -4 8.5148e-10 
1.46741 -4 3.61581e-10 
1.76751 -4 -4.20063e-11 
2.04613 -4 1.18883e-10 
2.35063 -4 1.90792e-10 
2.67059 -4 2.7264e-10 
2.96605 -4 3.63456e-10 
3.26976 -4 1.22067e-10 
3.57957 -4 1.79637e-10 
3.87799 -4 1.90083e-10 
4.17793 -4 1.3319e-10 
4.48574 -4 1.15362e-10 
4.78283 -4 9.23102e-11 
5.08799 -4 9.00988e-11 
5.38348 -4 5.30791e-11 
5.68673 -4 3.01183e-11 
5.9745 -4 3.26082e-11 
6.27196 -4 2.20139e-11 
6.55114 -4 1.28127e-11 
6.85238 -4 7.30014e-13 
7.13476 -4 3.51096e-12 
7.43982 -4 2.45307e-11 
7.75427 -4 -1.26865e-11 
8.04963 -4 -4.26228e-12 
8.35505 -4 1.75982e-11 
8.65325 -4 6.13633e-11 
8.96871 -4 1.43603e-11 
9.32351 -4 -3.68449e-11 
9.65341 -4 -5.47533e-11 
9.96635 -4 -4.34254e-11 
10.3494 -4 -7.7143e-11 
10.6706 -4 -9.22559e-11 
11.0167 -4 -8.91422e-11 
11.3437 -4 -2.13812e-11 
11.6326 -4 3.8587e-10 
12 -4 -2.12599e-10 
-12 -3.66106 8.28683e-10 
-11.6747 -3.6616 -9.39631e-16 
-11.3494 -3.6437 -1.86954e-15 
-11.0323 -3.66979 -2.79673e-15 
-10.705 -3.64646 -2.60611e-15 
-10.3877 -3.65671 -2.1958e-15 
-10.0651 -3.66919 -1.6328e-15 
-9.73472 -3.66153 -1.09729e-15 
-9.41153 -3.68033 -7.26526e-16 
-9.07461 -3.67451 -4.11873e-16 
-8.74752 -3.66248 -1.97007e-16 
-8.42768 -3.68178 -4.50005e-17 
-8.10286 -3.66282 6.09763e-17 
-7.79322 -3.65952 1.37175e-16 
-7.48895 -3.64438 1.80887e-16 
-7.1992 -3.64648 2.08172e-16 
-6.90648 -3.66726 2.57888e-16 
-6.6053 -3.66275 3.44247e-16 
-6.30367 -3.67229 4.53674e-16 
-5.99685 -3.66793 6.25038e-16 
-5.69183 -3.66441 8.61631e-16 
-5.388 -3.66303 1.16009e-15 
-5.08393 -3.67276 1.61872e-15 
-4.76778 -3.67268 2.13448e-15 
-4.45188 -3.67425 2.95951e-15 
-4.1353 -3.67382 3.57697e-15 
-3.81493 -3.67535 5.56205e-15 
-3.49099 -3.68237 6.61828e-15 
-3.20098 -3.66542 8.98178e-15 
-2.93755 -3.60048 8.85555e-15 
-2.64564 -3.6461 1.32681e-14 
-2.35556 -3.63372 1.34524e-14 
-2.06485 -3.64185 1.44787e-14 
-1.75044 -3.67395 1.23175e-14 
-1.45728 -3.60866 1.6518e-15 
-1.17437 -3.62071 -3.43133e-15 
-0.881818 -3.60095 -2.97132e-14 
-0.621757 -3.55139 1.00774e-13 
-0.370133 -3.71391 -2.41998e-14 
-0.00679987 -3.63872 8.28122e-16 
0.314471 -3.5631 -1.70714e-14 
0.599203 -3.5983 -8.09245e-15 
0.896063 -3.60094 -2.38547e-17 
1.18412 -3.5697 6.7868e-15 
1.45228 -3.60957 -5.59187e-15 
1.74009 -3.66096 -9.63711e-15 
2.05136 -3.6615 -1.54572e-14 
2.36935 -3.68362 -1.15749e-14 
2.67775 -3.66226 -1.2176e-14 
2.99646 -3.67211 -1.01136e-14 
3.31512 -3.67706 -7.91248e-15 
3.62595 -3.66609 -6.12598e-15 
3.92779 -3.65786 -4.38211e-15 
4.24129 -3.67033 -3.54868e-15 
4.54641 -3.65959 -2.55169e-15 
4.85491 -3.66936 -1.95455e-15 
5.15578 -3.65836 -1.4224e-15 
5.46006 -3.66772 -1.08459e-15 
5.75429 -3.652 -7.82868e-16 
6.05276 -3.66454 -5.98381e-16 
6.34166 -3.64289 -4.26607e-16 
6.63683 -3.66737 -3.27361e-16 
6.92597 -3.64268 -2.34327e-16 
7.22557 -3.66694 -2.0025e-16 
7.53366 -3.67301 -1.73591e-16 
7.83667 -3.65063 -1.27402e-16 
8.13793 -3.65905 -6.40766e-17 
8.43836 -3.64465 5.89601e-17 
8.74654 -3.65929 2.06068e-16 
9.08067 -3.6936 4.18699e-16 
9.40851 -3.66781 7.02687e-16 
9.72168 -3.64862 1.09483e-15 
10.0774 -3.71273 1.77797e-15 
10.4035 -3.6544 2.06911e-15 
10.7413 -3.67857 2.84901e-15 
11.0698 -3.6581 2.81464e-15 
11.3693 -3.61281 1.70364e-15 
11.7051 -3.69559 1.15709e-15 
12 -3.62479 -8.25024e-10 
-12 -3.32769 5.95078e-10 
-11.6733 -3.32128 -4.59141e-16 
-11.3427 -3.30133 -1.17987e-15 
-11.0148 -3.32384 -1.84472e-15 
-10.6861 -3.30214 -2.1484e-15 
-10.3626 -3.31639 -2.02306e-15 
-10.0348 -3.33714 -1.51154e-15 
-9.71095 -3.32467 -1.05016e-15 
-9.38206 -3.35768 -7.68837e-16 
-9.06083 -3.34287 -4.83772e-16 
-8.75758 -3.3132 -2.57882e-16 
-8.45263 -3.34717 -1.38495e-16 
-8.14032 -3.33653 -2.72809e-17 
-7.82609 -3.32088 9.60144e-17 
-7.52199 -3.30646 1.71097e-16 
-7.21971 -3.29398 2.02862e-16 
-6.929 -3.32416 2.57313e-16 
-6.636 -3.32919 3.31845e-16 
-6.33677 -3.34307 4.46161e-16 
-6.03435 -3.34153 5.82468e-16 
-5.73057 -3.3359 8.02037e-16 
-5.42825 -3.32972 1.09411e-15 
-5.12603 -3.33477 1.51754e-15 
-4.82643 -3.34889 1.95514e-15 
-4.51576 -3.34631 2.69223e-15 
-4.20495 -3.34923 3.47751e-15 
-3.88844 -3.35956 4.92468e-15 
-3.55981 -3.37532 6.1822e-15 
-3.23685 -3.31359 8.30843e-15 
-2.90462 -3.27351 1.11693e-14 
-2.60176 -3.29053 9.8569e-15 
-2.29394 -3.27614 1.26468e-14 
-1.97918 -3.31429 1.30281e-14 
-1.67851 -3.29751 1.04834e-14 
-1.37564 -3.2131 1.20503e-14 
-1.09175 -3.23253 6.41382e-15 
-0.819694 -3.13911 4.22156e-14 
-0.494374 -3.21888 -8.52326e-14 
-0.202237 -3.35814 1.3033e-14 
0.141758 -3.25643 5.60756e-15 
0.250353 -2.91821 3.24061e-14 
0.502677 -3.1723 6.03161e-14 
0.799214 -3.20615 -9.70448e-15 
1.0978 -3.18299 -1.27942e-14 
1.40428 -3.19202 -8.20934e-15 
1.68553 -3.27741 -1.38449e-14 
1.9808 -3.33101 -1.50038e-14 
2.31178 -3.3715 -1.30926e-14 
2.63969 -3.33262 -1.11439e-14 
2.95707 -3.34556 -9.24427e-15 
3.27205 -3.35382 -7.52644e-15 
3.58462 -3.34215 -6.23175e-15 
3.89658 -3.31708 -4.31425e-15 
4.20057 -3.34168 -3.56209e-15 
4.51026 -3.32487 -2.58324e-15 
4.81601 -3.33787 -2.0099e-15 
5.11998 -3.3222 -1.46559e-15 
5.42177 -3.33409 -1.09288e-15 
5.72121 -3.31172 -7.71551e-16 
6.01725 -3.32731 -5.92632e-16 
6.31183 -3.30115 -4.30908e-16 
6.60936 -3.32346 -3.39667e-16 
6.91294 -3.31207 -2.53352e-16 
7.21995 -3.33017 -1.95947e-16 
7.52285 -3.33843 -1.6076e-16 
7.82503 -3.31073 -9.61804e-17 
8.12775 -3.31397 1.59104e-17 
8.42937 -3.29798 1.25639e-16 
8.73323 -3.31475 2.48974e-16 
9.04341 -3.36584 4.46575e-16 
9.36256 -3.33939 7.46946e-16 
9.68085 -3.30404 1.09072e-15 
10.0049 -3.39094 1.46353e-15 
10.3274 -3.32946 1.97454e-15 
10.6661 -3.34384 2.1389e-15 
10.988 -3.32387 1.91991e-15 
11.3035 -3.25941 1.30621e-15 
11.6419 -3.34366 9.74944e-17 
12 -3.31532 -4.6685e-10 
-12 -2.99613 2.4608e-10 
-11.6599 -2.99313 -8.83974e-17 
-11.3185 -2.96951 -6.58589e-16 
-10.9805 -2.99204 -1.06595e-15 
-10.6425 -2.9681 -1.51532e-15 
-10.3075 -2.98938 -1.73337e-15 
-9.98227 -3.0024 -1.24172e-15 
-9.64743 -3.00286 -9.17954e-16 
-9.33232 -3.02121 -6.74642e-16 
-9.02472 -2.99267 -3.74235e-16 
-8.71811 -2.96865 -1.7944e-16 
-8.41927 -3.00944 -1.40517e-16 
-8.11194 -3.00032 -7.09502e-17 
-7.80648 -2.98128 3.98816e-17 
-7.50186 -2.96994 1.04069e-16 
-7.1992 -2.95952 1.22449e-16 
-6.90133 -2.98378 1.87002e-16 
-6.60278 -2.99893 2.54865e-16 
-6.30347 -3.01722 3.561e-16 
-6.00105 -3.01529 4.55374e-16 
-5.70282 -3.00635 5.86977e-16 
-5.40102 -3.00031 7.9409e-16 
-5.10237 -3.00038 1.07449e-15 
-4.80095 -3.0209 1.51886e-15 
-4.49333 -3.01845 2.03942e-15 
-4.19018 -3.01597 2.90087e-15 
-3.88404 -3.03572 3.7508e-15 
-3.57277 -3.06432 5.1228e-15 
-3.23173 -3.01102 6.41941e-15 
-2.92152 -2.93627 6.31079e-15 
-2.61466 -2.9436 9.06044e-15 
-2.30353 -2.92856 8.31345e-15 
-1.98647 -2.96153 1.01557e-14 
-1.68059 -2.93389 6.15133e-15 
-1.37978 -2.83324 -6.1093e-15 
-1.08562 -2.82251 1.46686e-14 
-0.746748 -2.77298 3.18907e-14 
-0.451331 -2.87636 -6.43587e-14 
-0.12258 -2.99238 1.69252e-14 
-0.132339 -2.62021 -1.63175e-13 
0.165834 -2.60993 1.35753e-13 
0.558441 -2.74071 -7.11448e-14 
0.819905 -2.8045 4.53798e-14 
1.10107 -2.77757 2.7096e-14 
1.39301 -2.82287 4.37445e-15 
1.70355 -2.8861 -3.25576e-15 
1.98845 -2.96677 -6.62929e-15 
2.2902 -3.0604 -1.12723e-14 
2.6024 -3.00023 -9.81051e-15 
2.92586 -3.01797 -8.52913e-15 
3.24869 -3.02896 -5.87607e-15 
3.56554 -3.01809 -4.52011e-15 
3.87749 -2.98689 -3.61696e-15 
4.18651 -3.00615 -2.77978e-15 
4.49114 -2.99842 -1.95794e-15 
4.80392 -3.00584 -1.41978e-15 
5.10699 -2.9912 -1.05667e-15 
5.41017 -3.00069 -7.4775e-16 
5.7132 -2.98403 -5.55121e-16 
6.01571 -2.99047 -4.09209e-16 
6.32043 -2.97763 -3.14409e-16 
6.62699 -2.99152 -2.3563e-16 
6.93533 -2.98707 -1.6268e-16 
7.23685 -2.99758 -1.29779e-16 
7.53812 -3.00114 -1.07609e-16 
7.84129 -2.97193 -3.35498e-17 
8.14331 -2.97264 7.71148e-17 
8.44628 -2.95467 1.49985e-16 
8.74841 -2.97341 2.02562e-16 
9.05646 -3.02837 4.10241e-16 
9.36808 -3.00042 6.75409e-16 
9.67772 -2.96056 8.67875e-16 
9.99116 -3.0555 1.2993e-15 
10.3065 -2.99119 1.60805e-15 
10.6295 -3.01916 1.66314e-15 
10.9611 -2.98199 9.67032e-16 
11.3021 -2.93916 5.41835e-16 
11.6474 -3.02566 4.45264e-17 
12 -3.00388 -2.62486e-10 
-12 -2.67303 3.41375e-10 
-11.6672 -2.6686 3.79127e-16 
-11.3367 -2.64134 6.04623e-16 
-10.9987 -2.66759 4.23148e-16 
-10.6645 -2.64202 -8.69038e-17 
-10.331 -2.66125 -6.4529e-16 
-10.0009 -2.66939 -4.75329e-16 
-9.67739 -2.68073 -4.14349e-16 
-9.34635 -2.68094 -3.28519e-16 
-9.03597 -2.65502 -1.67671e-16 
-8.70927 -2.65173 -8.38574e-17 
-8.38354 -2.6703 -1.24475e-16 
-8.07522 -2.6646 -9.28487e-17 
-7.76484 -2.64983 -9.08533e-18 
-7.45661 -2.64075 1.77391e-17 
-7.15101 -2.63243 1.1833e-17 
-6.85195 -2.65831 6.26109e-17 
-6.55249 -2.67543 9.91615e-17 
-6.25252 -2.69635 1.56008e-16 
-5.95618 -2.6855 1.72793e-16 
[...]
POINT_DATA 1978 
VECTORS vectors float
0.00129984 -0.00052127 0.999999 
0.00178904 -0.0290064 0.999578 
0.00191603 -0.0383915 0.999261 
0.00199278 -0.0332996 0.999443 
0.00186739 -0.0251846 0.999681 
0.00189292 -0.0178794 0.999838 
0.0019692 -0.0120562 0.999925 
0.00201539 -0.00741028 0.99997 
0.00202905 -0.00362414 0.999991 
0.00198319 -0.000905771 0.999998 
0.0019456 0.000782604 0.999998 
0.00190339 0.00149706 0.999997 
0.0017748 0.00146233 0.999997 
0.00164199 0.00117274 0.999998 
0.00158696 0.000935646 0.999998 
0.00156733 0.000977285 0.999998 
0.00160789 0.00130072 0.999998 
0.00163772 0.00194713 0.999997 
0.00165195 0.00306708 0.999994 
0.0016538 0.00452374 0.999988 
0.00166775 0.006371 0.999978 
0.00170861 0.00872186 0.99996 
0.00176221 0.0118279 0.999928 
0.00177532 0.0160149 0.99987 
0.00175885 0.0216139 0.999765 
0.00170825 0.0294412 0.999565 
0.00166362 0.0401622 0.999192 
0.00155828 0.0540066 0.998539 
0.00137551 0.0727104 0.997352 
0.00128808 0.0965173 0.99533 
0.0011683 0.12367 0.992323 
0.00108312 0.16551 0.986208 
0.00107387 0.220301 0.975431 
0.000948268 0.293156 0.956064 
0.000729572 0.403272 0.91508 
0.000461304 0.524408 0.851467 
0.000158592 0.669912 0.74244 
3.10661e-05 0.82288 0.568215 
-0.000174897 0.976543 0.215324 
2.46956e-05 0.996003 -0.0893221 
8.05069e-05 0.930063 -0.367401 
-2.42988e-05 0.806601 -0.591096 
-0.00013273 0.65952 -0.751687 
-0.000386582 0.52724 -0.849716 
-0.000623874 0.414141 -0.910212 
-0.000846784 0.310246 -0.950656 
-0.0011206 0.235061 -0.97198 
-0.00129832 0.174499 -0.984656 
-0.00142001 0.124153 -0.992262 
-0.00150949 0.0922358 -0.995736 
-0.00154755 0.0682122 -0.99767 
-0.0015916 0.0499778 -0.998749 
-0.00161532 0.0372526 -0.999305 
-0.00163371 0.0277262 -0.999614 
-0.00165281 0.0206175 -0.999786 
-0.00166284 0.0154426 -0.999879 
-0.00165107 0.0114541 -0.999933 
-0.00164922 0.00851148 -0.999962 
-0.00161679 0.00615056 -0.99998 
-0.00159211 0.00440554 -0.999989 
-0.00156964 0.00298466 -0.999994 
-0.00157253 0.00197281 -0.999997 
-0.0015863 0.00125121 -0.999998 
-0.00166886 0.000909547 -0.999998 
-0.00171917 0.000907202 -0.999998 
-0.00173643 0.00116861 -0.999998 
-0.00169644 0.00143253 -0.999998 
-0.00167722 0.00150015 -0.999997 
-0.00180613 0.000986122 -0.999998 
-0.00199927 -0.000505969 -0.999998 
-0.00204668 -0.00325882 -0.999993 
-0.00199132 -0.00678459 -0.999975 
-0.00211435 -0.011175 -0.999935 
-0.00215498 -0.0177923 -0.999839 
-0.00202915 -0.0250609 -0.999684 
-0.00195979 -0.0340993 -0.999417 
-0.00177311 -0.0389153 -0.999241 
-0.00173316 -0.0312387 -0.99951 
-0.00124559 -6.02342e-05 -0.999999 
-2.56406e-05 0.00236615 0.999997 
0.00852063 -0.0241844 0.999671 
0.0125208 -0.0326134 0.99939 
0.014415 -0.0319402 0.999386 
0.0161206 -0.0254904 0.999545 
0.0164181 -0.0187136 0.99969 
0.0164449 -0.0129425 0.999781 
0.0169924 -0.00819395 0.999822 
0.0167381 -0.00451717 0.99985 
0.0171316 -0.00175086 0.999852 
0.0176079 2.11128e-05 0.999845 
0.0173931 0.000998022 0.999848 
0.0181944 0.00125664 0.999834 
0.0184346 0.00117004 0.999829 
0.0189923 0.0010613 0.999819 
0.0190058 0.00113599 0.999819 
0.0183956 0.00143051 0.99983 
0.0185592 0.00205446 0.999826 
0.0181873 0.00305919 0.99983 
0.0182692 0.0044742 0.999823 
0.0183528 0.00631609 0.999812 
0.0182585 0.00865133 0.999796 
0.0177963 0.0116787 0.999773 
0.0173607 0.015829 0.999724 
0.0171591 0.0215517 0.99962 
0.016427 0.0292886 0.999436 
0.0162315 0.0406621 0.999041 
0.0153231 0.0566921 0.998274 
0.0150232 0.0767521 0.996937 
0.0153363 0.100427 0.994826 
0.0130095 0.133777 0.990926 
0.0112867 0.178415 0.983891 
0.00926409 0.239111 0.970948 
0.00650557 0.325261 0.945602 
0.00476613 0.430828 0.902421 
0.00285558 0.552523 0.833493 
0.00157086 0.698007 0.71609 
0.00136826 0.831601 0.555372 
0.00152221 0.943583 0.331132 
0.00175728 0.999515 -0.031107 
-6.05151e-05 0.947134 -0.320838 
-0.00199936 0.832909 -0.553406 
-0.00300587 0.68557 -0.728001 
-0.00412285 0.543639 -0.839309 
-0.00553333 0.426797 -0.90433 
-0.00703034 0.325468 -0.945527 
-0.00940085 0.237118 -0.971435 
-0.0105023 0.168333 -0.985674 
-0.0129058 0.123122 -0.992308 
-0.0141076 0.0898635 -0.995854 
-0.0150868 0.0654974 -0.997739 
-0.0162266 0.0481812 -0.998707 
-0.0167931 0.0355887 -0.999225 
-0.0170289 0.0261639 -0.999513 
-0.0176546 0.019428 -0.999655 
-0.0176776 0.0143688 -0.99974 
-0.0181838 0.0106525 -0.999778 
-0.0181041 0.0078072 -0.999806 
-0.018713 0.00567694 -0.999809 
-0.0185015 0.00400944 -0.999821 
-0.0192198 0.00278174 -0.999811 
-0.0185651 0.00187864 -0.999826 
-0.0192105 0.00133479 -0.999815 
-0.0185219 0.00104515 -0.999828 
-0.0183222 0.00102008 -0.999832 
-0.0188349 0.00113734 -0.999822 
-0.0185331 0.00120813 -0.999827 
-0.0185487 0.000917502 -0.999828 
-0.0179171 6.73393e-05 -0.999839 
-0.0166801 -0.00166177 -0.999859 
-0.0171434 -0.00436381 -0.999843 
-0.0173877 -0.00788144 -0.999818 
-0.015276 -0.0129745 -0.999799 
-0.0163709 -0.0188931 -0.999687 
-0.0153287 -0.0262807 -0.999537 
-0.0146406 -0.0322936 -0.999371 
-0.0129566 -0.0321241 -0.9994 
-0.00820759 -0.0237719 -0.999684 
6.41468e-05 0.0024931 -0.999997 
0.000366815 0.000671029 1 
0.0111481 -0.0221845 0.999692 
0.0171179 -0.030926 0.999375 
0.0205004 -0.0307854 0.999316 
0.0224075 -0.0250672 0.999435 
0.0231341 -0.0183333 0.999564 
0.0234551 -0.0125929 0.999646 
0.0241256 -0.00811869 0.999676 
0.0242115 -0.00456706 0.999696 
0.0247897 -0.00209033 0.99969 
0.0255255 -0.000530924 0.999674 
0.0255399 0.000560893 0.999674 
0.0257466 0.00104746 0.999668 
0.0260055 0.00114644 0.999661 
0.0261998 0.00116287 0.999656 
0.0262749 0.00129635 0.999654 
0.0262366 0.00158251 0.999654 
0.0261121 0.00211552 0.999657 
0.0259033 0.00298447 0.99966 
0.0258405 0.00427285 0.999657 
0.025866 0.00600317 0.999647 
0.0258616 0.0082571 0.999631 
0.0255932 0.0111669 0.99961 
0.0250384 0.0150091 0.999574 
0.0246069 0.0202996 0.999491 
0.0239586 0.0276404 0.999331 
0.0229839 0.0374991 0.999032 
0.0217719 0.0525201 0.998382 
0.0207702 0.0727048 0.997137 
0.0191215 0.102735 0.994525 
0.016677 0.141848 0.989748 
0.0141862 0.192875 0.981121 
0.0112389 0.265604 0.964017 
0.00832001 0.35335 0.935454 
0.0055449 0.464295 0.885663 
0.00318945 0.595973 0.802998 
0.00121686 0.732715 0.680534 
-3.64781e-05 0.885379 0.46487 
0.00142524 0.976226 0.21675 
-0.000555094 0.991612 -0.129249 
-0.00312657 0.955759 -0.294133 
-0.0016705 0.869022 -0.494771 
-0.00291256 0.723776 -0.690029 
-0.00416309 0.576655 -0.816977 
-0.00681083 0.443484 -0.896256 
-0.00941643 0.33876 -0.940826 
-0.0120942 0.252706 -0.967467 
-0.0146861 0.18057 -0.983452 
-0.0174129 0.130681 -0.991271 
-0.0194863 0.0952499 -0.995263 
-0.0211112 0.069619 -0.99735 
-0.0226233 0.051148 -0.998435 
-0.0234166 0.0372191 -0.999033 
-0.0241429 0.0275536 -0.999329 
-0.0247237 0.0202398 -0.999489 
-0.0251599 0.0150019 -0.999571 
-0.0254496 0.0110023 -0.999616 
-0.0256769 0.00811632 -0.999637 
-0.0258791 0.00586495 -0.999648 
-0.0259953 0.00421028 -0.999653 
-0.0261372 0.00294895 -0.999654 
-0.0261325 0.00208277 -0.999656 
-0.0264083 0.0015394 -0.99965 
-0.0262169 0.00122401 -0.999656 
-0.0260531 0.00109852 -0.99966 
-0.0264449 0.00109091 -0.99965 
-0.0261446 0.000984721 -0.999658 
-0.0260971 0.000526684 -0.999659 
-0.0256044 -0.000420199 -0.999672 
-0.0247056 -0.00191074 -0.999693 
-0.0245737 -0.00432366 -0.999689 
-0.0244075 -0.00766845 -0.999673 
-0.0229953 -0.0120351 -0.999663 
-0.0229794 -0.0175078 -0.999583 
-0.0221974 -0.0246382 -0.99945 
-0.0210168 -0.0307155 -0.999307 
-0.0179577 -0.0309906 -0.999358 
-0.0115903 -0.0234885 -0.999657 
-0.000566443 0.000956464 -0.999999 
0.00023665 0.000546932 1 
0.0114386 -0.0227188 0.999676 
0.0173454 -0.0312345 0.999362 
0.0210088 -0.0308499 0.999303 
0.0220529 -0.0242072 0.999464 
0.0232655 -0.0173142 0.999579 
0.0239368 -0.0119332 0.999642 
0.0245341 -0.00756908 0.99967 
0.02515 -0.00443226 0.999674 
0.0251688 -0.00231156 0.999681 
0.025266 -0.000804645 0.99968 
0.0258015 0.000323708 0.999667 
0.0258094 0.000939153 0.999666 
0.025583 0.00116501 0.999672 
0.0253879 0.00129343 0.999677 
0.0252755 0.00149708 0.999679 
0.0254085 0.00177543 0.999676 
0.0255654 0.00229473 0.99967 
0.0257425 0.00313402 0.999664 
0.0256244 0.0043959 0.999662 
0.0254839 0.00611395 0.999657 
0.025335 0.00840599 0.999644 
0.0252333 0.0114264 0.999616 
0.0251103 0.0154334 0.999566 
0.0247286 0.0209672 0.999474 
0.0241919 0.0283551 0.999305 
0.023614 0.0387917 0.998968 
0.0224973 0.0527863 0.998352 
0.0206303 0.0750524 0.996966 
0.0180768 0.103166 0.9945 
0.0159207 0.139019 0.990162 
0.013193 0.189957 0.981704 
0.0106544 0.258603 0.965925 
0.00761826 0.352135 0.935918 
0.00434558 0.465528 0.885022 
0.00201575 0.59389 0.804544 
-0.0010734 0.763632 0.645651 
-0.00268694 0.899896 0.436096 
-0.00415571 0.991665 0.128777 
-0.00350584 0.995176 0.0980392 
-0.00304586 0.977609 -0.210409 
-0.00227001 0.847708 -0.530458 
-0.00241525 0.731144 -0.682219 
-0.00423593 0.593857 -0.804559 
-0.00609482 0.459055 -0.888387 
-0.00880516 0.343607 -0.939072 
-0.0116315 0.258974 -0.965814 
-0.014924 0.188768 -0.981908 
-0.0171554 0.137214 -0.990393 
-0.0193583 0.0990183 -0.994897 
-0.0209922 0.0721966 -0.997169 
-0.0222655 0.0525491 -0.99837 
-0.0229844 0.0381815 -0.999006 
-0.0239869 0.028086 -0.999318 
-0.0244882 0.0208055 -0.999484 
-0.0247946 0.0151756 -0.999577 
-0.0250492 0.0112168 -0.999623 
-0.0250932 0.00815512 -0.999652 
-0.0251839 0.00591479 -0.999665 
-0.0251383 0.00419053 -0.999675 
-0.0251843 0.00297283 -0.999678 
-0.0254335 0.00216337 -0.999674 
-0.0255267 0.00167353 -0.999673 
-0.0258655 0.0013845 -0.999664 
-0.0260439 0.00120859 -0.99966 
-0.0256098 0.00107765 -0.999671 
-0.0257266 0.000831861 -0.999669 
-0.0253454 0.000176903 -0.999679 
-0.0252997 -0.000928319 -0.999679 
-0.0254595 -0.00244734 -0.999673 
-0.0248889 -0.00473699 -0.999679 
-0.0241741 -0.00795931 -0.999676 
-0.0244091 -0.0120948 -0.999629 
-0.0234447 -0.0174834 -0.999572 
-0.0228232 -0.024177 -0.999447 
-0.0209158 -0.030349 -0.99932 
-0.0174203 -0.0313183 -0.999358 
-0.0116388 -0.022742 -0.999674 
-0.00034402 0.000993535 -0.999999 
0.000208941 0.000337656 1 
0.00875682 -0.0219112 0.999722 
0.0135231 -0.0314663 0.999413 
0.0167863 -0.031537 0.999362 
0.0176721 -0.0254912 0.999519 
0.0187731 -0.0182709 0.999657 
0.0193646 -0.0126203 0.999733 
0.020021 -0.00827349 0.999765 
0.020243 -0.00491869 0.999783 
0.0202016 -0.00278198 0.999792 
0.020467 -0.00108809 0.99979 
0.0207416 0.00021737 0.999785 
0.0207338 0.000927938 0.999785 
0.0203817 0.00124648 0.999791 
0.0200998 0.00146821 0.999797 
0.0197768 0.00171517 0.999803 
0.0202102 0.00199398 0.999794 
0.0203587 0.00248889 0.99979 
0.0206704 0.0033193 0.999781 
0.0204359 0.00458691 0.999781 
0.0203148 0.00637677 0.999773 
0.0201037 0.00879661 0.999759 
0.0200805 0.0120123 0.999726 
0.0202437 0.0163097 0.999662 
0.0197591 0.0220555 0.999561 
0.0194832 0.0302521 0.999352 
0.0191435 0.0413587 0.998961 
0.0187372 0.0574206 0.998174 
0.0161961 0.0800367 0.99666 
0.0132401 0.110195 0.993822 
0.0115584 0.149786 0.988651 
0.00928088 0.207274 0.978239 
0.00715172 0.279977 0.95998 
0.00447706 0.374777 0.927104 
0.00150292 0.498526 0.866873 
-0.00036477 0.641613 0.767029 
-0.00145635 0.8177 0.575643 
-0.00202479 0.955721 0.294269 
-0.00205882 0.936327 0.351123 
-0.00128876 0.99977 -0.0214038 
-0.00458362 0.938481 -0.345301 
-0.0021666 0.918838 -0.394629 
-0.00304996 0.755007 -0.65571 
-0.0038883 0.623124 -0.782114 
-0.0049597 0.480171 -0.877161 
-0.00696239 0.350248 -0.936631 
-0.00913771 0.252941 -0.967439 
-0.012229 0.188594 -0.981979 
-0.0132849 0.139292 -0.990162 
-0.0154397 0.10317 -0.994544 
-0.016839 0.0749052 -0.997048 
-0.0179382 0.0540262 -0.998378 
-0.0183961 0.0390392 -0.999068 
-0.0190893 0.0281191 -0.999422 
-0.0196841 0.0204804 -0.999596 
-0.0199095 0.0150747 -0.999688 
-0.0199041 0.0110368 -0.999741 
-0.0201088 0.008037 -0.999765 
-0.0199197 0.00579824 -0.999785 
-0.0200887 0.00414346 -0.99979 
-0.0201013 0.00298167 -0.999793 
-0.0202919 0.00223161 -0.999792 
-0.0203561 0.0018345 -0.999791 
-0.0206544 0.00155487 -0.999785 
-0.0207916 0.00133588 -0.999783 
-0.0202906 0.00113278 -0.999793 
-0.0203773 0.000771041 -0.999792 
-0.0199426 -1.85725e-06 -0.999801 
-0.0200711 -0.00124471 -0.999798 
-0.02078 -0.00281011 -0.99978 
-0.0200029 -0.00498802 -0.999787 
-0.0192322 -0.00821856 -0.999781 
-0.0202285 -0.0124697 -0.999718 
-0.0189964 -0.0181856 -0.999654 
-0.018301 -0.025004 -0.99952 
-0.0166379 -0.0314171 -0.999368 
-0.0133954 -0.0314996 -0.999414 
-0.00943393 -0.0223145 -0.999706 
-0.000154292 0.00081399 -1 
-3.16524e-05 -0.00015885 1 
0.00580839 -0.0208506 0.999766 
0.00909601 -0.0308803 0.999482 
0.0119071 -0.0330767 0.999382 
0.0127352 -0.0280669 0.999525 
0.0135237 -0.0206815 0.999695 
0.0141198 -0.0146941 0.999792 
0.0146065 -0.00990722 0.999844 
0.0151124 -0.00632352 0.999866 
0.0149059 -0.00385078 0.999881 
0.0152099 -0.00192672 0.999882 
0.0154979 -0.000317282 0.99988 
0.0153648 0.00069635 0.999882 
0.0151652 0.00121819 0.999884 
0.0148644 0.00153821 0.999888 
0.0145537 0.00179667 0.999892 
0.0144776 0.00201945 0.999893 
0.014786 0.00233283 0.999888 
0.0149274 0.00296172 0.999884 
0.0149639 0.00396219 0.99988 
0.0149057 0.00548648 0.999874 
0.014796 0.00756992 0.999862 
0.0146819 0.0104155 0.999838 
0.0147876 0.0142847 0.999789 
0.0146544 0.0192446 0.999707 
0.0145402 0.0263796 0.999546 
0.0142131 0.0361484 0.999245 
0.0142787 0.049783 0.998658 
0.0131646 0.0674979 0.997633 
0.010704 0.0925612 0.995649 
0.00866337 0.131037 0.99134 
0.00723183 0.180443 0.983559 
0.00515911 0.250401 0.968128 
0.00324907 0.335778 0.941935 
0.00112969 0.443717 0.896166 
-0.000378377 0.608606 0.793472 
-0.00106667 0.753088 0.657919 
-0.00252416 0.891034 0.45393 
-0.00556359 0.988634 0.15024 
-0.00496473 0.995814 0.0912731 
-0.00563124 0.997182 -0.0748042 
-0.00636428 0.914796 -0.403866 
-0.00505925 0.791076 -0.611697 
-0.00366251 0.629915 -0.776655 
-0.00339012 0.493348 -0.869825 
-0.00447429 0.370915 -0.928656 
-0.00629398 0.263303 -0.964693 
-0.00874506 0.184559 -0.982782 
-0.00949195 0.135562 -0.990723 
-0.0110638 0.101536 -0.99477 
-0.0124316 0.0760113 -0.997029 
-0.0133136 0.0554037 -0.998375 
-0.013586 0.0405689 -0.999084 
-0.0142285 0.0294115 -0.999466 
-0.0146604 0.0212411 -0.999667 
-0.0146203 0.0153845 -0.999775 
-0.0145963 0.0112633 -0.99983 
-0.0147294 0.00817764 -0.999858 
-0.0145171 0.00590386 -0.999877 
-0.0146127 0.00422308 -0.999884 
-0.0147058 0.00308007 -0.999887 
-0.0149159 0.00236427 -0.999886 
-0.0147988 0.00199105 -0.999888 
-0.0150691 0.00174412 -0.999885 
-0.0151667 0.00150305 -0.999884 
-0.0149447 0.00124666 -0.999888 
-0.0148605 0.000794364 -0.999889 
-0.0146037 -5.52774e-05 -0.999893 
-0.0146154 -0.00142871 -0.999892 
-0.0153131 -0.0031114 -0.999878 
-0.0148011 -0.00535851 -0.999876 
-0.0141701 -0.008599 -0.999863 
-0.0150643 -0.0129367 -0.999803 
-0.0139733 -0.0189078 -0.999724 
-0.0134643 -0.0259293 -0.999573 
-0.0121079 -0.0323529 -0.999403 
-0.00951972 -0.032026 -0.999442 
-0.00672314 -0.0222832 -0.999729 
-8.28677e-05 0.000718072 -1 
-1.1394e-05 -0.00010821 1 
0.00409029 -0.0221018 0.999747 
0.00712754 -0.0331293 0.999426 
0.00860391 -0.0329925 0.999419 
0.00937212 -0.0258612 0.999622 
0.00971825 -0.0186274 0.999779 
0.0102572 -0.0129267 0.999864 
0.0106545 -0.00857225 0.999906 
0.010808 -0.0055861 0.999926 
0.0108621 -0.00322196 0.999936 
0.0111855 -0.00126337 0.999937 
0.0110683 0.000164868 0.999939 
0.0108962 0.00103041 0.99994 
0.010709 0.00152561 0.999941 
0.010381 0.00185638 0.999944 
0.0102271 0.0020498 0.999946 
0.00999068 0.00222083 0.999948 
0.0103076 0.00259561 0.999943 
0.0102035 0.0033462 0.999942 
0.0104328 0.00457085 0.999935 
0.0103793 0.00634023 0.999926 
0.0103655 0.00877493 0.999908 
0.0104575 0.0122257 0.999871 
0.0102767 0.0167428 0.999807 
0.0104783 0.0229181 0.999682 
0.0103059 0.0315309 0.99945 
0.0103224 0.0440298 0.998977 
0.00977485 0.0596377 0.998172 
0.00847203 0.0792516 0.996819 
0.00698641 0.112531 0.993624 
0.00531847 0.164724 0.986325 
0.00372554 0.229622 0.973273 
0.00179778 0.320104 0.947381 
0.000338273 0.451851 0.892093 
-0.000793559 0.601503 0.79887 
-0.00153632 0.77414 0.633013 
-0.00189546 0.86564 0.500664 
-0.000528233 0.973757 0.22759 
-0.00367389 0.935088 0.354396 
-0.000421381 0.999706 -0.0242297 
-0.00870512 0.992624 -0.120918 
-0.00907669 0.919671 -0.392584 
-0.0102612 0.926719 -0.375616 
-0.00576908 0.760025 -0.649868 
-0.00429586 0.579343 -0.815073 
-0.00321968 0.434545 -0.900645 
-0.00373449 0.313651 -0.949531 
-0.00564464 0.210049 -0.977674 
-0.00647806 0.15161 -0.988419 
-0.00751165 0.10403 -0.994546 
-0.00882638 0.0745636 -0.997177 
-0.0097889 0.053502 -0.99852 
-0.0098644 0.0383612 -0.999215 
-0.010448 0.0275614 -0.999565 
-0.0105964 0.0199658 -0.999744 
-0.0103288 0.0145803 -0.99984 
-0.0103143 0.0105991 -0.999891 
-0.0102599 0.0077492 -0.999917 
-0.010088 0.00557982 -0.999934 
-0.0100903 0.00402281 -0.999941 
-0.0103249 0.00294792 -0.999942 
-0.0103827 0.00235599 -0.999943 
-0.0103363 0.00207867 -0.999944 
-0.0105186 0.00190487 -0.999943 
-0.0106022 0.0016805 -0.999942 
-0.0105717 0.00132882 -0.999943 
-0.0104939 0.000769915 -0.999945 
-0.0103102 -0.000239937 -0.999947 
-0.0105479 -0.00183755 -0.999943 
-0.0110062 -0.00373784 -0.999932 
-0.0105953 -0.00614215 -0.999925 
-0.0101515 -0.00956832 -0.999903 
-0.0108749 -0.0138302 -0.999845 
-0.00988259 -0.0197425 -0.999756 
-0.00956456 -0.0269781 -0.99959 
-0.00846011 -0.0332157 -0.999412 
-0.00654456 -0.0328816 -0.999438 
-0.00471968 -0.0231738 -0.99972 
-8.65959e-05 0.000703468 -1 
3.91356e-05 0.000840367 1 
0.00261761 -0.0225513 0.999742 
0.00470327 -0.0326705 0.999455 
0.00575371 -0.0337467 0.999414 
0.00649987 -0.0273032 0.999606 
0.00676501 -0.0198922 0.999779 
0.00715392 -0.0138783 0.999878 
0.00753109 -0.00945731 0.999927 
0.00755877 -0.00625198 0.999952 
0.00771796 -0.00380297 0.999963 
0.00789895 -0.00163612 0.999967 
0.0077306 -3.07927e-05 0.99997 
0.00756018 0.000985895 0.999971 
0.00737483 0.00161621 0.999971 
0.00708035 0.00200804 0.999973 
0.00694147 0.00216921 0.999974 
0.00666203 0.00224141 0.999975 
0.00671131 0.00249268 0.999974 
0.0066372 0.00311232 0.999973 
0.00685828 0.00420755 0.999968 
0.00692156 0.00580173 0.999959 
0.00696628 0.00801405 0.999944 
0.00718637 0.0111004 0.999913 
0.00706395 0.0153128 0.999858 
0.00721912 0.0212457 0.999748 
0.0072835 0.0289425 0.999555 
0.00743598 0.0403329 0.999159 
0.00688097 0.0554605 0.998437 
0.00619086 0.0795652 0.99681 
0.00501133 0.119972 0.992765 
0.00348681 0.174113 0.98472 
0.00214212 0.251864 0.96776 
0.000797304 0.372006 0.92823 
0.000120413 0.507926 0.861401 
-0.00116323 0.685857 0.727735 
0.00188966 0.809835 0.586654 
0.004103 0.932894 0.360127 
0.00614007 0.986235 0.165238 
0.00393674 0.996942 0.0780519 
0.000931574 0.99997 0.00763368 
-0.00108014 0.9975 -0.0706653 
-0.00260747 0.989472 -0.144703 
-0.00526134 0.990003 -0.140948 
-0.00935164 0.779039 -0.626906 
-0.00523633 0.611841 -0.790964 
-0.00333733 0.468005 -0.883719 
-0.00270076 0.338337 -0.941021 
-0.00370167 0.23935 -0.970926 
-0.00424231 0.170553 -0.985339 
-0.00519934 0.118543 -0.992935 
-0.00606638 0.0807213 -0.996718 
-0.00689614 0.0586036 -0.998257 
-0.00711591 0.0424433 -0.999074 
-0.00738182 0.029727 -0.999531 
-0.00741557 0.0214787 -0.999742 
-0.00715402 0.0156478 -0.999852 
-0.00705221 0.0113096 -0.999911 
-0.0068476 0.00819516 -0.999943 
-0.00671438 0.00592614 -0.99996 
-0.00657301 0.00422599 -0.999969 
-0.00682539 0.00311361 -0.999972 
-0.00683246 0.00246641 -0.999974 
-0.00690915 0.00220744 -0.999974 
-0.00699776 0.00211506 -0.999973 
-0.00705286 0.00195839 -0.999973 
-0.00729337 0.00160286 -0.999972 
-0.00726669 0.000993446 -0.999973 
-0.00719914 -2.96672e-05 -0.999974 
-0.0073612 -0.00171108 -0.999971 
-0.00773484 -0.00387911 -0.999963 
-0.00758056 -0.00648767 -0.99995 
-0.0072659 -0.0100119 -0.999923 
-0.0075348 -0.0146509 -0.999864 
-0.00678379 -0.0207618 -0.999761 
-0.00651962 -0.0280984 -0.999584 
-0.00556352 -0.0339117 -0.999409 
-0.00423749 -0.033058 -0.999444 