# vtk DataFile Version 3.0 
Exported using Morpho https://github.com/Morpho-lang/morpho 
ASCII 
DATASET UNSTRUCTURED_GRID 

POINTS 1978 float 
-8.48528 -2.82843 -1.64861e-15 
-8.21836 -2.82843 2.0065e-14 
-7.96024 -2.82843 1.05148e-13 
-7.7268 -2.82843 9.0577e-14 
-7.14758 -2.82843 1.87938e-14 
-6.89483 -2.82843 -6.90445e-15 
-6.72958 -2.82843 -2.54021e-15 
-6.56705 -2.82843 2.39186e-14 
-6.41006 -2.82843 3.00824e-14 
-6.26778 -2.82843 7.82848e-14 
-5.94716 -2.82843 8.58195e-14 
-5.7464 -2.82843 4.62629e-14 
-5.56284 -2.82843 2.67057e-14 
-5.34399 -2.82843 1.65691e-14 
-5.14618 -2.82843 5.98817e-16 
-4.93815 -2.82843 3.59791e-15 
-4.73358 -2.82843 5.3946e-15 
-4.51118 -2.82843 2.9821e-15 
-4.28277 -2.82843 -3.90201e-16 
-4.09082 -2.82843 7.59047e-17 
-3.9149 -2.82843 9.59438e-15 
-3.73953 -2.82843 3.10514e-14 
-3.56795 -2.82843 7.81056e-14 
-3.36915 -2.82843 1.4177e-13 
-3.16536 -2.82843 2.3551e-13 
-2.95248 -2.82843 4.42307e-13 
-2.67544 -2.82843 6.50261e-13 
-2.44752 -2.82843 9.63909e-13 
-2.12248 -2.82843 1.22056e-12 
-1.87491 -2.82843 1.35999e-12 
-1.59324 -2.82843 1.55553e-12 
-1.34344 -2.82843 1.47416e-12 
-1.16172 -2.82843 1.19983e-12 
-0.948573 -2.82843 9.64719e-13 
-0.808947 -2.82843 5.64388e-13 
-0.678979 -2.82843 2.30469e-13 
-0.525137 -2.82843 -2.98849e-14 
-0.29105 -2.82843 1.01913e-13 
-0.151634 -2.82843 1.07766e-14 
-0.0252742 -2.82843 -1.52661e-13 
0.199613 -2.82843 2.08231e-13 
0.293561 -2.82843 -5.79798e-14 
0.456233 -2.82843 -7.09999e-14 
0.609213 -2.82843 -2.64242e-13 
0.773183 -2.82843 -3.95836e-13 
0.950286 -2.82843 -7.18322e-13 
1.12349 -2.82843 -9.93344e-13 
1.32505 -2.82843 -1.21128e-12 
1.51428 -2.82843 -1.45583e-12 
1.85564 -2.82843 -1.94201e-12 
2.26105 -2.82843 -1.31167e-12 
2.47533 -2.82843 -7.77748e-13 
2.77196 -2.82843 -6.28027e-13 
3.02102 -2.82843 -3.64512e-13 
3.20934 -2.82843 -2.04954e-13 
3.3931 -2.82843 -1.25531e-13 
3.57518 -2.82843 -7.59454e-14 
3.7289 -2.82843 -3.8476e-14 
3.93294 -2.82843 -1.94226e-14 
4.17458 -2.82843 -4.21268e-15 
4.38145 -2.82843 -5.39967e-17 
4.58593 -2.82843 -2.49034e-15 
4.80858 -2.82843 -6.54152e-15 
5.02636 -2.82843 -7.71423e-15 
5.23189 -2.82843 -1.12069e-14 
5.41714 -2.82843 -1.69415e-14 
5.60075 -2.82843 -2.78472e-14 
5.80004 -2.82843 -4.06561e-14 
6.00564 -2.82843 -4.50681e-14 
6.19721 -2.82843 -4.41069e-14 
6.38384 -2.82843 -3.37661e-14 
6.55977 -2.82843 -2.12116e-14 
6.73261 -2.82843 -6.322e-15 
6.90815 -2.82843 -4.29238e-15 
7.13348 -2.82843 -4.27667e-14 
8.03113 -2.82843 -1.54718e-13 
8.19459 -2.82843 -4.18711e-14 
8.33844 -2.82843 1.88096e-14 
8.48528 -2.82843 -4.38662e-13 
-8.48528 -2.52909 7.49597e-16 
-8.22367 -2.54268 5.90015e-14 
-7.97015 -2.59634 -7.77719e-14 
-7.96713 -2.33846 -5.51731e-14 
-7.71274 -2.6313 -3.61609e-14 
-6.93574 -2.58412 -1.97395e-14 
-6.75852 -2.4196 -1.84683e-14 
-6.51861 -2.35065 -2.13295e-14 
-6.6354 -2.61347 -3.60287e-14 
-6.39814 -2.55486 -5.99689e-16 
-6.16081 -2.67908 -5.57852e-14 
-5.79808 -2.58658 -3.40544e-14 
-5.47761 -2.40582 -3.50712e-16 
-5.42391 -2.6284 -4.28722e-14 
-5.21853 -2.54955 -1.49641e-14 
-5.01118 -2.57864 -3.14315e-16 
-4.78922 -2.56794 -3.81703e-16 
-4.5732 -2.58532 -8.17008e-17 
-4.34744 -2.60315 8.11255e-17 
-4.13704 -2.58618 3.70687e-16 
-3.95201 -2.59025 1.9273e-14 
-3.77102 -2.60675 3.03935e-14 
-3.58964 -2.61412 1.59626e-14 
-3.40517 -2.64454 3.65504e-14 
-3.19068 -2.64906 1.47218e-14 
-2.97385 -2.6556 3.0529e-14 
-2.7532 -2.69785 -4.51009e-14 
-2.47968 -2.668 4.80484e-14 
-2.24691 -2.71838 1.96344e-14 
-1.95394 -2.70213 -7.02379e-16 
-1.71917 -2.7293 -8.12554e-14 
-1.46337 -2.7369 -1.23062e-13 
-1.24819 -2.71542 -3.75128e-14 
-1.05341 -2.73992 4.40408e-14 
-0.846955 -2.72227 -1.27272e-13 
-0.709051 -2.71995 4.14814e-13 
-0.568202 -2.73473 3.23687e-13 
-0.416565 -2.77348 3.01958e-13 
-0.149577 -2.72807 1.6949e-14 
-0.00925867 -2.73708 4.81494e-14 
0.094575 -2.77786 -1.01095e-13 
0.372943 -2.74838 -3.03933e-13 
0.638672 -2.74439 -2.38326e-13 
0.797616 -2.73763 -2.31928e-13 
0.936647 -2.72332 1.40662e-13 
1.11232 -2.72137 -1.08196e-13 
1.29233 -2.71914 3.12383e-13 
1.48273 -2.69922 -1.37645e-13 
1.68921 -2.74735 -2.52985e-14 
2.13642 -2.74765 1.50587e-13 
2.39773 -2.66528 -1.35917e-13 
2.61226 -2.7016 5.38137e-14 
2.87701 -2.68517 -5.5536e-14 
3.09776 -2.6459 5.09901e-14 
3.29345 -2.63369 -1.00944e-13 
3.49871 -2.63249 -2.55877e-14 
3.68195 -2.57985 -2.69039e-14 
3.8531 -2.62371 -2.56829e-14 
4.07961 -2.63524 -1.21688e-14 
4.30964 -2.58478 -4.90662e-16 
4.51717 -2.55025 -2.07611e-16 
4.7275 -2.56778 2.17568e-16 
4.95577 -2.57767 5.95871e-16 
5.1794 -2.57797 1.36186e-14 
5.39514 -2.57115 2.67149e-14 
5.59819 -2.574 2.63276e-14 
5.7974 -2.59015 2.63463e-14 
6.00678 -2.59107 2.1209e-14 
6.20755 -2.58606 4.7097e-14 
6.39392 -2.56026 2.98289e-14 
6.57876 -2.53954 2.53031e-14 
6.77247 -2.5289 2.25777e-14 
6.97648 -2.55078 2.55062e-14 
7.20498 -2.57767 1.7735e-14 
7.85413 -2.75409 1.60438e-13 
7.88249 -2.37342 1.45157e-14 
8.03589 -2.45787 2.17359e-14 
8.19311 -2.45038 1.94809e-14 
8.48528 -2.70305 5.144e-13 
-8.48528 -2.25533 2.68362e-15 
-8.22498 -2.26468 2.67973e-16 
-7.89152 -2.09817 -4.02109e-14 
-7.72629 -2.38377 -4.5382e-14 
-7.48576 -2.51605 6.77161e-16 
-7.38777 -2.72605 -6.49749e-14 
-7.05118 -2.34474 -2.80548e-14 
-6.90442 -2.19933 -1.48638e-14 
-6.68436 -2.15836 -3.28502e-16 
-6.32051 -2.27949 -1.92215e-14 
-6.17861 -2.44065 -5.90278e-14 
-5.98163 -2.55344 -1.69783e-14 
-5.62184 -2.5532 -7.28691e-16 
-5.55594 -2.16907 -3.78937e-16 
-5.32533 -2.2827 -5.46512e-16 
-5.1079 -2.31041 -4.80669e-16 
-4.89609 -2.32929 -2.06916e-16 
-4.67139 -2.32269 5.8443e-17 
-4.45585 -2.36073 1.34716e-16 
-4.25669 -2.35854 1.4472e-16 
-4.07 -2.34528 8.95041e-17 
-3.88478 -2.3725 -2.64933e-16 
-3.701 -2.39677 -2.94281e-16 
-3.51088 -2.42308 -1.93002e-14 
-3.31161 -2.47465 -6.65606e-16 
-3.08866 -2.47738 2.06734e-15 
-2.86955 -2.5004 2.40517e-14 
-2.66055 -2.55178 -5.06192e-14 
-2.29078 -2.55364 4.76741e-14 
-2.07758 -2.60152 -2.48274e-13 
-1.80208 -2.6027 9.20846e-14 
-1.57568 -2.63821 1.09842e-13 
-1.36593 -2.62068 -4.44749e-13 
-1.09125 -2.61978 6.94277e-13 
-0.947533 -2.64581 -5.53613e-13 
-0.825258 -2.60254 1.27798e-13 
-0.52985 -2.64528 -6.785e-13 
-0.401849 -2.68704 3.36898e-13 
-0.27524 -2.73718 -2.50828e-13 
-0.048058 -2.65412 5.90821e-14 
0.184578 -2.70734 -6.28637e-14 
0.480476 -2.73255 -2.22303e-13 
0.536999 -2.66193 -6.41115e-14 
0.707945 -2.64983 3.1233e-14 
0.838148 -2.60961 -4.72111e-13 
1.16525 -2.60927 -2.61582e-13 
1.31595 -2.59278 5.05258e-13 
1.62655 -2.60632 -2.11539e-14 
1.8249 -2.64237 3.85348e-13 
1.98951 -2.68004 2.56544e-14 
2.26421 -2.56359 -1.18979e-13 
2.68919 -2.55672 -2.21712e-14 
2.90945 -2.51756 5.10016e-14 
3.09946 -2.45675 -1.51237e-16 
3.32436 -2.46011 6.37282e-14 
3.51282 -2.42365 -8.78464e-16 
3.69204 -2.36288 5.23496e-16 
3.87449 -2.38468 -1.49524e-14 
4.04616 -2.43422 -1.42568e-14 
4.23234 -2.36148 -1.25892e-14 
4.43389 -2.30925 -1.03783e-16 
4.65067 -2.29097 -1.26724e-16 
4.86526 -2.32371 1.13067e-16 
5.08682 -2.32722 2.99052e-16 
5.30707 -2.33121 1.22997e-14 
5.52359 -2.32578 1.42697e-14 
5.73116 -2.33588 1.34165e-14 
5.93164 -2.35796 1.49699e-14 
6.13557 -2.34972 1.58057e-14 
6.33129 -2.31474 1.77814e-14 
6.53209 -2.28439 1.6308e-14 
6.75148 -2.27738 5.21077e-16 
6.99251 -2.27049 1.5939e-14 
7.20184 -2.25128 6.04735e-16 
7.45404 -2.69782 5.73015e-16 
7.68084 -2.56445 -2.01768e-14 
7.85383 -2.15162 1.91316e-14 
8.3608 -2.20824 1.71226e-14 
8.48528 -2.78754 -8.92239e-14 
-8.48528 -2.02049 -1.40662e-15 
-8.14971 -2.05678 -1.46237e-14 
-8.10489 -1.81392 -3.296e-16 
-7.6493 -2.13582 -2.38896e-14 
-7.43684 -2.3021 -2.50371e-14 
-7.19737 -2.54069 1.52417e-14 
-7.10845 -2.01146 -6.74337e-16 
-6.88478 -1.95335 -4.6571e-16 
-6.49697 -2.06712 -1.34805e-14 
-6.23568 -2.0694 -1.2394e-16 
-6.065 -2.20247 5.9003e-16 
-5.89778 -2.31347 -2.27582e-14 
-5.724 -2.29291 -1.23681e-14 
-5.52303 -1.95296 6.16602e-17 
-5.2865 -2.05518 -1.97449e-16 
-5.05653 -2.06528 7.30321e-17 
-4.83105 -2.08953 1.11598e-16 
-4.59604 -2.09811 -7.72186e-17 
-4.40054 -2.11363 -2.95736e-16 
-4.21518 -2.11317 -4.05434e-16 
-4.03659 -2.11379 -5.47168e-16 
-3.86472 -2.15912 -1.57003e-14 
-3.68201 -2.1915 -3.19092e-14 
-3.49438 -2.2266 -2.58361e-14 
-3.30715 -2.29411 -7.58936e-14 
-3.09629 -2.31315 -1.6031e-13 
-2.86179 -2.32754 -1.97246e-13 
-2.65874 -2.37401 -8.31568e-14 
-2.47065 -2.48081 -3.49132e-13 
-2.17071 -2.44133 -1.69887e-13 
-1.93041 -2.49745 -3.57109e-13 
-1.6524 -2.51212 -2.48272e-13 
-1.45812 -2.52447 1.59711e-13 
-1.21475 -2.57259 -3.90412e-13 
-0.973502 -2.50847 -5.02821e-13 
-0.831072 -2.47619 -1.67409e-12 
-0.68555 -2.61751 -3.59425e-13 
-0.356915 -2.60058 -1.83793e-13 
-0.239536 -2.63891 7.43449e-13 
0.0999745 -2.6603 -1.94161e-13 
0.279856 -2.70392 2.57742e-13 
0.379557 -2.62243 -1.17415e-13 
0.608847 -2.58332 1.28137e-13 
0.854294 -2.4751 -3.41499e-14 
0.999404 -2.62959 2.68903e-13 
1.28196 -2.45741 -3.11365e-13 
1.46088 -2.55363 -3.6769e-14 
1.76643 -2.49858 4.08354e-13 
1.94624 -2.49971 -7.56654e-14 
2.11272 -2.52626 2.71159e-13 
2.48109 -2.50156 3.34466e-13 
2.71825 -2.39203 1.55881e-13 
2.8993 -2.3294 1.64458e-13 
3.15486 -2.30339 8.55132e-14 
3.35424 -2.26434 4.26225e-14 
3.53188 -2.20542 2.47663e-14 
3.71897 -2.15415 4.8699e-14 
3.89117 -2.15172 2.15929e-14 
4.06425 -2.18146 1.27357e-16 
4.25114 -2.11674 4.93234e-16 
4.45835 -2.07 2.73514e-16 
4.67086 -2.04462 1.35384e-16 
4.89052 -2.07 -7.8493e-17 
5.12005 -2.08328 1.38007e-17 
5.34515 -2.09163 1.03954e-16 
5.56633 -2.08736 -1.40841e-16 
5.77677 -2.09645 -1.81086e-16 
5.97509 -2.11562 -1.14853e-16 
6.16919 -2.09477 -4.09362e-16 
6.36626 -2.06227 -1.90336e-16 
6.59407 -2.04972 2.37843e-16 
6.82406 -2.04081 5.28674e-16 
7.04 -1.97749 5.99441e-16 
7.39065 -2.40035 3.72882e-14 
7.49497 -2.10015 2.01163e-14 
7.6201 -2.30408 4.25353e-14 
8.01192 -1.92388 -4.27769e-14 
8.16279 -2.11297 1.25204e-14 
8.48528 -2.63442 2.94311e-15 
-8.48528 -1.40752 1.68554e-15 
-8.3751 -1.83161 1.42525e-14 
-7.8395 -1.85586 1.22621e-14 
[...]
POINT_DATA 1978 
VECTORS vectors float
-0.00011874 -4.90714e-05 1 
1.40559e-05 -0.130098 0.991501 
-2.03575e-05 -0.190939 0.981602 
-4.27989e-06 -0.14218 0.989841 
6.53785e-08 0.00555368 0.999985 
-2.20536e-06 0.0124397 0.999923 
5.04835e-05 -0.00568446 0.999984 
-3.5398e-05 -0.0510962 0.998694 
6.25608e-05 -0.0835425 0.996504 
-1.91998e-05 -0.116327 0.993211 
-1.56291e-05 -0.142549 0.989788 
1.28745e-05 -0.123612 0.992331 
-1.56093e-05 -0.0782166 0.996936 
1.47529e-05 -0.0396037 0.999215 
-7.31134e-06 -0.0146932 0.999892 
5.28285e-06 -0.0131086 0.999914 
-3.7716e-06 -0.0198632 0.999803 
-2.87239e-06 -0.0230665 0.999734 
-1.53859e-06 -0.0138082 0.999905 
7.40599e-06 0.0126397 0.99992 
1.63318e-06 0.0478193 0.998856 
1.13218e-05 0.0876568 0.996151 
1.73325e-06 0.125229 0.992128 
3.03522e-06 0.160527 0.987031 
-7.32447e-07 0.19215 0.981366 
-4.71111e-06 0.222875 0.974847 
-6.6562e-06 0.249265 0.968435 
-5.00519e-06 0.263747 0.964592 
-5.46027e-06 0.269984 0.962865 
-1.61157e-06 0.276538 0.961003 
2.47229e-06 0.290975 0.956731 
-4.33098e-06 0.312203 0.950015 
5.20073e-06 0.335665 0.941982 
-9.5963e-06 0.399324 0.91681 
4.5817e-06 0.465821 0.884879 
-1.17345e-06 0.54845 0.836184 
-1.10598e-05 0.696372 0.717681 
2.04029e-05 0.892726 0.450601 
-4.8318e-05 0.971607 0.236599 
6.09334e-05 0.999997 0.00244022 
-7.41652e-05 0.923552 -0.383473 
0.000108951 0.858718 -0.512448 
-7.90253e-05 0.728956 -0.684561 
4.83477e-05 0.602228 -0.798324 
-2.66953e-05 0.476557 -0.879143 
1.90493e-05 0.365607 -0.930769 
-1.71347e-05 0.311768 -0.950158 
1.63777e-05 0.28387 -0.958863 
-9.17098e-06 0.277055 -0.960854 
5.23703e-06 0.269116 -0.963108 
-3.33262e-07 0.258526 -0.966004 
7.09832e-06 0.253015 -0.967462 
6.10121e-06 0.229918 -0.97321 
4.46122e-06 0.210745 -0.977541 
-7.01124e-06 0.191007 -0.981589 
-3.33074e-06 0.166052 -0.986117 
-6.66613e-06 0.135357 -0.990797 
-7.27629e-06 0.10773 -0.99418 
5.71151e-06 0.0698004 -0.997561 
1.55883e-06 0.0292626 -0.999572 
1.02918e-06 0.00128234 -0.999999 
1.63854e-06 -0.01819 -0.999835 
2.53366e-06 -0.0262575 -0.999655 
6.06695e-07 -0.0278648 -0.999612 
-1.84148e-06 -0.0402948 -0.999188 
-9.55396e-06 -0.0553693 -0.998466 
-2.42989e-06 -0.0768514 -0.997043 
-2.4837e-06 -0.0985004 -0.995137 
-3.64244e-06 -0.102724 -0.99471 
-6.96681e-06 -0.0903576 -0.995909 
-5.61769e-06 -0.0707322 -0.997495 
-1.8092e-05 -0.048639 -0.998816 
-3.24878e-06 -0.0237178 -0.999719 
-1.86588e-05 -0.00936843 -0.999956 
3.30046e-06 -0.00240795 -0.999997 
6.49402e-06 -0.145207 -0.989401 
-0.000117887 -0.149535 -0.988756 
0.000530602 -0.0964837 -0.995334 
-0.00106047 1.36613e-06 -0.999999 
-0.000246464 -3.35973e-05 1 
0.00999982 -0.110494 0.993826 
0.0333989 -0.151028 0.987965 
0.0472618 -0.110339 0.99277 
0.0334594 -0.126089 0.991455 
0.0299728 -0.00603768 0.999532 
0.0418301 -0.0250967 0.998809 
0.047347 -0.0536643 0.997436 
0.0358759 -0.0386408 0.998609 
0.0381181 -0.0834845 0.99578 
0.0286583 -0.122716 0.992028 
0.0355946 -0.113014 0.992956 
0.0367185 -0.062812 0.99735 
0.0307275 -0.0525482 0.998146 
0.0302012 -0.0336488 0.998977 
0.0252955 -0.0227668 0.999421 
0.0238842 -0.0158412 0.999589 
0.0149283 -0.0099539 0.999839 
0.00296338 0.00264659 0.999992 
-0.00919634 0.029186 0.999532 
-0.0213784 0.0621449 0.997838 
-0.0349834 0.0995542 0.994417 
-0.0532713 0.138488 0.98893 
-0.059819 0.167391 0.984074 
-0.0784297 0.20046 0.976558 
-0.0969559 0.230123 0.96832 
-0.0983026 0.251202 0.96293 
-0.144267 0.271427 0.951585 
-0.115693 0.275618 0.95428 
-0.161294 0.285325 0.944761 
-0.139306 0.288506 0.94729 
-0.153424 0.303153 0.94051 
-0.178519 0.320554 0.930256 
-0.111154 0.369436 0.922584 
-0.121707 0.442804 0.88832 
-0.0803306 0.55013 0.831207 
-0.045607 0.678284 0.733383 
-0.00780645 0.821412 0.570282 
-0.000845159 0.96994 0.243343 
0.00507125 0.999874 -0.0150451 
0.00420129 0.982718 -0.185061 
0.0133227 0.805664 -0.592224 
0.0461234 0.600728 -0.798122 
0.0705599 0.458371 -0.885956 
0.117113 0.359646 -0.92571 
0.140082 0.307112 -0.941307 
0.178217 0.288204 -0.940838 
0.188859 0.278598 -0.941656 
0.118606 0.274558 -0.954228 
0.102123 0.266763 -0.958336 
0.154805 0.267189 -0.951128 
0.107022 0.251965 -0.9618 
0.0912184 0.23551 -0.967582 
0.0972957 0.219402 -0.970771 
0.0706013 0.193128 -0.97863 
0.0536903 0.161642 -0.985388 
0.0499372 0.133539 -0.989785 
0.0261087 0.0981089 -0.994833 
0.0113321 0.0574278 -0.998285 
0.00176392 0.0282566 -0.999599 
-0.00767857 0.00612904 -0.999952 
-0.0183219 -0.0138098 -0.999737 
-0.0247481 -0.0269156 -0.999331 
-0.0281835 -0.038691 -0.998854 
-0.0337217 -0.0534295 -0.998002 
-0.035677 -0.0723924 -0.996738 
-0.0351343 -0.0867423 -0.995611 
-0.0363529 -0.0905966 -0.995224 
-0.0419823 -0.0790324 -0.995988 
-0.0456471 -0.0647534 -0.996857 
-0.047521 -0.046508 -0.997787 
-0.0475539 -0.0281477 -0.998472 
-0.0432993 -0.0145868 -0.998956 
-0.0359712 -0.0178347 -0.999194 
-0.0208702 -0.112942 -0.993382 
-0.0457478 -0.0912601 -0.994776 
-0.0325357 -0.0848671 -0.995861 
-0.022381 -0.0608895 -0.997894 
0.00113186 -8.52885e-05 -0.999999 
-0.000158198 -1.96664e-05 1 
0.0232797 -0.0813872 0.996411 
0.0461304 -0.0861676 0.995212 
0.0520959 -0.0998841 0.993634 
0.0451101 -0.0792967 0.99583 
0.0178444 -0.0163729 0.999707 
0.0437938 -0.0174954 0.998887 
0.0463221 -0.0247265 0.99862 
0.0480237 -0.0422054 0.997954 
0.0477111 -0.0696523 0.99643 
0.0499553 -0.0936465 0.994351 
0.0371953 -0.110636 0.993165 
0.0366268 -0.0906528 0.995209 
0.0363022 -0.0652369 0.997209 
0.0357022 -0.0483559 0.998192 
0.0316487 -0.0314103 0.999005 
0.0250146 -0.017736 0.99953 
0.0124544 -0.00158054 0.999921 
-0.00344592 0.0153885 0.999876 
-0.0231435 0.0403932 0.998916 
-0.0483436 0.0755962 0.995966 
-0.0725053 0.111113 0.991159 
-0.0973577 0.147467 0.984264 
-0.126265 0.18631 0.974344 
-0.141898 0.214223 0.966423 
-0.181178 0.249131 0.951372 
-0.213506 0.272547 0.938154 
-0.225361 0.284745 0.931736 
-0.284961 0.300608 0.910182 
-0.281496 0.299297 0.911692 
-0.306405 0.302227 0.902649 
-0.275254 0.303143 0.912326 
-0.353471 0.314974 0.880823 
-0.255399 0.341983 0.904333 
-0.237136 0.385655 0.891648 
-0.231963 0.43027 0.872388 
-0.100925 0.664009 0.740882 
-0.033723 0.79977 0.599359 
-0.0111431 0.901121 0.433425 
0.00458043 0.989785 0.142495 
0.0140241 0.938166 -0.345902 
0.0329327 0.716817 -0.696483 
0.0790357 0.645344 -0.759793 
0.127092 0.496408 -0.858736 
0.195541 0.411748 -0.890071 
0.308029 0.295406 -0.904353 
0.360876 0.287106 -0.887321 
0.323697 0.28665 -0.901694 
0.279218 0.285142 -0.916914 
0.198683 0.27812 -0.939774 
0.275173 0.288468 -0.917097 
0.216134 0.272653 -0.937521 
0.203579 0.264586 -0.942629 
0.195534 0.255915 -0.946717 
0.150581 0.221891 -0.963374 
0.121162 0.191116 -0.974061 
0.107897 0.170208 -0.979483 
0.0707437 0.127572 -0.989303 
0.0386569 0.0857795 -0.995564 
0.0281281 0.0631628 -0.997607 
0.0155386 0.0368176 -0.999201 
-0.00188249 0.00887228 -0.999959 
-0.0193885 -0.01565 -0.99969 
-0.0293167 -0.0321054 -0.999054 
-0.0356713 -0.0453615 -0.998334 
-0.0398628 -0.060424 -0.997377 
-0.0425381 -0.0733849 -0.996396 
-0.0448672 -0.0794896 -0.995825 
-0.0485004 -0.0766294 -0.995879 
-0.0520631 -0.0663477 -0.996437 
-0.0543354 -0.0525786 -0.997137 
-0.0543177 -0.0373595 -0.997825 
-0.0516634 -0.0240775 -0.998374 
-0.0489272 -0.0247943 -0.998495 
-0.0216173 -0.0502522 -0.998503 
-0.0309523 -0.079834 -0.996328 
-0.0436478 -0.0759668 -0.996155 
-0.0189274 -0.0314087 -0.999327 
-0.000684325 0.000194905 -1 
-3.47324e-05 3.659e-05 1 
0.0292289 -0.0751354 0.996745 
0.0159073 -0.0616885 0.997969 
0.0436838 -0.0631445 0.997048 
0.047169 -0.0527554 0.997493 
0.0353601 -0.035314 0.998751 
0.0371492 -0.024157 0.999018 
0.0344106 -0.0274917 0.99903 
0.0412077 -0.049377 0.99793 
0.0365863 -0.0649802 0.997216 
0.0367547 -0.0744068 0.99655 
0.042728 -0.0867351 0.995315 
0.0410595 -0.0798444 0.995961 
0.0250896 -0.054839 0.99818 
0.0253709 -0.0429208 0.998756 
0.0166746 -0.0264071 0.999512 
0.00641861 -0.00741468 0.999952 
-0.0141868 0.0209176 0.999681 
-0.0346109 0.0487126 0.998213 
-0.0617435 0.0864064 0.994345 
-0.0940322 0.129451 0.987117 
-0.122488 0.163693 0.978878 
-0.157609 0.202688 0.966477 
-0.194263 0.240511 0.951008 
-0.229786 0.270601 0.934866 
-0.282851 0.304571 0.909523 
-0.342618 0.333205 0.8784 
-0.36653 0.336471 0.867435 
-0.343464 0.319018 0.883323 
-0.431911 0.333395 0.838034 
-0.431199 0.325833 0.841368 
-0.44741 0.320064 0.835095 
-0.488043 0.320468 0.811858 
-0.399171 0.328297 0.856086 
-0.404365 0.362507 0.839689 
-0.375676 0.404606 0.833764 
-0.162605 0.531494 0.831309 
-0.0481709 0.81659 0.575204 
-0.00302597 0.946733 0.322004 
0.0074805 0.981204 -0.19283 
0.0237794 0.864199 -0.502589 
0.0530158 0.763651 -0.643449 
0.148539 0.552937 -0.819876 
0.373095 0.367471 -0.851918 
0.24616 0.330619 -0.911096 
0.510289 0.291626 -0.809049 
0.41795 0.291245 -0.86052 
0.485607 0.313378 -0.816076 
0.42111 0.312675 -0.851411 
0.370401 0.306782 -0.876749 
0.324175 0.305495 -0.895312 
0.348628 0.3231 -0.879809 
0.334516 0.326516 -0.884017 
0.26747 0.298604 -0.916131 
0.223507 0.272337 -0.935883 
0.189685 0.245793 -0.950582 
0.16099 0.218203 -0.962533 
0.118225 0.169935 -0.978338 
0.0785186 0.12156 -0.989474 
0.0598094 0.0935594 -0.993816 
0.0371016 0.0592882 -0.997551 
0.0143444 0.0244857 -0.999597 
-0.00592943 -0.00706085 -0.999957 
-0.0189916 -0.0290433 -0.999398 
-0.0263341 -0.044008 -0.998684 
-0.0295094 -0.0569319 -0.997942 
-0.0333888 -0.0679665 -0.997129 
-0.0371812 -0.0731267 -0.996629 
-0.0382619 -0.0703366 -0.996789 
-0.0406954 -0.0623293 -0.997226 
-0.0447131 -0.0489362 -0.997801 
-0.0450188 -0.033644 -0.998419 
-0.0397221 -0.0250003 -0.998898 
-0.0483148 -0.0307343 -0.998359 
-0.0410138 -0.0348208 -0.998552 
-0.0516724 -0.0552754 -0.997133 
-0.0201146 -0.0785777 -0.996705 
-0.0272557 -0.0595549 -0.997853 
0.000341815 -8.94702e-05 -1 
6.16262e-05 -5.22262e-06 1 
-9.62142e-05 -0.0254372 0.999676 
0.019865 -0.0644766 0.997721 
0.0308806 -0.038088 0.998797 
0.0242786 -0.028082 0.999311 
0.0448441 -0.0308205 0.998518 
0.0213245 -0.0248699 0.999463 
0.0237923 -0.0337865 0.999146 
0.0319542 -0.0412175 0.998639 
0.0324162 -0.0572146 0.997835 
0.0283315 -0.0648132 0.997495 
0.0272146 -0.0664902 0.997416 
0.0308778 -0.0707064 0.997019 
0.0292785 -0.0658702 0.997399 
0.0146749 -0.0428778 0.998973 
0.00794258 -0.0275876 0.999588 
-0.00629145 -0.00171291 0.999979 
-0.0226166 0.0269822 0.99938 
-0.0475003 0.06759 0.996582 
-0.0740005 0.108675 0.991319 
-0.106978 0.156908 0.981802 
-0.144082 0.203032 0.968513 
-0.182631 0.244591 0.952272 
-0.229496 0.29071 0.928881 
-0.281503 0.33429 0.899448 
-0.315779 0.347679 0.882838 
-0.388839 0.382407 0.838194 
-0.480449 0.415849 0.772165 
-0.506655 0.396724 0.765448 
-0.485778 0.361861 0.795661 
-0.598728 0.398981 0.694506 
-0.565297 0.366384 0.739055 
-0.549488 0.343829 0.761475 
-0.6377 0.349885 0.686235 
-0.559894 0.32609 0.761698 
-0.533483 0.33721 0.775684 
-0.286764 0.494445 0.820543 
-0.156465 0.658339 0.73628 
0.000287514 0.937432 0.348169 
0.00837221 0.991617 -0.128943 
0.0312073 0.900172 -0.434414 
0.107059 0.654606 -0.748351 
0.258208 0.457928 -0.850665 
0.358645 0.326134 -0.874649 
0.488805 0.289083 -0.823104 
0.63118 0.305804 -0.712808 
0.542834 0.311139 -0.780079 
0.59285 0.36022 -0.720257 
0.545567 0.363609 -0.755079 
0.476062 0.353259 -0.80534 
0.469014 0.375744 -0.799276 
0.486445 0.41427 -0.769254 
0.391684 0.379661 -0.838118 
0.338495 0.367685 -0.866158 
0.294463 0.350367 -0.88912 
0.244609 0.315826 -0.916744 
0.203747 0.282648 -0.937335 
0.156858 0.227424 -0.96108 
0.113661 0.169406 -0.97897 
0.0830356 0.128683 -0.988203 
0.0574825 0.0917112 -0.994125 
0.0328508 0.0509467 -0.998161 
0.0111188 0.0124328 -0.999861 
-0.00460778 -0.0164521 -0.999854 
-0.0143459 -0.0358848 -0.999253 
-0.0196679 -0.0484088 -0.998634 
-0.0231236 -0.0594908 -0.997961 
-0.0268987 -0.0675639 -0.997352 
-0.028271 -0.0685186 -0.997249 
-0.030533 -0.0645199 -0.997449 
-0.0347215 -0.0549921 -0.997883 
-0.0347699 -0.0395215 -0.998614 
-0.0271345 -0.0275282 -0.999253 
-0.0373272 -0.0252818 -0.998983 
-0.0241334 -0.0331482 -0.999159 
-0.0274442 -0.0558668 -0.998061 
-0.0123674 -0.0228578 -0.999662 
-0.0147553 -0.0436478 -0.998938 
0.000347648 8.95353e-05 -1 
2.60193e-05 -2.73126e-05 1 
-0.000511635 -0.040299 0.999188 
0.00567016 -0.033411 0.999426 
-0.000154555 -0.0554978 0.998459 
0.0147533 -0.0453315 0.998863 
0.0107466 -0.0278798 0.999554 
0.0147664 -0.0342202 0.999305 
0.0243328 -0.0446883 0.998705 
0.0290232 -0.0496109 0.998347 
0.0294757 -0.058862 0.997831 
0.0276972 -0.0614955 0.997723 
0.0243825 -0.0591525 0.997951 
0.0226038 -0.057402 0.998095 
0.0171484 -0.0502968 0.998587 
0.00746695 -0.0351315 0.999355 
-0.0026732 -0.0127541 0.999915 
-0.0187564 0.0210727 0.999602 
-0.0373642 0.0575938 0.997641 
-0.060904 0.105382 0.992565 
-0.0877783 0.151232 0.984593 
-0.122378 0.206576 0.970747 
-0.160569 0.25801 0.952706 
-0.205974 0.311596 0.927622 
-0.252621 0.356785 0.899382 
-0.311536 0.409081 0.85767 
-0.374278 0.447531 0.812177 
-0.412612 0.439046 0.798117 
-0.497424 0.472874 0.727296 
-0.593508 0.500682 0.630131 
-0.62216 0.46765 0.62787 
-0.659747 0.461996 0.592701 
-0.671431 0.415256 0.613794 
-0.6661 0.38388 0.639489 
-0.72949 0.37699 0.570721 
-0.674163 0.34117 0.655063 
-0.680743 0.329997 0.653981 
-0.572915 0.378746 0.726856 
-0.44085 0.371553 0.817068 
-0.0821675 0.799134 0.595511 
0.00681105 0.994913 0.100506 
0.0214462 0.945419 -0.325151 
0.22818 0.558298 -0.797645 
0.379126 0.429769 -0.819489 
0.717068 0.312576 -0.622984 
0.701463 0.312983 -0.640306 
0.629472 0.350933 -0.693261 
0.742437 0.398779 -0.538296 
0.696475 0.414057 -0.586072 
0.637472 0.424436 -0.643027 
0.59593 0.442104 -0.670381 
0.601531 0.502127 -0.621312 
0.501282 0.471476 -0.725552 
0.433885 0.461181 -0.773987 
0.380497 0.458166 -0.803309 
0.3148 0.420872 -0.850746 
0.261578 0.385553 -0.884831 
0.209086 0.328889 -0.920931 
0.158909 0.259165 -0.952671 
0.120273 0.203114 -0.97174 
0.0887456 0.157734 -0.983486 
0.0592903 0.107978 -0.992384 
0.0341098 0.0582138 -0.997721 
0.0150354 0.0178607 -0.999727 
0.000260684 -0.0129697 -0.999916 
-0.00933694 -0.0328679 -0.999416 
-0.0165073 -0.0463159 -0.99879 
-0.020643 -0.0559169 -0.998222 
-0.02428 -0.063212 -0.997705 
-0.0265936 -0.066001 -0.997465 
-0.0285254 -0.0629163 -0.997611 
-0.0282091 -0.0533942 -0.998175 
-0.0243802 -0.0414138 -0.998845 
-0.0162365 -0.0304912 -0.999403 
-0.0218697 -0.0256096 -0.999433 
-0.0148039 -0.0433243 -0.998951 
-0.00992502 -0.0606866 -0.998108 
-0.00392958 -0.0509217 -0.998695 
-0.00330635 -0.022619 -0.999739 
-0.00032461 7.20709e-05 -1 
1.13111e-05 -3.19826e-05 1 
-0.00245376 -0.0278832 0.999608 
-0.00213654 -0.0494676 0.998773 
-0.00348992 -0.0380201 0.999271 
0.00903541 -0.0327863 0.999422 
0.00212555 -0.0306388 0.999528 
0.00882031 -0.0314553 0.999466 
0.0236855 -0.0495289 0.998492 
0.0270858 -0.0551028 0.998113 
0.0285734 -0.0597001 0.997807 
0.0293171 -0.0622196 0.997632 
0.0268286 -0.0611202 0.99777 
0.0226384 -0.0561895 0.998163 
0.0168982 -0.0499487 0.998609 
0.0105505 -0.0396483 0.999158 
-0.0016863 -0.00833237 0.999964 
-0.0142264 0.0214973 0.999668 
-0.0316581 0.0638099 0.99746 
-0.0518902 0.112321 0.992316 
-0.0785334 0.170997 0.982137 
-0.109869 0.226696 0.967749 
-0.151593 0.294059 0.943689 
-0.196156 0.359371 0.912346 
-0.246937 0.421073 0.872765 
-0.302935 0.470582 0.828724 
-0.37548 0.529332 0.760804 
-0.447541 0.567642 0.691006 
-0.490669 0.538563 0.684977 
-0.579973 0.561058 0.590632 
-0.686314 0.566393 0.456258 
-0.750536 0.55607 0.357046 
-0.729598 0.478483 0.488612 
-0.779061 0.471803 0.412875 
-0.7452 0.427438 0.511834 
-0.840195 0.397976 0.368359 
-0.811807 0.364858 0.455904 
-0.696851 0.335461 0.633928 
-0.410852 0.256119 0.874988 
-0.190481 0.67304 0.714657 
0.0052853 0.993863 0.110495 
0.0687679 0.806761 -0.586863 
0.576081 0.288329 -0.764851 
0.854579 0.337192 -0.394965 
0.764858 0.327467 -0.554759 
0.704356 0.343274 -0.621326 
0.83459 0.429883 -0.34447 
0.790953 0.456467 -0.407469 
0.736563 0.474561 -0.481941 
0.696727 0.513225 -0.50117 
0.686134 0.586146 -0.430875 
0.589473 0.568174 -0.574195 
0.515134 0.559304 -0.649473 
0.458063 0.571004 -0.681273 
0.381839 0.538722 -0.750985 
0.317689 0.502088 -0.804351 
0.25898 0.45504 -0.851979 
0.208714 0.391438 -0.896222 
0.165864 0.31513 -0.934442 
0.12937 0.261286 -0.956553 
0.0948141 0.201373 -0.974915 
0.0669704 0.149081 -0.986555 
0.0422901 0.0921566 -0.994846 
0.021675 0.0436848 -0.99881 
0.00621852 0.0060627 -0.999962 
-0.00444333 -0.0184917 -0.999819 
-0.0130384 -0.0369305 -0.999233 
-0.019197 -0.0481902 -0.998654 
-0.0240042 -0.0566981 -0.998103 
-0.027656 -0.0621468 -0.997684 
-0.0289674 -0.0638891 -0.997537 
-0.0278525 -0.0585339 -0.997897 
-0.0240765 -0.050382 -0.99844 
-0.0157997 -0.0388023 -0.999122 
-0.0111608 -0.0275532 -0.999558 
0.00147099 -0.0297031 -0.999558 
-0.00306289 -0.0389097 -0.999238 
0.00885485 -0.0436556 -0.999007 
-0.00219286 -0.0365684 -0.999329 
-0.000110711 -9.14912e-06 -1 
2.89528e-06 -1.46033e-05 1 
-0.00812096 -0.0416554 0.999099 
-0.010821 -0.0497086 0.998705 
-0.017801 -0.042324 0.998945 
-0.00716222 -0.0334542 0.999415 
0.00791448 -0.0317832 0.999463 
0.0203447 -0.0449221 0.998783 
0.0301233 -0.0567321 0.997935 
0.0308335 -0.0597668 0.997736 
0.0320535 -0.0613259 0.997603 
0.0302937 -0.0610262 0.997676 
0.0260259 -0.0581723 0.997967 
0.0204587 -0.0502312 0.998528 
0.0150688 -0.0416616 0.999018 
0.00667275 -0.0240063 0.99969 
-0.0060554 0.0135904 0.999889 
-0.0188547 0.0488833 0.998627 
-0.0352035 0.0960465 0.994754 
-0.0560877 0.15123 0.986906 
-0.0832816 0.217252 0.972556 
-0.113513 0.282217 0.952611 
-0.14944 0.343037 0.927358 
-0.195647 0.427766 0.882461 
-0.243374 0.494048 0.834677 
-0.3016 0.553823 0.776092 
-0.366957 0.608739 0.703406 
-0.442377 0.668196 0.598178 
-0.514248 0.670651 0.53458 
-0.568692 0.634594 0.523336 
-0.656645 0.630141 0.414415 
-0.728557 0.63731 0.251078 
-0.784797 0.592507 0.181738 
-0.796542 0.521443 0.305971 
-0.832573 0.471153 0.291268 
-0.79339 0.42067 0.439965 
-0.855873 0.434354 0.280746 
-0.781778 0.330087 0.529024 
-0.361935 0.417362 0.833554 
-0.0104394 0.889499 0.456818 
0.00790144 0.981116 -0.193257 
0.109728 0.668993 -0.735125 
0.544064 0.269941 -0.794435 
0.843774 0.35997 -0.39808 
0.878071 0.399912 -0.262795 
0.790493 0.379654 -0.480607 
0.843571 0.481347 -0.238104 
0.802055 0.516824 -0.299335 
0.764409 0.554696 -0.32862 
0.719549 0.639784 -0.270046 
0.636774 0.650526 -0.413926 
0.563874 0.664662 -0.490174 
0.493608 0.675104 -0.548257 
0.420194 0.648479 -0.634754 
0.351294 0.614924 -0.706017 
0.289112 0.574017 -0.766106 
0.232037 0.502999 -0.832557 
0.184282 0.413668 -0.891582 
0.148677 0.348807 -0.925326 
0.112944 0.280567 -0.953166 
0.0837722 0.221079 -0.971651 
0.058165 0.15756 -0.985795 
0.0361893 0.0982068 -0.994508 
0.0174231 0.0456724 -0.998805 
0.00429203 0.00999979 -0.999941 
-0.00571257 -0.0168357 -0.999842 
-0.0133523 -0.0336824 -0.999343 
-0.0195082 -0.0442101 -0.998832 
-0.0243785 -0.0523661 -0.99833 
-0.0279925 -0.0578898 -0.99793 
-0.0298799 -0.0616593 -0.99765 
-0.0287098 -0.0595182 -0.997814 
-0.0229334 -0.0520566 -0.998381 
-0.0116522 -0.0402948 -0.99912 
-0.00608029 -0.0286447 -0.999571 
0.00385443 -0.0279181 -0.999603 
0.011849 -0.0351367 -0.999312 
0.0151092 -0.0454179 -0.998854 
0.00171315 -0.0321039 -0.999483 
-2.17193e-05 -2.4774e-05 -1 
1.71308e-06 2.02676e-06 1 
-0.0081452 -0.0464115 0.998889 
-0.0133135 -0.0437738 0.998953 
-0.0140687 -0.0343729 0.99931 
0.00208128 -0.0307773 0.999524 
0.00976565 -0.0348891 0.999343 
0.0205282 -0.0439983 0.998821 
0.0286997 -0.051767 0.998247 
0.0321556 -0.0574023 0.997833 
0.0309716 -0.0586966 0.997795 
0.0276778 -0.0559658 0.998049 
0.0237106 -0.0530027 0.998313 
0.0166272 -0.0426549 0.998951 
0.0109348 -0.0318034 0.999434 
0.00457028 -0.0154504 0.99987 
-0.00578419 0.0164326 0.999848 
-0.0189675 0.0602152 0.998005 
-0.033168 0.107316 0.993672 
-0.0526442 0.168609 0.984276 
-0.0747153 0.229079 0.970536 
-0.10157 0.307463 0.946124 