# vtk DataFile Version 3.0 
Exported using Morpho https://github.com/Morpho-lang/morpho 
ASCII 
DATASET UNSTRUCTURED_GRID 

POINTS 2218 float 
-8.32618 -2.88146 0 
-8.11405 -2.88146 0 
-7.90192 -2.88146 0 
-7.68979 -2.88146 0 
-7.47765 -2.88146 0 
-7.26552 -2.88146 0 
-7.05339 -2.88146 0 
-6.84126 -2.88146 0 
-6.62913 -2.88146 0 
-6.41699 -2.88146 0 
-6.20486 -2.88146 0 
-5.99273 -2.88146 0 
-5.7806 -2.88146 0 
-5.56847 -2.88146 0 
-5.35633 -2.88146 0 
-5.1442 -2.88146 0 
-4.93207 -2.88146 0 
-4.71994 -2.88146 0 
-4.50781 -2.88146 0 
-4.29567 -2.88146 0 
-4.08354 -2.88146 0 
-3.87141 -2.88146 0 
-3.65928 -2.88146 0 
-3.44715 -2.88146 0 
-3.23501 -2.88146 0 
-3.02288 -2.88146 0 
-2.81075 -2.88146 0 
-2.59862 -2.88146 0 
-2.38649 -2.88146 0 
-2.17435 -2.88146 0 
-1.96222 -2.88146 0 
-1.75009 -2.88146 0 
-1.53796 -2.88146 0 
-1.32583 -2.88146 0 
-1.11369 -2.88146 0 
-0.901561 -2.88146 0 
-0.689429 -2.88146 0 
-0.477297 -2.88146 0 
-0.265165 -2.88146 0 
-0.053033 -2.88146 0 
0.159099 -2.88146 0 
0.371231 -2.88146 0 
0.583363 -2.88146 0 
0.795495 -2.88146 0 
1.00763 -2.88146 0 
1.21976 -2.88146 0 
1.43189 -2.88146 0 
1.64402 -2.88146 0 
1.85616 -2.88146 0 
2.06829 -2.88146 0 
2.28042 -2.88146 0 
2.49255 -2.88146 0 
2.70468 -2.88146 0 
2.91682 -2.88146 0 
3.12895 -2.88146 0 
3.34108 -2.88146 0 
3.55321 -2.88146 0 
3.76534 -2.88146 0 
3.97748 -2.88146 0 
4.18961 -2.88146 0 
4.40174 -2.88146 0 
4.61387 -2.88146 0 
4.826 -2.88146 0 
5.03814 -2.88146 0 
5.25027 -2.88146 0 
5.4624 -2.88146 0 
5.67453 -2.88146 0 
5.88666 -2.88146 0 
6.0988 -2.88146 0 
6.31093 -2.88146 0 
6.52306 -2.88146 0 
6.73519 -2.88146 0 
6.94732 -2.88146 0 
7.15946 -2.88146 0 
7.37159 -2.88146 0 
7.58372 -2.88146 0 
7.79585 -2.88146 0 
8.00798 -2.88146 0 
8.22012 -2.88146 0 
8.53831 -2.88146 0 
-8.53831 -2.74191 0 
-8.31582 -2.64501 0 
-8.07457 -2.6678 0 
-7.84065 -2.66871 0 
-7.60885 -2.67986 0 
-7.37406 -2.66529 0 
-7.15165 -2.66916 0 
-6.92223 -2.66994 0 
-6.69397 -2.66922 0 
-6.47444 -2.66631 0 
-6.25475 -2.66671 0 
-6.03672 -2.66783 0 
-5.81841 -2.66849 0 
-5.60132 -2.66716 0 
-5.3871 -2.66783 0 
-5.17318 -2.66774 0 
-4.96063 -2.66901 0 
-4.74773 -2.66942 0 
-4.53493 -2.67013 0 
-4.32257 -2.66923 0 
-4.11043 -2.66897 0 
-3.89948 -2.67015 0 
-3.6874 -2.66807 0 
-3.47729 -2.66897 0 
-3.26672 -2.66922 0 
-3.05604 -2.66991 0 
-2.84576 -2.67348 0 
-2.63314 -2.672 0 
-2.42334 -2.68117 0 
-2.20104 -2.6747 0 
-1.98567 -2.66846 0 
-1.77691 -2.66875 0 
-1.56646 -2.67107 0 
-1.35455 -2.6696 0 
-1.14075 -2.67212 0 
-0.927192 -2.66978 0 
-0.714371 -2.67379 0 
-0.497148 -2.66861 0 
-0.284801 -2.6816 0 
-0.0532918 -2.66536 0 
0.171262 -2.67198 0 
0.375583 -2.66403 0 
0.587177 -2.66399 0 
0.810576 -2.67423 0 
1.02257 -2.67174 0 
1.23831 -2.67122 0 
1.45414 -2.67243 0 
1.6641 -2.66841 0 
1.87781 -2.67032 0 
2.09136 -2.67153 0 
2.30587 -2.67152 0 
2.51737 -2.67207 0 
2.73549 -2.67491 0 
2.94552 -2.66986 0 
3.16535 -2.67665 0 
3.37593 -2.66742 0 
3.58724 -2.66918 0 
3.80084 -2.67077 0 
4.01351 -2.67166 0 
4.2269 -2.67314 0 
4.43875 -2.67232 0 
4.65034 -2.67204 0 
4.86233 -2.67179 0 
5.07153 -2.66933 0 
5.28126 -2.66918 0 
5.48972 -2.66839 0 
5.70024 -2.67114 0 
5.90915 -2.67034 0 
6.12116 -2.67331 0 
6.31956 -2.65743 0 
6.51935 -2.67209 0 
6.73176 -2.67004 0 
6.94513 -2.66748 0 
7.15987 -2.6649 0 
7.37307 -2.66376 0 
7.58727 -2.6595 0 
7.80433 -2.65679 0 
8.02421 -2.65176 0 
8.30133 -2.71409 0 
8.53831 -2.66933 0 
-8.53831 -2.50048 0 
-8.27039 -2.4434 0 
-8.03897 -2.45932 0 
-7.81013 -2.46032 0 
-7.57971 -2.48049 0 
-7.35696 -2.44828 0 
-7.12544 -2.46563 0 
-6.88927 -2.46757 0 
-6.6745 -2.45364 0 
-6.45431 -2.45396 0 
-6.23679 -2.45339 0 
-6.01731 -2.45718 0 
-5.79991 -2.45731 0 
-5.58574 -2.45336 0 
-5.372 -2.45493 0 
-5.15929 -2.45427 0 
-4.94615 -2.45705 0 
-4.73174 -2.45855 0 
-4.51967 -2.45845 0 
-4.30562 -2.45797 0 
-4.09351 -2.45643 0 
-3.88132 -2.45874 0 
-3.66969 -2.45436 0 
-3.45871 -2.456 0 
-3.24629 -2.45709 0 
-3.03302 -2.45924 0 
-2.81948 -2.46624 0 
-2.60494 -2.46287 0 
-2.37913 -2.48784 0 
-2.15559 -2.46945 0 
-1.94285 -2.45341 0 
-1.72952 -2.45689 0 
-1.51774 -2.45932 0 
-1.29533 -2.46323 0 
-1.07889 -2.46188 0 
-0.856762 -2.46131 0 
-0.637113 -2.46682 0 
-0.405912 -2.46304 0 
-0.181766 -2.48455 0 
-0.0466844 -2.31586 0 
0.0931715 -2.4799 0 
0.322265 -2.43802 0 
0.525971 -2.4479 0 
0.750978 -2.47276 0 
0.976147 -2.45802 0 
1.18702 -2.46439 0 
1.40844 -2.4641 0 
1.62207 -2.45272 0 
1.83161 -2.45894 0 
2.04471 -2.46038 0 
2.25677 -2.46337 0 
2.47152 -2.45887 0 
2.68174 -2.47261 0 
2.89889 -2.45687 0 
3.113 -2.47538 0 
3.32938 -2.45658 0 
3.5442 -2.45473 0 
3.75394 -2.461 0 
3.9681 -2.46107 0 
4.18064 -2.46471 0 
4.39335 -2.46278 0 
4.6054 -2.46235 0 
4.81792 -2.46292 0 
5.03053 -2.45651 0 
5.24106 -2.45685 0 
5.45187 -2.45443 0 
5.66276 -2.46008 0 
5.87383 -2.45889 0 
6.08662 -2.46623 0 
6.29709 -2.43844 0 
6.50549 -2.45324 0 
6.71319 -2.4601 0 
6.92854 -2.45605 0 
7.14602 -2.45223 0 
7.3645 -2.44504 0 
7.58325 -2.43923 0 
7.80767 -2.43575 0 
8.0828 -2.47941 0 
8.30666 -2.48327 0 
8.53831 -2.4572 0 
-8.53831 -2.26803 0 
-8.31561 -2.26626 0 
-8.0358 -2.24612 0 
-7.79737 -2.24813 0 
-7.57587 -2.27321 0 
-7.32069 -2.2499 0 
-7.07189 -2.27503 0 
-6.85196 -2.24611 0 
-6.62566 -2.24342 0 
-6.4041 -2.24052 0 
-6.18093 -2.24489 0 
-5.96245 -2.24619 0 
-5.74883 -2.24263 0 
-5.53502 -2.2399 0 
-5.32453 -2.24072 0 
-5.11325 -2.24166 0 
-4.9012 -2.24677 0 
-4.69248 -2.24471 0 
-4.48116 -2.24802 0 
-4.27101 -2.24483 0 
-4.0615 -2.24358 0 
-3.85289 -2.24527 0 
-3.64346 -2.24004 0 
-3.43313 -2.24406 0 
-3.21971 -2.24702 0 
-3.00796 -2.24988 0 
-2.79575 -2.25888 0 
-2.58809 -2.24415 0 
-2.38855 -2.29187 0 
-2.19396 -2.24668 0 
-1.99602 -2.24578 0 
-1.78038 -2.24329 0 
-1.57072 -2.24204 0 
-1.36114 -2.25918 0 
-1.14345 -2.24845 0 
-0.931138 -2.25366 0 
-0.713599 -2.2508 0 
-0.501277 -2.26236 0 
-0.27561 -2.25929 0 
-0.0494122 -2.11412 0 
0.181118 -2.257 0 
0.390257 -2.2031 0 
0.605197 -2.25147 0 
0.817948 -2.26475 0 
1.0273 -2.23827 0 
1.24163 -2.25952 0 
1.44953 -2.24703 0 
1.65743 -2.23541 0 
1.86596 -2.2465 0 
2.07438 -2.24727 0 
2.28713 -2.25439 0 
2.49763 -2.24646 0 
2.71057 -2.26701 0 
2.91794 -2.23823 0 
3.12129 -2.26977 0 
3.32759 -2.23875 0 
3.53463 -2.2486 0 
3.75605 -2.24678 0 
3.96538 -2.25329 0 
4.18292 -2.25503 0 
4.39297 -2.24982 0 
4.60219 -2.25195 0 
4.81424 -2.25308 0 
5.02054 -2.23971 0 
5.22749 -2.24426 0 
5.43755 -2.24225 0 
5.64952 -2.24812 0 
5.86004 -2.24715 0 
6.07125 -2.25736 0 
6.28335 -2.22936 0 
6.49686 -2.24202 0 
6.70954 -2.24578 0 
6.92149 -2.24487 0 
7.13733 -2.24154 0 
7.35696 -2.23178 0 
7.57778 -2.22387 0 
7.8051 -2.22119 0 
8.04016 -2.28872 0 
8.30112 -2.25055 0 
8.53831 -2.24506 0 
-8.42441 -2.03809 0 
-8.19848 -2.07144 0 
-7.95178 -2.03928 0 
-7.73512 -2.02551 0 
-7.51319 -2.07959 0 
-7.34564 -1.98466 0 
-7.14808 -2.08043 0 
-6.91865 -2.03952 0 
-6.68537 -2.03554 0 
-6.4588 -2.03076 0 
-6.23097 -2.03698 0 
-6.00602 -2.03588 0 
-5.78705 -2.02943 0 
-5.57175 -2.02853 0 
-5.35527 -2.02595 0 
-5.14315 -2.02895 0 
-4.92854 -2.03541 0 
-4.71513 -2.03061 0 
-4.50322 -2.0369 0 
-4.28992 -2.03369 0 
-4.07522 -2.03059 0 
-3.86278 -2.03139 0 
-3.65199 -2.02736 0 
-3.43822 -2.03126 0 
-3.22621 -2.03857 0 
-3.00873 -2.03778 0 
-2.79862 -2.04755 0 
-2.59602 -2.02268 0 
-2.39142 -2.06817 0 
-2.19321 -2.0195 0 
-1.97627 -2.03921 0 
-1.76165 -2.02932 0 
-1.54724 -2.02875 0 
-1.33057 -2.05175 0 
-1.1122 -2.03373 0 
-0.893169 -2.0426 0 
-0.677266 -2.03314 0 
-0.459664 -2.05473 0 
-0.247076 -2.03147 0 
-0.0454621 -1.87906 0 
0.154268 -2.03895 0 
0.357557 -1.97962 0 
0.578639 -2.03132 0 
0.792005 -2.04909 0 
1.00406 -2.02158 0 
1.21784 -2.04591 0 
1.42937 -2.02985 0 
1.63822 -2.01909 0 
1.849 -2.02958 0 
2.057 -2.03106 0 
2.26566 -2.04387 0 
2.47819 -2.03469 0 
2.69258 -2.05594 0 
2.90855 -2.03034 0 
3.12601 -2.05311 0 
3.33681 -2.02226 0 
3.56036 -2.04815 0 
3.77083 -2.03189 0 
3.99041 -2.04876 0 
4.20053 -2.04128 0 
4.40869 -2.03515 0 
4.6193 -2.04047 0 
4.82568 -2.03569 0 
5.03467 -2.02378 0 
5.2426 -2.03044 0 
5.45595 -2.03209 0 
5.6651 -2.03552 0 
5.87399 -2.03373 0 
6.08292 -2.04664 0 
6.29493 -2.01765 0 
6.50561 -2.03368 0 
6.71925 -2.03424 0 
6.9343 -2.03242 0 
7.15308 -2.02973 0 
7.3736 -2.01709 0 
7.60453 -2.0138 0 
7.84234 -2.01572 0 
8.07044 -2.08563 0 
8.29653 -2.02301 0 
8.53831 -2.03293 0 
-8.53831 -1.83143 0 
-8.29914 -1.83137 0 
-8.07364 -1.85849 0 
-7.83634 -1.80723 0 
-7.59156 -1.84247 0 
-7.35299 -1.77758 0 
-7.12384 -1.86261 0 
-6.91068 -1.81478 0 
-6.69885 -1.8287 0 
-6.47377 -1.8178 0 
-6.25689 -1.82872 0 
-6.03627 -1.82759 0 
-5.81877 -1.81811 0 
-5.6045 -1.81441 0 
-5.39337 -1.81558 0 
-5.17911 -1.81363 0 
-4.96835 -1.82365 0 
-4.75692 -1.81994 0 
-4.54244 -1.82323 0 
-4.33224 -1.82311 0 
-4.11832 -1.82245 0 
-3.90134 -1.81949 0 
-3.68951 -1.81424 0 
-3.47592 -1.82102 0 
-3.2597 -1.82508 0 
-3.04692 -1.83318 0 
-2.82577 -1.83249 0 
-2.6194 -1.80435 0 
-2.4094 -1.84751 0 
-2.19517 -1.80721 0 
-1.9816 -1.83053 0 
-1.76531 -1.81705 0 
-1.54431 -1.82207 0 
-1.32115 -1.84099 0 
-1.09695 -1.822 0 
-0.881642 -1.82358 0 
-0.66682 -1.8128 0 
-0.449707 -1.83573 0 
-0.243089 -1.7928 0 
-0.0352359 -1.63752 0 
0.156187 -1.80405 0 
0.369188 -1.75154 0 
0.576815 -1.81799 0 
0.797321 -1.83034 0 
1.0073 -1.8006 0 
1.2208 -1.82965 0 
1.43516 -1.81249 0 
1.65092 -1.80552 0 
1.86022 -1.81241 0 
2.07001 -1.81519 0 
2.28186 -1.83185 0 
2.49225 -1.8191 0 
2.69917 -1.84828 0 
2.90192 -1.80911 0 
3.10806 -1.84528 0 
3.31611 -1.80804 0 
3.531 -1.84638 0 
3.75171 -1.81923 0 
3.96671 -1.84376 0 
4.18613 -1.82757 0 
4.39582 -1.81913 0 
4.60395 -1.82703 0 
4.81422 -1.82023 0 
5.0233 -1.81209 0 
5.23753 -1.81517 0 
5.4462 -1.82406 0 
5.66283 -1.82204 0 
5.87644 -1.82494 0 
6.09052 -1.83467 0 
6.29624 -1.80164 0 
6.50348 -1.82176 0 
6.71389 -1.8244 0 
6.93 -1.81982 0 
7.14689 -1.81762 0 
7.3677 -1.80568 0 
7.59546 -1.80735 0 
7.83033 -1.80771 0 
8.06908 -1.8618 0 
8.30296 -1.79847 0 
8.53831 -1.8208 0 
-8.53831 -1.61528 0 
-8.30002 -1.61442 0 
[...]
POINT_DATA 2218 
VECTORS vectors float
6.52604e-06 -0.000534912 1 
0.000138311 -0.0146581 0.999893 
-2.95681e-05 -0.0179785 0.999838 
3.89209e-05 -0.0179817 0.999838 
2.22303e-05 -0.0166972 0.999861 
2.39018e-05 -0.0149306 0.999889 
2.46898e-05 -0.0130405 0.999915 
2.44947e-05 -0.0110614 0.999939 
2.4244e-05 -0.00899764 0.99996 
2.43811e-05 -0.00689534 0.999976 
2.43582e-05 -0.00481051 0.999988 
2.45158e-05 -0.00277466 0.999996 
2.45529e-05 -0.000777474 1 
2.4367e-05 0.00123155 0.999999 
2.45391e-05 0.00333174 0.999994 
2.43653e-05 0.00562397 0.999984 
2.43752e-05 0.00822608 0.999966 
2.42198e-05 0.0112763 0.999936 
2.4125e-05 0.014936 0.999888 
2.38128e-05 0.0193984 0.999812 
2.35079e-05 0.0248956 0.99969 
2.34413e-05 0.0317086 0.999497 
2.26068e-05 0.0401961 0.999192 
2.23752e-05 0.0507849 0.99871 
2.15116e-05 0.0640191 0.997949 
2.06933e-05 0.080567 0.996749 
1.9974e-05 0.101242 0.994862 
1.77244e-05 0.127088 0.991891 
1.74737e-05 0.159274 0.987234 
1.43693e-05 0.199264 0.979946 
1.1715e-05 0.248707 0.968579 
9.08689e-06 0.309221 0.95099 
5.0777e-06 0.382343 0.924021 
6.95992e-07 0.468972 0.883213 
-4.12413e-06 0.56838 0.822766 
-8.90599e-06 0.677181 0.735816 
-1.22612e-05 0.787789 0.615945 
-1.29443e-05 0.888222 0.459414 
-9.40511e-06 0.963079 0.269219 
-2.408e-06 0.998445 0.0557413 
6.56853e-06 0.986787 -0.162022 
1.11461e-05 0.930675 -0.365848 
1.30422e-05 0.841358 -0.540479 
1.13286e-05 0.734055 -0.67909 
6.16494e-06 0.623145 -0.782106 
2.11013e-06 0.518278 -0.855212 
-3.26304e-06 0.424907 -0.905237 
-6.91097e-06 0.344987 -0.938607 
-1.0394e-05 0.278176 -0.96053 
-1.34839e-05 0.223296 -0.974751 
-1.55892e-05 0.178688 -0.983906 
-1.73641e-05 0.142674 -0.98977 
-1.95054e-05 0.113718 -0.993513 
-1.94579e-05 0.0905334 -0.995893 
-2.20494e-05 0.0719714 -0.997407 
-2.14972e-05 0.05714 -0.998366 
-2.24846e-05 0.0452629 -0.998975 
-2.32011e-05 0.0357611 -0.99936 
-2.3294e-05 0.0281387 -0.999604 
-2.39157e-05 0.022002 -0.999758 
-2.39273e-05 0.0170323 -0.999855 
-2.41554e-05 0.0129792 -0.999916 
-2.44655e-05 0.00963144 -0.999954 
-2.42723e-05 0.00680841 -0.999977 
-2.45678e-05 0.00436419 -0.99999 
-2.43632e-05 0.00217117 -0.999998 
-2.48337e-05 0.000119522 -1 
-2.37911e-05 -0.00188772 -0.999998 
-2.62156e-05 -0.00391207 -0.999992 
-2.23752e-05 -0.00599378 -0.999982 
-2.56964e-05 -0.00817072 -0.999967 
-2.42903e-05 -0.0103481 -0.999946 
-2.41113e-05 -0.0124913 -0.999922 
-2.45801e-05 -0.0145964 -0.999893 
-2.39532e-05 -0.0165759 -0.999863 
-2.27407e-05 -0.0184638 -0.99983 
-3.33034e-05 -0.0197715 -0.999805 
-9.74128e-06 -0.0199983 -0.9998 
-1.63948e-05 -0.0171974 -0.999852 
-7.38948e-05 -0.000963999 -1 
-5.95546e-05 0.000236233 1 
0.00764783 -0.0116796 0.999903 
0.00992096 -0.0161763 0.99982 
0.010889 -0.0177739 0.999783 
0.0112645 -0.0172089 0.999788 
0.0117495 -0.0155779 0.99981 
0.0119017 -0.0136765 0.999836 
0.0120206 -0.0115938 0.999861 
0.0121229 -0.00945094 0.999882 
0.0122806 -0.00734673 0.999898 
0.0123568 -0.00523953 0.99991 
0.012406 -0.00317158 0.999918 
0.0124433 -0.00112192 0.999922 
0.0124988 0.00093477 0.999921 
0.0125014 0.00305358 0.999917 
0.0124886 0.00535454 0.999908 
0.0124239 0.00793899 0.999891 
0.0123415 0.0109628 0.999864 
0.0122164 0.0145796 0.999819 
0.0120862 0.0189726 0.999747 
0.0119011 0.0243698 0.999632 
0.0116467 0.0310095 0.999451 
0.0113898 0.0393169 0.999162 
0.0110313 0.0495612 0.99871 
0.0106127 0.0623643 0.997997 
0.0101079 0.0783475 0.996875 
0.00947156 0.0982294 0.995119 
0.00877623 0.123329 0.992327 
0.0078583 0.154168 0.988013 
0.00690451 0.194929 0.980793 
0.0058507 0.244062 0.969742 
0.00465473 0.302321 0.953195 
0.00334106 0.373186 0.927751 
0.0020194 0.457797 0.889054 
0.000731026 0.556136 0.831091 
-0.000302207 0.664384 0.747391 
-0.0010256 0.775258 0.631644 
-0.00119119 0.879572 0.475764 
-0.000984401 0.957517 0.288375 
-0.000207604 0.998407 0.0564203 
0.00056662 0.984572 -0.174981 
0.000974617 0.928877 -0.370388 
0.00107242 0.839475 -0.543397 
0.000743714 0.726551 -0.687112 
-0.000140066 0.616284 -0.787524 
-0.00131359 0.510798 -0.8597 
-0.00262949 0.417275 -0.908776 
-0.00397076 0.339568 -0.940573 
-0.00522416 0.273451 -0.961872 
-0.00637816 0.219241 -0.97565 
-0.00742169 0.175048 -0.984532 
-0.00830905 0.139906 -0.99013 
-0.00907055 0.110811 -0.9938 
-0.00977809 0.0884477 -0.996033 
-0.0102635 0.0697432 -0.997512 
-0.0108509 0.0554631 -0.998402 
-0.0112094 0.0439813 -0.998969 
-0.0115149 0.0346863 -0.999332 
-0.011776 0.0272646 -0.999559 
-0.0119795 0.0212655 -0.999702 
-0.0121663 0.0164322 -0.999791 
-0.0123152 0.012493 -0.999846 
-0.0124293 0.00921871 -0.99988 
-0.0125413 0.00647623 -0.9999 
-0.0126007 0.00408183 -0.999912 
-0.0126459 0.00193252 -0.999918 
-0.0126069 -0.00010861 -0.999921 
-0.0126216 -0.00208908 -0.999918 
-0.012586 -0.00410973 -0.999912 
-0.0128363 -0.00604289 -0.999899 
-0.0124256 -0.00802254 -0.999891 
-0.0123085 -0.0101326 -0.999873 
-0.0121808 -0.0122278 -0.999851 
-0.012 -0.014281 -0.999826 
-0.0117678 -0.0162917 -0.999798 
-0.0114005 -0.0180235 -0.999773 
-0.0107987 -0.019213 -0.999757 
-0.00979601 -0.0191362 -0.999769 
-0.00645553 -0.0152615 -0.999863 
0.000121788 0.000403092 -1 
5.06953e-05 -0.000183856 1 
0.00896877 -0.0147819 0.999851 
0.0116849 -0.0175819 0.999777 
0.0130002 -0.0178929 0.999755 
0.0137162 -0.0169934 0.999762 
0.0143329 -0.0153404 0.99978 
0.0145464 -0.0133146 0.999806 
0.0147765 -0.011153 0.999829 
0.0150592 -0.00915315 0.999845 
0.0151962 -0.00709186 0.999859 
0.0153233 -0.00504771 0.99987 
0.0153976 -0.00298807 0.999877 
0.015475 -0.000945526 0.99988 
0.0155504 0.00110394 0.999878 
0.0155453 0.00325229 0.999874 
0.0155247 0.00558641 0.999864 
0.0154371 0.00823536 0.999847 
0.0153162 0.0113545 0.999818 
0.0151591 0.0150504 0.999772 
0.0149493 0.0195928 0.999696 
0.0146943 0.0251338 0.999576 
0.0143473 0.0319911 0.999385 
0.0139804 0.0405081 0.999081 
0.0135021 0.0510704 0.998604 
0.0129451 0.0643447 0.997844 
0.0122926 0.0810082 0.996638 
0.01151 0.101837 0.994734 
0.0106289 0.127907 0.991729 
0.0094893 0.162702 0.98663 
0.00838618 0.205339 0.978655 
0.0072902 0.25629 0.966572 
0.00600805 0.318378 0.947945 
0.00472731 0.392597 0.919699 
0.00340418 0.484706 0.87467 
0.00229763 0.587297 0.809368 
0.00135837 0.701425 0.712742 
0.000624138 0.814116 0.580701 
0.000222739 0.91678 0.399392 
-7.12378e-05 0.98223 0.187681 
0.00010985 0.998774 0.0494981 
-4.91305e-05 0.995436 -0.0954311 
-0.000394487 0.946756 -0.321952 
-0.000664657 0.867638 -0.497195 
-0.000941108 0.75779 -0.652498 
-0.00191836 0.640622 -0.767854 
-0.00285057 0.535651 -0.844435 
-0.00407845 0.437032 -0.899437 
-0.00541847 0.355301 -0.934736 
-0.00661594 0.287881 -0.957643 
-0.00783542 0.231311 -0.972848 
-0.00896683 0.185393 -0.982624 
-0.0100513 0.147869 -0.988956 
-0.0109139 0.118211 -0.992929 
-0.0118101 0.093646 -0.995536 
-0.0124724 0.0745047 -0.997143 
-0.013152 0.0588501 -0.99818 
-0.013714 0.0465687 -0.998821 
-0.0141206 0.0369342 -0.999218 
-0.0145139 0.0290336 -0.999473 
-0.0148285 0.0227449 -0.999631 
-0.0150557 0.017581 -0.999732 
-0.0152838 0.013437 -0.999793 
-0.0154524 0.0100012 -0.999831 
-0.0155625 0.00707468 -0.999854 
-0.0156578 0.00458603 -0.999867 
-0.0157273 0.00235026 -0.999874 
-0.0157049 0.000265326 -0.999877 
-0.0156943 -0.00175364 -0.999875 
-0.0156121 -0.00378351 -0.999871 
-0.0156843 -0.00579102 -0.99986 
-0.0154503 -0.00781923 -0.99985 
-0.0151993 -0.00983872 -0.999836 
-0.0149592 -0.0119202 -0.999817 
-0.0146227 -0.0140003 -0.999795 
-0.0141683 -0.0160074 -0.999771 
-0.0135499 -0.0177856 -0.99975 
-0.0125207 -0.0189858 -0.999741 
-0.0103769 -0.0186542 -0.999772 
-0.00736216 -0.015258 -0.999856 
-8.23157e-05 -0.000166074 -1 
-5.22435e-05 -0.000100754 1 
0.00808131 -0.0145437 0.999862 
0.0115244 -0.0181637 0.999769 
0.0130814 -0.0181643 0.999749 
0.0139887 -0.017025 0.999757 
0.014568 -0.0150321 0.999781 
0.0150696 -0.0127801 0.999805 
0.0152664 -0.0107357 0.999826 
0.0154884 -0.00865665 0.999843 
0.015665 -0.00661332 0.999855 
0.0158317 -0.00453828 0.999864 
0.0159527 -0.00249123 0.99987 
0.0160244 -0.000465316 0.999871 
0.0160606 0.00162308 0.99987 
0.0160592 0.00380451 0.999864 
0.0160193 0.00621315 0.999852 
0.0159396 0.00896588 0.999833 
0.0157994 0.012149 0.999801 
0.0156158 0.0160007 0.99975 
0.0153646 0.0206668 0.999668 
0.0150589 0.026373 0.999539 
0.0146949 0.0333802 0.999335 
0.0142527 0.0421106 0.999011 
0.013754 0.0529902 0.9985 
0.0131738 0.0667592 0.997682 
0.012521 0.0838507 0.9964 
0.0118009 0.10528 0.994373 
0.0109601 0.131065 0.991313 
0.0101151 0.161617 0.986802 
0.00925315 0.198545 0.980048 
0.0083301 0.243349 0.969903 
0.00734442 0.302948 0.952979 
0.00644063 0.372943 0.927832 
0.00547471 0.456031 0.889947 
0.00476054 0.555291 0.831643 
0.00399711 0.662129 0.749379 
0.00329878 0.775096 0.631835 
0.0023272 0.877309 0.47992 
0.00133591 0.959861 0.280473 
0.000390334 0.998624 0.0524366 
-0.00101844 0.982668 -0.185372 
-0.00256347 0.92282 -0.385223 
-0.00298156 0.830183 -0.557483 
-0.00355562 0.722968 -0.690873 
-0.00454875 0.613442 -0.789727 
-0.0050675 0.509908 -0.860214 
-0.00596824 0.420339 -0.907348 
-0.00688493 0.343352 -0.939181 
-0.00775448 0.278495 -0.960406 
-0.00869576 0.224912 -0.97434 
-0.00965345 0.180217 -0.98358 
-0.0105677 0.144472 -0.989452 
-0.0114759 0.115448 -0.993247 
-0.0121948 0.0924905 -0.995639 
-0.0129186 0.0743089 -0.997152 
-0.0134941 0.0596127 -0.99813 
-0.0140301 0.0475063 -0.998772 
-0.0145149 0.037237 -0.999201 
-0.0149348 0.029422 -0.999455 
-0.0152716 0.0228854 -0.999621 
-0.0155901 0.0178539 -0.999719 
-0.0158009 0.0136746 -0.999782 
-0.015957 0.0101671 -0.999821 
-0.0161106 0.00732517 -0.999843 
-0.0161877 0.00481245 -0.999857 
-0.0162361 0.00253682 -0.999865 
-0.0162556 0.00040543 -0.999868 
-0.0162037 -0.00162904 -0.999867 
-0.0161659 -0.00365089 -0.999863 
-0.0160167 -0.00568185 -0.999856 
-0.0158789 -0.00773365 -0.999844 
-0.0156293 -0.00975575 -0.99983 
-0.0153218 -0.0117855 -0.999813 
-0.0149049 -0.0138673 -0.999793 
-0.0143172 -0.0159248 -0.999771 
-0.0135556 -0.0177225 -0.999751 
-0.0124571 -0.0189542 -0.999743 
-0.0110382 -0.0190782 -0.999757 
-0.00763546 -0.0153927 -0.999852 
0.000156622 -9.11711e-06 -1 
0.00528647 -0.0121118 0.999913 
0.00919686 -0.0171048 0.999811 
0.0112648 -0.018806 0.99976 
0.0123543 -0.018182 0.999758 
0.0134982 -0.0168004 0.999768 
0.0133971 -0.0154101 0.999792 
0.0143041 -0.0135294 0.999806 
0.0143748 -0.0113398 0.999832 
0.0146589 -0.0092114 0.99985 
0.0148651 -0.0071458 0.999864 
0.0150861 -0.0050423 0.999873 
0.0152256 -0.00293453 0.99988 
0.0152915 -0.000846909 0.999883 
0.0153396 0.001268 0.999882 
0.0153343 0.00351682 0.999876 
0.01531 0.00592987 0.999865 
0.0152543 0.00869827 0.999846 
0.0150926 0.0119264 0.999815 
0.0149337 0.0157517 0.999764 
0.0146701 0.0204376 0.999683 
0.0143467 0.0262357 0.999553 
0.0139857 0.0333309 0.999347 
0.0135436 0.0420693 0.999023 
0.0130718 0.0530842 0.998504 
0.0125571 0.0667006 0.997694 
0.0119345 0.0841616 0.996381 
0.0113192 0.105216 0.994385 
0.0105867 0.130344 0.991412 
0.00998915 0.161535 0.986817 
0.00927808 0.198436 0.98007 
0.00864712 0.248706 0.96854 
0.00810748 0.308464 0.951201 
0.00768544 0.380636 0.924693 
0.00718911 0.468902 0.883221 
0.00707815 0.569175 0.822186 
0.00657442 0.680493 0.732725 
0.00596896 0.792058 0.610416 
0.0043857 0.894719 0.446608 
0.00273771 0.967338 0.253477 
0.000725475 0.998819 0.0485838 
-0.00181502 0.987246 -0.159192 
-0.00443714 0.934023 -0.357186 
-0.00558301 0.841603 -0.540067 
-0.00629859 0.734441 -0.678644 
-0.00716813 0.624303 -0.78115 
-0.007167 0.520511 -0.853825 
-0.0075953 0.427832 -0.903827 
-0.00798525 0.349485 -0.936908 
-0.00837159 0.283324 -0.958988 
-0.00891528 0.229101 -0.973362 
-0.00954561 0.184638 -0.98276 
-0.0102084 0.147623 -0.988991 
-0.010993 0.117934 -0.992961 
-0.0115992 0.0938661 -0.995517 
-0.0123366 0.0743779 -0.997154 
-0.012756 0.059276 -0.99816 
-0.0134493 0.0465352 -0.998826 
-0.0138196 0.0369646 -0.999221 
-0.0143121 0.0288815 -0.99948 
-0.0146117 0.0226934 -0.999636 
-0.0148681 0.0177071 -0.999733 
-0.0151214 0.0135381 -0.999794 
-0.0152705 0.0101457 -0.999832 
-0.0153521 0.00723591 -0.999856 
-0.0154741 0.00470637 -0.999869 
-0.0155377 0.00237787 -0.999876 
-0.0155808 0.000254548 -0.999879 
-0.0155136 -0.0017896 -0.999878 
-0.0154832 -0.00379845 -0.999873 
-0.0151915 -0.00583176 -0.999868 
-0.015063 -0.00781933 -0.999856 
-0.0148112 -0.0098438 -0.999842 
-0.0144643 -0.0118979 -0.999825 
-0.0140315 -0.0140351 -0.999803 
-0.0133419 -0.0160888 -0.999782 
-0.0125452 -0.0179934 -0.999759 
-0.0114006 -0.0191977 -0.999751 
-0.0100823 -0.0188743 -0.999771 
-0.00724439 -0.0156233 -0.999852 
8.48278e-05 -4.16911e-05 -1 
-2.69449e-05 -0.00013185 1 
0.00678412 -0.0154189 0.999858 
0.00942087 -0.0187543 0.99978 
0.0105397 -0.018792 0.999768 
0.0117811 -0.0174954 0.999778 
0.0119782 -0.0155504 0.999807 
0.0130366 -0.0133402 0.999826 
0.0130394 -0.0113532 0.999851 
0.0133878 -0.00939074 0.999866 
0.0135451 -0.00734343 0.999881 
0.0138111 -0.00534143 0.99989 
0.0139515 -0.00326714 0.999897 
0.0139874 -0.00117894 0.999901 
0.0140175 0.000941423 0.999901 
0.0140388 0.0031396 0.999897 
0.0139916 0.00556624 0.999887 
0.0139857 0.00825081 0.999868 
0.0138349 0.011381 0.99984 
0.0136802 0.0151568 0.999792 
0.013456 0.0196317 0.999717 
0.0131702 0.0252017 0.999596 
0.0128091 0.0321899 0.9994 
0.0123929 0.0406579 0.999096 
0.012005 0.0512561 0.998613 
0.011547 0.0646443 0.997842 
0.0110819 0.0810442 0.996649 
0.0105113 0.102295 0.994699 
0.00991023 0.1273 0.991815 
0.00959267 0.158537 0.987306 
0.00912028 0.197816 0.980197 
0.00889984 0.24632 0.969148 
0.00884915 0.306246 0.951911 
0.0089744 0.380632 0.924683 
0.00913139 0.470366 0.882424 
0.00965237 0.573591 0.819085 
0.00968396 0.684052 0.729369 
0.0092245 0.795838 0.605439 
0.00711621 0.897229 0.441508 
0.00468336 0.967759 0.251835 
0.000950795 0.999263 0.0383638 
-0.00307584 0.986717 -0.16242 
-0.00726603 0.928781 -0.370557 
-0.0086032 0.840681 -0.541463 
-0.00951692 0.728685 -0.684783 
-0.0101244 0.620001 -0.784536 
-0.00949896 0.515485 -0.856846 
-0.00928565 0.423033 -0.906066 
-0.00903737 0.343481 -0.939116 
-0.00893827 0.279338 -0.960151 
-0.00901679 0.225311 -0.974245 
-0.00935546 0.181626 -0.983323 
-0.00971105 0.145733 -0.989276 
-0.0102983 0.117269 -0.993047 
-0.0106157 0.0947324 -0.995446 
-0.011304 0.0761022 -0.997036 
-0.0115853 0.0609973 -0.998071 
-0.0123124 0.0484412 -0.99875 
-0.0125547 0.0380576 -0.999197 
-0.0130904 0.0299372 -0.999466 
-0.0133165 0.023327 -0.999639 
-0.0135298 0.0181912 -0.999743 
-0.0138043 0.0139847 -0.999807 
-0.0139321 0.0104561 -0.999848 
-0.0140086 0.00747973 -0.999874 
-0.0141204 0.00482806 -0.999889 
-0.0142326 0.00250924 -0.999896 
-0.0142082 0.00027341 -0.999899 
-0.0142276 -0.00184745 -0.999897 
-0.0141609 -0.00392078 -0.999892 
-0.0138025 -0.00591604 -0.999887 
-0.0137618 -0.00788109 -0.999874 
-0.013471 -0.00982985 -0.999861 
-0.0131058 -0.0118853 -0.999843 
-0.0126702 -0.0139922 -0.999822 
-0.0120532 -0.0161384 -0.999797 
-0.0113693 -0.0180627 -0.999772 
-0.0103177 -0.0192317 -0.999762 
-0.00909545 -0.0189799 -0.999778 
-0.00644431 -0.0156385 -0.999857 
8.01667e-05 -3.48234e-05 -1 
1.81086e-05 -6.40034e-05 1 
0.00593832 -0.015667 0.99986 
0.00822756 -0.0188662 0.999788 
0.00914753 -0.0189479 0.999779 
0.0103012 -0.0176814 0.999791 
0.010379 -0.0157548 0.999822 
0.0114258 -0.0133958 0.999845 
0.0113821 -0.0111958 0.999873 
0.0118393 -0.00912911 0.999888 
0.0119529 -0.0070711 0.999904 
0.0122669 -0.00499547 0.999912 
0.0123656 -0.0028915 0.999919 
0.0123759 -0.000745389 0.999923 
0.0123831 0.00143645 0.999922 
0.0124236 0.00374417 0.999916 
0.0123647 0.00629122 0.999904 
0.0123384 0.00908338 0.999883 
0.0122187 0.0124538 0.999848 
0.012025 0.0163656 0.999794 
0.011834 0.0211489 0.999706 
0.0115817 0.0270877 0.999566 
0.0111974 0.0342298 0.999351 
0.0108516 0.0432175 0.999007 
0.010538 0.054295 0.998469 
0.0101552 0.0680293 0.997632 
0.00984192 0.0854163 0.996297 
0.00939693 0.106013 0.99432 
0.00895606 0.130952 0.991348 
0.00895466 0.161068 0.986903 
0.00880438 0.200338 0.979687 
0.00898805 0.248703 0.968538 
0.00951722 0.310554 0.950508 
0.0103427 0.386375 0.922284 
0.0111336 0.471028 0.882048 
0.0126015 0.56481 0.825125 
0.0132881 0.670502 0.741789 
0.0134166 0.781539 0.623712 
0.0110325 0.884278 0.46683 
0.00750144 0.962613 0.270777 
0.00196563 0.998474 0.0551953 
-0.00546095 0.981437 -0.191705 
-0.0114411 0.928354 -0.371522 
-0.0125493 0.849569 -0.527329 
-0.0131146 0.744304 -0.667712 
-0.0135203 0.629684 -0.776734 
-0.0120047 0.522204 -0.852736 
-0.0109871 0.426074 -0.904622 
-0.0100111 0.344336 -0.938793 
-0.00930087 0.276719 -0.960906 
-0.00896543 0.223877 -0.974576 
-0.00890493 0.180952 -0.983452 
-0.00894134 0.14677 -0.98913 
-0.00931219 0.11863 -0.992895 
-0.009475 0.0953077 -0.995403 
-0.0100541 0.0762168 -0.997041 
-0.0103229 0.060098 -0.998139 
-0.010972 0.0474236 -0.998815 
-0.0111326 0.037159 -0.999247 
-0.0116699 0.0292326 -0.999505 
-0.0117522 0.0229966 -0.999666 
-0.0119214 0.0179549 -0.999768 
-0.012201 0.0137799 -0.999831 
-0.0123062 0.01028 -0.999871 
-0.012418 0.00720421 -0.999897 
-0.012469 0.00461715 -0.999912 
-0.0126563 0.00220941 -0.999917 
-0.0126065 -1.63462e-05 -0.999921 
-0.0126167 -0.00218165 -0.999918 
-0.0124991 -0.00417628 -0.999913 
-0.0120748 -0.00613778 -0.999908 
-0.0120992 -0.00803716 -0.999895 
-0.0118378 -0.00996763 -0.99988 
-0.0115177 -0.0119101 -0.999863 
-0.01105 -0.0140219 -0.999841 
-0.0105256 -0.0162582 -0.999812 
-0.00988274 -0.0181456 -0.999787 
-0.00900183 -0.0193938 -0.999771 
-0.00801271 -0.0191579 -0.999784 
-0.00560847 -0.0157462 -0.99986 
7.12444e-05 -3.67809e-05 -1 
-8.32869e-05 -3.62427e-06 1 
0.00505407 -0.0157612 0.999863 
0.00701878 -0.018989 0.999795 
0.00776577 -0.0190691 0.999788 
0.008782 -0.0177427 0.999804 
0.00881941 -0.0157915 0.999836 
0.00985776 -0.0135752 0.999859 
0.00975093 -0.0115009 0.999886 
0.0101938 -0.00943455 0.999904 
0.0103 -0.00737832 0.99992 
0.0105954 -0.00526898 0.99993 
0.0107108 -0.00318497 0.999938 
0.0107319 -0.00103517 0.999942 
0.0107199 0.00118764 0.999942 
0.0107643 0.00350385 0.999936 
0.0107451 0.00600573 0.999924 
0.0106631 0.00888682 0.999904 
0.0106347 0.0120951 0.99987 
0.0104099 0.0160537 0.999817 
0.0102708 0.0207117 0.999733 
0.0100924 0.0265007 0.999598 
0.00969293 0.0335348 0.999391 
0.00943989 0.0422284 0.999063 
0.00917321 0.0531807 0.998543 
0.00888594 0.066491 0.997747 
0.00870915 0.0833681 0.996481 
0.00831363 0.103702 0.994574 
0.00806625 0.129334 0.991568 
0.00827958 0.161862 0.986779 
0.00837079 0.19794 0.980178 
0.00897757 0.244435 0.969624 
0.0098878 0.3021 0.953225 
0.0113292 0.376314 0.926423 
0.0132071 0.465499 0.88495 
0.0157598 0.565845 0.824361 
0.0174973 0.67846 0.734429 
0.0182468 0.794382 0.607144 
0.0152517 0.897303 0.441152 
0.0105715 0.96968 0.244148 
0.00285207 0.998638 0.0520965 
-0.00605836 0.99064 -0.136364 
-0.0157842 0.931391 -0.363677 
-0.0184083 0.829428 -0.558311 
-0.0178091 0.730241 -0.682957 
-0.0177072 0.627367 -0.778523 
-0.0148918 0.532013 -0.846605 
-0.0128689 0.437726 -0.899016 
-0.0110511 0.352194 -0.935862 
-0.00969 0.283285 -0.958987 
-0.00881694 0.22731 -0.973783 
-0.00836062 0.182515 -0.983168 
-0.00819322 0.146319 -0.989203 
-0.0083247 0.117057 -0.99309 
-0.00842898 0.092693 -0.995659 
-0.00889806 0.0737009 -0.997241 
-0.00899146 0.0586387 -0.998239 
-0.00961203 0.0470567 -0.998846 
-0.00955766 0.0380004 -0.999232 
-0.0101166 0.0303666 -0.999488 
-0.0101526 0.0239157 -0.999662 
-0.0102399 0.0185826 -0.999775 
-0.0105265 0.0143483 -0.999842 
-0.0106288 0.0107696 -0.999886 
-0.010785 0.00769709 -0.999912 
-0.0107655 0.00494557 -0.99993 
-0.0110242 0.00252476 -0.999936 
-0.0109538 0.000238449 -0.99994 
-0.0109977 -0.00196582 -0.999938 
-0.010741 -0.00410979 -0.999934 
-0.0104222 -0.00619671 -0.999926 
-0.0103796 -0.00817524 -0.999913 
-0.0101477 -0.0101219 -0.999897 
-0.00989928 -0.0121669 -0.999877 
-0.00945216 -0.0142847 -0.999853 
-0.00896526 -0.0165343 -0.999823 
-0.00840899 -0.0184438 -0.999795 