# vtk DataFile Version 3.0 
Exported using Morpho https://github.com/Morpho-lang/morpho 
ASCII 
DATASET UNSTRUCTURED_GRID 

POINTS 2149 float 
-8.32618 -2.88146 0 
-8.11405 -2.88146 0 
-7.90192 -2.88146 0 
-7.68979 -2.88146 0 
-7.47765 -2.88146 0 
-7.26552 -2.88146 0 
-7.05339 -2.88146 0 
-6.84126 -2.88146 0 
-6.62913 -2.88146 0 
-6.41699 -2.88146 0 
-6.20486 -2.88146 0 
-5.99273 -2.88146 0 
-5.7806 -2.88146 0 
-5.56847 -2.88146 0 
-5.35633 -2.88146 0 
-5.1442 -2.88146 0 
-4.93207 -2.88146 0 
-4.71994 -2.88146 0 
-4.50781 -2.88146 0 
-4.29567 -2.88146 0 
-4.08354 -2.88146 0 
-3.87141 -2.88146 0 
-3.65928 -2.88146 0 
-3.44715 -2.88146 0 
-3.23501 -2.88146 0 
-3.02288 -2.88146 0 
-2.81075 -2.88146 0 
-2.59862 -2.88146 0 
-2.38649 -2.88146 0 
-2.17435 -2.88146 0 
-1.96222 -2.88146 0 
-1.75009 -2.88146 0 
-1.53796 -2.88146 0 
-1.32583 -2.88146 0 
-1.11369 -2.88146 0 
-0.901561 -2.88146 0 
-0.689429 -2.88146 0 
-0.477297 -2.88146 0 
-0.265165 -2.88146 0 
-0.053033 -2.88146 0 
0.159099 -2.88146 0 
0.371231 -2.88146 0 
0.583363 -2.88146 0 
0.795495 -2.88146 0 
1.00763 -2.88146 0 
1.21976 -2.88146 0 
1.43189 -2.88146 0 
1.64402 -2.88146 0 
1.85616 -2.88146 0 
2.06829 -2.88146 0 
2.28042 -2.88146 0 
2.49255 -2.88146 0 
2.70468 -2.88146 0 
2.91682 -2.88146 0 
3.12895 -2.88146 0 
3.34108 -2.88146 0 
3.55321 -2.88146 0 
3.76534 -2.88146 0 
3.97748 -2.88146 0 
4.18961 -2.88146 0 
4.40174 -2.88146 0 
4.61387 -2.88146 0 
4.826 -2.88146 0 
5.03814 -2.88146 0 
5.25027 -2.88146 0 
5.4624 -2.88146 0 
5.67453 -2.88146 0 
5.88666 -2.88146 0 
6.0988 -2.88146 0 
6.31093 -2.88146 0 
6.52306 -2.88146 0 
6.73519 -2.88146 0 
6.94732 -2.88146 0 
7.15946 -2.88146 0 
7.37159 -2.88146 0 
7.58372 -2.88146 0 
7.79585 -2.88146 0 
8.00798 -2.88146 0 
8.22012 -2.88146 0 
8.53831 -2.88146 0 
-8.53831 -2.73985 0 
-8.2931 -2.66495 0 
-8.07041 -2.6588 0 
-7.84634 -2.66444 0 
-7.61688 -2.66776 0 
-7.39311 -2.66392 0 
-7.16582 -2.67347 0 
-6.93577 -2.67521 0 
-6.7172 -2.67009 0 
-6.49204 -2.67129 0 
-6.27469 -2.66676 0 
-6.05722 -2.66851 0 
-5.83845 -2.66932 0 
-5.61947 -2.67008 0 
-5.40215 -2.6702 0 
-5.18537 -2.67116 0 
-4.96711 -2.66965 0 
-4.75147 -2.66775 0 
-4.5392 -2.67157 0 
-4.322 -2.67423 0 
-4.10255 -2.66565 0 
-3.89419 -2.67106 0 
-3.67786 -2.67018 0 
-3.46406 -2.67077 0 
-3.24959 -2.66926 0 
-3.03865 -2.66951 0 
-2.82882 -2.67228 0 
-2.617 -2.67372 0 
-2.4039 -2.67326 0 
-2.19182 -2.67279 0 
-1.97752 -2.67011 0 
-1.76684 -2.66922 0 
-1.55128 -2.66765 0 
-1.33494 -2.66373 0 
-1.11789 -2.65934 0 
-0.900598 -2.65477 0 
-0.684359 -2.65163 0 
-0.474124 -2.64349 0 
-0.271318 -2.65313 0 
-0.0597547 -2.66648 0 
0.175575 -2.66166 0 
0.347122 -2.60347 0 
0.541119 -2.65016 0 
0.753517 -2.65796 0 
0.976195 -2.66404 0 
1.19919 -2.66722 0 
1.42406 -2.66258 0 
1.64062 -2.66398 0 
1.85292 -2.6689 0 
2.07329 -2.6738 0 
2.28844 -2.67125 0 
2.50176 -2.66938 0 
2.71494 -2.67011 0 
2.92796 -2.67095 0 
3.14136 -2.67266 0 
3.35553 -2.67459 0 
3.56764 -2.67302 0 
3.78104 -2.67276 0 
3.99112 -2.66993 0 
4.20736 -2.6749 0 
4.41495 -2.66732 0 
4.63321 -2.67628 0 
4.84209 -2.66837 0 
5.0523 -2.66845 0 
5.26323 -2.66953 0 
5.47439 -2.67013 0 
5.6867 -2.67084 0 
5.89843 -2.67154 0 
6.11396 -2.67519 0 
6.32304 -2.66956 0 
6.54012 -2.6754 0 
6.75069 -2.66914 0 
6.96614 -2.67085 0 
7.17844 -2.66534 0 
7.39601 -2.66705 0 
7.60794 -2.66046 0 
7.82092 -2.65301 0 
8.03493 -2.6456 0 
8.29364 -2.7116 0 
8.53831 -2.66933 0 
-8.43393 -2.50446 0 
-8.18958 -2.44174 0 
-7.9642 -2.44349 0 
-7.73825 -2.45927 0 
-7.51342 -2.45174 0 
-7.28039 -2.46223 0 
-7.05044 -2.47609 0 
-6.8343 -2.45691 0 
-6.61102 -2.46881 0 
-6.39634 -2.45302 0 
-6.18213 -2.45369 0 
-5.96836 -2.45706 0 
-5.75144 -2.46003 0 
-5.53839 -2.45793 0 
-5.32555 -2.45927 0 
-5.1126 -2.4614 0 
-4.9003 -2.45667 0 
-4.69181 -2.45219 0 
-4.47882 -2.46456 0 
-4.26617 -2.46615 0 
-4.05865 -2.44562 0 
-3.84743 -2.46272 0 
-3.63478 -2.45892 0 
-3.42215 -2.46083 0 
-3.21371 -2.45522 0 
-3.0066 -2.45569 0 
-2.79785 -2.46213 0 
-2.58684 -2.46548 0 
-2.37814 -2.46273 0 
-2.1649 -2.4643 0 
-1.95972 -2.45384 0 
-1.74359 -2.45836 0 
-1.52788 -2.45388 0 
-1.30988 -2.44691 0 
-1.09023 -2.43908 0 
-0.868489 -2.43234 0 
-0.648475 -2.41948 0 
-0.444003 -2.39937 0 
-0.22775 -2.42992 0 
0.0133773 -2.47972 0 
0.185443 -2.35921 0 
0.37808 -2.34533 0 
0.575031 -2.40829 0 
0.793328 -2.44018 0 
1.01347 -2.44942 0 
1.23434 -2.45597 0 
1.44834 -2.44335 0 
1.65479 -2.44282 0 
1.86955 -2.46174 0 
2.0771 -2.45744 0 
2.28449 -2.4596 0 
2.4947 -2.45666 0 
2.70537 -2.45762 0 
2.91526 -2.45988 0 
3.12612 -2.46323 0 
3.33747 -2.46735 0 
3.54925 -2.46381 0 
3.76053 -2.46504 0 
3.97379 -2.45718 0 
4.18421 -2.46977 0 
4.39759 -2.45181 0 
4.60808 -2.47295 0 
4.82309 -2.45471 0 
5.03352 -2.45411 0 
5.24238 -2.45613 0 
5.45124 -2.45782 0 
5.6612 -2.46073 0 
5.87391 -2.46111 0 
6.08589 -2.47032 0 
6.29962 -2.45708 0 
6.51195 -2.47129 0 
6.72763 -2.4571 0 
6.94156 -2.4623 0 
7.15806 -2.45108 0 
7.37574 -2.45626 0 
7.59644 -2.43793 0 
7.81292 -2.42633 0 
8.053 -2.43987 0 
8.29246 -2.50557 0 
8.53831 -2.4572 0 
-8.53831 -2.26742 0 
-8.32435 -2.27514 0 
-8.06488 -2.2293 0 
-7.82599 -2.2416 0 
-7.60166 -2.24395 0 
-7.35607 -2.2609 0 
-7.10783 -2.27401 0 
-6.88414 -2.24519 0 
-6.65677 -2.26313 0 
-6.43671 -2.24161 0 
-6.21682 -2.23847 0 
-6.00026 -2.24305 0 
-5.78439 -2.25027 0 
-5.56504 -2.24535 0 
-5.35158 -2.24523 0 
-5.13825 -2.24976 0 
-4.92643 -2.24422 0 
-4.71457 -2.23524 0 
-4.50475 -2.25228 0 
-4.29374 -2.2541 0 
-4.0874 -2.23117 0 
-3.87313 -2.24781 0 
-3.66526 -2.24917 0 
-3.45069 -2.25058 0 
-3.23948 -2.24091 0 
-3.03197 -2.23949 0 
-2.82578 -2.24762 0 
-2.61939 -2.25463 0 
-2.41091 -2.24933 0 
-2.20319 -2.25529 0 
-1.99339 -2.23311 0 
-1.78897 -2.24732 0 
-1.5731 -2.23977 0 
-1.35895 -2.23261 0 
-1.13968 -2.22266 0 
-0.91769 -2.21491 0 
-0.695077 -2.20242 0 
-0.473873 -2.1556 0 
-0.267571 -2.19653 0 
-0.050727 -2.26639 0 
0.104019 -2.11715 0 
0.302808 -2.08998 0 
0.53027 -2.15649 0 
0.748124 -2.20972 0 
0.967626 -2.23132 0 
1.19347 -2.24335 0 
1.41654 -2.22867 0 
1.63924 -2.21842 0 
1.85122 -2.24859 0 
2.06527 -2.24301 0 
2.2785 -2.24447 0 
2.49032 -2.24184 0 
2.70137 -2.245 0 
2.91474 -2.24658 0 
3.12563 -2.25257 0 
3.33824 -2.25805 0 
3.55092 -2.25417 0 
3.76658 -2.25743 0 
3.97894 -2.24638 0 
4.19155 -2.26058 0 
4.40202 -2.23766 0 
4.61178 -2.26492 0 
4.82191 -2.24101 0 
5.03186 -2.2426 0 
5.24572 -2.24162 0 
5.45593 -2.24522 0 
5.67246 -2.25313 0 
5.88216 -2.24921 0 
6.09232 -2.26268 0 
6.30268 -2.24487 0 
6.51358 -2.26407 0 
6.72331 -2.24359 0 
6.93542 -2.2525 0 
7.14827 -2.23621 0 
7.3645 -2.24496 0 
7.58196 -2.22025 0 
7.81937 -2.22373 0 
8.06246 -2.23274 0 
8.29952 -2.29291 0 
8.53831 -2.24506 0 
-8.42387 -2.03631 0 
-8.20856 -2.05955 0 
-7.94608 -2.02968 0 
-7.72215 -2.02157 0 
-7.48382 -2.05694 0 
-7.30718 -1.96535 0 
-7.16005 -2.08578 0 
-6.91796 -2.03641 0 
-6.68464 -2.05739 0 
-6.46245 -2.03121 0 
-6.23926 -2.02934 0 
-6.01612 -2.02869 0 
-5.79824 -2.03886 0 
-5.58194 -2.03729 0 
-5.35988 -2.03311 0 
-5.14582 -2.03606 0 
-4.93352 -2.03142 0 
-4.71142 -2.03071 0 
-4.49072 -2.03956 0 
-4.28976 -2.0335 0 
-4.06771 -2.02458 0 
-3.86207 -2.03116 0 
-3.64584 -2.04176 0 
-3.43422 -2.03877 0 
-3.22521 -2.02581 0 
-3.01672 -2.02449 0 
-2.80934 -2.03296 0 
-2.59989 -2.04176 0 
-2.38904 -2.03577 0 
-2.17828 -2.0407 0 
-1.96783 -2.01206 0 
-1.74975 -2.03717 0 
-1.52969 -2.02188 0 
-1.30322 -2.01673 0 
-1.0689 -2.00667 0 
-0.834379 -1.99524 0 
-0.60428 -1.96976 0 
-0.341282 -1.94861 0 
-0.13251 -1.80107 0 
-0.116984 -2.02819 0 
0.0709769 -1.87242 0 
0.253071 -1.84533 0 
0.487789 -1.93364 0 
0.730856 -1.98634 0 
0.96649 -2.00468 0 
1.18338 -2.02884 0 
1.41499 -2.0175 0 
1.63997 -2.00499 0 
1.86164 -2.03226 0 
2.07694 -2.02964 0 
2.28826 -2.02972 0 
2.4988 -2.026 0 
2.71383 -2.03383 0 
2.92608 -2.03387 0 
3.13212 -2.03463 0 
3.33722 -2.04849 0 
3.54344 -2.03748 0 
3.75007 -2.05062 0 
3.96601 -2.03561 0 
4.18079 -2.05 0 
4.39594 -2.02808 0 
4.61247 -2.05302 0 
4.82409 -2.02721 0 
5.04141 -2.03432 0 
5.25216 -2.02813 0 
5.4725 -2.04178 0 
5.6817 -2.03981 0 
5.88658 -2.03096 0 
6.09053 -2.05189 0 
6.29261 -2.02518 0 
6.49845 -2.0526 0 
6.70787 -2.0311 0 
6.92255 -2.03941 0 
7.14182 -2.02834 0 
7.36721 -2.03038 0 
7.59977 -2.01688 0 
7.84065 -2.02299 0 
8.073 -2.02025 0 
8.30387 -2.07859 0 
8.53831 -2.03293 0 
-8.53831 -1.83037 0 
-8.30502 -1.81335 0 
-8.08457 -1.85617 0 
-7.84329 -1.80605 0 
-7.59311 -1.83976 0 
-7.33121 -1.78647 0 
-7.0484 -1.86341 0 
-6.86876 -1.73693 0 
-6.72538 -1.85036 0 
-6.50612 -1.82202 0 
-6.28333 -1.81882 0 
-6.061 -1.82103 0 
-5.83697 -1.82392 0 
-5.62245 -1.82579 0 
-5.40597 -1.82813 0 
-5.18276 -1.82385 0 
-4.97057 -1.81774 0 
-4.75672 -1.82816 0 
-4.53028 -1.83355 0 
-4.31662 -1.80741 0 
-4.11623 -1.82735 0 
-3.88852 -1.81063 0 
-3.68258 -1.83401 0 
-3.46666 -1.82821 0 
-3.25583 -1.81389 0 
-3.04437 -1.81089 0 
-2.83299 -1.81626 0 
-2.6245 -1.82748 0 
-2.41436 -1.8232 0 
-2.20057 -1.82591 0 
-1.98346 -1.80013 0 
-1.76034 -1.8235 0 
-1.53314 -1.8102 0 
-1.2941 -1.80939 0 
-1.05433 -1.79537 0 
-0.816161 -1.77898 0 
-0.551255 -1.77854 0 
-0.329343 -1.71406 0 
-0.0852349 -1.58427 0 
0.0637171 -1.58804 0 
0.21221 -1.5209 0 
0.397782 -1.69872 0 
0.648559 -1.7695 0 
0.901802 -1.79852 0 
1.15535 -1.79704 0 
1.37066 -1.81381 0 
1.61055 -1.79504 0 
1.84791 -1.81989 0 
2.06967 -1.81569 0 
2.28633 -1.81315 0 
2.50574 -1.81594 0 
2.7204 -1.8216 0 
2.92802 -1.81577 0 
3.13796 -1.82152 0 
3.34975 -1.83092 0 
3.5576 -1.82094 0 
3.77023 -1.8414 0 
3.97744 -1.81669 0 
4.18292 -1.84155 0 
4.38694 -1.8071 0 
4.59408 -1.84421 0 
4.80481 -1.81406 0 
5.01669 -1.82793 0 
5.23461 -1.81531 0 
5.44838 -1.83843 0 
5.66693 -1.82613 0 
5.87581 -1.81369 0 
6.08298 -1.83319 0 
6.29234 -1.81129 0 
6.50245 -1.83787 0 
6.71356 -1.81758 0 
6.92638 -1.82997 0 
7.1432 -1.8169 0 
7.36489 -1.82657 0 
7.59323 -1.81007 0 
7.82791 -1.82154 0 
8.06941 -1.80806 0 
8.30334 -1.86033 0 
8.53831 -1.8208 0 
-8.53831 -1.61328 0 
-8.29325 -1.60787 0 
-8.04208 -1.63819 0 
[...]
POINT_DATA 2149 
VECTORS vectors float
-0.000103515 -0.00090631 1 
5.32852e-05 -0.0126717 0.99992 
-0.000109166 -0.0162146 0.999869 
-6.39805e-05 -0.0173404 0.99985 
-6.8534e-05 -0.0166685 0.999861 
-6.87467e-05 -0.0149053 0.999889 
-6.92717e-05 -0.0128715 0.999917 
-6.82082e-05 -0.0108724 0.999941 
-6.83819e-05 -0.00892596 0.99996 
-6.99873e-05 -0.00702774 0.999975 
-6.77614e-05 -0.00515653 0.999987 
-6.98539e-05 -0.00331297 0.999995 
-6.85289e-05 -0.00150936 0.999999 
-6.93517e-05 0.000289249 1 
-6.86878e-05 0.00214265 0.999998 
-6.89175e-05 0.00413292 0.999991 
-6.88503e-05 0.00636558 0.99998 
-6.84217e-05 0.00897538 0.99996 
-6.68176e-05 0.0120961 0.999927 
-6.98226e-05 0.0158763 0.999874 
-6.39525e-05 0.0205806 0.999788 
-6.80243e-05 0.0264433 0.99965 
-6.34367e-05 0.0337856 0.999429 
-6.38059e-05 0.043043 0.999073 
-6.13452e-05 0.0547406 0.998501 
-5.9015e-05 0.0695383 0.997579 
-5.62141e-05 0.0882569 0.996098 
-5.258e-05 0.111949 0.993714 
-4.75607e-05 0.141906 0.98988 
-4.2307e-05 0.179661 0.983729 
-3.48556e-05 0.227029 0.973888 
-2.60978e-05 0.285913 0.958255 
-1.75989e-05 0.358236 0.933631 
-3.59823e-06 0.445287 0.895388 
2.22154e-06 0.546904 0.837195 
1.15065e-05 0.660227 0.751066 
2.10914e-05 0.77487 0.632121 
1.34726e-05 0.880764 0.473555 
8.61648e-06 0.961258 0.275649 
6.19053e-06 0.998573 0.0534089 
-1.0999e-05 0.984771 -0.173856 
-9.88012e-06 0.922996 -0.38481 
-2.05519e-05 0.827224 -0.561872 
-1.37899e-05 0.713832 -0.700317 
-8.79701e-06 0.598347 -0.801237 
2.72501e-07 0.491082 -0.871113 
1.29655e-05 0.397342 -0.917671 
2.11682e-05 0.318459 -0.947937 
2.98551e-05 0.254043 -0.967193 
4.19279e-05 0.200763 -0.97964 
4.22427e-05 0.158705 -0.987326 
5.15488e-05 0.125311 -0.992118 
5.43391e-05 0.0988328 -0.995104 
5.77799e-05 0.0778879 -0.996962 
6.02413e-05 0.0613381 -0.998117 
6.2818e-05 0.048269 -0.998834 
6.33937e-05 0.037917 -0.999281 
6.66891e-05 0.0297043 -0.999559 
6.41586e-05 0.0231692 -0.999732 
7.04218e-05 0.0179584 -0.999839 
6.39504e-05 0.0137553 -0.999905 
7.17598e-05 0.0103291 -0.999947 
6.61896e-05 0.00750997 -0.999972 
6.99951e-05 0.00509678 -0.999987 
6.87175e-05 0.00299874 -0.999996 
6.89619e-05 0.00108721 -0.999999 
6.96828e-05 -0.000732802 -1 
6.7857e-05 -0.00254532 -0.999997 
7.13207e-05 -0.00438178 -0.99999 
6.61343e-05 -0.00628423 -0.99998 
7.19779e-05 -0.00823334 -0.999966 
6.61706e-05 -0.0102266 -0.999948 
7.03648e-05 -0.0122955 -0.999924 
6.78354e-05 -0.014477 -0.999895 
6.86885e-05 -0.0166724 -0.999861 
6.96361e-05 -0.0184411 -0.99983 
6.74246e-05 -0.0188768 -0.999822 
5.69322e-05 -0.0178888 -0.99984 
0.000127207 -0.0152983 -0.999883 
-4.17809e-05 -0.00159888 -0.999999 
-4.48357e-05 0.000178889 1 
0.00509313 -0.00846615 0.999951 
0.00715165 -0.0146903 0.999867 
0.00784976 -0.0162976 0.999836 
0.00825952 -0.0165606 0.999829 
0.00868182 -0.0156195 0.99984 
0.00865562 -0.0137461 0.999868 
0.00878071 -0.0116142 0.999894 
0.00907036 -0.00960991 0.999913 
0.00913009 -0.00759395 0.999929 
0.00932561 -0.0056905 0.99994 
0.00934278 -0.00383176 0.999949 
0.00935774 -0.00198767 0.999954 
0.00937807 -0.000139759 0.999956 
0.00940348 0.00174708 0.999954 
0.00938134 0.00376072 0.999949 
0.00941999 0.00602582 0.999937 
0.00945979 0.00862284 0.999918 
0.00931741 0.0116726 0.999888 
0.00917466 0.015477 0.999838 
0.00930877 0.0202549 0.999752 
0.00915278 0.0259002 0.999623 
0.00902742 0.0332612 0.999406 
0.00891504 0.0424443 0.999059 
0.00885262 0.0541007 0.998496 
0.00876039 0.0685924 0.997606 
0.00860998 0.0867888 0.99619 
0.00849429 0.110002 0.993895 
0.00846798 0.139526 0.990182 
0.00853554 0.176551 0.984254 
0.00875646 0.223533 0.974657 
0.00908969 0.280938 0.959683 
0.00957146 0.353207 0.935496 
0.0102764 0.440796 0.897549 
0.0110031 0.543633 0.839251 
0.0114173 0.658137 0.752811 
0.010912 0.776747 0.629718 
0.00940669 0.882307 0.470581 
0.00566577 0.959176 0.282754 
0.00106556 0.998143 0.0609067 
-0.00341958 0.98144 -0.191737 
-0.00900988 0.931631 -0.363293 
-0.00979183 0.847779 -0.530259 
-0.0109297 0.736047 -0.676842 
-0.0108931 0.614585 -0.788776 
-0.0103914 0.500817 -0.865491 
-0.0100569 0.400589 -0.916203 
-0.00945895 0.319614 -0.947501 
-0.00887217 0.254175 -0.967117 
-0.00846559 0.199695 -0.979821 
-0.00847105 0.157623 -0.987463 
-0.00852332 0.124385 -0.992197 
-0.00855784 0.0980445 -0.995145 
-0.00863173 0.0772288 -0.996976 
-0.00871157 0.0607643 -0.998114 
-0.00880969 0.0477325 -0.998821 
-0.00895953 0.037497 -0.999257 
-0.00909769 0.0293331 -0.999528 
-0.00922378 0.0229437 -0.999694 
-0.00925247 0.0176906 -0.999801 
-0.00941768 0.0136219 -0.999863 
-0.00934855 0.0101296 -0.999905 
-0.00953492 0.00736267 -0.999927 
-0.00959686 0.00499278 -0.999941 
-0.00957469 0.00290725 -0.99995 
-0.00955916 0.000998178 -0.999954 
-0.00953544 -0.000827425 -0.999954 
-0.0094797 -0.00262567 -0.999952 
-0.00939935 -0.00447938 -0.999946 
-0.00942369 -0.00631985 -0.999936 
-0.00925708 -0.00829677 -0.999923 
-0.00922096 -0.010263 -0.999905 
-0.00905952 -0.0123463 -0.999883 
-0.00892656 -0.0144356 -0.999856 
-0.00869611 -0.01646 -0.999827 
-0.00844974 -0.0177805 -0.999806 
-0.00794706 -0.0180659 -0.999805 
-0.00682412 -0.0170133 -0.999832 
-0.00412425 -0.0123406 -0.999915 
0.000231002 0.000175098 -1 
0.00344367 -0.00701692 0.999969 
0.00823902 -0.0136809 0.999872 
0.0102754 -0.0160487 0.999818 
0.0111855 -0.0161827 0.999806 
0.0119474 -0.01612 0.999799 
0.0123728 -0.0146455 0.999816 
0.0126165 -0.0126109 0.999841 
0.0130378 -0.0106222 0.999859 
0.0130926 -0.00860615 0.999877 
0.0133677 -0.00670241 0.999888 
0.0134661 -0.00486904 0.999897 
0.0135199 -0.00308038 0.999904 
0.0135705 -0.00126509 0.999907 
0.0136532 0.00055193 0.999907 
0.0136723 0.00245141 0.999904 
0.013644 0.0045137 0.999897 
0.0136679 0.00683478 0.999883 
0.0136859 0.00948941 0.999861 
0.0135036 0.012733 0.999828 
0.0133825 0.0166848 0.999771 
0.0135122 0.0214496 0.999679 
0.0132032 0.0274567 0.999536 
0.0131608 0.0350455 0.999299 
0.0130308 0.0445952 0.99892 
0.0130257 0.0563824 0.998324 
0.0130083 0.0710993 0.997384 
0.0129892 0.0897628 0.995878 
0.013119 0.113539 0.993447 
0.0135015 0.143128 0.989612 
0.0140287 0.181117 0.983361 
0.0151678 0.226648 0.973859 
0.0163328 0.286273 0.958009 
0.0182087 0.359388 0.933011 
0.0205615 0.448496 0.893548 
0.0229957 0.553545 0.832502 
0.0245881 0.671637 0.740472 
0.0244531 0.791856 0.610219 
0.0213705 0.892794 0.449957 
0.0114977 0.970373 0.241337 
-0.000618167 0.999828 -0.0185221 
-0.0116815 0.978616 -0.205363 
-0.0223551 0.917265 -0.39765 
-0.0240666 0.826457 -0.562485 
-0.0239711 0.7098 -0.703995 
-0.022826 0.590486 -0.806725 
-0.0207215 0.480437 -0.876784 
-0.0192064 0.387408 -0.921708 
-0.0173527 0.312341 -0.949812 
-0.0153374 0.248415 -0.968532 
-0.0144383 0.198465 -0.980002 
-0.0136854 0.157851 -0.987368 
-0.0132826 0.125054 -0.992061 
-0.0130257 0.0989309 -0.995009 
-0.0129249 0.0782807 -0.996848 
-0.0129157 0.0618302 -0.998003 
-0.0129803 0.0488594 -0.998721 
-0.0131089 0.0383922 -0.999177 
-0.0131919 0.0301389 -0.999459 
-0.0133938 0.0234989 -0.999634 
-0.0133699 0.0183172 -0.999743 
-0.0136784 0.0140054 -0.999808 
-0.0134964 0.0105799 -0.999853 
-0.0137585 0.00764565 -0.999876 
-0.013788 0.00523172 -0.999891 
-0.0138124 0.0031306 -0.9999 
-0.013803 0.00120848 -0.999904 
-0.0137587 -0.000615887 -0.999905 
-0.013719 -0.00241985 -0.999903 
-0.0135898 -0.00423188 -0.999899 
-0.0136322 -0.00607052 -0.999889 
-0.013337 -0.00799773 -0.999879 
-0.0132788 -0.00998046 -0.999862 
-0.0129525 -0.0120529 -0.999843 
-0.0126814 -0.0141072 -0.99982 
-0.0121565 -0.0160804 -0.999797 
-0.0115924 -0.0172143 -0.999785 
-0.0107074 -0.0175464 -0.999789 
-0.00910061 -0.0170992 -0.999812 
-0.00554583 -0.0120373 -0.999912 
-0.00038306 -0.0001717 -1 
-0.000245362 -6.48775e-05 1 
0.005926 -0.0111036 0.999921 
0.00924826 -0.0161287 0.999827 
0.0107664 -0.016174 0.999811 
0.0118508 -0.0163633 0.999796 
0.0126378 -0.0152401 0.999804 
0.0131807 -0.0131545 0.999827 
0.0134352 -0.011088 0.999848 
0.013742 -0.00901486 0.999865 
0.0139167 -0.00704954 0.999878 
0.0140712 -0.00516759 0.999888 
0.0141971 -0.00336771 0.999894 
0.014298 -0.00156753 0.999897 
0.014364 0.000303429 0.999897 
0.0144077 0.00220909 0.999894 
0.0144334 0.00426721 0.999887 
0.0144379 0.00656436 0.999874 
0.0143761 0.00920322 0.999854 
0.0143624 0.0123615 0.99982 
0.0142684 0.0161707 0.999767 
0.0141981 0.0207526 0.999684 
0.0141204 0.0266622 0.999545 
0.0140762 0.0338083 0.999329 
0.0140583 0.0430728 0.998973 
0.0141247 0.05454 0.998412 
0.0142931 0.0686915 0.997536 
0.0145838 0.0863547 0.996158 
0.0150804 0.108525 0.993979 
0.0159718 0.136547 0.990505 
0.0171998 0.171572 0.985021 
0.0193988 0.215243 0.976368 
0.0216792 0.268572 0.963016 
0.0253182 0.337227 0.941083 
0.0297905 0.419802 0.907127 
0.0349436 0.519917 0.853501 
0.0393895 0.635432 0.771152 
0.041383 0.758268 0.650628 
0.0403964 0.872257 0.487377 
0.0247275 0.956937 0.289241 
0.00426294 0.998599 0.0527489 
-0.0127088 0.992455 -0.121945 
-0.0353933 0.940782 -0.337159 
-0.0423904 0.8412 -0.539061 
-0.0408524 0.725688 -0.68681 
-0.0373183 0.60615 -0.794474 
-0.0324842 0.492721 -0.869581 
-0.0285556 0.393732 -0.918782 
-0.0246323 0.311783 -0.949834 
-0.0206741 0.250095 -0.968001 
-0.0184156 0.198275 -0.979973 
-0.0166987 0.157136 -0.987436 
-0.0155717 0.124437 -0.992105 
-0.0148047 0.0985717 -0.99502 
-0.0143544 0.0778071 -0.996865 
-0.0140883 0.0614695 -0.99801 
-0.0140234 0.0485635 -0.998722 
-0.0140203 0.0382014 -0.999172 
-0.0140984 0.0299336 -0.999452 
-0.0142091 0.0234482 -0.999624 
-0.014273 0.0181898 -0.999733 
-0.0143598 0.0139887 -0.999799 
-0.0144325 0.0105638 -0.99984 
-0.0145105 0.00771916 -0.999865 
-0.0145215 0.00527672 -0.999881 
-0.0145319 0.00309942 -0.99989 
-0.0145633 0.00115873 -0.999893 
-0.0145303 -0.000733059 -0.999894 
-0.0144753 -0.00251982 -0.999892 
-0.0143912 -0.0042977 -0.999887 
-0.0142545 -0.00610529 -0.99988 
-0.014094 -0.00799398 -0.999869 
-0.0138498 -0.00995112 -0.999855 
-0.0135293 -0.0119803 -0.999837 
-0.0131041 -0.0140211 -0.999816 
-0.0125675 -0.0159383 -0.999794 
-0.0117323 -0.017072 -0.999785 
-0.0105318 -0.017288 -0.999795 
-0.00891088 -0.0169049 -0.999817 
-0.00625487 -0.0122166 -0.999906 
6.33918e-05 -0.000146947 -1 
0.00340247 -0.00823369 0.99996 
0.00721157 -0.0139187 0.999877 
0.00971914 -0.0165194 0.999816 
0.0110822 -0.0165088 0.999802 
0.0121884 -0.0162186 0.999794 
0.012617 -0.0150968 0.999806 
0.0130206 -0.0137361 0.999821 
0.013353 -0.0114481 0.999845 
0.0137325 -0.00930509 0.999862 
0.0139579 -0.00730384 0.999876 
0.0141514 -0.00538924 0.999885 
0.0143048 -0.00354176 0.999891 
0.0144279 -0.00172448 0.999894 
0.0145151 0.00012743 0.999895 
0.0145764 0.00211739 0.999892 
0.0146033 0.00418714 0.999885 
0.0145855 0.00647652 0.999873 
0.0146042 0.00928025 0.99985 
0.0145335 0.0125694 0.999815 
0.0144983 0.0162463 0.999763 
0.0144623 0.021201 0.999671 
0.0144445 0.0269205 0.999533 
0.0144492 0.0344027 0.999304 
0.0145481 0.0435781 0.998944 
0.0147804 0.0548892 0.998383 
0.0151755 0.0690481 0.997498 
0.015781 0.0867525 0.996105 
0.01672 0.109192 0.99388 
0.0182682 0.137369 0.990351 
0.0204003 0.172989 0.984712 
0.0239164 0.215723 0.976162 
0.0277812 0.273816 0.961381 
0.0339873 0.34361 0.938497 
0.0416172 0.432118 0.900856 
0.0507149 0.541356 0.839263 
0.0590726 0.665883 0.743713 
0.0638483 0.792912 0.605982 
0.0530274 0.922886 0.381405 
0.0369964 0.985914 0.163109 
0.0175226 0.991096 0.131989 
-0.0176873 0.995571 -0.0923383 
-0.0547876 0.950567 -0.305649 
-0.0647468 0.850037 -0.522728 
-0.0614535 0.720559 -0.690665 
-0.054202 0.591521 -0.804466 
-0.0449282 0.483872 -0.873985 
-0.0375528 0.383835 -0.922638 
-0.0312265 0.304034 -0.952149 
-0.0253137 0.240796 -0.970246 
-0.0217078 0.191312 -0.981289 
-0.0191443 0.152498 -0.988118 
-0.0173409 0.121103 -0.992488 
-0.0160621 0.0957955 -0.995271 
-0.0152972 0.0759063 -0.996998 
-0.0148526 0.0605033 -0.998057 
-0.014587 0.0482583 -0.998728 
-0.0145135 0.0384057 -0.999157 
-0.014458 0.0304174 -0.999433 
-0.0144368 0.023699 -0.999615 
-0.0145199 0.0184116 -0.999725 
-0.0145546 0.0141126 -0.999794 
-0.0146412 0.0105735 -0.999837 
-0.0146504 0.00769012 -0.999863 
-0.0147197 0.00518183 -0.999878 
-0.0147305 0.00303821 -0.999887 
-0.0147574 0.000994665 -0.999891 
-0.0147344 -0.000845607 -0.999891 
-0.0146836 -0.00260432 -0.999889 
-0.0145827 -0.00432029 -0.999884 
-0.0144066 -0.00604964 -0.999878 
-0.0142376 -0.00787659 -0.999868 
-0.013942 -0.0098427 -0.999854 
-0.013599 -0.0119027 -0.999837 
-0.0130901 -0.0140091 -0.999816 
-0.0124656 -0.0159918 -0.999794 
-0.0115229 -0.0171387 -0.999787 
-0.0101962 -0.0172421 -0.999799 
-0.00840768 -0.0167365 -0.999825 
-0.00583927 -0.0120619 -0.99991 
-5.32039e-05 -0.000144092 -1 
-0.000178587 4.50757e-05 1 
0.00548009 -0.0119274 0.999914 
0.00835691 -0.0164163 0.99983 
0.00987509 -0.0166681 0.999812 
0.0112727 -0.0167174 0.999797 
0.0119164 -0.0153634 0.999811 
0.0127988 -0.0127747 0.999836 
0.0124826 -0.0111491 0.99986 
0.0132718 -0.00976553 0.999864 
0.0133793 -0.0077494 0.99988 
0.0135591 -0.00581809 0.999891 
0.0137354 -0.00397272 0.999898 
0.0138808 -0.00210654 0.999901 
0.01399 -0.000267757 0.999902 
0.014066 0.00166676 0.9999 
0.0140745 0.0038008 0.999894 
0.0140565 0.00605072 0.999883 
0.0141112 0.00865581 0.999863 
0.0140971 0.0119255 0.99983 
0.0139485 0.0156619 0.99978 
0.01405 0.0199351 0.999703 
0.0139773 0.0259334 0.999566 
0.0141659 0.0327366 0.999364 
0.0143158 0.0415746 0.999033 
0.0145998 0.0523299 0.998523 
0.0151566 0.0658554 0.997714 
0.0160617 0.0828493 0.996433 
0.0174022 0.103886 0.994437 
0.019385 0.130166 0.991303 
0.0222677 0.163597 0.986276 
0.0267894 0.205802 0.978227 
0.032454 0.260824 0.964841 
0.0410269 0.329966 0.943101 
0.0522605 0.420423 0.905822 
0.0665797 0.528853 0.846098 
0.0817596 0.652961 0.752966 
0.0896428 0.803047 0.589134 
0.0898645 0.911577 0.401187 
0.0478604 0.991246 0.123049 
-0.0414877 0.993756 -0.103576 
-0.127826 0.936051 -0.327826 
-0.0998194 0.872861 -0.47765 
-0.0894314 0.743488 -0.662742 
-0.0746389 0.605321 -0.792474 
-0.0601167 0.47768 -0.876475 
-0.0478123 0.387448 -0.920651 
-0.0380429 0.302128 -0.952508 
-0.0296835 0.236688 -0.971132 
-0.0245139 0.186939 -0.982066 
-0.0208481 0.148098 -0.988753 
-0.0182986 0.117208 -0.992939 
-0.0166104 0.0930982 -0.995518 
-0.0155307 0.07438 -0.997109 
-0.0148646 0.0593316 -0.998128 
-0.0144162 0.0469503 -0.998793 
-0.0141789 0.0373703 -0.999201 
-0.0141739 0.0295559 -0.999463 
-0.0140062 0.0232856 -0.999631 
-0.0141182 0.0183024 -0.999733 
-0.0139893 0.0142399 -0.999801 
-0.0141999 0.0108432 -0.99984 
-0.0141158 0.00795267 -0.999869 
-0.0141929 0.00545408 -0.999884 
-0.0141128 0.00319658 -0.999895 
-0.0142736 0.00119161 -0.999897 
-0.0141493 -0.000755875 -0.9999 
-0.0139917 -0.00255904 -0.999899 
-0.0139981 -0.00431418 -0.999893 
-0.0137411 -0.00610291 -0.999887 
-0.0136673 -0.00796336 -0.999875 
-0.0133007 -0.00995977 -0.999862 
-0.0130175 -0.0120131 -0.999843 
-0.012504 -0.0141108 -0.999822 
-0.0119596 -0.0160796 -0.999799 
-0.0110705 -0.0172523 -0.99979 
-0.00993819 -0.0173177 -0.999801 
-0.00810425 -0.0167731 -0.999826 
-0.00567001 -0.0120219 -0.999912 
-5.83639e-05 -0.000145497 -1 
9.10622e-05 -0.000292122 1 
0.00523864 -0.0121416 0.999913 
0.00782313 -0.0166262 0.999831 
0.00899061 -0.0168736 0.999817 
0.0103 -0.016841 0.999805 
0.0103065 -0.0158583 0.999821 
0.0115568 -0.0137553 0.999839 
0.0111341 -0.01143 0.999873 
0.0118667 -0.00884586 0.99989 
0.0120372 -0.00689945 0.999904 
0.0122295 -0.00507644 0.999912 
0.0124325 -0.00326966 0.999917 
0.0124821 -0.00148439 0.999921 
0.0126166 0.000363115 0.99992 
0.0127318 0.00233362 0.999916 
0.0126348 0.00440152 0.99991 
0.0126554 0.00672798 0.999897 
0.01284 0.00950992 0.999872 
0.0127217 0.0125977 0.99984 
0.0124529 0.0161853 0.999791 
0.0128563 0.0209148 0.999699 
0.0126579 0.02646 0.99957 
0.013078 0.0335202 0.999352 
0.013269 0.0419746 0.999031 
0.0136872 0.0526358 0.99852 
0.0144629 0.0660006 0.997715 
0.0156599 0.0824014 0.996476 
0.017456 0.103014 0.994527 
0.0200472 0.128838 0.991463 
0.0237908 0.161296 0.986619 
0.0296774 0.204239 0.978471 
0.0372496 0.257669 0.965515 
0.049016 0.329586 0.942852 
0.0647741 0.417444 0.906391 
0.0859588 0.523712 0.847547 
0.110169 0.66355 0.739975 
0.134175 0.792876 0.594427 
0.152023 0.910327 0.384959 
-0.196638 0.832278 -0.518312 
-0.135214 0.769288 -0.624431 
-0.104352 0.635145 -0.765312 
-0.0794958 0.503837 -0.860133 
-0.0609524 0.389802 -0.918879 
-0.0467848 0.316285 -0.94751 
-0.0345563 0.241786 -0.969714 
-0.0272772 0.189161 -0.981567 
-0.0223134 0.149749 -0.988472 
-0.0188891 0.118939 -0.992722 
-0.0165432 0.0940002 -0.995435 
-0.0149973 0.0747792 -0.997087 
-0.0140466 0.0597939 -0.998112 
-0.0134871 0.0477393 -0.998769 
-0.0130068 0.0378311 -0.999199 
-0.0129523 0.0300466 -0.999465 
-0.0127132 0.0235663 -0.999641 
-0.0127684 0.0183272 -0.999751 
-0.0125736 0.0140693 -0.999822 
-0.0128373 0.0106118 -0.999861 
-0.0126262 0.00769243 -0.999891 
-0.0128355 0.00519791 -0.999904 
-0.0127041 0.00296331 -0.999915 
-0.0128877 0.000950576 -0.999916 
-0.0126697 -0.000942537 -0.999919 
-0.0124654 -0.00274571 -0.999919 
-0.0125395 -0.00446874 -0.999911 
-0.0121675 -0.00620712 -0.999907 
-0.0122437 -0.00800518 -0.999893 
-0.0118412 -0.0100145 -0.99988 
-0.0116085 -0.0121113 -0.999859 
-0.0111319 -0.0142547 -0.999836 
-0.0106714 -0.0162517 -0.999811 
-0.00984586 -0.0174036 -0.9998 
-0.00885626 -0.0174026 -0.999809 
-0.00724598 -0.0168005 -0.999833 
-0.00518285 -0.0120203 -0.999914 
-4.52443e-05 -0.000141763 -1 
1.25055e-05 -7.85927e-05 1 
0.00443965 -0.0120233 0.999918 
0.00653754 -0.0164315 0.999844 
0.00747393 -0.0171003 0.999826 
0.00862624 -0.0169943 0.999818 
0.00881569 -0.0157582 0.999837 
0.0100867 -0.0137429 0.999855 
0.00944977 -0.0117226 0.999887 
0.010352 -0.00947135 0.999902 
0.0102869 -0.00729548 0.99992 
0.0104811 -0.00544214 0.99993 
0.0107241 -0.00364188 0.999936 
0.0107171 -0.00181189 0.999941 
0.0108607 5.16604e-05 0.999941 
0.0110468 0.00199859 0.999937 
0.0109018 0.00405848 0.999932 
0.0109425 0.00634708 0.99992 
0.0112124 0.00903755 0.999896 
0.0109758 0.0121088 0.999866 
0.0108282 0.0158337 0.999816 
0.0112472 0.0204984 0.999727 
0.0110957 0.0259802 0.999601 
0.011547 0.0329219 0.999391 
0.0118658 0.0414196 0.999071 
0.01241 0.0520386 0.998568 
0.0133272 0.0650414 0.997794 
0.0147783 0.0813193 0.996579 
0.0170277 0.102121 0.994626 
0.0201512 0.127565 0.991625 
0.0251329 0.162612 0.98637 
0.0323911 0.204925 0.978242 
0.0428569 0.263278 0.963768 
0.0586613 0.335667 0.940152 
0.0808913 0.425003 0.90157 
0.113623 0.547471 0.829075 
0.155781 0.67334 0.722734 
0.213665 0.795197 0.567458 
-0.230288 0.720349 -0.654267 
-0.153422 0.665642 -0.730331 
-0.111573 0.547575 -0.829284 
-0.0825539 0.437067 -0.895632 
-0.0618562 0.341393 -0.937883 
-0.044875 0.275848 -0.960153 
-0.0338003 0.215985 -0.975811 
-0.0263331 0.171087 -0.984904 
-0.0211646 0.136318 -0.990439 
-0.0176494 0.108665 -0.993922 
-0.0152444 0.0868548 -0.996104 
-0.0135961 0.0694832 -0.99749 
-0.0126003 0.0557797 -0.998364 
-0.0120243 0.0449287 -0.998918 
-0.011426 0.0359463 -0.999288 
-0.0114172 0.0290045 -0.999514 
-0.011045 0.023046 -0.999673 
-0.0111751 0.0181896 -0.999772 
-0.0108976 0.0140272 -0.999842 
-0.0111825 0.0105791 -0.999882 
-0.0109326 0.0076658 -0.999911 
-0.0111428 0.00519927 -0.999924 
-0.0109538 0.00303069 -0.999935 
-0.0111792 0.00103257 -0.999937 
-0.0109239 -0.000858112 -0.99994 
-0.010751 -0.00272274 -0.999938 
-0.010762 -0.00454841 -0.999932 
-0.0104319 -0.00637433 -0.999925 
-0.010499 -0.00823548 -0.999911 
-0.0100937 -0.0102431 -0.999897 
-0.00995996 -0.0122941 -0.999875 
-0.0094806 -0.0143877 -0.999852 
-0.00916862 -0.0163285 -0.999825 
-0.00842235 -0.0174808 -0.999812 
-0.00762897 -0.0174845 -0.999818 
-0.00622307 -0.0169567 -0.999837 
-0.00446684 -0.0121397 -0.999916 
-2.78063e-05 -0.000145427 -1 
2.43592e-05 -0.0001586 1 
0.00362884 -0.0120428 0.999921 
0.00541786 -0.0167126 0.999846 
0.00621982 -0.0172065 0.999833 
0.00723992 -0.0171124 0.999827 
0.00725178 -0.0160077 0.999846 