# vtk DataFile Version 3.0 
Exported using Morpho https://github.com/Morpho-lang/morpho 
ASCII 
DATASET UNSTRUCTURED_GRID 

POINTS 2145 float 
-8.32618 -2.88146 0 
-8.11405 -2.88146 0 
-7.90192 -2.88146 0 
-7.68979 -2.88146 0 
-7.47765 -2.88146 0 
-7.26552 -2.88146 0 
-7.05339 -2.88146 0 
-6.84126 -2.88146 0 
-6.62913 -2.88146 0 
-6.41699 -2.88146 0 
-6.20486 -2.88146 0 
-5.99273 -2.88146 0 
-5.7806 -2.88146 0 
-5.56847 -2.88146 0 
-5.35633 -2.88146 0 
-5.1442 -2.88146 0 
-4.93207 -2.88146 0 
-4.71994 -2.88146 0 
-4.50781 -2.88146 0 
-4.29567 -2.88146 0 
-4.08354 -2.88146 0 
-3.87141 -2.88146 0 
-3.65928 -2.88146 0 
-3.44715 -2.88146 0 
-3.23501 -2.88146 0 
-3.02288 -2.88146 0 
-2.81075 -2.88146 0 
-2.59862 -2.88146 0 
-2.38649 -2.88146 0 
-2.17435 -2.88146 0 
-1.96222 -2.88146 0 
-1.75009 -2.88146 0 
-1.53796 -2.88146 0 
-1.32583 -2.88146 0 
-1.11369 -2.88146 0 
-0.901561 -2.88146 0 
-0.689429 -2.88146 0 
-0.477297 -2.88146 0 
-0.265165 -2.88146 0 
-0.053033 -2.88146 0 
0.159099 -2.88146 0 
0.371231 -2.88146 0 
0.583363 -2.88146 0 
0.795495 -2.88146 0 
1.00763 -2.88146 0 
1.21976 -2.88146 0 
1.43189 -2.88146 0 
1.64402 -2.88146 0 
1.85616 -2.88146 0 
2.06829 -2.88146 0 
2.28042 -2.88146 0 
2.49255 -2.88146 0 
2.70468 -2.88146 0 
2.91682 -2.88146 0 
3.12895 -2.88146 0 
3.34108 -2.88146 0 
3.55321 -2.88146 0 
3.76534 -2.88146 0 
3.97748 -2.88146 0 
4.18961 -2.88146 0 
4.40174 -2.88146 0 
4.61387 -2.88146 0 
4.826 -2.88146 0 
5.03814 -2.88146 0 
5.25027 -2.88146 0 
5.4624 -2.88146 0 
5.67453 -2.88146 0 
5.88666 -2.88146 0 
6.0988 -2.88146 0 
6.31093 -2.88146 0 
6.52306 -2.88146 0 
6.73519 -2.88146 0 
6.94732 -2.88146 0 
7.15946 -2.88146 0 
7.37159 -2.88146 0 
7.58372 -2.88146 0 
7.79585 -2.88146 0 
8.00798 -2.88146 0 
8.22012 -2.88146 0 
8.53831 -2.88146 0 
-8.53831 -2.74084 0 
-8.32528 -2.64608 0 
-8.09049 -2.66168 0 
-7.86179 -2.66728 0 
-7.63403 -2.66535 0 
-7.40538 -2.66818 0 
-7.17474 -2.67656 0 
-6.94519 -2.67265 0 
-6.72166 -2.66935 0 
-6.50401 -2.6663 0 
-6.28454 -2.66706 0 
-6.06611 -2.67015 0 
-5.84689 -2.6659 0 
-5.63148 -2.67029 0 
-5.41374 -2.66856 0 
-5.19681 -2.67055 0 
-4.9796 -2.67016 0 
-4.7637 -2.66911 0 
-4.54893 -2.67044 0 
-4.33462 -2.66937 0 
-4.11977 -2.67291 0 
-3.90241 -2.67153 0 
-3.68676 -2.67013 0 
-3.47182 -2.67181 0 
-3.25387 -2.66976 0 
-3.03981 -2.67098 0 
-2.82346 -2.66891 0 
-2.60982 -2.66674 0 
-2.39614 -2.66767 0 
-2.18307 -2.67016 0 
-1.96609 -2.66625 0 
-1.75197 -2.66458 0 
-1.53595 -2.66715 0 
-1.31781 -2.66707 0 
-1.10622 -2.66034 0 
-0.889763 -2.66503 0 
-0.673268 -2.6646 0 
-0.45682 -2.66244 0 
-0.241229 -2.67033 0 
-0.016551 -2.66382 0 
0.174681 -2.63182 0 
0.365982 -2.66869 0 
0.582758 -2.66465 0 
0.797816 -2.66133 0 
1.01081 -2.65811 0 
1.21909 -2.6633 0 
1.43873 -2.66789 0 
1.65631 -2.67101 0 
1.87419 -2.6711 0 
2.08407 -2.66596 0 
2.29722 -2.66687 0 
2.50968 -2.66726 0 
2.72484 -2.67071 0 
2.93782 -2.67012 0 
3.1508 -2.67056 0 
3.36683 -2.67283 0 
3.57999 -2.67228 0 
3.79612 -2.67332 0 
4.00768 -2.66953 0 
4.22346 -2.67338 0 
4.43776 -2.67164 0 
4.64834 -2.66749 0 
4.85905 -2.6675 0 
5.07582 -2.67339 0 
5.28486 -2.66805 0 
5.49664 -2.6705 0 
5.70682 -2.66973 0 
5.91843 -2.6715 0 
6.12882 -2.67084 0 
6.33954 -2.67042 0 
6.55344 -2.67179 0 
6.76259 -2.66659 0 
6.97586 -2.66773 0 
7.19088 -2.6676 0 
7.40575 -2.66453 0 
7.62046 -2.65857 0 
7.84023 -2.6673 0 
8.05492 -2.64899 0 
8.30746 -2.72216 0 
8.53831 -2.66933 0 
-8.53831 -2.49967 0 
-8.26911 -2.44393 0 
-8.03331 -2.44991 0 
-7.80365 -2.45792 0 
-7.56448 -2.46028 0 
-7.32216 -2.47021 0 
-7.08972 -2.47585 0 
-6.8591 -2.46404 0 
-6.6421 -2.45193 0 
-6.42264 -2.45514 0 
-6.20304 -2.45594 0 
-5.98832 -2.45849 0 
-5.76999 -2.45257 0 
-5.55861 -2.45902 0 
-5.3413 -2.45854 0 
-5.12704 -2.46056 0 
-4.91434 -2.45853 0 
-4.70183 -2.45712 0 
-4.49411 -2.45683 0 
-4.28089 -2.45907 0 
-4.06838 -2.46491 0 
-3.85629 -2.46073 0 
-3.64363 -2.45903 0 
-3.42785 -2.46437 0 
-3.21559 -2.45718 0 
-3.00265 -2.46096 0 
-2.79411 -2.45382 0 
-2.58102 -2.45286 0 
-2.37006 -2.45312 0 
-2.15621 -2.45986 0 
-1.94295 -2.45046 0 
-1.72563 -2.45337 0 
-1.50531 -2.45635 0 
-1.2938 -2.44808 0 
-1.07273 -2.44409 0 
-0.855958 -2.45215 0 
-0.634033 -2.45066 0 
-0.416055 -2.44552 0 
-0.187779 -2.47139 0 
0.0102912 -2.41062 0 
0.16072 -2.32152 0 
0.323629 -2.42493 0 
0.51803 -2.45339 0 
0.74033 -2.44469 0 
0.959679 -2.43903 0 
1.17646 -2.43547 0 
1.38438 -2.45902 0 
1.60905 -2.46078 0 
1.82676 -2.46447 0 
2.04445 -2.44806 0 
2.2536 -2.45244 0 
2.46648 -2.4523 0 
2.67904 -2.46011 0 
2.89229 -2.458 0 
3.10407 -2.45886 0 
3.31783 -2.46562 0 
3.53354 -2.46192 0 
3.74688 -2.46748 0 
3.96293 -2.45801 0 
4.17812 -2.46633 0 
4.39402 -2.46414 0 
4.60894 -2.45415 0 
4.82095 -2.45303 0 
5.0346 -2.46766 0 
5.2495 -2.45356 0 
5.45952 -2.45895 0 
5.6699 -2.45711 0 
5.88032 -2.46101 0 
6.09098 -2.45941 0 
6.30117 -2.45922 0 
6.51395 -2.46436 0 
6.7281 -2.4515 0 
6.9401 -2.45532 0 
7.15608 -2.45609 0 
7.37367 -2.45064 0 
7.59206 -2.44185 0 
7.81832 -2.45083 0 
8.05462 -2.4419 0 
8.2945 -2.51612 0 
8.53831 -2.4572 0 
-8.53831 -2.26726 0 
-8.31984 -2.26785 0 
-8.04619 -2.24066 0 
-7.80552 -2.24253 0 
-7.58219 -2.26077 0 
-7.33366 -2.2761 0 
-7.08375 -2.27337 0 
-6.87545 -2.24122 0 
-6.66372 -2.23456 0 
-6.44746 -2.24222 0 
-6.2286 -2.24548 0 
-6.00853 -2.24234 0 
-5.7973 -2.24458 0 
-5.575 -2.24046 0 
-5.36763 -2.2512 0 
-5.14735 -2.24931 0 
-4.93349 -2.24646 0 
-4.72141 -2.24559 0 
-4.50837 -2.23795 0 
-4.30357 -2.24913 0 
-4.08775 -2.25304 0 
-3.87728 -2.24977 0 
-3.66427 -2.24865 0 
-3.44788 -2.25709 0 
-3.23052 -2.24604 0 
-3.01522 -2.24943 0 
-2.80231 -2.23612 0 
-2.59451 -2.24182 0 
-2.37655 -2.23742 0 
-2.16459 -2.24673 0 
-1.94316 -2.24153 0 
-1.71977 -2.24496 0 
-1.50827 -2.23905 0 
-1.28217 -2.23888 0 
-1.06293 -2.22872 0 
-0.839968 -2.24294 0 
-0.621612 -2.2364 0 
-0.386912 -2.24323 0 
-0.184091 -2.24475 0 
-0.0328449 -2.12357 0 
0.169091 -2.09399 0 
0.380237 -2.18777 0 
0.578609 -2.23821 0 
0.795765 -2.2266 0 
1.01058 -2.21958 0 
1.21851 -2.21143 0 
1.43422 -2.25538 0 
1.64891 -2.24864 0 
1.85973 -2.25132 0 
2.06702 -2.22763 0 
2.27776 -2.23796 0 
2.48987 -2.23898 0 
2.69885 -2.24683 0 
2.90734 -2.24372 0 
3.11976 -2.24765 0 
3.33211 -2.25689 0 
3.54283 -2.25007 0 
3.75655 -2.25918 0 
3.96951 -2.24624 0 
4.18251 -2.25876 0 
4.39758 -2.25526 0 
4.61216 -2.24201 0 
4.82429 -2.2405 0 
5.03762 -2.25933 0 
5.24983 -2.24143 0 
5.46197 -2.24646 0 
5.67153 -2.24412 0 
5.88131 -2.24981 0 
6.09131 -2.2476 0 
6.303 -2.24846 0 
6.51482 -2.25545 0 
6.72596 -2.23818 0 
6.93882 -2.24152 0 
7.15282 -2.24453 0 
7.36923 -2.23644 0 
7.59691 -2.23395 0 
7.82916 -2.24454 0 
8.06587 -2.23307 0 
8.30001 -2.30778 0 
8.53831 -2.24506 0 
-8.42346 -2.0375 0 
-8.19862 -2.0681 0 
-7.94177 -2.03582 0 
-7.71662 -2.02434 0 
-7.48268 -2.07411 0 
-7.32372 -1.96871 0 
-7.16866 -2.08814 0 
-6.94018 -2.02227 0 
-6.7268 -2.01313 0 
-6.50847 -2.02188 0 
-6.29348 -2.03157 0 
-6.07599 -2.03369 0 
-5.85777 -2.02405 0 
-5.64599 -2.03788 0 
-5.42279 -2.0265 0 
-5.21715 -2.04617 0 
-4.99679 -2.0364 0 
-4.78457 -2.03264 0 
-4.57463 -2.02897 0 
-4.36057 -2.0241 0 
-4.15665 -2.04491 0 
-3.9443 -2.03599 0 
-3.7348 -2.03757 0 
-3.51773 -2.04753 0 
-3.30428 -2.043 0 
-3.08249 -2.03919 0 
-2.87187 -2.02689 0 
-2.65798 -2.01959 0 
-2.45011 -2.03189 0 
-2.22892 -2.02775 0 
-2.01875 -2.0377 0 
-1.79142 -2.03805 0 
-1.57457 -2.02116 0 
-1.3589 -2.03491 0 
-1.13656 -2.02009 0 
-0.907533 -2.02753 0 
-0.696958 -2.02429 0 
-0.471158 -2.04245 0 
-0.250092 -2.01222 0 
-0.0729126 -1.88344 0 
0.114869 -1.87238 0 
0.351128 -1.96838 0 
0.570183 -1.99883 0 
0.76328 -2.01561 0 
0.985292 -2.00401 0 
1.20253 -1.98764 0 
1.41554 -2.03941 0 
1.62869 -2.03586 0 
1.84388 -2.03381 0 
2.05904 -2.01552 0 
2.27497 -2.024 0 
2.49036 -2.02689 0 
2.70629 -2.03055 0 
2.92207 -2.03252 0 
3.13636 -2.03715 0 
3.34579 -2.04287 0 
3.55172 -2.03022 0 
3.75473 -2.0489 0 
3.95992 -2.02776 0 
4.16836 -2.04796 0 
4.3812 -2.04624 0 
4.59544 -2.03427 0 
4.8147 -2.02688 0 
5.02787 -2.04915 0 
5.24073 -2.02785 0 
5.44911 -2.03565 0 
5.661 -2.03096 0 
5.87094 -2.0378 0 
6.08103 -2.03586 0 
6.29158 -2.03828 0 
6.50532 -2.04463 0 
6.72034 -2.02883 0 
6.93694 -2.02925 0 
7.15321 -2.03039 0 
7.37807 -2.02849 0 
7.60492 -2.02318 0 
7.83511 -2.03981 0 
8.06791 -2.02115 0 
8.30188 -2.0949 0 
8.53831 -2.03293 0 
-8.53831 -1.83098 0 
-8.30451 -1.82551 0 
-8.0821 -1.8607 0 
-7.84547 -1.80998 0 
-7.59287 -1.84469 0 
-7.3457 -1.77895 0 
-7.08384 -1.85385 0 
-6.8558 -1.79226 0 
-6.63673 -1.80025 0 
-6.42191 -1.8057 0 
-6.21099 -1.81736 0 
-5.99982 -1.8173 0 
-5.78101 -1.81106 0 
-5.56937 -1.83037 0 
-5.35119 -1.81126 0 
-5.14351 -1.84015 0 
-4.92936 -1.82213 0 
-4.71991 -1.81696 0 
-4.5083 -1.81731 0 
-4.29594 -1.80959 0 
-4.09473 -1.8309 0 
-3.88408 -1.82062 0 
-3.66688 -1.83445 0 
-3.45539 -1.83583 0 
-3.23439 -1.83976 0 
-3.02353 -1.82055 0 
-2.81121 -1.8114 0 
-2.59763 -1.80369 0 
-2.38545 -1.8254 0 
-2.17207 -1.81121 0 
-1.95258 -1.83719 0 
-1.73611 -1.82147 0 
-1.51478 -1.80967 0 
-1.30085 -1.8244 0 
-1.06277 -1.82251 0 
-0.853441 -1.80314 0 
-0.647359 -1.79042 0 
-0.469023 -1.83628 0 
-0.284708 -1.78155 0 
0.2981 -1.76346 0 
0.530305 -1.79144 0 
0.757692 -1.77052 0 
0.947775 -1.79826 0 
1.17344 -1.77564 0 
1.40341 -1.82104 0 
1.61447 -1.81974 0 
1.82949 -1.82046 0 
2.04392 -1.8004 0 
2.25592 -1.81032 0 
2.4684 -1.8152 0 
2.68599 -1.81977 0 
2.90295 -1.82213 0 
3.11962 -1.82558 0 
3.33396 -1.82606 0 
3.55238 -1.82306 0 
3.76985 -1.82818 0 
3.97981 -1.81162 0 
4.18841 -1.83553 0 
4.39951 -1.83367 0 
4.62088 -1.8287 0 
4.83344 -1.81251 0 
5.04264 -1.83936 0 
5.25066 -1.81066 0 
5.46109 -1.82447 0 
5.67052 -1.81663 0 
5.87795 -1.82592 0 
6.08837 -1.82428 0 
6.29799 -1.82422 0 
6.50552 -1.8363 0 
6.72302 -1.82035 0 
6.93402 -1.81599 0 
7.14964 -1.81883 0 
7.36928 -1.82027 0 
7.59657 -1.81257 0 
7.8292 -1.83145 0 
8.0671 -1.81208 0 
8.30331 -1.88168 0 
8.53831 -1.8208 0 
-8.53831 -1.61347 0 
-8.29935 -1.61289 0 
-8.05953 -1.64279 0 
-7.82587 -1.59016 0 
[...]
POINT_DATA 2145 
VECTORS vectors float
-3.639e-05 -0.000522585 1 
1.38809e-05 -0.0135328 0.999908 
-6.89916e-05 -0.0166289 0.999862 
-3.60469e-05 -0.0171486 0.999853 
-4.45339e-05 -0.0163571 0.999866 
-4.2878e-05 -0.0147013 0.999892 
-4.27758e-05 -0.0128379 0.999918 
-4.29129e-05 -0.0109555 0.99994 
-4.30921e-05 -0.00907115 0.999959 
-4.2983e-05 -0.00717535 0.999974 
-4.29219e-05 -0.00529623 0.999986 
-4.33367e-05 -0.0034697 0.999994 
-4.27613e-05 -0.00168481 0.999999 
-4.3519e-05 7.21955e-05 1 
-4.27745e-05 0.0018649 0.999998 
-4.32467e-05 0.00378461 0.999993 
-4.28961e-05 0.0059205 0.999982 
-4.26429e-05 0.00840324 0.999965 
-4.27603e-05 0.0113577 0.999935 
-4.20301e-05 0.0149602 0.999888 
-4.19501e-05 0.0194056 0.999812 
-4.12673e-05 0.0249473 0.999689 
-4.06299e-05 0.0319119 0.999491 
-3.98317e-05 0.0406794 0.999172 
-3.86821e-05 0.0517733 0.998659 
-3.73655e-05 0.0658173 0.997832 
-3.5612e-05 0.0836324 0.996497 
-3.33881e-05 0.106232 0.994341 
-3.11386e-05 0.134866 0.990864 
-2.6343e-05 0.17106 0.985261 
-2.40566e-05 0.216757 0.976226 
-1.8145e-05 0.274326 0.961637 
-1.10918e-05 0.344019 0.938963 
-6.40427e-06 0.42949 0.903072 
1.52666e-06 0.530614 0.847614 
7.62023e-06 0.644368 0.764715 
9.69336e-06 0.763581 0.645712 
1.15266e-05 0.874517 0.484995 
6.34676e-06 0.958754 0.284237 
1.58688e-06 0.998429 0.0560358 
-3.87324e-06 0.984099 -0.177623 
-9.56851e-06 0.919929 -0.392084 
-1.20833e-05 0.819374 -0.573259 
-6.88757e-06 0.701939 -0.712237 
-5.33486e-06 0.583301 -0.812256 
6.56981e-07 0.47733 -0.878724 
1.16683e-05 0.383393 -0.923585 
1.32729e-05 0.305479 -0.952199 
2.16151e-05 0.242174 -0.970233 
2.51598e-05 0.19142 -0.981508 
2.94466e-05 0.151004 -0.988533 
3.20911e-05 0.119015 -0.992892 
3.47739e-05 0.0937439 -0.995596 
3.6549e-05 0.0738148 -0.997272 
3.81242e-05 0.0580808 -0.998312 
3.94146e-05 0.0456585 -0.998957 
4.01019e-05 0.0358407 -0.999358 
4.12276e-05 0.0280632 -0.999606 
4.14332e-05 0.0218782 -0.999761 
4.23114e-05 0.0169315 -0.999857 
4.21018e-05 0.0129544 -0.999916 
4.29845e-05 0.0097068 -0.999953 
4.27085e-05 0.00699996 -0.999975 
4.31908e-05 0.00470997 -0.999989 
4.29157e-05 0.00269955 -0.999996 
4.34476e-05 0.000849301 -1 
4.3016e-05 -0.000919873 -1 
4.32548e-05 -0.00269421 -0.999996 
4.31855e-05 -0.00451946 -0.99999 
4.30925e-05 -0.00642473 -0.999979 
4.306e-05 -0.00838199 -0.999965 
4.29703e-05 -0.0103644 -0.999946 
4.29825e-05 -0.0123658 -0.999924 
4.28565e-05 -0.014399 -0.999896 
4.19847e-05 -0.01643 -0.999865 
4.62938e-05 -0.0182399 -0.999834 
3.62271e-05 -0.0189469 -0.99982 
4.21295e-05 -0.0189499 -0.99982 
8.07656e-05 -0.0165234 -0.999863 
-3.70089e-05 -0.000829733 -1 
-5.83309e-05 0.00021794 1 
0.00538601 -0.00921288 0.999943 
0.00744329 -0.0139815 0.999875 
0.00825581 -0.016866 0.999824 
0.00888229 -0.0164983 0.999824 
0.00913531 -0.0154567 0.999839 
0.00916416 -0.0137105 0.999864 
0.00941149 -0.0116996 0.999887 
0.00958808 -0.00972681 0.999907 
0.00976999 -0.00782339 0.999922 
0.00982153 -0.00592306 0.999934 
0.00982584 -0.00406354 0.999943 
0.00995919 -0.0022325 0.999948 
0.00992585 -0.000450135 0.999951 
0.00998027 0.00138191 0.999949 
0.00994977 0.00331564 0.999945 
0.00995074 0.00545954 0.999936 
0.00995038 0.00791706 0.999919 
0.00989298 0.0108209 0.999893 
0.00984943 0.0143437 0.999849 
0.00971436 0.0187013 0.999778 
0.0096343 0.0242137 0.99966 
0.0095556 0.0311018 0.999471 
0.00943569 0.0397672 0.999164 
0.00933948 0.0509277 0.998659 
0.00922437 0.0648514 0.997852 
0.00920263 0.0827529 0.996528 
0.00923946 0.105208 0.994407 
0.0093008 0.133701 0.990978 
0.00945427 0.169653 0.985458 
0.00995433 0.21575 0.976398 
0.0106932 0.272578 0.962074 
0.0116032 0.344357 0.938767 
0.0128929 0.432457 0.901562 
0.0147536 0.5333 0.845798 
0.0155884 0.649589 0.760126 
0.0156497 0.771061 0.636569 
0.0136354 0.883008 0.469159 
0.00791674 0.965381 0.260723 
0.000645361 0.999878 0.015628 
-0.00751599 0.980652 -0.195614 
-0.0114811 0.92061 -0.390314 
-0.0151272 0.817788 -0.57532 
-0.0161625 0.698759 -0.715175 
-0.0156072 0.58127 -0.813561 
-0.0138137 0.475307 -0.879712 
-0.0121454 0.379794 -0.924991 
-0.0108897 0.301203 -0.953498 
-0.010103 0.237437 -0.97135 
-0.00972936 0.18824 -0.982075 
-0.00941722 0.148449 -0.988875 
-0.00926566 0.117058 -0.993082 
-0.0091828 0.0919593 -0.99572 
-0.00923262 0.0723783 -0.997335 
-0.00931893 0.0569271 -0.998335 
-0.00938483 0.0445717 -0.998962 
-0.00949351 0.034954 -0.999344 
-0.0096085 0.0272391 -0.999583 
-0.009749 0.0212433 -0.999727 
-0.00979677 0.0163589 -0.999818 
-0.00990562 0.0124472 -0.999873 
-0.0100306 0.0093039 -0.999906 
-0.0100819 0.00667852 -0.999927 
-0.0100352 0.00437685 -0.99994 
-0.0101117 0.0024098 -0.999946 
-0.010116 0.000570874 -0.999949 
-0.0101037 -0.00118463 -0.999948 
-0.0100605 -0.00295401 -0.999945 
-0.0100128 -0.00475044 -0.999939 
-0.00996585 -0.00660871 -0.999929 
-0.00988396 -0.00854418 -0.999915 
-0.00982349 -0.0104614 -0.999897 
-0.00967124 -0.0124607 -0.999876 
-0.00946848 -0.0144823 -0.99985 
-0.00926359 -0.0163391 -0.999824 
-0.00895821 -0.0177389 -0.999803 
-0.008233 -0.0185976 -0.999793 
-0.00728263 -0.0177607 -0.999816 
-0.00465124 -0.0132527 -0.999901 
0.000169382 9.52181e-05 -1 
0.000166191 -0.000206908 1 
0.00816248 -0.0127667 0.999885 
0.0105914 -0.0167114 0.999804 
0.0117456 -0.0168031 0.99979 
0.0124407 -0.0160014 0.999795 
0.0128596 -0.0147777 0.999808 
0.0132069 -0.0129078 0.999829 
0.0135881 -0.0108226 0.999849 
0.0139403 -0.00893576 0.999863 
0.0140099 -0.00705816 0.999877 
0.0141309 -0.00520311 0.999887 
0.0142035 -0.0034147 0.999893 
0.0143846 -0.00161074 0.999895 
0.0143549 0.000149732 0.999897 
0.0144011 0.00202012 0.999894 
0.014397 0.00400255 0.999888 
0.0144091 0.00620712 0.999877 
0.0144032 0.00876151 0.999858 
0.0143471 0.0117362 0.999828 
0.0142378 0.0154398 0.999779 
0.0140627 0.0199967 0.999701 
0.0140163 0.0256667 0.999572 
0.0139136 0.032788 0.999365 
0.0137292 0.0418947 0.999028 
0.0137632 0.0532257 0.998488 
0.0137101 0.067594 0.997619 
0.0139064 0.0853624 0.996253 
0.0142069 0.108282 0.994019 
0.0147428 0.136996 0.990462 
0.0155042 0.17391 0.98464 
0.0171295 0.219494 0.975463 
0.0191598 0.278046 0.960377 
0.0219801 0.352024 0.935733 
0.0259948 0.437932 0.898632 
0.0304132 0.544113 0.83846 
0.0332078 0.661735 0.749002 
0.0339633 0.786513 0.61664 
0.0294167 0.897485 0.440062 
0.0143118 0.978098 0.207653 
-0.00130479 0.999887 -0.0149628 
-0.0204365 0.981955 -0.188008 
-0.0267947 0.933936 -0.356436 
-0.0321605 0.84623 -0.531846 
-0.0349784 0.724188 -0.688715 
-0.0330155 0.601363 -0.798293 
-0.029145 0.48964 -0.871437 
-0.0237734 0.39755 -0.917272 
-0.0203452 0.313849 -0.949255 
-0.0177299 0.248194 -0.968548 
-0.0164567 0.195235 -0.980618 
-0.015176 0.154953 -0.987805 
-0.0144526 0.122351 -0.992382 
-0.0139365 0.0966173 -0.995224 
-0.0138083 0.0761249 -0.997003 
-0.013753 0.0600368 -0.998101 
-0.0136927 0.0472006 -0.998792 
-0.0138327 0.0369628 -0.999221 
-0.0138771 0.028957 -0.999484 
-0.0140832 0.0224849 -0.999648 
-0.0141195 0.0174183 -0.999749 
-0.0142193 0.01327 -0.999811 
-0.0144387 0.0099212 -0.999847 
-0.0144806 0.00717249 -0.999869 
-0.0143746 0.00483368 -0.999885 
-0.0145761 0.00274747 -0.99989 
-0.0145712 0.000892262 -0.999893 
-0.0145313 -0.000886607 -0.999894 
-0.0144944 -0.00264973 -0.999891 
-0.0144343 -0.00442395 -0.999886 
-0.0142995 -0.0062279 -0.999878 
-0.0141235 -0.00812793 -0.999867 
-0.0140498 -0.0100328 -0.999851 
-0.0137693 -0.0120166 -0.999833 
-0.0134337 -0.0140715 -0.999811 
-0.0130109 -0.0158851 -0.999789 
-0.0124285 -0.0171454 -0.999776 
-0.0114404 -0.0182735 -0.999768 
-0.00986802 -0.0180312 -0.999789 
-0.00625476 -0.0125394 -0.999902 
-0.000369512 -8.1808e-05 -1 
-4.92855e-05 6.54221e-05 1 
0.00729097 -0.011262 0.99991 
0.010688 -0.0172527 0.999794 
0.0117944 -0.0167913 0.999789 
0.012814 -0.0161412 0.999788 
0.0135923 -0.0148299 0.999798 
0.0139846 -0.0128171 0.99982 
0.0141215 -0.0109763 0.99984 
0.0142698 -0.00910013 0.999857 
0.0145102 -0.00725768 0.999868 
0.0146956 -0.00542833 0.999877 
0.014799 -0.00361135 0.999884 
0.0149131 -0.00186726 0.999887 
0.0149624 -1.02822e-05 0.999888 
0.0150641 0.00178224 0.999885 
0.0150749 0.00381812 0.999879 
0.0150556 0.00602278 0.999869 
0.0150125 0.00854714 0.999851 
0.014923 0.0115594 0.999822 
0.0149095 0.0150563 0.999775 
0.0148392 0.0195809 0.999698 
0.0147556 0.0250636 0.999577 
0.0147026 0.0319941 0.99938 
0.0146983 0.0408611 0.999057 
0.014768 0.0521038 0.998532 
0.0149525 0.0662249 0.997693 
0.0153901 0.0837983 0.996364 
0.0160911 0.105464 0.994293 
0.01734 0.13402 0.990827 
0.0190422 0.169082 0.985418 
0.021962 0.215476 0.976262 
0.0259081 0.274385 0.961271 
0.0313244 0.34324 0.938725 
0.0384205 0.433313 0.900424 
0.0471114 0.53662 0.842508 
0.0532505 0.657893 0.751226 
0.0571572 0.781275 0.621565 
0.0486184 0.903454 0.42592 
0.0282337 0.976687 0.212806 
0.00849227 0.999183 0.0395155 
-0.041299 0.976489 -0.211576 
-0.0566436 0.900977 -0.430154 
-0.0573977 0.802217 -0.594266 
-0.0564726 0.678165 -0.732737 
-0.0498243 0.559867 -0.827083 
-0.0421077 0.457652 -0.888134 
-0.0326804 0.369293 -0.928738 
-0.0272456 0.294517 -0.955258 
-0.0230147 0.235254 -0.971661 
-0.0203037 0.186816 -0.982185 
-0.0180246 0.148612 -0.988731 
-0.0165908 0.117771 -0.992902 
-0.0156718 0.0937165 -0.995476 
-0.0151283 0.0742979 -0.997121 
-0.0148324 0.0586786 -0.998167 
-0.0147073 0.046309 -0.998819 
-0.0146746 0.0364821 -0.999227 
-0.0147411 0.0286903 -0.99948 
-0.0147812 0.0223868 -0.99964 
-0.0148708 0.0173349 -0.999739 
-0.0149657 0.0132583 -0.9998 
-0.0149963 0.00992682 -0.999838 
-0.0150843 0.00719129 -0.99986 
-0.0151596 0.0048263 -0.999873 
-0.0151567 0.0027587 -0.999881 
-0.0151046 0.000861081 -0.999886 
-0.0151295 -0.000925729 -0.999885 
-0.0150525 -0.00268189 -0.999883 
-0.0149724 -0.00445404 -0.999878 
-0.0148791 -0.00626711 -0.99987 
-0.0146988 -0.00810838 -0.999859 
-0.0144212 -0.00999335 -0.999846 
-0.0141184 -0.0119602 -0.999829 
-0.0137523 -0.0139765 -0.999808 
-0.0132069 -0.0157964 -0.999788 
-0.0124402 -0.0170541 -0.999777 
-0.0113721 -0.0180378 -0.999773 
-0.0100732 -0.0180137 -0.999787 
-0.00727614 -0.0130056 -0.999889 
-9.94414e-06 -6.74179e-05 -1 
0.00416328 -0.00844634 0.999956 
0.00847302 -0.0153955 0.999846 
0.0100191 -0.017615 0.999795 
0.0111103 -0.0167032 0.999799 
0.012304 -0.0159085 0.999798 
0.0123028 -0.0150189 0.999812 
0.0131137 -0.013679 0.99982 
0.013199 -0.0115883 0.999846 
0.0134616 -0.00966692 0.999863 
0.0137309 -0.00779695 0.999875 
0.0139563 -0.00600625 0.999885 
0.0141252 -0.00421629 0.999891 
0.0142271 -0.00241839 0.999896 
0.0143615 -0.000643946 0.999897 
0.0144047 0.00127456 0.999895 
0.0145031 0.00314816 0.99989 
0.0144934 0.0053485 0.999881 
0.014472 0.00776821 0.999865 
0.0144311 0.0105784 0.99984 
0.0143741 0.0140234 0.999798 
0.01438 0.018018 0.999734 
0.0143234 0.0231337 0.99963 
0.0143211 0.029401 0.999465 
0.0144018 0.0375416 0.999191 
0.0145577 0.0475857 0.998761 
0.0149273 0.0607712 0.99804 
0.0155561 0.0765033 0.996948 
0.0166173 0.0965771 0.995187 
0.0181243 0.121213 0.992461 
0.0206306 0.15399 0.987857 
0.02398 0.193481 0.980811 
0.0292708 0.246732 0.968642 
0.0368073 0.309278 0.950259 
0.0457405 0.387307 0.920815 
0.05868 0.482029 0.874188 
0.0722586 0.598585 0.797794 
0.0842575 0.715773 0.693231 
0.0842597 0.845899 0.526645 
0.069088 0.947737 0.311483 
0.0388502 0.993756 0.10459 
-0.0619043 0.983305 -0.171114 
-0.0941915 0.896382 -0.43316 
-0.0934775 0.781758 -0.616536 
-0.0824728 0.673881 -0.734222 
-0.0695842 0.551859 -0.831029 
-0.0566216 0.446442 -0.893019 
-0.042746 0.363862 -0.930471 
-0.0342933 0.291435 -0.955976 
-0.0278671 0.232045 -0.972306 
-0.0234184 0.183836 -0.982678 
-0.0200218 0.145845 -0.989105 
-0.0177529 0.115429 -0.993157 
-0.0162553 0.091131 -0.995706 
-0.015343 0.0720614 -0.997282 
-0.0148085 0.0569956 -0.998265 
-0.014551 0.04531 -0.998867 
-0.0143659 0.0359633 -0.99925 
-0.0143549 0.0286193 -0.999487 
-0.0142925 0.0225999 -0.999642 
-0.0144033 0.0176873 -0.99974 
-0.0144393 0.0135693 -0.999804 
-0.0144478 0.0101879 -0.999844 
-0.014463 0.00730998 -0.999869 
-0.0146133 0.00493798 -0.999881 
-0.0145728 0.00284675 -0.99989 
-0.0145887 0.000958802 -0.999893 
-0.0145233 -0.000868641 -0.999894 
-0.0145082 -0.00264733 -0.999891 
-0.0143718 -0.00441373 -0.999887 
-0.0142039 -0.00618824 -0.99988 
-0.0140575 -0.00803856 -0.999869 
-0.0137516 -0.00996707 -0.999856 
-0.0133666 -0.011937 -0.999839 
-0.0129446 -0.0139747 -0.999819 
-0.0123426 -0.0158805 -0.999798 
-0.0115323 -0.0171244 -0.999787 
-0.0103949 -0.0180144 -0.999784 
-0.00883666 -0.017894 -0.999801 
-0.00691601 -0.0129132 -0.999893 
-7.56213e-05 -7.21983e-05 -1 
-5.06177e-05 3.18492e-05 1 
0.00611358 -0.0121165 0.999908 
0.00859175 -0.0176075 0.999808 
0.0097253 -0.0175244 0.999799 
0.0110287 -0.0164646 0.999804 
0.0115368 -0.0152684 0.999817 
0.0123898 -0.0129713 0.999839 
0.0124134 -0.0108532 0.999864 
0.0127543 -0.00893846 0.999879 
0.0130225 -0.007132 0.99989 
0.0132941 -0.00539886 0.999897 
0.0134282 -0.0036564 0.999903 
0.0135167 -0.00183526 0.999907 
0.0137034 -3.1601e-05 0.999906 
0.0136579 0.00188681 0.999905 
0.0138784 0.00385114 0.999896 
0.0137853 0.0060772 0.999887 
0.0137471 0.00858112 0.999869 
0.0137285 0.011564 0.999839 
0.0136708 0.0151696 0.999791 
0.0137592 0.0193257 0.999719 
0.0137338 0.0246498 0.999602 
0.0138722 0.0315012 0.999407 
0.014059 0.0398225 0.999108 
0.0144321 0.0507479 0.998607 
0.0149916 0.0637257 0.997855 
0.0159742 0.0800788 0.996661 
0.0175361 0.100644 0.994768 
0.0198137 0.126638 0.991751 
0.0232529 0.15847 0.98709 
0.0281172 0.201205 0.979146 
0.0352905 0.250911 0.967367 
0.0456725 0.314602 0.948124 
0.0583356 0.39175 0.91822 
0.077414 0.493434 0.866331 
0.0999491 0.594259 0.798039 
0.124341 0.704269 0.69896 
0.129728 0.814485 0.565496 
0.145667 0.901121 0.408364 
-0.155548 0.887265 -0.434241 
-0.136714 0.766637 -0.627358 
-0.114816 0.635396 -0.763603 
-0.0903835 0.542174 -0.835391 
-0.0703275 0.435538 -0.897419 
-0.0515484 0.351303 -0.934842 
-0.0403038 0.283146 -0.958229 
-0.0318199 0.226241 -0.973551 
-0.0260476 0.180549 -0.983221 
-0.0217538 0.144605 -0.98925 
-0.0187631 0.115186 -0.993167 
-0.0167488 0.0912568 -0.995687 
-0.0154504 0.0722282 -0.997268 
-0.0146479 0.0571529 -0.998258 
-0.0141607 0.0452126 -0.998877 
-0.0139173 0.0356453 -0.999268 
-0.0137613 0.0279045 -0.999516 
-0.0136558 0.0219657 -0.999665 
-0.0137455 0.0171664 -0.999758 
-0.0137753 0.0132316 -0.999818 
-0.0138112 0.00982664 -0.999856 
-0.0137808 0.0071047 -0.99988 
-0.0139175 0.00478296 -0.999892 
-0.0137722 0.00273018 -0.999901 
-0.0138786 0.000826186 -0.999903 
-0.0137885 -0.000995391 -0.999904 
-0.0137236 -0.00275724 -0.999902 
-0.0136151 -0.00454189 -0.999897 
-0.013468 -0.00631971 -0.999889 
-0.0132885 -0.00807749 -0.999879 
-0.0129543 -0.0100209 -0.999866 
-0.0126225 -0.0119932 -0.999848 
-0.012176 -0.0140351 -0.999827 
-0.0116365 -0.0159036 -0.999806 
-0.0107767 -0.0170787 -0.999796 
-0.00978712 -0.0180044 -0.99979 
-0.00830501 -0.0179222 -0.999805 
-0.00629654 -0.0128229 -0.999898 
-9.55411e-05 -6.69372e-05 -1 
0.000123617 -0.000145131 1 
0.00583261 -0.0132032 0.999896 
0.0077683 -0.0175944 0.999815 
0.00871491 -0.0175403 0.999808 
0.00998675 -0.0167393 0.99981 
0.0101655 -0.0156174 0.999826 
0.0112307 -0.0134428 0.999847 
0.0111559 -0.0112362 0.999875 
0.011373 -0.00908268 0.999894 
0.011623 -0.00719447 0.999907 
0.0118553 -0.00537791 0.999915 
0.0121168 -0.00354324 0.99992 
0.0121606 -0.00171376 0.999925 
0.0124378 0.000162874 0.999923 
0.0123322 0.00209306 0.999922 
0.0125544 0.00409756 0.999913 
0.0124297 0.00637051 0.999902 
0.012416 0.00898299 0.999883 
0.012419 0.0120837 0.99985 
0.0122982 0.0156663 0.999802 
0.0125216 0.0199964 0.999722 
0.0126222 0.0258277 0.999587 
0.0128204 0.0327286 0.999382 
0.013224 0.0417975 0.999039 
0.013665 0.0523803 0.998534 
0.014445 0.065766 0.997731 
0.0157837 0.0826707 0.996452 
0.0179007 0.104211 0.994394 
0.0208259 0.129518 0.991358 
0.0246051 0.156642 0.987349 
0.0293154 0.190341 0.98128 
0.036705 0.232099 0.971999 
0.0470602 0.286396 0.956955 
0.0628269 0.358474 0.931423 
0.0826356 0.444199 0.892109 
0.115941 0.539948 0.833675 
0.154251 0.642042 0.750992 
0.202905 0.754222 0.624483 
-0.20459 0.757268 -0.620232 
-0.152872 0.641127 -0.752055 
-0.113779 0.517721 -0.84795 
-0.0864804 0.442235 -0.89272 
-0.0603633 0.348854 -0.935231 
-0.0453779 0.277569 -0.959633 
-0.0349047 0.223006 -0.974192 
-0.0274155 0.176348 -0.983946 
-0.022078 0.139404 -0.989989 
-0.018589 0.110848 -0.993664 
-0.0162972 0.0882661 -0.995964 
-0.0147341 0.0699206 -0.997444 
-0.0137832 0.0556751 -0.998354 
-0.013197 0.0440982 -0.99894 
-0.012823 0.0348771 -0.999309 
-0.0126068 0.0277624 -0.999535 
-0.0123411 0.0220172 -0.999681 
-0.0125165 0.0173966 -0.99977 
-0.0124998 0.0134677 -0.999831 
-0.012573 0.0102072 -0.999869 
-0.0123975 0.00731757 -0.999896 
-0.0125855 0.00487356 -0.999909 
-0.0124497 0.00268394 -0.999919 
-0.0124549 0.00067255 -0.999922 
-0.0123558 -0.00116691 -0.999923 
-0.0123525 -0.00296724 -0.999919 
-0.0122264 -0.00477447 -0.999914 
-0.0120388 -0.00653752 -0.999906 
-0.0119863 -0.00837881 -0.999893 
-0.0115037 -0.0102261 -0.999882 
-0.0112095 -0.0122605 -0.999862 
-0.0108305 -0.0143383 -0.999839 
-0.0103376 -0.0161859 -0.999816 
-0.00956387 -0.0173328 -0.999804 
-0.00873196 -0.0181622 -0.999797 
-0.00740143 -0.0179047 -0.999812 
-0.00575859 -0.0128782 -0.9999 
-7.31517e-05 -6.96584e-05 -1 
6.36715e-05 -3.8261e-05 1 
0.00465666 -0.0125443 0.99991 
0.00670403 -0.0176007 0.999823 
0.00740714 -0.0177855 0.999814 
0.00857349 -0.0168117 0.999822 
0.00860675 -0.015549 0.999842 
0.00977644 -0.0137325 0.999858 
0.00946272 -0.0118588 0.999885 
0.00979607 -0.00983366 0.999904 
0.00992691 -0.00782715 0.99992 
0.0101503 -0.00596605 0.999931 
0.0104304 -0.00413373 0.999937 
0.0104971 -0.00232957 0.999942 
0.0107261 -0.000371385 0.999942 
0.0106994 0.00144243 0.999942 
0.0108359 0.00359024 0.999935 
0.0108346 0.00565227 0.999925 
0.0107867 0.00820118 0.999908 
0.0108157 0.0111484 0.999879 
0.0106652 0.0145708 0.999837 
0.0108295 0.0188683 0.999763 
0.0111557 0.0238251 0.999654 
0.0112763 0.0305423 0.99947 
0.0118078 0.0388545 0.999175 
0.0121866 0.0487922 0.998735 
0.012983 0.0609781 0.998055 
0.0143219 0.0765127 0.996966 
0.0164184 0.0961028 0.995236 
0.0194741 0.120258 0.992552 
0.0241317 0.151182 0.988211 
0.0310343 0.190671 0.981163 
0.0404513 0.236587 0.970768 
0.0542055 0.296212 0.953583 
0.0746021 0.369847 0.926093 
0.100598 0.450562 0.887059 
0.146546 0.542678 0.827058 
0.206708 0.636711 0.74288 
-0.208383 0.641496 -0.738281 
-0.14857 0.547458 -0.823539 
-0.107457 0.446437 -0.888339 
-0.0789895 0.384415 -0.919775 
-0.0585047 0.312682 -0.948054 
-0.0440109 0.25274 -0.966533 
-0.0335963 0.204486 -0.978293 
-0.0259557 0.162543 -0.98636 
-0.0208474 0.130296 -0.991256 
-0.0174884 0.105457 -0.99427 
-0.0151895 0.0851211 -0.996255 
-0.0135795 0.0684335 -0.997563 
-0.0125156 0.0548655 -0.998415 
-0.0118687 0.0438397 -0.998968 
-0.0113682 0.034781 -0.99933 
-0.0109983 0.0275089 -0.999561 
-0.0107827 0.0215354 -0.99971 
-0.0108489 0.0167273 -0.999801 
-0.0108474 0.012961 -0.999857 
-0.0109996 0.00975569 -0.999892 
-0.0106824 0.00708351 -0.999918 
-0.011004 0.00485725 -0.999928 
-0.0107208 0.00283875 -0.999939 
-0.0108778 0.00091484 -0.99994 
-0.0106708 -0.00100091 -0.999943 
-0.010664 -0.00284881 -0.999939 
-0.0105853 -0.00463678 -0.999933 
-0.0103412 -0.00643345 -0.999926 
-0.0103565 -0.00825058 -0.999912 
-0.00990709 -0.0101422 -0.999899 
-0.00964773 -0.0121485 -0.99988 
-0.00928124 -0.0142481 -0.999855 
-0.00887492 -0.0161455 -0.99983 
-0.0081673 -0.017285 -0.999817 
-0.0075218 -0.0181836 -0.999806 
-0.00632556 -0.0180408 -0.999817 
-0.00495212 -0.0129165 -0.999904 
-5.94449e-05 -6.83386e-05 -1 
4.12061e-05 -7.31032e-05 1 
0.00405094 -0.0128078 0.99991 
0.00553402 -0.0178333 0.999826 
0.00606192 -0.0179138 0.999821 
0.00711102 -0.0169645 0.999831 
0.00705769 -0.0158191 0.99985 
0.0080578 -0.0137748 0.999873 
0.0078756 -0.0115378 0.999902 
0.00829749 -0.00949444 0.999921 