# vtk DataFile Version 3.0 
Exported using Morpho https://github.com/Morpho-lang/morpho 
ASCII 
DATASET UNSTRUCTURED_GRID 

POINTS 2221 float 
-8.32618 -2.88146 0 
-8.11405 -2.88146 0 
-7.90192 -2.88146 0 
-7.68979 -2.88146 0 
-7.47765 -2.88146 0 
-7.26552 -2.88146 0 
-7.05339 -2.88146 0 
-6.84126 -2.88146 0 
-6.62913 -2.88146 0 
-6.41699 -2.88146 0 
-6.20486 -2.88146 0 
-5.99273 -2.88146 0 
-5.7806 -2.88146 0 
-5.56847 -2.88146 0 
-5.35633 -2.88146 0 
-5.1442 -2.88146 0 
-4.93207 -2.88146 0 
-4.71994 -2.88146 0 
-4.50781 -2.88146 0 
-4.29567 -2.88146 0 
-4.08354 -2.88146 0 
-3.87141 -2.88146 0 
-3.65928 -2.88146 0 
-3.44715 -2.88146 0 
-3.23501 -2.88146 0 
-3.02288 -2.88146 0 
-2.81075 -2.88146 0 
-2.59862 -2.88146 0 
-2.38649 -2.88146 0 
-2.17435 -2.88146 0 
-1.96222 -2.88146 0 
-1.75009 -2.88146 0 
-1.53796 -2.88146 0 
-1.32583 -2.88146 0 
-1.11369 -2.88146 0 
-0.901561 -2.88146 0 
-0.689429 -2.88146 0 
-0.477297 -2.88146 0 
-0.265165 -2.88146 0 
-0.053033 -2.88146 0 
0.159099 -2.88146 0 
0.371231 -2.88146 0 
0.583363 -2.88146 0 
0.795495 -2.88146 0 
1.00763 -2.88146 0 
1.21976 -2.88146 0 
1.43189 -2.88146 0 
1.64402 -2.88146 0 
1.85616 -2.88146 0 
2.06829 -2.88146 0 
2.28042 -2.88146 0 
2.49255 -2.88146 0 
2.70468 -2.88146 0 
2.91682 -2.88146 0 
3.12895 -2.88146 0 
3.34108 -2.88146 0 
3.55321 -2.88146 0 
3.76534 -2.88146 0 
3.97748 -2.88146 0 
4.18961 -2.88146 0 
4.40174 -2.88146 0 
4.61387 -2.88146 0 
4.826 -2.88146 0 
5.03814 -2.88146 0 
5.25027 -2.88146 0 
5.4624 -2.88146 0 
5.67453 -2.88146 0 
5.88666 -2.88146 0 
6.0988 -2.88146 0 
6.31093 -2.88146 0 
6.52306 -2.88146 0 
6.73519 -2.88146 0 
6.94732 -2.88146 0 
7.15946 -2.88146 0 
7.37159 -2.88146 0 
7.58372 -2.88146 0 
7.79585 -2.88146 0 
8.00798 -2.88146 0 
8.22012 -2.88146 0 
8.53831 -2.88146 0 
-8.53831 -2.73865 0 
-8.28195 -2.66876 0 
-8.05634 -2.66398 0 
-7.82871 -2.66541 0 
-7.59783 -2.67033 0 
-7.3717 -2.66685 0 
-7.14541 -2.66844 0 
-6.9194 -2.6685 0 
-6.69661 -2.66813 0 
-6.47411 -2.6685 0 
-6.25314 -2.66849 0 
-6.03276 -2.66894 0 
-5.81366 -2.66855 0 
-5.59657 -2.66884 0 
-5.38016 -2.66902 0 
-5.16449 -2.66868 0 
-4.95013 -2.66845 0 
-4.73778 -2.67 0 
-4.52497 -2.67111 0 
-4.31039 -2.66844 0 
-4.09715 -2.66599 0 
-3.88787 -2.66768 0 
-3.67504 -2.66595 0 
-3.46726 -2.67185 0 
-3.25254 -2.67042 0 
-3.04192 -2.66968 0 
-2.83111 -2.66962 0 
-2.62244 -2.67447 0 
-2.40839 -2.67139 0 
-2.19834 -2.6765 0 
-1.98025 -2.66608 0 
-1.77231 -2.67321 0 
-1.55698 -2.66811 0 
-1.3469 -2.67167 0 
-1.13147 -2.66983 0 
-0.919072 -2.67553 0 
-0.698589 -2.67648 0 
-0.483309 -2.66281 0 
-0.276779 -2.66769 0 
-0.0596187 -2.6664 0 
0.148892 -2.67649 0 
0.369557 -2.67031 0 
0.578497 -2.67216 0 
0.79317 -2.67129 0 
1.00657 -2.66886 0 
1.21632 -2.67102 0 
1.42842 -2.67274 0 
1.64242 -2.67238 0 
1.85528 -2.67236 0 
2.06796 -2.67245 0 
2.28064 -2.67236 0 
2.49242 -2.6719 0 
2.70484 -2.67151 0 
2.913 -2.66786 0 
3.12278 -2.67343 0 
3.33685 -2.67502 0 
3.55166 -2.67255 0 
3.76491 -2.67677 0 
3.97825 -2.67209 0 
4.1904 -2.67016 0 
4.40202 -2.6686 0 
4.61513 -2.67131 0 
4.82882 -2.66976 0 
5.04122 -2.67046 0 
5.25779 -2.67269 0 
5.47055 -2.67083 0 
5.6825 -2.66938 0 
5.89409 -2.66877 0 
6.10819 -2.67112 0 
6.32324 -2.67204 0 
6.53695 -2.67106 0 
6.74957 -2.66821 0 
6.96579 -2.67019 0 
7.18125 -2.66815 0 
7.39653 -2.66513 0 
7.61093 -2.66022 0 
7.8251 -2.65781 0 
8.03922 -2.64886 0 
8.29727 -2.71608 0 
8.53831 -2.66933 0 
-8.432 -2.51478 0 
-8.18633 -2.44785 0 
-7.96209 -2.45184 0 
-7.72924 -2.46134 0 
-7.50611 -2.4566 0 
-7.2793 -2.45748 0 
-7.05355 -2.45981 0 
-6.83192 -2.45609 0 
-6.61111 -2.45765 0 
-6.39197 -2.45689 0 
-6.17281 -2.4581 0 
-5.95533 -2.45787 0 
-5.73994 -2.45625 0 
-5.52593 -2.45695 0 
-5.31256 -2.45704 0 
-5.09997 -2.45611 0 
-4.88942 -2.45483 0 
-4.67996 -2.45788 0 
-4.46931 -2.46032 0 
-4.25643 -2.4558 0 
-4.04853 -2.44828 0 
-3.83737 -2.45546 0 
-3.62843 -2.44915 0 
-3.41593 -2.46496 0 
-3.20637 -2.45719 0 
-2.99618 -2.45773 0 
-2.78777 -2.45636 0 
-2.57801 -2.4671 0 
-2.36658 -2.46038 0 
-2.15485 -2.47164 0 
-1.94134 -2.45031 0 
-1.7329 -2.46371 0 
-1.52336 -2.45225 0 
-1.31147 -2.46195 0 
-1.10003 -2.45672 0 
-0.880757 -2.47297 0 
-0.666257 -2.46933 0 
-0.461433 -2.43287 0 
-0.246499 -2.45559 0 
-0.0387524 -2.44688 0 
0.182955 -2.47943 0 
0.391873 -2.44891 0 
0.604065 -2.4621 0 
0.81547 -2.4593 0 
1.02324 -2.45294 0 
1.23394 -2.45937 0 
1.44732 -2.46416 0 
1.65904 -2.46251 0 
1.87078 -2.46278 0 
2.08236 -2.46316 0 
2.29255 -2.46151 0 
2.50419 -2.46219 0 
2.71132 -2.45643 0 
2.91942 -2.45342 0 
3.12808 -2.4624 0 
3.3399 -2.46877 0 
3.55041 -2.46165 0 
3.76399 -2.47121 0 
3.97762 -2.46139 0 
4.18917 -2.4574 0 
4.40329 -2.45827 0 
4.61955 -2.4616 0 
4.8312 -2.45663 0 
5.04983 -2.46477 0 
5.26211 -2.46186 0 
5.47263 -2.4583 0 
5.68275 -2.45614 0 
5.88906 -2.45074 0 
6.09673 -2.46172 0 
6.30818 -2.46248 0 
6.52417 -2.46193 0 
6.73588 -2.454 0 
6.95042 -2.46142 0 
7.16684 -2.45555 0 
7.38376 -2.45149 0 
7.60156 -2.44138 0 
7.81988 -2.43345 0 
8.06087 -2.44569 0 
8.29687 -2.51311 0 
8.53831 -2.4572 0 
-8.53831 -2.27354 0 
-8.32963 -2.28464 0 
-8.07881 -2.23184 0 
-7.84633 -2.25266 0 
-7.62115 -2.24303 0 
-7.39333 -2.24752 0 
-7.1636 -2.2499 0 
-6.94049 -2.24508 0 
-6.71687 -2.24477 0 
-6.49714 -2.24448 0 
-6.27627 -2.24669 0 
-6.05702 -2.24658 0 
-5.84019 -2.24436 0 
-5.62415 -2.24362 0 
-5.40993 -2.24445 0 
-5.19608 -2.24426 0 
-4.98329 -2.24146 0 
-4.77135 -2.24187 0 
-4.56149 -2.24662 0 
-4.35001 -2.24915 0 
-4.13709 -2.23548 0 
-3.92074 -2.24145 0 
-3.71058 -2.23794 0 
-3.48999 -2.25093 0 
-3.28254 -2.24764 0 
-3.06889 -2.24681 0 
-2.8573 -2.24381 0 
-2.64418 -2.25156 0 
-2.4379 -2.25406 0 
-2.21932 -2.25783 0 
-2.01416 -2.25278 0 
-1.78464 -2.2437 0 
-1.58136 -2.24174 0 
-1.36133 -2.24706 0 
-1.14935 -2.24496 0 
-0.926432 -2.26589 0 
-0.706641 -2.2578 0 
-0.496461 -2.21064 0 
-0.279431 -2.23733 0 
-0.0656027 -2.22532 0 
0.150718 -2.27196 0 
0.364751 -2.23651 0 
0.588725 -2.246 0 
0.800443 -2.24522 0 
1.0137 -2.23519 0 
1.2238 -2.24495 0 
1.43513 -2.25389 0 
1.64854 -2.25126 0 
1.86024 -2.25214 0 
2.07187 -2.25242 0 
2.28243 -2.24947 0 
2.4922 -2.25155 0 
2.70241 -2.2412 0 
2.90998 -2.23882 0 
3.11895 -2.24916 0 
3.32909 -2.25938 0 
3.5409 -2.24926 0 
3.75331 -2.26481 0 
3.96593 -2.2503 0 
4.17845 -2.24502 0 
4.3909 -2.24712 0 
4.60549 -2.25507 0 
4.82215 -2.24418 0 
5.03626 -2.25892 0 
5.25289 -2.25045 0 
5.4649 -2.2452 0 
5.67419 -2.24169 0 
5.88409 -2.23531 0 
6.09165 -2.24438 0 
6.30058 -2.25256 0 
6.51068 -2.25215 0 
6.72756 -2.24326 0 
6.94093 -2.24875 0 
7.15738 -2.24586 0 
7.37571 -2.23794 0 
7.59492 -2.22436 0 
7.83432 -2.23267 0 
8.06836 -2.23523 0 
8.30203 -2.30061 0 
8.53831 -2.24506 0 
-8.42587 -2.04023 0 
-8.21612 -2.06174 0 
-7.95206 -2.03406 0 
-7.7347 -2.032 0 
-7.50439 -2.03326 0 
-7.27643 -2.041 0 
-7.05331 -2.0337 0 
-6.8301 -2.0331 0 
-6.61046 -2.02985 0 
-6.39094 -2.03399 0 
-6.17291 -2.03494 0 
-5.9573 -2.03244 0 
-5.74234 -2.03133 0 
-5.52873 -2.03043 0 
-5.31666 -2.03157 0 
-5.10564 -2.03002 0 
-4.89398 -2.02811 0 
-4.68442 -2.02812 0 
-4.47633 -2.03484 0 
-4.26952 -2.0335 0 
-4.04751 -2.03088 0 
-3.83761 -2.02622 0 
-3.61504 -2.0418 0 
-3.40802 -2.03262 0 
-3.19819 -2.03775 0 
-2.98801 -2.03446 0 
-2.77423 -2.03674 0 
-2.56995 -2.0338 0 
-2.3586 -2.05096 0 
-2.1565 -2.03486 0 
-1.93803 -2.05649 0 
-1.73011 -2.01549 0 
-1.51553 -2.03604 0 
-1.30491 -2.02809 0 
-1.07964 -2.04526 0 
-0.86913 -2.05226 0 
-0.663142 -2.02709 0 
-0.464239 -1.95335 0 
-0.278263 -2.01689 0 
-0.0764037 -1.99101 0 
0.136558 -2.05673 0 
0.349079 -2.00895 0 
0.560557 -2.03769 0 
0.786862 -2.02408 0 
0.997465 -2.02024 0 
1.21507 -2.02731 0 
1.42778 -2.03872 0 
1.63955 -2.04003 0 
1.85409 -2.04025 0 
2.06651 -2.0414 0 
2.27903 -2.03732 0 
2.49008 -2.03929 0 
2.6995 -2.0266 0 
2.90919 -2.02401 0 
3.1169 -2.03659 0 
3.32802 -2.04866 0 
3.53915 -2.03662 0 
3.75163 -2.05673 0 
3.96582 -2.03894 0 
4.17967 -2.03355 0 
4.39856 -2.03994 0 
4.61482 -2.04728 0 
4.82808 -2.03141 0 
5.03871 -2.05081 0 
5.24996 -2.03836 0 
5.45438 -2.02701 0 
5.66109 -2.0283 0 
5.86911 -2.02074 0 
6.08051 -2.03197 0 
6.28987 -2.03553 0 
6.49988 -2.04129 0 
6.70943 -2.03369 0 
6.92974 -2.03894 0 
7.14475 -2.0334 0 
7.36248 -2.02569 0 
7.59181 -2.01778 0 
7.82622 -2.02961 0 
8.06598 -2.02417 0 
8.30189 -2.08478 0 
8.53831 -2.03293 0 
-8.53831 -1.83202 0 
-8.30872 -1.8139 0 
-8.08911 -1.86253 0 
-7.8504 -1.80721 0 
-7.62321 -1.82428 0 
-7.38555 -1.82798 0 
-7.16042 -1.82407 0 
-6.93169 -1.82198 0 
-6.70743 -1.81726 0 
-6.48224 -1.82026 0 
-6.26056 -1.82267 0 
-6.0413 -1.82039 0 
-5.82261 -1.81943 0 
-5.6051 -1.81826 0 
-5.38841 -1.8182 0 
-5.17427 -1.81738 0 
-4.95996 -1.81707 0 
-4.74519 -1.81426 0 
-4.5317 -1.81818 0 
-4.32367 -1.8179 0 
-4.11052 -1.83381 0 
-3.88566 -1.81532 0 
-3.66469 -1.84107 0 
-3.44495 -1.81884 0 
-3.23351 -1.82519 0 
-3.02282 -1.82385 0 
-2.80954 -1.82911 0 
-2.59541 -1.81571 0 
-2.38645 -1.8379 0 
-2.17953 -1.81369 0 
-1.97231 -1.84847 0 
-1.76492 -1.79883 0 
-1.55033 -1.81938 0 
-1.33831 -1.81043 0 
-1.11723 -1.83855 0 
-0.889944 -1.82783 0 
-0.678704 -1.79685 0 
-0.467226 -1.71015 0 
-0.261924 -1.76699 0 
-0.058761 -1.74363 0 
0.136873 -1.83158 0 
0.342204 -1.76827 0 
0.549551 -1.80453 0 
0.753365 -1.81546 0 
0.981753 -1.7948 0 
1.19312 -1.813 0 
1.41401 -1.82146 0 
1.6278 -1.8233 0 
1.8397 -1.82867 0 
2.05433 -1.82866 0 
2.26625 -1.82577 0 
2.47918 -1.8264 0 
2.69242 -1.8161 0 
2.9058 -1.81047 0 
3.11715 -1.81977 0 
3.32243 -1.83736 0 
3.54207 -1.83079 0 
3.76122 -1.84861 0 
3.97859 -1.8285 0 
4.20099 -1.82967 0 
4.40734 -1.82048 0 
4.61155 -1.83836 0 
4.81302 -1.80987 0 
5.01897 -1.83586 0 
5.22702 -1.82749 0 
5.43873 -1.80874 0 
5.64407 -1.81176 0 
5.85267 -1.80779 0 
6.06366 -1.81935 0 
6.27621 -1.82518 0 
6.48975 -1.82621 0 
6.70122 -1.8205 0 
6.914 -1.83308 0 
7.13609 -1.82154 0 
7.35857 -1.81628 0 
7.58246 -1.81142 0 
7.81783 -1.82402 0 
8.05759 -1.81731 0 
8.29889 -1.86969 0 
8.53831 -1.8208 0 
-8.53831 -1.61538 0 
-8.30093 -1.60343 0 
[...]
POINT_DATA 2221 
VECTORS vectors float
-0.000132429 -0.000944306 1 
5.05064e-05 -0.0129387 0.999916 
-9.9634e-05 -0.0164133 0.999865 
-6.47347e-05 -0.0171955 0.999852 
-6.87239e-05 -0.0164155 0.999865 
-6.65208e-05 -0.0145965 0.999893 
-6.81871e-05 -0.0125493 0.999921 
-6.73111e-05 -0.0105261 0.999945 
-6.76441e-05 -0.00850084 0.999964 
-6.78162e-05 -0.00645475 0.999979 
-6.75794e-05 -0.00439613 0.99999 
-6.7959e-05 -0.00234606 0.999997 
-6.76264e-05 -0.000305108 1 
-6.78095e-05 0.00176851 0.999998 
-6.76533e-05 0.00395146 0.999992 
-6.75425e-05 0.00634894 0.99998 
-6.71259e-05 0.00908503 0.999959 
-6.66883e-05 0.0122963 0.999924 
-6.65233e-05 0.0161432 0.99987 
-6.56596e-05 0.0208339 0.999783 
-6.42346e-05 0.02661 0.999646 
-6.46999e-05 0.0337406 0.999431 
-6.10682e-05 0.0426055 0.999092 
-6.16101e-05 0.0536161 0.998562 
-5.78476e-05 0.0673461 0.99773 
-5.62382e-05 0.0844674 0.996426 
-5.15019e-05 0.1058 0.994387 
-4.97896e-05 0.132308 0.991209 
-4.1025e-05 0.165254 0.986251 
-3.9441e-05 0.205936 0.978565 
-2.71362e-05 0.256072 0.966658 
-2.24297e-05 0.317035 0.948414 
-9.56402e-06 0.390451 0.920624 
-1.76719e-06 0.476872 0.878973 
1.27753e-05 0.575666 0.817685 
1.2793e-05 0.683262 0.730174 
2.39569e-05 0.792737 0.609564 
1.88366e-05 0.890035 0.455893 
1.03403e-05 0.963956 0.266062 
2.81148e-06 0.998528 0.0542407 
-7.13675e-06 0.986821 -0.161818 
-1.56425e-05 0.930805 -0.365516 
-2.13821e-05 0.842801 -0.538225 
-1.92855e-05 0.737277 -0.675591 
-1.4112e-05 0.627955 -0.778249 
-4.48573e-06 0.524251 -0.851564 
4.84077e-06 0.43151 -0.902108 
1.75831e-05 0.351778 -0.936083 
2.40612e-05 0.28499 -0.958531 
3.26608e-05 0.230341 -0.97311 
4.29026e-05 0.184653 -0.982804 
4.27745e-05 0.147877 -0.989006 
5.22316e-05 0.118184 -0.992992 
5.39852e-05 0.0940819 -0.995564 
5.60062e-05 0.0752772 -0.997163 
6.10845e-05 0.06009 -0.998193 
6.06378e-05 0.0478028 -0.998857 
6.32396e-05 0.0380676 -0.999275 
6.44362e-05 0.0300061 -0.99955 
6.48268e-05 0.0235316 -0.999723 
6.67365e-05 0.0182642 -0.999833 
6.54223e-05 0.0141119 -0.9999 
6.82931e-05 0.0105705 -0.999944 
6.63278e-05 0.00759434 -0.999971 
6.83818e-05 0.00503409 -0.999987 
6.74134e-05 0.0027534 -0.999996 
6.78138e-05 0.000625726 -1 
6.802e-05 -0.00144081 -0.999999 
6.77668e-05 -0.00351309 -0.999994 
6.77938e-05 -0.00561454 -0.999984 
6.79918e-05 -0.00773855 -0.99997 
6.72805e-05 -0.00987061 -0.999951 
6.7648e-05 -0.0119991 -0.999928 
6.82182e-05 -0.0141681 -0.9999 
6.60304e-05 -0.0163681 -0.999866 
6.84146e-05 -0.0182196 -0.999834 
7.32419e-05 -0.0188283 -0.999823 
4.78298e-05 -0.0183154 -0.999832 
0.000129091 -0.0158035 -0.999875 
-5.48657e-05 -0.00149405 -0.999999 
-0.000119095 0.000189073 1 
0.00518281 -0.00873821 0.999948 
0.0073293 -0.0148574 0.999863 
0.00805104 -0.016445 0.999832 
0.00839681 -0.0163906 0.99983 
0.00874099 -0.0151747 0.999847 
0.0088899 -0.0132313 0.999873 
0.00903542 -0.0111124 0.999897 
0.00917981 -0.00900418 0.999917 
0.00926814 -0.00688743 0.999933 
0.00934124 -0.00478801 0.999945 
0.00939227 -0.00269758 0.999952 
0.00944989 -0.000608034 0.999955 
0.0094763 0.00150906 0.999954 
0.00948197 0.00373444 0.999948 
0.00948124 0.00616606 0.999936 
0.00945305 0.00891715 0.999916 
0.0093489 0.012112 0.999883 
0.0092174 0.0159487 0.99983 
0.00914108 0.0206635 0.999745 
0.00901726 0.0264277 0.99961 
0.00880121 0.0334039 0.999403 
0.00855778 0.0422061 0.999072 
0.00815598 0.052854 0.998569 
0.00778104 0.0665765 0.997751 
0.007365 0.0833468 0.996493 
0.00683701 0.104217 0.994531 
0.00616605 0.129821 0.991518 
0.00545484 0.162444 0.986703 
0.00460073 0.201954 0.979384 
0.00374091 0.252618 0.967559 
0.00272318 0.31133 0.950298 
0.0016924 0.384608 0.923078 
0.000669499 0.468839 0.883283 
-0.000243625 0.567844 0.823136 
-0.00094376 0.674546 0.738232 
-0.00131554 0.787446 0.616382 
-0.001288 0.888299 0.459263 
-0.000908911 0.960803 0.27723 
-0.00018443 0.998116 0.0613544 
0.00058046 0.988392 -0.151926 
0.00117811 0.931989 -0.362486 
0.00142651 0.845668 -0.533708 
0.00125895 0.739336 -0.673335 
0.000718568 0.629627 -0.776897 
-7.08352e-05 0.527181 -0.849753 
-0.00104048 0.434367 -0.900736 
-0.00208767 0.353747 -0.935339 
-0.003117 0.286397 -0.958106 
-0.00407141 0.230618 -0.973036 
-0.00495994 0.185451 -0.982641 
-0.00575356 0.148777 -0.988854 
-0.00644982 0.119011 -0.992872 
-0.00709032 0.0954756 -0.995407 
-0.00749452 0.0764095 -0.997048 
-0.00789225 0.0608768 -0.998114 
-0.00824013 0.0481975 -0.998804 
-0.00848513 0.0382531 -0.999232 
-0.00879764 0.0301879 -0.999506 
-0.00903934 0.0237158 -0.999678 
-0.00923727 0.0184777 -0.999787 
-0.00928287 0.0141847 -0.999856 
-0.00940255 0.0106213 -0.999899 
-0.00948822 0.00763042 -0.999926 
-0.00947093 0.00500249 -0.999943 
-0.00955191 0.00269813 -0.999951 
-0.0096035 0.000563584 -0.999954 
-0.00956207 -0.00149228 -0.999953 
-0.0095142 -0.00356305 -0.999948 
-0.00945204 -0.00565705 -0.999939 
-0.00941876 -0.0077601 -0.999926 
-0.00934931 -0.00986919 -0.999908 
-0.00917082 -0.0120245 -0.999886 
-0.00900305 -0.0141675 -0.999859 
-0.00884793 -0.0161734 -0.99983 
-0.00858899 -0.0176042 -0.999808 
-0.00801786 -0.0181694 -0.999803 
-0.006993 -0.0172364 -0.999827 
-0.00479952 -0.0123374 -0.999912 
0.000236085 9.58085e-05 -1 
0.00287939 -0.00715165 0.99997 
0.00860051 -0.0137576 0.999868 
0.0105946 -0.0162853 0.999811 
0.0114836 -0.0163152 0.999801 
0.0122015 -0.0158234 0.9998 
0.0126118 -0.0143257 0.999818 
0.012883 -0.0122918 0.999841 
0.0131587 -0.0102057 0.999861 
0.0133224 -0.00811133 0.999878 
0.0134638 -0.00604249 0.999891 
0.013558 -0.0039964 0.9999 
0.0136469 -0.00195384 0.999905 
0.0137245 0.000113253 0.999906 
0.0137422 0.00224778 0.999903 
0.0137301 0.00452457 0.999896 
0.0136954 0.00704077 0.999881 
0.013635 0.00989884 0.999858 
0.0134816 0.0132429 0.999821 
0.0132675 0.0172806 0.999763 
0.0130745 0.0222599 0.999667 
0.0128596 0.0282369 0.999519 
0.0124326 0.035697 0.999285 
0.0121012 0.0448688 0.99892 
0.0114595 0.0563899 0.998343 
0.0109544 0.0705963 0.997445 
0.0102553 0.0882669 0.996044 
0.00947957 0.110015 0.993885 
0.00848804 0.137061 0.990526 
0.00749247 0.170885 0.985262 
0.00624449 0.212544 0.977132 
0.00505158 0.264285 0.964431 
0.0036824 0.325317 0.945598 
0.00238751 0.398812 0.917029 
0.00108191 0.485769 0.874087 
-9.40282e-06 0.584472 0.811414 
-0.000884038 0.695262 0.718756 
-0.0012708 0.804527 0.593915 
-0.00116993 0.897162 0.441701 
-0.000776585 0.968827 0.247738 
-9.38517e-05 0.999213 0.0396742 
0.0007197 0.982616 -0.185649 
0.00123119 0.923808 -0.382855 
0.00142302 0.833769 -0.552112 
0.00112312 0.728289 -0.68527 
0.000408449 0.622032 -0.782992 
-0.000609643 0.520171 -0.854062 
-0.00185647 0.428014 -0.90377 
-0.00321032 0.3494 -0.936968 
-0.00456612 0.283303 -0.95902 
-0.00586507 0.22867 -0.973486 
-0.00707666 0.184359 -0.982833 
-0.00816591 0.148052 -0.988946 
-0.00915375 0.119216 -0.992826 
-0.0100586 0.095861 -0.995344 
-0.0106979 0.0767053 -0.996996 
-0.0112673 0.0610886 -0.998069 
-0.0119102 0.0488198 -0.998737 
-0.0122165 0.038642 -0.999178 
-0.0126661 0.0304758 -0.999455 
-0.0130086 0.0240146 -0.999627 
-0.0132585 0.0186968 -0.999737 
-0.0133723 0.0142518 -0.999809 
-0.0136107 0.0107062 -0.99985 
-0.0136525 0.00761154 -0.999878 
-0.0137707 0.00501737 -0.999893 
-0.0138589 0.00271256 -0.9999 
-0.0139018 0.000576058 -0.999903 
-0.0139735 -0.00144206 -0.999901 
-0.0137819 -0.00343699 -0.999899 
-0.0136899 -0.00546587 -0.999891 
-0.0135707 -0.00755957 -0.999879 
-0.0134866 -0.00964574 -0.999863 
-0.0131381 -0.0117791 -0.999844 
-0.0128679 -0.0138998 -0.999821 
-0.0124626 -0.0158438 -0.999797 
-0.01188 -0.0171181 -0.999783 
-0.0109449 -0.0177109 -0.999783 
-0.00925885 -0.0171454 -0.99981 
-0.00565181 -0.0119651 -0.999912 
-0.000442405 -0.000117503 -1 
-0.000311114 -7.46084e-05 1 
0.00604649 -0.0110273 0.999921 
0.00967517 -0.0162243 0.999822 
0.0112025 -0.016454 0.999802 
0.0121853 -0.0162265 0.999794 
0.0129081 -0.0152321 0.999801 
0.0133723 -0.0133234 0.999822 
0.0136908 -0.0112224 0.999843 
0.0139446 -0.00908978 0.999861 
0.0141336 -0.00700153 0.999876 
0.0142877 -0.00494959 0.999886 
0.0144054 -0.00291882 0.999892 
0.0144869 -0.000860043 0.999895 
0.0145335 0.00127112 0.999894 
0.0145418 0.00350717 0.999888 
0.0145052 0.00594463 0.999877 
0.0144196 0.00868854 0.999858 
0.0142895 0.0118712 0.999827 
0.0141163 0.0156199 0.999778 
0.013883 0.0201916 0.9997 
0.0135674 0.0258525 0.999574 
0.01319 0.0329318 0.999371 
0.0127463 0.0414759 0.999058 
0.0122091 0.0526093 0.998541 
0.0115894 0.0656987 0.997772 
0.0108563 0.0824451 0.996536 
0.0100172 0.103087 0.994622 
0.00907389 0.128875 0.991619 
0.00805681 0.159732 0.987128 
0.00687261 0.200131 0.979745 
0.00567991 0.246694 0.969077 
0.00431206 0.31037 0.950606 
0.00312564 0.378318 0.92567 
0.0019261 0.465184 0.885212 
0.000938102 0.561261 0.827638 
5.13934e-05 0.672262 0.740313 
-0.000376114 0.784045 0.620704 
-0.000310037 0.882993 0.469386 
-0.000332428 0.960362 0.278755 
-2.09749e-05 0.997731 0.0673284 
0.000368187 0.988131 -0.153612 
0.000566168 0.93371 -0.358029 
0.000609166 0.841439 -0.540351 
0.000292601 0.736737 -0.676179 
-0.000369251 0.627792 -0.778381 
-0.00120037 0.526022 -0.85047 
-0.00225724 0.434274 -0.900778 
-0.00348447 0.354402 -0.935087 
-0.0047527 0.287707 -0.957707 
-0.00601473 0.232494 -0.972579 
-0.00722216 0.187555 -0.982228 
-0.00835646 0.151228 -0.988464 
-0.00933264 0.121303 -0.992572 
-0.0102233 0.097431 -0.99519 
-0.0110604 0.0781813 -0.996878 
-0.0117872 0.0625586 -0.997972 
-0.0123448 0.0497345 -0.998686 
-0.0128875 0.0395054 -0.999136 
-0.0133198 0.031332 -0.99942 
-0.0136415 0.0246261 -0.999604 
-0.0139228 0.0191769 -0.999719 
-0.0141995 0.0147371 -0.999791 
-0.0143456 0.0109898 -0.999837 
-0.0145385 0.00790636 -0.999863 
-0.0146149 0.00520101 -0.99988 
-0.0146453 0.00283504 -0.999889 
-0.0146805 0.000676509 -0.999892 
-0.0146686 -0.00139687 -0.999891 
-0.0146097 -0.00339444 -0.999888 
-0.0145105 -0.00538035 -0.99988 
-0.0143534 -0.00739431 -0.99987 
-0.0141306 -0.00952841 -0.999855 
-0.0138389 -0.0116568 -0.999836 
-0.0134339 -0.0137646 -0.999815 
-0.0128546 -0.0156606 -0.999795 
-0.0120519 -0.0168959 -0.999785 
-0.0109224 -0.0175116 -0.999787 
-0.00938493 -0.0170992 -0.99981 
-0.00645948 -0.012152 -0.999905 
1.62669e-05 -0.000146013 -1 
0.00324643 -0.00879925 0.999956 
0.00755804 -0.0138853 0.999875 
0.00998639 -0.01686 0.999808 
0.0112148 -0.0165888 0.9998 
0.0121666 -0.0160001 0.999798 
0.0128008 -0.014413 0.999814 
0.0132193 -0.0123477 0.999836 
0.0135491 -0.0101999 0.999856 
0.0137966 -0.0080829 0.999872 
0.0140035 -0.00602163 0.999884 
0.014167 -0.00401811 0.999892 
0.0142867 -0.00200036 0.999896 
0.0143665 9.30749e-05 0.999897 
0.0144025 0.00227778 0.999894 
0.0143959 0.00460335 0.999886 
0.0143378 0.0071665 0.999872 
0.0142291 0.0101089 0.999848 
0.0140715 0.0135311 0.999809 
0.0138684 0.0175887 0.999749 
0.0135879 0.0224817 0.999655 
0.0132203 0.0289384 0.999494 
0.0127906 0.0365207 0.999251 
0.0123026 0.0464679 0.998844 
0.0117065 0.0580389 0.998246 
0.0110487 0.072542 0.997304 
0.0102788 0.0905875 0.995835 
0.00940799 0.113341 0.993512 
0.00847693 0.140285 0.990075 
0.00746042 0.174443 0.984639 
0.00639679 0.214616 0.976678 
0.00524142 0.267719 0.963483 
0.00414941 0.328264 0.944577 
0.00309557 0.403784 0.914849 
0.0022191 0.49052 0.871427 
0.00138629 0.595734 0.80318 
0.000814085 0.702494 0.71169 
0.000548021 0.806023 0.591884 
0.000573292 0.89636 0.443327 
0.000219203 0.960546 0.278121 
0.000121258 0.996929 0.0783052 
6.07292e-05 0.990254 -0.139274 
-0.000133983 0.939149 -0.343509 
-0.000240441 0.854749 -0.519041 
-0.0006454 0.744113 -0.668053 
-0.00116039 0.636604 -0.77119 
-0.00183391 0.530913 -0.847424 
-0.00267361 0.43829 -0.89883 
-0.00367777 0.358622 -0.933476 
-0.00478612 0.290635 -0.956822 
-0.00591884 0.234892 -0.972004 
-0.00703632 0.189195 -0.981914 
-0.00810627 0.152208 -0.988315 
-0.00905656 0.122373 -0.992443 
-0.00997577 0.0985597 -0.995081 
-0.0107813 0.0790906 -0.996809 
-0.0115119 0.0631559 -0.997937 
-0.0120916 0.050393 -0.998656 
-0.0126719 0.0400109 -0.999119 
-0.0130881 0.0316589 -0.999413 
-0.0134569 0.0248965 -0.999599 
-0.0137794 0.019284 -0.999719 
-0.014056 0.0147517 -0.999792 
-0.0142071 0.0110686 -0.999838 
-0.0143875 0.00796885 -0.999865 
-0.0145047 0.00531145 -0.999881 
-0.0145742 0.00300317 -0.999889 
-0.0145798 0.00082469 -0.999893 
-0.0145323 -0.00126203 -0.999894 
-0.0144851 -0.0033121 -0.99989 
-0.0143607 -0.00529479 -0.999883 
-0.0141886 -0.0072903 -0.999873 
-0.0139309 -0.00934945 -0.999859 
-0.0136179 -0.0115613 -0.99984 
-0.0131746 -0.0136767 -0.99982 
-0.0125134 -0.0155443 -0.999801 
-0.0116991 -0.0169379 -0.999788 
-0.0104917 -0.0174014 -0.999794 
-0.00881593 -0.0169653 -0.999817 
-0.00617404 -0.0121709 -0.999907 
-9.9876e-05 -0.00013743 -1 
-0.000157107 5.20329e-05 1 
0.00554475 -0.0118825 0.999914 
0.00851278 -0.0165407 0.999827 
0.00992292 -0.01699 0.999806 
0.0110795 -0.0166033 0.999801 
0.0118622 -0.0153974 0.999811 
0.0123414 -0.0134548 0.999833 
0.0127092 -0.0112492 0.999856 
0.012976 -0.00905595 0.999875 
0.0132258 -0.00690855 0.999889 
0.013425 -0.00486708 0.999898 
0.0135556 -0.00283075 0.999904 
0.0136469 -0.000713859 0.999907 
0.0136892 0.00149744 0.999905 
0.0136892 0.00384394 0.999899 
0.0136384 0.00638572 0.999887 
0.0135409 0.00926909 0.999865 
0.0133764 0.0126472 0.999831 
0.0131925 0.0166531 0.999774 
0.0129356 0.0213745 0.999688 
0.0126909 0.0272598 0.999548 
0.0121481 0.0349907 0.999314 
0.0118233 0.0445273 0.998938 
0.0111015 0.0562714 0.998354 
0.0105101 0.070474 0.997458 
0.00979217 0.087994 0.996073 
0.00900475 0.109948 0.993897 
0.00807284 0.137397 0.990483 
0.00723543 0.170522 0.985327 
0.00621302 0.210035 0.977674 
0.00533759 0.259081 0.965841 
0.00440001 0.318716 0.94784 
0.00354948 0.391341 0.920239 
0.00284693 0.476136 0.879367 
0.00217262 0.577379 0.816473 
0.00173677 0.690722 0.723118 
0.00150454 0.798279 0.602286 
0.00147322 0.894909 0.446246 
0.000767702 0.964867 0.262736 
0.000220397 0.998176 0.0603699 
-0.00025249 0.990226 -0.139474 
-0.000904561 0.941538 -0.336907 
-0.00119752 0.859847 -0.510551 
-0.00149822 0.761189 -0.648528 
-0.00201547 0.64475 -0.764391 
-0.00242883 0.541491 -0.840703 
-0.00306614 0.444565 -0.895741 
-0.003844 0.363491 -0.93159 
-0.00472508 0.295665 -0.95528 
-0.00568497 0.238702 -0.971076 
-0.00664513 0.192513 -0.981272 
-0.00758995 0.154547 -0.987956 
-0.00850331 0.124384 -0.992198 
-0.00932099 0.0995843 -0.994985 
-0.0101119 0.0797192 -0.996766 
-0.0108351 0.0640192 -0.99789 
-0.0114488 0.0507476 -0.998646 
-0.012068 0.0400171 -0.999126 
-0.0124073 0.03153 -0.999426 
-0.0128358 0.0245807 -0.999615 
-0.0131069 0.0193684 -0.999727 
-0.0134151 0.0150131 -0.999797 
-0.0134626 0.0114831 -0.999843 
-0.0137557 0.00838369 -0.99987 
-0.0138079 0.00567273 -0.999889 
-0.0137767 0.00322068 -0.9999 
-0.0138063 0.00101325 -0.999904 
-0.0137434 -0.00111451 -0.999905 
-0.0137666 -0.00319025 -0.9999 
-0.0136495 -0.00520503 -0.999893 
-0.013464 -0.00722387 -0.999883 
-0.0131955 -0.00929725 -0.99987 
-0.0129429 -0.01144 -0.999851 
-0.0124303 -0.013619 -0.99983 
-0.0118756 -0.0156508 -0.999807 
-0.0110746 -0.0169437 -0.999795 
-0.0100112 -0.0174383 -0.999798 
-0.00836468 -0.0169941 -0.999821 
-0.00594507 -0.0122075 -0.999908 
-0.000132099 -0.000135901 -1 
0.000138757 -0.000302925 1 
0.00525644 -0.0119773 0.999914 
0.00784103 -0.0167389 0.999829 
0.0088862 -0.0170698 0.999815 
0.0100695 -0.0166249 0.999811 
0.0106359 -0.0152856 0.999827 
0.0110942 -0.013197 0.999851 
0.0113937 -0.0109748 0.999875 
0.0116669 -0.00871161 0.999894 
0.0118988 -0.0065778 0.999908 
0.0120766 -0.00454323 0.999917 
0.0121968 -0.00246181 0.999923 
0.0122706 -0.000293058 0.999925 
0.0123009 0.00198713 0.999922 
0.0122742 0.00439689 0.999915 
0.0122181 0.00704933 0.999901 
0.0121146 0.0100674 0.999876 
0.0119423 0.0136281 0.999836 
0.0117204 0.0177196 0.999774 
0.0115342 0.0228265 0.999673 
0.0113813 0.029144 0.99951 
0.0106873 0.0364301 0.999279 
0.010641 0.0446913 0.998944 
0.00991309 0.0553309 0.998419 
0.00942902 0.0688483 0.997583 
0.00879168 0.0859066 0.996264 
0.00812256 0.107097 0.994215 
0.00730936 0.133275 0.991052 
0.00656941 0.167522 0.985846 
0.00570843 0.209831 0.977721 
0.00495345 0.262047 0.965042 
0.00420404 0.327761 0.944751 
0.00367411 0.4005 0.916289 
0.00321685 0.49477 0.869018 
0.00281019 0.598773 0.800914 
0.00267017 0.70659 0.707618 
0.00256574 0.814062 0.580772 
0.00255002 0.907151 0.420798 
0.00140763 0.967597 0.252496 
0.000257807 0.999288 0.0377337 
-0.00077238 0.98748 -0.157745 
-0.00199081 0.925258 -0.379333 
-0.00246441 0.844061 -0.536241 
-0.00262639 0.735679 -0.677325 
-0.00298521 0.621744 -0.783215 
-0.0031503 0.516346 -0.856374 
-0.00353107 0.424317 -0.905507 
-0.00405199 0.346126 -0.938179 
-0.00470612 0.281146 -0.959654 
-0.00542606 0.227767 -0.973701 
-0.00620256 0.183574 -0.982986 
-0.0069731 0.148165 -0.988938 
-0.00770027 0.119113 -0.992851 
-0.0084042 0.095421 -0.995402 
-0.00905442 0.0771101 -0.996981 
-0.00985473 0.0617789 -0.998041 
-0.0101617 0.0499456 -0.9987 
-0.0108804 0.0404188 -0.999124 
-0.0110369 0.0325423 -0.999409 
-0.0115212 0.0257632 -0.999602 
-0.011641 0.0199624 -0.999733 
-0.0119531 0.0154067 -0.99981 
-0.0120323 0.0116261 -0.99986 
-0.0123062 0.00840605 -0.999889 
-0.0123962 0.00563163 -0.999907 
-0.0122728 0.00322282 -0.999919 
-0.0123496 0.000940634 -0.999923 
-0.0123242 -0.00125554 -0.999923 
-0.0123104 -0.00333506 -0.999919 
-0.0122396 -0.00539256 -0.999911 
-0.0120289 -0.00738054 -0.9999 
-0.0117552 -0.00949639 -0.999886 
-0.0115767 -0.0116724 -0.999865 
-0.0110727 -0.0138616 -0.999843 
-0.0105187 -0.015803 -0.99982 
-0.00982366 -0.0171009 -0.999806 
-0.0089283 -0.0175192 -0.999807 
-0.00746177 -0.0170132 -0.999827 
-0.00540804 -0.0122016 -0.999911 
-0.000100393 -0.000135854 -1 
5.42524e-05 -5.88792e-05 1 
0.00451084 -0.0120823 0.999917 
0.00668461 -0.016718 0.999838 
0.00744389 -0.0173221 0.999822 
0.00854428 -0.0169057 0.999821 
0.00903575 -0.0156309 0.999837 
0.00947022 -0.0136249 0.999862 
0.00974128 -0.0114069 0.999887 
0.0100354 -0.00916793 0.999908 
0.0102463 -0.00698881 0.999923 
0.0104079 -0.00492961 0.999934 
0.0105403 -0.00285788 0.99994 
0.0106135 -0.000682133 0.999943 
0.0106555 0.00159706 0.999942 
0.0106245 0.00402155 0.999935 
0.0105818 0.00665906 0.999922 
0.0104953 0.00964113 0.999898 
0.0103639 0.0131123 0.99986 
0.0100856 0.0172723 0.9998 
0.00998782 0.0221187 0.999705 
0.00985805 0.0282218 0.999553 
0.00925574 0.0358424 0.999315 
0.00901984 0.0454243 0.998927 
0.00841337 0.0572578 0.998324 
0.00801206 0.0714507 0.997412 
0.00748169 0.0893065 0.995976 
0.00690012 0.110995 0.993797 
0.0061941 0.136938 0.99056 
0.0057864 0.166893 0.985958 
0.00510213 0.204234 0.978909 
0.00467811 0.250474 0.968112 
0.00416748 0.308063 0.951357 
0.00380692 0.390476 0.920605 
0.00366577 0.474316 0.880347 
0.00361246 0.58302 0.81245 
0.00372596 0.693162 0.720772 
0.00379698 0.805492 0.592594 
0.00353387 0.919399 0.393309 
0.00169282 0.983808 0.179218 
-0.000527971 0.998573 -0.0534042 
-0.00191259 0.969017 -0.246986 
-0.0032979 0.957438 -0.28862 
-0.00364082 0.888336 -0.45918 
-0.00374712 0.789118 -0.614231 
-0.00379143 0.678193 -0.734874 
-0.00370227 0.552807 -0.833301 
-0.00369401 0.454248 -0.890868 
-0.00387827 0.368464 -0.929634 
-0.00424305 0.297005 -0.954867 
-0.00472137 0.24018 -0.970717 
-0.00530241 0.193286 -0.981128 
-0.00590511 0.155208 -0.987864 
-0.00650465 0.125043 -0.99213 
-0.00710667 0.100008 -0.994961 
-0.00761965 0.0800076 -0.996765 
-0.00832869 0.0642911 -0.997896 
-0.00871081 0.0511842 -0.998651 
-0.00931821 0.0404117 -0.99914 
-0.00948818 0.0319206 -0.999445 
-0.0100473 0.0251635 -0.999633 
-0.0100273 0.0196117 -0.999757 
-0.01038 0.0151376 -0.999832 
-0.0103489 0.0113454 -0.999882 
-0.0106829 0.0081674 -0.99991 
-0.0106682 0.0054836 -0.999928 
-0.0105981 0.00294825 -0.999939 
-0.0106849 0.000625008 -0.999943 
-0.0106394 -0.00159443 -0.999942 
-0.0106864 -0.0037196 -0.999936 
-0.0105426 -0.0057093 -0.999928 
-0.0103582 -0.0077231 -0.999917 