# vtk DataFile Version 3.0 
Exported using Morpho https://github.com/Morpho-lang/morpho 
ASCII 
DATASET UNSTRUCTURED_GRID 

POINTS 2161 float 
-8.32618 -2.88146 0 
-8.11405 -2.88146 0 
-7.90192 -2.88146 0 
-7.68979 -2.88146 0 
-7.47765 -2.88146 0 
-7.26552 -2.88146 0 
-7.05339 -2.88146 0 
-6.84126 -2.88146 0 
-6.62913 -2.88146 0 
-6.41699 -2.88146 0 
-6.20486 -2.88146 0 
-5.99273 -2.88146 0 
-5.7806 -2.88146 0 
-5.56847 -2.88146 0 
-5.35633 -2.88146 0 
-5.1442 -2.88146 0 
-4.93207 -2.88146 0 
-4.71994 -2.88146 0 
-4.50781 -2.88146 0 
-4.29567 -2.88146 0 
-4.08354 -2.88146 0 
-3.87141 -2.88146 0 
-3.65928 -2.88146 0 
-3.44715 -2.88146 0 
-3.23501 -2.88146 0 
-3.02288 -2.88146 0 
-2.81075 -2.88146 0 
-2.59862 -2.88146 0 
-2.38649 -2.88146 0 
-2.17435 -2.88146 0 
-1.96222 -2.88146 0 
-1.75009 -2.88146 0 
-1.53796 -2.88146 0 
-1.32583 -2.88146 0 
-1.11369 -2.88146 0 
-0.901561 -2.88146 0 
-0.689429 -2.88146 0 
-0.477297 -2.88146 0 
-0.265165 -2.88146 0 
-0.053033 -2.88146 0 
0.159099 -2.88146 0 
0.371231 -2.88146 0 
0.583363 -2.88146 0 
0.795495 -2.88146 0 
1.00763 -2.88146 0 
1.21976 -2.88146 0 
1.43189 -2.88146 0 
1.64402 -2.88146 0 
1.85616 -2.88146 0 
2.06829 -2.88146 0 
2.28042 -2.88146 0 
2.49255 -2.88146 0 
2.70468 -2.88146 0 
2.91682 -2.88146 0 
3.12895 -2.88146 0 
3.34108 -2.88146 0 
3.55321 -2.88146 0 
3.76534 -2.88146 0 
3.97748 -2.88146 0 
4.18961 -2.88146 0 
4.40174 -2.88146 0 
4.61387 -2.88146 0 
4.826 -2.88146 0 
5.03814 -2.88146 0 
5.25027 -2.88146 0 
5.4624 -2.88146 0 
5.67453 -2.88146 0 
5.88666 -2.88146 0 
6.0988 -2.88146 0 
6.31093 -2.88146 0 
6.52306 -2.88146 0 
6.73519 -2.88146 0 
6.94732 -2.88146 0 
7.15946 -2.88146 0 
7.37159 -2.88146 0 
7.58372 -2.88146 0 
7.79585 -2.88146 0 
8.00798 -2.88146 0 
8.22012 -2.88146 0 
8.53831 -2.88146 0 
-8.53831 -2.7231 0 
-8.30194 -2.66334 0 
-8.07795 -2.66118 0 
-7.85232 -2.66461 0 
-7.62277 -2.66778 0 
-7.39969 -2.66932 0 
-7.17035 -2.67153 0 
-6.93941 -2.6732 0 
-6.71785 -2.6695 0 
-6.49633 -2.66805 0 
-6.27694 -2.6701 0 
-6.05548 -2.66962 0 
-5.83672 -2.67162 0 
-5.61634 -2.6709 0 
-5.39913 -2.67282 0 
-5.17934 -2.67383 0 
-4.95964 -2.66932 0 
-4.7465 -2.67219 0 
-4.52841 -2.6696 0 
-4.3155 -2.67334 0 
-4.09722 -2.66969 0 
-3.88476 -2.67129 0 
-3.66897 -2.66883 0 
-3.45618 -2.66928 0 
-3.24334 -2.6705 0 
-3.02984 -2.66939 0 
-2.81779 -2.67064 0 
-2.60317 -2.67215 0 
-2.38933 -2.67413 0 
-2.17582 -2.6757 0 
-1.96348 -2.67068 0 
-1.7512 -2.67719 0 
-1.53823 -2.67022 0 
-1.32594 -2.66726 0 
-1.12456 -2.64995 0 
-0.920663 -2.66427 0 
-0.709035 -2.66401 0 
-0.485675 -2.64297 0 
-0.276886 -2.65614 0 
-0.063279 -2.65044 0 
0.150559 -2.64062 0 
0.357668 -2.65022 0 
0.569447 -2.65315 0 
0.782128 -2.66506 0 
0.997144 -2.66366 0 
1.21312 -2.66793 0 
1.43085 -2.6638 0 
1.6439 -2.67217 0 
1.85785 -2.66705 0 
2.06812 -2.66654 0 
2.2884 -2.67313 0 
2.49563 -2.66646 0 
2.70598 -2.67113 0 
2.91806 -2.66945 0 
3.12719 -2.67015 0 
3.33978 -2.66992 0 
3.55029 -2.67359 0 
3.76483 -2.67156 0 
3.97999 -2.67318 0 
4.19722 -2.67735 0 
4.41256 -2.67347 0 
4.62982 -2.67714 0 
4.83716 -2.66766 0 
5.05065 -2.67186 0 
5.26466 -2.67242 0 
5.47437 -2.66924 0 
5.68696 -2.67106 0 
5.89891 -2.67094 0 
6.113 -2.67327 0 
6.3248 -2.67119 0 
6.54026 -2.67365 0 
6.75132 -2.66863 0 
6.96415 -2.66759 0 
7.17728 -2.66562 0 
7.3932 -2.6654 0 
7.60673 -2.65786 0 
7.82044 -2.6554 0 
8.03503 -2.64722 0 
8.2928 -2.70912 0 
8.53831 -2.66933 0 
-8.43106 -2.4842 0 
-8.19441 -2.44321 0 
-7.97138 -2.44726 0 
-7.74358 -2.45952 0 
-7.52015 -2.45264 0 
-7.29624 -2.46719 0 
-7.05976 -2.4734 0 
-6.83807 -2.45842 0 
-6.62154 -2.45792 0 
-6.40503 -2.45507 0 
-6.18982 -2.46068 0 
-5.97421 -2.45802 0 
-5.75999 -2.46312 0 
-5.5469 -2.4596 0 
-5.33248 -2.46623 0 
-5.11903 -2.46566 0 
-4.91024 -2.45406 0 
-4.69891 -2.46387 0 
-4.49 -2.45566 0 
-4.27741 -2.46647 0 
-4.06979 -2.45507 0 
-3.85824 -2.46168 0 
-3.64973 -2.45462 0 
-3.4398 -2.45671 0 
-3.23194 -2.4577 0 
-3.02425 -2.45512 0 
-2.81298 -2.45864 0 
-2.59891 -2.46359 0 
-2.38577 -2.46616 0 
-2.17252 -2.46798 0 
-1.95622 -2.46034 0 
-1.74165 -2.47009 0 
-1.52669 -2.45581 0 
-1.32165 -2.44089 0 
-1.10979 -2.42652 0 
-0.897653 -2.4405 0 
-0.674291 -2.4498 0 
-0.468731 -2.39376 0 
-0.268831 -2.42892 0 
-0.0543168 -2.42019 0 
0.163046 -2.40313 0 
0.368918 -2.40525 0 
0.564947 -2.4239 0 
0.781965 -2.44614 0 
1.00854 -2.45122 0 
1.23495 -2.46136 0 
1.44756 -2.44196 0 
1.66255 -2.46081 0 
1.87374 -2.44737 0 
2.09978 -2.4651 0 
2.30482 -2.4534 0 
2.51966 -2.45512 0 
2.73215 -2.46084 0 
2.93697 -2.45315 0 
3.14897 -2.45907 0 
3.35928 -2.45713 0 
3.57137 -2.46573 0 
3.78834 -2.46554 0 
3.99492 -2.45593 0 
4.19809 -2.47398 0 
4.39778 -2.4529 0 
4.60355 -2.4736 0 
4.81724 -2.45225 0 
5.02731 -2.46178 0 
5.23954 -2.46448 0 
5.45344 -2.45537 0 
5.66298 -2.4606 0 
5.87507 -2.46041 0 
6.08788 -2.46569 0 
6.30144 -2.46134 0 
6.51554 -2.46755 0 
6.73097 -2.45624 0 
6.94438 -2.45465 0 
7.15917 -2.45107 0 
7.37572 -2.45229 0 
7.59467 -2.43862 0 
7.81524 -2.42822 0 
8.05519 -2.4413 0 
8.29374 -2.5012 0 
8.53831 -2.4572 0 
-8.53831 -2.26626 0 
-8.3152 -2.25656 0 
-8.07035 -2.23015 0 
-7.83456 -2.2477 0 
-7.60668 -2.24425 0 
-7.3683 -2.25355 0 
-7.13386 -2.28258 0 
-6.89407 -2.25342 0 
-6.6652 -2.24339 0 
-6.44787 -2.24281 0 
-6.22618 -2.24614 0 
-6.01062 -2.24677 0 
-5.79077 -2.25011 0 
-5.57711 -2.24769 0 
-5.36048 -2.25608 0 
-5.14508 -2.25522 0 
-4.93315 -2.24022 0 
-4.72016 -2.25116 0 
-4.50925 -2.24288 0 
-4.29593 -2.25596 0 
-4.08339 -2.24122 0 
-3.87284 -2.24999 0 
-3.65918 -2.24196 0 
-3.44773 -2.24321 0 
-3.23438 -2.24219 0 
-3.02629 -2.23897 0 
-2.8165 -2.24748 0 
-2.60173 -2.25627 0 
-2.38101 -2.25666 0 
-2.16172 -2.26282 0 
-1.94491 -2.24643 0 
-1.73124 -2.26136 0 
-1.52018 -2.23202 0 
-1.3059 -2.22094 0 
-1.08316 -2.20815 0 
-0.85997 -2.22909 0 
-0.650137 -2.21204 0 
-0.431242 -2.15551 0 
-0.224183 -2.1987 0 
0.00165785 -2.19463 0 
0.136319 -1.9595 0 
0.228171 -2.16606 0 
0.42697 -2.15273 0 
0.650099 -2.21853 0 
0.880933 -2.24664 0 
1.12503 -2.25326 0 
1.34087 -2.23236 0 
1.5832 -2.24491 0 
1.79637 -2.23522 0 
2.02998 -2.26098 0 
2.24733 -2.23551 0 
2.46176 -2.2485 0 
2.68454 -2.25052 0 
2.89594 -2.23474 0 
3.10412 -2.24777 0 
3.31858 -2.24499 0 
3.5331 -2.25324 0 
3.74434 -2.26197 0 
3.96207 -2.24363 0 
4.17703 -2.25459 0 
4.39489 -2.2461 0 
4.61238 -2.26203 0 
4.82602 -2.24027 0 
5.03792 -2.25022 0 
5.25056 -2.25488 0 
5.46117 -2.2416 0 
5.67304 -2.24982 0 
5.88131 -2.24601 0 
6.08981 -2.25705 0 
6.29839 -2.24766 0 
6.50837 -2.26016 0 
6.71849 -2.2432 0 
6.93086 -2.24308 0 
7.14728 -2.23793 0 
7.36553 -2.23904 0 
7.5852 -2.22306 0 
7.82078 -2.22304 0 
8.05985 -2.23367 0 
8.29808 -2.2851 0 
8.53831 -2.24506 0 
-8.42678 -2.03761 0 
-8.2039 -2.03881 0 
-7.95681 -2.03162 0 
-7.73626 -2.03177 0 
-7.50119 -2.04642 0 
-7.29068 -2.02014 0 
-7.10402 -2.0861 0 
-6.90997 -2.01747 0 
-6.70314 -2.04095 0 
-6.4706 -2.02623 0 
-6.25237 -2.03684 0 
-6.02883 -2.03116 0 
-5.81271 -2.04125 0 
-5.59265 -2.03261 0 
-5.37962 -2.04547 0 
-5.16412 -2.0449 0 
-4.95091 -2.02655 0 
-4.73869 -2.0393 0 
-4.5269 -2.02953 0 
-4.31397 -2.04591 0 
-4.1018 -2.02994 0 
-3.88668 -2.03747 0 
-3.6768 -2.03083 0 
-3.46144 -2.03269 0 
-3.24865 -2.03014 0 
-3.03443 -2.02247 0 
-2.82672 -2.02978 0 
-2.61624 -2.04822 0 
-2.39833 -2.05301 0 
-2.17347 -2.0562 0 
-1.95324 -2.03718 0 
-1.72893 -2.04666 0 
-1.51137 -2.01157 0 
-1.28533 -2.0106 0 
-1.05921 -1.99463 0 
-0.841731 -2.00169 0 
-0.623431 -1.98276 0 
-0.448434 -1.87179 0 
-0.0792013 -1.97769 0 
-0.104367 -1.72213 0 
0.0803723 -1.74473 0 
0.344687 -1.89616 0 
0.566359 -1.97623 0 
0.778776 -2.02138 0 
1.00027 -2.05402 0 
1.20994 -2.01664 0 
1.44717 -2.0435 0 
1.65632 -2.01632 0 
1.88869 -2.04626 0 
2.09406 -2.0391 0 
2.31468 -2.02505 0 
2.52903 -2.04574 0 
2.73449 -2.0308 0 
2.94197 -2.01776 0 
3.14928 -2.03656 0 
3.36371 -2.03572 0 
3.56992 -2.03954 0 
3.78135 -2.0535 0 
3.98742 -2.02369 0 
4.18992 -2.0485 0 
4.39384 -2.02541 0 
4.60046 -2.05463 0 
4.81223 -2.02806 0 
5.02611 -2.0386 0 
5.23944 -2.04337 0 
5.45032 -2.02848 0 
5.66171 -2.03785 0 
5.87289 -2.03117 0 
6.08192 -2.04326 0 
6.29101 -2.03381 0 
6.50135 -2.04755 0 
6.71226 -2.03014 0 
6.92469 -2.02995 0 
7.1388 -2.02652 0 
7.35917 -2.02594 0 
7.59311 -2.01912 0 
7.83115 -2.0181 0 
8.06755 -2.02346 0 
8.30196 -2.06915 0 
8.53831 -2.03293 0 
-8.53831 -1.82836 0 
-8.30265 -1.81893 0 
-8.05959 -1.84083 0 
-7.81252 -1.81473 0 
-7.57183 -1.84356 0 
-7.34165 -1.80014 0 
-7.10783 -1.84152 0 
-6.88535 -1.79325 0 
-6.66363 -1.83439 0 
-6.44157 -1.81026 0 
-6.22178 -1.82644 0 
-6.00371 -1.81642 0 
-5.78743 -1.83018 0 
-5.57303 -1.8177 0 
-5.3599 -1.83374 0 
-5.14811 -1.8303 0 
-4.9379 -1.80878 0 
-4.73052 -1.82637 0 
-4.52331 -1.81057 0 
-4.31781 -1.83465 0 
-4.10924 -1.81431 0 
-3.90007 -1.82696 0 
-3.68546 -1.8176 0 
-3.47582 -1.82174 0 
-3.26221 -1.81973 0 
-3.05025 -1.80987 0 
-2.8375 -1.81075 0 
-2.63119 -1.83024 0 
-2.42374 -1.84479 0 
-2.20581 -1.85287 0 
-1.98814 -1.83022 0 
-1.75864 -1.83862 0 
-1.52829 -1.80708 0 
-1.29105 -1.80003 0 
-1.05495 -1.78026 0 
-0.818415 -1.78492 0 
-0.608968 -1.72333 0 
-0.28218 -1.6846 0 
-0.271884 -1.95233 0 
-0.0455466 -1.47316 0 
0.110777 -1.4556 0 
0.255138 -1.66346 0 
0.51518 -1.75011 0 
0.744704 -1.78886 0 
0.963048 -1.83379 0 
1.15933 -1.78008 0 
1.37868 -1.84155 0 
1.60215 -1.79663 0 
1.83107 -1.8429 0 
2.05497 -1.81483 0 
2.26161 -1.82423 0 
2.49365 -1.83306 0 
2.70339 -1.81415 0 
2.91018 -1.80289 0 
3.12253 -1.81818 0 
3.33017 -1.8279 0 
3.54727 -1.81968 0 
3.75289 -1.84028 0 
3.96697 -1.81557 0 
4.18478 -1.82842 0 
4.40047 -1.81382 0 
4.61357 -1.83978 0 
4.82404 -1.81114 0 
5.03309 -1.82789 0 
5.24411 -1.82966 0 
5.45545 -1.81373 0 
5.66516 -1.82506 0 
5.87445 -1.81603 0 
6.08289 -1.82945 0 
6.29084 -1.81801 0 
6.49924 -1.83496 0 
6.70935 -1.81643 0 
6.9223 -1.81664 0 
7.13876 -1.81495 0 
7.35911 -1.81561 0 
7.58303 -1.81681 0 
7.82093 -1.81443 0 
8.06309 -1.81354 0 
8.30044 -1.85003 0 
8.53831 -1.8208 0 
-8.53831 -1.61345 0 
-8.30038 -1.60549 0 
[...]
POINT_DATA 2161 
VECTORS vectors float
-4.92638e-05 -0.00100649 0.999999 
4.81426e-05 -0.0135635 0.999908 
-0.00012625 -0.0168787 0.999858 
-6.69369e-05 -0.0172155 0.999852 
-8.11831e-05 -0.0160603 0.999871 
-7.64902e-05 -0.0142724 0.999898 
-7.83801e-05 -0.0124393 0.999923 
-7.78667e-05 -0.0106623 0.999943 
-7.79345e-05 -0.00886677 0.999961 
-7.81689e-05 -0.00702667 0.999975 
-7.8323e-05 -0.0051689 0.999987 
-7.7898e-05 -0.00331871 0.999994 
-7.85517e-05 -0.00149427 0.999999 
-7.80231e-05 0.000327011 1 
-7.79182e-05 0.0022078 0.999998 
-7.88338e-05 0.00422454 0.999991 
-7.66725e-05 0.00650353 0.999979 
-7.86111e-05 0.0091538 0.999958 
-7.59347e-05 0.0123266 0.999924 
-7.73924e-05 0.0161928 0.999869 
-7.47809e-05 0.0209788 0.99978 
-7.5045e-05 0.0269483 0.999637 
-7.31235e-05 0.0344401 0.999407 
-7.1388e-05 0.043874 0.999037 
-7.00292e-05 0.0557635 0.998444 
-6.59736e-05 0.0707772 0.997492 
-6.45574e-05 0.0897951 0.99596 
-5.72006e-05 0.113967 0.993485 
-5.7419e-05 0.144282 0.989537 
-4.36962e-05 0.182556 0.983196 
-4.02889e-05 0.229279 0.973361 
-3.20537e-05 0.289755 0.957101 
-1.66729e-05 0.361278 0.932458 
-5.71902e-06 0.447513 0.894277 
6.17023e-06 0.547627 0.836723 
1.23962e-05 0.66093 0.750448 
2.67051e-05 0.77611 0.630597 
1.64948e-05 0.881825 0.471576 
1.45432e-05 0.96117 0.275957 
3.40391e-06 0.998445 0.0557392 
-9.44895e-06 0.985456 -0.16993 
-1.59673e-05 0.925174 -0.379544 
-2.34787e-05 0.830706 -0.556711 
-1.49756e-05 0.718747 -0.695271 
-1.70073e-05 0.604029 -0.796962 
4.51101e-06 0.49768 -0.867361 
1.29154e-05 0.401793 -0.915731 
1.88705e-05 0.323981 -0.946064 
4.1194e-05 0.257866 -0.966181 
3.80085e-05 0.204484 -0.97887 
5.52363e-05 0.161713 -0.986838 
5.36708e-05 0.127488 -0.99184 
6.22432e-05 0.101046 -0.994882 
6.64991e-05 0.0793337 -0.996848 
6.69295e-05 0.0626035 -0.998038 
7.11061e-05 0.0493 -0.998784 
7.30556e-05 0.0387526 -0.999249 
7.30041e-05 0.030452 -0.999536 
7.60294e-05 0.0236892 -0.999719 
7.57353e-05 0.0183673 -0.999831 
7.62094e-05 0.0140591 -0.999901 
7.86349e-05 0.0105729 -0.999944 
7.61832e-05 0.00768922 -0.99997 
7.90245e-05 0.00523313 -0.999986 
7.81474e-05 0.00310597 -0.999995 
7.78101e-05 0.00116063 -0.999999 
7.89008e-05 -0.000688906 -1 
7.78444e-05 -0.00251845 -0.999997 
7.89158e-05 -0.00437463 -0.99999 
7.74449e-05 -0.00627154 -0.99998 
7.90567e-05 -0.00818074 -0.999967 
7.75143e-05 -0.01007 -0.999949 
7.79653e-05 -0.0119494 -0.999929 
7.897e-05 -0.0138756 -0.999904 
7.38375e-05 -0.0158736 -0.999874 
8.5853e-05 -0.0177712 -0.999842 
6.8943e-05 -0.0188441 -0.999822 
7.60965e-05 -0.0186143 -0.999827 
0.000117017 -0.0164047 -0.999865 
-2.05926e-05 -0.00152782 -0.999999 
5.79031e-05 0.000221051 1 
0.00576773 -0.00957778 0.999937 
0.00812556 -0.0154426 0.999848 
0.00879832 -0.0166858 0.999822 
0.00920955 -0.0164476 0.999822 
0.00948136 -0.0151693 0.99984 
0.00962038 -0.0132808 0.999866 
0.00972965 -0.0113077 0.999889 
0.00997733 -0.00944319 0.999906 
0.0101054 -0.00757076 0.99992 
0.0101048 -0.00570448 0.999933 
0.0101831 -0.00381914 0.999941 
0.0101844 -0.00196138 0.999946 
0.0102582 -7.92842e-05 0.999947 
0.0102274 0.00183421 0.999946 
0.0101871 0.00391183 0.99994 
0.0103173 0.0062419 0.999927 
0.0102246 0.0088675 0.999908 
0.010231 0.0120846 0.999875 
0.010069 0.0159143 0.999823 
0.0100606 0.0207882 0.999733 
0.00992784 0.02671 0.999594 
0.00985289 0.0342768 0.999364 
0.00971205 0.0436778 0.998998 
0.00952525 0.0555457 0.998411 
0.00937765 0.0705469 0.997464 
0.00917497 0.0893851 0.995955 
0.00901139 0.113869 0.993455 
0.00881221 0.144183 0.989512 
0.00864917 0.18212 0.983238 
0.00874826 0.229811 0.973196 
0.00855352 0.289143 0.957248 
0.00883645 0.361457 0.932347 
0.00902504 0.447935 0.89402 
0.00979221 0.543182 0.839558 
0.00897221 0.650556 0.759406 
0.0082604 0.764919 0.644073 
0.00752606 0.877043 0.480353 
0.00435637 0.957467 0.28851 
0.000995189 0.997722 0.067448 
-0.00279264 0.986951 -0.160998 
-0.00588755 0.929888 -0.367795 
-0.0080786 0.837108 -0.546978 
-0.00875804 0.725921 -0.687722 
-0.00929594 0.609177 -0.79298 
-0.00912786 0.499386 -0.866331 
-0.00922208 0.403032 -0.915139 
-0.00876605 0.323553 -0.946169 
-0.00887439 0.25756 -0.966222 
-0.00889112 0.20491 -0.97874 
-0.00877471 0.160851 -0.98694 
-0.00914427 0.127951 -0.991738 
-0.00912625 0.101039 -0.994841 
-0.00935635 0.0798712 -0.996761 
-0.00950617 0.0631069 -0.997961 
-0.00965582 0.0496608 -0.998719 
-0.00971343 0.0390961 -0.999188 
-0.00986823 0.0305354 -0.999485 
-0.00991047 0.0237539 -0.999669 
-0.00999754 0.0183446 -0.999782 
-0.0101066 0.0139613 -0.999851 
-0.0101946 0.0104149 -0.999894 
-0.0104682 0.00760784 -0.999916 
-0.0103684 0.00515292 -0.999933 
-0.0103841 0.00299588 -0.999942 
-0.0104729 0.00106926 -0.999945 
-0.0104099 -0.000784245 -0.999946 
-0.0103802 -0.00260291 -0.999943 
-0.0102979 -0.00445225 -0.999937 
-0.0102873 -0.00629911 -0.999927 
-0.0101688 -0.00819884 -0.999915 
-0.0101816 -0.0100473 -0.999898 
-0.0100564 -0.0119292 -0.999878 
-0.00988107 -0.0138613 -0.999855 
-0.00961769 -0.0158003 -0.999829 
-0.00940133 -0.0173411 -0.999805 
-0.0088504 -0.0182052 -0.999795 
-0.00774752 -0.0177668 -0.999812 
-0.00474501 -0.0130902 -0.999903 
0.000223037 0.000108842 -1 
0.00435557 -0.00782292 0.99996 
0.00943994 -0.0149767 0.999843 
0.011275 -0.0167025 0.999797 
0.0122023 -0.0165583 0.999788 
0.0129069 -0.0158935 0.99979 
0.0132814 -0.0142963 0.99981 
0.0135397 -0.0122448 0.999833 
0.013832 -0.0103352 0.999851 
0.0139917 -0.00852219 0.999866 
0.0141282 -0.00671016 0.999878 
0.014204 -0.00492004 0.999887 
0.0143165 -0.00312151 0.999893 
0.01436 -0.00131404 0.999896 
0.0144426 0.000523617 0.999896 
0.0144236 0.00245958 0.999893 
0.0144191 0.00455306 0.999886 
0.0144742 0.00686609 0.999872 
0.0143389 0.00958686 0.999851 
0.0143426 0.0128082 0.999815 
0.0141501 0.0167893 0.999759 
0.014132 0.0215956 0.999667 
0.0139258 0.0276681 0.99952 
0.0138438 0.0351614 0.999286 
0.0136851 0.0446168 0.99891 
0.0135653 0.0564176 0.998315 
0.0134608 0.071004 0.997385 
0.0134106 0.0900352 0.995848 
0.0133683 0.113947 0.993397 
0.0135483 0.144556 0.989404 
0.0138208 0.182489 0.983111 
0.0145429 0.23082 0.972888 
0.0151023 0.290618 0.95672 
0.0166183 0.363774 0.931339 
0.0184416 0.447313 0.894187 
0.0203696 0.547738 0.836402 
0.0201641 0.658617 0.752208 
0.0185473 0.78071 0.624619 
0.0181081 0.882506 0.469953 
0.0103622 0.958958 0.28336 
0.00201843 0.998296 0.0583184 
-0.0075724 0.984373 -0.175932 
-0.0151678 0.924519 -0.380833 
-0.0189346 0.836694 -0.547343 
-0.0198978 0.721714 -0.691906 
-0.0197452 0.599612 -0.800047 
-0.0182793 0.486599 -0.873434 
-0.0177498 0.394327 -0.918799 
-0.0158202 0.314946 -0.948978 
-0.0151596 0.251624 -0.967706 
-0.0140518 0.197072 -0.980288 
-0.0138071 0.157398 -0.987439 
-0.0135616 0.124191 -0.992166 
-0.0133857 0.0980955 -0.995087 
-0.0134905 0.0781223 -0.996853 
-0.0135085 0.0616403 -0.998007 
-0.0136695 0.0486754 -0.998721 
-0.0137382 0.0382887 -0.999172 
-0.0139001 0.0298622 -0.999457 
-0.0141582 0.0235124 -0.999623 
-0.014115 0.0184105 -0.999731 
-0.0144031 0.014345 -0.999793 
-0.0143059 0.0109053 -0.999838 
-0.0145256 0.00791597 -0.999863 
-0.0145125 0.00545525 -0.99988 
-0.0145095 0.0032639 -0.999889 
-0.0145817 0.00126526 -0.999893 
-0.0145172 -0.000580426 -0.999894 
-0.0144828 -0.0023991 -0.999892 
-0.0144247 -0.00422264 -0.999887 
-0.0143412 -0.00603363 -0.999879 
-0.014189 -0.00790107 -0.999868 
-0.0140534 -0.00974614 -0.999854 
-0.0138274 -0.0116412 -0.999837 
-0.0135431 -0.013599 -0.999816 
-0.0130989 -0.0155538 -0.999793 
-0.0124939 -0.0169917 -0.999778 
-0.0115401 -0.0177445 -0.999776 
-0.0100611 -0.0178294 -0.99979 
-0.0067353 -0.0130769 -0.999892 
-0.00045224 -0.000157139 -1 
-7.54506e-05 -5.84844e-05 1 
0.0071748 -0.0129953 0.99989 
0.0100558 -0.0169934 0.999805 
0.0115426 -0.0168151 0.999792 
0.0125027 -0.0164009 0.999787 
0.0131823 -0.0149246 0.999802 
0.0137474 -0.0129 0.999822 
0.0139043 -0.010754 0.999845 
0.0141288 -0.00883063 0.999861 
0.0142945 -0.00702415 0.999873 
0.0144539 -0.00520802 0.999882 
0.0145705 -0.00343792 0.999888 
0.0146789 -0.00159659 0.999891 
0.0147385 0.000244722 0.999891 
0.0148011 0.00219959 0.999888 
0.014807 0.00430098 0.999881 
0.0147603 0.00662535 0.999869 
0.0147492 0.00933792 0.999848 
0.0146687 0.0125359 0.999814 
0.0146133 0.0164692 0.999758 
0.0144891 0.0212891 0.999668 
0.0144063 0.0272302 0.999525 
0.0143148 0.0347597 0.999293 
0.0142601 0.0441053 0.998925 
0.0142509 0.055929 0.998333 
0.0144 0.0706564 0.997397 
0.0146104 0.0890387 0.995921 
0.0150052 0.112756 0.993509 
0.0157334 0.143596 0.989511 
0.0168461 0.183029 0.982963 
0.0187575 0.230911 0.972794 
0.0205895 0.290212 0.956741 
0.0242217 0.360931 0.932278 
0.0280815 0.447862 0.893661 
0.0322242 0.553422 0.832278 
0.0330558 0.672812 0.739075 
0.0332135 0.787349 0.615613 
0.0307231 0.894859 0.44529 
0.0166041 0.969762 0.243486 
-0.0004918 0.999998 -0.00212043 
-0.0192364 0.987477 -0.156588 
-0.0189579 0.968332 -0.248944 
-0.0318704 0.895872 -0.443168 
-0.0334293 0.786781 -0.616326 
-0.0323076 0.661414 -0.749324 
-0.0295418 0.53342 -0.845334 
-0.0272149 0.432293 -0.901322 
-0.0230605 0.337992 -0.940867 
-0.0205561 0.269755 -0.96271 
-0.0178045 0.21036 -0.977462 
-0.0166533 0.165823 -0.986015 
-0.0155147 0.131237 -0.99123 
-0.0148503 0.102724 -0.994599 
-0.0145391 0.0812776 -0.996585 
-0.014327 0.0645583 -0.997811 
-0.0142773 0.0508337 -0.998605 
-0.014303 0.0399694 -0.999099 
-0.0143837 0.0314506 -0.999402 
-0.0144443 0.0244276 -0.999597 
-0.0145862 0.0189495 -0.999714 
-0.0146664 0.0144655 -0.999788 
-0.0147873 0.0108194 -0.999832 
-0.0148087 0.00785528 -0.999859 
-0.0148598 0.00535453 -0.999875 
-0.0149262 0.0031701 -0.999884 
-0.0148603 0.00118837 -0.999889 
-0.014879 -0.000686925 -0.999889 
-0.0148412 -0.00248125 -0.999887 
-0.0147647 -0.00424394 -0.999882 
-0.0146217 -0.00599734 -0.999875 
-0.0145009 -0.00778649 -0.999865 
-0.0142543 -0.00960072 -0.999852 
-0.013979 -0.011479 -0.999836 
-0.0135836 -0.0134521 -0.999817 
-0.0130761 -0.0154371 -0.999795 
-0.0122996 -0.0169165 -0.999781 
-0.0111924 -0.0176669 -0.999781 
-0.0096694 -0.0177447 -0.999796 
-0.00719519 -0.0132409 -0.999886 
-7.01219e-05 -0.000154525 -1 
0.00436258 -0.00891202 0.999951 
0.00816418 -0.0158305 0.999841 
0.0102062 -0.0173469 0.999797 
0.0114098 -0.0169462 0.999791 
0.0123511 -0.016073 0.999795 
0.0128172 -0.0144171 0.999814 
0.0133356 -0.0126533 0.999831 
0.0134131 -0.0109237 0.99985 
0.0137054 -0.00914279 0.999864 
0.0138483 -0.00720567 0.999878 
0.014061 -0.00543778 0.999886 
0.0141861 -0.00362135 0.999893 
0.014343 -0.00181765 0.999895 
0.0144004 8.12838e-05 0.999896 
0.0145009 0.00201058 0.999893 
0.0145131 0.00410744 0.999886 
0.0144344 0.00642142 0.999875 
0.0144946 0.00911212 0.999853 
0.0143758 0.0122485 0.999822 
0.0144074 0.0161329 0.999766 
0.0142579 0.0207875 0.999682 
0.0142472 0.0267271 0.999541 
0.0142158 0.0339188 0.999323 
0.0142653 0.0431603 0.998966 
0.0144139 0.0546279 0.998403 
0.0147426 0.0691606 0.997497 
0.0152745 0.0868569 0.996104 
0.0160605 0.109419 0.993866 
0.0173337 0.138733 0.990178 
0.0192805 0.17704 0.984015 
0.0224052 0.224485 0.97422 
0.0260012 0.284815 0.95823 
0.0319679 0.355076 0.934291 
0.0382948 0.447162 0.893633 
0.0456974 0.553483 0.831606 
0.0499072 0.670515 0.740215 
0.0517531 0.790808 0.609872 
0.0571152 0.875492 0.479846 
0.00982872 0.995883 0.0901184 
0.0249864 0.991482 0.127823 
-0.0209368 0.994645 -0.101205 
-0.0479232 0.922438 -0.383161 
-0.0521221 0.819784 -0.570296 
-0.04956 0.705849 -0.706627 
-0.0437206 0.587649 -0.807934 
-0.0402795 0.48006 -0.87631 
-0.0326544 0.380624 -0.924153 
-0.0283804 0.305693 -0.951707 
-0.023248 0.239872 -0.970526 
-0.0204104 0.192383 -0.981108 
-0.0182247 0.151336 -0.988314 
-0.0165515 0.120082 -0.992626 
-0.0156086 0.0958615 -0.995272 
-0.0149573 0.0763191 -0.996971 
-0.0145551 0.0608287 -0.998042 
-0.0143456 0.0479838 -0.998745 
-0.0142716 0.0381532 -0.99917 
-0.0143202 0.0301016 -0.999444 
-0.0142799 0.0237038 -0.999617 
-0.014402 0.0186497 -0.999722 
-0.0143992 0.014495 -0.999791 
-0.0145399 0.0110227 -0.999834 
-0.0145155 0.00805746 -0.999862 
-0.0146043 0.0055137 -0.999878 
-0.0145925 0.00327406 -0.999888 
-0.0145605 0.00127417 -0.999893 
-0.0145917 -0.000616364 -0.999893 
-0.0144655 -0.00244034 -0.999892 
-0.0144253 -0.00420839 -0.999887 
-0.0142606 -0.0059519 -0.999881 
-0.0141339 -0.00771862 -0.99987 
-0.0138504 -0.00954113 -0.999859 
-0.013562 -0.0114331 -0.999843 
-0.0130894 -0.0133613 -0.999825 
-0.0125353 -0.0153996 -0.999803 
-0.0117423 -0.0170311 -0.999786 
-0.010582 -0.0176957 -0.999787 
-0.00902009 -0.0177063 -0.999803 
-0.00671268 -0.0131312 -0.999891 
-0.000154839 -0.000150355 -1 
-6.24719e-05 5.33459e-05 1 
0.00616637 -0.0133932 0.999891 
0.00884016 -0.0175474 0.999807 
0.0101231 -0.017308 0.999799 
0.0112736 -0.0166299 0.999798 
0.0115641 -0.0148993 0.999822 
0.0122669 -0.0127229 0.999844 
0.012264 -0.010711 0.999867 
0.0128169 -0.00883894 0.999879 
0.0128327 -0.00698829 0.999893 
0.0131517 -0.00523948 0.9999 
0.0131989 -0.00346257 0.999907 
0.0134416 -0.0016515 0.999908 
0.0134125 0.000220349 0.99991 
0.0136063 0.00217952 0.999905 
0.013587 0.00426615 0.999899 
0.0134476 0.00657899 0.999888 
0.0135384 0.00920712 0.999866 
0.0134113 0.0123008 0.999834 
0.0135364 0.0160071 0.99978 
0.01341 0.0205768 0.999698 
0.0134677 0.0261802 0.999567 
0.0134654 0.0333101 0.999354 
0.0136341 0.042032 0.999023 
0.0139213 0.053125 0.998491 
0.0144017 0.0668656 0.997658 
0.0152404 0.0841858 0.996334 
0.0164861 0.105377 0.994296 
0.0182288 0.13195 0.991089 
0.0208126 0.166878 0.985758 
0.0247183 0.209744 0.977444 
0.0300323 0.267796 0.963007 
0.0382216 0.338096 0.940335 
0.0481213 0.428965 0.902039 
0.0604389 0.537532 0.841074 
0.0700366 0.664574 0.743933 
0.082052 0.775958 0.625425 
0.0679223 0.937622 0.340956 
0.0347127 0.9523 0.303182 
0.0271241 0.997296 0.0683009 
-0.0737237 0.981644 -0.175897 
-0.0665202 0.94692 -0.314512 
-0.078057 0.829077 -0.553659 
-0.0725084 0.70455 -0.70594 
-0.060851 0.588931 -0.805889 
-0.0554871 0.485701 -0.872362 
-0.0427088 0.39618 -0.917179 
-0.0359024 0.312553 -0.949222 
-0.0280831 0.24809 -0.96833 
-0.0236323 0.1948 -0.980558 
-0.020212 0.156421 -0.987484 
-0.017577 0.122113 -0.992361 
-0.0159986 0.0971792 -0.995138 
-0.0148984 0.0776093 -0.996873 
-0.0142228 0.06173 -0.997992 
-0.0138467 0.0492329 -0.998691 
-0.0135673 0.0387422 -0.999157 
-0.0135509 0.0308003 -0.999434 
-0.0134132 0.0241566 -0.999618 
-0.0134911 0.018722 -0.999734 
-0.013444 0.0143556 -0.999807 
-0.013638 0.0108232 -0.999848 
-0.0135008 0.00790419 -0.999878 
-0.0136317 0.00542645 -0.999892 
-0.0136464 0.0032213 -0.999902 
-0.0135383 0.00120368 -0.999908 
-0.0135757 -0.000685006 -0.999908 
-0.01344 -0.00250899 -0.999907 
-0.0134221 -0.00427024 -0.999901 
-0.01321 -0.00599458 -0.999895 
-0.0131368 -0.00772551 -0.999884 
-0.01279 -0.0095353 -0.999873 
-0.0124886 -0.011421 -0.999857 
-0.0120886 -0.0134296 -0.999837 
-0.011608 -0.0155257 -0.999812 
-0.0109338 -0.0171041 -0.999794 
-0.00987622 -0.0177576 -0.999794 
-0.00836825 -0.0177634 -0.999807 
-0.00625783 -0.0131772 -0.999894 
-0.000136162 -0.00015037 -1 
0.000188367 -0.000313229 1 
0.00552084 -0.0131556 0.999898 
0.00774757 -0.0175289 0.999816 
0.00873061 -0.0175485 0.999808 
0.00979246 -0.0168172 0.999811 
0.0099928 -0.0151625 0.999835 
0.0107402 -0.0129203 0.999859 
0.0106939 -0.0108086 0.999884 
0.0112242 -0.00882584 0.999898 
0.01123 -0.00700203 0.999912 
0.0115491 -0.00526107 0.999919 
0.0115749 -0.00352252 0.999927 
0.0118309 -0.0017233 0.999929 
0.0117924 0.000140557 0.99993 
0.0119936 0.00209863 0.999926 
0.0119909 0.00419444 0.999919 
0.0118561 0.00653736 0.999908 
0.011917 0.00921961 0.999886 
0.0118684 0.0124632 0.999852 
0.011994 0.0163497 0.999794 
0.0118863 0.0210867 0.999707 
0.0120988 0.0270015 0.999562 
0.0121261 0.0341721 0.999342 
0.0124706 0.0432494 0.998986 
0.0129233 0.0544896 0.998431 
0.0136664 0.0686117 0.99755 
0.0148753 0.0861993 0.996167 
0.0166603 0.107627 0.994052 
0.0192703 0.136069 0.990512 
0.0227805 0.169269 0.985307 
0.0276026 0.205128 0.978346 
0.0326512 0.250238 0.967634 
0.0413713 0.302755 0.95217 
0.0520501 0.377621 0.924496 
0.0675719 0.47093 0.879579 
0.0863514 0.590272 0.802572 
0.108784 0.698944 0.706855 
0.106552 0.855355 0.506967 
0.115464 0.951844 0.28401 
-0.160218 0.906378 -0.390909 
-0.112675 0.854487 -0.507106 
-0.103648 0.711592 -0.694905 
-0.0834452 0.587164 -0.805155 
-0.0674028 0.464284 -0.883118 
-0.05002 0.371648 -0.927025 
-0.0381701 0.284301 -0.957975 
-0.0299467 0.228278 -0.973135 
-0.0244405 0.180715 -0.983232 
-0.0200193 0.14306 -0.989512 
-0.0172479 0.114294 -0.993297 
-0.0152623 0.0914451 -0.995693 
-0.0138971 0.0727362 -0.997254 
-0.0130892 0.0583746 -0.998209 
-0.0126438 0.0464398 -0.998841 
-0.0121993 0.036945 -0.999243 
-0.0122095 0.0295375 -0.999489 
-0.0118323 0.0235293 -0.999653 
-0.0120387 0.0187049 -0.999753 
-0.0118625 0.0145344 -0.999824 
-0.012096 0.0109636 -0.999867 
-0.0119444 0.00790741 -0.999897 
-0.0120103 0.00529409 -0.999914 
-0.0120587 0.00310263 -0.999922 
-0.0118729 0.00109635 -0.999929 
-0.0119375 -0.000776896 -0.999928 
-0.0117664 -0.00258988 -0.999927 
-0.0117882 -0.0043385 -0.999921 
-0.0115504 -0.00606031 -0.999915 
-0.011512 -0.00778307 -0.999903 
-0.0111478 -0.00960174 -0.999892 
-0.0108585 -0.0114486 -0.999876 
-0.0105201 -0.0135068 -0.999853 
-0.0100705 -0.015547 -0.999828 
-0.00955771 -0.0172406 -0.999806 
-0.00863217 -0.0178765 -0.999803 
-0.00734494 -0.0178622 -0.999813 
-0.00551216 -0.0131824 -0.999898 
-0.000117891 -0.000149212 -1 
7.51228e-05 -9.24485e-05 1 
0.00467967 -0.0131592 0.999902 
0.00649751 -0.0176529 0.999823 
0.00730322 -0.0176693 0.999817 
0.00825146 -0.0169023 0.999823 
0.00839339 -0.0152549 0.999848 
0.0091574 -0.0130576 0.999873 
0.0090565 -0.0109678 0.999899 
0.00955592 -0.00897954 0.999914 
0.00957365 -0.00714361 0.999929 
0.00984514 -0.00535834 0.999937 
0.00990171 -0.00357528 0.999945 
0.0101191 -0.00172995 0.999947 
0.0100964 0.000162328 0.999949 
0.0102939 0.0021326 0.999945 
0.0103005 0.00424602 0.999938 
0.0101838 0.00664453 0.999926 
0.010328 0.00940647 0.999902 
0.0102538 0.0126035 0.999868 
0.010422 0.0164136 0.999811 
0.0102944 0.0209198 0.999728 
0.0105798 0.0264596 0.999594 
0.0106378 0.0331352 0.999394 
0.011078 0.0416315 0.999072 
0.0115972 0.0520407 0.998578 
0.0124268 0.0650897 0.997802 
0.0137475 0.0815178 0.996577 
0.0157892 0.1022 0.994639 
0.0187153 0.127569 0.991653 
0.0226442 0.158061 0.98717 
0.0286268 0.196343 0.980117 
0.0367494 0.246 0.968573 
0.0498607 0.312614 0.948571 
0.06547 0.389462 0.918713 
0.0888394 0.494488 0.864632 
0.120099 0.593841 0.795569 
0.150986 0.752982 0.640485 
0.194346 0.851858 0.486383 
-0.225138 0.787331 -0.573953 
-0.14916 0.753536 -0.640262 
-0.11713 0.605624 -0.787083 
-0.0892935 0.496852 -0.863229 
-0.0632654 0.381865 -0.92205 
-0.0472415 0.308725 -0.949978 
-0.034323 0.233139 -0.971838 
-0.0272308 0.188608 -0.981675 
-0.0210742 0.146694 -0.988957 
-0.0174295 0.116889 -0.992992 
-0.0148588 0.0934248 -0.995515 
-0.0131304 0.0745683 -0.997129 
-0.0119538 0.0592225 -0.998173 
-0.0114151 0.0475561 -0.998803 
-0.0108028 0.0376729 -0.999232 
-0.0106394 0.0298059 -0.999499 
-0.0103006 0.0234129 -0.999673 
-0.0103799 0.0182829 -0.999779 
-0.0101967 0.0141641 -0.999848 
-0.0104891 0.0108392 -0.999886 
-0.0102623 0.00796299 -0.999916 
-0.0104149 0.00545074 -0.999931 
-0.0103349 0.00315461 -0.999942 
-0.0101893 0.00111349 -0.999947 
-0.0102143 -0.000823611 -0.999947 
-0.0100835 -0.00269517 -0.999946 
-0.0100806 -0.00448076 -0.999939 
-0.00984273 -0.00620385 -0.999932 
-0.00981861 -0.0078918 -0.999921 
-0.00942864 -0.00966578 -0.999909 
-0.00924005 -0.0116054 -0.99989 
-0.00888152 -0.0136179 -0.999868 
-0.00852201 -0.0157208 -0.99984 
-0.00809573 -0.0173968 -0.999816 
-0.00730077 -0.0180363 -0.999811 
-0.00625196 -0.0179818 -0.999819 
-0.00470216 -0.0133613 -0.9999 
-9.10958e-05 -0.000151353 -1 
8.1287e-05 -0.000151325 1 
0.0038554 -0.013255 0.999905 
0.00536691 -0.0177452 0.999828 