# vtk DataFile Version 3.0 
Exported using Morpho https://github.com/Morpho-lang/morpho 
ASCII 
DATASET UNSTRUCTURED_GRID 

POINTS 2213 float 
-8.32618 -2.88146 0 
-8.11405 -2.88146 0 
-7.90192 -2.88146 0 
-7.68979 -2.88146 0 
-7.47765 -2.88146 0 
-7.26552 -2.88146 0 
-7.05339 -2.88146 0 
-6.84126 -2.88146 0 
-6.62913 -2.88146 0 
-6.41699 -2.88146 0 
-6.20486 -2.88146 0 
-5.99273 -2.88146 0 
-5.7806 -2.88146 0 
-5.56847 -2.88146 0 
-5.35633 -2.88146 0 
-5.1442 -2.88146 0 
-4.93207 -2.88146 0 
-4.71994 -2.88146 0 
-4.50781 -2.88146 0 
-4.29567 -2.88146 0 
-4.08354 -2.88146 0 
-3.87141 -2.88146 0 
-3.65928 -2.88146 0 
-3.44715 -2.88146 0 
-3.23501 -2.88146 0 
-3.02288 -2.88146 0 
-2.81075 -2.88146 0 
-2.59862 -2.88146 0 
-2.38649 -2.88146 0 
-2.17435 -2.88146 0 
-1.96222 -2.88146 0 
-1.75009 -2.88146 0 
-1.53796 -2.88146 0 
-1.32583 -2.88146 0 
-1.11369 -2.88146 0 
-0.901561 -2.88146 0 
-0.689429 -2.88146 0 
-0.477297 -2.88146 0 
-0.265165 -2.88146 0 
-0.053033 -2.88146 0 
0.159099 -2.88146 0 
0.371231 -2.88146 0 
0.583363 -2.88146 0 
0.795495 -2.88146 0 
1.00763 -2.88146 0 
1.21976 -2.88146 0 
1.43189 -2.88146 0 
1.64402 -2.88146 0 
1.85616 -2.88146 0 
2.06829 -2.88146 0 
2.28042 -2.88146 0 
2.49255 -2.88146 0 
2.70468 -2.88146 0 
2.91682 -2.88146 0 
3.12895 -2.88146 0 
3.34108 -2.88146 0 
3.55321 -2.88146 0 
3.76534 -2.88146 0 
3.97748 -2.88146 0 
4.18961 -2.88146 0 
4.40174 -2.88146 0 
4.61387 -2.88146 0 
4.826 -2.88146 0 
5.03814 -2.88146 0 
5.25027 -2.88146 0 
5.4624 -2.88146 0 
5.67453 -2.88146 0 
5.88666 -2.88146 0 
6.0988 -2.88146 0 
6.31093 -2.88146 0 
6.52306 -2.88146 0 
6.73519 -2.88146 0 
6.94732 -2.88146 0 
7.15946 -2.88146 0 
7.37159 -2.88146 0 
7.58372 -2.88146 0 
7.79585 -2.88146 0 
8.00798 -2.88146 0 
8.22012 -2.88146 0 
8.53831 -2.88146 0 
-8.53831 -2.74288 0 
-8.3088 -2.64478 0 
-8.06786 -2.66635 0 
-7.83318 -2.66798 0 
-7.59604 -2.66988 0 
-7.36679 -2.67024 0 
-7.13375 -2.67202 0 
-6.90475 -2.67041 0 
-6.67701 -2.66823 0 
-6.45224 -2.66563 0 
-6.23157 -2.66402 0 
-6.01338 -2.66604 0 
-5.79427 -2.6673 0 
-5.57485 -2.66657 0 
-5.35914 -2.66559 0 
-5.14192 -2.66803 0 
-4.92376 -2.67069 0 
-4.7083 -2.66977 0 
-4.49279 -2.66968 0 
-4.27754 -2.66994 0 
-4.06455 -2.6682 0 
-3.84884 -2.67016 0 
-3.63648 -2.66852 0 
-3.42149 -2.67045 0 
-3.20968 -2.66894 0 
-2.9985 -2.66918 0 
-2.78557 -2.67207 0 
-2.57445 -2.6709 0 
-2.36324 -2.67062 0 
-2.15347 -2.6701 0 
-1.94209 -2.67004 0 
-1.72901 -2.66962 0 
-1.52329 -2.66263 0 
-1.3033 -2.67296 0 
-1.09703 -2.66357 0 
-0.887236 -2.66504 0 
-0.671792 -2.66936 0 
-0.452523 -2.67223 0 
-0.238439 -2.66299 0 
-0.036907 -2.64892 0 
0.184473 -2.66672 0 
0.403474 -2.66795 0 
0.613952 -2.66198 0 
0.837034 -2.67675 0 
1.056 -2.67681 0 
1.26921 -2.67193 0 
1.48408 -2.67222 0 
1.6975 -2.66946 0 
1.91366 -2.67071 0 
2.12569 -2.66643 0 
2.34094 -2.67119 0 
2.55509 -2.6698 0 
2.76891 -2.67151 0 
2.98072 -2.66879 0 
3.19388 -2.67021 0 
3.40651 -2.67005 0 
3.62107 -2.67115 0 
3.83493 -2.67086 0 
4.0486 -2.67045 0 
4.26136 -2.66948 0 
4.47368 -2.66975 0 
4.68552 -2.66899 0 
4.89876 -2.66905 0 
5.10941 -2.66711 0 
5.3221 -2.66836 0 
5.53057 -2.66678 0 
5.74499 -2.67002 0 
5.9543 -2.66737 0 
6.1666 -2.67158 0 
6.37708 -2.66854 0 
6.58873 -2.67011 0 
6.8003 -2.66904 0 
7.01121 -2.66647 0 
7.22389 -2.66576 0 
7.43968 -2.66326 0 
7.65214 -2.65775 0 
7.86599 -2.65394 0 
8.08082 -2.64965 0 
8.32055 -2.72439 0 
8.53831 -2.66933 0 
-8.53831 -2.5014 0 
-8.30896 -2.42078 0 
-8.07606 -2.4569 0 
-7.83789 -2.45656 0 
-7.6063 -2.46759 0 
-7.3643 -2.45848 0 
-7.14042 -2.47007 0 
-6.90404 -2.46362 0 
-6.68023 -2.45649 0 
-6.45834 -2.45571 0 
-6.23439 -2.44902 0 
-6.01685 -2.4496 0 
-5.8027 -2.45411 0 
-5.58605 -2.45562 0 
-5.36893 -2.4505 0 
-5.15779 -2.45631 0 
-4.94202 -2.46111 0 
-4.72667 -2.45811 0 
-4.51333 -2.45873 0 
-4.29879 -2.45889 0 
-4.08537 -2.4545 0 
-3.87303 -2.46036 0 
-3.65801 -2.45471 0 
-3.44645 -2.46088 0 
-3.23177 -2.45576 0 
-3.02115 -2.45565 0 
-2.81109 -2.46191 0 
-2.60056 -2.45992 0 
-2.38975 -2.4599 0 
-2.17874 -2.45695 0 
-1.97048 -2.45903 0 
-1.75794 -2.46026 0 
-1.54478 -2.4409 0 
-1.33607 -2.46869 0 
-1.11864 -2.44078 0 
-0.914295 -2.44521 0 
-0.707293 -2.45632 0 
-0.491496 -2.46637 0 
-0.273887 -2.45013 0 
-0.0597441 -2.41097 0 
0.14515 -2.45268 0 
0.36325 -2.45779 0 
0.579453 -2.44137 0 
0.794966 -2.47202 0 
1.01395 -2.47163 0 
1.22658 -2.46067 0 
1.43749 -2.46219 0 
1.64827 -2.45751 0 
1.86153 -2.46178 0 
2.07436 -2.45197 0 
2.28763 -2.45961 0 
2.49857 -2.45933 0 
2.71192 -2.45988 0 
2.92 -2.45586 0 
3.1307 -2.45798 0 
3.34081 -2.45751 0 
3.55265 -2.46172 0 
3.76659 -2.46074 0 
3.97998 -2.46032 0 
4.19314 -2.45814 0 
4.40592 -2.45734 0 
4.61697 -2.45634 0 
4.83007 -2.45874 0 
5.04347 -2.45281 0 
5.25677 -2.45707 0 
5.46874 -2.44899 0 
5.6805 -2.46222 0 
5.8962 -2.45255 0 
6.10923 -2.46076 0 
6.32099 -2.45748 0 
6.53654 -2.45926 0 
6.75096 -2.45811 0 
6.96586 -2.45326 0 
7.18238 -2.4526 0 
7.40243 -2.45304 0 
7.62819 -2.43756 0 
7.8482 -2.43282 0 
8.07308 -2.42915 0 
8.30248 -2.50878 0 
8.53831 -2.4572 0 
-8.53831 -2.26821 0 
-8.29591 -2.20951 0 
-8.05247 -2.24552 0 
-7.8182 -2.24402 0 
-7.57228 -2.26904 0 
-7.34308 -2.24382 0 
-7.10498 -2.27059 0 
-6.87448 -2.25316 0 
-6.64885 -2.24424 0 
-6.4228 -2.24575 0 
-6.19997 -2.23426 0 
-5.98271 -2.23314 0 
-5.76354 -2.24239 0 
-5.54541 -2.24416 0 
-5.3315 -2.23441 0 
-5.11386 -2.24775 0 
-4.89856 -2.25002 0 
-4.68331 -2.24586 0 
-4.46745 -2.24827 0 
-4.25447 -2.24548 0 
-4.03884 -2.24258 0 
-3.82586 -2.24909 0 
-3.61061 -2.24237 0 
-3.39808 -2.25034 0 
-3.18526 -2.24201 0 
-2.97301 -2.24407 0 
-2.7657 -2.24921 0 
-2.55427 -2.24929 0 
-2.34247 -2.24923 0 
-2.13331 -2.24308 0 
-1.92036 -2.25021 0 
-1.70955 -2.24579 0 
-1.49893 -2.21459 0 
-1.30736 -2.2576 0 
-1.11009 -2.20966 0 
-0.907758 -2.22014 0 
-0.701517 -2.23666 0 
-0.491476 -2.25638 0 
-0.274421 -2.23399 0 
-0.0622168 -2.18203 0 
0.146896 -2.22645 0 
0.355744 -2.24548 0 
0.584395 -2.23161 0 
0.800526 -2.26389 0 
1.00503 -2.25659 0 
1.20381 -2.23769 0 
1.40635 -2.24653 0 
1.61245 -2.24323 0 
1.82194 -2.24949 0 
2.03132 -2.24155 0 
2.24837 -2.24794 0 
2.46013 -2.24562 0 
2.67001 -2.25055 0 
2.88067 -2.23931 0 
3.0871 -2.24453 0 
3.29595 -2.24315 0 
3.50577 -2.24879 0 
3.71608 -2.2516 0 
3.93029 -2.2499 0 
4.14299 -2.2476 0 
4.35637 -2.24584 0 
4.56824 -2.24214 0 
4.77961 -2.24678 0 
4.99112 -2.24295 0 
5.20854 -2.24491 0 
5.4195 -2.23746 0 
5.63772 -2.2468 0 
5.84603 -2.24739 0 
6.0695 -2.24881 0 
6.28088 -2.24539 0 
6.49518 -2.25188 0 
6.71335 -2.24829 0 
6.92909 -2.24293 0 
7.14801 -2.24153 0 
7.36966 -2.24327 0 
7.59408 -2.23339 0 
7.83044 -2.21518 0 
8.0577 -2.21538 0 
8.29694 -2.29074 0 
8.53831 -2.24506 0 
-8.53831 -2.04971 0 
-8.30865 -1.99091 0 
-8.07692 -2.0358 0 
-7.84204 -2.02932 0 
-7.61006 -2.06634 0 
-7.37759 -2.03362 0 
-7.14304 -2.06317 0 
-6.91774 -2.04843 0 
-6.69061 -2.03374 0 
-6.46696 -2.03507 0 
-6.24696 -2.02498 0 
-6.02472 -2.01685 0 
-5.80784 -2.02857 0 
-5.59173 -2.0317 0 
-5.37963 -2.02105 0 
-5.1625 -2.03523 0 
-4.9484 -2.03732 0 
-4.73611 -2.03519 0 
-4.52038 -2.0372 0 
-4.30727 -2.032 0 
-4.09503 -2.03279 0 
-3.87819 -2.03391 0 
-3.66845 -2.03398 0 
-3.45036 -2.0356 0 
-3.2415 -2.03287 0 
-3.0254 -2.03282 0 
-2.81287 -2.03141 0 
-2.60667 -2.0398 0 
-2.3924 -2.04119 0 
-2.17859 -2.03237 0 
-1.96264 -2.04142 0 
-1.74645 -2.03516 0 
-1.53306 -2.00926 0 
-1.29986 -2.0231 0 
-1.08038 -1.98694 0 
-0.876044 -1.9866 0 
-0.681786 -2.01292 0 
-0.471854 -2.04043 0 
-0.256659 -2.00987 0 
-0.0419862 -1.95141 0 
0.165945 -2.00344 0 
0.392429 -2.04475 0 
0.594997 -1.99658 0 
0.794569 -2.04786 0 
1.00173 -2.03033 0 
1.2124 -2.02013 0 
1.4209 -2.02923 0 
1.63604 -2.0303 0 
1.84624 -2.03403 0 
2.07285 -2.03888 0 
2.28809 -2.03728 0 
2.50284 -2.03457 0 
2.71096 -2.03685 0 
2.92148 -2.02324 0 
3.12875 -2.02999 0 
3.3407 -2.0311 0 
3.55045 -2.0363 0 
3.7638 -2.0425 0 
3.97699 -2.03812 0 
4.19071 -2.03642 0 
4.40175 -2.03179 0 
4.61431 -2.02923 0 
4.82226 -2.03173 0 
5.04069 -2.03666 0 
5.24878 -2.02804 0 
5.47053 -2.03374 0 
5.67524 -2.02809 0 
5.89687 -2.04786 0 
6.10586 -2.03318 0 
6.31902 -2.03524 0 
6.5317 -2.0436 0 
6.7425 -2.03487 0 
6.95729 -2.03156 0 
7.17491 -2.03078 0 
7.39233 -2.0304 0 
7.62362 -2.02777 0 
7.85001 -1.99873 0 
8.08206 -2.00593 0 
8.30781 -2.08128 0 
8.53831 -2.03293 0 
-8.53831 -1.83071 0 
-8.30367 -1.7801 0 
-8.06466 -1.82477 0 
-7.83166 -1.81428 0 
-7.60501 -1.8567 0 
-7.39115 -1.8051 0 
-7.17919 -1.85373 0 
-6.95413 -1.83665 0 
-6.73366 -1.82569 0 
-6.50815 -1.82209 0 
-6.29017 -1.81193 0 
-6.07165 -1.80834 0 
-5.84702 -1.81205 0 
-5.63344 -1.81763 0 
-5.42212 -1.80561 0 
-5.20746 -1.82217 0 
-4.99464 -1.82407 0 
-4.78324 -1.8208 0 
-4.57158 -1.82593 0 
-4.36005 -1.81924 0 
-4.14848 -1.81742 0 
-3.93794 -1.82378 0 
-3.726 -1.81609 0 
-3.51744 -1.82712 0 
-3.30616 -1.81588 0 
-3.09781 -1.82419 0 
-2.88556 -1.81983 0 
-2.67571 -1.81774 0 
-2.4722 -1.83249 0 
-2.26186 -1.82697 0 
-2.04223 -1.83048 0 
-1.83061 -1.82927 0 
-1.61896 -1.80671 0 
-1.3832 -1.82368 0 
-1.1615 -1.78939 0 
-0.934426 -1.75482 0 
-0.729192 -1.7561 0 
-0.536737 -1.80761 0 
-0.33845 -1.80404 0 
-0.127899 -1.75367 0 
0.129407 -1.77083 0 
0.34546 -1.83073 0 
0.559975 -1.77925 0 
0.777202 -1.81413 0 
0.976654 -1.80555 0 
1.18088 -1.80313 0 
1.38918 -1.81049 0 
1.59613 -1.81826 0 
1.81204 -1.81552 0 
2.02365 -1.84084 0 
2.2505 -1.8286 0 
2.46533 -1.82708 0 
2.68005 -1.82024 0 
2.88327 -1.81316 0 
3.09684 -1.81177 0 
3.3025 -1.81957 0 
3.51491 -1.82093 0 
3.7243 -1.831 0 
3.93558 -1.82805 0 
4.14945 -1.82618 0 
4.36234 -1.81853 0 
4.57362 -1.81764 0 
4.78653 -1.81327 0 
4.99572 -1.83096 0 
5.21131 -1.81225 0 
5.4241 -1.83223 0 
5.6434 -1.80775 0 
5.85327 -1.84417 0 
6.06921 -1.82046 0 
6.28154 -1.82503 0 
6.49745 -1.83082 0 
6.70717 -1.82188 0 
6.92066 -1.82074 0 
7.13943 -1.82019 0 
7.36092 -1.81581 0 
7.58338 -1.82543 0 
7.8169 -1.79198 0 
8.05729 -1.79588 0 
8.2994 -1.86018 0 
8.53831 -1.8208 0 
-8.53831 -1.61361 0 
-8.30944 -1.56114 0 
-8.08459 -1.61395 0 
[...]
POINT_DATA 2213 
VECTORS vectors float
3.99864e-06 -0.000534995 1 
3.58782e-05 -0.0142889 0.999898 
-6.10876e-05 -0.018042 0.999837 
-1.57676e-05 -0.0181991 0.999834 
-3.08672e-05 -0.0167603 0.99986 
-2.58249e-05 -0.0148361 0.99989 
-2.75929e-05 -0.0129379 0.999916 
-2.69544e-05 -0.0110202 0.999939 
-2.74147e-05 -0.00900218 0.999959 
-2.70644e-05 -0.00693165 0.999976 
-2.7329e-05 -0.00485907 0.999988 
-2.7157e-05 -0.00283552 0.999996 
-2.73429e-05 -0.000864365 1 
-2.72216e-05 0.00111169 0.999999 
-2.72502e-05 0.00318038 0.999995 
-2.72092e-05 0.00541475 0.999985 
-2.7096e-05 0.00795167 0.999968 
-2.68957e-05 0.0109265 0.99994 
-2.69038e-05 0.0144986 0.999895 
-2.6383e-05 0.0188553 0.999822 
-2.63543e-05 0.0242316 0.999706 
-2.56914e-05 0.0309001 0.999522 
-2.53521e-05 0.0392214 0.999231 
-2.46445e-05 0.0496193 0.998768 
-2.38228e-05 0.0626505 0.998036 
-2.28548e-05 0.0789784 0.996876 
-2.15309e-05 0.0994262 0.995045 
-1.99729e-05 0.125039 0.992152 
-1.79556e-05 0.157028 0.987594 
-1.56821e-05 0.196851 0.980433 
-1.22229e-05 0.246127 0.969238 
-9.60125e-06 0.30661 0.951835 
-4.31972e-06 0.379932 0.925014 
-1.05554e-06 0.466676 0.884428 
4.00885e-06 0.566597 0.823995 
7.18636e-06 0.675884 0.737008 
9.10415e-06 0.787129 0.616789 
8.05914e-06 0.888079 0.45969 
5.86969e-06 0.963283 0.268488 
8.1566e-07 0.998524 0.0543094 
-3.29999e-06 0.986271 -0.165135 
-7.21719e-06 0.929163 -0.369671 
-9.03947e-06 0.8389 -0.544286 
-8.32065e-06 0.730899 -0.682485 
-5.7891e-06 0.619409 -0.785068 
-1.39609e-06 0.514226 -0.857655 
2.52907e-06 0.42079 -0.907158 
7.36877e-06 0.340974 -0.940073 
1.06315e-05 0.274448 -0.961602 
1.44053e-05 0.219917 -0.975519 
1.65862e-05 0.175664 -0.98445 
1.92374e-05 0.140021 -0.990149 
2.06127e-05 0.111427 -0.993773 
2.23694e-05 0.0885617 -0.996071 
2.3266e-05 0.0702984 -0.997526 
2.43355e-05 0.0557222 -0.998446 
2.49592e-05 0.044085 -0.999028 
2.56113e-05 0.0347841 -0.999395 
2.59979e-05 0.0273343 -0.999626 
2.64504e-05 0.0213456 -0.999772 
2.65947e-05 0.0165043 -0.999864 
2.69885e-05 0.0125572 -0.999921 
2.69279e-05 0.00929628 -0.999957 
2.73373e-05 0.0065463 -0.999979 
2.70762e-05 0.00416185 -0.999991 
2.74801e-05 0.00201625 -0.999998 
2.71705e-05 2.88319e-06 -1 
2.74766e-05 -0.00197555 -0.999998 
2.72003e-05 -0.00399288 -0.999992 
2.7368e-05 -0.00608722 -0.999981 
2.72269e-05 -0.00824729 -0.999966 
2.73476e-05 -0.0104116 -0.999946 
2.68304e-05 -0.0125191 -0.999922 
2.85233e-05 -0.0145674 -0.999894 
2.29529e-05 -0.0166654 -0.999861 
3.58953e-05 -0.0188273 -0.999823 
1.32573e-05 -0.0204559 -0.999791 
3.80793e-05 -0.0204485 -0.999791 
3.4353e-05 -0.0178376 -0.999841 
-2.73548e-05 -0.000912677 -1 
-1.75599e-05 0.000239647 1 
0.00671165 -0.0104835 0.999923 
0.00899829 -0.0162684 0.999827 
0.00987673 -0.0177331 0.999794 
0.0103745 -0.0172434 0.999797 
0.0106637 -0.015567 0.999822 
0.010855 -0.0134734 0.99985 
0.011067 -0.011397 0.999874 
0.011179 -0.00925836 0.999895 
0.0113671 -0.00715002 0.99991 
0.0115019 -0.00506339 0.999921 
0.0115116 -0.00301749 0.999929 
0.0115226 -0.000984917 0.999933 
0.0115868 0.00106696 0.999932 
0.0116015 0.003173 0.999928 
0.0115432 0.00549324 0.999918 
0.0114546 0.0081435 0.999901 
0.0114275 0.0112236 0.999872 
0.0113277 0.0149308 0.999824 
0.0111894 0.0194629 0.999748 
0.0110568 0.0250093 0.999626 
0.0107897 0.0319882 0.99943 
0.0105714 0.0405858 0.99912 
0.0102087 0.0514679 0.998622 
0.00988236 0.0649275 0.997841 
0.00942901 0.0817195 0.996611 
0.008837 0.102901 0.994652 
0.00825191 0.129196 0.991585 
0.00753952 0.161984 0.986765 
0.0067251 0.202409 0.979278 
0.00579093 0.252651 0.96754 
0.00477804 0.314663 0.949191 
0.00383793 0.386958 0.922089 
0.00257739 0.478093 0.878306 
0.00172935 0.575918 0.817505 
0.000876016 0.684229 0.729267 
0.000202659 0.796586 0.604526 
-0.000134529 0.898673 0.438618 
-9.79265e-05 0.970203 0.242295 
-1.11247e-06 0.999308 0.0372091 
0.000216713 0.981566 -0.191121 
0.000254504 0.917078 -0.398707 
-5.15027e-05 0.824014 -0.56657 
-0.000466902 0.709382 -0.704824 
-0.00128725 0.595344 -0.80347 
-0.00234313 0.492263 -0.870443 
-0.00343764 0.401069 -0.916042 
-0.00456044 0.324244 -0.945963 
-0.00558834 0.259725 -0.965666 
-0.00660337 0.208099 -0.978085 
-0.00736651 0.165635 -0.98616 
-0.00815723 0.131742 -0.99125 
-0.00877004 0.104647 -0.994471 
-0.00938377 0.0832148 -0.996487 
-0.00981193 0.0659771 -0.997773 
-0.0102099 0.052262 -0.998581 
-0.0105122 0.0412189 -0.999095 
-0.0107991 0.0324351 -0.999416 
-0.0110366 0.0254087 -0.999616 
-0.0112492 0.0197806 -0.999741 
-0.0113852 0.0152272 -0.999819 
-0.0115144 0.0115066 -0.999867 
-0.011597 0.00839184 -0.999898 
-0.0117162 0.00577527 -0.999915 
-0.0117256 0.00345599 -0.999925 
-0.01179 0.00138318 -0.99993 
-0.0116969 -0.000645128 -0.999931 
-0.0117799 -0.00260503 -0.999927 
-0.011611 -0.00462565 -0.999922 
-0.0116567 -0.00667569 -0.99991 
-0.011525 -0.00876857 -0.999895 
-0.0114498 -0.0108589 -0.999875 
-0.011352 -0.0129242 -0.999852 
-0.0111128 -0.0150172 -0.999825 
-0.010849 -0.0171313 -0.999794 
-0.0105169 -0.0188709 -0.999767 
-0.00990453 -0.0197067 -0.999757 
-0.00881421 -0.019109 -0.999779 
-0.00509612 -0.0140103 -0.999889 
0.000104719 0.000369807 -1 
0.000109548 -0.000154945 1 
0.00842131 -0.0130901 0.999879 
0.0112538 -0.0170702 0.999791 
0.0126837 -0.0177561 0.999762 
0.0134893 -0.0172436 0.99976 
0.0140897 -0.0155169 0.99978 
0.0143783 -0.0134502 0.999806 
0.0146531 -0.0112345 0.99983 
0.0149045 -0.00919768 0.999847 
0.0150136 -0.00714557 0.999862 
0.01516 -0.0050734 0.999872 
0.0152514 -0.00305776 0.999879 
0.0153035 -0.00106986 0.999882 
0.0153412 0.000970001 0.999882 
0.0153855 0.00310998 0.999877 
0.0153368 0.00537551 0.999868 
0.0152559 0.00799661 0.999852 
0.0151796 0.0110635 0.999824 
0.0150281 0.0147048 0.999779 
0.0148306 0.0191724 0.999706 
0.0146163 0.024657 0.999589 
0.0142827 0.031414 0.999404 
0.0139618 0.0399693 0.999103 
0.0135074 0.0504712 0.998634 
0.0130406 0.0638455 0.997875 
0.0124812 0.0802579 0.996696 
0.0118119 0.100693 0.994847 
0.0110969 0.126271 0.991934 
0.0102781 0.158165 0.987359 
0.00940014 0.197803 0.980197 
0.00844371 0.24599 0.969236 
0.00742537 0.306143 0.951956 
0.00659009 0.378958 0.92539 
0.00535766 0.464361 0.88563 
0.00477999 0.564717 0.825271 
0.00393794 0.669525 0.742779 
0.00296626 0.778118 0.628112 
0.00198689 0.882094 0.471069 
0.0013155 0.960732 0.277474 
0.000530441 0.998111 0.06144 
-0.000474568 0.988479 -0.151355 
-0.00137772 0.931879 -0.362766 
-0.00248411 0.840031 -0.542533 
-0.00285096 0.731748 -0.681569 
-0.0037189 0.617248 -0.78676 
-0.00477996 0.512111 -0.858906 
-0.00575289 0.420349 -0.907344 
-0.0068147 0.34159 -0.939824 
-0.00780759 0.274992 -0.961415 
-0.00887055 0.220497 -0.975347 
-0.00977301 0.176115 -0.984321 
-0.0106484 0.140725 -0.989992 
-0.0114411 0.111963 -0.993646 
-0.0121542 0.0894882 -0.995914 
-0.0127632 0.0712139 -0.997379 
-0.0133076 0.056633 -0.998306 
-0.013757 0.0448581 -0.998899 
-0.0141619 0.0353598 -0.999274 
-0.0144947 0.0277756 -0.999509 
-0.0147784 0.0216875 -0.999656 
-0.015004 0.0167706 -0.999747 
-0.0151875 0.0127865 -0.999803 
-0.0153098 0.00945309 -0.999838 
-0.0154441 0.00664084 -0.999859 
-0.0154828 0.00419748 -0.999871 
-0.0155714 0.00201463 -0.999877 
-0.0155021 -3.39447e-05 -0.99988 
-0.0155408 -0.00206835 -0.999877 
-0.015431 -0.00408013 -0.999873 
-0.0153645 -0.00609983 -0.999863 
-0.0152244 -0.0081698 -0.999851 
-0.0150581 -0.0102428 -0.999834 
-0.0148406 -0.0123435 -0.999814 
-0.014503 -0.0145107 -0.99979 
-0.0140105 -0.016707 -0.999762 
-0.0133258 -0.0185092 -0.99974 
-0.0122802 -0.0192772 -0.999739 
-0.0106925 -0.0189851 -0.999763 
-0.00759121 -0.0147741 -0.999862 
-0.000272248 -0.000114082 -1 
3.81882e-05 3.18891e-05 1 
0.00832665 -0.014146 0.999865 
0.0110953 -0.0177173 0.999781 
0.0126215 -0.0179985 0.999758 
0.0137366 -0.0172734 0.999756 
0.0143095 -0.0154489 0.999778 
0.0147913 -0.0131194 0.999805 
0.0150892 -0.0109193 0.999827 
0.0153177 -0.00885117 0.999844 
0.0155006 -0.00680608 0.999857 
0.0156478 -0.00477875 0.999866 
0.0157675 -0.00277172 0.999872 
0.0158618 -0.000719155 0.999874 
0.0159163 0.00137194 0.999872 
0.0159258 0.00353841 0.999867 
0.0158966 0.00595192 0.999856 
0.0158221 0.00867911 0.999837 
0.0157 0.0118901 0.999806 
0.0155282 0.0157618 0.999755 
0.0153059 0.0204351 0.999674 
0.0150272 0.026273 0.999542 
0.014698 0.0334271 0.999333 
0.0143075 0.0424648 0.998996 
0.0138649 0.0536016 0.998466 
0.0133651 0.0675751 0.997625 
0.0128094 0.0849853 0.9963 
0.0122135 0.106195 0.99427 
0.0115672 0.13312 0.991032 
0.0108934 0.166694 0.985948 
0.0102545 0.207767 0.978125 
0.00957401 0.259267 0.965758 
0.00902913 0.321584 0.946838 
0.008915 0.396584 0.917955 
0.00799996 0.475834 0.879499 
0.00835232 0.568395 0.822714 
0.0077139 0.671069 0.741354 
0.00664704 0.779594 0.62625 
0.0050291 0.880928 0.473224 
0.00337671 0.960236 0.279167 
0.00107889 0.997928 0.0643334 
-0.00162525 0.988142 -0.153532 
-0.00370288 0.933767 -0.357862 
-0.00571049 0.836938 -0.547268 
-0.00632007 0.726707 -0.686918 
-0.00712378 0.620964 -0.783807 
-0.00789626 0.523029 -0.852279 
-0.00815979 0.432893 -0.901409 
-0.00866197 0.35388 -0.935251 
-0.00915959 0.286484 -0.958041 
-0.0098275 0.230829 -0.972945 
-0.0104926 0.183953 -0.982879 
-0.0111927 0.147044 -0.989067 
-0.0118626 0.117572 -0.992993 
-0.0125175 0.0938304 -0.99551 
-0.0131033 0.0751021 -0.99709 
-0.0136431 0.0598845 -0.998112 
-0.0141266 0.0476067 -0.998766 
-0.0145511 0.0377334 -0.999182 
-0.0149204 0.0296759 -0.999448 
-0.0152314 0.0232442 -0.999614 
-0.0154895 0.018028 -0.999717 
-0.0156986 0.0138054 -0.999781 
-0.015863 0.0103184 -0.999821 
-0.0159881 0.0073865 -0.999845 
-0.0160709 0.00478827 -0.999859 
-0.0161227 0.00254063 -0.999867 
-0.0161313 0.000379085 -0.99987 
-0.0161119 -0.00161357 -0.999869 
-0.0160309 -0.00373273 -0.999865 
-0.0159192 -0.00573301 -0.999857 
-0.0157636 -0.00774989 -0.999846 
-0.0155434 -0.00981629 -0.999831 
-0.0152526 -0.0119134 -0.999813 
-0.014855 -0.0141358 -0.99979 
-0.0143059 -0.0164336 -0.999763 
-0.0135008 -0.0183381 -0.999741 
-0.0122386 -0.0191378 -0.999742 
-0.0105432 -0.0188981 -0.999766 
-0.00796132 -0.0150013 -0.999856 
-1.97504e-05 7.48959e-06 -1 
7.14078e-05 -4.79079e-05 1 
0.00765477 -0.0141236 0.999871 
0.0103738 -0.0180911 0.999783 
0.0119658 -0.0184321 0.999759 
0.0132351 -0.017797 0.999754 
0.013769 -0.0159123 0.999779 
0.0143972 -0.0135496 0.999805 
0.014696 -0.0113369 0.999828 
0.0149138 -0.00923458 0.999846 
0.015135 -0.00723344 0.999859 
0.0152734 -0.00525811 0.99987 
0.0153861 -0.00321178 0.999876 
0.0155369 -0.00116589 0.999879 
0.0156148 0.000919134 0.999878 
0.0155945 0.00306385 0.999874 
0.015625 0.00544563 0.999863 
0.0155651 0.00810042 0.999846 
0.0154422 0.0111701 0.999818 
0.0152837 0.0148937 0.999772 
0.0150508 0.019371 0.999699 
0.0147899 0.024839 0.999582 
0.0144757 0.0317609 0.999391 
0.0141212 0.0400877 0.999096 
0.0137112 0.0508927 0.99861 
0.0132692 0.0638257 0.997873 
0.0127893 0.0805368 0.99667 
0.0123046 0.101101 0.9948 
0.011857 0.125915 0.99197 
0.0114101 0.157957 0.98738 
0.0110601 0.197674 0.980205 
0.0107962 0.247395 0.968854 
0.010761 0.308481 0.95117 
0.0111365 0.381208 0.924422 
0.0112591 0.476218 0.879255 
0.0121451 0.579874 0.814616 
0.0120916 0.685766 0.727722 
0.0107436 0.787351 0.616411 
0.0083117 0.887637 0.460469 
0.00546527 0.964489 0.264066 
0.00116394 0.999051 0.043534 
-0.00338381 0.98462 -0.174677 
-0.0067166 0.919833 -0.392252 
-0.0100184 0.829876 -0.557858 
-0.0102478 0.727921 -0.685585 
-0.0110576 0.618836 -0.785443 
-0.0111692 0.515701 -0.856696 
-0.0108194 0.424808 -0.905219 
-0.0106417 0.344133 -0.938861 
-0.0106041 0.278454 -0.960391 
-0.0107776 0.220499 -0.975328 
-0.011112 0.176146 -0.984301 
-0.0115479 0.140469 -0.990018 
-0.0120262 0.112651 -0.993562 
-0.0124974 0.0899881 -0.995864 
-0.0130016 0.0720469 -0.997316 
-0.013483 0.0573019 -0.998266 
-0.0139356 0.0455957 -0.998863 
-0.0143566 0.0360324 -0.999247 
-0.0146902 0.0283726 -0.999489 
-0.0149851 0.0221827 -0.999642 
-0.0152145 0.0172268 -0.999736 
-0.0154102 0.0131338 -0.999795 
-0.0155726 0.00980335 -0.999831 
-0.0157194 0.00684104 -0.999853 
-0.0157576 0.00439455 -0.999866 
-0.0158323 0.00204276 -0.999873 
-0.0158031 8.29181e-06 -0.999875 
-0.0158399 -0.002128 -0.999872 
-0.0156911 -0.00412725 -0.999868 
-0.0155587 -0.0061366 -0.99986 
-0.0153989 -0.00811062 -0.999849 
-0.0151113 -0.0100835 -0.999835 
-0.0147695 -0.0121778 -0.999817 
-0.0143339 -0.0144289 -0.999793 
-0.0137562 -0.0167205 -0.999766 
-0.012909 -0.0186356 -0.999743 
-0.0116033 -0.0193099 -0.999746 
-0.009913 -0.0188756 -0.999773 
-0.00755178 -0.0145776 -0.999865 
-9.12304e-05 -1.78353e-05 -1 
6.0381e-05 -6.76578e-06 1 
0.00691706 -0.0145599 0.99987 
0.00950646 -0.0185169 0.999783 
0.0109728 -0.0188481 0.999762 
0.0122066 -0.0180309 0.999763 
0.012423 -0.0162623 0.999791 
0.0132317 -0.0140368 0.999814 
0.0134388 -0.0117459 0.999841 
0.0136318 -0.00967649 0.99986 
0.013834 -0.00766566 0.999875 
0.013944 -0.00572395 0.999886 
0.0140661 -0.00371242 0.999894 
0.0142027 -0.00157981 0.999898 
0.0143109 0.000498665 0.999897 
0.0142425 0.00263897 0.999895 
0.0143541 0.0049778 0.999885 
0.0143074 0.00757137 0.999869 
0.0141795 0.0105491 0.999844 
0.0140726 0.014076 0.999802 
0.0138311 0.0183338 0.999736 
0.0135848 0.02353 0.999631 
0.0133624 0.0298863 0.999464 
0.0129972 0.0378161 0.9992 
0.0127429 0.0474795 0.998791 
0.0123113 0.0596571 0.998143 
0.0120131 0.0745766 0.997143 
0.0116519 0.0934883 0.995552 
0.0113703 0.116747 0.993097 
0.011252 0.144696 0.989412 
0.0112064 0.18029 0.98355 
0.011393 0.226411 0.973965 
0.011852 0.281145 0.959592 
0.0127882 0.347307 0.937664 
0.0137775 0.437011 0.89935 
0.0155473 0.53555 0.84436 
0.0173022 0.648996 0.760595 
0.0171684 0.757751 0.652318 
0.0140091 0.856057 0.516691 
0.0102863 0.938125 0.346144 
0.00471029 0.990786 0.135356 
-0.00428665 0.990294 -0.138924 
-0.0095748 0.935197 -0.353998 
-0.0145415 0.843971 -0.536191 
-0.0153778 0.733063 -0.679987 
-0.0156224 0.627525 -0.778439 
-0.0148874 0.526095 -0.850295 
-0.0136813 0.434546 -0.900546 
-0.0125717 0.355249 -0.934687 
-0.0118076 0.2861 -0.958127 
-0.0112608 0.230817 -0.972932 
-0.0111037 0.18243 -0.983156 
-0.0111515 0.14571 -0.989264 
-0.0113304 0.11623 -0.993158 
-0.0115772 0.0937032 -0.995533 
-0.0119139 0.0746563 -0.997138 
-0.0123221 0.0598827 -0.998129 
-0.0127021 0.0476036 -0.998786 
-0.0131197 0.0378578 -0.999197 
-0.0134179 0.0299372 -0.999462 
-0.0136868 0.0234665 -0.999631 
-0.0138695 0.0182468 -0.999737 
-0.0140627 0.0139995 -0.999803 
-0.0141897 0.0104522 -0.999845 
-0.0144521 0.00749592 -0.999867 
-0.0143901 0.00487101 -0.999885 
-0.0145955 0.00254222 -0.99989 
-0.0144023 0.000313344 -0.999896 
-0.0146524 -0.00174542 -0.999891 
-0.0143751 -0.00383988 -0.999889 
-0.0142678 -0.00585528 -0.999881 
-0.0141111 -0.00784948 -0.99987 
-0.0137928 -0.00978426 -0.999857 
-0.0134721 -0.0118349 -0.999839 
-0.0130718 -0.0140913 -0.999815 
-0.0125307 -0.01649 -0.999786 
-0.0119381 -0.0185239 -0.999757 
-0.0106888 -0.0194231 -0.999754 
-0.00914352 -0.0190946 -0.999776 
-0.00706834 -0.0149585 -0.999863 
-6.74863e-05 -1.11471e-05 -1 
5.10249e-05 -2.06338e-05 1 
0.00580831 -0.0145693 0.999877 
0.00806924 -0.0187262 0.999792 
0.00929864 -0.0191095 0.999774 
0.0104425 -0.0183217 0.999778 
0.0107987 -0.0161824 0.999811 
0.0114874 -0.0135344 0.999842 
0.0116439 -0.0113042 0.999868 
0.0119059 -0.00919939 0.999887 
0.0120324 -0.00724309 0.999901 
0.012168 -0.0052196 0.999912 
0.0123776 -0.00304354 0.999919 
0.0124139 -0.000879479 0.999923 
0.0124453 0.00123757 0.999922 
0.0124889 0.00361651 0.999915 
0.0125377 0.00607856 0.999903 
0.0124543 0.00888662 0.999883 
0.0123476 0.0122236 0.999849 
0.0121899 0.0161021 0.999796 
0.0119636 0.0209117 0.99971 
0.0117511 0.0268339 0.999571 
0.0115134 0.0339403 0.999358 
0.0112335 0.0431008 0.999008 
0.0109897 0.0538747 0.998487 
0.0107135 0.0680656 0.997623 
0.0105503 0.0850605 0.99632 
0.0104086 0.106789 0.994227 
0.0104644 0.133898 0.99094 
0.0107494 0.1656 0.986134 
0.0113393 0.208342 0.97799 
0.0123572 0.261631 0.965089 
0.0139045 0.323741 0.946043 
0.0158198 0.40923 0.912294 
0.0188642 0.508566 0.860816 
0.0220899 0.624378 0.78081 
0.0241687 0.751029 0.659826 
0.0206241 0.860409 0.509187 
0.0144759 0.946671 0.321878 
0.0113891 0.982998 0.183262 
0.00326022 0.999373 0.0352682 
0.000772058 0.999923 0.0123835 
-0.0120804 0.957725 -0.28743 
-0.018545 0.878967 -0.476523 
-0.0213427 0.744773 -0.666977 
-0.0211629 0.630764 -0.775686 
-0.0189593 0.521929 -0.852778 
-0.0164649 0.425855 -0.904642 
-0.0141301 0.342893 -0.939268 
-0.0124854 0.27347 -0.9618 
-0.0113726 0.217858 -0.975914 
-0.0107104 0.171581 -0.985112 
-0.0104506 0.136589 -0.990573 
-0.010304 0.109937 -0.993885 
-0.0104509 0.0876378 -0.996098 
-0.0105936 0.0699994 -0.997491 
-0.010945 0.0558987 -0.998376 
-0.0112233 0.0444118 -0.99895 
-0.0115537 0.0353929 -0.999307 
-0.0118144 0.0279005 -0.999541 
-0.0120038 0.0218927 -0.999688 
-0.0121401 0.0169785 -0.999782 
-0.0123074 0.0129659 -0.99984 
-0.0124317 0.00955602 -0.999877 
-0.012653 0.0067854 -0.999897 
-0.0126357 0.00414451 -0.999912 
-0.0127902 0.0019252 -0.999916 
-0.0126389 -0.000392596 -0.99992 
-0.012804 -0.00235359 -0.999915 
-0.0125125 -0.00447236 -0.999912 
-0.0124293 -0.00647781 -0.999902 
-0.012167 -0.00833846 -0.999891 
-0.0118722 -0.0102528 -0.999877 
-0.0115782 -0.0123042 -0.999857 
-0.011186 -0.0145508 -0.999832 
-0.0106805 -0.016917 -0.9998 
-0.0101746 -0.0188409 -0.999771 
-0.0090471 -0.0196489 -0.999766 
-0.00770802 -0.019103 -0.999788 
-0.00605582 -0.0146393 -0.999875 
-5.89891e-05 -1.48774e-05 -1 
4.47535e-05 -1.4154e-05 1 
0.00498003 -0.0150471 0.999874 
0.00690507 -0.0190162 0.999795 
0.00788121 -0.0193117 0.999782 
0.00888126 -0.0184341 0.999791 
0.0089004 -0.0165937 0.999823 
0.00972072 -0.0142514 0.999851 
0.00980258 -0.0119094 0.999881 
0.0100684 -0.00980232 0.999901 
0.0101896 -0.00785681 0.999917 
0.0103613 -0.00587979 0.999929 
0.0106062 -0.00373911 0.999937 
0.0106422 -0.00157202 0.999942 
0.0105934 0.000611598 0.999944 
0.0107596 0.00284775 0.999938 
0.0107199 0.00533833 0.999928 
0.0107053 0.00797421 0.999911 
0.0106508 0.0110995 0.999882 
0.0104762 0.0147835 0.999836 
0.0103414 0.0191412 0.999763 
0.0101626 0.0245986 0.999646 
0.00992925 0.0311783 0.999465 
0.00978841 0.0392254 0.999182 
0.00951683 0.0492535 0.998741 
0.00943702 0.06142 0.998067 
0.00928604 0.0770522 0.996984 
0.00931385 0.0957535 0.995362 
0.00947418 0.119953 0.992734 
0.00985627 0.149043 0.988782 
0.0106854 0.184892 0.982701 
0.0118983 0.230183 0.973075 
0.0137824 0.284993 0.95843 
0.0165181 0.361888 0.932075 
0.0199139 0.445964 0.894829 
0.0248196 0.553453 0.83251 
0.0298381 0.675096 0.737126 
0.0317693 0.80988 0.585735 
0.0266185 0.906612 0.421125 
0.0261237 0.958228 0.284811 
-0.0011046 0.999811 -0.0193843 
-0.00787526 0.99102 -0.133484 
-0.022305 0.930473 -0.365682 
-0.0267869 0.822109 -0.5687 
-0.0290783 0.707766 -0.705848 
-0.0258097 0.588072 -0.808397 
-0.0216761 0.48184 -0.875991 
-0.0176282 0.389281 -0.92095 
-0.0146007 0.313827 -0.949368 
-0.012585 0.255117 -0.966828 
-0.0113009 0.213278 -0.976926 
-0.010344 0.178389 -0.983906 
-0.00983232 0.146965 -0.989093 
-0.00934133 0.118327 -0.992931 
-0.00922966 0.0945893 -0.995474 
-0.00921718 0.0759811 -0.997067 
-0.00937191 0.0604394 -0.998128 
-0.00960014 0.0484741 -0.998778 
-0.00979608 0.0385634 -0.999208 
-0.0100699 0.0307271 -0.999477 
-0.0102309 0.0242242 -0.999654 
-0.0103654 0.0189237 -0.999767 
-0.0104817 0.0145196 -0.99984 
-0.010643 0.0108868 -0.999884 
-0.0107145 0.00778076 -0.999912 
-0.0109527 0.00520239 -0.999926 
-0.010889 0.00267346 -0.999937 
-0.0110674 0.000494534 -0.999939 
-0.0108452 -0.00186567 -0.999939 
-0.010899 -0.00380748 -0.999933 
-0.010692 -0.00602752 -0.999925 
-0.0103764 -0.0079737 -0.999914 
-0.0101584 -0.00985539 -0.9999 
-0.00989116 -0.0118752 -0.999881 
-0.00953865 -0.0140882 -0.999855 
-0.00910173 -0.0164959 -0.999823 
-0.00865188 -0.018668 -0.999788 
-0.00797141 -0.0196657 -0.999775 
-0.00667453 -0.0193407 -0.999791 