# vtk DataFile Version 3.0 
Exported using Morpho https://github.com/Morpho-lang/morpho 
ASCII 
DATASET UNSTRUCTURED_GRID 

POINTS 1978 float 
-8.48529 -2.82843 1.39659e-10 
-8.25293 -2.82844 1.16455e-09 
-8.02409 -2.82843 8.87626e-10 
-7.79298 -2.82842 3.44473e-10 
-7.50474 -2.82844 2.48486e-10 
-7.25312 -2.82845 3.97207e-10 
-6.99641 -2.82841 4.85503e-10 
-6.77439 -2.82844 3.9833e-10 
-6.55809 -2.82843 4.20727e-10 
-6.35157 -2.82843 3.68663e-10 
-6.13224 -2.82843 4.16155e-10 
-5.9266 -2.82843 3.61746e-10 
-5.71091 -2.82843 4.14913e-10 
-5.51852 -2.82843 3.40128e-10 
-5.28257 -2.82843 4.07086e-10 
-5.07925 -2.82843 4.43775e-10 
-4.86951 -2.82843 4.79311e-10 
-4.66183 -2.82843 4.93051e-10 
-4.44686 -2.82843 5.41927e-10 
-4.23551 -2.82843 5.61496e-10 
-4.02459 -2.82843 5.71234e-10 
-3.82462 -2.82843 5.18907e-10 
-3.61652 -2.82843 4.3459e-10 
-3.40648 -2.82843 2.91419e-10 
-3.18755 -2.82843 1.00443e-10 
-2.96661 -2.82843 -1.50697e-10 
-2.73782 -2.82843 -2.8011e-10 
-2.49167 -2.82843 1.09254e-10 
-2.24267 -2.82843 1.45746e-09 
-2.00689 -2.82843 5.71097e-09 
-1.75968 -2.82843 2.0188e-08 
-1.56415 -2.82843 6.11812e-08 
-1.35751 -2.82843 2.42076e-07 
-1.13122 -2.82842 7.83433e-07 
-1.00082 -2.8284 1.68057e-06 
-0.880518 -2.82845 2.66072e-06 
-0.771839 -2.82844 7.4335e-06 
-0.660845 -2.82827 3.54173e-05 
-0.332603 -2.82847 5.00128e-05 
0.217251 -2.8286 -6.01309e-05 
0.418021 -2.82832 -6.42863e-05 
0.662357 -2.8284 -2.26649e-05 
0.775296 -2.82845 -6.74484e-06 
0.894455 -2.82839 -2.55226e-06 
1.05857 -2.82842 -1.1101e-06 
1.18585 -2.82842 -4.51471e-07 
1.39405 -2.82843 -1.24917e-07 
1.58658 -2.82842 -3.79752e-08 
1.82486 -2.82843 -1.11932e-08 
2.07358 -2.82843 -2.75295e-09 
2.29689 -2.82843 -8.76498e-10 
2.54064 -2.82843 1.10459e-10 
2.74894 -2.82842 2.44747e-10 
2.96221 -2.82844 7.40483e-11 
3.17433 -2.82843 -1.08583e-10 
3.39858 -2.82843 -3.21104e-10 
3.61888 -2.82843 -4.76276e-10 
3.82062 -2.82843 -5.44904e-10 
4.03793 -2.82843 -5.29257e-10 
4.25279 -2.82843 -5.59645e-10 
4.45484 -2.82843 -5.57107e-10 
4.66388 -2.82843 -5.26276e-10 
4.86433 -2.82843 -4.81132e-10 
5.07704 -2.82843 -4.56836e-10 
5.28164 -2.82843 -4.03778e-10 
5.50136 -2.82843 -3.82004e-10 
5.70592 -2.82843 -3.91189e-10 
5.92461 -2.82843 -3.48598e-10 
6.1499 -2.82843 -3.77967e-10 
6.35668 -2.82843 -3.98997e-10 
6.58891 -2.82843 -3.5736e-10 
6.80521 -2.82843 -5.09068e-10 
7.00787 -2.82843 -3.73786e-10 
7.29143 -2.82843 -3.65235e-10 
7.50966 -2.82844 -5.42972e-10 
7.74977 -2.82843 -2.27516e-10 
8.03282 -2.82843 -8.47444e-10 
8.22444 -2.82844 -9.79031e-10 
8.48528 -2.82843 1.56154e-10 
-8.48529 -2.58093 -1.88304e-09 
-8.25792 -2.59362 -9.02265e-20 
-8.02453 -2.58694 -5.55048e-20 
-7.78901 -2.59387 6.90373e-20 
-7.54369 -2.64471 4.80116e-21 
-7.26205 -2.62545 2.43278e-21 
-7.00509 -2.6048 5.7497e-20 
-6.76635 -2.59636 4.7842e-20 
-6.54275 -2.58345 6.89511e-20 
-6.31122 -2.60136 4.28312e-20 
-6.08928 -2.58341 7.05345e-20 
-5.86887 -2.59417 4.89391e-20 
-5.66644 -2.56333 8.08254e-20 
-5.44185 -2.61422 2.31273e-20 
-5.22841 -2.58098 6.4664e-20 
-5.01496 -2.59001 6.08154e-20 
-4.80072 -2.58905 5.83714e-20 
-4.58333 -2.59832 4.86736e-20 
-4.36471 -2.59437 3.9378e-20 
-4.14672 -2.5944 2.59792e-20 
-3.93718 -2.58164 1.1817e-20 
-3.72682 -2.59029 -2.16138e-20 
-3.51114 -2.58975 -4.87467e-20 
-3.29126 -2.59471 -7.30556e-20 
-3.06544 -2.58964 -9.45622e-20 
-2.83663 -2.59062 -1.05073e-19 
-2.5991 -2.60175 -1.33877e-19 
-2.35073 -2.60291 -2.21287e-19 
-2.10674 -2.59522 -2.64138e-19 
-1.86733 -2.61823 -8.8444e-19 
-1.64132 -2.5902 -1.62024e-18 
-1.44552 -2.62972 1.41566e-18 
-1.23146 -2.67231 -5.4714e-18 
-1.06082 -2.61617 -9.3518e-17 
-0.935433 -2.6371 -7.15821e-17 
-0.856147 -2.48617 5.73614e-17 
-0.819116 -2.66492 -2.334e-16 
-0.581776 -2.78163 7.95161e-16 
-0.261633 -2.79172 -6.69693e-15 
0.116368 -2.7531 7.08029e-16 
0.308401 -2.76474 -2.91392e-15 
0.576284 -2.77113 -1.19375e-15 
0.783212 -2.67958 7.64089e-17 
0.875123 -2.56717 2.51308e-16 
0.956518 -2.69562 1.77921e-16 
1.09914 -2.58712 9.94614e-18 
1.28152 -2.6578 1.26309e-17 
1.49651 -2.60405 2.55495e-18 
1.72903 -2.62539 2.51389e-18 
1.98995 -2.62068 7.91689e-19 
2.24439 -2.58869 3.52506e-19 
2.48464 -2.60894 1.3268e-19 
2.73526 -2.5705 1.77977e-19 
2.9598 -2.58035 9.49277e-20 
3.19325 -2.59638 8.75606e-20 
3.42445 -2.59481 6.94223e-20 
3.63529 -2.57813 2.82612e-20 
3.85712 -2.59898 1.17672e-20 
4.07923 -2.59847 -1.50788e-20 
4.28906 -2.58451 -5.06785e-20 
4.50141 -2.593 -5.16276e-20 
4.70946 -2.58214 -6.97229e-20 
4.92366 -2.59607 -5.15736e-20 
5.1364 -2.58583 -6.25756e-20 
5.3571 -2.60223 -4.40247e-20 
5.57193 -2.58355 -6.56313e-20 
5.79013 -2.59745 -4.64011e-20 
6.01856 -2.60188 -4.2057e-20 
6.23785 -2.57848 -6.90313e-20 
6.46099 -2.6041 -3.40537e-20 
6.6886 -2.58488 -6.73265e-20 
6.89962 -2.56658 -9.57962e-20 
7.1365 -2.64069 3.32182e-20 
7.38082 -2.58252 -9.91063e-20 
7.60983 -2.60483 -7.34667e-20 
7.87369 -2.63818 3.60999e-20 
8.08406 -2.54685 2.29838e-20 
8.30818 -2.61984 7.8158e-20 
8.48529 -2.52113 1.56764e-09 
-8.48528 -2.34047 -9.63907e-10 
-8.25299 -2.35519 4.77931e-21 
-8.01496 -2.34966 6.05637e-20 
-7.76215 -2.38122 2.02206e-19 
-7.54657 -2.23023 9.04977e-20 
-7.49635 -2.44264 1.82595e-19 
-7.21652 -2.42685 1.5685e-19 
-6.97389 -2.35898 1.28638e-19 
-6.74871 -2.36935 1.07968e-19 
-6.49998 -2.36291 1.05139e-19 
-6.26948 -2.36938 9.4463e-20 
-6.03552 -2.35164 8.46546e-20 
-5.82881 -2.33596 7.70425e-20 
-5.5816 -2.35758 8.81151e-20 
-5.37442 -2.3658 8.5862e-20 
-5.14435 -2.35095 8.26884e-20 
-4.92448 -2.35717 8.49172e-20 
-4.70035 -2.36321 8.8777e-20 
-4.48206 -2.368 8.53337e-20 
-4.2587 -2.3658 7.41998e-20 
-4.04619 -2.34867 5.02577e-20 
-3.83121 -2.34748 2.65629e-20 
-3.61971 -2.35553 -3.4272e-21 
-3.40142 -2.35764 -4.28968e-20 
-3.18262 -2.35945 -8.42709e-20 
-2.95559 -2.35382 -1.18821e-19 
-2.72486 -2.3608 -1.52307e-19 
-2.49002 -2.37401 -1.92848e-19 
-2.25007 -2.37016 -2.29766e-19 
-2.00126 -2.37788 -5.36517e-19 
-1.77473 -2.38702 -1.34541e-18 
-1.54362 -2.37865 -6.22846e-18 
-1.33644 -2.47082 -2.77582e-17 
-1.15137 -2.45406 -2.73877e-17 
-0.992977 -2.40065 2.90233e-17 
-0.765371 -2.37097 2.06223e-17 
-0.72517 -2.63417 -4.1396e-16 
-0.469693 -2.74526 -1.32268e-16 
-0.379513 -2.70089 -2.40616e-15 
0.0306364 -2.80718 -2.2974e-14 
0.201653 -2.68395 3.79758e-15 
0.492117 -2.71436 1.31168e-15 
0.727102 -2.51762 1.85302e-17 
0.848999 -2.40561 -8.62842e-18 
1.00714 -2.45241 8.68427e-17 
1.16559 -2.32172 -3.88163e-17 
1.26091 -2.45196 5.73755e-17 
1.44072 -2.40906 1.51315e-17 
1.67195 -2.40833 4.29688e-18 
1.90752 -2.41787 9.68564e-19 
2.1552 -2.38279 3.28766e-19 
2.41598 -2.36854 2.00257e-19 
2.64484 -2.36293 1.73049e-19 
2.9075 -2.34272 1.42981e-19 
3.13902 -2.3605 1.03371e-19 
3.36432 -2.36572 5.50572e-20 
3.58428 -2.33463 1.50057e-20 
3.79916 -2.36308 -2.34824e-20 
4.01549 -2.37166 -5.54849e-20 
4.2299 -2.34993 -6.61843e-20 
4.44412 -2.35492 -7.7257e-20 
4.65091 -2.34559 -7.76071e-20 
4.86625 -2.35769 -8.24397e-20 
5.07523 -2.35268 -8.13875e-20 
5.29663 -2.3691 -8.83953e-20 
5.50946 -2.35249 -8.29092e-20 
5.73172 -2.35895 -8.75118e-20 
5.95074 -2.37473 -9.37615e-20 
6.1714 -2.34875 -8.606e-20 
6.40312 -2.36093 -9.48606e-20 
6.61846 -2.35857 -9.84606e-20 
6.84104 -2.31766 -9.09039e-20 
7.07289 -2.3931 -1.40196e-19 
7.28772 -2.38582 -1.63346e-19 
7.55124 -2.35992 -1.70501e-19 
7.78312 -2.42111 -2.10072e-19 
7.99392 -2.32875 -7.492e-20 
8.24906 -2.35417 -3.00096e-20 
8.48529 -2.29219 5.51826e-10 
-8.48528 -2.10706 -2.1075e-10 
-8.24993 -2.10879 -6.87703e-20 
-8.03628 -2.11337 -8.77655e-20 
-7.79563 -2.1492 3.95945e-20 
-7.50827 -2.02593 1.42987e-20 
-7.28848 -2.23415 1.06199e-19 
-7.06112 -2.14936 1.57181e-20 
-6.80433 -2.12896 2.16873e-20 
-6.58247 -2.14873 1.86409e-20 
-6.34262 -2.1355 1.40462e-20 
-6.12679 -2.13122 1.3035e-20 
-5.91178 -2.08831 3.55232e-21 
-5.68998 -2.13706 1.19293e-20 
-5.47352 -2.11295 4.77052e-21 
-5.26465 -2.13502 7.15358e-21 
-5.03921 -2.12365 1.6199e-21 
-4.82082 -2.13309 3.05245e-21 
-4.60557 -2.13224 1.63008e-21 
-4.39114 -2.14131 3.09522e-21 
-4.18222 -2.1231 -4.25304e-21 
-3.96887 -2.11407 -9.09082e-21 
-3.75769 -2.11285 -1.45951e-20 
-3.54547 -2.12392 -2.23226e-20 
-3.32809 -2.12296 -3.96465e-20 
-3.10489 -2.12727 -6.36882e-20 
-2.87146 -2.12314 -9.19688e-20 
-2.63314 -2.13225 -1.28524e-19 
-2.39082 -2.14262 -1.74597e-19 
-2.13275 -2.1559 -3.61581e-19 
-1.8813 -2.1519 -4.76893e-19 
-1.65026 -2.16655 -1.16692e-18 
-1.43986 -2.12633 2.37409e-18 
-1.32259 -2.26414 8.37222e-18 
-1.16028 -2.23224 1.3356e-17 
-0.961618 -2.26034 6.27749e-17 
-0.798372 -2.21858 6.59678e-17 
-0.676666 -2.507 -1.87627e-16 
-0.597768 -2.63877 -3.07197e-16 
-0.186208 -2.76117 8.15069e-15 
0.0859915 -2.62958 1.3737e-15 
0.399562 -2.66498 1.69211e-15 
0.670108 -2.66278 9.90492e-16 
0.597979 -2.45473 -2.64985e-16 
0.837055 -2.22946 -1.65206e-16 
0.992092 -2.26071 -5.53091e-17 
1.1298 -2.12953 -1.61154e-17 
1.34731 -2.19344 -9.47841e-18 
1.55572 -2.19791 9.79085e-19 
1.78482 -2.19385 8.79142e-19 
2.01066 -2.18188 4.79112e-19 
2.2586 -2.16041 2.78128e-19 
2.48702 -2.11848 1.88747e-19 
2.72802 -2.14835 1.38672e-19 
2.96571 -2.1146 6.84755e-20 
3.18615 -2.12438 4.32057e-20 
3.40116 -2.12449 2.62427e-20 
3.62269 -2.10154 1.93757e-20 
3.83762 -2.13329 8.9528e-21 
4.04965 -2.13631 1.30436e-21 
4.26912 -2.11995 4.53231e-21 
4.47581 -2.11331 3.56675e-21 
4.69407 -2.11813 1.93379e-21 
4.90215 -2.11726 1.28881e-21 
5.12514 -2.13047 -3.80533e-21 
5.33465 -2.1287 -7.36781e-21 
5.55772 -2.12491 -7.96494e-21 
5.77792 -2.12801 -1.0653e-20 
5.99239 -2.13615 -1.46461e-20 
6.22927 -2.12754 -1.06246e-20 
6.44451 -2.11515 -9.12669e-21 
6.66032 -2.11347 -1.12385e-20 
6.92019 -2.11273 -1.49281e-20 
7.12728 -2.14149 -2.87934e-20 
7.36818 -2.17437 -5.46265e-20 
7.57029 -2.08386 -2.2307e-20 
7.76017 -2.17866 -6.83704e-20 
7.97201 -2.08253 6.25464e-20 
8.19703 -2.13709 1.42323e-19 
8.48528 -2.10291 3.90592e-10 
-8.4853 -1.80437 6.40087e-11 
-8.31448 -1.86889 -4.41685e-20 
-7.89812 -1.90401 -4.48607e-20 
[...]
POINT_DATA 1978 
VECTORS vectors float
0.00522337 -0.0126285 0.999909 
0.00422977 -0.0168351 0.999852 
0.0034178 -0.0150053 0.999883 
0.00402653 -0.0122599 0.999921 
0.00462767 -0.0102296 0.999939 
0.00448586 -0.0090292 0.99995 
0.00422985 -0.0079961 0.999963 
0.00416379 -0.00725015 0.999967 
0.00399994 -0.00656501 0.999973 
0.00408576 -0.00609759 0.999975 
0.00408697 -0.00575594 0.999978 
0.0041779 -0.00549502 0.999979 
0.00409034 -0.00530845 0.99998 
0.00438065 -0.0052925 0.999979 
0.0044468 -0.00527532 0.999979 
0.0042996 -0.005287 0.999979 
0.00439048 -0.00538427 0.999979 
0.00449992 -0.00543556 0.999978 
0.00454556 -0.00540408 0.999978 
0.00449051 -0.00519032 0.999979 
0.00432317 -0.00475404 0.999982 
0.00419113 -0.00404501 0.999986 
0.00409335 -0.00281169 0.99999 
0.00390484 -0.000814769 0.999995 
0.0036403 0.00226582 0.999993 
0.00331574 0.00652477 0.999976 
0.003062 0.0121529 0.999924 
0.00260199 0.0197085 0.999805 
0.00144571 0.030284 0.999543 
-0.000429065 0.0459118 0.998948 
-0.00290397 0.0709903 0.997475 
-0.0055486 0.100983 0.994875 
-0.0114117 0.143726 0.989553 
-0.019276 0.223753 0.974458 
-0.0233416 0.290737 0.956529 
-0.0261734 0.363807 0.931118 
-0.0346029 0.444517 0.895111 
-0.0360895 0.536592 0.843051 
0.000235978 0.879979 0.475022 
-0.003154 0.958506 -0.285144 
0.0230172 0.792855 -0.608974 
0.0368117 0.576466 -0.816288 
0.0363385 0.472162 -0.880771 
0.0301846 0.375233 -0.92645 
0.0247465 0.277097 -0.96053 
0.0200384 0.210382 -0.977417 
0.0126366 0.134696 -0.990808 
0.00620724 0.0932304 -0.995627 
0.00236863 0.0620254 -0.998074 
-0.000276079 0.0418957 -0.999125 
-0.00163334 0.0297968 -0.999557 
-0.0022056 0.01967 -0.999807 
-0.00247838 0.0127922 -0.999918 
-0.00296959 0.00697671 -0.999973 
-0.00347923 0.00247323 -0.999994 
-0.00393121 -0.000953809 -0.999994 
-0.00406277 -0.00310585 -0.99999 
-0.00435128 -0.00421161 -0.999984 
-0.00455692 -0.00485325 -0.99998 
-0.00442768 -0.00528855 -0.999979 
-0.00440663 -0.00547733 -0.999978 
-0.00435131 -0.00551655 -0.999978 
-0.00437934 -0.00546435 -0.999978 
-0.00435341 -0.00536781 -0.999979 
-0.00438147 -0.00528468 -0.999979 
-0.00431141 -0.00525188 -0.99998 
-0.00426053 -0.00528232 -0.99998 
-0.00437566 -0.00543769 -0.999978 
-0.0042008 -0.0057348 -0.999977 
-0.00419844 -0.00608785 -0.999975 
-0.00420822 -0.00666931 -0.999972 
-0.0039092 -0.00731315 -0.999968 
-0.00435709 -0.00801504 -0.999961 
-0.00440471 -0.00932695 -0.999949 
-0.00401396 -0.0104167 -0.99994 
-0.00422335 -0.0120238 -0.999921 
-0.00354741 -0.0150727 -0.999883 
-0.00421721 -0.0165372 -0.999857 
-0.00518204 -0.012052 -0.999916 
0.00713863 -0.00922701 0.999936 
0.00555495 -0.0140243 0.99989 
0.00554684 -0.0148742 0.999881 
0.00604201 -0.0128301 0.999905 
0.00580295 -0.0106997 0.99993 
0.00610988 -0.00901826 0.999947 
0.00654128 -0.00798527 0.999952 
0.00670902 -0.00717222 0.999957 
0.00708537 -0.00657168 0.999958 
0.00692256 -0.00606791 0.999963 
0.00733982 -0.00571691 0.999962 
0.0072591 -0.00546925 0.999964 
0.00787157 -0.0053726 0.99996 
0.00715506 -0.00533364 0.999965 
0.00795751 -0.00538016 0.999959 
0.00803992 -0.00544109 0.999958 
0.00828076 -0.00549873 0.999956 
0.00832066 -0.00546385 0.999955 
0.00858986 -0.00528175 0.999954 
0.00871344 -0.00485602 0.999955 
0.00902221 -0.00411874 0.999956 
0.00874354 -0.00296997 0.999962 
0.00854162 -0.00116587 0.999968 
0.00812735 0.00148077 0.999971 
0.00786797 0.00526561 0.99996 
0.00744477 0.0102788 0.999925 
0.00679688 0.0169935 0.999838 
0.00634853 0.0266511 0.99963 
0.0060473 0.0407325 0.999157 
0.00480705 0.0612932 0.998113 
0.00494654 0.0908877 0.995853 
0.0026665 0.127316 0.991863 
-0.000287557 0.188125 0.982149 
0.00826535 0.258436 0.965995 
0.0114578 0.325648 0.945422 
0.0627369 0.343486 0.937059 
0.0158027 0.40173 0.915624 
-0.00560277 0.621517 0.783378 
0.00535365 0.916614 0.399708 
-0.0170678 0.986434 -0.163187 
-0.0235597 0.877808 -0.478412 
0.00518483 0.657068 -0.753811 
-0.000565576 0.45411 -0.890946 
-0.0195573 0.369358 -0.92908 
0.0102246 0.333975 -0.942527 
-0.00162791 0.246203 -0.969216 
0.00430702 0.171875 -0.985113 
0.000185319 0.115919 -0.993263 
-0.0015889 0.0774867 -0.996997 
-0.00378657 0.0505492 -0.99872 
-0.00574344 0.0339606 -0.999412 
-0.00598108 0.0226509 -0.999731 
-0.00738649 0.0139353 -0.999881 
-0.00740408 0.00785222 -0.999948 
-0.00754593 0.00299829 -0.999972 
-0.00809039 -0.000371767 -0.999972 
-0.00875929 -0.00240589 -0.999964 
-0.00851845 -0.0038611 -0.999961 
-0.00864769 -0.00472813 -0.999956 
-0.00886534 -0.00522611 -0.999952 
-0.00854214 -0.0054852 -0.999953 
-0.00852999 -0.00557454 -0.999953 
-0.00803333 -0.00553129 -0.999957 
-0.00799789 -0.00545125 -0.999958 
-0.00752283 -0.00535297 -0.999962 
-0.00768219 -0.00533376 -0.999961 
-0.0072887 -0.0053934 -0.999964 
-0.0070964 -0.00560089 -0.999964 
-0.0073389 -0.00593348 -0.999961 
-0.00678419 -0.00637154 -0.999962 
-0.00699041 -0.00695171 -0.999957 
-0.00713837 -0.00760478 -0.999951 
-0.00583151 -0.00855231 -0.999952 
-0.00669518 -0.00980076 -0.999935 
-0.00614298 -0.0112758 -0.999923 
-0.00530462 -0.0136143 -0.999898 
-0.00589571 -0.0154033 -0.99987 
-0.00519652 -0.0130501 -0.999906 
-0.00660157 -0.00939592 -0.999937 
0.00568661 -0.00793855 0.999956 
0.00600899 -0.013905 0.999892 
0.00670199 -0.0155143 0.999863 
0.00748407 -0.0130783 0.99989 
0.00728484 -0.0113043 0.999914 
0.00770021 -0.0106205 0.99992 
0.00807281 -0.00894998 0.999931 
0.00812996 -0.00788872 0.999941 
0.00817088 -0.00713507 0.999947 
0.00838047 -0.00653614 0.999949 
0.00850382 -0.00607911 0.99995 
0.00859116 -0.00573881 0.999952 
0.00862742 -0.00555364 0.999952 
0.00893689 -0.00546619 0.99995 
0.00908857 -0.00550091 0.999949 
0.00935707 -0.00561845 0.999945 
0.00969591 -0.00570298 0.999942 
0.0100896 -0.00570623 0.999938 
0.0104426 -0.00555666 0.999935 
0.0107401 -0.0051668 0.999934 
0.0109414 -0.0044824 0.999935 
0.0110672 -0.003366 0.999938 
0.0110865 -0.00176846 0.999942 
0.0110271 0.00052692 0.999944 
0.0109137 0.00363339 0.999939 
0.0108149 0.00789945 0.999915 
0.0106644 0.0135557 0.999857 
0.0105553 0.0212087 0.999725 
0.0110018 0.0321005 0.999429 
0.0118457 0.0484296 0.998762 
0.0131764 0.0705274 0.997428 
0.0175561 0.102575 0.994575 
0.0149772 0.148548 0.988794 
0.026759 0.202018 0.979018 
0.0590207 0.252355 0.965834 
0.117376 0.348997 0.929744 
0.0349287 0.483601 0.874582 
0.0339921 0.73242 0.679993 
0.0647153 0.811409 0.580881 
-0.00400364 0.999312 -0.0352098 
-0.0539696 0.947679 -0.314607 
-0.0307626 0.713921 -0.699543 
-0.0611964 0.452738 -0.889538 
-0.0722724 0.340155 -0.937589 
-0.0311045 0.276389 -0.960544 
-0.037961 0.196372 -0.979796 
-0.013042 0.178205 -0.98391 
-0.0118304 0.128696 -0.991617 
-0.00929569 0.0870046 -0.996169 
-0.00851639 0.0591558 -0.998217 
-0.00965993 0.0396328 -0.999173 
-0.0100908 0.0257526 -0.999623 
-0.0103004 0.0170059 -0.999808 
-0.0104257 0.00945175 -0.999906 
-0.0104506 0.00459529 -0.99994 
-0.0106433 0.00105953 -0.999948 
-0.0109529 -0.0014094 -0.999944 
-0.0109949 -0.00320271 -0.99994 
-0.010938 -0.00439475 -0.999935 
-0.010757 -0.00515002 -0.999934 
-0.010456 -0.00557729 -0.999935 
-0.0101324 -0.00577067 -0.999937 
-0.00979957 -0.00577385 -0.99994 
-0.0095 -0.00569357 -0.999944 
-0.00924361 -0.00555307 -0.999947 
-0.00901813 -0.00548273 -0.999949 
-0.00885018 -0.00548892 -0.999951 
-0.00873086 -0.00562717 -0.999951 
-0.00856091 -0.00592577 -0.999951 
-0.00842146 -0.00634288 -0.99995 
-0.00828154 -0.006826 -0.999948 
-0.00804542 -0.00745028 -0.999945 
-0.00813878 -0.00829413 -0.999938 
-0.00807323 -0.00934722 -0.999929 
-0.00771021 -0.0111475 -0.999914 
-0.00732495 -0.0132158 -0.999891 
-0.00679834 -0.0155481 -0.999861 
-0.00595934 -0.0141743 -0.999887 
-0.00499053 -0.00819902 -0.999958 
0.00393729 -0.0086225 0.999959 
0.0047535 -0.0145794 0.999888 
0.00545011 -0.0163769 0.999856 
0.00622194 -0.0139171 0.99989 
0.00577389 -0.0111304 0.999927 
0.00755024 -0.00939284 0.999934 
0.00688745 -0.00828806 0.999947 
0.00684996 -0.00734886 0.999955 
0.00710595 -0.00678586 0.999957 
0.00711742 -0.0063136 0.99996 
0.00717915 -0.00596371 0.999962 
0.00692068 -0.00573863 0.999965 
0.00744579 -0.00560557 0.999962 
0.00741748 -0.00565439 0.999961 
0.00781877 -0.00575415 0.999958 
0.00805032 -0.00591502 0.999955 
0.00850254 -0.00599151 0.999951 
0.00890365 -0.0059444 0.999948 
0.00938262 -0.00567368 0.999945 
0.00961347 -0.0051671 0.999945 
0.00989828 -0.00426786 0.999947 
0.0102029 -0.00292942 0.999949 
0.0105409 -0.00107076 0.999949 
0.0108241 0.00143087 0.999945 
0.0111588 0.0047902 0.999931 
0.0115675 0.00935566 0.999895 
0.0121541 0.0155189 0.999811 
0.0132219 0.0239776 0.999631 
0.0154789 0.0367919 0.999208 
0.0197129 0.054697 0.998314 
0.0261297 0.0784121 0.996582 
0.0395258 0.103208 0.993879 
0.0383327 0.137798 0.989722 
0.0593045 0.170186 0.983629 
0.0910812 0.232233 0.968389 
0.141358 0.280786 0.949301 
0.102269 0.469793 0.876829 
0.0750869 0.589688 0.804126 
0.01949 0.954283 0.298228 
-0.0402925 0.987772 -0.15048 
-0.0689491 0.784115 -0.616767 
-0.020507 0.55001 -0.834901 
-0.127474 0.494773 -0.859611 
-0.119305 0.289491 -0.949717 
-0.0731221 0.24345 -0.967155 
-0.0654399 0.173375 -0.982682 
-0.0364367 0.133924 -0.990326 
-0.0241474 0.0973918 -0.994957 
-0.0175169 0.0680865 -0.997531 
-0.014589 0.0476441 -0.998763 
-0.0131203 0.0319058 -0.99941 
-0.0124571 0.0215135 -0.999696 
-0.0115561 0.0138229 -0.999843 
-0.0110546 0.00797206 -0.999912 
-0.0107107 0.00387771 -0.99994 
-0.0105021 0.000752057 -0.99995 
-0.0102027 -0.00172318 -0.999952 
-0.0101567 -0.00345542 -0.999947 
-0.00988725 -0.00465301 -0.999945 
-0.0093959 -0.00546987 -0.999946 
-0.00896122 -0.00589333 -0.999947 
-0.00859583 -0.00605862 -0.99995 
-0.00822036 -0.00603899 -0.999953 
-0.00799217 -0.00588894 -0.999956 
-0.00771874 -0.0057364 -0.999959 
-0.00748129 -0.00562625 -0.999961 
-0.00735569 -0.00563388 -0.999962 
-0.00730713 -0.00578808 -0.999962 
-0.00711981 -0.00612395 -0.999961 
-0.00691269 -0.00653325 -0.99996 
-0.00679322 -0.00701074 -0.999958 
-0.00667316 -0.00774392 -0.999953 
-0.00681809 -0.00857977 -0.999945 
-0.00697491 -0.00996148 -0.99993 
-0.00608518 -0.0116469 -0.999919 
-0.00650188 -0.0134966 -0.999893 
-0.00536318 -0.0161241 -0.99986 
-0.00504145 -0.0158612 -0.999867 
-0.00398802 -0.00845735 -0.99996 
0.00208086 -0.0097862 0.999953 
0.00304457 -0.013348 0.99991 
0.00434701 -0.0157752 0.999871 
0.00468773 -0.0130228 0.999909 
0.00413365 -0.0107588 0.99994 
0.00571082 -0.00949396 0.999943 
0.0046308 -0.00882549 0.999956 
0.00535998 -0.00788182 0.99996 
0.00518047 -0.00718596 0.999966 
0.00549499 -0.00668452 0.999968 
0.00534567 -0.0062911 0.999971 
0.00536106 -0.00598357 0.999973 
0.00550128 -0.00577312 0.999973 
0.00567515 -0.00575998 0.999972 
0.00582091 -0.00589141 0.999971 
0.00623674 -0.00605208 0.999967 
0.00655698 -0.0062342 0.999964 
0.0069688 -0.00629433 0.999961 
0.00745688 -0.00615739 0.999958 
0.00784153 -0.00579358 0.999957 
0.00827023 -0.00506781 0.999958 
0.00872213 -0.00390348 0.999959 
0.00926516 -0.00223275 0.999959 
0.00984438 -4.84151e-05 0.999956 
0.0105176 0.00288254 0.999946 
0.0113062 0.00668085 0.999919 
0.012343 0.0118657 0.99986 
0.0140039 0.0188469 0.99973 
0.0169301 0.0289771 0.999442 
0.0223116 0.0426127 0.998848 
0.0316499 0.0607828 0.997655 
0.0463426 0.0810305 0.995637 
0.0683684 0.119024 0.99054 
0.0940954 0.161658 0.982353 
0.130761 0.197574 0.97153 
0.188179 0.257569 0.94776 
0.18651 0.536709 0.822889 
0.122085 0.663841 0.737848 
0.0798425 0.889748 0.449386 
0.0185827 0.978368 0.206082 
-0.0907096 0.856501 -0.508107 
-0.0759075 0.613532 -0.786007 
-0.142202 0.382268 -0.913041 
-0.172482 0.278698 -0.944762 
-0.115868 0.209499 -0.970923 
-0.0939756 0.14795 -0.984522 
-0.0597493 0.119743 -0.991009 
-0.0409829 0.0912064 -0.994993 
-0.028068 0.0668397 -0.997374 
-0.0208291 0.0472213 -0.998672 
-0.0164317 0.0328971 -0.999329 
-0.0142867 0.0218613 -0.999664 
-0.0124459 0.0143337 -0.999825 
-0.0113688 0.00887138 -0.999901 
-0.0104608 0.00440109 -0.999941 
-0.00983289 0.00117054 -0.999956 
-0.0093071 -0.00131884 -0.999961 
-0.00886923 -0.00334756 -0.99996 
-0.00846018 -0.00467575 -0.999958 
-0.0079899 -0.00557917 -0.999957 
-0.007366 -0.00614941 -0.999959 
-0.00702237 -0.00633863 -0.99996 
-0.00654526 -0.00634462 -0.999963 
-0.00636046 -0.0061687 -0.999966 
-0.00598612 -0.00598095 -0.999969 
-0.00584002 -0.00580735 -0.999971 
-0.00565675 -0.00574935 -0.999972 
-0.00553769 -0.00585431 -0.999973 
-0.00555146 -0.00611137 -0.999971 
-0.00521202 -0.00652881 -0.99997 
-0.00507157 -0.0069811 -0.999968 
-0.00521641 -0.00752712 -0.999963 
-0.00491193 -0.00842198 -0.999958 
-0.0052512 -0.00957917 -0.999946 
-0.00458785 -0.0114635 -0.999929 
-0.00454974 -0.0142624 -0.999893 
-0.0037291 -0.0170018 -0.999855 
-0.00353601 -0.0145689 -0.999892 
-0.00236065 -0.00894203 -0.999961 
0.00125995 -0.00922644 0.999959 
0.0019297 -0.0153913 0.999886 
0.00349031 -0.017258 0.999851 
0.00303353 -0.0160129 0.999872 
0.00335229 -0.0131375 0.999913 
0.00343027 -0.00968679 0.999952 
0.00369857 -0.00824469 0.999964 
0.00395525 -0.00757729 0.999969 
0.00403688 -0.00699016 0.999972 
0.00409063 -0.00658917 0.999975 
0.00404128 -0.0062292 0.999977 
0.00429095 -0.00594872 0.999978 
0.00425894 -0.00588514 0.999978 
0.00448706 -0.00595789 0.999977 
0.00469761 -0.00616213 0.999975 
0.00508641 -0.00636183 0.999972 
0.00538233 -0.00655081 0.999969 
0.00582862 -0.00658318 0.999966 
0.00622189 -0.00643697 0.999965 
0.00671809 -0.00599822 0.999964 
0.00723713 -0.00520477 0.999965 
0.00779714 -0.00398693 0.999966 
0.00843504 -0.00233369 0.999966 
0.00920827 -0.000135782 0.999962 
0.0100661 0.00256226 0.999951 
0.0111546 0.00607979 0.999924 
0.0125146 0.0103512 0.999872 
0.014425 0.0159749 0.999774 
0.0176835 0.0237231 0.999568 
0.0233959 0.033605 0.999167 
0.0319609 0.0458757 0.998441 
0.0456376 0.0576707 0.997297 
0.0628999 0.0779127 0.994978 
0.0853148 0.0863864 0.992607 
0.110278 0.116208 0.987088 
0.152919 0.152486 0.976406 
0.198965 0.38554 0.900983 
0.139666 0.769984 0.622618 
0.131728 0.876435 0.463061 
-0.00167848 0.999813 0.0193189 
-0.125271 0.899759 -0.417953 
-0.210496 0.556112 -0.804002 
-0.238084 0.304868 -0.922157 
-0.18233 0.201654 -0.962338 
-0.139964 0.148674 -0.978935 
-0.0929856 0.103434 -0.990284 
-0.0666104 0.0856901 -0.994097 
-0.0447668 0.0673039 -0.996733 
-0.0310501 0.0503613 -0.998254 
-0.0223115 0.036454 -0.999092 
-0.017332 0.0257471 -0.999525 
-0.0139979 0.0165472 -0.99977 
-0.0121998 0.0109276 -0.999871 
-0.0108394 0.00642018 -0.999926 
-0.0097281 0.00264661 -0.999954 
-0.00890548 -0.000167627 -0.999965 
-0.00826578 -0.00249173 -0.999968 
-0.00763432 -0.00419994 -0.999967 
-0.00710613 -0.00536999 -0.999965 
-0.00658344 -0.00613572 -0.999964 
-0.00598749 -0.00657875 -0.999965 
-0.00560554 -0.00666592 -0.999967 
-0.00520058 -0.00656552 -0.99997 
-0.00495714 -0.00634682 -0.999972 
-0.00463863 -0.00611885 -0.999975 
-0.00452453 -0.00592617 -0.999977 
-0.00434881 -0.00588058 -0.999978 
-0.00423453 -0.00601065 -0.999978 
-0.00420555 -0.00629377 -0.999976 
-0.00392355 -0.00672558 -0.999975 
-0.00384771 -0.00720859 -0.999972 
-0.00394233 -0.00780103 -0.999966 
-0.00357157 -0.00865886 -0.999961 
-0.00378774 -0.00986567 -0.999949 
-0.00327467 -0.0119169 -0.999929 
-0.00336525 -0.0144167 -0.999896 
-0.00269014 -0.0171965 -0.999854 
-0.00241966 -0.0159071 -0.999876 
-0.0015218 -0.00897465 -0.999962 
0.000770937 -0.00930484 0.999961 
0.00128061 -0.0162944 0.999871 
0.00229908 -0.0177402 0.999845 
0.00225571 -0.0147244 0.999895 
0.00279982 -0.0116108 0.999934 
0.00249942 -0.0100939 0.999951 
0.00288202 -0.00876754 0.999962 
0.00288515 -0.007877 0.999971 
0.00319861 -0.00734242 0.999972 
0.00315771 -0.00688755 0.999976 
0.00325858 -0.00649508 0.999979 
0.00340834 -0.00613784 0.99998 
0.00347943 -0.00599971 0.999981 
0.00359212 -0.00604494 0.99998 
0.00381703 -0.0062245 0.999978 
0.00406204 -0.00648976 0.999976 
0.00437745 -0.00671806 0.999973 
0.00475727 -0.00686452 0.99997 
0.00513314 -0.00684383 0.999968 
0.00561372 -0.00656011 0.999967 
0.0061475 -0.00594874 0.999968 
0.00672328 -0.00494243 0.99997 
0.00735669 -0.00348992 0.999972 
0.00814383 -0.00154756 0.99997 
0.00901143 0.000803605 0.999964 
0.0101135 0.00372365 0.999947 
0.0114266 0.0071333 0.999914 
0.0133194 0.0114775 0.999851 
0.0162793 0.0170559 0.999727 
0.0209495 0.0237272 0.999505 
0.0287116 0.0316009 0.999094 
0.0395739 0.0398459 0.998427 
0.0581467 0.0495087 0.997086 
0.0727202 0.0467284 0.996261 
0.0997636 0.060346 0.993184 
0.134898 0.0817623 0.987484 
0.208623 0.174469 0.962308 
0.257776 0.292113 0.92098 
0.0862296 0.602902 0.793139 
0.0454669 0.975183 0.21654 
-0.142875 0.686911 -0.712551 
-0.213378 0.40659 -0.888343 
-0.265908 0.246885 -0.931835 
-0.163691 0.0911294 -0.982298 
-0.119137 0.0869057 -0.98907 
-0.081789 0.0590888 -0.994903 
-0.0588604 0.0550944 -0.99675 
-0.0416711 0.0454756 -0.998101 
-0.0297224 0.0360883 -0.998912 
-0.0221841 0.0278266 -0.999371 
-0.0175004 0.0205804 -0.999639 
-0.0144683 0.0155285 -0.99978 
-0.0120272 0.0097729 -0.999885 
-0.0105283 0.00589386 -0.999932 
-0.00935594 0.00260336 -0.999958 
-0.00829888 -0.000351888 -0.99997 
-0.00763133 -0.00252737 -0.999973 
-0.00691411 -0.00432997 -0.999971 
-0.00630801 -0.0055906 -0.999969 
-0.00577291 -0.00639148 -0.999968 
-0.00527655 -0.00682768 -0.999967 
-0.00478025 -0.0069581 -0.999969 
-0.00445698 -0.00683561 -0.999971 
-0.00412316 -0.00659396 -0.999975 
-0.00388001 -0.00633007 -0.999977 
-0.00372075 -0.00608946 -0.999979 
-0.00357788 -0.00599101 -0.999981 
-0.00345201 -0.00607776 -0.999981 
-0.00335438 -0.00635268 -0.999979 
-0.00319862 -0.00674266 -0.999977 
-0.00307827 -0.00723166 -0.999975 
-0.00305172 -0.00782548 -0.99997 
-0.00279672 -0.00875647 -0.999963 
-0.00278229 -0.0101994 -0.999949 
-0.00236337 -0.0122025 -0.999928 
-0.00237644 -0.0147404 -0.999894 
-0.00187347 -0.0176866 -0.999847 
-0.00169588 -0.0166182 -0.999865 
-0.001109 -0.00923841 -0.999961 
0.000352371 -0.00975654 0.999955 
0.000818797 -0.01657 0.999867 
0.00169072 -0.0177638 0.999845 
0.00160561 -0.015346 0.999886 
0.0020679 -0.0124797 0.999925 
0.00206106 -0.0102602 0.99995 
0.00237119 -0.00874251 0.999964 
0.00245006 -0.00794848 0.999971 
0.00268253 -0.00737172 0.999974 
0.00272508 -0.00692052 0.999978 
0.00290375 -0.00649229 0.999979 
0.0029959 -0.00619139 0.999981 
0.0031003 -0.00609018 0.999982 
0.0032152 -0.00618398 0.999982 
0.00342441 -0.00642513 0.999977 
0.00360399 -0.0067002 0.999977 
0.0039231 -0.0069675 0.999972 
0.00423143 -0.00711696 0.99997 
0.00459157 -0.00708508 0.99997 
0.00504663 -0.0068021 0.999969 
0.00555653 -0.00616795 0.99997 
0.00610717 -0.00512759 0.999973 
0.00671268 -0.00364447 0.999976 
0.00743607 -0.00175767 0.999976 
0.00831241 0.000581191 0.99997 
0.00937219 0.0032578 0.999956 
0.0107784 0.0063949 0.999927 
0.0127995 0.0100078 0.999873 
0.0159283 0.0142104 0.999778 
0.0211431 0.0193465 0.999594 
0.0285699 0.0237472 0.999317 
0.0409467 0.0300528 0.998714 
0.0513933 0.0275153 0.998305 
0.0744637 0.0262195 0.996885 
0.109789 0.0364581 0.993291 
0.152627 0.0413239 0.987422 
0.179108 0.0890202 0.979796 
0.307732 0.411678 0.857813 
0.241728 0.679765 0.692493 
0.0163857 0.997959 0.06252 
-0.214592 0.759979 -0.613521 
-0.319725 0.411593 -0.853464 
-0.21346 0.14181 -0.966606 
-0.155291 0.0397555 -0.987072 
-0.107117 0.0436125 -0.993294 
-0.0704885 0.0294765 -0.997082 
-0.0529441 0.0328487 -0.998063 
-0.0387216 0.0307648 -0.998782 
-0.0277531 0.02592 -0.999283 
-0.0201309 0.0199976 -0.999604 
-0.0152031 0.0148798 -0.999781 
-0.0127605 0.0111614 -0.99986 
-0.0104928 0.00671951 -0.999927 
-0.00911826 0.00350612 -0.999958 
-0.00811826 0.000770497 -0.999972 
-0.00720489 -0.00176959 -0.999977 
-0.00663466 -0.00362114 -0.999976 
-0.00599909 -0.00516106 -0.999973 
-0.00546738 -0.00621339 -0.999971 
-0.0049903 -0.00685183 -0.999969 
-0.00457919 -0.00717286 -0.999968 
-0.00412986 -0.00717149 -0.999971 
-0.003862 -0.0069785 -0.999973 
-0.00357488 -0.0067109 -0.999976 
-0.00339387 -0.00639548 -0.999979 
-0.00324262 -0.00617092 -0.999981 