# vtk DataFile Version 3.0 
Exported using Morpho https://github.com/Morpho-lang/morpho 
ASCII 
DATASET UNSTRUCTURED_GRID 

POINTS 1978 float 
-12 -4 -1.12745e-10 
-11.6082 -4 -1.0084e-09 
-11.313 -4 -8.47482e-10 
-10.967 -4 -2.81655e-10 
-10.6455 -4 1.06723e-10 
-10.2972 -4 -1.68901e-10 
-9.97919 -4 -2.03015e-10 
-9.65252 -4 -2.1948e-10 
-9.31188 -4 -5.94913e-11 
-8.99335 -4 -5.76315e-11 
-8.68645 -4 -6.73379e-11 
-8.37404 -4 -7.69242e-11 
-8.06738 -4 -2.05325e-11 
-7.77104 -4 -3.44293e-11 
-7.48422 -4 -1.35766e-11 
-7.18574 -4 -1.02738e-11 
-6.88784 -4 1.30157e-11 
-6.59143 -4 3.41088e-12 
-6.29044 -4 4.62563e-12 
-5.98252 -4 2.5227e-11 
-5.67446 -4 4.7741e-11 
-5.36958 -4 6.6552e-11 
-5.06852 -4 6.08301e-11 
-4.77839 -4 2.0522e-10 
-4.45408 -4 2.17214e-10 
-4.16788 -4 2.27535e-10 
-3.87548 -4 4.30651e-10 
-3.56402 -4 5.53954e-10 
-3.26751 -4 7.20242e-10 
-2.97955 -4 1.05977e-09 
-2.67994 -4 1.1896e-09 
-2.43031 -4 1.25368e-09 
-2.14899 -4 1.86641e-09 
-1.87848 -4 1.61812e-09 
-1.5812 -4 8.10914e-10 
-1.29961 -4 -2.2674e-09 
-0.993601 -4 -5.24024e-09 
-0.700087 -4 -1.30081e-08 
-0.403262 -4 -2.41567e-08 
0.0432662 -4 2.52943e-08 
0.386444 -4 1.50429e-08 
0.684681 -4 9.53205e-09 
0.949598 -4 1.89304e-09 
1.26223 -4 3.54002e-09 
1.55522 -4 -7.60401e-10 
1.81969 -4 -1.85302e-09 
2.08847 -4 -1.68109e-09 
2.36989 -4 -1.91347e-09 
2.70014 -4 -1.41637e-09 
2.9938 -4 -1.10269e-09 
3.3 -4 -6.79208e-10 
3.58877 -4 -4.80758e-10 
3.88132 -4 -4.09174e-10 
4.19497 -4 -2.95345e-10 
4.49206 -4 -1.9884e-10 
4.78518 -4 -1.3318e-10 
5.09431 -4 -8.87665e-11 
5.40124 -4 -6.88161e-11 
5.71101 -4 -4.39935e-11 
6.00644 -4 -2.72638e-11 
6.30698 -4 2.20889e-11 
6.59053 -4 -1.65963e-11 
6.89459 -4 2.3269e-11 
7.17376 -4 2.08691e-11 
7.47355 -4 4.87725e-11 
7.76979 -4 2.81835e-11 
8.06783 -4 2.26507e-11 
8.36088 -4 1.05579e-10 
8.65677 -4 3.84376e-11 
8.93898 -4 9.91122e-11 
9.28439 -4 3.92954e-11 
9.60942 -4 1.38479e-10 
9.904 -4 2.14385e-10 
10.2727 -4 2.09957e-10 
10.5908 -4 -5.91577e-11 
10.9813 -4 3.53675e-10 
11.3 -4 6.77974e-10 
11.5911 -4 1.09075e-09 
12 -4 1.16927e-10 
-12 -3.61341 1.04625e-09 
-11.7088 -3.71136 -1.16489e-10 
-11.36 -3.62006 -1.10013e-10 
-11.0514 -3.67547 -1.40568e-10 
-10.7124 -3.64952 -1.08189e-10 
-10.3927 -3.68072 -1.01479e-10 
-10.0566 -3.65904 -8.39028e-11 
-9.73317 -3.67314 -6.65469e-11 
-9.39508 -3.68466 -5.52802e-11 
-9.05657 -3.66723 -3.8741e-11 
-8.74018 -3.65911 -2.6481e-11 
-8.4282 -3.66874 -1.87654e-11 
-8.11448 -3.66667 -1.0776e-11 
-7.80437 -3.65934 -4.25197e-12 
-7.50407 -3.65145 7.40248e-13 
-7.20759 -3.66708 5.76457e-12 
-6.89823 -3.66607 1.0201e-11 
-6.59181 -3.66544 1.5968e-11 
-6.28259 -3.66625 2.08984e-11 
-5.97003 -3.66957 2.99734e-11 
-5.66053 -3.66629 3.89986e-11 
-5.35467 -3.66398 5.13118e-11 
-5.06038 -3.65506 6.63129e-11 
-4.73731 -3.69438 9.91713e-11 
-4.44316 -3.66217 1.1755e-10 
-4.1425 -3.67426 1.66777e-10 
-3.82547 -3.69763 2.32972e-10 
-3.51791 -3.68509 2.8348e-10 
-3.21569 -3.67647 3.54713e-10 
-2.9231 -3.68271 4.55877e-10 
-2.65735 -3.62405 3.67172e-10 
-2.37947 -3.66549 5.31121e-10 
-2.10328 -3.64879 4.75706e-10 
-1.80503 -3.69167 4.9095e-10 
-1.50641 -3.66275 2.63651e-10 
-1.19832 -3.67042 1.67725e-10 
-0.893258 -3.60872 -2.30935e-10 
-0.58381 -3.57546 -4.08329e-10 
-0.241591 -3.69692 -1.66392e-09 
0.0232849 -3.49531 -6.60385e-10 
0.305001 -3.60856 6.77654e-10 
0.61858 -3.56892 -6.60812e-11 
0.907507 -3.54906 -3.92006e-10 
1.18516 -3.66782 -9.29647e-11 
1.50547 -3.67765 -2.62959e-10 
1.8112 -3.65474 -5.02778e-10 
2.09828 -3.6674 -5.12214e-10 
2.42914 -3.72358 -6.38712e-10 
2.7321 -3.68672 -4.70474e-10 
3.03606 -3.68945 -4.1439e-10 
3.33198 -3.67066 -3.12492e-10 
3.62663 -3.67105 -2.50217e-10 
3.93661 -3.68982 -2.04848e-10 
4.23561 -3.66826 -1.43816e-10 
4.52947 -3.66065 -1.07676e-10 
4.83458 -3.67496 -8.60642e-11 
5.14199 -3.67055 -6.36047e-11 
5.45334 -3.67292 -4.79013e-11 
5.75354 -3.65777 -3.41096e-11 
6.05845 -3.66546 -2.66576e-11 
6.34965 -3.64604 -1.84755e-11 
6.65547 -3.67255 -1.48461e-11 
6.94533 -3.64405 -8.86621e-12 
7.24611 -3.66833 -5.13121e-12 
7.54783 -3.66335 -2.86756e-13 
7.85022 -3.66284 5.27491e-12 
8.14812 -3.65503 1.12519e-11 
8.44285 -3.65631 1.78532e-11 
8.73282 -3.636 2.36612e-11 
9.05602 -3.70125 4.22224e-11 
9.38766 -3.67851 5.16667e-11 
9.69641 -3.63921 5.91103e-11 
10.0341 -3.70901 9.50142e-11 
10.3659 -3.65794 9.32116e-11 
10.7282 -3.71763 1.35436e-10 
11.0617 -3.65003 1.26633e-10 
11.363 -3.61467 1.09953e-10 
11.7135 -3.72485 1.1821e-10 
12 -3.60889 -1.08859e-09 
-12 -3.31512 8.60212e-10 
-11.6291 -3.36223 1.49515e-11 
-11.2847 -3.27375 -1.15311e-12 
-10.9742 -3.33542 -1.79756e-11 
-10.6583 -3.30131 6.41135e-12 
-10.3411 -3.34748 -2.49274e-13 
-10.0181 -3.32266 5.76468e-12 
-9.70619 -3.33086 -3.2175e-12 
-9.39381 -3.36521 -5.01911e-12 
-9.08684 -3.32535 -1.26138e-12 
-8.77959 -3.32213 -4.75294e-13 
-8.46956 -3.33163 -5.71768e-13 
-8.16218 -3.33399 -9.35638e-13 
-7.85446 -3.32952 -6.66725e-13 
-7.54827 -3.31204 -4.03543e-13 
-7.24747 -3.32253 -3.36954e-13 
-6.94931 -3.33939 1.28974e-14 
-6.63949 -3.33405 7.0536e-13 
-6.33219 -3.33936 1.22323e-12 
-6.01961 -3.34078 1.96745e-12 
-5.71071 -3.33527 2.5503e-12 
-5.40429 -3.33008 2.96299e-12 
-5.10498 -3.3128 1.99977e-12 
-4.80593 -3.37565 1.12123e-11 
-4.50474 -3.33333 5.14604e-12 
-4.2066 -3.34929 9.02834e-12 
-3.90035 -3.3875 2.56201e-11 
-3.5934 -3.37501 3.37876e-11 
-3.28604 -3.36548 2.09678e-11 
-2.98049 -3.34353 3.11733e-11 
-2.67962 -3.29939 -3.37599e-11 
-2.38185 -3.31879 5.06122e-12 
-2.08246 -3.32501 3.34078e-11 
-1.77618 -3.37162 1.78093e-10 
-1.46137 -3.33243 8.98132e-10 
-1.15896 -3.3081 -5.31633e-10 
-0.824973 -3.22231 4.41968e-10 
-0.552068 -3.07784 1.07219e-09 
-0.308286 -3.26323 -1.73246e-09 
0.016742 -3.06732 -5.00123e-11 
0.332298 -3.17009 -2.80941e-10 
0.634996 -3.13482 1.19039e-09 
0.917277 -3.10537 1.18676e-09 
1.19321 -3.28055 7.9241e-11 
1.48246 -3.35296 5.84169e-11 
1.7682 -3.30504 -6.05842e-11 
2.06333 -3.34139 -1.11231e-10 
2.37062 -3.42873 -1.06252e-10 
2.68212 -3.37908 -5.48836e-11 
2.98818 -3.37297 -4.51549e-11 
3.2892 -3.34861 -1.25519e-11 
3.59043 -3.34178 -1.38732e-11 
3.8891 -3.37093 -2.15499e-11 
4.1893 -3.34255 -8.99935e-12 
4.48885 -3.3246 -3.95296e-12 
4.78633 -3.34372 -6.40078e-12 
5.08691 -3.34347 -5.34456e-12 
5.39578 -3.34749 -4.27559e-12 
5.70341 -3.32247 -1.77973e-12 
6.008 -3.3328 -1.51785e-12 
6.30961 -3.30214 -3.30694e-13 
6.61093 -3.33973 -7.56345e-13 
6.91076 -3.30172 3.77414e-13 
7.21104 -3.33253 1.65741e-13 
7.51359 -3.33029 4.49356e-13 
7.81781 -3.32994 7.64652e-13 
8.12382 -3.31535 8.18893e-13 
8.42425 -3.30712 2.68682e-13 
8.74469 -3.31428 -1.51927e-13 
9.06711 -3.38358 4.67627e-12 
9.38288 -3.34201 3.84832e-12 
9.69904 -3.29919 1.18588e-13 
10.0138 -3.38644 7.92761e-12 
10.3131 -3.30597 -6.98387e-12 
10.636 -3.39919 1.28863e-11 
10.9642 -3.33516 1.65136e-11 
11.2931 -3.25572 -6.78769e-12 
11.6304 -3.37408 -1.11e-11 
12 -3.30547 -8.39452e-10 
-12 -2.99281 4.50029e-10 
-11.6556 -3.04989 1.97995e-11 
-11.3117 -2.95672 1.43582e-11 
-10.9606 -2.98145 7.84019e-13 
-10.6258 -2.96766 1.45968e-11 
-10.3023 -3.00768 1.06519e-11 
-9.98316 -2.98183 5.22948e-13 
-9.66003 -2.99654 2.42469e-12 
-9.35296 -3.01715 1.07702e-12 
-9.0433 -2.98246 9.91048e-13 
-8.73397 -2.98475 1.24876e-12 
-8.43034 -2.99437 2.84937e-13 
-8.12396 -2.99889 -1.09293e-13 
-7.82067 -2.99424 -3.51736e-13 
-7.51734 -2.97589 -2.19899e-13 
-7.21771 -2.9854 -2.22614e-13 
-6.91357 -3.01137 -2.03494e-14 
-6.60643 -3.00422 -3.02965e-13 
-6.29812 -3.01481 1.4261e-13 
-5.99303 -3.0098 3.22628e-13 
-5.688 -3.0038 7.31157e-13 
-5.38926 -2.99338 1.25532e-12 
-5.08736 -2.98373 1.82921e-12 
-4.78919 -3.04572 1.72185e-12 
-4.4939 -3.00095 3.2139e-12 
-4.20046 -3.02151 2.884e-12 
-3.90639 -3.07132 -3.1166e-12 
-3.59949 -3.05462 -2.83778e-12 
-3.2967 -3.05043 7.27016e-13 
-2.98422 -3.0223 -1.01575e-11 
-2.67948 -2.97135 -8.84694e-12 
-2.36907 -2.98602 5.42025e-12 
-2.07734 -2.97211 -3.34211e-11 
-1.78277 -3.04883 -1.12093e-10 
-1.50202 -2.96867 -7.36901e-10 
-1.16072 -2.96811 -9.90298e-11 
-0.892824 -2.79799 -6.69469e-10 
-0.550602 -2.70415 -1.63067e-09 
-0.192783 -2.77217 1.7163e-09 
0.0861461 -2.40747 8.13402e-09 
0.244562 -2.7045 -5.98395e-10 
0.531149 -2.71846 -9.3919e-10 
0.835687 -2.6674 6.36015e-10 
1.16893 -2.8557 -4.62504e-11 
1.45362 -2.98091 -2.62401e-10 
1.75848 -2.95625 1.31426e-10 
2.07343 -3.00425 2.67798e-11 
2.3689 -3.11442 4.02899e-11 
2.66701 -3.04953 3.35761e-11 
2.96153 -3.05105 -1.03262e-12 
3.2622 -3.02538 4.04571e-12 
3.56994 -3.01962 -1.53209e-12 
3.8786 -3.04403 -2.62719e-12 
4.17833 -3.01524 -3.64155e-12 
4.47952 -2.99932 -3.30663e-12 
4.78328 -3.01096 -1.7865e-12 
5.08144 -3.01 -5.53421e-13 
5.37953 -3.02157 -3.32548e-13 
5.68222 -2.99282 -5.00968e-13 
5.98869 -2.99995 -1.86877e-13 
6.29434 -2.97164 -3.44133e-13 
6.60052 -3.00371 4.15243e-14 
6.91674 -2.98182 2.44369e-13 
7.23044 -2.99859 3.21459e-13 
7.53064 -2.99574 3.56158e-13 
7.83571 -2.99778 3.44025e-13 
8.13255 -2.97427 2.76488e-13 
8.44409 -2.98341 -1.39157e-13 
8.74652 -2.97342 -1.27891e-12 
9.05192 -3.05551 -2.08344e-12 
9.36486 -3.0103 -1.35772e-12 
9.66338 -2.95163 -1.13498e-12 
9.98391 -3.0347 -7.27806e-12 
10.317 -2.9775 -1.48638e-11 
10.6492 -3.06216 -1.61411e-11 
10.9815 -2.99547 -2.37166e-12 
11.3335 -2.93397 -1.49201e-11 
11.6647 -3.0582 -1.74666e-11 
12 -2.97184 -4.97756e-10 
-12 -2.67028 2.44047e-10 
-11.6572 -2.72381 6.32216e-12 
-11.325 -2.62621 -4.28304e-12 
-10.9863 -2.66069 -1.78527e-11 
-10.6422 -2.64166 -2.58384e-12 
-10.3023 -2.66838 1.05915e-12 
-9.96671 -2.65479 -2.97491e-12 
-9.6423 -2.66229 -9.02981e-12 
-9.32777 -2.67684 -6.701e-12 
-9.00552 -2.65111 -3.78984e-12 
-8.6934 -2.64838 -2.4776e-12 
-8.38148 -2.66434 -1.90513e-12 
-8.07412 -2.66419 -1.56976e-12 
-7.7669 -2.66099 -8.99979e-13 
-7.45589 -2.64533 -2.97978e-13 
-7.14767 -2.66147 4.76023e-13 
-6.84496 -2.68357 1.15182e-12 
-6.53393 -2.67921 2.04719e-12 
-6.23128 -2.68426 2.94398e-12 
-5.92638 -2.67933 4.04276e-12 
[...]
POINT_DATA 1978 
VECTORS vectors float
0.000543087 -0.00263969 0.999997 
0.00210429 -0.0275659 0.999618 
0.00186653 -0.0240788 0.999708 
0.00203092 -0.0241437 0.999706 
0.00200326 -0.0210372 0.999777 
0.00199496 -0.0164369 0.999863 
0.00193891 -0.0131546 0.999912 
0.00199414 -0.010559 0.999942 
0.00195524 -0.00800699 0.999966 
0.00182494 -0.00589385 0.999981 
0.0017684 -0.00413858 0.99999 
0.00174284 -0.00255852 0.999995 
0.00168145 -0.0012537 0.999998 
0.00162015 -0.000321371 0.999999 
0.00160392 0.000396224 0.999999 
0.00163874 0.00112561 0.999998 
0.00165818 0.00180571 0.999997 
0.00167518 0.00254147 0.999995 
0.0017052 0.00341374 0.999993 
0.00173863 0.00457612 0.999988 
0.00172359 0.00610679 0.99998 
0.00168431 0.00813148 0.999966 
0.00163972 0.0107288 0.999941 
0.00169568 0.0141677 0.999898 
0.00164563 0.0197156 0.999804 
0.00156807 0.0259898 0.999661 
0.00158056 0.0348366 0.999392 
0.00154711 0.0483492 0.998829 
0.00143634 0.0655604 0.997848 
0.00131919 0.0885606 0.99607 
0.00114075 0.121568 0.992582 
0.00100963 0.157248 0.987559 
0.00087198 0.210288 0.977639 
0.000724491 0.27833 0.960485 
0.000505961 0.371385 0.928479 
0.00021403 0.484084 0.875021 
-4.32015e-05 0.62973 0.776814 
-0.000296862 0.782076 0.623183 
-0.000247853 0.917817 0.397003 
-7.56226e-05 0.998856 -0.0478174 
0.000284194 0.921901 -0.387426 
0.00024726 0.78625 -0.617909 
8.08479e-05 0.650835 -0.759219 
-0.000171816 0.499176 -0.8665 
-0.000449361 0.379002 -0.925396 
-0.000688957 0.293165 -0.956062 
-0.000873898 0.224591 -0.974453 
-0.00117659 0.165677 -0.986179 
-0.00136937 0.118022 -0.99301 
-0.00143113 0.0869529 -0.996211 
-0.00145021 0.0629931 -0.998013 
-0.00149198 0.046665 -0.998909 
-0.00159307 0.0345618 -0.999401 
-0.00163036 0.0250838 -0.999684 
-0.00161126 0.0186911 -0.999824 
-0.00166038 0.0140876 -0.999899 
-0.00171703 0.0104105 -0.999944 
-0.0017305 0.00774809 -0.999968 
-0.00168904 0.00580682 -0.999982 
-0.00165094 0.00440219 -0.999989 
-0.0016042 0.00336258 -0.999993 
-0.00161371 0.00255485 -0.999995 
-0.00158863 0.00176207 -0.999997 
-0.00160176 0.0011986 -0.999998 
-0.0016332 0.000462762 -0.999999 
-0.00164045 -0.000423933 -0.999999 
-0.00162216 -0.00134324 -0.999998 
-0.00161347 -0.00257583 -0.999995 
-0.0016137 -0.00392976 -0.999991 
-0.00181066 -0.00536281 -0.999984 
-0.00195046 -0.00795388 -0.999966 
-0.0018477 -0.010238 -0.999946 
-0.00200726 -0.0123641 -0.999922 
-0.00213301 -0.0160786 -0.999868 
-0.00225973 -0.0200988 -0.999795 
-0.00222615 -0.024546 -0.999696 
-0.00181991 -0.0242134 -0.999705 
-0.00213733 -0.0272897 -0.999625 
-0.000621684 -0.00265653 -0.999997 
4.305e-05 -0.00182004 0.999998 
0.0145686 -0.0249491 0.999583 
0.0176536 -0.0254012 0.999521 
0.0183354 -0.022595 0.999577 
0.0188947 -0.0200228 0.999621 
0.0190484 -0.0172443 0.99967 
0.0195037 -0.0137765 0.999715 
0.0195098 -0.0108508 0.999751 
0.0197364 -0.00839158 0.99977 
0.0199179 -0.00617523 0.999782 
0.0202049 -0.00444585 0.999786 
0.0202668 -0.00292857 0.99979 
0.0203973 -0.00164445 0.999791 
0.020533 -0.000609218 0.999789 
0.0207173 0.000237796 0.999785 
0.0206482 0.000999456 0.999786 
0.0205889 0.00175424 0.999786 
0.0206726 0.00254762 0.999783 
0.0206041 0.00347501 0.999782 
0.020492 0.00467372 0.999779 
0.0204019 0.00624821 0.999772 
0.020333 0.0083292 0.999759 
0.0202565 0.0110186 0.999734 
0.0196645 0.0150454 0.999693 
0.019831 0.0201389 0.9996 
0.0193388 0.0271388 0.999444 
0.0185548 0.0374492 0.999126 
0.0178992 0.0515776 0.998509 
0.0169824 0.0705931 0.997361 
0.0156997 0.0960528 0.995252 
0.0140169 0.126643 0.991849 
0.0123146 0.169404 0.98547 
0.0102388 0.224443 0.974433 
0.00766427 0.30208 0.953252 
0.00462389 0.400109 0.916456 
0.00150039 0.528821 0.848732 
-0.000929572 0.677998 0.735063 
-0.00187678 0.835321 0.54976 
-0.00154463 0.968503 0.248997 
-0.000245588 0.999597 -0.0284018 
0.00131998 0.948528 -0.31669 
0.00182128 0.817285 -0.576231 
0.000698972 0.671065 -0.741398 
-0.00160573 0.534477 -0.845181 
-0.00484651 0.401831 -0.915701 
-0.00782575 0.298587 -0.95435 
-0.0104444 0.222528 -0.97487 
-0.0127851 0.158018 -0.987353 
-0.0148579 0.11589 -0.993151 
-0.0162724 0.0844359 -0.996296 
-0.0173974 0.06196 -0.997927 
-0.01825 0.0456988 -0.998789 
-0.0187799 0.0332189 -0.999272 
-0.0194393 0.024539 -0.99951 
-0.0198271 0.0183293 -0.999635 
-0.019936 0.0135719 -0.999709 
-0.0201818 0.0100706 -0.999746 
-0.0203037 0.00750176 -0.999766 
-0.020548 0.00567962 -0.999773 
-0.0205805 0.00427782 -0.999779 
-0.0208228 0.00324173 -0.999778 
-0.0206236 0.00234904 -0.999785 
-0.0209589 0.00160455 -0.999779 
-0.0207139 0.000887333 -0.999785 
-0.0207019 0.000103269 -0.999786 
-0.0205927 -0.000764678 -0.999788 
-0.0205398 -0.00177154 -0.999787 
-0.0204007 -0.00300256 -0.999787 
-0.0202566 -0.00438691 -0.999785 
-0.0197955 -0.00622777 -0.999785 
-0.0198285 -0.00832838 -0.999769 
-0.0198463 -0.010522 -0.999748 
-0.0192119 -0.0135768 -0.999723 
-0.0190704 -0.0168286 -0.999676 
-0.0183497 -0.0205058 -0.999621 
-0.0184035 -0.0224854 -0.999578 
-0.0176178 -0.0253265 -0.999524 
-0.0145681 -0.0248572 -0.999585 
-1.44588e-05 -0.00194928 -0.999998 
-0.000510656 -0.00283463 0.999996 
0.0130557 -0.0271081 0.999547 
0.013727 -0.023182 0.999637 
0.0154754 -0.0202517 0.999675 
0.0155825 -0.0187763 0.999702 
0.016804 -0.0166974 0.999719 
0.0167851 -0.0135632 0.999767 
0.0172967 -0.0106444 0.999794 
0.0178822 -0.00819668 0.999806 
0.0176586 -0.00631066 0.999824 
0.0176238 -0.00466804 0.999834 
0.0178592 -0.00321711 0.999835 
0.0180648 -0.00195542 0.999835 
0.0181281 -0.000893282 0.999835 
0.0179571 3.44454e-06 0.999839 
0.0181147 0.000808792 0.999836 
0.0184649 0.00158256 0.999828 
0.0184412 0.00239961 0.999827 
0.0184531 0.00333728 0.999824 
0.018347 0.00452454 0.999821 
0.0181449 0.00606135 0.999817 
0.0178904 0.00809059 0.999807 
0.0175096 0.010748 0.999789 
0.0180343 0.0143438 0.999734 
0.0170262 0.0192095 0.99967 
0.016762 0.0259549 0.999522 
0.0167266 0.0354877 0.99923 
0.0156943 0.0484523 0.998702 
0.0144614 0.0671836 0.997636 
0.0128269 0.0924003 0.995639 
0.0106365 0.126697 0.991884 
0.00924601 0.170935 0.985239 
0.00753147 0.228832 0.973437 
0.00578646 0.306322 0.95191 
0.00314474 0.415711 0.909492 
0.000733385 0.546036 0.837761 
-0.00108449 0.713009 0.701154 
-0.000958679 0.850949 0.525247 
-0.000871422 0.950836 0.309692 
0.000183966 0.999907 -0.013611 
0.000388341 0.944126 -0.329585 
0.000295421 0.819161 -0.573564 
-0.000462823 0.677214 -0.735786 
-0.00147115 0.537475 -0.843278 
-0.00374165 0.413486 -0.910503 
-0.00570456 0.31147 -0.950239 
-0.00798181 0.231278 -0.972855 
-0.0106969 0.169609 -0.985453 
-0.0118822 0.122939 -0.992343 
-0.0133957 0.0901936 -0.995834 
-0.014183 0.0662246 -0.997704 
-0.0152016 0.0485987 -0.998703 
-0.0164314 0.0357581 -0.999225 
-0.0166683 0.0263304 -0.999514 
-0.0168795 0.0194717 -0.999668 
-0.0175398 0.0145355 -0.99974 
-0.0178958 0.0108663 -0.999781 
-0.0181989 0.00811667 -0.999801 
-0.0180063 0.00606158 -0.999819 
-0.0182839 0.00457157 -0.999822 
-0.018027 0.00339525 -0.999832 
-0.0185088 0.00246916 -0.999826 
-0.0180554 0.00165242 -0.999836 
-0.0184451 0.000896099 -0.999829 
-0.0183462 0.000100902 -0.999832 
-0.0182127 -0.000774899 -0.999834 
-0.0179055 -0.0018054 -0.999838 
-0.017553 -0.00300366 -0.999841 
-0.0175896 -0.00449241 -0.999835 
-0.0183265 -0.00618799 -0.999813 
-0.0176223 -0.00807049 -0.999812 
-0.0168921 -0.0104558 -0.999803 
-0.0176275 -0.0134081 -0.999755 
-0.0162975 -0.0163689 -0.999733 
-0.0171512 -0.018914 -0.999674 
-0.0155034 -0.0201155 -0.999677 
-0.0133664 -0.0233738 -0.999637 
-0.0132764 -0.0269887 -0.999548 
0.00051657 -0.00296412 -0.999996 
-0.000110828 -0.002808 0.999996 
0.00989436 -0.0265984 0.999597 
0.0105967 -0.022748 0.999685 
0.0121663 -0.0192502 0.999741 
0.0132068 -0.0186352 0.999739 
0.0141089 -0.0163223 0.999767 
0.0144607 -0.0130316 0.99981 
0.014967 -0.0100423 0.999837 
0.0153486 -0.00776561 0.999852 
0.0154507 -0.00601608 0.999863 
0.0156501 -0.00451634 0.999867 
0.015925 -0.00316086 0.999868 
0.0161402 -0.00193797 0.999868 
0.0163139 -0.000899461 0.999866 
0.0164222 -2.33978e-06 0.999865 
0.01651 0.000820363 0.999863 
0.0165804 0.00162836 0.999861 
0.0164586 0.00249167 0.999861 
0.0164455 0.00348943 0.999859 
0.0163747 0.00472771 0.999855 
0.0162665 0.00633638 0.999848 
0.0161057 0.00842136 0.999835 
0.0159016 0.0112389 0.99981 
0.0157188 0.0148169 0.999767 
0.0152212 0.0199503 0.999685 
0.0147072 0.0266678 0.999536 
0.0141966 0.0359282 0.999253 
0.0132762 0.0494079 0.99869 
0.0120848 0.0673234 0.997658 
0.0107109 0.0941316 0.995502 
0.00912351 0.128615 0.991653 
0.00754006 0.173835 0.984746 
0.00600072 0.233278 0.972391 
0.00437254 0.314084 0.949385 
0.00273844 0.415405 0.909632 
0.000921897 0.564618 0.825352 
0.000329351 0.698187 0.715915 
1.95639e-05 0.854376 0.519655 
0.000363429 0.973904 0.22696 
-0.00100154 0.997242 -0.0742055 
-4.45217e-05 0.967992 -0.250982 
-0.00094882 0.860464 -0.509511 
-0.00147147 0.70645 -0.707762 
-0.00180475 0.548611 -0.836076 
-0.00293254 0.42535 -0.905024 
-0.00442342 0.31929 -0.947647 
-0.00616763 0.234199 -0.972169 
-0.00805835 0.173097 -0.984872 
-0.00936433 0.128486 -0.991667 
-0.0108128 0.0942004 -0.995495 
-0.0120098 0.0696771 -0.997497 
-0.0130689 0.0506174 -0.998633 
-0.0140336 0.0366225 -0.999231 
-0.01465 0.0270876 -0.999526 
-0.0152003 0.0201485 -0.999681 
-0.0156221 0.014932 -0.999766 
-0.015872 0.0111929 -0.999811 
-0.0160898 0.0083893 -0.999835 
-0.0162872 0.00635571 -0.999847 
-0.0163975 0.00472838 -0.999854 
-0.016524 0.00351424 -0.999857 
-0.0166182 0.00249545 -0.999859 
-0.01661 0.00161603 -0.999861 
-0.0165608 0.000778401 -0.999863 
-0.0165244 -3.70835e-05 -0.999863 
-0.0164034 -0.000947577 -0.999865 
-0.0162189 -0.00197748 -0.999866 
-0.0159707 -0.00321828 -0.999867 
-0.0156821 -0.00459593 -0.999866 
-0.015732 -0.00607984 -0.999858 
-0.0152735 -0.00787362 -0.999852 
-0.0148064 -0.0101133 -0.999839 
-0.0147055 -0.0132025 -0.999805 
-0.0138067 -0.0165254 -0.999768 
-0.013542 -0.0186268 -0.999735 
-0.0121072 -0.0194602 -0.999737 
-0.0104312 -0.0231926 -0.999677 
-0.00989837 -0.0264177 -0.999602 
0.000233912 -0.00282629 -0.999996 
-0.000326622 -0.00359556 0.999993 
0.00847421 -0.0259681 0.999627 
0.00971183 -0.0227941 0.999693 
0.011423 -0.0192077 0.99975 
0.0126283 -0.0187362 0.999745 
0.0134663 -0.0165367 0.999772 
0.0140925 -0.0131889 0.999814 
0.0144225 -0.00986169 0.999847 
0.0147588 -0.00755765 0.999863 
0.0149936 -0.00587939 0.99987 
0.0152646 -0.0044525 0.999874 
0.0155543 -0.00309131 0.999874 
0.0157452 -0.00187567 0.999874 
0.01593 -0.000825117 0.999873 
0.0160328 0.000116282 0.999871 
0.0161503 0.00098397 0.999869 
0.0161815 0.00182794 0.999867 
0.0161332 0.00277023 0.999866 
0.0160808 0.00384786 0.999863 
0.0159678 0.00521045 0.999859 
0.0158219 0.00694437 0.999851 
0.0156502 0.00921557 0.999835 
0.015434 0.0123441 0.999805 
0.0152292 0.0160843 0.999755 
0.014699 0.0216328 0.999658 
0.0142076 0.0289014 0.999481 
0.0135516 0.0387602 0.999157 
0.0125304 0.052967 0.998518 
0.0113179 0.0738923 0.997202 
0.00984398 0.10132 0.994805 
0.00824432 0.141237 0.989942 
0.00676849 0.188743 0.982003 
0.00515825 0.260637 0.965423 
0.00383697 0.337877 0.941182 
0.00217247 0.472296 0.881437 
0.00120191 0.593556 0.804792 
0.000257767 0.760937 0.648825 
-0.00155148 0.892989 0.450076 
-0.000698075 0.948215 0.31763 
-0.00412364 0.999937 0.0104667 
-0.00432695 0.938859 -0.344274 
-0.00261649 0.879266 -0.476324 
-0.00234984 0.746825 -0.665017 
-0.00210042 0.55963 -0.82874 
-0.00299923 0.410611 -0.911806 
-0.00422386 0.312062 -0.950052 
-0.00583814 0.237119 -0.971463 
-0.00766392 0.171362 -0.985178 
-0.00893657 0.126622 -0.991911 
-0.0103793 0.0932465 -0.995589 
-0.0116357 0.0673444 -0.997662 
-0.012752 0.0483724 -0.998748 
-0.013606 0.0356835 -0.99927 
-0.0142312 0.0263555 -0.999551 
-0.014804 0.019464 -0.999701 
-0.0152203 0.0145977 -0.999778 
-0.0154933 0.0110084 -0.999819 
-0.0157452 0.00831908 -0.999841 
-0.0158799 0.0062333 -0.999854 
-0.0160244 0.00465895 -0.999861 
-0.0160535 0.00340411 -0.999865 
-0.0162443 0.00237896 -0.999865 
-0.0162247 0.00146312 -0.999867 
-0.0161908 0.000643685 -0.999869 
-0.0161321 -0.00022269 -0.99987 
-0.0159628 -0.00114237 -0.999872 
-0.0157796 -0.00223949 -0.999873 
-0.0156044 -0.00348044 -0.999872 
-0.015333 -0.00482557 -0.999871 
-0.015272 -0.00614981 -0.999864 
-0.0148305 -0.00774946 -0.99986 
-0.0143745 -0.010166 -0.999845 
-0.0141939 -0.0134012 -0.999809 
-0.0134544 -0.0168145 -0.999768 
-0.0128083 -0.0187636 -0.999742 
-0.011403 -0.0194078 -0.999747 
-0.00960113 -0.0230827 -0.999687 
-0.00833741 -0.0258558 -0.999631 
0.000291883 -0.002951 -0.999996 
-0.000288268 -0.00358081 0.999993 
0.00664878 -0.0251936 0.99966 
0.00809859 -0.0246044 0.999664 
0.00972476 -0.0200014 0.999753 
0.0109262 -0.0193114 0.999754 
0.0118108 -0.0176906 0.999774 
0.0123063 -0.0144726 0.999819 
0.0126276 -0.010962 0.99986 
0.0128817 -0.00832088 0.999882 
0.0130966 -0.00658634 0.999893 
0.0132252 -0.0051203 0.999899 
0.0135388 -0.0037088 0.999901 
0.0137504 -0.00243623 0.999902 
0.013905 -0.00129768 0.999902 
0.0140178 -0.000307331 0.999902 
0.0140856 0.000636197 0.999901 
0.0142124 0.00151302 0.999898 
0.0143239 0.00239834 0.999894 
0.0141835 0.00344398 0.999893 
0.0141322 0.00467277 0.999889 
0.0139293 0.00623435 0.999884 
0.0137303 0.00825028 0.999872 
0.0136291 0.0109402 0.999847 
0.0132367 0.0144639 0.999808 
0.0130795 0.0187742 0.999738 
0.0124063 0.0253156 0.999602 
0.0121003 0.0340627 0.999346 
0.0114438 0.0452786 0.998909 
0.0104997 0.0634218 0.997932 
0.00915426 0.0864313 0.996216 
0.00763021 0.121334 0.992582 
0.00588989 0.167749 0.985812 
0.00474773 0.231461 0.972832 
0.00308823 0.305788 0.952094 
0.00258723 0.399382 0.916781 
0.001665 0.543021 0.839717 
0.000930524 0.698847 0.71527 
0.00147803 0.803987 0.594645 
-0.00274845 0.972502 0.23288 
0.00320151 0.999253 -0.0385078 
-0.00198767 0.991677 -0.128731 
-0.00291376 0.889835 -0.456273 
-0.00397959 0.792752 -0.609531 
-0.00236469 0.639225 -0.769016 
-0.00225284 0.465965 -0.8848 
-0.00292599 0.346816 -0.937929 
-0.00430019 0.249187 -0.968446 
-0.00633505 0.18543 -0.982637 
-0.00737667 0.137353 -0.990495 
-0.00854058 0.0999231 -0.994958 
-0.00975963 0.0730426 -0.997281 
-0.0108682 0.0524221 -0.998566 
-0.0116165 0.0379214 -0.999213 
-0.0122174 0.028217 -0.999527 
-0.0127798 0.0209148 -0.9997 
-0.0131695 0.0155955 -0.999792 
-0.0134651 0.0117853 -0.99984 
-0.0137724 0.0089371 -0.999865 
-0.0139498 0.00679481 -0.99988 
-0.014024 0.00504914 -0.999889 
-0.0140414 0.00372803 -0.999894 
-0.014308 0.00258107 -0.999894 
-0.0143425 0.00166209 -0.999896 
-0.0140719 0.000752806 -0.999901 
-0.014141 -0.00012636 -0.9999 
-0.0138476 -0.00110351 -0.999903 
-0.0137079 -0.00218276 -0.999904 
-0.0134901 -0.0034472 -0.999903 
-0.013047 -0.00477495 -0.999903 
-0.0134848 -0.00619042 -0.99989 
-0.0130061 -0.00791353 -0.999884 
-0.0123985 -0.0102577 -0.999871 
-0.0126899 -0.0135496 -0.999828 
-0.0119196 -0.0171975 -0.999781 
-0.0117147 -0.0191246 -0.999748 
-0.0101864 -0.0196704 -0.999755 
-0.00824463 -0.0230464 -0.9997 
-0.00705651 -0.0260703 -0.999635 
0.00013706 -0.00284479 -0.999996 
-3.77182e-05 -0.00297152 0.999995 
0.00532127 -0.0262246 0.999642 
0.00686192 -0.0227932 0.999717 
0.00787899 -0.0198182 0.999772 
0.0089278 -0.0193913 0.999772 
0.0093392 -0.0170575 0.999811 
0.00973251 -0.0134073 0.999863 
0.00998036 -0.0101071 0.999899 
0.0101137 -0.00788163 0.999918 
0.0103786 -0.00628079 0.999926 
0.010544 -0.00478774 0.999933 
0.0106959 -0.00340061 0.999937 
0.0109365 -0.00211537 0.999938 
0.0110176 -0.000991981 0.999939 
0.0112182 3.25716e-05 0.999937 
0.0111805 0.000985994 0.999937 
0.0111969 0.00189087 0.999935 
0.0113657 0.00285062 0.999931 
0.0111816 0.00400761 0.999929 
0.0111208 0.00538792 0.999924 
0.0109449 0.0071869 0.999914 
0.0108721 0.00956921 0.999895 
0.0106015 0.0126064 0.999864 
0.0101288 0.0166395 0.99981 
0.0100259 0.0218 0.999712 
0.00952448 0.0299196 0.999507 
0.00890652 0.0398337 0.999167 
0.00861994 0.0545434 0.998474 
0.00729978 0.0754662 0.997122 
0.00634711 0.105685 0.994379 
0.0047487 0.145977 0.989276 
0.00365806 0.210985 0.977482 
0.00253967 0.302414 0.953173 
0.00192018 0.443901 0.896074 
0.0021707 0.596513 0.8026 
0.00340464 0.768652 0.639658 
0.00591908 0.891623 0.45274 
0.00386869 0.969665 0.244407 
0.00473658 0.938665 0.344798 
0.00106181 0.995454 0.0952404 
-0.000492986 0.993272 -0.115807 
-0.00250607 0.976387 -0.216017 
-0.00290646 0.82495 -0.565199 
-0.00361642 0.619295 -0.78515 
-0.00264403 0.491971 -0.870607 
-0.00278519 0.371024 -0.928619 
-0.00314819 0.266914 -0.963715 
-0.00462128 0.182793 -0.983141 
-0.00544969 0.131066 -0.991359 
-0.00648878 0.0938023 -0.99557 
-0.00766479 0.0675627 -0.997686 
-0.00856422 0.0488054 -0.998771 
-0.00896761 0.0360918 -0.999308 
-0.00959739 0.0267311 -0.999597 
-0.0100903 0.0199416 -0.99975 
-0.010358 0.0150509 -0.999833 
-0.0106034 0.011427 -0.999878 
-0.0108243 0.00875431 -0.999903 
-0.0111476 0.00658355 -0.999916 
-0.0110711 0.00493958 -0.999926 
-0.0113205 0.00353193 -0.99993 
-0.0113151 0.00247357 -0.999933 
-0.0114433 0.00152138 -0.999933 
-0.0110614 0.000608976 -0.999939 
-0.0111668 -0.000319529 -0.999938 
-0.0108186 -0.00135054 -0.999941 
-0.0107308 -0.00251252 -0.999939 
-0.010427 -0.00379604 -0.999938 
-0.0100586 -0.00519634 -0.999936 
-0.0107122 -0.00644864 -0.999922 
-0.0101301 -0.00805506 -0.999916 
-0.00970377 -0.0105484 -0.999897 
-0.0100657 -0.0140056 -0.999851 
-0.00931552 -0.0176937 -0.9998 
-0.00944294 -0.0195676 -0.999764 
-0.00797485 -0.0201926 -0.999764 
-0.00633682 -0.0235708 -0.999702 
-0.0055235 -0.0262375 -0.99964 
0.000168691 -0.00282884 -0.999996 
-0.000112587 -0.00283154 0.999996 
0.00399513 -0.0264082 0.999643 
0.0050643 -0.0238727 0.999702 
0.00569678 -0.0204597 0.999774 
0.00651633 -0.0199397 0.99978 
0.00681385 -0.0177407 0.999819 
0.00716442 -0.0141804 0.999874 
0.00745312 -0.0108478 0.999913 
0.00759698 -0.00848651 0.999935 
0.00784734 -0.00681031 0.999946 
0.00815513 -0.00533621 0.999952 
0.00820564 -0.00384289 0.999959 
0.00842106 -0.0024851 0.999961 
0.00852773 -0.00130007 0.999963 
0.0087164 -0.000226439 0.999962 
0.0087308 0.000754758 0.999962 
0.00864014 0.00171936 0.999961 
0.00873118 0.00270285 0.999958 
0.00872394 0.00379571 0.999955 
0.00859342 0.00518847 0.99995 
0.00854266 0.00687165 0.99994 
0.00852351 0.00911623 0.999922 
0.00828095 0.0120199 0.999893 
0.00793379 0.0157716 0.999844 
0.00761983 0.0209056 0.999752 
0.00752992 0.0277759 0.999586 
0.00665891 0.0375149 0.999274 
0.00645407 0.0510052 0.998677 
0.00552244 0.069211 0.997587 
0.00470818 0.0997446 0.995002 
0.00348726 0.145719 0.98932 
0.00264299 0.214924 0.976627 
0.00235236 0.290448 0.956888 
0.00230106 0.396239 0.918144 
0.00384624 0.674281 0.738465 
0.0079192 0.806541 0.591125 
0.00763667 0.959887 0.280284 
0.0086711 0.994085 0.108262 
0.00763624 0.996028 0.088716 
0.0031707 0.999933 0.0111668 
0.00151434 0.999876 -0.015688 
0.000258275 0.999036 -0.0439065 
-0.0056046 0.930209 -0.366988 
-0.00332735 0.690807 -0.723032 
-0.00228111 0.554168 -0.832402 
-0.00319006 0.470965 -0.882146 
-0.00302019 0.326943 -0.945039 
-0.0031312 0.214319 -0.976759 
-0.00365939 0.152843 -0.988244 
-0.00438399 0.105948 -0.994362 
-0.00525621 0.0744261 -0.997213 
-0.00614304 0.0539576 -0.998524 
-0.00657893 0.0395112 -0.999197 
-0.00717397 0.0289706 -0.999554 
-0.0076489 0.0215549 -0.999738 
-0.00793655 0.0163005 -0.999836 
-0.00816478 0.0123713 -0.99989 
-0.00827155 0.00939348 -0.999922 
-0.00863181 0.00718831 -0.999937 
-0.00854213 0.00539829 -0.999949 
-0.00889456 0.00395239 -0.999953 
-0.00870765 0.00275335 -0.999958 
-0.00888652 0.00177164 -0.999959 
-0.0086833 0.000841644 -0.999962 
-0.00865454 -0.000175962 -0.999962 
-0.00846834 -0.00120728 -0.999963 
-0.00832515 -0.00243445 -0.999962 
-0.00799163 -0.00380038 -0.999961 
-0.00772886 -0.00527555 -0.999956 
-0.00800175 -0.00677563 -0.999945 
-0.00771185 -0.00856948 -0.999933 
-0.00715625 -0.0110356 -0.999913 
-0.00755532 -0.0141545 -0.999871 
-0.00683179 -0.0176825 -0.99982 