# vtk DataFile Version 3.0 
Exported using Morpho https://github.com/Morpho-lang/morpho 
ASCII 
DATASET UNSTRUCTURED_GRID 

POINTS 1978 float 
-8.48525 -2.82838 -4.45105e-07 
-8.25173 -2.82835 2.49592e-08 
-8.0191 -2.82834 1.47661e-06 
-7.76127 -2.82835 1.60685e-06 
-7.44981 -2.82836 1.30065e-06 
-7.21882 -2.82838 7.74579e-07 
-6.98245 -2.82837 5.70126e-07 
-6.75627 -2.82837 4.75571e-07 
-6.55412 -2.82838 3.58659e-07 
-6.3462 -2.82837 2.66197e-07 
-6.14868 -2.82837 1.65903e-07 
-5.93282 -2.82837 1.28109e-07 
-5.71778 -2.82837 7.94499e-08 
-5.50994 -2.82837 3.49503e-08 
-5.2919 -2.82837 1.09521e-08 
-5.07956 -2.82837 -6.83483e-09 
-4.86171 -2.82837 -2.6971e-08 
-4.65536 -2.82837 -6.23586e-08 
-4.43493 -2.82837 -9.75689e-08 
-4.21738 -2.82837 -1.44624e-07 
-3.99818 -2.82837 -1.9507e-07 
-3.78797 -2.82837 -2.536e-07 
-3.57162 -2.82837 -3.25931e-07 
-3.35823 -2.82837 -4.19168e-07 
-3.13539 -2.82837 -5.2279e-07 
-2.92198 -2.82838 -6.17656e-07 
-2.70964 -2.82838 -7.13577e-07 
-2.51089 -2.82839 -8.26389e-07 
-2.29703 -2.82838 -9.04325e-07 
-2.08594 -2.82839 -9.88826e-07 
-1.87888 -2.8284 -9.20601e-07 
-1.67232 -2.8284 -8.73304e-07 
-1.4713 -2.82841 -6.37289e-07 
-1.26167 -2.8284 -4.56859e-07 
-1.08435 -2.8284 -8.68465e-07 
-0.831578 -2.82841 -1.55564e-07 
-0.612718 -2.82839 -3.83505e-08 
-0.432783 -2.82837 6.70406e-08 
-0.205576 -2.82839 -7.32426e-07 
0.0209611 -2.82839 9.52483e-07 
0.217225 -2.82837 -3.78001e-07 
0.421038 -2.82839 5.20056e-07 
0.621702 -2.82839 6.465e-07 
0.835013 -2.82842 8.33982e-07 
1.04295 -2.82841 2.08205e-07 
1.24742 -2.82841 7.09889e-07 
1.43719 -2.82841 6.32953e-07 
1.6727 -2.8284 9.01051e-07 
1.86666 -2.8284 1.05897e-06 
2.08083 -2.82839 9.13833e-07 
2.30765 -2.82838 9.8678e-07 
2.49772 -2.82838 8.24927e-07 
2.72899 -2.82837 7.56711e-07 
2.94848 -2.82838 6.42051e-07 
3.16452 -2.82837 5.03808e-07 
3.37054 -2.82837 3.90126e-07 
3.5956 -2.82837 3.2063e-07 
3.79873 -2.82837 2.52832e-07 
4.01605 -2.82837 1.98096e-07 
4.24443 -2.82837 1.57134e-07 
4.44388 -2.82837 1.01627e-07 
4.65684 -2.82837 7.02592e-08 
4.86606 -2.82837 4.09602e-08 
5.06994 -2.82837 7.93016e-09 
5.28757 -2.82837 -2.2084e-08 
5.49869 -2.82837 -6.20954e-08 
5.70311 -2.82837 -1.03344e-07 
5.92355 -2.82837 -1.43416e-07 
6.14452 -2.82837 -2.07489e-07 
6.34551 -2.82837 -2.96054e-07 
6.58724 -2.82837 -3.46407e-07 
6.7964 -2.82838 -4.44932e-07 
6.99459 -2.82837 -5.95335e-07 
7.25255 -2.82837 -8.09794e-07 
7.48154 -2.82837 -1.18462e-06 
7.71716 -2.82837 -1.28461e-06 
7.97776 -2.82837 -1.80533e-06 
8.1628 -2.82832 -3.50888e-07 
8.48523 -2.82835 5.42037e-07 
-8.48522 -2.59467 1.20696e-07 
-8.24584 -2.58632 -9.28541e-18 
-8.01209 -2.56211 6.62904e-18 
-7.7978 -2.61652 1.85245e-18 
-7.52592 -2.65101 4.92831e-19 
-7.22527 -2.60141 1.8714e-18 
-6.99108 -2.57639 1.90016e-18 
-6.77801 -2.59807 6.91457e-19 
-6.54523 -2.57652 2.15836e-18 
-6.33934 -2.56622 2.65485e-18 
-6.11946 -2.59251 5.69233e-19 
-5.89998 -2.5836 1.43592e-18 
-5.68493 -2.57401 1.21787e-18 
-5.46589 -2.58614 4.06741e-19 
-5.24968 -2.58016 3.1277e-19 
-5.03059 -2.58764 3.54894e-20 
-4.82103 -2.57466 -3.77094e-19 
-4.6018 -2.59108 -5.67834e-19 
-4.3819 -2.58756 -8.07476e-19 
-4.16266 -2.5879 -1.0106e-18 
-3.95195 -2.57525 -1.83791e-18 
-3.73917 -2.58078 -2.00161e-18 
-3.52658 -2.57958 -2.9074e-18 
-3.30842 -2.5923 -2.65376e-18 
-3.09478 -2.58792 -4.29918e-18 
-2.88124 -2.59222 -4.55453e-18 
-2.67884 -2.58354 -7.56934e-18 
-2.46717 -2.60496 -4.06193e-18 
-2.24972 -2.60172 -5.39671e-18 
-2.04102 -2.59646 -6.2864e-18 
-1.82709 -2.59695 -7.34482e-18 
-1.61555 -2.58615 -5.45164e-18 
-1.41132 -2.59316 -5.68985e-18 
-1.22829 -2.53701 -6.81705e-18 
-1.00625 -2.6273 9.68603e-18 
-0.781627 -2.59112 3.50471e-19 
-0.59037 -2.51339 8.00363e-19 
-0.386282 -2.51851 3.88514e-17 
-0.186675 -2.54874 -7.50424e-19 
0.0184167 -2.50852 -4.69301e-18 
0.216035 -2.46422 -2.50074e-17 
0.407935 -2.53146 4.14391e-18 
0.620745 -2.54787 2.2759e-18 
0.831738 -2.58142 -6.81594e-18 
1.04663 -2.57861 -5.94824e-18 
1.25474 -2.57707 5.61855e-18 
1.49477 -2.62713 -9.7864e-18 
1.71462 -2.58658 1.2704e-17 
1.93123 -2.61175 2.61107e-18 
2.15949 -2.62011 -9.6466e-19 
2.36744 -2.57626 1.3946e-17 
2.57991 -2.6099 1.16595e-19 
2.80451 -2.59642 4.88899e-18 
3.01775 -2.59286 4.70485e-18 
3.22438 -2.57453 4.13182e-18 
3.44348 -2.59676 2.07914e-18 
3.65024 -2.56934 3.22468e-18 
3.86415 -2.58559 1.2874e-18 
4.0922 -2.59838 7.67991e-19 
4.30158 -2.56562 1.49935e-18 
4.51526 -2.58489 4.65327e-19 
4.72912 -2.58091 4.1253e-19 
4.94104 -2.57603 1.1244e-19 
5.15601 -2.59185 -2.2566e-19 
5.3747 -2.58423 -2.98527e-19 
5.58535 -2.57449 -8.60281e-19 
5.80233 -2.59138 -7.80401e-19 
6.02747 -2.58952 -9.35732e-19 
6.24069 -2.56246 -2.74385e-18 
6.46123 -2.60683 -1.47511e-19 
6.68692 -2.57061 -3.10472e-18 
6.89293 -2.55524 -5.54683e-18 
7.11766 -2.62026 1.89441e-18 
7.36474 -2.59146 -1.95464e-18 
7.59698 -2.59686 -2.46535e-19 
7.84949 -2.6165 6.5884e-18 
8.062 -2.52259 -1.17774e-17 
8.28987 -2.64599 1.64224e-17 
8.48521 -2.52561 2.1013e-07 
-8.4852 -2.35601 2.64597e-07 
-8.21895 -2.35664 1.10025e-17 
-7.96291 -2.30681 1.11535e-17 
-7.71477 -2.42376 1.18279e-17 
-7.5624 -2.24988 1.24772e-17 
-7.42955 -2.45654 5.64258e-18 
-7.15675 -2.37105 9.44899e-18 
-6.93005 -2.3211 9.87893e-18 
-6.70269 -2.37106 7.50875e-18 
-6.47955 -2.32509 5.82406e-18 
-6.24284 -2.34194 4.73655e-18 
-6.02803 -2.3504 3.70515e-18 
-5.80814 -2.33445 2.49127e-18 
-5.58056 -2.33813 1.5189e-18 
-5.36452 -2.34083 9.86216e-19 
-5.13939 -2.34564 2.50994e-19 
-4.92674 -2.33214 -4.51285e-19 
-4.70327 -2.34697 -1.14431e-18 
-4.48487 -2.35232 -1.87363e-18 
-4.26299 -2.34965 -2.71387e-18 
-4.05005 -2.33215 -3.51844e-18 
-3.83417 -2.33142 -4.51492e-18 
-3.62186 -2.33419 -5.93305e-18 
-3.4037 -2.34902 -7.86127e-18 
-3.19119 -2.35044 -9.97211e-18 
-2.97588 -2.35645 -1.23367e-17 
-2.76831 -2.34368 -1.45484e-17 
-2.55652 -2.36567 -1.88368e-17 
-2.34564 -2.38488 -2.30352e-17 
-2.12572 -2.3636 -2.41869e-17 
-1.91201 -2.37066 -2.61863e-17 
-1.69293 -2.36163 -2.43177e-17 
-1.46999 -2.33984 -1.12851e-17 
-1.26007 -2.29115 -1.05351e-17 
-1.02532 -2.38812 -4.99063e-18 
-0.815323 -2.33023 -5.33909e-18 
-0.5924 -2.23751 4.10319e-18 
-0.39105 -2.20233 -5.09848e-18 
-0.1881 -2.23184 2.95956e-17 
0.0184893 -2.18134 -1.06825e-18 
0.196292 -2.07772 -6.06806e-18 
0.397521 -2.19203 -1.34415e-17 
0.598 -2.25613 -6.96978e-19 
0.817848 -2.31459 8.10818e-19 
1.02429 -2.32461 3.26311e-18 
1.25113 -2.34574 8.8506e-18 
1.46708 -2.40837 1.96001e-17 
1.66003 -2.34593 2.61332e-17 
1.87668 -2.37793 2.77238e-17 
2.08651 -2.40358 2.56927e-17 
2.29574 -2.36131 2.38132e-17 
2.52787 -2.36561 1.9501e-17 
2.73604 -2.37764 1.63357e-17 
2.9594 -2.35249 1.26191e-17 
3.15942 -2.33327 9.96765e-18 
3.3781 -2.3554 8.0609e-18 
3.58222 -2.32462 6.27161e-18 
3.79475 -2.3348 5.06163e-18 
4.0105 -2.36304 3.87598e-18 
4.21974 -2.32635 2.80377e-18 
4.4412 -2.33409 1.96104e-18 
4.65044 -2.33675 1.24328e-18 
4.86267 -2.3341 6.15111e-19 
5.08099 -2.34355 -4.85803e-20 
5.29153 -2.35107 -7.40942e-19 
5.50792 -2.3309 -1.38804e-18 
5.72674 -2.34432 -2.17018e-18 
5.94365 -2.35598 -3.13707e-18 
6.15999 -2.3241 -4.13417e-18 
6.39351 -2.34997 -5.5993e-18 
6.60119 -2.3468 -7.10624e-18 
6.82446 -2.29807 -7.50587e-18 
7.05236 -2.36024 -1.04071e-17 
7.26808 -2.3871 -1.20385e-17 
7.52361 -2.35971 -1.34178e-17 
7.76536 -2.39035 -1.49264e-17 
7.98443 -2.29532 -1.16805e-17 
8.25726 -2.36979 -8.94751e-18 
8.48522 -2.27497 -1.32579e-07 
-8.4852 -2.11278 -1.29823e-07 
-8.25438 -2.13989 1.93033e-18 
-8.05882 -2.04965 6.1455e-19 
-7.79535 -2.14496 3.5189e-18 
-7.51599 -2.0324 1.27294e-18 
-7.30933 -2.22197 7.93338e-18 
-7.06492 -2.10749 2.70507e-18 
-6.7997 -2.11943 3.82216e-18 
-6.59564 -2.11139 3.08719e-18 
-6.34685 -2.11832 2.48066e-18 
-6.11949 -2.0976 1.79396e-18 
-5.91401 -2.10056 1.4291e-18 
-5.68966 -2.10742 1.00109e-18 
-5.46835 -2.09577 7.41824e-19 
-5.25085 -2.11094 4.20721e-19 
-5.03899 -2.09462 3.41587e-21 
-4.81654 -2.10742 -3.84445e-19 
-4.59971 -2.11356 -7.39618e-19 
-4.38288 -2.11753 -1.09894e-18 
-4.17256 -2.0988 -1.39345e-18 
-3.95735 -2.0915 -1.78501e-18 
-3.74507 -2.08997 -2.3045e-18 
-3.52975 -2.10506 -3.13273e-18 
-3.32027 -2.11088 -3.99558e-18 
-3.10747 -2.11954 -5.09541e-18 
-2.90169 -2.11484 -6.05209e-18 
-2.68541 -2.1186 -7.04494e-18 
-2.47619 -2.14071 -8.58582e-18 
-2.26624 -2.15648 -1.08622e-17 
-2.0375 -2.13202 -1.05713e-17 
-1.81929 -2.14074 -1.07966e-17 
-1.59152 -2.12672 -8.90235e-18 
-1.37671 -2.06009 -5.11759e-18 
-1.18114 -1.9656 7.28307e-18 
-1.05155 -2.13801 2.19982e-18 
-0.80627 -2.0905 1.48528e-19 
-0.604345 -1.9465 3.09151e-17 
-0.37439 -1.9098 3.44438e-17 
-0.156741 -1.91448 -6.32504e-17 
0.0339233 -1.80313 2.81654e-17 
0.247357 -1.62382 3.10236e-17 
0.338838 -1.85937 3.33999e-18 
0.561695 -1.91903 -1.79468e-17 
0.777002 -2.03275 -3.30768e-18 
0.993268 -2.04041 -5.78397e-18 
1.20362 -2.10822 5.78506e-18 
1.43147 -2.15596 8.65869e-18 
1.64883 -2.11181 5.49835e-18 
1.87543 -2.15176 9.6093e-18 
2.10303 -2.16799 1.1863e-17 
2.34624 -2.155 9.06923e-18 
2.56842 -2.13071 8.84292e-18 
2.78789 -2.15128 7.85197e-18 
2.98792 -2.09508 5.05769e-18 
3.21082 -2.11173 4.61887e-18 
3.41113 -2.10285 3.56527e-18 
3.62544 -2.08572 2.61642e-18 
3.84283 -2.10432 2.15665e-18 
4.0452 -2.11072 1.74794e-18 
4.27283 -2.09603 1.19458e-18 
4.48386 -2.08957 8.32183e-19 
4.69645 -2.09455 5.01146e-19 
4.91584 -2.10302 1.54879e-19 
5.12839 -2.10138 -1.51172e-19 
5.33963 -2.11102 -4.84474e-19 
5.56451 -2.09916 -7.62596e-19 
5.78133 -2.10835 -1.14785e-18 
5.99215 -2.10817 -1.61461e-18 
6.23447 -2.10773 -2.07607e-18 
6.44267 -2.09356 -2.66089e-18 
6.65403 -2.09758 -3.32707e-18 
6.91054 -2.08697 -2.97967e-18 
7.1246 -2.12153 -3.36316e-18 
7.35075 -2.16931 -4.28263e-18 
7.53902 -2.06766 -1.19226e-18 
7.7219 -2.15622 -5.56701e-18 
7.94485 -2.0621 3.30611e-19 
8.20143 -2.14196 -6.37519e-18 
8.48522 -2.07423 -2.6666e-07 
-8.4852 -1.76111 -3.50731e-07 
-8.31937 -1.88328 -1.17044e-17 
-7.88299 -1.8955 -4.06954e-18 
-7.65932 -1.88471 1.54525e-18 
[...]
POINT_DATA 1978 
VECTORS vectors float
0.0201547 -0.0205979 0.999613 
0.0285662 -0.0842541 0.996037 
0.0208655 -0.104322 0.994328 
0.0188236 -0.10012 0.994791 
0.018795 -0.0834546 0.996329 
0.0213756 -0.0685143 0.997426 
0.0231521 -0.0537582 0.998299 
0.022944 -0.0422497 0.998852 
0.0233693 -0.0328582 0.9992 
0.0237276 -0.0240378 0.999445 
0.0238691 -0.0168992 0.999589 
0.024229 -0.0114277 0.999652 
0.0238569 -0.00706413 0.999703 
0.0242233 -0.00393529 0.999711 
0.0242859 -0.00145698 0.999716 
0.0243589 0.000456628 0.999715 
0.0243085 0.00248902 0.999714 
0.0241336 0.00484132 0.999709 
0.0240945 0.00782651 0.99969 
0.0239349 0.011485 0.999659 
0.0238815 0.016074 0.999598 
0.0237751 0.021535 0.999498 
0.0234731 0.0285505 0.999328 
0.0230382 0.0373355 0.999047 
0.0227021 0.0492966 0.998536 
0.0224133 0.064372 0.997685 
0.0218826 0.0841196 0.996227 
0.020966 0.1079 0.993952 
0.0200561 0.140786 0.989847 
0.0185057 0.182688 0.983006 
0.0170889 0.234617 0.971946 
0.0150635 0.298728 0.954228 
0.0130406 0.37459 0.927106 
0.0102221 0.469286 0.882993 
0.00724395 0.559281 0.828952 
0.00518439 0.698721 0.71538 
0.00295891 0.813532 0.581516 
0.00126451 0.897904 0.440198 
3.55941e-05 0.976298 0.216425 
-0.00036123 0.999645 -0.026625 
-0.000767794 0.972642 -0.232315 
-0.00180968 0.907848 -0.419298 
-0.00283014 0.812843 -0.582479 
-0.00461772 0.694825 -0.719165 
-0.00798144 0.57654 -0.817036 
-0.0100798 0.47294 -0.881044 
-0.0125467 0.387625 -0.921738 
-0.0150189 0.298415 -0.954326 
-0.0164553 0.238724 -0.970957 
-0.0188154 0.185795 -0.982416 
-0.0193131 0.140014 -0.989971 
-0.0203686 0.110616 -0.993664 
-0.0216205 0.0831162 -0.996313 
-0.0220871 0.0630618 -0.997775 
-0.022711 0.0480296 -0.998599 
-0.0233907 0.0369782 -0.999053 
-0.0236418 0.0279479 -0.999342 
-0.0233803 0.0215622 -0.999507 
-0.0241057 0.016335 -0.999586 
-0.0239142 0.0118522 -0.999656 
-0.0241419 0.00853407 -0.999687 
-0.024786 0.00559722 -0.999691 
-0.0243166 0.00295921 -0.999714 
-0.0243746 0.000528348 -0.999716 
-0.0245692 -0.00218542 -0.999708 
-0.0241331 -0.00514392 -0.999709 
-0.0239957 -0.00829138 -0.99969 
-0.0242366 -0.0123637 -0.99964 
-0.0233125 -0.0176611 -0.999585 
-0.0231109 -0.0236202 -0.999464 
-0.0234723 -0.0321782 -0.999216 
-0.0223969 -0.0415295 -0.9989 
-0.0219305 -0.0528138 -0.998372 
-0.0212608 -0.0711703 -0.997243 
-0.0201167 -0.0900863 -0.995736 
-0.0219729 -0.107597 -0.993957 
-0.0208047 -0.118126 -0.992788 
-0.0255584 -0.106264 -0.994013 
-0.0256525 -0.0194158 -0.999501 
0.0121932 -0.0320971 0.999426 
0.0251595 -0.0685307 0.997336 
0.0409089 -0.0936343 0.994765 
0.0400875 -0.0979362 0.994391 
0.0357076 -0.0860399 0.995659 
0.0427625 -0.0668446 0.996855 
0.0469323 -0.0551089 0.997377 
0.0459102 -0.0438371 0.997988 
0.0492093 -0.0321799 0.998275 
0.052786 -0.0241402 0.998319 
0.0502962 -0.0172601 0.998586 
0.051173 -0.0112397 0.99863 
0.0542352 -0.00722603 0.998505 
0.0526108 -0.00404613 0.99861 
0.0539468 -0.00143106 0.998546 
0.0532271 0.000877593 0.998585 
0.0553458 0.00308589 0.998465 
0.0523612 0.00571819 0.998615 
0.0526292 0.00901576 0.998576 
0.0521302 0.0130612 0.998558 
0.053257 0.0178365 0.998425 
0.0514747 0.0237649 0.998395 
0.0508898 0.0312303 0.998219 
0.0478806 0.0410074 0.998015 
0.0475044 0.0535601 0.997438 
0.0453358 0.0698647 0.99653 
0.0445172 0.0899887 0.994952 
0.0391732 0.11655 0.992417 
0.0360382 0.152321 0.98768 
0.0324848 0.196577 0.979956 
0.0283728 0.252805 0.967108 
0.0238286 0.322799 0.946176 
0.0185894 0.405012 0.914129 
0.015678 0.490651 0.871226 
0.00841509 0.607927 0.793956 
0.00594902 0.728378 0.685158 
0.00385276 0.825506 0.564391 
0.000994475 0.918435 0.395578 
-0.000669115 0.977904 0.209061 
-0.00249434 0.999977 -0.0062487 
-0.00470632 0.975677 -0.219166 
-0.00601927 0.913085 -0.407734 
-0.00789581 0.81477 -0.579739 
-0.00927202 0.695204 -0.718764 
-0.0129242 0.575361 -0.817801 
-0.0170696 0.468718 -0.883196 
-0.0191112 0.364169 -0.931144 
-0.02689 0.287042 -0.957549 
-0.0293196 0.224511 -0.974037 
-0.032447 0.170598 -0.984813 
-0.041341 0.133141 -0.990239 
-0.038617 0.102462 -0.993992 
-0.0435671 0.0775533 -0.99604 
-0.0463379 0.059541 -0.997154 
-0.049612 0.0461699 -0.997705 
-0.0482927 0.0349628 -0.998225 
-0.052911 0.0270371 -0.998236 
-0.0510381 0.0205961 -0.998488 
-0.0499762 0.0150891 -0.99864 
-0.0556359 0.0110756 -0.998392 
-0.0531276 0.00767091 -0.998561 
-0.0540437 0.00465204 -0.998531 
-0.0552381 0.00197011 -0.998474 
-0.0523406 -0.000696869 -0.998632 
-0.0537474 -0.00370147 -0.998551 
-0.0547366 -0.00680114 -0.99848 
-0.051137 -0.0104694 -0.99864 
-0.0508642 -0.0152541 -0.998593 
-0.0538545 -0.0208171 -0.998335 
-0.0458922 -0.0279176 -0.998561 
-0.0505802 -0.0371185 -0.998034 
-0.0512384 -0.047319 -0.997569 
-0.0406945 -0.0608374 -0.997324 
-0.0443616 -0.0785031 -0.995931 
-0.0429418 -0.0945192 -0.994601 
-0.0394752 -0.107263 -0.993451 
-0.0454298 -0.0976714 -0.99418 
-0.0198953 -0.0648054 -0.997707 
-0.0147217 -0.0284823 -0.999528 
0.00918833 -0.0270975 0.999611 
0.0378579 -0.0693794 0.996868 
0.0555518 -0.0922673 0.99419 
0.0553185 -0.0906858 0.994347 
0.0632275 -0.0834545 0.994509 
0.0537631 -0.0791689 0.995415 
0.0635224 -0.06337 0.995972 
0.0682026 -0.0508337 0.996382 
0.0669357 -0.0397095 0.996972 
0.0707537 -0.0299056 0.997051 
0.0723031 -0.0214926 0.997157 
0.0726309 -0.0151571 0.997249 
0.0745778 -0.0104039 0.997166 
0.075503 -0.00641385 0.99713 
0.0759808 -0.00325525 0.997109 
0.0763012 -0.000534776 0.99709 
0.0770624 0.00186357 0.99703 
0.0764053 0.00459388 0.997071 
0.0757178 0.00771799 0.997104 
0.0749067 0.0115473 0.997129 
0.0744781 0.0161201 0.997098 
0.0731083 0.0217678 0.997092 
0.0717662 0.0286818 0.997014 
0.0696425 0.0376502 0.996867 
0.0677869 0.048974 0.996503 
0.0650851 0.0638448 0.995841 
0.0625242 0.0825723 0.994628 
0.0584413 0.106845 0.992563 
0.0532873 0.137991 0.989005 
0.0478107 0.180676 0.982387 
0.0413687 0.232637 0.971691 
0.0340646 0.300359 0.953226 
0.0260817 0.384869 0.922614 
0.0197102 0.476446 0.878992 
0.0133178 0.591175 0.806443 
0.00829362 0.703261 0.710892 
0.00294257 0.825728 0.564067 
-0.000209328 0.91741 0.397951 
-0.00234254 0.980586 0.19608 
-0.00377831 0.999541 -0.0301087 
-0.00454237 0.975595 -0.219529 
-0.00698228 0.911054 -0.412236 
-0.00966505 0.821595 -0.57 
-0.0127617 0.700916 -0.71314 
-0.0165651 0.586611 -0.809715 
-0.0224069 0.476335 -0.878983 
-0.0276974 0.381961 -0.923772 
-0.0349604 0.310319 -0.949998 
-0.0410857 0.241786 -0.969469 
-0.046194 0.189361 -0.980824 
-0.0531722 0.147385 -0.987656 
-0.0575276 0.111019 -0.992158 
-0.0607729 0.0862062 -0.994428 
-0.0649411 0.0657804 -0.995724 
-0.0678691 0.0514771 -0.996371 
-0.0690622 0.0392206 -0.996846 
-0.0720651 0.0305627 -0.996937 
-0.0731213 0.0233248 -0.997056 
-0.0729381 0.0174602 -0.997189 
-0.0756852 0.0130249 -0.997052 
-0.0760067 0.00901915 -0.997072 
-0.0763354 0.00577456 -0.99707 
-0.076984 0.00284083 -0.997033 
-0.0766189 -1.76375e-05 -0.997065 
-0.0760726 -0.00283979 -0.997103 
-0.0764517 -0.00605199 -0.99706 
-0.0750595 -0.00965755 -0.997137 
-0.0733899 -0.0138622 -0.997212 
-0.0736353 -0.0191096 -0.997108 
-0.0709418 -0.0259782 -0.997147 
-0.0696296 -0.0337493 -0.997007 
-0.0692546 -0.0443304 -0.99662 
-0.0660088 -0.0569861 -0.996196 
-0.0633751 -0.0707485 -0.995485 
-0.062601 -0.0857807 -0.994352 
-0.0600117 -0.0973184 -0.993447 
-0.059255 -0.0968339 -0.993539 
-0.03588 -0.0642794 -0.997285 
-0.0107523 -0.0273791 -0.999586 
0.0115968 -0.0195791 0.999774 
0.0346279 -0.064577 0.997313 
0.0478088 -0.0869669 0.995067 
0.0573292 -0.0897049 0.994325 
0.0598297 -0.081672 0.994868 
0.0654993 -0.0721066 0.99525 
0.065631 -0.0590549 0.996103 
0.0687571 -0.0438389 0.996676 
0.0705322 -0.034711 0.996912 
0.0724143 -0.0254703 0.997056 
0.0733296 -0.0186097 0.99714 
0.0748361 -0.0135871 0.997109 
0.0760267 -0.00907064 0.997071 
0.0766629 -0.00541573 0.997048 
0.0775915 -0.00232354 0.996988 
0.0776732 0.000324106 0.996985 
0.0779167 0.0031787 0.996961 
0.0776617 0.00625533 0.996966 
0.0770125 0.00987194 0.996987 
0.0757407 0.0141317 0.997033 
0.074312 0.0193954 0.997052 
0.0727432 0.0257078 0.997025 
0.0712178 0.0336546 0.996899 
0.069243 0.0435025 0.996657 
0.0668825 0.0563128 0.996177 
0.0637841 0.0723099 0.995347 
0.0599474 0.0938654 0.993785 
0.0557521 0.120695 0.99113 
0.0507531 0.155258 0.986577 
0.0435053 0.203886 0.978036 
0.0365036 0.263268 0.96404 
0.0283949 0.340092 0.939972 
0.0203151 0.42777 0.903669 
0.0125282 0.521597 0.85311 
0.0120181 0.581051 0.813789 
0.00543578 0.713215 0.700931 
0.00158123 0.823526 0.567288 
-0.000239789 0.928482 0.371375 
-0.00121021 0.986819 0.161849 
-0.00218348 0.999456 -0.0329616 
-0.00365136 0.973336 -0.229385 
-0.00395584 0.930556 -0.366133 
-0.00632683 0.830017 -0.557712 
-0.0103682 0.727642 -0.685881 
-0.0134257 0.612794 -0.790149 
-0.0186488 0.507768 -0.861298 
-0.0258954 0.3974 -0.917291 
-0.0320854 0.316676 -0.947998 
-0.0395464 0.245307 -0.968645 
-0.0463875 0.18715 -0.981247 
-0.052825 0.139763 -0.988782 
-0.0576897 0.10767 -0.992518 
-0.0625037 0.0829688 -0.994595 
-0.0643461 0.0657113 -0.99577 
-0.0679601 0.0500767 -0.996437 
-0.0700398 0.0392916 -0.996776 
-0.071803 0.0302689 -0.996966 
-0.0738475 0.0229194 -0.997012 
-0.0751681 0.0174838 -0.997024 
-0.0761524 0.0124852 -0.997024 
-0.0768175 0.00859305 -0.997014 
-0.0774731 0.00519214 -0.996987 
-0.0778929 0.0020116 -0.996966 
-0.0778088 -0.000948574 -0.996974 
-0.077568 -0.00395242 -0.996985 
-0.0767002 -0.00750536 -0.997032 
-0.0758962 -0.0113203 -0.997057 
-0.0747102 -0.0156725 -0.997088 
-0.0731824 -0.0218263 -0.997086 
-0.0713488 -0.0284497 -0.997052 
-0.0697509 -0.0367674 -0.996893 
-0.0673532 -0.0496155 -0.996501 
-0.0661338 -0.0620201 -0.995888 
-0.0652923 -0.0758495 -0.994985 
-0.0616078 -0.0849221 -0.994488 
-0.0615357 -0.0917911 -0.993881 
-0.0559083 -0.0942581 -0.993982 
-0.0429754 -0.0726848 -0.996427 
-0.00922255 -0.0292866 -0.999542 
0.0133488 -0.0187922 0.999771 
0.0183621 -0.0477099 0.998708 
0.04989 -0.0933605 0.994387 
0.053776 -0.0869072 0.99477 
0.0537927 -0.07891 0.995438 
0.0611851 -0.0718433 0.995543 
0.0586722 -0.064048 0.996228 
0.0636915 -0.0517139 0.996636 
0.0635999 -0.0405197 0.997159 
0.0670683 -0.031071 0.997271 
0.068062 -0.0233342 0.997414 
0.0680041 -0.0175348 0.997537 
0.07032 -0.0125544 0.997452 
0.0710527 -0.00837136 0.997444 
0.0717542 -0.0047082 0.997417 
0.0722165 -0.00172313 0.997394 
0.0727575 0.0014217 0.997355 
0.0727922 0.00458777 0.997343 
0.0724732 0.00811641 0.997343 
0.0712062 0.0121224 0.997394 
0.0697995 0.0169953 0.997422 
0.0681447 0.0228564 0.99742 
0.0667929 0.0300318 0.997321 
0.0650281 0.0387044 0.997139 
0.0630995 0.0497209 0.996774 
0.0603513 0.0634581 0.996165 
0.0573062 0.0814316 0.995037 
0.053195 0.105097 0.993045 
0.0489588 0.134435 0.98972 
0.0436978 0.173434 0.983884 
0.0356929 0.230731 0.972372 
0.0287803 0.298116 0.954103 
0.0207055 0.375044 0.926786 
0.0127398 0.466144 0.884627 
0.00557351 0.657584 0.75337 
0.0014482 0.763784 0.645481 
-0.000264902 0.883342 0.468739 
-0.00311564 0.954877 0.29698 
-0.00259029 0.971212 0.238221 
-0.00411784 0.999912 0.0127666 
-0.00428133 0.983493 -0.180882 
-0.00479208 0.937247 -0.348644 
-0.00419561 0.859498 -0.511129 
-0.00651753 0.722499 -0.691358 
-0.00928726 0.612127 -0.790705 
-0.0150257 0.50556 -0.862674 
-0.0210569 0.421104 -0.906776 
-0.0255133 0.34238 -0.939225 
-0.0325939 0.268982 -0.962602 
-0.0396597 0.209667 -0.976976 
-0.0458061 0.161973 -0.985739 
-0.0506506 0.124324 -0.990955 
-0.0558945 0.0926054 -0.994141 
-0.057345 0.0756454 -0.99549 
-0.0616869 0.0574332 -0.996448 
-0.0635782 0.0446605 -0.996984 
-0.0656733 0.0347961 -0.997241 
-0.0678875 0.0263044 -0.997352 
-0.0691098 0.0200786 -0.997413 
-0.0709536 0.0148796 -0.997375 
-0.0709823 0.0102669 -0.997431 
-0.0718117 0.00640131 -0.997404 
-0.0725954 0.00293232 -0.997363 
-0.0724419 -0.000268539 -0.997379 
-0.0722925 -0.003502 -0.997383 
-0.0720099 -0.00681521 -0.997387 
-0.0708327 -0.010862 -0.997435 
-0.0695441 -0.0151713 -0.99747 
-0.0690723 -0.0202935 -0.997412 
-0.0660201 -0.0271441 -0.997456 
-0.0644616 -0.0350736 -0.99731 
-0.063773 -0.0451589 -0.996949 
-0.060642 -0.0594619 -0.996395 
-0.0604708 -0.0725208 -0.995539 
-0.0559526 -0.0841649 -0.994886 
-0.0541088 -0.0915609 -0.994335 
-0.0462365 -0.0898136 -0.994889 
-0.0338996 -0.0645578 -0.997339 
-0.00946768 -0.0292768 -0.999551 
0.00837413 -0.027157 0.999614 
0.0218138 -0.0604839 0.997935 
0.0382606 -0.0795508 0.996097 
0.0431862 -0.0936139 0.994678 
0.0466891 -0.0880285 0.995029 
0.0498129 -0.073202 0.996079 
0.0533915 -0.0574055 0.996929 
0.0555417 -0.0472536 0.997344 
0.0573524 -0.0349131 0.99775 
0.0592907 -0.0273512 0.997873 
0.0588238 -0.0211517 0.998051 
0.0598023 -0.015313 0.998099 
0.0617052 -0.0109338 0.998041 
0.0627129 -0.0069152 0.998014 
0.0621385 -0.00345301 0.998068 
0.0637138 -0.000150724 0.997975 
0.0637151 0.00325213 0.997969 
0.0634582 0.00693055 0.997967 
0.0621242 0.0109364 0.998015 
0.0609773 0.0156531 0.998023 
0.059535 0.0212767 0.998006 
0.0583075 0.0281379 0.997908 
0.0566208 0.0363867 0.997739 
0.0551235 0.0466221 0.997397 
0.0526669 0.0593913 0.996851 
0.0500999 0.0759726 0.995857 
0.0468188 0.0973913 0.994152 
0.042323 0.126565 0.991063 
0.0383436 0.16303 0.985884 
0.032534 0.211853 0.976769 
0.0238944 0.2868 0.957704 
0.0158314 0.373532 0.927492 
0.00755708 0.490631 0.871345 
0.00248604 0.604781 0.796396 
0.0062445 0.588055 0.80881 
0.000708288 0.716097 0.698011 
-0.00256572 0.851396 0.52453 
-0.00346564 0.880261 0.474475 
-0.00310181 0.996105 0.0881986 
0.000483129 0.998639 0.0521386 
0.00397047 0.995732 -0.0921127 
-0.00140888 0.939065 -0.343759 
-0.00241663 0.856076 -0.516844 
-0.00324967 0.759776 -0.650185 
-0.00428115 0.632654 -0.774434 
-0.00907899 0.515243 -0.857006 
-0.0147997 0.41068 -0.911672 
-0.0222129 0.317533 -0.947997 
-0.0293389 0.246496 -0.968709 
-0.035995 0.191832 -0.980774 
-0.0407379 0.149058 -0.987999 
-0.0470291 0.111632 -0.992643 
-0.0461288 0.0902987 -0.994855 
-0.051465 0.0688619 -0.996305 
-0.0536646 0.0542285 -0.997092 
-0.0549475 0.0425137 -0.99759 
-0.0579498 0.0326435 -0.997792 
-0.0589142 0.0253045 -0.997949 
-0.060237 0.0190649 -0.998008 
-0.0622518 0.0139121 -0.99797 
-0.0616157 0.00924129 -0.998064 
-0.0628142 0.00518097 -0.998018 
-0.0629717 0.00168459 -0.99802 
-0.0630343 -0.00174987 -0.998016 
-0.0624947 -0.00516357 -0.998038 
-0.062879 -0.00877635 -0.997989 
-0.0609011 -0.0129543 -0.998066 
-0.0603885 -0.0177502 -0.998024 
-0.0595384 -0.0230304 -0.997967 
-0.0558484 -0.0303904 -0.997983 
-0.0551427 -0.0393224 -0.997711 
-0.0557183 -0.0504611 -0.997176 
-0.0508713 -0.0625861 -0.996749 
-0.0525366 -0.073662 -0.995906 
-0.0474763 -0.0853093 -0.995229 
-0.0466893 -0.091944 -0.994675 
-0.0390067 -0.0916853 -0.995029 
-0.0252102 -0.0578347 -0.998012 
-0.00847451 -0.0283454 -0.999582 
0.00541931 -0.0306129 0.99953 
0.0206495 -0.0667093 0.997559 
0.0340722 -0.0903884 0.995328 
0.0357479 -0.0923014 0.995097 
0.0424976 -0.0841015 0.995558 
0.0384874 -0.0758467 0.996383 
0.0439615 -0.0635552 0.997015 
0.0418127 -0.0508896 0.997837 
0.0476417 -0.0410994 0.998024 
0.0461823 -0.0319124 0.99843 
0.0471274 -0.0254587 0.998571 
0.04885 -0.0191951 0.998628 
0.0485472 -0.014179 0.998727 
0.0510071 -0.00993645 0.998655 
0.0512392 -0.00617768 0.998674 
0.0511345 -0.00243766 0.998695 
0.0524964 0.000982697 0.998627 
0.0522196 0.0046717 0.998631 
0.0508689 0.00853948 0.998675 
0.0499775 0.0130184 0.998672 
0.0491385 0.0181986 0.998632 
0.0481516 0.0243106 0.99855 
0.0467985 0.031518 0.998413 
0.0454137 0.0403802 0.998158 
0.0438197 0.0511394 0.997736 
0.0417896 0.065148 0.997007 
0.0392357 0.0830804 0.995777 
0.0362796 0.107044 0.9936 
0.0319342 0.140066 0.989635 
0.0282813 0.181975 0.982905 
0.0230188 0.242874 0.969794 
0.014738 0.327349 0.944799 
0.00793982 0.430253 0.902683 
0.00191381 0.545544 0.83809 
-0.00232406 0.763189 0.646183 
-0.00144953 0.831375 0.555726 
0.00191402 0.90406 0.427436 
0.00420054 0.98339 0.181469 
-0.000537707 0.955377 0.295399 
0.00332265 0.999237 0.0388097 
0.000722884 0.99964 -0.0268672 
0.00113949 0.975942 -0.217965 
0.000396074 0.936963 -0.349599 
8.06215e-05 0.821705 -0.569936 
-0.00146891 0.715319 -0.698811 
-0.00348043 0.548361 -0.836247 
-0.00742378 0.446573 -0.894727 
-0.0136595 0.347648 -0.937536 
-0.0206781 0.262216 -0.964798 
-0.0269083 0.200301 -0.979376 
-0.0304594 0.159223 -0.986779 
-0.0369317 0.124679 -0.991517 
-0.0350561 0.104673 -0.993894 
-0.0400002 0.0794735 -0.996041 
-0.0422518 0.062754 -0.997141 
-0.0435691 0.0493392 -0.997838 
-0.0461044 0.037937 -0.998222 
-0.0472103 0.0296496 -0.998451 
-0.048564 0.0226067 -0.998571 
-0.0498109 0.0166246 -0.998627 
-0.0509996 0.011756 -0.998636 
-0.0510191 0.0068522 -0.998681 
-0.0510817 0.00292466 -0.998697 
-0.0515652 -0.000765997 -0.998676 
-0.0509111 -0.00435911 -0.9987 
-0.0511691 -0.0081594 -0.998663 
-0.0502456 -0.0120787 -0.99867 
-0.0495479 -0.0169161 -0.998635 
-0.0479522 -0.0223128 -0.998607 
-0.0463569 -0.0284409 -0.998527 
-0.0444751 -0.0377152 -0.998306 
-0.0451332 -0.0488782 -0.997791 
-0.0413836 -0.0632065 -0.997149 
-0.0415422 -0.0776491 -0.996122 
-0.0363065 -0.0880371 -0.995462 
-0.037444 -0.0930999 -0.994959 
-0.0306369 -0.0944979 -0.995059 
-0.0240285 -0.0696082 -0.997285 
-0.00619762 -0.029059 -0.999575 
0.0040308 -0.0312563 0.999517 
0.0156285 -0.0662881 0.99768 
0.0274456 -0.0944502 0.995156 
0.0264152 -0.0947577 0.995156 
0.0327711 -0.0883342 0.995558 
0.029742 -0.0783735 0.996487 
0.0334689 -0.0627808 0.997473 
0.0318522 -0.0494208 0.998277 
0.0364927 -0.039294 0.998568 
0.0339643 -0.0316189 0.998929 
0.0370192 -0.0244484 0.999022 
0.0380915 -0.0186955 0.999106 
0.0375696 -0.0137784 0.999207 
0.0397681 -0.0096037 0.999169 
0.040742 -0.00547627 0.99916 
0.0400151 -0.00159019 0.999205 
0.0412795 0.00213369 0.99915 
0.0398572 0.00604767 0.999195 
0.0391487 0.0105993 0.999183 
0.038652 0.0157487 0.999135 
0.0379662 0.0215641 0.999053 
0.0369396 0.0282964 0.998923 
0.0358272 0.0365071 0.998697 
0.0343439 0.0466016 0.998329 
0.0330262 0.0592839 0.997701 
0.0309434 0.0757849 0.996651 
0.0286165 0.0976751 0.994814 
0.0255454 0.127057 0.991575 
0.0216361 0.169314 0.985334 
0.0186093 0.222755 0.974704 
0.0133024 0.292713 0.956118 
0.00723071 0.393693 0.919224 
0.00263212 0.498746 0.866754 
0.000245964 0.62242 0.782691 
-0.0010926 0.661943 0.749563 
0.0059885 0.887965 0.459875 
0.00556553 0.949453 0.313875 
0.00363942 0.996845 0.0791536 
0.00583168 0.998212 0.0596449 
0.00505643 0.999582 0.0280689 
0.00416924 0.998855 -0.0476792 
0.00356372 0.997709 -0.0675537 
-0.00100291 0.957995 -0.286768 
-0.000342988 0.822552 -0.568824 
-0.00130601 0.610639 -0.791916 
-0.000463655 0.585273 -0.810847 
-0.00266424 0.48149 -0.87646 
-0.00689512 0.385575 -0.92266 
-0.0122714 0.297446 -0.95467 
-0.0177415 0.223686 -0.974509 
-0.0206776 0.174971 -0.984365 
-0.0262132 0.132572 -0.990836 
-0.028865 0.0951388 -0.995053 
-0.0308931 0.0747357 -0.996732 
-0.0330431 0.0587451 -0.997733 
-0.0349036 0.0451985 -0.998374 
-0.03584 0.0355495 -0.998731 
-0.0372093 0.027462 -0.998936 
-0.0384492 0.0207242 -0.999052 
-0.0387461 0.0151082 -0.999142 
-0.0409196 0.00996201 -0.999118 
-0.039554 0.00531735 -0.999211 
-0.0401692 0.00119028 -0.999198 
-0.0398482 -0.00252417 -0.999209 
-0.0399237 -0.00639001 -0.999189 
-0.039014 -0.0102208 -0.999193 
-0.0392982 -0.014577 -0.999128 
-0.037851 -0.0194812 -0.9991 
-0.0358488 -0.0250491 -0.99905 
-0.0359516 -0.0322842 -0.99884 
-0.0332575 -0.0414706 -0.99859 
-0.0351822 -0.0508 -0.998096 
-0.0307649 -0.0626245 -0.99757 
-0.0324108 -0.0755609 -0.996621 
-0.0280319 -0.0875629 -0.995771 
-0.0271001 -0.0948633 -0.995128 
-0.0220948 -0.0934539 -0.995383 
-0.0164019 -0.0638034 -0.997831 
-0.00460665 -0.0303567 -0.999552 
0.00281427 -0.0312376 0.99952 
0.0108532 -0.067127 0.997687 
0.0200359 -0.0942798 0.995349 
0.0194733 -0.0961255 0.995185 
0.0241581 -0.0888657 0.995757 
0.0214228 -0.0783919 0.996699 
0.0253249 -0.0651842 0.997559 
0.023576 -0.0524876 0.99835 
0.0261693 -0.0401555 0.998857 