# vtk DataFile Version 3.0 
Exported using Morpho https://github.com/Morpho-lang/morpho 
ASCII 
DATASET UNSTRUCTURED_GRID 

POINTS 1978 float 
-8.48528 -2.82842 -5.4269e-08 
-8.25162 -2.82842 1.26401e-08 
-8.01938 -2.82842 1.92133e-07 
-7.76094 -2.82842 2.12227e-07 
-7.45009 -2.82842 1.71793e-07 
-7.21852 -2.82842 1.02498e-07 
-6.98222 -2.82842 7.68212e-08 
-6.75713 -2.82842 6.28069e-08 
-6.55377 -2.82842 4.76843e-08 
-6.34599 -2.82842 3.52011e-08 
-6.14883 -2.82842 2.23773e-08 
-5.93266 -2.82842 1.72173e-08 
-5.71773 -2.82842 1.06508e-08 
-5.50996 -2.82842 4.81335e-09 
-5.29189 -2.82842 1.58289e-09 
-5.07956 -2.82842 -8.99164e-10 
-4.86171 -2.82842 -3.601e-09 
-4.65535 -2.82842 -8.29975e-09 
-4.43492 -2.82842 -1.30137e-08 
-4.21736 -2.82842 -1.92576e-08 
-3.99814 -2.82842 -2.58916e-08 
-3.78794 -2.82842 -3.37141e-08 
-3.57166 -2.82842 -4.33869e-08 
-3.35822 -2.82842 -5.59743e-08 
-3.13546 -2.82842 -6.98975e-08 
-2.92202 -2.82842 -8.27985e-08 
-2.70974 -2.82842 -9.5496e-08 
-2.51101 -2.82842 -1.11306e-07 
-2.29709 -2.82842 -1.23335e-07 
-2.086 -2.82842 -1.34303e-07 
-1.87922 -2.82842 -1.2687e-07 
-1.6724 -2.82842 -1.20497e-07 
-1.47155 -2.82843 -9.12025e-08 
-1.26171 -2.82842 -6.5469e-08 
-1.08459 -2.82842 -1.12934e-07 
-0.831873 -2.82842 -2.66106e-08 
-0.612962 -2.82842 -7.02131e-09 
-0.432203 -2.82842 4.57796e-10 
-0.205623 -2.82842 -7.83732e-08 
0.0209296 -2.82842 1.18806e-07 
0.217481 -2.82842 -4.83792e-08 
0.421029 -2.82842 6.51233e-08 
0.621839 -2.82842 8.11385e-08 
0.835066 -2.82843 1.05604e-07 
1.04339 -2.82842 3.39999e-08 
1.24691 -2.82842 9.61072e-08 
1.43783 -2.82842 9.3579e-08 
1.67277 -2.82842 1.25397e-07 
1.86688 -2.82842 1.43337e-07 
2.08098 -2.82842 1.28093e-07 
2.3076 -2.82842 1.323e-07 
2.49807 -2.82842 1.11179e-07 
2.72901 -2.82842 1.02309e-07 
2.94841 -2.82842 8.58263e-08 
3.16467 -2.82842 6.69649e-08 
3.37046 -2.82842 5.23708e-08 
3.59565 -2.82842 4.27501e-08 
3.79871 -2.82842 3.34669e-08 
4.01603 -2.82842 2.65476e-08 
4.2444 -2.82842 2.07886e-08 
4.44387 -2.82842 1.34385e-08 
4.65686 -2.82842 9.34326e-09 
4.86602 -2.82842 5.37981e-09 
5.06998 -2.82842 1.00063e-09 
5.28754 -2.82842 -2.99904e-09 
5.49869 -2.82842 -8.22492e-09 
5.70313 -2.82842 -1.37501e-08 
5.92355 -2.82842 -1.92882e-08 
6.14452 -2.82842 -2.74116e-08 
6.34552 -2.82842 -3.93863e-08 
6.58721 -2.82842 -4.66862e-08 
6.79639 -2.82842 -5.83366e-08 
6.99453 -2.82842 -7.96677e-08 
7.25253 -2.82842 -1.08443e-07 
7.48157 -2.82842 -1.54742e-07 
7.71717 -2.82842 -1.71706e-07 
7.97781 -2.82842 -2.31776e-07 
8.16288 -2.82841 -5.66487e-08 
8.48528 -2.82842 6.215e-08 
-8.48527 -2.59438 1.23686e-08 
-8.24552 -2.58678 3.83387e-18 
-8.01298 -2.56613 1.52912e-17 
-7.78616 -2.62067 2.07515e-17 
-7.52289 -2.64974 1.59531e-17 
-7.22468 -2.59683 1.07072e-17 
-6.98734 -2.58352 9.84772e-18 
-6.77214 -2.59962 3.83453e-18 
-6.54243 -2.57286 7.78667e-18 
-6.33817 -2.56709 4.67802e-18 
-6.11991 -2.59225 3.29249e-18 
-5.90071 -2.58553 2.73271e-18 
-5.68638 -2.5744 1.96682e-18 
-5.46701 -2.587 9.54032e-19 
-5.25065 -2.58087 4.73035e-19 
-5.0313 -2.5879 -1.03663e-19 
-4.82105 -2.5751 -6.92689e-19 
-4.60168 -2.59139 -1.35622e-18 
-4.38182 -2.58797 -1.97923e-18 
-4.16286 -2.58843 -2.75521e-18 
-3.95226 -2.57596 -3.76121e-18 
-3.73961 -2.58198 -4.84883e-18 
-3.52707 -2.58116 -6.47864e-18 
-3.30912 -2.59346 -7.91634e-18 
-3.09541 -2.58895 -1.03126e-17 
-2.88217 -2.59274 -1.23176e-17 
-2.67993 -2.58383 -1.51206e-17 
-2.46748 -2.60472 -1.76139e-17 
-2.24985 -2.60083 -2.00813e-17 
-2.04155 -2.59497 -2.10579e-17 
-1.82799 -2.59659 -2.56066e-17 
-1.61578 -2.58409 -2.06124e-17 
-1.41164 -2.59081 -2.46328e-17 
-1.2296 -2.53342 -5.96167e-18 
-1.0087 -2.62676 -8.17798e-18 
-0.785921 -2.59211 -5.86331e-18 
-0.599746 -2.51049 5.80575e-18 
-0.385599 -2.53664 1.59668e-17 
-0.170829 -2.53906 1.49206e-17 
0.0375167 -2.50676 -4.5522e-18 
0.224499 -2.45588 -2.43184e-17 
0.408947 -2.53485 6.14197e-18 
0.62174 -2.54125 1.83907e-18 
0.83013 -2.57562 5.6757e-19 
1.04561 -2.57262 4.29632e-18 
1.26287 -2.58665 1.7083e-17 
1.49812 -2.62595 1.76647e-17 
1.71341 -2.58349 2.54996e-17 
1.92972 -2.61091 2.24413e-17 
2.15875 -2.62083 1.99569e-17 
2.36877 -2.57614 2.15913e-17 
2.58099 -2.6112 1.3248e-17 
2.80689 -2.59728 1.33369e-17 
3.01921 -2.59352 1.17128e-17 
3.22596 -2.57455 8.34003e-18 
3.44475 -2.59767 7.20445e-18 
3.65137 -2.57012 5.71795e-18 
3.86484 -2.58656 4.01882e-18 
4.09213 -2.59898 3.15061e-18 
4.30097 -2.56649 2.54275e-18 
4.51457 -2.58522 1.52199e-18 
4.72836 -2.58122 1.00134e-18 
4.94029 -2.57659 3.60276e-19 
5.15545 -2.59199 -2.95132e-19 
5.37436 -2.58472 -7.65053e-19 
5.58531 -2.57527 -1.57297e-18 
5.80229 -2.59181 -2.26274e-18 
6.02721 -2.59009 -3.07419e-18 
6.24064 -2.56365 -4.52337e-18 
6.46133 -2.6071 -5.06077e-18 
6.68666 -2.57158 -7.00664e-18 
6.89223 -2.55624 -8.95024e-18 
7.1169 -2.62069 -9.43919e-18 
7.3653 -2.59182 -1.17166e-17 
7.59976 -2.59651 -1.33146e-17 
7.85128 -2.61693 -1.42861e-17 
8.06374 -2.52402 -1.74656e-17 
8.29138 -2.64578 -6.21344e-18 
8.48527 -2.52534 2.7314e-08 
-8.48527 -2.35668 3.08563e-08 
-8.22463 -2.35452 5.59134e-18 
-7.96193 -2.33086 1.09298e-17 
-7.71998 -2.40836 8.51042e-18 
-7.56108 -2.24276 1.01009e-17 
-7.43737 -2.45543 6.36989e-18 
-7.15645 -2.37157 9.06054e-18 
-6.92957 -2.32942 9.63897e-18 
-6.70241 -2.36714 5.06156e-18 
-6.47876 -2.32689 5.18327e-18 
-6.2426 -2.34426 4.04572e-18 
-6.02822 -2.35081 3.14443e-18 
-5.80921 -2.33596 2.15281e-18 
-5.58122 -2.33969 1.38143e-18 
-5.36527 -2.34227 8.75741e-19 
-5.14065 -2.34677 2.47426e-19 
-4.92745 -2.33351 -3.7403e-19 
-4.70352 -2.34774 -9.69602e-19 
-4.485 -2.3535 -1.61676e-18 
-4.2629 -2.35055 -2.33753e-18 
-4.0501 -2.33359 -3.03421e-18 
-3.83421 -2.33327 -3.89138e-18 
-3.62225 -2.33684 -5.18624e-18 
-3.40478 -2.35115 -6.72677e-18 
-3.19262 -2.35271 -8.64582e-18 
-2.97735 -2.35752 -1.05809e-17 
-2.77006 -2.34415 -1.23906e-17 
-2.55784 -2.3664 -1.61422e-17 
-2.34601 -2.38353 -1.96975e-17 
-2.12625 -2.36139 -1.97606e-17 
-1.91211 -2.3687 -2.24136e-17 
-1.69288 -2.36079 -2.05131e-17 
-1.46874 -2.33555 -8.4424e-18 
-1.25626 -2.28911 -1.11402e-17 
-1.02466 -2.38838 -6.45078e-18 
-0.820743 -2.3299 -7.11668e-18 
-0.591289 -2.24423 -9.96565e-19 
-0.394739 -2.21508 2.09993e-17 
-0.188982 -2.23373 4.89278e-18 
0.0127179 -2.17225 -4.26962e-19 
0.194384 -2.0901 -1.10492e-17 
0.398665 -2.1967 -9.45856e-18 
0.595279 -2.25125 -2.75447e-19 
0.816498 -2.30566 -4.01884e-19 
1.02433 -2.3193 2.06427e-18 
1.2474 -2.35172 1.48906e-17 
1.4629 -2.40408 1.69835e-17 
1.6577 -2.34299 2.02264e-17 
1.87581 -2.37568 2.2998e-17 
2.08562 -2.40441 2.02249e-17 
2.29503 -2.36518 2.06331e-17 
2.53071 -2.36484 1.66723e-17 
2.73625 -2.38126 1.39039e-17 
2.96047 -2.35159 1.06786e-17 
3.15995 -2.33431 8.63257e-18 
3.37964 -2.35665 6.88964e-18 
3.58362 -2.32667 5.39122e-18 
3.7963 -2.33639 4.33295e-18 
4.01155 -2.36418 3.34837e-18 
4.22043 -2.32741 2.39542e-18 
4.44108 -2.33547 1.69808e-18 
4.6504 -2.33767 1.06493e-18 
4.8627 -2.33516 5.1186e-19 
5.08091 -2.34457 -4.43548e-20 
5.29194 -2.35199 -6.55427e-19 
5.50856 -2.33248 -1.21182e-18 
5.72732 -2.3457 -1.88909e-18 
5.94423 -2.35691 -2.72947e-18 
6.16063 -2.32586 -3.61333e-18 
6.39385 -2.35141 -4.81716e-18 
6.6018 -2.34773 -6.15012e-18 
6.82423 -2.29989 -6.53798e-18 
7.05175 -2.36161 -9.04321e-18 
7.26805 -2.38762 -1.04118e-17 
7.52518 -2.36067 -1.14273e-17 
7.76797 -2.38999 -1.32764e-17 
7.98576 -2.29648 -9.92812e-18 
8.25616 -2.36995 -3.85462e-18 
8.48527 -2.27491 -1.43191e-08 
-8.48527 -2.11287 -1.5231e-08 
-8.25291 -2.1357 1.47369e-18 
-8.05253 -2.06515 -3.469e-19 
-7.80271 -2.14204 4.07782e-18 
-7.51819 -2.02982 1.70139e-18 
-7.30905 -2.22246 6.50099e-18 
-7.06474 -2.10984 1.6128e-18 
-6.80175 -2.12292 4.27094e-18 
-6.59429 -2.10779 3.06911e-18 
-6.35056 -2.12283 2.24348e-18 
-6.12434 -2.10023 1.67381e-18 
-5.91622 -2.10205 1.2598e-18 
-5.69003 -2.10886 8.7055e-19 
-5.46862 -2.09815 6.25061e-19 
-5.25106 -2.11258 3.41684e-19 
-5.03844 -2.09675 -3.09168e-20 
-4.81542 -2.10908 -3.70408e-19 
-4.59835 -2.11498 -6.98819e-19 
-4.38191 -2.11927 -1.0008e-18 
-4.1716 -2.10002 -1.28783e-18 
-3.95674 -2.09391 -1.59854e-18 
-3.74457 -2.09274 -2.11644e-18 
-3.53026 -2.1078 -2.76728e-18 
-3.32106 -2.11366 -3.56462e-18 
-3.1086 -2.12218 -4.47105e-18 
-2.90269 -2.1155 -5.33376e-18 
-2.68588 -2.11948 -6.39426e-18 
-2.47648 -2.14114 -7.53401e-18 
-2.26615 -2.15402 -9.55375e-18 
-2.03696 -2.13036 -1.00247e-17 
-1.81909 -2.13888 -9.80784e-18 
-1.59386 -2.12518 -6.5026e-18 
-1.37764 -2.06178 -4.67841e-18 
-1.18266 -1.96556 8.40094e-18 
-1.04902 -2.13601 5.74291e-19 
-0.796752 -2.09191 5.72458e-19 
-0.596604 -1.93816 3.00737e-17 
-0.370558 -1.9158 3.96239e-18 
-0.156886 -1.91617 -3.01789e-17 
0.0400116 -1.8064 2.78373e-17 
0.253622 -1.6119 2.94112e-17 
0.332221 -1.86782 9.3084e-18 
0.556337 -1.91896 -1.25142e-17 
0.772039 -2.02716 -2.22977e-18 
0.989234 -2.03346 -5.81132e-18 
1.20293 -2.11096 -4.35231e-18 
1.43029 -2.15172 8.57622e-18 
1.64991 -2.10823 7.76424e-18 
1.87647 -2.14873 1.12155e-17 
2.10218 -2.16858 1.31383e-17 
2.34819 -2.16212 9.95875e-18 
2.56775 -2.12572 8.12786e-18 
2.78464 -2.15593 6.78195e-18 
2.98323 -2.09357 5.31534e-18 
3.2081 -2.11368 4.04243e-18 
3.40978 -2.10572 3.1437e-18 
3.6252 -2.08912 2.19919e-18 
3.84288 -2.10609 1.88331e-18 
4.0455 -2.11276 1.48716e-18 
4.27291 -2.09706 1.05031e-18 
4.48373 -2.09155 7.3916e-19 
4.69646 -2.09607 4.29196e-19 
4.91554 -2.10416 1.57306e-19 
5.12853 -2.10332 -1.32513e-19 
5.34006 -2.11247 -4.3209e-19 
5.56463 -2.10099 -6.54282e-19 
5.78155 -2.11035 -1.01253e-18 
5.99255 -2.10992 -1.44838e-18 
6.23415 -2.10924 -1.78721e-18 
6.44253 -2.09591 -2.32957e-18 
6.65366 -2.09886 -2.94038e-18 
6.90903 -2.08898 -2.55987e-18 
7.12287 -2.12276 -2.94379e-18 
7.35036 -2.17005 -3.6973e-18 
7.53993 -2.06884 -1.20484e-18 
7.72375 -2.15678 -4.84673e-18 
7.94536 -2.06338 -4.86472e-20 
8.20063 -2.14309 -1.87815e-18 
8.48527 -2.0743 -3.08086e-08 
-8.48527 -1.76097 -4.21408e-08 
-8.31883 -1.87825 -6.79255e-18 
-7.88794 -1.89089 -3.22117e-18 
[...]
POINT_DATA 1978 
VECTORS vectors float
0.00704057 -0.00865284 0.999938 
0.00697048 -0.0835486 0.996484 
0.00401165 -0.10394 0.994576 
0.00334607 -0.0999814 0.994983 
0.00354502 -0.0833528 0.996514 
0.00491127 -0.068462 0.997642 
0.00500388 -0.0537816 0.998542 
0.00551133 -0.0422532 0.999092 
0.00606163 -0.0328556 0.999444 
0.00620407 -0.0240565 0.999693 
0.00604436 -0.0169502 0.999839 
0.0057532 -0.0114536 0.99992 
0.00584086 -0.00708472 0.999959 
0.00592254 -0.00395504 0.999977 
0.00578822 -0.00147048 0.999984 
0.00582314 0.000458398 0.999985 
0.00597274 0.00249641 0.999981 
0.00587831 0.00484379 0.999973 
0.00561068 0.0078351 0.999955 
0.00559761 0.0115048 0.99992 
0.00575576 0.0160993 0.999856 
0.00579655 0.0215607 0.999752 
0.00566009 0.0285803 0.999577 
0.005418 0.0373773 0.999288 
0.00532731 0.0493594 0.998769 
0.00546802 0.0644575 0.997907 
0.00566583 0.0842143 0.996433 
0.0053739 0.108 0.994137 
0.00489621 0.140909 0.990012 
0.00462002 0.182828 0.983135 
0.00438641 0.234764 0.972044 
0.00390922 0.298883 0.954282 
0.00335863 0.374771 0.927112 
0.0029027 0.469418 0.882971 
0.00177569 0.559441 0.828868 
0.000997306 0.698772 0.715344 
0.000747446 0.813615 0.581403 
0.000310134 0.897986 0.440023 
-1.12625e-05 0.976222 0.216773 
1.29082e-05 0.999658 -0.0261758 
-7.68433e-05 0.972703 -0.232052 
-0.000459646 0.9078 -0.419402 
-0.000658632 0.812842 -0.582484 
-0.00103054 0.694852 -0.719152 
-0.00210482 0.576665 -0.816978 
-0.00281302 0.473065 -0.881023 
-0.00302658 0.387726 -0.921771 
-0.00371376 0.298553 -0.954386 
-0.00433354 0.238859 -0.971045 
-0.00438073 0.185893 -0.982562 
-0.00494082 0.140145 -0.990119 
-0.00515647 0.110735 -0.993837 
-0.00481964 0.0832085 -0.996522 
-0.00523483 0.0631276 -0.997994 
-0.00567856 0.0480853 -0.998828 
-0.00558046 0.0370288 -0.9993 
-0.00573107 0.0279804 -0.999594 
-0.00583447 0.0215959 -0.999751 
-0.00543233 0.0163545 -0.999853 
-0.00576477 0.0118524 -0.999915 
-0.00617143 0.00853876 -0.999946 
-0.00608229 0.00560108 -0.999968 
-0.00615889 0.00296139 -0.999978 
-0.00598636 0.000529135 -0.999984 
-0.00587137 -0.00219494 -0.999983 
-0.0061211 -0.00515214 -0.999969 
-0.00584732 -0.00829663 -0.99995 
-0.0055618 -0.0123842 -0.99991 
-0.00584686 -0.0176782 -0.999828 
-0.0052892 -0.0236317 -0.999708 
-0.00523185 -0.0322187 -0.999469 
-0.00605139 -0.0415623 -0.999118 
-0.0049397 -0.0528172 -0.998593 
-0.00430496 -0.0711652 -0.997457 
-0.0044436 -0.0900021 -0.995933 
-0.00446266 -0.107409 -0.994206 
-0.00488543 -0.117684 -0.993039 
-0.00454687 -0.105541 -0.994409 
-0.00683501 -0.00732714 -0.999956 
0.00602312 -0.00583125 0.999961 
0.024966 -0.0682093 0.997358 
0.0403553 -0.0931992 0.994829 
0.0393891 -0.0976206 0.994444 
0.0351169 -0.0859129 0.995683 
0.0423555 -0.0668663 0.996862 
0.0464376 -0.0550354 0.997404 
0.0456561 -0.0438009 0.997997 
0.0486873 -0.0322142 0.998294 
0.0523923 -0.0241709 0.998334 
0.0498275 -0.0172502 0.998609 
0.0507644 -0.011272 0.998647 
0.0537623 -0.00724543 0.998528 
0.0521615 -0.00405306 0.99863 
0.0534896 -0.00143761 0.998567 
0.0527666 0.000874855 0.998607 
0.0548749 0.00308915 0.998488 
0.051918 0.00572771 0.998635 
0.0521708 0.0090251 0.998598 
0.0516728 0.0130706 0.998578 
0.0527963 0.0178504 0.998446 
0.0510343 0.0237833 0.998413 
0.0504374 0.0312554 0.998238 
0.0474548 0.0410409 0.99803 
0.0470695 0.0536028 0.997452 
0.0449278 0.0699144 0.996541 
0.0441195 0.0900456 0.99496 
0.0388084 0.11663 0.992417 
0.0356965 0.152417 0.987671 
0.0321831 0.196676 0.97994 
0.0280686 0.252938 0.967075 
0.0235979 0.32295 0.946121 
0.0183869 0.405109 0.914083 
0.0155475 0.490644 0.871221 
0.00834641 0.607777 0.794064 
0.00588239 0.728205 0.685335 
0.0038195 0.825322 0.564649 
0.000988569 0.918262 0.395972 
-0.000656561 0.978146 0.207917 
-0.00253795 0.99997 -0.00744063 
-0.00476455 0.975612 -0.219455 
-0.0059856 0.913131 -0.407623 
-0.00783556 0.814637 -0.579918 
-0.00921363 0.695371 -0.718592 
-0.0128195 0.575498 -0.817702 
-0.0168843 0.468765 -0.883161 
-0.0189318 0.364382 -0.931057 
-0.0266106 0.287202 -0.9575 
-0.0290257 0.224593 -0.97402 
-0.0321449 0.170718 -0.984795 
-0.0409179 0.133199 -0.990244 
-0.0383002 0.102509 -0.993994 
-0.0431661 0.0776109 -0.996049 
-0.0458872 0.0595813 -0.997168 
-0.0492054 0.0462 -0.997719 
-0.0478434 0.0349883 -0.998242 
-0.0524568 0.0270606 -0.998256 
-0.0506046 0.0206073 -0.998506 
-0.0495365 0.0151015 -0.998658 
-0.0551614 0.0110865 -0.998416 
-0.0526851 0.00767365 -0.998582 
-0.0535976 0.00465528 -0.998552 
-0.0547623 0.00196873 -0.998498 
-0.0519103 -0.000703036 -0.998652 
-0.0532827 -0.00370369 -0.998573 
-0.0542665 -0.00680874 -0.998503 
-0.0507044 -0.0104813 -0.998659 
-0.0504174 -0.0152632 -0.998612 
-0.0533817 -0.0208328 -0.998357 
-0.04549 -0.0279316 -0.998574 
-0.0501319 -0.0371294 -0.998052 
-0.0507985 -0.0473378 -0.997586 
-0.0403077 -0.0608471 -0.997333 
-0.0439237 -0.0784355 -0.995951 
-0.0425055 -0.0943701 -0.99463 
-0.0390034 -0.106907 -0.993503 
-0.0447766 -0.0970406 -0.994273 
-0.0197013 -0.0643299 -0.997734 
-0.00640828 -0.00466766 -0.999962 
0.00407141 -0.00587428 0.999974 
0.0373642 -0.0687412 0.996935 
0.0549932 -0.0917913 0.994258 
0.0549868 -0.0905338 0.994374 
0.0628469 -0.0833548 0.994536 
0.0534963 -0.0790741 0.995432 
0.063125 -0.0633289 0.995994 
0.0677405 -0.0508458 0.996406 
0.0665639 -0.0396803 0.996993 
0.0703598 -0.0299208 0.997073 
0.0718684 -0.0214981 0.997182 
0.0722398 -0.0151799 0.997272 
0.0741617 -0.010415 0.997191 
0.0750777 -0.00642022 0.997157 
0.0755568 -0.00326455 0.997136 
0.0758717 -0.000538825 0.997117 
0.0766456 0.0018648 0.997057 
0.0759783 0.00459851 0.997099 
0.0752845 0.00772426 0.997132 
0.0744873 0.0115569 0.997155 
0.0740807 0.0161311 0.997122 
0.0727223 0.021782 0.997115 
0.071373 0.0287009 0.997037 
0.0692478 0.0376757 0.996888 
0.0673924 0.0490072 0.996522 
0.0647033 0.0638868 0.995857 
0.0621679 0.0826196 0.99464 
0.0580597 0.106902 0.992573 
0.0529121 0.138067 0.989009 
0.0474897 0.18074 0.982384 
0.0410713 0.232724 0.971675 
0.0338137 0.300407 0.953211 
0.0259136 0.384846 0.922617 
0.0195758 0.47662 0.878892 
0.0132116 0.591412 0.806261 
0.00824343 0.703476 0.710671 
0.00293519 0.825977 0.563695 
-0.000218364 0.91755 0.397625 
-0.00240764 0.980476 0.196618 
-0.00380961 0.999562 -0.0293649 
-0.00456656 0.975662 -0.219231 
-0.00705182 0.911201 -0.411903 
-0.00966905 0.821515 -0.570104 
-0.0126827 0.701052 -0.712997 
-0.0164556 0.58688 -0.809506 
-0.0222274 0.476441 -0.878926 
-0.0274983 0.382008 -0.92375 
-0.0347026 0.310338 -0.949992 
-0.0407849 0.241865 -0.969452 
-0.0458809 0.189405 -0.980827 
-0.0527964 0.147444 -0.98766 
-0.0571515 0.111083 -0.992167 
-0.0603773 0.0862495 -0.994443 
-0.0645529 0.0658068 -0.995742 
-0.0674944 0.0515172 -0.996388 
-0.06867 0.0392438 -0.996867 
-0.0716783 0.0305823 -0.996959 
-0.0727166 0.0233392 -0.99708 
-0.0725207 0.0174717 -0.997214 
-0.075281 0.0130317 -0.997077 
-0.0755995 0.00902397 -0.997097 
-0.0759326 0.00577765 -0.997096 
-0.0765687 0.00284149 -0.99706 
-0.0762019 -1.91299e-05 -0.997092 
-0.0756508 -0.00284395 -0.99713 
-0.0760399 -0.00605692 -0.997086 
-0.0746363 -0.0096639 -0.997164 
-0.0729733 -0.0138721 -0.997237 
-0.0732289 -0.0191204 -0.997132 
-0.0705245 -0.0259934 -0.997171 
-0.069223 -0.0337662 -0.99703 
-0.0688959 -0.0443357 -0.996638 
-0.0655881 -0.0569751 -0.996219 
-0.0629509 -0.0706945 -0.995509 
-0.0621776 -0.0856764 -0.994381 
-0.0595501 -0.0971256 -0.993489 
-0.0586718 -0.0962527 -0.993626 
-0.0355709 -0.0638068 -0.997328 
-0.00515987 -0.00574336 -0.999969 
0.00419339 -0.00546731 0.999968 
0.0343479 -0.0639032 0.997365 
0.0474917 -0.0863522 0.995132 
0.057109 -0.089521 0.994346 
0.0597017 -0.0815602 0.994878 
0.0651808 -0.0720108 0.995272 
0.06548 -0.0589839 0.996109 
0.0685762 -0.0438761 0.99668 
0.0703392 -0.0347207 0.996919 
0.0722318 -0.0254792 0.997062 
0.0731697 -0.0186215 0.997145 
0.0746508 -0.0135918 0.997117 
0.0758401 -0.00907461 0.997078 
0.0764855 -0.00542186 0.997056 
0.0773963 -0.00232764 0.996998 
0.0774972 0.000324497 0.996992 
0.077729 0.00318229 0.996969 
0.0774766 0.00626098 0.996974 
0.0768243 0.00987754 0.996996 
0.0755629 0.0141372 0.997041 
0.0741415 0.0193999 0.997059 
0.072576 0.0257181 0.997031 
0.0710465 0.0336667 0.996904 
0.0690752 0.0435212 0.996662 
0.0667129 0.0563348 0.99618 
0.0636262 0.0723366 0.995349 
0.0597941 0.0939033 0.993784 
0.0556011 0.120737 0.991126 
0.0505932 0.155304 0.98657 
0.0433716 0.203979 0.978014 
0.0363843 0.263362 0.964011 
0.0283075 0.340128 0.939953 
0.0202411 0.427834 0.90363 
0.0125206 0.521501 0.853159 
0.011953 0.581154 0.813706 
0.00542998 0.713318 0.700819 
0.00161055 0.823275 0.567641 
-0.000149083 0.928187 0.37211 
-0.00114628 0.98683 0.161764 
-0.00196774 0.999453 -0.0330166 
-0.00357601 0.972934 -0.231055 
-0.00383608 0.930919 -0.365205 
-0.00635869 0.830393 -0.557142 
-0.0103746 0.727378 -0.686158 
-0.0134204 0.612657 -0.790234 
-0.0186254 0.507408 -0.861504 
-0.0258003 0.397582 -0.917203 
-0.0319885 0.316785 -0.947958 
-0.0394139 0.245449 -0.968608 
-0.0462192 0.187331 -0.981209 
-0.0526809 0.139899 -0.988763 
-0.057528 0.107741 -0.992513 
-0.0623121 0.0829879 -0.994601 
-0.0642018 0.065768 -0.995767 
-0.0677919 0.0500973 -0.996441 
-0.0698728 0.0393058 -0.996781 
-0.0716428 0.0302745 -0.996971 
-0.0736723 0.0229241 -0.997019 
-0.0749808 0.0174859 -0.997032 
-0.0759796 0.0124881 -0.997031 
-0.0766444 0.00859582 -0.997021 
-0.0772934 0.00519265 -0.996995 
-0.0777075 0.00201151 -0.996974 
-0.0776242 -0.000950082 -0.996982 
-0.0773789 -0.00395553 -0.996994 
-0.0765214 -0.00750731 -0.99704 
-0.0757093 -0.0113236 -0.997065 
-0.0745278 -0.0156786 -0.997096 
-0.07301 -0.0218312 -0.997092 
-0.0711808 -0.0284595 -0.997057 
-0.0695832 -0.0367787 -0.996898 
-0.0672085 -0.0496037 -0.996505 
-0.0659633 -0.0619749 -0.995895 
-0.0650793 -0.0757406 -0.995001 
-0.0614793 -0.0847922 -0.9945 
-0.061318 -0.0916511 -0.993901 
-0.0556526 -0.0937971 -0.994035 
-0.0425797 -0.0721037 -0.996488 
-0.00475354 -0.00645423 -0.999967 
0.00500027 -0.0050179 0.999964 
0.0186778 -0.0471181 0.998714 
0.0497385 -0.092899 0.994432 
0.0536773 -0.0868012 0.994778 
0.05368 -0.0787699 0.995447 
0.0610869 -0.0717283 0.995552 
0.0585566 -0.0639845 0.996231 
0.0635501 -0.0516838 0.99664 
0.0634855 -0.0405226 0.997159 
0.0669367 -0.0310661 0.997273 
0.067917 -0.0233422 0.997418 
0.0678792 -0.0175392 0.997539 
0.0701722 -0.0125569 0.997455 
0.0709197 -0.00837531 0.997446 
0.0716121 -0.00471165 0.997421 
0.0720716 -0.00172405 0.997398 
0.0726116 0.00142179 0.997359 
0.0726475 0.00459029 0.997347 
0.0723295 0.00811951 0.997347 
0.0710652 0.0121241 0.997398 
0.0696622 0.0169975 0.997426 
0.0680132 0.0228581 0.997423 
0.0666557 0.0300357 0.997324 
0.064903 0.0387108 0.99714 
0.0629713 0.0497308 0.996776 
0.060228 0.0634743 0.996164 
0.057178 0.0814594 0.995035 
0.0530725 0.105134 0.993041 
0.04884 0.134481 0.989712 
0.0435868 0.173518 0.983865 
0.0355943 0.230819 0.972345 
0.0287029 0.298116 0.954098 
0.0206484 0.375137 0.926739 
0.0126752 0.466261 0.884556 
0.00556232 0.657673 0.753283 
0.00139764 0.764006 0.645207 
-0.000394387 0.883979 0.467526 
-0.00318571 0.954449 0.29836 
-0.00256046 0.971437 0.237284 
-0.00443302 0.999934 0.0106001 
-0.00430225 0.983866 -0.178855 
-0.0050311 0.93711 -0.348995 
-0.00416182 0.859558 -0.511022 
-0.00649917 0.722967 -0.690852 
-0.00927543 0.612421 -0.790478 
-0.0149828 0.505861 -0.862484 
-0.0209906 0.42102 -0.906809 
-0.0254505 0.342414 -0.939204 
-0.0325281 0.268861 -0.962629 
-0.0395654 0.209626 -0.976981 
-0.0457218 0.161913 -0.985745 
-0.0505401 0.124358 -0.990949 
-0.0557645 0.0926776 -0.994133 
-0.05723 0.0756339 -0.995492 
-0.061558 0.0574442 -0.996449 
-0.063451 0.044683 -0.996984 
-0.0655396 0.0348133 -0.997243 
-0.0677524 0.0263177 -0.997355 
-0.0689738 0.0200846 -0.997416 
-0.0708112 0.0148829 -0.997379 
-0.0708405 0.0102695 -0.997435 
-0.0716692 0.00640409 -0.997408 
-0.0724497 0.00293322 -0.997367 
-0.0723009 -0.000269051 -0.997382 
-0.0721484 -0.00350337 -0.997387 
-0.0718673 -0.00681702 -0.997391 
-0.0706893 -0.0108621 -0.997439 
-0.0694065 -0.0151727 -0.997473 
-0.068933 -0.0202996 -0.997415 
-0.0658906 -0.0271511 -0.997457 
-0.0643297 -0.0350798 -0.997312 
-0.0636439 -0.045156 -0.996951 
-0.0605221 -0.0594146 -0.996397 
-0.0603519 -0.0724172 -0.995546 
-0.0558392 -0.0840147 -0.994898 
-0.053978 -0.0913651 -0.994353 
-0.0459823 -0.089267 -0.994946 
-0.0337094 -0.0640253 -0.997379 
-0.00453753 -0.00512276 -0.999976 
0.00378568 -0.00638732 0.999972 
0.0218137 -0.0598925 0.997966 
0.0379004 -0.0790414 0.996151 
0.0430452 -0.0932308 0.994714 
0.0466058 -0.0878946 0.995039 
0.0497149 -0.073076 0.996086 
0.0532975 -0.0573652 0.996929 
0.055436 -0.0472297 0.997345 
0.0572595 -0.0349259 0.997748 
0.0591724 -0.0273582 0.997873 
0.0587245 -0.0211501 0.99805 
0.0597104 -0.0153153 0.998098 
0.0616005 -0.0109332 0.998041 
0.0626083 -0.00691636 0.998014 
0.0620382 -0.00345349 0.998068 
0.0636057 -0.000149941 0.997975 
0.0636084 0.00325414 0.99797 
0.0633514 0.00693247 0.997967 
0.0620194 0.010937 0.998015 
0.0608816 0.015652 0.998022 
0.0594415 0.0212776 0.998005 
0.0582133 0.0281378 0.997907 
0.0565297 0.0363896 0.997737 
0.0550331 0.0466242 0.997395 
0.052578 0.0593961 0.996849 
0.0500138 0.0759773 0.995854 
0.0467261 0.0974117 0.994146 
0.0422357 0.12658 0.991057 
0.0382586 0.16306 0.985874 
0.0324572 0.211943 0.976743 
0.0238228 0.286908 0.957662 
0.0157909 0.373537 0.92748 
0.00750988 0.490761 0.871262 
0.0024691 0.604643 0.796493 
0.00618588 0.588118 0.808751 
0.000668294 0.715981 0.698119 
-0.00253481 0.850963 0.525219 
-0.00319988 0.880855 0.473371 
-0.00297526 0.995901 0.090398 
0.000759277 0.998779 0.0494329 
0.00378857 0.995831 -0.0911693 
-0.0012204 0.940158 -0.340741 
-0.00253603 0.85613 -0.516755 
-0.00326137 0.759851 -0.650088 
-0.00424948 0.632447 -0.774589 
-0.00906147 0.515186 -0.85703 
-0.0147569 0.410894 -0.911563 
-0.0221537 0.317549 -0.947983 
-0.0292656 0.246475 -0.968707 
-0.0359173 0.191736 -0.980789 
-0.0406364 0.149205 -0.987971 
-0.0469158 0.111668 -0.992638 
-0.0460616 0.0902941 -0.994849 
-0.0513699 0.0688838 -0.996301 
-0.0535652 0.0542399 -0.99709 
-0.0548644 0.0425169 -0.997588 
-0.0578548 0.0326481 -0.997791 
-0.0588216 0.0253035 -0.997947 
-0.0601403 0.0190623 -0.998008 
-0.0621467 0.0139104 -0.99797 
-0.0615183 0.00924143 -0.998063 
-0.0627096 0.0051831 -0.998018 
-0.0628672 0.00168483 -0.998021 
-0.0629313 -0.00174951 -0.998016 
-0.0623916 -0.00516293 -0.998039 
-0.0627724 -0.00877577 -0.997989 
-0.0608033 -0.0129527 -0.998066 
-0.0602855 -0.0177496 -0.998023 
-0.0594331 -0.0230344 -0.997966 
-0.055761 -0.030392 -0.997981 
-0.05505 -0.0393251 -0.997709 
-0.0556121 -0.0504476 -0.997177 
-0.0507903 -0.06253 -0.99675 
-0.0524368 -0.0735485 -0.995912 
-0.0473892 -0.0851539 -0.99524 
-0.0465692 -0.0917405 -0.994693 
-0.0388205 -0.0910979 -0.995085 
-0.0251382 -0.0574351 -0.998033 
-0.0041881 -0.005555 -0.999975 
0.00276439 -0.00636175 0.999975 
0.0205105 -0.0662068 0.997595 
0.0338847 -0.0897859 0.995385 
0.0356871 -0.0921014 0.99511 
0.0424192 -0.0839576 0.995566 
0.0384556 -0.0757273 0.996387 
0.0439079 -0.0634966 0.997015 
0.0417868 -0.0508747 0.99783 
0.0475725 -0.0410927 0.998022 
0.0461424 -0.0319173 0.998425 
0.0470932 -0.025457 0.998566 
0.0487956 -0.0191946 0.998624 
0.0485142 -0.014177 0.998722 
0.0509513 -0.00993596 0.998651 
0.0511902 -0.00617796 0.99867 
0.0510887 -0.00243794 0.998691 
0.0524435 0.000983929 0.998623 
0.052167 0.0046727 0.998627 
0.0508217 0.00853977 0.998671 
0.0499338 0.0130182 0.998667 
0.0490978 0.0181955 0.998628 
0.0481068 0.0243093 0.998546 
0.0467586 0.0315188 0.998409 
0.0453703 0.0403838 0.998154 
0.0437783 0.0511467 0.997731 
0.0417455 0.065167 0.997 
0.0391968 0.0831099 0.995769 
0.0362288 0.107102 0.993588 
0.0318912 0.140158 0.989615 
0.0282342 0.182091 0.982876 
0.0229752 0.24296 0.969764 
0.014711 0.32739 0.944775 
0.00792209 0.430188 0.902704 
0.00191275 0.545467 0.83813 
-0.0022824 0.76344 0.645875 
-0.00152597 0.831047 0.556203 
0.00179206 0.90518 0.425019 
0.00387949 0.984006 0.178087 
-0.000183346 0.9556 0.294671 
0.0026371 0.99932 0.0368853 
0.00128759 0.999841 -0.0176583 
0.000757774 0.976295 -0.216446 
0.000455031 0.935988 -0.352019 
0.000163506 0.822262 -0.56911 
-0.0015009 0.71545 -0.698665 
-0.00351886 0.548097 -0.836411 
-0.00741458 0.446504 -0.894751 
-0.0136634 0.347702 -0.937506 
-0.0206391 0.262368 -0.964747 
-0.026865 0.200457 -0.979334 
-0.0304012 0.159191 -0.986779 
-0.0368937 0.124711 -0.991507 
-0.0350284 0.104654 -0.993892 
-0.0399591 0.0794638 -0.996036 
-0.0422007 0.0627426 -0.997137 
-0.043538 0.0493262 -0.997833 
-0.0460624 0.03793 -0.998218 
-0.047168 0.029646 -0.998447 
-0.0485201 0.0226022 -0.998566 
-0.0497656 0.0166209 -0.998623 
-0.0509542 0.0117532 -0.998631 
-0.0509684 0.0068518 -0.998677 
-0.0510398 0.00292565 -0.998692 
-0.0515137 -0.000766167 -0.998672 
-0.0508649 -0.00435851 -0.998696 
-0.0511204 -0.00815844 -0.998659 
-0.050197 -0.0120771 -0.998666 
-0.0495 -0.0169131 -0.998631 
-0.0479097 -0.0223112 -0.998603 
-0.0463067 -0.0284449 -0.998522 
-0.0444361 -0.0377133 -0.9983 
-0.045083 -0.0488642 -0.997787 
-0.0413472 -0.0631476 -0.997147 
-0.0414923 -0.0775158 -0.996127 
-0.0362733 -0.0878715 -0.995471 
-0.0373805 -0.0929013 -0.994973 
-0.0305404 -0.0939586 -0.995108 
-0.0238841 -0.0690145 -0.99733 
-0.00311676 -0.00595857 -0.999978 
0.00211366 -0.00600815 0.99998 
0.0155577 -0.065868 0.997707 
0.0273701 -0.0938918 0.995206 
0.026393 -0.0945282 0.995172 
0.0327338 -0.0881589 0.995568 
0.029732 -0.0782315 0.996492 
0.0334591 -0.0627284 0.997469 
0.0318535 -0.049414 0.99827 
0.0364697 -0.0392944 0.998562 
0.0339702 -0.0316117 0.998924 
0.0370066 -0.0244491 0.999015 
0.0380754 -0.0186913 0.9991 
0.0375657 -0.0137731 0.999199 
0.039746 -0.00959912 0.999164 
0.0407239 -0.00547431 0.999155 
0.0400027 -0.00158766 0.999198 
0.0412586 0.00213683 0.999146 
0.0398436 0.00605027 0.999187 
0.0391347 0.0105983 0.999178 
0.0386316 0.0157436 0.99913 
0.0379533 0.0215579 0.999047 
0.0369228 0.0282959 0.998917 
0.0358135 0.0365063 0.998691 
0.0343307 0.0466018 0.998323 
0.0330122 0.0592847 0.997695 
0.0309306 0.075799 0.996643 
0.0286045 0.0976818 0.994806 
0.0255283 0.127106 0.99156 
0.0216205 0.169361 0.985317 
0.0185937 0.222759 0.974696 
0.0133066 0.292586 0.956147 
0.00723867 0.393476 0.919306 
0.00266719 0.498299 0.867001 
0.000323182 0.621911 0.783087 
-0.00105881 0.66159 0.749865 
0.00588165 0.886197 0.463272 
0.00531357 0.949749 0.312957 
0.00391396 0.996865 0.0790338 
0.0056601 0.998225 0.0592806 
0.00509764 0.999623 0.0270038 
0.00428981 0.998877 -0.0472186 
0.003543 0.997499 -0.0705827 
-0.000894787 0.958669 -0.284519 
-0.00030481 0.822587 -0.568631 
-0.00132588 0.610248 -0.792206 
-0.000444695 0.585811 -0.810447 
-0.00270249 0.48119 -0.876612 
-0.00689737 0.385575 -0.922651 
-0.0122708 0.297509 -0.95464 
-0.0177282 0.223769 -0.974481 
-0.0206613 0.174991 -0.984353 
-0.0261975 0.132622 -0.99082 
-0.0288445 0.0951905 -0.995041 
-0.0308763 0.0747746 -0.996722 
-0.0330219 0.058756 -0.997726 
-0.0348891 0.0452102 -0.998368 
-0.0358231 0.0355544 -0.998725 
-0.0371914 0.0274634 -0.998931 
-0.0384326 0.0207218 -0.999046 
-0.0387281 0.0151056 -0.999136 
-0.0409005 0.00996301 -0.999113 
-0.0395403 0.00531977 -0.999204 
-0.0401543 0.00119425 -0.999193 
-0.0398304 -0.0025218 -0.999203 
-0.0399067 -0.00638731 -0.999183 
-0.0390026 -0.0102177 -0.999187 
-0.0392804 -0.0145728 -0.999122 
-0.0378386 -0.0194756 -0.999094 
-0.0358413 -0.0250457 -0.999043 
-0.0359378 -0.0322899 -0.998832 
-0.0332544 -0.0414647 -0.998587 
-0.0351696 -0.050788 -0.99809 
-0.0307622 -0.0625774 -0.997566 
-0.0324007 -0.0754438 -0.996624 
-0.0280247 -0.08739 -0.99578 
-0.0270811 -0.094627 -0.995144 
-0.0220308 -0.0929006 -0.995431 
-0.016344 -0.0633037 -0.99786 
-0.00222492 -0.00551623 -0.999983 
0.00146176 -0.00612581 0.99998 
0.010818 -0.0665693 0.997723 
0.0199697 -0.0937364 0.995396 
0.0194635 -0.0959119 0.995199 
0.0241478 -0.0886959 0.995766 
0.0214262 -0.0782662 0.996702 