# vtk DataFile Version 3.0 
Exported using Morpho https://github.com/Morpho-lang/morpho 
ASCII 
DATASET UNSTRUCTURED_GRID 

POINTS 2054 float 
-8.48528 -2.82843 0 
-8.20636 -2.82843 0 
-7.94054 -2.82843 0 
-7.6904 -2.82843 0 
-7.45357 -2.82843 0 
-7.22694 -2.82843 0 
-7.00705 -2.82843 0 
-6.79111 -2.82843 0 
-6.57731 -2.82843 0 
-6.36453 -2.82843 0 
-6.15219 -2.82843 0 
-5.94 -2.82843 0 
-5.72786 -2.82843 0 
-5.51573 -2.82843 0 
-5.3036 -2.82843 0 
-5.09147 -2.82843 0 
-4.87933 -2.82843 0 
-4.6672 -2.82843 0 
-4.45507 -2.82843 0 
-4.24294 -2.82843 0 
-4.03081 -2.82843 0 
-3.81867 -2.82843 0 
-3.60654 -2.82843 0 
-3.39441 -2.82843 0 
-3.18228 -2.82843 0 
-2.97015 -2.82843 0 
-2.75801 -2.82843 0 
-2.54588 -2.82843 0 
-2.33375 -2.82843 0 
-2.12162 -2.82843 0 
-1.90949 -2.82843 0 
-1.69735 -2.82843 0 
-1.48522 -2.82843 0 
-1.27309 -2.82843 0 
-1.06096 -2.82843 0 
-0.848825 -2.82843 0 
-0.636693 -2.82843 0 
-0.424561 -2.82843 0 
-0.212429 -2.82843 0 
-0.000296761 -2.82843 0 
0.211835 -2.82843 0 
0.423967 -2.82843 0 
0.636099 -2.82843 0 
0.848231 -2.82843 0 
1.06036 -2.82843 0 
1.2725 -2.82843 0 
1.48463 -2.82843 0 
1.69676 -2.82843 0 
1.90889 -2.82843 0 
2.12102 -2.82843 0 
2.33316 -2.82843 0 
2.54529 -2.82843 0 
2.75742 -2.82843 0 
2.96955 -2.82843 0 
3.18168 -2.82843 0 
3.39382 -2.82843 0 
3.60595 -2.82843 0 
3.81808 -2.82843 0 
4.03021 -2.82843 0 
4.24234 -2.82843 0 
4.45448 -2.82843 0 
4.66661 -2.82843 0 
4.87874 -2.82843 0 
5.09087 -2.82843 0 
5.303 -2.82843 0 
5.51514 -2.82843 0 
5.72727 -2.82843 0 
5.93941 -2.82843 0 
6.15159 -2.82843 0 
6.36393 -2.82843 0 
6.57672 -2.82843 0 
6.79055 -2.82843 0 
7.00652 -2.82843 0 
7.22647 -2.82843 0 
7.45313 -2.82843 0 
7.69005 -2.82843 0 
7.9403 -2.82843 0 
8.20621 -2.82843 0 
8.48528 -2.82843 0 
-8.48528 -2.5495 0 
-8.30526 -2.64845 0 
-8.07062 -2.59995 0 
-7.83904 -2.59637 0 
-7.59595 -2.59733 0 
-7.36578 -2.59177 0 
-7.13796 -2.5933 0 
-6.90908 -2.59428 0 
-6.68421 -2.5916 0 
-6.46568 -2.58832 0 
-6.24926 -2.58859 0 
-6.03358 -2.58941 0 
-5.81848 -2.59013 0 
-5.60402 -2.59075 0 
-5.39005 -2.59135 0 
-5.17642 -2.59186 0 
-4.96311 -2.59223 0 
-4.75009 -2.59242 0 
-4.53736 -2.59244 0 
-4.32497 -2.59236 0 
-4.1128 -2.59242 0 
-3.90059 -2.59259 0 
-3.68835 -2.5926 0 
-3.47627 -2.59248 0 
-3.26428 -2.59251 0 
-3.05216 -2.59271 0 
-2.83986 -2.59283 0 
-2.62755 -2.59274 0 
-2.41539 -2.59253 0 
-2.20336 -2.59238 0 
-1.99135 -2.59238 0 
-1.77924 -2.59246 0 
-1.56704 -2.59244 0 
-1.35495 -2.59215 0 
-1.14319 -2.59183 0 
-0.931581 -2.59195 0 
-0.719663 -2.59256 0 
-0.507197 -2.59324 0 
-0.294425 -2.59354 0 
-0.0817689 -2.59344 0 
0.130587 -2.59325 0 
0.342804 -2.59322 0 
0.555051 -2.59322 0 
0.767233 -2.59303 0 
0.97919 -2.59278 0 
1.19107 -2.59278 0 
1.40311 -2.59289 0 
1.61524 -2.59286 0 
1.82732 -2.59279 0 
2.03943 -2.59281 0 
2.25163 -2.5928 0 
2.46381 -2.59266 0 
2.67591 -2.59254 0 
2.88801 -2.59237 0 
3.10001 -2.59226 0 
3.31203 -2.59216 0 
3.52402 -2.59207 0 
3.73601 -2.59208 0 
3.94815 -2.59221 0 
4.16052 -2.5923 0 
4.37309 -2.59232 0 
4.58593 -2.59227 0 
4.79921 -2.5922 0 
5.01319 -2.59212 0 
5.22833 -2.5921 0 
5.44534 -2.59239 0 
5.6657 -2.59346 0 
5.89185 -2.59569 0 
6.12685 -2.59429 0 
6.36853 -2.59189 0 
6.6108 -2.57787 0 
6.84491 -2.61411 0 
7.08804 -2.58476 0 
7.34858 -2.60369 0 
7.58803 -2.59327 0 
7.83059 -2.59326 0 
8.06387 -2.59199 0 
8.30038 -2.64348 0 
8.48528 -2.54936 0 
-8.48528 -2.28369 0 
-8.25701 -2.4138 0 
-8.01078 -2.35334 0 
-7.73666 -2.37963 0 
-7.49744 -2.35565 0 
-7.26898 -2.35831 0 
-7.03324 -2.36676 0 
-6.7997 -2.36275 0 
-6.5773 -2.35166 0 
-6.35808 -2.3495 0 
-6.14038 -2.35058 0 
-5.92336 -2.35185 0 
-5.70723 -2.35272 0 
-5.49199 -2.35362 0 
-5.27734 -2.35447 0 
-5.0632 -2.35505 0 
-4.84958 -2.35534 0 
-4.63641 -2.35533 0 
-4.42363 -2.35504 0 
-4.21126 -2.35485 0 
-3.99909 -2.35513 0 
-3.78684 -2.3554 0 
-3.57461 -2.35516 0 
-3.36263 -2.35498 0 
-3.15066 -2.35537 0 
-2.93843 -2.35586 0 
-2.72604 -2.35589 0 
-2.51374 -2.35551 0 
-2.30162 -2.35509 0 
-2.08964 -2.35496 0 
-1.87761 -2.35518 0 
-1.66544 -2.3554 0 
-1.45322 -2.35518 0 
-1.2412 -2.35438 0 
-1.02967 -2.35407 0 
-0.818162 -2.35505 0 
-0.606054 -2.35676 0 
-0.393243 -2.3579 0 
-0.180256 -2.35789 0 
0.0323765 -2.35727 0 
0.244686 -2.35692 0 
0.456926 -2.35692 0 
0.669206 -2.35667 0 
0.881318 -2.35598 0 
1.09315 -2.35559 0 
1.305 -2.35583 0 
1.51709 -2.35595 0 
1.72919 -2.35571 0 
1.9412 -2.35566 0 
2.15334 -2.3558 0 
2.36559 -2.3556 0 
2.57772 -2.35522 0 
2.78976 -2.35507 0 
3.0019 -2.35461 0 
3.21373 -2.35451 0 
3.42571 -2.35439 0 
3.63769 -2.35431 0 
3.84965 -2.35453 0 
4.06183 -2.35491 0 
4.27435 -2.35507 0 
4.48707 -2.35507 0 
4.70017 -2.35506 0 
4.91376 -2.35498 0 
5.12819 -2.35502 0 
5.34378 -2.35528 0 
5.56106 -2.35662 0 
5.78097 -2.35971 0 
6.00401 -2.36251 0 
6.2308 -2.3624 0 
6.45748 -2.35551 0 
6.68075 -2.33423 0 
6.88797 -2.39744 0 
7.05313 -2.27289 0 
7.24377 -2.40237 0 
7.48542 -2.36016 0 
7.73055 -2.36599 0 
7.99177 -2.33552 0 
8.24864 -2.40698 0 
8.48528 -2.28345 0 
-8.48528 -2.03355 0 
-8.25312 -2.18214 0 
-8.03669 -2.07913 0 
-7.83956 -2.18231 0 
-7.6106 -2.12852 0 
-7.38852 -2.10959 0 
-7.16268 -2.14097 0 
-6.9229 -2.1435 0 
-6.70119 -2.12055 0 
-6.48111 -2.11285 0 
-6.26282 -2.11284 0 
-6.045 -2.1151 0 
-5.82775 -2.11658 0 
-5.61153 -2.11776 0 
-5.3962 -2.1192 0 
-5.18144 -2.1203 0 
-4.96732 -2.12084 0 
-4.75387 -2.12105 0 
-4.54086 -2.12091 0 
-4.32822 -2.12045 0 
-4.11596 -2.12045 0 
-3.90382 -2.12107 0 
-3.69156 -2.12116 0 
-3.47938 -2.12058 0 
-3.26746 -2.12068 0 
-3.05542 -2.12154 0 
-2.84307 -2.12198 0 
-2.63064 -2.12162 0 
-2.41836 -2.12087 0 
-2.20626 -2.12031 0 
-1.99426 -2.12034 0 
-1.78217 -2.1207 0 
-1.56989 -2.12074 0 
-1.35755 -2.11993 0 
-1.14542 -2.11838 0 
-0.934012 -2.11859 0 
-0.722404 -2.12089 0 
-0.509943 -2.12344 0 
-0.296911 -2.12431 0 
-0.0840921 -2.12359 0 
0.128295 -2.12281 0 
0.340414 -2.12274 0 
0.552564 -2.12288 0 
0.76478 -2.12226 0 
0.976792 -2.1213 0 
1.18855 -2.12128 0 
1.40042 -2.12188 0 
1.61256 -2.12177 0 
1.82458 -2.12141 0 
2.03655 -2.12164 0 
2.24875 -2.12174 0 
2.46099 -2.12114 0 
2.67302 -2.12065 0 
2.88504 -2.12054 0 
3.09728 -2.1194 0 
3.30873 -2.11968 0 
3.52086 -2.1195 0 
3.7329 -2.11938 0 
3.94484 -2.11986 0 
4.15715 -2.12044 0 
4.36983 -2.12035 0 
4.58282 -2.1204 0 
4.79606 -2.12017 0 
5.01004 -2.12012 0 
5.22483 -2.12002 0 
5.44073 -2.12051 0 
5.6582 -2.123 0 
5.8782 -2.12696 0 
6.10217 -2.12971 0 
6.33095 -2.12707 0 
6.567 -2.11601 0 
6.82301 -2.12303 0 
7.06572 -2.04567 0 
7.29733 -2.17484 0 
7.54632 -2.11408 0 
7.79371 -2.13741 0 
8.02274 -2.07453 0 
8.25027 -2.1738 0 
8.48528 -2.0332 0 
-8.48528 -1.79671 0 
-8.25436 -1.93882 0 
-8.01299 -1.83977 0 
-7.78596 -1.953 0 
-7.5297 -1.87194 0 
-7.2756 -1.88722 0 
-7.05707 -1.93544 0 
-6.84369 -1.89677 0 
-6.62219 -1.88079 0 
-6.40169 -1.87606 0 
-6.18206 -1.87854 0 
-5.96274 -1.881 0 
-5.74458 -1.88208 0 
-5.52796 -1.88344 0 
-5.31232 -1.88506 0 
-5.09736 -1.88569 0 
-4.88338 -1.88564 0 
-4.67019 -1.88555 0 
-4.45737 -1.88507 0 
-4.24485 -1.88447 0 
-4.03271 -1.88482 0 
-3.82061 -1.88562 0 
-3.60832 -1.88529 0 
-3.39617 -1.88464 0 
-3.18427 -1.88547 0 
-2.97209 -1.88672 0 
-2.7596 -1.88684 0 
-2.54714 -1.88601 0 
-2.33483 -1.88505 0 
-2.12268 -1.8846 0 
-1.91058 -1.885 0 
-1.69824 -1.88561 0 
-1.48561 -1.88547 0 
-1.27286 -1.88413 0 
-1.06032 -1.88216 0 
-0.848858 -1.8839 0 
-0.636875 -1.88781 0 
-0.424169 -1.89034 0 
-0.211518 -1.89004 0 
0.000731944 -1.88866 0 
0.21257 -1.88788 0 
0.424308 -1.88807 0 
0.636257 -1.88793 0 
0.848362 -1.88664 0 
1.06025 -1.88556 0 
1.27191 -1.88605 0 
1.48381 -1.88664 0 
1.69595 -1.886 0 
1.90782 -1.88577 0 
2.11974 -1.88637 0 
2.33202 -1.88609 0 
2.54419 -1.88502 0 
2.75607 -1.88472 0 
2.96812 -1.88462 0 
3.18055 -1.88217 0 
3.39117 -1.88415 0 
3.60398 -1.8838 0 
3.81618 -1.88366 0 
4.02827 -1.88469 0 
4.24071 -1.88523 0 
4.4544 -1.88509 0 
4.66716 -1.88476 0 
4.88099 -1.88493 0 
5.09545 -1.88466 0 
5.31057 -1.88453 0 
5.52653 -1.88564 0 
5.7436 -1.88981 0 
5.96352 -1.89563 0 
6.18733 -1.89813 0 
6.41543 -1.89522 0 
6.65059 -1.89622 0 
6.87542 -1.86913 0 
7.11122 -1.81621 0 
7.31223 -1.94975 0 
7.53264 -1.87683 0 
7.77077 -1.89068 0 
8.01717 -1.8297 0 
8.25014 -1.93148 0 
8.48528 -1.79628 0 
-8.48528 -1.57009 0 
-8.24868 -1.70836 0 
-8.015 -1.61096 0 
-7.76734 -1.73071 0 
-7.54593 -1.61782 0 
-7.32306 -1.66278 0 
-7.05152 -1.7082 0 
-6.79786 -1.66675 0 
-6.56099 -1.64764 0 
-6.33267 -1.64541 0 
-6.10856 -1.64921 0 
-5.88638 -1.65073 0 
-5.66697 -1.65153 0 
-5.44986 -1.65353 0 
-5.23379 -1.65525 0 
-5.01882 -1.6551 0 
-4.80519 -1.6548 0 
-4.59235 -1.65478 0 
-4.37976 -1.65422 0 
-4.16737 -1.65386 0 
-3.95537 -1.65471 0 
-3.74326 -1.6554 0 
-3.5309 -1.65455 0 
-3.31876 -1.65426 0 
-3.10682 -1.65593 0 
-2.89443 -1.65705 0 
-2.68177 -1.65644 0 
-2.46924 -1.65516 0 
-2.25682 -1.65408 0 
-2.04447 -1.65386 0 
-1.83202 -1.65455 0 
-1.61911 -1.65506 0 
-1.40572 -1.65429 0 
-1.19212 -1.65207 0 
-0.97885 -1.64982 0 
-0.767325 -1.65372 0 
-0.555434 -1.6581 0 
-0.343588 -1.65935 0 
-0.132061 -1.65818 0 
0.0792288 -1.65687 0 
0.290417 -1.65682 0 
0.501823 -1.6575 0 
0.713729 -1.65709 0 
0.925861 -1.65545 0 
1.13768 -1.65488 0 
1.34929 -1.65604 0 
1.56128 -1.6563 0 
1.77337 -1.65516 0 
1.985 -1.65561 0 
2.19698 -1.65642 0 
2.40939 -1.65525 0 
2.62143 -1.65394 0 
2.83323 -1.65414 0 
3.04553 -1.65355 0 
3.25842 -1.64868 0 
3.46746 -1.65522 0 
3.68272 -1.65284 0 
3.89574 -1.65288 0 
4.10731 -1.65378 0 
4.32287 -1.65565 0 
4.53627 -1.65249 0 
4.74932 -1.65397 0 
4.96428 -1.65355 0 
5.17935 -1.65257 0 
5.3944 -1.65202 0 
5.60927 -1.65354 0 
5.82513 -1.66019 0 
6.04295 -1.66711 0 
6.26383 -1.66843 0 
6.48537 -1.66776 0 
6.70098 -1.65646 0 
6.91299 -1.6206 0 
7.11709 -1.6046 0 
7.3526 -1.69716 0 
7.60698 -1.65764 0 
7.8325 -1.64214 0 
8.05985 -1.58842 0 
8.2608 -1.69223 0 
8.48528 -1.56961 0 
-8.48528 -1.35019 0 
-8.24958 -1.48044 0 
-8.0219 -1.3751 0 
-7.79713 -1.50391 0 
-7.58956 -1.39834 0 
-7.36199 -1.38754 0 
-7.16079 -1.49923 0 
-6.93764 -1.46284 0 
[...]
POINT_DATA 2054 
VECTORS vectors float
0.128274 -0.189815 0.972903 
0.142762 -0.139238 0.981812 
0.154281 -0.102509 0.985004 
0.163009 -0.0766003 0.985838 
0.169598 -0.0581241 0.985767 
0.174463 -0.044622 0.985486 
0.178131 -0.0344437 0.985115 
0.180946 -0.0265834 0.984748 
0.183143 -0.0204106 0.984424 
0.184815 -0.0154849 0.984157 
0.18608 -0.0114858 0.983923 
0.187011 -0.0081786 0.983736 
0.187672 -0.00534532 0.983595 
0.188076 -0.00284307 0.983503 
0.188239 -0.000510902 0.98346 
0.188176 0.00178621 0.983463 
0.187872 0.00421716 0.983517 
0.187317 0.00691964 0.98362 
0.186485 0.0100546 0.983773 
0.185363 0.0138049 0.98397 
0.183892 0.0183405 0.984213 
0.181957 0.0239216 0.984506 
0.179463 0.0309028 0.984835 
0.176292 0.0397003 0.985173 
0.172272 0.0508337 0.985467 
0.167186 0.0649764 0.985622 
0.16077 0.0829923 0.985461 
0.152697 0.105986 0.984671 
0.142568 0.135381 0.982712 
0.129945 0.172994 0.978652 
0.114423 0.221071 0.970916 
0.0958032 0.282194 0.956917 
0.0743798 0.358861 0.932605 
0.0512837 0.452532 0.892113 
0.0286827 0.562036 0.827938 
0.00952052 0.681768 0.732143 
-0.00335896 0.800695 0.598831 
-0.00844382 0.903434 0.427183 
-0.00643134 0.973694 0.223635 
-0.000191646 0.998968 0.0017999 
0.00610783 0.974499 -0.220215 
0.00827354 0.904856 -0.424247 
0.0033696 0.802437 -0.596546 
-0.00936981 0.683538 -0.730517 
-0.0284647 0.563639 -0.82686 
-0.0510618 0.453878 -0.891439 
-0.0741818 0.359954 -0.932194 
-0.095634 0.283064 -0.956672 
-0.114281 0.221755 -0.97077 
-0.129829 0.173527 -0.978566 
-0.142476 0.135793 -0.982664 
-0.152623 0.106304 -0.984647 
-0.160709 0.0832365 -0.985451 
-0.167136 0.0651619 -0.985621 
-0.172232 0.0509737 -0.985471 
-0.176261 0.0398053 -0.985178 
-0.179442 0.030981 -0.984842 
-0.181944 0.0239841 -0.984511 
-0.183881 0.0183939 -0.984218 
-0.18536 0.0138502 -0.983974 
-0.186491 0.0101023 -0.983775 
-0.187325 0.00697896 -0.983624 
-0.187879 0.00428785 -0.983525 
-0.18818 0.001873 -0.983476 
-0.188228 -0.000418813 -0.983479 
-0.188042 -0.0027597 -0.983533 
-0.187611 -0.00530754 -0.983639 
-0.186973 -0.00824327 -0.983809 
-0.186251 -0.0116272 -0.983955 
-0.18541 -0.0154622 -0.983056 
-0.183333 -0.0201322 -0.984638 
-0.180976 -0.0263802 -0.984693 
-0.17807 -0.0342367 -0.985193 
-0.174323 -0.0445585 -0.985712 
-0.169563 -0.058055 -0.985796 
-0.163021 -0.0765094 -0.985919 
-0.154267 -0.10245 -0.985136 
-0.142751 -0.13925 -0.981937 
-0.128302 -0.189855 -0.972957 
0.0863097 -0.201839 0.976622 
0.109775 -0.163289 0.986194 
0.113122 -0.127124 0.993603 
0.120887 -0.0976673 0.996228 
0.128263 -0.0738234 0.996993 
0.132881 -0.0566498 0.997316 
0.137364 -0.0434313 0.99716 
0.140883 -0.0331446 0.99689 
0.143072 -0.0252796 0.996701 
0.144533 -0.019222 0.996575 
0.146056 -0.0143695 0.996365 
0.147286 -0.0104075 0.996167 
0.148189 -0.00708692 0.996008 
0.1488 -0.00420033 0.995889 
0.149152 -0.00157255 0.995811 
0.149253 0.000955835 0.995774 
0.149096 0.00354803 0.995781 
0.14866 0.00636453 0.995832 
0.147931 0.00956422 0.995926 
0.146897 0.0133259 0.996057 
0.145549 0.0178554 0.996212 
0.14381 0.0234092 0.996388 
0.141553 0.0303141 0.996574 
0.138688 0.0389736 0.996739 
0.135133 0.0498975 0.996814 
0.13073 0.0637432 0.996696 
0.125257 0.0813471 0.996212 
0.11849 0.103752 0.995058 
0.110226 0.132254 0.992718 
0.100276 0.168469 0.98834 
0.0884979 0.214344 0.980541 
0.0748858 0.27208 0.967124 
0.0597276 0.343789 0.944732 
0.043774 0.430771 0.908569 
0.0282957 0.532432 0.852399 
0.0148322 0.645189 0.768996 
0.00480215 0.761343 0.651435 
-0.000927876 0.868435 0.495734 
-0.00248721 0.950681 0.304306 
-0.0011418 0.993328 0.0879365 
0.00107843 0.988032 -0.135859 
0.00196264 0.936007 -0.347707 
-0.000369798 0.847319 -0.531766 
-0.00698267 0.737114 -0.679286 
-0.017806 0.620665 -0.78927 
-0.0318107 0.509583 -0.866397 
-0.0474836 0.410758 -0.917766 
-0.0632981 0.32708 -0.9505 
-0.0781216 0.258542 -0.970608 
-0.0913368 0.203518 -0.982587 
-0.1027 0.159859 -0.989507 
-0.112218 0.125453 -0.99336 
-0.120079 0.0984133 -0.995395 
-0.1265 0.0771691 -0.996378 
-0.131717 0.0604703 -0.996763 
-0.135927 0.0473159 -0.996827 
-0.139305 0.0369285 -0.996728 
-0.142015 0.0286916 -0.996556 
-0.144178 0.0221129 -0.996365 
-0.145863 0.0168027 -0.996186 
-0.147151 0.0124583 -0.996034 
-0.148104 0.00884123 -0.995917 
-0.148767 0.00574516 -0.99584 
-0.149162 0.00299113 -0.995806 
-0.149316 0.000412803 -0.995818 
-0.149277 -0.00216723 -0.995875 
-0.149106 -0.0049388 -0.995967 
-0.14884 -0.00812102 -0.996102 
-0.147703 -0.0119802 -0.996451 
-0.145953 -0.0167961 -0.997636 
-0.141767 -0.023072 -0.998187 
-0.144878 -0.030424 -0.995453 
-0.136782 -0.0409883 -0.998405 
-0.135021 -0.0552539 -0.997084 
-0.127892 -0.0731551 -0.997299 
-0.120747 -0.0967604 -0.996583 
-0.112297 -0.126439 -0.994114 
-0.109323 -0.162615 -0.986548 
-0.0863705 -0.201819 -0.976749 
0.0586367 -0.213588 0.976671 
0.0822271 -0.163165 0.99128 
0.0847121 -0.125639 0.99834 
0.0959647 -0.0916893 0.999693 
0.0989596 -0.0702332 1.00105 
0.103675 -0.0539525 1.0013 
0.108352 -0.0409479 1.0012 
0.11075 -0.0310999 1.00114 
0.111556 -0.0237678 1.00118 
0.112936 -0.0179239 1.00106 
0.11431 -0.0131955 1.00091 
0.115381 -0.00928979 1.00076 
0.116115 -0.00596223 1.00065 
0.116593 -0.00300148 1.00056 
0.116824 -0.000229746 1.00051 
0.116792 0.00252229 1.00049 
0.116492 0.00542725 1.0005 
0.115909 0.00865316 1.00055 
0.115025 0.0123772 1.00063 
0.113856 0.0168059 1.00072 
0.112394 0.0221889 1.00081 
0.110517 0.0288368 1.00089 
0.108092 0.0371342 1.00094 
0.105102 0.047549 1.00089 
0.1015 0.0606844 1.00063 
0.0971036 0.0773206 1.00001 
0.091721 0.0984223 0.998765 
0.085243 0.125156 0.996441 
0.0776157 0.158935 0.992318 
0.0688291 0.201436 0.98525 
0.0589405 0.254574 0.973451 
0.0481457 0.320288 0.954206 
0.0368876 0.400048 0.923588 
0.0258966 0.494037 0.876322 
0.0160941 0.600077 0.806034 
0.00826041 0.712991 0.705718 
0.00289321 0.823437 0.569357 
7.51724e-05 0.917522 0.395213 
-0.000685372 0.97932 0.189563 
-0.000391876 0.996514 -0.0325709 
-0.000262753 0.965635 -0.251405 
-0.00146303 0.893281 -0.448502 
-0.00488265 0.793069 -0.611888 
-0.0108944 0.680531 -0.737736 
-0.0192865 0.568578 -0.82896 
-0.0294379 0.4655 -0.891994 
-0.0404914 0.375514 -0.933848 
-0.0515846 0.299931 -0.960699 
-0.0621075 0.238028 -0.977456 
-0.0716833 0.188105 -0.987672 
-0.0800754 0.148278 -0.993751 
-0.0872543 0.116726 -0.997266 
-0.0933319 0.0917953 -0.999225 
-0.0983658 0.0721125 -1.00026 
-0.102547 0.056584 -1.00075 
-0.105967 0.0442961 -1.00094 
-0.108745 0.034552 -1.00096 
-0.111014 0.0267833 -1.00089 
-0.112841 0.0205332 -1.00079 
-0.114252 0.0154495 -1.0007 
-0.115311 0.0112516 -1.00061 
-0.11608 0.00769673 -1.00055 
-0.116577 0.00458444 -1.00053 
-0.116843 0.00173848 -1.00053 
-0.116899 -0.00101715 -1.00057 
-0.11685 -0.00386316 -1.00064 
-0.116756 -0.00698 -1.00073 
-0.116335 -0.0105726 -1.00088 
-0.115201 -0.0149246 -1.0011 
-0.112879 -0.0203427 -1.00132 
-0.108541 -0.0270898 -1.00084 
-0.114058 -0.034074 -1.00079 
-0.097174 -0.0429038 -1.00242 
-0.109549 -0.0517496 -0.999804 
-0.0997357 -0.0690468 -1.00125 
-0.0945571 -0.0912899 -1.00041 
-0.0834587 -0.123474 -0.999316 
-0.0818879 -0.161928 -0.991853 
-0.0586341 -0.213542 -0.976804 
0.041017 -0.22262 0.975518 
0.0602536 -0.170032 0.991907 
0.0589933 -0.136651 0.997404 
0.0729717 -0.107596 0.998788 
0.0734567 -0.0841874 1.00207 
0.0759679 -0.0656307 1.00325 
0.0823745 -0.0502937 1.0031 
0.0856679 -0.0380916 1.0032 
0.0856943 -0.0294089 1.00352 
0.0866927 -0.0224117 1.00353 
0.088027 -0.0167665 1.00344 
0.0892571 -0.0121414 1.00333 
0.0901309 -0.00826801 1.00323 
0.0907198 -0.00490256 1.00315 
0.0911001 -0.00184132 1.00308 
0.0912272 0.0010945 1.00304 
0.091084 0.00408682 1.00304 
0.0906896 0.00731575 1.00305 
0.0900297 0.0109596 1.00308 
0.0890837 0.0152196 1.00313 
0.0878917 0.0203329 1.00317 
0.0864218 0.0265838 1.00319 
0.0845089 0.0343312 1.00317 
0.0820818 0.0440115 1.00306 
0.0792001 0.0561484 1.00276 
0.0757864 0.071432 1.00214 
0.0716495 0.0907433 1.00098 
0.0666925 0.11513 0.998918 
0.0609126 0.145831 0.995365 
0.0543528 0.184304 0.989409 
0.0470981 0.232213 0.979641 
0.0392767 0.291365 0.963923 
0.0311321 0.363397 0.939095 
0.023076 0.44918 0.900763 
0.0156543 0.547954 0.843269 
0.00943649 0.656146 0.760245 
0.00472464 0.767345 0.644883 
0.00163203 0.870655 0.492315 
2.46981e-05 0.950978 0.303722 
-0.000556811 0.993193 0.0894499 
-0.000802291 0.988474 -0.132623 
-0.00145545 0.938083 -0.342368 
-0.00318097 0.852451 -0.523927 
-0.00642791 0.746591 -0.669337 
-0.0113159 0.634944 -0.778399 
-0.0176711 0.527995 -0.856109 
-0.0251093 0.431678 -0.909363 
-0.0330867 0.348601 -0.944692 
-0.0410961 0.279174 -0.967474 
-0.0487951 0.222279 -0.981861 
-0.0558919 0.176248 -0.990777 
-0.0621851 0.139389 -0.996193 
-0.0676765 0.110055 -0.999408 
-0.072417 0.0867606 -1.00127 
-0.0763415 0.0682892 -1.00232 
-0.0797176 0.0536702 -1.00285 
-0.082481 0.0420323 -1.00311 
-0.0847439 0.0327644 -1.0032 
-0.0866257 0.0253322 -1.0032 
-0.0881422 0.0193092 -1.00317 
-0.0892694 0.0143736 -1.00313 
-0.0901276 0.0102478 -1.00309 
-0.0907046 0.00669857 -1.00307 
-0.0910658 0.0035252 -1.00307 
-0.0911986 0.000551753 -1.0031 
-0.0911682 -0.00241261 -1.00315 
-0.0911041 -0.00554945 -1.0032 
-0.0909339 -0.00904597 -1.00329 
-0.0903604 -0.0131698 -1.00342 
-0.0889385 -0.0182827 -1.00361 
-0.0863112 -0.024872 -1.00382 
-0.0846416 -0.0339218 -1.0048 
-0.0749062 -0.0459378 -1.00416 
-0.0835389 -0.0581679 -1.00299 
-0.0733401 -0.0782774 -1.00384 
-0.070127 -0.103129 -1.00038 
-0.0589864 -0.134657 -0.998232 
-0.0596633 -0.169773 -0.992237 
-0.0409799 -0.2226 -0.975596 
0.0294765 -0.229261 0.974227 
0.043357 -0.177216 0.991176 
0.0437953 -0.138329 0.997891 
0.0560211 -0.105758 1.00116 
0.0551005 -0.080596 1.00469 
0.0599865 -0.0603167 1.00445 
0.0663346 -0.0465892 1.00334 
0.0655305 -0.0366497 1.00465 
0.0661081 -0.0281805 1.00488 
0.067154 -0.0213448 1.00489 
0.0684264 -0.0157865 1.00481 
0.0694279 -0.0112013 1.00474 
0.0700766 -0.00731344 1.00466 
0.0705238 -0.00387966 1.00459 
0.0707873 -0.000699895 1.00454 
0.0707771 0.00241777 1.00452 
0.0705186 0.0056665 1.00451 
0.0700584 0.00922951 1.00452 
0.0693561 0.0133014 1.00453 
0.0684081 0.0181125 1.00454 
0.0672649 0.023922 1.00453 
0.0658479 0.0310464 1.00447 
0.0639936 0.0398927 1.00434 
0.0617201 0.0509363 1.00405 
0.0591096 0.0647474 1.00349 
0.0560264 0.0821058 1.0025 
0.0523217 0.103967 1.00078 
0.0479953 0.131422 0.997869 
0.0431098 0.165753 0.993058 
0.0377477 0.20843 0.985251 
0.0320203 0.261084 0.972789 
0.0260573 0.325424 0.953186 
0.0200758 0.402792 0.92286 
0.014399 0.493493 0.876965 
0.00939546 0.59586 0.8095 
0.00539852 0.704897 0.714281 
0.0024715 0.813096 0.584743 
0.000605376 0.907872 0.417917 
-0.000366861 0.973586 0.218594 
-0.000810334 0.997205 0.000245897 
-0.00120281 0.973776 -0.217707 
-0.0020297 0.908566 -0.416349 
-0.00369238 0.814313 -0.582979 
-0.00641932 0.706073 -0.713061 
-0.0102366 0.596721 -0.808805 
-0.0150212 0.494664 -0.876241 
-0.0205083 0.404136 -0.922223 
-0.0263304 0.32672 -0.95271 
-0.0322041 0.262255 -0.972451 
-0.0379147 0.209385 -0.985028 
-0.0432051 0.166505 -0.992927 
-0.0479408 0.132075 -0.997789 
-0.0521636 0.104568 -1.00073 
-0.0558516 0.0826224 -1.00249 
-0.0588497 0.0651511 -1.00352 
-0.0616368 0.051297 -1.00404 
-0.0638437 0.0401668 -1.00436 
-0.0656657 0.0312778 -1.00449 
-0.0672259 0.0241036 -1.00454 
-0.0684438 0.0182548 -1.00456 
-0.0693473 0.0134054 -1.00455 
-0.0699906 0.00932621 -1.00454 
-0.0704578 0.00574479 -1.00455 
-0.0706868 0.00248363 -1.00456 
-0.0707258 -0.000643388 -1.0046 
-0.0706586 -0.00383609 -1.00464 
-0.0706171 -0.00727161 -1.00467 
-0.0704688 -0.0111636 -1.00472 
-0.0697924 -0.0158187 -1.00482 
-0.068381 -0.021612 -1.00492 
-0.066838 -0.0290377 -1.00506 
-0.0629052 -0.0382402 -1.00513 
-0.056845 -0.0506791 -1.00464 
-0.0638564 -0.0621035 -1.00406 
-0.0552783 -0.0807262 -1.00258 
-0.0518711 -0.104956 -1.00275 
-0.0429759 -0.139156 -0.998 
-0.0429882 -0.176599 -0.991508 
-0.0294555 -0.229164 -0.974269 
0.0215637 -0.233965 0.973225 
0.0318952 -0.181351 0.990696 
0.0323844 -0.142702 0.997457 
0.0425522 -0.107289 1.00165 
0.039962 -0.0854568 1.00365 
0.0451784 -0.0661702 1.00488 
0.0508444 -0.0482562 1.00603 
0.0505407 -0.0362167 1.00576 
0.0509586 -0.0273096 1.00579 
0.0519903 -0.0203729 1.0057 
0.0531038 -0.0148213 1.00562 
0.0538419 -0.0102411 1.00555 
0.0543186 -0.0063232 1.00548 
0.0546787 -0.00282046 1.00541 
0.0548467 0.00048135 1.00537 
0.0547255 0.00379142 1.00535 
0.0544224 0.00730346 1.00534 
0.0539594 0.0112027 1.00533 
0.0532718 0.0157108 1.00532 
0.0523844 0.0210841 1.0053 
0.0513328 0.027595 1.00523 
0.0500011 0.0355985 1.0051 
0.0482747 0.0455456 1.00485 
0.0462476 0.0579366 1.00438 
0.0439632 0.0733938 1.00356 
0.0412466 0.0927888 1.00217 
0.0380292 0.117123 0.999867 
0.0343836 0.147512 0.996078 
0.0303839 0.18528 0.989961 
0.0261194 0.231915 0.980234 
0.0216883 0.289037 0.964968 
0.0171986 0.358267 0.941295 
0.0128285 0.440647 0.905169 
0.0088195 0.535867 0.851268 
0.00541773 0.641188 0.773324 
0.00281484 0.749976 0.665678 
0.000969085 0.853498 0.522524 
-0.000155522 0.937801 0.34374 
-0.000718019 0.988076 0.137116 
-0.00100548 0.994038 -0.0816543 
-0.00136827 0.954475 -0.292865 
-0.00214205 0.877728 -0.479583 
-0.00357542 0.777697 -0.632237 
-0.00578097 0.668825 -0.748962 
-0.00875071 0.56238 -0.83358 
-0.0123895 0.464999 -0.892643 
-0.0164902 0.379624 -0.932752 
-0.0208036 0.307145 -0.959311 
-0.025191 0.246982 -0.976542 
-0.0294757 0.197594 -0.987608 
-0.0334291 0.157486 -0.99461 
-0.0370141 0.12523 -0.998957 
-0.0402792 0.0993705 -1.00163 
-0.0431164 0.0786536 -1.00326 
-0.0453305 0.0621016 -1.00425 
-0.0477574 0.0489897 -1.00472 
-0.0494074 0.0382799 -1.00509 
-0.0508719 0.029733 -1.00523 
-0.0520947 0.0228363 -1.00533 
-0.0531548 0.0170846 -1.00536 
-0.0536713 0.0123633 -1.00539 
-0.0542692 0.00831448 -1.00538 
-0.0545685 0.0046912 -1.00541 
-0.0546565 0.00133133 -1.00543 
-0.0545947 -0.00195778 -1.00546 
-0.0544818 -0.00537569 -1.00549 
-0.0544987 -0.00910761 -1.00548 
-0.054319 -0.0133743 -1.00549 
-0.0535496 -0.0185019 -1.00553 
-0.0523964 -0.0247793 -1.00556 
-0.0503738 -0.0323848 -1.00552 
-0.046726 -0.0418636 -1.00526 
-0.0441042 -0.0529669 -1.00378 
-0.0466092 -0.0679214 -1.00506 
-0.0410963 -0.0907155 -1.00308 
-0.0368072 -0.116614 -1.00072 
-0.0305579 -0.150263 -0.995365 
-0.030846 -0.183996 -0.990189 
-0.0215084 -0.233715 -0.973482 
0.0158588 -0.237364 0.972419 
0.0233868 -0.18553 0.989977 
0.0235157 -0.147133 0.996867 
0.0313248 -0.114088 1.00082 
0.0297299 -0.092202 1.00201 
0.0316126 -0.0718607 1.00545 
0.0384877 -0.0565315 1.00438 
0.0385506 -0.0440992 1.0058 
0.0383703 -0.0339082 1.00613 
0.0389641 -0.0256684 1.00616 
0.0399618 -0.0190723 1.00609 
0.0408648 -0.0136945 1.00604 
0.041332 -0.0091758 1.00599 
0.0416699 -0.00526835 1.00592 
0.041951 -0.00171772 1.00586 
0.0419804 0.00169902 1.00583 
0.0417691 0.00520554 1.00582 
0.0414532 0.00897524 1.00579 
0.0410068 0.013205 1.00577 
0.0403726 0.0181598 1.00575 
0.0395723 0.0240988 1.00568 
0.0386352 0.0313094 1.00557 
0.037426 0.0401908 1.00536 
0.0359012 0.0512301 1.00498 
0.0341837 0.0649405 1.00432 
0.0322498 0.082009 1.00323 
0.0299326 0.103389 1.00144 
0.0272455 0.130104 0.998517 
0.0242862 0.163296 0.993808 
0.0211203 0.204334 0.98633 
0.0178265 0.254726 0.974596 
0.0144804 0.316068 0.956394 
0.0111611 0.389849 0.928471 
0.00801027 0.476707 0.886349 
0.00520283 0.575541 0.824377 
0.00290344 0.682329 0.736414 
0.00120872 0.788967 0.617826 
5.10916e-05 0.886076 0.463733 
-0.000600151 0.959429 0.276094 
-0.000884451 0.995345 0.0647212 
-0.00103307 0.985896 -0.152935 
-0.00131427 0.932984 -0.35712 
-0.00196489 0.847291 -0.532862 
-0.00313581 0.74333 -0.673297 
-0.00487564 0.634811 -0.778656 
-0.00716418 0.531505 -0.853982 
-0.00991921 0.438488 -0.906163 
-0.0129715 0.357716 -0.941463 
-0.0161708 0.289568 -0.96479 
-0.0194612 0.233164 -0.979948 
-0.0226577 0.186796 -0.98975 
-0.0255858 0.1491 -0.995986 
-0.0283003 0.118775 -0.999868 
-0.0308146 0.094383 -1.00229 
-0.0329507 0.0747355 -1.00382 
-0.034509 0.0589564 -1.00477 
-0.0368533 0.04659 -1.00508 
-0.0379389 0.0360607 -1.00552 
-0.0389052 0.0280556 -1.00575 
-0.0402538 0.0211736 -1.00578 
-0.0406662 0.0157015 -1.00586 
-0.0410951 0.0110788 -1.00588 
-0.0416547 0.00707902 -1.00587 
-0.0417613 0.00339236 -1.00593 
-0.0417085 -7.63419e-05 -1.00593 
-0.041537 -0.00352231 -1.00597 
-0.041519 -0.00719991 -1.00595 
-0.0415557 -0.0112346 -1.0059 
-0.0413917 -0.0159021 -1.00582 
-0.0405322 -0.0215218 -1.00587 
-0.0391899 -0.0284042 -1.00594 
-0.0370236 -0.037233 -1.00594 
-0.0337478 -0.0492826 -1.00618 
-0.0358785 -0.0631495 -1.00354 
-0.0334012 -0.0803413 -1.00379 
-0.0288589 -0.104124 -1.00221 
-0.0254337 -0.133259 -0.998888 
-0.0218802 -0.184621 -0.991232 
-0.0155875 -0.237227 -0.972512 
0.011578 -0.239859 0.971788 
0.0169872 -0.188819 0.989322 
0.0170016 -0.14922 0.996538 
0.0227828 -0.116678 1.00062 
0.0226402 -0.0897829 1.00328 
0.0227941 -0.0697872 1.00511 
0.029004 -0.0554229 1.00568 
0.0286241 -0.0425495 1.0063 
0.0288282 -0.0322801 1.0064 
0.0294834 -0.0242262 1.00637 
0.0304173 -0.0178131 1.0063 
0.0311021 -0.012532 1.00625 
0.0313015 -0.00808047 1.00621 
0.0316097 -0.00419989 1.00611 
0.031792 -0.000627885 1.00607 
0.0317416 0.00290912 1.00606 
0.0315051 0.00660409 1.00604 
0.0312187 0.0105981 1.00601 
0.0308529 0.0151636 1.00599 
0.0302829 0.0205617 1.00594 
0.0295964 0.0270474 1.00584 
0.0287812 0.034931 1.00567 
0.0277206 0.0446635 1.00538 
0.0264376 0.0567319 1.00487 
0.025039 0.0716725 1.00403 
0.0234381 0.0902574 1.00267 
0.0215161 0.113494 1.00048 
0.0193464 0.142365 0.996935 
0.0170219 0.178009 0.991328 
0.0145916 0.221795 0.982547 
0.0121181 0.275135 0.968964 
0.00965228 0.339451 0.948201 
0.00725008 0.415962 0.916825 
0.00501964 0.504762 0.870311 
0.00307574 0.604318 0.803008 
0.00151704 0.710384 0.708723 
0.000382591 0.814953 0.582264 
-0.000360392 0.907794 0.418524 
-0.000729165 0.973195 0.221422 
-0.000846215 0.997449 0.00382334 
-0.000906653 0.974794 -0.214156 
-0.00112155 0.910468 -0.412591 
-0.00165663 0.817475 -0.578708 
-0.00259767 0.71079 -0.708379 
-0.00395929 0.603378 -0.803774 
-0.00571949 0.503374 -0.871148 
-0.00780285 0.414375 -0.91758 
-0.0100743 0.337689 -0.948875 
-0.0124596 0.273413 -0.969473 
-0.0149372 0.22034 -0.982882 
-0.0173087 0.17651 -0.991628 
-0.0194595 0.140901 -0.997179 
-0.0215235 0.112358 -1.00062 
-0.0234553 0.0892098 -1.00284 
-0.0250256 0.0703184 -1.0043 
-0.025998 0.0550432 -1.00564 
-0.0288242 0.0434312 -1.00458 
-0.0283233 0.0337358 -1.00642 
-0.0302037 0.0254403 -1.00588 
-0.0304394 0.0191748 -1.00605 
-0.0308214 0.0139051 -1.00612 
-0.0310755 0.00942914 -1.00615 
-0.031734 0.005507 -1.0061 
-0.0315592 0.00167696 -1.0062 
-0.031208 -0.00187049 -1.00626 
-0.0312335 -0.00557191 -1.00621 
-0.0310944 -0.00953163 -1.00615 
-0.0311654 -0.0138258 -1.006 
-0.0309523 -0.0186063 -1.00523 
-0.0299706 -0.0243619 -1.006 
-0.0288769 -0.0316952 -1.00605 
-0.0271577 -0.0413832 -1.00596 
-0.0245868 -0.0541752 -1.00533 
-0.0275071 -0.0666684 -1.00456 
-0.0239797 -0.0880409 -1.00367 
-0.019878 -0.116071 -1.00207 
-0.0187049 -0.154309 -0.9958 
-0.0150725 -0.193794 -0.987387 
-0.0112716 -0.239887 -0.971722 
0.00826614 -0.241704 0.971314 
0.0121887 -0.190717 0.988936 
0.0121353 -0.149805 0.996464 
0.0167579 -0.116361 1.00078 
0.0164488 -0.091015 1.00317 
0.016215 -0.0716946 1.00462 
0.0210163 -0.0533224 1.0067 
0.0209512 -0.0400726 1.00649 
0.0211893 -0.0301671 1.00655 
0.0218475 -0.0224539 1.00648 
0.0227089 -0.0162586 1.00637 
0.0230272 -0.0111929 1.00635 
0.0230726 -0.00682293 1.00626 
0.0232901 -0.00306562 1.00619 
0.0234402 0.000554501 1.0062 
0.0233148 0.00425422 1.00618 
0.0230101 0.00809635 1.00617 
0.022855 0.0123668 1.00614 
0.0225167 0.0173229 1.00611 
0.022023 0.0232088 1.00603 
0.0214534 0.0302752 1.00589 
0.0207695 0.0388983 1.00567 
0.0198793 0.049536 1.00528 
0.0188675 0.0626815 1.00463 
0.0177784 0.078942 1.00359 
0.0164941 0.0991951 1.00193 
0.0149591 0.124401 0.999254 