# vtk DataFile Version 3.0 
Exported using Morpho https://github.com/Morpho-lang/morpho 
ASCII 
DATASET UNSTRUCTURED_GRID 

POINTS 1978 float 
-8.49098 -2.83542 -6.00911e-07 
-8.24149 -2.82981 -2.62638e-06 
-8.05784 -2.83256 -2.28065e-05 
-7.79712 -2.83572 -4.18604e-06 
-7.48082 -2.83225 -1.07997e-05 
-7.21146 -2.83204 -3.04512e-06 
-7.00949 -2.83327 -9.5045e-06 
-6.76871 -2.83157 -1.51502e-05 
-6.5094 -2.83125 -2.81952e-05 
-6.33564 -2.83094 -1.34626e-05 
-6.16291 -2.83221 3.41075e-07 
-5.93281 -2.83265 -1.56057e-05 
-5.71395 -2.82819 -2.5561e-05 
-5.51331 -2.82848 -1.34503e-05 
-5.29662 -2.82895 -3.23099e-05 
-5.08917 -2.82843 -2.20452e-05 
-4.87963 -2.83144 -2.72042e-05 
-4.67261 -2.82821 -2.96967e-05 
-4.45781 -2.83255 -3.50513e-05 
-4.22434 -2.82756 -4.84578e-05 
-4.00075 -2.82571 -4.11534e-05 
-3.78102 -2.82444 -4.43347e-05 
-3.56336 -2.82395 -5.67133e-05 
-3.35632 -2.82654 -5.99436e-05 
-3.14032 -2.8301 -7.86533e-05 
-2.94085 -2.8259 -7.09284e-05 
-2.7429 -2.83214 -5.59128e-05 
-2.55821 -2.83404 -7.90032e-05 
-2.3354 -2.83163 -0.000146821 
-2.1281 -2.83693 -0.000158041 
-1.89672 -2.82995 -7.14677e-05 
-1.70612 -2.82456 -4.67883e-05 
-1.53115 -2.82738 2.01256e-05 
-1.34329 -2.8204 0.00124236 
-1.1555 -2.81335 0.00425818 
-0.97785 -2.8086 0.00644208 
-0.814362 -2.80482 0.0106527 
-0.646042 -2.75491 0.0184256 
-0.304884 -2.68273 0.0120666 
0.0728038 -2.66213 -0.00277137 
0.363934 -2.72022 -0.00542907 
0.621092 -2.76679 -0.0237781 
0.804991 -2.79302 -0.0102926 
0.981033 -2.80988 -0.00504539 
1.1645 -2.81734 -0.00238199 
1.31599 -2.83062 -0.00050901 
1.46261 -2.8331 -0.00109426 
1.69577 -2.8367 0.000203852 
1.88373 -2.83649 4.0937e-05 
2.09227 -2.83351 0.000112862 
2.3391 -2.83332 0.000127705 
2.52719 -2.83608 9.28451e-05 
2.74555 -2.8336 9.56512e-05 
2.96818 -2.83539 6.97321e-05 
3.16254 -2.82877 6.78966e-05 
3.36742 -2.83029 7.31147e-05 
3.59451 -2.82855 3.95367e-05 
3.79288 -2.82316 4.54694e-05 
4.01685 -2.82448 5.33925e-05 
4.25229 -2.82648 3.93525e-05 
4.45494 -2.82265 3.75444e-05 
4.6725 -2.82855 2.24539e-05 
4.87347 -2.83003 2.20221e-05 
5.08213 -2.83585 1.96255e-05 
5.28686 -2.83126 2.60823e-05 
5.50394 -2.83412 2.45585e-05 
5.69998 -2.83081 2.5325e-05 
5.91547 -2.83149 2.58598e-05 
6.14535 -2.83386 6.42719e-06 
6.34787 -2.83296 1.2121e-05 
6.58386 -2.83304 1.49559e-05 
6.80774 -2.83069 3.36954e-06 
7.00511 -2.83171 1.64498e-05 
7.2718 -2.83342 -8.90503e-06 
7.51101 -2.83478 1.24727e-05 
7.76372 -2.83635 1.43988e-05 
8.03052 -2.83248 2.05464e-05 
8.21352 -2.83242 9.97815e-06 
8.48517 -2.82904 4.25349e-06 
-8.49085 -2.56913 1.069e-05 
-8.28888 -2.61717 -1.82147e-05 
-8.0481 -2.54077 -8.46605e-06 
-7.86254 -2.6332 7.17443e-06 
-7.5861 -2.66878 -2.63882e-05 
-7.26939 -2.64011 -1.10596e-05 
-7.0104 -2.57957 -1.54432e-05 
-6.80794 -2.61805 -5.13787e-06 
-6.55935 -2.63387 2.52721e-05 
-6.32222 -2.54111 -1.15758e-05 
-6.10736 -2.61439 -2.42439e-05 
-5.88293 -2.60685 1.00141e-05 
-5.6731 -2.58739 1.41444e-05 
-5.45716 -2.60761 7.32594e-06 
-5.24488 -2.6005 1.24254e-05 
-5.03198 -2.60671 2.03189e-05 
-4.82011 -2.60259 2.1869e-05 
-4.60204 -2.60302 3.09934e-05 
-4.37369 -2.61448 2.63899e-05 
-4.1497 -2.59615 3.88421e-05 
-3.93025 -2.59194 3.22331e-05 
-3.70969 -2.59447 3.16392e-05 
-3.5008 -2.59191 4.83193e-05 
-3.2854 -2.61596 4.68544e-05 
-3.0797 -2.60841 7.37236e-05 
-2.87092 -2.61136 6.98391e-05 
-2.67764 -2.60152 7.20323e-05 
-2.46724 -2.63756 6.6445e-05 
-2.23777 -2.6186 7.6922e-05 
-2.01254 -2.63396 -4.26754e-05 
-1.79108 -2.58204 -0.000253097 
-1.59034 -2.55563 -0.00039945 
-1.40429 -2.57609 -0.00186941 
-1.20196 -2.56351 -0.00252616 
-1.00412 -2.54596 -0.00206986 
-0.810712 -2.50073 -0.00345757 
-0.633101 -2.43276 -0.00469784 
-0.445321 -2.45611 -0.00700564 
-0.26293 -2.4963 -0.00276654 
-0.0493969 -2.39312 0.00721459 
0.2261 -2.44389 -0.00581131 
0.481339 -2.48938 0.0100594 
0.686865 -2.46261 0.00482878 
0.880898 -2.4959 0.00148395 
1.07101 -2.54499 0.00146649 
1.24984 -2.51351 0.00175016 
1.48648 -2.64122 0.00118681 
1.68043 -2.6006 0.000179825 
1.89819 -2.62432 0.000215479 
2.15016 -2.65371 -3.13441e-05 
2.35022 -2.59586 -8.25713e-05 
2.56748 -2.63347 -6.27701e-05 
2.79776 -2.63681 -6.72645e-05 
2.99442 -2.60294 -8.60933e-05 
3.19783 -2.60108 -5.83779e-05 
3.42069 -2.61961 -4.44494e-05 
3.62281 -2.58162 -3.90095e-05 
3.83798 -2.59877 -4.18876e-05 
4.0696 -2.6121 -3.10958e-05 
4.27947 -2.58108 -3.23859e-05 
4.50324 -2.59974 -3.32187e-05 
4.71694 -2.59178 -1.37699e-05 
4.93271 -2.60478 -1.47873e-05 
5.14157 -2.60232 -1.61631e-05 
5.36201 -2.6142 -9.89449e-06 
5.57097 -2.59416 -1.49138e-05 
5.78585 -2.60967 -1.83885e-05 
6.01583 -2.6173 8.12941e-06 
6.23082 -2.58353 8.91966e-06 
6.45196 -2.61781 -9.47439e-06 
6.68438 -2.60244 4.57546e-06 
6.89548 -2.57003 1.14684e-05 
7.12409 -2.64007 1.1778e-05 
7.37611 -2.61212 2.25998e-05 
7.62268 -2.62187 -4.7339e-06 
7.88302 -2.63295 8.59098e-06 
8.08825 -2.53953 2.67989e-06 
8.31069 -2.63232 1.54777e-05 
8.49394 -2.53004 -1.62579e-05 
-8.49194 -2.37901 1.1457e-05 
-8.20595 -2.36666 7.26362e-06 
-7.93841 -2.30603 2.70141e-05 
-7.73758 -2.45436 -1.03689e-05 
-7.59145 -2.29716 -6.84623e-06 
-7.44185 -2.48585 -4.02104e-06 
-7.17486 -2.41128 -5.88746e-06 
-6.94409 -2.32526 -8.31408e-06 
-6.71927 -2.41218 -7.46862e-06 
-6.49828 -2.38915 -1.44243e-05 
-6.21072 -2.33899 2.12661e-05 
-6.00837 -2.38152 -3.46331e-06 
-5.79465 -2.35838 -1.10656e-05 
-5.5701 -2.36522 -2.15451e-06 
-5.36057 -2.37262 5.03775e-07 
-5.14127 -2.37488 3.59517e-06 
-4.92883 -2.37364 -5.8165e-06 
-4.70985 -2.37316 -1.00866e-05 
-4.48047 -2.38727 -6.58027e-06 
-4.25888 -2.37082 3.17095e-06 
-4.03629 -2.35561 7.94398e-06 
-3.81697 -2.36038 7.72598e-06 
-3.60579 -2.3528 -4.4732e-07 
-3.38751 -2.38509 6.04405e-06 
-3.18247 -2.38858 1.69395e-05 
-2.97173 -2.39666 1.21487e-05 
-2.77114 -2.37371 1.9988e-06 
-2.56284 -2.40331 -1.05401e-05 
-2.35454 -2.42839 -3.56212e-05 
-2.11202 -2.41481 -6.7605e-05 
-1.90063 -2.38784 -0.000212414 
-1.67861 -2.32184 -0.000504398 
-1.46651 -2.29988 -0.000610408 
-1.28163 -2.31854 -0.00172916 
-1.07517 -2.2971 -0.0026471 
-0.851264 -2.27029 -0.000243886 
-0.632998 -2.11203 -0.00620021 
-0.43119 -2.14811 -0.00181704 
-0.209839 -2.14124 -0.00409753 
0.0402882 -2.07122 0.000924462 
0.234342 -2.17876 0.0024941 
0.428969 -2.14793 0.00729432 
0.631528 -2.15653 0.0051966 
0.851728 -2.22066 0.00152905 
1.06444 -2.25986 0.00317427 
1.2604 -2.25994 0.000417294 
1.45464 -2.41786 0.0004695 
1.66147 -2.35454 0.000640568 
1.85645 -2.40111 0.000154419 
2.08159 -2.45857 -6.63577e-05 
2.30039 -2.37446 2.23496e-06 
2.52692 -2.41155 3.03749e-06 
2.74158 -2.43644 -1.07423e-05 
2.95554 -2.37328 -2.38765e-05 
3.15564 -2.37082 -1.69247e-05 
3.36718 -2.399 -4.6485e-06 
3.5735 -2.34862 -2.80789e-06 
3.78587 -2.36093 -4.82929e-06 
4.00249 -2.38787 -9.94437e-06 
4.21521 -2.34676 -7.72561e-06 
4.43961 -2.36464 9.24189e-06 
4.65328 -2.35776 8.20555e-06 
4.87051 -2.37167 9.59462e-06 
5.08368 -2.36655 2.33066e-06 
5.29982 -2.38711 -2.57247e-06 
5.51459 -2.36497 6.47143e-08 
5.73445 -2.37338 5.76002e-06 
5.95083 -2.39268 4.78434e-06 
6.16686 -2.35332 1.39595e-06 
6.39919 -2.37322 5.70614e-06 
6.61318 -2.38029 1.07288e-05 
6.8354 -2.32668 7.79454e-06 
7.07146 -2.39042 5.63261e-06 
7.28913 -2.4082 8.61317e-06 
7.5494 -2.39527 1.48924e-05 
7.79628 -2.42025 2.61699e-06 
8.00741 -2.31364 -1.41797e-05 
8.26301 -2.36774 -4.7963e-06 
8.49063 -2.29934 -2.04589e-05 
-8.49539 -2.12922 1.7132e-05 
-8.27518 -2.17722 3.01415e-06 
-8.07997 -2.08541 2.09654e-05 
-7.79333 -2.13598 -9.7056e-06 
-7.53387 -2.06635 1.41201e-05 
-7.33524 -2.24963 -1.71204e-05 
-7.09875 -2.14177 7.74834e-06 
-6.79947 -2.14084 -1.06298e-06 
-6.59635 -2.15206 -6.08362e-06 
-6.3608 -2.17845 2.67775e-06 
-6.11492 -2.09452 1.4645e-06 
-5.91968 -2.12608 -1.03328e-05 
-5.69306 -2.13056 -1.28909e-05 
-5.47362 -2.12221 -1.81677e-06 
-5.25751 -2.1414 1.42953e-06 
-5.04222 -2.13097 -7.1205e-06 
-4.82449 -2.13615 -1.73684e-05 
-4.59581 -2.15016 -2.56263e-05 
-4.3753 -2.14152 -1.86292e-05 
-4.15322 -2.12465 -5.16305e-06 
-3.9305 -2.11499 6.02628e-07 
-3.72489 -2.11056 -1.29777e-05 
-3.50454 -2.1369 -1.44029e-05 
-3.30099 -2.15002 -8.45957e-06 
-3.0891 -2.16767 -3.68251e-06 
-2.88687 -2.15717 -7.58122e-06 
-2.66658 -2.15696 -1.1915e-05 
-2.45828 -2.18378 -1.44118e-05 
-2.24273 -2.21913 -3.70964e-05 
-2.01862 -2.16617 -9.16017e-05 
-1.79887 -2.13184 -0.00029432 
-1.55411 -2.07012 -0.000796417 
-1.34447 -2.01786 -0.000655161 
-1.18848 -1.88857 -0.00139478 
-1.08958 -2.04287 -0.00135561 
-0.847797 -2.03306 -0.00162292 
-0.583126 -1.79487 -0.00356364 
-0.371743 -1.84092 -0.00489281 
-0.133708 -1.81669 0.00361099 
0.0657189 -1.65525 -0.00344142 
0.254938 -1.78422 -4.33036e-05 
0.389065 -1.62859 0.00194198 
0.545685 -1.83784 -0.00143939 
0.737005 -1.87132 0.00676789 
0.949147 -1.98047 -3.16974e-05 
1.18585 -2.02392 0.00290353 
1.46046 -2.16801 0.000957473 
1.64387 -2.0877 0.000474996 
1.87015 -2.18118 0.000285349 
2.09079 -2.22643 0.000135101 
2.35179 -2.16549 1.46271e-05 
2.56907 -2.18676 1.77689e-05 
2.77677 -2.20019 1.46298e-05 
2.98549 -2.12909 2.09259e-06 
3.20219 -2.14725 5.0221e-06 
3.40051 -2.1499 9.27018e-06 
3.61462 -2.11317 1.73166e-05 
3.82886 -2.1307 7.53824e-06 
4.03179 -2.1357 5.87652e-06 
4.26299 -2.11744 1.47024e-05 
4.47611 -2.11781 1.86286e-05 
4.69825 -2.12208 1.69626e-05 
4.91324 -2.13229 1.36639e-05 
5.13129 -2.13244 5.61701e-06 
5.34217 -2.14448 3.44943e-06 
5.56471 -2.13302 6.47524e-06 
5.78239 -2.13705 1.01943e-05 
5.99211 -2.14243 9.52266e-07 
6.2372 -2.13456 -1.05929e-06 
6.45091 -2.12378 1.91933e-06 
6.66145 -2.12303 1.02568e-05 
6.92356 -2.11726 -1.98597e-06 
7.1396 -2.14324 -1.29957e-05 
7.37377 -2.19291 -1.41777e-06 
7.56042 -2.09468 -1.5097e-05 
7.74026 -2.19133 3.47212e-06 
7.95588 -2.08772 -3.21928e-06 
8.21123 -2.14632 -1.46333e-05 
8.49173 -2.10797 -1.93528e-05 
-8.48675 -1.80975 2.73829e-05 
-8.31233 -1.91425 -3.43337e-06 
-7.91047 -1.91858 8.38643e-06 
-7.67622 -1.88722 2.23458e-06 
-7.43809 -1.79715 -9.86479e-06 
[...]
POINT_DATA 1978 
VECTORS vectors float
0.0360608 -0.0779937 0.99912 
0.0410257 -0.0608349 1.00099 
0.0456339 -0.0513908 1.00122 
0.0519151 -0.0401325 1.00142 
0.0567881 -0.0315437 1.00187 
0.0602341 -0.0271106 1.00168 
0.0619787 -0.0232773 1.00137 
0.0643387 -0.0203957 1.00133 
0.0658732 -0.0189976 1.00125 
0.0678627 -0.0183931 1.0003 
0.0685211 -0.017563 1.00108 
0.0712329 -0.0185537 1.00077 
0.072389 -0.0191542 1.00056 
0.0731805 -0.0197985 1.0005 
0.07444 -0.0210798 1.0003 
0.0748969 -0.0221712 1.00016 
0.0746801 -0.0231102 1.00021 
0.0749983 -0.0242676 1.00027 
0.0734067 -0.0252756 1.00044 
0.0729808 -0.0271767 1.0005 
0.0720796 -0.0291744 1.00054 
0.071943 -0.0314967 1.00047 
0.0698604 -0.0336469 1.00041 
0.0661198 -0.0349459 1.0005 
0.0600558 -0.0354662 1.0008 
0.0496099 -0.0323613 1.00145 
0.0381004 -0.025738 1.00208 
0.0237755 -0.0140831 1.00282 
0.0022885 0.00928858 1.00328 
-0.0189896 0.0368755 1.00238 
-0.051004 0.0813358 0.998503 
-0.0867414 0.13172 0.990272 
-0.1232 0.192841 0.975663 
-0.166224 0.278986 0.94724 
-0.201055 0.394576 0.897756 
-0.209742 0.509728 0.835485 
-0.214543 0.618001 0.757176 
-0.19963 0.731133 0.653732 
-0.122745 0.931704 0.348612 
0.0264644 0.996522 -0.0888881 
0.138545 0.902182 -0.409531 
0.202474 0.750989 -0.631078 
0.216427 0.623562 -0.751236 
0.215373 0.502375 -0.837694 
0.191258 0.379768 -0.905863 
0.165028 0.288221 -0.943902 
0.134524 0.215644 -0.96932 
0.0850972 0.13126 -0.990183 
0.0521352 0.082442 -0.998157 
0.0228565 0.0441093 -1.00192 
-0.00282117 0.0106316 -1.00322 
-0.0183073 -0.00971089 -1.00309 
-0.0361349 -0.0259031 -1.00225 
-0.0518183 -0.0338226 -1.0013 
-0.0604039 -0.0358331 -1.00084 
-0.0676791 -0.0351569 -1.0005 
-0.0707057 -0.032926 -1.00039 
-0.0714719 -0.0309512 -1.00048 
-0.0728237 -0.029029 -1.00047 
-0.0731759 -0.0272908 -1.00036 
-0.0737114 -0.0257855 -1.0004 
-0.0738136 -0.0241244 -1.00041 
-0.0754012 -0.0236162 -1.0002 
-0.0737803 -0.0222709 -1.00034 
-0.0742709 -0.0208058 -1.00037 
-0.0727965 -0.0197923 -1.00049 
-0.0720455 -0.0192148 -1.00058 
-0.0714272 -0.0184794 -1.00073 
-0.0692494 -0.0175272 -1.00099 
-0.0679172 -0.0180734 -1.00109 
-0.0657138 -0.0193908 -1.00129 
-0.0634638 -0.0214015 -1.00141 
-0.0617788 -0.0234379 -1.00146 
-0.0592387 -0.0282904 -1.00165 
-0.0559933 -0.0331926 -1.00186 
-0.0516284 -0.0392704 -1.00173 
-0.0467394 -0.0497461 -1.00136 
-0.0423107 -0.0599782 -1.00102 
-0.0368553 -0.0780813 -0.999072 
0.0267383 -0.0833035 0.999878 
0.0318024 -0.0681682 1.00274 
0.0331392 -0.0558043 1.00468 
0.039925 -0.0460883 1.00452 
0.0451145 -0.0363531 1.00552 
0.0475165 -0.0302265 1.0049 
0.0463966 -0.0256153 1.00504 
0.0502536 -0.0226714 1.00486 
0.0530232 -0.0206277 1.0047 
0.0492085 -0.0202149 1.00564 
0.0547928 -0.0194736 1.00453 
0.0565442 -0.0198301 1.00435 
0.0562613 -0.0201125 1.00425 
0.057918 -0.0205228 1.00407 
0.05854 -0.0213397 1.00401 
0.0595679 -0.0221574 1.00383 
0.0592547 -0.0228344 1.00394 
0.0588405 -0.0235932 1.00413 
0.0581974 -0.0251601 1.00416 
0.0561767 -0.0271449 1.0043 
0.0546611 -0.0286723 1.00432 
0.0533138 -0.0295608 1.00424 
0.0505056 -0.0294461 1.00413 
0.0478713 -0.0282055 1.004 
0.0410385 -0.023539 1.00436 
0.0322923 -0.0155672 1.00478 
0.0212684 -0.00200093 1.0052 
0.00885422 0.0141152 1.0053 
-0.0104611 0.0470209 1.00431 
-0.0325063 0.08505 1.00129 
-0.0562331 0.147348 0.992642 
-0.0818227 0.218363 0.977052 
-0.110981 0.294477 0.952715 
-0.132669 0.399732 0.90894 
-0.140639 0.51742 0.843139 
-0.132834 0.641882 0.751844 
-0.111118 0.755771 0.635307 
-0.0930187 0.857075 0.482209 
-0.0691656 0.936881 0.301661 
-0.0142296 0.978456 0.0567603 
0.0531089 0.948767 -0.260126 
0.103687 0.838395 -0.512568 
0.119335 0.722428 -0.67233 
0.133509 0.597512 -0.78841 
0.138181 0.477286 -0.867994 
0.117707 0.379824 -0.921135 
0.104507 0.24424 -0.967784 
0.0726008 0.178529 -0.985915 
0.0452165 0.114573 -0.997516 
0.0181047 0.0579685 -1.00357 
0.0024217 0.034548 -1.00499 
-0.0144001 0.00498492 -1.0054 
-0.029761 -0.013255 -1.00496 
-0.0376705 -0.020169 -1.0047 
-0.0450603 -0.0258366 -1.00442 
-0.0520568 -0.0294229 -1.00405 
-0.0522203 -0.0296853 -1.00415 
-0.0550961 -0.0292178 -1.00408 
-0.0568712 -0.0276017 -1.00406 
-0.055999 -0.0258575 -1.00424 
-0.0584313 -0.0244394 -1.00413 
-0.058604 -0.0234809 -1.00407 
-0.0595931 -0.023005 -1.0039 
-0.0586496 -0.0219902 -1.00403 
-0.0587917 -0.0208838 -1.004 
-0.0566364 -0.0203121 -1.00416 
-0.056854 -0.0199036 -1.00426 
-0.0558528 -0.0196111 -1.00445 
-0.0522877 -0.0197193 -1.00474 
-0.0526627 -0.0201567 -1.00472 
-0.0499928 -0.0216629 -1.00492 
-0.0466096 -0.0241065 -1.00512 
-0.0482673 -0.0270039 -1.00484 
-0.0449441 -0.0319102 -1.00508 
-0.0423275 -0.038338 -1.00493 
-0.0397355 -0.0469417 -1.00457 
-0.0324847 -0.0580946 -1.00442 
-0.0321755 -0.0686922 -1.00255 
-0.0260455 -0.0830857 -0.999791 
0.0205805 -0.0863404 0.999613 
0.024198 -0.0681619 1.00417 
0.0268559 -0.0531223 1.00587 
0.0337151 -0.0438069 1.00468 
0.0293131 -0.0404782 1.00548 
0.0379123 -0.0347932 1.00472 
0.0372303 -0.0295279 1.00579 
0.0358266 -0.0264313 1.00585 
0.0410072 -0.023226 1.00562 
0.041346 -0.0216515 1.00557 
0.0412705 -0.0207321 1.00551 
0.044198 -0.0203219 1.00536 
0.0442696 -0.0206205 1.00521 
0.0453629 -0.0208406 1.00508 
0.0464518 -0.0212383 1.00503 
0.0472882 -0.0217093 1.00493 
0.0476405 -0.022002 1.00493 
0.0474196 -0.0225615 1.00506 
0.0473256 -0.0239646 1.0051 
0.0452001 -0.0255256 1.00516 
0.0428974 -0.0266874 1.00521 
0.0410031 -0.0271488 1.00519 
0.0378418 -0.0262951 1.00515 
0.0359228 -0.0238791 1.00507 
0.0314331 -0.0181173 1.00516 
0.0254586 -0.00862971 1.00535 
0.0169775 0.00650869 1.00557 
0.00800339 0.0240405 1.00549 
-0.00352402 0.0478211 1.00465 
-0.0212938 0.0900526 1.00146 
-0.0388138 0.142558 0.994617 
-0.0563197 0.217894 0.979414 
-0.0736772 0.301317 0.95499 
-0.0891853 0.384664 0.92189 
-0.0978176 0.497649 0.862025 
-0.0979941 0.631128 0.766178 
-0.0731983 0.7666 0.624942 
-0.0610177 0.869746 0.462931 
-0.0315336 0.952657 0.237168 
0.00544356 0.978219 -0.0471359 
0.0331948 0.94507 -0.267851 
0.0556773 0.870391 -0.460605 
0.0755996 0.76476 -0.626401 
0.0913326 0.63001 -0.766708 
0.0934394 0.504058 -0.858488 
0.0844873 0.3974 -0.916615 
0.085958 0.292335 -0.955923 
0.0594208 0.220072 -0.97858 
0.0433604 0.153252 -0.99271 
0.0244222 0.0934745 -1.00115 
0.00844377 0.0620662 -1.00407 
-0.00613347 0.0279967 -1.00563 
-0.0181592 0.00515933 -1.00579 
-0.024331 -0.00618727 -1.00558 
-0.030443 -0.016516 -1.00533 
-0.0373553 -0.0241111 -1.00506 
-0.0381476 -0.0261082 -1.00503 
-0.0408276 -0.0268166 -1.00498 
-0.0439261 -0.0266141 -1.005 
-0.0437799 -0.0256096 -1.00514 
-0.046044 -0.0242256 -1.00507 
-0.0466432 -0.0229489 -1.00501 
-0.0474932 -0.0223482 -1.00491 
-0.0470204 -0.0218365 -1.00494 
-0.0476037 -0.0212968 -1.00497 
-0.0458074 -0.0209528 -1.00502 
-0.0454976 -0.0208151 -1.00511 
-0.0451309 -0.0205862 -1.00527 
-0.0420755 -0.0206769 -1.00543 
-0.041555 -0.0213171 -1.0055 
-0.0404798 -0.0223836 -1.00562 
-0.0367371 -0.0247351 -1.0058 
-0.0375309 -0.0279685 -1.00586 
-0.0363286 -0.0317924 -1.00577 
-0.0337526 -0.0384441 -1.00626 
-0.0319661 -0.0461433 -1.00446 
-0.0259208 -0.0565031 -1.00555 
-0.02421 -0.0705195 -1.00368 
-0.0176349 -0.0882997 -0.999559 
0.0137059 -0.0917505 0.99936 
0.0179713 -0.0737199 1.00377 
0.0184348 -0.0631668 1.00476 
0.0230487 -0.0489438 1.00623 
0.0236158 -0.0398507 1.00588 
0.0305948 -0.0338627 1.00593 
0.0289318 -0.0295941 1.00694 
0.0305292 -0.0252579 1.00596 
0.0321189 -0.0236428 1.00584 
0.0343794 -0.0221796 1.00574 
0.0326828 -0.0215155 1.00578 
0.0348877 -0.0212458 1.00562 
0.0358553 -0.0212856 1.00553 
0.0364358 -0.0214731 1.00555 
0.0378048 -0.0217532 1.00547 
0.0381793 -0.0216855 1.00544 
0.0387285 -0.0218689 1.00546 
0.0386677 -0.0228028 1.00553 
0.0372163 -0.024486 1.00552 
0.0350935 -0.0256219 1.00554 
0.0329748 -0.0256498 1.00555 
0.0301407 -0.024789 1.00547 
0.0276306 -0.0221016 1.00559 
0.0242823 -0.0163811 1.00576 
0.0203224 -0.00707648 1.00584 
0.0147174 0.00742721 1.0059 
0.00734434 0.0281399 1.00573 
-0.000579122 0.0514894 1.00489 
-0.0110939 0.0833764 1.00257 
-0.0252813 0.135304 0.996525 
-0.0391771 0.199831 0.984739 
-0.0513853 0.288732 0.961057 
-0.0612781 0.380992 0.925767 
-0.0575697 0.462307 0.887247 
-0.0726038 0.504126 0.861311 
-0.0741603 0.643818 0.757573 
-0.0456591 0.799822 0.582533 
-0.0355154 0.897602 0.403354 
-0.0125509 0.969225 0.15237 
0.00712247 0.974792 -0.0776985 
0.0241851 0.937891 -0.287736 
0.0282345 0.890569 -0.420446 
0.0471682 0.816551 -0.560032 
0.0561327 0.710947 -0.693702 
0.0691234 0.586008 -0.806387 
0.0667338 0.452905 -0.890714 
0.0652786 0.31517 -0.951111 
0.0489135 0.250697 -0.972808 
0.0356197 0.173039 -0.990057 
0.0219326 0.113485 -0.999302 
0.00624166 0.0695806 -1.00383 
-0.00463862 0.0374466 -1.00558 
-0.0127689 0.0144551 -1.00603 
-0.0168849 0.00143857 -1.00613 
-0.0229909 -0.0120537 -1.00588 
-0.0270294 -0.0195915 -1.00564 
-0.0289484 -0.0238183 -1.0055 
-0.0323395 -0.0255984 -1.00543 
-0.0347555 -0.0258993 -1.00547 
-0.0357988 -0.0251002 -1.00549 
-0.0368422 -0.0234082 -1.00553 
-0.0378949 -0.0219693 -1.00553 
-0.038302 -0.0216382 -1.00542 
-0.0379884 -0.0217554 -1.00543 
-0.0377376 -0.0216161 -1.00543 
-0.0364112 -0.0213698 -1.00548 
-0.0357556 -0.0214394 -1.00557 
-0.0352011 -0.0214896 -1.00565 
-0.0333323 -0.021839 -1.00572 
-0.0321267 -0.0230054 -1.00581 
-0.0305128 -0.0244768 -1.00593 
-0.0293139 -0.0270906 -1.00602 
-0.0291429 -0.0303723 -1.00604 
-0.0283476 -0.03501 -1.00509 
-0.0244394 -0.0408327 -1.00548 
-0.0257023 -0.0465789 -1.00517 
-0.0199751 -0.0564431 -1.00502 
-0.0178891 -0.0700454 -1.00406 
-0.013046 -0.090833 -0.999468 
0.00796252 -0.0959262 0.999465 
0.011933 -0.0795717 1.00349 
0.0164601 -0.0554078 1.00444 
0.0181011 -0.0459827 1.00559 
0.017238 -0.0384769 1.00688 
0.0236634 -0.0342693 1.00544 
0.0198828 -0.0317275 1.00648 
0.024073 -0.0279271 1.00628 
0.0230686 -0.0253767 1.00626 
0.0257746 -0.0240446 1.00609 
0.0266619 -0.0228925 1.00602 
0.025219 -0.0221884 1.00609 
0.0279338 -0.0220148 1.0059 
0.0285753 -0.0218574 1.00582 
0.0290257 -0.021715 1.00585 
0.029836 -0.0217141 1.00586 
0.0305366 -0.0216546 1.00588 
0.0314494 -0.021973 1.00588 
0.0307256 -0.0229467 1.00586 
0.0290535 -0.0241887 1.00586 
0.0270629 -0.0248519 1.0058 
0.0245665 -0.0243075 1.00564 
0.0225299 -0.0224473 1.0056 
0.0192396 -0.0172328 1.00589 
0.016309 -0.00877574 1.0061 
0.0124646 0.00320751 1.00624 
0.00786398 0.0208027 1.00617 
0.00172398 0.0451748 1.00548 
-0.00472971 0.0732633 1.00386 
-0.01275 0.109157 1.00037 
-0.0233948 0.166577 0.991974 
-0.0341725 0.239207 0.976115 
-0.0395305 0.317051 0.952973 
-0.045557 0.439581 0.900275 
-0.0532779 0.627297 0.774636 
-0.0392345 0.7461 0.655476 
-0.0250856 0.843757 0.52172 
-0.0116709 0.889742 0.42491 
-0.014809 0.935741 0.295368 
-0.00250966 0.972996 0.077194 
0.00957422 0.958666 -0.186852 
0.0197736 0.89126 -0.415901 
0.0326957 0.777746 -0.611017 
0.0434445 0.65936 -0.747022 
0.0510806 0.545737 -0.836193 
0.0452446 0.460243 -0.889095 
0.0544334 0.374863 -0.929243 
0.0415051 0.310922 -0.954057 
0.0329549 0.222379 -0.98034 
0.023638 0.158429 -0.993292 
0.0131957 0.105999 -1.00072 
0.00201927 0.0640023 -1.00458 
-0.00490017 0.034611 -1.00605 
-0.00929611 0.0162085 -1.00655 
-0.0145613 -0.00244791 -1.00642 
-0.0179552 -0.0131388 -1.00614 
-0.0209638 -0.0197695 -1.00583 
-0.0242904 -0.0237564 -1.00558 
-0.026277 -0.0246702 -1.0056 
-0.0285822 -0.0247364 -1.00561 
-0.0292842 -0.0236086 -1.00573 
-0.0303812 -0.0222626 -1.00586 
-0.0305716 -0.0214585 -1.0059 
-0.0301602 -0.0214615 -1.00587 
-0.0296877 -0.021617 -1.00587 
-0.02919 -0.0217009 -1.00584 
-0.028232 -0.0220336 -1.00588 
-0.0270577 -0.022288 -1.00602 
-0.027163 -0.0223952 -1.00601 
-0.0247497 -0.023523 -1.00613 
-0.0236436 -0.0249717 -1.00618 
-0.0233319 -0.0267223 -1.00617 
-0.0214858 -0.0304824 -1.00703 
-0.0219274 -0.0345009 -1.00612 
-0.0183056 -0.040838 -1.00582 
-0.0172917 -0.0504361 -1.00528 
-0.0142972 -0.0628476 -1.00479 
-0.0133853 -0.0747427 -1.00376 
-0.00905009 -0.0947337 -0.999395 
0.00570983 -0.0997238 0.999119 
0.00886009 -0.0816194 1.00342 
0.0125823 -0.0677797 1.00442 
0.0120884 -0.0566302 1.00528 
0.0132016 -0.0465501 1.00503 
0.0147941 -0.0355442 1.00651 
0.0165579 -0.0299622 1.0065 
0.0183042 -0.0272998 1.00639 
0.0193432 -0.0252678 1.00632 
0.020504 -0.0239272 1.00634 
0.0206252 -0.0230339 1.00629 
0.0213307 -0.0223838 1.00616 
0.0227323 -0.0220984 1.00599 
0.0235005 -0.0220446 1.00591 
0.0235268 -0.0220346 1.00593 
0.0245378 -0.021718 1.00601 
0.0250541 -0.0215499 1.00609 
0.0248667 -0.0222963 1.00601 
0.0238772 -0.0234392 1.00594 
0.0223009 -0.0238413 1.0058 
0.020184 -0.023477 1.00571 
0.0175684 -0.0212818 1.00575 
0.0145696 -0.0167611 1.00594 
0.0116464 -0.00859241 1.00616 
0.00832244 0.00412551 1.00633 
0.00523209 0.0231611 1.00637 
0.000918361 0.0494849 1.00556 
-0.00491136 0.0821982 1.00341 
-0.0109749 0.119342 0.999656 
-0.0176993 0.167273 0.992368 
-0.0284196 0.243915 0.975393 
-0.0308849 0.339175 0.945257 
-0.0362279 0.428964 0.905894 
-0.0310908 0.565135 0.824114 
-0.0404045 0.554289 0.832978 
-0.0309928 0.648316 0.763052 
-0.0244322 0.733582 0.666692 
-0.0168561 0.81878 0.552854 
-0.00408582 0.95595 0.213024 
0.00406257 0.975323 -0.0479675 
0.0102978 0.94317 -0.268451 
0.00442613 0.906938 -0.381353 
0.017264 0.851787 -0.506415 
0.0260117 0.741765 -0.659226 
0.0342424 0.609311 -0.790461 
0.0327857 0.504594 -0.864646 
0.0353461 0.385692 -0.926132 
0.0312119 0.279687 -0.966177 
0.024265 0.207636 -0.984253 
0.0168516 0.14946 -0.994371 
0.0092337 0.101954 -1.00229 
0.00184315 0.0653952 -1.00476 
-0.00234084 0.0387926 -1.00619 
-0.00700857 0.0144391 -1.00664 
-0.0100767 -0.00142862 -1.00649 
-0.0129783 -0.0117448 -1.00623 
-0.0166219 -0.0187751 -1.00584 
-0.0191533 -0.0224335 -1.0056 
-0.0215031 -0.0240102 -1.00565 
-0.0235657 -0.0239346 -1.00576 
-0.0237299 -0.0227979 -1.0059 
-0.0246598 -0.0217653 -1.00601 
-0.0242459 -0.0214516 -1.00611 
-0.0240782 -0.0217456 -1.00608 
-0.0237107 -0.0219154 -1.00601 
-0.0234595 -0.0220394 -1.00595 
-0.0221381 -0.0224854 -1.00604 
-0.0214407 -0.0230145 -1.00615 
-0.0211327 -0.0234759 -1.00617 
-0.0191267 -0.0245592 -1.0063 
-0.0185793 -0.0261485 -1.00631 
-0.0182012 -0.027972 -1.00562 
-0.0160037 -0.031446 -1.00649 
-0.0163983 -0.0359477 -1.00644 
-0.0135225 -0.0431842 -1.0061 
-0.0131479 -0.0515116 -1.00556 
-0.0107829 -0.0636781 -1.00498 
-0.00965965 -0.0795331 -1.00355 
-0.00624891 -0.0987403 -0.999084 
0.00348082 -0.102686 0.998518 
0.00589623 -0.0817089 1.00336 
0.00955546 -0.0666199 1.00474 
0.00959048 -0.0540404 1.00638 
0.0116984 -0.0425345 1.00621 
0.0103679 -0.0383748 1.00643 
0.0125805 -0.0328981 1.00568 
0.0123103 -0.0293569 1.00703 
0.0149912 -0.026958 1.0056 
0.0149556 -0.0254473 1.00634 
0.0152681 -0.0241599 1.0063 
0.0170982 -0.0232465 1.00619 
0.0167855 -0.0229441 1.00607 
0.0182947 -0.0223961 1.00607 
0.0188443 -0.0223875 1.00597 
0.019153 -0.0220866 1.00604 
0.0200528 -0.0216843 1.00609 
0.0197915 -0.021712 1.00606 
0.0190669 -0.0222953 1.00596 
0.0186072 -0.0231983 1.0058 
0.017182 -0.0235905 1.00561 
0.0154044 -0.0224672 1.0056 
0.0125669 -0.0188289 1.00581 
0.00954573 -0.0118677 1.00607 
0.00650071 -0.00136872 1.00626 
0.00364942 0.0140826 1.00642 
0.00127272 0.0353037 1.00626 
-0.00168258 0.066673 1.00482 
-0.00623208 0.10363 1.0017 
-0.0119773 0.14708 0.996101 
-0.0186085 0.208011 0.984611 
-0.0244225 0.287801 0.963272 
-0.0262701 0.416762 0.912629 
-0.0255027 0.520886 0.854737 
-0.0191913 0.692109 0.715964 
-0.00695046 0.81366 0.559925 
0.00115872 0.88469 0.445537 
0.00797569 0.945476 0.282473 
-0.00728147 0.89384 0.404913 
-0.00120092 0.960239 0.180291 
-0.00858634 0.968434 -0.163454 
-0.00138319 0.837093 -0.517909 
0.0129881 0.828143 -0.546025 
0.013611 0.76608 -0.634597 
0.023471 0.680065 -0.729487 
0.0269295 0.520989 -0.854078 
0.028382 0.374057 -0.931153 
0.0245473 0.284006 -0.964603 
0.0196361 0.21572 -0.982827 
0.0135016 0.155132 -0.994542 
0.00955033 0.128755 -0.998669 
0.00573694 0.0943688 -1.0018 
0.00215602 0.06425 -1.00506 
-0.00159732 0.031619 -1.00645 
-0.00463478 0.0102792 -1.00657 
-0.00745789 -0.0041838 -1.00641 
-0.0110559 -0.014545 -1.00607 
-0.0140222 -0.0201274 -1.00573 
-0.0163655 -0.0229992 -1.00562 
-0.0181786 -0.023659 -1.0058 
-0.018955 -0.0231006 -1.00591 
-0.0194374 -0.0220296 -1.00603 
-0.0195989 -0.0215112 -1.00619 
-0.0194394 -0.0219637 -1.00616 
-0.0190002 -0.0222894 -1.00605 
-0.0186114 -0.0223052 -1.00599 
-0.0178243 -0.0225806 -1.00603 
-0.0170504 -0.0232402 -1.00602 
-0.0163832 -0.0238323 -1.0061 
-0.0151562 -0.0247765 -1.00622 
-0.0143186 -0.0265165 -1.0071 
-0.0139585 -0.0285012 -1.00635 
-0.0123225 -0.0328155 -1.00643 
-0.0120155 -0.0388001 -1.00644 
-0.0100317 -0.0453923 -1.00599 
-0.00997275 -0.0538736 -1.00552 
-0.00797694 -0.065472 -1.00483 
-0.00734147 -0.0798873 -1.00364 
-0.00426306 -0.101034 -0.998759 
0.00158969 -0.103954 0.998206 
0.0028673 -0.0835088 1.00308 
0.00686473 -0.0661197 1.00477 
0.00593622 -0.0556056 1.00515 
0.00862792 -0.0468518 1.0059 
0.00745427 -0.0396008 1.00607 
0.00903019 -0.0331434 1.00627 
0.00875701 -0.0301756 1.00615 
0.0110569 -0.0276205 1.00625 
0.0106968 -0.0261512 1.00617 
0.0122363 -0.0248519 1.00602 
0.0137215 -0.0240598 1.00598 
0.0134321 -0.0237314 1.00597 
0.0149322 -0.0230255 1.00653 
0.0155454 -0.0229104 1.00527 
0.015641 -0.0223714 1.00669 
0.0162405 -0.0220794 1.00542 
0.0156212 -0.0222762 1.00654 
0.0152658 -0.0228805 1.00514 
0.0143959 -0.0233355 1.00554 
0.0135134 -0.0229733 1.00553 
0.0114496 -0.0209766 1.00545 
0.00909261 -0.0155967 1.00569 
0.00601625 -0.00740945 1.00599 
0.00304309 0.00686668 1.00626 
0.000421639 0.0259231 1.00629 
-0.00156148 0.0517732 1.00562 
-0.00391774 0.0853249 1.00345 
-0.00775058 0.12921 0.998689 
-0.0130958 0.184178 0.989752 
-0.0161019 0.24898 0.974698 
-0.0197336 0.344058 0.943987 
-0.0177667 0.462205 0.88968 
-0.0154973 0.565419 0.824437 
-0.0152317 0.662465 0.746381 
-0.00670517 0.721727 0.685727 
0.00187265 0.785735 0.592522 
0.00973397 0.982909 0.173215 
0.00745891 0.985913 0.106184 
0.00263473 0.991779 0.0238162 
-0.00126638 0.989572 -0.0854794 
-0.00600778 0.985274 -0.153492 
-0.00761962 0.777583 -0.606324 
0.00909171 0.710738 -0.698033 
0.0192659 0.637842 -0.768015 
0.0177411 0.54922 -0.83599 
0.0230264 0.445516 -0.898362 
0.0199182 0.375447 -0.931152 
0.0169332 0.28328 -0.964829 
0.0142703 0.210747 -0.984223 
0.00942041 0.142565 -0.996781 
0.00490754 0.0909031 -1.00298 
0.00159924 0.0498475 -1.00572 
-0.000674894 0.0242062 -1.00642 
-0.00327954 0.00586614 -1.00636 
-0.00681933 -0.00828984 -1.00603 
-0.00973018 -0.0166557 -1.00573 
-0.0121823 -0.0209531 -1.00554 
-0.0139797 -0.0226028 -1.00552 
-0.0148434 -0.0232775 -1.00614 
-0.0158888 -0.0230189 -1.00512 
-0.0155519 -0.022498 -1.00652 
-0.0160672 -0.0220827 -1.00603 
-0.0155558 -0.0222642 -1.00595 
-0.0153977 -0.0227634 -1.006 
-0.0145139 -0.0231274 -1.006 
-0.0140798 -0.0236839 -1.00532 
-0.0132928 -0.0243138 -1.00606 
-0.0119747 -0.0249912 -1.0068 
-0.0115135 -0.0262217 -1.00561 
-0.00991328 -0.0284171 -1.00608 
-0.0102246 -0.0301135 -1.0062 
-0.00850539 -0.0337298 -1.00616 
-0.00860594 -0.0383219 -1.00627 
-0.00707987 -0.0450952 -1.00577 
-0.00642506 -0.0551727 -1.00513 
-0.00440533 -0.0690346 -1.00426 
-0.00410132 -0.0844608 -1.003 
-0.00181233 -0.103799 -0.99832 
8.18911e-05 -0.104734 0.998279 
0.00112032 -0.086365 1.00268 
0.00330511 -0.0687345 1.00432 
0.00295097 -0.0555634 1.0049 
0.00524876 -0.0457768 1.00555 
0.00430432 -0.040161 1.0059 
0.00615021 -0.0352449 1.00608 
0.0057777 -0.0316653 1.00604 
0.00730919 -0.0288755 1.00606 
0.0077269 -0.026913 1.00663 
0.00922133 -0.0257585 1.00592 
0.0105694 -0.0248441 1.00589 
0.0102432 -0.0242656 1.00565 
0.0117477 -0.0238209 1.00517 
0.0124741 -0.0235647 1.00575 
0.0124292 -0.0230487 1.0059 
0.0128 -0.0224628 1.00595 
0.0124579 -0.022433 1.00582 
0.011766 -0.0230684 1.00616 
0.0112537 -0.0235146 1.00548 
0.0103598 -0.0229734 1.00535 
0.00889156 -0.0202127 1.00544 