# vtk DataFile Version 3.0 
Exported using Morpho https://github.com/Morpho-lang/morpho 
ASCII 
DATASET UNSTRUCTURED_GRID 

POINTS 1978 float 
-8.48528 -2.82843 3.83012e-18 
-8.26687 -2.82843 -5.63213e-17 
-8.0454 -2.82843 1.0791e-16 
-7.79345 -2.82843 -9.36535e-17 
-7.4977 -2.82843 7.3088e-17 
-7.24941 -2.82843 7.34831e-17 
-7.00047 -2.82843 4.01694e-17 
-6.77907 -2.82843 5.11062e-17 
-6.55909 -2.82843 2.28197e-16 
-6.35322 -2.82843 3.47269e-16 
-6.13544 -2.82843 7.00079e-16 
-5.93091 -2.82843 9.6022e-16 
-5.71871 -2.82843 1.2086e-15 
-5.52543 -2.82843 1.4059e-15 
-5.29594 -2.82843 1.73804e-15 
-5.08932 -2.82843 1.54601e-15 
-4.87238 -2.82843 1.35569e-15 
-4.6595 -2.82843 8.05567e-16 
-4.44722 -2.82843 1.39019e-16 
-4.23193 -2.82843 -5.40382e-16 
-4.02705 -2.82843 -1.00524e-15 
-3.82583 -2.82843 -8.43583e-16 
-3.62262 -2.82843 -1.29489e-16 
-3.41431 -2.82843 1.36849e-15 
-3.20091 -2.82843 2.26825e-15 
-2.98241 -2.82843 -4.3797e-15 
-2.75877 -2.82843 -4.70771e-14 
-2.53694 -2.82843 -2.88278e-13 
-2.28822 -2.82843 -1.1348e-12 
-2.03641 -2.82843 -2.6101e-12 
-1.82398 -2.82843 -7.5053e-12 
-1.60229 -2.82843 -1.21234e-11 
-1.39972 -2.82843 -5.63952e-11 
-1.21086 -2.82843 -7.03128e-11 
-1.03656 -2.82843 -7.06676e-12 
-0.895746 -2.82843 2.76847e-10 
-0.7345 -2.82843 2.86805e-09 
-0.601133 -2.82843 -1.97672e-08 
-0.241968 -2.82843 2.36008e-08 
0.300817 -2.82843 -5.59939e-08 
0.495065 -2.82843 -2.52545e-08 
0.654645 -2.82843 -4.2725e-09 
0.826928 -2.82843 -4.95137e-10 
0.936418 -2.82843 -5.8019e-10 
1.05427 -2.82843 -1.96152e-10 
1.18569 -2.82843 2.8673e-11 
1.40379 -2.82843 1.13967e-10 
1.58662 -2.82843 4.16915e-11 
1.82937 -2.82843 1.99578e-11 
2.0825 -2.82843 5.29331e-12 
2.3247 -2.82843 1.23953e-12 
2.54368 -2.82843 3.2416e-13 
2.78549 -2.82843 9.08447e-14 
3.00355 -2.82843 1.3885e-14 
3.22223 -2.82843 -6.43226e-16 
3.41714 -2.82843 -1.41603e-15 
3.62117 -2.82843 -1.6736e-15 
3.82401 -2.82843 2.2794e-16 
4.02669 -2.82843 8.54914e-16 
4.2449 -2.82843 7.1922e-16 
4.45132 -2.82843 8.93064e-17 
4.66091 -2.82843 -6.52428e-16 
4.86225 -2.82843 -1.26644e-15 
5.07937 -2.82843 -1.56895e-15 
5.28484 -2.82843 -1.70091e-15 
5.50613 -2.82843 -1.57407e-15 
5.71971 -2.82843 -1.28835e-15 
5.93574 -2.82843 -9.67618e-16 
6.15765 -2.82843 -6.10058e-16 
6.37427 -2.82843 -3.80318e-16 
6.60033 -2.82843 -2.11855e-16 
6.82121 -2.82843 -1.04891e-16 
7.0214 -2.82843 -8.73795e-17 
7.29706 -2.82843 -5.71076e-17 
7.52466 -2.82843 -2.65476e-17 
7.75613 -2.82843 2.64176e-18 
8.04146 -2.82843 -4.55818e-17 
8.23132 -2.82843 -4.40117e-17 
8.48528 -2.82843 3.87055e-17 
-8.48528 -2.58845 -1.22853e-16 
-8.26236 -2.58258 -3.52226e-17 
-8.0336 -2.58631 -6.41565e-18 
-7.79083 -2.6106 -7.46167e-18 
-7.53398 -2.65226 -2.36466e-17 
-7.2404 -2.60916 -5.6909e-17 
-6.98811 -2.59721 -9.70164e-17 
-6.75586 -2.60245 -1.5585e-16 
-6.53326 -2.58545 -2.46611e-16 
-6.30445 -2.59944 -3.73715e-16 
-6.08161 -2.58453 -5.27915e-16 
-5.86448 -2.59055 -6.87301e-16 
-5.65839 -2.56593 -7.93982e-16 
-5.43771 -2.60706 -8.64267e-16 
-5.22001 -2.5834 -8.55474e-16 
-5.00153 -2.5963 -7.60517e-16 
-4.78189 -2.59402 -6.05754e-16 
-4.56499 -2.59572 -4.00093e-16 
-4.34611 -2.60097 -2.01551e-16 
-4.13095 -2.59157 -5.41193e-17 
-3.92292 -2.58876 -2.51882e-16 
-3.71559 -2.5907 -1.08033e-15 
-3.50334 -2.59438 -2.52021e-15 
-3.28575 -2.59634 -3.80373e-15 
-3.0631 -2.59755 -7.81504e-16 
-2.8344 -2.59848 2.11932e-16 
-2.60277 -2.59332 1.29027e-15 
-2.36317 -2.61617 6.32834e-15 
-2.1001 -2.61651 2.47845e-14 
-1.848 -2.5841 8.27123e-14 
-1.62868 -2.6085 3.31634e-13 
-1.40409 -2.60274 1.11517e-12 
-1.2368 -2.55909 2.98903e-12 
-1.09761 -2.62011 5.74635e-12 
-0.951885 -2.62209 1.38189e-11 
-0.837458 -2.47406 5.99717e-12 
-0.810685 -2.66658 3.00603e-11 
-0.515907 -2.77002 6.33262e-10 
-0.417303 -2.61729 6.42189e-11 
0.156366 -2.7945 -1.88687e-10 
0.410047 -2.73469 -1.06955e-10 
0.749781 -2.70593 -5.09202e-11 
0.749302 -2.54354 -8.99243e-12 
0.876094 -2.59891 -2.40439e-11 
0.997966 -2.58259 -1.10685e-11 
1.12716 -2.54508 -5.63742e-12 
1.29389 -2.6515 -2.41863e-12 
1.48355 -2.57518 -8.44223e-13 
1.70971 -2.62704 -3.07915e-13 
1.96485 -2.62716 -8.28871e-14 
2.22737 -2.61419 -2.06101e-14 
2.47494 -2.5838 -5.55014e-15 
2.71234 -2.60697 -1.01225e-15 
2.95168 -2.59111 -3.46002e-16 
3.17911 -2.59892 1.41722e-15 
3.40198 -2.57799 3.06716e-16 
3.6079 -2.59277 1.92842e-15 
3.82266 -2.58891 1.61998e-15 
4.04606 -2.60614 5.07761e-16 
4.2645 -2.59398 2.0243e-16 
4.47853 -2.59477 2.72273e-16 
4.68708 -2.58346 5.53646e-16 
4.9055 -2.59928 7.32018e-16 
5.11795 -2.58459 8.36885e-16 
5.34018 -2.60112 8.80177e-16 
5.5608 -2.59131 8.38946e-16 
5.78147 -2.59251 7.45313e-16 
6.00651 -2.59754 5.83166e-16 
6.23029 -2.59004 4.15417e-16 
6.45682 -2.59733 2.81094e-16 
6.68423 -2.59002 1.80465e-16 
6.89447 -2.56314 1.14037e-16 
7.13289 -2.63428 6.15595e-17 
7.38156 -2.59116 3.38997e-17 
7.61128 -2.59488 1.33843e-17 
7.8732 -2.63864 5.56568e-18 
8.07888 -2.54256 7.20713e-18 
8.30317 -2.6138 -1.0215e-18 
8.48528 -2.52761 5.65902e-17 
-8.48528 -2.34672 -1.13429e-16 
-8.25205 -2.34563 -1.27797e-17 
-8.01724 -2.34451 4.48676e-19 
-7.77771 -2.40137 -1.83397e-17 
-7.57391 -2.25094 -2.70014e-17 
-7.4922 -2.45626 -2.58678e-17 
-7.20111 -2.40426 -5.57318e-17 
-6.97618 -2.35132 -1.0896e-16 
-6.74883 -2.37273 -1.86738e-16 
-6.50472 -2.36171 -3.06385e-16 
-6.26894 -2.37113 -4.312e-16 
-6.03953 -2.34837 -5.66518e-16 
-5.82686 -2.33942 -6.89478e-16 
-5.5851 -2.34954 -7.84002e-16 
-5.37304 -2.36436 -8.17762e-16 
-5.14094 -2.35698 -7.3119e-16 
-4.91909 -2.36628 -5.61527e-16 
-4.69647 -2.3638 -2.89197e-16 
-4.47457 -2.37129 5.69348e-17 
-4.25772 -2.36856 4.21553e-16 
-4.04277 -2.3547 6.59864e-16 
-3.8331 -2.35291 5.58372e-16 
-3.62095 -2.36039 -9.26785e-17 
-3.40411 -2.36546 -1.16673e-15 
-3.18296 -2.3675 -5.39283e-16 
-2.9565 -2.3702 8.39485e-17 
-2.72792 -2.36569 5.21693e-16 
-2.48588 -2.37724 2.52421e-15 
-2.24297 -2.40592 1.10122e-14 
-1.99419 -2.38546 4.10765e-14 
-1.74574 -2.35398 1.37579e-13 
-1.5288 -2.39039 3.19325e-13 
-1.3317 -2.34961 5.78783e-13 
-1.13135 -2.33242 1.42876e-12 
-0.984465 -2.40561 2.29864e-12 
-0.821141 -2.26919 -2.7886e-12 
-0.682858 -2.61956 6.29428e-11 
-0.436105 -2.72243 -1.35848e-10 
-0.160654 -2.86652 6.91174e-10 
-0.047017 -2.78966 -4.28746e-10 
0.2689 -2.68472 -2.45671e-10 
0.603223 -2.6957 -1.29844e-10 
0.649356 -2.48549 -2.66804e-11 
0.777662 -2.33074 7.63405e-13 
0.902254 -2.38502 4.45885e-12 
1.03822 -2.3144 3.3624e-13 
1.2646 -2.42505 -1.23677e-12 
1.48148 -2.36292 -5.87758e-13 
1.71967 -2.41683 -1.58609e-13 
1.97254 -2.42049 -5.13122e-14 
2.22245 -2.39514 -1.15108e-14 
2.46214 -2.35177 -2.85898e-15 
2.70158 -2.37772 -1.21888e-15 
2.93889 -2.36444 -6.06582e-17 
3.17319 -2.36792 -6.51611e-15 
3.39303 -2.34646 3.12322e-15 
3.61197 -2.3517 -2.78196e-16 
3.8188 -2.36 1.82569e-16 
4.03364 -2.38225 -8.66116e-16 
4.23875 -2.35625 -7.01584e-16 
4.44781 -2.36032 -2.58469e-16 
4.65555 -2.34551 1.15768e-16 
4.86858 -2.36466 4.95695e-16 
5.07895 -2.34853 6.78616e-16 
5.29659 -2.36791 8.10782e-16 
5.51268 -2.36081 8.26624e-16 
5.73442 -2.3584 7.65296e-16 
5.95621 -2.36524 6.36753e-16 
6.17771 -2.35846 4.879e-16 
6.40451 -2.36207 3.47551e-16 
6.62756 -2.35847 2.22198e-16 
6.84631 -2.31444 1.39551e-16 
7.07585 -2.39005 8.75358e-17 
7.29626 -2.38966 4.84186e-17 
7.55227 -2.35358 3.29966e-17 
7.78871 -2.41521 1.0137e-17 
7.99625 -2.31858 6.16179e-18 
8.24746 -2.34944 2.12472e-17 
8.48528 -2.29968 1.86784e-17 
-8.48528 -2.10004 2.18229e-16 
-8.26421 -2.09038 -9.77296e-17 
-8.05324 -2.09716 -5.98194e-18 
-7.81465 -2.15559 3.19285e-18 
-7.53635 -2.04215 6.42893e-18 
-7.31518 -2.23688 -2.74653e-17 
-7.07318 -2.12663 -2.01584e-17 
-6.82415 -2.13108 -5.89768e-17 
-6.60383 -2.14567 -6.85791e-17 
-6.36035 -2.14316 -1.17225e-16 
-6.14085 -2.12658 -1.29483e-16 
-5.92108 -2.09614 -1.43729e-16 
-5.69731 -2.12848 -2.00171e-16 
-5.47431 -2.1122 -2.24644e-16 
-5.26141 -2.13729 -2.27405e-16 
-5.0352 -2.13153 -1.71085e-16 
-4.81908 -2.13638 -8.50261e-17 
-4.59927 -2.13936 4.58542e-17 
-4.38686 -2.14007 2.03899e-16 
-4.17733 -2.13254 3.66683e-16 
-3.96811 -2.11746 4.83331e-16 
-3.75935 -2.12181 5.4899e-16 
-3.54856 -2.13157 4.84588e-16 
-3.33343 -2.13577 2.87249e-16 
-3.11224 -2.13894 7.02262e-16 
-2.88991 -2.13656 4.06281e-15 
-2.65312 -2.14459 1.28107e-16 
-2.41147 -2.15763 8.37327e-16 
-2.17302 -2.17798 3.90361e-15 
-1.92265 -2.15745 7.89224e-15 
-1.67237 -2.12796 -1.04031e-14 
-1.46357 -2.14748 -2.84316e-15 
-1.23314 -2.14645 -6.10859e-13 
-1.03903 -2.01914 2.36678e-12 
-0.977238 -2.18215 -3.28354e-12 
-0.779437 -2.08435 1.67468e-12 
-0.719948 -2.39821 -9.50008e-11 
-0.588115 -2.5685 1.07852e-11 
-0.26113 -2.72279 3.67453e-10 
-0.107237 -2.68798 7.72654e-11 
0.521798 -2.61045 -3.14056e-11 
0.513589 -2.45982 4.89265e-11 
0.628593 -2.31769 -1.74258e-11 
0.719229 -2.14769 3.38162e-12 
0.886809 -2.13981 3.01669e-12 
1.06646 -2.0836 -3.65844e-13 
1.23416 -2.22884 -3.22119e-14 
1.45213 -2.14812 2.65204e-15 
1.69759 -2.20292 -6.26794e-14 
1.95124 -2.20583 -1.2204e-14 
2.19703 -2.17022 -3.77034e-15 
2.46417 -2.13452 -4.13039e-16 
2.71701 -2.14809 -6.71869e-15 
2.95911 -2.13966 -1.27807e-15 
3.18448 -2.13365 1.50957e-15 
3.41209 -2.1197 2.55299e-16 
3.62619 -2.1163 7.00162e-16 
3.8435 -2.13529 -7.57792e-16 
4.05035 -2.14343 -3.69914e-16 
4.26698 -2.12419 -3.60968e-16 
4.47307 -2.11971 -2.37566e-16 
4.69268 -2.11757 -5.84745e-17 
4.90024 -2.12398 6.84887e-17 
5.12407 -2.1224 1.62528e-16 
5.33727 -2.13183 2.32092e-16 
5.55961 -2.13069 2.31634e-16 
5.7841 -2.1287 1.99628e-16 
6.00333 -2.12972 1.66216e-16 
6.23005 -2.12915 1.14669e-16 
6.45234 -2.1247 7.56596e-17 
6.6654 -2.10847 4.14828e-17 
6.91959 -2.10529 2.85233e-17 
7.12914 -2.14509 1.50522e-17 
7.36527 -2.16971 8.91575e-18 
7.56286 -2.07561 -2.36985e-18 
7.75475 -2.17372 3.59143e-18 
7.97347 -2.0802 -2.83944e-18 
8.20494 -2.12967 -1.56094e-17 
8.48528 -2.1058 9.14404e-18 
-8.48528 -1.82233 3.19202e-17 
-8.29164 -1.83549 5.48444e-17 
-7.88667 -1.90474 1.75386e-18 
[...]
POINT_DATA 1978 
VECTORS vectors float
6.6528e-06 -0.000919066 1 
-2.08698e-06 -0.00188037 0.999998 
4.89087e-07 -0.00188681 0.999998 
-2.6891e-07 -0.00195406 0.999998 
-1.2148e-07 -0.00208248 0.999998 
-1.56249e-07 -0.00224748 0.999997 
-4.71245e-07 -0.00243038 0.999997 
1.50785e-07 -0.00262597 0.999997 
-2.43561e-07 -0.00286476 0.999996 
2.58799e-07 -0.00311065 0.999995 
-4.51731e-07 -0.00340433 0.999994 
3.34108e-07 -0.00370194 0.999993 
4.6164e-07 -0.00403191 0.999992 
7.65708e-08 -0.00432763 0.999991 
-5.83902e-07 -0.00467047 0.999989 
2.94815e-07 -0.00494554 0.999988 
-2.22251e-07 -0.00518975 0.999987 
4.20285e-08 -0.00537083 0.999986 
2.25287e-08 -0.00547064 0.999985 
2.43035e-07 -0.00545186 0.999985 
1.14617e-07 -0.00525722 0.999986 
-3.33027e-07 -0.00483696 0.999988 
-3.0389e-07 -0.00415327 0.999991 
2.48236e-07 -0.00316379 0.999995 
4.45972e-07 -0.00175821 0.999998 
3.06796e-06 0.000306488 1 
1.47659e-06 0.00346051 0.999994 
6.31405e-07 0.00832834 0.999965 
2.8548e-05 0.0165999 0.999862 
-1.23373e-05 0.0289048 0.999582 
6.81004e-05 0.0446334 0.999003 
-4.64792e-05 0.0699843 0.997548 
9.97632e-06 0.104095 0.994567 
7.15606e-05 0.153739 0.988112 
-0.000911578 0.217241 0.976118 
-0.000362976 0.286803 0.95799 
-0.0018608 0.390643 0.92054 
-0.000936155 0.514007 0.857786 
0.000506313 0.913072 0.407796 
-0.00150093 0.862466 -0.506112 
0.0020349 0.625832 -0.779955 
0.000433301 0.480209 -0.877154 
0.000659997 0.351094 -0.93634 
0.00296286 0.28736 -0.957818 
0.00142606 0.228613 -0.973516 
0.000184196 0.175748 -0.984435 
-0.000106493 0.111404 -0.993775 
4.42617e-05 0.074664 -0.997209 
-8.09747e-05 0.0456332 -0.998958 
-1.0812e-05 0.0275492 -0.99962 
3.52082e-07 0.0165779 -0.999863 
-7.97955e-06 0.00975889 -0.999952 
-4.52453e-06 0.00436004 -0.99999 
-2.07166e-06 0.00102081 -0.999999 
1.98471e-06 -0.00128469 -0.999999 
-3.0704e-07 -0.00268122 -0.999996 
2.87474e-07 -0.00373695 -0.999993 
9.44469e-07 -0.00455136 -0.99999 
-5.14309e-07 -0.00510081 -0.999987 
1.61201e-07 -0.0054321 -0.999985 
-3.22922e-07 -0.00552348 -0.999985 
-4.18153e-07 -0.00542566 -0.999985 
-1.84003e-07 -0.00523508 -0.999986 
1.32602e-07 -0.00497491 -0.999988 
-3.07724e-08 -0.00469916 -0.999989 
3.33955e-07 -0.00436753 -0.99999 
-4.08994e-08 -0.00403265 -0.999992 
2.59705e-07 -0.00369154 -0.999993 
1.60573e-07 -0.0033625 -0.999994 
2.12506e-07 -0.0030735 -0.999995 
4.39364e-07 -0.00280997 -0.999996 
-4.03337e-07 -0.00258775 -0.999997 
3.19087e-07 -0.00241249 -0.999997 
4.01878e-07 -0.0022165 -0.999998 
-1.52957e-07 -0.00208869 -0.999998 
2.15341e-07 -0.00198934 -0.999998 
-1.33661e-07 -0.00191073 -0.999998 
1.18702e-06 -0.00187938 -0.999998 
-3.94185e-06 -0.000708741 -1 
3.16721e-05 -8.96329e-05 1 
3.78273e-06 -0.001827 0.999998 
3.95063e-06 -0.00187294 0.999998 
1.47996e-05 -0.00194 0.999998 
3.13583e-05 -0.00204707 0.999998 
5.1994e-05 -0.00222728 0.999998 
7.96334e-05 -0.00241665 0.999997 
0.000117422 -0.00265119 0.999996 
0.000167469 -0.00289205 0.999996 
0.000215819 -0.00316687 0.999995 
0.000283434 -0.00346235 0.999994 
0.000332101 -0.00376642 0.999993 
0.000411344 -0.00405274 0.999992 
0.000397479 -0.00436848 0.99999 
0.000457119 -0.00463931 0.999989 
0.000445165 -0.00489142 0.999988 
0.000432691 -0.00508254 0.999987 
0.000391343 -0.00520017 0.999986 
0.000319883 -0.00521404 0.999986 
0.000243412 -0.00505337 0.999987 
0.000140084 -0.0047012 0.999989 
1.52623e-05 -0.00410674 0.999992 
-0.000135623 -0.00319351 0.999995 
-0.000323483 -0.0018439 0.999998 
-0.000559635 0.000158151 1 
-0.000876802 0.00320382 0.999994 
-0.00134006 0.00786705 0.999968 
-0.00185816 0.0148715 0.999888 
-0.00245316 0.026731 0.99964 
-0.00317373 0.0449983 0.998982 
-0.0040724 0.069566 0.997569 
-0.00480944 0.109076 0.994022 
-0.00434273 0.148724 0.988869 
-0.0062558 0.199253 0.979928 
-0.00341406 0.268756 0.963202 
0.0286776 0.293017 0.955677 
-0.00221823 0.353774 0.935328 
-0.01807 0.602363 0.798018 
0.0682062 0.671827 0.737561 
-0.000487641 0.953317 -0.301971 
-0.0204291 0.702027 -0.711857 
0.0053079 0.418177 -0.90835 
-0.0181105 0.387592 -0.921653 
-0.00163195 0.32576 -0.945451 
-0.00147974 0.256605 -0.966515 
0.00264857 0.195462 -0.980708 
0.00691209 0.142409 -0.989784 
0.006147 0.0969773 -0.995268 
0.00555302 0.0617177 -0.998078 
0.00420572 0.0367957 -0.999314 
0.00287678 0.0220803 -0.999752 
0.00203324 0.0129938 -0.999914 
0.00135453 0.00682746 -0.999976 
0.000920916 0.00263023 -0.999996 
0.000595871 -0.000186891 -1 
0.000357046 -0.00197763 -0.999998 
0.000182593 -0.00320811 -0.999995 
2.74487e-05 -0.00412093 -0.999992 
-0.000110035 -0.00478786 -0.999989 
-0.000245046 -0.00509382 -0.999987 
-0.000338918 -0.00521896 -0.999986 
-0.000421082 -0.00515466 -0.999987 
-0.0004377 -0.00500449 -0.999987 
-0.000464525 -0.00477267 -0.999989 
-0.000424342 -0.00450594 -0.99999 
-0.000401795 -0.00419982 -0.999991 
-0.000351449 -0.00388153 -0.999992 
-0.000290898 -0.00355906 -0.999994 
-0.000237699 -0.00325674 -0.999995 
-0.000177369 -0.00297345 -0.999996 
-0.000132919 -0.00272257 -0.999996 
-0.000100455 -0.00251941 -0.999997 
-5.74254e-05 -0.00231737 -0.999997 
-4.03709e-05 -0.00214997 -0.999998 
-2.39941e-05 -0.00203026 -0.999998 
-1.05281e-05 -0.00193847 -0.999998 
2.70173e-06 -0.00187654 -0.999998 
5.47404e-06 -0.00183575 -0.999998 
5.46522e-06 4.72078e-05 -1 
-2.66721e-05 -0.000112184 1 
-2.56851e-05 -0.00181486 0.999998 
-1.28907e-05 -0.00187237 0.999998 
8.51526e-06 -0.00193792 0.999998 
9.89778e-06 -0.00203783 0.999998 
3.46702e-05 -0.00207362 0.999998 
6.5023e-05 -0.00226617 0.999997 
9.80881e-05 -0.00246143 0.999997 
0.000149171 -0.00267162 0.999996 
0.000226106 -0.00295219 0.999996 
0.000311443 -0.0032434 0.999995 
0.000407785 -0.00353887 0.999994 
0.000491416 -0.00381062 0.999993 
0.000584054 -0.00411919 0.999991 
0.00063613 -0.00437692 0.99999 
0.000680251 -0.00462443 0.999989 
0.000679927 -0.00482482 0.999988 
0.000649942 -0.00495638 0.999988 
0.000577189 -0.0050027 0.999987 
0.000479019 -0.00491135 0.999988 
0.000360992 -0.00462872 0.999989 
0.000223066 -0.00413873 0.999991 
6.16742e-05 -0.00336997 0.999994 
-0.000128468 -0.00220257 0.999998 
-0.000348414 -0.000469686 1 
-0.000603573 0.00212994 0.999998 
-0.000912312 0.00599379 0.999982 
-0.00138494 0.011978 0.999927 
-0.00190893 0.0208348 0.999781 
-0.0018092 0.0344186 0.999406 
-0.000419258 0.0549418 0.998489 
0.000288954 0.0832068 0.996532 
0.00728504 0.118109 0.992974 
0.0223278 0.163869 0.986229 
0.0182806 0.212325 0.977028 
0.0669171 0.248887 0.966218 
0.015366 0.4228 0.906093 
0.0198774 0.676654 0.736033 
-0.0116132 0.956079 0.29288 
0.00166632 0.993997 0.109391 
-0.0506225 0.818403 -0.57241 
-0.00667971 0.543957 -0.839087 
-0.0498858 0.438915 -0.897143 
-0.0696656 0.317577 -0.94567 
-0.0460322 0.265141 -0.96311 
-0.0275228 0.196038 -0.98021 
-0.000980561 0.138188 -0.990406 
0.00136445 0.0920427 -0.995754 
0.004316 0.0614083 -0.998103 
0.00405748 0.0388004 -0.999239 
0.00287982 0.0235783 -0.999718 
0.00188046 0.0142154 -0.999897 
0.00138907 0.00775962 -0.999969 
0.000925163 0.00342595 -0.999994 
0.000579524 0.000442198 -1 
0.000300621 -0.00143131 -0.999999 
9.49222e-05 -0.00280277 -0.999996 
-6.77036e-05 -0.00375872 -0.999993 
-0.000231305 -0.00441372 -0.99999 
-0.00039895 -0.0047606 -0.999989 
-0.000528164 -0.00494041 -0.999988 
-0.000633425 -0.00494094 -0.999988 
-0.000676578 -0.00486373 -0.999988 
-0.000696955 -0.00468674 -0.999989 
-0.000659778 -0.00447275 -0.99999 
-0.000608138 -0.00421546 -0.999991 
-0.000530193 -0.00393284 -0.999992 
-0.000440259 -0.00364297 -0.999993 
-0.000349172 -0.0033577 -0.999994 
-0.000259868 -0.00307471 -0.999995 
-0.000184148 -0.00281846 -0.999996 
-0.000120202 -0.00259639 -0.999997 
-8.20143e-05 -0.00237526 -0.999997 
-5.1487e-05 -0.00220693 -0.999998 
-2.24428e-05 -0.00204973 -0.999998 
-9.99034e-06 -0.00195366 -0.999998 
1.37944e-05 -0.00189456 -0.999998 
3.23658e-05 -0.00183877 -0.999998 
6.28682e-05 -0.000302926 -1 
-0.000103329 -2.35268e-05 1 
-7.15833e-05 -0.00182456 0.999998 
-4.9823e-05 -0.00186644 0.999998 
-2.2883e-05 -0.00192671 0.999998 
-2.5686e-05 -0.00205196 0.999998 
3.12451e-05 -0.00219025 0.999998 
3.24463e-05 -0.00238205 0.999997 
7.91812e-05 -0.00264018 0.999997 
0.00014349 -0.00288099 0.999996 
0.000225908 -0.00317098 0.999995 
0.000307613 -0.00344024 0.999994 
0.000393223 -0.00371341 0.999993 
0.000510518 -0.00397451 0.999992 
0.000595892 -0.0042236 0.999991 
0.000668799 -0.00444045 0.99999 
0.000704486 -0.00463327 0.999989 
0.000702243 -0.00477004 0.999988 
0.000659275 -0.00483667 0.999988 
0.00058289 -0.00479996 0.999988 
0.000483411 -0.0046216 0.999989 
0.000376501 -0.00425855 0.999991 
0.000272895 -0.00368171 0.999993 
0.000171839 -0.00280183 0.999996 
8.47226e-05 -0.00148347 0.999999 
3.84259e-05 0.000473714 1 
8.70526e-05 0.00329092 0.999995 
0.000168298 0.00760893 0.999971 
0.000338217 0.0139945 0.999902 
0.000763255 0.02322 0.99973 
0.00315163 0.0369889 0.999311 
0.00854459 0.056373 0.998373 
0.0139698 0.0812325 0.996597 
0.0286336 0.116564 0.99277 
0.0589479 0.137778 0.988707 
0.0651882 0.184529 0.980663 
0.114687 0.209828 0.970989 
0.0695096 0.346669 0.935409 
0.0453715 0.485936 0.872816 
0.0314155 0.865523 0.499883 
0.052012 0.960177 0.274507 
-0.0583429 0.557111 -0.828386 
-0.126099 0.481921 -0.867094 
-0.115863 0.358591 -0.926277 
-0.117343 0.246078 -0.962121 
-0.0738482 0.200234 -0.976961 
-0.049672 0.145844 -0.98806 
-0.0194891 0.131924 -0.991068 
-0.0129006 0.0888954 -0.995957 
-0.00251204 0.0599709 -0.998197 
0.000319588 0.0383795 -0.999263 
0.000235731 0.024033 -0.999711 
4.41738e-05 0.0138866 -0.999904 
0.000267445 0.00756853 -0.999971 
0.000190751 0.00332266 -0.999994 
9.88e-05 0.000632159 -1 
-5.41491e-06 -0.00132457 -0.999999 
-8.87895e-05 -0.00263383 -0.999997 
-0.000187314 -0.00356721 -0.999994 
-0.000316942 -0.00417977 -0.999991 
-0.00046075 -0.00455415 -0.99999 
-0.000576709 -0.00472997 -0.999989 
-0.000666703 -0.00476862 -0.999988 
-0.000705984 -0.00470658 -0.999989 
-0.000698911 -0.00455897 -0.999989 
-0.0006529 -0.00436968 -0.99999 
-0.000573034 -0.00413519 -0.999991 
-0.000472902 -0.00387603 -0.999992 
-0.000371329 -0.00361122 -0.999993 
-0.000270444 -0.00333252 -0.999994 
-0.000181486 -0.00306631 -0.999995 
-0.000108499 -0.00282305 -0.999996 
-5.10583e-05 -0.0025484 -0.999997 
-2.9013e-05 -0.00234829 -0.999997 
-1.07279e-05 -0.00216952 -0.999998 
2.0153e-05 -0.00204804 -0.999998 
1.57966e-05 -0.00196427 -0.999998 
4.38609e-05 -0.00190613 -0.999998 
5.95781e-05 -0.00185842 -0.999998 
0.000104811 -0.000198666 -1 
-0.000143558 -4.18728e-05 1 
-0.000105876 -0.0018433 0.999998 
-6.48163e-05 -0.00191251 0.999998 
-5.51164e-05 -0.00198287 0.999998 
-6.34544e-05 -0.00211455 0.999998 
-1.98613e-05 -0.00220107 0.999998 
-4.44315e-05 -0.00233069 0.999997 
-5.01446e-06 -0.00253904 0.999997 
2.50825e-05 -0.00280344 0.999996 
9.61565e-05 -0.00306246 0.999995 
0.000156841 -0.00333799 0.999994 
0.000239888 -0.00360021 0.999993 
0.000355603 -0.00387635 0.999992 
0.000461122 -0.00410009 0.999991 
0.000556181 -0.00432036 0.999991 
0.000629691 -0.00449717 0.99999 
0.000656334 -0.00463601 0.999989 
0.000643761 -0.00471528 0.999989 
0.000591547 -0.00471024 0.999989 
0.00051648 -0.00459805 0.999989 
0.000436069 -0.0043427 0.99999 
0.000369871 -0.00388677 0.999992 
0.000336434 -0.003184 0.999995 
0.000351529 -0.00213793 0.999998 
0.000458289 -0.000566298 1 
0.000760424 0.00169753 0.999998 
0.00127427 0.00510991 0.999986 
0.00214855 0.0101591 0.999946 
0.00365509 0.0174872 0.99984 
0.00654577 0.0274666 0.999601 
0.0129206 0.0415472 0.999053 
0.0238643 0.0608897 0.997859 
0.0369543 0.0866247 0.995555 
0.069724 0.104091 0.992121 
0.112614 0.146256 0.982816 
0.176208 0.199192 0.963988 
0.136783 0.290792 0.946958 
-0.0217857 0.442136 0.896683 
0.10886 0.547995 0.829368 
0.095756 0.826086 0.555349 
-0.100091 0.889902 -0.445035 
-0.188183 0.520284 -0.833001 
-0.185423 0.344506 -0.92029 
-0.108219 0.159547 -0.981241 
-0.0765208 0.119586 -0.989871 
-0.0537978 0.0848354 -0.994942 
-0.0342005 0.0974217 -0.994655 
-0.0274364 0.0643008 -0.997553 
-0.0134621 0.0580417 -0.998223 
-0.0061705 0.0395805 -0.999197 
-0.00395417 0.0250011 -0.99968 
-0.00234311 0.0154206 -0.999878 
-0.00133379 0.00806938 -0.999967 
-0.000757665 0.00403584 -0.999992 
-0.000503644 0.00109947 -0.999999 
-0.000329588 -0.000847967 -1 
-0.000266725 -0.00225397 -0.999997 
-0.000259167 -0.00322597 -0.999995 
-0.000324227 -0.00388304 -0.999992 
-0.000420757 -0.00430538 -0.999991 
-0.000523821 -0.00454356 -0.99999 
-0.000607232 -0.00464827 -0.999989 
-0.000647541 -0.00463014 -0.999989 
-0.000648171 -0.00454651 -0.999989 
-0.000594405 -0.00439232 -0.99999 
-0.000516445 -0.00420431 -0.999991 
-0.000411087 -0.00397675 -0.999992 
-0.000298157 -0.00372895 -0.999993 
-0.000201723 -0.00346693 -0.999994 
-0.000112689 -0.00319877 -0.999995 
-4.03363e-05 -0.00294043 -0.999996 
-4.6388e-06 -0.00267445 -0.999996 
2.95839e-05 -0.00241123 -0.999997 
3.28478e-05 -0.00222527 -0.999998 
5.37109e-05 -0.00206766 -0.999998 
5.45298e-05 -0.00195329 -0.999998 
7.06779e-05 -0.0018944 -0.999998 
8.97399e-05 -0.00186944 -0.999998 
0.000125925 -0.000140677 -1 
-0.000127532 -0.00016045 1 
-9.93151e-05 -0.00187561 0.999998 
-8.57409e-05 -0.00187523 0.999998 
-7.95665e-05 -0.00191713 0.999998 
-7.57301e-05 -0.00199516 0.999998 
-7.80776e-05 -0.00222242 0.999998 
-6.76916e-05 -0.00246657 0.999997 
-4.66184e-05 -0.00268809 0.999996 
-9.71108e-06 -0.00299013 0.999996 
3.9562e-05 -0.00324373 0.999995 
0.000104822 -0.00352227 0.999994 
0.000210723 -0.00378321 0.999993 
0.000311958 -0.00402598 0.999992 
0.000425122 -0.00422497 0.999991 
0.000519699 -0.00440622 0.99999 
0.00058288 -0.00453618 0.99999 
0.000600748 -0.00462755 0.999989 
0.000578898 -0.00465426 0.999989 
0.00052573 -0.004599 0.999989 
0.00046352 -0.00444367 0.99999 
0.000413349 -0.00414741 0.999991 
0.000403279 -0.0036628 0.999993 
0.000453901 -0.00294355 0.999996 
0.000597431 -0.00186229 0.999998 
0.000913429 -0.000322297 1 
0.00153256 0.00196705 0.999997 
0.00254473 0.00524401 0.999983 
0.0042284 0.00996928 0.999941 
0.00697036 0.0161831 0.999845 
0.0116879 0.024945 0.99962 
0.0206686 0.0366566 0.999114 
0.0353296 0.0507933 0.998084 
0.052674 0.0663909 0.996402 
0.0746925 0.0584147 0.995494 
0.10493 0.0908566 0.990321 
0.162142 0.114507 0.980101 
0.225151 0.300086 0.92696 
0.129792 0.400243 0.907171 
0.173577 0.671963 0.719956 
-0.0243777 0.991868 -0.124916 
-0.0911918 0.668421 -0.738172 
-0.272407 0.485628 -0.830638 
-0.164262 0.215404 -0.962611 
-0.169148 0.139454 -0.975675 
-0.116997 0.0990091 -0.988185 
-0.0802569 0.0714772 -0.994208 
-0.0448726 0.0563242 -0.997404 
-0.0278061 0.0425704 -0.998706 
-0.016306 0.0397329 -0.999077 
-0.0101027 0.0286771 -0.999538 
-0.00629474 0.01797 -0.999819 
-0.00351495 0.0108368 -0.999935 
-0.00227318 0.00550967 -0.999982 
-0.00138756 0.0024551 -0.999996 
-0.000872029 0.00012932 -1 
-0.000559904 -0.00141188 -0.999999 
-0.000388339 -0.00257919 -0.999997 
-0.000332919 -0.00336422 -0.999994 
-0.000358263 -0.00391588 -0.999992 
-0.000428835 -0.00428178 -0.999991 
-0.000510426 -0.00448901 -0.99999 
-0.000572759 -0.00457477 -0.999989 
-0.000592317 -0.00456305 -0.999989 
-0.000572768 -0.00448567 -0.99999 
-0.000499801 -0.00435238 -0.99999 
-0.000408635 -0.00417538 -0.999991 
-0.000297821 -0.00396519 -0.999992 
-0.000186958 -0.00372881 -0.999993 
-9.70625e-05 -0.00347018 -0.999994 
-2.24277e-05 -0.00320567 -0.999995 
2.94429e-05 -0.00291882 -0.999996 
5.21544e-05 -0.00264426 -0.999997 
7.07095e-05 -0.00239931 -0.999997 
6.92814e-05 -0.00220229 -0.999998 
7.4252e-05 -0.00204451 -0.999998 
7.02267e-05 -0.00195283 -0.999998 
7.46859e-05 -0.00190534 -0.999998 
8.67295e-05 -0.00189075 -0.999998 
0.000105985 -0.000290603 -1 
-8.35234e-05 -0.000202121 1 
-7.38414e-05 -0.00188816 0.999998 
-8.45299e-05 -0.00188991 0.999998 
-7.5874e-05 -0.00193468 0.999998 
-8.08729e-05 -0.00205914 0.999998 
-8.42165e-05 -0.00219764 0.999998 
-8.77069e-05 -0.00240485 0.999997 
-8.25716e-05 -0.00266544 0.999996 
-6.29671e-05 -0.00292336 0.999996 
-3.13275e-05 -0.00321989 0.999995 
2.061e-05 -0.00348259 0.999994 
0.0001085 -0.00375887 0.999993 
0.000206628 -0.00399831 0.999992 
0.000321948 -0.00420763 0.999991 
0.000428652 -0.00437445 0.99999 
0.000508526 -0.00450421 0.99999 
0.000552165 -0.00458676 0.999989 
0.000551232 -0.00461589 0.999989 
0.000517411 -0.00458117 0.999989 
0.000468931 -0.00446201 0.99999 
0.00043056 -0.00424558 0.999991 
0.000430351 -0.00388184 0.999992 
0.000498393 -0.00333782 0.999994 
0.000660594 -0.00254582 0.999997 
0.000978424 -0.00142117 0.999999 
0.00156818 0.000220079 0.999999 
0.00262225 0.00253446 0.999993 
0.00430319 0.00577487 0.999974 
0.00705063 0.00997921 0.999925 
0.0114495 0.0155849 0.999813 
0.0188766 0.0229928 0.999557 
0.0316332 0.0314771 0.999004 
0.0498138 0.0351163 0.998141 
0.0760595 0.0274585 0.996725 
0.115151 0.0451388 0.992322 
0.172072 0.0469935 0.983963 
0.252769 0.202679 0.94606 
0.271814 0.502108 0.820978 
0.188797 0.458451 0.868434 
0.0966084 0.949263 0.299276 
-0.166053 0.695019 -0.699553 
-0.24347 0.268643 -0.931962 
-0.248871 0.17765 -0.952105 
-0.167329 0.0624958 -0.983918 
-0.111036 0.0450466 -0.992795 
-0.0713956 0.0344235 -0.996854 
-0.0501808 0.03922 -0.99797 
-0.0306173 0.0279509 -0.99914 
-0.0189426 0.0263451 -0.999473 
-0.0117754 0.019986 -0.999731 
-0.00793257 0.0126401 -0.999889 
-0.0049852 0.0090901 -0.999946 
-0.00340229 0.00471205 -0.999983 
-0.00208408 0.00192091 -0.999996 
-0.00131442 5.40214e-05 -0.999999 
-0.000823816 -0.00144526 -0.999999 
-0.000536964 -0.00246604 -0.999997 
-0.000401222 -0.00326109 -0.999995 
-0.000374062 -0.00379378 -0.999993 
-0.000410273 -0.00416156 -0.999991 
-0.000472097 -0.00439126 -0.99999 
-0.000529464 -0.00451315 -0.99999 
-0.000550427 -0.00454164 -0.99999 
-0.000525732 -0.00449676 -0.99999 
-0.000458706 -0.0044021 -0.99999 
-0.000360416 -0.00425313 -0.999991 
-0.00025313 -0.00406769 -0.999992 
-0.000144133 -0.0038434 -0.999993 
-5.24392e-05 -0.00357909 -0.999994 
1.57674e-05 -0.00330159 -0.999995 
5.72137e-05 -0.00300105 -0.999995 
7.77325e-05 -0.00269339 -0.999996 
8.54961e-05 -0.00241227 -0.999997 
8.3284e-05 -0.00218404 -0.999998 
7.65475e-05 -0.00203677 -0.999998 
7.27539e-05 -0.001947 -0.999998 
6.558e-05 -0.00190139 -0.999998 
7.01577e-05 -0.00189629 -0.999998 
6.7684e-05 -0.000186678 -1 
-3.92914e-05 -0.000255201 1 
-4.0609e-05 -0.00188898 0.999998 
-6.96246e-05 -0.00189475 0.999998 
-5.71967e-05 -0.00192733 0.999998 
-7.26415e-05 -0.00202064 0.999998 
-7.02665e-05 -0.0022008 0.999998 
-8.09569e-05 -0.00245282 0.999997 
-7.60487e-05 -0.00273858 0.999996 
-6.59276e-05 -0.00301549 0.999995 
-3.53197e-05 -0.00330653 0.999995 
1.48718e-05 -0.00360381 0.999994 
9.17612e-05 -0.00386481 0.999993 
0.000191139 -0.00409864 0.999992 
0.000299455 -0.00428186 0.999991 
0.000404689 -0.0044357 0.99999 
0.000480366 -0.0045263 0.99999 
0.000528153 -0.00459554 0.999989 
0.000532615 -0.00459956 0.999989 
0.000508863 -0.00454898 0.99999 
0.000474615 -0.00441813 0.99999 
0.000454345 -0.00421865 0.999991 
0.000479069 -0.00388627 0.999992 
0.000577675 -0.00341517 0.999994 
0.000780344 -0.00275238 0.999996 
0.00115547 -0.00180532 0.999998 
0.00180911 -0.000495192 0.999998 
0.00292031 0.00121949 0.999995 
0.00478416 0.00371475 0.999982 
0.00770445 0.00657198 0.999949 
0.0124265 0.0104006 0.999869 
0.0203873 0.0151879 0.999677 
0.0317098 0.0175112 0.999344 
0.0477277 0.0146931 0.998752 
0.0641584 -0.00151364 0.997939 
0.104009 -0.000244584 0.994576 
0.156879 -0.0119232 0.987546 
0.257388 0.111774 0.959822 
0.366142 0.335871 0.867831 
0.245983 0.782456 0.572062 
-0.0253561 0.996447 -0.0803146 
-0.264133 0.758345 -0.595941 
-0.353294 0.331556 -0.874788 
-0.24392 0.0867284 -0.96591 
-0.147998 -0.00325385 -0.988982 
-0.093764 0.00497805 -0.995582 
-0.0598081 0.00684396 -0.998186 
-0.0438622 0.0155612 -0.998916 
-0.0307065 0.0155708 -0.999407 
-0.0200497 0.0161716 -0.999668 
-0.0133852 0.0136938 -0.999817 
-0.00854555 0.00836507 -0.999928 
-0.00542853 0.0055379 -0.99997 