# vtk DataFile Version 3.0 
Exported using Morpho https://github.com/Morpho-lang/morpho 
ASCII 
DATASET UNSTRUCTURED_GRID 

POINTS 2054 float 
-8.48528 -2.82843 0 
-8.20636 -2.82843 0 
-7.94054 -2.82843 0 
-7.6904 -2.82843 0 
-7.45357 -2.82843 0 
-7.22694 -2.82843 0 
-7.00705 -2.82843 0 
-6.79111 -2.82843 0 
-6.57731 -2.82843 0 
-6.36453 -2.82843 0 
-6.15219 -2.82843 0 
-5.94 -2.82843 0 
-5.72786 -2.82843 0 
-5.51573 -2.82843 0 
-5.3036 -2.82843 0 
-5.09147 -2.82843 0 
-4.87933 -2.82843 0 
-4.6672 -2.82843 0 
-4.45507 -2.82843 0 
-4.24294 -2.82843 0 
-4.03081 -2.82843 0 
-3.81867 -2.82843 0 
-3.60654 -2.82843 0 
-3.39441 -2.82843 0 
-3.18228 -2.82843 0 
-2.97015 -2.82843 0 
-2.75801 -2.82843 0 
-2.54588 -2.82843 0 
-2.33375 -2.82843 0 
-2.12162 -2.82843 0 
-1.90949 -2.82843 0 
-1.69735 -2.82843 0 
-1.48522 -2.82843 0 
-1.27309 -2.82843 0 
-1.06096 -2.82843 0 
-0.848825 -2.82843 0 
-0.636693 -2.82843 0 
-0.424561 -2.82843 0 
-0.212429 -2.82843 0 
-0.000296761 -2.82843 0 
0.211835 -2.82843 0 
0.423967 -2.82843 0 
0.636099 -2.82843 0 
0.848231 -2.82843 0 
1.06036 -2.82843 0 
1.2725 -2.82843 0 
1.48463 -2.82843 0 
1.69676 -2.82843 0 
1.90889 -2.82843 0 
2.12102 -2.82843 0 
2.33316 -2.82843 0 
2.54529 -2.82843 0 
2.75742 -2.82843 0 
2.96955 -2.82843 0 
3.18168 -2.82843 0 
3.39382 -2.82843 0 
3.60595 -2.82843 0 
3.81808 -2.82843 0 
4.03021 -2.82843 0 
4.24234 -2.82843 0 
4.45448 -2.82843 0 
4.66661 -2.82843 0 
4.87874 -2.82843 0 
5.09087 -2.82843 0 
5.303 -2.82843 0 
5.51514 -2.82843 0 
5.72727 -2.82843 0 
5.93941 -2.82843 0 
6.15159 -2.82843 0 
6.36393 -2.82843 0 
6.57672 -2.82843 0 
6.79055 -2.82843 0 
7.00652 -2.82843 0 
7.22647 -2.82843 0 
7.45313 -2.82843 0 
7.69005 -2.82843 0 
7.9403 -2.82843 0 
8.20621 -2.82843 0 
8.48528 -2.82843 0 
-8.48528 -2.5495 0 
-8.30526 -2.64845 0 
-8.07062 -2.59995 0 
-7.83904 -2.59637 0 
-7.59595 -2.59733 0 
-7.36578 -2.59177 0 
-7.13796 -2.5933 0 
-6.90908 -2.59428 0 
-6.68421 -2.5916 0 
-6.46568 -2.58832 0 
-6.24926 -2.58859 0 
-6.03358 -2.58941 0 
-5.81848 -2.59013 0 
-5.60402 -2.59075 0 
-5.39005 -2.59135 0 
-5.17642 -2.59186 0 
-4.96311 -2.59223 0 
-4.75009 -2.59242 0 
-4.53736 -2.59244 0 
-4.32497 -2.59236 0 
-4.1128 -2.59242 0 
-3.90059 -2.59259 0 
-3.68835 -2.5926 0 
-3.47627 -2.59248 0 
-3.26428 -2.59251 0 
-3.05216 -2.59271 0 
-2.83986 -2.59283 0 
-2.62755 -2.59274 0 
-2.41539 -2.59253 0 
-2.20336 -2.59238 0 
-1.99135 -2.59238 0 
-1.77924 -2.59246 0 
-1.56704 -2.59244 0 
-1.35495 -2.59215 0 
-1.14319 -2.59183 0 
-0.931581 -2.59195 0 
-0.719663 -2.59256 0 
-0.507197 -2.59324 0 
-0.294425 -2.59354 0 
-0.0817689 -2.59344 0 
0.130587 -2.59325 0 
0.342804 -2.59322 0 
0.555051 -2.59322 0 
0.767233 -2.59303 0 
0.97919 -2.59278 0 
1.19107 -2.59278 0 
1.40311 -2.59289 0 
1.61524 -2.59286 0 
1.82732 -2.59279 0 
2.03943 -2.59281 0 
2.25163 -2.5928 0 
2.46381 -2.59266 0 
2.67591 -2.59254 0 
2.88801 -2.59237 0 
3.10001 -2.59226 0 
3.31203 -2.59216 0 
3.52402 -2.59207 0 
3.73601 -2.59208 0 
3.94815 -2.59221 0 
4.16052 -2.5923 0 
4.37309 -2.59232 0 
4.58593 -2.59227 0 
4.79921 -2.5922 0 
5.01319 -2.59212 0 
5.22833 -2.5921 0 
5.44534 -2.59239 0 
5.6657 -2.59346 0 
5.89185 -2.59569 0 
6.12685 -2.59429 0 
6.36853 -2.59189 0 
6.6108 -2.57787 0 
6.84491 -2.61411 0 
7.08804 -2.58476 0 
7.34858 -2.60369 0 
7.58803 -2.59327 0 
7.83059 -2.59326 0 
8.06387 -2.59199 0 
8.30038 -2.64348 0 
8.48528 -2.54936 0 
-8.48528 -2.28369 0 
-8.25701 -2.4138 0 
-8.01078 -2.35334 0 
-7.73666 -2.37963 0 
-7.49744 -2.35565 0 
-7.26898 -2.35831 0 
-7.03324 -2.36676 0 
-6.7997 -2.36275 0 
-6.5773 -2.35166 0 
-6.35808 -2.3495 0 
-6.14038 -2.35058 0 
-5.92336 -2.35185 0 
-5.70723 -2.35272 0 
-5.49199 -2.35362 0 
-5.27734 -2.35447 0 
-5.0632 -2.35505 0 
-4.84958 -2.35534 0 
-4.63641 -2.35533 0 
-4.42363 -2.35504 0 
-4.21126 -2.35485 0 
-3.99909 -2.35513 0 
-3.78684 -2.3554 0 
-3.57461 -2.35516 0 
-3.36263 -2.35498 0 
-3.15066 -2.35537 0 
-2.93843 -2.35586 0 
-2.72604 -2.35589 0 
-2.51374 -2.35551 0 
-2.30162 -2.35509 0 
-2.08964 -2.35496 0 
-1.87761 -2.35518 0 
-1.66544 -2.3554 0 
-1.45322 -2.35518 0 
-1.2412 -2.35438 0 
-1.02967 -2.35407 0 
-0.818162 -2.35505 0 
-0.606054 -2.35676 0 
-0.393243 -2.3579 0 
-0.180256 -2.35789 0 
0.0323765 -2.35727 0 
0.244686 -2.35692 0 
0.456926 -2.35692 0 
0.669206 -2.35667 0 
0.881318 -2.35598 0 
1.09315 -2.35559 0 
1.305 -2.35583 0 
1.51709 -2.35595 0 
1.72919 -2.35571 0 
1.9412 -2.35566 0 
2.15334 -2.3558 0 
2.36559 -2.3556 0 
2.57772 -2.35522 0 
2.78976 -2.35507 0 
3.0019 -2.35461 0 
3.21373 -2.35451 0 
3.42571 -2.35439 0 
3.63769 -2.35431 0 
3.84965 -2.35453 0 
4.06183 -2.35491 0 
4.27435 -2.35507 0 
4.48707 -2.35507 0 
4.70017 -2.35506 0 
4.91376 -2.35498 0 
5.12819 -2.35502 0 
5.34378 -2.35528 0 
5.56106 -2.35662 0 
5.78097 -2.35971 0 
6.00401 -2.36251 0 
6.2308 -2.3624 0 
6.45748 -2.35551 0 
6.68075 -2.33423 0 
6.88797 -2.39744 0 
7.05313 -2.27289 0 
7.24377 -2.40237 0 
7.48542 -2.36016 0 
7.73055 -2.36599 0 
7.99177 -2.33552 0 
8.24864 -2.40698 0 
8.48528 -2.28345 0 
-8.48528 -2.03355 0 
-8.25312 -2.18214 0 
-8.03669 -2.07913 0 
-7.83956 -2.18231 0 
-7.6106 -2.12852 0 
-7.38852 -2.10959 0 
-7.16268 -2.14097 0 
-6.9229 -2.1435 0 
-6.70119 -2.12055 0 
-6.48111 -2.11285 0 
-6.26282 -2.11284 0 
-6.045 -2.1151 0 
-5.82775 -2.11658 0 
-5.61153 -2.11776 0 
-5.3962 -2.1192 0 
-5.18144 -2.1203 0 
-4.96732 -2.12084 0 
-4.75387 -2.12105 0 
-4.54086 -2.12091 0 
-4.32822 -2.12045 0 
-4.11596 -2.12045 0 
-3.90382 -2.12107 0 
-3.69156 -2.12116 0 
-3.47938 -2.12058 0 
-3.26746 -2.12068 0 
-3.05542 -2.12154 0 
-2.84307 -2.12198 0 
-2.63064 -2.12162 0 
-2.41836 -2.12087 0 
-2.20626 -2.12031 0 
-1.99426 -2.12034 0 
-1.78217 -2.1207 0 
-1.56989 -2.12074 0 
-1.35755 -2.11993 0 
-1.14542 -2.11838 0 
-0.934012 -2.11859 0 
-0.722404 -2.12089 0 
-0.509943 -2.12344 0 
-0.296911 -2.12431 0 
-0.0840921 -2.12359 0 
0.128295 -2.12281 0 
0.340414 -2.12274 0 
0.552564 -2.12288 0 
0.76478 -2.12226 0 
0.976792 -2.1213 0 
1.18855 -2.12128 0 
1.40042 -2.12188 0 
1.61256 -2.12177 0 
1.82458 -2.12141 0 
2.03655 -2.12164 0 
2.24875 -2.12174 0 
2.46099 -2.12114 0 
2.67302 -2.12065 0 
2.88504 -2.12054 0 
3.09728 -2.1194 0 
3.30873 -2.11968 0 
3.52086 -2.1195 0 
3.7329 -2.11938 0 
3.94484 -2.11986 0 
4.15715 -2.12044 0 
4.36983 -2.12035 0 
4.58282 -2.1204 0 
4.79606 -2.12017 0 
5.01004 -2.12012 0 
5.22483 -2.12002 0 
5.44073 -2.12051 0 
5.6582 -2.123 0 
5.8782 -2.12696 0 
6.10217 -2.12971 0 
6.33095 -2.12707 0 
6.567 -2.11601 0 
6.82301 -2.12303 0 
7.06572 -2.04567 0 
7.29733 -2.17484 0 
7.54632 -2.11408 0 
7.79371 -2.13741 0 
8.02274 -2.07453 0 
8.25027 -2.1738 0 
8.48528 -2.0332 0 
-8.48528 -1.79671 0 
-8.25436 -1.93882 0 
-8.01299 -1.83977 0 
-7.78596 -1.953 0 
-7.5297 -1.87194 0 
-7.2756 -1.88722 0 
-7.05707 -1.93544 0 
-6.84369 -1.89677 0 
-6.62219 -1.88079 0 
-6.40169 -1.87606 0 
-6.18206 -1.87854 0 
-5.96274 -1.881 0 
-5.74458 -1.88208 0 
-5.52796 -1.88344 0 
-5.31232 -1.88506 0 
-5.09736 -1.88569 0 
-4.88338 -1.88564 0 
-4.67019 -1.88555 0 
-4.45737 -1.88507 0 
-4.24485 -1.88447 0 
-4.03271 -1.88482 0 
-3.82061 -1.88562 0 
-3.60832 -1.88529 0 
-3.39617 -1.88464 0 
-3.18427 -1.88547 0 
-2.97209 -1.88672 0 
-2.7596 -1.88684 0 
-2.54714 -1.88601 0 
-2.33483 -1.88505 0 
-2.12268 -1.8846 0 
-1.91058 -1.885 0 
-1.69824 -1.88561 0 
-1.48561 -1.88547 0 
-1.27286 -1.88413 0 
-1.06032 -1.88216 0 
-0.848858 -1.8839 0 
-0.636875 -1.88781 0 
-0.424169 -1.89034 0 
-0.211518 -1.89004 0 
0.000731944 -1.88866 0 
0.21257 -1.88788 0 
0.424308 -1.88807 0 
0.636257 -1.88793 0 
0.848362 -1.88664 0 
1.06025 -1.88556 0 
1.27191 -1.88605 0 
1.48381 -1.88664 0 
1.69595 -1.886 0 
1.90782 -1.88577 0 
2.11974 -1.88637 0 
2.33202 -1.88609 0 
2.54419 -1.88502 0 
2.75607 -1.88472 0 
2.96812 -1.88462 0 
3.18055 -1.88217 0 
3.39117 -1.88415 0 
3.60398 -1.8838 0 
3.81618 -1.88366 0 
4.02827 -1.88469 0 
4.24071 -1.88523 0 
4.4544 -1.88509 0 
4.66716 -1.88476 0 
4.88099 -1.88493 0 
5.09545 -1.88466 0 
5.31057 -1.88453 0 
5.52653 -1.88564 0 
5.7436 -1.88981 0 
5.96352 -1.89563 0 
6.18733 -1.89813 0 
6.41543 -1.89522 0 
6.65059 -1.89622 0 
6.87542 -1.86913 0 
7.11122 -1.81621 0 
7.31223 -1.94975 0 
7.53264 -1.87683 0 
7.77077 -1.89068 0 
8.01717 -1.8297 0 
8.25014 -1.93148 0 
8.48528 -1.79628 0 
-8.48528 -1.57009 0 
-8.24868 -1.70836 0 
-8.015 -1.61096 0 
-7.76734 -1.73071 0 
-7.54593 -1.61782 0 
-7.32306 -1.66278 0 
-7.05152 -1.7082 0 
-6.79786 -1.66675 0 
-6.56099 -1.64764 0 
-6.33267 -1.64541 0 
-6.10856 -1.64921 0 
-5.88638 -1.65073 0 
-5.66697 -1.65153 0 
-5.44986 -1.65353 0 
-5.23379 -1.65525 0 
-5.01882 -1.6551 0 
-4.80519 -1.6548 0 
-4.59235 -1.65478 0 
-4.37976 -1.65422 0 
-4.16737 -1.65386 0 
-3.95537 -1.65471 0 
-3.74326 -1.6554 0 
-3.5309 -1.65455 0 
-3.31876 -1.65426 0 
-3.10682 -1.65593 0 
-2.89443 -1.65705 0 
-2.68177 -1.65644 0 
-2.46924 -1.65516 0 
-2.25682 -1.65408 0 
-2.04447 -1.65386 0 
-1.83202 -1.65455 0 
-1.61911 -1.65506 0 
-1.40572 -1.65429 0 
-1.19212 -1.65207 0 
-0.97885 -1.64982 0 
-0.767325 -1.65372 0 
-0.555434 -1.6581 0 
-0.343588 -1.65935 0 
-0.132061 -1.65818 0 
0.0792288 -1.65687 0 
0.290417 -1.65682 0 
0.501823 -1.6575 0 
0.713729 -1.65709 0 
0.925861 -1.65545 0 
1.13768 -1.65488 0 
1.34929 -1.65604 0 
1.56128 -1.6563 0 
1.77337 -1.65516 0 
1.985 -1.65561 0 
2.19698 -1.65642 0 
2.40939 -1.65525 0 
2.62143 -1.65394 0 
2.83323 -1.65414 0 
3.04553 -1.65355 0 
3.25842 -1.64868 0 
3.46746 -1.65522 0 
3.68272 -1.65284 0 
3.89574 -1.65288 0 
4.10731 -1.65378 0 
4.32287 -1.65565 0 
4.53627 -1.65249 0 
4.74932 -1.65397 0 
4.96428 -1.65355 0 
5.17935 -1.65257 0 
5.3944 -1.65202 0 
5.60927 -1.65354 0 
5.82513 -1.66019 0 
6.04295 -1.66711 0 
6.26383 -1.66843 0 
6.48537 -1.66776 0 
6.70098 -1.65646 0 
6.91299 -1.6206 0 
7.11709 -1.6046 0 
7.3526 -1.69716 0 
7.60698 -1.65764 0 
7.8325 -1.64214 0 
8.05985 -1.58842 0 
8.2608 -1.69223 0 
8.48528 -1.56961 0 
-8.48528 -1.35019 0 
-8.24958 -1.48044 0 
-8.0219 -1.3751 0 
-7.79713 -1.50391 0 
-7.58956 -1.39834 0 
-7.36199 -1.38754 0 
-7.16079 -1.49923 0 
-6.93764 -1.46284 0 
[...]
POINT_DATA 2054 
VECTORS vectors float
0.0680807 -0.104203 0.993974 
0.0805443 -0.0737831 0.997201 
0.0915092 -0.0524629 0.997999 
0.100064 -0.0381593 0.997778 
0.10648 -0.0284052 0.99729 
0.111159 -0.0215085 0.996864 
0.114631 -0.0164289 0.996491 
0.117239 -0.0125479 0.996192 
0.119218 -0.00950436 0.995968 
0.120679 -0.00705522 0.995802 
0.121744 -0.00502798 0.995664 
0.122469 -0.00331184 0.995564 
0.122909 -0.00177745 0.995497 
0.123071 -0.00034587 0.995466 
0.122968 0.00108937 0.995469 
0.122622 0.00259318 0.995503 
0.121993 0.00425945 0.995572 
0.121047 0.00618452 0.995679 
0.11972 0.00848087 0.995828 
0.117967 0.011309 0.996017 
0.115713 0.0148102 0.996245 
0.112805 0.0191692 0.996516 
0.109067 0.0246571 0.996825 
0.10427 0.0316267 0.997157 
0.0981005 0.0405573 0.997472 
0.0901546 0.0521031 0.997693 
0.0799235 0.0671609 0.997659 
0.0667773 0.086989 0.997063 
0.05 0.113364 0.995317 
0.028932 0.148735 0.991332 
0.00329558 0.196273 0.983177 
-0.0262569 0.259591 0.967631 
-0.0575046 0.341774 0.939821 
-0.0863462 0.4437 0.893287 
-0.107328 0.562056 0.820907 
-0.115173 0.688253 0.716719 
-0.106692 0.809194 0.578052 
-0.0820151 0.909883 0.406996 
-0.044578 0.976692 0.210692 
-0.00016569 1.00018 0.000510228 
0.0442838 0.976953 -0.209723 
0.0818219 0.910344 -0.406159 
0.10663 0.809759 -0.577392 
0.11523 0.688822 -0.716243 
0.107451 0.562558 -0.820592 
0.0864764 0.444102 -0.893097 
0.0576122 0.342099 -0.939708 
0.0263428 0.259862 -0.967562 
-0.0032243 0.196506 -0.983132 
-0.0288731 0.148935 -0.991303 
-0.0499501 0.113535 -0.9953 
-0.0667313 0.0871324 -0.997055 
-0.0798796 0.0672777 -0.997659 
-0.090114 0.0521948 -0.997696 
-0.0980657 0.0406284 -0.997478 
-0.104241 0.0316803 -0.997163 
-0.109044 0.024696 -0.996832 
-0.112788 0.0192008 -0.996522 
-0.115696 0.0148373 -0.99625 
-0.117954 0.0113305 -0.996021 
-0.119711 0.00850115 -0.995833 
-0.121038 0.00620561 -0.995686 
-0.121985 0.00428292 -0.995582 
-0.122606 0.00262236 -0.995516 
-0.122938 0.001111 -0.995487 
-0.123022 -0.000344391 -0.99549 
-0.122846 -0.00182989 -0.995528 
-0.122453 -0.00344477 -0.995615 
-0.121924 -0.00519122 -0.995693 
-0.121221 -0.00701973 -0.994919 
-0.119385 -0.00923839 -0.996162 
-0.117252 -0.0123354 -0.99614 
-0.114528 -0.0162509 -0.996555 
-0.110994 -0.0214661 -0.997045 
-0.106396 -0.0283695 -0.997313 
-0.100027 -0.0381347 -0.997849 
-0.091475 -0.0524702 -0.998107 
-0.0805548 -0.0738421 -0.997301 
-0.0681672 -0.104266 -0.994021 
0.0463577 -0.116286 0.995251 
0.0610891 -0.091196 0.998941 
0.0658614 -0.0704643 1.00208 
0.0727747 -0.0533403 1.00289 
0.0792654 -0.0397156 1.00282 
0.0835569 -0.0301592 1.00271 
0.087435 -0.0228712 1.00245 
0.0904448 -0.0172712 1.0022 
0.0923699 -0.0130198 1.00204 
0.0936473 -0.00972708 1.00194 
0.0948458 -0.007045 1.00182 
0.0957534 -0.00480436 1.00171 
0.0963553 -0.00285849 1.00162 
0.0966776 -0.00108297 1.00157 
0.0967421 0.000632029 1.00154 
0.0965542 0.00238823 1.00154 
0.0960994 0.0042902 1.00156 
0.0953429 0.00645112 1.00162 
0.0942447 0.00899339 1.0017 
0.0927658 0.0120656 1.00181 
0.0908633 0.0158448 1.00193 
0.0884273 0.02055 1.00207 
0.085296 0.026464 1.00221 
0.0813083 0.0339531 1.00233 
0.0762737 0.0435064 1.00237 
0.0699151 0.0557862 1.00223 
0.0618834 0.0716767 1.00174 
0.0518141 0.0923384 1.00059 
0.0393693 0.119287 0.998239 
0.0243026 0.154474 0.993745 
0.006612 0.200286 0.985543 
-0.0132033 0.259362 0.971129 
-0.0338365 0.334025 0.94675 
-0.053012 0.425234 0.907293 
-0.0677652 0.531327 0.846625 
-0.0751584 0.647223 0.758337 
-0.0729909 0.76402 0.637065 
-0.0604867 0.869153 0.480665 
-0.0388671 0.948166 0.292673 
-0.0112928 0.988426 0.083288 
0.0179554 0.983106 -0.132271 
0.0444263 0.933282 -0.337511 
0.0641724 0.847363 -0.518609 
0.0744331 0.738479 -0.667109 
0.0743425 0.620821 -0.780758 
0.0650172 0.506342 -0.862432 
0.0489269 0.403223 -0.917802 
0.0291537 0.315765 -0.953339 
0.00855604 0.244826 -0.975061 
-0.0108566 0.188957 -0.987805 
-0.0279828 0.145736 -0.995001 
-0.0424252 0.112605 -0.998909 
-0.0542675 0.087252 -1.00093 
-0.063811 0.0678009 -1.0019 
-0.0714254 0.0528138 -1.00229 
-0.0774629 0.0412012 -1.00238 
-0.0822324 0.0321524 -1.00232 
-0.0860027 0.0250504 -1.0022 
-0.0889814 0.0194296 -1.00205 
-0.0913132 0.0149438 -1.00191 
-0.0931236 0.011333 -1.00179 
-0.0945059 0.00839059 -1.00169 
-0.0955247 0.00594119 -1.00162 
-0.0962266 0.00384151 -1.00158 
-0.0966574 0.00196427 -1.00157 
-0.0968703 0.00018849 -1.0016 
-0.0969127 -0.00160221 -1.00166 
-0.0968114 -0.00353322 -1.00176 
-0.0960372 -0.00574866 -1.002 
-0.0946869 -0.00838203 -1.00292 
-0.0916632 -0.011796 -1.00319 
-0.0932084 -0.0156316 -1.00121 
-0.0872291 -0.0215671 -1.00341 
-0.0849768 -0.0292566 -1.00263 
-0.0790563 -0.0393888 -1.00303 
-0.0727451 -0.0528692 -1.00313 
-0.0654677 -0.070181 -1.00239 
-0.0609398 -0.0908805 -0.999134 
-0.0464524 -0.116266 -0.995356 
0.0315924 -0.12672 0.994954 
0.0466906 -0.0942625 1.00118 
0.0502795 -0.0725026 1.00418 
0.0588119 -0.0521727 1.00399 
0.0618834 -0.0397972 1.00439 
0.0657102 -0.0303229 1.00432 
0.0693542 -0.0227803 1.00415 
0.0713628 -0.0171364 1.00403 
0.0721786 -0.0129322 1.00402 
0.073253 -0.00952275 1.00394 
0.0742378 -0.0067084 1.00384 
0.0749507 -0.00431057 1.00376 
0.0753743 -0.00217851 1.0037 
0.0755596 -0.000180374 1.00366 
0.0755114 0.00180508 1.00364 
0.0752127 0.00389547 1.00364 
0.074646 0.00621458 1.00365 
0.0737822 0.00889663 1.00369 
0.072587 0.0120924 1.00374 
0.0710401 0.0159808 1.0038 
0.0690943 0.0207852 1.00385 
0.066613 0.0267937 1.00389 
0.063443 0.0343705 1.00387 
0.0594886 0.0439708 1.00375 
0.0546078 0.0562025 1.00342 
0.0485598 0.0718813 1.00273 
0.0411075 0.092047 1.0014 
0.0320919 0.117987 0.998955 
0.0214453 0.151285 0.994636 
0.00924579 0.193816 0.987212 
-0.0041805 0.247684 0.974758 
-0.0181023 0.314906 0.954377 
-0.0312721 0.396787 0.921983 
-0.042011 0.493007 0.872306 
-0.0486108 0.600631 0.799296 
-0.0496947 0.713812 0.69662 
-0.0443777 0.822969 0.5592 
-0.0326986 0.9147 0.386168 
-0.0160711 0.974248 0.183966 
0.00295545 0.990502 -0.0332669 
0.0214665 0.960441 -0.247315 
0.0367487 0.890062 -0.441199 
0.0466604 0.791781 -0.603632 
0.050091 0.680084 -0.73052 
0.0472233 0.567544 -0.823899 
0.0391584 0.462796 -0.889315 
0.0274584 0.370755 -0.933191 
0.0139028 0.293397 -0.961474 
3.82552e-05 0.230373 -0.97912 
-0.0130868 0.180063 -0.989835 
-0.024838 0.140483 -0.996176 
-0.0349469 0.10961 -0.999832 
-0.0434361 0.0855837 -1.00188 
-0.0504171 0.0668886 -1.003 
-0.0561066 0.052324 -1.00356 
-0.0606973 0.0409302 -1.00381 
-0.0643795 0.0319831 -1.0039 
-0.0673373 0.0249118 -1.00389 
-0.0696984 0.0192807 -1.00385 
-0.0715443 0.0147628 -1.00379 
-0.0729674 0.0110972 -1.00374 
-0.0740457 0.00806736 -1.0037 
-0.0748184 0.00550282 -1.00367 
-0.075336 0.00325561 -1.00367 
-0.0756328 0.00119081 -1.00369 
-0.075787 -0.00081591 -1.00374 
-0.0758421 -0.00288457 -1.00381 
-0.075612 -0.00514178 -1.00391 
-0.0748382 -0.00775397 -1.00406 
-0.0731968 -0.0109176 -1.00417 
-0.0701549 -0.0148871 -1.00362 
-0.073317 -0.0186727 -1.00395 
-0.0622321 -0.0242933 -1.00471 
-0.0694873 -0.0287609 -1.00327 
-0.0623915 -0.0390881 -1.00456 
-0.0579837 -0.0520706 -1.00451 
-0.0497032 -0.0713699 -1.00479 
-0.0466077 -0.0935698 -1.00152 
-0.0316329 -0.126648 -0.995066 
0.0220314 -0.134836 0.994101 
0.0345516 -0.10075 1.00127 
0.035299 -0.0813792 1.00313 
0.0445475 -0.0631653 1.00307 
0.0458367 -0.0494727 1.00477 
0.0480908 -0.0384915 1.00521 
0.0526587 -0.0292161 1.00491 
0.055179 -0.0219369 1.00487 
0.055455 -0.0168049 1.00504 
0.0562602 -0.0125933 1.00502 
0.0572067 -0.00913412 1.00496 
0.0580226 -0.00622602 1.00489 
0.0585509 -0.0036976 1.00484 
0.0588393 -0.00139818 1.00479 
0.0589357 0.000811109 1.00475 
0.0588073 0.00306145 1.00473 
0.058433 0.00548278 1.00473 
0.0578105 0.00821587 1.00474 
0.0569145 0.0114167 1.00476 
0.0557121 0.015262 1.00477 
0.0542002 0.0199635 1.00477 
0.0523188 0.0257904 1.00475 
0.0499161 0.0330909 1.00467 
0.0468952 0.0422911 1.00448 
0.0432278 0.0539122 1.00409 
0.0387875 0.0686619 1.00337 
0.0333894 0.0874618 1.0021 
0.0269353 0.11142 0.999882 
0.0194226 0.141853 0.996121 
0.0109377 0.18031 0.989863 
0.00169327 0.228528 0.979643 
-0.00791132 0.288336 0.963242 
-0.0172026 0.361292 0.937432 
-0.0252274 0.448038 0.897811 
-0.030907 0.547451 0.838849 
-0.0333926 0.655605 0.754476 
-0.0320441 0.765929 0.638295 
-0.0264815 0.867664 0.485903 
-0.0170462 0.946233 0.298761 
-0.005056 0.987238 0.0870194 
0.00763374 0.982367 -0.132089 
0.0191518 0.932885 -0.339219 
0.0278873 0.848753 -0.519143 
0.0327165 0.744284 -0.664134 
0.0333076 0.633407 -0.773769 
0.0300789 0.526468 -0.852592 
0.0237909 0.429576 -0.907081 
0.0153975 0.345683 -0.943493 
0.00597724 0.275518 -0.967097 
-0.00360227 0.218144 -0.982058 
-0.0127389 0.171963 -0.991356 
-0.021017 0.135262 -0.997023 
-0.0282625 0.106299 -1.00041 
-0.0344689 0.0834933 -1.00241 
-0.0396312 0.0655717 -1.00356 
-0.0439418 0.0514951 -1.00419 
-0.0474605 0.0403791 -1.00453 
-0.0503154 0.0315912 -1.0047 
-0.0526445 0.0245994 -1.00476 
-0.054514 0.0189961 -1.00478 
-0.055953 0.0144723 -1.00478 
-0.0570741 0.0107629 -1.00476 
-0.0578961 0.0076627 -1.00476 
-0.0584813 0.00499448 -1.00476 
-0.0588396 0.00260685 -1.00478 
-0.0590277 0.000358082 -1.00481 
-0.0591368 -0.0018791 -1.00485 
-0.0591205 -0.00424095 -1.00492 
-0.0587829 -0.0068962 -1.00501 
-0.057826 -0.0100645 -1.00514 
-0.0560022 -0.0140824 -1.00528 
-0.0546794 -0.0195011 -1.00617 
-0.0481777 -0.0269036 -1.00548 
-0.0530687 -0.0337463 -1.00504 
-0.0460232 -0.0460381 -1.00604 
-0.0430847 -0.060777 -1.00407 
-0.0353854 -0.0801632 -1.00369 
-0.0342605 -0.100621 -1.0015 
-0.0220409 -0.134751 -0.994176 
0.0157919 -0.140938 0.99323 
0.0250501 -0.107044 1.00068 
0.0265422 -0.0837712 1.00323 
0.0346695 -0.0633688 1.00443 
0.0348655 -0.048444 1.00637 
0.0383869 -0.0361036 1.00565 
0.0427088 -0.0276245 1.00454 
0.0424217 -0.0216461 1.0055 
0.0429482 -0.0164632 1.00563 
0.0437071 -0.0122105 1.00561 
0.0445575 -0.00867962 1.00555 
0.0451842 -0.00567238 1.0055 
0.0455373 -0.0030173 1.00545 
0.0457152 -0.000557022 1.00541 
0.0457285 0.00185858 1.00538 
0.0455139 0.00437017 1.00536 
0.0450769 0.0071198 1.00535 
0.0444348 0.0102647 1.00534 
0.0435483 0.0139802 1.00533 
0.0423978 0.0184688 1.00531 
0.0409898 0.023972 1.00525 
0.0392428 0.0308008 1.00514 
0.0370215 0.0393544 1.00494 
0.0343007 0.0500997 1.00457 
0.0310842 0.0636092 1.00391 
0.0272442 0.0806795 1.0028 
0.022673 0.10229 1.00092 
0.0173816 0.129562 0.997823 
0.0114488 0.163811 0.992761 
0.00501567 0.206533 0.984624 
-0.0016882 0.259351 0.971727 
-0.00830871 0.323927 0.951557 
-0.0143147 0.401495 0.920542 
-0.0190463 0.492197 0.873903 
-0.0218612 0.594204 0.805784 
-0.0224087 0.702478 0.710179 
-0.0203317 0.809584 0.580681 
-0.0154787 0.90315 0.414458 
-0.00834489 0.967868 0.216257 
-8.1019e-06 0.990992 -0.000653756 
0.00827851 0.967693 -0.217082 
0.0153524 0.903198 -0.414353 
0.0202672 0.810024 -0.580036 
0.0224668 0.702881 -0.709747 
0.0219515 0.594365 -0.805636 
0.0190958 0.492762 -0.873548 
0.0143657 0.402342 -0.920139 
0.00836575 0.324833 -0.951224 
0.0017662 0.26022 -0.971474 
-0.00494534 0.20725 -0.984458 
-0.01139 0.164385 -0.992661 
-0.0172838 0.130094 -0.997752 
-0.0225291 0.102809 -1.00088 
-0.0270922 0.0811355 -1.00278 
-0.0308934 0.0639776 -1.00392 
-0.0342045 0.0504242 -1.00456 
-0.0368988 0.0396001 -1.00495 
-0.0391054 0.0310061 -1.00516 
-0.0409445 0.0241238 -1.00526 
-0.0424036 0.0185812 -1.00533 
-0.0435316 0.0140558 -1.00535 
-0.0443818 0.0103314 -1.00536 
-0.0450318 0.00716779 -1.00538 
-0.0454544 0.00440537 -1.00539 
-0.045695 0.00188313 -1.00542 
-0.0458187 -0.00054212 -1.00545 
-0.0459152 -0.00300155 -1.00548 
-0.0458994 -0.00565769 -1.00552 
-0.0454943 -0.00870074 -1.00559 
-0.0445595 -0.0123646 -1.00567 
-0.0434808 -0.016976 -1.00581 
-0.0408107 -0.02266 -1.00588 
-0.0367262 -0.0303872 -1.00552 
-0.0408045 -0.0369857 -1.00546 
-0.0350096 -0.0485438 -1.00457 
-0.0322564 -0.0631882 -1.00563 
-0.0260537 -0.0842904 -1.00335 
-0.0248707 -0.106651 -1.00089 
-0.0157721 -0.140774 -0.993263 
0.0115746 -0.145344 0.992574 
0.0185791 -0.110953 1.0003 
0.0198077 -0.0874312 1.00292 
0.0266303 -0.065211 1.00463 
0.0255163 -0.052146 1.00537 
0.0290663 -0.0402198 1.0059 
0.0329046 -0.0291175 1.00658 
0.0328792 -0.0217315 1.00615 
0.0332336 -0.0161626 1.00609 
0.033934 -0.0117468 1.00599 
0.0346472 -0.00811865 1.00591 
0.0350814 -0.00501456 1.00586 
0.0353107 -0.00224636 1.0058 
0.0354276 0.000361442 1.00575 
0.0353826 0.00297272 1.00572 
0.0351079 0.00573651 1.0057 
0.0346632 0.00880743 1.00567 
0.0340525 0.0123552 1.00565 
0.0332228 0.0165737 1.00562 
0.032173 0.0216919 1.00556 
0.0309057 0.027976 1.00544 
0.0293266 0.0357769 1.00526 
0.0273445 0.0455338 1.00493 
0.024992 0.0577405 1.00437 
0.0222645 0.073022 1.00344 
0.019041 0.0922547 1.00192 
0.0152944 0.11644 0.999442 
0.0110991 0.146697 0.995445 
0.00655326 0.184354 0.989077 
0.00179952 0.230882 0.979048 
-0.00296277 0.287861 0.963432 
-0.00744801 0.356849 0.939384 
-0.011261 0.438815 0.90291 
-0.013965 0.533391 0.848778 
-0.0152031 0.637858 0.77083 
-0.0148822 0.74573 0.663423 
-0.0127356 0.8484 0.520714 
-0.00880531 0.93206 0.342477 
-0.0036057 0.981965 0.136358 
0.00208743 0.987798 -0.0819511 
0.00745819 0.948358 -0.292597 
0.0117818 0.872067 -0.478606 
0.0144991 0.772816 -0.630578 
0.0153585 0.664893 -0.746853 
0.0144764 0.55937 -0.831318 
0.0121173 0.462734 -0.890481 
0.00856508 0.377876 -0.930855 
0.00423083 0.305723 -0.957744 
-0.000466662 0.245762 -0.975311 
-0.00525392 0.196513 -0.986677 
-0.00986198 0.156545 -0.993927 
-0.0141088 0.124447 -0.998486 
-0.0179477 0.0987488 -1.00133 
-0.0213106 0.0782031 -1.0031 
-0.0240791 0.0618471 -1.00419 
-0.0267027 0.048905 -1.00477 
-0.0287134 0.0383863 -1.00521 
-0.0304199 0.0300356 -1.00542 
-0.0318277 0.0233573 -1.00557 
-0.0330243 0.0178542 -1.00564 
-0.0337707 0.0134149 -1.00569 
-0.0344863 0.00969677 -1.0057 
-0.0349471 0.00649501 -1.00574 
-0.0352163 0.00365835 -1.00577 
-0.0353448 0.00102175 -1.00579 
-0.035404 -0.00155667 -1.00581 
-0.0355142 -0.0042231 -1.00581 
-0.0354648 -0.00714468 -1.00582 
-0.0349976 -0.0105233 -1.00585 
-0.0342408 -0.014539 -1.00589 
-0.0328811 -0.0193343 -1.00588 
-0.0304382 -0.0252782 -1.00571 
-0.0286315 -0.0321933 -1.00457 
-0.0299613 -0.0412451 -1.00612 
-0.0261058 -0.0553335 -1.0051 
-0.0229786 -0.0712511 -1.0042 
-0.0185429 -0.0921984 -1.00165 
-0.0178857 -0.112648 -1.00012 
-0.01149 -0.145071 -0.992768 
0.0085889 -0.148556 0.992055 
0.0137342 -0.114578 0.99986 
0.0145194 -0.0909252 1.00257 
0.0197395 -0.0700921 1.00408 
0.0190856 -0.0567717 1.00407 
0.0204977 -0.0441918 1.00638 
0.024996 -0.034554 1.00509 
0.025159 -0.0268598 1.00611 
0.0251123 -0.0204915 1.00626 
0.0255272 -0.0152545 1.00621 
0.0261715 -0.0109735 1.00613 
0.0267261 -0.00737057 1.00607 
0.0269715 -0.00422702 1.00603 
0.0271064 -0.00138521 1.00596 
0.0271751 0.00134971 1.00591 
0.0270502 0.00413855 1.00589 
0.0267344 0.00714546 1.00586 
0.0263093 0.0105267 1.00583 
0.0257505 0.0144601 1.00579 
0.0250092 0.019172 1.00574 
0.0240848 0.0249058 1.00563 
0.0229817 0.0319482 1.00547 
0.0216036 0.0406866 1.0052 
0.0199124 0.0515938 1.00474 
0.017966 0.0651807 1.00399 
0.0157329 0.0821299 1.00278 
0.0131201 0.103379 1.00085 
0.0101622 0.129935 0.997754 
0.00695064 0.162928 0.992847 
0.00357557 0.203711 0.985148 
0.00015726 0.253756 0.973183 
-0.00314836 0.314611 0.954769 
-0.00612347 0.387721 0.926706 
-0.00848875 0.473716 0.884593 
-0.00996962 0.571548 0.822861 
-0.0103968 0.677358 0.735395 
-0.00977222 0.783254 0.617412 
-0.00788698 0.879935 0.463848 
-0.00489793 0.953186 0.276424 
-0.00121103 0.989141 0.0648661 
0.00263714 0.979676 -0.153109 
0.00610503 0.92675 -0.357337 
0.00872833 0.841277 -0.532704 
0.010177 0.737905 -0.67254 
0.0103677 0.630274 -0.777348 
0.00944227 0.527972 -0.852325 
0.00756666 0.43589 -0.904385 
0.00492337 0.355885 -0.939749 
0.00180204 0.288321 -0.963252 
-0.00154929 0.232335 -0.978637 
-0.00497267 0.186264 -0.988666 
-0.00826625 0.148802 -0.995109 
-0.0113296 0.118664 -0.999175 
-0.0141395 0.0944162 -1.00176 
-0.0165967 0.0748955 -1.00342 
-0.0185674 0.0592613 -1.00446 
-0.0207858 0.0470016 -1.00489 
-0.0222151 0.0365911 -1.00538 
-0.0233832 0.0287531 -1.00566 
-0.0247186 0.0220508 -1.00575 
-0.0253663 0.0168072 -1.00586 
-0.0259491 0.0124547 -1.0059 
-0.0265557 0.00879191 -1.00591 
-0.0268301 0.00556089 -1.00597 
-0.0269578 0.00266703 -1.00597 
-0.0269749 -5.43349e-05 -1.006 
-0.0270643 -0.00279466 -1.00599 
-0.0271622 -0.00565623 -1.00595 
-0.0271106 -0.00884262 -1.00589 
-0.0265787 -0.0125573 -1.00594 
-0.0257024 -0.0169842 -1.00604 
-0.0242631 -0.0225946 -1.00611 
-0.0220695 -0.0301752 -1.00649 
-0.0232881 -0.0387323 -1.00448 
-0.0215133 -0.0494036 -1.00522 
-0.0183553 -0.064188 -1.00475 
-0.0158293 -0.082239 -1.00341 
-0.0128463 -0.114149 -1.0008 
-0.00830916 -0.14839 -0.992126 
0.00636619 -0.150911 0.991664 
0.0100888 -0.117404 0.999475 
0.0106276 -0.0927523 1.00236 
0.0144997 -0.0722245 1.00395 
0.0146925 -0.0555865 1.00502 
0.0149554 -0.0431791 1.00595 
0.0189812 -0.0341117 1.00613 
0.018811 -0.0260768 1.00643 
0.0189747 -0.0195743 1.00639 
0.0194017 -0.0143908 1.00629 
0.0199876 -0.0101569 1.0062 
0.0203895 -0.00654679 1.00614 
0.0204565 -0.00338363 1.0061 
0.0205745 -0.000484778 1.00601 
0.0205887 0.00234718 1.00597 
0.0204267 0.00530211 1.00596 
0.0201156 0.00853869 1.00592 
0.0197413 0.0121918 1.00588 
0.0192758 0.0164962 1.00584 
0.0186304 0.0216814 1.00576 
0.0178494 0.0279986 1.00562 
0.0169162 0.0357525 1.0054 
0.0157524 0.0453716 1.00505 
0.0143668 0.0573324 1.00446 
0.0128116 0.0721699 1.00352 
0.0110303 0.0906382 1.00204 
0.0089717 0.113712 0.999699 
0.00670706 0.14235 0.995996 
0.0043186 0.177673 0.990215 
0.00187715 0.221024 0.981264 
-0.000524252 0.273771 0.967545 
-0.00277171 0.337299 0.94673 
-0.00471199 0.412818 0.915454 
-0.00616516 0.500478 0.869271 
-0.0069819 0.598885 0.802581 
-0.00709792 0.704027 0.709125 
-0.0064832 0.8081 0.583461 
-0.00497617 0.900934 0.420185 
-0.00275112 0.966679 0.222886 
-0.000123147 0.991226 0.00446816 
0.00250839 0.968548 -0.214417 
0.00476639 0.904051 -0.413258 
0.0063511 0.811115 -0.579145 
0.00707826 0.704926 -0.70822 
0.00696081 0.598396 -0.802985 
0.0061243 0.499464 -0.869893 
0.00465947 0.411521 -0.91608 
0.00269704 0.335751 -0.947328 
0.000444559 0.27221 -0.968017 
-0.00196381 0.219684 -0.981584 
-0.00442984 0.176253 -0.990506 
-0.00678992 0.140944 -0.996236 
-0.00900899 0.112615 -0.999848 
-0.0110773 0.0896092 -1.00221 
-0.0128696 0.0708292 -1.00378 
-0.0142151 0.0557045 -1.00517 
-0.0164481 0.0441287 -1.00434 
-0.0167192 0.0345701 -1.0061 
-0.0183175 0.0264067 -1.00568 
-0.0188083 0.0203226 -1.00587 
-0.019328 0.0152867 -1.00596 
-0.0197158 0.0111022 -1.00601 
-0.0203218 0.00754677 -1.00598 
-0.0203659 0.00423846 -1.00608 
-0.0202519 0.00134717 -1.00614 
-0.0203619 -0.00151449 -1.0061 
-0.02034 -0.00440843 -1.00604 
-0.0204314 -0.00741446 -1.00592 
-0.0203285 -0.0106585 -1.00521 
-0.0197174 -0.0144538 -1.00595 
-0.0190234 -0.0191799 -1.00606 
-0.0178988 -0.0253524 -1.00609 
-0.0161946 -0.0334368 -1.00575 
-0.0179546 -0.0411678 -1.0054 
-0.015533 -0.0545447 -1.0053 
-0.0127108 -0.0720338 -1.00514 
-0.0115223 -0.0957672 -1.00211 
-0.008841 -0.120761 -0.998294 
-0.00602295 -0.150935 -0.9916 
0.00463954 -0.152633 0.991385 
0.00734845 -0.119134 0.999234 
0.00769624 -0.0934655 1.0023 
0.0107975 -0.0723551 1.00402 
0.0107869 -0.0565935 1.00494 
0.0107471 -0.0445441 1.00554 
0.0139018 -0.0329493 1.00695 
0.013875 -0.0246072 1.00652 
0.0140239 -0.0182762 1.00645 
0.0144366 -0.0132531 1.00632 
0.0149681 -0.00909348 1.00619 
0.0151299 -0.00556778 1.00616 
0.0150986 -0.00239429 1.00607 
0.0151674 0.00048931 1.006 
0.0151751 0.00342689 1.00601 
0.0149826 0.00658099 1.00598 
0.0146557 0.0100147 1.00595 
0.0143979 0.0139783 1.00592 
0.0139921 0.0186943 1.00586 
0.0134497 0.0243908 1.00575 
0.0128136 0.031319 1.00557 
0.0120534 0.0398329 1.00529 
0.0111116 0.0503656 1.00483 
0.0100347 0.0634071 1.0041 
0.00884119 0.0795562 1.00296 