# vtk DataFile Version 3.0 
Exported using Morpho https://github.com/Morpho-lang/morpho 
ASCII 
DATASET UNSTRUCTURED_GRID 

POINTS 1978 float 
-8.48528 -2.82843 -7.87951e-14 
-8.25942 -2.82843 9.07491e-14 
-8.03809 -2.82843 -5.51724e-15 
-7.79061 -2.82843 -3.61382e-15 
-7.4997 -2.82843 -2.57103e-15 
-7.25306 -2.82843 -4.39424e-16 
-7.01147 -2.82843 -1.04874e-15 
-6.78624 -2.82843 -8.56083e-16 
-6.56601 -2.82843 -1.9209e-17 
-6.35116 -2.82843 4.01072e-16 
-6.14374 -2.82843 1.53445e-15 
-5.91889 -2.82843 6.76984e-16 
-5.7087 -2.82843 1.68441e-15 
-5.5099 -2.82843 1.94546e-15 
-5.28895 -2.82843 -8.69208e-17 
-5.08301 -2.82843 -9.99156e-16 
-4.86693 -2.82843 -1.2069e-15 
-4.6604 -2.82843 1.49145e-15 
-4.44351 -2.82843 4.80101e-15 
-4.22908 -2.82843 9.22533e-15 
-4.01665 -2.82843 3.91997e-15 
-3.81456 -2.82843 -1.61327e-14 
-3.60529 -2.82843 -6.61574e-14 
-3.39476 -2.82843 -1.89113e-13 
-3.17446 -2.82843 -5.52931e-13 
-2.95847 -2.82843 -1.5173e-12 
-2.73509 -2.82843 -3.87223e-12 
-2.51589 -2.82843 -1.01203e-11 
-2.2834 -2.82843 -2.84918e-11 
-2.04747 -2.82843 -6.26475e-11 
-1.8552 -2.82843 -1.39913e-10 
-1.6487 -2.82843 -3.56206e-10 
-1.47739 -2.82843 -5.08793e-10 
-1.32228 -2.82843 -7.0594e-10 
-1.17654 -2.82843 -1.87122e-09 
-1.00875 -2.82843 -4.31903e-09 
-0.846689 -2.82843 -1.08722e-08 
-0.631168 -2.82843 -2.02193e-08 
-0.407991 -2.82843 7.2759e-09 
0.245932 -2.82843 3.8288e-08 
0.441635 -2.82843 1.87554e-08 
0.69438 -2.82843 2.2817e-08 
0.853342 -2.82843 5.22914e-09 
0.975599 -2.82843 1.44938e-09 
1.15395 -2.82843 1.93319e-09 
1.30717 -2.82843 1.08182e-09 
1.47913 -2.82843 6.37872e-10 
1.67798 -2.82843 3.34751e-10 
1.87624 -2.82843 1.48251e-10 
2.10149 -2.82843 6.29941e-11 
2.31566 -2.82843 2.17273e-11 
2.52319 -2.82843 8.56697e-12 
2.73554 -2.82843 4.3478e-12 
2.95788 -2.82843 7.89265e-13 
3.18464 -2.82843 4.50355e-13 
3.39775 -2.82843 1.5748e-13 
3.61619 -2.82843 5.11748e-14 
3.82002 -2.82843 1.99496e-14 
4.03084 -2.82843 -1.52439e-15 
4.25048 -2.82843 -1.12196e-14 
4.44998 -2.82843 -7.06941e-15 
4.66434 -2.82843 -5.48232e-16 
4.86692 -2.82843 2.66395e-15 
5.07996 -2.82843 1.65556e-15 
5.28805 -2.82843 -3.24936e-16 
5.50548 -2.82843 -2.54699e-15 
5.71084 -2.82843 -2.16809e-15 
5.92852 -2.82843 -1.01377e-15 
6.1512 -2.82843 -6.12638e-16 
6.35379 -2.82843 -1.90287e-16 
6.58849 -2.82843 -1.93695e-16 
6.80431 -2.82843 1.13544e-16 
7.00557 -2.82843 1.29797e-15 
7.2723 -2.82843 8.86439e-16 
7.50497 -2.82843 1.54501e-15 
7.74542 -2.82843 3.76776e-15 
8.02622 -2.82843 5.71151e-15 
8.21304 -2.82843 -2.96968e-13 
8.48528 -2.82845 1.68841e-10 
-8.48528 -2.59128 1.80166e-12 
-8.25452 -2.59068 -3.72968e-12 
-8.02725 -2.58571 -4.9128e-15 
-7.79411 -2.61289 3.56948e-17 
-7.54514 -2.64357 7.39602e-18 
-7.25152 -2.60881 7.31067e-19 
-6.99756 -2.60509 -1.30884e-18 
-6.77421 -2.59487 -2.22514e-18 
-6.54226 -2.59431 2.49667e-18 
-6.32471 -2.58457 3.2789e-18 
-6.09361 -2.60527 3.28797e-18 
-5.87489 -2.58884 7.91084e-18 
-5.66611 -2.57492 1.92291e-17 
-5.44544 -2.6021 3.96013e-17 
-5.22983 -2.58557 9.80103e-17 
-5.01151 -2.5973 2.29246e-16 
-4.79752 -2.58717 5.55847e-16 
-4.57995 -2.59927 9.33486e-16 
-4.36017 -2.59771 2.4096e-15 
-4.14327 -2.59622 6.29058e-15 
-3.93426 -2.58411 1.6231e-14 
-3.725 -2.59101 4.28697e-14 
-3.51143 -2.59038 1.13788e-13 
-3.29267 -2.59849 3.07241e-13 
-3.07063 -2.59045 8.13036e-13 
-2.84844 -2.59751 2.17109e-12 
-2.62188 -2.59251 5.68748e-12 
-2.39138 -2.60868 1.6036e-11 
-2.1451 -2.61617 4.63783e-11 
-1.91686 -2.57954 1.15718e-10 
-1.70555 -2.60753 2.91132e-10 
-1.50611 -2.59584 6.00469e-10 
-1.36415 -2.53166 8.02934e-10 
-1.2252 -2.57917 1.82898e-09 
-1.07106 -2.63682 4.63642e-09 
-0.89057 -2.44464 4.78586e-09 
-0.908607 -2.6302 7.27967e-09 
-0.732637 -2.68752 1.80633e-08 
-0.238027 -2.77768 -7.16836e-08 
0.119807 -2.70953 1.36171e-08 
0.347652 -2.68783 -2.12787e-08 
0.590588 -2.70867 -2.81929e-08 
0.795318 -2.65606 -1.14988e-08 
0.90881 -2.55756 -1.72498e-09 
1.05412 -2.61906 -3.22426e-09 
1.20739 -2.56264 -1.81615e-09 
1.38187 -2.59743 -1.07504e-09 
1.57847 -2.62298 -5.35903e-10 
1.78672 -2.60288 -2.39542e-10 
2.01799 -2.62167 -8.68737e-11 
2.26552 -2.60064 -2.8923e-11 
2.49731 -2.59311 -1.00385e-11 
2.7327 -2.59231 -4.17647e-12 
2.96788 -2.59787 -6.49818e-13 
3.19363 -2.59011 -4.26873e-13 
3.42282 -2.59895 -1.61135e-13 
3.63588 -2.58473 -5.81906e-14 
3.85215 -2.59398 -2.26357e-14 
4.07611 -2.60404 -8.32923e-15 
4.28405 -2.58101 -2.98089e-15 
4.4997 -2.59824 -1.20747e-15 
4.70935 -2.58388 -7.09535e-16 
4.92495 -2.59601 -3.06836e-16 
5.13913 -2.58995 -1.33423e-16 
5.3596 -2.60016 -5.49455e-17 
5.57387 -2.58555 -2.56721e-17 
5.79225 -2.59801 -9.70971e-18 
6.01865 -2.60113 -4.13688e-18 
6.23489 -2.57572 -4.62037e-18 
6.45718 -2.60808 3.2632e-19 
6.6852 -2.58591 -1.48635e-18 
6.89637 -2.56547 -9.5558e-19 
7.12765 -2.62893 2.52864e-18 
7.37942 -2.59667 -2.25547e-18 
7.61425 -2.60473 -2.75064e-18 
7.87495 -2.63679 -4.72222e-17 
8.08176 -2.53922 4.69135e-15 
8.30256 -2.62705 1.52636e-11 
8.48528 -2.53024 -9.69674e-10 
-8.48528 -2.34431 -6.62387e-11 
-8.25011 -2.35314 -8.07362e-12 
-8.00784 -2.35144 -1.11996e-14 
-7.77162 -2.39091 -2.31647e-17 
-7.56687 -2.2431 1.70637e-17 
-7.49 -2.45562 -1.37752e-17 
-7.19667 -2.40732 -2.40573e-18 
-6.96882 -2.35987 8.77852e-19 
-6.72673 -2.37468 7.1402e-19 
-6.5004 -2.35433 -1.88478e-19 
-6.25823 -2.36879 1.64697e-19 
-6.03956 -2.36537 1.19617e-18 
-5.82208 -2.34285 2.591e-18 
-5.58798 -2.35461 5.49759e-18 
-5.37441 -2.36229 1.01709e-17 
-5.14474 -2.35977 2.1762e-17 
-4.92934 -2.35817 4.31002e-17 
-4.704 -2.36228 1.29017e-16 
-4.48426 -2.37165 3.51569e-16 
-4.26288 -2.36766 7.74856e-16 
-4.05082 -2.35296 8.69161e-16 
-3.83525 -2.3495 2.08358e-15 
-3.62217 -2.35665 6.25894e-15 
-3.40061 -2.36294 2.10049e-14 
-3.18038 -2.36453 5.77533e-14 
-2.95065 -2.36002 1.6014e-13 
-2.72703 -2.36525 4.91765e-13 
-2.49064 -2.37286 1.78467e-12 
-2.25519 -2.40133 6.02555e-12 
-2.02759 -2.37104 9.15001e-12 
-1.78781 -2.36581 1.80469e-11 
-1.59137 -2.36882 -2.37097e-11 
-1.38209 -2.32119 -1.08372e-10 
-1.18659 -2.31699 -2.68907e-10 
-1.05831 -2.4287 -4.54603e-10 
-0.815952 -2.28104 -4.36647e-09 
-0.718405 -2.52421 -2.18326e-09 
-0.537856 -2.68108 2.02565e-08 
-0.345555 -2.65076 2.36045e-08 
-0.108907 -2.72506 1.01629e-08 
0.284064 -2.55853 -2.55516e-08 
0.510007 -2.5811 -1.49598e-08 
0.717255 -2.51919 -1.6904e-09 
0.840961 -2.36091 7.18478e-10 
1.0172 -2.37033 -5.9357e-10 
1.19111 -2.33274 1.03538e-10 
1.3782 -2.35969 3.2212e-11 
1.55661 -2.40151 -4.28908e-11 
1.74744 -2.38226 3.52582e-12 
1.96614 -2.40795 -1.0994e-11 
2.20193 -2.39909 -5.49493e-12 
2.44929 -2.36297 -1.34351e-12 
2.68016 -2.36873 -5.08653e-13 
2.92195 -2.37175 -1.96524e-13 
3.15052 -2.3561 -6.52514e-14 
3.37308 -2.36864 -2.48458e-14 
3.58929 -2.3466 -7.97968e-15 
3.80188 -2.35691 -2.97721e-15 
4.01579 -2.37574 -1.57944e-15 
4.22511 -2.34624 -6.17289e-16 
4.44116 -2.36038 -2.91385e-16 
4.64711 -2.34838 -1.34561e-16 
4.86295 -2.35934 -5.2543e-17 
5.07406 -2.35587 -2.62976e-17 
5.29254 -2.3684 -1.24452e-17 
5.50624 -2.35347 -6.37923e-18 
5.72709 -2.36108 -2.99597e-18 
5.94604 -2.3735 -1.29925e-18 
6.16427 -2.34636 -4.70773e-19 
6.3975 -2.36367 -1.06499e-20 
6.61114 -2.36246 2.56848e-19 
6.83502 -2.31979 2.77216e-19 
7.06846 -2.38037 3.90009e-19 
7.28895 -2.39599 6.06119e-18 
7.54812 -2.36889 3.26242e-18 
7.78744 -2.41805 5.10647e-17 
8.00056 -2.32248 -1.51917e-14 
8.26072 -2.35902 -1.93498e-11 
8.48528 -2.28393 9.51263e-10 
-8.48528 -2.11237 -1.75998e-10 
-8.24258 -2.12079 -1.84471e-11 
-8.03619 -2.09321 1.85382e-14 
-7.80451 -2.14933 -1.38644e-17 
-7.49737 -2.03473 -3.23769e-17 
-7.31254 -2.24107 2.94014e-18 
-7.06683 -2.14068 -2.70856e-18 
-6.81141 -2.14756 1.34215e-18 
-6.59182 -2.12913 -4.19177e-19 
-6.35146 -2.14548 -4.36866e-19 
-6.12821 -2.12508 2.04837e-21 
-5.91819 -2.11278 6.30816e-19 
-5.68908 -2.12906 1.14864e-18 
-5.46734 -2.11693 5.02893e-20 
-5.25352 -2.13716 -1.95874e-18 
-5.03487 -2.12163 -1.2479e-17 
-4.8173 -2.13352 -4.34865e-17 
-4.59794 -2.13625 -1.20505e-16 
-4.38458 -2.14148 -2.45846e-16 
-4.17602 -2.12374 -5.17242e-16 
-3.96456 -2.11759 -7.72199e-16 
-3.75204 -2.11596 -2.52184e-15 
-3.53767 -2.12947 -8.44419e-15 
-3.32075 -2.13002 -2.82767e-14 
-3.09866 -2.13621 -8.80345e-14 
-2.87249 -2.12571 -2.64095e-13 
-2.6435 -2.14383 -7.92342e-13 
-2.40149 -2.15857 -2.19401e-12 
-2.18031 -2.16345 -5.42502e-12 
-1.92866 -2.16046 -1.53312e-11 
-1.70403 -2.12798 -3.70871e-11 
-1.50582 -2.1395 -7.48361e-11 
-1.27466 -2.10363 -6.15123e-11 
-1.09447 -2.07938 -9.38756e-11 
-0.987255 -2.22423 -9.99479e-11 
-0.864988 -2.05986 2.51484e-10 
-0.651679 -2.37685 5.07202e-09 
-0.506326 -2.52562 1.09901e-08 
-0.240467 -2.51823 1.23598e-08 
0.0793626 -2.57679 -4.69521e-09 
0.37865 -2.42553 -3.946e-09 
0.570991 -2.43042 -7.66281e-09 
0.694622 -2.29982 6.07934e-09 
0.853362 -2.1239 -1.1259e-09 
1.00704 -2.15195 3.18558e-10 
1.15238 -2.06621 7.52275e-11 
1.33317 -2.13718 1.07822e-10 
1.54169 -2.16297 5.54874e-11 
1.7648 -2.16512 2.36537e-11 
2.00183 -2.19564 1.17922e-11 
2.2456 -2.17971 4.0591e-12 
2.48541 -2.13063 1.2901e-12 
2.73058 -2.15254 4.09559e-13 
2.96053 -2.13838 1.55913e-13 
3.18962 -2.12508 4.4658e-14 
3.40609 -2.13014 1.49187e-14 
3.62561 -2.11228 5.35571e-15 
3.84222 -2.12769 1.63018e-15 
4.04806 -2.13373 7.68393e-16 
4.27245 -2.12071 4.59101e-16 
4.47727 -2.116 2.0139e-16 
4.6965 -2.12046 7.27655e-17 
4.90731 -2.12149 2.86319e-17 
5.12798 -2.12904 7.42118e-18 
5.33907 -2.12941 2.00753e-18 
5.56293 -2.12585 -2.32486e-19 
5.78319 -2.13102 -1.55303e-19 
5.99674 -2.13235 -8.85514e-20 
6.23707 -2.13034 -2.78857e-19 
6.45134 -2.11635 1.21887e-19 
6.665 -2.11603 2.09618e-19 
6.92423 -2.11402 -2.70915e-18 
7.13978 -2.14118 2.95711e-18 
7.37221 -2.17937 -1.18571e-18 
7.5679 -2.0847 4.11582e-18 
7.75341 -2.18263 3.88893e-19 
7.96559 -2.0825 -2.69681e-15 
8.195 -2.14008 1.74252e-12 
8.48528 -2.1008 1.28234e-09 
-8.48528 -1.82246 4.59459e-10 
-8.30542 -1.88419 -1.32091e-10 
-7.89247 -1.89143 -1.08486e-16 
[...]
POINT_DATA 1978 
VECTORS vectors float
-0.00372541 -0.00790065 0.999962 
0.000815419 -0.000712843 0.999999 
-0.000148103 -0.000464971 1 
2.91786e-06 -0.000355202 1 
-2.99434e-06 -0.000307961 1 
-1.73707e-06 -0.000277398 1 
-1.89018e-06 -0.000243625 1 
-2.16122e-06 -0.000206673 1 
-2.72285e-06 -0.000160446 1 
-3.44718e-06 -0.000101777 1 
-4.42973e-06 -2.92295e-05 1 
-5.0108e-06 6.60131e-05 1 
-6.35006e-06 0.000176126 1 
-7.8804e-06 0.000305271 1 
-9.35061e-06 0.000490059 1 
-1.24483e-05 0.000719863 1 
-1.52372e-05 0.00103681 0.999999 
-2.01455e-05 0.00143692 0.999999 
-2.58774e-05 0.0019981 0.999998 
-3.50207e-05 0.00276478 0.999996 
-4.82577e-05 0.00383918 0.999993 
-6.64349e-05 0.00528133 0.999986 
-8.95996e-05 0.00735906 0.999973 
-0.000121085 0.0102422 0.999948 
-0.000165489 0.0144254 0.999896 
-0.000228011 0.0201906 0.999796 
-0.000303827 0.0284167 0.999596 
-0.000427737 0.0395803 0.999216 
-0.000535651 0.0558457 0.998439 
-0.000790006 0.0795178 0.996833 
-0.00109357 0.10676 0.994284 
-0.00127016 0.1467 0.98918 
-0.00248185 0.198288 0.980141 
-0.00296152 0.245271 0.96945 
-0.00304494 0.30887 0.951099 
-0.00414685 0.39612 0.918189 
-0.00468292 0.507045 0.861907 
-0.00467036 0.678684 0.734416 
-0.00275415 0.842815 0.538197 
-0.0013301 0.95316 -0.302465 
0.0047741 0.824118 -0.566398 
0.00399897 0.609651 -0.79266 
0.00597025 0.504746 -0.863247 
0.00503027 0.417458 -0.908682 
0.00270615 0.31684 -0.948475 
0.00279529 0.247005 -0.96901 
0.0017705 0.190169 -0.98175 
0.00130348 0.141167 -0.989985 
0.00105951 0.104049 -0.994572 
0.00071855 0.073715 -0.997279 
0.000546245 0.0530717 -0.998591 
0.000401688 0.0387216 -0.99925 
0.000310177 0.0279868 -0.999608 
0.00021228 0.019617 -0.999808 
0.000153988 0.0139826 -0.999902 
0.000121526 0.0100632 -0.999949 
8.46123e-05 0.00713625 -0.999975 
6.54822e-05 0.00517151 -0.999987 
4.53759e-05 0.00371068 -0.999993 
3.39016e-05 0.00263722 -0.999997 
2.57682e-05 0.00193167 -0.999998 
1.83283e-05 0.00139779 -0.999999 
1.54452e-05 0.00101843 -0.999999 
1.19251e-05 0.0007086 -1 
9.78697e-06 0.000472682 -1 
7.56501e-06 0.000286103 -1 
6.20216e-06 0.000154445 -1 
4.80482e-06 4.76202e-05 -1 
4.26452e-06 -4.26525e-05 -1 
3.40277e-06 -0.00011231 -1 
2.53328e-06 -0.000174804 -1 
2.20946e-06 -0.000219555 -1 
1.79865e-06 -0.000252713 -1 
1.63949e-06 -0.000287315 -1 
2.74443e-06 -0.000319377 -1 
-1.00043e-05 -0.000360247 -1 
0.000193195 -0.000473096 -1 
-0.00122944 -0.000563874 -0.999999 
0.00408809 -0.00959726 -0.999948 
-0.035794 -0.0335009 0.998797 
-0.0027355 -0.0029773 0.999992 
-0.000341743 -0.00064748 1 
-0.000119617 -0.000412109 1 
-5.53476e-05 -0.000322556 1 
-4.51485e-05 -0.000268848 1 
-4.87798e-05 -0.000226764 1 
-6.00457e-05 -0.000181049 1 
-7.6538e-05 -0.000126128 1 
-9.71202e-05 -6.00782e-05 1 
-0.000115224 2.22318e-05 1 
-0.00014585 0.000125589 1 
-0.000178629 0.000248454 1 
-0.000201809 0.000404782 1 
-0.000252134 0.000618078 1 
-0.000299567 0.000897207 1 
-0.000375069 0.00127369 0.999999 
-0.000458486 0.00178001 0.999998 
-0.000591716 0.00249822 0.999997 
-0.000776791 0.00349189 0.999994 
-0.00103319 0.004848 0.999988 
-0.0013377 0.00668294 0.999977 
-0.00175421 0.00928625 0.999955 
-0.00227819 0.0129474 0.999914 
-0.00301032 0.018179 0.99983 
-0.00386942 0.0253228 0.999672 
-0.00495357 0.0354355 0.99936 
-0.00617477 0.0495991 0.99875 
-0.0081516 0.0708714 0.997452 
-0.0102926 0.0992078 0.995014 
-0.012705 0.136157 0.990606 
-0.0146977 0.188977 0.981872 
-0.0112968 0.235896 0.971713 
-0.0152464 0.290882 0.956638 
-0.021007 0.369256 0.92909 
0.0226838 0.44498 0.895253 
-0.0196096 0.468205 0.883402 
-0.0181061 0.602775 0.797706 
0.00214686 0.9328 0.360386 
-0.00527707 0.98738 -0.158283 
-0.000128095 0.870706 -0.491804 
0.0203844 0.694688 -0.719022 
0.0147204 0.54462 -0.838554 
0.00713175 0.44826 -0.893875 
0.0167508 0.36505 -0.930837 
0.0128018 0.291304 -0.956545 
0.0145108 0.229523 -0.973195 
0.0143345 0.170742 -0.985212 
0.0121857 0.124299 -0.99217 
0.00926417 0.0873935 -0.996131 
0.00689225 0.0598838 -0.998182 
0.00549593 0.0421361 -0.999097 
0.00430802 0.029501 -0.999555 
0.00318775 0.0205692 -0.999783 
0.00248388 0.014729 -0.999888 
0.00189195 0.0104161 -0.999944 
0.00147697 0.00755078 -0.99997 
0.00109578 0.00538928 -0.999985 
0.00080211 0.00379292 -0.999992 
0.000642472 0.00277157 -0.999996 
0.00048428 0.00197243 -0.999998 
0.000397248 0.00143313 -0.999999 
0.000316992 0.00101267 -0.999999 
0.000265182 0.000704796 -1 
0.000214396 0.000461293 -1 
0.000183794 0.000288591 -1 
0.000148042 0.000150295 -1 
0.000120805 4.07683e-05 -1 
0.000105266 -3.95859e-05 -1 
7.81944e-05 -0.000115103 -1 
6.51965e-05 -0.000170961 -1 
5.63734e-05 -0.000213505 -1 
4.17997e-05 -0.000258329 -1 
4.93093e-05 -0.000299625 -1 
7.1247e-05 -0.000354317 -1 
0.00014136 -0.000461502 -1 
0.000473299 -0.000819188 -1 
0.00392333 -0.00444391 -0.999982 
0.0496983 -0.0501433 -0.997509 
-0.0448772 -0.0459306 0.997936 
-0.0034579 -0.0038836 0.999986 
-0.000446869 -0.000771486 1 
-0.000169215 -0.00045137 1 
-0.000108834 -0.000356469 1 
-7.7302e-05 -0.000317184 1 
-6.29428e-05 -0.000251632 1 
-6.88171e-05 -0.000202395 1 
-8.18013e-05 -0.00014914 1 
-0.000102592 -8.52545e-05 1 
-0.000129185 -6.91098e-06 1 
-0.000157429 8.24523e-05 1 
-0.000190633 0.000195666 1 
-0.000227387 0.000343918 1 
-0.000265672 0.000521664 1 
-0.00031633 0.00078093 1 
-0.000375605 0.00111219 0.999999 
-0.000457434 0.00158606 0.999999 
-0.000565442 0.00222358 0.999997 
-0.00070907 0.00312807 0.999995 
-0.000882594 0.00433997 0.99999 
-0.00111119 0.0060216 0.999981 
-0.00140805 0.00828116 0.999965 
-0.00178851 0.0115165 0.999932 
-0.00223572 0.0159746 0.99987 
-0.00273146 0.0224034 0.999745 
-0.00329415 0.0310083 0.999514 
-0.00393401 0.043691 0.999037 
-0.00491952 0.0615096 0.998094 
-0.0041471 0.0851522 0.996359 
-0.00274934 0.121105 0.992636 
-0.00113399 0.162452 0.986716 
0.0111347 0.215239 0.976498 
0.0224971 0.284667 0.958363 
0.0128668 0.353605 0.935306 
0.0740783 0.459661 0.885 
0.0185285 0.565198 0.824747 
-0.000669271 0.743861 0.668334 
0.011924 0.881363 0.472289 
-0.00452601 0.985334 0.170577 
-0.0248345 0.921846 -0.38676 
-0.00808797 0.741412 -0.671002 
-0.019491 0.572984 -0.819335 
-0.0485663 0.458235 -0.887503 
-0.0247088 0.370223 -0.928614 
-0.0182345 0.286762 -0.957828 
-0.00791786 0.217993 -0.975918 
0.00195155 0.171684 -0.98515 
0.00247578 0.129442 -0.991584 
0.0051677 0.0949243 -0.995471 
0.0046538 0.0665312 -0.997774 
0.0035688 0.0457286 -0.998948 
0.00335593 0.0324594 -0.999467 
0.00271637 0.0227701 -0.999737 
0.00215493 0.0163482 -0.999864 
0.00181764 0.0117813 -0.999929 
0.00140388 0.00856636 -0.999962 
0.00111521 0.00621446 -0.99998 
0.000886793 0.00447519 -0.99999 
0.00069143 0.00327379 -0.999994 
0.000556287 0.00233754 -0.999997 
0.000456595 0.0017035 -0.999998 
0.000381193 0.00120948 -0.999999 
0.000323319 0.000857776 -1 
0.000273572 0.000583586 -1 
0.00023407 0.000387693 -1 
0.000197309 0.000230767 -1 
0.000164574 0.000110079 -1 
0.000138235 1.99006e-05 -1 
0.000110212 -6.52882e-05 -1 
8.94629e-05 -0.000128152 -1 
7.48616e-05 -0.00017985 -1 
6.30918e-05 -0.000234149 -1 
6.32821e-05 -0.000279289 -1 
9.20265e-05 -0.00035058 -1 
0.000166403 -0.000468875 -1 
0.000412934 -0.000783462 -1 
0.00365511 -0.00452079 -0.999983 
0.0387855 -0.0482166 -0.998087 
-0.0625146 -0.0679301 0.995729 
-0.004346 -0.00516628 0.999977 
-0.000583765 -0.000990818 0.999999 
-0.000220884 -0.000529082 1 
-0.000103041 -0.000339344 1 
-7.4439e-05 -0.000273158 1 
-7.40153e-05 -0.000210959 1 
-8.50817e-05 -0.00014981 1 
-0.000103802 -8.71552e-05 1 
-0.000130428 -9.72842e-06 1 
-0.000162165 8.08156e-05 1 
-0.000194745 0.000181526 1 
-0.000230624 0.000312727 1 
-0.000271286 0.000482793 1 
-0.000310476 0.000693508 1 
-0.000360479 0.000993052 0.999999 
-0.000416963 0.00139643 0.999999 
-0.00049051 0.00196132 0.999998 
-0.000583775 0.00271826 0.999996 
-0.000692756 0.00373695 0.999993 
-0.000824519 0.00512707 0.999987 
-0.00097503 0.00700505 0.999975 
-0.00115397 0.00955265 0.999954 
-0.00131225 0.0130581 0.999914 
-0.00144478 0.0179445 0.999838 
-0.00138825 0.0246838 0.999694 
-0.00125761 0.0341011 0.999418 
-0.000720427 0.0479897 0.998848 
0.000513566 0.0654155 0.997858 
0.00368991 0.0930393 0.995656 
0.0099959 0.125612 0.992029 
0.0173004 0.164234 0.98627 
0.0367436 0.221133 0.974551 
0.0591825 0.278229 0.95869 
0.0567924 0.358118 0.931948 
0.105203 0.357584 0.927937 
0.0602115 0.606123 0.793089 
0.041663 0.756156 0.653064 
0.0278886 0.935489 0.352253 
-0.00926062 0.996021 -0.0886346 
-0.0614443 0.815447 -0.575561 
-0.0560633 0.665247 -0.744515 
-0.0800547 0.552156 -0.829888 
-0.0870466 0.385181 -0.918726 
-0.0576679 0.324845 -0.944008 
-0.0514131 0.253501 -0.965968 
-0.0291208 0.212936 -0.976632 
-0.0150445 0.159476 -0.987087 
-0.00752624 0.116264 -0.99319 
-0.00206704 0.0842435 -0.996443 
-0.000188976 0.059324 -0.998239 
0.000478343 0.0418044 -0.999126 
0.00130277 0.0297863 -0.999555 
0.00134441 0.0214359 -0.999769 
0.00130633 0.0154384 -0.99988 
0.00121984 0.0113262 -0.999935 
0.00102528 0.00824515 -0.999965 
0.000865952 0.00601041 -0.999982 
0.000724609 0.00443534 -0.99999 
0.000593567 0.0031645 -0.999995 
0.000504639 0.0023159 -0.999997 
0.000431406 0.00164998 -0.999999 
0.000375814 0.00118624 -0.999999 
0.000326059 0.000830701 -1 
0.000284302 0.000581689 -1 
0.000243946 0.000384654 -1 
0.000206802 0.000236161 -1 
0.00017436 0.000123758 -1 
0.000141538 2.15503e-05 -1 
0.000116544 -5.26783e-05 -1 
9.50726e-05 -0.000117942 -1 
7.68552e-05 -0.000186038 -1 
7.0033e-05 -0.000238912 -1 
7.69508e-05 -0.00029864 -1 
0.00011086 -0.00037653 -1 
0.000177391 -0.00049008 -1 
0.000394228 -0.000819515 -1 
0.00222504 -0.00313455 -0.999993 
0.0464374 -0.058216 -0.997226 
-0.071366 -0.104731 0.991937 
-0.00737424 -0.0106215 0.999916 
-0.000317589 -0.000727356 1 
-0.000162804 -0.000460064 1 
-9.45552e-05 -0.000320791 1 
-7.86762e-05 -0.000259178 1 
-7.81441e-05 -0.000222374 1 
-8.25952e-05 -0.000171029 1 
-0.000100434 -0.000101092 1 
-0.000125065 -2.80256e-05 1 
-0.000155958 5.72995e-05 1 
-0.000190547 0.000155733 1 
-0.000227964 0.000271227 1 
-0.000267914 0.000416595 1 
-0.00031207 0.000614573 1 
-0.000353391 0.00085545 1 
-0.000402124 0.0012141 0.999999 
-0.000454629 0.00169429 0.999998 
-0.000514748 0.00235879 0.999997 
-0.000577011 0.00321835 0.999995 
-0.000645342 0.00440321 0.99999 
-0.000716505 0.00599068 0.999982 
-0.000788002 0.00813931 0.999967 
-0.000831031 0.01096 0.99994 
-0.000790992 0.0148879 0.999889 
-0.000576802 0.0201521 0.999797 
-2.96219e-05 0.0277016 0.999616 
0.000871054 0.0382105 0.999269 
0.00298226 0.0518959 0.998648 
0.00608288 0.0722107 0.997371 
0.0130736 0.0968191 0.995216 
0.0243515 0.125252 0.991826 
0.0370971 0.166841 0.985286 
0.0673892 0.202801 0.976898 
0.0986644 0.265029 0.959179 
0.155796 0.312698 0.936989 
0.122463 0.495772 0.859775 
0.113296 0.655765 0.746416 
0.0859077 0.827701 0.554555 
0.00705472 0.991995 0.12608 
-0.0619333 0.931155 -0.359326 
-0.124534 0.653253 -0.746828 
-0.117388 0.476208 -0.871462 
-0.136145 0.326402 -0.935375 
-0.0954339 0.269397 -0.958289 
-0.0756238 0.200964 -0.976675 
-0.0463256 0.178727 -0.982808 
-0.0283619 0.146909 -0.988743 
-0.0170048 0.112437 -0.993513 
-0.00860345 0.0832872 -0.996488 
-0.00433743 0.0606948 -0.998147 
-0.00214837 0.0435494 -0.999049 
-0.000352316 0.0310456 -0.999518 
0.000326772 0.0226858 -0.999743 
0.000648761 0.0165376 -0.999863 
0.000769863 0.0120972 -0.999927 
0.000762259 0.00900562 -0.999959 
0.000698664 0.00658713 -0.999978 
0.000617999 0.00487405 -0.999988 
0.000558444 0.00359263 -0.999993 
0.000489023 0.00259029 -0.999997 
0.000445672 0.00187982 -0.999998 
0.000400349 0.001352 -0.999999 
0.000358485 0.00096875 -0.999999 
0.000317355 0.000689597 -1 
0.000276597 0.000481683 -1 
0.000235725 0.000316719 -1 
0.000199382 0.000191839 -1 
0.000164343 8.40948e-05 -1 
0.000134487 -6.05351e-07 -1 
0.000108912 -7.4849e-05 -1 
8.78847e-05 -0.000146102 -1 
7.53576e-05 -0.000212459 -1 
7.76018e-05 -0.000277702 -1 
0.000107136 -0.000373772 -1 
0.00021191 -0.000579019 -1 
0.000595051 -0.00123743 -0.999999 
0.00496912 -0.00756609 -0.999959 
0.0578819 -0.0896843 -0.99429 
-0.0458954 -0.104208 0.993496 
-0.00532174 -0.0110646 0.999925 
-0.000880564 -0.00163001 0.999998 
-0.000288959 -0.000794486 1 
-0.000146397 -0.000475078 1 
-7.65414e-05 -0.000262766 1 
-7.94122e-05 -0.000173706 1 
-9.13946e-05 -0.00011994 1 
-0.000116216 -3.6158e-05 1 
-0.000142805 4.22574e-05 1 
-0.000173888 0.000135876 1 
-0.000211852 0.000248301 1 
-0.000249328 0.000376111 1 
-0.000288896 0.000541189 1 
-0.000326827 0.000762459 1 
-0.000365306 0.00104081 0.999999 
-0.00040199 0.00144656 0.999999 
-0.00043535 0.00198382 0.999998 
-0.000454426 0.00268828 0.999996 
-0.000467097 0.00363951 0.999993 
-0.000463228 0.00492082 0.999988 
-0.00044241 0.006622 0.999978 
-0.000377216 0.00881406 0.999961 
-0.000254639 0.0117393 0.999931 
5.66653e-05 0.0155983 0.999878 
0.000613715 0.0209577 0.99978 
0.00171921 0.0283829 0.999596 
0.00345532 0.0378529 0.999277 
0.00692134 0.0520349 0.998621 
0.0120529 0.0695285 0.997507 
0.0222477 0.0893307 0.995754 
0.0388178 0.116306 0.992455 
0.0582728 0.146429 0.987503 
0.0925607 0.152711 0.983927 
0.119168 0.204073 0.971676 
0.178694 0.231702 0.956234 
0.176499 0.433734 0.883585 
0.187496 0.613916 0.766781 
0.0686432 0.953647 0.292994 
-0.00864036 0.9999 -0.0111714 
-0.136454 0.847309 -0.513272 
-0.0553646 0.492443 -0.868582 
-0.192573 0.444101 -0.875037 
-0.18245 0.279288 -0.942714 
-0.126875 0.210424 -0.969342 
-0.0904236 0.15364 -0.983981 
-0.0553647 0.137005 -0.989022 
-0.0350648 0.114001 -0.992862 
-0.0200915 0.0897301 -0.995763 
-0.0116863 0.0685266 -0.997581 
-0.00682249 0.0508035 -0.998685 
-0.00320034 0.0358883 -0.999351 
-0.00150827 0.026506 -0.999648 
-0.00054543 0.0195738 -0.999808 
-2.78313e-05 0.0144741 -0.999895 
0.000219627 0.0108381 -0.999941 
0.000372322 0.00806697 -0.999967 
0.000395684 0.00603117 -0.999982 
0.000405451 0.00447369 -0.99999 
0.000418569 0.00330975 -0.999994 
0.000401963 0.00237809 -0.999997 
0.000392223 0.00174202 -0.999998 
0.000366294 0.00125822 -0.999999 
0.000337112 0.000919072 -1 
0.00030115 0.000665254 -1 
0.00026459 0.000468633 -1 
0.000226482 0.000318314 -1 
0.000190458 0.000192176 -1 
0.000159016 9.25531e-05 -1 
0.000128034 6.78597e-06 -1 
0.00010202 -7.56753e-05 -1 
8.35926e-05 -0.000150276 -1 
7.21357e-05 -0.000209605 -1 
7.58502e-05 -0.000278292 -1 
0.000103538 -0.000398344 -1 
0.000202351 -0.000626377 -1 
0.000474819 -0.00126113 -0.999999 
0.00405405 -0.00806302 -0.999959 
0.0427927 -0.0935449 -0.994698 
-0.0301165 -0.101013 0.994429 
-0.00221197 -0.0074857 0.99997 
-0.000607537 -0.00158882 0.999999 
-0.000165421 -0.000653456 1 
-9.41876e-05 -0.000379008 1 
-6.51671e-05 -0.000271544 1 
-7.00103e-05 -0.000194031 1 
-8.03764e-05 -0.000114271 1 
-0.000100016 -5.63872e-05 1 
-0.000122919 3.04061e-05 1 
-0.000148887 0.000113881 1 
-0.000183091 0.000221652 1 
-0.000216456 0.000345077 1 
-0.00025085 0.000488925 1 
-0.000282785 0.000674138 1 
-0.000311284 0.000931456 1 
-0.000338285 0.00125271 0.999999 
-0.00035044 0.00171211 0.999998 
-0.000343456 0.00229721 0.999997 
-0.00031585 0.00309585 0.999995 
-0.000260087 0.00416755 0.999991 
-0.000160468 0.00559304 0.999984 
-4.43158e-07 0.00740504 0.999973 
0.000238182 0.00978327 0.999952 
0.000640319 0.0128324 0.999917 
0.00132726 0.0170152 0.999854 
0.00247809 0.0226712 0.99974 
0.00456698 0.0299728 0.99954 
0.00759939 0.0402905 0.999159 
0.0136375 0.0533974 0.99848 
0.0223135 0.067971 0.997438 
0.0383535 0.0874639 0.995429 
0.0638179 0.105024 0.99242 
0.099639 0.104541 0.989517 
0.14675 0.140036 0.979211 
0.220213 0.168796 0.960736 
0.245977 0.349549 0.904053 
0.275274 0.530492 0.80175 
0.168864 0.808167 0.564226 
-0.0648498 0.981987 -0.177473 
-0.175285 0.621484 -0.763566 
-0.257147 0.624674 -0.737331 
-0.262305 0.390989 -0.882227 
-0.217924 0.213522 -0.952322 
-0.145218 0.151195 -0.977779 
-0.0978399 0.105857 -0.989556 
-0.0629106 0.104182 -0.992567 
-0.0401359 0.0867295 -0.995423 
-0.0254287 0.0747838 -0.996876 
-0.0158389 0.0582081 -0.998179 
-0.0102265 0.0441654 -0.998972 
-0.00574391 0.0347227 -0.99938 
-0.0032821 0.0248883 -0.999685 
-0.00180832 0.0188708 -0.99982 
-0.000936327 0.0142254 -0.999898 
-0.000454395 0.0107092 -0.999943 
-0.000107348 0.00819084 -0.999966 
4.6277e-05 0.00618925 -0.999981 
0.000157084 0.00465005 -0.999989 
0.000243387 0.00345303 -0.999994 
0.000294345 0.00257652 -0.999997 
0.00031482 0.0018518 -0.999998 
0.000318893 0.00137657 -0.999999 
0.000303234 0.00100873 -0.999999 
0.000279799 0.000750682 -1 
0.000250803 0.000541309 -1 
0.000219093 0.000384775 -1 
0.000186927 0.000250344 -1 
0.000155646 0.000141165 -1 
0.000128158 5.28722e-05 -1 
0.000100592 -3.87395e-05 -1 
8.02256e-05 -0.000123353 -1 
6.48201e-05 -0.000201722 -1 
6.79457e-05 -0.000294888 -1 
8.47265e-05 -0.000423657 -1 
0.000162688 -0.00064997 -1 
0.000323506 -0.00123738 -0.999999 
0.00234331 -0.00680531 -0.999974 
0.0341321 -0.105751 -0.99381 
-0.0139958 -0.107146 0.994145 
-0.00125699 -0.00887398 0.99996 
-0.000312581 -0.00125073 0.999999 
-0.000102212 -0.000691027 1 
-7.66911e-05 -0.000422633 1 
-4.96305e-05 -0.000269833 1 
-5.99591e-05 -0.000176248 1 
-7.25848e-05 -9.06662e-05 1 
-9.54232e-05 -1.63681e-05 1 
-0.000113666 7.02277e-05 1 
-0.000143103 0.000163889 1 
-0.000170887 0.000273563 1 
-0.000197718 0.000400927 1 
-0.000225295 0.000549719 1 
-0.000251796 0.000749471 1 
-0.00026478 0.00100549 0.999999 
-0.000279551 0.00134008 0.999999 
-0.000265276 0.00176995 0.999998 
-0.000231614 0.00235269 0.999997 
-0.00016443 0.00315005 0.999995 
-4.96473e-05 0.00422163 0.999991 
0.000134256 0.00556317 0.999985 
0.000399177 0.00730228 0.999973 
0.000776856 0.00947956 0.999955 
0.00136284 0.0123664 0.999923 
0.00231703 0.0161686 0.999867 
0.00384617 0.0211302 0.999769 
0.00637895 0.0270433 0.999614 
0.01026 0.0362254 0.999291 
0.0167903 0.0445587 0.998866 
0.027616 0.0580109 0.997934 
0.0444464 0.0691135 0.996618 
0.0677166 0.071614 0.995131 
0.102183 0.0584164 0.993049 
0.150799 0.078719 0.985425 
0.232617 0.0944205 0.967974 
0.305674 0.264454 0.914674 
0.40639 0.436484 0.802701 
0.290649 0.772451 0.564662 
0.0680582 0.98768 0.140909 
-0.24203 0.858151 -0.452768 
-0.394337 0.531665 -0.749554 
-0.323151 0.303968 -0.896201 
-0.238513 0.131745 -0.962162 
-0.154341 0.0906145 -0.983854 
-0.0997961 0.0619446 -0.993078 
-0.0642067 0.0715901 -0.995365 
-0.0425825 0.0647068 -0.996995 
-0.0268812 0.0565647 -0.998037 
-0.017173 0.0447739 -0.99885 
-0.0104246 0.034149 -0.999362 
-0.00626358 0.0275662 -0.9996 
-0.00378539 0.0201408 -0.99979 
-0.00225093 0.0154913 -0.999877 
-0.00133751 0.0118404 -0.999929 
-0.000758421 0.00899467 -0.999959 
-0.000396354 0.00696353 -0.999976 
-0.000168215 0.0052727 -0.999986 
5.07315e-06 0.0039691 -0.999992 
0.000121259 0.00298212 -0.999996 
0.000211075 0.00222328 -0.999998 
0.000239446 0.00163689 -0.999999 
0.000256238 0.00123044 -0.999999 
0.00024633 0.000928547 -1 
0.000232175 0.000691215 -1 
0.000208694 0.000511685 -1 
0.00018425 0.000359479 -1 
0.000157721 0.000237585 -1 
0.000131249 0.000138958 -1 
0.000107395 3.9911e-05 -1 
8.43559e-05 -4.20861e-05 -1 
7.00997e-05 -0.000116384 -1 
5.40064e-05 -0.000179891 -1 
5.1366e-05 -0.000263069 -1 
5.37189e-05 -0.000389502 -1 
0.000107622 -0.000690284 -1 
0.000223555 -0.00153316 -0.999999 
0.00203179 -0.0103678 -0.999944 
0.015296 -0.114253 -0.993337 
0.00362909 -0.097346 0.995244 
0.000230546 -0.00779774 0.99997 
-0.000169449 -0.00149782 0.999999 
-3.17818e-05 -0.000675993 1 
-4.01914e-05 -0.000392029 1 
-3.10726e-05 -0.000249583 1 
-4.70304e-05 -0.000169691 1 
-5.7688e-05 -8.80262e-05 1 
-8.00534e-05 -5.14238e-06 1 
-9.87093e-05 9.0817e-05 1 
-0.000124173 0.0001888 1 
-0.000145788 0.000298476 1 
-0.000165183 0.000423873 1 
-0.000186549 0.000570781 1 
-0.000206116 0.000751853 1 
-0.000208865 0.000979967 1 
-0.000213145 0.00128574 0.999999 
-0.000190543 0.00167544 0.999999 
-0.000147187 0.0022209 0.999998 
-6.26982e-05 0.00295012 0.999996 