# vtk DataFile Version 3.0 
Exported using Morpho https://github.com/Morpho-lang/morpho 
ASCII 
DATASET UNSTRUCTURED_GRID 

POINTS 1978 float 
-8.48885 -2.81238 -6.19484e-06 
-8.24814 -2.83252 1.21728e-06 
-8.054 -2.83254 8.48036e-07 
-7.78849 -2.83754 1.36753e-06 
-7.47682 -2.83632 2.98667e-06 
-7.21838 -2.83646 9.35083e-08 
-7.00891 -2.83755 3.13701e-06 
-6.77161 -2.83506 1.02964e-06 
-6.5217 -2.8355 1.63068e-06 
-6.34365 -2.83581 1.24615e-07 
-6.16627 -2.83429 -2.69411e-06 
-5.93796 -2.83694 -1.64226e-07 
-5.71456 -2.83431 -2.10284e-06 
-5.51088 -2.83598 -1.82235e-06 
-5.29231 -2.835 2.17043e-06 
-5.08342 -2.83617 4.65257e-06 
-4.8668 -2.83483 6.04734e-06 
-4.66319 -2.83576 4.47351e-06 
-4.44381 -2.83447 9.45234e-07 
-4.23068 -2.83609 -8.54249e-06 
-4.01116 -2.8333 -1.00631e-05 
-3.80494 -2.8332 -1.38134e-06 
-3.58935 -2.8335 -3.24912e-06 
-3.38324 -2.83345 -3.82823e-05 
-3.16944 -2.83392 -5.52708e-05 
-2.96398 -2.83279 -3.75168e-05 
-2.75334 -2.83413 -3.08824e-05 
-2.53988 -2.83406 -2.64234e-05 
-2.31137 -2.83357 -6.36643e-05 
-2.06365 -2.83261 -0.000185639 
-1.81446 -2.83181 -0.000228858 
-1.60443 -2.83117 -0.000156353 
-1.40797 -2.82899 -0.000173891 
-1.18104 -2.82467 0.00129756 
-1.04404 -2.82385 0.00169433 
-0.888174 -2.82298 0.00435994 
-0.801268 -2.81461 0.00986388 
-0.654024 -2.76841 0.0329779 
-0.360387 -2.7195 0.0662331 
-0.0426844 -2.71897 0.0194919 
0.353319 -2.71416 -0.0703331 
0.653297 -2.75772 -0.030115 
0.810747 -2.80906 -0.0100541 
0.923675 -2.82252 -0.00397186 
1.07564 -2.82411 -0.000829993 
1.20038 -2.82672 -0.000993835 
1.33251 -2.82971 -0.000123196 
1.57316 -2.83251 0.000134307 
1.78865 -2.83253 0.000241419 
2.04617 -2.83308 0.00019171 
2.29269 -2.8339 9.45731e-05 
2.53034 -2.83633 2.16027e-05 
2.75506 -2.83523 2.24899e-05 
2.98015 -2.83486 3.3796e-05 
3.19542 -2.83269 5.32216e-05 
3.40006 -2.83284 5.03232e-05 
3.61642 -2.83313 6.14308e-06 
3.81791 -2.83325 -7.69742e-06 
4.03068 -2.83401 3.72535e-06 
4.25412 -2.83318 7.9984e-06 
4.451 -2.83465 2.54475e-06 
4.66539 -2.83442 -6.75763e-06 
4.87345 -2.8337 -6.18176e-06 
5.07502 -2.8337 -4.42148e-06 
5.28922 -2.83599 -1.48316e-06 
5.50027 -2.8358 1.87862e-06 
5.70153 -2.8364 2.32881e-06 
5.92192 -2.83782 1.34672e-06 
6.14487 -2.83519 7.90281e-07 
6.34369 -2.83814 -5.66366e-07 
6.58589 -2.83725 -6.36956e-07 
6.79615 -2.83699 -5.42091e-07 
6.99736 -2.83789 -2.71183e-06 
7.26166 -2.8361 -1.28887e-06 
7.49257 -2.83634 -1.44698e-06 
7.74452 -2.83373 -2.05115e-06 
8.02074 -2.83344 -6.1811e-07 
8.20809 -2.83393 -2.14896e-06 
8.49 -2.81014 4.75815e-06 
-8.4895 -2.54411 3.38038e-06 
-8.28486 -2.6046 5.24748e-06 
-8.0452 -2.54509 -7.9295e-07 
-7.85044 -2.62954 -2.84204e-06 
-7.57466 -2.66325 -1.1179e-06 
-7.27164 -2.6276 -8.82529e-07 
-7.01866 -2.58131 -1.354e-06 
-6.80887 -2.61297 -2.32714e-06 
-6.56513 -2.62751 -1.16895e-06 
-6.33075 -2.54806 9.14094e-07 
-6.11154 -2.61325 1.59617e-06 
-5.88611 -2.61103 1.09141e-06 
-5.67283 -2.58717 2.58211e-06 
-5.45663 -2.6073 4.3218e-06 
-5.23925 -2.60076 3.15079e-06 
-5.02268 -2.61171 -4.93925e-06 
-4.81301 -2.59662 -1.38282e-05 
-4.59482 -2.61441 -1.24462e-05 
-4.37474 -2.60594 3.38616e-06 
-4.15389 -2.61165 2.03256e-05 
-3.93743 -2.59186 1.73156e-05 
-3.72075 -2.60327 7.78992e-07 
-3.50333 -2.59674 -2.9862e-07 
-3.285 -2.60868 2.35342e-05 
-3.06849 -2.60211 4.16518e-05 
-2.85284 -2.60676 4.81608e-05 
-2.63223 -2.60497 5.10966e-05 
-2.40239 -2.61099 5.66791e-05 
-2.15661 -2.6204 8.20231e-05 
-1.89934 -2.6208 5.9795e-05 
-1.65588 -2.59176 -0.000116942 
-1.44953 -2.5968 -0.000244826 
-1.24997 -2.64612 -0.00109234 
-1.05944 -2.56006 -0.00242685 
-0.926281 -2.6244 -0.00236175 
-0.799607 -2.49173 -0.00409633 
-0.71727 -2.61398 0.000466171 
-0.549124 -2.65066 0.0040153 
-0.299745 -2.62116 0.0375357 
0.0566396 -2.65339 -0.0603195 
0.370329 -2.64248 -0.0290903 
0.528715 -2.60151 -0.00425061 
0.71364 -2.61536 -0.00172097 
0.836376 -2.55845 0.00280712 
0.972594 -2.61103 0.00214644 
1.10411 -2.52829 0.00143901 
1.33548 -2.65029 0.000845556 
1.53614 -2.60788 0.000121174 
1.79448 -2.63191 -3.89808e-05 
2.04429 -2.61578 -9.78186e-05 
2.28921 -2.60949 -5.54883e-05 
2.5237 -2.60794 -5.00616e-05 
2.76259 -2.61685 -5.05699e-05 
2.98713 -2.61219 -4.09681e-05 
3.19909 -2.59826 -3.2337e-05 
3.42299 -2.61019 -8.51916e-06 
3.632 -2.5912 -5.43031e-07 
3.85116 -2.60316 -8.92797e-06 
4.08229 -2.61525 -1.73017e-05 
4.29307 -2.58636 -1.00971e-05 
4.50927 -2.60936 6.66104e-06 
4.72396 -2.60163 1.41284e-05 
4.93688 -2.59571 9.35796e-06 
5.15253 -2.61071 -4.04181e-07 
5.3715 -2.60613 -4.21257e-06 
5.58119 -2.5907 -4.1238e-06 
5.79726 -2.61163 -1.36475e-06 
6.02204 -2.61017 -1.17999e-06 
6.23633 -2.57858 -7.90044e-07 
6.45712 -2.62638 7.85471e-07 
6.68478 -2.58871 8.1613e-07 
6.89343 -2.57146 1.31232e-06 
7.12071 -2.63178 1.05547e-06 
7.37141 -2.59933 2.30009e-07 
7.61323 -2.61649 6.70239e-07 
7.87638 -2.63309 2.19814e-06 
8.08419 -2.53794 7.24368e-07 
8.30724 -2.63091 -2.72924e-06 
8.49289 -2.51547 8.76575e-07 
-8.49252 -2.35647 -5.99744e-06 
-8.20579 -2.35868 2.05973e-06 
-7.94652 -2.30745 -5.032e-07 
-7.73397 -2.44485 3.05874e-07 
-7.59596 -2.28538 3.92214e-07 
-7.44151 -2.46735 -1.99418e-07 
-7.17542 -2.39381 8.68069e-07 
-6.93876 -2.33276 -6.12275e-07 
-6.71142 -2.40342 -2.32208e-07 
-6.49138 -2.37752 -4.34569e-07 
-6.21419 -2.34615 4.58471e-07 
-6.00781 -2.37946 3.16862e-07 
-5.79493 -2.36182 2.81385e-09 
-5.56606 -2.35869 4.64877e-07 
-5.3548 -2.37195 4.00458e-07 
-5.1316 -2.37228 6.44755e-07 
-4.92503 -2.36516 -1.03001e-06 
-4.70156 -2.37698 -4.80758e-07 
-4.48633 -2.38196 3.0611e-07 
-4.26105 -2.37837 1.09598e-06 
-4.04811 -2.36465 -9.19838e-07 
-3.82328 -2.35803 -1.73467e-06 
-3.61 -2.36346 -2.93323e-07 
-3.38603 -2.36991 1.70713e-06 
-3.17142 -2.37352 3.44048e-06 
-2.95139 -2.37246 -1.03815e-06 
-2.73246 -2.37574 -5.4741e-06 
-2.50185 -2.379 -9.30065e-06 
-2.26043 -2.39284 -8.29122e-06 
-2.00919 -2.40549 -1.30257e-05 
-1.76129 -2.38319 -5.84507e-05 
-1.52273 -2.35134 -0.000218571 
-1.31506 -2.40417 -0.000526552 
-1.14173 -2.39489 -0.00138989 
-0.925629 -2.3782 -0.00238764 
-0.713205 -2.3408 -0.00298305 
-0.591491 -2.47818 -0.00631701 
-0.441587 -2.4649 -0.007447 
-0.32859 -2.53508 0.0101572 
-0.071729 -2.58061 0.0501898 
0.174801 -2.54059 -0.0214763 
0.410515 -2.50583 0.0133757 
0.595489 -2.44874 0.000510096 
0.76902 -2.4029 0.00470906 
0.94482 -2.36606 0.00293204 
1.11143 -2.30265 0.00110958 
1.27893 -2.439 0.00029955 
1.47119 -2.38624 0.00027856 
1.70748 -2.42535 0.000160539 
1.95627 -2.40265 2.00654e-05 
2.21129 -2.38681 -4.32103e-06 
2.45973 -2.37538 -1.97088e-06 
2.69564 -2.39502 2.72191e-06 
2.92793 -2.38536 -1.38301e-06 
3.14089 -2.36494 -1.83761e-06 
3.35856 -2.37958 -2.54496e-06 
3.56752 -2.35056 8.82975e-07 
3.78135 -2.36367 1.82095e-06 
4.00167 -2.38797 1.09487e-06 
4.21513 -2.35401 1.84772e-07 
4.43935 -2.36639 -5.51809e-07 
4.64651 -2.3674 4.24485e-07 
4.86012 -2.36365 8.80081e-07 
5.07937 -2.37104 5.5019e-07 
5.28969 -2.38082 -5.21406e-07 
5.50461 -2.35633 -2.509e-07 
5.724 -2.36901 -4.16587e-07 
5.93831 -2.38188 -3.88864e-07 
6.15382 -2.34893 -1.47196e-07 
6.39334 -2.37456 5.22595e-08 
6.60137 -2.37065 1.17018e-09 
6.82871 -2.32214 2.77338e-08 
7.06087 -2.37886 2.6865e-07 
7.28166 -2.39607 6.5441e-07 
7.54829 -2.3861 2.54762e-07 
7.79497 -2.4209 3.99037e-07 
8.0095 -2.31247 3.87105e-07 
8.26571 -2.36785 -3.05944e-06 
8.4922 -2.28152 -4.72428e-07 
-8.49504 -2.11461 -4.12167e-07 
-8.27653 -2.16661 1.83995e-06 
-8.08272 -2.08133 1.52201e-07 
-7.80714 -2.13763 -8.29811e-07 
-7.53694 -2.06541 5.03514e-07 
-7.33637 -2.23671 -6.07152e-07 
-7.08679 -2.13903 2.94989e-07 
-6.80146 -2.14137 2.34726e-07 
-6.59592 -2.14662 -2.72445e-07 
-6.35715 -2.17003 -9.54876e-08 
-6.1152 -2.10615 -1.3571e-07 
-5.91502 -2.12559 -4.40153e-07 
-5.69061 -2.13363 -5.47465e-07 
-5.46799 -2.11718 -2.14911e-07 
-5.25469 -2.14245 -3.80618e-07 
-5.04203 -2.11892 -7.69964e-07 
-4.82543 -2.14061 -7.70778e-07 
-4.60951 -2.14138 -1.19682e-06 
-4.39407 -2.15046 -1.03571e-06 
-4.18351 -2.12539 -1.75862e-06 
-3.96783 -2.12635 -2.37193e-06 
-3.75354 -2.11115 -3.11576e-06 
-3.5369 -2.13139 -3.15829e-06 
-3.32429 -2.12797 -5.25709e-06 
-3.11222 -2.13724 -8.58242e-06 
-2.89698 -2.13402 -1.33663e-05 
-2.67407 -2.1422 -1.98204e-05 
-2.43697 -2.15001 -2.43737e-05 
-2.18858 -2.16901 -3.13639e-05 
-1.94095 -2.17343 -3.98949e-05 
-1.69208 -2.15115 -0.000105693 
-1.44719 -2.13203 -0.000282973 
-1.26368 -2.15241 -0.000179869 
-1.08748 -2.15782 -0.00069363 
-0.93304 -2.22084 -0.00178552 
-0.772927 -2.16477 -0.00167596 
-0.560111 -2.28742 -0.00198393 
-0.361357 -2.38099 -0.0322633 
-0.131915 -2.44304 0.00971017 
0.0673162 -2.48187 -0.045024 
0.270368 -2.41842 0.0128031 
0.457038 -2.33951 0.00450476 
0.641175 -2.28785 0.0064342 
0.744615 -2.1313 0.000539784 
0.869984 -2.18716 -0.00065398 
1.04965 -2.11263 0.000506843 
1.2928 -2.20257 0.000356039 
1.53828 -2.18755 0.000240169 
1.76835 -2.20268 7.19572e-05 
2.02487 -2.17837 4.25439e-05 
2.28404 -2.15887 3.20295e-05 
2.53443 -2.14679 2.24535e-05 
2.76546 -2.16603 1.31853e-05 
2.97868 -2.13542 1.08763e-05 
3.2 -2.13527 5.14851e-06 
3.40286 -2.12639 4.61935e-06 
3.62086 -2.11042 3.35352e-06 
3.83977 -2.13327 2.71968e-06 
4.04519 -2.13622 1.88982e-06 
4.27671 -2.12636 1.70199e-06 
4.48532 -2.1161 1.17915e-06 
4.69732 -2.12586 1.19527e-06 
4.91573 -2.13289 8.16945e-07 
5.1278 -2.12993 6.22217e-07 
5.33817 -2.14162 8.80462e-08 
5.56494 -2.12775 1.60606e-07 
5.78208 -2.13271 1.22259e-07 
5.99172 -2.13316 6.85389e-08 
6.23907 -2.13891 3.92062e-07 
6.44868 -2.11678 4.7119e-08 
6.66322 -2.12431 -3.33255e-07 
6.92949 -2.11662 4.15129e-07 
7.14757 -2.14262 7.5075e-08 
7.38317 -2.18922 -1.59321e-07 
7.57687 -2.09414 -2.01391e-07 
7.75271 -2.19495 2.36427e-07 
7.96743 -2.08687 -2.87161e-07 
8.2163 -2.14999 -2.41393e-06 
8.49188 -2.09058 6.43142e-06 
-8.4918 -1.81223 -1.19061e-06 
-8.31581 -1.90793 -1.60516e-06 
-7.91336 -1.91458 3.54229e-07 
-7.68193 -1.89872 -4.61303e-07 
-7.44163 -1.80869 1.24421e-06 
-7.29443 -2.00211 -1.05351e-06 
[...]
POINT_DATA 1978 
VECTORS vectors float
-0.000322613 -0.00127672 1.0011 
-0.00013377 -0.00107082 1.0035 
3.4246e-06 -0.0008854 1.00403 
0.000189014 -0.000727363 1.00399 
0.000469782 -0.000562843 1.00398 
0.000682416 -0.000462861 1.00381 
0.000896739 -0.000487699 1.00373 
0.00110479 -0.00047734 1.00375 
0.00128136 -0.000629378 1.00352 
0.00128984 -0.00074545 1.00271 
0.00130176 -0.000854216 1.00347 
0.00116949 -0.000992552 1.00355 
0.000955021 -0.00109595 1.00352 
0.000771597 -0.00127861 1.00348 
0.000900494 -0.00172023 1.00346 
0.00159917 -0.0024442 1.0034 
0.00263423 -0.00329718 1.00338 
0.00349645 -0.0036951 1.00337 
0.00392953 -0.00379454 1.0034 
0.0036171 -0.00402815 1.00341 
0.00285482 -0.00406444 1.00344 
0.00275642 -0.00387984 1.00345 
0.00272053 -0.00475579 1.00341 
0.00017742 -0.00574841 1.00338 
-0.00514087 -0.00395587 1.00334 
-0.00996865 0.001259 1.0033 
-0.0123552 0.00812784 1.0033 
-0.0128451 0.014144 1.00332 
-0.0146692 0.0173264 1.00337 
-0.0236901 0.0178116 1.00321 
-0.0469054 0.0226154 1.00212 
-0.0771749 0.0378641 0.999403 
-0.114841 0.0691519 0.99367 
-0.167528 0.135841 0.978487 
-0.203249 0.189836 0.962023 
-0.251265 0.270442 0.930688 
-0.271905 0.326171 0.906473 
-0.30392 0.456925 0.843927 
-0.25625 0.782172 0.578043 
-0.06048 1.00619 0.0782872 
0.252385 0.809835 -0.542952 
0.289156 0.462544 -0.842813 
0.262976 0.322966 -0.910497 
0.234761 0.250821 -0.940742 
0.186593 0.176168 -0.967819 
0.154973 0.129876 -0.980696 
0.12868 0.0902935 -0.990024 
0.0810111 0.0456901 -0.99874 
0.0526431 0.0264765 -1.00172 
0.026683 0.015541 -1.00319 
0.0135214 0.0136527 -1.00354 
0.00987779 0.0131957 -1.00349 
0.0100818 0.00955762 -1.00346 
0.00950149 0.00241776 -1.00338 
0.00526143 -0.00461176 -1.00335 
-0.000344767 -0.00743661 -1.00336 
-0.00418803 -0.00590095 -1.00336 
-0.00426422 -0.00366233 -1.0034 
-0.00319479 -0.00308927 -1.00345 
-0.00322523 -0.0037453 -1.0034 
-0.00367199 -0.00398429 -1.00338 
-0.0034579 -0.00382039 -1.00337 
-0.00257071 -0.00325424 -1.00337 
-0.00158675 -0.0024806 -1.00336 
-0.000931308 -0.0018289 -1.00339 
-0.000777368 -0.00143236 -1.00342 
-0.000978928 -0.00122634 -1.00348 
-0.00124648 -0.00102526 -1.00352 
-0.00134671 -0.000824651 -1.00355 
-0.00131635 -0.000678187 -1.0036 
-0.00122941 -0.000557191 -1.00364 
-0.00107927 -0.000469088 -1.00366 
-0.00091384 -0.000452495 -1.0038 
-0.000646763 -0.000440493 -1.0039 
-0.00047951 -0.000546382 -1.00382 
-0.000182809 -0.000681934 -1.00386 
-3.54487e-05 -0.000859566 -1.00386 
0.000127861 -0.00106324 -1.00363 
0.000271356 -0.00124445 -1.00107 
-0.000202829 -0.0014014 1.00128 
-6.66397e-05 -0.00122547 1.00513 
0.000112389 -0.00107256 1.00648 
0.000236766 -0.000878861 1.00632 
0.000448355 -0.000729285 1.0071 
0.000667964 -0.000618766 1.0064 
0.000888226 -0.000636597 1.00651 
0.00104206 -0.000631007 1.00636 
0.00119573 -0.00067072 1.00624 
0.00120139 -0.000688883 1.00699 
0.0011797 -0.000734298 1.00615 
0.00104548 -0.000768899 1.00608 
0.000844033 -0.000934637 1.00614 
0.000692523 -0.00151485 1.00602 
0.000761614 -0.00249762 1.00598 
0.00129845 -0.00339392 1.00591 
0.00216717 -0.00393868 1.00591 
0.00311382 -0.00390147 1.0059 
0.00341855 -0.00356774 1.00597 
0.00317667 -0.00325512 1.00597 
0.00283853 -0.00282721 1.00609 
0.00250235 -0.00260679 1.00604 
0.00172157 -0.00209581 1.00604 
-0.000469276 -0.00080233 1.00594 
-0.00376895 0.00279614 1.0059 
-0.00658603 0.00796932 1.00589 
-0.00821387 0.0132802 1.00597 
-0.0112496 0.0185954 1.00606 
-0.0183218 0.0256172 1.00588 
-0.0323962 0.0366482 1.00511 
-0.0525138 0.0601224 1.00274 
-0.0740109 0.0961146 0.997525 
-0.108874 0.143376 0.987569 
-0.115139 0.227206 0.970052 
-0.152542 0.285908 0.946625 
-0.105639 0.377375 0.920968 
-0.175921 0.42663 0.8877 
-0.19344 0.57653 0.78599 
-0.145598 0.824133 0.530944 
0.103366 0.982382 -0.0822235 
0.165882 0.776433 -0.590306 
0.149911 0.615694 -0.773657 
0.16588 0.440488 -0.881079 
0.12687 0.352452 -0.928518 
0.135305 0.265774 -0.956143 
0.0940589 0.211224 -0.976864 
0.0929807 0.118416 -0.992961 
0.0638099 0.0799315 -1.00015 
0.0405313 0.0448344 -1.00425 
0.022116 0.0290697 -1.00574 
0.0122034 0.0209078 -1.00615 
0.00789529 0.0157 -1.00617 
0.00641646 0.0104112 -1.00601 
0.00455663 0.00479528 -1.00589 
0.00156105 1.2281e-05 -1.00594 
-0.00141905 -0.00302513 -1.00593 
-0.00308833 -0.00300204 -1.00603 
-0.00342442 -0.00266748 -1.00602 
-0.00327892 -0.00291234 -1.00602 
-0.00327877 -0.00342559 -1.00603 
-0.00322286 -0.00385263 -1.0059 
-0.0025514 -0.00397313 -1.00594 
-0.00161408 -0.00372547 -1.00593 
-0.000952761 -0.00294837 -1.00587 
-0.00070585 -0.0019975 -1.00594 
-0.000769485 -0.00123755 -1.00603 
-0.000989 -0.000863067 -1.00601 
-0.00118197 -0.000751477 -1.00612 
-0.00121661 -0.000682381 -1.00628 
-0.00119812 -0.000632908 -1.00617 
-0.00112034 -0.000633193 -1.00637 
-0.00101042 -0.000641855 -1.00651 
-0.000822013 -0.000593129 -1.0064 
-0.000643442 -0.000677827 -1.00658 
-0.0004352 -0.000765296 -1.00653 
-0.000211963 -0.000885735 -1.00635 
-0.000100625 -0.0011315 -1.00649 
8.65533e-05 -0.00124049 -1.00504 
0.000148317 -0.00140243 -1.00125 
-8.36262e-05 -0.00154624 1.0016 
6.97771e-05 -0.00130935 1.00627 
0.000276451 -0.0011352 1.00763 
0.000396103 -0.000938828 1.00617 
0.000509915 -0.000978816 1.00676 
0.000576187 -0.00078561 1.00614 
0.000810521 -0.000755799 1.00675 
0.00094116 -0.000750352 1.00682 
0.00106791 -0.00071722 1.00664 
0.00111625 -0.000688617 1.00664 
0.00114327 -0.000615377 1.00658 
0.00109152 -0.000563846 1.0065 
0.000956014 -0.000648094 1.00649 
0.000832532 -0.00120904 1.00647 
0.000712514 -0.00231245 1.00639 
0.000763453 -0.00363194 1.00637 
0.00113991 -0.00432078 1.00635 
0.00194591 -0.00425593 1.00632 
0.00265559 -0.00380226 1.00633 
0.00295532 -0.00306106 1.0064 
0.00294485 -0.00218083 1.00647 
0.00275313 -0.00125107 1.0065 
0.00252492 -0.000220495 1.00648 
0.00187876 0.00139976 1.00642 
0.000128727 0.00380218 1.00636 
-0.00234256 0.0080368 1.00634 
-0.0041553 0.0129984 1.00641 
-0.00633018 0.0186904 1.00654 
-0.0111186 0.027204 1.00651 
-0.0186275 0.0403863 1.00594 
-0.0292811 0.0614802 1.00439 
-0.0389074 0.0971914 1.00041 
-0.0526429 0.143414 0.992919 
-0.0623061 0.201149 0.981802 
-0.0607601 0.295981 0.954817 
-0.0327117 0.419845 0.904682 
-0.0872209 0.532784 0.837674 
-0.0516241 0.667804 0.742212 
-0.0853178 0.77894 0.596095 
-0.102077 0.970634 0.151543 
0.0354371 0.924949 -0.339421 
0.0493208 0.720002 -0.677144 
0.0558903 0.538361 -0.83632 
0.0480531 0.395958 -0.917109 
0.048194 0.285765 -0.959057 
0.0339727 0.208922 -0.980226 
0.0587116 0.154225 -0.990248 
0.0409284 0.107343 -0.998703 
0.0323754 0.0659267 -1.00361 
0.0188001 0.0441247 -1.00562 
0.011112 0.0295323 -1.00638 
0.0057669 0.0194713 -1.00665 
0.00365604 0.0131967 -1.00652 
0.00192147 0.00843112 -1.00639 
-0.000196286 0.00436257 -1.00631 
-0.00190598 0.000756112 -1.00633 
-0.00304972 -0.000562021 -1.0064 
-0.00327966 -0.00142879 -1.00643 
-0.00316037 -0.00222591 -1.00643 
-0.00294058 -0.00295232 -1.00643 
-0.00266363 -0.00371842 -1.0064 
-0.00211056 -0.0041789 -1.00637 
-0.0013857 -0.00434369 -1.00632 
-0.00087823 -0.00385855 -1.00631 
-0.000724992 -0.00279749 -1.00629 
-0.000774411 -0.00161125 -1.00632 
-0.000930703 -0.000831494 -1.00639 
-0.00108591 -0.000618559 -1.00644 
-0.00115696 -0.00061758 -1.00651 
-0.00117171 -0.00065808 -1.00659 
-0.00112828 -0.000695073 -1.00662 
-0.00103786 -0.000742445 -1.0067 
-0.000892475 -0.000729015 -1.00672 
-0.000727725 -0.000754324 -1.00665 
-0.000521543 -0.000905208 -1.00746 
-0.000343751 -0.000976151 -1.00608 
-0.000230655 -0.00119222 -1.00729 
-3.70267e-05 -0.00138299 -1.00602 
6.77899e-05 -0.00156537 -1.00165 
2.86541e-06 -0.00162166 1.00113 
9.62548e-05 -0.0014861 1.00612 
0.000229743 -0.00137597 1.00687 
0.000409001 -0.00116595 1.00768 
0.000592439 -0.00106038 1.00689 
0.000712674 -0.000888084 1.00673 
0.00088106 -0.000894809 1.00763 
0.00103388 -0.000802739 1.00683 
0.00110154 -0.00074493 1.00676 
0.00115801 -0.000622161 1.00667 
0.00112276 -0.000537437 1.00662 
0.00107605 -0.000511281 1.00659 
0.000990834 -0.000894143 1.00655 
0.000907219 -0.00200761 1.00651 
0.000775284 -0.00341024 1.00647 
0.000719321 -0.00454061 1.00644 
0.000912518 -0.00473453 1.00641 
0.00141934 -0.00424951 1.00641 
0.00209083 -0.00341148 1.00645 
0.00253945 -0.00228945 1.00651 
0.00283319 -0.000955699 1.00654 
0.00305936 0.000540256 1.00652 
0.00319113 0.0022347 1.00648 
0.00297655 0.00444693 1.00643 
0.00170537 0.00691489 1.00641 
0.000194481 0.0102751 1.00649 
-0.00129416 0.0151211 1.00667 
-0.00344179 0.0220578 1.0068 
-0.00720741 0.0329853 1.00658 
-0.011114 0.0494335 1.0058 
-0.0147087 0.0735343 1.00396 
-0.0141948 0.109998 0.999758 
-0.0136781 0.154008 0.992413 
-0.00645416 0.205235 0.982737 
-0.010682 0.272312 0.964797 
0.0253177 0.337505 0.943606 
0.0165319 0.520598 0.849186 
0.0407966 0.7209 0.677888 
0.00795939 0.92931 0.311237 
0.0615623 0.979876 -0.129114 
-0.0317432 0.829169 -0.533754 
-0.0392784 0.634111 -0.766895 
-0.0246509 0.45533 -0.887311 
-0.0594103 0.342837 -0.93771 
-0.0173015 0.296458 -0.957261 
-0.01227 0.210643 -0.981747 
0.0177066 0.149714 -0.993387 
0.0166328 0.0954957 -1.00208 
0.0130202 0.0636109 -1.00467 
0.00909408 0.0432753 -1.0061 
0.00480918 0.0283072 -1.00672 
0.001268 0.0181863 -1.00682 
0.000349305 0.0129228 -1.0066 
-0.00104967 0.00941781 -1.00646 
-0.00266495 0.00548379 -1.0064 
-0.00369482 0.00272526 -1.00643 
-0.00379974 0.000992469 -1.00647 
-0.00326236 -0.000579964 -1.00649 
-0.00277058 -0.00182626 -1.00652 
-0.00229457 -0.00300678 -1.00649 
-0.00172921 -0.0038615 -1.00647 
-0.00122821 -0.00449509 -1.00643 
-0.000891099 -0.00470316 -1.00639 
-0.000808373 -0.00415913 -1.00641 
-0.000831231 -0.00287695 -1.0064 
-0.000925063 -0.00146614 -1.00645 
-0.00101913 -0.000662712 -1.0065 
-0.00111058 -0.000452046 -1.00655 
-0.00116359 -0.000539624 -1.00661 
-0.00115471 -0.000656782 -1.00667 
-0.00109026 -0.000745412 -1.00671 
-0.000992462 -0.00083834 -1.00684 
-0.000854879 -0.000882708 -1.00671 
-0.000683813 -0.000942012 -1.00598 
-0.000594037 -0.00109327 -1.00678 
-0.000427573 -0.00112087 -1.00683 
-0.000302649 -0.0012977 -1.00684 
-0.000125141 -0.00146246 -1.00639 
3.09875e-05 -0.00166837 -1.00159 
0.000102918 -0.00179141 1.00125 
0.000147948 -0.00162679 1.00575 
0.000384489 -0.00136808 1.00627 
0.000552131 -0.00124664 1.0068 
0.000727394 -0.00121714 1.00748 
0.000782491 -0.00103542 1.00618 
0.000955962 -0.00111172 1.00672 
0.0010052 -0.000931034 1.00684 
0.00113842 -0.000911527 1.00667 
0.00117225 -0.000718375 1.00663 
0.00121971 -0.000629062 1.00657 
0.00130665 -0.000543967 1.00645 
0.0012629 -0.000694228 1.00642 
0.00122797 -0.00150816 1.00638 
0.00116565 -0.00307706 1.00637 
0.0010244 -0.00439964 1.00633 
0.000801344 -0.00501953 1.00631 
0.00073123 -0.00465909 1.00629 
0.00112478 -0.00372898 1.0063 
0.00185224 -0.00255868 1.00634 
0.00271234 -0.00107644 1.00638 
0.00350693 0.000429102 1.00636 
0.00426719 0.00245722 1.00631 
0.0047305 0.00464391 1.00625 
0.0046554 0.00671091 1.00622 
0.00407954 0.00893713 1.00627 
0.00314144 0.0126806 1.00645 
0.00170163 0.0190369 1.00668 
-0.000483812 0.0280666 1.00676 
-0.00185777 0.0408202 1.00636 
-0.0015427 0.0593698 1.00512 
0.00260468 0.0843598 1.00294 
0.016967 0.118272 0.999624 
0.0305704 0.169997 0.989613 
0.0478877 0.235561 0.973551 
0.0910839 0.285175 0.954724 
0.0740961 0.402932 0.905361 
0.0230997 0.586276 0.812826 
0.124896 0.786121 0.575327 
-0.0739856 0.995065 0.0481793 
-0.164913 0.869417 -0.411757 
-0.165424 0.662158 -0.709194 
-0.109558 0.464518 -0.877014 
-0.0999084 0.264629 -0.960087 
-0.0586061 0.206671 -0.980228 
-0.0355748 0.150486 -0.993165 
-0.00838442 0.134795 -0.995905 
-0.0104792 0.0974001 -1.00077 
-0.00251685 0.0711953 -1.00406 
0.00126518 0.0502336 -1.00569 
0.000625833 0.033314 -1.00659 
-0.00156519 0.0211554 -1.00683 
-0.00282657 0.0142974 -1.00666 
-0.00404457 0.0105175 -1.00643 
-0.00480885 0.0073776 -1.00629 
-0.00544332 0.00506475 -1.00622 
-0.005051 0.00295073 -1.00625 
-0.00403352 0.000664826 -1.0063 
-0.003094 -0.000992748 -1.00633 
-0.00221654 -0.0023101 -1.00635 
-0.00137174 -0.00339374 -1.00636 
-0.000938346 -0.00431292 -1.00631 
-0.000906577 -0.0049527 -1.0063 
-0.00104419 -0.00484719 -1.00631 
-0.00112853 -0.00370728 -1.00632 
-0.00117927 -0.00223078 -1.00634 
-0.0012298 -0.00102119 -1.00637 
-0.00125281 -0.000541398 -1.00641 
-0.0012419 -0.000525087 -1.00647 
-0.00127604 -0.000708258 -1.00653 
-0.0012129 -0.000850712 -1.00662 
-0.00109974 -0.000931747 -1.0067 
-0.000960905 -0.00104852 -1.00754 
-0.000793452 -0.0010814 -1.00668 
-0.000693945 -0.00123643 -1.00676 
-0.000489357 -0.00132853 -1.00686 
-0.000316878 -0.00150288 -1.00682 
-0.000150482 -0.00158097 -1.00616 
-6.85761e-05 -0.0017937 -1.00156 
7.57597e-05 -0.00197625 1.00128 
0.000232834 -0.00183939 1.00622 
0.000253762 -0.00159339 1.00688 
0.000488326 -0.00153416 1.00673 
0.000662695 -0.00144988 1.00608 
0.000932013 -0.00133987 1.0068 
0.00114695 -0.00118433 1.00665 
0.00122377 -0.00107259 1.00666 
0.00136165 -0.000899931 1.0065 
0.0014436 -0.000760761 1.00653 
0.00153488 -0.000627632 1.00645 
0.00165796 -0.000715951 1.00636 
0.00165127 -0.00129797 1.00631 
0.0016602 -0.00260342 1.00628 
0.00168398 -0.00410241 1.00628 
0.00141391 -0.00500778 1.00625 
0.00108757 -0.00499617 1.00623 
0.000859504 -0.00425136 1.00623 
0.00118309 -0.00317203 1.00622 
0.00213117 -0.00178529 1.00625 
0.00346814 -0.00041688 1.00623 
0.00491646 0.00106507 1.00617 
0.00613724 0.0030644 1.00611 
0.00671841 0.00553345 1.00608 
0.00697046 0.00773963 1.0061 
0.00682235 0.0100021 1.00623 
0.00632715 0.0138279 1.00646 
0.00501599 0.020374 1.00667 
0.00423948 0.0293404 1.00666 
0.00541456 0.0418234 1.00631 
0.00884542 0.0584999 1.00534 
0.0190984 0.0773633 1.0037 
0.0414339 0.106748 0.999867 
0.0703119 0.126189 0.994229 
0.0863763 0.180377 0.983743 
0.137952 0.210659 0.97056 
0.147817 0.375764 0.915674 
0.118569 0.595789 0.790395 
-0.0164651 0.847204 0.52172 
0.00150129 0.970415 0.0735962 
0.0338962 0.903079 -0.421154 
-0.0560863 0.625672 -0.790536 
-0.15599 0.344264 -0.921958 
-0.13638 0.190609 -0.97499 
-0.0889316 0.156202 -0.98809 
-0.0688821 0.113802 -0.997115 
-0.0377282 0.10376 -1.00002 
-0.0219816 0.0733523 -1.00462 
-0.0109384 0.0565887 -1.00538 
-0.0053633 0.0414871 -1.00555 
-0.00466572 0.0279923 -1.00757 
-0.00572012 0.0177869 -1.00669 
-0.00673408 0.0125635 -1.00654 
-0.00700897 0.00904836 -1.0063 
-0.00730644 0.00693757 -1.00615 
-0.00731621 0.00478554 -1.0061 
-0.00609824 0.00228524 -1.00615 
-0.00468598 0.000178915 -1.00618 
-0.00310487 -0.00134234 -1.0062 
-0.00190364 -0.00258874 -1.00626 
-0.00112841 -0.00384537 -1.00628 
-0.00107223 -0.00463713 -1.00628 
-0.00135669 -0.00503096 -1.0063 
-0.0015951 -0.00476435 -1.0063 
-0.00170472 -0.0036732 -1.0063 
-0.00164696 -0.00216987 -1.00628 
-0.0016436 -0.00106634 -1.00632 
-0.00155458 -0.000584692 -1.00637 
-0.00149191 -0.000627233 -1.00644 
-0.00149566 -0.000838103 -1.00656 
-0.0013554 -0.00101337 -1.00661 
-0.0012154 -0.00111619 -1.00593 
-0.00110834 -0.00124666 -1.00673 
-0.000911722 -0.00126218 -1.00674 
-0.000771304 -0.0014233 -1.00675 
-0.000573796 -0.00149978 -1.00688 
-0.000424502 -0.00169229 -1.00688 
-0.000230411 -0.00179709 -1.0062 
-6.67245e-05 -0.0019627 -1.00158 
-4.03658e-05 -0.00221885 1.00154 
0.000231991 -0.0020595 1.00637 
0.000413503 -0.00176939 1.00683 
0.00059298 -0.0017294 1.0077 
0.00081421 -0.00154222 1.00678 
0.000958172 -0.00160452 1.00669 
0.00113802 -0.00138761 1.00599 
0.00129154 -0.00134496 1.00735 
0.00145086 -0.00113307 1.00592 
0.00158396 -0.000952181 1.0065 
0.00171579 -0.000811644 1.00651 
0.00185244 -0.000751931 1.00641 
0.00204102 -0.00126584 1.00629 
0.00216392 -0.00218427 1.00632 
0.00226444 -0.00352864 1.00621 
0.0021744 -0.00473989 1.00625 
0.00186303 -0.00507951 1.00618 
0.0015088 -0.00469424 1.00626 
0.0014049 -0.00378499 1.0062 
0.00181697 -0.00235032 1.00617 
0.00310146 -0.00114097 1.00617 
0.00503498 -2.10275e-05 1.00608 
0.00707764 0.00147564 1.006 
0.0083101 0.00391595 1.00597 
0.00872727 0.00673118 1.00597 
0.0086516 0.00933251 1.00607 
0.0084685 0.0122552 1.00624 
0.00763464 0.0167884 1.00652 
0.00681625 0.0226538 1.00679 
0.0081192 0.0313799 1.00678 
0.0121521 0.0441611 1.0063 
0.0216936 0.0558092 1.00554 
0.0402934 0.0736412 1.00399 
0.0729825 0.0777356 1.00161 
0.117443 0.114426 0.991572 
0.190458 0.163772 0.971698 
0.227113 0.323507 0.920079 
0.29825 0.41962 0.856496 
0.209376 0.697369 0.677854 
0.12677 0.966018 -0.188525 
-0.189121 0.69173 -0.695943 
-0.304249 0.402873 -0.859438 
-0.228378 0.342035 -0.913998 
-0.203082 0.178686 -0.965894 
-0.125838 0.111021 -0.990229 
-0.0794408 0.0800794 -1.00004 
-0.0459159 0.0725444 -1.00354 
-0.025971 0.0545665 -1.00584 
-0.0149224 0.0428826 -1.00639 
-0.0101081 0.0345051 -1.00661 
-0.00821181 0.0251056 -1.00685 
-0.00749898 0.0196503 -1.00606 
-0.00838654 0.0132332 -1.00662 
-0.00876028 0.00984605 -1.00638 
-0.00915421 0.00766683 -1.00613 
-0.00917549 0.00513782 -1.00601 
-0.00787739 0.00253317 -1.006 
-0.00617065 0.000344139 -1.00602 
-0.00407237 -0.000922591 -1.00604 
-0.00241811 -0.00200061 -1.00615 
-0.00152855 -0.0033163 -1.00616 
-0.00149242 -0.00451556 -1.00625 
-0.00190126 -0.00498842 -1.00629 
-0.00216062 -0.00498928 -1.00627 
-0.00227535 -0.00427488 -1.00627 
-0.00218957 -0.00289579 -1.00629 
-0.0020768 -0.0016563 -1.00625 
-0.00191882 -0.000866066 -1.00633 
-0.00177376 -0.000757847 -1.00646 
-0.00168934 -0.000882345 -1.00647 
-0.00151539 -0.00108354 -1.00738 
-0.00134064 -0.0012463 -1.0067 
-0.00115221 -0.00142099 -1.00681 
-0.000957527 -0.00148967 -1.00678 
-0.00078278 -0.00167092 -1.00678 
-0.000626489 -0.00170222 -1.00685 
-0.000445487 -0.00189403 -1.00682 
-0.000269137 -0.00198568 -1.00647 
-2.90578e-06 -0.00215898 -1.00158 
9.52849e-06 -0.00250941 1.0014 
0.000190064 -0.00229698 1.00614 
0.000417291 -0.00194597 1.0069 
0.000434702 -0.0019365 1.00689 
0.000664534 -0.00176569 1.00687 
0.000769252 -0.00175673 1.00669 
0.00101106 -0.00157253 1.00666 
0.00113132 -0.0015366 1.00664 
0.00140473 -0.00127788 1.00652 
0.00149283 -0.00113016 1.00654 
0.00173381 -0.000948468 1.00641 
0.00196767 -0.00101863 1.0063 
0.00222508 -0.001703 1.00628 
0.00247604 -0.00274837 1.0068 
0.00259574 -0.00407369 1.00555 
0.00255475 -0.0048086 1.00673 
0.00225816 -0.00493426 1.00555 
0.00201118 -0.00454568 1.00673 
0.00187223 -0.00352985 1.00556 
0.00224957 -0.0022043 1.00601 
0.00369468 -0.00100142 1.00601 
0.00583501 -0.000108549 1.00592 
0.00816108 0.00143692 1.00584 
0.0093859 0.00415476 1.00583 
0.00943469 0.00746826 1.00589 
0.0090178 0.00983011 1.00605 
0.00845166 0.0121877 1.00631 
0.00737604 0.015954 1.00663 
0.00680338 0.0214987 1.00693 
0.00944132 0.0289606 1.00709 
0.0161765 0.0379965 1.00696 
0.0307123 0.0461917 1.00657 
0.0494631 0.0496302 1.00577 
0.0854164 0.0433698 1.00262 
0.130409 0.0668827 0.995141 
0.182372 0.062103 0.984929 
0.280018 0.145128 0.953469 
0.431189 0.357109 0.827404 
0.363313 0.741844 0.567534 
-0.0682148 0.985932 0.0756917 
-0.385518 0.732658 -0.557303 
-0.434478 0.308482 -0.846069 
-0.28164 0.13141 -0.954595 
-0.172403 0.0656148 -0.986926 
-0.114777 0.0479112 -0.99857 
-0.0750209 0.0342723 -1.00419 
-0.0546691 0.0508641 -1.00495 
-0.0335433 0.0404505 -1.00682 
-0.0196889 0.0363082 -1.00685 
-0.0121929 0.0292516 -1.0071 
-0.00748986 0.0210315 -1.0071 
-0.00747996 0.01604 -1.0068 
-0.00843569 0.0114588 -1.0065 
-0.0092786 0.0091958 -1.00617 
-0.00973808 0.00646153 -1.00595 
-0.00953578 0.00321458 -1.00588 
-0.00808305 0.000893509 -1.00585 
-0.00573522 -0.000654737 -1.00588 
-0.00354223 -0.00152287 -1.006 
-0.00221147 -0.0024807 -1.00669 
-0.00176272 -0.00383875 -1.00557 
-0.00205129 -0.00469599 -1.00682 
-0.00237241 -0.00492912 -1.00624 
-0.0026011 -0.00480054 -1.00618 
-0.00254019 -0.0039946 -1.00618 
-0.00243579 -0.00275316 -1.00621 
-0.00221201 -0.00153801 -1.00551 
-0.00198834 -0.000970764 -1.00633 
-0.00173986 -0.000943525 -1.00708 
-0.00158906 -0.00109621 -1.00578 
-0.00134791 -0.00133317 -1.00653 
-0.00125172 -0.00141755 -1.00668 