# vtk DataFile Version 3.0 
Exported using Morpho https://github.com/Morpho-lang/morpho 
ASCII 
DATASET UNSTRUCTURED_GRID 

POINTS 1978 float 
-8.48564 -2.81917 3.42359e-08 
-8.25653 -2.82915 -2.01603e-09 
-8.02814 -2.82856 -2.0453e-09 
-7.77636 -2.82957 3.97963e-11 
-7.49899 -2.82881 -1.58202e-08 
-7.22719 -2.82893 -4.30016e-09 
-7.01499 -2.82898 -1.39367e-08 
-6.77699 -2.82891 -1.08764e-08 
-6.56868 -2.82911 -6.34187e-09 
-6.36035 -2.82872 -4.64755e-09 
-6.15034 -2.8289 3.84337e-09 
-5.92174 -2.82905 -3.68888e-09 
-5.70977 -2.82879 3.7463e-09 
-5.51096 -2.82892 -1.57539e-09 
-5.2898 -2.82892 -2.11785e-08 
-5.08387 -2.82888 -3.68695e-08 
-4.86735 -2.82892 -4.22174e-08 
-4.66128 -2.82889 -3.49529e-08 
-4.44389 -2.82888 -1.70573e-08 
-4.2288 -2.82894 1.66662e-08 
-4.01622 -2.82892 1.47803e-08 
-3.81534 -2.82893 -4.52902e-08 
-3.60697 -2.82893 -5.77542e-08 
-3.3968 -2.82896 4.13189e-08 
-3.178 -2.82887 6.36668e-08 
-2.95878 -2.82895 -6.63166e-08 
-2.7339 -2.82891 -1.16583e-07 
-2.51465 -2.82895 -2.0532e-08 
-2.28026 -2.82898 1.37224e-06 
-2.04364 -2.82866 4.40824e-06 
-1.85351 -2.82898 1.07939e-05 
-1.62713 -2.82825 3.23327e-05 
-1.44637 -2.82865 6.63892e-05 
-1.30426 -2.82827 0.000144354 
-1.16873 -2.82746 0.000220215 
-1.01268 -2.8273 0.00067165 
-0.863386 -2.82551 0.00106024 
-0.699057 -2.82136 0.00321582 
-0.427828 -2.8152 0.00545567 
0.201404 -2.82653 0.00215253 
0.435841 -2.81462 -0.00631338 
0.688636 -2.82129 -0.00266403 
0.828988 -2.82656 -0.00100322 
1.00064 -2.82708 -0.000803703 
1.17547 -2.82765 -0.000234497 
1.29663 -2.82799 -0.000121792 
1.48455 -2.82885 -5.82752e-05 
1.68091 -2.8282 -2.69286e-05 
1.86983 -2.82889 -9.64437e-06 
2.06677 -2.82865 -4.54957e-06 
2.28553 -2.82895 -1.35973e-06 
2.52859 -2.82883 -1.07731e-07 
2.73945 -2.82893 3.18373e-07 
2.94983 -2.82888 3.25471e-07 
3.17831 -2.829 -6.46126e-08 
3.39386 -2.82889 -1.1063e-07 
3.61598 -2.82894 5.15609e-08 
3.81982 -2.82893 8.79047e-08 
4.03069 -2.82898 2.16885e-08 
4.25066 -2.8289 -1.93754e-08 
4.45009 -2.8289 -7.81056e-09 
4.66491 -2.82891 4.03323e-08 
4.86787 -2.82887 4.96047e-08 
5.0806 -2.82895 3.91995e-08 
5.28859 -2.82889 1.82009e-08 
5.50528 -2.82891 -2.5401e-09 
5.71029 -2.82891 -6.04658e-09 
5.92793 -2.82894 6.15838e-10 
6.15009 -2.82884 2.79805e-09 
6.35167 -2.82898 5.77907e-09 
6.5879 -2.82891 6.136e-09 
6.80323 -2.82885 5.97907e-09 
7.00473 -2.82897 1.34451e-08 
7.27037 -2.82891 8.01563e-09 
7.505 -2.829 7.79016e-09 
7.74404 -2.8291 7.73275e-09 
8.02633 -2.82892 1.70165e-09 
8.21099 -2.82906 2.92395e-09 
8.48553 -2.8192 -4.07721e-08 
-8.48592 -2.56015 1.48437e-08 
-8.27454 -2.59307 -2.67559e-09 
-8.05054 -2.58622 1.10122e-09 
-7.81269 -2.61738 3.958e-10 
-7.558 -2.63675 5.47108e-09 
-7.26546 -2.63341 4.03476e-09 
-6.995 -2.58001 5.59986e-09 
-6.78107 -2.60875 1.15781e-08 
-6.53891 -2.58054 3.82821e-09 
-6.32139 -2.58448 3.26343e-10 
-6.09179 -2.60718 -4.77506e-10 
-5.87274 -2.59059 -2.265e-09 
-5.6653 -2.57448 -7.39043e-09 
-5.44592 -2.60265 -1.29839e-08 
-5.23137 -2.58582 -4.85883e-09 
-5.01297 -2.59829 2.90734e-08 
-4.79919 -2.58687 6.58181e-08 
-4.58117 -2.59958 5.66782e-08 
-4.35967 -2.59839 -1.08007e-08 
-4.14139 -2.5971 -7.44625e-08 
-3.93165 -2.58418 -5.85484e-08 
-3.7229 -2.59206 1.85802e-08 
-3.51009 -2.59145 5.38924e-08 
-3.29292 -2.59701 -3.35023e-09 
-3.0708 -2.59278 -7.68036e-08 
-2.84744 -2.59764 -1.18308e-07 
-2.62272 -2.59202 -2.54843e-07 
-2.39386 -2.611 -5.97129e-07 
-2.15453 -2.61735 -1.44766e-06 
-1.93652 -2.57431 -3.57948e-06 
-1.73584 -2.62539 -1.20843e-05 
-1.52806 -2.59137 -3.10422e-05 
-1.36695 -2.54859 -8.4227e-05 
-1.20433 -2.58826 -9.97437e-05 
-1.05084 -2.6137 -0.000235432 
-0.88212 -2.44845 -0.00015351 
-0.884612 -2.63709 -0.000358297 
-0.683634 -2.69205 0.000356202 
-0.320188 -2.75599 -0.00333261 
0.152684 -2.70344 -0.00127327 
0.382797 -2.68814 0.0012769 
0.609494 -2.69311 0.000499306 
0.793035 -2.58832 0.000411488 
0.926193 -2.59808 8.33445e-05 
1.06856 -2.62526 0.000346474 
1.1882 -2.52079 5.64824e-05 
1.35398 -2.61857 4.85181e-05 
1.56605 -2.6213 2.50057e-05 
1.77234 -2.58561 7.96532e-06 
2.02982 -2.62857 4.44454e-06 
2.27885 -2.59588 9.26681e-07 
2.5042 -2.61343 1.92414e-07 
2.74989 -2.57823 -1.70743e-07 
2.98113 -2.60059 4.15103e-08 
3.20263 -2.59082 2.15956e-08 
3.42907 -2.60038 -3.54432e-08 
3.63947 -2.58401 -3.52372e-08 
3.85412 -2.59479 3.07625e-08 
4.07708 -2.60542 6.59704e-08 
4.28397 -2.58106 3.5537e-08 
4.4999 -2.59866 -3.08773e-08 
4.71026 -2.58461 -6.7766e-08 
4.92659 -2.5962 -4.93614e-08 
5.14127 -2.59095 -7.63128e-09 
5.36194 -2.60025 1.33529e-08 
5.57606 -2.58586 1.29268e-08 
5.7942 -2.59908 2.32579e-09 
6.0202 -2.60161 8.89795e-11 
6.23528 -2.57505 -8.08916e-10 
6.45699 -2.61051 -3.99608e-09 
6.68504 -2.58555 -5.85e-09 
6.89586 -2.56584 -6.34548e-09 
7.12627 -2.62838 -2.95916e-09 
7.37836 -2.60023 -1.84024e-09 
7.61683 -2.60458 -2.03863e-09 
7.87635 -2.63858 -6.13392e-09 
8.08165 -2.53685 6.63473e-10 
8.30323 -2.62775 -3.36889e-09 
8.48604 -2.52392 2.96912e-08 
-8.4854 -2.34653 -4.02174e-08 
-8.227 -2.34579 -2.55215e-09 
-7.99603 -2.34633 3.18763e-09 
-7.77175 -2.39948 2.38435e-09 
-7.57113 -2.25103 5.30317e-10 
-7.47962 -2.45606 1.21148e-09 
-7.20094 -2.42399 -2.25485e-09 
-6.96703 -2.33434 3.35934e-09 
-6.73142 -2.38837 3.99929e-09 
-6.49471 -2.34598 1.16002e-09 
-6.25407 -2.36783 -2.42379e-09 
-6.03507 -2.36824 -2.05273e-09 
-5.81902 -2.34319 -8.34166e-10 
-5.58571 -2.35391 -3.83739e-09 
-5.37352 -2.3619 -4.60771e-09 
-5.14424 -2.36058 -7.91069e-10 
-4.92924 -2.35817 1.15519e-08 
-4.70291 -2.36209 1.35901e-08 
-4.48219 -2.37275 2.89773e-09 
-4.2595 -2.36838 -1.21559e-08 
-4.04743 -2.35376 -7.58319e-09 
-3.83205 -2.34983 3.98479e-09 
-3.62071 -2.35752 4.33488e-09 
-3.40126 -2.3613 -1.58569e-08 
-3.18105 -2.3644 -4.68991e-08 
-2.95239 -2.3621 -6.41999e-08 
-2.7273 -2.36201 -1.08612e-07 
-2.48965 -2.37527 -2.956e-07 
-2.25355 -2.40199 -7.81574e-07 
-2.0248 -2.36724 -2.41672e-06 
-1.77717 -2.37467 -5.33968e-06 
-1.58204 -2.39235 -1.32228e-05 
-1.3769 -2.29464 -2.38475e-05 
-1.21111 -2.35515 -3.65661e-05 
-1.04521 -2.40295 -0.000105028 
-0.79873 -2.27744 -3.78033e-05 
-0.727211 -2.51906 -0.00026257 
-0.54663 -2.61651 -0.000870725 
-0.274812 -2.69091 -0.00119496 
-0.126798 -2.66169 0.00331768 
0.245906 -2.57804 -0.00357357 
0.499528 -2.55864 -8.33424e-05 
0.682944 -2.48595 0.000175773 
0.840352 -2.33511 -7.09724e-05 
0.993867 -2.38167 3.19004e-05 
1.16615 -2.30885 8.41889e-05 
1.35536 -2.38832 3.13028e-05 
1.53912 -2.40819 1.2661e-05 
1.74275 -2.36587 1.11998e-05 
1.97001 -2.42384 2.13166e-06 
2.20913 -2.39575 1.46925e-06 
2.45848 -2.37235 4.52986e-07 
2.67818 -2.37232 4.23059e-07 
2.93159 -2.36599 -3.09717e-08 
3.15287 -2.35428 4.08658e-08 
3.37395 -2.36998 2.36263e-08 
3.58828 -2.34519 -4.37827e-09 
3.79968 -2.35717 -6.24682e-09 
4.01336 -2.37723 4.97852e-09 
4.22181 -2.34603 4.86872e-09 
4.43815 -2.36048 -1.40186e-11 
4.64451 -2.34904 -9.70513e-09 
4.86087 -2.35957 -1.33591e-08 
5.07262 -2.35665 -4.51541e-09 
5.29122 -2.36881 3.5615e-09 
5.50521 -2.35371 4.24771e-09 
5.7261 -2.36183 3.59436e-09 
5.94485 -2.37441 2.60239e-09 
6.16248 -2.34564 9.86118e-10 
6.39626 -2.36494 -4.38421e-10 
6.60864 -2.36357 -5.24824e-10 
6.83356 -2.31959 -1.0774e-09 
7.06654 -2.37884 -2.44727e-09 
7.28708 -2.39801 -2.797e-09 
7.54568 -2.37549 -1.1549e-09 
7.79315 -2.41821 -2.48584e-09 
8.00283 -2.31537 -1.05935e-09 
8.25904 -2.36232 -3.03219e-09 
8.48579 -2.2873 2.59355e-09 
-8.48629 -2.10752 -2.86852e-09 
-8.25912 -2.12497 1.61486e-08 
-8.02457 -2.09958 -3.73013e-09 
-7.79465 -2.14606 9.84349e-10 
-7.50819 -2.03953 -1.7869e-09 
-7.31336 -2.23918 1.97557e-09 
-7.08235 -2.14215 -2.62574e-09 
-6.80311 -2.14234 -5.50838e-11 
-6.59308 -2.13641 1.00919e-09 
-6.34428 -2.13995 6.01868e-10 
-6.12349 -2.12606 5.98306e-10 
-5.91654 -2.11353 1.88619e-09 
-5.68863 -2.12858 2.20821e-09 
-5.46779 -2.11583 1.11831e-09 
-5.25433 -2.13749 1.66636e-09 
-5.03653 -2.12134 3.70964e-09 
-4.81883 -2.13344 4.69268e-09 
-4.59918 -2.13604 5.47737e-09 
-4.38566 -2.14269 5.60336e-09 
-4.17684 -2.12382 8.62542e-09 
-3.96585 -2.11845 1.2968e-08 
-3.7545 -2.11502 1.55736e-08 
-3.54177 -2.1282 1.58638e-08 
-3.32466 -2.12933 1.8601e-08 
-3.10216 -2.13595 2.51403e-08 
-2.87565 -2.12618 1.87588e-08 
-2.64364 -2.14055 -2.3951e-08 
-2.40405 -2.15948 -2.2809e-07 
-2.18071 -2.16492 -7.90927e-07 
-1.92446 -2.16481 -2.25598e-06 
-1.70393 -2.13221 -5.26344e-06 
-1.51176 -2.14718 -1.07066e-05 
-1.25542 -2.08723 -1.77502e-05 
-1.09296 -2.12421 -4.21981e-05 
-0.966212 -2.21672 -8.73411e-05 
-0.855371 -2.05846 0.00010197 
-0.641029 -2.39181 -0.000234353 
-0.44975 -2.53718 0.000612381 
-0.277686 -2.49945 0.00303217 
-0.00489638 -2.57941 -3.08986e-05 
0.31165 -2.45768 0.00114049 
0.533111 -2.40018 -0.000734583 
0.694564 -2.26957 0.000174799 
0.861356 -2.09605 1.15663e-05 
0.997311 -2.16335 0.000166023 
1.14183 -2.06775 1.66352e-05 
1.33043 -2.16001 2.44646e-05 
1.53116 -2.18114 1.54407e-05 
1.76737 -2.15808 2.3708e-06 
2.0019 -2.20713 1.33013e-06 
2.25395 -2.18035 5.16198e-07 
2.48567 -2.1313 5.98222e-08 
2.73545 -2.16384 7.65686e-09 
2.96667 -2.12842 -1.91328e-08 
3.19595 -2.12416 -1.64422e-08 
3.41018 -2.1302 -1.9369e-08 
3.62896 -2.11043 -1.61772e-08 
3.84424 -2.12909 -1.43088e-08 
4.04768 -2.13336 -1.06075e-08 
4.27273 -2.12068 -8.31487e-09 
4.47789 -2.11589 -5.97098e-09 
4.69696 -2.12051 -6.0026e-09 
4.90811 -2.1215 -4.7731e-09 
5.12871 -2.12934 -3.1747e-09 
5.33992 -2.12993 -6.93136e-10 
5.56396 -2.12622 -5.65131e-10 
5.78401 -2.13197 -4.73144e-10 
5.99653 -2.13226 -5.43462e-10 
6.23818 -2.13109 -1.48614e-09 
6.45141 -2.11592 -3.07418e-10 
6.66541 -2.11761 1.00531e-09 
6.92623 -2.11378 -1.76187e-09 
7.14354 -2.1412 -9.77731e-11 
7.37561 -2.18205 -1.10111e-09 
7.5658 -2.08092 7.44776e-10 
7.74157 -2.18863 -1.21834e-09 
7.95714 -2.08765 2.44619e-09 
8.20664 -2.14133 -6.58358e-09 
8.48574 -2.09354 1.01918e-08 
-8.48576 -1.82902 -5.14399e-08 
-8.29152 -1.89008 3.14811e-08 
-7.89105 -1.8912 -3.50276e-10 
-7.67377 -1.90991 1.57044e-10 
[...]
POINT_DATA 1978 
VECTORS vectors float
-0.000118718 -0.000414718 0.99971 
-8.06699e-05 -0.000417107 1.00023 
-5.44046e-05 -0.000411315 1.00046 
-3.67841e-05 -0.000411609 1.00034 
-3.07462e-05 -0.000402511 1.00035 
-3.96068e-05 -0.000396904 1.00034 
-4.93e-05 -0.000385418 1.00033 
-7.482e-05 -0.000366822 1.00033 
-0.000110167 -0.000334381 1.00022 
-0.00015515 -0.00027955 1.00033 
-0.000212395 -0.000208122 1.00032 
-0.000289388 -0.000112082 1.00032 
-0.000378018 4.77389e-06 1.00032 
-0.00046139 0.000138253 1.00032 
-0.000549678 0.000281682 1.00032 
-0.000668962 0.000410119 1.00032 
-0.000860043 0.000619374 1.00032 
-0.0010774 0.000976851 1.00032 
-0.00128584 0.00152903 1.00031 
-0.00147382 0.0022014 1.00031 
-0.00171431 0.00293228 1.00031 
-0.00216251 0.00374248 1.0003 
-0.003073 0.00491527 1.0003 
-0.00460313 0.0068144 1.00029 
-0.00692458 0.00988605 1.00025 
-0.0100066 0.0145307 1.00017 
-0.0142941 0.021309 0.999998 
-0.020468 0.0310154 0.999631 
-0.0284567 0.0473708 0.998785 
-0.0383905 0.0691255 0.997158 
-0.0507804 0.092394 0.994684 
-0.0706807 0.133655 0.988726 
-0.092087 0.18208 0.979129 
-0.109235 0.234208 0.96607 
-0.124163 0.293447 0.948026 
-0.14514 0.382176 0.912592 
-0.156663 0.481742 0.862223 
-0.15615 0.613452 0.774496 
-0.0969902 0.844008 0.532573 
0.0313607 0.969756 -0.247119 
0.123884 0.826184 -0.549626 
0.160098 0.611712 -0.774826 
0.158137 0.498442 -0.852427 
0.14291 0.387442 -0.910682 
0.120512 0.289353 -0.949702 
0.106628 0.234465 -0.966423 
0.0829049 0.172426 -0.981606 
0.0662038 0.120885 -0.990792 
0.0495062 0.0908254 -0.994807 
0.0381021 0.0638841 -0.997626 
0.0282406 0.0442919 -0.998936 
0.0192815 0.0300689 -0.999692 
0.0140994 0.0210675 -0.999904 
0.009894 0.0144427 -1.00018 
0.00670416 0.00987612 -1.00026 
0.00455134 0.00683227 -1.00029 
0.00299915 0.00475758 -1.0003 
0.00208706 0.00354707 -1.00031 
0.00157453 0.00279073 -1.00031 
0.00136484 0.00216095 -1.00031 
0.00126168 0.00157951 -1.00031 
0.00111615 0.00098137 -1.00031 
0.000900112 0.000551781 -1.00032 
0.000657494 0.00031866 -1.00032 
0.00049873 0.000227007 -1.00032 
0.000424449 0.000140271 -1.00032 
0.000373232 1.20837e-05 -1.00032 
0.000290255 -0.000126126 -1.00032 
0.000202816 -0.00022316 -1.00032 
0.000147171 -0.000283559 -1.00033 
0.000103314 -0.000338738 -1.00033 
7.30291e-05 -0.000376765 -1.00033 
5.34241e-05 -0.000398938 -1.00034 
3.78432e-05 -0.000411808 -1.00034 
3.19959e-05 -0.000419735 -1.00034 
3.92479e-05 -0.000422611 -1.00034 
5.65177e-05 -0.000423928 -1.00034 
8.05211e-05 -0.000426203 -1.00034 
0.000129666 -0.000417323 -0.99962 
-0.000179231 -0.000446793 0.999382 
-0.000126451 -0.000439666 1.00065 
-8.94759e-05 -0.000429807 1.00069 
-5.73498e-05 -0.00041429 1.00057 
-4.36654e-05 -0.000397343 1.00068 
-4.73222e-05 -0.00037887 1.00067 
-6.15697e-05 -0.000346923 1.00067 
-7.89296e-05 -0.00032168 1.00066 
-0.00011511 -0.000264893 1.00075 
-0.000166421 -0.00019852 1.00065 
-0.00024007 -0.000109516 1.00064 
-0.000327367 1.11234e-05 1.00064 
-0.000424638 0.000151107 1.00064 
-0.000526276 0.000294919 1.00063 
-0.000639407 0.000473048 1.00063 
-0.000764752 0.00066562 1.00063 
-0.000913933 0.00095844 1.00063 
-0.00107129 0.00137744 1.00063 
-0.00123324 0.00198286 1.00062 
-0.00143132 0.00277351 1.00062 
-0.00173439 0.0038069 1.00061 
-0.0022754 0.0052012 1.0006 
-0.00320898 0.00729921 1.00059 
-0.00471786 0.010357 1.00057 
-0.00680657 0.0150191 1.00051 
-0.00967995 0.0216875 1.00037 
-0.0134018 0.0311009 1.00007 
-0.0186336 0.0446116 0.999463 
-0.0254763 0.0651683 0.99816 
-0.0312589 0.0923147 0.995819 
-0.0433347 0.123973 0.99187 
-0.0503257 0.17399 0.983923 
-0.0507433 0.22389 0.97374 
-0.0638757 0.289962 0.955096 
-0.0729225 0.367363 0.927425 
-0.0176406 0.45229 0.891634 
-0.0807792 0.469705 0.878998 
-0.0930441 0.623602 0.776227 
-0.0555836 0.898068 0.427461 
0.0154879 0.97677 -0.205168 
0.0586165 0.854108 -0.514501 
0.0929081 0.675717 -0.730396 
0.0606695 0.525642 -0.848325 
0.0671527 0.438845 -0.895986 
0.0730386 0.352647 -0.933072 
0.0464741 0.292801 -0.955362 
0.0604259 0.223795 -0.973235 
0.0499975 0.161841 -0.985934 
0.0382352 0.117779 -0.992939 
0.0302141 0.0780389 -0.996996 
0.0211257 0.0523631 -0.999033 
0.0161544 0.0366969 -0.999848 
0.0107541 0.0252616 -1.00038 
0.00759754 0.0170777 -1.00048 
0.00525571 0.0120313 -1.00056 
0.00356331 0.00817531 -1.0006 
0.00246568 0.00583684 -1.00061 
0.00181439 0.0041389 -1.00061 
0.00143203 0.00297728 -1.00061 
0.00122882 0.00223629 -1.00062 
0.00110655 0.0015946 -1.00062 
0.000976125 0.00110792 -1.00063 
0.000824369 0.000722983 -1.00063 
0.000669881 0.000490837 -1.00063 
0.000540919 0.000323192 -1.00063 
0.000448396 0.000188551 -1.00063 
0.000355412 4.21476e-05 -1.00063 
0.000259429 -8.58207e-05 -1.00064 
0.000183994 -0.00017287 -1.00065 
0.000125352 -0.000257506 -1.00065 
8.56828e-05 -0.000309347 -1.00066 
6.48719e-05 -0.00034319 -1.00067 
5.26507e-05 -0.00037966 -1.00067 
4.87294e-05 -0.00039694 -1.00067 
5.17052e-05 -0.000413791 -1.00067 
6.64514e-05 -0.00042962 -1.00056 
0.000107637 -0.000449727 -1.00078 
0.000136988 -0.000449704 -1.00053 
0.000206541 -0.000464518 -0.999255 
-0.000238813 -0.000483349 0.999411 
-0.000163347 -0.000471974 1.00078 
-0.000113606 -0.000445587 1.00059 
-7.69811e-05 -0.000414759 1.0008 
-7.35301e-05 -0.000389657 1.00057 
-5.62285e-05 -0.000383169 1.00069 
-5.75039e-05 -0.000349683 1.00068 
-6.59891e-05 -0.000305782 1.00068 
-8.53101e-05 -0.000271623 1.00067 
-0.000125333 -0.000200111 1.00066 
-0.000190257 -0.000113364 1.00065 
-0.000273328 -5.13563e-06 1.00065 
-0.000370367 0.000137447 1.00064 
-0.000483812 0.000305672 1.00064 
-0.000589584 0.000473719 1.00064 
-0.000702808 0.000685679 1.00064 
-0.000808525 0.000936278 1.00064 
-0.000925776 0.00129772 1.00063 
-0.00103998 0.00180126 1.00063 
-0.00116556 0.00252168 1.00062 
-0.00134308 0.00350026 1.00062 
-0.00165219 0.00493377 1.00061 
-0.00216392 0.00696052 1.0006 
-0.00302744 0.00999057 1.00058 
-0.00429614 0.0142694 1.00053 
-0.00595884 0.0205585 1.00043 
-0.00812942 0.0289697 1.00021 
-0.0111629 0.0410106 0.999752 
-0.0149379 0.0589031 0.998793 
-0.0173703 0.082702 0.997038 
-0.0213526 0.119538 0.993178 
-0.024785 0.158954 0.987487 
-0.0126313 0.211496 0.977724 
-0.016713 0.273152 0.962209 
-0.0185781 0.353253 0.935513 
0.0449395 0.463729 0.884829 
-0.0265671 0.571023 0.820231 
-0.0465321 0.729443 0.680263 
-0.0356458 0.921869 0.386082 
-0.0154656 0.977191 0.196875 
0.00498072 0.927597 -0.369144 
0.0233513 0.746239 -0.663962 
0.0132869 0.588877 -0.80769 
-0.0210109 0.453706 -0.890849 
0.00714654 0.374952 -0.927186 
0.00173965 0.286201 -0.958479 
0.0230068 0.222526 -0.974951 
0.02619 0.169064 -0.985741 
0.0203338 0.125368 -0.992452 
0.0211441 0.0891974 -0.996384 
0.0155821 0.0613612 -0.998625 
0.0116432 0.0425291 -0.999681 
0.00877937 0.0308167 -1.00015 
0.00593133 0.0208845 -1.00042 
0.00414626 0.0148025 -1.00053 
0.00299398 0.0102829 -1.00058 
0.00207264 0.00726511 -1.0006 
0.00161329 0.00508004 -1.00061 
0.00133514 0.00357832 -1.00061 
0.00112734 0.00263618 -1.00062 
0.00102335 0.00191802 -1.00062 
0.000928566 0.0014172 -1.00062 
0.000826417 0.00100862 -1.00063 
0.000718392 0.000726706 -1.00063 
0.000612423 0.000506136 -1.00063 
0.000511796 0.000339889 -1.00063 
0.000407957 0.000174447 -1.00064 
0.000305534 2.97237e-05 -1.00064 
0.000213279 -7.75358e-05 -1.00064 
0.000138687 -0.000181868 -1.00065 
9.43046e-05 -0.00024885 -1.00066 
6.80078e-05 -0.000291938 -1.00067 
5.91206e-05 -0.000339606 -1.00067 
5.81415e-05 -0.000371115 -1.00067 
6.50319e-05 -0.000400374 -1.00078 
8.12526e-05 -0.000429703 -1.00068 
0.000123963 -0.000464277 -1.00067 
0.000177866 -0.000489691 -1.00065 
0.000271132 -0.000524599 -0.999449 
-0.000304441 -0.000551688 0.999279 
-0.000214287 -0.000520024 1.00055 
-0.000152532 -0.000477302 1.0008 
-0.000103623 -0.000429344 1.00079 
-8.05024e-05 -0.000375038 1.00067 
-6.41206e-05 -0.000348894 1.00067 
-6.54701e-05 -0.000300868 1.00078 
-7.4552e-05 -0.000247794 1.00066 
-0.000102044 -0.000190533 1.00066 
-0.000160809 -9.69305e-05 1.00065 
-0.000241193 1.45197e-05 1.00065 
-0.000330896 0.00014464 1.00064 
-0.000439562 0.000306894 1.00064 
-0.000547742 0.000489639 1.00063 
-0.000645825 0.000676016 1.00063 
-0.000731161 0.000920662 1.00063 
-0.00081337 0.00122109 1.00063 
-0.000887255 0.00164482 1.00062 
-0.000950115 0.00221732 1.00062 
-0.00101741 0.00301958 1.00062 
-0.00115659 0.00419261 1.00061 
-0.00137258 0.0059322 1.0006 
-0.00173553 0.00845465 1.00059 
-0.00226663 0.0120933 1.00056 
-0.0030622 0.0171582 1.0005 
-0.00391271 0.0241212 1.00036 
-0.00519024 0.0335366 1.00009 
-0.00659838 0.0467893 0.99954 
-0.00735535 0.0647574 0.998515 
-0.00718578 0.0930533 0.996258 
-0.0026217 0.124548 0.992791 
0.00120936 0.16431 0.986919 
0.0239055 0.224185 0.974682 
0.0349749 0.28387 0.958465 
0.0350155 0.358808 0.932918 
0.088081 0.363095 0.927612 
0.0311808 0.604089 0.795716 
-0.00596857 0.791432 0.609704 
0.0188336 0.899676 0.43124 
0.00147128 0.997983 0.0195555 
-0.034676 0.869575 -0.490491 
-0.0402034 0.677387 -0.733754 
-0.0627419 0.523066 -0.84975 
-0.0803897 0.374987 -0.923626 
-0.0427383 0.330147 -0.943258 
-0.0402249 0.254418 -0.96663 
-0.0105302 0.210323 -0.977997 
0.0010722 0.160257 -0.987698 
0.00571342 0.115138 -0.993938 
0.00906132 0.0835413 -0.997098 
0.00769591 0.0571146 -0.998996 
0.00616243 0.0410301 -0.999807 
0.00504571 0.028952 -1.00023 
0.003251 0.0207892 -1.00044 
0.00238525 0.0146165 -1.00054 
0.00182545 0.0102924 -1.00058 
0.00138006 0.00716954 -1.0006 
0.00118739 0.00499762 -1.00061 
0.00104602 0.00360029 -1.00061 
0.000934123 0.00257161 -1.00062 
0.000876315 0.00193244 -1.00062 
0.000818559 0.0014265 -1.00062 
0.0007511 0.00106496 -1.00063 
0.000677514 0.000782336 -1.00063 
0.000596251 0.000570642 -1.00063 
0.000496895 0.000378154 -1.00063 
0.000389752 0.000208734 -1.00064 
0.000288418 6.90419e-05 -1.00064 
0.000185083 -6.14076e-05 -1.00065 
0.000118535 -0.000150323 -1.00066 
7.93422e-05 -0.000221451 -1.00066 
6.17684e-05 -0.000280733 -1.00067 
6.18812e-05 -0.00032436 -1.00067 
6.74009e-05 -0.000368507 -1.00057 
8.39161e-05 -0.000399155 -1.00067 
9.54033e-05 -0.000430428 -1.00068 
0.000138706 -0.000479121 -1.00068 
0.000197921 -0.0005253 -1.00067 
0.00031174 -0.000586146 -0.999435 
-0.000338591 -0.000660154 0.999212 
-0.00024998 -0.000584224 1.00065 
-0.000141228 -0.000472759 1.00057 
-0.000105243 -0.00041339 1.00067 
-8.39926e-05 -0.000355308 1.00078 
-7.16672e-05 -0.000326988 1.00057 
-6.23452e-05 -0.000285829 1.00067 
-6.33678e-05 -0.000255593 1.00067 
-7.24217e-05 -0.000188308 1.00066 
-0.000111983 -0.000115393 1.00065 
-0.000178277 -5.30969e-06 1.00065 
-0.000261938 0.000121432 1.00065 
-0.000365668 0.000270381 1.00064 
-0.000469587 0.000441532 1.00063 
-0.000573433 0.000640828 1.00063 
-0.000656546 0.000850623 1.00063 
-0.000716898 0.00113044 1.00063 
-0.000763415 0.00148336 1.00062 
-0.000795245 0.00197725 1.00062 
-0.000810448 0.00263592 1.00062 
-0.000835248 0.00359982 1.00061 
-0.00089162 0.00500823 1.0006 
-0.000974565 0.00715242 1.00059 
-0.00107316 0.0101881 1.00057 
-0.00119584 0.0144804 1.00053 
-0.0013219 0.0200849 1.00045 
-0.00138976 0.0279022 1.00028 
-0.00148787 0.0383235 0.999934 
-0.000488257 0.0517926 0.999322 
0.000854159 0.0722806 0.998039 
0.00748579 0.0969704 0.995891 
0.0178688 0.127831 0.992224 
0.0291022 0.170259 0.985481 
0.0640289 0.204416 0.977319 
0.0869074 0.265475 0.960485 
0.140663 0.317216 0.937968 
0.112224 0.481077 0.869244 
0.0844027 0.653484 0.751339 
0.0724739 0.809258 0.582056 
0.00479856 0.996978 0.0581629 
-0.0587526 0.89594 -0.435499 
-0.0993233 0.661015 -0.743498 
-0.128077 0.479121 -0.868034 
-0.135996 0.330913 -0.933906 
-0.0901381 0.266015 -0.960031 
-0.070882 0.200968 -0.977461 
-0.038093 0.18375 -0.98271 
-0.0228739 0.145734 -0.989523 
-0.00985556 0.114267 -0.994015 
-0.00206427 0.0830625 -0.997183 
0.000718151 0.0602369 -0.998851 
0.00128098 0.0432259 -0.99974 
0.00208686 0.0311857 -1.00018 
0.0012258 0.0229488 -1.0004 
0.00091799 0.0162764 -1.00052 
0.000860577 0.0113845 -1.00057 
0.000830204 0.00808098 -1.00059 
0.000825706 0.00560781 -1.0006 
0.000796852 0.00400944 -1.00061 
0.000791608 0.00293083 -1.00061 
0.000751893 0.00217472 -1.00062 
0.000735296 0.00164403 -1.00062 
0.000695493 0.00123662 -1.00062 
0.000661731 0.000935442 -1.00063 
0.000599637 0.000703657 -1.00063 
0.00051866 0.000503582 -1.00063 
0.000410354 0.000319375 -1.00064 
0.000304741 0.000166443 -1.00064 
0.000209868 2.73588e-05 -1.00064 
0.000124954 -7.66323e-05 -1.00065 
7.60368e-05 -0.0001632 -1.00066 
5.76472e-05 -0.000233028 -1.00066 
5.59985e-05 -0.000285563 -1.00077 
6.87031e-05 -0.000339796 -1.00067 
8.89369e-05 -0.000391983 -1.00067 
0.000119823 -0.000453017 -1.00068 
0.000173328 -0.000532237 -1.00068 
0.000233265 -0.000582652 -1.00066 
0.00032756 -0.000679415 -0.999333 
-0.000314566 -0.000773925 0.999345 
-0.000243563 -0.000660194 1.00065 
-0.000194181 -0.000543368 1.00068 
-0.000145772 -0.000495408 1.00067 
-0.000110337 -0.000422286 1.00057 
-6.59586e-05 -0.000315945 1.00067 
-4.87832e-05 -0.00024212 1.00066 
-5.0288e-05 -0.000197175 1.00066 
-6.94878e-05 -0.000109896 1.00065 
-0.00011893 -1.54066e-05 1.00065 
-0.000188647 0.000106475 1.00064 
-0.000287998 0.000248874 1.00064 
-0.000382213 0.000398992 1.00063 
-0.000476455 0.000577337 1.00063 
-0.000556416 0.00078482 1.00063 
-0.000620069 0.00101189 1.00062 
-0.000645972 0.00131308 1.00062 
-0.000655293 0.00170115 1.00062 
-0.000631265 0.00222867 1.00061 
-0.000591159 0.00297307 1.00061 
-0.00053768 0.00403104 1.0006 
-0.000499248 0.00560046 1.00059 
-0.000401564 0.00789254 1.00058 
-0.000213924 0.0111737 1.00056 
0.0001865 0.0155501 1.00052 
0.00074282 0.0214286 1.00043 
0.00162358 0.02909 1.00025 
0.00287363 0.0385488 0.999928 
0.00574698 0.0523289 0.999288 
0.0103734 0.0696467 0.998184 
0.0204863 0.0905015 0.996335 
0.0367022 0.115586 0.993233 
0.054009 0.149001 0.987822 
0.0886897 0.150423 0.985169 
0.11606 0.203402 0.972586 
0.176948 0.245512 0.953399 
0.181495 0.452708 0.872701 
0.160301 0.66129 0.731559 
0.0614128 0.925064 0.366908 
-0.00233683 0.997877 -0.0165135 
-0.123106 0.861614 -0.488925 
-0.041984 0.51355 -0.856529 
-0.187132 0.424488 -0.885739 
-0.180961 0.262696 -0.947982 
-0.125872 0.210613 -0.969807 
-0.0929183 0.153162 -0.98434 
-0.0567346 0.140997 -0.988928 
-0.0345502 0.114552 -0.993426 
-0.0172522 0.091144 -0.996353 
-0.0096048 0.0686454 -0.998275 
-0.00541582 0.0509066 -0.999492 
-0.00184075 0.0356758 -1.00004 
-0.00104237 0.0269019 -1.00031 
-0.000775568 0.0199143 -1.00046 
-0.000395238 0.0142247 -1.00054 
-3.06652e-06 0.0100792 -1.00057 
0.00032262 0.00706644 -1.00059 
0.000438882 0.00503546 -1.0006 
0.000520867 0.00362944 -1.0006 
0.000588959 0.00271339 -1.00061 
0.00059461 0.00202272 -1.00061 
0.00060359 0.00154656 -1.00062 
0.000595301 0.0011791 -1.00062 
0.000578921 0.00091176 -1.00062 
0.000524411 0.00068949 -1.00063 
0.000445312 0.000492366 -1.00063 
0.000346975 0.000325639 -1.00063 
0.000246805 0.000170902 -1.00064 
0.000161643 4.56284e-05 -1.00064 
8.12666e-05 -5.80778e-05 -1.00065 
4.40076e-05 -0.000152658 -1.00066 
3.98953e-05 -0.000226528 -1.00055 
4.4697e-05 -0.000275877 -1.00066 
6.61693e-05 -0.000331364 -1.00067 
9.08432e-05 -0.000399342 -1.00067 
0.000124812 -0.000468295 -1.00068 
0.00016572 -0.000555727 -1.00068 
0.000230222 -0.000644305 -1.00065 
0.000296357 -0.000771095 -0.999404 
-0.000252132 -0.000844228 0.99942 
-0.000185304 -0.000688256 1.00065 
-0.000180279 -0.000580118 1.00068 
-0.000119203 -0.000477405 1.00079 
-8.89557e-05 -0.000387988 1.00067 
-5.46395e-05 -0.000325663 1.00066 
-3.62226e-05 -0.000258606 1.00055 
-1.24615e-05 -0.0001835 1.00076 
-2.78228e-05 -0.000125594 1.00055 
-5.36732e-05 -1.68264e-05 1.00065 
-0.000110095 8.95467e-05 1.00064 
-0.000204796 0.000222083 1.00063 
-0.000300992 0.000365521 1.00063 
-0.000392314 0.000520629 1.00063 
-0.000469883 0.000700804 1.00062 
-0.000525241 0.000918748 1.00062 
-0.000558624 0.00116864 1.00062 
-0.00055151 0.00150233 1.00061 
-0.000509357 0.00192822 1.00061 
-0.00042361 0.00253126 1.0006 
-0.000311463 0.00337899 1.0006 
-0.000185711 0.00460405 1.00059 
-2.45633e-05 0.0063577 1.00058 
0.00027336 0.00894363 1.00057 
0.000833025 0.0124528 1.00055 
0.00179144 0.0172191 1.00049 
0.00311967 0.0231857 1.00039 
0.00505849 0.0305368 1.0002 
0.00773616 0.0405816 0.999844 
0.0134046 0.0534117 0.999181 
0.0220776 0.0685517 0.998097 
0.0380082 0.086224 0.996235 
0.0629202 0.106472 0.99307 
0.102722 0.105884 0.98968 
0.146483 0.144218 0.9791 
0.21183 0.168243 0.963018 
0.240554 0.338665 0.909526 
0.274829 0.528868 0.802086 
0.168507 0.814824 0.55243 
-0.0359589 0.978104 -0.190851 
-0.161045 0.648907 -0.742768 
-0.247107 0.605407 -0.755179 
-0.262332 0.387469 -0.883466 
-0.223283 0.208707 -0.952245 
-0.146416 0.145799 -0.978951 
-0.0989405 0.106111 -0.990018 
-0.0636983 0.102841 -0.993384 
-0.0390944 0.0873849 -0.996095 
-0.0236867 0.0720488 -0.997827 
-0.0152741 0.0567445 -0.998864 
-0.0100611 0.0430667 -0.999726 
-0.00545559 0.0352952 -0.999946 
-0.00356046 0.0253606 -1.00036 
-0.00246261 0.0195148 -1.00047 
-0.00156623 0.0143417 -1.00054 
-0.000791729 0.0101264 -1.00057 
-0.000194105 0.00725275 -1.00058 
6.16644e-05 0.00518908 -1.00059 
0.000224192 0.00378322 -1.00059 
0.000356412 0.00282422 -1.0006 
0.000449944 0.0021761 -1.0006 
0.000496751 0.00162883 -1.00061 
0.000517561 0.00126964 -1.00061 
0.0005126 0.000989646 -1.00062 
0.000482852 0.00077086 -1.00062 
0.000417717 0.000565925 -1.00063 
0.000334419 0.000402782 -1.00063 
0.000236991 0.000250315 -1.00063 
0.00013867 0.000118173 -1.00064 
6.35931e-05 9.33034e-06 -1.00064 
1.57747e-05 -0.000101375 -1.00075 
1.2127e-05 -0.000193992 -1.00066 
2.61011e-05 -0.000267298 -1.00066 
5.82173e-05 -0.00034426 -1.00067 
8.40695e-05 -0.000416105 -1.00067 
0.000116561 -0.000481069 -1.00067 
0.000139611 -0.000567231 -1.00067 
0.00018779 -0.000667567 -1.00066 
0.000242497 -0.000829329 -0.999399 
-0.000145488 -0.000889816 0.9994 
-0.000129122 -0.000720488 1.00065 
-0.000141738 -0.00057028 1.00068 
-9.95204e-05 -0.000497703 1.00067 
-8.28671e-05 -0.000413241 1.00067 
-4.30789e-05 -0.000331902 1.00066 
-1.38817e-05 -0.000245785 1.00066 
7.98636e-06 -0.000154865 1.00065 
-5.27577e-06 -6.89145e-05 1.00065 
-3.35805e-05 4.79864e-05 1.00064 
-0.000106027 0.000166636 1.00063 
-0.000197162 0.000294737 1.00063 
-0.000290019 0.000431531 1.00072 
-0.000375083 0.00057823 1.00062 
-0.000447045 0.000758115 1.00052 
-0.000482078 0.000965325 1.00071 
-0.000499764 0.00122219 1.00051 
-0.000471763 0.00153877 1.0006 
-0.000404879 0.00196814 1.0006 
-0.000290858 0.00256956 1.00059 
-0.000135865 0.00342233 1.00058 
5.79493e-05 0.00458381 1.00058 
0.000336511 0.00625131 1.00058 
0.000795635 0.00858826 1.00066 
0.00164102 0.0120528 1.00045 
0.00303363 0.0164004 1.00051 
0.00493476 0.0216018 1.00042 
0.00752694 0.0277139 1.00029 
0.0110898 0.0362185 1.00011 
0.0176946 0.0456591 0.999407 
0.0280983 0.0576741 0.998662 
0.045133 0.0679663 0.997393 
0.0696075 0.0745097 0.995497 
0.104271 0.0587348 0.993496 
0.156377 0.0776082 0.985174 
0.233288 0.0919886 0.968451 
0.304824 0.251134 0.918555 
0.408615 0.4432 0.799065 
0.307544 0.764421 0.568699 
0.0804836 0.977291 0.199439 
-0.243327 0.864376 -0.444733 
-0.392013 0.546317 -0.741457 
-0.324218 0.292849 -0.899047 
-0.236089 0.12093 -0.964557 
-0.151721 0.0841438 -0.985401 
-0.099127 0.0604372 -0.993935 
-0.06719 0.0700662 -0.99585 
-0.0441006 0.0656412 -0.997578 
-0.0283838 0.056934 -0.998715 
-0.0187835 0.0454102 -0.999641 
-0.0108395 0.0346483 -0.999953 
-0.0062672 0.0270269 -1.00043 
-0.0046213 0.0199006 -1.00057 
-0.00319917 0.0155026 -1.00042 
-0.00191502 0.0114147 -1.00056 
-0.00088218 0.00800896 -1.00057 
-0.000361632 0.00586882 -1.00058 
-7.15337e-05 0.00428706 -1.00058 
0.000133941 0.00322054 -1.00059 
0.000280755 0.00247132 -1.00069 
0.000396418 0.00190594 -1.00051 
0.000436365 0.00145805 -1.0007 
0.000458032 0.00114911 -1.00061 
0.000449912 0.000915719 -1.00062 
0.000419362 0.000710048 -1.00062 