# vtk DataFile Version 3.0 
Exported using Morpho https://github.com/Morpho-lang/morpho 
ASCII 
DATASET UNSTRUCTURED_GRID 

POINTS 1978 float 
-8.48533 -2.8196 -3.33733e-10 
-8.25728 -2.82848 3.4363e-09 
-8.03927 -2.82849 1.51689e-10 
-7.79168 -2.8285 7.70378e-11 
-7.49916 -2.82847 5.45561e-11 
-7.25286 -2.82851 9.22912e-12 
-7.00901 -2.82846 2.21734e-11 
-6.78827 -2.82851 1.8014e-11 
-6.5655 -2.82847 2.41579e-13 
-6.35148 -2.82848 -8.61551e-12 
-6.14398 -2.82848 -3.26492e-11 
-5.91902 -2.82849 -1.45871e-11 
-5.70865 -2.82847 -3.60893e-11 
-5.50997 -2.82848 -4.21926e-11 
-5.28901 -2.82848 -2.40014e-13 
-5.08316 -2.82848 1.66511e-11 
-4.86693 -2.82848 1.61546e-11 
-4.66049 -2.82848 -5.27754e-11 
-4.4435 -2.82848 -1.52179e-10 
-4.22911 -2.82848 -3.18528e-10 
-4.01662 -2.82848 -3.75495e-10 
-3.81462 -2.82848 -3.84959e-10 
-3.60533 -2.82848 -4.48766e-10 
-3.39476 -2.82848 -8.5408e-10 
-3.17464 -2.82847 -6.69124e-10 
-2.95836 -2.82848 6.52829e-10 
-2.73516 -2.82847 4.73955e-09 
-2.51584 -2.82848 1.86229e-08 
-2.28324 -2.82848 7.09924e-08 
-2.04678 -2.82846 2.18368e-07 
-1.8557 -2.82845 6.00313e-07 
-1.65425 -2.82845 2.05287e-06 
-1.46204 -2.82843 4.49735e-06 
-1.33424 -2.8284 7.29171e-06 
-1.1782 -2.82832 1.62301e-05 
-1.01154 -2.82832 3.72585e-05 
-0.848562 -2.82797 0.000114449 
-0.636118 -2.8277 0.000402716 
-0.416672 -2.82734 0.000487774 
0.245759 -2.82709 0.000113431 
0.437222 -2.82719 -0.000404298 
0.705358 -2.82778 -0.00022218 
0.845549 -2.82823 -6.82557e-05 
0.980593 -2.8282 -4.27344e-05 
1.15286 -2.82826 -1.97429e-05 
1.31504 -2.82846 -1.18816e-05 
1.48044 -2.8284 -4.2487e-06 
1.67817 -2.82848 -1.60021e-06 
1.87733 -2.82846 -5.97247e-07 
2.10122 -2.82846 -2.04799e-07 
2.31676 -2.82845 -5.833e-08 
2.52337 -2.82852 -1.54395e-08 
2.73208 -2.82847 -4.67833e-09 
2.95961 -2.82848 -1.97983e-09 
3.18471 -2.82848 5.66163e-10 
3.39756 -2.82848 7.61022e-10 
3.61607 -2.82848 5.32059e-10 
3.81992 -2.82848 1.98655e-10 
4.03076 -2.82848 2.969e-10 
4.25049 -2.82848 3.39144e-10 
4.44993 -2.82848 1.90702e-10 
4.66433 -2.82848 3.01511e-11 
4.86695 -2.82848 -4.77714e-11 
5.07997 -2.82848 -3.07753e-11 
5.2881 -2.82848 8.91287e-12 
5.50549 -2.82848 5.48713e-11 
5.71081 -2.82848 4.63068e-11 
5.92851 -2.82848 2.16994e-11 
6.1512 -2.82847 1.31268e-11 
6.35363 -2.82849 4.15546e-12 
6.58856 -2.82848 4.23235e-12 
6.80424 -2.82847 -2.30001e-12 
7.00554 -2.82849 -2.73972e-11 
7.27208 -2.82847 -1.87615e-11 
7.50492 -2.8285 -3.28473e-11 
7.74552 -2.82849 -8.05157e-11 
8.02618 -2.82848 -1.3754e-10 
8.21279 -2.82849 -4.81768e-09 
8.48531 -2.81967 1.57417e-09 
-8.48534 -2.57915 -6.73524e-09 
-8.25701 -2.5922 -5.98946e-19 
-8.02313 -2.5801 3.76443e-21 
-7.80102 -2.61024 9.72319e-22 
-7.54747 -2.64318 -1.34895e-21 
-7.25751 -2.6116 -1.61874e-21 
-7.00468 -2.60939 -1.69616e-21 
-6.76616 -2.59574 -4.26497e-21 
-6.54033 -2.59174 -2.00739e-21 
-6.32306 -2.58469 -7.7568e-22 
-6.09313 -2.60545 -3.60318e-22 
-5.87474 -2.58918 3.185e-22 
-5.66597 -2.57483 1.76072e-21 
-5.44542 -2.60212 3.89897e-21 
-5.22992 -2.58562 9.11244e-22 
-5.01155 -2.59741 -1.06294e-20 
-4.79755 -2.58702 -2.40582e-20 
-4.57983 -2.5994 -2.13796e-20 
-4.3599 -2.59777 1.25927e-21 
-4.14289 -2.59638 2.35344e-20 
-3.93389 -2.58417 1.53382e-20 
-3.72476 -2.59107 -1.43e-20 
-3.51136 -2.59033 -3.42361e-20 
-3.29306 -2.59822 -3.1013e-20 
-3.0711 -2.5907 -6.03764e-20 
-2.84919 -2.59715 -2.11848e-19 
-2.62359 -2.59226 -5.27053e-19 
-2.39467 -2.60816 -7.32288e-19 
-2.15206 -2.6171 -2.0395e-18 
-1.93052 -2.57663 -6.49851e-18 
-1.72775 -2.6074 1.11754e-17 
-1.52069 -2.60927 -1.01132e-17 
-1.35056 -2.51437 1.1236e-16 
-1.22181 -2.59514 2.99075e-17 
-1.05688 -2.6371 5.04443e-17 
-0.900694 -2.44084 8.50489e-16 
-0.889407 -2.64069 1.04248e-15 
-0.707871 -2.68321 1.04948e-14 
-0.284912 -2.77995 4.26646e-14 
0.11834 -2.71527 -1.2466e-14 
0.361035 -2.67962 1.38524e-15 
0.595286 -2.71638 -4.24474e-15 
0.784792 -2.61444 -1.34675e-15 
0.914774 -2.57429 -3.9759e-16 
1.06763 -2.61406 -4.80039e-16 
1.21764 -2.56323 1.26886e-16 
1.3692 -2.59376 -2.16542e-16 
1.5686 -2.62425 6.89671e-18 
1.78234 -2.61057 1.29108e-17 
2.01697 -2.62319 8.38763e-19 
2.2642 -2.59951 1.18623e-18 
2.49591 -2.58216 1.13118e-18 
2.7373 -2.60076 3.88813e-19 
2.97377 -2.59928 5.85607e-20 
3.19673 -2.59013 3.32968e-20 
3.42479 -2.59957 2.43133e-20 
3.6371 -2.58463 2.49753e-20 
3.85301 -2.59408 -7.82577e-21 
4.07687 -2.60427 -2.01692e-20 
4.28461 -2.5809 -7.18653e-21 
4.50012 -2.59822 1.10312e-20 
4.70973 -2.58392 2.50057e-20 
4.92532 -2.59599 1.73727e-20 
5.13955 -2.59008 3.45651e-21 
5.36006 -2.60019 -3.95903e-21 
5.57429 -2.58563 -3.5801e-21 
5.79264 -2.59819 -2.75164e-22 
6.01899 -2.60125 4.76675e-22 
6.23492 -2.5755 1.06288e-21 
6.45706 -2.60847 1.77105e-21 
6.68513 -2.58588 2.54653e-21 
6.89632 -2.56533 2.50799e-21 
7.12723 -2.62874 9.44737e-22 
7.37969 -2.59735 9.96336e-22 
7.61486 -2.60499 1.1856e-21 
7.87532 -2.63732 3.1449e-21 
8.08199 -2.54001 -4.31828e-21 
8.30358 -2.62578 5.43348e-19 
8.48536 -2.5236 1.068e-08 
-8.48531 -2.33966 -6.94311e-09 
-8.24687 -2.35858 -3.49961e-19 
-8.01722 -2.33477 -6.94171e-21 
-7.76911 -2.39674 -4.57952e-21 
-7.56294 -2.24504 -2.90651e-21 
-7.48536 -2.45412 6.99862e-22 
-7.19838 -2.40753 1.48309e-21 
-6.96263 -2.37105 -2.5263e-21 
-6.73144 -2.36957 -2.61694e-22 
-6.50155 -2.35473 -8.43809e-22 
-6.25873 -2.36875 8.22399e-22 
-6.03956 -2.36582 6.4637e-22 
-5.82178 -2.34316 1.76477e-22 
-5.58747 -2.35451 1.24502e-21 
-5.37411 -2.36231 1.45114e-21 
-5.14447 -2.3599 2.54229e-22 
-4.92915 -2.358 -3.83818e-21 
-4.70366 -2.36229 -4.58508e-21 
-4.48383 -2.37184 -9.21055e-22 
-4.26229 -2.36788 4.2303e-21 
-4.05027 -2.35305 3.25812e-21 
-3.83478 -2.34952 9.73506e-22 
-3.62186 -2.35657 6.59568e-21 
-3.40041 -2.3624 2.61949e-20 
-3.18009 -2.36477 7.00606e-20 
-2.95042 -2.35994 1.59832e-19 
-2.7262 -2.36459 3.53365e-19 
-2.48909 -2.37279 5.05694e-19 
-2.25254 -2.40175 8.31444e-19 
-2.02545 -2.36826 9.15918e-18 
-1.78341 -2.36421 2.50997e-17 
-1.5836 -2.38975 1.2044e-16 
-1.37827 -2.30952 1.34073e-16 
-1.17948 -2.3152 3.28375e-16 
-1.06276 -2.43224 4.72157e-16 
-0.807479 -2.26954 5.55218e-16 
-0.741624 -2.50095 1.52086e-15 
-0.547864 -2.65043 -6.15012e-15 
-0.327392 -2.63909 -5.45766e-15 
-0.103324 -2.73941 5.53372e-16 
0.252198 -2.57138 8.89727e-15 
0.50393 -2.58531 -3.76333e-16 
0.696942 -2.50588 -2.22088e-16 
0.839755 -2.33388 -1.07072e-15 
1.00594 -2.37743 -3.98231e-16 
1.18464 -2.3476 -5.9234e-16 
1.38076 -2.35073 -1.83189e-16 
1.55508 -2.41343 -6.07947e-17 
1.74167 -2.37446 -4.99391e-17 
1.95719 -2.41371 2.94445e-18 
2.19607 -2.39952 -2.77017e-18 
2.44865 -2.3576 -1.08191e-18 
2.68544 -2.37607 -4.33098e-19 
2.92462 -2.37222 -1.82591e-19 
3.1515 -2.3549 -7.25564e-20 
3.37353 -2.36941 -2.72515e-20 
3.58932 -2.34612 -7.54489e-21 
3.80134 -2.35699 -1.44352e-21 
4.01518 -2.37602 -2.19026e-21 
4.22432 -2.34614 -1.863e-21 
4.44041 -2.36032 1.64678e-24 
4.64639 -2.34847 2.99839e-21 
4.86233 -2.35931 4.43281e-21 
5.07361 -2.35599 1.45181e-21 
5.29219 -2.36851 -1.22102e-21 
5.50598 -2.35353 -1.41439e-21 
5.7268 -2.36124 -1.21169e-21 
5.94569 -2.37371 -9.12056e-22 
6.16371 -2.34615 -3.55745e-22 
6.39711 -2.36383 1.49775e-22 
6.61041 -2.36275 1.36184e-22 
6.83444 -2.31984 3.24656e-22 
7.06806 -2.3795 8.13658e-22 
7.28878 -2.39712 4.17288e-22 
7.54843 -2.36965 2.56373e-22 
7.78814 -2.41848 -4.12547e-21 
7.99911 -2.32158 3.35841e-21 
8.25674 -2.35963 5.04981e-19 
8.48533 -2.28693 7.55945e-09 
-8.48536 -2.10603 -1.66302e-08 
-8.25448 -2.12278 -7.8445e-19 
-8.02721 -2.09256 5.75206e-22 
-7.79864 -2.15929 4.98763e-21 
-7.50425 -2.03348 3.49431e-21 
-7.3083 -2.23245 -8.39412e-22 
-7.0614 -2.15337 1.76896e-21 
-6.81451 -2.13805 -9.56106e-22 
-6.59328 -2.13079 2.14615e-22 
-6.35115 -2.14584 -1.76516e-22 
-6.12722 -2.12533 -2.01751e-22 
-5.91711 -2.11296 -6.87511e-22 
-5.68806 -2.12924 -8.34094e-22 
-5.46677 -2.11669 -3.43745e-22 
-5.2535 -2.13713 -5.85328e-22 
-5.03529 -2.12145 -1.27343e-21 
-4.81763 -2.13348 -1.5287e-21 
-4.59818 -2.13632 -1.83966e-21 
-4.38465 -2.14167 -1.80802e-21 
-4.17617 -2.12389 -2.95091e-21 
-3.96476 -2.1177 -4.34266e-21 
-3.75249 -2.11573 -3.53723e-21 
-3.53841 -2.12908 2.29043e-21 
-3.32146 -2.12988 2.17695e-20 
-3.09986 -2.13636 7.82921e-20 
-2.8737 -2.12566 2.59904e-19 
-2.64441 -2.14296 8.55826e-19 
-2.40232 -2.15879 2.49032e-18 
-2.18142 -2.16347 6.39435e-18 
-1.92802 -2.16058 1.66061e-17 
-1.70185 -2.13355 2.96012e-17 
-1.51132 -2.14415 5.55249e-17 
-1.27223 -2.10086 1.97393e-17 
-1.09102 -2.08625 4.41305e-18 
-0.975349 -2.22506 9.78008e-17 
-0.864831 -2.05284 -1.96491e-16 
-0.644817 -2.40837 -5.08788e-16 
-0.482642 -2.50942 -4.94952e-15 
-0.240972 -2.53495 -1.41546e-14 
0.0578132 -2.58225 1.35598e-14 
0.390797 -2.44018 1.13528e-14 
0.577595 -2.41854 1.63561e-15 
0.702274 -2.26704 1.71688e-15 
0.877617 -2.10478 3.39375e-16 
1.02427 -2.16117 -2.47697e-16 
1.15374 -2.06259 3.75659e-17 
1.32163 -2.14349 -9.81117e-17 
1.53987 -2.16317 -6.25256e-17 
1.76792 -2.16511 -1.44099e-17 
2.00617 -2.1924 -2.15273e-17 
2.24851 -2.18085 -4.99384e-18 
2.48853 -2.13041 -1.6448e-18 
2.73063 -2.15554 -5.11694e-19 
2.96148 -2.13736 -1.50663e-19 
3.19117 -2.12452 -3.68682e-20 
3.40698 -2.13008 -8.18878e-21 
3.62622 -2.11159 -1.63654e-14 
3.84261 -2.12812 4.04168e-21 
4.04816 -2.13352 3.37542e-21 
4.2726 -2.12063 3.07812e-21 
4.47737 -2.11612 1.92641e-21 
4.69653 -2.1205 2.13374e-21 
4.90751 -2.12155 1.6031e-21 
5.1282 -2.12912 1.13916e-21 
5.33933 -2.12956 2.67011e-22 
5.56327 -2.12594 2.34388e-22 
5.78353 -2.13125 1.68518e-22 
5.99685 -2.1323 2.05206e-22 
6.23763 -2.13061 5.46774e-22 
6.45167 -2.11616 9.25674e-23 
6.6653 -2.11645 -3.67641e-22 
6.92458 -2.11393 9.04654e-22 
7.14078 -2.14101 -3.1864e-22 
7.37248 -2.18044 5.04243e-22 
7.56697 -2.08453 -5.38548e-22 
7.7525 -2.18257 -7.84192e-23 
7.96708 -2.08311 9.98671e-21 
8.19928 -2.14085 5.8139e-19 
8.48532 -2.09679 1.04394e-08 
-8.48534 -1.82408 -2.15746e-08 
-8.29592 -1.88771 -9.16889e-19 
-7.89222 -1.8932 7.54443e-21 
-7.67875 -1.91934 -1.44926e-21 
[...]
POINT_DATA 1978 
VECTORS vectors float
-0.000800269 -0.000830078 0.999464 
-0.000338455 -0.000555404 1.00003 
-0.000158578 -0.000418121 1.00003 
-6.43524e-05 -0.000340922 1.00003 
-3.67618e-05 -0.000306619 1.00003 
-3.47359e-05 -0.000280746 1.00002 
-3.95886e-05 -0.000248546 1.00004 
-4.86688e-05 -0.000213357 1.00002 
-6.19464e-05 -0.000168255 1.00003 
-7.87831e-05 -0.000110048 1.00003 
-9.79911e-05 -3.75916e-05 1.00003 
-0.000117773 5.73138e-05 1.00003 
-0.000139995 0.000166849 1.00003 
-0.000171306 0.000292785 1.00003 
-0.000214583 0.000474368 1.00003 
-0.000268571 0.000701306 1.00003 
-0.000336443 0.00101258 1.00003 
-0.000427809 0.00140275 1.00003 
-0.000567121 0.00194681 1.00003 
-0.000779076 0.00269135 1.00003 
-0.00108294 0.00373839 1.00002 
-0.00147602 0.00514442 1.00002 
-0.0020052 0.00717799 1 
-0.0026998 0.0099996 0.999978 
-0.0036848 0.0140992 0.999925 
-0.00500482 0.0197896 0.999823 
-0.0067047 0.0279064 0.99962 
-0.00899658 0.0388887 0.999235 
-0.0124538 0.0549342 0.998443 
-0.0178328 0.0784756 0.996787 
-0.0236626 0.105545 0.99416 
-0.0331124 0.14556 0.988819 
-0.0453938 0.198421 0.97909 
-0.0486959 0.24321 0.968767 
-0.0562046 0.306441 0.950235 
-0.0697587 0.391626 0.917474 
-0.0860864 0.501733 0.860712 
-0.082053 0.681042 0.727595 
-0.0447817 0.853316 0.519815 
0.0125371 0.952503 -0.304597 
0.0703245 0.826855 -0.557968 
0.0891481 0.607819 -0.789057 
0.0790642 0.506143 -0.858811 
0.0749917 0.414775 -0.906834 
0.0616613 0.314948 -0.947119 
0.0517903 0.244005 -0.968401 
0.0404437 0.18776 -0.9814 
0.0297462 0.139635 -0.989781 
0.0234401 0.102696 -0.994463 
0.016453 0.0724822 -0.997264 
0.0118098 0.0522128 -0.998597 
0.00922629 0.0382041 -0.999249 
0.00691015 0.027513 -0.999629 
0.0048355 0.0191649 -0.999837 
0.00350125 0.0136969 -0.999932 
0.00267238 0.00983925 -0.999979 
0.00192844 0.00695861 -1 
0.00143559 0.00504629 -1.00002 
0.00104915 0.00361469 -1.00002 
0.000745418 0.00256551 -1.00003 
0.000550863 0.00188108 -1.00003 
0.00040853 0.00136586 -1.00003 
0.000329177 0.000996823 -1.00003 
0.000268225 0.000691597 -1.00003 
0.000218418 0.000457406 -1.00003 
0.000169692 0.000272642 -1.00003 
0.000135463 0.000143935 -1.00003 
0.00011127 3.91176e-05 -1.00003 
9.36706e-05 -5.04919e-05 -1.00003 
7.78372e-05 -0.000120399 -1.00003 
5.95844e-05 -0.000182631 -1.00003 
4.65334e-05 -0.000226036 -1.00003 
3.90543e-05 -0.000257899 -1.00003 
3.45483e-05 -0.000290617 -1.00003 
3.70163e-05 -0.000318381 -1.00003 
5.77375e-05 -0.000348187 -1.00003 
0.000151774 -0.000423156 -1.00003 
0.000301638 -0.000533433 -1.00003 
0.00086169 -0.000815862 -0.999376 
-0.00134539 -0.00135476 0.998913 
-0.000593487 -0.000848125 1.00007 
-0.000272979 -0.000567008 1.00007 
-0.000121382 -0.000401967 1.00007 
-6.10613e-05 -0.000320283 1.00007 
-5.11475e-05 -0.000270821 1.00008 
-5.59202e-05 -0.00023162 1.00007 
-6.95832e-05 -0.000183604 1.00006 
-8.89937e-05 -0.000130063 1.00006 
-0.000112278 -6.39875e-05 1.00006 
-0.0001364 1.81892e-05 1.00006 
-0.000169811 0.000121515 1.00006 
-0.000205527 0.000244125 1.00006 
-0.000238916 0.000399287 1.00006 
-0.000294495 0.000611691 1.00006 
-0.000355354 0.000888658 1.00006 
-0.000441121 0.00126174 1.00006 
-0.000547526 0.00176219 1.00006 
-0.000707273 0.00247445 1.00006 
-0.00093099 0.00346088 1.00005 
-0.00122644 0.00481065 1.00005 
-0.00162042 0.00663519 1.00004 
-0.00215044 0.00922625 1.00002 
-0.00286363 0.012876 0.999976 
-0.00379284 0.018104 0.999892 
-0.00501008 0.0252199 0.999733 
-0.00647025 0.0352435 0.999422 
-0.00833629 0.0494098 0.998806 
-0.011392 0.0706975 0.997493 
-0.0138272 0.0987532 0.995074 
-0.0175727 0.134673 0.990784 
-0.0215627 0.185988 0.982351 
-0.0117804 0.238644 0.971086 
-0.0216697 0.290672 0.956613 
-0.030692 0.368786 0.929029 
0.0232634 0.444182 0.89563 
-0.0311827 0.469467 0.882393 
-0.0352554 0.610067 0.791498 
-0.0212851 0.916893 0.397869 
-0.00428577 0.986135 -0.164613 
0.00813861 0.86493 -0.501541 
0.0420902 0.689839 -0.722598 
0.0198164 0.53653 -0.843639 
0.0166963 0.449165 -0.89331 
0.0249193 0.362136 -0.931804 
0.0171942 0.289133 -0.957184 
0.0202572 0.232979 -0.972315 
0.0204101 0.171765 -0.984962 
0.0172387 0.123542 -0.992252 
0.013161 0.0875403 -0.99613 
0.0093122 0.0595742 -0.998243 
0.00713278 0.041798 -0.999174 
0.00576342 0.0293713 -0.999618 
0.00411179 0.0204306 -0.999848 
0.00310867 0.0146403 -0.999952 
0.00238043 0.0103625 -1.00001 
0.00178557 0.00749628 -1.00003 
0.00132811 0.00534174 -1.00005 
0.00097689 0.00375675 -1.00005 
0.000755562 0.00274444 -1.00006 
0.000577811 0.00195222 -1.00006 
0.000465182 0.00141984 -1.00006 
0.000376508 0.00100347 -1.00006 
0.000312403 0.00069797 -1.00006 
0.000254223 0.000455249 -1.00006 
0.000213692 0.000283361 -1.00006 
0.000173846 0.000145705 -1.00006 
0.000142463 3.65688e-05 -1.00006 
0.00012131 -4.33027e-05 -1.00006 
9.26694e-05 -0.000119251 -1.00006 
7.47998e-05 -0.000174973 -1.00007 
6.29667e-05 -0.000217154 -1.00007 
4.94036e-05 -0.000261391 -1.00007 
5.3403e-05 -0.000300103 -1.00007 
7.36829e-05 -0.000348924 -1.00007 
0.000147791 -0.000446816 -1.00006 
0.000356003 -0.000679558 -1.00008 
0.000679875 -0.000931887 -1.00005 
0.0015345 -0.00162025 -0.998869 
-0.00168901 -0.00181279 0.998946 
-0.00075908 -0.00108328 1.00007 
-0.000354692 -0.000685328 1.00007 
-0.000150158 -0.000432957 1.00007 
-9.89782e-05 -0.000346621 1.00006 
-7.31512e-05 -0.000312561 1.00007 
-6.26028e-05 -0.000253948 1.00007 
-6.89963e-05 -0.000204976 1.00006 
-8.19928e-05 -0.000152938 1.00008 
-0.000102963 -8.87704e-05 1.00007 
-0.000130912 -1.0329e-05 1.00006 
-0.000159312 7.84453e-05 1.00006 
-0.000191698 0.000191636 1.00006 
-0.000228557 0.000339055 1.00006 
-0.000266926 0.000515221 1.00006 
-0.000316175 0.000772623 1.00006 
-0.0003745 0.00110122 1.00006 
-0.000456863 0.00157146 1.00006 
-0.000567654 0.00220316 1.00006 
-0.000709855 0.00310146 1.00006 
-0.00087717 0.00430624 1.00005 
-0.00110118 0.00598144 1.00004 
-0.00140237 0.00823149 1.00003 
-0.00178665 0.0114478 0.999996 
-0.00224422 0.0159062 0.999934 
-0.00274752 0.022337 0.999811 
-0.00333404 0.0309382 0.99958 
-0.00408286 0.0436625 0.999103 
-0.00525991 0.0614496 0.998161 
-0.00422406 0.0849119 0.996441 
-0.00279852 0.121158 0.992686 
-0.00148991 0.163502 0.986597 
0.0116991 0.213944 0.976803 
0.0234088 0.285017 0.958254 
0.0131296 0.353487 0.935348 
0.0750503 0.464308 0.882466 
0.0171667 0.557585 0.82992 
-0.0101486 0.730505 0.682692 
0.0047967 0.889904 0.455836 
-0.00698551 0.984957 0.170134 
-0.0235401 0.928016 -0.371205 
-0.00299122 0.740639 -0.67181 
-0.0188509 0.5836 -0.811786 
-0.0499309 0.455739 -0.888691 
-0.0250804 0.375679 -0.926418 
-0.0205449 0.287519 -0.957567 
-0.00855475 0.21736 -0.976089 
0.00252203 0.170786 -0.985354 
0.00234945 0.129061 -0.991688 
0.00564533 0.0952317 -0.99549 
0.00494374 0.0664316 -0.997842 
0.0037256 0.0455665 -0.999019 
0.00346444 0.0322625 -0.999539 
0.00270192 0.0226699 -0.999805 
0.00215503 0.0162729 -0.999929 
0.00184845 0.0117403 -0.999992 
0.00139194 0.00851541 -1.00002 
0.00110381 0.00617257 -1.00004 
0.000886043 0.0044442 -1.00005 
0.000684797 0.00324812 -1.00006 
0.000553282 0.00231631 -1.00006 
0.00045272 0.00168777 -1.00006 
0.000380415 0.00119826 -1.00006 
0.000322463 0.000849196 -1.00006 
0.000274369 0.000576795 -1.00006 
0.000234469 0.000381688 -1.00006 
0.000199182 0.000225847 -1.00006 
0.000167138 0.000106198 -1.00006 
0.000139225 1.66995e-05 -1.00006 
0.000111375 -6.84749e-05 -1.00006 
8.99635e-05 -0.000131524 -1.00006 
7.43504e-05 -0.000183358 -1.00007 
6.29595e-05 -0.000237047 -1.00007 
6.18682e-05 -0.000280033 -1.00007 
8.49479e-05 -0.000342971 -1.00008 
0.000150479 -0.00045144 -1.00007 
0.000329025 -0.000692517 -1.00007 
0.000763763 -0.00115788 -1.00006 
0.0016595 -0.00208632 -0.999097 
-0.00208882 -0.00237173 0.998833 
-0.000933716 -0.00136711 1.00005 
-0.000432632 -0.000826351 1.00008 
-0.000195397 -0.000499855 1.00008 
-9.53946e-05 -0.000330391 1.00007 
-7.10712e-05 -0.000272012 1.00007 
-7.22784e-05 -0.00021316 1.00008 
-8.44098e-05 -0.000153595 1.00007 
-0.000102992 -9.07443e-05 1.00006 
-0.000130213 -1.26147e-05 1.00006 
-0.000163069 7.82252e-05 1.00006 
-0.000196077 0.00017839 1.00006 
-0.000231445 0.000308057 1.00006 
-0.000272591 0.000476226 1.00006 
-0.000310158 0.000684491 1.00006 
-0.000360002 0.000980939 1.00006 
-0.000413813 0.00138099 1.00006 
-0.000485419 0.00194172 1.00006 
-0.000578639 0.00269429 1.00006 
-0.0006915 0.0037082 1.00005 
-0.000826126 0.00509149 1.00005 
-0.000977153 0.00696019 1.00004 
-0.00114823 0.00949103 1.00002 
-0.00129529 0.0129765 0.999977 
-0.00140386 0.0178444 0.999903 
-0.00132862 0.024569 0.999761 
-0.00113257 0.0339091 0.999489 
-0.000519513 0.0477622 0.998923 
0.000753209 0.0651102 0.99794 
0.0040336 0.0927874 0.995735 
0.0100362 0.12525 0.992127 
0.0172613 0.163696 0.986404 
0.0361221 0.220247 0.974811 
0.0578155 0.278534 0.958706 
0.056864 0.360128 0.931164 
0.103814 0.356609 0.928477 
0.0578145 0.610232 0.790043 
0.0423124 0.757875 0.650926 
0.0261715 0.933642 0.356664 
-0.00708881 0.996947 -0.0756179 
-0.0546309 0.819672 -0.569975 
-0.0605292 0.660869 -0.747948 
-0.0833219 0.524261 -0.847435 
-0.08657 0.375978 -0.922582 
-0.0564002 0.326199 -0.943637 
-0.0513431 0.254352 -0.965779 
-0.0289656 0.213174 -0.976622 
-0.0152185 0.158807 -0.987245 
-0.00792955 0.116213 -0.993237 
-0.00239013 0.0834256 -0.996581 
-0.000562506 0.0589356 -0.998325 
0.000320527 0.041639 -0.999198 
0.00119227 0.0296637 -0.999624 
0.00127539 0.0212947 -0.999837 
0.00129403 0.0153497 -0.999945 
0.00122195 0.01125 -0.999999 
0.00102472 0.00818329 -1.00003 
0.000862153 0.00597351 -1.00004 
0.000721532 0.00440689 -1.00005 
0.000590275 0.00313759 -1.00006 
0.000502567 0.00229396 -1.00006 
0.000429207 0.00163319 -1.00006 
0.000375297 0.00117269 -1.00006 
0.000326103 0.000820335 -1.00006 
0.000285252 0.00057395 -1.00006 
0.000244893 0.000378904 -1.00006 
0.000207565 0.000231648 -1.00006 
0.000174939 0.000120254 -1.00006 
0.000141765 1.83494e-05 -1.00006 
0.000116861 -5.58203e-05 -1.00006 
9.485e-05 -0.000121314 -1.00006 
7.60147e-05 -0.000189319 -1.00007 
6.83603e-05 -0.000241095 -1.00007 
7.26416e-05 -0.000296168 -1.00006 
0.000100725 -0.000363289 -1.00007 
0.000158136 -0.000466202 -1.00007 
0.00032932 -0.000738768 -1.00006 
0.000711058 -0.00121304 -1.00008 
0.00186838 -0.00243617 -0.999058 
-0.00222119 -0.00329104 0.998755 
-0.00112985 -0.00184092 1.00006 
-0.000283423 -0.000677159 1.00007 
-0.00014708 -0.000435932 1.00006 
-8.83517e-05 -0.000311745 1.00008 
-7.6208e-05 -0.000259713 1.00006 
-7.72865e-05 -0.000222123 1.00007 
-8.2811e-05 -0.000173965 1.00006 
-0.000101744 -0.000103246 1.00007 
-0.000127184 -3.01899e-05 1.00006 
-0.000159512 5.55913e-05 1.00006 
-0.000195383 0.00015383 1.00006 
-0.000233954 0.000268209 1.00006 
-0.000275363 0.000412201 1.00006 
-0.000321496 0.000608529 1.00006 
-0.000363908 0.000846826 1.00006 
-0.000414172 0.00120183 1.00006 
-0.00046782 0.00167878 1.00006 
-0.000529666 0.00234072 1.00006 
-0.000595177 0.00319795 1.00006 
-0.000669449 0.00438121 1.00005 
-0.000748795 0.00596685 1.00004 
-0.00083259 0.00810789 1.00003 
-0.000892391 0.0109123 1 
-0.000874619 0.014822 0.999953 
-0.00069149 0.0200965 0.999862 
-0.000183283 0.0276269 0.999683 
0.000665913 0.0381156 0.999339 
0.00271715 0.0517488 0.998722 
0.00577262 0.0722461 0.997433 
0.012689 0.0970339 0.995261 
0.0237023 0.125393 0.991881 
0.0361631 0.166024 0.985509 
0.0662565 0.202918 0.977004 
0.0974883 0.265183 0.959279 
0.155429 0.314027 0.93662 
0.122219 0.492776 0.861501 
0.114337 0.649862 0.751296 
0.0860494 0.827008 0.555285 
0.00712482 0.993735 0.110307 
-0.0665362 0.921847 -0.381366 
-0.117998 0.653337 -0.747795 
-0.124331 0.466003 -0.875962 
-0.135813 0.329825 -0.934233 
-0.0947596 0.268824 -0.958545 
-0.0747878 0.201242 -0.976726 
-0.0452325 0.179156 -0.982828 
-0.0275463 0.146128 -0.988925 
-0.0164271 0.111906 -0.99364 
-0.0084092 0.0832892 -0.996551 
-0.00410979 0.0605229 -0.998223 
-0.0019103 0.0433364 -0.999125 
-0.000191886 0.0310005 -0.999585 
0.00045967 0.0226456 -0.999808 
0.000745366 0.0164929 -0.999928 
0.000843445 0.0120459 -0.99999 
0.000816639 0.00896519 -1.00002 
0.000731567 0.0065609 -1.00004 
0.000640122 0.00485597 -1.00005 
0.00057611 0.0035728 -1.00005 
0.000505146 0.00257196 -1.00006 
0.00045961 0.00186395 -1.00006 
0.000413198 0.0013393 -1.00006 
0.000369804 0.000959108 -1.00006 
0.000327586 0.000683025 -1.00006 
0.000284755 0.000477178 -1.00006 
0.000241996 0.000313543 -1.00006 
0.000204529 0.00018968 -1.00006 
0.000168063 8.20126e-05 -1.00006 
0.000137461 -2.596e-06 -1.00006 
0.000110729 -7.71836e-05 -1.00006 
8.86257e-05 -0.000148847 -1.00007 
7.49542e-05 -0.000214489 -1.00008 
7.48499e-05 -0.00027599 -1.00007 
9.89597e-05 -0.000360286 -1.00007 
0.0001904 -0.000543629 -1.00007 
0.000444951 -0.00100122 -1.00008 
0.0009657 -0.00169082 -1.00005 
0.00202489 -0.00318749 -0.99895 
-0.00177874 -0.00396541 0.998907 
-0.000970182 -0.00219212 1.00006 
-0.000594372 -0.00119852 1.00007 
-0.000261017 -0.000737899 1.00006 
-0.000132844 -0.00044806 1.00007 
-7.39679e-05 -0.000259035 1.00007 
-7.9154e-05 -0.000176438 1.00006 
-9.19804e-05 -0.000122083 1.00006 
-0.000117931 -3.74134e-05 1.00006 
-0.000145379 4.11197e-05 1.00006 
-0.000177526 0.000135331 1.00006 
-0.000216844 0.000247219 1.00006 
-0.000255673 0.00037441 1.00006 
-0.000296932 0.000538058 1.00006 
-0.000335983 0.000757103 1.00006 
-0.00037577 0.00103243 1.00006 
-0.000413938 0.00143374 1.00006 
-0.000448753 0.0019676 1.00006 
-0.000468112 0.00267043 1.00006 
-0.000481527 0.00362235 1.00005 
-0.000479601 0.00490571 1.00005 
-0.000463541 0.00660915 1.00004 
-0.000407878 0.00879925 1.00002 
-0.000304149 0.011717 0.999993 
-1.20942e-05 0.0155753 0.999941 
0.000506404 0.0209238 0.999845 
0.0015493 0.028366 0.999662 
0.00322551 0.0377872 0.999347 
0.00659436 0.052071 0.998688 
0.0115697 0.0693839 0.997589 
0.0217579 0.089256 0.995835 
0.0380904 0.115778 0.992605 
0.0574757 0.1462 0.987629 
0.0919491 0.15289 0.98401 
0.118952 0.204049 0.971746 
0.179237 0.232475 0.955969 
0.175741 0.435916 0.882642 
0.185245 0.616135 0.765412 
0.069623 0.95131 0.299509 
-0.00827186 0.999723 -0.00390294 
-0.136882 0.847171 -0.512988 
-0.0446182 0.52301 -0.851114 
-0.192238 0.446238 -0.873995 
-0.181858 0.276295 -0.943729 
-0.126476 0.212146 -0.969054 
-0.0902145 0.153681 -0.984046 
-0.0551034 0.136849 -0.989113 
-0.0345983 0.113579 -0.992995 
-0.0197685 0.0898802 -0.99581 
-0.0111027 0.0684122 -0.99766 
-0.00656273 0.0509887 -0.998756 
-0.00292724 0.0358126 -0.999422 
-0.00132451 0.0264885 -0.999714 
-0.000448523 0.0195189 -0.999874 
3.73981e-05 0.0144334 -0.999959 
0.000268508 0.0108062 -1 
0.000404464 0.00804807 -1.00003 
0.000410606 0.0060175 -1.00004 
0.000415865 0.00445438 -1.00005 
0.000431045 0.00328705 -1.00005 
0.000414968 0.00235892 -1.00006 
0.000405032 0.00172696 -1.00006 
0.000377444 0.00124698 -1.00006 
0.000347214 0.000911647 -1.00006 
0.000309808 0.00066116 -1.00006 
0.000271643 0.000465963 -1.00006 
0.000231765 0.000316636 -1.00006 
0.000194782 0.000191115 -1.00006 
0.000162455 9.15784e-05 -1.00006 
0.000130179 5.20247e-06 -1.00006 
0.000103134 -7.78244e-05 -1.00006 
8.39445e-05 -0.000152773 -1.00005 
7.1304e-05 -0.000210835 -1.00007 
7.29116e-05 -0.000274922 -1.00007 
9.51358e-05 -0.000380474 -1.00007 
0.000183312 -0.000586481 -1.00007 
0.00037662 -0.00105272 -1.00007 
0.00087155 -0.00193572 -1.00006 
0.00173083 -0.00378958 -0.999047 
-0.00129533 -0.00431449 0.998997 
-0.00058014 -0.00211231 1.00006 
-0.000452267 -0.00124451 1.00007 
-0.000150064 -0.000608535 1.00008 
-8.63781e-05 -0.000361277 1.00007 
-6.23552e-05 -0.000266686 1.00006 
-6.90681e-05 -0.000194766 1.00005 
-8.05319e-05 -0.000116134 1.00007 
-0.000100617 -5.85105e-05 1.00005 
-0.000124213 2.95886e-05 1.00006 
-0.000150973 0.000113302 1.00006 
-0.000186335 0.000221691 1.00006 
-0.000220528 0.000344563 1.00006 
-0.000255841 0.000487135 1.00006 
-0.000288866 0.00067097 1.00006 
-0.000318015 0.000925576 1.00006 
-0.000345553 0.00124232 1.00006 
-0.000358368 0.0016965 1.00006 
-0.000351523 0.00227815 1.00006 
-0.00032328 0.00307626 1.00005 
-0.000265583 0.00415039 1.00005 
-0.000164156 0.0055789 1.00004 
-4.18121e-06 0.00739124 1.00003 
0.000229943 0.00976273 1.00001 
0.000624495 0.0128028 0.99998 
0.00130559 0.0169777 0.999919 
0.00243432 0.0226476 0.999806 
0.00450079 0.0299485 0.999609 
0.00746115 0.0402494 0.99923 
0.0134822 0.0533643 0.998554 
0.02215 0.0681782 0.997496 
0.0383104 0.0874386 0.995499 
0.0636539 0.105377 0.992466 
0.0996417 0.104649 0.989566 
0.146636 0.140415 0.979219 
0.219421 0.168304 0.961033 
0.247338 0.35088 0.903149 
0.27418 0.533278 0.800157 
0.169527 0.806743 0.565758 
-0.0639399 0.982854 -0.171189 
-0.176668 0.630659 -0.755585 
-0.259926 0.615897 -0.743544 
-0.260726 0.388084 -0.883944 
-0.220413 0.214267 -0.951599 
-0.14524 0.151365 -0.977801 
-0.0978534 0.106169 -0.989583 
-0.0627828 0.103663 -0.992691 
-0.0398734 0.0868245 -0.99549 
-0.0249652 0.0741255 -0.997013 
-0.0158061 0.0587069 -0.998207 
-0.0101576 0.0442279 -0.999029 
-0.00559218 0.0346155 -0.999453 
-0.00320325 0.0247984 -0.999755 
-0.00178255 0.0188697 -0.999886 
-0.000921247 0.0142104 -0.999962 
-0.000440703 0.0106845 -1 
-9.80305e-05 0.00817734 -1.00003 
4.41641e-05 0.00618972 -1.00004 
0.000154989 0.00464529 -1.00005 
0.000247715 0.00343803 -1.00005 
0.000302164 0.00255853 -1.00006 
0.000323279 0.00183658 -1.00006 
0.000326773 0.00136549 -1.00006 
0.000310399 0.00100199 -1.00006 
0.000286093 0.000747349 -1.00006 
0.000255984 0.000539647 -1.00006 
0.000223027 0.000383846 -1.00006 
0.000190208 0.000249957 -1.00006 
0.000158268 0.000141027 -1.00006 
0.000129992 5.21963e-05 -1.00006 
0.000101515 -4.04116e-05 -1.00007 
8.03893e-05 -0.00012546 -1.00006 
6.38756e-05 -0.000202608 -1.00007 
6.44954e-05 -0.000288928 -1.00007 
7.75736e-05 -0.000402438 -1.00007 
0.000147204 -0.000604854 -1.00007 
0.000263572 -0.00105049 -1.00007 
0.000617019 -0.00196847 -1.00006 
0.00133944 -0.00420666 -0.99903 
-0.000603309 -0.00452151 0.998981 
-0.000328503 -0.00228345 1.00006 
-0.000259119 -0.00106905 1.00007 
-9.28764e-05 -0.000638466 1.00007 
-7.01073e-05 -0.00039881 1.00007 
-4.75666e-05 -0.000264607 1.00006 
-5.93979e-05 -0.000177326 1.00006 
-7.30127e-05 -9.23316e-05 1.00006 
-9.63733e-05 -1.77928e-05 1.00006 
-0.000114983 6.99624e-05 1.00007 
-0.000145176 0.000163828 1.00005 
-0.00017374 0.000273696 1.00006 
-0.000201211 0.000400361 1.00006 
-0.000229607 0.000548212 1.00007 
-0.000256712 0.000746245 1.00005 
-0.000270063 0.000999674 1.00007 
-0.000285309 0.00133056 1.00005 
-0.000271507 0.00175519 1.00006 
-0.00023818 0.00233203 1.00006 
-0.000171477 0.00313249 1.00005 
-5.17834e-05 0.00420116 1.00005 
0.000137495 0.00555684 1.00004 
0.000407802 0.00729098 1.00003 
0.000783603 0.00946123 1.00002 
0.0013668 0.0123368 0.999985 
0.00232808 0.0161457 0.999932 
0.00385419 0.0211181 0.999826 
0.00635433 0.0269508 0.999696 
0.0102072 0.0362517 0.999351 
0.016788 0.0446199 0.998933 
0.0275799 0.0579742 0.998008 
0.0443552 0.0691766 0.996688 
0.0674581 0.0716827 0.995214 
0.102662 0.0580315 0.99309 
0.150799 0.0787814 0.985482 
0.233271 0.094825 0.967795 
0.304023 0.262286 0.915819 
0.406463 0.434522 0.803881 
0.291249 0.771402 0.565935 
0.0687617 0.987455 0.142428 
-0.240393 0.859048 -0.452208 
-0.394266 0.532148 -0.749425 
-0.323674 0.306278 -0.895164 
-0.237504 0.131036 -0.962528 
-0.15329 0.0913999 -0.983998 
-0.100212 0.0611963 -0.993152 
-0.0642628 0.0713071 -0.995452 
-0.0428017 0.0650118 -0.997037 
-0.0267478 0.0565963 -0.998109 
-0.017068 0.0445417 -0.998933 
-0.0104829 0.0340965 -0.999445 
-0.00624175 0.0275721 -0.99966 
-0.00376709 0.0200766 -0.999859 
-0.00225913 0.0154557 -0.999942 
-0.00134515 0.011819 -0.999991 
-0.000761259 0.00897636 -1.00002 
-0.000402183 0.00694199 -1.00003 
-0.000175314 0.00524767 -1.00004 
3.66973e-06 0.00394515 -1.00005 
0.000125845 0.00296179 -1.00006 
0.000218481 0.00220574 -1.00005 
0.000246327 0.00162357 -1.00007 
0.000262525 0.00122173 -1.00006 
0.000251839 0.000924051 -1.00006 