# vtk DataFile Version 3.0 
Exported using Morpho https://github.com/Morpho-lang/morpho 
ASCII 
DATASET UNSTRUCTURED_GRID 

POINTS 1978 float 
-8.48533 -2.8196 -3.33733e-10 
-8.25728 -2.82848 3.4363e-09 
-8.03927 -2.82849 1.51689e-10 
-7.79168 -2.8285 7.70378e-11 
-7.49916 -2.82847 5.45561e-11 
-7.25286 -2.82851 9.22912e-12 
-7.00901 -2.82846 2.21734e-11 
-6.78827 -2.82851 1.8014e-11 
-6.5655 -2.82847 2.41579e-13 
-6.35148 -2.82848 -8.61551e-12 
-6.14398 -2.82848 -3.26492e-11 
-5.91902 -2.82849 -1.45871e-11 
-5.70865 -2.82847 -3.60893e-11 
-5.50997 -2.82848 -4.21926e-11 
-5.28901 -2.82848 -2.40014e-13 
-5.08316 -2.82848 1.66511e-11 
-4.86693 -2.82848 1.61546e-11 
-4.66049 -2.82848 -5.27754e-11 
-4.4435 -2.82848 -1.52179e-10 
-4.22911 -2.82848 -3.18528e-10 
-4.01662 -2.82848 -3.75495e-10 
-3.81462 -2.82848 -3.84959e-10 
-3.60533 -2.82848 -4.48766e-10 
-3.39476 -2.82848 -8.5408e-10 
-3.17464 -2.82847 -6.69124e-10 
-2.95836 -2.82848 6.52829e-10 
-2.73516 -2.82847 4.73955e-09 
-2.51584 -2.82848 1.86229e-08 
-2.28324 -2.82848 7.09924e-08 
-2.04678 -2.82846 2.18368e-07 
-1.8557 -2.82845 6.00313e-07 
-1.65425 -2.82845 2.05287e-06 
-1.46204 -2.82843 4.49735e-06 
-1.33424 -2.8284 7.29171e-06 
-1.1782 -2.82832 1.62301e-05 
-1.01154 -2.82832 3.72585e-05 
-0.848562 -2.82797 0.000114449 
-0.636118 -2.8277 0.000402716 
-0.416672 -2.82734 0.000487774 
0.245759 -2.82709 0.000113431 
0.437222 -2.82719 -0.000404298 
0.705358 -2.82778 -0.00022218 
0.845549 -2.82823 -6.82557e-05 
0.980593 -2.8282 -4.27344e-05 
1.15286 -2.82826 -1.97429e-05 
1.31504 -2.82846 -1.18816e-05 
1.48044 -2.8284 -4.2487e-06 
1.67817 -2.82848 -1.60021e-06 
1.87733 -2.82846 -5.97247e-07 
2.10122 -2.82846 -2.04799e-07 
2.31676 -2.82845 -5.833e-08 
2.52337 -2.82852 -1.54395e-08 
2.73208 -2.82847 -4.67833e-09 
2.95961 -2.82848 -1.97983e-09 
3.18471 -2.82848 5.66163e-10 
3.39756 -2.82848 7.61022e-10 
3.61607 -2.82848 5.32059e-10 
3.81992 -2.82848 1.98655e-10 
4.03076 -2.82848 2.969e-10 
4.25049 -2.82848 3.39144e-10 
4.44993 -2.82848 1.90702e-10 
4.66433 -2.82848 3.01511e-11 
4.86695 -2.82848 -4.77714e-11 
5.07997 -2.82848 -3.07753e-11 
5.2881 -2.82848 8.91287e-12 
5.50549 -2.82848 5.48713e-11 
5.71081 -2.82848 4.63068e-11 
5.92851 -2.82848 2.16994e-11 
6.1512 -2.82847 1.31268e-11 
6.35363 -2.82849 4.15546e-12 
6.58856 -2.82848 4.23235e-12 
6.80424 -2.82847 -2.30001e-12 
7.00554 -2.82849 -2.73972e-11 
7.27208 -2.82847 -1.87615e-11 
7.50492 -2.8285 -3.28473e-11 
7.74552 -2.82849 -8.05157e-11 
8.02618 -2.82848 -1.3754e-10 
8.21279 -2.82849 -4.81768e-09 
8.48531 -2.81967 1.57417e-09 
-8.48534 -2.57915 -6.73524e-09 
-8.25676 -2.59176 9.01739e-09 
-8.02273 -2.58071 -5.91501e-11 
-7.80109 -2.61079 -1.45418e-11 
-7.54725 -2.64229 1.64944e-11 
-7.25657 -2.61165 2.11005e-11 
-7.00535 -2.60917 2.18273e-11 
-6.76693 -2.59555 5.51471e-11 
-6.54034 -2.59212 2.75281e-11 
-6.32345 -2.58501 1.15974e-11 
-6.09366 -2.60518 5.81569e-12 
-5.87469 -2.58938 -2.99846e-12 
-5.66613 -2.57458 -2.08476e-11 
-5.44552 -2.60232 -4.88245e-11 
-5.22988 -2.58553 -9.72328e-12 
-5.01146 -2.59745 1.38439e-10 
-4.79755 -2.58687 3.12857e-10 
-4.57981 -2.59949 2.79121e-10 
-4.35978 -2.59777 -1.0944e-11 
-4.14275 -2.59651 -2.98181e-10 
-3.9337 -2.58412 -1.86493e-10 
-3.72457 -2.59114 2.0134e-10 
-3.51121 -2.59035 4.75323e-10 
-3.29297 -2.59793 4.70903e-10 
-3.07125 -2.59102 9.7097e-10 
-2.84955 -2.59687 3.29247e-09 
-2.62423 -2.59172 8.13121e-09 
-2.39524 -2.60856 1.13776e-08 
-2.15363 -2.61781 3.19204e-08 
-1.93139 -2.57627 1.00475e-07 
-1.72866 -2.60789 -1.62584e-07 
-1.52104 -2.61006 1.24535e-07 
-1.35014 -2.51524 -1.61128e-06 
-1.22088 -2.59719 -3.61066e-07 
-1.056 -2.63705 -5.47237e-07 
-0.89589 -2.43636 -1.28443e-05 
-0.890613 -2.64007 -1.57249e-05 
-0.706431 -2.68444 -0.000150627 
-0.30381 -2.77104 -0.000651671 
0.122877 -2.71005 0.000192026 
0.366891 -2.67528 -2.07813e-05 
0.601607 -2.71872 6.46313e-05 
0.786113 -2.60823 2.0993e-05 
0.914866 -2.57765 5.5642e-06 
1.0691 -2.61318 7.05097e-06 
1.21833 -2.55942 -1.83698e-06 
1.36641 -2.5956 3.10649e-06 
1.56633 -2.62529 -1.24776e-07 
1.77916 -2.61239 -2.02248e-07 
2.01504 -2.62436 -1.52401e-08 
2.26531 -2.59858 -1.86308e-08 
2.49859 -2.58305 -1.71155e-08 
2.73858 -2.60224 -5.70422e-09 
2.97372 -2.59882 -9.24596e-10 
3.19778 -2.58984 -5.19367e-10 
3.42538 -2.60003 -3.39816e-10 
3.63709 -2.58451 -3.50265e-10 
3.85362 -2.59427 9.46622e-11 
4.07748 -2.60437 2.54169e-10 
4.2848 -2.58072 8.14623e-11 
4.50022 -2.59822 -1.42845e-10 
4.70984 -2.58395 -3.25746e-10 
4.92547 -2.59597 -2.24674e-10 
5.13975 -2.59014 -4.66203e-11 
5.36027 -2.60015 4.94184e-11 
5.57447 -2.58563 4.40293e-11 
5.79278 -2.59827 2.31746e-12 
6.01915 -2.60128 -7.33104e-12 
6.23507 -2.57536 -1.55531e-11 
6.45708 -2.60879 -2.37108e-11 
6.68489 -2.5858 -3.40094e-11 
6.89615 -2.56513 -3.30542e-11 
7.12691 -2.62843 -1.20133e-11 
7.37978 -2.59789 -1.36551e-11 
7.61509 -2.60501 -1.63614e-11 
7.87584 -2.63711 -4.27312e-11 
8.08218 -2.53952 6.33949e-11 
8.3034 -2.62544 -8.24761e-09 
8.48536 -2.5236 1.068e-08 
-8.48531 -2.33966 -6.94311e-09 
-8.24794 -2.35913 5.55628e-09 
-8.01774 -2.3356 9.91376e-11 
-7.76921 -2.39777 6.64993e-11 
-7.56288 -2.24662 4.31627e-11 
-7.48442 -2.45416 -1.14711e-11 
-7.19871 -2.40631 -2.04096e-11 
-6.96178 -2.37118 3.49588e-11 
-6.73147 -2.36985 1.84773e-12 
-6.50182 -2.35458 1.16266e-11 
-6.25932 -2.36871 -1.05182e-11 
-6.03964 -2.36624 -8.18208e-12 
-5.82159 -2.34346 -2.04471e-12 
-5.5869 -2.3545 -1.59418e-11 
-5.37368 -2.36224 -1.84465e-11 
-5.14433 -2.35986 -3.09521e-12 
-4.92922 -2.35794 4.95681e-11 
-4.70354 -2.3623 5.94694e-11 
-4.48364 -2.37196 1.20101e-11 
-4.26197 -2.36788 -5.48603e-11 
-4.05 -2.35318 -4.39178e-11 
-3.83454 -2.3495 -1.81975e-11 
-3.6218 -2.35651 -1.03093e-10 
-3.40072 -2.36225 -3.84417e-10 
-3.18004 -2.36474 -1.0253e-09 
-2.95015 -2.36015 -2.37115e-09 
-2.72588 -2.36386 -5.26005e-09 
-2.4888 -2.37299 -7.4152e-09 
-2.25252 -2.40158 -1.19787e-08 
-2.02488 -2.3681 -1.36687e-07 
-1.78252 -2.36437 -3.76484e-07 
-1.58349 -2.39132 -1.81605e-06 
-1.37913 -2.31037 -2.0171e-06 
-1.17919 -2.31765 -4.96346e-06 
-1.0597 -2.43273 -7.08785e-06 
-0.801244 -2.27309 -8.43851e-06 
-0.742671 -2.50633 -2.2897e-05 
-0.552564 -2.64322 8.91386e-05 
-0.330234 -2.62664 8.30918e-05 
-0.119964 -2.72548 -1.22115e-05 
0.245989 -2.56908 -0.000131228 
0.516009 -2.58732 5.70053e-06 
0.698385 -2.49899 2.62022e-06 
0.841669 -2.33361 1.65226e-05 
1.00275 -2.38026 6.00073e-06 
1.18157 -2.34373 8.9355e-06 
1.38087 -2.35165 2.74861e-06 
1.55327 -2.41447 9.17599e-07 
1.73996 -2.37713 7.39803e-07 
1.95738 -2.41377 -3.71729e-08 
2.19611 -2.39898 4.11238e-08 
2.45011 -2.36007 1.59437e-08 
2.68713 -2.37569 6.24894e-09 
2.92513 -2.37121 2.78062e-09 
3.15257 -2.3547 1.06704e-09 
3.37383 -2.36986 3.93518e-10 
3.58854 -2.34614 1.17997e-10 
3.80118 -2.35714 2.69925e-11 
4.01535 -2.37602 2.96712e-11 
4.22384 -2.34598 2.46436e-11 
4.43993 -2.36026 -2.57579e-13 
4.64602 -2.34852 -3.83324e-11 
4.86206 -2.3593 -5.72252e-11 
5.07348 -2.35606 -1.86853e-11 
5.29208 -2.36854 1.57065e-11 
5.50591 -2.35356 1.82267e-11 
5.72671 -2.36132 1.56087e-11 
5.94556 -2.37381 1.17956e-11 
6.16345 -2.34605 4.60354e-12 
6.39689 -2.3639 -1.95883e-12 
6.60994 -2.36292 -1.71414e-12 
6.8343 -2.31998 -4.14575e-12 
7.06808 -2.37873 -1.04655e-11 
7.28842 -2.39797 -4.20394e-12 
7.54848 -2.3697 -2.97421e-12 
7.78851 -2.41893 6.39541e-11 
7.99881 -2.32132 -4.97025e-11 
8.25702 -2.35995 -7.65728e-09 
8.48533 -2.28693 7.55945e-09 
-8.48536 -2.10603 -1.66302e-08 
-8.25482 -2.12371 1.20407e-08 
-8.02716 -2.09396 -2.75764e-12 
-7.79738 -2.15906 -7.55738e-11 
-7.50587 -2.03432 -5.06968e-11 
-7.3097 -2.23236 1.10772e-11 
-7.06199 -2.15345 -2.47743e-11 
-6.81529 -2.13639 1.43492e-11 
-6.59439 -2.13112 -3.86864e-12 
-6.35075 -2.14628 2.19604e-12 
-6.12564 -2.1255 2.59295e-12 
-5.9159 -2.11326 8.9264e-12 
-5.68763 -2.12902 1.08761e-11 
-5.46664 -2.11635 4.32715e-12 
-5.25377 -2.13717 7.56241e-12 
-5.03578 -2.1215 1.64559e-11 
-4.81784 -2.13352 1.96406e-11 
-4.59826 -2.13635 2.36934e-11 
-4.38468 -2.14187 2.30134e-11 
-4.1762 -2.12393 3.78813e-11 
-3.96484 -2.11766 5.55308e-11 
-3.75267 -2.11568 4.12258e-11 
-3.53872 -2.12879 -4.76195e-11 
-3.32161 -2.12992 -3.46242e-10 
-3.10015 -2.13634 -1.2105e-09 
-2.87428 -2.12557 -3.96205e-09 
-2.64508 -2.1428 -1.29729e-08 
-2.4028 -2.15857 -3.75895e-08 
-2.18184 -2.16321 -9.64065e-08 
-1.92766 -2.1606 -2.50255e-07 
-1.70103 -2.13425 -4.45877e-07 
-1.51049 -2.14593 -8.34138e-07 
-1.27228 -2.10171 -2.88287e-07 
-1.08999 -2.09077 -3.25412e-08 
-0.97154 -2.22699 -1.42268e-06 
-0.865195 -2.05606 3.03837e-06 
-0.644162 -2.41197 7.81166e-06 
-0.481424 -2.50214 7.11315e-05 
-0.234713 -2.5235 0.000203727 
0.049644 -2.58196 -0.00019325 
0.384882 -2.44846 -0.000169508 
0.56998 -2.41904 -2.37423e-05 
0.702852 -2.27274 2.02608e-06 
0.871003 -2.10638 -5.23985e-06 
1.0187 -2.16283 3.59587e-06 
1.15173 -2.06302 -5.67398e-07 
1.32393 -2.14565 1.47387e-06 
1.54137 -2.16395 9.38667e-07 
1.76734 -2.16577 2.26221e-07 
2.00549 -2.19263 3.17047e-07 
2.25066 -2.18105 7.53723e-08 
2.48803 -2.13113 2.49365e-08 
2.73109 -2.15517 7.75715e-09 
2.96254 -2.13637 2.30684e-09 
3.1921 -2.12387 5.74551e-10 
3.40697 -2.13065 1.39917e-10 
3.62647 -2.11138 -1.63654e-14 
3.84324 -2.12806 -4.98655e-11 
4.04818 -2.13332 -4.28335e-11 
4.27244 -2.12082 -4.00669e-11 
4.47744 -2.11613 -2.45733e-11 
4.69659 -2.12051 -2.7738e-11 
4.9076 -2.12158 -2.0697e-11 
5.12831 -2.12916 -1.4814e-11 
5.33944 -2.12967 -3.5005e-12 
5.56337 -2.126 -3.07457e-12 
5.78359 -2.13137 -2.16111e-12 
5.99682 -2.13226 -2.68304e-12 
6.2379 -2.13075 -7.1073e-12 
6.45194 -2.11605 -1.16921e-12 
6.66552 -2.11666 4.74948e-12 
6.92474 -2.11402 -1.23067e-11 
7.14136 -2.14087 4.85577e-12 
7.37243 -2.18112 -6.83205e-12 
7.5668 -2.08432 7.4959e-12 
7.7523 -2.18296 1.80684e-12 
7.96665 -2.08323 -1.5023e-10 
8.19935 -2.14097 -8.83977e-09 
8.48532 -2.09679 1.04394e-08 
-8.48534 -1.82408 -2.15746e-08 
-8.29555 -1.88667 1.40817e-08 
-7.89097 -1.89274 -1.10688e-10 
[...]
POINT_DATA 1978 
VECTORS vectors float
-0.000800269 -0.000830078 0.999464 
-0.000338455 -0.000555404 1.00003 
-0.000158578 -0.000418121 1.00003 
-6.43524e-05 -0.000340922 1.00003 
-3.67618e-05 -0.000306619 1.00003 
-3.47359e-05 -0.000280746 1.00002 
-3.95886e-05 -0.000248546 1.00004 
-4.86688e-05 -0.000213357 1.00002 
-6.19464e-05 -0.000168255 1.00003 
-7.87831e-05 -0.000110048 1.00003 
-9.79911e-05 -3.75916e-05 1.00003 
-0.000117773 5.73138e-05 1.00003 
-0.000139995 0.000166849 1.00003 
-0.000171306 0.000292785 1.00003 
-0.000214583 0.000474368 1.00003 
-0.000268571 0.000701306 1.00003 
-0.000336443 0.00101258 1.00003 
-0.000427809 0.00140275 1.00003 
-0.000567121 0.00194681 1.00003 
-0.000779076 0.00269135 1.00003 
-0.00108294 0.00373839 1.00002 
-0.00147602 0.00514442 1.00002 
-0.0020052 0.00717799 1 
-0.0026998 0.0099996 0.999978 
-0.0036848 0.0140992 0.999925 
-0.00500482 0.0197896 0.999823 
-0.0067047 0.0279064 0.99962 
-0.00899658 0.0388887 0.999235 
-0.0124538 0.0549342 0.998443 
-0.0178328 0.0784756 0.996787 
-0.0236626 0.105545 0.99416 
-0.0331124 0.14556 0.988819 
-0.0453938 0.198421 0.97909 
-0.0486959 0.24321 0.968767 
-0.0562046 0.306441 0.950235 
-0.0697587 0.391626 0.917474 
-0.0860864 0.501733 0.860712 
-0.082053 0.681042 0.727595 
-0.0447817 0.853316 0.519815 
0.0125371 0.952503 -0.304597 
0.0703245 0.826855 -0.557968 
0.0891481 0.607819 -0.789057 
0.0790642 0.506143 -0.858811 
0.0749917 0.414775 -0.906834 
0.0616613 0.314948 -0.947119 
0.0517903 0.244005 -0.968401 
0.0404437 0.18776 -0.9814 
0.0297462 0.139635 -0.989781 
0.0234401 0.102696 -0.994463 
0.016453 0.0724822 -0.997264 
0.0118098 0.0522128 -0.998597 
0.00922629 0.0382041 -0.999249 
0.00691015 0.027513 -0.999629 
0.0048355 0.0191649 -0.999837 
0.00350125 0.0136969 -0.999932 
0.00267238 0.00983925 -0.999979 
0.00192844 0.00695861 -1 
0.00143559 0.00504629 -1.00002 
0.00104915 0.00361469 -1.00002 
0.000745418 0.00256551 -1.00003 
0.000550863 0.00188108 -1.00003 
0.00040853 0.00136586 -1.00003 
0.000329177 0.000996823 -1.00003 
0.000268225 0.000691597 -1.00003 
0.000218418 0.000457406 -1.00003 
0.000169692 0.000272642 -1.00003 
0.000135463 0.000143935 -1.00003 
0.00011127 3.91176e-05 -1.00003 
9.36706e-05 -5.04919e-05 -1.00003 
7.78372e-05 -0.000120399 -1.00003 
5.95844e-05 -0.000182631 -1.00003 
4.65334e-05 -0.000226036 -1.00003 
3.90543e-05 -0.000257899 -1.00003 
3.45483e-05 -0.000290617 -1.00003 
3.70163e-05 -0.000318381 -1.00003 
5.77375e-05 -0.000348187 -1.00003 
0.000151774 -0.000423156 -1.00003 
0.000301638 -0.000533433 -1.00003 
0.00086169 -0.000815862 -0.999376 
-0.00134539 -0.00135476 0.998913 
-0.000593487 -0.000848125 1.00007 
-0.000272979 -0.000567008 1.00007 
-0.000121382 -0.000401967 1.00007 
-6.10613e-05 -0.000320283 1.00007 
-5.11475e-05 -0.000270821 1.00008 
-5.59202e-05 -0.00023162 1.00007 
-6.95832e-05 -0.000183604 1.00006 
-8.89937e-05 -0.000130063 1.00006 
-0.000112278 -6.39875e-05 1.00006 
-0.0001364 1.81892e-05 1.00006 
-0.000169811 0.000121515 1.00006 
-0.000205527 0.000244125 1.00006 
-0.000238916 0.000399287 1.00006 
-0.000294495 0.000611691 1.00006 
-0.000355354 0.000888658 1.00006 
-0.000441121 0.00126174 1.00006 
-0.000547526 0.00176219 1.00006 
-0.000707273 0.00247445 1.00006 
-0.00093099 0.00346088 1.00005 
-0.00122644 0.00481065 1.00005 
-0.00162042 0.00663519 1.00004 
-0.00215044 0.00922625 1.00002 
-0.00286363 0.012876 0.999976 
-0.00379284 0.018104 0.999892 
-0.00501008 0.0252199 0.999733 
-0.00647025 0.0352435 0.999422 
-0.00833629 0.0494098 0.998806 
-0.011392 0.0706975 0.997493 
-0.0138272 0.0987532 0.995074 
-0.0175727 0.134673 0.990784 
-0.0215627 0.185988 0.982351 
-0.0117804 0.238644 0.971086 
-0.0216697 0.290672 0.956613 
-0.030692 0.368786 0.929029 
0.0232634 0.444182 0.89563 
-0.0311827 0.469467 0.882393 
-0.0352554 0.610067 0.791498 
-0.0212851 0.916893 0.397869 
-0.00428577 0.986135 -0.164613 
0.00813861 0.86493 -0.501541 
0.0420902 0.689839 -0.722598 
0.0198164 0.53653 -0.843639 
0.0166963 0.449165 -0.89331 
0.0249193 0.362136 -0.931804 
0.0171942 0.289133 -0.957184 
0.0202572 0.232979 -0.972315 
0.0204101 0.171765 -0.984962 
0.0172387 0.123542 -0.992252 
0.013161 0.0875403 -0.99613 
0.0093122 0.0595742 -0.998243 
0.00713278 0.041798 -0.999174 
0.00576342 0.0293713 -0.999618 
0.00411179 0.0204306 -0.999848 
0.00310867 0.0146403 -0.999952 
0.00238043 0.0103625 -1.00001 
0.00178557 0.00749628 -1.00003 
0.00132811 0.00534174 -1.00005 
0.00097689 0.00375675 -1.00005 
0.000755562 0.00274444 -1.00006 
0.000577811 0.00195222 -1.00006 
0.000465182 0.00141984 -1.00006 
0.000376508 0.00100347 -1.00006 
0.000312403 0.00069797 -1.00006 
0.000254223 0.000455249 -1.00006 
0.000213692 0.000283361 -1.00006 
0.000173846 0.000145705 -1.00006 
0.000142463 3.65688e-05 -1.00006 
0.00012131 -4.33027e-05 -1.00006 
9.26694e-05 -0.000119251 -1.00006 
7.47998e-05 -0.000174973 -1.00007 
6.29667e-05 -0.000217154 -1.00007 
4.94036e-05 -0.000261391 -1.00007 
5.3403e-05 -0.000300103 -1.00007 
7.36829e-05 -0.000348924 -1.00007 
0.000147791 -0.000446816 -1.00006 
0.000356003 -0.000679558 -1.00008 
0.000679875 -0.000931887 -1.00005 
0.0015345 -0.00162025 -0.998869 
-0.00168901 -0.00181279 0.998946 
-0.00075908 -0.00108328 1.00007 
-0.000354692 -0.000685328 1.00007 
-0.000150158 -0.000432957 1.00007 
-9.89782e-05 -0.000346621 1.00006 
-7.31512e-05 -0.000312561 1.00007 
-6.26028e-05 -0.000253948 1.00007 
-6.89963e-05 -0.000204976 1.00006 
-8.19928e-05 -0.000152938 1.00008 
-0.000102963 -8.87704e-05 1.00007 
-0.000130912 -1.0329e-05 1.00006 
-0.000159312 7.84453e-05 1.00006 
-0.000191698 0.000191636 1.00006 
-0.000228557 0.000339055 1.00006 
-0.000266926 0.000515221 1.00006 
-0.000316175 0.000772623 1.00006 
-0.0003745 0.00110122 1.00006 
-0.000456863 0.00157146 1.00006 
-0.000567654 0.00220316 1.00006 
-0.000709855 0.00310146 1.00006 
-0.00087717 0.00430624 1.00005 
-0.00110118 0.00598144 1.00004 
-0.00140237 0.00823149 1.00003 
-0.00178665 0.0114478 0.999996 
-0.00224422 0.0159062 0.999934 
-0.00274752 0.022337 0.999811 
-0.00333404 0.0309382 0.99958 
-0.00408286 0.0436625 0.999103 
-0.00525991 0.0614496 0.998161 
-0.00422406 0.0849119 0.996441 
-0.00279852 0.121158 0.992686 
-0.00148991 0.163502 0.986597 
0.0116991 0.213944 0.976803 
0.0234088 0.285017 0.958254 
0.0131296 0.353487 0.935348 
0.0750503 0.464308 0.882466 
0.0171667 0.557585 0.82992 
-0.0101486 0.730505 0.682692 
0.0047967 0.889904 0.455836 
-0.00698551 0.984957 0.170134 
-0.0235401 0.928016 -0.371205 
-0.00299122 0.740639 -0.67181 
-0.0188509 0.5836 -0.811786 
-0.0499309 0.455739 -0.888691 
-0.0250804 0.375679 -0.926418 
-0.0205449 0.287519 -0.957567 
-0.00855475 0.21736 -0.976089 
0.00252203 0.170786 -0.985354 
0.00234945 0.129061 -0.991688 
0.00564533 0.0952317 -0.99549 
0.00494374 0.0664316 -0.997842 
0.0037256 0.0455665 -0.999019 
0.00346444 0.0322625 -0.999539 
0.00270192 0.0226699 -0.999805 
0.00215503 0.0162729 -0.999929 
0.00184845 0.0117403 -0.999992 
0.00139194 0.00851541 -1.00002 
0.00110381 0.00617257 -1.00004 
0.000886043 0.0044442 -1.00005 
0.000684797 0.00324812 -1.00006 
0.000553282 0.00231631 -1.00006 
0.00045272 0.00168777 -1.00006 
0.000380415 0.00119826 -1.00006 
0.000322463 0.000849196 -1.00006 
0.000274369 0.000576795 -1.00006 
0.000234469 0.000381688 -1.00006 
0.000199182 0.000225847 -1.00006 
0.000167138 0.000106198 -1.00006 
0.000139225 1.66995e-05 -1.00006 
0.000111375 -6.84749e-05 -1.00006 
8.99635e-05 -0.000131524 -1.00006 
7.43504e-05 -0.000183358 -1.00007 
6.29595e-05 -0.000237047 -1.00007 
6.18682e-05 -0.000280033 -1.00007 
8.49479e-05 -0.000342971 -1.00008 
0.000150479 -0.00045144 -1.00007 
0.000329025 -0.000692517 -1.00007 
0.000763763 -0.00115788 -1.00006 
0.0016595 -0.00208632 -0.999097 
-0.00208882 -0.00237173 0.998833 
-0.000933716 -0.00136711 1.00005 
-0.000432632 -0.000826351 1.00008 
-0.000195397 -0.000499855 1.00008 
-9.53946e-05 -0.000330391 1.00007 
-7.10712e-05 -0.000272012 1.00007 
-7.22784e-05 -0.00021316 1.00008 
-8.44098e-05 -0.000153595 1.00007 
-0.000102992 -9.07443e-05 1.00006 
-0.000130213 -1.26147e-05 1.00006 
-0.000163069 7.82252e-05 1.00006 
-0.000196077 0.00017839 1.00006 
-0.000231445 0.000308057 1.00006 
-0.000272591 0.000476226 1.00006 
-0.000310158 0.000684491 1.00006 
-0.000360002 0.000980939 1.00006 
-0.000413813 0.00138099 1.00006 
-0.000485419 0.00194172 1.00006 
-0.000578639 0.00269429 1.00006 
-0.0006915 0.0037082 1.00005 
-0.000826126 0.00509149 1.00005 
-0.000977153 0.00696019 1.00004 
-0.00114823 0.00949103 1.00002 
-0.00129529 0.0129765 0.999977 
-0.00140386 0.0178444 0.999903 
-0.00132862 0.024569 0.999761 
-0.00113257 0.0339091 0.999489 
-0.000519513 0.0477622 0.998923 
0.000753209 0.0651102 0.99794 
0.0040336 0.0927874 0.995735 
0.0100362 0.12525 0.992127 
0.0172613 0.163696 0.986404 
0.0361221 0.220247 0.974811 
0.0578155 0.278534 0.958706 
0.056864 0.360128 0.931164 
0.103814 0.356609 0.928477 
0.0578145 0.610232 0.790043 
0.0423124 0.757875 0.650926 
0.0261715 0.933642 0.356664 
-0.00708881 0.996947 -0.0756179 
-0.0546309 0.819672 -0.569975 
-0.0605292 0.660869 -0.747948 
-0.0833219 0.524261 -0.847435 
-0.08657 0.375978 -0.922582 
-0.0564002 0.326199 -0.943637 
-0.0513431 0.254352 -0.965779 
-0.0289656 0.213174 -0.976622 
-0.0152185 0.158807 -0.987245 
-0.00792955 0.116213 -0.993237 
-0.00239013 0.0834256 -0.996581 
-0.000562506 0.0589356 -0.998325 
0.000320527 0.041639 -0.999198 
0.00119227 0.0296637 -0.999624 
0.00127539 0.0212947 -0.999837 
0.00129403 0.0153497 -0.999945 
0.00122195 0.01125 -0.999999 
0.00102472 0.00818329 -1.00003 
0.000862153 0.00597351 -1.00004 
0.000721532 0.00440689 -1.00005 
0.000590275 0.00313759 -1.00006 
0.000502567 0.00229396 -1.00006 
0.000429207 0.00163319 -1.00006 
0.000375297 0.00117269 -1.00006 
0.000326103 0.000820335 -1.00006 
0.000285252 0.00057395 -1.00006 
0.000244893 0.000378904 -1.00006 
0.000207565 0.000231648 -1.00006 
0.000174939 0.000120254 -1.00006 
0.000141765 1.83494e-05 -1.00006 
0.000116861 -5.58203e-05 -1.00006 
9.485e-05 -0.000121314 -1.00006 
7.60147e-05 -0.000189319 -1.00007 
6.83603e-05 -0.000241095 -1.00007 
7.26416e-05 -0.000296168 -1.00006 
0.000100725 -0.000363289 -1.00007 
0.000158136 -0.000466202 -1.00007 
0.00032932 -0.000738768 -1.00006 
0.000711058 -0.00121304 -1.00008 
0.00186838 -0.00243617 -0.999058 
-0.00222119 -0.00329104 0.998755 
-0.00112985 -0.00184092 1.00006 
-0.000283423 -0.000677159 1.00007 
-0.00014708 -0.000435932 1.00006 
-8.83517e-05 -0.000311745 1.00008 
-7.6208e-05 -0.000259713 1.00006 
-7.72865e-05 -0.000222123 1.00007 
-8.2811e-05 -0.000173965 1.00006 
-0.000101744 -0.000103246 1.00007 
-0.000127184 -3.01899e-05 1.00006 
-0.000159512 5.55913e-05 1.00006 
-0.000195383 0.00015383 1.00006 
-0.000233954 0.000268209 1.00006 
-0.000275363 0.000412201 1.00006 
-0.000321496 0.000608529 1.00006 
-0.000363908 0.000846826 1.00006 
-0.000414172 0.00120183 1.00006 
-0.00046782 0.00167878 1.00006 
-0.000529666 0.00234072 1.00006 
-0.000595177 0.00319795 1.00006 
-0.000669449 0.00438121 1.00005 
-0.000748795 0.00596685 1.00004 
-0.00083259 0.00810789 1.00003 
-0.000892391 0.0109123 1 
-0.000874619 0.014822 0.999953 
-0.00069149 0.0200965 0.999862 
-0.000183283 0.0276269 0.999683 
0.000665913 0.0381156 0.999339 
0.00271715 0.0517488 0.998722 
0.00577262 0.0722461 0.997433 
0.012689 0.0970339 0.995261 
0.0237023 0.125393 0.991881 
0.0361631 0.166024 0.985509 
0.0662565 0.202918 0.977004 
0.0974883 0.265183 0.959279 
0.155429 0.314027 0.93662 
0.122219 0.492776 0.861501 
0.114337 0.649862 0.751296 
0.0860494 0.827008 0.555285 
0.00712482 0.993735 0.110307 
-0.0665362 0.921847 -0.381366 
-0.117998 0.653337 -0.747795 
-0.124331 0.466003 -0.875962 
-0.135813 0.329825 -0.934233 
-0.0947596 0.268824 -0.958545 
-0.0747878 0.201242 -0.976726 
-0.0452325 0.179156 -0.982828 
-0.0275463 0.146128 -0.988925 
-0.0164271 0.111906 -0.99364 
-0.0084092 0.0832892 -0.996551 
-0.00410979 0.0605229 -0.998223 
-0.0019103 0.0433364 -0.999125 
-0.000191886 0.0310005 -0.999585 
0.00045967 0.0226456 -0.999808 
0.000745366 0.0164929 -0.999928 
0.000843445 0.0120459 -0.99999 
0.000816639 0.00896519 -1.00002 
0.000731567 0.0065609 -1.00004 
0.000640122 0.00485597 -1.00005 
0.00057611 0.0035728 -1.00005 
0.000505146 0.00257196 -1.00006 
0.00045961 0.00186395 -1.00006 
0.000413198 0.0013393 -1.00006 
0.000369804 0.000959108 -1.00006 
0.000327586 0.000683025 -1.00006 
0.000284755 0.000477178 -1.00006 
0.000241996 0.000313543 -1.00006 
0.000204529 0.00018968 -1.00006 
0.000168063 8.20126e-05 -1.00006 
0.000137461 -2.596e-06 -1.00006 
0.000110729 -7.71836e-05 -1.00006 
8.86257e-05 -0.000148847 -1.00007 
7.49542e-05 -0.000214489 -1.00008 
7.48499e-05 -0.00027599 -1.00007 
9.89597e-05 -0.000360286 -1.00007 
0.0001904 -0.000543629 -1.00007 
0.000444951 -0.00100122 -1.00008 
0.0009657 -0.00169082 -1.00005 
0.00202489 -0.00318749 -0.99895 
-0.00177874 -0.00396541 0.998907 
-0.000970182 -0.00219212 1.00006 
-0.000594372 -0.00119852 1.00007 
-0.000261017 -0.000737899 1.00006 
-0.000132844 -0.00044806 1.00007 
-7.39679e-05 -0.000259035 1.00007 
-7.9154e-05 -0.000176438 1.00006 
-9.19804e-05 -0.000122083 1.00006 
-0.000117931 -3.74134e-05 1.00006 
-0.000145379 4.11197e-05 1.00006 
-0.000177526 0.000135331 1.00006 
-0.000216844 0.000247219 1.00006 
-0.000255673 0.00037441 1.00006 
-0.000296932 0.000538058 1.00006 
-0.000335983 0.000757103 1.00006 
-0.00037577 0.00103243 1.00006 
-0.000413938 0.00143374 1.00006 
-0.000448753 0.0019676 1.00006 
-0.000468112 0.00267043 1.00006 
-0.000481527 0.00362235 1.00005 
-0.000479601 0.00490571 1.00005 
-0.000463541 0.00660915 1.00004 
-0.000407878 0.00879925 1.00002 
-0.000304149 0.011717 0.999993 
-1.20942e-05 0.0155753 0.999941 
0.000506404 0.0209238 0.999845 
0.0015493 0.028366 0.999662 
0.00322551 0.0377872 0.999347 
0.00659436 0.052071 0.998688 
0.0115697 0.0693839 0.997589 
0.0217579 0.089256 0.995835 
0.0380904 0.115778 0.992605 
0.0574757 0.1462 0.987629 
0.0919491 0.15289 0.98401 
0.118952 0.204049 0.971746 
0.179237 0.232475 0.955969 
0.175741 0.435916 0.882642 
0.185245 0.616135 0.765412 
0.069623 0.95131 0.299509 
-0.00827186 0.999723 -0.00390294 
-0.136882 0.847171 -0.512988 
-0.0446182 0.52301 -0.851114 
-0.192238 0.446238 -0.873995 
-0.181858 0.276295 -0.943729 
-0.126476 0.212146 -0.969054 
-0.0902145 0.153681 -0.984046 
-0.0551034 0.136849 -0.989113 
-0.0345983 0.113579 -0.992995 
-0.0197685 0.0898802 -0.99581 
-0.0111027 0.0684122 -0.99766 
-0.00656273 0.0509887 -0.998756 
-0.00292724 0.0358126 -0.999422 
-0.00132451 0.0264885 -0.999714 
-0.000448523 0.0195189 -0.999874 
3.73981e-05 0.0144334 -0.999959 
0.000268508 0.0108062 -1 
0.000404464 0.00804807 -1.00003 
0.000410606 0.0060175 -1.00004 
0.000415865 0.00445438 -1.00005 
0.000431045 0.00328705 -1.00005 
0.000414968 0.00235892 -1.00006 
0.000405032 0.00172696 -1.00006 
0.000377444 0.00124698 -1.00006 
0.000347214 0.000911647 -1.00006 
0.000309808 0.00066116 -1.00006 
0.000271643 0.000465963 -1.00006 
0.000231765 0.000316636 -1.00006 
0.000194782 0.000191115 -1.00006 
0.000162455 9.15784e-05 -1.00006 
0.000130179 5.20247e-06 -1.00006 
0.000103134 -7.78244e-05 -1.00006 
8.39445e-05 -0.000152773 -1.00005 
7.1304e-05 -0.000210835 -1.00007 
7.29116e-05 -0.000274922 -1.00007 
9.51358e-05 -0.000380474 -1.00007 
0.000183312 -0.000586481 -1.00007 
0.00037662 -0.00105272 -1.00007 
0.00087155 -0.00193572 -1.00006 
0.00173083 -0.00378958 -0.999047 
-0.00129533 -0.00431449 0.998997 
-0.00058014 -0.00211231 1.00006 
-0.000452267 -0.00124451 1.00007 
-0.000150064 -0.000608535 1.00008 
-8.63781e-05 -0.000361277 1.00007 
-6.23552e-05 -0.000266686 1.00006 
-6.90681e-05 -0.000194766 1.00005 
-8.05319e-05 -0.000116134 1.00007 
-0.000100617 -5.85105e-05 1.00005 
-0.000124213 2.95886e-05 1.00006 
-0.000150973 0.000113302 1.00006 
-0.000186335 0.000221691 1.00006 
-0.000220528 0.000344563 1.00006 
-0.000255841 0.000487135 1.00006 
-0.000288866 0.00067097 1.00006 
-0.000318015 0.000925576 1.00006 
-0.000345553 0.00124232 1.00006 
-0.000358368 0.0016965 1.00006 
-0.000351523 0.00227815 1.00006 
-0.00032328 0.00307626 1.00005 
-0.000265583 0.00415039 1.00005 
-0.000164156 0.0055789 1.00004 
-4.18121e-06 0.00739124 1.00003 
0.000229943 0.00976273 1.00001 
0.000624495 0.0128028 0.99998 
0.00130559 0.0169777 0.999919 
0.00243432 0.0226476 0.999806 
0.00450079 0.0299485 0.999609 
0.00746115 0.0402494 0.99923 
0.0134822 0.0533643 0.998554 
0.02215 0.0681782 0.997496 
0.0383104 0.0874386 0.995499 
0.0636539 0.105377 0.992466 
0.0996417 0.104649 0.989566 
0.146636 0.140415 0.979219 
0.219421 0.168304 0.961033 
0.247338 0.35088 0.903149 
0.27418 0.533278 0.800157 
0.169527 0.806743 0.565758 
-0.0639399 0.982854 -0.171189 
-0.176668 0.630659 -0.755585 
-0.259926 0.615897 -0.743544 
-0.260726 0.388084 -0.883944 
-0.220413 0.214267 -0.951599 
-0.14524 0.151365 -0.977801 
-0.0978534 0.106169 -0.989583 
-0.0627828 0.103663 -0.992691 
-0.0398734 0.0868245 -0.99549 
-0.0249652 0.0741255 -0.997013 
-0.0158061 0.0587069 -0.998207 
-0.0101576 0.0442279 -0.999029 
-0.00559218 0.0346155 -0.999453 
-0.00320325 0.0247984 -0.999755 
-0.00178255 0.0188697 -0.999886 
-0.000921247 0.0142104 -0.999962 
-0.000440703 0.0106845 -1 
-9.80305e-05 0.00817734 -1.00003 
4.41641e-05 0.00618972 -1.00004 
0.000154989 0.00464529 -1.00005 
0.000247715 0.00343803 -1.00005 
0.000302164 0.00255853 -1.00006 
0.000323279 0.00183658 -1.00006 
0.000326773 0.00136549 -1.00006 
0.000310399 0.00100199 -1.00006 
0.000286093 0.000747349 -1.00006 
0.000255984 0.000539647 -1.00006 
0.000223027 0.000383846 -1.00006 
0.000190208 0.000249957 -1.00006 
0.000158268 0.000141027 -1.00006 
0.000129992 5.21963e-05 -1.00006 
0.000101515 -4.04116e-05 -1.00007 
8.03893e-05 -0.00012546 -1.00006 
6.38756e-05 -0.000202608 -1.00007 
6.44954e-05 -0.000288928 -1.00007 
7.75736e-05 -0.000402438 -1.00007 
0.000147204 -0.000604854 -1.00007 
0.000263572 -0.00105049 -1.00007 
0.000617019 -0.00196847 -1.00006 
0.00133944 -0.00420666 -0.99903 
-0.000603309 -0.00452151 0.998981 
-0.000328503 -0.00228345 1.00006 
-0.000259119 -0.00106905 1.00007 
-9.28764e-05 -0.000638466 1.00007 
-7.01073e-05 -0.00039881 1.00007 
-4.75666e-05 -0.000264607 1.00006 
-5.93979e-05 -0.000177326 1.00006 
-7.30127e-05 -9.23316e-05 1.00006 
-9.63733e-05 -1.77928e-05 1.00006 
-0.000114983 6.99624e-05 1.00007 
-0.000145176 0.000163828 1.00005 
-0.00017374 0.000273696 1.00006 
-0.000201211 0.000400361 1.00006 
-0.000229607 0.000548212 1.00007 
-0.000256712 0.000746245 1.00005 
-0.000270063 0.000999674 1.00007 
-0.000285309 0.00133056 1.00005 
-0.000271507 0.00175519 1.00006 
-0.00023818 0.00233203 1.00006 
-0.000171477 0.00313249 1.00005 
-5.17834e-05 0.00420116 1.00005 
0.000137495 0.00555684 1.00004 
0.000407802 0.00729098 1.00003 
0.000783603 0.00946123 1.00002 
0.0013668 0.0123368 0.999985 
0.00232808 0.0161457 0.999932 
0.00385419 0.0211181 0.999826 
0.00635433 0.0269508 0.999696 
0.0102072 0.0362517 0.999351 
0.016788 0.0446199 0.998933 
0.0275799 0.0579742 0.998008 
0.0443552 0.0691766 0.996688 
0.0674581 0.0716827 0.995214 
0.102662 0.0580315 0.99309 
0.150799 0.0787814 0.985482 
0.233271 0.094825 0.967795 
0.304023 0.262286 0.915819 
0.406463 0.434522 0.803881 
0.291249 0.771402 0.565935 
0.0687617 0.987455 0.142428 
-0.240393 0.859048 -0.452208 
-0.394266 0.532148 -0.749425 
-0.323674 0.306278 -0.895164 
-0.237504 0.131036 -0.962528 
-0.15329 0.0913999 -0.983998 
-0.100212 0.0611963 -0.993152 
-0.0642628 0.0713071 -0.995452 
-0.0428017 0.0650118 -0.997037 
-0.0267478 0.0565963 -0.998109 
-0.017068 0.0445417 -0.998933 
-0.0104829 0.0340965 -0.999445 
-0.00624175 0.0275721 -0.99966 
-0.00376709 0.0200766 -0.999859 
-0.00225913 0.0154557 -0.999942 
-0.00134515 0.011819 -0.999991 
-0.000761259 0.00897636 -1.00002 
-0.000402183 0.00694199 -1.00003 
-0.000175314 0.00524767 -1.00004 
3.66973e-06 0.00394515 -1.00005 
0.000125845 0.00296179 -1.00006 
0.000218481 0.00220574 -1.00005 
0.000246327 0.00162357 -1.00007 
0.000262525 0.00122173 -1.00006 
0.000251839 0.000924051 -1.00006 