# vtk DataFile Version 3.0 
Exported using Morpho https://github.com/Morpho-lang/morpho 
ASCII 
DATASET UNSTRUCTURED_GRID 

POINTS 1978 float 
-8.48528 -2.82842 -4.36306e-10 
-8.25929 -2.82843 -1.07055e-11 
-8.03816 -2.82843 -1.10152e-12 
-7.79063 -2.82843 -6.4141e-13 
-7.49972 -2.82843 -4.55818e-13 
-7.253 -2.82843 -7.78409e-14 
-7.01133 -2.82843 -1.8595e-13 
-6.78638 -2.82843 -1.51781e-13 
-6.56593 -2.82843 -3.54785e-15 
-6.35121 -2.82843 7.08092e-14 
-6.14375 -2.82843 2.71891e-13 
-5.9189 -2.82843 1.20245e-13 
-5.70869 -2.82843 2.99751e-13 
-5.50991 -2.82843 3.48302e-13 
-5.28896 -2.82843 -6.47979e-15 
-5.08302 -2.82843 -1.55692e-13 
-4.86693 -2.82843 -1.65259e-13 
-4.66041 -2.82843 3.78373e-13 
-4.44351 -2.82843 1.13158e-12 
-4.22908 -2.82843 2.33045e-12 
-4.01665 -2.82843 2.36145e-12 
-3.81457 -2.82843 1.30589e-12 
-3.60529 -2.82843 -1.04543e-12 
-3.39476 -2.82843 -5.30664e-12 
-3.17448 -2.82843 -2.58225e-11 
-2.95846 -2.82843 -8.46754e-11 
-2.73508 -2.82843 -2.31492e-10 
-2.51586 -2.82843 -6.30407e-10 
-2.28339 -2.82843 -1.88968e-09 
-2.04736 -2.82843 -4.5062e-09 
-1.85534 -2.82843 -1.06848e-08 
-1.6486 -2.82843 -2.99356e-08 
-1.47706 -2.82843 -4.9913e-08 
-1.32253 -2.82843 -7.38225e-08 
-1.17645 -2.82843 -1.80238e-07 
-1.00897 -2.82843 -4.11463e-07 
-0.846259 -2.82843 -1.11878e-06 
-0.63121 -2.82843 -3.16764e-06 
-0.414314 -2.82857 -2.78461e-06 
0.248644 -2.82848 1.56779e-07 
0.441816 -2.82842 2.63322e-06 
0.693971 -2.82843 2.20369e-06 
0.855345 -2.82843 4.97463e-07 
0.974138 -2.82843 3.50205e-07 
1.15412 -2.82843 2.02408e-07 
1.30739 -2.82843 1.21504e-07 
1.47908 -2.82843 5.62256e-08 
1.67788 -2.82843 2.65266e-08 
1.8763 -2.82843 1.08802e-08 
2.10146 -2.82843 4.31786e-09 
2.31575 -2.82843 1.45121e-09 
2.52312 -2.82843 5.36399e-10 
2.73538 -2.82843 2.28329e-10 
2.95793 -2.82843 7.95781e-11 
3.18471 -2.82843 2.10083e-11 
3.39772 -2.82843 4.09967e-12 
3.61618 -2.82843 -2.61574e-13 
3.82001 -2.82843 -4.74465e-14 
4.03083 -2.82843 -1.78858e-12 
4.25049 -2.82843 -2.56066e-12 
4.44997 -2.82843 -1.48102e-12 
4.66434 -2.82843 -1.95897e-13 
4.86692 -2.82843 4.27595e-13 
5.07996 -2.82843 2.7306e-13 
5.28805 -2.82843 -6.62952e-14 
5.50548 -2.82843 -4.54602e-13 
5.71084 -2.82843 -3.85103e-13 
5.92852 -2.82843 -1.79837e-13 
6.1512 -2.82843 -1.08422e-13 
6.35378 -2.82843 -3.34827e-14 
6.5885 -2.82843 -3.41136e-14 
6.80431 -2.82843 2.02162e-14 
7.00557 -2.82843 2.30098e-13 
7.27227 -2.82843 1.57169e-13 
7.50497 -2.82843 2.7395e-13 
7.74543 -2.82843 6.68666e-13 
8.0262 -2.82843 1.15409e-12 
8.21301 -2.82843 -1.08832e-11 
8.48528 -2.82791 1.04552e-10 
-8.48528 -2.59149 -7.33267e-10 
-8.25444 -2.59081 7.76706e-20 
-8.02778 -2.58353 4.95536e-23 
-7.79537 -2.61335 6.58354e-15 
-7.54583 -2.64342 1.55538e-15 
-7.25217 -2.60908 6.19933e-17 
-6.99784 -2.60542 1.25733e-16 
-6.77362 -2.5956 -1.74911e-16 
-6.54225 -2.59352 5.24739e-16 
-6.32436 -2.58467 6.32072e-16 
-6.0933 -2.60528 3.68688e-16 
-5.87469 -2.58887 5.64176e-16 
-5.66601 -2.57489 1.42201e-15 
-5.44542 -2.60211 2.11621e-15 
-5.22985 -2.58558 5.7283e-15 
-5.01152 -2.59731 1.27515e-14 
-4.79753 -2.58714 3.17927e-14 
-4.57992 -2.59928 -1.23932e-23 
-4.36011 -2.59774 -3.21932e-23 
-4.14319 -2.59625 -8.49843e-23 
-3.93418 -2.58412 -2.21509e-22 
-3.72496 -2.59102 -5.81909e-22 
-3.51143 -2.59034 -1.52756e-21 
-3.29278 -2.59846 -4.09466e-21 
-3.07078 -2.5905 -1.08148e-20 
-2.84872 -2.59742 -2.85378e-20 
-2.6226 -2.59239 -7.28237e-20 
-2.39292 -2.60845 -1.96732e-19 
-2.14773 -2.61643 -5.79065e-19 
-1.91954 -2.57864 -1.49071e-18 
-1.70726 -2.60877 -4.01084e-18 
-1.50529 -2.59715 -8.47447e-18 
-1.36282 -2.53101 -1.10164e-17 
-1.22363 -2.58102 -2.50746e-17 
-1.06949 -2.63871 -5.83025e-17 
-0.892403 -2.44465 -2.45354e-18 
-0.90555 -2.6357 -1.18107e-16 
-0.7305 -2.68606 -2.50742e-16 
-0.224948 -2.78091 8.91922e-16 
0.119799 -2.71083 -2.25726e-16 
0.347408 -2.68792 1.79358e-16 
0.581241 -2.7079 2.79253e-16 
0.776435 -2.66821 1.22349e-16 
0.909812 -2.5457 8.72759e-17 
1.05534 -2.6179 4.44925e-17 
1.20853 -2.56463 2.53261e-17 
1.38124 -2.59677 1.50795e-17 
1.57846 -2.62479 7.40611e-18 
1.78543 -2.6025 3.26627e-18 
2.01697 -2.62175 1.14257e-18 
2.26597 -2.59996 3.75101e-19 
2.49689 -2.59274 1.33636e-19 
2.73186 -2.58942 5.04065e-20 
2.9703 -2.60086 1.51159e-20 
3.19499 -2.59003 5.48622e-21 
3.42344 -2.59907 2.11721e-21 
3.63622 -2.58469 7.77826e-22 
3.85241 -2.594 3.01644e-22 
4.07631 -2.60408 1.09453e-22 
4.28418 -2.58099 4.04321e-23 
4.49982 -2.59824 1.57577e-23 
4.70946 -2.58389 -4.1038e-14 
4.92505 -2.596 -1.70906e-14 
5.13924 -2.58997 -7.77687e-15 
5.35972 -2.60017 -3.05081e-15 
5.57398 -2.58556 -1.79167e-15 
5.79234 -2.59805 -7.02188e-16 
6.01873 -2.60115 -4.62252e-16 
6.2349 -2.57567 -8.30717e-16 
6.45717 -2.60815 -7.27392e-17 
6.68518 -2.58591 -3.92692e-16 
6.89636 -2.56543 -3.02053e-16 
7.12757 -2.6289 2.33617e-16 
7.37951 -2.59681 -5.92938e-16 
7.61447 -2.60477 -1.15922e-15 
7.87472 -2.63715 -6.6241e-15 
8.08153 -2.53927 2.49137e-23 
8.30259 -2.62743 -2.46731e-19 
8.48528 -2.53029 -1.02839e-09 
-8.48528 -2.3442 -3.16669e-09 
-8.25111 -2.35266 1.57691e-19 
-8.00902 -2.34798 9.74084e-23 
-7.77184 -2.39138 -2.82728e-15 
-7.56608 -2.24348 3.0022e-15 
-7.48971 -2.45527 -2.25142e-15 
-7.19711 -2.40747 -3.75369e-16 
-6.96838 -2.36112 1.64578e-16 
-6.72747 -2.37423 2.00456e-16 
-6.50056 -2.35407 -1.45996e-17 
-6.25825 -2.36885 -6.09924e-18 
-6.03956 -2.3654 1.07566e-16 
-5.82207 -2.3429 2.42972e-16 
-5.5879 -2.35462 3.79007e-16 
-5.37435 -2.36229 7.25475e-16 
-5.14468 -2.35981 1.4073e-15 
-4.9293 -2.35813 2.62544e-15 
-4.70392 -2.36231 8.01881e-15 
-4.48414 -2.37167 2.14564e-14 
-4.26274 -2.36773 4.64245e-14 
-4.05067 -2.35298 -1.1545e-23 
-3.8351 -2.3495 -2.70874e-23 
-3.62207 -2.35662 -8.40079e-23 
-3.40056 -2.36282 -2.94211e-22 
-3.18031 -2.3646 -8.21988e-22 
-2.95048 -2.36001 -2.29975e-21 
-2.72658 -2.36509 -7.08382e-21 
-2.48998 -2.37282 -2.67506e-20 
-2.25445 -2.40133 -9.07652e-20 
-2.02722 -2.36995 -1.04376e-19 
-1.78681 -2.36588 -2.10386e-19 
-1.59003 -2.3724 3.96022e-19 
-1.38159 -2.3192 1.65347e-18 
-1.18534 -2.31755 3.08078e-18 
-1.05589 -2.43026 -1.42984e-18 
-0.816498 -2.27679 5.03188e-19 
-0.725418 -2.52099 -1.5714e-17 
-0.536807 -2.67569 -2.73824e-16 
-0.354268 -2.65238 -3.1703e-16 
-0.114136 -2.73279 -4.64643e-16 
0.29153 -2.56004 3.36803e-16 
0.512871 -2.57854 2.28745e-16 
0.719066 -2.52335 5.66311e-17 
0.839794 -2.35764 -7.51697e-18 
1.02093 -2.36859 4.79902e-18 
1.19127 -2.3359 -5.48226e-18 
1.3781 -2.35764 -1.18162e-18 
1.55591 -2.40232 6.43187e-19 
1.74566 -2.38213 -1.02146e-19 
1.96374 -2.40838 1.71023e-19 
2.20058 -2.39945 9.26743e-20 
2.44954 -2.36248 2.24289e-20 
2.67996 -2.36861 7.53793e-21 
2.92337 -2.37342 2.63885e-21 
3.15067 -2.35569 8.64516e-22 
3.3733 -2.36877 3.41263e-22 
3.58931 -2.34648 1.07173e-22 
3.80174 -2.35691 3.95719e-23 
4.01563 -2.3758 2.26921e-23 
4.2249 -2.3462 8.90902e-24 
4.44097 -2.36038 -1.72986e-14 
4.64693 -2.34841 -7.93369e-15 
4.86279 -2.35933 -3.19256e-15 
5.07393 -2.3559 -1.57714e-15 
5.29244 -2.36843 -7.69363e-16 
5.50616 -2.35349 -3.95973e-16 
5.72701 -2.36112 -1.90612e-16 
5.94595 -2.37356 -6.68736e-17 
6.16412 -2.3463 -3.03825e-17 
6.39739 -2.36372 -1.30164e-17 
6.61096 -2.36254 2.60941e-17 
6.83489 -2.3198 2.91966e-17 
7.06836 -2.38018 2.80395e-17 
7.28891 -2.39623 9.86118e-16 
7.54842 -2.36909 3.45226e-16 
7.78752 -2.4182 9.14555e-15 
7.99982 -2.32236 1.39131e-22 
8.26067 -2.3589 3.15823e-19 
8.48528 -2.28372 3.26892e-09 
-8.48528 -2.1123 -3.61751e-09 
-8.25024 -2.12221 5.2584e-19 
-8.0282 -2.09636 7.10613e-22 
-7.7998 -2.15089 -4.32864e-15 
-7.49888 -2.03446 -5.68261e-15 
-7.31186 -2.24004 5.41881e-16 
-7.06593 -2.14181 -4.68398e-16 
-6.81117 -2.14634 2.82367e-16 
-6.59197 -2.12934 -4.93713e-17 
-6.35132 -2.14552 -7.48174e-17 
-6.12804 -2.12507 -1.54301e-17 
-5.91805 -2.11284 5.64378e-17 
-5.68891 -2.12914 1.32177e-16 
-5.46719 -2.11688 -3.7772e-17 
-5.25348 -2.13717 -1.12668e-16 
-5.03494 -2.1216 -8.19084e-16 
-4.81734 -2.1335 -2.93553e-15 
-4.598 -2.13629 -8.07316e-15 
-4.38458 -2.14149 -1.67131e-14 
-4.17608 -2.12377 -3.47257e-14 
-3.96463 -2.11762 1.31266e-23 
-3.75217 -2.1159 4.27323e-23 
-3.53787 -2.12938 1.43896e-22 
-3.32095 -2.12999 4.78674e-22 
-3.09901 -2.13625 1.47651e-21 
-2.87281 -2.12572 4.41166e-21 
-2.64368 -2.14368 1.32518e-20 
-2.40169 -2.15871 3.67612e-20 
-2.18088 -2.16325 9.4839e-20 
-1.929 -2.15996 2.60144e-19 
-1.70373 -2.12947 5.31425e-19 
-1.50716 -2.14057 1.12021e-18 
-1.27379 -2.10161 4.30238e-19 
-1.09339 -2.08215 3.59034e-19 
-0.984139 -2.22341 2.38005e-18 
-0.864295 -2.05495 -6.42154e-18 
-0.650823 -2.3779 -1.99521e-17 
-0.50726 -2.52188 -4.11497e-17 
-0.244041 -2.51748 -1.84127e-16 
0.078705 -2.58283 -2.8723e-17 
0.378914 -2.42542 6.17171e-17 
0.574435 -2.43043 1.02131e-16 
0.692383 -2.30238 -1.63687e-16 
0.850755 -2.12511 -4.69282e-18 
1.00609 -2.15175 -7.99892e-18 
1.15188 -2.06646 -1.01946e-19 
1.32937 -2.13959 -2.37825e-18 
1.54241 -2.16288 -1.15353e-18 
1.76504 -2.16465 -3.49043e-19 
2.00182 -2.19642 -1.70941e-19 
2.24641 -2.18003 -6.36052e-20 
2.48645 -2.13044 -2.31665e-20 
2.73081 -2.15347 -7.48542e-21 
2.96061 -2.13825 -2.61e-21 
3.19002 -2.12486 -7.67646e-22 
3.40628 -2.13014 -2.57439e-22 
3.62573 -2.11211 -9.16312e-23 
3.84233 -2.12777 -2.76961e-23 
4.04807 -2.13369 -1.31189e-23 
4.2725 -2.1207 3.00956e-14 
4.47731 -2.11601 1.34227e-14 
4.69651 -2.12046 4.6813e-15 
4.90736 -2.1215 1.87611e-15 
5.12804 -2.12906 4.43136e-16 
5.33914 -2.12945 1.13656e-16 
5.56303 -2.12588 -3.7587e-17 
5.78329 -2.13109 -5.64089e-18 
5.99676 -2.13233 -2.23456e-17 
6.23722 -2.13042 -4.64371e-17 
6.45141 -2.11631 1.52366e-17 
6.66507 -2.11614 1.8141e-17 
6.92432 -2.114 -4.8292e-16 
7.14 -2.14116 4.94213e-16 
7.37229 -2.17967 -2.42044e-16 
7.56752 -2.08465 4.72235e-16 
7.75328 -2.1822 9.28724e-16 
7.96635 -2.08297 4.35822e-23 
8.19579 -2.13997 -6.40232e-20 
8.48528 -2.10068 2.80815e-09 
-8.48528 -1.82271 1.15649e-08 
-8.2977 -1.88547 1.90977e-18 
-7.89452 -1.89076 -1.30408e-14 
[...]
POINT_DATA 1978 
VECTORS vectors float
-0.00593516 -0.00799672 0.999938 
0.000154836 -0.000658711 1 
-4.87371e-05 -0.000454054 1 
-1.9168e-05 -0.000354269 1 
-1.1716e-05 -0.000307862 1 
-7.85635e-06 -0.000277659 1 
-8.22356e-06 -0.000244015 1 
-9.51349e-06 -0.000207194 1 
-1.16521e-05 -0.000161053 1 
-1.4478e-05 -0.000102422 1 
-1.86872e-05 -2.98679e-05 1 
-2.19087e-05 6.53096e-05 1 
-2.57137e-05 0.000175372 1 
-3.26165e-05 0.000304326 1 
-4.02451e-05 0.000488838 1 
-5.15709e-05 0.000718389 1 
-6.4482e-05 0.0010349 1 
-8.46169e-05 0.00143427 0.999999 
-0.000111861 0.0019941 0.999998 
-0.000148951 0.00275885 0.999996 
-0.000198161 0.00383105 0.999993 
-0.000270283 0.00527068 0.999986 
-0.000372974 0.00734533 0.999973 
-0.000519246 0.010224 0.999948 
-0.000716303 0.014401 0.999896 
-0.000986793 0.0201606 0.999796 
-0.0013428 0.0283792 0.999596 
-0.00190273 0.0395337 0.999216 
-0.0025866 0.0557801 0.99844 
-0.00335022 0.079441 0.996834 
-0.00426894 0.106677 0.994284 
-0.0051562 0.14653 0.989192 
-0.00792529 0.198346 0.9801 
-0.00906254 0.245 0.969481 
-0.00996999 0.308689 0.951111 
-0.0133842 0.395771 0.918251 
-0.0167956 0.50665 0.861986 
-0.0163937 0.678558 0.734359 
-0.00957133 0.844052 0.536209 
0.00347446 0.953159 -0.302484 
0.0186168 0.824356 -0.565759 
0.0182536 0.609208 -0.792796 
0.0163161 0.504796 -0.863085 
0.0142782 0.41722 -0.908693 
0.0100729 0.316758 -0.948453 
0.00861836 0.246726 -0.969047 
0.00671208 0.189971 -0.981767 
0.00523668 0.141024 -0.989992 
0.00437443 0.103926 -0.994575 
0.0032485 0.0736226 -0.997281 
0.00229672 0.0530079 -0.998591 
0.00168305 0.0386774 -0.99925 
0.00131973 0.0279505 -0.999608 
0.000965534 0.0195828 -0.999808 
0.000685967 0.0139624 -0.999902 
0.000509453 0.0100469 -0.999949 
0.000360389 0.00712293 -0.999975 
0.000265031 0.00516163 -0.999987 
0.000196002 0.00370305 -0.999993 
0.000142179 0.00263173 -0.999997 
0.000104786 0.00192771 -0.999998 
7.78639e-05 0.00139522 -0.999999 
6.27589e-05 0.00101671 -1 
5.03111e-05 0.000707238 -1 
4.09689e-05 0.000471484 -1 
3.2101e-05 0.000285061 -1 
2.58583e-05 0.00015361 -1 
2.13759e-05 4.69564e-05 -1 
1.77483e-05 -4.32493e-05 -1 
1.45716e-05 -0.000112945 -1 
1.15403e-05 -0.000175396 -1 
8.92139e-06 -0.000220053 -1 
8.0212e-06 -0.000253137 -1 
7.90048e-06 -0.000287552 -1 
1.0158e-05 -0.0003193 -1 
1.79242e-05 -0.000359687 -1 
4.36048e-05 -0.000460792 -1 
-0.000468841 -0.000523123 -1 
0.00726758 -0.00970568 -0.999889 
-0.0357 -0.0339739 0.998763 
-0.00223931 -0.00249563 0.999995 
-0.000312109 -0.000617284 1 
-0.000118765 -0.000410601 1 
-5.55055e-05 -0.000322322 1 
-4.54252e-05 -0.000269013 1 
-4.92197e-05 -0.000227112 1 
-6.06118e-05 -0.000181314 1 
-7.73785e-05 -0.000126453 1 
-9.81383e-05 -6.03995e-05 1 
-0.000116582 2.18757e-05 1 
-0.000147444 0.000125221 1 
-0.000180492 0.000248052 1 
-0.000204211 0.000404251 1 
-0.000254977 0.000617448 1 
-0.000303216 0.000896374 1 
-0.000379507 0.00127255 0.999999 
-0.000464283 0.00177834 0.999998 
-0.000599323 0.00249595 0.999997 
-0.000787111 0.00348889 0.999994 
-0.00104681 0.00484432 0.999988 
-0.00135698 0.00667809 0.999977 
-0.00178091 0.00928008 0.999955 
-0.00231611 0.0129394 0.999914 
-0.00306187 0.0181696 0.99983 
-0.00394254 0.02531 0.999672 
-0.00505106 0.0354164 0.99936 
-0.00630876 0.0495726 0.998751 
-0.00835324 0.0708217 0.997454 
-0.0105389 0.0991037 0.995021 
-0.01304 0.135946 0.99063 
-0.0151367 0.188854 0.981889 
-0.0115184 0.236023 0.971679 
-0.0157481 0.290841 0.956642 
-0.0217435 0.369356 0.929034 
0.0225706 0.444756 0.895368 
-0.0205504 0.468613 0.883164 
-0.0191451 0.603791 0.796913 
0.002794 0.929831 0.368045 
-0.00533553 0.987139 -0.159778 
0.000378151 0.869342 -0.494211 
0.0216522 0.694707 -0.718968 
0.0155257 0.545406 -0.838028 
0.0076827 0.447932 -0.894035 
0.0174608 0.364742 -0.930945 
0.013247 0.291152 -0.956585 
0.0149664 0.229717 -0.973142 
0.0147579 0.170775 -0.985199 
0.0125222 0.124269 -0.99217 
0.00950356 0.0873673 -0.996131 
0.00704511 0.059847 -0.998183 
0.00561258 0.0421098 -0.999097 
0.00439576 0.0294864 -0.999556 
0.00324441 0.0205511 -0.999784 
0.00252567 0.0147188 -0.999889 
0.00192336 0.0104092 -0.999944 
0.00149859 0.00754541 -0.999971 
0.00111147 0.00538468 -0.999985 
0.000813398 0.00378933 -0.999993 
0.000650403 0.00276902 -0.999996 
0.000490482 0.00197051 -0.999998 
0.000401901 0.00143185 -0.999999 
0.000320917 0.00101177 -1 
0.000268331 0.000704116 -1 
0.000216988 0.000460704 -1 
0.000185812 0.000288096 -1 
0.000149725 0.000149869 -1 
0.000122191 4.0392e-05 -1 
0.00010636 -3.99165e-05 -1 
7.90946e-05 -0.000115466 -1 
6.58271e-05 -0.000171299 -1 
5.68332e-05 -0.000213804 -1 
4.2204e-05 -0.000258566 -1 
4.95065e-05 -0.000299615 -1 
7.12417e-05 -0.000353802 -1 
0.000139923 -0.000459191 -1 
0.00042167 -0.000759117 -1 
0.00320386 -0.00366405 -0.999988 
0.0478528 -0.0487854 -0.997598 
-0.0445464 -0.0460823 0.997923 
-0.00280833 -0.00321568 0.999991 
-0.000413831 -0.000737308 1 
-0.000167481 -0.000449547 1 
-0.000107962 -0.000355539 1 
-7.70454e-05 -0.000316778 1 
-6.29738e-05 -0.000251776 1 
-6.88693e-05 -0.000202616 1 
-8.1934e-05 -0.000149428 1 
-0.000102747 -8.55338e-05 1 
-0.000129466 -7.19891e-06 1 
-0.000157769 8.21391e-05 1 
-0.000190952 0.000195336 1 
-0.000227783 0.000343525 1 
-0.000266154 0.000521151 1 
-0.000316816 0.000780261 1 
-0.000376145 0.0011113 0.999999 
-0.000458163 0.00158488 0.999999 
-0.000566585 0.00222197 0.999997 
-0.000710459 0.00312599 0.999995 
-0.000883978 0.00433737 0.99999 
-0.00111296 0.00601847 0.999981 
-0.00141114 0.00827721 0.999965 
-0.00179342 0.0115114 0.999932 
-0.00224341 0.0159693 0.99987 
-0.00274212 0.0223979 0.999745 
-0.00331061 0.031003 0.999514 
-0.00396131 0.0436885 0.999037 
-0.00497078 0.0615171 0.998094 
-0.00418747 0.085158 0.996359 
-0.00278182 0.121123 0.992634 
-0.00125925 0.16256 0.986698 
0.0112 0.215164 0.976514 
0.022531 0.284706 0.95835 
0.012747 0.3535 0.935348 
0.0744328 0.459553 0.885026 
0.0184054 0.563537 0.825886 
-0.00135265 0.743613 0.668611 
0.0116083 0.881898 0.471299 
-0.00526176 0.985868 0.167415 
-0.0246068 0.923465 -0.382896 
-0.00754457 0.741305 -0.671126 
-0.0194567 0.572714 -0.819525 
-0.048834 0.457748 -0.88774 
-0.0246471 0.370564 -0.92848 
-0.0182001 0.286952 -0.957772 
-0.00797603 0.21781 -0.975959 
0.00208782 0.17169 -0.985149 
0.00248829 0.129452 -0.991582 
0.00524188 0.0949631 -0.995467 
0.00470199 0.0665324 -0.997773 
0.0035907 0.0457127 -0.998948 
0.00337984 0.0324401 -0.999468 
0.00272799 0.0227597 -0.999737 
0.0021613 0.0163432 -0.999864 
0.00182481 0.0117775 -0.999929 
0.00140664 0.00856273 -0.999962 
0.00111714 0.00621138 -0.99998 
0.000888774 0.0044727 -0.99999 
0.000692195 0.00327183 -0.999995 
0.00055711 0.00233592 -0.999997 
0.000457062 0.00170226 -0.999999 
0.000381757 0.00120859 -0.999999 
0.000323774 0.000857089 -1 
0.000274072 0.000583046 -1 
0.000234433 0.000387233 -1 
0.0001977 0.000230388 -1 
0.000164972 0.00010977 -1 
0.000138481 1.96455e-05 -1 
0.000110439 -6.5547e-05 -1 
8.96126e-05 -0.000128418 -1 
7.48955e-05 -0.000180115 -1 
6.31423e-05 -0.000234355 -1 
6.3209e-05 -0.000279299 -1 
9.15039e-05 -0.00034995 -1 
0.000164968 -0.000467057 -1 
0.000385293 -0.000750664 -1 
0.00296248 -0.00371569 -0.999989 
0.0374074 -0.0466006 -0.998161 
-0.0622415 -0.0683138 0.9957 
-0.00358147 -0.00431776 0.999985 
-0.000526331 -0.000926418 0.999999 
-0.000217949 -0.000525705 1 
-0.000102454 -0.000338688 1 
-7.41681e-05 -0.000273 1 
-7.39061e-05 -0.000211069 1 
-8.50539e-05 -0.00015007 1 
-0.000103779 -8.74361e-05 1 
-0.000130463 -9.95535e-06 1 
-0.000162274 8.06084e-05 1 
-0.000194891 0.00018128 1 
-0.00023076 0.000312375 1 
-0.00027145 0.000482303 1 
-0.000310565 0.000692825 1 
-0.000360543 0.000992115 1 
-0.000416899 0.00139522 0.999999 
-0.000490368 0.00195978 0.999998 
-0.000583664 0.00271638 0.999996 
-0.000692847 0.00373463 0.999993 
-0.000824795 0.00512428 0.999987 
-0.000975383 0.00700149 0.999975 
-0.00115403 0.00954771 0.999954 
-0.00131189 0.0130518 0.999914 
-0.00144355 0.0179366 0.999838 
-0.00138624 0.0246741 0.999695 
-0.00125325 0.0340865 0.999418 
-0.000714041 0.0479716 0.998849 
0.000520055 0.0653889 0.99786 
0.00370115 0.0930082 0.995659 
0.00999639 0.125613 0.992029 
0.017261 0.164128 0.986288 
0.0367343 0.221036 0.974574 
0.0590691 0.278337 0.958665 
0.0567872 0.35846 0.931817 
0.105185 0.357322 0.928039 
0.0595214 0.607491 0.792094 
0.0416363 0.756891 0.652214 
0.0271124 0.935742 0.351643 
-0.00888769 0.996287 -0.085638 
-0.0608592 0.815296 -0.575837 
-0.0560743 0.665479 -0.744309 
-0.0799388 0.552334 -0.829784 
-0.0870737 0.384931 -0.918829 
-0.0575241 0.324769 -0.944042 
-0.0514339 0.253434 -0.965984 
-0.0291454 0.213142 -0.976586 
-0.0150495 0.159408 -0.987098 
-0.00753746 0.11619 -0.993199 
-0.00207697 0.0841935 -0.996447 
-0.000201307 0.0592883 -0.998241 
0.000473327 0.0417826 -0.999127 
0.00129967 0.0297808 -0.999556 
0.00134137 0.0214269 -0.99977 
0.00130629 0.0154308 -0.99988 
0.00122067 0.0113207 -0.999935 
0.00102562 0.00824057 -0.999966 
0.00086594 0.00600723 -0.999982 
0.000724573 0.00443305 -0.99999 
0.000593499 0.00316242 -0.999995 
0.000504615 0.00231416 -0.999997 
0.000431392 0.00164866 -0.999999 
0.000375883 0.00118518 -0.999999 
0.000326165 0.000829901 -1 
0.000284445 0.000581085 -1 
0.000244085 0.000384202 -1 
0.000206922 0.000235808 -1 
0.000174461 0.000123485 -1 
0.000141599 2.1297e-05 -1 
0.00011659 -5.29213e-05 -1 
9.50757e-05 -0.000118201 -1 
7.68026e-05 -0.000186279 -1 
6.99018e-05 -0.000239045 -1 
7.65921e-05 -0.000298376 -1 
0.00011002 -0.000375423 -1 
0.000175537 -0.00048779 -1 
0.000376336 -0.000796607 -1 
0.00186747 -0.00267912 -0.999995 
0.0446806 -0.0565082 -0.997349 
-0.0716194 -0.105295 0.991841 
-0.00583252 -0.00846226 0.999948 
-0.000312693 -0.00072027 1 
-0.000161528 -0.000458182 1 
-9.40315e-05 -0.000320036 1 
-7.84402e-05 -0.000259135 1 
-7.80368e-05 -0.000222344 1 
-8.25759e-05 -0.000171275 1 
-0.000100521 -0.000101235 1 
-0.000125199 -2.8217e-05 1 
-0.0001562 5.71612e-05 1 
-0.000190885 0.000155577 1 
-0.00022838 0.000270985 1 
-0.000268429 0.000416244 1 
-0.000312712 0.000614079 1 
-0.000354097 0.00085474 1 
-0.000402921 0.00121312 0.999999 
-0.000455488 0.00169306 0.999999 
-0.000515731 0.00235733 0.999997 
-0.000578225 0.00321674 0.999995 
-0.000646959 0.00440143 0.99999 
-0.00071865 0.00598865 0.999982 
-0.000790932 0.00813663 0.999967 
-0.000835018 0.0109563 0.99994 
-0.000796265 0.0148832 0.999889 
-0.000583958 0.0201473 0.999797 
-3.92679e-05 0.0276956 0.999617 
0.000859326 0.0382036 0.99927 
0.00296631 0.0518885 0.998649 
0.00606505 0.0722109 0.997371 
0.0130501 0.0968434 0.995214 
0.0243177 0.125246 0.991828 
0.0370076 0.166804 0.985295 
0.0673245 0.202804 0.976902 
0.0985426 0.26501 0.959197 
0.155785 0.31279 0.93696 
0.122288 0.495923 0.859713 
0.113199 0.654421 0.747609 
0.0863649 0.828174 0.553777 
0.00717085 0.992055 0.125604 
-0.0625073 0.929572 -0.363307 
-0.124852 0.652478 -0.747452 
-0.117198 0.473889 -0.872752 
-0.136177 0.326265 -0.935418 
-0.0953545 0.269501 -0.958268 
-0.07551 0.200881 -0.976701 
-0.0462322 0.178663 -0.982824 
-0.0283078 0.1469 -0.988746 
-0.0169737 0.112404 -0.993518 
-0.00858885 0.0832757 -0.99649 
-0.00432404 0.0606815 -0.998148 
-0.00213465 0.0435366 -0.99905 
-0.000342486 0.0310415 -0.999518 
0.000334777 0.0226835 -0.999743 
0.000654934 0.0165332 -0.999863 
0.000774715 0.0120932 -0.999927 
0.000765819 0.00900269 -0.999959 
0.000700851 0.00658493 -0.999978 
0.000619462 0.0048725 -0.999988 
0.000559594 0.00359105 -0.999994 
0.000490087 0.0025888 -0.999997 
0.0004466 0.00187857 -0.999998 
0.000401215 0.001351 -0.999999 
0.000359249 0.000967997 -1 
0.00031805 0.000689076 -1 
0.00027716 0.000481322 -1 
0.000236163 0.000316462 -1 
0.000199739 0.000191666 -1 
0.000164599 8.39263e-05 -1 
0.00013469 -7.61217e-07 -1 
0.000109036 -7.50341e-05 -1 
8.79248e-05 -0.000146308 -1 
7.5298e-05 -0.00021258 -1 
7.73461e-05 -0.000277497 -1 
0.000106434 -0.000372629 -1 
0.00020953 -0.000575254 -1 
0.000538166 -0.00114686 -0.999999 
0.00403513 -0.00620318 -0.999973 
0.0558203 -0.0867938 -0.994607 
-0.0461033 -0.104198 0.993472 
-0.00434644 -0.00905264 0.99995 
-0.000769888 -0.00146106 0.999999 
-0.00028523 -0.000787036 1 
-0.000145272 -0.000472927 1 
-7.62913e-05 -0.000262282 1 
-7.93915e-05 -0.00017382 1 
-9.14311e-05 -0.000120148 1 
-0.00011635 -3.62418e-05 1 
-0.000143003 4.21538e-05 1 
-0.000174168 0.000135823 1 
-0.000212237 0.000248211 1 
-0.000249816 0.000375958 1 
-0.000289504 0.000540923 1 
-0.000327525 0.000762026 1 
-0.000366106 0.00104013 1 
-0.000402892 0.00144554 0.999999 
-0.000436349 0.00198258 0.999998 
-0.000455481 0.00268684 0.999996 
-0.000468223 0.00363824 0.999993 
-0.000464524 0.00491956 0.999988 
-0.000444105 0.00662088 0.999978 
-0.000379646 0.00881285 0.999961 
-0.000258363 0.0117375 0.999931 
5.14656e-05 0.0155962 0.999878 
0.000605666 0.0209548 0.99978 
0.00170711 0.0283805 0.999596 
0.00343867 0.0378467 0.999278 
0.00689765 0.052031 0.998622 
0.0120195 0.0695221 0.997508 
0.0222089 0.0893207 0.995755 
0.0387746 0.116259 0.992462 
0.0581937 0.146427 0.987508 
0.0925075 0.152727 0.983929 
0.119168 0.204112 0.971667 
0.17876 0.231781 0.956202 
0.176392 0.433947 0.883502 
0.18746 0.613946 0.766765 
0.0686296 0.953447 0.293644 
-0.00892417 0.999891 -0.011787 
-0.136504 0.847725 -0.512569 
-0.055231 0.494536 -0.867402 
-0.192838 0.444912 -0.874566 
-0.182332 0.278992 -0.942825 
-0.126803 0.210653 -0.969302 
-0.0904965 0.153744 -0.983958 
-0.0553455 0.137007 -0.989023 
-0.0350389 0.113988 -0.992864 
-0.0200672 0.0897254 -0.995765 
-0.0116536 0.0685393 -0.99758 
-0.00680059 0.0508072 -0.998685 
-0.00318289 0.0358816 -0.999351 
-0.00149521 0.026503 -0.999648 
-0.000537534 0.0195699 -0.999808 
-2.2861e-05 0.0144708 -0.999895 
0.00022326 0.0108354 -0.999941 
0.000374814 0.00806503 -0.999968 
0.000396961 0.00602987 -0.999982 
0.000406331 0.00447212 -0.99999 
0.000419533 0.003308 -0.999995 
0.000402942 0.00237652 -0.999997 
0.000393183 0.00174078 -0.999999 
0.000367149 0.00125731 -0.999999 
0.00033788 0.000918453 -1 
0.000301808 0.000664893 -1 
0.000265127 0.000468397 -1 
0.000226894 0.000318176 -1 
0.000190785 0.00019207 -1 
0.000159276 9.24631e-05 -1 
0.0001282 6.65735e-06 -1 
0.000102109 -7.58447e-05 -1 
8.36131e-05 -0.000150461 -1 
7.20582e-05 -0.000209651 -1 
7.55856e-05 -0.000277931 -1 
0.000102836 -0.000396838 -1 
0.000200262 -0.000622114 -1 
0.000439659 -0.00118611 -0.999999 
0.00330956 -0.00663093 -0.999973 
0.0413272 -0.0903545 -0.995003 
-0.0300671 -0.100657 0.994452 
-0.00183601 -0.00623237 0.999979 
-0.00054586 -0.00145275 0.999999 
-0.000163866 -0.000648906 1 
-9.35157e-05 -0.000377404 1 
-6.49411e-05 -0.000271081 1 
-6.99224e-05 -0.000194068 1 
-8.03875e-05 -0.000114406 1 
-0.000100075 -5.6534e-05 1 
-0.00012303 3.03455e-05 1 
-0.000149056 0.000113821 1 
-0.00018335 0.00022164 1 
-0.000216787 0.000345025 1 
-0.000251259 0.000488778 1 
-0.000283271 0.000673861 1 
-0.000311824 0.000930954 1 
-0.000338883 0.00125188 0.999999 
-0.000351094 0.00171088 0.999999 
-0.000344102 0.00229574 0.999997 
-0.000316509 0.00309433 0.999995 
-0.000260573 0.00416605 0.999991 
-0.000160875 0.00559189 0.999984 
-9.11925e-07 0.00740376 0.999973 
0.000237321 0.00978142 0.999952 
0.000638796 0.0128299 0.999918 
0.0013251 0.0170123 0.999855 
0.0024738 0.0226691 0.99974 
0.00456075 0.0299692 0.999541 
0.00758759 0.0402876 0.999159 
0.0136246 0.0533976 0.998481 
0.0222992 0.0679795 0.997438 
0.0383394 0.0874511 0.995431 
0.0638069 0.105048 0.992418 
0.0996417 0.104539 0.989517 
0.146714 0.140057 0.979214 
0.220126 0.16874 0.960766 
0.24606 0.349733 0.903959 
0.275302 0.530851 0.801502 
0.169257 0.807239 0.565435 
-0.0642148 0.982336 -0.17576 
-0.174931 0.622965 -0.762439 
-0.257219 0.623332 -0.738442 
-0.26208 0.390184 -0.88265 
-0.218055 0.213557 -0.952284 
-0.145173 0.151166 -0.977791 
-0.0978034 0.105837 -0.989562 
-0.0629098 0.104201 -0.992565 
-0.0401043 0.0866933 -0.995428 
-0.0254015 0.0747512 -0.996878 
-0.015813 0.0582154 -0.998179 
-0.0102231 0.0441717 -0.998972 
-0.00573371 0.0347204 -0.999381 
-0.0032758 0.0248831 -0.999685 
-0.00180477 0.0188685 -0.99982 
-0.000934869 0.014224 -0.999899 
-0.000453306 0.0107078 -0.999943 
-0.000106522 0.00818997 -0.999967 
4.63309e-05 0.00618902 -0.999981 
0.000157085 0.00464959 -0.999989 
0.000243755 0.00345193 -0.999994 
0.000294972 0.00257526 -0.999997 
0.000315499 0.00185065 -0.999998 
0.000319538 0.00137572 -0.999999 
0.000303814 0.0010082 -1 
0.000280306 0.000750398 -1 
0.000251224 0.000541163 -1 
0.000219419 0.000384707 -1 
0.000187197 0.000250303 -1 
0.000155854 0.000141141 -1 
0.00012831 5.28179e-05 -1 
0.00010067 -3.88667e-05 -1 
8.02415e-05 -0.000123503 -1 
6.47391e-05 -0.000201742 -1 
6.76538e-05 -0.000294324 -1 
8.41415e-05 -0.000421876 -1 
0.000161059 -0.000645327 -1 
0.000303491 -0.00117682 -0.999999 
0.00193777 -0.00566556 -0.999982 
0.0328981 -0.10223 -0.994169 
-0.0140585 -0.107092 0.994136 
-0.001048 -0.00736828 0.999972 
-0.000294938 -0.00119233 0.999999 
-0.000101217 -0.000685414 1 
-7.61614e-05 -0.000420689 1 
-4.94684e-05 -0.000269319 1 
-5.99034e-05 -0.00017628 1 
-7.26147e-05 -9.07886e-05 1 
-9.54961e-05 -1.64784e-05 1 
-0.000113769 7.01951e-05 1 
-0.000143271 0.000163871 1 
-0.000171111 0.000273564 1 
-0.000197992 0.000400871 1 
-0.000225631 0.00054958 1 
-0.000252185 0.000749196 1 
-0.000265201 0.00100501 1 
-0.000280009 0.0013393 0.999999 
-0.000265775 0.00176882 0.999999 
-0.000232165 0.00235152 0.999998 
-0.000164918 0.00314802 0.999995 
-4.98657e-05 0.00422024 0.999991 
0.000134486 0.00556234 0.999985 
0.000399686 0.00730138 0.999973 
0.000777311 0.00947811 0.999955 
0.00136307 0.0123642 0.999923 
0.00231752 0.0161664 0.999867 
0.00384575 0.0211281 0.999769 
0.00637659 0.0270372 0.999614 
0.010255 0.0362253 0.999291 
0.0167876 0.0445604 0.998866 
0.0276097 0.0580109 0.997934 
0.04444 0.0691124 0.996619 
0.0677032 0.0716249 0.995131 
0.102208 0.0583994 0.993047 
0.150827 0.0787197 0.985421 
0.232663 0.0944388 0.967961 
0.305606 0.264255 0.914754 
0.406335 0.436289 0.802835 
0.290461 0.772712 0.564401 
0.0680412 0.987687 0.140875 
-0.242038 0.858055 -0.452946 
-0.394338 0.531869 -0.749409 
-0.323451 0.304536 -0.8959 
-0.238538 0.131774 -0.962151 
-0.154261 0.0906375 -0.983864 
-0.0998109 0.0619175 -0.993078 
-0.0642088 0.0715567 -0.995368 
-0.0426079 0.0647433 -0.996992 
-0.0268552 0.0565597 -0.998038 
-0.0171748 0.044756 -0.99885 
-0.010425 0.034149 -0.999362 
-0.00626244 0.0275671 -0.9996 
-0.00378301 0.0201359 -0.99979 
-0.00225153 0.0154891 -0.999878 
-0.00133793 0.0118387 -0.999929 
-0.000758528 0.00899278 -0.999959 
-0.000396733 0.00696181 -0.999976 
-0.000168687 0.00527088 -0.999986 
5.00168e-06 0.00396728 -0.999992 
0.000121607 0.0029804 -0.999996 
0.000211648 0.00222185 -0.999998 
0.000239987 0.00163581 -0.999999 
0.000256737 0.00122973 -0.999999 
0.000246761 0.000928173 -1 
0.000232548 0.000691039 -1 
0.000208994 0.000511621 -1 
0.000184493 0.000359424 -1 
0.00015793 0.000237582 -1 
0.000131409 0.000138955 -1 
0.000107507 3.98451e-05 -1 
8.44185e-05 -4.22047e-05 -1 
7.01142e-05 -0.000116524 -1 
5.39642e-05 -0.000179939 -1 
5.12041e-05 -0.000262699 -1 
5.3384e-05 -0.000387944 -1 
0.000106554 -0.000684762 -1 
0.00020626 -0.00142077 -0.999999 
0.00166223 -0.008501 -0.999963 
0.0149021 -0.110542 -0.993712 
0.00348542 -0.0971513 0.995248 
0.000181733 -0.00651346 0.999979 
-0.000158696 -0.00139926 0.999999 
-3.16287e-05 -0.000670943 1 
-3.99601e-05 -0.000390305 1 
-3.10034e-05 -0.000249167 1 
-4.69994e-05 -0.000169706 1 
-5.77196e-05 -8.81232e-05 1 
-8.01341e-05 -5.21629e-06 1 
-9.88164e-05 9.08214e-05 1 
-0.000124333 0.000188823 1 
-0.000145972 0.00029849 1 
-0.000165401 0.000423864 1 
-0.000186816 0.000570692 1 
-0.000206427 0.000751638 1 
-0.000209181 0.000979565 1 
-0.000213501 0.00128499 0.999999 
-0.000190969 0.00167433 0.999999 
-0.000147667 0.00221919 0.999997 
-6.31776e-05 0.00294883 0.999996 
7.94819e-05 0.00390197 0.999993 
0.00029942 0.00513031 0.999987 
0.0006028 0.00664595 0.999978 