# vtk DataFile Version 3.0 
Exported using Morpho https://github.com/Morpho-lang/morpho 
ASCII 
DATASET UNSTRUCTURED_GRID 

POINTS 1978 float 
-8.48528 -2.82843 1.7589e-13 
-8.25945 -2.82843 4.29124e-15 
-8.03808 -2.82843 7.46537e-16 
-7.79061 -2.82843 4.60002e-16 
-7.4997 -2.82843 3.26727e-16 
-7.25307 -2.82843 5.59048e-17 
-7.0115 -2.82843 1.33303e-16 
-6.78621 -2.82843 1.08831e-16 
-6.56604 -2.82843 2.57606e-18 
-6.35114 -2.82843 -5.08059e-17 
-6.14374 -2.82843 -1.94827e-16 
-5.91888 -2.82843 -8.6242e-17 
-5.7087 -2.82843 -2.1478e-16 
-5.5099 -2.82843 -2.4952e-16 
-5.28895 -2.82843 4.9352e-18 
-5.08301 -2.82843 1.12466e-16 
-4.86693 -2.82843 1.20409e-16 
-4.6604 -2.82843 -2.66767e-16 
-4.44351 -2.82843 -8.00951e-16 
-4.22908 -2.82843 -1.64605e-15 
-4.01665 -2.82843 -1.63574e-15 
-3.81456 -2.82843 -7.99825e-16 
-3.60529 -2.82843 1.07563e-15 
-3.39476 -2.82843 4.59536e-15 
-3.17446 -2.82843 2.03728e-14 
-2.95848 -2.82843 6.49819e-14 
-2.73509 -2.82843 1.74557e-13 
-2.5159 -2.82843 4.6411e-13 
-2.2834 -2.82843 1.359e-12 
-2.0475 -2.82843 3.27375e-12 
-1.85515 -2.82843 7.73741e-12 
-1.64873 -2.82843 2.17114e-11 
-1.47748 -2.82843 3.3942e-11 
-1.32221 -2.82843 5.02569e-11 
-1.17658 -2.82843 1.22696e-10 
-1.00872 -2.82843 2.71548e-10 
-0.846779 -2.82843 7.26482e-10 
-0.631118 -2.82843 1.94892e-09 
-0.40724 -2.82843 -2.29935e-09 
0.245304 -2.82843 -2.4485e-09 
0.441625 -2.82843 -1.65597e-09 
0.69449 -2.82843 -1.5076e-09 
0.852922 -2.82843 -3.09325e-10 
0.975902 -2.82843 -1.41334e-10 
1.15407 -2.82843 -1.35485e-10 
1.30709 -2.82843 -8.43877e-11 
1.47916 -2.82843 -3.97267e-11 
1.678 -2.82843 -1.89473e-11 
1.87623 -2.82843 -8.00427e-12 
2.1015 -2.82843 -3.21648e-12 
2.31565 -2.82843 -1.07452e-12 
2.52321 -2.82843 -4.12284e-13 
2.73555 -2.82843 -2.59086e-13 
2.95791 -2.82843 1.45775e-14 
3.18462 -2.82843 -1.53104e-14 
3.39775 -2.82843 -3.25273e-15 
3.61619 -2.82843 -5.16921e-17 
3.82003 -2.82843 -6.07945e-17 
4.03084 -2.82843 1.23993e-15 
4.25048 -2.82843 1.81666e-15 
4.44998 -2.82843 1.05401e-15 
4.66434 -2.82843 1.36678e-16 
4.86692 -2.82843 -3.08326e-16 
5.07996 -2.82843 -1.96622e-16 
5.28805 -2.82843 4.71488e-17 
5.50548 -2.82843 3.25707e-16 
5.71084 -2.82843 2.76101e-16 
5.92852 -2.82843 1.28933e-16 
6.15119 -2.82843 7.77433e-17 
6.3538 -2.82843 2.40185e-17 
6.58849 -2.82843 2.44522e-17 
6.80431 -2.82843 -1.4527e-17 
7.00557 -2.82843 -1.64931e-16 
7.2723 -2.82843 -1.12693e-16 
7.50497 -2.82843 -1.96469e-16 
7.74542 -2.82843 -4.79642e-16 
8.02622 -2.82843 -8.02377e-16 
8.21305 -2.82843 1.32616e-14 
8.48528 -2.82843 -2.26212e-11 
-8.48528 -2.59122 -1.81627e-12 
-8.2547 -2.58969 -1.03654e-17 
-8.02574 -2.58956 3.03057e-17 
-7.79058 -2.61216 -4.97081e-18 
-7.54317 -2.64382 -1.03344e-18 
-7.25054 -2.60835 -1.32096e-19 
-6.99687 -2.60503 8.15978e-20 
-6.77532 -2.59335 1.99605e-19 
-6.54221 -2.59573 -4.11112e-19 
-6.32527 -2.58447 -4.66301e-19 
-6.09426 -2.6052 -3.24279e-19 
-5.87541 -2.58881 -5.43419e-19 
-5.66646 -2.57499 -1.1791e-18 
-5.44562 -2.60206 -1.84491e-18 
-5.22987 -2.58554 -4.57315e-18 
-5.01154 -2.59729 -1.02417e-17 
-4.79751 -2.5872 -2.55774e-17 
-4.58002 -2.59926 -6.15351e-18 
-4.36031 -2.59766 -1.66034e-17 
-4.14346 -2.59613 -4.46922e-17 
-3.93442 -2.58411 -1.17529e-16 
-3.72508 -2.59097 -3.03588e-16 
-3.51133 -2.59048 3.12564e-19 
-3.29223 -2.59856 8.43667e-19 
-3.0699 -2.59041 2.23232e-18 
-2.84707 -2.59783 5.96448e-18 
-2.61936 -2.59277 1.56278e-17 
-2.38772 -2.60922 4.40902e-17 
-2.14076 -2.61594 1.27777e-16 
-1.91218 -2.58086 3.19117e-16 
-1.70236 -2.60477 7.98567e-16 
-1.50826 -2.59335 1.6449e-15 
-1.36773 -2.53365 2.20965e-15 
-1.2282 -2.57485 5.04474e-15 
-1.07511 -2.63547 1.27449e-14 
-0.884341 -2.44864 1.40072e-14 
-0.912378 -2.6294 1.94829e-14 
-0.731058 -2.68711 4.89831e-14 
-0.233164 -2.77898 -2.16244e-13 
0.114288 -2.70842 3.79598e-14 
0.346772 -2.69197 -5.85293e-14 
0.600914 -2.70843 -7.7166e-14 
0.826523 -2.65516 -3.11663e-14 
0.915815 -2.51487 -3.49933e-15 
1.03834 -2.65738 -8.44337e-15 
1.18654 -2.56443 -5.02771e-15 
1.37523 -2.59768 -2.95798e-15 
1.58016 -2.62094 -1.47266e-15 
1.78881 -2.60218 -6.58675e-16 
2.02043 -2.62332 -2.38096e-16 
2.26523 -2.60104 -7.93885e-17 
2.4968 -2.59342 -2.7606e-17 
2.73137 -2.59233 -1.17339e-17 
2.96534 -2.59646 -1.50014e-18 
3.1917 -2.59027 -1.17564e-18 
3.42134 -2.59869 -4.42501e-19 
3.63488 -2.58482 3.0158e-14 
3.85137 -2.59391 1.55268e-16 
4.07553 -2.60396 5.51012e-17 
4.2837 -2.58109 2.14958e-17 
4.49938 -2.59822 8.6288e-18 
4.70906 -2.58386 3.29756e-17 
4.92467 -2.59603 1.36038e-17 
5.13884 -2.58989 6.09493e-18 
5.3593 -2.60015 2.39295e-18 
5.5736 -2.58551 1.5906e-18 
5.79202 -2.59793 6.34529e-19 
6.01846 -2.60107 3.79566e-19 
6.23484 -2.57585 6.17839e-19 
6.4572 -2.6079 5.65545e-20 
6.68521 -2.58592 2.78168e-19 
6.89635 -2.56558 1.95172e-19 
7.12776 -2.62901 -2.57798e-19 
7.37915 -2.59648 3.70649e-19 
7.61414 -2.6044 9.25888e-19 
7.87505 -2.63655 3.80181e-18 
8.08212 -2.53915 2.22564e-18 
8.30297 -2.62706 4.22358e-17 
8.48528 -2.53019 1.23724e-10 
-8.48528 -2.34434 5.04276e-12 
-8.24913 -2.35174 -2.2394e-17 
-8.00682 -2.35576 1.34965e-16 
-7.76984 -2.38989 2.28347e-18 
-7.57176 -2.24021 -2.31332e-18 
-7.48976 -2.45486 1.60057e-18 
-7.19509 -2.40737 2.7276e-19 
-6.96921 -2.3581 -1.35807e-19 
-6.72512 -2.37546 -1.09185e-19 
-6.50001 -2.35484 1.10068e-20 
-6.25809 -2.36864 1.9794e-22 
-6.03953 -2.36525 -8.68609e-20 
-5.82212 -2.34278 -1.92962e-19 
-5.58817 -2.35461 -3.13899e-19 
-5.37453 -2.36229 -5.95023e-19 
-5.14487 -2.35967 -1.01163e-18 
-4.92946 -2.35829 -2.07814e-18 
-4.7042 -2.36222 -6.85076e-18 
-4.48457 -2.3716 -1.79254e-17 
-4.26327 -2.36754 -3.88859e-17 
-4.05119 -2.35289 -8.0333e-18 
-3.83566 -2.34946 -1.8488e-17 
-3.62248 -2.35674 -5.65581e-17 
-3.40092 -2.36318 -2.19266e-16 
-3.18087 -2.36437 -3.01052e-14 
-2.95149 -2.36012 4.42011e-19 
-2.7283 -2.36577 1.36133e-18 
-2.49194 -2.37303 4.94555e-18 
-2.25662 -2.40133 1.67172e-17 
-2.02848 -2.37341 2.56884e-17 
-1.79006 -2.3646 5.00723e-17 
-1.59523 -2.36126 -6.84007e-17 
-1.38623 -2.32504 -3.06131e-16 
-1.19109 -2.3141 -7.8993e-16 
-1.05915 -2.42567 -1.29646e-15 
-0.817374 -2.28055 -1.29483e-14 
-0.711803 -2.53044 -6.59104e-15 
-0.529687 -2.69196 5.46716e-14 
-0.353017 -2.63935 6.52941e-14 
-0.111405 -2.7331 2.36449e-14 
0.296821 -2.56078 -7.4291e-14 
0.506764 -2.58028 -4.25917e-14 
0.714156 -2.53727 -4.06043e-15 
0.837334 -2.35193 1.78331e-15 
1.03042 -2.37313 -1.69146e-15 
1.19606 -2.32402 1.96922e-16 
1.37425 -2.36414 8.72197e-17 
1.55899 -2.39892 -1.16056e-16 
1.75307 -2.37962 7.57943e-18 
1.97184 -2.41027 -2.76614e-17 
2.20381 -2.39769 -1.50394e-17 
2.44916 -2.36364 -3.67321e-18 
2.67986 -2.36759 -1.39725e-18 
2.92043 -2.3703 -5.47287e-19 
3.14953 -2.35663 3.43589e-14 
3.37238 -2.36842 3.32141e-16 
3.58911 -2.34689 8.90181e-17 
3.80209 -2.35695 3.0051e-17 
4.01616 -2.37563 1.79558e-17 
4.22569 -2.34634 6.86614e-18 
4.44165 -2.36036 1.44302e-17 
4.64757 -2.34835 6.66429e-18 
4.86336 -2.35936 2.66741e-18 
5.07438 -2.35582 1.33241e-18 
5.29281 -2.36832 6.22169e-19 
5.50646 -2.35343 3.91928e-19 
5.72732 -2.36098 1.60833e-19 
5.94628 -2.37337 5.93182e-20 
6.16465 -2.34648 2.61579e-20 
6.39778 -2.36358 9.28841e-21 
6.61159 -2.36226 -2.02535e-20 
6.83531 -2.31979 -2.25339e-20 
7.06853 -2.38078 -2.35562e-20 
7.28892 -2.39527 -7.09762e-19 
7.54752 -2.36869 -2.96224e-19 
7.78736 -2.41784 -6.88156e-18 
8.0011 -2.32262 -1.3951e-17 
8.26133 -2.35894 -5.3722e-17 
8.48528 -2.28398 -1.17362e-10 
-8.48528 -2.1124 1.725e-11 
-8.24275 -2.12025 -5.04359e-17 
-8.04043 -2.0912 -3.4286e-16 
-7.81281 -2.14859 2.79369e-18 
-7.4954 -2.03642 4.14789e-18 
-7.31426 -2.24311 -3.91436e-19 
-7.06859 -2.13863 3.47204e-19 
-6.81232 -2.14968 -1.89591e-19 
-6.592 -2.12877 5.21468e-20 
-6.35214 -2.14548 5.5001e-20 
-6.12879 -2.12501 1.00695e-20 
-5.91857 -2.11271 -4.51252e-20 
-5.68941 -2.12887 -1.01536e-19 
-5.46761 -2.11702 2.78361e-20 
-5.25363 -2.13715 2.05122e-19 
-5.03475 -2.12172 7.52548e-19 
-4.81724 -2.13359 2.52379e-18 
-4.59782 -2.13619 6.67604e-18 
-4.38453 -2.14138 1.43593e-17 
-4.1759 -2.1237 2.99743e-17 
-3.96438 -2.11745 1.24377e-17 
-3.75163 -2.11615 4.02817e-17 
-3.53709 -2.12967 1.31611e-16 
-3.32015 -2.1301 4.37781e-16 
-3.09782 -2.13603 4.64051e-14 
-2.87172 -2.12572 -7.35262e-19 
-2.64281 -2.14431 -2.20667e-18 
-2.4006 -2.15845 -6.11135e-18 
-2.17865 -2.16441 -1.50611e-17 
-1.92817 -2.16107 -4.2695e-17 
-1.70444 -2.12417 -1.04364e-16 
-1.50333 -2.13672 -2.10383e-16 
-1.27746 -2.10534 -1.8344e-16 
-1.09647 -2.07769 -2.70303e-16 
-0.992007 -2.22739 -2.74959e-16 
-0.867629 -2.06404 6.10234e-16 
-0.656953 -2.37257 1.48753e-14 
-0.51763 -2.52618 3.18669e-14 
-0.230803 -2.52839 3.58006e-14 
0.0970386 -2.57215 -1.36541e-14 
0.376912 -2.42476 -8.05726e-15 
0.576784 -2.43214 -2.21808e-14 
0.694382 -2.2964 1.61864e-14 
0.856617 -2.126 -3.52755e-15 
1.00844 -2.15875 8.19255e-16 
1.15247 -2.06598 2.23796e-16 
1.33643 -2.13494 2.84193e-16 
1.54074 -2.16122 1.50205e-16 
1.76706 -2.169 6.89368e-17 
2.0033 -2.19122 3.07363e-17 
2.24351 -2.17898 1.13825e-17 
2.48293 -2.1314 3.5649e-18 
2.72932 -2.15098 1.1293e-18 
2.9597 -2.1381 4.35843e-19 
3.1887 -2.12556 -6.63518e-16 
3.4057 -2.13025 -2.21605e-16 
3.62532 -2.1127 -7.86423e-17 
3.84198 -2.12756 -2.51443e-17 
4.04808 -2.13385 -1.1443e-17 
4.27235 -2.12073 -2.5964e-17 
4.47717 -2.11599 -1.15258e-17 
4.69642 -2.12048 -4.04968e-18 
4.90719 -2.12146 -1.62035e-18 
5.12783 -2.12899 -4.47688e-19 
5.33887 -2.1293 -1.01391e-19 
5.56268 -2.12578 2.68886e-20 
5.78295 -2.13084 4.72701e-21 
5.99666 -2.13242 1.63476e-20 
6.23672 -2.13015 3.47165e-20 
6.45115 -2.11646 -1.16488e-20 
6.66489 -2.11579 -1.44477e-20 
6.92402 -2.11401 3.6166e-19 
7.13925 -2.1413 -3.72304e-19 
7.37232 -2.17847 1.34444e-19 
7.56899 -2.08481 -3.31787e-19 
7.75384 -2.18306 -6.49421e-19 
7.96459 -2.08177 -1.18e-18 
8.19368 -2.14002 5.01665e-18 
8.48528 -2.10076 -1.59626e-10 
-8.48528 -1.82241 -4.83035e-11 
-8.30505 -1.8849 -3.77962e-16 
-7.89094 -1.8889 8.82584e-18 
-7.67404 -1.92228 -1.42599e-18 
[...]
POINT_DATA 1978 
VECTORS vectors float
-0.00215367 -0.00787575 0.999967 
0.000935246 -0.000729969 0.999999 
-0.000195767 -0.000468059 1 
4.0677e-05 -0.000355246 1 
-3.8299e-07 -0.000307999 1 
1.18811e-06 -0.000277329 1 
7.72642e-07 -0.000243524 1 
7.70004e-07 -0.000206539 1 
8.26176e-07 -0.000160289 1 
9.36909e-07 -0.00010161 1 
1.19473e-06 -2.90647e-05 1 
1.60418e-06 6.61949e-05 1 
1.4202e-06 0.000176322 1 
1.98191e-06 0.000305515 1 
2.81465e-06 0.000490374 1 
3.14918e-06 0.000720244 1 
4.31697e-06 0.00103731 0.999999 
5.45528e-06 0.00143761 0.999999 
7.96574e-06 0.00199914 0.999998 
1.0186e-05 0.00276632 0.999996 
1.21054e-05 0.00384128 0.999993 
1.60695e-05 0.00528409 0.999986 
2.40701e-05 0.0073626 0.999973 
3.70478e-05 0.0102469 0.999947 
5.28998e-05 0.0144317 0.999896 
7.3398e-05 0.0201983 0.999796 
0.000106537 0.0284262 0.999596 
0.000145833 0.039592 0.999216 
0.000240475 0.055862 0.998438 
0.000216168 0.0795368 0.996832 
0.000185517 0.106781 0.994283 
0.00031572 0.146744 0.989174 
-0.000120404 0.198276 0.980146 
-0.000260392 0.245341 0.969437 
2.73605e-05 0.308918 0.951089 
-8.23967e-05 0.396213 0.918159 
0.000562269 0.507128 0.861871 
0.00106351 0.678637 0.734473 
0.00438052 0.842864 0.538109 
0.00219364 0.953146 -0.302503 
-0.000182426 0.824053 -0.566512 
-0.00139977 0.60977 -0.792577 
0.00117131 0.504759 -0.86326 
0.00065465 0.417514 -0.90867 
-0.000424664 0.316865 -0.948471 
0.000216791 0.247075 -0.968996 
-0.000283757 0.19022 -0.981742 
-0.000275081 0.141205 -0.98998 
-0.000248886 0.104082 -0.994569 
-0.000255455 0.0737394 -0.997278 
-0.000145624 0.0530884 -0.99859 
-0.000110807 0.0387328 -0.99925 
-8.92142e-05 0.0279947 -0.999608 
-7.87721e-05 0.0196268 -0.999807 
-5.34158e-05 0.0139878 -0.999902 
-3.35628e-05 0.0100674 -0.999949 
-2.56473e-05 0.00713965 -0.999975 
-1.50994e-05 0.00517404 -0.999987 
-1.42634e-05 0.00371264 -0.999993 
-9.20356e-06 0.00263863 -0.999997 
-6.03329e-06 0.00193269 -0.999998 
-5.34586e-06 0.00139846 -0.999999 
-3.51521e-06 0.00101888 -0.999999 
-3.30297e-06 0.000708953 -1 
-2.56316e-06 0.000472992 -1 
-2.14215e-06 0.000286371 -1 
-1.58836e-06 0.00015466 -1 
-1.65105e-06 4.77912e-05 -1 
-1.08722e-06 -4.24988e-05 -1 
-9.99055e-07 -0.000112146 -1 
-9.78664e-07 -0.000174652 -1 
-5.34194e-07 -0.000219427 -1 
-7.56122e-07 -0.000252603 -1 
-1.121e-06 -0.000287253 -1 
2.57558e-06 -0.000319423 -1 
-5.93031e-05 -0.00036014 -1 
0.000248247 -0.000476261 -1 
-0.00119716 -0.000579808 -0.999999 
0.00207035 -0.00950668 -0.999953 
-0.0358244 -0.0333865 0.9988 
-0.00285871 -0.00309515 0.999991 
-0.000351245 -0.000656725 1 
-0.000119931 -0.000412591 1 
-5.53146e-05 -0.000322618 1 
-4.50819e-05 -0.000268806 1 
-4.86681e-05 -0.000226675 1 
-5.99029e-05 -0.000180982 1 
-7.63195e-05 -0.000126045 1 
-9.68599e-05 -5.9996e-05 1 
-0.000114874 2.23223e-05 1 
-0.000145441 0.000125683 1 
-0.00017815 0.000248557 1 
-0.000201191 0.00040492 1 
-0.000251404 0.000618242 1 
-0.000298628 0.000897424 1 
-0.000373928 0.00127398 0.999999 
-0.000456993 0.00178044 0.999998 
-0.000589757 0.00249881 0.999997 
-0.000774129 0.00349267 0.999994 
-0.00102968 0.00484896 0.999988 
-0.00133273 0.0066842 0.999977 
-0.00174733 0.00928786 0.999955 
-0.00226844 0.0129495 0.999914 
-0.00299709 0.0181815 0.99983 
-0.00385063 0.0253262 0.999672 
-0.00492856 0.0354411 0.99936 
-0.00614031 0.0496075 0.99875 
-0.00809967 0.0708867 0.997451 
-0.0102292 0.0992385 0.995011 
-0.0126194 0.136218 0.990598 
-0.0145839 0.189005 0.981868 
-0.0112385 0.235863 0.971721 
-0.0151152 0.290893 0.956636 
-0.0208151 0.369232 0.929104 
0.0227149 0.445075 0.895205 
-0.0193633 0.46805 0.88349 
-0.0178142 0.602487 0.79793 
0.00197201 0.932831 0.360309 
-0.00528572 0.987451 -0.157835 
-0.000272202 0.871023 -0.491242 
0.0200444 0.694589 -0.719128 
0.0145095 0.544347 -0.838735 
0.0069918 0.44837 -0.89382 
0.0165662 0.365107 -0.930818 
0.0126844 0.291351 -0.956532 
0.0143909 0.229481 -0.973207 
0.0142241 0.170732 -0.985215 
0.0120991 0.124305 -0.99217 
0.00920254 0.087401 -0.996131 
0.00685291 0.0598931 -0.998181 
0.00546607 0.0421439 -0.999097 
0.00428626 0.029508 -0.999555 
0.00317252 0.020572 -0.999783 
0.00247322 0.0147316 -0.999888 
0.00188392 0.0104181 -0.999944 
0.00147141 0.00755222 -0.99997 
0.00109173 0.00539049 -0.999985 
0.000799199 0.00379386 -0.999992 
0.00064043 0.00277224 -0.999996 
0.00048268 0.00197293 -0.999998 
0.000396051 0.00143346 -0.999999 
0.000315981 0.0010129 -0.999999 
0.000264373 0.000704975 -1 
0.00021373 0.000461448 -1 
0.000183276 0.00028872 -1 
0.00014761 0.000150407 -1 
0.00012045 4.08661e-05 -1 
0.000104986 -3.95005e-05 -1 
7.79637e-05 -0.000115009 -1 
6.50348e-05 -0.000170874 -1 
5.62558e-05 -0.000213428 -1 
4.16976e-05 -0.000258269 -1 
4.92619e-05 -0.000299628 -1 
7.12311e-05 -0.000354454 -1 
0.00014222 -0.000462311 -1 
0.000489702 -0.000837926 -1 
0.00409573 -0.0046313 -0.999981 
0.0495975 -0.0499061 -0.997522 
-0.0449717 -0.0459011 0.997933 
-0.00361922 -0.00404789 0.999985 
-0.000457393 -0.000782348 1 
-0.000169744 -0.000451922 1 
-0.000109071 -0.000356729 1 
-7.7369e-05 -0.000317288 1 
-6.29345e-05 -0.000251593 1 
-6.88036e-05 -0.000202339 1 
-8.17663e-05 -0.000149063 1 
-0.000102551 -8.51827e-05 1 
-0.000129111 -6.83594e-06 1 
-0.00015734 8.25333e-05 1 
-0.000190548 0.000195752 1 
-0.000227281 0.000344019 1 
-0.000265543 0.000521795 1 
-0.000316197 0.000781102 1 
-0.000375457 0.00111241 0.999999 
-0.000457235 0.00158636 0.999999 
-0.000565133 0.00222399 0.999997 
-0.000708692 0.00312859 0.999995 
-0.000882206 0.00434062 0.99999 
-0.00111069 0.00602239 0.999981 
-0.0014072 0.00828214 0.999965 
-0.00178717 0.0115178 0.999932 
-0.00223363 0.0159759 0.99987 
-0.00272858 0.0224046 0.999745 
-0.00328973 0.0310092 0.999514 
-0.00392677 0.0436908 0.999037 
-0.00490596 0.0615059 0.998095 
-0.00413653 0.0851495 0.99636 
-0.0027407 0.121098 0.992637 
-0.00109806 0.162419 0.986721 
0.0111144 0.215259 0.976494 
0.0224928 0.284651 0.958367 
0.0129018 0.353623 0.935299 
0.0739921 0.459689 0.884992 
0.0185573 0.565676 0.824418 
-0.000511145 0.744153 0.668009 
0.0120962 0.881251 0.472494 
-0.00437349 0.985403 0.17018 
-0.024888 0.921427 -0.387755 
-0.00821927 0.741502 -0.670901 
-0.0195179 0.573107 -0.819248 
-0.0484857 0.458373 -0.887436 
-0.0247261 0.370129 -0.928651 
-0.0182508 0.286715 -0.957842 
-0.00790209 0.218051 -0.975905 
0.00191538 0.171676 -0.985152 
0.00247205 0.129432 -0.991585 
0.00514844 0.0949157 -0.995472 
0.00464124 0.0665298 -0.997774 
0.00356314 0.0457318 -0.998947 
0.00334953 0.0324641 -0.999467 
0.00271329 0.0227727 -0.999737 
0.0021532 0.0163498 -0.999864 
0.00181573 0.0117823 -0.999929 
0.0014031 0.00856723 -0.999962 
0.00111466 0.0062152 -0.99998 
0.000886251 0.00447581 -0.99999 
0.000691206 0.00327427 -0.999994 
0.000556058 0.00233795 -0.999997 
0.00045646 0.00170381 -0.999998 
0.000381037 0.00120971 -0.999999 
0.000323193 0.000857949 -1 
0.000273437 0.000583722 -1 
0.000233972 0.00038781 -1 
0.000197204 0.000230863 -1 
0.00016447 0.000110158 -1 
0.000138169 1.9965e-05 -1 
0.000110152 -6.52221e-05 -1 
8.94229e-05 -0.000128085 -1 
7.48516e-05 -0.000179783 -1 
6.30781e-05 -0.000234098 -1 
6.33011e-05 -0.000279287 -1 
9.21597e-05 -0.000350741 -1 
0.00016686 -0.000469449 -1 
0.000421703 -0.000793893 -1 
0.00382683 -0.00471956 -0.999982 
0.0387825 -0.0481837 -0.998085 
-0.0625989 -0.0678512 0.99573 
-0.00453831 -0.00537888 0.999975 
-0.000602042 -0.00101135 0.999999 
-0.000221877 -0.000530229 1 
-0.000103185 -0.000339506 1 
-7.4507e-05 -0.000273202 1 
-7.40431e-05 -0.000210934 1 
-8.50869e-05 -0.000149748 1 
-0.000103807 -8.70832e-05 1 
-0.000130417 -9.67202e-06 1 
-0.000162136 8.08679e-05 1 
-0.000194707 0.000181588 1 
-0.000230586 0.000312816 1 
-0.000271242 0.000482917 1 
-0.00031045 0.000693682 1 
-0.000360458 0.000993291 0.999999 
-0.000416974 0.00139674 0.999999 
-0.000490539 0.00196172 0.999998 
-0.000583794 0.00271875 0.999996 
-0.000692724 0.00373754 0.999993 
-0.000824439 0.00512779 0.999987 
-0.000974929 0.00700597 0.999975 
-0.00115393 0.00955394 0.999954 
-0.0013123 0.0130597 0.999914 
-0.00144504 0.0179466 0.999838 
-0.00138867 0.0246865 0.999694 
-0.0012586 0.034105 0.999417 
-0.000721763 0.0479946 0.998847 
0.000512302 0.0654235 0.997857 
0.00368717 0.0930488 0.995655 
0.00999639 0.12561 0.992029 
0.0173132 0.164266 0.986264 
0.036742 0.22116 0.974545 
0.0592152 0.278194 0.958698 
0.056786 0.358026 0.931983 
0.105197 0.35766 0.927908 
0.0603902 0.605793 0.793327 
0.0416254 0.755837 0.653435 
0.0279386 0.935489 0.352249 
-0.00936735 0.995948 -0.0894471 
-0.0616015 0.815492 -0.57548 
-0.0560627 0.665175 -0.74458 
-0.0800877 0.552092 -0.829928 
-0.0870297 0.385263 -0.918694 
-0.0577056 0.32487 -0.943997 
-0.0514082 0.253516 -0.965964 
-0.0291124 0.212877 -0.976645 
-0.015044 0.159494 -0.987084 
-0.00752367 0.116288 -0.993187 
-0.00206517 0.084255 -0.996442 
-0.000186269 0.0593342 -0.998238 
0.000479557 0.0418105 -0.999125 
0.00130339 0.0297882 -0.999555 
0.00134505 0.0214381 -0.999769 
0.00130632 0.0154403 -0.99988 
0.00121961 0.0113276 -0.999935 
0.00102518 0.00824631 -0.999965 
0.00086594 0.00601125 -0.999982 
0.000724608 0.00443592 -0.99999 
0.000593578 0.00316503 -0.999995 
0.000504639 0.00231634 -0.999997 
0.000431405 0.00165032 -0.999999 
0.000375793 0.00118651 -0.999999 
0.000326029 0.000830905 -1 
0.000284263 0.000581844 -1 
0.000243909 0.000384771 -1 
0.00020677 0.000236252 -1 
0.000174332 0.000123828 -1 
0.000141521 2.16163e-05 -1 
0.000116532 -5.2616e-05 -1 
9.50713e-05 -0.000117875 -1 
7.68684e-05 -0.000185977 -1 
7.00663e-05 -0.000238878 -1 
7.70428e-05 -0.000298709 -1 
0.000111081 -0.000376822 -1 
0.000177936 -0.000490756 -1 
0.00039987 -0.00082678 -1 
0.00231671 -0.00325096 -0.999992 
0.04645 -0.0581045 -0.997229 
-0.0713264 -0.104623 0.991951 
-0.00774632 -0.0111406 0.999908 
-0.000319262 -0.000729776 1 
-0.000163128 -0.000460533 1 
-9.46901e-05 -0.000320983 1 
-7.87375e-05 -0.000259189 1 
-7.81728e-05 -0.000222382 1 
-8.26015e-05 -0.000170962 1 
-0.000100412 -0.000101057 1 
-0.000125032 -2.79735e-05 1 
-0.000155897 5.73353e-05 1 
-0.000190462 0.000155773 1 
-0.00022786 0.000271289 1 
-0.000267784 0.000416686 1 
-0.000311908 0.0006147 1 
-0.000353213 0.000855632 1 
-0.000401923 0.00121435 0.999999 
-0.000454412 0.0016946 0.999998 
-0.000514499 0.00235916 0.999997 
-0.000576704 0.00321876 0.999995 
-0.000644932 0.00440366 0.99999 
-0.000715964 0.00599121 0.999982 
-0.000787263 0.00813999 0.999967 
-0.000830024 0.0109609 0.99994 
-0.000789671 0.0148891 0.999889 
-0.000574998 0.0201533 0.999797 
-2.72061e-05 0.0277031 0.999616 
0.000873977 0.0382119 0.999269 
0.00298623 0.0518975 0.998648 
0.00608734 0.0722107 0.997371 
0.013079 0.0968104 0.995217 
0.0243589 0.125255 0.991826 
0.0371228 0.166852 0.985283 
0.0674055 0.202801 0.976897 
0.0986995 0.265038 0.959173 
0.155793 0.312684 0.936994 
0.12252 0.49573 0.859791 
0.113295 0.656097 0.746124 
0.0858715 0.827557 0.554776 
0.00704982 0.991972 0.126257 
-0.0617946 0.931567 -0.35828 
-0.124457 0.653424 -0.746691 
-0.117444 0.476758 -0.871154 
-0.136123 0.326429 -0.935369 
-0.0954589 0.269368 -0.958294 
-0.0756579 0.200984 -0.976669 
-0.0463518 0.178752 -0.982802 
-0.028377 0.146909 -0.988743 
-0.0170115 0.112448 -0.993512 
-0.00860745 0.0832901 -0.996488 
-0.00434098 0.0606982 -0.998147 
-0.00215177 0.0435529 -0.999049 
-0.000354826 0.0310466 -0.999518 
0.00032478 0.0226861 -0.999743 
0.000647212 0.0165387 -0.999863 
0.000768645 0.0120982 -0.999927 
0.000761362 0.00900633 -0.999959 
0.00069811 0.00658769 -0.999978 
0.000617631 0.00487444 -0.999988 
0.000558153 0.00359302 -0.999993 
0.000488754 0.00259066 -0.999997 
0.000445437 0.00188014 -0.999998 
0.00040013 0.00135225 -0.999999 
0.000358291 0.00096894 -0.999999 
0.000317178 0.00068973 -1 
0.000276454 0.000481774 -1 
0.000235614 0.000316785 -1 
0.000199291 0.000191882 -1 
0.000164278 8.4138e-05 -1 
0.000134436 -5.6632e-07 -1 
0.000108881 -7.4802e-05 -1 
8.78747e-05 -0.00014605 -1 
7.53735e-05 -0.00021243 -1 
7.76678e-05 -0.000277756 -1 
0.000107318 -0.000374066 -1 
0.000212659 -0.000580196 -1 
0.000612898 -0.00126587 -0.999999 
0.00520004 -0.0079014 -0.999955 
0.0578008 -0.0894782 -0.99431 
-0.0458557 -0.104235 0.993495 
-0.00556263 -0.0115618 0.999918 
-0.000915357 -0.00168332 0.999998 
-0.000290249 -0.000797036 1 
-0.000146697 -0.000475642 1 
-7.66069e-05 -0.000262899 1 
-7.94176e-05 -0.00017368 1 
-9.13856e-05 -0.000119885 1 
-0.00011618 -3.61413e-05 1 
-0.000142754 4.22846e-05 1 
-0.000173816 0.000135888 1 
-0.000211754 0.000248324 1 
-0.000249203 0.00037615 1 
-0.000288741 0.000541256 1 
-0.000326649 0.000762569 1 
-0.000365103 0.00104098 0.999999 
-0.00040176 0.00144682 0.999999 
-0.000435096 0.00198413 0.999998 
-0.000454157 0.00268864 0.999996 
-0.000466808 0.00363982 0.999993 
-0.0004629 0.00492114 0.999988 
-0.000441977 0.00662227 0.999978 
-0.000376596 0.00881434 0.999961 
-0.000253693 0.0117398 0.999931 
5.79788e-05 0.0155988 0.999878 
0.000615763 0.0209585 0.99978 
0.00172226 0.0283835 0.999596 
0.00345954 0.0378547 0.999277 
0.00692731 0.0520363 0.998621 
0.0120614 0.0695294 0.997507 
0.0222577 0.0893338 0.995753 
0.0388275 0.116321 0.992452 
0.0582955 0.146427 0.987502 
0.0925769 0.152704 0.983926 
0.119165 0.204061 0.971678 
0.178666 0.231681 0.956244 
0.176535 0.433664 0.883612 
0.187505 0.61392 0.766775 
0.0686396 0.953636 0.293031 
-0.00853289 0.999904 -0.0109234 
-0.136427 0.847207 -0.513447 
-0.055401 0.49191 -0.868882 
-0.192508 0.44388 -0.875163 
-0.182454 0.279373 -0.942688 
-0.126894 0.210353 -0.969355 
-0.090401 0.153612 -0.983987 
-0.0553681 0.137005 -0.989022 
-0.03507 0.114002 -0.992861 
-0.0200976 0.0897327 -0.995763 
-0.0116941 0.0685216 -0.997581 
-0.00682827 0.0508023 -0.998685 
-0.00320472 0.0358904 -0.999351 
-0.00151151 0.0265068 -0.999647 
-0.000547495 0.0195748 -0.999808 
-2.9088e-05 0.0144751 -0.999895 
0.000218707 0.0108388 -0.999941 
0.000371683 0.00806749 -0.999967 
0.000395357 0.00603151 -0.999982 
0.000405224 0.00447411 -0.99999 
0.000418322 0.00331021 -0.999994 
0.000401715 0.0023785 -0.999997 
0.000391979 0.00174234 -0.999998 
0.000366076 0.00125846 -0.999999 
0.000336916 0.000919233 -1 
0.000300983 0.000665349 -1 
0.000264454 0.000468695 -1 
0.000226377 0.00031835 -1 
0.000190375 0.000192205 -1 
0.000158949 9.25766e-05 -1 
0.000127992 6.81969e-06 -1 
0.000101998 -7.56317e-05 -1 
8.35877e-05 -0.000150229 -1 
7.21558e-05 -0.000209595 -1 
7.59191e-05 -0.000278388 -1 
0.000103722 -0.000398737 -1 
0.00020301 -0.000627714 -1 
0.000485824 -0.00128461 -0.999999 
0.00423865 -0.00841764 -0.999956 
0.0427616 -0.0934707 -0.994703 
-0.0301341 -0.101122 0.994418 
-0.00230617 -0.0078005 0.999967 
-0.000626297 -0.00163047 0.999998 
-0.000165896 -0.000654844 1 
-9.43646e-05 -0.000379436 1 
-6.52246e-05 -0.000271665 1 
-7.00334e-05 -0.000194024 1 
-8.03733e-05 -0.000114238 1 
-0.000100001 -5.63467e-05 1 
-0.000122891 3.04201e-05 1 
-0.000148844 0.000113899 1 
-0.000183025 0.000221655 1 
-0.000216371 0.00034509 1 
-0.000250746 0.000488963 1 
-0.000282661 0.000674209 1 
-0.000311146 0.000931584 1 
-0.000338132 0.00125292 0.999999 
-0.000350273 0.00171242 0.999998 
-0.000343289 0.00229759 0.999997 
-0.000315682 0.00309624 0.999995 
-0.00025996 0.00416795 0.999991 
-0.000160361 0.00559335 0.999984 
-3.17343e-07 0.00740538 0.999973 
0.000238405 0.00978376 0.999952 
0.000640718 0.012833 0.999917 
0.00132782 0.0170159 0.999854 
0.00247922 0.0226718 0.99974 
0.00456856 0.0299738 0.99954 
0.00760248 0.0402915 0.999159 
0.0136407 0.053397 0.99848 
0.0223172 0.0679689 0.997438 
0.0383577 0.0874686 0.995429 
0.0638191 0.105015 0.992421 
0.0996367 0.104543 0.989517 
0.146763 0.140029 0.97921 
0.220242 0.168821 0.960725 
0.245948 0.349475 0.904089 
0.275277 0.530388 0.801817 
0.168801 0.808411 0.563895 
-0.0650436 0.981877 -0.17801 
-0.175371 0.621141 -0.763825 
-0.257118 0.625026 -0.737043 
-0.26241 0.391275 -0.882069 
-0.217921 0.213526 -0.952322 
-0.145227 0.151202 -0.977777 
-0.097853 0.105865 -0.989554 
-0.0629098 0.104175 -0.992567 
-0.0401451 0.0867398 -0.995422 
-0.0254363 0.0747911 -0.996875 
-0.0158472 0.05821 -0.998179 
-0.0102263 0.0441633 -0.998972 
-0.0057465 0.0347226 -0.99938 
-0.00328363 0.0248895 -0.999685 
-0.00180929 0.0188714 -0.99982 
-0.000936687 0.0142258 -0.999898 
-0.000454664 0.0107095 -0.999943 
-0.000107562 0.00819102 -0.999966 
4.6263e-05 0.00618928 -0.999981 
0.000157081 0.00465014 -0.999989 
0.000243293 0.00345329 -0.999994 
0.000294184 0.00257682 -0.999997 
0.000314646 0.00185209 -0.999998 
0.000318728 0.00137678 -0.999999 
0.000303085 0.00100887 -0.999999 
0.00027967 0.000750752 -1 
0.000250695 0.000541346 -1 
0.000219009 0.000384791 -1 
0.000186858 0.000250355 -1 
0.000155593 0.000141171 -1 
0.000128119 5.28853e-05 -1 
0.000100572 -3.87071e-05 -1 
8.02214e-05 -0.000123316 -1 
6.48411e-05 -0.000201718 -1 
6.80207e-05 -0.000295034 -1 
8.48789e-05 -0.000424122 -1 
0.000163191 -0.000651387 -1 
0.000329798 -0.00125647 -0.999999 
0.00244519 -0.00709166 -0.999972 
0.0341176 -0.10563 -0.99382 
-0.0139825 -0.107186 0.994141 
-0.00130916 -0.00925032 0.999956 
-0.00031812 -0.00126908 0.999999 
-0.000102515 -0.000692747 1 
-7.68281e-05 -0.000423135 1 
-4.96711e-05 -0.000269966 1 
-5.9974e-05 -0.000176241 1 
-7.25775e-05 -9.0635e-05 1 
-9.54043e-05 -1.63398e-05 1 
-0.00011364 7.02359e-05 1 
-0.00014306 0.000163895 1 
-0.000170829 0.000273563 1 
-0.000197648 0.000400942 1 
-0.000225209 0.000549757 1 
-0.000251696 0.000749543 1 
-0.000264673 0.00100561 0.999999 
-0.000279434 0.00134027 0.999999 
-0.000265147 0.00177023 0.999998 
-0.00023148 0.00235307 0.999997 
-0.000164302 0.00315045 0.999995 
-4.95923e-05 0.00422198 0.999991 
0.000134199 0.00556338 0.999985 
0.00039905 0.00730251 0.999973 
0.000776741 0.00947992 0.999955 
0.00136279 0.0123669 0.999923 
0.00231692 0.0161692 0.999867 
0.00384633 0.0211308 0.999769 
0.00637961 0.0270451 0.999614 
0.0102614 0.0362253 0.999291 
0.0167911 0.0445584 0.998866 
0.0276181 0.0580112 0.997934 
0.0444476 0.0691139 0.996618 
0.0677205 0.0716112 0.995131 
0.102177 0.0584207 0.993049 
0.15079 0.0787178 0.985427 
0.232603 0.094416 0.967978 
0.305697 0.264506 0.914651 
0.406397 0.436543 0.802666 
0.290696 0.772377 0.564738 
0.0680557 0.987687 0.140864 
-0.242023 0.858173 -0.45273 
-0.394342 0.531575 -0.749615 
-0.32305 0.303819 -0.896288 
-0.238501 0.131722 -0.962168 
-0.154356 0.0906059 -0.983852 
-0.0997926 0.0619528 -0.993078 
-0.0642073 0.0716016 -0.995365 
-0.0425737 0.0646928 -0.996997 
-0.0268876 0.0565649 -0.998037 
-0.0171708 0.0447793 -0.998849 
-0.0104263 0.0341497 -0.999362 
-0.00626391 0.0275662 -0.9996 
-0.00378602 0.0201421 -0.99979 
-0.00225077 0.0154919 -0.999877 
-0.0013374 0.0118408 -0.999929 
-0.000758401 0.00899516 -0.999959 
-0.000396257 0.00696397 -0.999976 
-0.000168099 0.00527317 -0.999986 
5.08811e-06 0.00396957 -0.999992 
0.00012117 0.00298257 -0.999996 
0.000210928 0.00222365 -0.999998 
0.000239309 0.00163717 -0.999999 
0.00025611 0.00123063 -0.999999 
0.00024622 0.000928643 -1 
0.00023208 0.000691261 -1 
0.000208617 0.000511702 -1 
0.000184189 0.000359494 -1 
0.000157668 0.000237585 -1 
0.000131209 0.000138959 -1 
0.000107366 3.99281e-05 -1 
8.434e-05 -4.20558e-05 -1 
7.0096e-05 -0.000116348 -1 
5.40174e-05 -0.00017988 -1 
5.14077e-05 -0.000263166 -1 
5.38055e-05 -0.000389908 -1 
0.000107962 -0.000692034 -1 
0.00022896 -0.00156834 -0.999999 
0.00212328 -0.0108293 -0.999939 
0.0152463 -0.11408 -0.993355 
0.00366589 -0.0974125 0.995237 
0.000242997 -0.0081146 0.999967 
-0.000172786 -0.00152866 0.999999 
-3.18217e-05 -0.000677555 1 
-4.02515e-05 -0.000392479 1 
-3.10896e-05 -0.000249693 1 
-4.70388e-05 -0.000169688 1 
-5.76801e-05 -8.80018e-05 1 
-8.00326e-05 -5.12311e-06 1 
-9.86825e-05 9.0815e-05 1 
-0.000124132 0.000188794 1 
-0.000145742 0.000298472 1 
-0.000165127 0.000423875 1 
-0.00018648 0.000570803 1 
-0.000206036 0.000751907 1 
-0.000208784 0.000980069 1 
-0.000213054 0.00128593 0.999999 
-0.000190434 0.00167571 0.999999 
-0.000147061 0.00222126 0.999998 