# vtk DataFile Version 3.0 
Exported using Morpho https://github.com/Morpho-lang/morpho 
ASCII 
DATASET UNSTRUCTURED_GRID 

POINTS 1978 float 
-8.48528 -2.82843 6.29806e-13 
-8.24765 -2.82843 5.63671e-14 
-8.02081 -2.82843 -8.67238e-13 
-7.75718 -2.82843 -1.19308e-13 
-7.46681 -2.82843 -1.75212e-13 
-7.12938 -2.82843 -6.66865e-14 
-6.94521 -2.82843 -1.59226e-14 
-6.71293 -2.82843 -3.13313e-14 
-6.53907 -2.82843 8.5066e-14 
-6.34014 -2.82843 2.27942e-14 
-6.14175 -2.82843 -4.63294e-14 
-5.93439 -2.82843 -5.38132e-15 
-5.72708 -2.82843 3.425e-14 
-5.51922 -2.82843 -2.10562e-15 
-5.28502 -2.82843 4.12817e-15 
-5.07303 -2.82843 -7.52814e-15 
-4.86015 -2.82843 2.49615e-14 
-4.63753 -2.82843 -1.07995e-14 
-4.43072 -2.82843 1.91691e-14 
-4.21095 -2.82843 2.37972e-14 
-4.00287 -2.82843 -9.42026e-15 
-3.79831 -2.82843 1.74654e-14 
-3.59192 -2.82843 7.57582e-14 
-3.38404 -2.82843 3.19087e-14 
-3.17779 -2.82843 -5.12707e-14 
-2.98431 -2.82843 -5.68308e-14 
-2.77722 -2.82843 -2.27532e-13 
-2.5965 -2.82843 1.11507e-13 
-2.36017 -2.82843 3.24563e-13 
-2.15158 -2.82843 -1.15287e-14 
-1.9431 -2.82843 5.61959e-14 
-1.73648 -2.82843 1.24144e-13 
-1.55512 -2.82843 -5.55957e-13 
-1.2915 -2.82843 -7.84114e-13 
-1.10621 -2.82843 1.33312e-12 
-0.881632 -2.82843 9.03312e-13 
-0.700992 -2.82843 1.48102e-12 
-0.474124 -2.82843 -1.01578e-12 
-0.232618 -2.82843 4.88748e-13 
0.0335931 -2.82843 -1.38578e-12 
0.240416 -2.82843 -1.50447e-12 
0.460836 -2.82843 1.15849e-12 
0.689826 -2.82843 1.59406e-12 
0.913514 -2.82843 -1.09914e-12 
1.12799 -2.82843 -1.30907e-12 
1.33142 -2.82843 -3.87548e-13 
1.52935 -2.82843 9.38587e-13 
1.71148 -2.82843 9.78103e-13 
1.92027 -2.82843 5.07004e-13 
2.12709 -2.82843 -4.91392e-13 
2.33826 -2.82843 -6.8091e-13 
2.55755 -2.82843 2.32698e-13 
2.7663 -2.82843 -1.8516e-13 
2.98199 -2.82843 -9.69634e-14 
3.18602 -2.82843 1.14951e-13 
3.38474 -2.82843 -3.78167e-14 
3.60293 -2.82843 -4.33111e-14 
3.80619 -2.82843 -4.34482e-14 
4.01891 -2.82843 -3.22633e-14 
4.23255 -2.82843 -3.28375e-14 
4.44383 -2.82843 3.19193e-15 
4.65421 -2.82843 7.30736e-15 
4.86275 -2.82843 4.15728e-15 
5.0711 -2.82843 -7.9247e-15 
5.28322 -2.82843 -2.31741e-14 
5.4962 -2.82843 4.4148e-15 
5.71298 -2.82843 -3.07895e-15 
5.92799 -2.82843 -1.02414e-14 
6.15689 -2.82843 -1.59998e-14 
6.3749 -2.82843 5.59488e-14 
6.59906 -2.82843 5.77841e-15 
6.82499 -2.82843 -5.44225e-14 
7.03357 -2.82843 9.85785e-14 
7.2908 -2.82843 1.22964e-13 
7.52853 -2.82843 -4.84386e-14 
7.75516 -2.82843 3.82566e-13 
8.02535 -2.82843 8.22815e-13 
8.21611 -2.82843 -9.1515e-14 
8.48528 -2.82843 -6.48689e-13 
-8.48528 -2.58758 -1.06078e-14 
-8.25788 -2.59439 -7.18917e-14 
-8.02468 -2.58237 -1.99289e-13 
-7.78543 -2.62026 -2.15721e-13 
-7.51149 -2.64008 -1.76658e-13 
-7.22403 -2.66289 -1.25887e-13 
-6.96738 -2.53526 -6.48878e-14 
-6.77973 -2.60989 -7.37002e-14 
-6.56213 -2.55517 -4.42319e-14 
-6.36599 -2.59196 -2.11901e-14 
-6.14408 -2.57757 -1.41292e-14 
-5.92976 -2.58289 -7.72419e-15 
-5.71018 -2.58925 -1.55992e-15 
-5.47392 -2.61284 6.44718e-15 
-5.25004 -2.59358 1.14397e-14 
-5.0292 -2.59482 2.23601e-14 
-4.80145 -2.60575 3.73908e-14 
-4.58389 -2.59135 5.75931e-14 
-4.36152 -2.6061 8.52923e-14 
-4.14463 -2.59412 1.13798e-13 
-3.93312 -2.5914 1.53318e-13 
-3.72194 -2.59466 1.94593e-13 
-3.50828 -2.59884 2.45123e-13 
-3.29409 -2.5992 3.02427e-13 
-3.08719 -2.58666 3.51275e-13 
-2.87793 -2.60203 4.50842e-13 
-2.67543 -2.5667 4.06167e-13 
-2.47283 -2.63216 6.5394e-13 
-2.23827 -2.59642 5.26584e-13 
-2.02145 -2.59085 4.63921e-13 
-1.80567 -2.5839 9.29716e-13 
-1.6046 -2.51504 2.86184e-14 
-1.41332 -2.60916 9.39178e-13 
-1.21139 -2.50347 -7.26436e-14 
-1.00321 -2.58016 6.69489e-13 
-0.804336 -2.51435 7.90985e-13 
-0.581032 -2.58535 -3.95327e-13 
-0.324588 -2.58299 -8.46251e-13 
-0.246638 -2.3793 -7.61781e-13 
-0.0306044 -2.5957 6.54748e-13 
0.239075 -2.52627 7.32705e-13 
0.436886 -2.32832 4.93707e-13 
0.509995 -2.57618 1.20878e-12 
0.77579 -2.57557 -5.6553e-13 
1.01668 -2.56004 -3.6735e-13 
1.24451 -2.5419 -8.88061e-14 
1.47066 -2.56627 -6.12666e-13 
1.68533 -2.55771 -6.0316e-13 
1.89224 -2.59718 -5.31735e-13 
2.11621 -2.60345 -6.46016e-13 
2.34107 -2.60563 -5.58015e-13 
2.55696 -2.59564 -5.76011e-13 
2.78146 -2.60776 -5.18975e-13 
2.9951 -2.59573 -4.27013e-13 
3.20082 -2.58658 -3.18327e-13 
3.42027 -2.60663 -2.85437e-13 
3.63023 -2.58918 -2.16628e-13 
3.84592 -2.59861 -1.75538e-13 
4.0636 -2.5992 -1.34039e-13 
4.27936 -2.59571 -9.70523e-14 
4.49356 -2.59441 -6.93409e-14 
4.70723 -2.59252 -4.68713e-14 
4.9204 -2.59227 -2.95166e-14 
5.13683 -2.59527 -1.72175e-14 
5.35373 -2.5948 -8.90935e-15 
5.57286 -2.5969 -2.42659e-15 
5.79225 -2.59337 3.45077e-15 
6.01847 -2.60505 9.89821e-15 
6.2434 -2.59208 1.9999e-14 
6.46705 -2.59582 3.53917e-14 
6.69401 -2.59426 5.3354e-14 
6.90841 -2.57237 7.70699e-14 
7.14051 -2.61571 1.19866e-13 
7.38744 -2.5994 1.56242e-13 
7.61477 -2.5879 1.75602e-13 
7.86523 -2.62536 2.27091e-13 
8.07154 -2.5425 1.57092e-13 
8.30003 -2.62346 8.39874e-14 
8.48528 -2.5311 -5.80193e-13 
-8.48528 -2.34034 7.06849e-13 
-8.2682 -2.35677 -1.49107e-15 
-8.03767 -2.34445 -1.2627e-13 
-7.78844 -2.40069 -1.25258e-13 
-7.54808 -2.2398 -1.34474e-13 
-7.52262 -2.44135 -1.78485e-13 
-7.24793 -2.46292 -1.59874e-13 
-6.98909 -2.33498 -9.23804e-14 
-6.7169 -2.35565 -3.77743e-14 
-6.48117 -2.32011 -4.83423e-14 
-6.27257 -2.36117 -2.79303e-14 
-6.04802 -2.33751 -1.20546e-14 
-5.82835 -2.35138 -2.65223e-15 
-5.59934 -2.38059 4.66211e-15 
-5.38217 -2.37444 1.40641e-14 
-5.1578 -2.3632 2.22804e-14 
-4.93158 -2.37658 3.30713e-14 
-4.71684 -2.36818 4.9485e-14 
-4.49102 -2.37266 6.84389e-14 
-4.2797 -2.37146 9.19505e-14 
-4.06531 -2.3592 1.20314e-13 
-3.85303 -2.35926 1.53972e-13 
-3.63932 -2.36752 1.9459e-13 
-3.42435 -2.37274 2.48809e-13 
-3.21448 -2.36177 3.03572e-13 
-2.99566 -2.36425 3.7452e-13 
-2.79397 -2.35197 4.31726e-13 
-2.5587 -2.3632 5.66993e-13 
-2.3615 -2.4127 5.61909e-13 
-2.11317 -2.36461 6.31262e-13 
-1.88766 -2.35004 3.91378e-13 
-1.66027 -2.29078 7.89015e-13 
-1.40189 -2.31912 5.9699e-13 
-1.2315 -2.17905 5.67541e-14 
-1.04013 -2.2999 -5.21285e-13 
-0.794519 -2.27364 -1.33173e-12 
-0.554111 -2.33882 1.08167e-12 
-0.427753 -2.1751 1.13379e-12 
-0.180331 -2.10315 -5.83866e-13 
4.4811e-05 -2.33369 -6.99551e-13 
0.192929 -2.22011 1.17645e-13 
0.380949 -2.0343 -1.46259e-12 
0.621258 -2.09679 5.4015e-13 
0.716422 -2.33362 -4.1652e-13 
0.971743 -2.29339 -1.79855e-14 
1.19696 -2.27372 -9.47604e-14 
1.44086 -2.31483 -4.86308e-13 
1.674 -2.30335 -5.20411e-13 
1.89179 -2.35005 -6.08331e-13 
2.10457 -2.37563 -4.86434e-13 
2.3201 -2.38516 -5.21793e-13 
2.53505 -2.36415 -5.2235e-13 
2.74982 -2.38346 -3.96777e-13 
2.96121 -2.3674 -3.39343e-13 
3.17113 -2.34907 -3.0316e-13 
3.38069 -2.37656 -2.48542e-13 
3.58809 -2.35719 -2.01049e-13 
3.80151 -2.36713 -1.60923e-13 
4.01534 -2.37111 -1.25202e-13 
4.2308 -2.36622 -9.3777e-14 
4.44611 -2.36178 -7.14811e-14 
4.6591 -2.3599 -5.24731e-14 
4.87325 -2.35818 -3.63369e-14 
5.08796 -2.36404 -2.45541e-14 
5.30554 -2.36283 -1.57728e-14 
5.52317 -2.36537 -6.81573e-15 
5.74152 -2.36215 1.68411e-15 
5.96529 -2.37511 8.32609e-15 
6.18694 -2.36531 2.07719e-14 
6.41458 -2.36133 3.75788e-14 
6.63779 -2.36255 5.15318e-14 
6.85738 -2.32736 7.18732e-14 
7.08209 -2.37091 1.03263e-13 
7.30755 -2.3856 1.37058e-13 
7.5464 -2.34814 1.38727e-13 
7.782 -2.39402 1.2138e-13 
7.99453 -2.31537 1.17878e-13 
8.24709 -2.36101 2.40365e-14 
8.48528 -2.30246 -3.99572e-13 
-8.48528 -2.09054 3.68583e-13 
-8.25956 -2.09409 1.5307e-14 
-8.05764 -2.09827 -5.38899e-14 
-7.81652 -2.1811 -6.71369e-14 
-7.53076 -2.04512 -7.69796e-14 
-7.267 -2.25707 -9.40966e-14 
-7.08474 -2.11052 -7.27177e-14 
-6.82614 -2.15038 -4.38008e-14 
-6.58521 -2.11755 -3.49929e-14 
-6.3358 -2.10755 -3.35555e-14 
-6.13179 -2.11568 -1.45929e-14 
-5.89951 -2.11295 -2.74944e-15 
-5.67852 -2.14175 1.27394e-16 
-5.46721 -2.13955 5.71497e-15 
-5.25332 -2.13942 1.43117e-14 
-5.0271 -2.1471 2.19695e-14 
-4.81371 -2.13726 2.90581e-14 
-4.59464 -2.14844 4.17827e-14 
-4.38194 -2.1358 5.24913e-14 
-4.17484 -2.1336 6.88068e-14 
-3.96196 -2.12625 8.32491e-14 
-3.74935 -2.13282 1.05961e-13 
-3.53768 -2.14168 1.37234e-13 
-3.33038 -2.13501 1.66945e-13 
-3.11341 -2.13957 2.10445e-13 
-2.90628 -2.11903 2.07776e-13 
-2.68266 -2.14702 3.1161e-13 
-2.46196 -2.13243 3.49349e-13 
-2.26391 -2.195 4.43424e-13 
-2.01352 -2.12913 4.51893e-13 
-1.80032 -2.08896 2.75706e-13 
-1.52726 -2.08877 1.80798e-13 
-1.33882 -1.95607 8.37778e-14 
-1.10699 -1.90238 -1.10436e-13 
-0.965185 -2.05592 4.0232e-14 
-0.711841 -2.04421 -1.45822e-12 
-0.491346 -1.9505 4.40992e-13 
-0.308044 -1.84481 2.77491e-13 
0.00405589 -1.98216 -1.84753e-12 
0.0335378 -1.60062 -3.41023e-12 
0.187335 -1.87032 2.73314e-12 
0.292011 -1.62915 -8.15456e-13 
0.491432 -1.79181 1.72757e-12 
0.71645 -1.82253 -4.57362e-13 
0.879106 -2.0461 6.20789e-13 
1.1126 -1.9883 2.58284e-13 
1.36168 -2.06535 -5.55832e-14 
1.60887 -2.0721 -1.4466e-13 
1.86914 -2.10584 -3.30237e-13 
2.0953 -2.1419 -4.57087e-13 
2.32103 -2.15474 -4.25991e-13 
2.55262 -2.14051 -2.73956e-13 
2.76381 -2.14902 -2.63365e-13 
2.97847 -2.13455 -2.60885e-13 
3.19911 -2.12163 -1.73987e-13 
3.40328 -2.13695 -1.44801e-13 
3.62174 -2.12996 -1.2155e-13 
3.83728 -2.13891 -9.94076e-14 
4.0518 -2.1413 -7.71639e-14 
4.26726 -2.13562 -6.03491e-14 
4.48008 -2.12793 -4.48704e-14 
4.69357 -2.12756 -3.31972e-14 
4.90826 -2.12662 -2.47804e-14 
5.12426 -2.13424 -1.81392e-14 
5.34057 -2.13121 -1.14945e-14 
5.55617 -2.13239 -4.22317e-15 
5.77895 -2.13582 2.23014e-15 
5.9964 -2.1413 6.81857e-15 
6.22138 -2.13659 1.75563e-14 
6.44308 -2.12691 3.00526e-14 
6.65765 -2.11888 3.89399e-14 
6.89043 -2.09732 4.49069e-14 
7.11464 -2.13656 7.23593e-14 
7.34231 -2.15371 1.00437e-13 
7.54477 -2.08313 6.98505e-14 
7.74928 -2.15435 7.39206e-14 
7.97501 -2.0825 2.90765e-14 
8.21067 -2.14061 2.59648e-14 
8.48528 -2.10469 4.12317e-14 
-8.48528 -1.79032 3.29317e-13 
-8.30864 -1.84612 3.3284e-14 
-7.89429 -1.92555 2.68508e-14 
-7.68246 -1.92359 2.11238e-14 
[...]
POINT_DATA 1978 
VECTORS vectors float
-0.000640002 0.000188989 1 
0.000353667 -0.0419062 0.999121 
0.000229217 -0.0551214 0.99848 
9.7221e-05 -0.0461372 0.998935 
0.000385346 -0.0326069 0.999468 
0.000212605 -0.0189836 0.99982 
0.000172685 -0.0128003 0.999918 
0.000139208 -0.00669599 0.999978 
4.7544e-05 -0.00326822 0.999995 
5.00787e-05 -0.000619036 1 
0.000189743 4.74074e-05 1 
6.82786e-05 -0.000290944 1 
-6.7017e-06 -0.000683541 1 
6.06789e-05 -0.00111105 0.999999 
4.25423e-05 -0.000941618 1 
3.41348e-06 0.000423485 1 
5.01018e-05 0.00297277 0.999996 
4.93867e-05 0.00670736 0.999978 
3.69452e-05 0.011431 0.999935 
6.47896e-05 0.0176442 0.999844 
5.72589e-05 0.0248335 0.999692 
5.27076e-05 0.033413 0.999442 
8.10462e-05 0.0437606 0.999042 
7.27231e-05 0.0561453 0.998423 
8.9503e-05 0.0710525 0.997473 
8.3095e-05 0.087726 0.996145 
5.56321e-05 0.109181 0.994022 
4.94476e-05 0.132262 0.991215 
5.45376e-05 0.168194 0.985754 
3.58819e-05 0.209426 0.977824 
3.61933e-05 0.26086 0.965377 
3.61887e-05 0.318563 0.947902 
2.19402e-05 0.38668 0.922214 
2.35733e-05 0.483442 0.875377 
-1.02038e-05 0.581285 0.8137 
5.83083e-06 0.68971 0.724086 
2.14095e-05 0.787612 0.616172 
-1.92566e-05 0.893363 0.449337 
1.00909e-06 0.972468 0.233038 
4.72047e-06 0.999215 -0.0396178 
-2.44739e-06 0.96873 -0.248119 
1.1788e-05 0.891653 -0.45272 
4.81741e-06 0.782732 -0.62236 
-2.26365e-06 0.674685 -0.738106 
-2.71882e-05 0.561113 -0.827739 
-3.97717e-05 0.459975 -0.887932 
-4.22327e-05 0.382765 -0.923846 
-4.585e-05 0.321843 -0.946793 
-4.31346e-05 0.262348 -0.964973 
-7.44757e-05 0.213051 -0.977041 
-2.50068e-05 0.17134 -0.985212 
-2.21463e-05 0.134957 -0.990851 
-6.0792e-05 0.109177 -0.994022 
-6.58282e-05 0.086975 -0.99621 
-4.62413e-05 0.0699461 -0.997551 
-7.20399e-05 0.0559807 -0.998432 
-7.25507e-05 0.0434573 -0.999055 
-4.09375e-05 0.0335135 -0.999438 
-5.1246e-05 0.0247378 -0.999694 
-5.60766e-05 0.0174379 -0.999848 
-5.19702e-05 0.0113729 -0.999935 
-6.15295e-05 0.00654426 -0.999979 
-6.00351e-05 0.00288732 -0.999996 
-5.60081e-05 0.000359651 -1 
-6.22044e-05 -0.00105244 -0.999999 
-4.35449e-05 -0.00146781 -0.999999 
-3.28772e-05 -0.00111931 -0.999999 
-3.57492e-05 -0.000458731 -1 
-5.60664e-06 -0.000141372 -1 
-3.26421e-05 -0.0013239 -0.999999 
-4.80228e-05 -0.00407076 -0.999992 
4.52189e-06 -0.0089229 -0.99996 
-1.27203e-05 -0.0152058 -0.999884 
-4.76585e-06 -0.0244992 -0.9997 
-1.12612e-05 -0.0350053 -0.999387 
0.000151914 -0.0461733 -0.998933 
-5.14991e-05 -0.0558668 -0.998438 
-0.000598492 -0.0453167 -0.998972 
0.000964664 -0.000551628 -0.999999 
0.000397085 2.98915e-05 1 
0.0122337 -0.0347857 0.99932 
0.0197018 -0.0473896 0.998682 
0.0207017 -0.0461398 0.99872 
0.0209339 -0.0359063 0.999136 
0.0188776 -0.0232213 0.999552 
0.027714 -0.0147865 0.999507 
0.0240273 -0.00922546 0.999669 
0.0293275 -0.00532853 0.999556 
0.0262947 -0.00242633 0.999651 
0.0261925 -0.000837526 0.999657 
0.0271523 -0.00047195 0.999631 
0.0272824 -0.000523136 0.999628 
0.025059 -0.000601209 0.999686 
0.0266204 0.000198095 0.999646 
0.0262077 0.00187629 0.999655 
0.0250925 0.00470182 0.999674 
0.0259483 0.00864982 0.999626 
0.0245373 0.0138641 0.999603 
0.0250744 0.020385 0.999478 
0.0249736 0.0281308 0.999292 
0.0243106 0.0374841 0.999001 
0.0235936 0.0489413 0.998523 
0.0230411 0.0628748 0.997755 
0.0231964 0.0792247 0.996587 
0.0212958 0.0989833 0.994861 
0.0219716 0.122771 0.992192 
0.0173676 0.151624 0.988286 
0.0168505 0.194276 0.980802 
0.0147248 0.245106 0.969384 
0.0130553 0.306077 0.951917 
0.0119122 0.371536 0.928342 
0.00796425 0.441944 0.897007 
0.00667007 0.526376 0.850226 
0.00402177 0.618141 0.786057 
0.00220161 0.719102 0.694902 
0.000927389 0.833977 0.551798 
-0.00152656 0.9412 0.337847 
-0.00272936 0.97535 0.220647 
-0.00256368 0.999291 0.0375671 
-0.00229315 0.968635 -0.248478 
-0.00310865 0.903569 -0.428432 
-0.00279483 0.864678 -0.502319 
-0.00467079 0.73263 -0.680611 
-0.00621312 0.606408 -0.79513 
-0.0081224 0.494762 -0.868991 
-0.0103886 0.402387 -0.915411 
-0.0130868 0.330278 -0.943793 
-0.0137584 0.271305 -0.962395 
-0.0158101 0.216343 -0.976189 
-0.0175132 0.169714 -0.985338 
-0.0199473 0.134179 -0.990756 
-0.0207428 0.106797 -0.994064 
-0.0225802 0.0855862 -0.996075 
-0.0236099 0.068816 -0.99735 
-0.0230257 0.0539859 -0.998276 
-0.0245887 0.042289 -0.998803 
-0.0243428 0.0321042 -0.999188 
-0.0246518 0.0235475 -0.999419 
-0.0251337 0.0165206 -0.999548 
-0.025519 0.0108064 -0.999616 
-0.0259896 0.00633756 -0.999642 
-0.0263446 0.00303823 -0.999648 
-0.0264119 0.000773662 -0.999651 
-0.0266762 -0.000434664 -0.999644 
-0.0266942 -0.00079914 -0.999643 
-0.0270563 -0.00067241 -0.999634 
-0.0260947 -0.000601759 -0.999659 
-0.0268234 -0.00128662 -0.999639 
-0.0261538 -0.00324485 -0.999653 
-0.0258538 -0.00701402 -0.999641 
-0.0266696 -0.0122378 -0.999569 
-0.0231244 -0.019285 -0.999547 
-0.0238532 -0.0289823 -0.999295 
-0.0236397 -0.0391385 -0.998954 
-0.0200463 -0.0484795 -0.998623 
-0.0203922 -0.0454386 -0.998759 
-0.0103262 -0.0311764 -0.999461 
-0.00038816 -0.000751836 -1 
0.000922594 -0.000348486 1 
0.0156919 -0.0309163 0.999399 
0.0269453 -0.0453263 0.998609 
0.0307685 -0.0452132 0.998503 
0.0353606 -0.0367165 0.9987 
0.0309159 -0.0336988 0.998954 
0.0321819 -0.0236371 0.999202 
0.0364266 -0.0161613 0.999206 
0.0363936 -0.00950312 0.999292 
0.0385823 -0.00476217 0.999244 
0.0374264 -0.00216129 0.999297 
0.0384925 -0.000964383 0.999258 
0.0388162 -0.000373969 0.999246 
0.0380363 -5.26772e-05 0.999276 
0.0379215 0.000505844 0.999281 
0.0378362 0.00178723 0.999282 
0.0369873 0.00387723 0.999308 
0.0367189 0.00695737 0.999301 
0.0361603 0.0113561 0.999281 
0.0356302 0.016734 0.999225 
0.0353905 0.0236253 0.999094 
0.034847 0.0319541 0.998882 
0.0340408 0.0420059 0.998537 
0.0332737 0.054245 0.997973 
0.0326096 0.0688594 0.997093 
0.0315122 0.0875344 0.995663 
0.0302661 0.10847 0.993639 
0.0282634 0.138234 0.989996 
0.0250446 0.17001 0.985124 
0.0223942 0.219789 0.97529 
0.0190115 0.278566 0.960229 
0.0160416 0.346059 0.938075 
0.0113443 0.444517 0.895699 
0.0083654 0.523469 0.852003 
0.00511013 0.61521 0.788347 
0.00217532 0.738995 0.673708 
-0.000774334 0.8567 0.515815 
-0.000665449 0.92313 0.384487 
-0.00116674 0.986985 0.16081 
-0.00272679 0.999774 -0.0210653 
-0.00278552 0.978847 -0.204574 
-0.003704 0.925151 -0.379582 
-0.00488285 0.815797 -0.578318 
-0.0055131 0.740149 -0.67242 
-0.00775636 0.619013 -0.785343 
-0.0101625 0.515391 -0.856895 
-0.0136855 0.414559 -0.90992 
-0.0173191 0.33416 -0.942357 
-0.0203251 0.271167 -0.962318 
-0.0227773 0.21916 -0.975423 
-0.0252509 0.174445 -0.984343 
-0.0283461 0.141152 -0.989582 
-0.0296922 0.113156 -0.993133 
-0.0314259 0.0908839 -0.995366 
-0.0327522 0.0724441 -0.996835 
-0.0331809 0.0575219 -0.997793 
-0.0342436 0.0453576 -0.998384 
-0.0346095 0.034753 -0.998796 
-0.0350034 0.0259751 -0.99905 
-0.0354993 0.0187092 -0.999195 
-0.0360592 0.0127917 -0.999268 
-0.0366337 0.00819517 -0.999295 
-0.0372462 0.00475119 -0.999295 
-0.0376582 0.00229228 -0.999288 
-0.038192 0.000780348 -0.99927 
-0.0385523 2.20866e-05 -0.999257 
-0.0388813 -0.00032015 -0.999244 
-0.0385269 -0.00075845 -0.999257 
-0.0385404 -0.00160956 -0.999256 
-0.0381204 -0.00351889 -0.999267 
-0.0374086 -0.00691895 -0.999276 
-0.0374479 -0.0118888 -0.999228 
-0.0359066 -0.0180383 -0.999192 
-0.0346643 -0.0260326 -0.99906 
-0.0340983 -0.036324 -0.998758 
-0.0314266 -0.0454228 -0.998473 
-0.0291739 -0.0463613 -0.998499 
-0.0174485 -0.0325083 -0.999319 
-0.000945728 4.64032e-05 -1 
0.000662782 -0.00124416 0.999999 
0.0150253 -0.0304235 0.999424 
0.0249853 -0.0442305 0.998709 
0.0319358 -0.0463641 0.998414 
0.0329342 -0.0372285 0.998764 
0.0362564 -0.0256448 0.999013 
0.0349978 -0.019407 0.999199 
0.0365096 -0.0123609 0.999257 
0.0375688 -0.00720908 0.999268 
0.0375033 -0.00328257 0.999291 
0.0375993 -0.00161313 0.999292 
0.0372297 -0.000452498 0.999307 
0.0378726 0.0003997 0.999282 
0.0373867 0.00116483 0.9993 
0.0370236 0.00216951 0.999312 
0.0366021 0.00388057 0.999322 
0.0356732 0.00642819 0.999343 
0.0353947 0.00998121 0.999324 
0.03452 0.0146941 0.999296 
0.0339862 0.0205222 0.999212 
0.0332246 0.0280313 0.999055 
0.032726 0.0370894 0.998776 
0.0322242 0.0479335 0.998331 
0.0313567 0.0609585 0.997648 
0.0305567 0.0776249 0.996514 
0.0288687 0.0976236 0.994805 
0.0280657 0.122773 0.992038 
0.0259342 0.155051 0.987566 
0.0245432 0.189911 0.981494 
0.0204262 0.245533 0.969173 
0.0165572 0.303413 0.952715 
0.0123702 0.399643 0.916587 
0.00830348 0.481707 0.876293 
0.00505263 0.585974 0.810314 
0.004204 0.652768 0.757547 
0.00124397 0.789902 0.613231 
1.24737e-05 0.89462 0.446827 
-0.000589686 0.95633 0.292287 
-0.0018001 0.999987 0.00474548 
0.000820835 0.999322 -0.0368127 
-0.00222065 0.981445 -0.191733 
-0.00176614 0.951331 -0.308167 
-0.00361385 0.875189 -0.483767 
-0.00436809 0.773531 -0.633743 
-0.00565779 0.685395 -0.728149 
-0.00744209 0.572261 -0.820038 
-0.0111979 0.460161 -0.887765 
-0.0145283 0.362463 -0.931885 
-0.0187427 0.278946 -0.960124 
-0.0225073 0.221428 -0.974917 
-0.0252428 0.175154 -0.984217 
-0.0268529 0.138532 -0.989994 
-0.0286692 0.111395 -0.993363 
-0.0301218 0.0886589 -0.995606 
-0.0307355 0.0701467 -0.997063 
-0.0317668 0.0562232 -0.997913 
-0.0324296 0.0436603 -0.99852 
-0.0331874 0.0333711 -0.998892 
-0.0337272 0.0249873 -0.999119 
-0.0341459 0.018118 -0.999253 
-0.0344597 0.0126932 -0.999325 
-0.0350046 0.00845973 -0.999351 
-0.0356757 0.00530654 -0.999349 
-0.0365468 0.00304158 -0.999327 
-0.0370648 0.00161443 -0.999312 
-0.0376034 0.000728894 -0.999292 
-0.0381257 -1.33623e-05 -0.999273 
-0.0383139 -0.000930474 -0.999265 
-0.0381247 -0.00230606 -0.99927 
-0.0374702 -0.00459775 -0.999287 
-0.0368269 -0.00818916 -0.999288 
-0.0358059 -0.0136136 -0.999266 
-0.0357038 -0.0198879 -0.999165 
-0.0354596 -0.0282443 -0.998972 
-0.0329698 -0.0369648 -0.998773 
-0.0328221 -0.0446558 -0.998463 
-0.028084 -0.047433 -0.99848 
-0.0195767 -0.0349755 -0.999196 
-0.000645948 -0.000192987 -1 
0.000535838 -0.00104629 0.999999 
0.0096335 -0.0267706 0.999595 
0.0254172 -0.0486404 0.998493 
0.0275529 -0.0435982 0.998669 
0.0237056 -0.0344226 0.999126 
0.0316187 -0.0287799 0.999086 
0.0270426 -0.0229988 0.99937 
0.0294176 -0.0156105 0.999445 
0.0306292 -0.0100645 0.99948 
0.0316918 -0.00561891 0.999482 
0.0288428 -0.00305722 0.999579 
0.0298003 -0.00120522 0.999555 
0.0297528 0.00032612 0.999557 
0.0295021 0.00141582 0.999564 
0.0290544 0.00243276 0.999575 
0.0294025 0.00372274 0.999561 
0.0283118 0.00576678 0.999583 
0.0278059 0.00874891 0.999575 
0.0270147 0.0126434 0.999555 
0.0260497 0.0178691 0.999501 
0.025722 0.024431 0.999371 
0.0251735 0.032891 0.999142 
0.0248158 0.0430321 0.998765 
0.0241468 0.0550623 0.998191 
0.0239187 0.0702699 0.997241 
0.0226923 0.0885892 0.99581 
0.0219224 0.113082 0.993344 
0.0208773 0.141246 0.989754 
0.0191022 0.179176 0.983632 
0.0187242 0.21848 0.975662 
0.0138347 0.274651 0.961444 
0.0115912 0.355087 0.934761 
0.00776292 0.428322 0.903593 
0.00526489 0.526084 0.850416 
0.00255742 0.72744 0.686167 
0.00125875 0.839334 0.543615 
0.00342318 0.895889 0.444265 
0.00285715 0.954712 0.297518 
0.00195296 0.985077 0.172103 
0.000550818 0.998716 0.0506622 
-0.00144548 0.981283 -0.192565 
-0.000768771 0.979983 -0.19908 
-0.00260382 0.875162 -0.483823 
-0.00320575 0.772766 -0.634683 
-0.00495164 0.660322 -0.750966 
-0.00485231 0.592251 -0.805739 
-0.00764789 0.511059 -0.859512 
-0.0102892 0.409064 -0.912447 
-0.0134856 0.312052 -0.949969 
-0.0166657 0.240622 -0.970476 
-0.0194927 0.192076 -0.981187 
-0.0208039 0.153279 -0.987964 
-0.0213707 0.119789 -0.992569 
-0.0230278 0.0964521 -0.995071 
-0.0236106 0.0768569 -0.996763 
-0.023581 0.0604093 -0.997895 
-0.0248448 0.0478428 -0.998546 
-0.025419 0.0365292 -0.999009 
-0.0258588 0.027587 -0.999285 
-0.0262339 0.0204213 -0.999447 
-0.0262396 0.0147132 -0.999547 
-0.0266629 0.0102791 -0.999592 
-0.0273373 0.00699045 -0.999602 
-0.0283308 0.00456566 -0.999588 
-0.0288338 0.00292209 -0.99958 
-0.0293378 0.0017773 -0.999568 
-0.03029 0.000772114 -0.999541 
-0.0305605 -0.000448974 -0.999533 
-0.0308306 -0.00202301 -0.999523 
-0.0302575 -0.00420427 -0.999533 
-0.0292987 -0.00762165 -0.999542 
-0.0291282 -0.0122281 -0.999501 
-0.0286583 -0.0187792 -0.999413 
-0.0287781 -0.0263117 -0.999239 
-0.0264787 -0.0368968 -0.998968 
-0.0259449 -0.0462909 -0.998591 
-0.020753 -0.0459742 -0.998727 
-0.0132084 -0.030276 -0.999454 
-0.000623352 -0.000388945 -1 
0.000284666 -0.000313233 1 
0.00810402 -0.0328116 0.999429 
0.0169924 -0.0422986 0.998961 
0.0179127 -0.0495546 0.998611 
0.0196796 -0.0445013 0.998815 
0.0194764 -0.0291268 0.999386 
0.0208432 -0.019782 0.999587 
0.0221025 -0.0133894 0.999666 
0.0233615 -0.00822575 0.999693 
0.0214102 -0.00487423 0.999759 
0.0208852 -0.00206625 0.99978 
0.021598 -0.000166645 0.999767 
0.0205204 0.00145449 0.999788 
0.020329 0.00263266 0.99979 
0.0205441 0.00380986 0.999782 
0.020075 0.00539653 0.999784 
0.0196873 0.0077503 0.999776 
0.0186116 0.0109364 0.999767 
0.0179311 0.0151985 0.999724 
0.0172728 0.020926 0.999632 
0.0173007 0.0281662 0.999454 
0.0168988 0.0372384 0.999164 
0.0164192 0.0478677 0.998719 
0.0164027 0.0612497 0.997988 
0.0160426 0.0771411 0.996891 
0.0157567 0.0982451 0.995038 
0.0147151 0.123446 0.992242 
0.0143112 0.155645 0.987709 
0.0123622 0.194319 0.980861 
0.0125262 0.232902 0.97242 
0.00932983 0.32564 0.945448 
0.00638493 0.408131 0.912901 
0.00489721 0.493601 0.869675 
0.00421944 0.594424 0.804141 
0.00380982 0.6432 0.765689 
0.00378089 0.752476 0.658609 
0.00386588 0.836145 0.548494 
0.00359182 0.867101 0.49812 
0.000543956 0.997926 0.0643618 
0.0029085 0.993821 0.110959 
0.000669434 0.996414 -0.0846138 
-0.0012452 0.950681 -0.310167 
-0.00290127 0.916497 -0.40003 
-0.00325885 0.818575 -0.57439 
-0.00300825 0.699066 -0.715051 
-0.00356765 0.559991 -0.828491 
-0.00603861 0.463855 -0.88589 
-0.00838629 0.367113 -0.930139 
-0.0105602 0.286157 -0.958125 
-0.012145 0.227999 -0.973586 
-0.0141118 0.18398 -0.982829 
-0.015166 0.146038 -0.989163 
-0.0144676 0.116852 -0.993044 
-0.0158915 0.093697 -0.995474 
-0.0163723 0.0742654 -0.997104 
-0.0156433 0.0590003 -0.998135 
-0.0172152 0.0459965 -0.998793 
-0.0173934 0.0353214 -0.999225 
-0.0175737 0.0267759 -0.999487 
-0.0177249 0.0199228 -0.999644 
-0.0176953 0.0144396 -0.999739 
-0.0180308 0.0103565 -0.999784 
-0.0188197 0.00731649 -0.999796 
-0.0195023 0.00519185 -0.999796 
-0.0200493 0.00360102 -0.999793 
-0.0206306 0.00235917 -0.999784 
-0.0215961 0.00112599 -0.999766 
-0.0218359 -0.000455789 -0.999761 
-0.022178 -0.00247988 -0.999751 
-0.0216461 -0.00504979 -0.999753 
-0.0208354 -0.00882498 -0.999744 
-0.0217324 -0.014353 -0.999661 
-0.0207568 -0.0210516 -0.999563 
-0.0212493 -0.0294697 -0.99934 
-0.0185921 -0.0396768 -0.99904 
-0.0194695 -0.0472522 -0.998693 
-0.0152962 -0.0483423 -0.998714 
-0.0108723 -0.0341334 -0.999358 
-0.000381946 -0.000457406 -1 
0.00021955 0.000302401 1 
0.00502228 -0.0326723 0.999453 
0.0116137 -0.0465687 0.998848 
0.012276 -0.0490306 0.998722 
0.0151019 -0.0399483 0.999088 
0.0135007 -0.0305018 0.999444 
0.014984 -0.021562 0.999655 
0.0151639 -0.0142971 0.999783 
0.0160844 -0.00921781 0.999828 
0.0146089 -0.00543338 0.999879 
0.0147161 -0.00247103 0.999889 
0.0143984 5.06221e-05 0.999896 
0.0135611 0.0019112 0.999906 
0.012902 0.00331456 0.999911 
0.0132448 0.00445584 0.999902 
0.0126441 0.00593934 0.999902 
0.0127263 0.00788024 0.999888 
0.0116497 0.0107468 0.999874 
0.0109385 0.0147108 0.999832 
0.010537 0.0199662 0.999745 
0.0105879 0.0268774 0.999583 
0.0105608 0.0353684 0.999319 
0.0100813 0.0456546 0.998906 
0.0103449 0.0582924 0.998246 
0.0101483 0.0736122 0.997235 
0.0104857 0.0929484 0.995616 
0.0097623 0.117014 0.993082 
0.00970985 0.14809 0.988926 
0.00851899 0.185356 0.982635 
0.0077419 0.235595 0.971821 
0.00838126 0.279491 0.960112 
0.00597743 0.353463 0.935429 
0.0047858 0.437502 0.899204 
0.004464 0.527081 0.849804 
0.00403242 0.70416 0.710029 
0.00388281 0.749803 0.66165 
0.00475009 0.876501 0.481377 
0.00374669 0.966419 0.256945 
0.00108838 0.951308 0.308241 
0.00617457 0.981974 0.188917 
0.00230958 0.999795 -0.020094 
-0.000183372 0.973256 -0.229723 
-0.00210365 0.854203 -0.519935 
-0.000437871 0.892119 -0.451801 
-0.00315353 0.717497 -0.696554 
-0.00283678 0.603943 -0.797022 
-0.00381932 0.465035 -0.885284 
-0.00526346 0.383024 -0.923723 
-0.0068675 0.306165 -0.951954 
-0.00790515 0.242784 -0.970048 
-0.00907562 0.192646 -0.981226 
-0.0101194 0.155208 -0.98783 
-0.00948988 0.124955 -0.992117 
-0.00994247 0.0980646 -0.99513 
-0.0105065 0.0783835 -0.996868 
-0.00983084 0.0621699 -0.998017 
-0.010674 0.0480763 -0.998787 
-0.0108983 0.0372421 -0.999247 
-0.010867 0.0282442 -0.999542 
-0.0108295 0.0210304 -0.99972 
-0.010861 0.0154375 -0.999822 
-0.0109791 0.0112305 -0.999877 
-0.0117359 0.00827092 -0.999897 
-0.0121851 0.00613925 -0.999907 
-0.0127983 0.0045314 -0.999908 
-0.0133815 0.00318896 -0.999905 
-0.0142416 0.00180442 -0.999897 
-0.01463 1.75771e-05 -0.999893 
-0.0149983 -0.00232513 -0.999885 
-0.0148319 -0.00512003 -0.999877 
-0.0144271 -0.00902833 -0.999855 
-0.0153337 -0.0143673 -0.999779 
-0.0145559 -0.0210402 -0.999673 
-0.0148246 -0.0296523 -0.99945 
-0.0127842 -0.0401029 -0.999114 
-0.0126346 -0.0486909 -0.998734 
-0.00959286 -0.0479392 -0.998804 
-0.00687726 -0.0328742 -0.999436 
-0.000248979 -0.000446293 -1 
0.000137468 0.000592597 1 
0.00357945 -0.0376024 0.999286 
0.00787208 -0.0492114 0.998757 
0.0074725 -0.0496988 0.998736 
0.0100747 -0.0419004 0.999071 
0.00933354 -0.0312226 0.999469 
0.0102748 -0.021343 0.999719 
0.0102288 -0.0147019 0.99984 
0.0104462 -0.00912331 0.999904 
0.00910437 -0.00518298 0.999945 
0.00944435 -0.00216046 0.999953 
0.0087965 0.000471598 0.999961 
0.00799413 0.00256171 0.999965 
0.00731397 0.00405787 0.999965 
0.00725392 0.00530479 0.99996 
0.00680914 0.00676023 0.999954 
0.00684749 0.00854297 0.99994 
0.00593577 0.0112493 0.999919 
0.00532413 0.0150903 0.999872 
0.00514235 0.0204207 0.999778 
0.00531024 0.0271949 0.999616 
0.00538921 0.035655 0.99935 
0.0052873 0.0462409 0.998916 
0.00555471 0.0588112 0.998254 
0.00574605 0.0744824 0.997206 
0.00616646 0.0942567 0.995529 
0.00604118 0.120267 0.992723 
0.00605934 0.151334 0.988464 
0.00564062 0.194732 0.98084 
0.00531031 0.246614 0.969099 
0.00532007 0.30772 0.951462 
0.00435166 0.390046 0.920785 
0.00425272 0.48659 0.87362 
0.00462659 0.582523 0.812801 
0.00421173 0.624295 0.781177 
0.0050181 0.801894 0.597446 
0.00465225 0.95499 0.296603 
0.00807091 0.98868 0.149823 
0.00693086 0.990232 0.139259 
0.00599199 0.998275 0.0584066 
0.00464719 0.999982 0.00382564 
0.00173909 0.997663 -0.0682997 
-0.000795186 0.92408 -0.382197 
-0.000100282 0.817813 -0.575484 
-0.00102446 0.744214 -0.667941 
-0.00152766 0.596656 -0.802496 
-0.00270226 0.488546 -0.872534 
-0.00325356 0.385375 -0.922754 
-0.00432472 0.313641 -0.949532 
-0.0050675 0.250367 -0.968138 
-0.00582875 0.197378 -0.98031 
-0.00626029 0.155823 -0.987765 
-0.00589085 0.122281 -0.992478 
-0.00578324 0.0975042 -0.995218 
-0.00597005 0.0773183 -0.996989 
-0.00556937 0.0597937 -0.998195 
-0.00571961 0.0468249 -0.998887 
-0.00574915 0.0361956 -0.999328 
-0.00555368 0.0274617 -0.999607 
-0.00539816 0.020493 -0.999775 
-0.0054784 0.0151374 -0.99987 
-0.0054956 0.0112693 -0.999921 
-0.00620193 0.00853437 -0.999944 
-0.00647499 0.00665677 -0.999957 
-0.00720592 0.00509266 -0.999961 
-0.00784079 0.00370876 -0.999962 
-0.00856055 0.00221612 -0.999961 
-0.00905483 0.000170714 -0.999959 
-0.00950397 -0.00250818 -0.999952 
-0.00964324 -0.0057401 -0.999937 
-0.00965001 -0.0101348 -0.999902 
-0.0102422 -0.0157128 -0.999824 
-0.00941921 -0.0222512 -0.999708 
-0.010099 -0.0297485 -0.999506 
-0.00844068 -0.0398972 -0.999168 
-0.0082156 -0.0491048 -0.99876 
-0.00607695 -0.0492677 -0.998767 
-0.00402498 -0.0321389 -0.999475 
-0.000165849 -0.000183448 -1 
7.61333e-05 0.0006884 1 
0.00177633 -0.0363257 0.999338 
0.00435249 -0.0508326 0.998698 
0.00439456 -0.0488573 0.998796 