# vtk DataFile Version 3.0 
Exported using Morpho https://github.com/Morpho-lang/morpho 
ASCII 
DATASET UNSTRUCTURED_GRID 

POINTS 1978 float 
-8.48529 -2.82843 1.43991e-13 
-8.25855 -2.82844 -3.25407e-12 
-8.03114 -2.82843 -2.04993e-12 
-7.7914 -2.82843 -2.42895e-12 
-7.50894 -2.82843 9.47433e-13 
-7.255 -2.82844 1.37874e-12 
-6.99504 -2.82842 -4.58006e-13 
-6.77535 -2.82844 1.00536e-12 
-6.55784 -2.82843 1.78613e-12 
-6.34997 -2.82843 -1.48022e-13 
-6.13373 -2.82843 2.57556e-12 
-5.92565 -2.82843 2.73125e-12 
-5.70793 -2.82843 8.8057e-13 
-5.5156 -2.82843 2.15269e-12 
-5.28505 -2.82843 2.29595e-12 
-5.08038 -2.82843 2.18579e-12 
-4.86811 -2.82843 3.75328e-12 
-4.66211 -2.82843 4.9147e-12 
-4.44816 -2.82843 5.85509e-12 
-4.23233 -2.82843 8.69627e-12 
-4.02206 -2.82843 9.30144e-12 
-3.82439 -2.82843 7.56195e-12 
-3.61631 -2.82843 5.17448e-12 
-3.40773 -2.82843 3.30353e-12 
-3.19014 -2.82843 1.5701e-11 
-2.97093 -2.82843 5.94716e-11 
-2.74621 -2.82843 2.00464e-10 
-2.50568 -2.82843 6.97615e-10 
-2.26503 -2.82843 2.26271e-09 
-2.02773 -2.82843 7.95651e-09 
-1.7855 -2.82843 2.54058e-08 
-1.58535 -2.82843 9.02938e-08 
-1.34085 -2.82843 3.58684e-07 
-1.15174 -2.82842 7.76248e-07 
-1.01686 -2.82843 1.48001e-06 
-0.889496 -2.8284 3.06429e-06 
-0.759739 -2.82843 1.01109e-05 
-0.639926 -2.82836 4.83676e-05 
-0.377318 -2.82838 6.27189e-05 
0.266185 -2.82858 -8.04818e-05 
0.431666 -2.82829 -5.06511e-05 
0.626507 -2.82838 -2.89751e-05 
0.729572 -2.82843 -7.91978e-06 
0.844687 -2.8284 -5.46217e-06 
1.04358 -2.82842 -2.46169e-06 
1.1999 -2.82842 -5.138e-07 
1.3845 -2.82844 -1.86401e-07 
1.59912 -2.82843 -6.59721e-08 
1.82172 -2.82843 -2.06753e-08 
2.06997 -2.82843 -6.46585e-09 
2.28996 -2.82843 -1.88795e-09 
2.54091 -2.82843 -6.99004e-10 
2.77498 -2.82843 -1.86752e-10 
2.97421 -2.82843 -3.77776e-11 
3.17147 -2.82843 -1.6692e-11 
3.39307 -2.82843 -5.03071e-12 
3.61483 -2.82843 -4.31184e-12 
3.81681 -2.82843 -9.32081e-12 
4.03458 -2.82843 -1.02552e-11 
4.25105 -2.82843 -6.36496e-12 
4.45263 -2.82843 -5.93713e-12 
4.66281 -2.82843 -4.67023e-12 
4.86324 -2.82843 -3.75524e-12 
5.0758 -2.82843 -3.40461e-12 
5.28084 -2.82843 -1.60921e-12 
5.50113 -2.82843 -1.21146e-12 
5.70496 -2.82843 -2.42442e-12 
5.92417 -2.82843 -1.8478e-12 
6.14957 -2.82843 -6.10682e-13 
6.35537 -2.82843 -1.77499e-12 
6.58861 -2.82843 -1.61415e-12 
6.80456 -2.82843 -8.13751e-13 
7.00698 -2.82843 -1.24328e-12 
7.28907 -2.82843 -7.7462e-13 
7.50835 -2.82844 5.72758e-13 
7.75013 -2.82843 6.12645e-13 
8.03107 -2.82843 2.17957e-12 
8.22199 -2.82844 2.92701e-12 
8.48528 -2.82843 1.07169e-12 
-8.48529 -2.58598 -4.49715e-13 
-8.25878 -2.58907 3.62431e-12 
-8.02276 -2.58931 -7.58966e-13 
-7.79055 -2.60051 -2.36871e-12 
-7.54679 -2.64012 -2.40147e-12 
-7.25802 -2.62472 1.17907e-12 
-7.00439 -2.60811 1.6612e-12 
-6.76712 -2.59887 1.82282e-12 
-6.54372 -2.58506 2.54213e-12 
-6.31511 -2.59674 1.76382e-12 
-6.09269 -2.58696 1.96537e-12 
-5.86985 -2.59705 3.90272e-12 
-5.66717 -2.56367 3.68554e-12 
-5.44427 -2.60969 1.92144e-12 
-5.23045 -2.58302 1.84315e-12 
-5.01526 -2.59297 6.6067e-13 
-4.80227 -2.58709 1.42312e-12 
-4.58631 -2.59709 8.28496e-13 
-4.36463 -2.60001 4.57493e-12 
-4.14636 -2.5948 1.11247e-11 
-3.93877 -2.57979 2.1335e-11 
-3.72875 -2.59142 2.67077e-11 
-3.51267 -2.58931 2.80297e-11 
-3.29196 -2.59446 2.43884e-11 
-3.06376 -2.58911 2.34221e-11 
-2.83236 -2.58898 4.07808e-12 
-2.59243 -2.60116 -7.94414e-11 
-2.3411 -2.60116 -4.17279e-10 
-2.09312 -2.60294 -1.87049e-09 
-1.84913 -2.61681 -4.72444e-09 
-1.61628 -2.593 -8.00464e-09 
-1.42117 -2.65579 -7.60756e-08 
-1.20672 -2.64013 2.15479e-08 
-1.04198 -2.61671 7.96308e-07 
-0.91559 -2.65234 9.39946e-07 
-0.869603 -2.51776 1.10006e-06 
-0.784454 -2.68928 -1.13582e-06 
-0.574973 -2.77278 -3.03581e-05 
-0.284825 -2.85007 0.000128433 
0.171071 -2.85693 -2.63263e-06 
0.289246 -2.75202 7.95544e-06 
0.572466 -2.75739 1.53152e-05 
0.748576 -2.66824 -1.65932e-07 
0.841896 -2.59664 -1.79371e-06 
0.954603 -2.70707 1.63792e-06 
1.14514 -2.62965 1.4694e-07 
1.32709 -2.62892 -4.52369e-08 
1.52913 -2.62803 8.2296e-09 
1.76039 -2.61109 5.99359e-09 
2.00262 -2.62025 2.32738e-09 
2.25203 -2.58324 2.81979e-10 
2.48446 -2.61055 1.1101e-10 
2.74041 -2.59669 2.97247e-11 
2.9748 -2.55921 -4.10209e-11 
3.19992 -2.5936 -1.68837e-11 
3.42923 -2.59787 -2.26836e-11 
3.63797 -2.57844 -2.43411e-11 
3.85852 -2.59934 -2.20416e-11 
4.08185 -2.60008 -1.3925e-11 
4.29153 -2.58393 -7.26054e-12 
4.50405 -2.59432 -2.36439e-12 
4.71197 -2.58229 -1.30681e-12 
4.92559 -2.59624 -7.7577e-13 
5.13813 -2.58667 -1.41877e-12 
5.35879 -2.60298 -1.17687e-12 
5.57297 -2.58284 -2.97404e-12 
5.79079 -2.59836 -4.43889e-12 
6.01912 -2.60235 -2.58916e-12 
6.23776 -2.57781 -1.82492e-12 
6.46066 -2.6056 -1.75024e-12 
6.68828 -2.58499 -1.04731e-12 
6.89923 -2.56661 -2.68302e-12 
7.13533 -2.6399 -1.88972e-12 
7.38042 -2.58385 4.05824e-12 
7.61085 -2.60663 -1.61614e-12 
7.87427 -2.63705 3.52308e-12 
8.08465 -2.54632 -1.04471e-12 
8.30838 -2.62202 -3.48929e-12 
8.48529 -2.52201 -1.8751e-12 
-8.48528 -2.3426 -2.56388e-13 
-8.24807 -2.35666 3.7778e-13 
-8.01162 -2.34816 3.5294e-13 
-7.76664 -2.37718 -1.09593e-12 
-7.55295 -2.23906 -1.13531e-12 
-7.48857 -2.45272 5.70585e-14 
-7.20725 -2.41979 4.89544e-13 
-6.9754 -2.362 -2.05822e-12 
-6.74844 -2.37359 9.19562e-13 
-6.4998 -2.3621 -1.59491e-12 
-6.26623 -2.36542 1.04595e-12 
-6.03251 -2.35798 2.81372e-13 
-5.82586 -2.33833 3.30142e-14 
-5.58002 -2.35502 8.33459e-13 
-5.37158 -2.36333 5.76321e-13 
-5.14227 -2.35491 4.39157e-13 
-4.92507 -2.3559 1.3573e-13 
-4.70184 -2.36011 6.54347e-13 
-4.48031 -2.37425 1.4682e-12 
-4.25865 -2.36902 2.93729e-12 
-4.04739 -2.34678 4.72434e-12 
-3.8315 -2.34774 7.09447e-12 
-3.62023 -2.35643 9.80628e-12 
-3.40052 -2.35759 1.67375e-11 
-3.17995 -2.36 3.21852e-11 
-2.94992 -2.35325 7.52357e-11 
-2.71523 -2.36104 2.23747e-10 
-2.4777 -2.37529 7.34322e-10 
-2.23313 -2.37538 2.53134e-09 
-1.9888 -2.38675 8.80362e-09 
-1.75891 -2.39194 2.67505e-08 
-1.53399 -2.38407 7.69536e-08 
-1.34404 -2.46311 1.82509e-07 
-1.15933 -2.4285 2.64626e-07 
-1.01613 -2.40397 -2.36879e-07 
-0.83205 -2.38839 -4.46995e-08 
-0.6986 -2.64671 2.59787e-06 
-0.477143 -2.72573 -4.52212e-06 
-0.275207 -2.71014 2.1979e-05 
0.0568121 -2.8069 -1.52532e-05 
0.352377 -2.69671 -1.06338e-05 
0.465634 -2.69715 -3.71738e-06 
0.660148 -2.5377 -1.92219e-06 
0.750709 -2.44784 -2.08733e-06 
1.01608 -2.53492 -1.26954e-06 
1.12748 -2.37786 -2.76423e-07 
1.27309 -2.43658 -2.09684e-07 
1.46642 -2.4165 -9.72494e-08 
1.67714 -2.41278 -3.6903e-08 
1.92774 -2.4049 -1.16217e-08 
2.16581 -2.37693 -3.34136e-09 
2.42484 -2.36299 -9.49757e-10 
2.65504 -2.3846 -3.02592e-10 
2.89693 -2.33962 -9.42649e-11 
3.14344 -2.34776 -4.70012e-11 
3.36242 -2.36921 -1.88634e-11 
3.58007 -2.33606 -1.60695e-11 
3.79605 -2.36266 -7.58183e-12 
4.0131 -2.37444 -4.85591e-12 
4.22804 -2.35028 -3.6956e-12 
4.44352 -2.35601 -1.47141e-12 
4.65013 -2.34639 -8.7392e-13 
4.86592 -2.35781 -3.52668e-13 
5.07494 -2.35365 -6.41793e-13 
5.29627 -2.37028 -8.48133e-13 
5.50881 -2.35213 -1.14668e-12 
5.73144 -2.35938 -2.77694e-13 
5.94986 -2.37556 -3.28185e-13 
6.16999 -2.34854 -2.91498e-13 
6.40231 -2.36215 5.41061e-13 
6.617 -2.35953 -1.86208e-13 
6.83977 -2.31829 -1.95681e-13 
7.07201 -2.39194 -2.70161e-13 
7.28708 -2.38704 -1.10779e-12 
7.55126 -2.36316 2.84635e-12 
7.78364 -2.42049 6.79097e-13 
7.99466 -2.32847 -3.89252e-13 
8.25033 -2.35604 -1.21833e-12 
8.48529 -2.29239 -9.4577e-13 
-8.48528 -2.11063 2.10391e-12 
-8.25159 -2.11178 1.26629e-12 
-8.03798 -2.11168 -6.59828e-13 
-7.79604 -2.14369 1.21843e-12 
-7.50641 -2.03157 4.06085e-13 
-7.29894 -2.23559 -9.91499e-13 
-7.05902 -2.14607 1.67372e-12 
-6.80334 -2.13357 -1.0157e-12 
-6.58385 -2.14741 -9.31202e-14 
-6.34511 -2.13429 -6.87789e-13 
-6.12519 -2.13176 -5.87802e-13 
-5.91526 -2.09348 -6.59372e-14 
-5.69108 -2.13656 -3.82049e-13 
-5.47189 -2.1121 -1.27675e-13 
-5.26129 -2.13471 -4.25641e-13 
-5.04076 -2.12166 -8.1585e-13 
-4.8232 -2.12978 -1.24926e-12 
-4.60257 -2.13787 -1.40015e-12 
-4.38967 -2.14493 -1.30811e-12 
-4.18239 -2.12263 -1.19581e-12 
-3.96711 -2.11444 -1.11079e-12 
-3.75507 -2.11338 1.52705e-12 
-3.54235 -2.12521 5.9562e-12 
-3.32397 -2.12311 1.47615e-11 
-3.10097 -2.12766 2.47731e-11 
-2.86675 -2.12339 4.11274e-11 
-2.63191 -2.1317 6.21305e-11 
-2.3935 -2.14638 2.54609e-10 
-2.14524 -2.15457 5.48513e-10 
-1.90769 -2.16334 2.03738e-09 
-1.68186 -2.16924 3.16219e-09 
-1.48588 -2.14232 2.53394e-09 
-1.32041 -2.2458 -5.96125e-09 
-1.16466 -2.18866 -5.44893e-08 
-0.97851 -2.25369 1.10984e-07 
-0.77588 -2.27328 -3.09756e-07 
-0.717352 -2.51698 -9.42195e-07 
-0.572293 -2.64602 4.02384e-06 
-0.172209 -2.81917 -2.15391e-05 
0.128565 -2.72134 -3.08848e-05 
0.360377 -2.59176 -1.75016e-05 
0.607838 -2.64919 -8.50011e-06 
0.558918 -2.43298 1.34094e-06 
0.913518 -2.42287 -3.80411e-07 
0.967701 -2.27007 2.59807e-07 
1.1295 -2.16977 -5.87518e-08 
1.31446 -2.21553 3.14188e-08 
1.51274 -2.19181 -9.46901e-09 
1.74529 -2.20712 -8.32207e-09 
1.9823 -2.17455 -3.13219e-09 
2.23624 -2.15785 -7.84893e-10 
2.47916 -2.12628 -2.49371e-10 
2.70769 -2.14879 -1.02453e-10 
2.96204 -2.12307 -3.71443e-11 
3.1874 -2.11234 -1.73371e-11 
3.39925 -2.12712 -5.02218e-12 
3.62209 -2.10384 -2.60805e-12 
3.83749 -2.13357 -3.82235e-12 
4.04893 -2.1385 1.78841e-12 
4.26927 -2.12101 1.30276e-12 
4.47552 -2.11366 1.29381e-12 
4.69381 -2.11896 1.04687e-12 
4.90211 -2.11775 2.49698e-13 
5.12482 -2.13133 4.55552e-13 
5.33417 -2.12961 5.30732e-13 
5.55824 -2.12538 2.83739e-13 
5.7781 -2.12804 1.60258e-13 
5.9921 -2.13638 4.5431e-13 
6.23005 -2.12873 5.85942e-13 
6.44488 -2.1159 6.10259e-13 
6.66061 -2.1144 7.1532e-13 
6.92098 -2.11389 2.39156e-12 
7.1288 -2.14106 -1.69017e-12 
7.36915 -2.17631 -4.29383e-13 
7.57041 -2.08618 -2.41137e-12 
7.76 -2.17876 2.02854e-12 
7.97177 -2.0827 -2.29764e-13 
8.19727 -2.13884 -1.01933e-12 
8.48528 -2.10317 -2.148e-13 
-8.4853 -1.80816 1.84161e-12 
-8.31591 -1.86926 4.39988e-12 
-7.90134 -1.90296 -6.65808e-13 
[...]
POINT_DATA 1978 
VECTORS vectors float
-0.000103781 -0.000580939 1 
-1.58359e-05 -0.00073292 1 
1.15029e-05 -0.000841235 1 
4.35389e-05 -0.000959248 1 
8.33825e-05 -0.00113441 1 
0.0001097 -0.00135735 1 
0.000135863 -0.00162418 1 
0.000156896 -0.00192378 1 
0.000155581 -0.00224922 1 
0.000159508 -0.00257396 0.999999 
0.000152584 -0.00293297 0.999999 
0.000148472 -0.00329405 0.999997 
0.000137183 -0.00369125 0.999996 
0.000135271 -0.00404342 0.999994 
0.000147904 -0.00445202 0.999993 
0.000171601 -0.00481823 0.999991 
0.000201831 -0.00517929 0.999989 
0.00023155 -0.00547625 0.999988 
0.000245514 -0.00567719 0.999986 
0.000225407 -0.00571151 0.999986 
0.000164408 -0.00553715 0.999987 
6.81689e-05 -0.00511432 0.99999 
-8.91975e-05 -0.00429222 0.999993 
-0.000344767 -0.00288396 0.999998 
-0.000674916 -0.000573697 1 
-0.00104961 0.00278133 0.999998 
-0.00153947 0.00740232 0.999974 
-0.0022906 0.0140179 0.999902 
-0.00343674 0.0236174 0.999718 
-0.00532394 0.0377318 0.999277 
-0.00781104 0.059823 0.998182 
-0.0119519 0.0890479 0.995961 
-0.0180946 0.140394 0.98994 
-0.0235585 0.207258 0.978017 
-0.0268041 0.277016 0.960508 
-0.0298268 0.355627 0.93417 
-0.0410348 0.458102 0.887968 
-0.0447408 0.570201 0.820314 
-0.0207174 0.867576 0.4971 
0.0196336 0.938037 -0.346143 
0.038383 0.778451 -0.626535 
0.0507033 0.576942 -0.815234 
0.0372339 0.485264 -0.873589 
0.0391556 0.391657 -0.919303 
0.0341444 0.257673 -0.965652 
0.0214275 0.185215 -0.982476 
0.0158975 0.128817 -0.991549 
0.0112807 0.0853378 -0.996293 
0.00729844 0.057073 -0.998347 
0.00491075 0.0362416 -0.999334 
0.00312361 0.023814 -0.999715 
0.00238633 0.0140307 -0.999902 
0.00161395 0.00724093 -0.999975 
0.00105974 0.00289569 -0.999997 
0.000795717 -0.000329854 -1 
0.000485085 -0.00289329 -0.999998 
0.000138179 -0.00448976 -0.999993 
-0.000106457 -0.00524486 -0.999989 
-0.000210416 -0.00556219 -0.999987 
-0.00021803 -0.00569202 -0.999986 
-0.000215533 -0.00568747 -0.999986 
-0.000212906 -0.00553547 -0.999987 
-0.000201139 -0.00526548 -0.999989 
-0.000184195 -0.0048881 -0.999991 
-0.000160575 -0.00449321 -0.999993 
-0.000146762 -0.00407748 -0.999994 
-0.000147024 -0.00369554 -0.999996 
-0.000162555 -0.0032889 -0.999997 
-0.000163774 -0.0028824 -0.999999 
-0.000169835 -0.00252872 -1 
-0.000166768 -0.00215635 -1 
-0.000141331 -0.00184416 -1 
-0.000137444 -0.00158341 -1 
-0.000111119 -0.001282 -1 
-6.28379e-05 -0.00111031 -1 
-3.53744e-05 -0.000981953 -1 
-1.20557e-05 -0.000877243 -1 
1.43972e-05 -0.000811011 -1 
7.02263e-05 -0.000688961 -1 
-0.000349196 -0.000796907 1 
-0.000153625 -0.000854398 1.00001 
-5.5297e-05 -0.00092401 1 
1.02289e-05 -0.00101069 1.00001 
6.29477e-05 -0.00113591 1.00001 
0.00011533 -0.001369 1.00001 
0.000170646 -0.00162292 1 
0.000200177 -0.00192115 1 
0.000225924 -0.00222263 1 
0.000204674 -0.00256145 1 
0.000189214 -0.00291847 1 
0.000150549 -0.00330729 1 
0.000147427 -0.00367591 0.999999 
0.000144568 -0.00411686 0.999997 
0.000214637 -0.00453195 0.999995 
0.000313746 -0.004933 0.999993 
0.000461647 -0.00527934 0.999991 
0.000597317 -0.00552325 0.99999 
0.00072915 -0.00561078 0.999989 
0.000844679 -0.00547202 0.99999 
0.000936821 -0.00505977 0.999992 
0.000862685 -0.00432824 0.999996 
0.000783216 -0.0030701 1 
0.000648432 -0.00110928 1 
0.000538918 0.00189403 1 
0.000416863 0.00613141 0.999987 
0.00022815 0.0121753 0.999932 
-1.67915e-05 0.0214196 0.999776 
-0.000333305 0.0351262 0.999388 
-0.000836678 0.0557214 0.998451 
-0.000754179 0.0867943 0.99623 
-0.00192641 0.124077 0.992275 
-0.00124706 0.187547 0.982257 
0.00254249 0.259721 0.96568 
0.00144946 0.33584 0.941918 
0.041006 0.340914 0.939199 
0.00380367 0.427416 0.904044 
-0.0032708 0.638128 0.769913 
-0.0151186 0.920629 0.389904 
0.0139066 0.97459 -0.223363 
-0.0154966 0.89245 -0.450864 
0.00831495 0.631675 -0.775185 
-0.00811088 0.464231 -0.885675 
-0.0102047 0.3798 -0.925008 
0.0080215 0.311171 -0.95032 
0.00387598 0.21171 -0.977326 
0.00439381 0.148288 -0.988937 
0.00279794 0.101518 -0.994834 
0.00123601 0.0666794 -0.997779 
0.000538611 0.0429021 -0.999085 
-1.56703e-05 0.0269984 -0.999641 
-3.3617e-05 0.0167315 -0.999866 
-0.000155547 0.00879278 -0.999967 
-0.000304854 0.00370244 -1 
-0.000338515 6.4274e-05 -1.00001 
-0.000514352 -0.00246896 -1 
-0.000749846 -0.00391401 -0.999997 
-0.000802735 -0.00489579 -0.999993 
-0.000828182 -0.00538525 -0.99999 
-0.000810928 -0.00558938 -0.999989 
-0.000658991 -0.00560518 -0.999989 
-0.000539786 -0.00545305 -0.99999 
-0.000375362 -0.00514786 -0.999992 
-0.000268963 -0.00475658 -0.999994 
-0.000182901 -0.00430808 -0.999996 
-0.000161511 -0.0038691 -0.999998 
-0.000158557 -0.00344851 -0.999999 
-0.000180695 -0.00303095 -1 
-0.000220651 -0.00265226 -1 
-0.000211778 -0.00231408 -1 
-0.000223229 -0.00199302 -1 
-0.00021319 -0.00173162 -1 
-0.000130031 -0.00145864 -1 
-0.000111039 -0.00125414 -1 
-5.4277e-05 -0.00109471 -1.00001 
2.24772e-06 -0.000968962 -1 
6.68136e-05 -0.000935802 -1.00001 
0.000126032 -0.000861977 -1 
0.000285963 -0.000877462 -1 
-0.000349409 -0.00105444 1 
-0.000180171 -0.00100992 1.00001 
-6.26818e-05 -0.00103634 1.00001 
2.97308e-05 -0.00110189 1.00001 
0.000111819 -0.0012606 1 
0.000109538 -0.0012286 1.00001 
0.000193701 -0.00145708 1 
0.000263914 -0.0016992 1 
0.000292874 -0.00194106 1 
0.000309481 -0.00224939 1 
0.000288924 -0.00257068 1 
0.000241883 -0.00293169 1 
0.000203738 -0.00330113 1 
0.000184212 -0.00380536 0.999998 
0.000224331 -0.00426412 0.999996 
0.000353929 -0.00477113 0.999994 
0.000552191 -0.00519987 0.999992 
0.000813027 -0.00552978 0.99999 
0.0010761 -0.00567609 0.999989 
0.00133675 -0.00559862 0.999989 
0.00158151 -0.00525481 0.99999 
0.00172463 -0.00455209 0.999993 
0.00177106 -0.00346433 0.999998 
0.00180891 -0.00179859 1 
0.00184832 0.00058612 1 
0.00201356 0.00407269 0.999995 
0.00214445 0.00901819 0.999963 
0.00222988 0.0160906 0.999874 
0.00275152 0.0267196 0.999645 
0.0036341 0.0426081 0.999091 
0.00552346 0.0650683 0.997871 
0.0111162 0.0967205 0.995255 
0.0101672 0.136937 0.99053 
0.0244305 0.185135 0.982412 
0.0469112 0.234039 0.971096 
0.0846612 0.313718 0.945734 
0.0224843 0.497862 0.866959 
0.0330713 0.719075 0.694133 
0.0648723 0.891368 0.4486 
0.0121618 0.997604 -0.0679053 
-0.0364466 0.821781 -0.568622 
-0.0293101 0.726752 -0.686269 
-0.0681833 0.498438 -0.864237 
-0.0788904 0.393681 -0.915854 
-0.011838 0.26484 -0.964219 
-0.0321239 0.19667 -0.979946 
-0.0123464 0.15808 -0.987352 
-0.00802133 0.110514 -0.993846 
-0.0049945 0.0760641 -0.997095 
-0.00353311 0.0489142 -0.998802 
-0.00312518 0.0316051 -0.999501 
-0.00256204 0.0188765 -0.999824 
-0.00169431 0.0111919 -0.999942 
-0.00177445 0.0053593 -0.99999 
-0.00154674 0.00129836 -1 
-0.00142739 -0.00132004 -1 
-0.00167157 -0.00311544 -0.999999 
-0.00158956 -0.00436475 -0.999995 
-0.001498 -0.00514167 -0.999991 
-0.00138627 -0.00556494 -0.999989 
-0.00113534 -0.00570717 -0.999988 
-0.000891582 -0.00563273 -0.999989 
-0.000627924 -0.00534859 -0.999991 
-0.000430061 -0.00495617 -0.999993 
-0.000281979 -0.00446049 -0.999995 
-0.00021957 -0.0039778 -0.999997 
-0.000213098 -0.00349613 -0.999999 
-0.000241416 -0.00307578 -1 
-0.00028543 -0.00269146 -1 
-0.000312127 -0.00235329 -1 
-0.000314519 -0.00207627 -1 
-0.000295643 -0.00182239 -1 
-0.00023804 -0.0015755 -1 
-0.000181778 -0.00138484 -1 
-0.000101605 -0.00120396 -1.00001 
-2.36866e-05 -0.00107079 -1.00001 
4.36674e-05 -0.00103833 -1.00001 
0.000147338 -0.0010001 -1.00001 
0.000263517 -0.00106347 -1 
-0.000232913 -0.00121056 1 
-0.000124526 -0.00113139 1.00001 
-4.29821e-05 -0.00112708 1.00001 
3.89049e-05 -0.00117343 1.00001 
0.000143169 -0.00134964 1 
0.000188618 -0.00143168 1 
0.000252459 -0.00165037 1.00001 
0.000302791 -0.00189951 1 
0.000322565 -0.00212797 1 
0.000312667 -0.00241103 1 
0.000279557 -0.00271922 1 
0.000244865 -0.00306657 1 
0.000209366 -0.00353309 0.999999 
0.000234004 -0.00404901 0.999997 
0.000315642 -0.00456992 0.999995 
0.000498277 -0.00510175 0.999992 
0.000756586 -0.00553273 0.99999 
0.00108212 -0.00581209 0.999988 
0.00142428 -0.00586961 0.999987 
0.00179469 -0.00570826 0.999987 
0.00217293 -0.00520847 0.999989 
0.00252895 -0.00434818 0.999993 
0.00284267 -0.0030531 0.999997 
0.00326041 -0.00122653 0.999999 
0.00373002 0.00135668 0.999998 
0.0044635 0.00506663 0.999983 
0.00533285 0.0102483 0.999939 
0.00650767 0.0177148 0.999828 
0.00887989 0.0289042 0.999548 
0.0129534 0.0447209 0.998921 
0.0201005 0.0664141 0.997595 
0.0332956 0.0884756 0.995525 
0.0379629 0.125825 0.99133 
0.0618114 0.150015 0.986754 
0.0843304 0.213648 0.973266 
0.133626 0.294948 0.946124 
0.0738932 0.44272 0.893609 
0.0501991 0.604717 0.794853 
0.00509851 0.969316 0.245656 
-0.0184482 0.973551 -0.227671 
-0.105558 0.78324 -0.612685 
-0.0259624 0.584926 -0.810663 
-0.151397 0.50771 -0.848113 
-0.0509556 0.29103 -0.955357 
-0.0795321 0.22602 -0.970872 
-0.0641539 0.158199 -0.985324 
-0.0371119 0.125864 -0.991357 
-0.0253283 0.0898937 -0.995635 
-0.0151344 0.0615547 -0.997994 
-0.0111364 0.0404228 -0.999126 
-0.00789212 0.0253667 -0.999653 
-0.00617913 0.015229 -0.999871 
-0.00446758 0.00888351 -0.999956 
-0.00374984 0.00369787 -0.999992 
-0.00325817 0.000503422 -1 
-0.00281613 -0.00170088 -1 
-0.00261729 -0.00345793 -0.999996 
-0.00225241 -0.00461075 -0.999992 
-0.00195332 -0.00535818 -0.999989 
-0.00163247 -0.00580405 -0.999987 
-0.0013 -0.00591819 -0.999987 
-0.000956559 -0.00577132 -0.999988 
-0.000676098 -0.00544058 -0.99999 
-0.000442643 -0.00494075 -0.999993 
-0.000308076 -0.00441761 -0.999995 
-0.000244374 -0.00385585 -0.999998 
-0.000241738 -0.00335384 -1 
-0.000270059 -0.00293655 -1 
-0.000308668 -0.00254965 -1 
-0.000328286 -0.00226308 -1 
-0.000325213 -0.00202092 -1 
-0.000290307 -0.00176521 -1 
-0.000242109 -0.00157726 -1 
-0.000172249 -0.00138463 -1 
-0.000117835 -0.00128153 -1 
-4.95439e-05 -0.00116121 -1.00001 
7.27817e-06 -0.0011292 -1 
9.2754e-05 -0.00108583 -1.00001 
0.000193184 -0.00115235 -1 
-7.11843e-05 -0.00129084 1 
-5.8736e-05 -0.00122356 1 
4.84006e-05 -0.00121962 1 
0.000110289 -0.00129427 1 
0.000190213 -0.00145163 1.00001 
0.000208974 -0.001511 1 
0.000254603 -0.00163937 1 
0.000289271 -0.00178637 1 
0.000326663 -0.00199991 1 
0.00033697 -0.00221916 1 
0.000330012 -0.00248378 1 
0.000309526 -0.00278414 1 
0.000277524 -0.00324893 1 
0.000273759 -0.00374225 0.999998 
0.000334607 -0.00435037 0.999996 
0.000456628 -0.00492103 0.999993 
0.000689038 -0.00548793 0.99999 
0.00100414 -0.00590747 0.999987 
0.00139006 -0.00613858 0.999985 
0.00181205 -0.00614589 0.999985 
0.0023076 -0.00585595 0.999985 
0.00286414 -0.0052257 0.999987 
0.0034607 -0.00417976 0.999991 
0.00411905 -0.00270693 0.999993 
0.00495327 -0.000621622 0.999993 
0.00596335 0.00223641 0.999985 
0.00740111 0.0062254 0.999959 
0.00925112 0.0118014 0.999895 
0.0122693 0.0201667 0.999726 
0.0177886 0.0317049 0.999346 
0.0267025 0.0469878 0.998543 
0.0419778 0.0613716 0.997238 
0.0587293 0.0912235 0.994101 
0.0883818 0.114749 0.989459 
0.111696 0.164446 0.980044 
0.153725 0.217285 0.963928 
0.139333 0.435231 0.88947 
0.111909 0.559684 0.821113 
0.0614087 0.792672 0.606534 
0.0649018 0.947589 0.31278 
-0.059044 0.947147 -0.315274 
-0.0886915 0.643618 -0.760179 
-0.123854 0.329066 -0.93615 
-0.134628 0.233014 -0.96311 
-0.111726 0.159973 -0.980781 
-0.0876819 0.108264 -0.990252 
-0.0583497 0.097907 -0.993488 
-0.0431542 0.0704593 -0.996586 
-0.0284115 0.0561256 -0.998024 
-0.0199982 0.0379851 -0.999084 
-0.0137523 0.0247031 -0.999606 
-0.0102114 0.0146904 -0.999846 
-0.00757265 0.00805018 -0.999945 
-0.00592842 0.00398453 -0.99998 
-0.00501437 0.000465394 -0.999993 
-0.00419212 -0.00182685 -0.999995 
-0.00357153 -0.00344999 -0.999993 
-0.00293819 -0.00475796 -0.99999 
-0.00242916 -0.00555434 -0.999987 
-0.00196793 -0.00601996 -0.999985 
-0.0015369 -0.00620684 -0.999985 
-0.00114363 -0.00605498 -0.999986 
-0.000821169 -0.00571455 -0.999989 
-0.000564449 -0.00519596 -0.999992 
-0.000405314 -0.00461492 -0.999995 
-0.000317625 -0.0040275 -0.999997 
-0.000294801 -0.00346053 -0.999999 
-0.000307881 -0.00299053 -1 
-0.000326672 -0.00262126 -1 
-0.00034777 -0.00231211 -1 
-0.000343571 -0.00207817 -1 
-0.000316032 -0.00186984 -1 
-0.00026977 -0.00166576 -1.00001 
-0.000211138 -0.00149384 -1 
-0.000155363 -0.00136565 -1 
-7.73722e-05 -0.00123472 -1 
-1.49803e-05 -0.00118252 -1.00001 
7.11206e-05 -0.00115899 -1 
0.000102776 -0.00122088 -1 
2.43979e-05 -0.00132053 1 
5.25068e-05 -0.00126349 1.00001 
3.62431e-06 -0.00120553 1.00001 
0.000102668 -0.00128041 1 
0.000151925 -0.00136307 1 
0.000240964 -0.00158763 1 
0.000297096 -0.0017813 1 
0.000327477 -0.00192177 1 
0.00035853 -0.00213073 1 
0.000366346 -0.0023342 1 
0.000367625 -0.0026001 1 
0.000346996 -0.0029866 1 
0.000348408 -0.00346262 0.999999 
0.000370478 -0.00402723 0.999997 
0.000461389 -0.00467808 0.999994 
0.000612623 -0.00528122 0.999991 
0.000869878 -0.00584767 0.999988 
0.00120619 -0.00625389 0.999985 
0.00160416 -0.00648932 0.999983 
0.00208821 -0.00647957 0.999982 
0.00266407 -0.00619747 0.999982 
0.0033408 -0.00558326 0.999984 
0.00410448 -0.00460724 0.999986 
0.00499148 -0.00316628 0.999988 
0.0060805 -0.00129701 0.999986 
0.00740727 0.00128381 0.999977 
0.00922265 0.00455596 0.999953 
0.01171 0.00898019 0.999896 
0.0152577 0.0154407 0.999771 
0.0216658 0.0229724 0.999506 
0.0308698 0.0329136 0.998988 
0.0478949 0.0433972 0.997914 
0.0698442 0.0642522 0.995491 
0.0970403 0.0676226 0.992985 
0.130502 0.103901 0.985992 
0.173839 0.140769 0.974663 
0.201099 0.347556 0.91584 
0.199486 0.539824 0.817791 
0.163041 0.803098 0.573051 
0.00892695 0.995381 0.0955266 
-0.113744 0.897278 -0.426486 
-0.251968 0.517354 -0.817818 
-0.20376 0.281572 -0.937657 
-0.189143 0.185102 -0.964347 
-0.147654 0.118535 -0.981914 
-0.101943 0.0736721 -0.992063 
-0.0675317 0.0614269 -0.995829 
-0.0454932 0.0458671 -0.997916 
-0.0316336 0.0358464 -0.998862 
-0.0222661 0.0256106 -0.99943 
-0.0156226 0.0166272 -0.999747 
-0.01115 0.00921123 -0.999901 
-0.00866982 0.00446305 -0.999958 
-0.0068945 0.00148412 -0.999981 
-0.00568724 -0.00129839 -0.999988 
-0.004747 -0.00317 -0.999989 
-0.00383582 -0.00454279 -0.999988 
-0.00312674 -0.00557604 -0.999985 
-0.00250996 -0.00618074 -0.999983 
-0.00197211 -0.00646891 -0.999982 
-0.00149151 -0.00648128 -0.999983 
-0.00111554 -0.00620464 -0.999985 
-0.000805257 -0.00572977 -0.999988 
-0.00059153 -0.00515679 -0.999992 
-0.000457921 -0.00452103 -0.999995 
-0.000383508 -0.00389495 -0.999998 
-0.000364515 -0.00332932 -1 
-0.000367229 -0.00286867 -1 
-0.000372966 -0.0025257 -1 
-0.000376631 -0.00225141 -1 
-0.000358907 -0.00203666 -1 
-0.000324419 -0.00185254 -1 
-0.000283564 -0.00169701 -1 
-0.000228272 -0.00153575 -1 
-0.000177307 -0.00141295 -1 
-0.000112846 -0.00129438 -1 
-7.06086e-05 -0.00124949 -1 
2.70377e-06 -0.0012197 -1 
4.32176e-05 -0.00127475 -1 
0.000105058 -0.00133896 1 
0.000121982 -0.00128928 1.00001 
9.42888e-05 -0.0012694 1 
0.000164266 -0.00136048 1.00001 
0.000203066 -0.00147154 1 
0.000247809 -0.0016142 1 
0.000286815 -0.00174992 1 
0.000325543 -0.00191317 1 
0.000356644 -0.00205767 1 
0.0003768 -0.0022445 1 
0.000388083 -0.00245712 1 
0.00039046 -0.00280703 1 
0.000394943 -0.00323861 1 
0.000414348 -0.0037908 0.999998 
0.000468179 -0.00442124 0.999995 
0.00058904 -0.00512839 0.999992 
0.000776518 -0.00574815 0.999988 
0.0010598 -0.00629193 0.999985 
0.00140466 -0.00667519 0.999982 
0.00185276 -0.00686402 0.99998 
0.00239341 -0.0068016 0.999979 
0.00304877 -0.00644824 0.99998 
0.00382896 -0.00575934 0.999981 
0.004773 -0.00463738 0.999983 
0.00587186 -0.00316051 0.999983 
0.00724773 -0.00114801 0.999979 
0.00895795 0.00129121 0.999965 
0.0113874 0.00443861 0.999931 
0.0151249 0.00887733 0.999852 
0.0208272 0.0137072 0.999695 
0.0301934 0.0188654 0.999372 
0.0431653 0.0249409 0.998762 
0.0667578 0.0341636 0.997191 
0.0939897 0.0298089 0.995132 
0.133547 0.0492175 0.989824 
0.183117 0.0646358 0.980967 
0.225458 0.241017 0.94397 
0.264623 0.436238 0.860031 
0.1307 0.685618 0.716126 
0.0274556 0.996039 0.0844337 
-0.178531 0.6568 -0.73261 
-0.198597 0.391371 -0.898545 
-0.283993 0.244588 -0.927099 
-0.178008 0.0587706 -0.982275 
-0.126678 0.048517 -0.990761 
-0.0869974 0.0288514 -0.995796 
-0.0653972 0.0339506 -0.997287 
-0.047092 0.0269296 -0.998533 
-0.0327019 0.0220448 -0.999229 
-0.0233493 0.0166456 -0.999593 
-0.0172865 0.0110463 -0.999794 
-0.0127907 0.00719422 -0.999898 
-0.0096171 0.0028735 -0.999955 
-0.0076168 0.000153108 -0.999977 
-0.00627697 -0.00188016 -0.999984 
-0.00505646 -0.00388275 -0.999985 
-0.00412303 -0.00505854 -0.999984 
-0.00330324 -0.00603858 -0.999981 
-0.00260903 -0.0066112 -0.99998 
-0.00203704 -0.00683722 -0.99998 
-0.00156339 -0.00678863 -0.999981 
-0.00115447 -0.00646622 -0.999984 
-0.000870358 -0.00597138 -0.999987 
-0.000654233 -0.00533381 -0.999991 
-0.00052603 -0.00469008 -0.999994 
-0.000448025 -0.00401369 -0.999997 
-0.000414969 -0.00342925 -0.999999 
-0.000403533 -0.00293196 -1 
-0.00039822 -0.00255912 -1 
-0.000390779 -0.00229897 -1 
-0.000368426 -0.0020786 -1 
-0.000336759 -0.0019011 -1 
-0.000292044 -0.00173809 -1 
-0.000239845 -0.00157143 -1 
-0.000198859 -0.00146188 -1 
-0.000148105 -0.00135006 -1 
-0.000114893 -0.0012975 -1 
-5.55013e-05 -0.00127046 -1 
-1.87854e-05 -0.00133133 -1 
0.000183922 -0.00135086 1 
0.000181095 -0.00130654 1 
0.000149414 -0.00131298 1 
0.000187565 -0.00139225 1 
0.000207373 -0.00147938 1 
0.000239988 -0.00164519 1 
0.000282185 -0.00180117 1 
0.000308877 -0.00196501 1 
0.00034404 -0.00211428 1 
0.00035562 -0.00228948 1 
0.000379651 -0.00255182 1 
0.000389301 -0.00289615 1 
0.000404471 -0.00335407 1 
0.000432798 -0.00392749 0.999998 
0.000496278 -0.00461699 0.999994 
0.000597612 -0.00530961 0.999992 
0.000774841 -0.00596466 0.999986 
0.00100218 -0.00651145 0.999983 
0.00131503 -0.00693481 0.999981 
0.0017233 -0.00718644 0.999978 
0.00223667 -0.00719248 0.999977 
0.00285536 -0.00691916 0.999977 
0.00361454 -0.00631755 0.999979 
0.00451101 -0.00536456 0.999981 
0.00564983 -0.0040013 0.999981 
0.00698314 -0.00236181 0.999978 
0.00876064 -0.000346144 0.999967 
0.0113587 0.00204644 0.999939 
0.0150996 0.00463659 0.999881 
0.0209344 0.00717272 0.99976 
0.0289873 0.00788074 0.999556 
0.0444524 0.012245 0.998941 
0.0626796 0.0104734 0.997985 
0.0805171 -0.00423263 0.99675 
0.119126 0.00378134 0.992877 
0.170206 0.0125517 0.985331 
0.244326 0.149564 0.958089 
0.336324 0.271908 0.901655 
0.246467 0.665525 0.704551 
0.0318372 0.996595 0.0764765 
-0.207426 0.774895 -0.597153 
-0.332782 0.346795 -0.876945 
-0.230239 0.121386 -0.965533 
-0.168315 0.000620579 -0.985736 
-0.115324 0.00657617 -0.993311 
-0.0760968 -0.00345072 -0.9971 
-0.0587308 0.00872026 -0.998243 
-0.0420992 0.0100256 -0.999068 
-0.0303555 0.0101694 -0.999493 
-0.0213765 0.00789062 -0.999746 
-0.015078 0.0050727 -0.99988 
-0.0111573 0.00271327 -0.99994 
-0.0082888 -0.000270969 -0.999971 
-0.00659148 -0.00228694 -0.999981 
-0.00544182 -0.00376283 -0.999983 
-0.00428732 -0.00527481 -0.999982 
-0.0035247 -0.00614932 -0.99998 
-0.00278801 -0.00683507 -0.999978 
-0.00219027 -0.0071551 -0.999977 
-0.00170304 -0.00716971 -0.999979 
-0.00130314 -0.00694894 -0.999979 
-0.00096889 -0.00648544 -0.999984 
-0.000749844 -0.00589599 -0.999987 
-0.000593125 -0.00523892 -0.999991 
-0.000497195 -0.00453017 -0.999995 
-0.000441936 -0.00387231 -0.999998 
-0.000412737 -0.00328838 -1 
-0.000395726 -0.00282109 -1 
-0.000380923 -0.00249646 -1 
-0.000367701 -0.00224265 -1 
-0.000343487 -0.00206759 -1 
-0.000322546 -0.00191746 -1 
-0.000283989 -0.00179392 -1 
-0.000251724 -0.00164352 -1 
-0.000210698 -0.00151262 -1 
-0.000171833 -0.00138527 -1 
-0.000149377 -0.001321 -1 
-0.000110044 -0.00131035 -1 
-0.000120253 -0.0013754 -1 
0.000273829 -0.00132018 1 
0.000226594 -0.00128537 1 
0.000182895 -0.00131918 1.00001 
0.000192087 -0.00140678 1 
0.0002085 -0.00152503 1 
0.000215649 -0.0016758 1 
0.000250575 -0.00180884 1 
0.000263282 -0.00196036 1 
0.00029478 -0.00212175 1 
0.000305153 -0.00231529 1 
0.000332438 -0.00256978 1 