# vtk DataFile Version 3.0 
Exported using Morpho https://github.com/Morpho-lang/morpho 
ASCII 
DATASET UNSTRUCTURED_GRID 

POINTS 1978 float 
-8.48528 -2.82843 -1.26681e-18 
-8.2586 -2.82843 -1.19615e-17 
-8.03082 -2.82843 -7.15645e-18 
-7.79188 -2.82843 -8.23157e-18 
-7.50861 -2.82843 3.49482e-18 
-7.25473 -2.82843 5.86595e-18 
-6.99656 -2.82843 4.46619e-18 
-6.77486 -2.82843 9.59174e-18 
-6.5577 -2.82843 1.41358e-17 
-6.34988 -2.82843 8.71254e-18 
-6.13363 -2.82843 1.8994e-17 
-5.92545 -2.82843 1.95574e-17 
-5.70782 -2.82843 1.27431e-17 
-5.51554 -2.82843 2.01303e-17 
-5.28504 -2.82843 2.6497e-17 
-5.0804 -2.82843 3.49142e-17 
-4.86813 -2.82843 5.02095e-17 
-4.66212 -2.82843 5.55623e-17 
-4.44818 -2.82843 4.13308e-17 
-4.23234 -2.82843 5.52719e-18 
-4.02214 -2.82843 -5.55693e-17 
-3.82444 -2.82843 -1.36656e-16 
-3.61635 -2.82843 -1.98667e-16 
-3.40773 -2.82843 -2.00647e-16 
-3.19009 -2.82843 -1.39705e-17 
-2.97089 -2.82843 4.82546e-16 
-2.74613 -2.82843 1.47782e-15 
-2.50564 -2.82843 3.47388e-15 
-2.265 -2.82843 6.95793e-15 
-2.02749 -2.82843 7.74317e-15 
-1.78536 -2.82843 5.48395e-14 
-1.5849 -2.82843 -1.06183e-13 
-1.34063 -2.82843 1.47548e-13 
-1.14972 -2.82843 3.95481e-12 
-1.02121 -2.82843 1.43621e-11 
-0.885499 -2.82843 2.41093e-11 
-0.754074 -2.82843 9.90375e-11 
-0.647006 -2.82843 2.52585e-10 
-0.374999 -2.82843 8.85639e-10 
0.275147 -2.82843 -3.06631e-10 
0.424734 -2.82843 -9.54027e-10 
0.622519 -2.82843 -7.68194e-12 
0.730871 -2.82843 -1.44752e-10 
0.847161 -2.82843 -3.1762e-11 
1.04254 -2.82843 8.2728e-12 
1.1995 -2.82843 9.56795e-13 
1.38477 -2.82843 9.30321e-13 
1.59878 -2.82843 2.98323e-13 
1.8217 -2.82843 2.81742e-14 
2.06986 -2.82843 -1.99936e-15 
2.28992 -2.82843 -7.28471e-15 
2.5411 -2.82843 -2.57735e-15 
2.7744 -2.82843 -9.03332e-16 
2.97409 -2.82843 -1.00981e-16 
3.17224 -2.82843 -1.92601e-16 
3.39269 -2.82843 9.57799e-17 
3.61491 -2.82843 1.69632e-16 
3.81684 -2.82843 1.00704e-16 
4.03454 -2.82843 4.66339e-17 
4.25107 -2.82843 5.50502e-18 
4.45264 -2.82843 -3.3884e-17 
4.6628 -2.82843 -4.92138e-17 
4.86325 -2.82843 -5.09811e-17 
5.07577 -2.82843 -4.1966e-17 
5.28084 -2.82843 -2.74024e-17 
5.50113 -2.82843 -1.95271e-17 
5.70499 -2.82843 -2.07038e-17 
5.92418 -2.82843 -1.86115e-17 
6.14958 -2.82843 -1.34608e-17 
6.35542 -2.82843 -1.60292e-17 
6.58862 -2.82843 -1.37631e-17 
6.80456 -2.82843 -8.28934e-18 
7.00701 -2.82843 -8.22181e-18 
7.28905 -2.82843 -4.52464e-18 
7.50837 -2.82843 1.45299e-18 
7.75012 -2.82843 2.18059e-18 
8.03107 -2.82843 7.65432e-18 
8.22201 -2.82843 1.02451e-17 
8.48528 -2.82843 5.75511e-18 
-8.48528 -2.58569 -3.70903e-18 
-8.2576 -2.59224 3.46608e-18 
-8.02793 -2.58692 -2.29249e-19 
-7.78591 -2.59903 -5.6531e-21 
-7.54116 -2.64609 9.5726e-20 
-7.2564 -2.62048 -2.41775e-19 
-6.99951 -2.60487 -4.01468e-18 
-6.77198 -2.59839 -3.67336e-18 
-6.54529 -2.58708 -5.5259e-18 
-6.31577 -2.59679 -5.7572e-18 
-6.09296 -2.58765 -7.09185e-18 
-5.87059 -2.59637 -6.5668e-18 
-5.66783 -2.56388 -6.30072e-18 
-5.44475 -2.60976 -8.2355e-18 
-5.23048 -2.58296 -1.24379e-17 
-5.01489 -2.59317 -1.99578e-17 
-4.80155 -2.58725 -2.63911e-17 
-4.58551 -2.59724 -2.52099e-17 
-4.36397 -2.60018 -1.37558e-17 
-4.14581 -2.5947 2.81154e-18 
-3.93812 -2.57998 1.7969e-17 
-3.72806 -2.59142 1.25395e-17 
-3.51176 -2.58922 -3.51499e-18 
-3.29083 -2.59453 5.03397e-17 
-3.06258 -2.58927 3.27196e-16 
-2.83153 -2.58954 1.53916e-15 
-2.59162 -2.60102 5.95395e-15 
-2.34136 -2.60093 -5.78735e-14 
-2.09422 -2.6035 -2.21249e-13 
-1.84922 -2.61625 -8.80585e-13 
-1.61814 -2.59328 -2.84224e-12 
-1.4223 -2.65471 -1.03092e-11 
-1.20745 -2.63633 -3.43055e-11 
-1.05431 -2.59503 -8.4476e-11 
-0.937573 -2.6772 -1.29977e-10 
-0.869546 -2.52911 -3.72468e-11 
-0.800114 -2.67822 -2.68771e-10 
-0.571081 -2.77455 -1.06339e-09 
-0.280744 -2.85092 -7.13039e-09 
0.174218 -2.85692 3.01737e-09 
0.244356 -2.69607 1.95081e-09 
0.606329 -2.74189 1.04679e-09 
0.76403 -2.6942 2.53377e-10 
0.832574 -2.58412 2.07246e-10 
0.947904 -2.70948 1.52584e-10 
1.14514 -2.63504 5.73888e-11 
1.32755 -2.63073 1.79279e-11 
1.52954 -2.62586 5.51405e-12 
1.76029 -2.61222 1.49192e-12 
2.00317 -2.6189 3.99845e-13 
2.25248 -2.58392 1.10198e-13 
2.48518 -2.6108 3.28137e-14 
2.7428 -2.59569 -3.35629e-15 
2.9741 -2.5654 -9.25618e-16 
3.19713 -2.59025 -6.50756e-17 
3.42695 -2.59813 1.14412e-16 
3.63741 -2.57871 4.15192e-17 
3.85827 -2.59904 1.86801e-17 
4.0817 -2.60023 -1.39205e-18 
4.29152 -2.58405 9.03072e-19 
4.50409 -2.59426 1.72302e-17 
4.71205 -2.58245 2.33679e-17 
4.92566 -2.5962 2.38792e-17 
5.13821 -2.58686 1.65702e-17 
5.35878 -2.60295 1.13691e-17 
5.57297 -2.58293 8.33328e-18 
5.79074 -2.59824 7.8317e-18 
6.01903 -2.60238 7.48574e-18 
6.23776 -2.57799 7.01297e-18 
6.4607 -2.6054 5.63937e-18 
6.68829 -2.58486 4.26324e-18 
6.8993 -2.56674 3.34196e-18 
7.13542 -2.63969 1.63223e-18 
7.38059 -2.5839 5.59586e-19 
7.61094 -2.60639 8.06419e-20 
7.87425 -2.63697 3.83067e-21 
8.08455 -2.54612 -1.66546e-19 
8.30834 -2.62184 -2.99114e-18 
8.48528 -2.52199 -4.67077e-18 
-8.48528 -2.34341 -6.16149e-19 
-8.25231 -2.35374 1.71104e-18 
-8.01023 -2.35071 2.03493e-19 
-7.76767 -2.38575 -2.2005e-20 
-7.55587 -2.23584 -4.62873e-20 
-7.49257 -2.4453 -7.12026e-19 
-7.20899 -2.4186 -1.07861e-18 
-6.97657 -2.3641 -2.12024e-18 
-6.74243 -2.37019 -2.53572e-18 
-6.49888 -2.36281 -3.11247e-18 
-6.26704 -2.36557 -3.58704e-18 
-6.03441 -2.35827 -2.52666e-18 
-5.82666 -2.33855 -2.24803e-18 
-5.58057 -2.35537 -1.52858e-18 
-5.37188 -2.36355 -3.42539e-18 
-5.14238 -2.35485 -8.35783e-18 
-4.92538 -2.35623 -1.5431e-17 
-4.70218 -2.36028 -2.10726e-17 
-4.48092 -2.37419 -1.66239e-17 
-4.25968 -2.3691 8.72482e-19 
-4.04836 -2.34713 2.71532e-17 
-3.83252 -2.34765 5.33269e-17 
-3.62114 -2.35643 8.71268e-17 
-3.401 -2.35762 1.05084e-16 
-3.18007 -2.36032 2.91419e-16 
-2.94994 -2.35358 9.48021e-16 
-2.71537 -2.36213 3.27811e-15 
-2.47755 -2.37467 -2.82557e-14 
-2.23299 -2.37472 -1.00091e-13 
-1.98821 -2.38902 -3.53256e-13 
-1.75827 -2.3895 -1.07747e-12 
-1.53187 -2.38575 -3.14278e-12 
-1.34359 -2.46398 -7.37943e-12 
-1.16765 -2.41409 -8.36996e-12 
-0.994909 -2.42829 2.17899e-11 
-0.831381 -2.37679 -2.38567e-11 
-0.678564 -2.65603 -3.65338e-10 
-0.458776 -2.73229 -9.9013e-12 
-0.271782 -2.7114 -7.82657e-10 
0.0356102 -2.80612 5.86351e-10 
0.356388 -2.72724 5.95633e-11 
0.479331 -2.70261 7.66623e-10 
0.663414 -2.53689 1.54941e-10 
0.753705 -2.43831 4.52641e-11 
1.01439 -2.54308 5.44066e-11 
1.13061 -2.3815 1.48326e-11 
1.27417 -2.43683 8.67062e-12 
1.46483 -2.41424 3.85802e-12 
1.67678 -2.41239 1.48469e-12 
1.92526 -2.40504 4.66693e-13 
2.16555 -2.37745 1.33265e-13 
2.42448 -2.36305 3.70212e-14 
2.65457 -2.38412 -4.45408e-15 
2.89884 -2.34282 -1.31709e-15 
3.14118 -2.34569 -3.34026e-16 
3.36245 -2.36932 -1.25736e-16 
3.58036 -2.33669 -1.03309e-16 
3.79611 -2.36236 -6.81552e-17 
4.0131 -2.37447 -3.12143e-17 
4.22794 -2.35052 -3.75754e-18 
4.44349 -2.35603 1.0615e-17 
4.65022 -2.3465 1.88801e-17 
4.86592 -2.3579 1.66514e-17 
5.0751 -2.35382 1.13286e-17 
5.29625 -2.37021 5.54419e-18 
5.50879 -2.3522 2.71172e-18 
5.73135 -2.35927 2.70972e-18 
5.9498 -2.37545 3.29055e-18 
6.16991 -2.34879 3.29168e-18 
6.40216 -2.36203 3.47778e-18 
6.61698 -2.35932 2.69312e-18 
6.83986 -2.31841 1.90231e-18 
7.07207 -2.39181 1.46911e-18 
7.2873 -2.38699 9.57215e-19 
7.55123 -2.36285 3.05318e-19 
7.78361 -2.42024 1.71205e-19 
7.99456 -2.32811 -1.30209e-19 
8.25017 -2.3558 -7.06572e-19 
8.48528 -2.29241 -3.94545e-18 
-8.48528 -2.11058 6.63268e-18 
-8.25186 -2.10799 1.39957e-18 
-8.03981 -2.11216 2.44318e-19 
-7.79716 -2.1466 2.66219e-19 
-7.50615 -2.02985 1.82582e-19 
-7.29778 -2.23335 -2.29674e-19 
-7.05626 -2.14814 1.19373e-19 
-6.80595 -2.13536 -2.77511e-19 
-6.58449 -2.14589 -2.2682e-19 
-6.34663 -2.13464 1.86732e-19 
-6.12598 -2.13181 7.44505e-19 
-5.91507 -2.0948 1.92691e-18 
-5.69059 -2.13671 3.17433e-18 
-5.47108 -2.11227 3.92068e-18 
-5.26076 -2.13474 3.61688e-18 
-5.04028 -2.12146 1.32349e-18 
-4.8229 -2.13017 -2.94498e-18 
-4.60241 -2.13779 -7.8779e-18 
-4.38964 -2.14458 -7.82071e-18 
-4.18233 -2.12292 3.52429e-18 
-3.96717 -2.11461 3.28624e-17 
-3.75505 -2.11325 9.3747e-17 
-3.54218 -2.12539 1.26577e-16 
-3.32343 -2.12337 2.42477e-16 
-3.10052 -2.12792 4.41643e-16 
-2.86648 -2.12391 7.45501e-16 
-2.63213 -2.13278 1.44128e-15 
-2.3936 -2.14579 4.22372e-15 
-2.14511 -2.15494 -2.92157e-14 
-1.91037 -2.16357 -9.24068e-14 
-1.68353 -2.16901 -1.72679e-13 
-1.4885 -2.1431 -1.95117e-13 
-1.32378 -2.24432 9.08701e-13 
-1.15603 -2.19395 3.03865e-12 
-0.994821 -2.25641 -1.00792e-11 
-0.781107 -2.2573 2.0256e-11 
-0.727781 -2.51884 -7.70462e-11 
-0.547746 -2.6504 -2.31191e-10 
-0.182791 -2.82334 -1.18454e-10 
0.125816 -2.75217 1.51253e-09 
0.352099 -2.60173 1.0682e-09 
0.613523 -2.63426 2.66564e-10 
0.575444 -2.43536 5.77187e-11 
0.920545 -2.42127 1.87057e-11 
0.973824 -2.26745 -1.14757e-11 
1.12936 -2.17142 3.25717e-12 
1.31349 -2.21152 -6.51183e-13 
1.51369 -2.19059 4.36258e-13 
1.74474 -2.20544 3.84689e-13 
1.98158 -2.1763 1.39563e-13 
2.23604 -2.15894 3.54027e-14 
2.47829 -2.12567 -4.39627e-15 
2.70734 -2.1483 -1.81863e-15 
2.96114 -2.12293 -6.67088e-16 
3.18729 -2.11208 -3.24775e-16 
3.3992 -2.1268 -1.59218e-16 
3.62195 -2.10444 -8.60214e-17 
3.83761 -2.13354 -5.43098e-17 
4.04898 -2.13841 -1.32793e-17 
4.26925 -2.12119 2.01058e-18 
4.47557 -2.11377 6.5085e-18 
4.69368 -2.11885 4.57637e-18 
4.9021 -2.11804 1.24946e-18 
5.12463 -2.1312 -2.20991e-18 
5.33408 -2.1296 -3.67911e-18 
5.55813 -2.12536 -3.57703e-18 
5.77814 -2.128 -2.45267e-18 
5.99222 -2.1363 -1.17596e-18 
6.22997 -2.12878 -4.09296e-19 
6.44494 -2.11587 -3.45311e-20 
6.66079 -2.1143 1.02106e-19 
6.9209 -2.1138 1.18934e-19 
7.12879 -2.14107 -3.64112e-20 
7.36902 -2.17598 -3.36435e-20 
7.57033 -2.08601 -2.47507e-19 
7.75995 -2.17844 -1.08796e-19 
7.97183 -2.08252 -1.20604e-19 
8.19746 -2.13858 -5.63644e-19 
8.48528 -2.10318 -1.96168e-19 
-8.48528 -1.808 4.86864e-18 
-8.31577 -1.86999 1.12305e-18 
-7.90019 -1.90451 9.23313e-20 
-7.67955 -1.90687 1.07562e-19 
[...]
POINT_DATA 1978 
VECTORS vectors float
3.68441e-06 -0.000203983 1 
3.42115e-06 -0.000734389 1 
-1.72344e-06 -0.000843752 1 
2.13365e-06 -0.000961177 1 
2.18729e-06 -0.00113596 0.999999 
3.24464e-06 -0.00135767 0.999999 
3.75574e-06 -0.00162377 0.999999 
4.04212e-06 -0.00192162 0.999998 
4.03208e-06 -0.00224504 0.999997 
4.24063e-06 -0.00256859 0.999997 
4.15848e-06 -0.00292659 0.999996 
4.07392e-06 -0.00328701 0.999995 
3.73192e-06 -0.00368362 0.999993 
3.99332e-06 -0.0040358 0.999992 
4.353e-06 -0.00444542 0.99999 
4.80873e-06 -0.00481164 0.999988 
5.23781e-06 -0.0051715 0.999987 
5.95476e-06 -0.00546583 0.999985 
6.12685e-06 -0.00566291 0.999984 
5.44869e-06 -0.00569289 0.999984 
3.67097e-06 -0.00551299 0.999985 
1.04196e-06 -0.00508269 0.999987 
-3.01081e-06 -0.00425064 0.999991 
-9.69834e-06 -0.00283382 0.999996 
-1.78514e-05 -0.000519569 1 
-2.7897e-05 0.00283569 0.999996 
-4.31304e-05 0.00746421 0.999972 
-6.10126e-05 0.0141142 0.9999 
-0.000101385 0.0237633 0.999718 
-0.000146278 0.0379495 0.99928 
-0.000187916 0.0601705 0.998188 
-0.000409768 0.0893998 0.995996 
-0.000485776 0.141 0.990009 
-0.000337749 0.207937 0.978142 
-0.000577227 0.277415 0.96075 
0.000246387 0.356498 0.934296 
-0.00126061 0.459201 0.888331 
-0.000940416 0.568783 0.822487 
-0.00207062 0.866387 0.499369 
0.00105344 0.935854 -0.352387 
0.000562179 0.778724 -0.627366 
0.000879233 0.579108 -0.81525 
0.00110864 0.486054 -0.873928 
0.000330756 0.391955 -0.919984 
0.000730931 0.258187 -0.966095 
0.000553184 0.185949 -0.982559 
0.000386086 0.12932 -0.991603 
0.000334865 0.0857695 -0.996315 
0.000207114 0.0573389 -0.998355 
0.000134891 0.0364219 -0.999336 
8.57136e-05 0.0239335 -0.999714 
6.83876e-05 0.0141039 -0.999901 
4.2182e-05 0.00730524 -0.999973 
2.65898e-05 0.00295439 -0.999996 
2.03499e-05 -0.000274745 -1 
1.31674e-05 -0.00283502 -0.999996 
4.84387e-06 -0.00443808 -0.99999 
-1.83653e-06 -0.00520703 -0.999986 
-4.63226e-06 -0.00553951 -0.999985 
-5.36988e-06 -0.00567623 -0.999984 
-5.36439e-06 -0.0056742 -0.999984 
-5.42561e-06 -0.00552404 -0.999985 
-5.25684e-06 -0.00525611 -0.999986 
-5.05952e-06 -0.00488081 -0.999988 
-4.60956e-06 -0.00448671 -0.99999 
-4.23415e-06 -0.00407031 -0.999992 
-4.17318e-06 -0.00368783 -0.999993 
-4.50371e-06 -0.00328141 -0.999995 
-4.42334e-06 -0.00287607 -0.999996 
-4.56698e-06 -0.0025239 -0.999997 
-4.35859e-06 -0.00215321 -0.999998 
-3.67468e-06 -0.0018426 -0.999998 
-3.6726e-06 -0.00158329 -0.999999 
-3.1613e-06 -0.00128363 -0.999999 
-1.63032e-06 -0.00111244 -0.999999 
-1.58958e-06 -0.000983832 -1 
6.64765e-07 -0.000878878 -1 
-1.32213e-06 -0.000812141 -1 
-8.68543e-06 -0.000174517 -1 
-0.000274052 1.68575e-05 1 
-0.000151725 -0.000849747 1 
-5.49889e-05 -0.000923997 1 
9.87967e-06 -0.00101183 0.999999 
5.99453e-05 -0.00113735 0.999999 
0.00011209 -0.00136861 0.999999 
0.000165288 -0.00162412 0.999999 
0.000194772 -0.00191704 0.999998 
0.000218797 -0.00221919 0.999998 
0.000199383 -0.00255715 0.999997 
0.000183782 -0.00291264 0.999996 
0.00014757 -0.00330113 0.999995 
0.000145372 -0.00366878 0.999993 
0.000142512 -0.00410916 0.999992 
0.000211944 -0.00452316 0.99999 
0.00030861 -0.00492271 0.999988 
0.000453183 -0.00526701 0.999986 
0.000586037 -0.00550879 0.999985 
0.000716159 -0.00559393 0.999984 
0.000831461 -0.00545275 0.999985 
0.000925514 -0.00503819 0.999987 
0.000859475 -0.00430222 0.99999 
0.000790473 -0.00303928 0.999995 
0.000667892 -0.00107381 0.999999 
0.000574572 0.00193094 0.999998 
0.000472256 0.00617079 0.999981 
0.000307223 0.0122312 0.999925 
0.000108197 0.0214927 0.999769 
-0.000136608 0.0352247 0.999379 
-0.000535988 0.0558975 0.998436 
-0.000255055 0.0868783 0.996219 
-0.00132102 0.124308 0.992243 
-0.000452778 0.188005 0.982168 
0.0041219 0.259456 0.965746 
0.00220743 0.335272 0.942119 
0.0416419 0.340311 0.939391 
0.00564181 0.425224 0.905071 
-0.000400804 0.637943 0.770083 
-0.00602467 0.922602 0.385706 
0.0075046 0.975287 -0.220812 
-0.0185608 0.895925 -0.443818 
0.00571539 0.629624 -0.776879 
-0.0084163 0.462884 -0.886379 
-0.013014 0.378738 -0.925412 
0.0067075 0.312883 -0.949768 
0.00275758 0.212027 -0.97726 
0.00352922 0.148642 -0.988885 
0.00226598 0.101745 -0.994808 
0.000895636 0.0668325 -0.997764 
0.000326047 0.0430112 -0.999075 
-0.00016441 0.0270683 -0.999634 
-0.000129305 0.0167805 -0.999859 
-0.000223358 0.00882389 -0.999961 
-0.000354318 0.00373792 -0.999993 
-0.00037357 0.000111503 -1 
-0.000531172 -0.00243268 -0.999997 
-0.000753119 -0.0038835 -0.999992 
-0.000795318 -0.00487039 -0.999988 
-0.000814944 -0.0053659 -0.999985 
-0.000795974 -0.0055725 -0.999984 
-0.000646901 -0.00558959 -0.999984 
-0.000529626 -0.0054387 -0.999985 
-0.000368933 -0.00513588 -0.999987 
-0.000264864 -0.00474667 -0.999989 
-0.000180185 -0.00430018 -0.999991 
-0.00015899 -0.00386231 -0.999993 
-0.000155214 -0.00344226 -0.999994 
-0.000175997 -0.00302544 -0.999995 
-0.000214327 -0.00264769 -0.999996 
-0.000205888 -0.00231027 -0.999997 
-0.000216874 -0.00199025 -0.999998 
-0.000206942 -0.00172968 -0.999998 
-0.000126295 -0.00145861 -0.999999 
-0.00010784 -0.00125427 -0.999999 
-5.27706e-05 -0.00109542 -0.999999 
2.64898e-06 -0.000969852 -1 
6.56584e-05 -0.000935609 -1 
0.000124423 -0.000853866 -1 
0.000222493 6.36349e-05 -1 
-0.000271148 -5.53107e-05 1 
-0.000178379 -0.00100276 0.999999 
-6.16508e-05 -0.00103567 0.999999 
2.9266e-05 -0.0011009 0.999999 
0.00011104 -0.00125922 0.999999 
0.00010769 -0.00122779 0.999999 
0.000190163 -0.00145599 0.999999 
0.000258408 -0.00169496 0.999999 
0.000287917 -0.00193978 0.999998 
0.000303799 -0.00224565 0.999997 
0.000283729 -0.00256688 0.999997 
0.000239476 -0.0029282 0.999996 
0.000203465 -0.00329646 0.999995 
0.00018593 -0.00379903 0.999993 
0.000226421 -0.00425502 0.999991 
0.000354411 -0.00475848 0.999989 
0.000549095 -0.00518411 0.999986 
0.000804763 -0.00551143 0.999984 
0.00106279 -0.00565653 0.999983 
0.0013209 -0.00557913 0.999984 
0.00156612 -0.00523591 0.999985 
0.00171242 -0.00453464 0.999988 
0.00176599 -0.00344796 0.999992 
0.0018142 -0.00178172 0.999997 
0.00186599 0.000604295 0.999998 
0.00204397 0.00409106 0.99999 
0.00219117 0.00903903 0.999957 
0.00231448 0.0161227 0.999867 
0.00288809 0.0267536 0.999638 
0.00383578 0.0426681 0.999082 
0.00587579 0.0651097 0.997861 
0.0115128 0.096678 0.995249 
0.010842 0.137292 0.990471 
0.0253675 0.185073 0.982397 
0.0469926 0.236196 0.970568 
0.0858011 0.31454 0.945358 
0.0243771 0.499946 0.865714 
0.0329279 0.721035 0.692115 
0.0631866 0.891609 0.448375 
0.0117028 0.997765 -0.0657937 
-0.036675 0.822756 -0.56721 
-0.0301144 0.72503 -0.688059 
-0.0683618 0.498373 -0.864263 
-0.0799309 0.394618 -0.915362 
-0.0127878 0.264711 -0.964243 
-0.0325752 0.196557 -0.979951 
-0.0131041 0.15799 -0.987354 
-0.00853794 0.110672 -0.99382 
-0.00533947 0.0761445 -0.997082 
-0.00376007 0.0489621 -0.998794 
-0.00326577 0.0316225 -0.999495 
-0.00264166 0.0189084 -0.999818 
-0.00176161 0.0112254 -0.999935 
-0.00182084 0.00538389 -0.999984 
-0.00157856 0.00131441 -0.999998 
-0.00144357 -0.00130394 -0.999998 
-0.00166946 -0.00309903 -0.999994 
-0.00157803 -0.00434719 -0.999989 
-0.00148114 -0.00512307 -0.999986 
-0.00137033 -0.00554528 -0.999984 
-0.00112245 -0.00568725 -0.999983 
-0.000883019 -0.0056131 -0.999984 
-0.000623711 -0.00533173 -0.999986 
-0.000429268 -0.00494232 -0.999988 
-0.000283038 -0.00445043 -0.99999 
-0.000221196 -0.00397058 -0.999992 
-0.000213041 -0.0034911 -0.999994 
-0.000239082 -0.00307179 -0.999995 
-0.000281569 -0.00268826 -0.999996 
-0.000306634 -0.00235006 -0.999997 
-0.000308908 -0.00207295 -0.999998 
-0.000291273 -0.0018193 -0.999998 
-0.000233615 -0.00157327 -0.999999 
-0.000178785 -0.00138325 -0.999999 
-0.000100531 -0.00120302 -0.999999 
-2.38132e-05 -0.00107039 -0.999999 
4.24913e-05 -0.00103762 -0.999999 
0.000145514 -0.000993454 -0.999999 
0.000210471 -0.000121619 -1 
-0.000175407 2.63045e-05 1 
-0.000123725 -0.00112407 0.999999 
-4.21083e-05 -0.00112612 0.999999 
3.93413e-05 -0.00117206 0.999999 
0.000143123 -0.00134763 0.999999 
0.00018711 -0.00142978 0.999999 
0.000251457 -0.00164797 0.999999 
0.000300844 -0.00189546 0.999998 
0.000320203 -0.00212464 0.999998 
0.000311091 -0.00240815 0.999997 
0.000279116 -0.00271675 0.999996 
0.00024604 -0.00306415 0.999995 
0.000212573 -0.00352901 0.999994 
0.000238281 -0.00404134 0.999992 
0.000320202 -0.00455824 0.99999 
0.000501409 -0.00508588 0.999987 
0.000757078 -0.00551308 0.999985 
0.00107894 -0.00578997 0.999983 
0.00141768 -0.00584673 0.999982 
0.00178585 -0.00568533 0.999982 
0.00216196 -0.00518764 0.999984 
0.00251714 -0.00433019 0.999987 
0.00283091 -0.00303769 0.999991 
0.00324834 -0.00121046 0.999994 
0.00371874 0.00137398 0.999992 
0.00445214 0.00508383 0.999977 
0.00532297 0.0102674 0.999933 
0.00651966 0.0177391 0.999821 
0.00890821 0.028947 0.999541 
0.0129981 0.044732 0.998914 
0.0201709 0.0663597 0.997592 
0.0332843 0.088413 0.995528 
0.0378631 0.125637 0.991353 
0.0619632 0.150271 0.986701 
0.0841199 0.213199 0.973381 
0.133929 0.294166 0.946324 
0.0736518 0.441102 0.89443 
0.0515332 0.606111 0.793709 
0.00448372 0.96912 0.24655 
-0.0182276 0.973673 -0.227221 
-0.105131 0.782835 -0.613284 
-0.0275861 0.583526 -0.811626 
-0.15119 0.507834 -0.848084 
-0.0515447 0.291513 -0.955177 
-0.0793346 0.226521 -0.97077 
-0.0644087 0.158379 -0.985275 
-0.0372773 0.12578 -0.991358 
-0.0253829 0.0898315 -0.995633 
-0.0152293 0.0616266 -0.997983 
-0.0111601 0.0404511 -0.999119 
-0.00790382 0.0253828 -0.999647 
-0.00617742 0.0152552 -0.999865 
-0.00447154 0.00890998 -0.99995 
-0.00374453 0.00371706 -0.999986 
-0.00325037 0.000516113 -0.999995 
-0.00280716 -0.00168843 -0.999995 
-0.00260462 -0.0034428 -0.999991 
-0.0022399 -0.0045927 -0.999987 
-0.0019421 -0.00533755 -0.999984 
-0.00162437 -0.005781 -0.999982 
-0.00129507 -0.00589463 -0.999982 
-0.000955118 -0.00574915 -0.999983 
-0.000677408 -0.00542136 -0.999985 
-0.000446162 -0.00492632 -0.999988 
-0.000312268 -0.00440737 -0.99999 
-0.000247987 -0.00384964 -0.999993 
-0.000243929 -0.00335008 -0.999994 
-0.000270527 -0.0029339 -0.999996 
-0.000307689 -0.00254719 -0.999997 
-0.000326585 -0.00226039 -0.999997 
-0.000323202 -0.00201777 -0.999998 
-0.000288734 -0.00176206 -0.999998 
-0.000240784 -0.00157451 -0.999999 
-0.000171646 -0.00138262 -0.999999 
-0.000117908 -0.00127991 -0.999999 
-4.97769e-05 -0.00116022 -0.999999 
6.73407e-06 -0.00112822 -0.999999 
9.19161e-05 -0.00108206 -0.999999 
0.000152176 -6.40154e-05 -1 
-4.89956e-05 1.84789e-05 1 
-5.8676e-05 -0.00121002 0.999999 
4.83483e-05 -0.0012183 0.999999 
0.000110065 -0.0012928 0.999999 
0.000189443 -0.00144912 0.999999 
0.00020859 -0.00150855 0.999999 
0.00025337 -0.00163606 0.999999 
0.000288001 -0.00178276 0.999998 
0.000325163 -0.00199617 0.999998 
0.00033548 -0.00221631 0.999997 
0.000328827 -0.00248163 0.999997 
0.000309214 -0.00278303 0.999996 
0.000278678 -0.00324612 0.999995 
0.000276549 -0.00373696 0.999993 
0.000338122 -0.00434073 0.999991 
0.00046028 -0.00490673 0.999988 
0.000691293 -0.00546864 0.999985 
0.00100387 -0.00588432 0.999982 
0.0013869 -0.00611288 0.99998 
0.00180589 -0.00611924 0.99998 
0.00229766 -0.00583009 0.99998 
0.00285019 -0.00520195 0.999982 
0.00344279 -0.00415875 0.999985 
0.0040965 -0.00268754 0.999988 
0.00492436 -0.000603102 0.999988 
0.00592812 0.00225343 0.99998 
0.00736072 0.00624341 0.999953 
0.00921371 0.0118296 0.999888 
0.0122409 0.0202037 0.999721 
0.0177765 0.0317402 0.999338 
0.0266823 0.047012 0.998538 
0.0419087 0.0614152 0.997232 
0.0587276 0.0913339 0.994087 
0.0880782 0.114534 0.989507 
0.111696 0.164085 0.980102 
0.153145 0.217177 0.964044 
0.139562 0.434116 0.88998 
0.112245 0.557314 0.82268 
0.0640047 0.794142 0.604352 
0.0663185 0.947017 0.314263 
-0.058116 0.948048 -0.312775 
-0.0895095 0.644573 -0.759285 
-0.123726 0.327179 -0.936827 
-0.134918 0.233104 -0.963047 
-0.111769 0.160169 -0.980741 
-0.087611 0.108336 -0.990246 
-0.0583388 0.0979146 -0.993483 
-0.0431726 0.0706717 -0.996565 
-0.0283425 0.0559681 -0.99803 
-0.0199526 0.0380255 -0.999078 
-0.0137268 0.0247407 -0.9996 
-0.0101829 0.0147272 -0.99984 
-0.00754376 0.00808132 -0.999939 
-0.00589866 0.00400621 -0.999975 
-0.00498573 0.000481656 -0.999987 
-0.00416763 -0.00181227 -0.99999 
-0.00355059 -0.00343347 -0.999988 
-0.00292192 -0.00473621 -0.999985 
-0.00241733 -0.00553016 -0.999982 
-0.0019598 -0.00599369 -0.99998 
-0.00153241 -0.00617994 -0.99998 
-0.00114217 -0.00603034 -0.999981 
-0.000822101 -0.00569305 -0.999983 
-0.000567393 -0.00517915 -0.999986 
-0.000408572 -0.00460326 -0.999989 
-0.00032057 -0.00402025 -0.999992 
-0.000296556 -0.00345683 -0.999994 
-0.00030822 -0.00298858 -0.999995 
-0.000326128 -0.00261945 -0.999997 
-0.000346379 -0.0023097 -0.999997 
-0.000342061 -0.00207506 -0.999998 
-0.000314643 -0.00186628 -0.999998 
-0.000268642 -0.00166238 -0.999999 
-0.000210541 -0.0014912 -0.999999 
-0.000154874 -0.00136358 -0.999999 
-7.73226e-05 -0.00123333 -0.999999 
-1.4988e-05 -0.00118144 -0.999999 
7.08934e-05 -0.00115021 -0.999999 
7.71103e-05 -1.16606e-05 -1 
1.89153e-05 -6.43365e-05 1 
5.20879e-05 -0.00125495 0.999999 
4.07893e-06 -0.00120464 0.999999 
0.000102239 -0.00127904 0.999999 
0.000151377 -0.00136114 0.999999 
0.000239779 -0.00158413 0.999999 
0.000295453 -0.00177697 0.999998 
0.000325732 -0.0019179 0.999998 
0.000356196 -0.00212729 0.999998 
0.000364078 -0.00233189 0.999997 
0.000365391 -0.00259889 0.999997 
0.000345972 -0.00298498 0.999995 
0.000348107 -0.00345941 0.999994 
0.000371366 -0.0040201 0.999992 
0.000462922 -0.00466628 0.999989 
0.000614082 -0.00526423 0.999986 
0.000870037 -0.0058261 0.999983 
0.0012041 -0.00622834 0.99998 
0.00159938 -0.00646114 0.999978 
0.0020802 -0.00644996 0.999977 
0.00265159 -0.00616779 0.999977 
0.00332302 -0.00555531 0.999979 
0.00408073 -0.00458212 0.999981 
0.00496094 -0.00314331 0.999983 
0.00604235 -0.00127491 0.999981 
0.00736229 0.00130641 0.999972 
0.00917493 0.00458263 0.999947 
0.0116648 0.00901168 0.999891 
0.0152199 0.0154765 0.999764 
0.0216208 0.0230113 0.999501 
0.030881 0.0329675 0.998979 
0.0478846 0.0434489 0.997907 
0.0696568 0.0642048 0.995503 
0.0969947 0.0677174 0.992979 
0.130402 0.103901 0.986002 
0.173953 0.14103 0.974603 
0.201645 0.348229 0.915465 
0.199163 0.540275 0.81758 
0.162558 0.805 0.57057 
0.00842779 0.995684 0.092422 
-0.116689 0.893963 -0.432681 
-0.252537 0.517861 -0.81734 
-0.204782 0.28233 -0.937205 
-0.188394 0.18469 -0.964571 
-0.147198 0.118129 -0.982028 
-0.101716 0.0736503 -0.992083 
-0.0674398 0.0613434 -0.995836 
-0.0453951 0.0459035 -0.997914 
-0.0315612 0.0359017 -0.998857 
-0.0221442 0.0255688 -0.999428 
-0.0156006 0.0166548 -0.99974 
-0.0111189 0.00925383 -0.999895 
-0.00862919 0.00449569 -0.999953 
-0.00685654 0.00150557 -0.999975 
-0.00565208 -0.00127916 -0.999983 
-0.00471666 -0.00314794 -0.999984 
-0.00381302 -0.00451772 -0.999983 
-0.00310972 -0.00554722 -0.99998 
-0.00249829 -0.0061509 -0.999978 
-0.00196451 -0.0064389 -0.999977 
-0.00148742 -0.00645298 -0.999978 
-0.00111388 -0.00617942 -0.99998 
-0.000805393 -0.00570935 -0.999983 
-0.000592568 -0.00514114 -0.999987 
-0.000458917 -0.00451059 -0.99999 
-0.000383919 -0.00388898 -0.999992 
-0.000363847 -0.00332655 -0.999994 
-0.000365737 -0.00286731 -0.999996 
-0.000370914 -0.00252431 -0.999997 
-0.000374228 -0.00224914 -0.999997 
-0.000356633 -0.00203328 -0.999998 
-0.000322595 -0.0018488 -0.999998 
-0.000282001 -0.0016931 -0.999999 
-0.000227269 -0.00153268 -0.999999 
-0.000176576 -0.00141051 -0.999999 
-0.000112536 -0.00129271 -0.999999 
-7.03947e-05 -0.00124816 -0.999999 
2.63994e-06 -0.00121278 -0.999999 
3.3814e-05 -9.08458e-05 -1 
8.20423e-05 -5.86212e-05 1 
0.000121854 -0.00128234 0.999999 
9.41322e-05 -0.00126825 0.999999 
0.000163448 -0.00135838 0.999999 
0.000201946 -0.00146849 0.999999 
0.000246245 -0.00161078 0.999999 
0.000285118 -0.00174555 0.999998 
0.000323243 -0.00190889 0.999998 
0.000354049 -0.0020536 0.999998 
0.000374026 -0.00224176 0.999997 
0.000385129 -0.00245564 0.999997 
0.000387796 -0.00280628 0.999996 
0.000392763 -0.00323644 0.999995 
0.000413088 -0.00378647 0.999993 
0.000467619 -0.00441202 0.99999 
0.000588904 -0.00511411 0.999987 
0.00077614 -0.00572876 0.999983 
0.00105809 -0.00626835 0.99998 
0.00140107 -0.00664805 0.999977 
0.0018464 -0.00683337 0.999975 
0.00238376 -0.00676925 0.999974 
0.00303446 -0.0064149 0.999975 
0.0038092 -0.00572696 0.999976 
0.00474609 -0.00460684 0.999978 
0.00583738 -0.00313303 0.999978 
0.00720632 -0.00112266 0.999973 
0.00891386 0.00131606 0.999959 
0.0113467 0.00446382 0.999926 
0.0150922 0.00890371 0.999846 
0.0207988 0.0137172 0.99969 
0.0301475 0.0189071 0.999367 
0.0431242 0.0249709 0.998758 
0.066664 0.0341265 0.997192 
0.0938012 0.0298622 0.995143 
0.13339 0.0490796 0.989848 
0.182939 0.0649962 0.980973 
0.225084 0.24098 0.944069 
0.264636 0.437585 0.859353 
0.129774 0.685412 0.716498 
0.026397 0.995464 0.091408 
-0.178025 0.6561 -0.733375 
-0.197253 0.393161 -0.898062 
-0.28344 0.24311 -0.927664 
-0.178317 0.0592693 -0.982186 
-0.126741 0.0485368 -0.990748 
-0.0868823 0.0289369 -0.995798 
-0.0653625 0.0340041 -0.997282 
-0.0469821 0.0268836 -0.998534 
-0.0327563 0.0221425 -0.999218 
-0.023367 0.0166761 -0.999588 
-0.0172141 0.0110814 -0.99979 
-0.0127563 0.00720882 -0.999893 
-0.00957895 0.00289845 -0.99995 
-0.00757451 0.000170896 -0.999971 
-0.00623805 -0.00186163 -0.999979 
-0.00502554 -0.00385626 -0.99998 
-0.00409875 -0.00502904 -0.999979 
-0.00328548 -0.00600585 -0.999977 
-0.00259739 -0.00657795 -0.999975 
-0.0020297 -0.00680467 -0.999975 
-0.00155899 -0.00675908 -0.999976 
-0.0011521 -0.00644089 -0.999979 
-0.000869336 -0.00595026 -0.999982 
-0.000653785 -0.00531817 -0.999986 
-0.000525285 -0.00467908 -0.999989 
-0.000446759 -0.00400739 -0.999992 
-0.000412997 -0.00342632 -0.999994 
-0.000400971 -0.00293077 -0.999996 
-0.000395401 -0.00255793 -0.999997 
-0.000387808 -0.00229683 -0.999997 
-0.000365715 -0.00207519 -0.999998 
-0.000334449 -0.0018969 -0.999998 
-0.000290157 -0.00173397 -0.999998 
-0.000238461 -0.00156783 -0.999999 
-0.000197813 -0.00145904 -0.999999 
-0.000147457 -0.00134797 -0.999999 
-0.000114455 -0.00129594 -0.999999 
-5.544e-05 -0.001264 -0.999999 
-1.33977e-05 -5.37648e-05 -1 
0.000143712 -7.88509e-05 1 
0.000180228 -0.00129802 0.999999 
0.000148592 -0.00131063 0.999999 
0.000186693 -0.00138964 0.999999 
0.000206294 -0.00147659 0.999999 
0.000238666 -0.00164077 0.999999 
0.000280365 -0.00179646 0.999998 
0.000306887 -0.00196023 0.999998 
0.00034162 -0.00211067 0.999998 
0.000352966 -0.00228723 0.999997 
0.000376849 -0.00255045 0.999997 
0.000386514 -0.0028953 0.999996 
0.000401903 -0.00335233 0.999994 
0.000430908 -0.00392261 0.999992 
0.000494952 -0.0046079 0.999989 
0.000597058 -0.00529547 0.999986 
0.000774296 -0.00594583 0.999982 
0.00100093 -0.00648809 0.999978 
0.00131255 -0.00690819 0.999975 
0.00171905 -0.00715565 0.999973 
0.00222956 -0.00715845 0.999972 
0.00284544 -0.00688349 0.999972 
0.00360036 -0.00628139 0.999974 
0.00449194 -0.00533078 0.999976 
0.00562423 -0.00397072 0.999976 
0.00695292 -0.0023373 0.999973 
0.00872917 -0.000326289 0.999962 
0.0113321 0.00206652 0.999934 
0.0150847 0.00465803 0.999875 
0.0209358 0.00719786 0.999755 
0.028983 0.00792091 0.999549 
0.0444138 0.0122672 0.998938 
0.062609 0.010454 0.997983 
0.0804974 -0.00417245 0.996746 
0.119042 0.0037995 0.992882 
0.170146 0.0123633 0.985341 
0.244596 0.14963 0.95801 
0.336689 0.27146 0.901637 
0.24786 0.663735 0.705706 
0.032308 0.996748 0.0738182 
-0.207999 0.775331 -0.59632 
-0.333141 0.347122 -0.876655 
-0.230341 0.12238 -0.965384 
-0.168272 0.000481452 -0.98574 
-0.115229 0.00659562 -0.993317 
-0.0761955 -0.00332475 -0.997087 
-0.0585912 0.00866043 -0.998244 
-0.0420916 0.0101167 -0.999063 
-0.0302191 0.0101471 -0.999492 
-0.021352 0.00791604 -0.999741 
-0.0150812 0.00508401 -0.999873 
-0.0111419 0.00273969 -0.999934 
-0.00826516 -0.000241483 -0.999966 
-0.00656648 -0.00225924 -0.999976 
-0.00541495 -0.00373592 -0.999978 
-0.0042674 -0.00524224 -0.999977 