# vtk DataFile Version 3.0 
Exported using Morpho https://github.com/Morpho-lang/morpho 
ASCII 
DATASET UNSTRUCTURED_GRID 

POINTS 1245 float 
-0.303845 -0.952721 0 
-0.250833 -0.96803 0 
-0.195084 -0.980787 0 
-0.146308 -0.989239 0 
-0.0940719 -0.995565 0 
-0.0475118 -0.998871 0 
-0.000246339 -1 0 
0.0470875 -0.998891 0 
0.0937543 -0.995595 0 
0.146139 -0.989264 0 
0.195062 -0.980791 0 
0.250843 -0.968028 0 
0.303953 -0.952687 0 
-0.409153 -0.912466 0 
-0.356519 -0.934288 0 
-0.308871 -0.898929 0 
-0.258282 -0.916037 0 
-0.207345 -0.934859 0 
-0.154868 -0.930629 0 
-0.104343 -0.948989 0 
-0.0520099 -0.939193 0 
-8.5762e-05 -0.954582 0 
0.0518744 -0.939288 0 
0.104354 -0.949042 0 
0.154696 -0.9306 0 
0.207366 -0.934975 0 
0.258274 -0.916081 0 
0.308979 -0.898924 0 
0.356593 -0.93426 0 
0.409236 -0.912429 0 
-0.513788 -0.857917 0 
-0.461695 -0.887039 0 
-0.411157 -0.857936 0 
-0.359855 -0.879963 0 
-0.306888 -0.847481 0 
-0.254732 -0.866979 0 
-0.201991 -0.889059 0 
-0.149956 -0.874108 0 
-0.100608 -0.900088 0 
-0.0497575 -0.880388 0 
2.4595e-05 -0.904789 0 
0.0496869 -0.8804 0 
0.100612 -0.900177 0 
0.149872 -0.874171 0 
0.202071 -0.889165 0 
0.254695 -0.867031 0 
0.306946 -0.847482 0 
0.359894 -0.879943 0 
0.411236 -0.857929 0 
0.461748 -0.887011 0 
0.513842 -0.857885 0 
-0.564741 -0.825268 0 
-0.512908 -0.802945 0 
-0.462372 -0.832348 0 
-0.410124 -0.804631 0 
-0.358606 -0.827415 0 
-0.305781 -0.795641 0 
-0.25358 -0.816639 0 
-0.200756 -0.839997 0 
-0.149043 -0.818944 0 
-0.0987265 -0.846667 0 
-0.0490473 -0.822548 0 
5.00659e-05 -0.849932 0 
0.0490834 -0.822542 0 
0.0987838 -0.846676 0 
0.148997 -0.818924 0 
0.200826 -0.840131 0 
0.253508 -0.816728 0 
0.305831 -0.795701 0 
0.358581 -0.827419 0 
0.410181 -0.804654 0 
0.462414 -0.83234 0 
0.512965 -0.802929 0 
0.564777 -0.825243 0 
-0.660798 -0.750564 0 
-0.614015 -0.789295 0 
-0.561786 -0.769772 0 
-0.510673 -0.747856 0 
-0.460836 -0.778365 0 
-0.408794 -0.751554 0 
-0.357337 -0.774971 0 
-0.304815 -0.743684 0 
-0.252907 -0.765535 0 
-0.200631 -0.789263 0 
-0.149244 -0.764328 0 
-0.0986912 -0.791935 0 
-0.0492815 -0.765764 0 
4.16586e-05 -0.79382 0 
0.0492411 -0.765708 0 
0.0987508 -0.791951 0 
0.149196 -0.764326 0 
0.200666 -0.789356 0 
0.252841 -0.765599 0 
0.304862 -0.743741 0 
0.357323 -0.775038 0 
0.408863 -0.751626 0 
0.460863 -0.778382 0 
0.510716 -0.747859 0 
0.561819 -0.769761 0 
0.614041 -0.789274 0 
0.660811 -0.750552 0 
-0.707107 -0.707107 0 
-0.654819 -0.699058 0 
-0.60813 -0.73348 0 
-0.558104 -0.71337 0 
-0.509495 -0.692659 0 
-0.45935 -0.724356 0 
-0.407328 -0.698865 0 
-0.355968 -0.722823 0 
-0.303722 -0.691387 0 
-0.252254 -0.71362 0 
-0.20067 -0.737336 0 
-0.149608 -0.710068 0 
-0.0991558 -0.737129 0 
-0.0495872 -0.709825 0 
-2.23646e-05 -0.737917 0 
0.0494408 -0.709766 0 
0.0991291 -0.737116 0 
0.149502 -0.710042 0 
0.200696 -0.73743 0 
0.252186 -0.713735 0 
0.303753 -0.691518 0 
0.355952 -0.722893 0 
0.407371 -0.698945 0 
0.459374 -0.724407 0 
0.509524 -0.692668 0 
0.558131 -0.713361 0 
0.608151 -0.733462 0 
0.654824 -0.699048 0 
0.707107 -0.707107 0 
-0.750564 -0.660798 0 
-0.699058 -0.654819 0 
-0.647692 -0.647692 0 
-0.603437 -0.675718 0 
-0.55905 -0.655305 0 
-0.508501 -0.639581 0 
-0.457509 -0.671321 0 
-0.405555 -0.646545 0 
-0.354417 -0.670703 0 
-0.302427 -0.639219 0 
-0.251503 -0.661417 0 
-0.20061 -0.684911 0 
-0.149717 -0.655943 0 
-0.0995004 -0.682466 0 
-0.0498216 -0.654561 0 
-5.02113e-05 -0.682664 0 
0.0496787 -0.654499 0 
0.0994374 -0.682501 0 
0.149603 -0.655909 0 
0.200573 -0.684972 0 
0.251388 -0.661524 0 
0.302407 -0.639359 0 
0.354397 -0.670836 0 
0.405575 -0.646641 0 
0.457525 -0.67138 0 
0.508497 -0.639623 0 
0.559063 -0.655324 0 
0.603436 -0.675715 0 
0.64769 -0.64769 0 
0.699048 -0.654824 0 
0.750552 -0.660811 0 
-0.789295 -0.614015 0 
-0.73348 -0.60813 0 
-0.675718 -0.603437 0 
-0.613088 -0.613088 0 
-0.55962 -0.604068 0 
-0.506189 -0.588854 0 
-0.455505 -0.618874 0 
-0.403019 -0.594688 0 
-0.352514 -0.618952 0 
-0.300977 -0.586897 0 
-0.250543 -0.608767 0 
-0.200257 -0.632053 0 
-0.150049 -0.601979 0 
-0.0998281 -0.628222 0 
-0.0500377 -0.599914 0 
-3.12334e-05 -0.628076 0 
0.0498927 -0.599835 0 
0.0997818 -0.628253 0 
0.149924 -0.601867 0 
0.200214 -0.632118 0 
0.250423 -0.608915 0 
0.30086 -0.587085 0 
0.352457 -0.619096 0 
0.402948 -0.594743 0 
0.455483 -0.618952 0 
0.506147 -0.588901 0 
0.55964 -0.604067 0 
0.613069 -0.613069 0 
0.675715 -0.603436 0 
0.733462 -0.608151 0 
0.789274 -0.614041 0 
-0.825268 -0.564741 0 
-0.769772 -0.561786 0 
-0.71337 -0.558104 0 
-0.655305 -0.55905 0 
-0.604068 -0.55962 0 
-0.551031 -0.551031 0 
-0.497922 -0.537596 0 
-0.451508 -0.567021 0 
-0.399773 -0.542431 0 
-0.350494 -0.567003 0 
-0.301574 -0.534146 0 
-0.250874 -0.555692 0 
-0.200542 -0.579013 0 
-0.150324 -0.548268 0 
-0.100169 -0.57443 0 
-0.0500152 -0.545912 0 
-3.29278e-05 -0.574268 0 
0.0499208 -0.545788 0 
0.100058 -0.574485 0 
0.150038 -0.548073 0 
0.200377 -0.579041 0 
0.250556 -0.55585 0 
0.301273 -0.534348 0 
0.350318 -0.567174 0 
0.399615 -0.542384 0 
0.451404 -0.5671 0 
0.497945 -0.537702 0 
0.551073 -0.551073 0 
0.604067 -0.55964 0 
0.655324 -0.559063 0 
0.713361 -0.558131 0 
0.769761 -0.561819 0 
0.825243 -0.564777 0 
-0.857917 -0.513788 0 
-0.802945 -0.512908 0 
-0.747856 -0.510673 0 
-0.692659 -0.509495 0 
-0.639581 -0.508501 0 
-0.588854 -0.506189 0 
-0.537596 -0.497922 0 
-0.486157 -0.486157 0 
-0.444928 -0.512952 0 
-0.401787 -0.486784 0 
-0.351685 -0.513639 0 
-0.299695 -0.48291 0 
-0.250032 -0.503 0 
-0.200501 -0.526165 0 
-0.149489 -0.495195 0 
-0.0999281 -0.521367 0 
-0.0499712 -0.492294 0 
4.64723e-05 -0.520999 0 
0.050147 -0.492108 0 
0.099934 -0.52133 0 
0.14957 -0.494692 0 
0.200133 -0.526255 0 
0.249839 -0.503309 0 
0.299839 -0.483005 0 
0.351514 -0.513798 0 
0.401881 -0.486608 0 
0.444935 -0.513054 0 
0.486228 -0.486228 0 
0.537702 -0.497945 0 
0.588901 -0.506147 0 
0.639623 -0.508497 0 
0.692668 -0.509524 0 
0.747859 -0.510716 0 
0.802929 -0.512965 0 
0.857885 -0.513842 0 
-0.887039 -0.461695 0 
-0.832348 -0.462372 0 
-0.778365 -0.460836 0 
-0.724356 -0.45935 0 
-0.671321 -0.457509 0 
-0.618874 -0.455505 0 
-0.567021 -0.451508 0 
-0.512952 -0.444928 0 
-0.450685 -0.450685 0 
-0.397667 -0.437543 0 
-0.348492 -0.462546 0 
-0.295416 -0.432968 0 
-0.247004 -0.450633 0 
-0.198702 -0.473818 0 
-0.150161 -0.441625 0 
-0.100085 -0.468395 0 
-0.0502271 -0.439281 0 
0.000144229 -0.468374 0 
0.0504178 -0.439106 0 
0.100428 -0.468348 0 
0.150697 -0.441105 0 
0.199103 -0.473881 0 
0.247983 -0.450921 0 
0.296569 -0.432268 0 
0.348831 -0.462562 0 
0.397506 -0.4368 0 
0.450637 -0.450637 0 
0.513054 -0.444935 0 
0.5671 -0.451404 0 
0.618952 -0.455483 0 
0.67138 -0.457525 0 
0.724407 -0.459374 0 
0.778382 -0.460863 0 
0.83234 -0.462414 0 
0.887011 -0.461748 0 
-0.912466 -0.409153 0 
-0.857936 -0.411157 0 
-0.804631 -0.410124 0 
-0.751554 -0.408794 0 
-0.698865 -0.407328 0 
-0.646545 -0.405555 0 
-0.594688 -0.403019 0 
-0.542431 -0.399773 0 
-0.486784 -0.401787 0 
-0.437543 -0.397667 0 
-0.387256 -0.387256 0 
-0.344215 -0.411459 0 
-0.30136 -0.381507 0 
-0.25021 -0.395692 0 
-0.200211 -0.419975 0 
-0.150955 -0.389014 0 
-0.100617 -0.416095 0 
-0.0503197 -0.386922 0 
-4.02994e-05 -0.416525 0 
0.05006 -0.386948 0 
0.100784 -0.416323 0 
0.150432 -0.388572 0 
0.200855 -0.420694 0 
0.25086 -0.396905 0 
0.301746 -0.379789 0 
0.344135 -0.410678 0 
0.385823 -0.385823 0 
0.4368 -0.397506 0 
0.486608 -0.401881 0 
0.542384 -0.399615 0 
0.594743 -0.402948 0 
0.646641 -0.405575 0 
0.698945 -0.407371 0 
0.751626 -0.408863 0 
0.804654 -0.410181 0 
0.857929 -0.411236 0 
0.912429 -0.409236 0 
-0.934288 -0.356519 0 
-0.879963 -0.359855 0 
-0.827415 -0.358606 0 
-0.774971 -0.357337 0 
-0.722823 -0.355968 0 
-0.670703 -0.354417 0 
-0.618952 -0.352514 0 
-0.567003 -0.350494 0 
-0.513639 -0.351685 0 
-0.462546 -0.348492 0 
-0.411459 -0.344215 0 
-0.351697 -0.351697 0 
-0.29839 -0.336232 0 
-0.249846 -0.342529 0 
-0.200971 -0.367271 0 
-0.149995 -0.337521 0 
-0.100435 -0.3646 0 
-0.0498692 -0.335025 0 
-6.88684e-05 -0.365025 0 
0.0495433 -0.334795 0 
0.0996798 -0.364834 0 
0.148162 -0.337172 0 
0.199644 -0.368939 0 
0.24763 -0.345582 0 
0.295348 -0.332889 0 
0.34978 -0.34978 0 
0.410678 -0.344135 0 
0.462562 -0.348831 0 
0.513798 -0.351514 0 
0.567174 -0.350318 0 
0.619096 -0.352457 0 
0.670836 -0.354397 0 
0.722893 -0.355952 0 
0.775038 -0.357323 0 
0.827419 -0.358581 0 
0.879943 -0.359894 0 
0.93426 -0.356593 0 
-0.952721 -0.303845 0 
-0.898929 -0.308871 0 
-0.847481 -0.306888 0 
-0.795641 -0.305781 0 
-0.743684 -0.304815 0 
-0.691387 -0.303722 0 
-0.639219 -0.302427 0 
-0.586897 -0.300977 0 
-0.534146 -0.301574 0 
-0.48291 -0.299695 0 
-0.432968 -0.295416 0 
-0.381507 -0.30136 0 
-0.336232 -0.29839 0 
-0.288184 -0.288184 0 
-0.242975 -0.290577 0 
-0.198059 -0.315051 0 
-0.148383 -0.285894 0 
-0.0994753 -0.313232 0 
-0.0507184 -0.283118 0 
-0.000202902 -0.313447 0 
0.0500077 -0.282824 0 
0.0988289 -0.312817 0 
0.148102 -0.28482 0 
0.195742 -0.317413 0 
0.240766 -0.295824 0 
0.285014 -0.285014 0 
0.332889 -0.295348 0 
0.379789 -0.301746 0 
0.432268 -0.296569 0 
0.483005 -0.299839 0 
0.534348 -0.301273 0 
0.587085 -0.30086 0 
0.639359 -0.302407 0 
0.691518 -0.303753 0 
0.743741 -0.304862 0 
0.795701 -0.305831 0 
0.847482 -0.306946 0 
0.898924 -0.308979 0 
0.952687 -0.303953 0 
-0.96803 -0.250833 0 
-0.916037 -0.258282 0 
-0.866979 -0.254732 0 
-0.816639 -0.25358 0 
-0.765535 -0.252907 0 
-0.71362 -0.252254 0 
-0.661417 -0.251503 0 
-0.608767 -0.250543 0 
-0.555692 -0.250874 0 
-0.503 -0.250032 0 
-0.450633 -0.247004 0 
-0.395692 -0.25021 0 
-0.342529 -0.249846 0 
-0.290577 -0.242975 0 
-0.239946 -0.239946 0 
-0.194478 -0.26004 0 
-0.151293 -0.23238 0 
-0.101048 -0.260904 0 
-0.0503938 -0.232537 0 
-0.000203281 -0.262984 0 
0.050638 -0.232316 0 
0.100942 -0.260855 0 
0.152412 -0.232597 0 
0.195768 -0.261421 0 
0.241873 -0.241873 0 
0.295824 -0.240766 0 
0.345582 -0.24763 0 
0.396905 -0.25086 0 
0.450921 -0.247983 0 
[...]
POINT_DATA 1245 
VECTORS vectors float
0.338315 -0.137698 0.930904 
0.338748 -0.12156 0.932991 
0.340851 -0.099124 0.934877 
0.348865 -0.0825977 0.933526 
0.348508 -0.0727756 0.934476 
0.347172 -0.0587184 0.935961 
0.344457 -0.0535075 0.937276 
0.325257 -0.0526822 0.944157 
0.308493 -0.0413995 0.950325 
0.288334 -0.0322445 0.956987 
0.266333 0.00145809 0.96388 
0.248485 0.0568158 0.966968 
0.239538 0.0994129 0.965784 
0.323803 -0.175102 0.92978 
0.325936 -0.169013 0.930162 
0.280434 -0.134545 0.950397 
0.284876 -0.117695 0.951312 
0.290881 -0.10317 0.951181 
0.280174 -0.0851645 0.956164 
0.297894 -0.0718142 0.951894 
0.285368 -0.0593032 0.956581 
0.294517 -0.0515219 0.954256 
0.268819 -0.0442708 0.962173 
0.264497 -0.0327816 0.963829 
0.2418 -0.0108122 0.970266 
0.236059 0.0218219 0.971494 
0.220673 0.0583968 0.973598 
0.219464 0.0901673 0.971445 
0.254322 0.150593 0.955323 
0.278124 0.180229 0.943485 
0.308707 -0.204315 0.928954 
0.312747 -0.192509 0.930124 
0.269887 -0.161694 0.949219 
0.273653 -0.150765 0.949939 
0.233568 -0.121232 0.964753 
0.23502 -0.109287 0.965827 
0.241283 -0.0976998 0.965524 
0.221869 -0.0787224 0.971893 
0.248156 -0.0675258 0.966364 
0.231315 -0.0568229 0.971218 
0.250167 -0.0518001 0.966816 
0.223182 -0.0414312 0.973896 
0.23061 -0.0287374 0.972622 
0.204739 -0.00513361 0.978803 
0.208014 0.0205599 0.97791 
0.193062 0.0494086 0.979942 
0.191148 0.0719301 0.978922 
0.228885 0.119961 0.966034 
0.239392 0.143212 0.960303 
0.293821 0.198714 0.934977 
0.311971 0.198481 0.929128 
0.300488 -0.214675 0.929312 
0.26287 -0.186185 0.946697 
0.266668 -0.174404 0.947877 
0.229645 -0.146924 0.962121 
0.230855 -0.134661 0.963625 
0.200338 -0.105783 0.973999 
0.19865 -0.0953932 0.975417 
0.199225 -0.0877109 0.976021 
0.180263 -0.0679215 0.981271 
0.201297 -0.0602397 0.977676 
0.182416 -0.0491573 0.981992 
0.202351 -0.0474553 0.978163 
0.172888 -0.0317273 0.98443 
0.190021 -0.0211636 0.981552 
0.16281 0.00243053 0.986655 
0.174457 0.0216045 0.984428 
0.160772 0.0437791 0.98602 
0.160091 0.0605132 0.985246 
0.195438 0.0922851 0.976364 
0.200257 0.111671 0.973358 
0.249031 0.158463 0.955444 
0.249758 0.161184 0.954799 
0.297173 0.188509 0.93603 
0.26739 -0.250731 0.930396 
0.284775 -0.237505 0.928706 
0.253568 -0.202328 0.945921 
0.219796 -0.17322 0.960044 
0.226898 -0.159285 0.960805 
0.196049 -0.133241 0.9715 
0.199975 -0.119551 0.97248 
0.17107 -0.0910251 0.981045 
0.170441 -0.0812355 0.982014 
0.169617 -0.0752167 0.982635 
0.151774 -0.0597445 0.986608 
0.163257 -0.0520607 0.985209 
0.140859 -0.0406026 0.989197 
0.152492 -0.036793 0.98762 
0.123497 -0.019722 0.992149 
0.143238 -0.00975074 0.98964 
0.1236 0.00811172 0.992299 
0.139639 0.0242441 0.989906 
0.13132 0.0422007 0.990441 
0.132767 0.0550426 0.989618 
0.163704 0.0747739 0.983672 
0.167021 0.0911868 0.981728 
0.203773 0.126475 0.970814 
0.199985 0.130068 0.971127 
0.240417 0.153722 0.95842 
0.290372 0.173501 0.941053 
0.260632 0.177917 0.948903 
0.246161 -0.274924 0.92942 
0.227017 -0.232954 0.945619 
0.239016 -0.21747 0.94635 
0.208659 -0.18672 0.959998 
0.178156 -0.157325 0.971344 
0.187769 -0.14553 0.971372 
0.160481 -0.119268 0.979807 
0.168089 -0.105782 0.98008 
0.135683 -0.0798544 0.987529 
0.140621 -0.0712229 0.987498 
0.145316 -0.0665397 0.987145 
0.128059 -0.0563809 0.990163 
0.134467 -0.0472372 0.989792 
0.110295 -0.0361473 0.993241 
0.112258 -0.0281626 0.99328 
0.0922119 -0.0166995 0.995599 
0.105218 -0.00532163 0.994435 
0.0986338 0.00214609 0.995121 
0.112299 0.0224061 0.993422 
0.108631 0.0366708 0.993406 
0.109534 0.0479037 0.992828 
0.137167 0.0658943 0.988354 
0.13856 0.0794443 0.987162 
0.166561 0.104505 0.980477 
0.159661 0.109698 0.981058 
0.189221 0.130106 0.973277 
0.226364 0.153715 0.961837 
0.206756 0.170392 0.963441 
0.217558 0.200515 0.955229 
0.23961 -0.295352 0.924854 
0.214858 -0.250028 0.944098 
0.193422 -0.211088 0.958139 
0.196458 -0.196081 0.960706 
0.170627 -0.166275 0.971205 
0.146224 -0.136897 0.979733 
0.15079 -0.128903 0.980126 
0.127829 -0.10467 0.986257 
0.132717 -0.0932231 0.98676 
0.101895 -0.0732246 0.992097 
0.10782 -0.0665569 0.99194 
0.118627 -0.0630039 0.990938 
0.100625 -0.054476 0.993432 
0.108091 -0.0451837 0.993114 
0.0852477 -0.0347488 0.995754 
0.0882714 -0.0263085 0.995749 
0.0791511 -0.019737 0.996667 
0.0870549 -0.0118012 0.996134 
0.0863602 -0.010204 0.996212 
0.0949807 0.0108229 0.99542 
0.0898238 0.0238344 0.995672 
0.0860642 0.0352414 0.995666 
0.111768 0.0575429 0.992067 
0.111289 0.0696302 0.991346 
0.134929 0.0906687 0.986698 
0.128527 0.0964787 0.987002 
0.149467 0.117012 0.981819 
0.175073 0.140747 0.974443 
0.167162 0.158621 0.973086 
0.179739 0.186979 0.965781 
0.190177 0.220882 0.956579 
0.227295 -0.311539 0.922649 
0.204723 -0.259833 0.943703 
0.180862 -0.215832 0.959534 
0.166089 -0.180138 0.969518 
0.147036 -0.148548 0.977913 
0.125872 -0.118354 0.984961 
0.124029 -0.110708 0.986083 
0.10508 -0.0921276 0.990187 
0.103292 -0.0838841 0.991108 
0.0780749 -0.0691482 0.994547 
0.079826 -0.0638517 0.994762 
0.0899063 -0.0606971 0.994099 
0.0711538 -0.0496586 0.996228 
0.0789997 -0.0427426 0.995958 
0.0609333 -0.0329295 0.997599 
0.0718459 -0.0263314 0.997068 
0.0668858 -0.0190761 0.997578 
0.0778904 -0.0174144 0.99681 
0.0710622 -0.0140679 0.997373 
0.0797326 -0.00164863 0.996815 
0.0687307 0.0123388 0.997559 
0.0626995 0.0231119 0.997765 
0.0864656 0.0453914 0.99522 
0.0866642 0.0565222 0.994633 
0.107702 0.0784768 0.991081 
0.10313 0.084069 0.991109 
0.121798 0.107392 0.986728 
0.13883 0.135032 0.981067 
0.14424 0.162827 0.976054 
0.153981 0.20202 0.967201 
0.1604 0.26208 0.951623 
0.232509 -0.327363 0.915845 
0.199642 -0.271927 0.941381 
0.174714 -0.226458 0.958223 
0.155202 -0.191794 0.969086 
0.141799 -0.163361 0.976323 
0.125403 -0.13174 0.98332 
0.107359 -0.104235 0.988741 
0.105755 -0.096219 0.989726 
0.0867846 -0.0836773 0.992707 
0.0832537 -0.0775718 0.993505 
0.0635578 -0.062883 0.995995 
0.0617792 -0.0568168 0.996471 
0.0652014 -0.0540903 0.996405 
0.0485378 -0.0398367 0.998027 
0.0522555 -0.0378159 0.997917 
0.0417829 -0.0295124 0.998691 
0.0542472 -0.0238801 0.998242 
0.0469885 -0.0148823 0.998785 
0.0600549 -0.0145319 0.998089 
0.0458348 -0.00845862 0.998913 
0.0577894 -0.00294126 0.998324 
0.0457087 0.0104172 0.9989 
0.0437866 0.016628 0.998903 
0.064384 0.0316101 0.997424 
0.0662144 0.0411824 0.996955 
0.0841721 0.0638035 0.994406 
0.077567 0.069305 0.994575 
0.0915113 0.0930877 0.991444 
0.106109 0.12037 0.987042 
0.115299 0.143013 0.982982 
0.124271 0.172528 0.977134 
0.135107 0.221425 0.965773 
0.154084 0.276368 0.948619 
0.218431 -0.314657 0.923731 
0.19113 -0.274706 0.942341 
0.166217 -0.231758 0.958468 
0.145417 -0.197625 0.969432 
0.128756 -0.171897 0.976664 
0.115918 -0.145939 0.982479 
0.101908 -0.117221 0.987863 
0.0859679 -0.0938324 0.991869 
0.0863959 -0.087062 0.992449 
0.0681134 -0.0769384 0.994707 
0.067613 -0.0712667 0.995163 
0.0537126 -0.0523989 0.997181 
0.0518354 -0.0447234 0.997654 
0.0498078 -0.0413883 0.997901 
0.036802 -0.0297542 0.99888 
0.036065 -0.0313649 0.998857 
0.031077 -0.0269878 0.999153 
0.0378493 -0.0209237 0.999064 
0.0282592 -0.0136274 0.999508 
0.035509 -0.0100078 0.999319 
0.0238534 -0.00443446 0.999706 
0.0339629 0.00293014 0.999419 
0.0294123 0.0120984 0.999494 
0.0333037 0.0129261 0.999362 
0.0485601 0.021211 0.998595 
0.0493655 0.0305927 0.998312 
0.0622519 0.0482386 0.996894 
0.0557746 0.0556644 0.996891 
0.0638727 0.0767481 0.995003 
0.0745302 0.103175 0.991867 
0.0865135 0.127047 0.988117 
0.0995009 0.150499 0.98359 
0.111216 0.186099 0.976216 
0.122173 0.235333 0.964205 
0.131784 0.287125 0.948784 
0.2101 -0.315159 0.925491 
0.179916 -0.273046 0.945027 
0.155045 -0.234182 0.95975 
0.133916 -0.197316 0.97115 
0.115349 -0.168819 0.978874 
0.100403 -0.146144 0.984155 
0.0885003 -0.121975 0.98858 
0.0763888 -0.0972389 0.992325 
0.065625 -0.0805393 0.994589 
0.0520808 -0.0678921 0.996332 
0.0534905 -0.0614768 0.996674 
0.0445975 -0.0428993 0.998084 
0.0451356 -0.0356162 0.998346 
0.0418435 -0.0307936 0.99865 
0.0302694 -0.0278627 0.999153 
0.0285581 -0.0280419 0.999199 
0.0242116 -0.0277145 0.999323 
0.0267356 -0.0213402 0.999415 
0.0181838 -0.0176148 0.999679 
0.0188849 -0.010685 0.999765 
0.0164494 -0.0068244 0.999841 
0.0212588 0.00452524 0.999764 
0.0246863 0.00944525 0.999651 
0.0293124 0.00860454 0.999533 
0.0374224 0.0149942 0.999187 
0.0360972 0.0258877 0.999013 
0.0433574 0.0419917 0.998177 
0.0476979 0.0590591 0.997114 
0.0540818 0.0814896 0.995206 
0.0634978 0.108354 0.992082 
0.0773067 0.13464 0.987874 
0.0915804 0.163749 0.982242 
0.101597 0.202634 0.97397 
0.10901 0.250774 0.961888 
0.12195 0.306055 0.944171 
0.193751 -0.302673 0.933193 
0.16762 -0.2706 0.947987 
0.143988 -0.236627 0.960872 
0.123681 -0.199541 0.972053 
0.105527 -0.164143 0.980776 
0.0894599 -0.136837 0.986546 
0.076949 -0.115951 0.99027 
0.0666071 -0.0969942 0.993054 
0.0571086 -0.0813762 0.995046 
0.0467793 -0.069011 0.996519 
0.0369652 -0.0549922 0.997802 
0.0409501 -0.0499726 0.997911 
0.0322947 -0.0387328 0.998728 
0.0342838 -0.0376405 0.998703 
0.0345507 -0.0319021 0.998894 
0.0218584 -0.0322298 0.999241 
0.0222132 -0.0289036 0.999335 
0.0177167 -0.0278323 0.999456 
0.019638 -0.0249696 0.999495 
0.0136221 -0.0234351 0.999633 
0.0138213 -0.0154527 0.999785 
0.0157023 -0.0117647 0.999807 
0.0205022 -0.000156794 0.99979 
0.0256902 0.000775183 0.99967 
0.0244657 0.00261157 0.999697 
0.0292759 0.0118469 0.999501 
0.024075 0.0226563 0.999453 
0.0304015 0.0380258 0.998814 
0.0382541 0.0495502 0.998039 
0.0457104 0.0630753 0.996961 
0.0500245 0.085892 0.995048 
0.0563297 0.115764 0.991678 
0.0674521 0.14674 0.986873 
0.0789139 0.178431 0.980783 
0.0859938 0.215164 0.972784 
0.0911824 0.258997 0.961565 
0.0961358 0.30309 0.9481 
0.15396 -0.299541 0.941579 
0.145231 -0.264781 0.953309 
0.128257 -0.234535 0.963609 
0.112097 -0.202239 0.9729 
0.0964609 -0.165101 0.981548 
0.0821369 -0.131005 0.987973 
0.0697249 -0.10675 0.991838 
0.0591109 -0.0908792 0.994106 
0.0489505 -0.0794382 0.995637 
0.0381467 -0.0680686 0.996951 
0.0293499 -0.0538856 0.998116 
0.0259433 -0.0403926 0.998847 
0.0202988 -0.036134 0.999141 
0.0195974 -0.0402913 0.998996 
0.0224959 -0.0390744 0.998983 
0.0118425 -0.0325674 0.999399 
0.0150624 -0.0275164 0.999508 
0.0130087 -0.0214395 0.999686 
0.0145852 -0.0265831 0.99954 
0.00962753 -0.0259415 0.999617 
0.0114036 -0.0204421 0.999726 
0.0122077 -0.0154988 0.999805 
0.0202689 -0.00807317 0.999762 
0.0191147 -0.00642027 0.999797 
0.0163367 -0.00588526 0.999849 
0.0162785 0.00978099 0.99982 
0.01641 0.029421 0.999432 
0.0254318 0.043532 0.998728 
0.0361428 0.0522103 0.997982 
0.0411468 0.0658052 0.996984 
0.040791 0.092457 0.994881 
0.0430278 0.126445 0.99104 
0.0515478 0.158415 0.986026 
0.0614291 0.188004 0.980245 
0.0680879 0.22289 0.972463 
0.0726554 0.268902 0.960423 
0.0736388 0.328484 0.941635 
0.139477 -0.313978 0.939129 
0.122519 -0.264126 0.956675 
0.107886 -0.229539 0.967302 
0.0954681 -0.200504 0.97503 
0.0845045 -0.168872 0.982009 
0.0731075 -0.134471 0.988217 
0.0629168 -0.106502 0.99232 
0.053357 -0.0889643 0.994605 
0.0436361 -0.0786301 0.995948 
0.0336311 -0.0692445 0.997033 
0.0256688 -0.055778 0.998113 
0.0201556 -0.0400874 0.998993 
0.0173569 -0.0317093 0.999346 
0.0128362 -0.0327772 0.99938 
0.00942995 -0.0392535 0.999185 
0.00976459 -0.0398023 0.99916 
0.00467217 -0.0264177 0.99964 
0.00936595 -0.0197441 0.999761 
0.00930235 -0.0117988 0.999887 
0.0105728 -0.0218836 0.999705 
0.00424225 -0.0235716 0.999713 
0.00662044 -0.0222859 0.99973 
0.00649899 -0.0146303 0.999872 
0.0132855 -0.0110813 0.99985 
0.0114356 -0.0121114 0.999861 
0.00381863 -0.00802041 0.999961 
0.00476497 -0.00216824 0.999986 
0.0059915 0.0145971 0.999876 
0.0121124 0.0311369 0.999442 
0.0220315 0.0427396 0.998843 
0.0295324 0.0509528 0.998264 
0.0303279 0.0677721 0.99724 
0.0286528 0.0988848 0.994686 
0.0316561 0.134651 0.990387 
0.0405149 0.165548 0.985369 
0.0495203 0.194385 0.979674 
0.0556524 0.232724 0.970949 
0.0600514 0.284145 0.956899 
0.0633281 0.346198 0.936022 
0.110289 -0.302553 0.94673 
0.100515 -0.264131 0.959235 
0.0851611 -0.225736 0.970459 
0.0766711 -0.196205 0.977561 
0.0692241 -0.170139 0.982986 
0.0616266 -0.142186 0.98792 
0.0532948 -0.114972 0.991938 
0.0452125 -0.0942817 0.994518 
0.0380422 -0.0809518 0.995992 
0.0318731 -0.0705305 0.997 
0.0272356 -0.0574379 0.997978 
0.0237438 -0.0409844 0.998878 
0.0192636 -0.0297866 0.999371 
0.0145742 -0.0300085 0.999443 
0.00798314 -0.0327699 0.999431 
0.00378177 -0.0329532 0.99945 
0.00284877 -0.0225309 0.999742 
0.00570923 -0.0130825 0.999898 
0.00557737 -0.00924754 0.999942 
0.00573288 -0.0154773 0.999864 
-0.00102099 -0.0216718 0.999765 
0.00130993 -0.0205394 0.999788 
0.0024058 -0.0103479 0.999944 
0.00642817 -0.00852307 0.999943 
0.00333023 -0.00682381 0.999971 
0.00096221 -0.00992843 0.99995 
-0.000562277 -0.000704178 1 
0.00550736 0.0133385 0.999896 
0.0136633 0.0297775 0.999463 
0.0189973 0.0400879 0.999016 
0.0196796 0.0499831 0.998556 
0.0182132 0.0711629 0.997298 
0.0201102 0.105234 0.994244 
0.0264114 0.140707 0.989699 
0.0340417 0.171096 0.984666 
0.0402041 0.203452 0.978259 
0.0442498 0.245616 0.968357 
0.047953 0.299055 0.95303 
0.0462878 0.360122 0.931756 
0.0777958 -0.324674 0.942621 
0.0756202 -0.274064 0.958734 
0.0644909 -0.231267 0.97075 
0.0565598 -0.194833 0.979204 
0.053022 -0.167926 0.984373 
0.0489633 -0.144949 0.988227 
0.0426264 -0.121588 0.991665 
0.0346697 -0.100062 0.994377 
0.0278806 -0.0832595 0.996138 
0.0248864 -0.0700203 0.997235 
0.0251958 -0.0571567 0.998047 
0.0255301 -0.0437172 0.998718 
0.0227442 -0.0325585 0.999211 
0.0170211 -0.0277559 0.99947 
0.0103896 -0.027967 0.999555 
0.00550458 -0.0269594 0.999621 
0.00551815 -0.0213805 0.999756 
0.00509997 -0.014292 0.999885 
0.00419651 -0.0167296 0.999851 
0.0011075 -0.0161594 0.999869 
-0.00163556 -0.0250768 0.999684 
-0.00156357 -0.0198191 0.999802 
0.000943356 -0.00949915 0.999954 
0.00288552 -0.00366549 0.999989 
0.00299863 -0.00510828 0.999982 
0.00329571 -0.00604828 0.999976 
0.00645873 0.00125898 0.999978 
0.0114179 0.016896 0.999792 
0.0148237 0.0316738 0.999388 
0.0128947 0.0423426 0.99902 
0.0097978 0.0550813 0.998434 
0.0115192 0.0795954 0.996761 
0.0175143 0.113987 0.993328 
0.022856 0.148436 0.988658 
0.0257005 0.180644 0.983213 
0.0280484 0.21762 0.97563 
0.0321813 0.264976 0.963718 
0.0374369 0.31794 0.947371 
0.042631 0.378582 0.924585 
0.0722326 -0.315962 0.946018 
0.0541691 -0.26296 0.963285 
0.0413874 -0.211951 0.976403 
0.0373476 -0.174348 0.983976 
0.0350768 -0.148198 0.988335 
0.0324272 -0.125359 0.991581 
0.0263052 -0.102444 0.994391 
0.0181645 -0.0825298 0.996423 
0.0135399 -0.0668666 0.99767 
0.0145687 -0.0539619 0.998437 
0.0174246 -0.0428719 0.998929 
0.0163955 -0.0337643 0.999295 
0.0117002 -0.0281119 0.999536 
0.00702775 -0.0258369 0.999641 
0.00576544 -0.0244629 0.999684 
0.00642038 -0.0228407 0.999719 
0.00901017 -0.0223436 0.99971 
0.00756371 -0.0202398 0.999767 
0.00639076 -0.0245341 0.999679 
0.00128416 -0.0242718 0.999705 
0.00384383 -0.0296535 0.999553 
0.00074266 -0.0229048 0.999737 
0.00385416 -0.0153701 0.999874 
0.00237732 -0.00505638 0.999984 
0.00403115 -0.00345613 0.999986 
0.00834844 -0.00655968 0.999944 
0.0105557 -0.00513792 0.999931 
0.0104977 0.004889 0.999933 
0.0106365 0.0208322 0.999726 
0.0088084 0.03757 0.999255 
0.00620126 0.0509902 0.99868 
0.00769774 0.0672703 0.997705 
0.0150243 0.0936791 0.995489 
0.0210533 0.127768 0.991581 
0.0208792 0.162452 0.986496 
0.0186568 0.199843 0.97965 
0.0194752 0.246896 0.968846 
0.0282765 0.308033 0.950955 
0.0465075 0.37705 0.925025 
0.0234903 -0.309773 0.95052 
0.0319339 -0.273744 0.961272 
0.0283721 -0.23257 0.972166 
0.0247562 -0.192179 0.981048 
0.0220289 -0.161159 0.986683 
0.0208892 -0.135677 0.990533 
0.0192782 -0.1092 0.993833 
0.0142983 -0.0840586 0.996358 
0.00762729 -0.0647977 0.997869 
0.00457703 -0.0519226 0.998641 
0.00548318 -0.0435529 0.999036 
0.00592618 -0.0368146 0.999305 
0.00350384 -0.0304739 0.999529 
0.00024958 -0.0258807 0.999665 
-0.000282265 -0.0237096 0.999719 
0.00247629 -0.0226672 0.99974 
0.00730822 -0.0218232 0.999735 
0.00937244 -0.0231818 0.999687 
0.00557617 -0.0248099 0.999677 
0.00410474 -0.0288354 0.999576 
0.00788918 -0.0271275 0.999601 
0.00892096 -0.023511 0.999684 
0.00589346 -0.0148944 0.999872 
0.00366362 -0.00994799 0.999944 
0.00694378 -0.00905761 0.999935 
0.0106034 -0.00722918 0.999918 
0.00913137 -0.000493302 0.999958 
0.00511911 0.0119547 0.999915 
0.00301547 0.0287453 0.999582 
0.00335286 0.0460592 0.998933 
0.00633447 0.0618145 0.998068 
0.0134887 0.0812808 0.9966 
0.020682 0.110014 0.993715 
0.0215604 0.144962 0.989202 
0.0169073 0.18113 0.983314 
0.0129112 0.221918 0.97498 
0.0137696 0.270504 0.96262 
0.0194058 0.320162 0.947164 
0.0236146 0.366735 0.930026 
0.00190957 -0.323224 0.94632 
0.0105673 -0.267246 0.96357 
0.0138536 -0.219835 0.975439 
0.0126092 -0.182012 0.983216 
0.00869099 -0.152954 0.988195 
0.00823591 -0.124105 0.992235 
0.0091548 -0.0937854 0.99555 
0.00683614 -0.0683586 0.997637 
0.00275915 -0.0523203 0.998627 
0.000677985 -0.0452392 0.998976 
0.000736029 -0.0420515 0.999115 
0.000671269 -0.0364877 0.999334 
-0.000544539 -0.0287518 0.999586 
-0.00185771 -0.0240175 0.99971 
-0.000336721 -0.0228615 0.999739 
0.00399425 -0.0223344 0.999743 
0.00715556 -0.0213563 0.999746 
0.00498461 -0.0207415 0.999772 
-0.00125726 -0.0177126 0.999842 
0.00275825 -0.023227 0.999726 
0.00332548 -0.0162451 0.999863 
0.0113838 -0.0206153 0.999723 
0.0105532 -0.0202151 0.99974 
0.00368798 -0.0191245 0.99981 
0.000626673 -0.0158075 0.999875 
0.00327414 -0.0107265 0.999937 
0.00537261 -0.00271254 0.999982 
0.00278506 0.00672765 0.999973 
4.48528e-06 0.018351 0.999832 
0.000721953 0.0335847 0.999436 
0.00343456 0.0503798 0.998724 
0.00679571 0.0679577 0.997665 
0.010312 0.0922675 0.995681 
0.0114718 0.126418 0.991911 
0.00967522 0.164238 0.986373 
0.00734192 0.203116 0.979127 
0.00654473 0.249357 0.968389 
0.0125954 0.305304 0.952172 
0.0251516 0.368079 0.929454 
-0.0167573 -0.312032 0.949924 
-0.012046 -0.27704 0.960783 
-0.00284831 -0.23834 0.971178 
0.000490563 -0.19908 0.979983 
-0.00366599 -0.167005 0.985949 
-0.00652828 -0.139133 0.990252 
-0.00299254 -0.109737 0.993956 
0.00185146 -0.081618 0.996662 
0.00269976 -0.060903 0.99814 
0.0012128 -0.0503204 0.998732 
0.000955041 -0.0473984 0.998876 
0.0023271 -0.0441435 0.999022 
0.00331693 -0.0352625 0.999373 
0.0026448 -0.0252625 0.999677 
0.00200438 -0.021362 0.99977 
0.00355426 -0.0221901 0.999747 
0.00591677 -0.021692 0.999747 
0.00412816 -0.0192943 0.999805 
-0.00108007 -0.0163493 0.999866 
-0.00267308 -0.0119703 0.999925 
0.00721089 -0.0132361 0.999886 
0.00956386 -0.0175341 0.999801 
0.00442855 -0.0201651 0.999787 
-0.00218592 -0.0194969 0.999808 
-0.00220542 -0.013796 0.999902 
0.00136917 -0.00434733 0.99999 
0.00282501 0.00553508 0.999981 
0.00175949 0.0140005 0.9999 
0.00153988 0.0241943 0.999706 
0.00199344 0.0384154 0.99926 
0.000710696 0.0550493 0.998483 
-0.00244061 0.075976 0.997107 
-0.00567209 0.106782 0.994266 
-0.00656744 0.144562 0.989474 
-0.00465705 0.181674 0.983348 
-0.0026811 0.221061 0.975256 
-0.000966822 0.268332 0.963326 
0.00266328 0.316531 0.948578 
0.00822432 0.360483 0.932729 
-0.0532921 -0.31824 0.946511 
-0.0322246 -0.268759 0.962668 
-0.0200476 -0.219258 0.975461 
-0.0196235 -0.178952 0.983662 
-0.022861 -0.149019 0.98857 
-0.0187877 -0.122145 0.992334 
-0.0089069 -0.0956684 0.995373 
-0.00246654 -0.0740266 0.997253 
-0.00182526 -0.0604398 0.99817 
-0.00183553 -0.0535837 0.998562 
0.000587969 -0.0476579 0.998864 
0.00338828 -0.0369799 0.99931 
0.00414946 -0.0241563 0.9997 
0.00391378 -0.0181172 0.999828 
0.00533147 -0.0202028 0.999782 
0.00698343 -0.022971 0.999712 
0.00568077 -0.0213596 0.999756 
0.00164622 -0.0174966 0.999846 
-0.00242273 -0.0133075 0.999909 
0.00429509 -0.0171206 0.999844 
0.00350573 -0.0124062 0.999917 
0.00881555 -0.0167033 0.999822 