# vtk DataFile Version 3.0 
Exported using Morpho https://github.com/Morpho-lang/morpho 
ASCII 
DATASET UNSTRUCTURED_GRID 

POINTS 1245 float 
-0.303845 -0.952721 0 
-0.250833 -0.96803 0 
-0.195084 -0.980787 0 
-0.146308 -0.989239 0 
-0.0940719 -0.995565 0 
-0.0475118 -0.998871 0 
-0.000246339 -1 0 
0.0470875 -0.998891 0 
0.0937543 -0.995595 0 
0.146139 -0.989264 0 
0.195062 -0.980791 0 
0.250843 -0.968028 0 
0.303953 -0.952687 0 
-0.409153 -0.912466 0 
-0.356519 -0.934288 0 
-0.308871 -0.898929 0 
-0.258282 -0.916037 0 
-0.207345 -0.934859 0 
-0.154868 -0.930629 0 
-0.104343 -0.948989 0 
-0.0520099 -0.939193 0 
-8.5762e-05 -0.954582 0 
0.0518744 -0.939288 0 
0.104354 -0.949042 0 
0.154696 -0.9306 0 
0.207366 -0.934975 0 
0.258274 -0.916081 0 
0.308979 -0.898924 0 
0.356593 -0.93426 0 
0.409236 -0.912429 0 
-0.513788 -0.857917 0 
-0.461695 -0.887039 0 
-0.411157 -0.857936 0 
-0.359855 -0.879963 0 
-0.306888 -0.847481 0 
-0.254732 -0.866979 0 
-0.201991 -0.889059 0 
-0.149956 -0.874108 0 
-0.100608 -0.900088 0 
-0.0497575 -0.880388 0 
2.4595e-05 -0.904789 0 
0.0496869 -0.8804 0 
0.100612 -0.900177 0 
0.149872 -0.874171 0 
0.202071 -0.889165 0 
0.254695 -0.867031 0 
0.306946 -0.847482 0 
0.359894 -0.879943 0 
0.411236 -0.857929 0 
0.461748 -0.887011 0 
0.513842 -0.857885 0 
-0.564741 -0.825268 0 
-0.512908 -0.802945 0 
-0.462372 -0.832348 0 
-0.410124 -0.804631 0 
-0.358606 -0.827415 0 
-0.305781 -0.795641 0 
-0.25358 -0.816639 0 
-0.200756 -0.839997 0 
-0.149043 -0.818944 0 
-0.0987265 -0.846667 0 
-0.0490473 -0.822548 0 
5.00659e-05 -0.849932 0 
0.0490834 -0.822542 0 
0.0987838 -0.846676 0 
0.148997 -0.818924 0 
0.200826 -0.840131 0 
0.253508 -0.816728 0 
0.305831 -0.795701 0 
0.358581 -0.827419 0 
0.410181 -0.804654 0 
0.462414 -0.83234 0 
0.512965 -0.802929 0 
0.564777 -0.825243 0 
-0.660798 -0.750564 0 
-0.614015 -0.789295 0 
-0.561786 -0.769772 0 
-0.510673 -0.747856 0 
-0.460836 -0.778365 0 
-0.408794 -0.751554 0 
-0.357337 -0.774971 0 
-0.304815 -0.743684 0 
-0.252907 -0.765535 0 
-0.200631 -0.789263 0 
-0.149244 -0.764328 0 
-0.0986912 -0.791935 0 
-0.0492815 -0.765764 0 
4.16586e-05 -0.79382 0 
0.0492411 -0.765708 0 
0.0987508 -0.791951 0 
0.149196 -0.764326 0 
0.200666 -0.789356 0 
0.252841 -0.765599 0 
0.304862 -0.743741 0 
0.357323 -0.775038 0 
0.408863 -0.751626 0 
0.460863 -0.778382 0 
0.510716 -0.747859 0 
0.561819 -0.769761 0 
0.614041 -0.789274 0 
0.660811 -0.750552 0 
-0.707107 -0.707107 0 
-0.654819 -0.699058 0 
-0.60813 -0.73348 0 
-0.558104 -0.71337 0 
-0.509495 -0.692659 0 
-0.45935 -0.724356 0 
-0.407328 -0.698865 0 
-0.355968 -0.722823 0 
-0.303722 -0.691387 0 
-0.252254 -0.71362 0 
-0.20067 -0.737336 0 
-0.149608 -0.710068 0 
-0.0991558 -0.737129 0 
-0.0495872 -0.709825 0 
-2.23646e-05 -0.737917 0 
0.0494408 -0.709766 0 
0.0991291 -0.737116 0 
0.149502 -0.710042 0 
0.200696 -0.73743 0 
0.252186 -0.713735 0 
0.303753 -0.691518 0 
0.355952 -0.722893 0 
0.407371 -0.698945 0 
0.459374 -0.724407 0 
0.509524 -0.692668 0 
0.558131 -0.713361 0 
0.608151 -0.733462 0 
0.654824 -0.699048 0 
0.707107 -0.707107 0 
-0.750564 -0.660798 0 
-0.699058 -0.654819 0 
-0.647692 -0.647692 0 
-0.603437 -0.675718 0 
-0.55905 -0.655305 0 
-0.508501 -0.639581 0 
-0.457509 -0.671321 0 
-0.405555 -0.646545 0 
-0.354417 -0.670703 0 
-0.302427 -0.639219 0 
-0.251503 -0.661417 0 
-0.20061 -0.684911 0 
-0.149717 -0.655943 0 
-0.0995004 -0.682466 0 
-0.0498216 -0.654561 0 
-5.02113e-05 -0.682664 0 
0.0496787 -0.654499 0 
0.0994374 -0.682501 0 
0.149603 -0.655909 0 
0.200573 -0.684972 0 
0.251388 -0.661524 0 
0.302407 -0.639359 0 
0.354397 -0.670836 0 
0.405575 -0.646641 0 
0.457525 -0.67138 0 
0.508497 -0.639623 0 
0.559063 -0.655324 0 
0.603436 -0.675715 0 
0.64769 -0.64769 0 
0.699048 -0.654824 0 
0.750552 -0.660811 0 
-0.789295 -0.614015 0 
-0.73348 -0.60813 0 
-0.675718 -0.603437 0 
-0.613088 -0.613088 0 
-0.55962 -0.604068 0 
-0.506189 -0.588854 0 
-0.455505 -0.618874 0 
-0.403019 -0.594688 0 
-0.352514 -0.618952 0 
-0.300977 -0.586897 0 
-0.250543 -0.608767 0 
-0.200257 -0.632053 0 
-0.150049 -0.601979 0 
-0.0998281 -0.628222 0 
-0.0500377 -0.599914 0 
-3.12334e-05 -0.628076 0 
0.0498927 -0.599835 0 
0.0997818 -0.628253 0 
0.149924 -0.601867 0 
0.200214 -0.632118 0 
0.250423 -0.608915 0 
0.30086 -0.587085 0 
0.352457 -0.619096 0 
0.402948 -0.594743 0 
0.455483 -0.618952 0 
0.506147 -0.588901 0 
0.55964 -0.604067 0 
0.613069 -0.613069 0 
0.675715 -0.603436 0 
0.733462 -0.608151 0 
0.789274 -0.614041 0 
-0.825268 -0.564741 0 
-0.769772 -0.561786 0 
-0.71337 -0.558104 0 
-0.655305 -0.55905 0 
-0.604068 -0.55962 0 
-0.551031 -0.551031 0 
-0.497922 -0.537596 0 
-0.451508 -0.567021 0 
-0.399773 -0.542431 0 
-0.350494 -0.567003 0 
-0.301574 -0.534146 0 
-0.250874 -0.555692 0 
-0.200542 -0.579013 0 
-0.150324 -0.548268 0 
-0.100169 -0.57443 0 
-0.0500152 -0.545912 0 
-3.29278e-05 -0.574268 0 
0.0499208 -0.545788 0 
0.100058 -0.574485 0 
0.150038 -0.548073 0 
0.200377 -0.579041 0 
0.250556 -0.55585 0 
0.301273 -0.534348 0 
0.350318 -0.567174 0 
0.399615 -0.542384 0 
0.451404 -0.5671 0 
0.497945 -0.537702 0 
0.551073 -0.551073 0 
0.604067 -0.55964 0 
0.655324 -0.559063 0 
0.713361 -0.558131 0 
0.769761 -0.561819 0 
0.825243 -0.564777 0 
-0.857917 -0.513788 0 
-0.802945 -0.512908 0 
-0.747856 -0.510673 0 
-0.692659 -0.509495 0 
-0.639581 -0.508501 0 
-0.588854 -0.506189 0 
-0.537596 -0.497922 0 
-0.486157 -0.486157 0 
-0.444928 -0.512952 0 
-0.401787 -0.486784 0 
-0.351685 -0.513639 0 
-0.299695 -0.48291 0 
-0.250032 -0.503 0 
-0.200501 -0.526165 0 
-0.149489 -0.495195 0 
-0.0999281 -0.521367 0 
-0.0499712 -0.492294 0 
4.64723e-05 -0.520999 0 
0.050147 -0.492108 0 
0.099934 -0.52133 0 
0.14957 -0.494692 0 
0.200133 -0.526255 0 
0.249839 -0.503309 0 
0.299839 -0.483005 0 
0.351514 -0.513798 0 
0.401881 -0.486608 0 
0.444935 -0.513054 0 
0.486228 -0.486228 0 
0.537702 -0.497945 0 
0.588901 -0.506147 0 
0.639623 -0.508497 0 
0.692668 -0.509524 0 
0.747859 -0.510716 0 
0.802929 -0.512965 0 
0.857885 -0.513842 0 
-0.887039 -0.461695 0 
-0.832348 -0.462372 0 
-0.778365 -0.460836 0 
-0.724356 -0.45935 0 
-0.671321 -0.457509 0 
-0.618874 -0.455505 0 
-0.567021 -0.451508 0 
-0.512952 -0.444928 0 
-0.450685 -0.450685 0 
-0.397667 -0.437543 0 
-0.348492 -0.462546 0 
-0.295416 -0.432968 0 
-0.247004 -0.450633 0 
-0.198702 -0.473818 0 
-0.150161 -0.441625 0 
-0.100085 -0.468395 0 
-0.0502271 -0.439281 0 
0.000144229 -0.468374 0 
0.0504178 -0.439106 0 
0.100428 -0.468348 0 
0.150697 -0.441105 0 
0.199103 -0.473881 0 
0.247983 -0.450921 0 
0.296569 -0.432268 0 
0.348831 -0.462562 0 
0.397506 -0.4368 0 
0.450637 -0.450637 0 
0.513054 -0.444935 0 
0.5671 -0.451404 0 
0.618952 -0.455483 0 
0.67138 -0.457525 0 
0.724407 -0.459374 0 
0.778382 -0.460863 0 
0.83234 -0.462414 0 
0.887011 -0.461748 0 
-0.912466 -0.409153 0 
-0.857936 -0.411157 0 
-0.804631 -0.410124 0 
-0.751554 -0.408794 0 
-0.698865 -0.407328 0 
-0.646545 -0.405555 0 
-0.594688 -0.403019 0 
-0.542431 -0.399773 0 
-0.486784 -0.401787 0 
-0.437543 -0.397667 0 
-0.387256 -0.387256 0 
-0.344215 -0.411459 0 
-0.30136 -0.381507 0 
-0.25021 -0.395692 0 
-0.200211 -0.419975 0 
-0.150955 -0.389014 0 
-0.100617 -0.416095 0 
-0.0503197 -0.386922 0 
-4.02994e-05 -0.416525 0 
0.05006 -0.386948 0 
0.100784 -0.416323 0 
0.150432 -0.388572 0 
0.200855 -0.420694 0 
0.25086 -0.396905 0 
0.301746 -0.379789 0 
0.344135 -0.410678 0 
0.385823 -0.385823 0 
0.4368 -0.397506 0 
0.486608 -0.401881 0 
0.542384 -0.399615 0 
0.594743 -0.402948 0 
0.646641 -0.405575 0 
0.698945 -0.407371 0 
0.751626 -0.408863 0 
0.804654 -0.410181 0 
0.857929 -0.411236 0 
0.912429 -0.409236 0 
-0.934288 -0.356519 0 
-0.879963 -0.359855 0 
-0.827415 -0.358606 0 
-0.774971 -0.357337 0 
-0.722823 -0.355968 0 
-0.670703 -0.354417 0 
-0.618952 -0.352514 0 
-0.567003 -0.350494 0 
-0.513639 -0.351685 0 
-0.462546 -0.348492 0 
-0.411459 -0.344215 0 
-0.351697 -0.351697 0 
-0.29839 -0.336232 0 
-0.249846 -0.342529 0 
-0.200971 -0.367271 0 
-0.149995 -0.337521 0 
-0.100435 -0.3646 0 
-0.0498692 -0.335025 0 
-6.88684e-05 -0.365025 0 
0.0495433 -0.334795 0 
0.0996798 -0.364834 0 
0.148162 -0.337172 0 
0.199644 -0.368939 0 
0.24763 -0.345582 0 
0.295348 -0.332889 0 
0.34978 -0.34978 0 
0.410678 -0.344135 0 
0.462562 -0.348831 0 
0.513798 -0.351514 0 
0.567174 -0.350318 0 
0.619096 -0.352457 0 
0.670836 -0.354397 0 
0.722893 -0.355952 0 
0.775038 -0.357323 0 
0.827419 -0.358581 0 
0.879943 -0.359894 0 
0.93426 -0.356593 0 
-0.952721 -0.303845 0 
-0.898929 -0.308871 0 
-0.847481 -0.306888 0 
-0.795641 -0.305781 0 
-0.743684 -0.304815 0 
-0.691387 -0.303722 0 
-0.639219 -0.302427 0 
-0.586897 -0.300977 0 
-0.534146 -0.301574 0 
-0.48291 -0.299695 0 
-0.432968 -0.295416 0 
-0.381507 -0.30136 0 
-0.336232 -0.29839 0 
-0.288184 -0.288184 0 
-0.242975 -0.290577 0 
-0.198059 -0.315051 0 
-0.148383 -0.285894 0 
-0.0994753 -0.313232 0 
-0.0507184 -0.283118 0 
-0.000202902 -0.313447 0 
0.0500077 -0.282824 0 
0.0988289 -0.312817 0 
0.148102 -0.28482 0 
0.195742 -0.317413 0 
0.240766 -0.295824 0 
0.285014 -0.285014 0 
0.332889 -0.295348 0 
0.379789 -0.301746 0 
0.432268 -0.296569 0 
0.483005 -0.299839 0 
0.534348 -0.301273 0 
0.587085 -0.30086 0 
0.639359 -0.302407 0 
0.691518 -0.303753 0 
0.743741 -0.304862 0 
0.795701 -0.305831 0 
0.847482 -0.306946 0 
0.898924 -0.308979 0 
0.952687 -0.303953 0 
-0.96803 -0.250833 0 
-0.916037 -0.258282 0 
-0.866979 -0.254732 0 
-0.816639 -0.25358 0 
-0.765535 -0.252907 0 
-0.71362 -0.252254 0 
-0.661417 -0.251503 0 
-0.608767 -0.250543 0 
-0.555692 -0.250874 0 
-0.503 -0.250032 0 
-0.450633 -0.247004 0 
-0.395692 -0.25021 0 
-0.342529 -0.249846 0 
-0.290577 -0.242975 0 
-0.239946 -0.239946 0 
-0.194478 -0.26004 0 
-0.151293 -0.23238 0 
-0.101048 -0.260904 0 
-0.0503938 -0.232537 0 
-0.000203281 -0.262984 0 
0.050638 -0.232316 0 
0.100942 -0.260855 0 
0.152412 -0.232597 0 
0.195768 -0.261421 0 
0.241873 -0.241873 0 
0.295824 -0.240766 0 
0.345582 -0.24763 0 
0.396905 -0.25086 0 
0.450921 -0.247983 0 
[...]
POINT_DATA 1245 
VECTORS vectors float
0.363586 -0.153746 0.918786 
0.366891 -0.130646 0.921044 
0.375959 -0.111336 0.919923 
0.378334 -0.0953864 0.920741 
0.384844 -0.0794654 0.919555 
0.386198 -0.0727284 0.919544 
0.381562 -0.0626663 0.922217 
0.375609 -0.0490062 0.925482 
0.360654 -0.034673 0.932055 
0.33709 -0.00590814 0.941454 
0.320473 0.0236012 0.946964 
0.302385 0.0647941 0.950981 
0.300521 0.112032 0.947173 
0.356791 -0.191329 0.914381 
0.362247 -0.169198 0.916596 
0.319118 -0.139931 0.937328 
0.324491 -0.123499 0.937792 
0.335034 -0.108057 0.935989 
0.325301 -0.0899006 0.941327 
0.335999 -0.0774453 0.938673 
0.319555 -0.0630768 0.945466 
0.329213 -0.0525469 0.942792 
0.305984 -0.0324348 0.951484 
0.307468 -0.015848 0.951426 
0.281478 0.0103974 0.959511 
0.280598 0.0374511 0.959095 
0.269072 0.0711408 0.960489 
0.267805 0.105939 0.957631 
0.304339 0.149372 0.940779 
0.312667 0.182076 0.932249 
0.338617 -0.228029 0.912875 
0.353219 -0.210855 0.911469 
0.311255 -0.175624 0.933958 
0.315386 -0.156778 0.935923 
0.277237 -0.128106 0.952223 
0.285697 -0.112392 0.951707 
0.297775 -0.0980019 0.949592 
0.278155 -0.0800812 0.957192 
0.290612 -0.0695835 0.954307 
0.264178 -0.052918 0.963021 
0.277985 -0.0420113 0.959666 
0.250518 -0.0225125 0.96785 
0.261485 -0.00779542 0.965176 
0.237368 0.0126033 0.971338 
0.246945 0.0360766 0.968358 
0.237739 0.0650673 0.969147 
0.235891 0.0951473 0.96711 
0.270509 0.136166 0.953039 
0.276689 0.158032 0.947876 
0.326357 0.196451 0.924607 
0.3312 0.20523 0.920971 
0.325336 -0.246005 0.913038 
0.292357 -0.209344 0.933114 
0.30393 -0.193226 0.932893 
0.266928 -0.1601 0.950325 
0.271758 -0.144193 0.951502 
0.235951 -0.11988 0.964342 
0.245491 -0.105162 0.963678 
0.258473 -0.0909323 0.961729 
0.233297 -0.0741356 0.969575 
0.246143 -0.063036 0.967181 
0.219914 -0.0476722 0.974354 
0.233028 -0.0351763 0.971834 
0.211289 -0.019689 0.977225 
0.222309 -0.00501179 0.974963 
0.204438 0.0105178 0.978823 
0.216869 0.0327699 0.975651 
0.209191 0.0571781 0.976202 
0.20577 0.0823664 0.975128 
0.237107 0.120424 0.963991 
0.240463 0.137791 0.960828 
0.283332 0.170454 0.943753 
0.285228 0.179173 0.941564 
0.331462 0.209262 0.919969 
0.293907 -0.279953 0.913917 
0.309847 -0.258543 0.914959 
0.280098 -0.223561 0.933577 
0.251352 -0.189351 0.949193 
0.26024 -0.174932 0.949565 
0.227008 -0.146132 0.962867 
0.230628 -0.133524 0.963837 
0.198438 -0.112246 0.973665 
0.20582 -0.0993607 0.973532 
0.217197 -0.085895 0.972341 
0.19047 -0.0690583 0.979261 
0.204378 -0.0588685 0.97712 
0.182968 -0.0449779 0.98209 
0.197843 -0.0332491 0.97967 
0.181063 -0.0199003 0.98327 
0.192291 -0.00606105 0.981319 
0.176109 0.00829599 0.984336 
0.189937 0.0277808 0.981403 
0.181493 0.0482728 0.982207 
0.17626 0.0685416 0.981954 
0.204884 0.103182 0.973332 
0.205479 0.118006 0.971521 
0.243258 0.148954 0.958456 
0.240261 0.158205 0.957729 
0.276576 0.186049 0.94281 
0.311441 0.211988 0.926319 
0.286448 0.220975 0.932265 
0.281355 -0.299306 0.911732 
0.259089 -0.259826 0.930249 
0.267437 -0.238988 0.933468 
0.241203 -0.204264 0.948735 
0.216376 -0.174547 0.96058 
0.222657 -0.159164 0.961816 
0.193699 -0.134297 0.971826 
0.195404 -0.123353 0.972934 
0.168236 -0.102512 0.980402 
0.171753 -0.0915419 0.980878 
0.178584 -0.0797328 0.980689 
0.154349 -0.0616605 0.986091 
0.166726 -0.0538896 0.98453 
0.150103 -0.040672 0.987833 
0.16676 -0.0318492 0.985483 
0.150122 -0.0180382 0.988503 
0.163278 -0.00577234 0.986563 
0.145315 0.00987697 0.989336 
0.161917 0.0247384 0.986494 
0.152922 0.0415808 0.987363 
0.147788 0.0571127 0.987369 
0.173785 0.0855546 0.98106 
0.172136 0.0992602 0.98006 
0.204696 0.129149 0.970268 
0.198405 0.139703 0.970113 
0.227568 0.166472 0.959427 
0.256964 0.193138 0.946925 
0.23767 0.203536 0.949782 
0.254848 0.229753 0.93929 
0.263817 -0.321585 0.909386 
0.245274 -0.278423 0.928613 
0.22587 -0.240896 0.943902 
0.23026 -0.220764 0.947757 
0.207015 -0.191554 0.959402 
0.185867 -0.164542 0.9687 
0.190999 -0.14776 0.970405 
0.165754 -0.124024 0.978337 
0.167192 -0.112534 0.979481 
0.144525 -0.0910339 0.985305 
0.145874 -0.0812133 0.985964 
0.148133 -0.0708606 0.986426 
0.127701 -0.0530456 0.990393 
0.135794 -0.0467337 0.989634 
0.121719 -0.0351393 0.991942 
0.13582 -0.028289 0.99033 
0.11784 -0.0145626 0.992926 
0.130799 -0.00235587 0.991406 
0.113998 0.0131742 0.993394 
0.132299 0.0251276 0.990891 
0.12595 0.0380545 0.991306 
0.12315 0.0497053 0.991143 
0.145199 0.0711499 0.986841 
0.142303 0.0845554 0.986205 
0.169022 0.111422 0.979294 
0.162596 0.123937 0.978878 
0.184615 0.149612 0.971357 
0.208427 0.17458 0.962331 
0.196764 0.188668 0.962127 
0.211629 0.218375 0.952641 
0.224878 0.255582 0.94027 
0.258152 -0.33608 0.905764 
0.231172 -0.289013 0.928995 
0.209362 -0.245862 0.946425 
0.196735 -0.210174 0.957665 
0.178338 -0.180539 0.967265 
0.157662 -0.154188 0.975381 
0.162393 -0.138615 0.976941 
0.140104 -0.113562 0.983603 
0.143278 -0.101127 0.984502 
0.122414 -0.0804319 0.989215 
0.124476 -0.0715227 0.989641 
0.125544 -0.0619154 0.990154 
0.107901 -0.0476169 0.993021 
0.112547 -0.0404944 0.992821 
0.0991526 -0.0315897 0.994571 
0.107592 -0.0247619 0.993887 
0.0911155 -0.01338 0.99575 
0.100559 0.000136601 0.994931 
0.0900706 0.0125608 0.995856 
0.106288 0.0254637 0.994009 
0.104511 0.0347007 0.993918 
0.10339 0.0443098 0.993653 
0.12104 0.0618623 0.990718 
0.117321 0.075034 0.990255 
0.138345 0.0977658 0.985547 
0.134151 0.111576 0.984659 
0.153229 0.136986 0.97865 
0.16834 0.16381 0.972023 
0.173695 0.196686 0.964958 
0.187938 0.234443 0.95379 
0.204765 0.274894 0.939417 
0.244444 -0.343066 0.906947 
0.221554 -0.298822 0.928234 
0.198821 -0.256502 0.945874 
0.180588 -0.218037 0.959087 
0.166458 -0.18917 0.967733 
0.148796 -0.162716 0.975389 
0.130344 -0.138864 0.981696 
0.1352 -0.127435 0.982589 
0.115446 -0.10204 0.988059 
0.11989 -0.0901801 0.988683 
0.0993222 -0.0733184 0.992351 
0.102702 -0.0659125 0.992526 
0.105904 -0.0570921 0.992736 
0.0896551 -0.0465545 0.994884 
0.0942692 -0.0379909 0.994822 
0.0811802 -0.0303739 0.996237 
0.0858941 -0.0235627 0.996026 
0.073599 -0.0149946 0.997175 
0.0799917 -0.00209228 0.996793 
0.0761279 0.00631693 0.997078 
0.0885673 0.0213192 0.995842 
0.0885707 0.028709 0.995656 
0.0858855 0.0388373 0.995548 
0.100709 0.0559901 0.993339 
0.0961256 0.0685908 0.993003 
0.113311 0.0879991 0.989655 
0.110082 0.100335 0.988845 
0.125791 0.12302 0.9844 
0.138693 0.149258 0.979023 
0.146077 0.177818 0.973161 
0.154722 0.214991 0.964282 
0.167302 0.254458 0.952503 
0.177618 0.299557 0.937399 
0.235643 -0.353044 0.905446 
0.21071 -0.305773 0.928496 
0.188905 -0.26421 0.945784 
0.169873 -0.225895 0.959226 
0.153501 -0.192345 0.969248 
0.138597 -0.165525 0.976418 
0.122439 -0.142563 0.982184 
0.107029 -0.121437 0.986812 
0.109796 -0.112792 0.987534 
0.0938003 -0.0924619 0.991288 
0.0969222 -0.0818705 0.991919 
0.077888 -0.0683359 0.994617 
0.0801011 -0.0627495 0.99481 
0.0852963 -0.0557874 0.994793 
0.0709468 -0.0456561 0.996435 
0.0772392 -0.0373633 0.996312 
0.0649129 -0.0285209 0.997483 
0.0698404 -0.0230307 0.997292 
0.0612492 -0.0154915 0.998002 
0.0681136 -0.00683663 0.997654 
0.0657654 -0.000601345 0.997835 
0.0761885 0.0131354 0.997007 
0.0730633 0.0210705 0.997105 
0.0677807 0.0326029 0.997167 
0.0815477 0.0513229 0.995347 
0.0767987 0.0630543 0.995051 
0.091568 0.0795859 0.992613 
0.0889739 0.0896097 0.991995 
0.102011 0.109946 0.988689 
0.113234 0.133356 0.984578 
0.120672 0.1608 0.979583 
0.127339 0.194445 0.972613 
0.13602 0.232555 0.963025 
0.148132 0.273202 0.950483 
0.163974 0.319106 0.933426 
0.22073 -0.347652 0.911272 
0.197608 -0.307441 0.930823 
0.176596 -0.267665 0.94719 
0.158341 -0.23132 0.959906 
0.142235 -0.198002 0.969827 
0.127403 -0.168317 0.977465 
0.112971 -0.143503 0.983181 
0.0990302 -0.121621 0.987624 
0.0901063 -0.101856 0.99071 
0.0788988 -0.0842003 0.99332 
0.0781008 -0.0752179 0.994104 
0.0616327 -0.0635676 0.996073 
0.0608987 -0.05823 0.996444 
0.0653744 -0.0531398 0.996445 
0.0541186 -0.0412384 0.997683 
0.0603706 -0.0349501 0.997564 
0.0495569 -0.0249142 0.998461 
0.0558326 -0.0204743 0.99823 
0.0489508 -0.0127339 0.99872 
0.0577389 -0.00869363 0.998294 
0.0523479 -0.00246702 0.998626 
0.0624057 0.006265 0.998031 
0.0551317 0.0154912 0.998359 
0.0501658 0.0272622 0.998369 
0.0636796 0.0446299 0.996972 
0.0613535 0.0543105 0.996637 
0.0719558 0.0723442 0.994781 
0.078396 0.0937053 0.992509 
0.0883165 0.116458 0.989261 
0.0964119 0.14125 0.985268 
0.102616 0.171322 0.979856 
0.109079 0.206925 0.972257 
0.117995 0.246109 0.962033 
0.129916 0.287124 0.949042 
0.139824 0.330923 0.933241 
0.19441 -0.351478 0.915788 
0.178356 -0.306539 0.934999 
0.160266 -0.266843 0.950321 
0.143656 -0.23241 0.96195 
0.129032 -0.202416 0.970762 
0.1157 -0.174823 0.977778 
0.102959 -0.149133 0.983442 
0.0912146 -0.125727 0.987863 
0.0827576 -0.105251 0.990996 
0.0753095 -0.0898919 0.9931 
0.0665228 -0.0770624 0.994805 
0.06448 -0.0701959 0.995447 
0.052241 -0.0597475 0.996846 
0.048646 -0.0511979 0.997503 
0.0501773 -0.046593 0.997653 
0.0426251 -0.0345922 0.998492 
0.0459432 -0.0306144 0.998475 
0.0368017 -0.0225996 0.999067 
0.0424188 -0.0168993 0.998957 
0.0365451 -0.00958502 0.999286 
0.0450872 -0.00650175 0.998962 
0.0375118 -0.000761202 0.999296 
0.0454333 0.0047982 0.998956 
0.0377706 0.0152881 0.999169 
0.0378018 0.0263224 0.998939 
0.048529 0.0374971 0.998118 
0.0488124 0.0435482 0.997858 
0.0558038 0.0588039 0.996709 
0.0610343 0.0772743 0.99514 
0.0656118 0.10038 0.992783 
0.073334 0.123267 0.98966 
0.0806376 0.147998 0.985695 
0.0866663 0.178563 0.980104 
0.092881 0.215875 0.971993 
0.10118 0.257382 0.960998 
0.111184 0.30137 0.947003 
0.119836 0.352297 0.928184 
0.177865 -0.348411 0.920312 
0.158182 -0.305819 0.938857 
0.141383 -0.26506 0.95381 
0.126217 -0.230079 0.964952 
0.112809 -0.201868 0.972894 
0.100949 -0.177673 0.978898 
0.0900605 -0.154154 0.983934 
0.0800917 -0.13011 0.988259 
0.0726903 -0.107712 0.991521 
0.0662117 -0.090367 0.993705 
0.0600381 -0.0780925 0.995137 
0.0543388 -0.0675389 0.996236 
0.044571 -0.0543701 0.997526 
0.0414026 -0.0438836 0.998178 
0.0414618 -0.0380937 0.998414 
0.0355429 -0.0300846 0.998915 
0.0358168 -0.0279442 0.998968 
0.0280506 -0.0243939 0.999309 
0.0312543 -0.0159355 0.999384 
0.0271741 -0.00959375 0.999585 
0.0328348 -0.00410049 0.999452 
0.0268236 -0.00013389 0.99964 
0.030954 0.00591917 0.999503 
0.0281004 0.0142856 0.999503 
0.0310916 0.0245508 0.999215 
0.0399609 0.0337716 0.99863 
0.043988 0.0442434 0.998052 
0.045842 0.0605874 0.99711 
0.0481238 0.0828511 0.995399 
0.0528282 0.107109 0.992843 
0.0607885 0.129248 0.989747 
0.0681033 0.153263 0.985836 
0.0735467 0.18487 0.980007 
0.0786512 0.224752 0.971237 
0.0853826 0.269097 0.959321 
0.0938834 0.314758 0.944517 
0.101672 0.362531 0.926409 
0.142586 -0.342363 0.928686 
0.135116 -0.304695 0.942818 
0.12179 -0.265704 0.956331 
0.108706 -0.229482 0.967223 
0.0963311 -0.199438 0.975164 
0.0855158 -0.175252 0.980803 
0.0761858 -0.153309 0.985237 
0.0677219 -0.130292 0.98916 
0.0607895 -0.107516 0.992343 
0.0547059 -0.0889465 0.994533 
0.0490106 -0.0766391 0.995854 
0.0461685 -0.0690515 0.996544 
0.0409788 -0.0602359 0.997343 
0.0356317 -0.048501 0.998187 
0.0336069 -0.037142 0.998745 
0.0354444 -0.0322222 0.998852 
0.0293143 -0.0297774 0.999127 
0.0289354 -0.0291929 0.999155 
0.0224358 -0.0281758 0.999351 
0.0240823 -0.0186493 0.999536 
0.0222243 -0.011799 0.999683 
0.024936 -0.00485594 0.999677 
0.0217365 -0.003016 0.999759 
0.0234922 0.00434635 0.999715 
0.0232468 0.0117364 0.999661 
0.0277543 0.0197068 0.999421 
0.0330152 0.0297329 0.999012 
0.0371216 0.0360251 0.998661 
0.0360203 0.0466069 0.998264 
0.0357303 0.0649157 0.997251 
0.0382392 0.0890003 0.995297 
0.0446892 0.113193 0.992567 
0.0527689 0.134871 0.989457 
0.0587656 0.159684 0.985417 
0.0623717 0.193634 0.979089 
0.0657491 0.235964 0.969535 
0.070504 0.28143 0.956988 
0.0761693 0.326841 0.942005 
0.0765496 0.377155 0.922981 
0.115578 -0.351311 0.929098 
0.111255 -0.308388 0.944732 
0.102125 -0.271581 0.956982 
0.0922342 -0.235606 0.967462 
0.0813911 -0.202489 0.975896 
0.0714035 -0.174547 0.982057 
0.0634303 -0.15114 0.986475 
0.0566939 -0.128873 0.990039 
0.0504186 -0.106794 0.993002 
0.0439234 -0.0874921 0.995196 
0.037471 -0.0741952 0.99654 
0.03327 -0.0662291 0.99725 
0.0297278 -0.0581322 0.997866 
0.0261138 -0.045994 0.9986 
0.0254137 -0.0358694 0.999033 
0.0277573 -0.0306259 0.999145 
0.0217842 -0.030394 0.999301 
0.0228806 -0.0314521 0.999243 
0.0176044 -0.0281824 0.999448 
0.0200665 -0.0209718 0.999579 
0.0191253 -0.0122292 0.999742 
0.0211464 -0.00736835 0.999749 
0.0186982 -0.00686528 0.999802 
0.0202543 -0.000216076 0.999795 
0.0205639 0.00641266 0.999768 
0.0232358 0.0203956 0.999522 
0.0275575 0.0299461 0.999172 
0.0283302 0.038673 0.99885 
0.0269891 0.0511547 0.998326 
0.0283002 0.071488 0.99704 
0.0331568 0.0963032 0.9948 
0.0399987 0.120152 0.991949 
0.0456198 0.14291 0.988684 
0.0486406 0.170591 0.984141 
0.0506944 0.20728 0.976967 
0.0537104 0.250263 0.966687 
0.0578375 0.294631 0.953859 
0.0624037 0.339054 0.938695 
0.0654176 0.391248 0.917957 
0.0889334 -0.342403 0.935335 
0.0892888 -0.313022 0.945539 
0.0821207 -0.280623 0.956299 
0.075499 -0.247046 0.966058 
0.0670102 -0.212708 0.974815 
0.0582152 -0.180554 0.981841 
0.0513883 -0.153307 0.986842 
0.0466221 -0.130123 0.990401 
0.042375 -0.109027 0.993135 
0.036893 -0.0900277 0.995256 
0.0302161 -0.0753789 0.996697 
0.0245064 -0.065753 0.997535 
0.0208628 -0.0583854 0.998076 
0.0192517 -0.0495559 0.998586 
0.0188344 -0.0388803 0.999066 
0.0188773 -0.0315237 0.999325 
0.0143448 -0.0291163 0.999473 
0.0160861 -0.0300594 0.999419 
0.0124876 -0.02267 0.999665 
0.0164783 -0.0189255 0.999685 
0.0146703 -0.0101005 0.999841 
0.0176378 -0.00865851 0.999807 
0.0144726 -0.00862711 0.999858 
0.0160177 -0.00364146 0.999865 
0.0157603 0.00783504 0.999845 
0.0166782 0.022444 0.999609 
0.0178686 0.0336282 0.999275 
0.0188257 0.0430715 0.998895 
0.0203467 0.0574138 0.998143 
0.0243155 0.0783393 0.99663 
0.0291976 0.102885 0.994265 
0.0327651 0.127275 0.991326 
0.0343822 0.152919 0.98764 
0.0356693 0.184472 0.98219 
0.0387372 0.223454 0.973944 
0.0434674 0.266296 0.962911 
0.048073 0.309343 0.949735 
0.0522301 0.351754 0.934634 
0.0516843 0.395867 0.916852 
0.0547378 -0.348873 0.93557 
0.0617171 -0.30322 0.95092 
0.0568146 -0.264284 0.96277 
0.0510765 -0.227573 0.972421 
0.0443582 -0.192192 0.980354 
0.0387008 -0.161041 0.986189 
0.0353918 -0.135807 0.990103 
0.0335538 -0.115062 0.992791 
0.0308 -0.0965857 0.994848 
0.0259207 -0.0804847 0.996419 
0.020422 -0.0676666 0.997499 
0.016656 -0.0584322 0.998152 
0.0153983 -0.0503824 0.998611 
0.0154251 -0.0421048 0.998994 
0.0144922 -0.0344809 0.9993 
0.0117503 -0.0295345 0.999495 
0.00779094 -0.0253064 0.999649 
0.0096993 -0.0247421 0.999647 
0.00814361 -0.0178801 0.999807 
0.0117822 -0.0137402 0.999836 
0.00888235 -0.00776149 0.99993 
0.0120236 -0.00759236 0.999899 
0.00846022 -0.00734995 0.999937 
0.0102633 -0.00625467 0.999928 
0.0105315 0.000274739 0.999945 
0.00944304 0.0123667 0.999879 
0.00915899 0.0252657 0.999639 
0.0106126 0.0357929 0.999303 
0.0132524 0.0465068 0.99883 
0.0167755 0.0618173 0.997946 
0.0199199 0.0834799 0.99631 
0.0212622 0.10873 0.993844 
0.020701 0.135194 0.990603 
0.0205585 0.164607 0.986145 
0.0234252 0.20044 0.979426 
0.0294568 0.243249 0.969517 
0.0358042 0.291057 0.956036 
0.0400975 0.34371 0.938219 
0.0384563 0.405221 0.913409 
0.0391886 -0.355786 0.933745 
0.0389932 -0.314355 0.948504 
0.0347766 -0.276752 0.960312 
0.031307 -0.239848 0.970306 
0.0282913 -0.20401 0.97856 
0.0252794 -0.171199 0.984912 
0.023047 -0.144367 0.989256 
0.0222827 -0.123786 0.992059 
0.022079 -0.106353 0.994083 
0.0205435 -0.0895462 0.995771 
0.0174691 -0.0735151 0.997141 
0.0145728 -0.0604211 0.998067 
0.0135741 -0.0508695 0.998613 
0.0139555 -0.0434965 0.998956 
0.0132943 -0.0369547 0.999229 
0.0101574 -0.0310244 0.999467 
0.00622346 -0.0260127 0.999642 
0.00555394 -0.0211378 0.999761 
0.00679279 -0.0170963 0.999831 
0.0081605 -0.0117954 0.999897 
0.00489731 -0.00968671 0.999941 
0.00470512 -0.00701968 0.999964 
0.00535495 -0.00451692 0.999975 
0.00712505 -0.000298824 0.999975 
0.00710622 0.00769044 0.999945 
0.00615258 0.0182157 0.999815 
0.0065377 0.0289818 0.999559 
0.00885878 0.0393847 0.999185 
0.0116383 0.0518593 0.998587 
0.0131527 0.0695148 0.997494 
0.0128 0.0924083 0.995639 
0.0109944 0.118427 0.992902 
0.00957271 0.146434 0.989174 
0.0108631 0.178563 0.983868 
0.0156148 0.217329 0.975974 
0.021722 0.262295 0.964743 
0.0264108 0.310879 0.950082 
0.0294505 0.359334 0.932744 
0.0300317 0.408198 0.912399 
0.0126613 -0.352077 0.935885 
0.012459 -0.304019 0.952585 
0.00966681 -0.259792 0.965616 
0.00994964 -0.219684 0.97552 
0.0111587 -0.183636 0.982931 
0.0109793 -0.153857 0.988032 
0.010042 -0.131657 0.991244 
0.0100017 -0.114241 0.993403 
0.0105528 -0.0971883 0.99521 
0.0102133 -0.0791129 0.996813 
0.00903808 -0.062744 0.997989 
0.00868676 -0.0509206 0.998665 
0.00969398 -0.04347 0.999008 
0.0102833 -0.0380835 0.999222 
0.00828945 -0.0329136 0.999424 
0.00478769 -0.0279099 0.999599 
0.00395948 -0.0237459 0.99971 
0.00559472 -0.021148 0.999761 
0.00761533 -0.0202938 0.999765 
0.00686505 -0.0149731 0.999864 
0.0044651 -0.0162757 0.999858 
0.00167899 -0.00999583 0.999949 
0.00227222 -0.00566676 0.999981 
0.0054836 -0.000110421 0.999985 
0.00744083 0.00568136 0.999956 
0.00683919 0.0127051 0.999896 
0.00573399 0.0212789 0.999757 
0.00632242 0.031598 0.999481 
0.00781314 0.0438791 0.999006 
0.00818572 0.0595808 0.99819 
0.00698299 0.0799804 0.996772 
0.00534199 0.104348 0.994527 
0.00426495 0.131103 0.99136 
0.00438105 0.160706 0.986993 
0.00616064 0.196182 0.980548 
0.00922635 0.239555 0.970839 
0.0119829 0.289789 0.957016 
0.0136236 0.345306 0.938391 
0.0135327 0.405002 0.914215 
-0.0175658 -0.363815 0.931306 
-0.0138837 -0.321558 0.946788 
-0.0129191 -0.280416 0.959792 
-0.00971983 -0.239468 0.970856 
-0.00424406 -0.201058 0.97957 
-0.000760008 -0.167576 0.985859 
-0.00110903 -0.141548 0.989931 
-0.00245128 -0.121882 0.992542 
-0.00194478 -0.104188 0.994556 
-0.000364208 -0.0855011 0.996338 
0.000252457 -0.0675766 0.997714 
0.00013564 -0.0541519 0.998533 
0.000880044 -0.0461622 0.998934 
0.00255447 -0.0411645 0.999149 
0.00314151 -0.0362844 0.999337 
0.00193751 -0.0308966 0.999521 
0.00123921 -0.0262604 0.999654 
0.00305195 -0.0240034 0.999707 
0.00644644 -0.0228843 0.999717 
0.00645303 -0.0205892 0.999767 
0.00154024 -0.0148241 0.999889 
0.00112695 -0.00897183 0.999959 
0.00400703 -0.00271352 0.999988 
0.00682886 0.00415049 0.999968 
0.00622582 0.0101425 0.999929 
0.00404549 0.0169502 0.999848 
0.00306057 0.0262693 0.99965 
0.00338235 0.0385001 0.999253 
0.00307007 0.0536785 0.998554 
0.00156888 0.0723765 0.997376 
0.000514999 0.0946945 0.995506 
0.000879497 0.119641 0.992817 
0.00150608 0.146986 0.989137 
0.00104936 0.178784 0.983888 
-0.00014065 0.217659 0.976025 
-0.0011276 0.263066 0.964777 
-0.00199906 0.31152 0.950238 
-0.00298889 0.358619 0.933479 
-0.00399155 0.405426 0.914119 
-0.0313191 -0.368667 0.929034 
-0.03417 -0.314245 0.948727 
-0.0297153 -0.267298 0.963156 
-0.0214026 -0.225145 0.97409 
-0.01399 -0.187456 0.982173 
-0.0120964 -0.156291 0.987637 
-0.0139292 -0.132073 0.991142 
-0.0141603 -0.111487 0.993665 
-0.0112369 -0.0912344 0.995766 
-0.00836455 -0.0722634 0.997351 
-0.00774151 -0.0585395 0.998255 
-0.00772933 -0.051123 0.998662 
-0.00631123 -0.046422 0.998902 
-0.00438435 -0.0405211 0.999169 
-0.0035524 -0.0330362 0.999448 
-0.00291148 -0.0267608 0.999638 
-0.00138844 -0.0232022 0.99973 
0.0017144 -0.0222231 0.999752 
0.0051891 -0.021925 0.999746 
0.00113859 -0.0176946 0.999843 
0.00217558 -0.017847 0.999838 
-0.00060193 -0.0120437 0.999927 
0.000818425 -0.00734444 0.999973 
0.00365024 -0.00113812 0.999993 
0.00300112 0.00512984 0.999982 
-0.000103225 0.0121444 0.999926 
-0.00252071 0.0208844 0.999779 
-0.00285368 0.0322214 0.999477 