# vtk DataFile Version 3.0 
Exported using Morpho https://github.com/Morpho-lang/morpho 
ASCII 
DATASET UNSTRUCTURED_GRID 

POINTS 1245 float 
-0.303845 -0.952721 0 
-0.250833 -0.96803 0 
-0.195084 -0.980787 0 
-0.146308 -0.989239 0 
-0.0940719 -0.995565 0 
-0.0475118 -0.998871 0 
-0.000246339 -1 0 
0.0470875 -0.998891 0 
0.0937543 -0.995595 0 
0.146139 -0.989264 0 
0.195062 -0.980791 0 
0.250843 -0.968028 0 
0.303953 -0.952687 0 
-0.409153 -0.912466 0 
-0.356519 -0.934288 0 
-0.308871 -0.898929 0 
-0.258282 -0.916037 0 
-0.207345 -0.934859 0 
-0.154868 -0.930629 0 
-0.104343 -0.948989 0 
-0.0520099 -0.939193 0 
-8.5762e-05 -0.954582 0 
0.0518744 -0.939288 0 
0.104354 -0.949042 0 
0.154696 -0.9306 0 
0.207366 -0.934975 0 
0.258274 -0.916081 0 
0.308979 -0.898924 0 
0.356593 -0.93426 0 
0.409236 -0.912429 0 
-0.513788 -0.857917 0 
-0.461695 -0.887039 0 
-0.411157 -0.857936 0 
-0.359855 -0.879963 0 
-0.306888 -0.847481 0 
-0.254732 -0.866979 0 
-0.201991 -0.889059 0 
-0.149956 -0.874108 0 
-0.100608 -0.900088 0 
-0.0497575 -0.880388 0 
2.4595e-05 -0.904789 0 
0.0496869 -0.8804 0 
0.100612 -0.900177 0 
0.149872 -0.874171 0 
0.202071 -0.889165 0 
0.254695 -0.867031 0 
0.306946 -0.847482 0 
0.359894 -0.879943 0 
0.411236 -0.857929 0 
0.461748 -0.887011 0 
0.513842 -0.857885 0 
-0.564741 -0.825268 0 
-0.512908 -0.802945 0 
-0.462372 -0.832348 0 
-0.410124 -0.804631 0 
-0.358606 -0.827415 0 
-0.305781 -0.795641 0 
-0.25358 -0.816639 0 
-0.200756 -0.839997 0 
-0.149043 -0.818944 0 
-0.0987265 -0.846667 0 
-0.0490473 -0.822548 0 
5.00659e-05 -0.849932 0 
0.0490834 -0.822542 0 
0.0987838 -0.846676 0 
0.148997 -0.818924 0 
0.200826 -0.840131 0 
0.253508 -0.816728 0 
0.305831 -0.795701 0 
0.358581 -0.827419 0 
0.410181 -0.804654 0 
0.462414 -0.83234 0 
0.512965 -0.802929 0 
0.564777 -0.825243 0 
-0.660798 -0.750564 0 
-0.614015 -0.789295 0 
-0.561786 -0.769772 0 
-0.510673 -0.747856 0 
-0.460836 -0.778365 0 
-0.408794 -0.751554 0 
-0.357337 -0.774971 0 
-0.304815 -0.743684 0 
-0.252907 -0.765535 0 
-0.200631 -0.789263 0 
-0.149244 -0.764328 0 
-0.0986912 -0.791935 0 
-0.0492815 -0.765764 0 
4.16586e-05 -0.79382 0 
0.0492411 -0.765708 0 
0.0987508 -0.791951 0 
0.149196 -0.764326 0 
0.200666 -0.789356 0 
0.252841 -0.765599 0 
0.304862 -0.743741 0 
0.357323 -0.775038 0 
0.408863 -0.751626 0 
0.460863 -0.778382 0 
0.510716 -0.747859 0 
0.561819 -0.769761 0 
0.614041 -0.789274 0 
0.660811 -0.750552 0 
-0.707107 -0.707107 0 
-0.654819 -0.699058 0 
-0.60813 -0.73348 0 
-0.558104 -0.71337 0 
-0.509495 -0.692659 0 
-0.45935 -0.724356 0 
-0.407328 -0.698865 0 
-0.355968 -0.722823 0 
-0.303722 -0.691387 0 
-0.252254 -0.71362 0 
-0.20067 -0.737336 0 
-0.149608 -0.710068 0 
-0.0991558 -0.737129 0 
-0.0495872 -0.709825 0 
-2.23646e-05 -0.737917 0 
0.0494408 -0.709766 0 
0.0991291 -0.737116 0 
0.149502 -0.710042 0 
0.200696 -0.73743 0 
0.252186 -0.713735 0 
0.303753 -0.691518 0 
0.355952 -0.722893 0 
0.407371 -0.698945 0 
0.459374 -0.724407 0 
0.509524 -0.692668 0 
0.558131 -0.713361 0 
0.608151 -0.733462 0 
0.654824 -0.699048 0 
0.707107 -0.707107 0 
-0.750564 -0.660798 0 
-0.699058 -0.654819 0 
-0.647692 -0.647692 0 
-0.603437 -0.675718 0 
-0.55905 -0.655305 0 
-0.508501 -0.639581 0 
-0.457509 -0.671321 0 
-0.405555 -0.646545 0 
-0.354417 -0.670703 0 
-0.302427 -0.639219 0 
-0.251503 -0.661417 0 
-0.20061 -0.684911 0 
-0.149717 -0.655943 0 
-0.0995004 -0.682466 0 
-0.0498216 -0.654561 0 
-5.02113e-05 -0.682664 0 
0.0496787 -0.654499 0 
0.0994374 -0.682501 0 
0.149603 -0.655909 0 
0.200573 -0.684972 0 
0.251388 -0.661524 0 
0.302407 -0.639359 0 
0.354397 -0.670836 0 
0.405575 -0.646641 0 
0.457525 -0.67138 0 
0.508497 -0.639623 0 
0.559063 -0.655324 0 
0.603436 -0.675715 0 
0.64769 -0.64769 0 
0.699048 -0.654824 0 
0.750552 -0.660811 0 
-0.789295 -0.614015 0 
-0.73348 -0.60813 0 
-0.675718 -0.603437 0 
-0.613088 -0.613088 0 
-0.55962 -0.604068 0 
-0.506189 -0.588854 0 
-0.455505 -0.618874 0 
-0.403019 -0.594688 0 
-0.352514 -0.618952 0 
-0.300977 -0.586897 0 
-0.250543 -0.608767 0 
-0.200257 -0.632053 0 
-0.150049 -0.601979 0 
-0.0998281 -0.628222 0 
-0.0500377 -0.599914 0 
-3.12334e-05 -0.628076 0 
0.0498927 -0.599835 0 
0.0997818 -0.628253 0 
0.149924 -0.601867 0 
0.200214 -0.632118 0 
0.250423 -0.608915 0 
0.30086 -0.587085 0 
0.352457 -0.619096 0 
0.402948 -0.594743 0 
0.455483 -0.618952 0 
0.506147 -0.588901 0 
0.55964 -0.604067 0 
0.613069 -0.613069 0 
0.675715 -0.603436 0 
0.733462 -0.608151 0 
0.789274 -0.614041 0 
-0.825268 -0.564741 0 
-0.769772 -0.561786 0 
-0.71337 -0.558104 0 
-0.655305 -0.55905 0 
-0.604068 -0.55962 0 
-0.551031 -0.551031 0 
-0.497922 -0.537596 0 
-0.451508 -0.567021 0 
-0.399773 -0.542431 0 
-0.350494 -0.567003 0 
-0.301574 -0.534146 0 
-0.250874 -0.555692 0 
-0.200542 -0.579013 0 
-0.150324 -0.548268 0 
-0.100169 -0.57443 0 
-0.0500152 -0.545912 0 
-3.29278e-05 -0.574268 0 
0.0499208 -0.545788 0 
0.100058 -0.574485 0 
0.150038 -0.548073 0 
0.200377 -0.579041 0 
0.250556 -0.55585 0 
0.301273 -0.534348 0 
0.350318 -0.567174 0 
0.399615 -0.542384 0 
0.451404 -0.5671 0 
0.497945 -0.537702 0 
0.551073 -0.551073 0 
0.604067 -0.55964 0 
0.655324 -0.559063 0 
0.713361 -0.558131 0 
0.769761 -0.561819 0 
0.825243 -0.564777 0 
-0.857917 -0.513788 0 
-0.802945 -0.512908 0 
-0.747856 -0.510673 0 
-0.692659 -0.509495 0 
-0.639581 -0.508501 0 
-0.588854 -0.506189 0 
-0.537596 -0.497922 0 
-0.486157 -0.486157 0 
-0.444928 -0.512952 0 
-0.401787 -0.486784 0 
-0.351685 -0.513639 0 
-0.299695 -0.48291 0 
-0.250032 -0.503 0 
-0.200501 -0.526165 0 
-0.149489 -0.495195 0 
-0.0999281 -0.521367 0 
-0.0499712 -0.492294 0 
4.64723e-05 -0.520999 0 
0.050147 -0.492108 0 
0.099934 -0.52133 0 
0.14957 -0.494692 0 
0.200133 -0.526255 0 
0.249839 -0.503309 0 
0.299839 -0.483005 0 
0.351514 -0.513798 0 
0.401881 -0.486608 0 
0.444935 -0.513054 0 
0.486228 -0.486228 0 
0.537702 -0.497945 0 
0.588901 -0.506147 0 
0.639623 -0.508497 0 
0.692668 -0.509524 0 
0.747859 -0.510716 0 
0.802929 -0.512965 0 
0.857885 -0.513842 0 
-0.887039 -0.461695 0 
-0.832348 -0.462372 0 
-0.778365 -0.460836 0 
-0.724356 -0.45935 0 
-0.671321 -0.457509 0 
-0.618874 -0.455505 0 
-0.567021 -0.451508 0 
-0.512952 -0.444928 0 
-0.450685 -0.450685 0 
-0.397667 -0.437543 0 
-0.348492 -0.462546 0 
-0.295416 -0.432968 0 
-0.247004 -0.450633 0 
-0.198702 -0.473818 0 
-0.150161 -0.441625 0 
-0.100085 -0.468395 0 
-0.0502271 -0.439281 0 
0.000144229 -0.468374 0 
0.0504178 -0.439106 0 
0.100428 -0.468348 0 
0.150697 -0.441105 0 
0.199103 -0.473881 0 
0.247983 -0.450921 0 
0.296569 -0.432268 0 
0.348831 -0.462562 0 
0.397506 -0.4368 0 
0.450637 -0.450637 0 
0.513054 -0.444935 0 
0.5671 -0.451404 0 
0.618952 -0.455483 0 
0.67138 -0.457525 0 
0.724407 -0.459374 0 
0.778382 -0.460863 0 
0.83234 -0.462414 0 
0.887011 -0.461748 0 
-0.912466 -0.409153 0 
-0.857936 -0.411157 0 
-0.804631 -0.410124 0 
-0.751554 -0.408794 0 
-0.698865 -0.407328 0 
-0.646545 -0.405555 0 
-0.594688 -0.403019 0 
-0.542431 -0.399773 0 
-0.486784 -0.401787 0 
-0.437543 -0.397667 0 
-0.387256 -0.387256 0 
-0.344215 -0.411459 0 
-0.30136 -0.381507 0 
-0.25021 -0.395692 0 
-0.200211 -0.419975 0 
-0.150955 -0.389014 0 
-0.100617 -0.416095 0 
-0.0503197 -0.386922 0 
-4.02994e-05 -0.416525 0 
0.05006 -0.386948 0 
0.100784 -0.416323 0 
0.150432 -0.388572 0 
0.200855 -0.420694 0 
0.25086 -0.396905 0 
0.301746 -0.379789 0 
0.344135 -0.410678 0 
0.385823 -0.385823 0 
0.4368 -0.397506 0 
0.486608 -0.401881 0 
0.542384 -0.399615 0 
0.594743 -0.402948 0 
0.646641 -0.405575 0 
0.698945 -0.407371 0 
0.751626 -0.408863 0 
0.804654 -0.410181 0 
0.857929 -0.411236 0 
0.912429 -0.409236 0 
-0.934288 -0.356519 0 
-0.879963 -0.359855 0 
-0.827415 -0.358606 0 
-0.774971 -0.357337 0 
-0.722823 -0.355968 0 
-0.670703 -0.354417 0 
-0.618952 -0.352514 0 
-0.567003 -0.350494 0 
-0.513639 -0.351685 0 
-0.462546 -0.348492 0 
-0.411459 -0.344215 0 
-0.351697 -0.351697 0 
-0.29839 -0.336232 0 
-0.249846 -0.342529 0 
-0.200971 -0.367271 0 
-0.149995 -0.337521 0 
-0.100435 -0.3646 0 
-0.0498692 -0.335025 0 
-6.88684e-05 -0.365025 0 
0.0495433 -0.334795 0 
0.0996798 -0.364834 0 
0.148162 -0.337172 0 
0.199644 -0.368939 0 
0.24763 -0.345582 0 
0.295348 -0.332889 0 
0.34978 -0.34978 0 
0.410678 -0.344135 0 
0.462562 -0.348831 0 
0.513798 -0.351514 0 
0.567174 -0.350318 0 
0.619096 -0.352457 0 
0.670836 -0.354397 0 
0.722893 -0.355952 0 
0.775038 -0.357323 0 
0.827419 -0.358581 0 
0.879943 -0.359894 0 
0.93426 -0.356593 0 
-0.952721 -0.303845 0 
-0.898929 -0.308871 0 
-0.847481 -0.306888 0 
-0.795641 -0.305781 0 
-0.743684 -0.304815 0 
-0.691387 -0.303722 0 
-0.639219 -0.302427 0 
-0.586897 -0.300977 0 
-0.534146 -0.301574 0 
-0.48291 -0.299695 0 
-0.432968 -0.295416 0 
-0.381507 -0.30136 0 
-0.336232 -0.29839 0 
-0.288184 -0.288184 0 
-0.242975 -0.290577 0 
-0.198059 -0.315051 0 
-0.148383 -0.285894 0 
-0.0994753 -0.313232 0 
-0.0507184 -0.283118 0 
-0.000202902 -0.313447 0 
0.0500077 -0.282824 0 
0.0988289 -0.312817 0 
0.148102 -0.28482 0 
0.195742 -0.317413 0 
0.240766 -0.295824 0 
0.285014 -0.285014 0 
0.332889 -0.295348 0 
0.379789 -0.301746 0 
0.432268 -0.296569 0 
0.483005 -0.299839 0 
0.534348 -0.301273 0 
0.587085 -0.30086 0 
0.639359 -0.302407 0 
0.691518 -0.303753 0 
0.743741 -0.304862 0 
0.795701 -0.305831 0 
0.847482 -0.306946 0 
0.898924 -0.308979 0 
0.952687 -0.303953 0 
-0.96803 -0.250833 0 
-0.916037 -0.258282 0 
-0.866979 -0.254732 0 
-0.816639 -0.25358 0 
-0.765535 -0.252907 0 
-0.71362 -0.252254 0 
-0.661417 -0.251503 0 
-0.608767 -0.250543 0 
-0.555692 -0.250874 0 
-0.503 -0.250032 0 
-0.450633 -0.247004 0 
-0.395692 -0.25021 0 
-0.342529 -0.249846 0 
-0.290577 -0.242975 0 
-0.239946 -0.239946 0 
-0.194478 -0.26004 0 
-0.151293 -0.23238 0 
-0.101048 -0.260904 0 
-0.0503938 -0.232537 0 
-0.000203281 -0.262984 0 
0.050638 -0.232316 0 
0.100942 -0.260855 0 
0.152412 -0.232597 0 
0.195768 -0.261421 0 
0.241873 -0.241873 0 
0.295824 -0.240766 0 
0.345582 -0.24763 0 
0.396905 -0.25086 0 
0.450921 -0.247983 0 
[...]
POINT_DATA 1245 
VECTORS vectors float
0.404763 -0.158606 0.900562 
0.41078 -0.13745 0.901314 
0.416012 -0.11618 0.901907 
0.419073 -0.0990715 0.902531 
0.419924 -0.0819973 0.903848 
0.41793 -0.0674847 0.905969 
0.412785 -0.0526831 0.909304 
0.403505 -0.0357475 0.914279 
0.392063 -0.0157779 0.919803 
0.377522 0.012133 0.925921 
0.364752 0.0430477 0.930109 
0.353876 0.0834775 0.93156 
0.349378 0.122891 0.928888 
0.390218 -0.20095 0.898526 
0.398015 -0.179918 0.899563 
0.356955 -0.150744 0.921878 
0.363475 -0.132229 0.922172 
0.373084 -0.114888 0.920657 
0.362594 -0.0948036 0.927113 
0.374118 -0.0797312 0.923947 
0.35862 -0.0611272 0.93148 
0.366849 -0.045725 0.929156 
0.345832 -0.0245447 0.937975 
0.347956 -0.00363439 0.937504 
0.327774 0.02321 0.944471 
0.32914 0.0532753 0.942777 
0.317932 0.0849258 0.944302 
0.314052 0.115968 0.942297 
0.35031 0.158783 0.923077 
0.354504 0.188305 0.915898 
0.369328 -0.241702 0.897316 
0.380827 -0.221493 0.897726 
0.343708 -0.188845 0.919893 
0.350811 -0.169708 0.92094 
0.313997 -0.140302 0.939 
0.320796 -0.122945 0.939135 
0.33177 -0.106236 0.937359 
0.312395 -0.0859998 0.946052 
0.328929 -0.0725073 0.941567 
0.306471 -0.0534936 0.950376 
0.321817 -0.0394516 0.94598 
0.296692 -0.0189239 0.954786 
0.307973 -0.000313835 0.951395 
0.285748 0.0235205 0.958016 
0.29599 0.0497045 0.953897 
0.284539 0.0778539 0.955498 
0.279667 0.104645 0.954377 
0.314041 0.144302 0.938379 
0.315632 0.168331 0.933831 
0.358539 0.20998 0.909592 
0.358685 0.224476 0.906066 
0.355654 -0.261916 0.897168 
0.324427 -0.226774 0.918325 
0.335051 -0.207873 0.918983 
0.301488 -0.17626 0.937036 
0.308038 -0.158236 0.938123 
0.274537 -0.130696 0.952653 
0.281547 -0.114456 0.952697 
0.291583 -0.0990368 0.951405 
0.269374 -0.0788842 0.959799 
0.284712 -0.0657908 0.956353 
0.261675 -0.0474286 0.96399 
0.277594 -0.0338615 0.960102 
0.253997 -0.0148485 0.967091 
0.268152 0.00241185 0.963374 
0.248129 0.0236713 0.968438 
0.26293 0.0475536 0.963642 
0.252155 0.0715998 0.965034 
0.246848 0.0946736 0.964418 
0.278379 0.129078 0.951758 
0.277751 0.150119 0.948851 
0.315911 0.187002 0.930178 
0.312104 0.200978 0.928547 
0.352042 0.234251 0.906197 
0.324323 -0.303071 0.896082 
0.340294 -0.282463 0.896892 
0.311825 -0.245422 0.917896 
0.283422 -0.211886 0.935295 
0.293436 -0.194156 0.936055 
0.26327 -0.164336 0.950622 
0.269281 -0.147321 0.951727 
0.239016 -0.121489 0.963386 
0.245324 -0.106539 0.963569 
0.25438 -0.0921263 0.962706 
0.231447 -0.0727171 0.970126 
0.244722 -0.0600379 0.967733 
0.223018 -0.0426372 0.973881 
0.237657 -0.0294212 0.970904 
0.216879 -0.0119344 0.976125 
0.231529 0.00431546 0.972818 
0.214507 0.0231618 0.976448 
0.231112 0.0448567 0.971893 
0.22147 0.0656394 0.972955 
0.215858 0.0855312 0.972671 
0.244456 0.115763 0.962725 
0.242177 0.134662 0.960841 
0.275233 0.167178 0.94673 
0.268615 0.181115 0.946067 
0.302229 0.212007 0.92936 
0.337409 0.242788 0.90951 
0.315753 0.253207 0.914432 
0.307992 -0.324129 0.894473 
0.287673 -0.284459 0.914509 
0.29801 -0.263643 0.917433 
0.271599 -0.228909 0.934791 
0.246757 -0.198245 0.948583 
0.255842 -0.181228 0.949579 
0.229077 -0.153128 0.961288 
0.234352 -0.137121 0.962433 
0.206747 -0.11284 0.971866 
0.212426 -0.098872 0.972162 
0.220212 -0.0855036 0.971697 
0.198179 -0.0670652 0.977869 
0.209413 -0.0549923 0.97628 
0.18958 -0.0386697 0.981103 
0.202636 -0.0259984 0.978909 
0.184621 -0.0100239 0.982759 
0.198737 0.00521805 0.980039 
0.184359 0.0219238 0.982614 
0.20122 0.0417118 0.978658 
0.192603 0.0597566 0.979456 
0.187087 0.0773343 0.979295 
0.212903 0.104256 0.971495 
0.209461 0.121572 0.97023 
0.237668 0.150754 0.959577 
0.229543 0.165177 0.95918 
0.256691 0.193103 0.947006 
0.286271 0.222583 0.931937 
0.270099 0.237417 0.933102 
0.287996 0.26843 0.919241 
0.292702 -0.343302 0.892451 
0.27295 -0.302437 0.913253 
0.253993 -0.265464 0.930063 
0.259036 -0.245494 0.934148 
0.235682 -0.215142 0.947717 
0.215105 -0.185844 0.958745 
0.222563 -0.169091 0.960143 
0.198499 -0.142581 0.969675 
0.203056 -0.127427 0.97084 
0.178051 -0.104667 0.978439 
0.182834 -0.0916739 0.97886 
0.189424 -0.0792517 0.978692 
0.16883 -0.0618704 0.983701 
0.178318 -0.0504979 0.982676 
0.160582 -0.0353298 0.98639 
0.172146 -0.0233474 0.984795 
0.156508 -0.00877243 0.987638 
0.169643 0.00540659 0.985491 
0.157414 0.0202713 0.987325 
0.173686 0.0383274 0.984055 
0.166041 0.0542343 0.984626 
0.160781 0.0699701 0.984507 
0.183844 0.0942039 0.978431 
0.179852 0.110453 0.977473 
0.204028 0.137118 0.969315 
0.195982 0.152504 0.968676 
0.216571 0.179131 0.959692 
0.240432 0.205449 0.948675 
0.230157 0.222566 0.947361 
0.24512 0.253616 0.935732 
0.258497 0.288075 0.922059 
0.278843 -0.358469 0.890925 
0.256637 -0.313027 0.914413 
0.236581 -0.271234 0.932985 
0.224966 -0.23498 0.945608 
0.207133 -0.203355 0.956945 
0.18758 -0.173964 0.966721 
0.192994 -0.15771 0.968442 
0.171264 -0.132499 0.976275 
0.175122 -0.118376 0.977404 
0.152388 -0.0970594 0.983543 
0.156302 -0.0849017 0.984054 
0.161902 -0.0733351 0.984078 
0.143106 -0.0572414 0.988051 
0.151209 -0.0465348 0.987406 
0.135436 -0.0325168 0.990252 
0.145667 -0.0212647 0.989105 
0.13203 -0.00796725 0.991214 
0.144 0.0051633 0.989564 
0.133438 0.0185715 0.990883 
0.148614 0.0348936 0.98828 
0.141808 0.0491403 0.988674 
0.137008 0.0634643 0.988535 
0.157595 0.0854876 0.983797 
0.153284 0.100727 0.983035 
0.174113 0.125682 0.976672 
0.167209 0.1417 0.975686 
0.185213 0.168855 0.968083 
0.20065 0.197128 0.959625 
0.205958 0.230269 0.951082 
0.218641 0.26782 0.938333 
0.231203 0.309369 0.922408 
0.26459 -0.369821 0.890632 
0.243102 -0.324971 0.913945 
0.223207 -0.283309 0.932692 
0.207302 -0.246136 0.946807 
0.194636 -0.216611 0.956659 
0.178339 -0.187184 0.966001 
0.161315 -0.160144 0.973823 
0.166379 -0.146356 0.97514 
0.146606 -0.122849 0.981537 
0.150143 -0.109884 0.982539 
0.129714 -0.0906044 0.987403 
0.132822 -0.0789867 0.987988 
0.137556 -0.068091 0.988151 
0.120622 -0.0530832 0.991278 
0.127619 -0.0430653 0.990888 
0.113688 -0.0300784 0.993061 
0.122754 -0.0196197 0.992243 
0.110791 -0.00748862 0.993816 
0.121525 0.00469099 0.992577 
0.112315 0.0168129 0.99353 
0.12611 0.0318245 0.991506 
0.12003 0.0448872 0.991755 
0.115751 0.0583838 0.991561 
0.133902 0.0778713 0.98793 
0.129365 0.0921132 0.987309 
0.147481 0.115261 0.982326 
0.140708 0.129828 0.981502 
0.155219 0.155556 0.975556 
0.168203 0.183002 0.968617 
0.176148 0.210877 0.961511 
0.184746 0.24643 0.951389 
0.19547 0.286503 0.937927 
0.205564 0.331084 0.920938 
0.248793 -0.377158 0.892107 
0.228225 -0.33346 0.914723 
0.209142 -0.292713 0.933048 
0.19259 -0.255936 0.947315 
0.178406 -0.224036 0.958112 
0.165599 -0.196293 0.966461 
0.151337 -0.170012 0.973752 
0.136979 -0.145976 0.979759 
0.141168 -0.134498 0.980807 
0.124078 -0.115254 0.985556 
0.127769 -0.102897 0.986452 
0.109925 -0.084186 0.990368 
0.112099 -0.07335 0.990986 
0.116199 -0.063251 0.99121 
0.101106 -0.0491586 0.99366 
0.107201 -0.0399097 0.993436 
0.0948381 -0.0279873 0.995099 
0.102887 -0.0182723 0.994525 
0.0923337 -0.00713752 0.995703 
0.10197 0.00401502 0.994779 
0.0937995 0.0150933 0.995477 
0.106187 0.0289446 0.993925 
0.100826 0.0409376 0.994061 
0.0972738 0.0535333 0.993817 
0.112668 0.072262 0.991002 
0.107647 0.0862806 0.990438 
0.122789 0.105094 0.986853 
0.117041 0.117927 0.986101 
0.128496 0.141526 0.98156 
0.139197 0.16706 0.976071 
0.147502 0.194251 0.969799 
0.155556 0.225868 0.961658 
0.164023 0.262949 0.950765 
0.173112 0.30484 0.936539 
0.181708 0.351506 0.918382 
0.230352 -0.381161 0.895352 
0.211242 -0.338528 0.916938 
0.193175 -0.298777 0.934567 
0.176999 -0.262361 0.948598 
0.162606 -0.229786 0.959561 
0.149773 -0.2007 0.968136 
0.137536 -0.174498 0.975005 
0.125199 -0.149781 0.98076 
0.117516 -0.126896 0.98493 
0.105503 -0.107262 0.988617 
0.108199 -0.0955151 0.98953 
0.0925238 -0.0779354 0.992656 
0.0938476 -0.0677494 0.993279 
0.0974216 -0.0585424 0.99352 
0.0839711 -0.0459514 0.995408 
0.089417 -0.0372241 0.995298 
0.0786122 -0.0262607 0.996559 
0.0857345 -0.0171599 0.99617 
0.0764453 -0.00688928 0.99705 
0.0848763 0.00349866 0.996385 
0.0776636 0.0137656 0.996885 
0.088777 0.0261173 0.995709 
0.0838176 0.0372912 0.995783 
0.0810138 0.0489186 0.995512 
0.0942064 0.0665478 0.993326 
0.0899454 0.0798189 0.992743 
0.0996916 0.0999562 0.989985 
0.104287 0.124141 0.986769 
0.112972 0.149208 0.982331 
0.120929 0.175856 0.97696 
0.12836 0.205748 0.97015 
0.135967 0.23966 0.961289 
0.143717 0.27836 0.949664 
0.151749 0.321634 0.934625 
0.159118 0.369984 0.915311 
0.20878 -0.382964 0.899861 
0.191886 -0.341133 0.920222 
0.175319 -0.30217 0.936993 
0.160253 -0.266343 0.950463 
0.146787 -0.233872 0.961123 
0.134576 -0.204578 0.969555 
0.123481 -0.178318 0.976194 
0.113146 -0.154525 0.981489 
0.105285 -0.13288 0.985524 
0.0971395 -0.115027 0.988601 
0.0877812 -0.0981239 0.991295 
0.0906181 -0.0885514 0.991941 
0.0777466 -0.0746218 0.994177 
0.0774076 -0.0639978 0.994943 
0.0808485 -0.0549486 0.995211 
0.0693102 -0.0432231 0.996658 
0.074112 -0.0349562 0.996637 
0.0646536 -0.0247557 0.997601 
0.070998 -0.0162882 0.997343 
0.0628254 -0.00681084 0.998001 
0.0702212 0.0029561 0.997527 
0.0636591 0.0125846 0.997892 
0.0731677 0.0245332 0.997018 
0.0690951 0.0347962 0.997003 
0.0665075 0.047354 0.996662 
0.0778627 0.0607958 0.995109 
0.0735464 0.0717925 0.994704 
0.080951 0.0898306 0.992662 
0.0867343 0.10889 0.990263 
0.0913326 0.132113 0.987018 
0.0978534 0.157281 0.982694 
0.10438 0.185182 0.977145 
0.110911 0.216675 0.969923 
0.117578 0.252156 0.960517 
0.124471 0.292071 0.948262 
0.131525 0.3366 0.932417 
0.137592 0.386436 0.911996 
0.184187 -0.383785 0.904867 
0.170281 -0.342446 0.923978 
0.155408 -0.304006 0.939909 
0.142006 -0.26867 0.952707 
0.129686 -0.236416 0.962958 
0.118678 -0.207159 0.971082 
0.108562 -0.180833 0.977504 
0.099487 -0.157145 0.982552 
0.0922139 -0.135896 0.986422 
0.0846039 -0.117278 0.989489 
0.0776123 -0.100532 0.991902 
0.0738081 -0.08466 0.993673 
0.0650076 -0.0702437 0.995409 
0.063465 -0.0600504 0.996176 
0.0664717 -0.0516785 0.996449 
0.0566458 -0.0405397 0.997571 
0.0609145 -0.032887 0.997601 
0.0525972 -0.0233715 0.998342 
0.0582398 -0.0155266 0.998182 
0.051001 -0.00679272 0.998675 
0.0575647 0.00220931 0.998339 
0.0519124 0.0108872 0.998592 
0.0603077 0.0219181 0.997939 
0.0554641 0.0328671 0.99792 
0.0556515 0.0421739 0.997559 
0.0615997 0.0587491 0.99637 
0.0641054 0.0766923 0.994992 
0.0688633 0.0952419 0.993069 
0.0736604 0.115452 0.990578 
0.0777663 0.138867 0.987253 
0.0830558 0.164812 0.982822 
0.0885727 0.193911 0.977012 
0.0941995 0.226608 0.96942 
0.100073 0.263344 0.959497 
0.106109 0.304282 0.946654 
0.112449 0.349826 0.930041 
0.117184 0.401044 0.908533 
0.157039 -0.384539 0.909653 
0.146803 -0.34353 0.927597 
0.134129 -0.3057 0.942633 
0.12242 -0.27057 0.954885 
0.112096 -0.238479 0.964657 
0.102308 -0.208989 0.972552 
0.0935502 -0.182445 0.978755 
0.0855241 -0.158499 0.983648 
0.0789022 -0.137243 0.98739 
0.072435 -0.118555 0.990302 
0.0661447 -0.102119 0.992571 
0.0629225 -0.0881494 0.994118 
0.0587204 -0.0761178 0.995368 
0.0529817 -0.0647629 0.996493 
0.05067 -0.0553606 0.99718 
0.053865 -0.0482591 0.997381 
0.0454848 -0.0381633 0.998236 
0.0493879 -0.0309791 0.998299 
0.0421005 -0.022413 0.998862 
0.047103 -0.0148839 0.998779 
0.0407362 -0.00661915 0.999148 
0.0464004 0.00167184 0.998922 
0.0414398 0.0100011 0.999091 
0.0482567 0.0202789 0.998629 
0.0461346 0.0275054 0.998556 
0.0431428 0.0401238 0.998263 
0.0488881 0.0502122 0.997541 
0.0517376 0.0649296 0.996548 
0.0535997 0.0810283 0.99527 
0.0574907 0.0994476 0.993381 
0.0612541 0.120349 0.99084 
0.0649319 0.144391 0.987388 
0.0693638 0.171468 0.982745 
0.0739657 0.201794 0.976631 
0.0787996 0.235937 0.968568 
0.0837018 0.273669 0.958175 
0.0889976 0.315699 0.944676 
0.0946667 0.36162 0.927507 
0.0980866 0.413743 0.905094 
0.127904 -0.385789 0.913678 
0.122469 -0.345899 0.930245 
0.111284 -0.308963 0.944541 
0.102419 -0.274581 0.956094 
0.0937498 -0.242506 0.965609 
0.085913 -0.212924 0.973284 
0.0785697 -0.185986 0.979406 
0.0717706 -0.161572 0.984248 
0.0660053 -0.139759 0.987983 
0.0605084 -0.120387 0.990881 
0.0550345 -0.103212 0.993136 
0.05162 -0.0877122 0.994807 
0.0477205 -0.0745043 0.996078 
0.0432139 -0.0623146 0.997121 
0.040224 -0.0524409 0.997814 
0.0421578 -0.0449962 0.998097 
0.0354826 -0.0368281 0.998691 
0.039182 -0.0297096 0.99879 
0.0330932 -0.0214375 0.999222 
0.0375819 -0.0143279 0.999191 
0.0319838 -0.00639811 0.999468 
0.0367406 0.00166585 0.999323 
0.0322922 0.0101729 0.999427 
0.0377095 0.0187036 0.999114 
0.0349075 0.0279082 0.999001 
0.0372288 0.0383616 0.99857 
0.0386365 0.0532864 0.997832 
0.0421186 0.0670833 0.996858 
0.043697 0.084956 0.995426 
0.0467899 0.104424 0.993432 
0.0498656 0.12658 0.990702 
0.052979 0.151832 0.986985 
0.0565846 0.180189 0.982003 
0.0603472 0.211843 0.975439 
0.0642342 0.246967 0.966892 
0.0684089 0.285696 0.955876 
0.0727167 0.327588 0.942018 
0.0782132 0.373053 0.924508 
0.0801887 0.424355 0.901938 
0.0959374 -0.387975 0.916663 
0.0968794 -0.352257 0.930876 
0.0883817 -0.31689 0.944335 
0.0812105 -0.2823 0.955882 
0.0751167 -0.249718 0.965401 
0.0691854 -0.219361 0.973188 
0.0635018 -0.191632 0.97941 
0.0581821 -0.166513 0.984321 
0.0534639 -0.144065 0.988123 
0.0490957 -0.124192 0.991043 
0.0447997 -0.106602 0.993292 
0.0415998 -0.0909803 0.994983 
0.0387043 -0.0773602 0.996252 
0.0354883 -0.0653925 0.997228 
0.0324223 -0.0541617 0.998006 
0.0316108 -0.0440051 0.998531 
0.0273124 -0.0348797 0.999018 
0.0303774 -0.0281842 0.999141 
0.025096 -0.0201859 0.999481 
0.029284 -0.0138125 0.999476 
0.0243611 -0.00681884 0.99968 
0.0285274 0.00119622 0.999592 
0.0249132 0.00907559 0.999648 
0.0283193 0.0189613 0.999419 
0.0278859 0.0307519 0.999138 
0.0288532 0.0439694 0.998616 
0.0314389 0.0570103 0.997878 
0.0329861 0.0730507 0.996783 
0.0347364 0.0909404 0.99525 
0.0370171 0.111383 0.993088 
0.0394053 0.134639 0.990111 
0.0418903 0.161121 0.986045 
0.0446644 0.190891 0.980595 
0.0475864 0.224116 0.9734 
0.0506257 0.260834 0.964055 
0.0538409 0.300671 0.952207 
0.0577162 0.343367 0.937426 
0.0626446 0.386894 0.919994 
0.0623575 0.43268 0.899388 
0.0678577 -0.390724 0.918003 
0.0683154 -0.343282 0.936745 
0.0609932 -0.300699 0.951767 
0.0564088 -0.263284 0.963068 
0.0520242 -0.229792 0.971848 
0.0480667 -0.199908 0.978635 
0.044185 -0.173199 0.983895 
0.0406411 -0.149512 0.987924 
0.0373956 -0.128607 0.99099 
0.0341818 -0.110327 0.993307 
0.031634 -0.094152 0.995055 
0.0294325 -0.0802379 0.996341 
0.0271648 -0.0681417 0.997306 
0.0251199 -0.0574353 0.998033 
0.0240713 -0.047745 0.998569 
0.0222821 -0.0397493 0.998961 
0.0193958 -0.0319411 0.999302 
0.0225068 -0.0265109 0.999395 
0.0178179 -0.0202534 0.999636 
0.0214702 -0.0134122 0.99968 
0.017269 -0.00602155 0.999833 
0.0212455 0.000267583 0.999774 
0.0179157 0.00649876 0.999818 
0.019992 0.0150817 0.999686 
0.0209675 0.0240393 0.999491 
0.0211118 0.0349045 0.999168 
0.0220034 0.0474733 0.99863 
0.0232979 0.0617578 0.997819 
0.0247288 0.0780059 0.996646 
0.0259003 0.097134 0.994934 
0.0275954 0.118795 0.992535 
0.0292967 0.143635 0.989197 
0.0311208 0.171911 0.984621 
0.0331577 0.20392 0.978426 
0.0353167 0.239982 0.970135 
0.0378371 0.280692 0.959052 
0.0408173 0.326435 0.944338 
0.0457699 0.378713 0.924382 
0.0470499 0.437591 0.897942 
0.0379027 -0.394346 0.91818 
0.0425951 -0.35525 0.9338 
0.0394016 -0.316893 0.947642 
0.036486 -0.278619 0.959708 
0.0342151 -0.243195 0.969374 
0.0320831 -0.211348 0.976884 
0.0297891 -0.182935 0.982674 
0.0276138 -0.157863 0.987075 
0.025543 -0.135842 0.990401 
0.0234998 -0.116637 0.992897 
0.0217384 -0.0997924 0.994771 
0.0202309 -0.0851969 0.996159 
0.018782 -0.0725441 0.997188 
0.0173845 -0.0614259 0.99796 
0.0165619 -0.0514645 0.998537 
0.0153409 -0.0428496 0.998964 
0.0139377 -0.0349813 0.999291 
0.0142028 -0.0265953 0.999545 
0.011651 -0.0195022 0.999742 
0.0151889 -0.0131556 0.999798 
0.0113611 -0.00626464 0.999916 
0.0133943 0.0011024 0.99991 
0.0127498 0.010518 0.999863 
0.0136513 0.0192818 0.999721 
0.0141371 0.0292395 0.999472 
0.0143141 0.0408488 0.999063 
0.0150635 0.0540821 0.998423 
0.015923 0.0691012 0.997483 
0.0166473 0.0863899 0.996122 
0.0174586 0.106429 0.994167 
0.0184486 0.129346 0.991428 
0.0194741 0.155634 0.987623 
0.0205813 0.185642 0.982402 
0.021865 0.219724 0.975317 
0.0232746 0.258087 0.965841 
0.0250755 0.300862 0.953338 
0.0277534 0.347293 0.937346 
0.0310613 0.393747 0.918694 
0.0302506 0.440541 0.897222 
0.0123065 -0.398153 0.917236 
0.0163953 -0.346879 0.937766 
0.0157621 -0.301529 0.953327 
0.0155736 -0.261413 0.965101 
0.0151793 -0.226151 0.973974 
0.0145848 -0.195212 0.980653 
0.0138339 -0.168091 0.985674 
0.0130019 -0.144377 0.989437 
0.0121259 -0.123732 0.992242 
0.0112813 -0.105729 0.994331 
0.0105755 -0.09014 0.995873 
0.00991107 -0.0766589 0.997008 
0.00922777 -0.0649292 0.997847 
0.00884968 -0.0546435 0.998467 
0.00838134 -0.0457141 0.998919 
0.00748588 -0.0377049 0.999261 
0.00789333 -0.0303224 0.999509 
0.00732447 -0.0238853 0.999688 
0.00518252 -0.0170741 0.999841 
0.00909594 -0.0128504 0.999876 
0.00513932 -0.00853107 0.99995 
0.00714729 -0.00131527 0.999974 
0.00744239 0.0056477 0.999956 
0.00695176 0.0140441 0.999877 
0.00746149 0.0232006 0.999703 
0.00754992 0.0336162 0.999406 
0.00767436 0.0458378 0.998919 
0.00796349 0.0598616 0.998175 
0.00827647 0.0758899 0.997082 
0.00850707 0.094507 0.995488 
0.00876213 0.116021 0.993208 
0.00907493 0.140678 0.990014 
0.0093938 0.168982 0.985574 
0.0097671 0.201324 0.979476 
0.010268 0.238201 0.971162 
0.0109994 0.280227 0.959871 
0.0121313 0.327924 0.944626 
0.0144252 0.381838 0.924117 
0.0148228 0.441723 0.897029 
-0.0123851 -0.402201 0.915468 
-0.00942603 -0.361741 0.932231 
-0.00656908 -0.321182 0.946995 
-0.00442567 -0.280625 0.959807 
-0.00283562 -0.243365 0.969931 
-0.00167634 -0.210266 0.977643 
-0.000919051 -0.181217 0.983443 
-0.000404981 -0.155831 0.987784 
-4.53712e-05 -0.133766 0.991013 
0.000185764 -0.114559 0.993416 
0.000358693 -0.0979165 0.995195 
0.000543303 -0.0835456 0.996504 
0.000668135 -0.0710406 0.997473 
0.000807975 -0.0600461 0.998195 
0.00090117 -0.0505473 0.998721 
0.00091427 -0.0421995 0.999109 
0.00105148 -0.0341954 0.999415 
0.00108352 -0.0276275 0.999618 
0.00116175 -0.02125 0.999774 
0.00125416 -0.0127337 0.999918 
0.00130547 -0.0039375 0.999991 
0.0013075 0.00300256 0.999995 
0.00124699 0.0103838 0.999945 
0.00122484 0.0195579 0.999808 
0.00108129 0.0293595 0.999568 
0.000960679 0.0406065 0.999175 
0.000822364 0.0537074 0.998556 
0.000619673 0.0686681 0.997639 
0.00039158 0.0858528 0.996308 
6.14388e-05 0.105739 0.994394 
-0.000324634 0.128641 0.991691 
-0.000744165 0.154875 0.987934 
-0.00119463 0.184963 0.982745 
-0.00161557 0.219263 0.975664 
-0.00197955 0.258179 0.966095 
-0.00216284 0.301747 0.953385 
-0.00207192 0.34886 0.937173 
-0.00187444 0.395597 0.918422 
-0.00117337 0.441688 0.897168 
-0.0357399 -0.40538 0.913449 
-0.0318703 -0.352618 0.935224 
-0.0262184 -0.305346 0.95188 
-0.0221331 -0.263929 0.964288 
-0.0191956 -0.227746 0.973531 
-0.0168298 -0.196154 0.980429 
-0.0148891 -0.168569 0.985577 
-0.0132706 -0.144528 0.989412 
-0.011845 -0.123647 0.992256 
-0.010663 -0.105493 0.994363 
-0.00965347 -0.0898215 0.995911 
-0.00863796 -0.0763321 0.997045 
-0.00774553 -0.0645401 0.997885 
-0.0071235 -0.0542436 0.998502 
-0.00658751 -0.0453328 0.99895 
-0.0056077 -0.0374441 0.999283 
-0.00581491 -0.030048 0.999532 
-0.00517545 -0.023702 0.999706 
-0.00277224 -0.0168658 0.999854 
-0.00668914 -0.0127091 0.999897 
-0.00260768 -0.00833854 0.999962 
-0.00452701 -0.00119902 0.999989 
-0.00491848 0.00583059 0.999971 
-0.00444241 0.0142022 0.999889 
-0.00515043 0.0234641 0.999711 
-0.00552844 0.0339475 0.999408 
-0.0058722 0.0462061 0.998915 
-0.00650986 0.0602222 0.998164 
-0.00720222 0.0763969 0.997051 
-0.00800249 0.0951182 0.995434 
-0.00899722 0.116708 0.993126 
-0.0101302 0.141438 0.989895 
-0.0113453 0.169772 0.985418 