# vtk DataFile Version 3.0 
Exported using Morpho https://github.com/Morpho-lang/morpho 
ASCII 
DATASET UNSTRUCTURED_GRID 

POINTS 1245 float 
-0.303845 -0.952721 0 
-0.250833 -0.96803 0 
-0.195084 -0.980787 0 
-0.146308 -0.989239 0 
-0.0940719 -0.995565 0 
-0.0475118 -0.998871 0 
-0.000246339 -1 0 
0.0470875 -0.998891 0 
0.0937543 -0.995595 0 
0.146139 -0.989264 0 
0.195062 -0.980791 0 
0.250843 -0.968028 0 
0.303953 -0.952687 0 
-0.409153 -0.912466 0 
-0.356519 -0.934288 0 
-0.308871 -0.898929 0 
-0.258282 -0.916037 0 
-0.207345 -0.934859 0 
-0.154868 -0.930629 0 
-0.104343 -0.948989 0 
-0.0520099 -0.939193 0 
-8.5762e-05 -0.954582 0 
0.0518744 -0.939288 0 
0.104354 -0.949042 0 
0.154696 -0.9306 0 
0.207366 -0.934975 0 
0.258274 -0.916081 0 
0.308979 -0.898924 0 
0.356593 -0.93426 0 
0.409236 -0.912429 0 
-0.513788 -0.857917 0 
-0.461695 -0.887039 0 
-0.411157 -0.857936 0 
-0.359855 -0.879963 0 
-0.306888 -0.847481 0 
-0.254732 -0.866979 0 
-0.201991 -0.889059 0 
-0.149956 -0.874108 0 
-0.100608 -0.900088 0 
-0.0497575 -0.880388 0 
2.4595e-05 -0.904789 0 
0.0496869 -0.8804 0 
0.100612 -0.900177 0 
0.149872 -0.874171 0 
0.202071 -0.889165 0 
0.254695 -0.867031 0 
0.306946 -0.847482 0 
0.359894 -0.879943 0 
0.411236 -0.857929 0 
0.461748 -0.887011 0 
0.513842 -0.857885 0 
-0.564741 -0.825268 0 
-0.512908 -0.802945 0 
-0.462372 -0.832348 0 
-0.410124 -0.804631 0 
-0.358606 -0.827415 0 
-0.305781 -0.795641 0 
-0.25358 -0.816639 0 
-0.200756 -0.839997 0 
-0.149043 -0.818944 0 
-0.0987265 -0.846667 0 
-0.0490473 -0.822548 0 
5.00659e-05 -0.849932 0 
0.0490834 -0.822542 0 
0.0987838 -0.846676 0 
0.148997 -0.818924 0 
0.200826 -0.840131 0 
0.253508 -0.816728 0 
0.305831 -0.795701 0 
0.358581 -0.827419 0 
0.410181 -0.804654 0 
0.462414 -0.83234 0 
0.512965 -0.802929 0 
0.564777 -0.825243 0 
-0.660798 -0.750564 0 
-0.614015 -0.789295 0 
-0.561786 -0.769772 0 
-0.510673 -0.747856 0 
-0.460836 -0.778365 0 
-0.408794 -0.751554 0 
-0.357337 -0.774971 0 
-0.304815 -0.743684 0 
-0.252907 -0.765535 0 
-0.200631 -0.789263 0 
-0.149244 -0.764328 0 
-0.0986912 -0.791935 0 
-0.0492815 -0.765764 0 
4.16586e-05 -0.79382 0 
0.0492411 -0.765708 0 
0.0987508 -0.791951 0 
0.149196 -0.764326 0 
0.200666 -0.789356 0 
0.252841 -0.765599 0 
0.304862 -0.743741 0 
0.357323 -0.775038 0 
0.408863 -0.751626 0 
0.460863 -0.778382 0 
0.510716 -0.747859 0 
0.561819 -0.769761 0 
0.614041 -0.789274 0 
0.660811 -0.750552 0 
-0.707107 -0.707107 0 
-0.654819 -0.699058 0 
-0.60813 -0.73348 0 
-0.558104 -0.71337 0 
-0.509495 -0.692659 0 
-0.45935 -0.724356 0 
-0.407328 -0.698865 0 
-0.355968 -0.722823 0 
-0.303722 -0.691387 0 
-0.252254 -0.71362 0 
-0.20067 -0.737336 0 
-0.149608 -0.710068 0 
-0.0991558 -0.737129 0 
-0.0495872 -0.709825 0 
-2.23646e-05 -0.737917 0 
0.0494408 -0.709766 0 
0.0991291 -0.737116 0 
0.149502 -0.710042 0 
0.200696 -0.73743 0 
0.252186 -0.713735 0 
0.303753 -0.691518 0 
0.355952 -0.722893 0 
0.407371 -0.698945 0 
0.459374 -0.724407 0 
0.509524 -0.692668 0 
0.558131 -0.713361 0 
0.608151 -0.733462 0 
0.654824 -0.699048 0 
0.707107 -0.707107 0 
-0.750564 -0.660798 0 
-0.699058 -0.654819 0 
-0.647692 -0.647692 0 
-0.603437 -0.675718 0 
-0.55905 -0.655305 0 
-0.508501 -0.639581 0 
-0.457509 -0.671321 0 
-0.405555 -0.646545 0 
-0.354417 -0.670703 0 
-0.302427 -0.639219 0 
-0.251503 -0.661417 0 
-0.20061 -0.684911 0 
-0.149717 -0.655943 0 
-0.0995004 -0.682466 0 
-0.0498216 -0.654561 0 
-5.02113e-05 -0.682664 0 
0.0496787 -0.654499 0 
0.0994374 -0.682501 0 
0.149603 -0.655909 0 
0.200573 -0.684972 0 
0.251388 -0.661524 0 
0.302407 -0.639359 0 
0.354397 -0.670836 0 
0.405575 -0.646641 0 
0.457525 -0.67138 0 
0.508497 -0.639623 0 
0.559063 -0.655324 0 
0.603436 -0.675715 0 
0.64769 -0.64769 0 
0.699048 -0.654824 0 
0.750552 -0.660811 0 
-0.789295 -0.614015 0 
-0.73348 -0.60813 0 
-0.675718 -0.603437 0 
-0.613088 -0.613088 0 
-0.55962 -0.604068 0 
-0.506189 -0.588854 0 
-0.455505 -0.618874 0 
-0.403019 -0.594688 0 
-0.352514 -0.618952 0 
-0.300977 -0.586897 0 
-0.250543 -0.608767 0 
-0.200257 -0.632053 0 
-0.150049 -0.601979 0 
-0.0998281 -0.628222 0 
-0.0500377 -0.599914 0 
-3.12334e-05 -0.628076 0 
0.0498927 -0.599835 0 
0.0997818 -0.628253 0 
0.149924 -0.601867 0 
0.200214 -0.632118 0 
0.250423 -0.608915 0 
0.30086 -0.587085 0 
0.352457 -0.619096 0 
0.402948 -0.594743 0 
0.455483 -0.618952 0 
0.506147 -0.588901 0 
0.55964 -0.604067 0 
0.613069 -0.613069 0 
0.675715 -0.603436 0 
0.733462 -0.608151 0 
0.789274 -0.614041 0 
-0.825268 -0.564741 0 
-0.769772 -0.561786 0 
-0.71337 -0.558104 0 
-0.655305 -0.55905 0 
-0.604068 -0.55962 0 
-0.551031 -0.551031 0 
-0.497922 -0.537596 0 
-0.451508 -0.567021 0 
-0.399773 -0.542431 0 
-0.350494 -0.567003 0 
-0.301574 -0.534146 0 
-0.250874 -0.555692 0 
-0.200542 -0.579013 0 
-0.150324 -0.548268 0 
-0.100169 -0.57443 0 
-0.0500152 -0.545912 0 
-3.29278e-05 -0.574268 0 
0.0499208 -0.545788 0 
0.100058 -0.574485 0 
0.150038 -0.548073 0 
0.200377 -0.579041 0 
0.250556 -0.55585 0 
0.301273 -0.534348 0 
0.350318 -0.567174 0 
0.399615 -0.542384 0 
0.451404 -0.5671 0 
0.497945 -0.537702 0 
0.551073 -0.551073 0 
0.604067 -0.55964 0 
0.655324 -0.559063 0 
0.713361 -0.558131 0 
0.769761 -0.561819 0 
0.825243 -0.564777 0 
-0.857917 -0.513788 0 
-0.802945 -0.512908 0 
-0.747856 -0.510673 0 
-0.692659 -0.509495 0 
-0.639581 -0.508501 0 
-0.588854 -0.506189 0 
-0.537596 -0.497922 0 
-0.486157 -0.486157 0 
-0.444928 -0.512952 0 
-0.401787 -0.486784 0 
-0.351685 -0.513639 0 
-0.299695 -0.48291 0 
-0.250032 -0.503 0 
-0.200501 -0.526165 0 
-0.149489 -0.495195 0 
-0.0999281 -0.521367 0 
-0.0499712 -0.492294 0 
4.64723e-05 -0.520999 0 
0.050147 -0.492108 0 
0.099934 -0.52133 0 
0.14957 -0.494692 0 
0.200133 -0.526255 0 
0.249839 -0.503309 0 
0.299839 -0.483005 0 
0.351514 -0.513798 0 
0.401881 -0.486608 0 
0.444935 -0.513054 0 
0.486228 -0.486228 0 
0.537702 -0.497945 0 
0.588901 -0.506147 0 
0.639623 -0.508497 0 
0.692668 -0.509524 0 
0.747859 -0.510716 0 
0.802929 -0.512965 0 
0.857885 -0.513842 0 
-0.887039 -0.461695 0 
-0.832348 -0.462372 0 
-0.778365 -0.460836 0 
-0.724356 -0.45935 0 
-0.671321 -0.457509 0 
-0.618874 -0.455505 0 
-0.567021 -0.451508 0 
-0.512952 -0.444928 0 
-0.450685 -0.450685 0 
-0.397667 -0.437543 0 
-0.348492 -0.462546 0 
-0.295416 -0.432968 0 
-0.247004 -0.450633 0 
-0.198702 -0.473818 0 
-0.150161 -0.441625 0 
-0.100085 -0.468395 0 
-0.0502271 -0.439281 0 
0.000144229 -0.468374 0 
0.0504178 -0.439106 0 
0.100428 -0.468348 0 
0.150697 -0.441105 0 
0.199103 -0.473881 0 
0.247983 -0.450921 0 
0.296569 -0.432268 0 
0.348831 -0.462562 0 
0.397506 -0.4368 0 
0.450637 -0.450637 0 
0.513054 -0.444935 0 
0.5671 -0.451404 0 
0.618952 -0.455483 0 
0.67138 -0.457525 0 
0.724407 -0.459374 0 
0.778382 -0.460863 0 
0.83234 -0.462414 0 
0.887011 -0.461748 0 
-0.912466 -0.409153 0 
-0.857936 -0.411157 0 
-0.804631 -0.410124 0 
-0.751554 -0.408794 0 
-0.698865 -0.407328 0 
-0.646545 -0.405555 0 
-0.594688 -0.403019 0 
-0.542431 -0.399773 0 
-0.486784 -0.401787 0 
-0.437543 -0.397667 0 
-0.387256 -0.387256 0 
-0.344215 -0.411459 0 
-0.30136 -0.381507 0 
-0.25021 -0.395692 0 
-0.200211 -0.419975 0 
-0.150955 -0.389014 0 
-0.100617 -0.416095 0 
-0.0503197 -0.386922 0 
-4.02994e-05 -0.416525 0 
0.05006 -0.386948 0 
0.100784 -0.416323 0 
0.150432 -0.388572 0 
0.200855 -0.420694 0 
0.25086 -0.396905 0 
0.301746 -0.379789 0 
0.344135 -0.410678 0 
0.385823 -0.385823 0 
0.4368 -0.397506 0 
0.486608 -0.401881 0 
0.542384 -0.399615 0 
0.594743 -0.402948 0 
0.646641 -0.405575 0 
0.698945 -0.407371 0 
0.751626 -0.408863 0 
0.804654 -0.410181 0 
0.857929 -0.411236 0 
0.912429 -0.409236 0 
-0.934288 -0.356519 0 
-0.879963 -0.359855 0 
-0.827415 -0.358606 0 
-0.774971 -0.357337 0 
-0.722823 -0.355968 0 
-0.670703 -0.354417 0 
-0.618952 -0.352514 0 
-0.567003 -0.350494 0 
-0.513639 -0.351685 0 
-0.462546 -0.348492 0 
-0.411459 -0.344215 0 
-0.351697 -0.351697 0 
-0.29839 -0.336232 0 
-0.249846 -0.342529 0 
-0.200971 -0.367271 0 
-0.149995 -0.337521 0 
-0.100435 -0.3646 0 
-0.0498692 -0.335025 0 
-6.88684e-05 -0.365025 0 
0.0495433 -0.334795 0 
0.0996798 -0.364834 0 
0.148162 -0.337172 0 
0.199644 -0.368939 0 
0.24763 -0.345582 0 
0.295348 -0.332889 0 
0.34978 -0.34978 0 
0.410678 -0.344135 0 
0.462562 -0.348831 0 
0.513798 -0.351514 0 
0.567174 -0.350318 0 
0.619096 -0.352457 0 
0.670836 -0.354397 0 
0.722893 -0.355952 0 
0.775038 -0.357323 0 
0.827419 -0.358581 0 
0.879943 -0.359894 0 
0.93426 -0.356593 0 
-0.952721 -0.303845 0 
-0.898929 -0.308871 0 
-0.847481 -0.306888 0 
-0.795641 -0.305781 0 
-0.743684 -0.304815 0 
-0.691387 -0.303722 0 
-0.639219 -0.302427 0 
-0.586897 -0.300977 0 
-0.534146 -0.301574 0 
-0.48291 -0.299695 0 
-0.432968 -0.295416 0 
-0.381507 -0.30136 0 
-0.336232 -0.29839 0 
-0.288184 -0.288184 0 
-0.242975 -0.290577 0 
-0.198059 -0.315051 0 
-0.148383 -0.285894 0 
-0.0994753 -0.313232 0 
-0.0507184 -0.283118 0 
-0.000202902 -0.313447 0 
0.0500077 -0.282824 0 
0.0988289 -0.312817 0 
0.148102 -0.28482 0 
0.195742 -0.317413 0 
0.240766 -0.295824 0 
0.285014 -0.285014 0 
0.332889 -0.295348 0 
0.379789 -0.301746 0 
0.432268 -0.296569 0 
0.483005 -0.299839 0 
0.534348 -0.301273 0 
0.587085 -0.30086 0 
0.639359 -0.302407 0 
0.691518 -0.303753 0 
0.743741 -0.304862 0 
0.795701 -0.305831 0 
0.847482 -0.306946 0 
0.898924 -0.308979 0 
0.952687 -0.303953 0 
-0.96803 -0.250833 0 
-0.916037 -0.258282 0 
-0.866979 -0.254732 0 
-0.816639 -0.25358 0 
-0.765535 -0.252907 0 
-0.71362 -0.252254 0 
-0.661417 -0.251503 0 
-0.608767 -0.250543 0 
-0.555692 -0.250874 0 
-0.503 -0.250032 0 
-0.450633 -0.247004 0 
-0.395692 -0.25021 0 
-0.342529 -0.249846 0 
-0.290577 -0.242975 0 
-0.239946 -0.239946 0 
-0.194478 -0.26004 0 
-0.151293 -0.23238 0 
-0.101048 -0.260904 0 
-0.0503938 -0.232537 0 
-0.000203281 -0.262984 0 
0.050638 -0.232316 0 
0.100942 -0.260855 0 
0.152412 -0.232597 0 
0.195768 -0.261421 0 
0.241873 -0.241873 0 
0.295824 -0.240766 0 
0.345582 -0.24763 0 
0.396905 -0.25086 0 
0.450921 -0.247983 0 
[...]
POINT_DATA 1245 
VECTORS vectors float
0.408688 -0.159377 0.898651 
0.414746 -0.138183 0.899384 
0.419853 -0.116877 0.900035 
0.422822 -0.0995541 0.900728 
0.423436 -0.0821597 0.902193 
0.42144 -0.0672104 0.904362 
0.416256 -0.0518583 0.907768 
0.407208 -0.0344255 0.912687 
0.396072 -0.0139802 0.918113 
0.382059 0.0141766 0.924029 
0.369802 0.0451023 0.928015 
0.35925 0.0851178 0.929351 
0.354695 0.123995 0.926724 
0.393735 -0.202002 0.896754 
0.401758 -0.180787 0.897723 
0.360961 -0.151612 0.920175 
0.367345 -0.133105 0.920511 
0.377365 -0.1154 0.918846 
0.366434 -0.0952967 0.925551 
0.378182 -0.079861 0.92228 
0.36239 -0.0608702 0.930037 
0.37083 -0.0450807 0.927606 
0.349874 -0.0233866 0.936505 
0.352359 -0.00216522 0.935863 
0.332463 0.024917 0.942787 
0.334059 0.0547965 0.940958 
0.323055 0.0864583 0.942423 
0.318907 0.117152 0.940518 
0.35518 0.159492 0.921091 
0.358651 0.188932 0.914152 
0.372447 -0.243394 0.895568 
0.384111 -0.222836 0.895993 
0.347298 -0.190157 0.918273 
0.354567 -0.17081 0.919297 
0.31783 -0.141422 0.937541 
0.325063 -0.12366 0.937572 
0.335604 -0.107008 0.935906 
0.316704 -0.0863136 0.944589 
0.332846 -0.0726576 0.940178 
0.310724 -0.0532778 0.949006 
0.325865 -0.038801 0.94462 
0.301067 -0.0180567 0.953432 
0.312388 0.00101026 0.949954 
0.290375 0.0248084 0.956591 
0.300911 0.0513737 0.952268 
0.289278 0.0791873 0.953964 
0.284346 0.106122 0.95283 
0.318543 0.145436 0.936685 
0.31959 0.16957 0.93226 
0.361915 0.210935 0.908033 
0.361451 0.226097 0.904563 
0.358703 -0.263944 0.895358 
0.327701 -0.228682 0.916688 
0.338468 -0.209482 0.917364 
0.305117 -0.177785 0.935573 
0.311897 -0.159466 0.936638 
0.278611 -0.131773 0.951321 
0.285454 -0.115457 0.951412 
0.295822 -0.0996322 0.950033 
0.273434 -0.0793589 0.958612 
0.2889 -0.0658992 0.955089 
0.265876 -0.047251 0.962848 
0.281853 -0.0333414 0.958878 
0.258363 -0.0140409 0.965946 
0.27264 0.00352517 0.96211 
0.252722 0.0249994 0.967216 
0.267583 0.0489157 0.962292 
0.256839 0.0731787 0.96368 
0.251231 0.0961973 0.963135 
0.282652 0.13052 0.950301 
0.281657 0.151814 0.947429 
0.319341 0.18861 0.928681 
0.315174 0.203145 0.927037 
0.35452 0.236683 0.904598 
0.327376 -0.305454 0.894161 
0.343342 -0.284736 0.895009 
0.315016 -0.247593 0.916222 
0.286789 -0.213953 0.933797 
0.29692 -0.19594 0.934583 
0.26695 -0.166006 0.949305 
0.273031 -0.148771 0.950432 
0.242846 -0.122811 0.96226 
0.249442 -0.107481 0.962407 
0.258504 -0.0928373 0.961539 
0.235662 -0.0731506 0.969078 
0.24898 -0.0601749 0.966637 
0.227282 -0.0425061 0.972901 
0.241999 -0.0289619 0.969844 
0.221247 -0.0112149 0.975153 
0.235994 0.00530959 0.97174 
0.218962 0.0243611 0.975429 
0.235682 0.0462744 0.970728 
0.225889 0.0671613 0.971835 
0.22017 0.0873272 0.971545 
0.248647 0.117555 0.961434 
0.246028 0.136672 0.959579 
0.278769 0.16925 0.945327 
0.271896 0.183645 0.944641 
0.305161 0.214787 0.927762 
0.339956 0.245951 0.90771 
0.318611 0.25683 0.912428 
0.310959 -0.326503 0.892581 
0.290724 -0.286915 0.912776 
0.301146 -0.266004 0.915725 
0.27485 -0.231204 0.933275 
0.250103 -0.200455 0.947241 
0.259345 -0.183182 0.948253 
0.232677 -0.15495 0.960131 
0.238188 -0.138613 0.961277 
0.210644 -0.114165 0.970873 
0.21638 -0.0999482 0.97118 
0.224271 -0.086284 0.9707 
0.202274 -0.0675813 0.976994 
0.213576 -0.0551949 0.975366 
0.193784 -0.038577 0.980286 
0.206908 -0.0255877 0.978026 
0.188901 -0.00933815 0.981952 
0.203108 0.00620932 0.979137 
0.188698 0.0231488 0.981762 
0.20563 0.0431573 0.977678 
0.196906 0.0614188 0.978497 
0.191185 0.0791962 0.978354 
0.21693 0.1062 0.970393 
0.213284 0.123853 0.969108 
0.241268 0.153135 0.9583 
0.232963 0.167964 0.957871 
0.259892 0.196081 0.94552 
0.289265 0.225834 0.930228 
0.273228 0.240957 0.931282 
0.29121 0.272165 0.917127 
0.295423 -0.345636 0.890652 
0.275812 -0.304949 0.911556 
0.256951 -0.268033 0.928512 
0.262152 -0.247958 0.932627 
0.238879 -0.217592 0.946357 
0.2184 -0.188173 0.957545 
0.226033 -0.17117 0.958963 
0.202066 -0.144492 0.968654 
0.206716 -0.129101 0.969846 
0.181765 -0.106123 0.977599 
0.186702 -0.0928141 0.978022 
0.193444 -0.0800656 0.977839 
0.172817 -0.0624293 0.982973 
0.182428 -0.0507259 0.98191 
0.164647 -0.0352747 0.985722 
0.176329 -0.0229676 0.984063 
0.160641 -0.0080983 0.98698 
0.173883 0.0063607 0.984746 
0.161571 0.0215177 0.986626 
0.177927 0.0397894 0.983239 
0.170151 0.0559704 0.983827 
0.164756 0.0719877 0.983704 
0.1878 0.0963781 0.977467 
0.183576 0.112892 0.976502 
0.207625 0.139717 0.968179 
0.19941 0.155457 0.967507 
0.219888 0.182266 0.958347 
0.243648 0.208775 0.947127 
0.233399 0.226072 0.945736 
0.248381 0.257217 0.933888 
0.261862 0.291654 0.919981 
0.281182 -0.360843 0.889229 
0.259206 -0.315617 0.912797 
0.239339 -0.273906 0.9315 
0.227953 -0.237628 0.94423 
0.210211 -0.205902 0.955728 
0.190758 -0.176421 0.965654 
0.196356 -0.159906 0.967406 
0.174667 -0.134531 0.975394 
0.178738 -0.120091 0.97654 
0.155972 -0.0985756 0.98283 
0.160044 -0.0860987 0.983348 
0.165753 -0.0742259 0.98337 
0.146925 -0.0578484 0.987455 
0.155162 -0.0468074 0.98678 
0.139334 -0.0324837 0.989713 
0.149689 -0.020904 0.988512 
0.135974 -0.00729536 0.990685 
0.148058 0.00614091 0.98896 
0.137404 0.0198361 0.990316 
0.152672 0.0364232 0.987605 
0.145737 0.0509445 0.988011 
0.140767 0.0655708 0.987869 
0.161374 0.0877576 0.982984 
0.1569 0.103319 0.982195 
0.177662 0.128446 0.975673 
0.170588 0.144757 0.974651 
0.188513 0.172116 0.966871 
0.20389 0.20054 0.958234 
0.209146 0.233847 0.949512 
0.221855 0.271364 0.936559 
0.234432 0.312747 0.920451 
0.266474 -0.372373 0.889005 
0.245313 -0.327691 0.912382 
0.225679 -0.286128 0.931236 
0.209991 -0.248979 0.94547 
0.197466 -0.219361 0.955452 
0.181307 -0.189873 0.964923 
0.164349 -0.162671 0.972896 
0.169634 -0.148648 0.974232 
0.14987 -0.12495 0.980778 
0.153567 -0.111708 0.981804 
0.13311 -0.0921944 0.986804 
0.136343 -0.0802671 0.987405 
0.141258 -0.0690244 0.987564 
0.124249 -0.0537291 0.990795 
0.131379 -0.04337 0.990383 
0.117363 -0.0300628 0.992634 
0.126576 -0.0192701 0.99177 
0.114502 -0.00681213 0.9934 
0.125377 0.0056738 0.992093 
0.116022 0.0181452 0.993081 
0.129946 0.0334101 0.990958 
0.123727 0.0467797 0.991213 
0.119325 0.0605656 0.991006 
0.137535 0.0802668 0.987239 
0.132812 0.0947886 0.986598 
0.150912 0.118134 0.981463 
0.14397 0.13297 0.980608 
0.158439 0.158861 0.974505 
0.171362 0.186477 0.967399 
0.179273 0.214427 0.960147 
0.187803 0.250026 0.949851 
0.19848 0.290008 0.936216 
0.208463 0.334379 0.919094 
0.250261 -0.380017 0.890481 
0.230075 -0.336401 0.913181 
0.211277 -0.295722 0.931617 
0.194958 -0.258952 0.94601 
0.180966 -0.227005 0.956933 
0.168302 -0.199185 0.965401 
0.15413 -0.172767 0.972829 
0.139876 -0.148596 0.978956 
0.144205 -0.136869 0.980037 
0.127132 -0.11747 0.984905 
0.131001 -0.104803 0.985827 
0.113067 -0.0858542 0.989871 
0.115454 -0.0746578 0.990503 
0.119646 -0.0642479 0.990736 
0.104459 -0.0498321 0.99328 
0.110738 -0.0402424 0.993035 
0.0982557 -0.0279871 0.994768 
0.106468 -0.0179235 0.994155 
0.095784 -0.0064491 0.995381 
0.105565 0.00503628 0.9944 
0.0972937 0.0163867 0.995121 
0.109809 0.0305476 0.993483 
0.104263 0.0429069 0.993624 
0.10055 0.0558228 0.993365 
0.116033 0.0747755 0.990427 
0.110846 0.0890927 0.989836 
0.12605 0.108047 0.986122 
0.120136 0.121108 0.985343 
0.131561 0.144882 0.980664 
0.142227 0.170552 0.97503 
0.150469 0.19786 0.968613 
0.158466 0.229521 0.960317 
0.166852 0.266575 0.949262 
0.175827 0.308366 0.934877 
0.18424 0.354873 0.916581 
0.231521 -0.384392 0.893667 
0.212777 -0.341765 0.915381 
0.194994 -0.30203 0.933143 
0.17907 -0.265594 0.947309 
0.164869 -0.232978 0.958405 
0.152179 -0.203789 0.967115 
0.140094 -0.177475 0.974103 
0.127812 -0.152565 0.979994 
0.120302 -0.129399 0.984268 
0.108289 -0.109543 0.988066 
0.111177 -0.0974725 0.989009 
0.0955106 -0.0795919 0.992241 
0.0968272 -0.0691298 0.992898 
0.100694 -0.0595558 0.993133 
0.0870813 -0.0466743 0.995107 
0.0926843 -0.0375687 0.994987 
0.081739 -0.0262683 0.996308 
0.0890433 -0.0168118 0.995886 
0.0795911 -0.00618213 0.996808 
0.0882038 0.00451884 0.996092 
0.0807371 0.0152726 0.996618 
0.0920251 0.0278901 0.995366 
0.0870977 0.0391759 0.995429 
0.0840372 0.0512401 0.995144 
0.0974436 0.0690445 0.992843 
0.0929138 0.0826527 0.992238 
0.102672 0.103042 0.989364 
0.107156 0.127482 0.986035 
0.11581 0.15273 0.981459 
0.123714 0.179489 0.97595 
0.131089 0.209459 0.968991 
0.138617 0.243398 0.95997 
0.146279 0.282052 0.948182 
0.154175 0.325252 0.932974 
0.161367 0.373497 0.913488 
0.20979 -0.386556 0.898088 
0.193192 -0.344675 0.918627 
0.176867 -0.305667 0.935567 
0.162075 -0.269825 0.949171 
0.148719 -0.23726 0.959995 
0.136753 -0.207893 0.968545 
0.125702 -0.181481 0.975327 
0.115535 -0.157521 0.980734 
0.107772 -0.135656 0.984877 
0.099677 -0.117568 0.98805 
0.0903725 -0.100375 0.990837 
0.0934395 -0.0905618 0.991498 
0.0801115 -0.076449 0.99385 
0.0803485 -0.0653891 0.99462 
0.0837151 -0.0560135 0.994914 
0.0720818 -0.0439431 0.99643 
0.077076 -0.0353331 0.996399 
0.0674655 -0.0247659 0.997414 
0.0740054 -0.0159408 0.99713 
0.0656619 -0.00610711 0.997823 
0.0732312 0.00402935 0.997307 
0.066626 0.0138043 0.997683 
0.076422 0.0259612 0.996738 
0.071444 0.0374662 0.996741 
0.0697227 0.0491932 0.996353 
0.0805242 0.0636173 0.99472 
0.0762867 0.0746519 0.994287 
0.0836602 0.0929064 0.992154 
0.0894131 0.112204 0.989654 
0.093955 0.135626 0.986295 
0.100411 0.160919 0.981847 
0.106908 0.18896 0.976148 
0.113357 0.220462 0.968786 
0.11997 0.255987 0.959207 
0.126757 0.295847 0.946788 
0.13372 0.340297 0.930761 
0.139666 0.39006 0.910135 
0.185118 -0.38764 0.903032 
0.171401 -0.346223 0.922362 
0.15686 -0.307804 0.93843 
0.143434 -0.272319 0.951456 
0.131509 -0.240065 0.961808 
0.120447 -0.210634 0.970116 
0.11058 -0.184213 0.976646 
0.101551 -0.160324 0.981827 
0.0943606 -0.138889 0.985802 
0.0868998 -0.119961 0.988968 
0.0798189 -0.103098 0.991463 
0.0761866 -0.0867518 0.993313 
0.0677368 -0.0719872 0.995103 
0.0656268 -0.0615309 0.995945 
0.0691504 -0.0528055 0.996208 
0.0590915 -0.0413219 0.997397 
0.0635695 -0.03327 0.997423 
0.055058 -0.0233962 0.998209 
0.0609157 -0.0151686 0.998028 
0.0534716 -0.00606573 0.998551 
0.0602312 0.00331029 0.998179 
0.0543085 0.0124627 0.998446 
0.0625476 0.0243004 0.997746 
0.0591977 0.0334171 0.997687 
0.0568613 0.0460817 0.997318 
0.0643866 0.0610483 0.996056 
0.0663482 0.0799372 0.994589 
0.0713334 0.0984387 0.992583 
0.0760111 0.118936 0.989988 
0.0800776 0.142496 0.986551 
0.0853419 0.168614 0.981981 
0.0907727 0.197713 0.976048 
0.0964024 0.230574 0.968268 
0.102145 0.267158 0.958224 
0.108181 0.308183 0.945156 
0.114421 0.353558 0.928388 
0.119119 0.40466 0.906676 
0.157963 -0.388573 0.907777 
0.147989 -0.347589 0.925895 
0.135094 -0.309562 0.941234 
0.123983 -0.274539 0.953549 
0.113398 -0.242223 0.963571 
0.103986 -0.212703 0.971568 
0.0952128 -0.185963 0.977933 
0.087301 -0.161867 0.982943 
0.0808004 -0.140371 0.986797 
0.0743592 -0.121463 0.989807 
0.06808 -0.104806 0.99216 
0.0651885 -0.0902776 0.993781 
0.0605648 -0.0784931 0.995073 
0.0549016 -0.0662805 0.996289 
0.0529535 -0.0569458 0.996972 
0.0561183 -0.0493032 0.997206 
0.0475923 -0.0389122 0.998109 
0.0516923 -0.0313563 0.998171 
0.0442072 -0.0224184 0.998771 
0.0494363 -0.0145306 0.998672 
0.0428348 -0.00585023 0.999065 
0.0487697 0.00269417 0.998806 
0.0434492 0.0116105 0.998988 
0.0511117 0.0213341 0.998465 
0.0465587 0.0319354 0.998405 
0.0476253 0.0393169 0.998091 
0.0499725 0.0543689 0.99727 
0.0542821 0.0672737 0.996257 
0.0557039 0.0842223 0.994889 
0.0595346 0.102862 0.992912 
0.0633232 0.123929 0.990269 
0.0669287 0.148148 0.986698 
0.071318 0.175307 0.981927 
0.0759171 0.205786 0.975648 
0.0806193 0.239795 0.96747 
0.0856092 0.277748 0.956832 
0.090707 0.319417 0.943263 
0.096482 0.365452 0.925816 
0.099844 0.417293 0.90327 
0.128741 -0.389931 0.9118 
0.123125 -0.349925 0.928651 
0.112725 -0.313192 0.942976 
0.103243 -0.278542 0.954859 
0.0951329 -0.246512 0.964459 
0.0871962 -0.216756 0.972324 
0.0799679 -0.189688 0.978582 
0.0732773 -0.165093 0.983552 
0.0675527 -0.143062 0.987406 
0.0621097 -0.123473 0.990402 
0.0567459 -0.105941 0.992752 
0.0532019 -0.0903445 0.994489 
0.0496349 -0.0764199 0.99584 
0.0449778 -0.0643532 0.996913 
0.0418734 -0.0537385 0.997677 
0.0440581 -0.0461636 0.997962 
0.0371837 -0.0375865 0.998601 
0.0411024 -0.0301366 0.9987 
0.0348171 -0.0214763 0.999163 
0.0395353 -0.0139782 0.99912 
0.0337199 -0.00567196 0.999415 
0.038701 0.00275352 0.999247 
0.034035 0.0116488 0.999353 
0.039763 0.0203601 0.999002 
0.0372447 0.0292786 0.998877 
0.037259 0.0431545 0.998373 
0.041537 0.0545156 0.997649 
0.0435011 0.0707117 0.996548 
0.0455153 0.0881364 0.995068 
0.0485208 0.107963 0.99297 
0.0515606 0.130274 0.990137 
0.0546556 0.155684 0.986294 
0.0582169 0.184135 0.981175 
0.0619323 0.215813 0.974469 
0.0658546 0.251059 0.965729 
0.0698217 0.289484 0.954633 
0.0743738 0.331676 0.940457 
0.0796051 0.376577 0.922959 
0.0816291 0.427795 0.900182 
0.0965862 -0.392124 0.914828 
0.098229 -0.356573 0.929089 
0.0887279 -0.320987 0.942918 
0.0823764 -0.286515 0.954528 
0.0760891 -0.253814 0.964256 
0.0701982 -0.223338 0.97221 
0.0646716 -0.195489 0.978571 
0.0593515 -0.170182 0.983624 
0.0547049 -0.14754 0.987542 
0.0504102 -0.127397 0.99057 
0.0460889 -0.109609 0.992906 
0.0430047 -0.0935765 0.994683 
0.0401022 -0.0797531 0.996008 
0.0368453 -0.0673314 0.99705 
0.0338762 -0.0557983 0.997867 
0.0330945 -0.0452001 0.99843 
0.0286514 -0.0356736 0.998953 
0.031949 -0.028571 0.999081 
0.0264215 -0.0201524 0.999448 
0.0308685 -0.0134259 0.999433 
0.0256901 -0.00606057 0.999652 
0.0300789 0.00235596 0.999545 
0.0262985 0.0105215 0.999599 
0.0296352 0.0210799 0.999338 
0.0294209 0.0328742 0.999026 
0.030802 0.0458963 0.998471 
0.0324271 0.0605115 0.997641 
0.0346229 0.0759498 0.99651 
0.0360673 0.0944505 0.994876 
0.0384104 0.114994 0.992623 
0.0407595 0.138446 0.989531 
0.0432087 0.165039 0.98534 
0.0459793 0.194924 0.97974 
0.0488338 0.228136 0.972404 
0.051853 0.264851 0.962894 
0.0551341 0.304735 0.95084 
0.0586778 0.346932 0.936053 
0.0640424 0.390785 0.918252 
0.0633655 0.436006 0.89771 
0.0685222 -0.394927 0.916154 
0.0687546 -0.347483 0.935162 
0.0620749 -0.305019 0.950321 
0.0569451 -0.267436 0.961892 
0.0529274 -0.233918 0.970815 
0.0488989 -0.20388 0.977774 
0.0450701 -0.17701 0.983177 
0.0415873 -0.153117 0.987333 
0.0383485 -0.131995 0.990508 
0.0351839 -0.113419 0.992924 
0.0326559 -0.0969906 0.994749 
0.0304589 -0.0827206 0.996107 
0.0282459 -0.0703152 0.997125 
0.0261649 -0.0592423 0.997901 
0.025126 -0.0491459 0.998476 
0.0233425 -0.040825 0.998894 
0.0203802 -0.0325881 0.999261 
0.0236486 -0.0268886 0.999359 
0.0187749 -0.0203102 0.999617 
0.0226495 -0.0130855 0.999658 
0.0182086 -0.00525847 0.99982 
0.0224142 0.00134348 0.999748 
0.0188689 0.00794309 0.99979 
0.0210877 0.0167982 0.999636 
0.0220781 0.0260986 0.999416 
0.0220505 0.0374862 0.999054 
0.0229416 0.0503545 0.998468 
0.0244976 0.0646157 0.997609 
0.0256952 0.0814044 0.99635 
0.0269593 0.100629 0.994559 
0.0285993 0.122533 0.992052 
0.030302 0.147521 0.988595 
0.032095 0.175907 0.983883 
0.0341034 0.207969 0.977541 
0.0362827 0.2441 0.969071 
0.0386285 0.284606 0.957866 
0.0418434 0.330508 0.942875 
0.0464626 0.382291 0.922873 
0.0477296 0.44101 0.896232 
0.0383499 -0.398554 0.916343 
0.0434764 -0.359573 0.932103 
0.039725 -0.321132 0.946201 
0.0370512 -0.282879 0.95844 
0.0348511 -0.247398 0.968287 
0.032615 -0.215416 0.975977 
0.030423 -0.186871 0.981913 
0.028231 -0.16161 0.986451 
0.0261903 -0.139364 0.989895 
0.0241618 -0.119918 0.99249 
0.0223998 -0.102784 0.994451 
0.020921 -0.0878816 0.995911 
0.0194683 -0.0749114 0.997 
0.0180579 -0.0634309 0.997823 
0.0172652 -0.0531262 0.998439 
0.0160327 -0.0440958 0.998899 
0.0145572 -0.035902 0.999249 
0.0148811 -0.0270233 0.999524 
0.0121799 -0.0194806 0.999736 
0.015951 -0.0127263 0.999792 
0.0119114 -0.00550236 0.999914 
0.0140725 0.00225091 0.999898 
0.0133835 0.0120888 0.999837 
0.0143078 0.0212598 0.999672 
0.0148369 0.031489 0.999394 
0.0150261 0.0434036 0.998945 
0.0157148 0.0570169 0.99825 
0.0165859 0.0723007 0.997245 
0.0173266 0.0898107 0.995808 
0.0181114 0.110085 0.993757 
0.0191073 0.133166 0.99091 
0.0201121 0.159593 0.986978 
0.0212253 0.189706 0.981612 
0.0224539 0.223793 0.974378 
0.0238976 0.262194 0.964719 
0.025644 0.30488 0.952045 
0.0281352 0.351073 0.935925 
0.0317499 0.397568 0.917023 
0.0305119 0.444016 0.895499 
0.0127942 -0.402364 0.91539 
0.0165903 -0.351114 0.936186 
0.0163407 -0.305832 0.951945 
0.01584 -0.265632 0.963944 
0.0155283 -0.230306 0.972994 
0.0149311 -0.199242 0.979837 
0.0141558 -0.171946 0.985005 
0.0133426 -0.148033 0.988892 
0.0124514 -0.127144 0.991806 
0.0116129 -0.108871 0.993988 
0.0109022 -0.0929848 0.995608 
0.0102283 -0.0791743 0.996808 
0.00954197 -0.0671131 0.9977 
0.00916939 -0.0564431 0.998364 
0.00866383 -0.0471624 0.99885 
0.00776763 -0.0387732 0.999218 
0.00818062 -0.0309376 0.999488 
0.00760838 -0.0242221 0.999678 
0.00531599 -0.0169449 0.999842 
0.00952044 -0.0125586 0.999876 
0.00522678 -0.00782973 0.999956 
0.00740947 -0.000300282 0.999973 
0.00773299 0.00702388 0.999945 
0.00718438 0.0158097 0.999849 
0.00774468 0.0252788 0.99965 
0.00780481 0.0360681 0.999319 
0.00793779 0.0485881 0.998787 
0.00825211 0.0628941 0.997986 
0.00856269 0.0791962 0.996822 
0.00879843 0.0980421 0.995143 
0.00905495 0.119758 0.992762 
0.00937341 0.144582 0.989448 
0.00968582 0.172993 0.984875 
0.0100653 0.205418 0.978623 
0.0105601 0.242314 0.97014 
0.0112144 0.284272 0.958678 
0.0125122 0.33195 0.943214 
0.014475 0.385606 0.92255 
0.0149372 0.445342 0.895236 
-0.0121163 -0.406345 0.913639 
-0.00889079 -0.365967 0.930585 
-0.00651274 -0.325404 0.945553 
-0.00428449 -0.284859 0.95856 
-0.00269144 -0.24756 0.968869 
-0.00161581 -0.214355 0.976755 
-0.000859937 -0.185169 0.982706 
-0.000369338 -0.159602 0.987181 
-3.34197e-05 -0.137316 0.990527 
0.00018795 -0.11786 0.99303 
0.000335533 -0.100932 0.994893 
0.000507864 -0.086261 0.996272 
0.000622315 -0.0734226 0.997301 
0.000730037 -0.0620816 0.998071 
0.000813359 -0.052232 0.998635 
0.000825931 -0.0434866 0.999054 
0.000911007 -0.0350958 0.999384 
0.000986851 -0.0281922 0.999602 
0.000986835 -0.021341 0.999772 
0.00111175 -0.0123654 0.999923 
0.00119805 -0.00311608 0.999994 
0.00113608 0.00428503 0.99999 
0.00112174 0.0119426 0.999928 
0.00108377 0.0215304 0.999768 
0.000947955 0.0316481 0.999499 
0.000840476 0.0432172 0.999065 
0.000706046 0.0566281 0.998395 
0.00051722 0.0718508 0.997415 
0.000302851 0.0892873 0.996006 
-1.41939e-05 0.109387 0.993999 
-0.000387783 0.132461 0.991188 
-0.000792625 0.15884 0.987304 
-0.00123012 0.189023 0.981972 
-0.0016581 0.223368 0.974733 
-0.00197756 0.262287 0.964988 
-0.00220092 0.305798 0.952094 
-0.0022146 0.352803 0.935695 
-0.0017596 0.399423 0.916765 
-0.00133729 0.445377 0.895342 
-0.0354848 -0.409392 0.911668 
-0.0319443 -0.356735 0.933659 
-0.0261404 -0.309543 0.950526 
-0.0222695 -0.26811 0.963131 
-0.0193559 -0.231866 0.972555 
-0.0170317 -0.200167 0.979614 
-0.0151431 -0.17242 0.984907 
-0.0135521 -0.148182 0.988867 
-0.0121647 -0.127066 0.99182 
-0.0110177 -0.108638 0.99402 
-0.0100284 -0.0926724 0.995646 
-0.00906407 -0.0788647 0.996844 
-0.0081658 -0.0667223 0.997738 
-0.0075532 -0.0560297 0.998401 
-0.00709196 -0.0468021 0.998879 
-0.0060746 -0.0385098 0.99924 
-0.00635258 -0.0306863 0.999509 
-0.00570687 -0.0240022 0.999696 
-0.00313948 -0.016832 0.999853 
-0.0073908 -0.0122655 0.999897 
-0.00302331 -0.00773412 0.999966 
-0.00508845 -0.000145099 0.999987 
-0.00546786 0.00716881 0.999959 
-0.00497698 0.0159611 0.99986 
-0.00568631 0.0255375 0.999658 
-0.00606481 0.0363774 0.99932 
-0.00638277 0.0489284 0.998782 
-0.00700894 0.0632471 0.997973 
-0.00767792 0.0796896 0.99679 
-0.00845648 0.0986307 0.995088 
-0.00942744 0.120432 0.992677 
-0.010535 0.145319 0.989329 
-0.0117281 0.173776 0.984715 
-0.0130144 0.206174 0.978429 
-0.0143461 0.242943 0.969934 