# vtk DataFile Version 3.0 
Exported using Morpho https://github.com/Morpho-lang/morpho 
ASCII 
DATASET UNSTRUCTURED_GRID 

POINTS 1245 float 
-0.303845 -0.952721 0 
-0.250833 -0.96803 0 
-0.195084 -0.980787 0 
-0.146308 -0.989239 0 
-0.0940719 -0.995565 0 
-0.0475118 -0.998871 0 
-0.000246339 -1 0 
0.0470875 -0.998891 0 
0.0937543 -0.995595 0 
0.146139 -0.989264 0 
0.195062 -0.980791 0 
0.250843 -0.968028 0 
0.303953 -0.952687 0 
-0.409153 -0.912466 0 
-0.356519 -0.934288 0 
-0.308871 -0.898929 0 
-0.258282 -0.916037 0 
-0.207345 -0.934859 0 
-0.154868 -0.930629 0 
-0.104343 -0.948989 0 
-0.0520099 -0.939193 0 
-8.5762e-05 -0.954582 0 
0.0518744 -0.939288 0 
0.104354 -0.949042 0 
0.154696 -0.9306 0 
0.207366 -0.934975 0 
0.258274 -0.916081 0 
0.308979 -0.898924 0 
0.356593 -0.93426 0 
0.409236 -0.912429 0 
-0.513788 -0.857917 0 
-0.461695 -0.887039 0 
-0.411157 -0.857936 0 
-0.359855 -0.879963 0 
-0.306888 -0.847481 0 
-0.254732 -0.866979 0 
-0.201991 -0.889059 0 
-0.149956 -0.874108 0 
-0.100608 -0.900088 0 
-0.0497575 -0.880388 0 
2.4595e-05 -0.904789 0 
0.0496869 -0.8804 0 
0.100612 -0.900177 0 
0.149872 -0.874171 0 
0.202071 -0.889165 0 
0.254695 -0.867031 0 
0.306946 -0.847482 0 
0.359894 -0.879943 0 
0.411236 -0.857929 0 
0.461748 -0.887011 0 
0.513842 -0.857885 0 
-0.564741 -0.825268 0 
-0.512908 -0.802945 0 
-0.462372 -0.832348 0 
-0.410124 -0.804631 0 
-0.358606 -0.827415 0 
-0.305781 -0.795641 0 
-0.25358 -0.816639 0 
-0.200756 -0.839997 0 
-0.149043 -0.818944 0 
-0.0987265 -0.846667 0 
-0.0490473 -0.822548 0 
5.00659e-05 -0.849932 0 
0.0490834 -0.822542 0 
0.0987838 -0.846676 0 
0.148997 -0.818924 0 
0.200826 -0.840131 0 
0.253508 -0.816728 0 
0.305831 -0.795701 0 
0.358581 -0.827419 0 
0.410181 -0.804654 0 
0.462414 -0.83234 0 
0.512965 -0.802929 0 
0.564777 -0.825243 0 
-0.660798 -0.750564 0 
-0.614015 -0.789295 0 
-0.561786 -0.769772 0 
-0.510673 -0.747856 0 
-0.460836 -0.778365 0 
-0.408794 -0.751554 0 
-0.357337 -0.774971 0 
-0.304815 -0.743684 0 
-0.252907 -0.765535 0 
-0.200631 -0.789263 0 
-0.149244 -0.764328 0 
-0.0986912 -0.791935 0 
-0.0492815 -0.765764 0 
4.16586e-05 -0.79382 0 
0.0492411 -0.765708 0 
0.0987508 -0.791951 0 
0.149196 -0.764326 0 
0.200666 -0.789356 0 
0.252841 -0.765599 0 
0.304862 -0.743741 0 
0.357323 -0.775038 0 
0.408863 -0.751626 0 
0.460863 -0.778382 0 
0.510716 -0.747859 0 
0.561819 -0.769761 0 
0.614041 -0.789274 0 
0.660811 -0.750552 0 
-0.707107 -0.707107 0 
-0.654819 -0.699058 0 
-0.60813 -0.73348 0 
-0.558104 -0.71337 0 
-0.509495 -0.692659 0 
-0.45935 -0.724356 0 
-0.407328 -0.698865 0 
-0.355968 -0.722823 0 
-0.303722 -0.691387 0 
-0.252254 -0.71362 0 
-0.20067 -0.737336 0 
-0.149608 -0.710068 0 
-0.0991558 -0.737129 0 
-0.0495872 -0.709825 0 
-2.23646e-05 -0.737917 0 
0.0494408 -0.709766 0 
0.0991291 -0.737116 0 
0.149502 -0.710042 0 
0.200696 -0.73743 0 
0.252186 -0.713735 0 
0.303753 -0.691518 0 
0.355952 -0.722893 0 
0.407371 -0.698945 0 
0.459374 -0.724407 0 
0.509524 -0.692668 0 
0.558131 -0.713361 0 
0.608151 -0.733462 0 
0.654824 -0.699048 0 
0.707107 -0.707107 0 
-0.750564 -0.660798 0 
-0.699058 -0.654819 0 
-0.647692 -0.647692 0 
-0.603437 -0.675718 0 
-0.55905 -0.655305 0 
-0.508501 -0.639581 0 
-0.457509 -0.671321 0 
-0.405555 -0.646545 0 
-0.354417 -0.670703 0 
-0.302427 -0.639219 0 
-0.251503 -0.661417 0 
-0.20061 -0.684911 0 
-0.149717 -0.655943 0 
-0.0995004 -0.682466 0 
-0.0498216 -0.654561 0 
-5.02113e-05 -0.682664 0 
0.0496787 -0.654499 0 
0.0994374 -0.682501 0 
0.149603 -0.655909 0 
0.200573 -0.684972 0 
0.251388 -0.661524 0 
0.302407 -0.639359 0 
0.354397 -0.670836 0 
0.405575 -0.646641 0 
0.457525 -0.67138 0 
0.508497 -0.639623 0 
0.559063 -0.655324 0 
0.603436 -0.675715 0 
0.64769 -0.64769 0 
0.699048 -0.654824 0 
0.750552 -0.660811 0 
-0.789295 -0.614015 0 
-0.73348 -0.60813 0 
-0.675718 -0.603437 0 
-0.613088 -0.613088 0 
-0.55962 -0.604068 0 
-0.506189 -0.588854 0 
-0.455505 -0.618874 0 
-0.403019 -0.594688 0 
-0.352514 -0.618952 0 
-0.300977 -0.586897 0 
-0.250543 -0.608767 0 
-0.200257 -0.632053 0 
-0.150049 -0.601979 0 
-0.0998281 -0.628222 0 
-0.0500377 -0.599914 0 
-3.12334e-05 -0.628076 0 
0.0498927 -0.599835 0 
0.0997818 -0.628253 0 
0.149924 -0.601867 0 
0.200214 -0.632118 0 
0.250423 -0.608915 0 
0.30086 -0.587085 0 
0.352457 -0.619096 0 
0.402948 -0.594743 0 
0.455483 -0.618952 0 
0.506147 -0.588901 0 
0.55964 -0.604067 0 
0.613069 -0.613069 0 
0.675715 -0.603436 0 
0.733462 -0.608151 0 
0.789274 -0.614041 0 
-0.825268 -0.564741 0 
-0.769772 -0.561786 0 
-0.71337 -0.558104 0 
-0.655305 -0.55905 0 
-0.604068 -0.55962 0 
-0.551031 -0.551031 0 
-0.497922 -0.537596 0 
-0.451508 -0.567021 0 
-0.399773 -0.542431 0 
-0.350494 -0.567003 0 
-0.301574 -0.534146 0 
-0.250874 -0.555692 0 
-0.200542 -0.579013 0 
-0.150324 -0.548268 0 
-0.100169 -0.57443 0 
-0.0500152 -0.545912 0 
-3.29278e-05 -0.574268 0 
0.0499208 -0.545788 0 
0.100058 -0.574485 0 
0.150038 -0.548073 0 
0.200377 -0.579041 0 
0.250556 -0.55585 0 
0.301273 -0.534348 0 
0.350318 -0.567174 0 
0.399615 -0.542384 0 
0.451404 -0.5671 0 
0.497945 -0.537702 0 
0.551073 -0.551073 0 
0.604067 -0.55964 0 
0.655324 -0.559063 0 
0.713361 -0.558131 0 
0.769761 -0.561819 0 
0.825243 -0.564777 0 
-0.857917 -0.513788 0 
-0.802945 -0.512908 0 
-0.747856 -0.510673 0 
-0.692659 -0.509495 0 
-0.639581 -0.508501 0 
-0.588854 -0.506189 0 
-0.537596 -0.497922 0 
-0.486157 -0.486157 0 
-0.444928 -0.512952 0 
-0.401787 -0.486784 0 
-0.351685 -0.513639 0 
-0.299695 -0.48291 0 
-0.250032 -0.503 0 
-0.200501 -0.526165 0 
-0.149489 -0.495195 0 
-0.0999281 -0.521367 0 
-0.0499712 -0.492294 0 
4.64723e-05 -0.520999 0 
0.050147 -0.492108 0 
0.099934 -0.52133 0 
0.14957 -0.494692 0 
0.200133 -0.526255 0 
0.249839 -0.503309 0 
0.299839 -0.483005 0 
0.351514 -0.513798 0 
0.401881 -0.486608 0 
0.444935 -0.513054 0 
0.486228 -0.486228 0 
0.537702 -0.497945 0 
0.588901 -0.506147 0 
0.639623 -0.508497 0 
0.692668 -0.509524 0 
0.747859 -0.510716 0 
0.802929 -0.512965 0 
0.857885 -0.513842 0 
-0.887039 -0.461695 0 
-0.832348 -0.462372 0 
-0.778365 -0.460836 0 
-0.724356 -0.45935 0 
-0.671321 -0.457509 0 
-0.618874 -0.455505 0 
-0.567021 -0.451508 0 
-0.512952 -0.444928 0 
-0.450685 -0.450685 0 
-0.397667 -0.437543 0 
-0.348492 -0.462546 0 
-0.295416 -0.432968 0 
-0.247004 -0.450633 0 
-0.198702 -0.473818 0 
-0.150161 -0.441625 0 
-0.100085 -0.468395 0 
-0.0502271 -0.439281 0 
0.000144229 -0.468374 0 
0.0504178 -0.439106 0 
0.100428 -0.468348 0 
0.150697 -0.441105 0 
0.199103 -0.473881 0 
0.247983 -0.450921 0 
0.296569 -0.432268 0 
0.348831 -0.462562 0 
0.397506 -0.4368 0 
0.450637 -0.450637 0 
0.513054 -0.444935 0 
0.5671 -0.451404 0 
0.618952 -0.455483 0 
0.67138 -0.457525 0 
0.724407 -0.459374 0 
0.778382 -0.460863 0 
0.83234 -0.462414 0 
0.887011 -0.461748 0 
-0.912466 -0.409153 0 
-0.857936 -0.411157 0 
-0.804631 -0.410124 0 
-0.751554 -0.408794 0 
-0.698865 -0.407328 0 
-0.646545 -0.405555 0 
-0.594688 -0.403019 0 
-0.542431 -0.399773 0 
-0.486784 -0.401787 0 
-0.437543 -0.397667 0 
-0.387256 -0.387256 0 
-0.344215 -0.411459 0 
-0.30136 -0.381507 0 
-0.25021 -0.395692 0 
-0.200211 -0.419975 0 
-0.150955 -0.389014 0 
-0.100617 -0.416095 0 
-0.0503197 -0.386922 0 
-4.02994e-05 -0.416525 0 
0.05006 -0.386948 0 
0.100784 -0.416323 0 
0.150432 -0.388572 0 
0.200855 -0.420694 0 
0.25086 -0.396905 0 
0.301746 -0.379789 0 
0.344135 -0.410678 0 
0.385823 -0.385823 0 
0.4368 -0.397506 0 
0.486608 -0.401881 0 
0.542384 -0.399615 0 
0.594743 -0.402948 0 
0.646641 -0.405575 0 
0.698945 -0.407371 0 
0.751626 -0.408863 0 
0.804654 -0.410181 0 
0.857929 -0.411236 0 
0.912429 -0.409236 0 
-0.934288 -0.356519 0 
-0.879963 -0.359855 0 
-0.827415 -0.358606 0 
-0.774971 -0.357337 0 
-0.722823 -0.355968 0 
-0.670703 -0.354417 0 
-0.618952 -0.352514 0 
-0.567003 -0.350494 0 
-0.513639 -0.351685 0 
-0.462546 -0.348492 0 
-0.411459 -0.344215 0 
-0.351697 -0.351697 0 
-0.29839 -0.336232 0 
-0.249846 -0.342529 0 
-0.200971 -0.367271 0 
-0.149995 -0.337521 0 
-0.100435 -0.3646 0 
-0.0498692 -0.335025 0 
-6.88684e-05 -0.365025 0 
0.0495433 -0.334795 0 
0.0996798 -0.364834 0 
0.148162 -0.337172 0 
0.199644 -0.368939 0 
0.24763 -0.345582 0 
0.295348 -0.332889 0 
0.34978 -0.34978 0 
0.410678 -0.344135 0 
0.462562 -0.348831 0 
0.513798 -0.351514 0 
0.567174 -0.350318 0 
0.619096 -0.352457 0 
0.670836 -0.354397 0 
0.722893 -0.355952 0 
0.775038 -0.357323 0 
0.827419 -0.358581 0 
0.879943 -0.359894 0 
0.93426 -0.356593 0 
-0.952721 -0.303845 0 
-0.898929 -0.308871 0 
-0.847481 -0.306888 0 
-0.795641 -0.305781 0 
-0.743684 -0.304815 0 
-0.691387 -0.303722 0 
-0.639219 -0.302427 0 
-0.586897 -0.300977 0 
-0.534146 -0.301574 0 
-0.48291 -0.299695 0 
-0.432968 -0.295416 0 
-0.381507 -0.30136 0 
-0.336232 -0.29839 0 
-0.288184 -0.288184 0 
-0.242975 -0.290577 0 
-0.198059 -0.315051 0 
-0.148383 -0.285894 0 
-0.0994753 -0.313232 0 
-0.0507184 -0.283118 0 
-0.000202902 -0.313447 0 
0.0500077 -0.282824 0 
0.0988289 -0.312817 0 
0.148102 -0.28482 0 
0.195742 -0.317413 0 
0.240766 -0.295824 0 
0.285014 -0.285014 0 
0.332889 -0.295348 0 
0.379789 -0.301746 0 
0.432268 -0.296569 0 
0.483005 -0.299839 0 
0.534348 -0.301273 0 
0.587085 -0.30086 0 
0.639359 -0.302407 0 
0.691518 -0.303753 0 
0.743741 -0.304862 0 
0.795701 -0.305831 0 
0.847482 -0.306946 0 
0.898924 -0.308979 0 
0.952687 -0.303953 0 
-0.96803 -0.250833 0 
-0.916037 -0.258282 0 
-0.866979 -0.254732 0 
-0.816639 -0.25358 0 
-0.765535 -0.252907 0 
-0.71362 -0.252254 0 
-0.661417 -0.251503 0 
-0.608767 -0.250543 0 
-0.555692 -0.250874 0 
-0.503 -0.250032 0 
-0.450633 -0.247004 0 
-0.395692 -0.25021 0 
-0.342529 -0.249846 0 
-0.290577 -0.242975 0 
-0.239946 -0.239946 0 
-0.194478 -0.26004 0 
-0.151293 -0.23238 0 
-0.101048 -0.260904 0 
-0.0503938 -0.232537 0 
-0.000203281 -0.262984 0 
0.050638 -0.232316 0 
0.100942 -0.260855 0 
0.152412 -0.232597 0 
0.195768 -0.261421 0 
0.241873 -0.241873 0 
0.295824 -0.240766 0 
0.345582 -0.24763 0 
0.396905 -0.25086 0 
0.450921 -0.247983 0 
[...]
POINT_DATA 1245 
VECTORS vectors float
0.425616 -0.162757 0.890146 
0.431883 -0.141309 0.890791 
0.436687 -0.119466 0.891646 
0.438922 -0.101329 0.892793 
0.439034 -0.0822943 0.894694 
0.436626 -0.065435 0.89726 
0.431865 -0.0478847 0.900666 
0.423615 -0.0281516 0.905405 
0.414033 -0.00599278 0.910242 
0.40223 0.0232664 0.915243 
0.3919 0.0538228 0.918432 
0.382786 0.0921571 0.919229 
0.377889 0.128849 0.916841 
0.409113 -0.20661 0.888785 
0.418069 -0.184578 0.889466 
0.377889 -0.155659 0.912672 
0.385066 -0.13623 0.912779 
0.394217 -0.118333 0.911367 
0.384003 -0.0968036 0.918243 
0.394585 -0.0802506 0.915348 
0.379662 -0.059466 0.923212 
0.387568 -0.0414479 0.920909 
0.368173 -0.0183249 0.929577 
0.371458 0.00490545 0.928437 
0.353107 0.0320049 0.935036 
0.356183 0.0624603 0.932326 
0.345087 0.0926368 0.933988 
0.340354 0.122637 0.932266 
0.376416 0.162675 0.912057 
0.376851 0.19182 0.906194 
0.386206 -0.250652 0.887704 
0.398568 -0.228647 0.88818 
0.362994 -0.195855 0.910975 
0.371072 -0.175482 0.911873 
0.335296 -0.145705 0.930777 
0.342264 -0.12745 0.93092 
0.353862 -0.109292 0.92889 
0.334226 -0.0879787 0.938378 
0.350795 -0.0727837 0.933619 
0.32857 -0.0519885 0.943048 
0.344074 -0.0358739 0.938257 
0.319898 -0.0137361 0.947353 
0.332051 0.00670975 0.943238 
0.310833 0.0311876 0.949953 
0.321974 0.0577556 0.944985 
0.310576 0.0858133 0.946667 
0.304494 0.112212 0.945882 
0.338183 0.150382 0.928987 
0.336971 0.175051 0.925099 
0.376824 0.21519 0.900942 
0.373733 0.233128 0.897761 
0.372114 -0.272572 0.887263 
0.342095 -0.236822 0.909333 
0.353417 -0.216359 0.910102 
0.321076 -0.184289 0.92895 
0.32841 -0.164959 0.930019 
0.295599 -0.136871 0.945456 
0.303464 -0.1191 0.94537 
0.313564 -0.102464 0.944022 
0.291869 -0.0808523 0.953035 
0.307115 -0.0661642 0.949369 
0.284548 -0.0462294 0.957546 
0.300593 -0.0307709 0.953256 
0.277657 -0.0104078 0.960624 
0.292355 0.00853687 0.956272 
0.272764 0.0305544 0.961596 
0.288302 0.0554098 0.955935 
0.276972 0.0796031 0.957575 
0.270767 0.103339 0.957082 
0.30153 0.137077 0.943552 
0.298732 0.15923 0.940959 
0.334473 0.195681 0.921866 
0.328629 0.212589 0.920222 
0.36547 0.247149 0.897413 
0.340651 -0.315559 0.885652 
0.356681 -0.294363 0.886639 
0.329027 -0.256853 0.908718 
0.301464 -0.222802 0.927081 
0.312197 -0.203651 0.927933 
0.282888 -0.173226 0.943381 
0.289801 -0.15473 0.944497 
0.260124 -0.128081 0.957043 
0.266897 -0.111753 0.957224 
0.276508 -0.095751 0.95623 
0.253764 -0.0750374 0.964351 
0.267343 -0.0606359 0.961692 
0.245913 -0.0417282 0.968393 
0.260871 -0.0267422 0.965003 
0.240393 -0.0078696 0.970644 
0.255559 0.00996071 0.966742 
0.238601 0.0298957 0.970657 
0.255644 0.0525313 0.965343 
0.245488 0.0741828 0.966557 
0.238821 0.0949518 0.96641 
0.266831 0.125203 0.955576 
0.262964 0.145577 0.95376 
0.294261 0.178261 0.938953 
0.286303 0.194694 0.93815 
0.317913 0.226792 0.920596 
0.351004 0.25957 0.899677 
0.330794 0.272537 0.903493 
0.323785 -0.33665 0.884212 
0.303915 -0.297411 0.905087 
0.31483 -0.276056 0.908116 
0.289012 -0.241046 0.926482 
0.264778 -0.20994 0.941179 
0.274671 -0.191544 0.942267 
0.248559 -0.162711 0.954853 
0.254573 -0.145276 0.956079 
0.227342 -0.120045 0.966388 
0.233784 -0.104444 0.966662 
0.24216 -0.0894474 0.966105 
0.220228 -0.0696408 0.972959 
0.231952 -0.0558289 0.971124 
0.21214 -0.0380189 0.976499 
0.225695 -0.0236098 0.973912 
0.207654 -0.00616903 0.978183 
0.222294 0.0105891 0.974922 
0.207688 0.0286112 0.977777 
0.224964 0.0495026 0.973109 
0.215677 0.0686959 0.974045 
0.209305 0.0875874 0.97392 
0.234736 0.114963 0.965237 
0.22995 0.133782 0.963963 
0.256988 0.163562 0.952473 
0.24783 0.180115 0.951913 
0.273833 0.20909 0.938774 
0.302194 0.239982 0.922544 
0.286695 0.256468 0.923055 
0.304836 0.288587 0.90763 
0.307144 -0.355715 0.882683 
0.288132 -0.315708 0.904051 
0.269861 -0.279082 0.921568 
0.275735 -0.258573 0.925802 
0.252791 -0.228039 0.940263 
0.232736 -0.198239 0.952121 
0.241145 -0.180115 0.953629 
0.217502 -0.152803 0.964025 
0.222989 -0.136085 0.965275 
0.198131 -0.112287 0.973723 
0.203644 -0.0976532 0.974163 
0.210864 -0.0835674 0.973937 
0.190267 -0.0647345 0.979596 
0.200346 -0.0516042 0.978365 
0.1825 -0.0348692 0.982587 
0.194645 -0.0211501 0.980646 
0.178783 -0.00501818 0.983876 
0.192482 0.0107324 0.981242 
0.17984 0.0270645 0.983323 
0.196551 0.0463694 0.979397 
0.188215 0.0636442 0.980064 
0.182086 0.080821 0.979955 
0.204991 0.105797 0.973029 
0.199924 0.123677 0.971974 
0.223375 0.151138 0.962944 
0.214396 0.168379 0.962124 
0.23429 0.196072 0.952189 
0.257581 0.223262 0.94011 
0.247345 0.241498 0.938349 
0.262409 0.273169 0.925484 
0.276273 0.307642 0.910511 
0.291267 -0.371152 0.881708 
0.270328 -0.326783 0.905613 
0.251322 -0.285518 0.924833 
0.240829 -0.248932 0.938101 
0.223675 -0.216983 0.950204 
0.204621 -0.186968 0.960819 
0.211098 -0.169364 0.96268 
0.189657 -0.143233 0.971347 
0.194374 -0.127594 0.972594 
0.171648 -0.105109 0.979535 
0.176328 -0.0912631 0.980092 
0.182695 -0.0779513 0.980075 
0.163681 -0.0603788 0.984664 
0.17249 -0.0478584 0.983848 
0.156416 -0.0322157 0.987166 
0.167345 -0.0191909 0.985712 
0.153285 -0.00422215 0.988173 
0.165891 0.0105171 0.986088 
0.154791 0.0255348 0.987617 
0.170475 0.0431914 0.984415 
0.162953 0.0589719 0.98487 
0.15734 0.0748708 0.984702 
0.178028 0.0978501 0.979148 
0.172701 0.114666 0.978277 
0.193148 0.140563 0.971049 
0.185328 0.158224 0.969855 
0.202895 0.186355 0.961304 
0.217964 0.215615 0.951841 
0.223045 0.249549 0.942325 
0.235775 0.287182 0.928405 
0.248533 0.327981 0.911405 
0.274654 -0.383446 0.881779 
0.2549 -0.339465 0.905422 
0.236348 -0.298333 0.924736 
0.221623 -0.261145 0.939514 
0.209843 -0.231356 0.949969 
0.194153 -0.201397 0.960075 
0.177622 -0.173668 0.968654 
0.183734 -0.158546 0.970106 
0.164097 -0.134072 0.977291 
0.168601 -0.119524 0.978411 
0.147917 -0.099101 0.984022 
0.151893 -0.0857087 0.984674 
0.157393 -0.0730378 0.984831 
0.140093 -0.056458 0.988527 
0.147899 -0.0445915 0.987997 
0.133519 -0.0298921 0.990595 
0.143365 -0.0176103 0.989513 
0.130843 -0.00373777 0.991396 
0.142298 0.0101178 0.989772 
0.132388 0.0239959 0.990907 
0.146827 0.0404298 0.988336 
0.139982 0.0551426 0.988617 
0.134904 0.0702599 0.988365 
0.15338 0.0907942 0.983987 
0.147907 0.106611 0.983238 
0.165933 0.130773 0.977428 
0.158245 0.14674 0.976435 
0.172476 0.173435 0.969625 
0.18518 0.201673 0.961788 
0.192825 0.230186 0.953852 
0.201192 0.265925 0.942765 
0.211722 0.305597 0.928323 
0.221424 0.349163 0.910525 
0.256654 -0.392369 0.883275 
0.238057 -0.349149 0.906324 
0.220527 -0.308742 0.925227 
0.20525 -0.272016 0.940149 
0.192057 -0.239889 0.951613 
0.180034 -0.211661 0.960618 
0.166356 -0.184763 0.968601 
0.15236 -0.159851 0.975312 
0.157632 -0.147153 0.976472 
0.140345 -0.127064 0.981915 
0.145128 -0.113058 0.982932 
0.126994 -0.0929737 0.987537 
0.129927 -0.0804039 0.988258 
0.134936 -0.0684702 0.988486 
0.11932 -0.0527167 0.991455 
0.12626 -0.0415749 0.991126 
0.113296 -0.0278763 0.99317 
0.122224 -0.0162933 0.992369 
0.110961 -0.00332848 0.993819 
0.121398 0.00957565 0.992558 
0.112525 0.0223817 0.993397 
0.125629 0.0378046 0.991357 
0.119469 0.0515289 0.9915 
0.115107 0.0658484 0.991168 
0.130973 0.0857991 0.987666 
0.124922 0.101405 0.986971 
0.140341 0.121043 0.982676 
0.133685 0.135118 0.98177 
0.144991 0.159618 0.976473 
0.155458 0.185937 0.970186 
0.163489 0.213696 0.963123 
0.171228 0.245609 0.954126 
0.179342 0.282597 0.942324 
0.187962 0.32394 0.927218 
0.195765 0.369715 0.908288 
0.236542 -0.398312 0.886225 
0.219361 -0.35575 0.908473 
0.202879 -0.316092 0.926783 
0.187994 -0.279627 0.941524 
0.174648 -0.246779 0.953204 
0.162698 -0.217227 0.962467 
0.151105 -0.19033 0.970022 
0.139354 -0.164716 0.976447 
0.13245 -0.140335 0.981205 
0.120635 -0.119381 0.985492 
0.124372 -0.106006 0.986557 
0.108203 -0.0869583 0.990318 
0.110429 -0.0749515 0.991054 
0.114784 -0.0639605 0.991329 
0.100649 -0.0496996 0.99368 
0.107064 -0.0390362 0.993486 
0.0955283 -0.0262195 0.995081 
0.103628 -0.0151997 0.9945 
0.0934902 -0.00300132 0.995616 
0.102846 0.0091684 0.994655 
0.0946741 0.0213987 0.995278 
0.106718 0.0352928 0.993663 
0.100986 0.0480989 0.993724 
0.0974342 0.0614305 0.993344 
0.111243 0.0803379 0.990541 
0.10595 0.0952735 0.989797 
0.115731 0.116571 0.986416 
0.119776 0.1422 0.982565 
0.128229 0.168167 0.977383 
0.135943 0.19547 0.971242 
0.143062 0.225775 0.963618 
0.150337 0.259782 0.953893 
0.157638 0.298277 0.941372 
0.165095 0.341029 0.925442 
0.171628 0.388698 0.905239 
0.213962 -0.402003 0.890289 
0.198738 -0.359967 0.911552 
0.183606 -0.320903 0.929145 
0.16971 -0.284836 0.943434 
0.157348 -0.252052 0.954836 
0.145901 -0.222213 0.96402 
0.135596 -0.195266 0.971331 
0.125778 -0.170564 0.977286 
0.1186 -0.147663 0.981901 
0.110826 -0.128598 0.985485 
0.101559 -0.11042 0.988683 
0.105385 -0.0992923 0.989462 
0.0921052 -0.0840062 0.992199 
0.0921449 -0.0716948 0.993161 
0.0967332 -0.0606209 0.993463 
0.0843551 -0.0471672 0.995319 
0.0901839 -0.0368883 0.995242 
0.0798731 -0.0247744 0.996497 
0.0872773 -0.0143224 0.996081 
0.0781677 -0.00289915 0.996936 
0.08655 0.00875579 0.996209 
0.0790974 0.02025 0.996661 
0.089615 0.033825 0.995402 
0.0844315 0.0462466 0.995356 
0.0813071 0.060138 0.994873 
0.093343 0.0750614 0.992801 
0.0881611 0.0871313 0.992288 
0.0955953 0.106574 0.989699 
0.101205 0.126722 0.986762 
0.105417 0.151017 0.982894 
0.111712 0.176993 0.977852 
0.117964 0.205378 0.971547 
0.124205 0.237196 0.963489 
0.130498 0.272644 0.953224 
0.136978 0.312323 0.940049 
0.143514 0.356368 0.923258 
0.148972 0.405563 0.901846 
0.188911 -0.404378 0.894869 
0.176298 -0.362754 0.915057 
0.162448 -0.324004 0.932004 
0.150296 -0.288462 0.945622 
0.138648 -0.255687 0.956766 
0.128622 -0.22592 0.965617 
0.119041 -0.198816 0.97278 
0.110581 -0.174235 0.978475 
0.10392 -0.151786 0.982935 
0.0965907 -0.131989 0.986534 
0.0900167 -0.113733 0.989425 
0.0867316 -0.0959669 0.991599 
0.0775225 -0.0801054 0.993767 
0.0767513 -0.0677262 0.994747 
0.0805989 -0.0576228 0.99508 
0.0699399 -0.0445484 0.996556 
0.0752633 -0.0349011 0.996553 
0.0659936 -0.0233822 0.997546 
0.0727706 -0.0135527 0.997257 
0.064468 -0.00281826 0.997916 
0.0721049 0.00810681 0.997364 
0.0653935 0.0187154 0.997684 
0.0747574 0.0316698 0.996699 
0.0694162 0.0438478 0.996624 
0.068551 0.0555846 0.996098 
0.0751627 0.0733302 0.994471 
0.0770906 0.0932235 0.992656 
0.0818936 0.112786 0.990239 
0.0864647 0.134174 0.987178 
0.0902647 0.15851 0.983223 
0.0953142 0.18508 0.97809 
0.10062 0.214697 0.971484 
0.105914 0.247447 0.963095 
0.111534 0.284271 0.952234 
0.117174 0.324742 0.938516 
0.123222 0.369818 0.920897 
0.127606 0.420231 0.8984 
0.161519 -0.406203 0.899395 
0.152038 -0.364876 0.918559 
0.140575 -0.326977 0.934518 
0.129204 -0.291302 0.947866 
0.120031 -0.258874 0.958424 
0.110652 -0.228673 0.967194 
0.102603 -0.201399 0.974121 
0.095068 -0.176479 0.979703 
0.0889105 -0.154097 0.984047 
0.0828445 -0.134134 0.987494 
0.0767846 -0.116311 0.99024 
0.0738219 -0.100879 0.992156 
0.0702939 -0.0871668 0.993711 
0.0639799 -0.0740422 0.995201 
0.0620097 -0.0633228 0.996065 
0.0661959 -0.0542041 0.996333 
0.0568704 -0.0422495 0.997487 
0.0618939 -0.0330374 0.997536 
0.0535195 -0.0225166 0.998313 
0.0597409 -0.0129095 0.99813 
0.0522004 -0.00259265 0.998633 
0.0590693 0.00759009 0.998225 
0.0529442 0.017941 0.998436 
0.0611682 0.0297381 0.997684 
0.0575775 0.0393643 0.997565 
0.0550823 0.0522702 0.997113 
0.0601663 0.0649918 0.99607 
0.0636488 0.0804523 0.994724 
0.064926 0.0981733 0.993049 
0.0687292 0.117834 0.990652 
0.0723345 0.139666 0.987553 
0.075751 0.164583 0.98345 
0.0799945 0.192275 0.978075 
0.084331 0.222871 0.971194 
0.0890038 0.257284 0.962228 
0.0935238 0.294599 0.951034 
0.0987314 0.336516 0.936488 
0.104115 0.381478 0.918496 
0.107353 0.432615 0.895165 
0.132217 -0.408087 0.903318 
0.127628 -0.368207 0.920942 
0.116245 -0.33088 0.936486 
0.108669 -0.296391 0.948864 
0.10007 -0.263708 0.959398 
0.0929729 -0.233558 0.967888 
0.0860776 -0.205823 0.974796 
0.0796723 -0.180459 0.98035 
0.0743636 -0.157509 0.984714 
0.0691972 -0.136821 0.988176 
0.0638631 -0.118283 0.990924 
0.0610428 -0.10094 0.993018 
0.0569902 -0.0860962 0.994655 
0.0527802 -0.0721339 0.995997 
0.0496327 -0.0601656 0.996954 
0.0524768 -0.050928 0.997323 
0.0447777 -0.0411172 0.99815 
0.0496885 -0.0318548 0.998257 
0.0425076 -0.0215058 0.998865 
0.0482651 -0.0123223 0.998759 
0.0414329 -0.00228008 0.999139 
0.047347 0.00778022 0.998848 
0.0417378 0.0183358 0.99896 
0.0482709 0.0284676 0.998429 
0.0447906 0.0392262 0.998226 
0.0464047 0.0523138 0.997552 
0.0487579 0.0677965 0.996507 
0.0516885 0.083717 0.995148 
0.0532445 0.102729 0.993283 
0.0561664 0.123389 0.990768 
0.0591005 0.14654 0.987438 
0.0620015 0.172512 0.983054 
0.0654366 0.201402 0.977321 
0.0690209 0.233337 0.969943 
0.0726284 0.268346 0.960581 
0.076771 0.307078 0.948583 
0.0806531 0.347988 0.934023 
0.0863591 0.393015 0.915468 
0.0879163 0.442826 0.892287 
0.0999901 -0.410648 0.906295 
0.100634 -0.374851 0.921607 
0.0934606 -0.339654 0.935895 
0.0858332 -0.304665 0.948584 
0.0803897 -0.271706 0.959017 
0.0748555 -0.240777 0.967689 
0.0694456 -0.212271 0.97474 
0.0645299 -0.186243 0.980382 
0.0601173 -0.162673 0.984847 
0.0560101 -0.141565 0.988343 
0.0519471 -0.122505 0.991108 
0.0489402 -0.105319 0.993233 
0.0463286 -0.0899325 0.99487 
0.0431201 -0.0760969 0.996168 
0.0399963 -0.0628413 0.997222 
0.0395913 -0.0503898 0.997945 
0.0346792 -0.0390283 0.998636 
0.0388248 -0.0303339 0.998786 
0.032429 -0.020167 0.999271 
0.0379126 -0.0118001 0.999211 
0.0317165 -0.00284227 0.999493 
0.0370378 0.00732868 0.999287 
0.0323661 0.0171892 0.999328 
0.0364448 0.0291785 0.99891 
0.0357 0.0430407 0.998435 
0.0367203 0.0579526 0.997644 
0.0391082 0.0729948 0.996565 
0.0408486 0.0900896 0.995096 
0.0422497 0.109526 0.993086 
0.0445209 0.130938 0.99039 
0.0467441 0.155116 0.98679 
0.049085 0.182267 0.982023 
0.0516793 0.212418 0.975811 
0.0544638 0.245848 0.967777 
0.0573032 0.28243 0.957575 
0.0602349 0.321738 0.944911 
0.0642658 0.364132 0.929128 
0.06875 0.406143 0.91122 
0.0680588 0.450977 0.889937 
0.0713294 -0.413477 0.907716 
0.0723191 -0.366262 0.927697 
0.0644781 -0.323494 0.944031 
0.0606765 -0.285884 0.956341 
0.0561968 -0.25182 0.966141 
0.0526053 -0.221257 0.973796 
0.0489431 -0.193658 0.979847 
0.045604 -0.168909 0.984576 
0.042588 -0.146739 0.988258 
0.0394998 -0.1271 0.991103 
0.0371287 -0.109309 0.993314 
0.0350908 -0.09371 0.994981 
0.0328543 -0.0798217 0.996268 
0.0308541 -0.0672235 0.997261 
0.0299869 -0.0554295 0.998012 
0.0280593 -0.0454864 0.998571 
0.0246348 -0.0356941 0.999059 
0.0289022 -0.0284494 0.999177 
0.0228924 -0.0203919 0.99953 
0.0278559 -0.0113378 0.999548 
0.0223652 -0.00177384 0.999748 
0.0276831 0.00623978 0.999597 
0.023193 0.0141449 0.999631 
0.0258627 0.0246478 0.999362 
0.026977 0.0353498 0.999011 
0.0268658 0.0481201 0.99848 
0.0277131 0.0624292 0.997665 
0.0291242 0.078087 0.996521 
0.0303941 0.0959346 0.994923 
0.0315397 0.116134 0.992733 
0.0331041 0.138938 0.989748 
0.0347278 0.16453 0.98576 
0.0364247 0.193411 0.980442 
0.0383399 0.225737 0.973433 
0.0402922 0.261777 0.964287 
0.0427767 0.302375 0.952229 
0.0452862 0.347202 0.936696 
0.0504271 0.398705 0.915692 
0.0508 0.455916 0.888572 
0.0409857 -0.417106 0.907933 
0.0453097 -0.378196 0.924616 
0.042614 -0.339958 0.939475 
0.0394425 -0.301485 0.952655 
0.0371581 -0.265676 0.963346 
0.0352532 -0.233262 0.971775 
0.0329838 -0.20404 0.978407 
0.0309616 -0.177986 0.983546 
0.0289958 -0.154804 0.98752 
0.0270233 -0.134258 0.990578 
0.0253552 -0.115922 0.992935 
0.0239166 -0.0996962 0.99473 
0.0225084 -0.0852893 0.996102 
0.0211134 -0.0723265 0.997158 
0.0203567 -0.0603203 0.997971 
0.0190508 -0.0497587 0.99858 
0.0174765 -0.0397388 0.999057 
0.0179985 -0.0288515 0.999422 
0.0147361 -0.0196168 0.999699 
0.0195815 -0.0111904 0.999746 
0.0144234 -0.00213796 0.999894 
0.0171928 0.00734566 0.999825 
0.0162762 0.0191829 0.999684 
0.0173607 0.0298549 0.999403 
0.0178971 0.0416415 0.998972 
0.0179886 0.0549765 0.998326 
0.0187243 0.0699114 0.997377 
0.0196347 0.0863431 0.996072 
0.0203151 0.104929 0.994272 
0.0210543 0.126136 0.991789 
0.0220338 0.149936 0.98845 
0.022987 0.176961 0.983949 
0.0240071 0.207402 0.977961 
0.0252301 0.241726 0.970017 
0.026451 0.279943 0.959652 
0.0281176 0.322339 0.946206 
0.0307839 0.368162 0.929252 
0.0335194 0.413431 0.909918 
0.0322123 0.459339 0.887677 
0.0147672 -0.420692 0.907083 
0.0188866 -0.369783 0.928926 
0.0175539 -0.324439 0.945744 
0.0175242 -0.284159 0.958617 
0.0169682 -0.248438 0.968499 
0.0163439 -0.216825 0.976074 
0.0156178 -0.188821 0.981887 
0.0147657 -0.16401 0.986348 
0.0139025 -0.142104 0.989754 
0.0130479 -0.122651 0.992364 
0.012339 -0.105464 0.994347 
0.0116658 -0.0902711 0.995849 
0.0109405 -0.0766812 0.996996 
0.0105612 -0.0644682 0.997864 
0.0100817 -0.0535165 0.998516 
0.00894637 -0.0434533 0.999015 
0.00957132 -0.0339663 0.999377 
0.00882855 -0.0254258 0.999638 
0.00595056 -0.0164763 0.999847 
0.011273 -0.0107098 0.999879 
0.00593315 -0.00521779 0.999969 
0.0086595 0.00428028 0.999953 
0.0090318 0.0131453 0.999873 
0.00836808 0.0235413 0.999688 
0.0090235 0.0345885 0.999361 
0.00909281 0.0467942 0.998863 
0.00921503 0.0607387 0.998111 
0.00955449 0.0763043 0.997039 
0.00988586 0.0937676 0.995545 
0.0101332 0.113615 0.993473 
0.0104005 0.136176 0.99063 
0.0107087 0.161685 0.986784 
0.0110347 0.190597 0.981606 
0.0113704 0.22329 0.974686 
0.01182 0.260243 0.965471 
0.0125302 0.302079 0.953201 
0.0133151 0.349141 0.936976 
0.0157266 0.402248 0.915396 
0.0153238 0.46089 0.887325 
-0.0103066 -0.424367 0.905432 
-0.00818941 -0.384241 0.923196 
-0.00527174 -0.343909 0.938988 
-0.00360613 -0.303345 0.952874 
-0.00229292 -0.265827 0.964018 
-0.00124515 -0.232225 0.972661 
-0.000641155 -0.202427 0.979297 
-0.000236411 -0.176082 0.984375 
3.75968e-05 -0.152863 0.988247 
0.000173088 -0.132312 0.991208 
0.00025582 -0.114192 0.993459 
0.000369743 -0.0981822 0.995168 
0.000413232 -0.0839226 0.996472 
0.000478903 -0.0710555 0.997472 
0.00049808 -0.0595931 0.998223 
0.000417049 -0.0492703 0.998785 
0.000529037 -0.0390643 0.999237 
0.000437495 -0.0304713 0.999536 
0.000547368 -0.0221242 0.999755 
0.000565161 -0.0107324 0.999942 
0.00056454 0.000905673 0.999999 
0.000643404 0.0097216 0.999953 
0.000533978 0.0190544 0.999818 
0.000562663 0.030217 0.999543 
0.000430385 0.0418332 0.999125 
0.000351934 0.0547858 0.998498 
0.000268037 0.0695081 0.997581 
0.000125979 0.085932 0.996301 
-2.59938e-05 0.104398 0.994536 
-0.000302299 0.125423 0.992103 
-0.000617832 0.149261 0.988798 
-0.000970675 0.176208 0.984352 
-0.00137357 0.20679 0.978384 
-0.00173389 0.241329 0.970442 
-0.00213001 0.2802 0.959939 
-0.00230343 0.323448 0.946243 
-0.00218803 0.369978 0.929038 
-0.00245378 0.415972 0.909374 
-0.00166411 0.461245 0.887271 
-0.0345233 -0.426872 0.903653 
-0.0313734 -0.374706 0.926613 
-0.0265057 -0.327774 0.944384 
-0.0226336 -0.286352 0.957857 
-0.0200605 -0.249856 0.968075 
-0.0179478 -0.217666 0.975858 
-0.0162294 -0.189258 0.981793 
-0.0147996 -0.164155 0.986324 
-0.0135671 -0.142036 0.989769 
-0.0125479 -0.122448 0.992396 
-0.0116964 -0.105172 0.994385 
-0.0108342 -0.0900008 0.995883 
-0.0100357 -0.0763243 0.997033 
-0.00956253 -0.0640977 0.997898 
-0.00917547 -0.0531704 0.998543 
-0.00816319 -0.0432497 0.999031 
-0.00862881 -0.0337182 0.999394 
-0.00798129 -0.0253649 0.999646 
-0.00492195 -0.0161853 0.999857 
-0.0102182 -0.010859 0.999889 
-0.00474929 -0.00494509 0.999976 
-0.00737765 0.00426931 0.999964 
-0.00791902 0.0132887 0.99988 
-0.00717031 0.0236289 0.999695 
-0.00801731 0.0348117 0.999362 
-0.00833935 0.0470536 0.998858 
-0.00857633 0.0610411 0.998098 
-0.009139 0.0765969 0.99702 
-0.00973136 0.0941768 0.995508 
-0.0104005 0.114151 0.993409 
-0.0112737 0.136776 0.990538 
-0.0122842 0.162361 0.986655 
-0.0133588 0.191316 0.981437 
-0.0145549 0.224023 0.974475 
-0.0157956 0.260898 0.965237 