# vtk DataFile Version 3.0 
Exported using Morpho https://github.com/Morpho-lang/morpho 
ASCII 
DATASET UNSTRUCTURED_GRID 

POINTS 1245 float 
-0.303845 -0.952721 0 
-0.250833 -0.96803 0 
-0.195084 -0.980787 0 
-0.146308 -0.989239 0 
-0.0940719 -0.995565 0 
-0.0475118 -0.998871 0 
-0.000246339 -1 0 
0.0470875 -0.998891 0 
0.0937543 -0.995595 0 
0.146139 -0.989264 0 
0.195062 -0.980791 0 
0.250843 -0.968028 0 
0.303953 -0.952687 0 
-0.409153 -0.912466 0 
-0.356519 -0.934288 0 
-0.308871 -0.898929 0 
-0.258282 -0.916037 0 
-0.207345 -0.934859 0 
-0.154868 -0.930629 0 
-0.104343 -0.948989 0 
-0.0520099 -0.939193 0 
-8.5762e-05 -0.954582 0 
0.0518744 -0.939288 0 
0.104354 -0.949042 0 
0.154696 -0.9306 0 
0.207366 -0.934975 0 
0.258274 -0.916081 0 
0.308979 -0.898924 0 
0.356593 -0.93426 0 
0.409236 -0.912429 0 
-0.513788 -0.857917 0 
-0.461695 -0.887039 0 
-0.411157 -0.857936 0 
-0.359855 -0.879963 0 
-0.306888 -0.847481 0 
-0.254732 -0.866979 0 
-0.201991 -0.889059 0 
-0.149956 -0.874108 0 
-0.100608 -0.900088 0 
-0.0497575 -0.880388 0 
2.4595e-05 -0.904789 0 
0.0496869 -0.8804 0 
0.100612 -0.900177 0 
0.149872 -0.874171 0 
0.202071 -0.889165 0 
0.254695 -0.867031 0 
0.306946 -0.847482 0 
0.359894 -0.879943 0 
0.411236 -0.857929 0 
0.461748 -0.887011 0 
0.513842 -0.857885 0 
-0.564741 -0.825268 0 
-0.512908 -0.802945 0 
-0.462372 -0.832348 0 
-0.410124 -0.804631 0 
-0.358606 -0.827415 0 
-0.305781 -0.795641 0 
-0.25358 -0.816639 0 
-0.200756 -0.839997 0 
-0.149043 -0.818944 0 
-0.0987265 -0.846667 0 
-0.0490473 -0.822548 0 
5.00659e-05 -0.849932 0 
0.0490834 -0.822542 0 
0.0987838 -0.846676 0 
0.148997 -0.818924 0 
0.200826 -0.840131 0 
0.253508 -0.816728 0 
0.305831 -0.795701 0 
0.358581 -0.827419 0 
0.410181 -0.804654 0 
0.462414 -0.83234 0 
0.512965 -0.802929 0 
0.564777 -0.825243 0 
-0.660798 -0.750564 0 
-0.614015 -0.789295 0 
-0.561786 -0.769772 0 
-0.510673 -0.747856 0 
-0.460836 -0.778365 0 
-0.408794 -0.751554 0 
-0.357337 -0.774971 0 
-0.304815 -0.743684 0 
-0.252907 -0.765535 0 
-0.200631 -0.789263 0 
-0.149244 -0.764328 0 
-0.0986912 -0.791935 0 
-0.0492815 -0.765764 0 
4.16586e-05 -0.79382 0 
0.0492411 -0.765708 0 
0.0987508 -0.791951 0 
0.149196 -0.764326 0 
0.200666 -0.789356 0 
0.252841 -0.765599 0 
0.304862 -0.743741 0 
0.357323 -0.775038 0 
0.408863 -0.751626 0 
0.460863 -0.778382 0 
0.510716 -0.747859 0 
0.561819 -0.769761 0 
0.614041 -0.789274 0 
0.660811 -0.750552 0 
-0.707107 -0.707107 0 
-0.654819 -0.699058 0 
-0.60813 -0.73348 0 
-0.558104 -0.71337 0 
-0.509495 -0.692659 0 
-0.45935 -0.724356 0 
-0.407328 -0.698865 0 
-0.355968 -0.722823 0 
-0.303722 -0.691387 0 
-0.252254 -0.71362 0 
-0.20067 -0.737336 0 
-0.149608 -0.710068 0 
-0.0991558 -0.737129 0 
-0.0495872 -0.709825 0 
-2.23646e-05 -0.737917 0 
0.0494408 -0.709766 0 
0.0991291 -0.737116 0 
0.149502 -0.710042 0 
0.200696 -0.73743 0 
0.252186 -0.713735 0 
0.303753 -0.691518 0 
0.355952 -0.722893 0 
0.407371 -0.698945 0 
0.459374 -0.724407 0 
0.509524 -0.692668 0 
0.558131 -0.713361 0 
0.608151 -0.733462 0 
0.654824 -0.699048 0 
0.707107 -0.707107 0 
-0.750564 -0.660798 0 
-0.699058 -0.654819 0 
-0.647692 -0.647692 0 
-0.603437 -0.675718 0 
-0.55905 -0.655305 0 
-0.508501 -0.639581 0 
-0.457509 -0.671321 0 
-0.405555 -0.646545 0 
-0.354417 -0.670703 0 
-0.302427 -0.639219 0 
-0.251503 -0.661417 0 
-0.20061 -0.684911 0 
-0.149717 -0.655943 0 
-0.0995004 -0.682466 0 
-0.0498216 -0.654561 0 
-5.02113e-05 -0.682664 0 
0.0496787 -0.654499 0 
0.0994374 -0.682501 0 
0.149603 -0.655909 0 
0.200573 -0.684972 0 
0.251388 -0.661524 0 
0.302407 -0.639359 0 
0.354397 -0.670836 0 
0.405575 -0.646641 0 
0.457525 -0.67138 0 
0.508497 -0.639623 0 
0.559063 -0.655324 0 
0.603436 -0.675715 0 
0.64769 -0.64769 0 
0.699048 -0.654824 0 
0.750552 -0.660811 0 
-0.789295 -0.614015 0 
-0.73348 -0.60813 0 
-0.675718 -0.603437 0 
-0.613088 -0.613088 0 
-0.55962 -0.604068 0 
-0.506189 -0.588854 0 
-0.455505 -0.618874 0 
-0.403019 -0.594688 0 
-0.352514 -0.618952 0 
-0.300977 -0.586897 0 
-0.250543 -0.608767 0 
-0.200257 -0.632053 0 
-0.150049 -0.601979 0 
-0.0998281 -0.628222 0 
-0.0500377 -0.599914 0 
-3.12334e-05 -0.628076 0 
0.0498927 -0.599835 0 
0.0997818 -0.628253 0 
0.149924 -0.601867 0 
0.200214 -0.632118 0 
0.250423 -0.608915 0 
0.30086 -0.587085 0 
0.352457 -0.619096 0 
0.402948 -0.594743 0 
0.455483 -0.618952 0 
0.506147 -0.588901 0 
0.55964 -0.604067 0 
0.613069 -0.613069 0 
0.675715 -0.603436 0 
0.733462 -0.608151 0 
0.789274 -0.614041 0 
-0.825268 -0.564741 0 
-0.769772 -0.561786 0 
-0.71337 -0.558104 0 
-0.655305 -0.55905 0 
-0.604068 -0.55962 0 
-0.551031 -0.551031 0 
-0.497922 -0.537596 0 
-0.451508 -0.567021 0 
-0.399773 -0.542431 0 
-0.350494 -0.567003 0 
-0.301574 -0.534146 0 
-0.250874 -0.555692 0 
-0.200542 -0.579013 0 
-0.150324 -0.548268 0 
-0.100169 -0.57443 0 
-0.0500152 -0.545912 0 
-3.29278e-05 -0.574268 0 
0.0499208 -0.545788 0 
0.100058 -0.574485 0 
0.150038 -0.548073 0 
0.200377 -0.579041 0 
0.250556 -0.55585 0 
0.301273 -0.534348 0 
0.350318 -0.567174 0 
0.399615 -0.542384 0 
0.451404 -0.5671 0 
0.497945 -0.537702 0 
0.551073 -0.551073 0 
0.604067 -0.55964 0 
0.655324 -0.559063 0 
0.713361 -0.558131 0 
0.769761 -0.561819 0 
0.825243 -0.564777 0 
-0.857917 -0.513788 0 
-0.802945 -0.512908 0 
-0.747856 -0.510673 0 
-0.692659 -0.509495 0 
-0.639581 -0.508501 0 
-0.588854 -0.506189 0 
-0.537596 -0.497922 0 
-0.486157 -0.486157 0 
-0.444928 -0.512952 0 
-0.401787 -0.486784 0 
-0.351685 -0.513639 0 
-0.299695 -0.48291 0 
-0.250032 -0.503 0 
-0.200501 -0.526165 0 
-0.149489 -0.495195 0 
-0.0999281 -0.521367 0 
-0.0499712 -0.492294 0 
4.64723e-05 -0.520999 0 
0.050147 -0.492108 0 
0.099934 -0.52133 0 
0.14957 -0.494692 0 
0.200133 -0.526255 0 
0.249839 -0.503309 0 
0.299839 -0.483005 0 
0.351514 -0.513798 0 
0.401881 -0.486608 0 
0.444935 -0.513054 0 
0.486228 -0.486228 0 
0.537702 -0.497945 0 
0.588901 -0.506147 0 
0.639623 -0.508497 0 
0.692668 -0.509524 0 
0.747859 -0.510716 0 
0.802929 -0.512965 0 
0.857885 -0.513842 0 
-0.887039 -0.461695 0 
-0.832348 -0.462372 0 
-0.778365 -0.460836 0 
-0.724356 -0.45935 0 
-0.671321 -0.457509 0 
-0.618874 -0.455505 0 
-0.567021 -0.451508 0 
-0.512952 -0.444928 0 
-0.450685 -0.450685 0 
-0.397667 -0.437543 0 
-0.348492 -0.462546 0 
-0.295416 -0.432968 0 
-0.247004 -0.450633 0 
-0.198702 -0.473818 0 
-0.150161 -0.441625 0 
-0.100085 -0.468395 0 
-0.0502271 -0.439281 0 
0.000144229 -0.468374 0 
0.0504178 -0.439106 0 
0.100428 -0.468348 0 
0.150697 -0.441105 0 
0.199103 -0.473881 0 
0.247983 -0.450921 0 
0.296569 -0.432268 0 
0.348831 -0.462562 0 
0.397506 -0.4368 0 
0.450637 -0.450637 0 
0.513054 -0.444935 0 
0.5671 -0.451404 0 
0.618952 -0.455483 0 
0.67138 -0.457525 0 
0.724407 -0.459374 0 
0.778382 -0.460863 0 
0.83234 -0.462414 0 
0.887011 -0.461748 0 
-0.912466 -0.409153 0 
-0.857936 -0.411157 0 
-0.804631 -0.410124 0 
-0.751554 -0.408794 0 
-0.698865 -0.407328 0 
-0.646545 -0.405555 0 
-0.594688 -0.403019 0 
-0.542431 -0.399773 0 
-0.486784 -0.401787 0 
-0.437543 -0.397667 0 
-0.387256 -0.387256 0 
-0.344215 -0.411459 0 
-0.30136 -0.381507 0 
-0.25021 -0.395692 0 
-0.200211 -0.419975 0 
-0.150955 -0.389014 0 
-0.100617 -0.416095 0 
-0.0503197 -0.386922 0 
-4.02994e-05 -0.416525 0 
0.05006 -0.386948 0 
0.100784 -0.416323 0 
0.150432 -0.388572 0 
0.200855 -0.420694 0 
0.25086 -0.396905 0 
0.301746 -0.379789 0 
0.344135 -0.410678 0 
0.385823 -0.385823 0 
0.4368 -0.397506 0 
0.486608 -0.401881 0 
0.542384 -0.399615 0 
0.594743 -0.402948 0 
0.646641 -0.405575 0 
0.698945 -0.407371 0 
0.751626 -0.408863 0 
0.804654 -0.410181 0 
0.857929 -0.411236 0 
0.912429 -0.409236 0 
-0.934288 -0.356519 0 
-0.879963 -0.359855 0 
-0.827415 -0.358606 0 
-0.774971 -0.357337 0 
-0.722823 -0.355968 0 
-0.670703 -0.354417 0 
-0.618952 -0.352514 0 
-0.567003 -0.350494 0 
-0.513639 -0.351685 0 
-0.462546 -0.348492 0 
-0.411459 -0.344215 0 
-0.351697 -0.351697 0 
-0.29839 -0.336232 0 
-0.249846 -0.342529 0 
-0.200971 -0.367271 0 
-0.149995 -0.337521 0 
-0.100435 -0.3646 0 
-0.0498692 -0.335025 0 
-6.88684e-05 -0.365025 0 
0.0495433 -0.334795 0 
0.0996798 -0.364834 0 
0.148162 -0.337172 0 
0.199644 -0.368939 0 
0.24763 -0.345582 0 
0.295348 -0.332889 0 
0.34978 -0.34978 0 
0.410678 -0.344135 0 
0.462562 -0.348831 0 
0.513798 -0.351514 0 
0.567174 -0.350318 0 
0.619096 -0.352457 0 
0.670836 -0.354397 0 
0.722893 -0.355952 0 
0.775038 -0.357323 0 
0.827419 -0.358581 0 
0.879943 -0.359894 0 
0.93426 -0.356593 0 
-0.952721 -0.303845 0 
-0.898929 -0.308871 0 
-0.847481 -0.306888 0 
-0.795641 -0.305781 0 
-0.743684 -0.304815 0 
-0.691387 -0.303722 0 
-0.639219 -0.302427 0 
-0.586897 -0.300977 0 
-0.534146 -0.301574 0 
-0.48291 -0.299695 0 
-0.432968 -0.295416 0 
-0.381507 -0.30136 0 
-0.336232 -0.29839 0 
-0.288184 -0.288184 0 
-0.242975 -0.290577 0 
-0.198059 -0.315051 0 
-0.148383 -0.285894 0 
-0.0994753 -0.313232 0 
-0.0507184 -0.283118 0 
-0.000202902 -0.313447 0 
0.0500077 -0.282824 0 
0.0988289 -0.312817 0 
0.148102 -0.28482 0 
0.195742 -0.317413 0 
0.240766 -0.295824 0 
0.285014 -0.285014 0 
0.332889 -0.295348 0 
0.379789 -0.301746 0 
0.432268 -0.296569 0 
0.483005 -0.299839 0 
0.534348 -0.301273 0 
0.587085 -0.30086 0 
0.639359 -0.302407 0 
0.691518 -0.303753 0 
0.743741 -0.304862 0 
0.795701 -0.305831 0 
0.847482 -0.306946 0 
0.898924 -0.308979 0 
0.952687 -0.303953 0 
-0.96803 -0.250833 0 
-0.916037 -0.258282 0 
-0.866979 -0.254732 0 
-0.816639 -0.25358 0 
-0.765535 -0.252907 0 
-0.71362 -0.252254 0 
-0.661417 -0.251503 0 
-0.608767 -0.250543 0 
-0.555692 -0.250874 0 
-0.503 -0.250032 0 
-0.450633 -0.247004 0 
-0.395692 -0.25021 0 
-0.342529 -0.249846 0 
-0.290577 -0.242975 0 
-0.239946 -0.239946 0 
-0.194478 -0.26004 0 
-0.151293 -0.23238 0 
-0.101048 -0.260904 0 
-0.0503938 -0.232537 0 
-0.000203281 -0.262984 0 
0.050638 -0.232316 0 
0.100942 -0.260855 0 
0.152412 -0.232597 0 
0.195768 -0.261421 0 
0.241873 -0.241873 0 
0.295824 -0.240766 0 
0.345582 -0.24763 0 
0.396905 -0.25086 0 
0.450921 -0.247983 0 
[...]
POINT_DATA 1245 
VECTORS vectors float
0.431311 -0.163898 0.887191 
0.437611 -0.142316 0.88783 
0.442294 -0.120238 0.888774 
0.444335 -0.101752 0.890063 
0.444302 -0.0821218 0.892105 
0.44185 -0.0645925 0.894761 
0.437262 -0.0462996 0.898142 
0.429349 -0.025844 0.902769 
0.420304 -0.00314519 0.907378 
0.409235 0.0263977 0.912047 
0.399527 0.0568004 0.91496 
0.390833 0.0945414 0.915594 
0.385792 0.130512 0.913308 
0.414367 -0.208184 0.88598 
0.423591 -0.185883 0.886577 
0.383647 -0.156989 0.910038 
0.390967 -0.137281 0.910109 
0.400006 -0.11918 0.908731 
0.389868 -0.0972111 0.915725 
0.400238 -0.0801913 0.912896 
0.385513 -0.0588121 0.920826 
0.393393 -0.0400527 0.918498 
0.374473 -0.0164428 0.927092 
0.378097 0.00736749 0.925737 
0.360233 0.0345079 0.932224 
0.36376 0.0650191 0.929221 
0.352654 0.0947965 0.93094 
0.347676 0.124513 0.92931 
0.383664 0.163804 0.908829 
0.3831 0.192858 0.903349 
0.390953 -0.253062 0.884938 
0.40354 -0.230605 0.885425 
0.368355 -0.197769 0.908406 
0.376673 -0.177061 0.909267 
0.341165 -0.147157 0.928413 
0.348181 -0.128628 0.928561 
0.359911 -0.110041 0.926475 
0.340256 -0.088402 0.936168 
0.356834 -0.0727059 0.931334 
0.334719 -0.0514138 0.940914 
0.350297 -0.0347238 0.935995 
0.326399 -0.0121738 0.945154 
0.338822 0.00876935 0.94081 
0.317865 0.0333767 0.947548 
0.329238 0.0600357 0.942337 
0.317846 0.0880497 0.944045 
0.311415 0.114349 0.943369 
0.344913 0.152108 0.926228 
0.342943 0.17695 0.922539 
0.381985 0.216672 0.89841 
0.378003 0.23551 0.895348 
0.376733 -0.275409 0.884433 
0.347032 -0.239522 0.906752 
0.358544 -0.218656 0.907544 
0.326519 -0.186462 0.926616 
0.334053 -0.166778 0.927682 
0.30143 -0.138522 0.943373 
0.309503 -0.12032 0.943256 
0.319632 -0.103324 0.941891 
0.29808 -0.0812931 0.951073 
0.313321 -0.0661401 0.947341 
0.290903 -0.0457768 0.955657 
0.30701 -0.0297825 0.95124 
0.284267 -0.00906674 0.958702 
0.29913 0.0103269 0.954157 
0.279652 0.0325394 0.95955 
0.295399 0.0576399 0.953634 
0.283896 0.0818689 0.955354 
0.277439 0.105776 0.954903 
0.30799 0.139327 0.941132 
0.304592 0.16178 0.938643 
0.339683 0.1981 0.919441 
0.333256 0.215789 0.91781 
0.369247 0.250656 0.89489 
0.345149 -0.318879 0.882717 
0.361243 -0.297517 0.883735 
0.333817 -0.259913 0.906097 
0.306479 -0.225742 0.924722 
0.317417 -0.206217 0.925592 
0.288333 -0.175629 0.941286 
0.295484 -0.156731 0.942404 
0.265964 -0.129849 0.955198 
0.272868 -0.113127 0.955377 
0.282622 -0.0966722 0.954347 
0.259949 -0.075591 0.962659 
0.273619 -0.0606953 0.959921 
0.252279 -0.0413742 0.96677 
0.267339 -0.0258927 0.963255 
0.246953 -0.00665087 0.969005 
0.262274 0.0116118 0.964924 
0.24533 0.0318313 0.968917 
0.262493 0.0547149 0.963382 
0.252193 0.0765973 0.964641 
0.245226 0.097606 0.96454 
0.273072 0.127853 0.95346 
0.268761 0.148625 0.951671 
0.299574 0.181341 0.936681 
0.291222 0.198454 0.935845 
0.322262 0.230854 0.918071 
0.354741 0.264139 0.896878 
0.334839 0.277858 0.900376 
0.328097 -0.34001 0.881332 
0.308379 -0.30089 0.902423 
0.319485 -0.279378 0.905471 
0.293837 -0.244313 0.924105 
0.269776 -0.213101 0.939047 
0.279899 -0.19433 0.940155 
0.253962 -0.165305 0.952983 
0.260181 -0.147474 0.954231 
0.233052 -0.12198 0.964784 
0.239699 -0.105923 0.965052 
0.248238 -0.0904635 0.964466 
0.226344 -0.0702756 0.971509 
0.238208 -0.0559695 0.9696 
0.218416 -0.0377535 0.975125 
0.232118 -0.0228549 0.972419 
0.214077 -0.00501911 0.976804 
0.228869 0.0121572 0.973381 
0.2142 0.0305315 0.976312 
0.231594 0.0517212 0.971437 
0.222113 0.0712238 0.972416 
0.215499 0.0904699 0.972304 
0.24082 0.117962 0.963375 
0.235655 0.137193 0.962104 
0.262363 0.167126 0.950387 
0.252897 0.184267 0.949784 
0.278566 0.21352 0.936381 
0.306552 0.244785 0.91984 
0.291198 0.261776 0.920151 
0.309335 0.294243 0.904286 
0.311072 -0.359087 0.879938 
0.292282 -0.3193 0.901454 
0.274224 -0.282768 0.919154 
0.280342 -0.262104 0.923423 
0.25752 -0.231528 0.938125 
0.237614 -0.201601 0.950209 
0.246295 -0.183102 0.951742 
0.222771 -0.155573 0.962377 
0.228513 -0.138426 0.963649 
0.203699 -0.114341 0.972334 
0.209418 -0.0992467 0.972776 
0.216811 -0.0846941 0.972533 
0.196223 -0.0654574 0.978372 
0.20647 -0.0518331 0.977079 
0.188601 -0.0346658 0.981442 
0.200913 -0.0204605 0.979395 
0.184996 -0.00390553 0.982731 
0.198856 0.01228 0.979952 
0.186099 0.0290115 0.982103 
0.20293 0.0486567 0.977984 
0.194402 0.0663019 0.978679 
0.188026 0.0838756 0.978576 
0.210885 0.109049 0.971409 
0.205508 0.127375 0.970331 
0.228752 0.155049 0.961058 
0.2195 0.172807 0.960186 
0.239181 0.200795 0.949986 
0.262288 0.228223 0.937614 
0.252047 0.246807 0.935713 
0.267111 0.278692 0.922487 
0.28108 0.313245 0.907123 
0.294653 -0.374626 0.87911 
0.274069 -0.330532 0.903125 
0.255363 -0.289404 0.922516 
0.245194 -0.252718 0.935956 
0.228242 -0.220689 0.948263 
0.209334 -0.190506 0.959107 
0.216113 -0.17253 0.961004 
0.194755 -0.146153 0.969902 
0.199715 -0.130091 0.97118 
0.176998 -0.107286 0.978346 
0.181887 -0.0929699 0.978914 
0.188471 -0.079169 0.978883 
0.169405 -0.0611891 0.983645 
0.178412 -0.0481566 0.982777 
0.162264 -0.0320661 0.986226 
0.17339 -0.0185472 0.984679 
0.159216 -0.00311648 0.987239 
0.171999 0.0120687 0.985023 
0.160757 0.0275231 0.98661 
0.176579 0.0455475 0.983232 
0.168853 0.0617496 0.983705 
0.163012 0.0780784 0.98353 
0.183719 0.101316 0.977743 
0.178107 0.118569 0.976842 
0.198435 0.14472 0.969371 
0.190355 0.162842 0.968115 
0.207785 0.191246 0.959297 
0.222738 0.220794 0.949546 
0.227752 0.254982 0.939741 
0.240495 0.292696 0.925468 
0.253339 0.333367 0.908122 
0.27741 -0.387181 0.879281 
0.258123 -0.34343 0.903011 
0.239944 -0.302437 0.922474 
0.225554 -0.265237 0.93743 
0.21403 -0.235378 0.948045 
0.198515 -0.205272 0.958361 
0.18213 -0.177362 0.967146 
0.188539 -0.161867 0.968634 
0.168945 -0.137133 0.976039 
0.173721 -0.122145 0.977191 
0.152971 -0.101411 0.983014 
0.157196 -0.0875233 0.983681 
0.16291 -0.074352 0.983835 
0.145519 -0.0573372 0.987693 
0.15355 -0.0449563 0.987118 
0.139055 -0.0297848 0.989837 
0.149116 -0.0169905 0.988674 
0.136449 -0.00264066 0.990644 
0.148105 0.011679 0.988903 
0.137991 0.0260522 0.990091 
0.15261 0.0428723 0.987356 
0.145554 0.0580374 0.987647 
0.140252 0.0735997 0.987377 
0.15881 0.0944217 0.982784 
0.153072 0.110672 0.981998 
0.171064 0.135113 0.975952 
0.163121 0.15147 0.974909 
0.177265 0.178438 0.967852 
0.189884 0.206904 0.959758 
0.197445 0.235616 0.951578 
0.205769 0.271436 0.940203 
0.216283 0.311035 0.925461 
0.225957 0.354361 0.907398 
0.258802 -0.396521 0.880791 
0.24074 -0.353442 0.903948 
0.223637 -0.313129 0.923004 
0.208716 -0.276414 0.938101 
0.195805 -0.244227 0.949744 
0.184007 -0.215864 0.958929 
0.170501 -0.1888 0.967101 
0.156612 -0.163648 0.974008 
0.162193 -0.150614 0.975197 
0.144857 -0.130295 0.980836 
0.149952 -0.115829 0.981885 
0.131744 -0.0953724 0.986685 
0.134892 -0.0823132 0.987435 
0.140152 -0.0698745 0.987661 
0.124402 -0.0536639 0.99078 
0.131578 -0.0419835 0.990416 
0.118455 -0.0277959 0.99257 
0.127627 -0.0156875 0.991698 
0.116173 -0.00221987 0.993226 
0.126826 0.0111792 0.991862 
0.11778 0.0244423 0.992739 
0.131071 0.0403084 0.990553 
0.124681 0.05452 0.990698 
0.12009 0.0693173 0.99034 
0.136081 0.0896015 0.986637 
0.129741 0.105646 0.985904 
0.145232 0.125507 0.981405 
0.13832 0.13993 0.980453 
0.149582 0.164679 0.974939 
0.159981 0.191221 0.968422 
0.167943 0.219148 0.961129 
0.175607 0.251155 0.951884 
0.183657 0.288133 0.939814 
0.192206 0.32933 0.924445 
0.19988 0.37484 0.905286 
0.238201 -0.402981 0.883666 
0.221557 -0.360459 0.90608 
0.205515 -0.320834 0.92457 
0.190995 -0.284362 0.939499 
0.177944 -0.251438 0.951375 
0.166249 -0.221759 0.960825 
0.154843 -0.194673 0.968569 
0.143265 -0.168816 0.97518 
0.136586 -0.144025 0.980103 
0.124835 -0.122707 0.98456 
0.128859 -0.108886 0.985667 
0.112575 -0.0894231 0.989611 
0.115044 -0.0769248 0.990377 
0.11963 -0.0654162 0.990661 
0.10531 -0.0506969 0.993146 
0.111998 -0.0394961 0.992923 
0.100267 -0.0261642 0.994617 
0.10864 -0.0146088 0.993974 
0.0982672 -0.00187108 0.995158 
0.107884 0.0107915 0.994105 
0.099421 0.0235876 0.994766 
0.111725 0.0379084 0.993016 
0.105802 0.0511323 0.993072 
0.102033 0.064952 0.992658 
0.116012 0.0841965 0.989673 
0.110421 0.0996081 0.988881 
0.12021 0.12122 0.98532 
0.1241 0.147248 0.981283 
0.132485 0.173469 0.975887 
0.140136 0.200954 0.969525 
0.14718 0.231378 0.961667 
0.154386 0.265412 0.951694 
0.161595 0.303842 0.938918 
0.168945 0.346427 0.922738 
0.175307 0.393846 0.902304 
0.215291 -0.407198 0.887603 
0.200554 -0.365122 0.909101 
0.185836 -0.326046 0.926908 
0.172278 -0.289914 0.941419 
0.160228 -0.257046 0.953024 
0.149006 -0.227062 0.962414 
0.138925 -0.199924 0.969913 
0.129263 -0.174976 0.97605 
0.12228 -0.151728 0.980829 
0.114621 -0.132331 0.984556 
0.105388 -0.113811 0.987897 
0.109503 -0.10223 0.988715 
0.0960826 -0.0866186 0.991597 
0.0962777 -0.0737821 0.992616 
0.101166 -0.062173 0.992925 
0.0885712 -0.0482378 0.994901 
0.0946838 -0.037389 0.994805 
0.0841445 -0.0247457 0.996146 
0.0918421 -0.0137336 0.995679 
0.082481 -0.00177397 0.996591 
0.0911343 0.0104105 0.995784 
0.0834599 0.0224047 0.996259 
0.094263 0.0364161 0.994881 
0.0886894 0.0495369 0.994827 
0.0855004 0.0636722 0.994302 
0.0976586 0.079099 0.992072 
0.0922642 0.0914143 0.991529 
0.0996921 0.111265 0.988778 
0.105247 0.131711 0.985685 
0.109355 0.1563 0.981637 
0.115589 0.182493 0.976389 
0.121773 0.211017 0.969868 
0.127943 0.242914 0.961573 
0.134154 0.278346 0.951066 
0.140543 0.317936 0.937638 
0.146959 0.361807 0.920597 
0.152261 0.410756 0.898942 
0.190064 -0.410042 0.892043 
0.177854 -0.368342 0.91252 
0.164323 -0.329505 0.929744 
0.152519 -0.293911 0.943586 
0.141087 -0.260996 0.954974 
0.131332 -0.231085 0.964029 
0.121919 -0.203773 0.971397 
0.113633 -0.178944 0.977275 
0.107152 -0.156168 0.981901 
0.0999167 -0.136047 0.985651 
0.0934494 -0.117376 0.988681 
0.090332 -0.0990874 0.99097 
0.0810494 -0.082782 0.993266 
0.0804453 -0.069872 0.994307 
0.0845543 -0.0592384 0.994656 
0.0736656 -0.0456347 0.996238 
0.0792908 -0.0354286 0.996222 
0.0697622 -0.0233532 0.99729 
0.076856 -0.0129662 0.996958 
0.0682609 -0.00167365 0.997666 
0.0761881 0.00979537 0.997045 
0.0691754 0.0209476 0.997385 
0.078765 0.0344817 0.996297 
0.0734427 0.0468137 0.9962 
0.0720861 0.0594828 0.995623 
0.0789888 0.0774003 0.993866 
0.0807127 0.0978843 0.991919 
0.0855526 0.117684 0.989359 
0.090051 0.139406 0.986132 
0.0937654 0.163991 0.981995 
0.0987542 0.190731 0.976662 
0.104003 0.220478 0.969831 
0.109221 0.25324 0.961218 
0.114771 0.290065 0.9501 
0.120319 0.330386 0.936145 
0.126279 0.375294 0.918264 
0.130535 0.425439 0.895524 
0.16259 -0.412226 0.896456 
0.153375 -0.370783 0.915967 
0.142253 -0.33286 0.932185 
0.131028 -0.29703 0.945836 
0.122165 -0.2645 0.956617 
0.112927 -0.234108 0.96563 
0.105077 -0.20663 0.972761 
0.0976923 -0.181445 0.978537 
0.0916715 -0.158752 0.983053 
0.0857271 -0.13844 0.986654 
0.0797301 -0.120236 0.989538 
0.0768944 -0.104394 0.991559 
0.0734708 -0.0902285 0.993207 
0.0670785 -0.0766485 0.994799 
0.065183 -0.0654845 0.995722 
0.0696626 -0.0558503 0.996006 
0.0600759 -0.0433699 0.997251 
0.0654139 -0.03359 0.997293 
0.0567406 -0.0225221 0.998135 
0.063303 -0.0123308 0.997918 
0.0554359 -0.00143862 0.998461 
0.0626516 0.00926595 0.997992 
0.0561848 0.0201995 0.998216 
0.064861 0.0323544 0.99737 
0.0606611 0.0428879 0.997237 
0.0586349 0.0554411 0.996739 
0.063251 0.0692645 0.995591 
0.067042 0.0847495 0.994144 
0.0681067 0.102973 0.99235 
0.0718838 0.122977 0.989803 
0.0754449 0.145058 0.986543 
0.0787904 0.17021 0.982253 
0.08298 0.198064 0.97667 
0.0872504 0.228729 0.969572 
0.0918737 0.263197 0.960357 
0.0963032 0.300389 0.948943 
0.101463 0.342247 0.934116 
0.106765 0.386929 0.915908 
0.109901 0.437783 0.892338 
0.133272 -0.414346 0.900309 
0.128927 -0.374424 0.918251 
0.117556 -0.33697 0.934148 
0.110318 -0.302432 0.946766 
0.101772 -0.269579 0.957585 
0.0948859 -0.239263 0.966307 
0.0881259 -0.211308 0.973439 
0.0818387 -0.185683 0.979196 
0.0766663 -0.16242 0.983739 
0.0715955 -0.141369 0.987365 
0.0663253 -0.122457 0.990255 
0.0636397 -0.10461 0.992475 
0.0596186 -0.0893078 0.994218 
0.0554315 -0.0748332 0.995654 
0.0522925 -0.0623338 0.996684 
0.0553702 -0.0525584 0.997082 
0.0474055 -0.0423053 0.997979 
0.0526515 -0.0324294 0.998086 
0.0451742 -0.0215058 0.998748 
0.0512878 -0.0117365 0.998615 
0.0441151 -0.00110594 0.999026 
0.0503499 0.00951818 0.998686 
0.0444217 0.0206393 0.9988 
0.0512602 0.03122 0.998197 
0.0476378 0.042352 0.997966 
0.0488665 0.0564247 0.99721 
0.0517087 0.0717386 0.996082 
0.0543431 0.0884394 0.994598 
0.0559463 0.107689 0.992609 
0.0588024 0.128689 0.98994 
0.0616993 0.152106 0.986436 
0.064539 0.17827 0.981863 
0.0679285 0.207296 0.975917 
0.0714617 0.239298 0.968313 
0.0749961 0.27427 0.958724 
0.079112 0.312981 0.946459 
0.0828895 0.353624 0.931708 
0.0886118 0.398516 0.912871 
0.0900316 0.44794 0.889519 
0.101043 -0.41704 0.903254 
0.101628 -0.381187 0.918895 
0.0947767 -0.345993 0.933438 
0.0870665 -0.310887 0.946451 
0.0818068 -0.277804 0.957148 
0.0763851 -0.246711 0.966074 
0.0710629 -0.217986 0.973361 
0.0662666 -0.191706 0.979213 
0.0619451 -0.167826 0.983869 
0.0579242 -0.146381 0.987531 
0.0539202 -0.126913 0.990447 
0.050995 -0.109299 0.9927 
0.0484487 -0.0934208 0.994447 
0.0452667 -0.0790837 0.99584 
0.0421257 -0.0652421 0.99698 
0.0418408 -0.0521591 0.997762 
0.0367662 -0.0401733 0.998516 
0.0412154 -0.0309211 0.998672 
0.0345164 -0.0201473 0.999201 
0.0403604 -0.0112169 0.999122 
0.0338144 -0.00170983 0.999427 
0.039452 0.00907007 0.99918 
0.0344928 0.019482 0.999215 
0.0387402 0.0320792 0.998734 
0.0379222 0.0464974 0.998198 
0.0389939 0.0618161 0.997326 
0.041242 0.0775459 0.996135 
0.0430976 0.0948183 0.994561 
0.0443597 0.114743 0.992404 
0.0466443 0.136387 0.989557 
0.0488124 0.160824 0.985775 
0.0511137 0.188147 0.98081 
0.0536564 0.218397 0.974384 
0.0564002 0.251871 0.966116 
0.0591817 0.288408 0.955677 
0.0620387 0.327569 0.942788 
0.066083 0.369864 0.926733 
0.0704691 0.411486 0.908688 
0.0696509 0.45607 0.887214 
0.072295 -0.419881 0.904695 
0.0733789 -0.372686 0.925052 
0.0654357 -0.329852 0.941762 
0.061812 -0.292158 0.95437 
0.0573267 -0.257933 0.964461 
0.0538373 -0.227175 0.972365 
0.0502413 -0.199328 0.978644 
0.0469665 -0.174287 0.983574 
0.0440155 -0.151766 0.987436 
0.0409791 -0.131758 0.990435 
0.038653 -0.113517 0.992784 
0.0366762 -0.0974603 0.994563 
0.0344509 -0.0830657 0.995948 
0.03247 -0.0699519 0.997022 
0.0316635 -0.0575754 0.997839 
0.0297008 -0.0470788 0.99845 
0.026126 -0.0367415 0.998983 
0.0307275 -0.0289786 0.999108 
0.0243451 -0.0204172 0.999495 
0.0296796 -0.0107396 0.999502 
0.0238276 -0.00056412 0.999716 
0.0295284 0.00793006 0.999532 
0.0247051 0.0163099 0.999562 
0.0275449 0.0273463 0.999246 
0.0287007 0.038531 0.998845 
0.0285035 0.0518497 0.998248 
0.0293325 0.0666486 0.997345 
0.0307971 0.0826359 0.996104 
0.0319911 0.10098 0.994374 
0.0331496 0.121424 0.992047 
0.0346592 0.144567 0.988888 
0.0362666 0.170343 0.984717 
0.037923 0.199388 0.979186 
0.0398032 0.231789 0.971951 
0.0416988 0.267818 0.962567 
0.0441619 0.308371 0.95024 
0.0465578 0.352953 0.934482 
0.0517388 0.404236 0.91319 
0.0518944 0.461006 0.885878 
0.0418813 -0.423467 0.904943 
0.0461034 -0.384611 0.921927 
0.0434768 -0.346378 0.937087 
0.0402514 -0.307841 0.950586 
0.037958 -0.271918 0.961572 
0.0361117 -0.239338 0.970265 
0.0338538 -0.209892 0.977138 
0.0318761 -0.183566 0.98249 
0.029948 -0.160066 0.986652 
0.0279958 -0.139148 0.989876 
0.0263612 -0.120406 0.992375 
0.0249498 -0.103729 0.994293 
0.0235546 -0.088838 0.995768 
0.0221712 -0.0753683 0.996909 
0.0214359 -0.0627847 0.997797 
0.0201086 -0.0516894 0.998461 
0.0184999 -0.0410611 0.998985 
0.0190943 -0.0294734 0.999383 
0.0156365 -0.0196423 0.999685 
0.0208525 -0.0106302 0.999726 
0.0153201 -0.000967978 0.999882 
0.0182976 0.00911177 0.999791 
0.0173058 0.0216276 0.999616 
0.0184347 0.0328395 0.999291 
0.0189842 0.0451349 0.9988 
0.0190564 0.0589362 0.99808 
0.0197749 0.0743636 0.997035 
0.0207029 0.0911713 0.99562 
0.0213672 0.110112 0.99369 
0.022079 0.131645 0.991051 
0.0230589 0.15567 0.98754 
0.0239855 0.182897 0.982839 
0.0249809 0.213445 0.976636 
0.0261818 0.247828 0.96845 
0.0273525 0.285997 0.95784 
0.0289803 0.32828 0.944136 
0.0316441 0.373924 0.926919 
0.0342446 0.418873 0.907399 
0.0328201 0.464516 0.884956 
0.0155099 -0.426953 0.904141 
0.0195899 -0.376146 0.926353 
0.0180645 -0.330808 0.943525 
0.0180546 -0.290469 0.956714 
0.0174562 -0.254618 0.966884 
0.0168212 -0.222818 0.974715 
0.0161049 -0.194569 0.980757 
0.0152479 -0.169455 0.98542 
0.0143922 -0.147206 0.989001 
0.0135413 -0.127353 0.991765 
0.0128332 -0.109726 0.993879 
0.012165 -0.094064 0.995492 
0.0114322 -0.0799559 0.996733 
0.0110559 -0.0672126 0.997677 
0.0105835 -0.0556946 0.998392 
0.00937839 -0.0450596 0.99894 
0.0100704 -0.034984 0.999337 
0.00928369 -0.0258487 0.999623 
0.00620003 -0.0163013 0.999848 
0.0119182 -0.0100922 0.999878 
0.00619485 -0.00428041 0.999972 
0.00912252 0.00586475 0.999941 
0.00951235 0.0152664 0.999838 
0.00880246 0.0262216 0.999617 
0.00949805 0.0377956 0.99924 
0.00955801 0.0505063 0.998678 
0.00967674 0.0649278 0.997843 
0.0100311 0.0809124 0.996671 
0.0103606 0.0987777 0.995056 
0.0106125 0.118956 0.992843 
0.0108814 0.141798 0.989836 
0.0111825 0.167539 0.985802 
0.0115095 0.196607 0.980415 
0.0118327 0.229389 0.973263 
0.012264 0.266353 0.963797 
0.0129653 0.308126 0.951257 
0.0136551 0.355004 0.934765 
0.0161065 0.407866 0.9129 
0.0155005 0.466135 0.884578 
-0.00968802 -0.430495 0.902541 
-0.00782684 -0.390482 0.920577 
-0.00489307 -0.350206 0.93666 
-0.00337516 -0.309643 0.950847 
-0.00214069 -0.272054 0.96228 
-0.00112933 -0.238309 0.971189 
-0.000567219 -0.208304 0.978064 
-0.000193873 -0.181699 0.983354 
5.96627e-05 -0.158161 0.987413 
0.000171384 -0.137242 0.990538 
0.000230428 -0.118719 0.992928 
0.000330583 -0.102256 0.994758 
0.000354205 -0.0875137 0.996163 
0.000403224 -0.0741289 0.997249 
0.000404988 -0.0621189 0.998069 
0.000302643 -0.0512469 0.998686 
0.00041316 -0.0404228 0.999183 
0.000284311 -0.0312639 0.999511 
0.000411501 -0.022364 0.99975 
0.000408068 -0.0101626 0.999948 
0.000391125 0.00228103 0.999997 
0.000496141 0.011619 0.999932 
0.000369858 0.0215041 0.999769 
0.000411436 0.0332249 0.999448 
0.000281407 0.045345 0.998971 
0.000213386 0.058773 0.998271 
0.000141494 0.0739457 0.997262 
1.42404e-05 0.0907722 0.995872 
-0.000117151 0.109585 0.993977 
-0.000383857 0.130924 0.991392 
-0.000680714 0.155012 0.987912 
-0.001016 0.182146 0.983271 
-0.00141069 0.212858 0.977082 
-0.00175687 0.247453 0.968898 
-0.00216557 0.286303 0.958137 
-0.00234247 0.329451 0.94417 
-0.00222426 0.375805 0.926696 
-0.00263213 0.42157 0.906792 
-0.00181746 0.466584 0.884475 
-0.0341732 -0.432813 0.900836 
-0.0312098 -0.380816 0.924124 
-0.0265797 -0.333992 0.942201 
-0.0227605 -0.292558 0.955977 
-0.0202976 -0.255979 0.966469 
-0.0182545 -0.223623 0.974505 
-0.0166026 -0.19499 0.980665 
-0.0152201 -0.169595 0.985396 
-0.014045 -0.147141 0.989016 
-0.0130676 -0.127159 0.991796 
-0.0122543 -0.10944 0.993918 
-0.0114388 -0.0938115 0.995524 
-0.010657 -0.0796079 0.996769 
-0.0102211 -0.0668492 0.997711 
-0.00988033 -0.0553607 0.998418 
-0.00885201 -0.0448729 0.998953 
-0.0093842 -0.0347417 0.999352 
-0.00873742 -0.0258261 0.999628 
-0.00549204 -0.0159816 0.999857 
-0.0111729 -0.0103342 0.999884 
-0.00531392 -0.0039798 0.999978 
-0.00814178 0.00581473 0.99995 
-0.00872602 0.0153996 0.999843 
-0.00790117 0.0262881 0.999623 
-0.00878793 0.0380118 0.999239 
-0.00909635 0.0507448 0.99867 
-0.00930587 0.0652111 0.997828 
-0.00984772 0.0811923 0.99665 
-0.0104163 0.099159 0.995017 
-0.0110494 0.119474 0.992776 
-0.01189 0.142378 0.989741 
-0.0128704 0.168193 0.98567 
-0.0139073 0.197313 0.980242 
-0.0150716 0.230115 0.973047 
-0.0162864 0.267019 0.963554 
-0.017475 0.308468 0.951074 
-0.019225 0.355219 0.934585 