# vtk DataFile Version 3.0 
Exported using Morpho https://github.com/Morpho-lang/morpho 
ASCII 
DATASET UNSTRUCTURED_GRID 

POINTS 1245 float 
-0.303845 -0.952721 0 
-0.250833 -0.96803 0 
-0.195084 -0.980787 0 
-0.146308 -0.989239 0 
-0.0940719 -0.995565 0 
-0.0475118 -0.998871 0 
-0.000246339 -1 0 
0.0470875 -0.998891 0 
0.0937543 -0.995595 0 
0.146139 -0.989264 0 
0.195062 -0.980791 0 
0.250843 -0.968028 0 
0.303953 -0.952687 0 
-0.409153 -0.912466 0 
-0.356519 -0.934288 0 
-0.308871 -0.898929 0 
-0.258282 -0.916037 0 
-0.207345 -0.934859 0 
-0.154868 -0.930629 0 
-0.104343 -0.948989 0 
-0.0520099 -0.939193 0 
-8.5762e-05 -0.954582 0 
0.0518744 -0.939288 0 
0.104354 -0.949042 0 
0.154696 -0.9306 0 
0.207366 -0.934975 0 
0.258274 -0.916081 0 
0.308979 -0.898924 0 
0.356593 -0.93426 0 
0.409236 -0.912429 0 
-0.513788 -0.857917 0 
-0.461695 -0.887039 0 
-0.411157 -0.857936 0 
-0.359855 -0.879963 0 
-0.306888 -0.847481 0 
-0.254732 -0.866979 0 
-0.201991 -0.889059 0 
-0.149956 -0.874108 0 
-0.100608 -0.900088 0 
-0.0497575 -0.880388 0 
2.4595e-05 -0.904789 0 
0.0496869 -0.8804 0 
0.100612 -0.900177 0 
0.149872 -0.874171 0 
0.202071 -0.889165 0 
0.254695 -0.867031 0 
0.306946 -0.847482 0 
0.359894 -0.879943 0 
0.411236 -0.857929 0 
0.461748 -0.887011 0 
0.513842 -0.857885 0 
-0.564741 -0.825268 0 
-0.512908 -0.802945 0 
-0.462372 -0.832348 0 
-0.410124 -0.804631 0 
-0.358606 -0.827415 0 
-0.305781 -0.795641 0 
-0.25358 -0.816639 0 
-0.200756 -0.839997 0 
-0.149043 -0.818944 0 
-0.0987265 -0.846667 0 
-0.0490473 -0.822548 0 
5.00659e-05 -0.849932 0 
0.0490834 -0.822542 0 
0.0987838 -0.846676 0 
0.148997 -0.818924 0 
0.200826 -0.840131 0 
0.253508 -0.816728 0 
0.305831 -0.795701 0 
0.358581 -0.827419 0 
0.410181 -0.804654 0 
0.462414 -0.83234 0 
0.512965 -0.802929 0 
0.564777 -0.825243 0 
-0.660798 -0.750564 0 
-0.614015 -0.789295 0 
-0.561786 -0.769772 0 
-0.510673 -0.747856 0 
-0.460836 -0.778365 0 
-0.408794 -0.751554 0 
-0.357337 -0.774971 0 
-0.304815 -0.743684 0 
-0.252907 -0.765535 0 
-0.200631 -0.789263 0 
-0.149244 -0.764328 0 
-0.0986912 -0.791935 0 
-0.0492815 -0.765764 0 
4.16586e-05 -0.79382 0 
0.0492411 -0.765708 0 
0.0987508 -0.791951 0 
0.149196 -0.764326 0 
0.200666 -0.789356 0 
0.252841 -0.765599 0 
0.304862 -0.743741 0 
0.357323 -0.775038 0 
0.408863 -0.751626 0 
0.460863 -0.778382 0 
0.510716 -0.747859 0 
0.561819 -0.769761 0 
0.614041 -0.789274 0 
0.660811 -0.750552 0 
-0.707107 -0.707107 0 
-0.654819 -0.699058 0 
-0.60813 -0.73348 0 
-0.558104 -0.71337 0 
-0.509495 -0.692659 0 
-0.45935 -0.724356 0 
-0.407328 -0.698865 0 
-0.355968 -0.722823 0 
-0.303722 -0.691387 0 
-0.252254 -0.71362 0 
-0.20067 -0.737336 0 
-0.149608 -0.710068 0 
-0.0991558 -0.737129 0 
-0.0495872 -0.709825 0 
-2.23646e-05 -0.737917 0 
0.0494408 -0.709766 0 
0.0991291 -0.737116 0 
0.149502 -0.710042 0 
0.200696 -0.73743 0 
0.252186 -0.713735 0 
0.303753 -0.691518 0 
0.355952 -0.722893 0 
0.407371 -0.698945 0 
0.459374 -0.724407 0 
0.509524 -0.692668 0 
0.558131 -0.713361 0 
0.608151 -0.733462 0 
0.654824 -0.699048 0 
0.707107 -0.707107 0 
-0.750564 -0.660798 0 
-0.699058 -0.654819 0 
-0.647692 -0.647692 0 
-0.603437 -0.675718 0 
-0.55905 -0.655305 0 
-0.508501 -0.639581 0 
-0.457509 -0.671321 0 
-0.405555 -0.646545 0 
-0.354417 -0.670703 0 
-0.302427 -0.639219 0 
-0.251503 -0.661417 0 
-0.20061 -0.684911 0 
-0.149717 -0.655943 0 
-0.0995004 -0.682466 0 
-0.0498216 -0.654561 0 
-5.02113e-05 -0.682664 0 
0.0496787 -0.654499 0 
0.0994374 -0.682501 0 
0.149603 -0.655909 0 
0.200573 -0.684972 0 
0.251388 -0.661524 0 
0.302407 -0.639359 0 
0.354397 -0.670836 0 
0.405575 -0.646641 0 
0.457525 -0.67138 0 
0.508497 -0.639623 0 
0.559063 -0.655324 0 
0.603436 -0.675715 0 
0.64769 -0.64769 0 
0.699048 -0.654824 0 
0.750552 -0.660811 0 
-0.789295 -0.614015 0 
-0.73348 -0.60813 0 
-0.675718 -0.603437 0 
-0.613088 -0.613088 0 
-0.55962 -0.604068 0 
-0.506189 -0.588854 0 
-0.455505 -0.618874 0 
-0.403019 -0.594688 0 
-0.352514 -0.618952 0 
-0.300977 -0.586897 0 
-0.250543 -0.608767 0 
-0.200257 -0.632053 0 
-0.150049 -0.601979 0 
-0.0998281 -0.628222 0 
-0.0500377 -0.599914 0 
-3.12334e-05 -0.628076 0 
0.0498927 -0.599835 0 
0.0997818 -0.628253 0 
0.149924 -0.601867 0 
0.200214 -0.632118 0 
0.250423 -0.608915 0 
0.30086 -0.587085 0 
0.352457 -0.619096 0 
0.402948 -0.594743 0 
0.455483 -0.618952 0 
0.506147 -0.588901 0 
0.55964 -0.604067 0 
0.613069 -0.613069 0 
0.675715 -0.603436 0 
0.733462 -0.608151 0 
0.789274 -0.614041 0 
-0.825268 -0.564741 0 
-0.769772 -0.561786 0 
-0.71337 -0.558104 0 
-0.655305 -0.55905 0 
-0.604068 -0.55962 0 
-0.551031 -0.551031 0 
-0.497922 -0.537596 0 
-0.451508 -0.567021 0 
-0.399773 -0.542431 0 
-0.350494 -0.567003 0 
-0.301574 -0.534146 0 
-0.250874 -0.555692 0 
-0.200542 -0.579013 0 
-0.150324 -0.548268 0 
-0.100169 -0.57443 0 
-0.0500152 -0.545912 0 
-3.29278e-05 -0.574268 0 
0.0499208 -0.545788 0 
0.100058 -0.574485 0 
0.150038 -0.548073 0 
0.200377 -0.579041 0 
0.250556 -0.55585 0 
0.301273 -0.534348 0 
0.350318 -0.567174 0 
0.399615 -0.542384 0 
0.451404 -0.5671 0 
0.497945 -0.537702 0 
0.551073 -0.551073 0 
0.604067 -0.55964 0 
0.655324 -0.559063 0 
0.713361 -0.558131 0 
0.769761 -0.561819 0 
0.825243 -0.564777 0 
-0.857917 -0.513788 0 
-0.802945 -0.512908 0 
-0.747856 -0.510673 0 
-0.692659 -0.509495 0 
-0.639581 -0.508501 0 
-0.588854 -0.506189 0 
-0.537596 -0.497922 0 
-0.486157 -0.486157 0 
-0.444928 -0.512952 0 
-0.401787 -0.486784 0 
-0.351685 -0.513639 0 
-0.299695 -0.48291 0 
-0.250032 -0.503 0 
-0.200501 -0.526165 0 
-0.149489 -0.495195 0 
-0.0999281 -0.521367 0 
-0.0499712 -0.492294 0 
4.64723e-05 -0.520999 0 
0.050147 -0.492108 0 
0.099934 -0.52133 0 
0.14957 -0.494692 0 
0.200133 -0.526255 0 
0.249839 -0.503309 0 
0.299839 -0.483005 0 
0.351514 -0.513798 0 
0.401881 -0.486608 0 
0.444935 -0.513054 0 
0.486228 -0.486228 0 
0.537702 -0.497945 0 
0.588901 -0.506147 0 
0.639623 -0.508497 0 
0.692668 -0.509524 0 
0.747859 -0.510716 0 
0.802929 -0.512965 0 
0.857885 -0.513842 0 
-0.887039 -0.461695 0 
-0.832348 -0.462372 0 
-0.778365 -0.460836 0 
-0.724356 -0.45935 0 
-0.671321 -0.457509 0 
-0.618874 -0.455505 0 
-0.567021 -0.451508 0 
-0.512952 -0.444928 0 
-0.450685 -0.450685 0 
-0.397667 -0.437543 0 
-0.348492 -0.462546 0 
-0.295416 -0.432968 0 
-0.247004 -0.450633 0 
-0.198702 -0.473818 0 
-0.150161 -0.441625 0 
-0.100085 -0.468395 0 
-0.0502271 -0.439281 0 
0.000144229 -0.468374 0 
0.0504178 -0.439106 0 
0.100428 -0.468348 0 
0.150697 -0.441105 0 
0.199103 -0.473881 0 
0.247983 -0.450921 0 
0.296569 -0.432268 0 
0.348831 -0.462562 0 
0.397506 -0.4368 0 
0.450637 -0.450637 0 
0.513054 -0.444935 0 
0.5671 -0.451404 0 
0.618952 -0.455483 0 
0.67138 -0.457525 0 
0.724407 -0.459374 0 
0.778382 -0.460863 0 
0.83234 -0.462414 0 
0.887011 -0.461748 0 
-0.912466 -0.409153 0 
-0.857936 -0.411157 0 
-0.804631 -0.410124 0 
-0.751554 -0.408794 0 
-0.698865 -0.407328 0 
-0.646545 -0.405555 0 
-0.594688 -0.403019 0 
-0.542431 -0.399773 0 
-0.486784 -0.401787 0 
-0.437543 -0.397667 0 
-0.387256 -0.387256 0 
-0.344215 -0.411459 0 
-0.30136 -0.381507 0 
-0.25021 -0.395692 0 
-0.200211 -0.419975 0 
-0.150955 -0.389014 0 
-0.100617 -0.416095 0 
-0.0503197 -0.386922 0 
-4.02994e-05 -0.416525 0 
0.05006 -0.386948 0 
0.100784 -0.416323 0 
0.150432 -0.388572 0 
0.200855 -0.420694 0 
0.25086 -0.396905 0 
0.301746 -0.379789 0 
0.344135 -0.410678 0 
0.385823 -0.385823 0 
0.4368 -0.397506 0 
0.486608 -0.401881 0 
0.542384 -0.399615 0 
0.594743 -0.402948 0 
0.646641 -0.405575 0 
0.698945 -0.407371 0 
0.751626 -0.408863 0 
0.804654 -0.410181 0 
0.857929 -0.411236 0 
0.912429 -0.409236 0 
-0.934288 -0.356519 0 
-0.879963 -0.359855 0 
-0.827415 -0.358606 0 
-0.774971 -0.357337 0 
-0.722823 -0.355968 0 
-0.670703 -0.354417 0 
-0.618952 -0.352514 0 
-0.567003 -0.350494 0 
-0.513639 -0.351685 0 
-0.462546 -0.348492 0 
-0.411459 -0.344215 0 
-0.351697 -0.351697 0 
-0.29839 -0.336232 0 
-0.249846 -0.342529 0 
-0.200971 -0.367271 0 
-0.149995 -0.337521 0 
-0.100435 -0.3646 0 
-0.0498692 -0.335025 0 
-6.88684e-05 -0.365025 0 
0.0495433 -0.334795 0 
0.0996798 -0.364834 0 
0.148162 -0.337172 0 
0.199644 -0.368939 0 
0.24763 -0.345582 0 
0.295348 -0.332889 0 
0.34978 -0.34978 0 
0.410678 -0.344135 0 
0.462562 -0.348831 0 
0.513798 -0.351514 0 
0.567174 -0.350318 0 
0.619096 -0.352457 0 
0.670836 -0.354397 0 
0.722893 -0.355952 0 
0.775038 -0.357323 0 
0.827419 -0.358581 0 
0.879943 -0.359894 0 
0.93426 -0.356593 0 
-0.952721 -0.303845 0 
-0.898929 -0.308871 0 
-0.847481 -0.306888 0 
-0.795641 -0.305781 0 
-0.743684 -0.304815 0 
-0.691387 -0.303722 0 
-0.639219 -0.302427 0 
-0.586897 -0.300977 0 
-0.534146 -0.301574 0 
-0.48291 -0.299695 0 
-0.432968 -0.295416 0 
-0.381507 -0.30136 0 
-0.336232 -0.29839 0 
-0.288184 -0.288184 0 
-0.242975 -0.290577 0 
-0.198059 -0.315051 0 
-0.148383 -0.285894 0 
-0.0994753 -0.313232 0 
-0.0507184 -0.283118 0 
-0.000202902 -0.313447 0 
0.0500077 -0.282824 0 
0.0988289 -0.312817 0 
0.148102 -0.28482 0 
0.195742 -0.317413 0 
0.240766 -0.295824 0 
0.285014 -0.285014 0 
0.332889 -0.295348 0 
0.379789 -0.301746 0 
0.432268 -0.296569 0 
0.483005 -0.299839 0 
0.534348 -0.301273 0 
0.587085 -0.30086 0 
0.639359 -0.302407 0 
0.691518 -0.303753 0 
0.743741 -0.304862 0 
0.795701 -0.305831 0 
0.847482 -0.306946 0 
0.898924 -0.308979 0 
0.952687 -0.303953 0 
-0.96803 -0.250833 0 
-0.916037 -0.258282 0 
-0.866979 -0.254732 0 
-0.816639 -0.25358 0 
-0.765535 -0.252907 0 
-0.71362 -0.252254 0 
-0.661417 -0.251503 0 
-0.608767 -0.250543 0 
-0.555692 -0.250874 0 
-0.503 -0.250032 0 
-0.450633 -0.247004 0 
-0.395692 -0.25021 0 
-0.342529 -0.249846 0 
-0.290577 -0.242975 0 
-0.239946 -0.239946 0 
-0.194478 -0.26004 0 
-0.151293 -0.23238 0 
-0.101048 -0.260904 0 
-0.0503938 -0.232537 0 
-0.000203281 -0.262984 0 
0.050638 -0.232316 0 
0.100942 -0.260855 0 
0.152412 -0.232597 0 
0.195768 -0.261421 0 
0.241873 -0.241873 0 
0.295824 -0.240766 0 
0.345582 -0.24763 0 
0.396905 -0.25086 0 
0.450921 -0.247983 0 
[...]
POINT_DATA 1245 
VECTORS vectors float
0.428542 -0.163326 0.888637 
0.434773 -0.141814 0.889304 
0.439389 -0.119976 0.890249 
0.441715 -0.101527 0.891392 
0.441542 -0.0822537 0.893463 
0.43938 -0.0650382 0.895944 
0.434473 -0.0470132 0.899457 
0.426563 -0.0270301 0.904054 
0.417162 -0.00448661 0.908821 
0.40576 0.0248141 0.913643 
0.395854 0.0554453 0.916638 
0.386865 0.0934 0.917394 
0.381903 0.12968 0.915059 
0.411795 -0.207405 0.88736 
0.420866 -0.185255 0.888004 
0.381062 -0.156176 0.911263 
0.387591 -0.137079 0.911582 
0.397992 -0.118303 0.909729 
0.38652 -0.0972074 0.917144 
0.398095 -0.0801431 0.913837 
0.382239 -0.0590771 0.922173 
0.390938 -0.0409656 0.919505 
0.371137 -0.0172178 0.928419 
0.375028 0.00593797 0.926995 
0.356749 0.0335091 0.933599 
0.359753 0.0632621 0.930901 
0.349154 0.0940103 0.932338 
0.343962 0.123458 0.930832 
0.380113 0.163255 0.910418 
0.380022 0.192339 0.904759 
0.388618 -0.251878 0.886304 
0.401091 -0.229647 0.886785 
0.365725 -0.196819 0.909674 
0.373853 -0.176339 0.91057 
0.337891 -0.146711 0.92968 
0.345939 -0.12764 0.929534 
0.356132 -0.110156 0.92792 
0.337903 -0.087931 0.937064 
0.353423 -0.0728522 0.932623 
0.33208 -0.0517452 0.941831 
0.347006 -0.0351698 0.937203 
0.323418 -0.0130909 0.946166 
0.335374 0.00788768 0.942052 
0.314344 0.0319962 0.94877 
0.325973 0.0594108 0.94351 
0.313978 0.0865729 0.945475 
0.308205 0.113515 0.944523 
0.341644 0.151299 0.927571 
0.340007 0.176021 0.923803 
0.37945 0.215944 0.899659 
0.3759 0.234347 0.896538 
0.374468 -0.274022 0.885825 
0.344594 -0.23821 0.908026 
0.356044 -0.217542 0.908795 
0.323803 -0.185426 0.927776 
0.331451 -0.165777 0.928794 
0.298952 -0.137457 0.944316 
0.306046 -0.120038 0.944419 
0.316995 -0.10269 0.942851 
0.294661 -0.0812807 0.952139 
0.310297 -0.0661413 0.948336 
0.287633 -0.0460014 0.956635 
0.303817 -0.0302923 0.952249 
0.280942 -0.00968219 0.959676 
0.29581 0.00946936 0.9552 
0.276337 0.0317511 0.960536 
0.291738 0.0563117 0.954839 
0.280723 0.0810375 0.956362 
0.27398 0.104369 0.956055 
0.304727 0.138123 0.942371 
0.301739 0.160544 0.939776 
0.337105 0.196898 0.920647 
0.330996 0.214214 0.918996 
0.367383 0.248937 0.896136 
0.342937 -0.317257 0.884162 
0.359006 -0.295978 0.885162 
0.33145 -0.258414 0.907394 
0.304042 -0.224307 0.925875 
0.314844 -0.204938 0.926754 
0.285732 -0.174425 0.942302 
0.292491 -0.155886 0.943477 
0.262816 -0.129179 0.956159 
0.270186 -0.112302 0.956236 
0.279611 -0.0962436 0.955277 
0.257059 -0.0752327 0.963463 
0.27065 -0.0606375 0.960766 
0.249164 -0.0415616 0.967569 
0.264242 -0.0263175 0.964097 
0.243734 -0.00725936 0.969815 
0.258982 0.0107263 0.965823 
0.241977 0.0307967 0.969793 
0.259182 0.0536728 0.964336 
0.248768 0.075263 0.965634 
0.24221 0.0964496 0.965418 
0.270106 0.126669 0.954462 
0.265872 0.147085 0.952722 
0.296969 0.179847 0.937798 
0.288779 0.196597 0.936993 
0.32014 0.228876 0.919307 
0.352904 0.261898 0.898258 
0.332863 0.275249 0.901909 
0.325972 -0.338362 0.882754 
0.306216 -0.299197 0.903722 
0.317194 -0.277765 0.906771 
0.291483 -0.242708 0.925273 
0.267288 -0.21155 0.940108 
0.277322 -0.192982 0.941196 
0.25123 -0.164068 0.953921 
0.257614 -0.146267 0.955113 
0.23041 -0.120925 0.965551 
0.236728 -0.105238 0.96586 
0.245162 -0.0900228 0.965294 
0.223312 -0.0699911 0.972231 
0.235052 -0.0559458 0.970371 
0.215357 -0.0378746 0.975801 
0.228924 -0.0232327 0.973167 
0.210931 -0.00559617 0.977485 
0.22564 0.0114349 0.974144 
0.211021 0.0296 0.977033 
0.228336 0.0506672 0.972263 
0.219007 0.0700245 0.973207 
0.212372 0.0889679 0.97313 
0.237746 0.116385 0.96433 
0.232887 0.135566 0.963009 
0.259736 0.165372 0.951414 
0.250436 0.182249 0.950824 
0.27623 0.211336 0.937568 
0.304424 0.242419 0.921173 
0.288974 0.25916 0.921591 
0.307141 0.291466 0.905931 
0.309145 -0.357428 0.881292 
0.290277 -0.317562 0.902715 
0.272038 -0.280956 0.920358 
0.278072 -0.260341 0.924607 
0.255207 -0.229869 0.939164 
0.235245 -0.199937 0.951149 
0.243796 -0.181638 0.952665 
0.220259 -0.154179 0.963179 
0.225661 -0.137387 0.96447 
0.200904 -0.113378 0.973028 
0.206561 -0.0984841 0.973465 
0.213973 -0.0841011 0.973212 
0.193294 -0.0651102 0.978978 
0.203496 -0.0517055 0.977709 
0.185586 -0.0347826 0.982012 
0.197846 -0.0208066 0.980012 
0.181933 -0.00444509 0.983301 
0.195719 0.0114906 0.980593 
0.183021 0.0280598 0.982709 
0.199787 0.047492 0.978688 
0.191345 0.0649965 0.979368 
0.185157 0.0824115 0.979247 
0.208056 0.107522 0.972189 
0.202742 0.125522 0.971154 
0.226091 0.153109 0.961998 
0.216974 0.17064 0.961148 
0.236794 0.198429 0.951081 
0.259968 0.225829 0.938838 
0.249778 0.244187 0.937008 
0.2648 0.275963 0.923973 
0.278723 0.310492 0.908795 
0.292999 -0.372921 0.880387 
0.272226 -0.328712 0.904346 
0.253368 -0.287448 0.923676 
0.243113 -0.250926 0.93698 
0.225963 -0.218814 0.949243 
0.207016 -0.188801 0.959947 
0.213609 -0.170981 0.96184 
0.192191 -0.144755 0.970623 
0.197177 -0.128804 0.97187 
0.174365 -0.106218 0.978935 
0.179211 -0.0921108 0.979489 
0.185585 -0.0785968 0.97948 
0.166588 -0.0607904 0.984151 
0.175502 -0.0480208 0.983307 
0.159404 -0.0321435 0.98669 
0.170413 -0.0188593 0.985192 
0.156321 -0.00367967 0.987699 
0.169009 0.0113023 0.98555 
0.157816 0.0265435 0.987112 
0.173584 0.0444031 0.983818 
0.165955 0.060376 0.984283 
0.160198 0.0764818 0.984117 
0.180873 0.0995699 0.978453 
0.175466 0.11667 0.977548 
0.195853 0.142697 0.970195 
0.187894 0.160552 0.968978 
0.205385 0.188889 0.96028 
0.220389 0.218205 0.950692 
0.225403 0.252365 0.941013 
0.238201 0.289959 0.926922 
0.250974 0.330711 0.909748 
0.27606 -0.385353 0.880508 
0.25654 -0.341488 0.904197 
0.238195 -0.300414 0.923588 
0.223645 -0.263301 0.938433 
0.211928 -0.233337 0.949021 
0.196422 -0.203429 0.959185 
0.179893 -0.175516 0.967901 
0.186242 -0.160245 0.969348 
0.166591 -0.135614 0.976656 
0.171181 -0.12089 0.977795 
0.150537 -0.100256 0.983508 
0.154524 -0.0866665 0.98418 
0.160243 -0.0736973 0.984323 
0.142889 -0.0569184 0.988101 
0.150763 -0.0447733 0.987556 
0.136325 -0.0298303 0.990215 
0.146295 -0.0173045 0.98909 
0.133671 -0.00316706 0.991021 
0.145225 0.0109338 0.989338 
0.135277 0.0250033 0.990492 
0.14977 0.0416674 0.987842 
0.142829 0.0566007 0.988128 
0.137635 0.0719975 0.987863 
0.156179 0.0926619 0.983373 
0.150527 0.108678 0.982614 
0.168542 0.132962 0.976686 
0.160717 0.149172 0.975663 
0.174922 0.175944 0.968734 
0.187551 0.204384 0.960756 
0.195225 0.232883 0.952708 
0.203504 0.26873 0.941472 
0.214044 0.308365 0.926874 
0.223724 0.351795 0.908949 
0.257747 -0.394489 0.882012 
0.239432 -0.351329 0.905119 
0.222115 -0.310985 0.924096 
0.206997 -0.274257 0.939114 
0.193979 -0.242077 0.950669 
0.182069 -0.213833 0.959753 
0.168429 -0.186785 0.967855 
0.154612 -0.161853 0.974627 
0.159864 -0.148906 0.975843 
0.142714 -0.128719 0.981358 
0.147575 -0.114474 0.982404 
0.129325 -0.0942517 0.987113 
0.132573 -0.0813322 0.987831 
0.137516 -0.0692019 0.988079 
0.121846 -0.0531804 0.991123 
0.128979 -0.0418039 0.990766 
0.115927 -0.0278461 0.992867 
0.12498 -0.0159968 0.99203 
0.113622 -0.00276455 0.99352 
0.1242 0.0103552 0.992203 
0.115122 0.0234985 0.993073 
0.128381 0.0390996 0.990954 
0.12209 0.0530666 0.991099 
0.117647 0.0675413 0.990756 
0.133542 0.0876815 0.987157 
0.127381 0.103561 0.986433 
0.142818 0.123321 0.982036 
0.136073 0.137529 0.981107 
0.147315 0.162207 0.975698 
0.157776 0.188604 0.969296 
0.16573 0.216489 0.962115 
0.173462 0.248436 0.95299 
0.181537 0.285398 0.941059 
0.190108 0.326683 0.925817 
0.197851 0.372315 0.906772 
0.23739 -0.400688 0.884927 
0.220498 -0.358155 0.907252 
0.204206 -0.318523 0.925658 
0.189535 -0.282021 0.9405 
0.176345 -0.249178 0.952267 
0.164465 -0.219516 0.961647 
0.153073 -0.192575 0.96927 
0.141265 -0.16677 0.975824 
0.134565 -0.142167 0.980653 
0.1227 -0.121134 0.985023 
0.126613 -0.107448 0.986116 
0.110619 -0.0881314 0.989948 
0.112551 -0.0760345 0.990733 
0.117377 -0.0646899 0.990978 
0.103074 -0.0502431 0.993404 
0.109574 -0.0392542 0.993203 
0.0979376 -0.0262024 0.994848 
0.106163 -0.0148853 0.994237 
0.0959312 -0.00245157 0.995385 
0.105381 0.0099951 0.994382 
0.0971809 0.0224657 0.995013 
0.109293 0.0365658 0.993337 
0.103509 0.0496441 0.993389 
0.0997318 0.0632596 0.993001 
0.113701 0.082424 0.99009 
0.108245 0.0973837 0.989343 
0.117996 0.118995 0.985859 
0.121944 0.144765 0.981923 
0.130412 0.17087 0.976625 
0.138066 0.198255 0.970378 
0.145169 0.22861 0.962633 
0.152377 0.26266 0.952781 
0.159662 0.301091 0.940134 
0.167039 0.343788 0.924071 
0.17349 0.39132 0.903753 
0.214661 -0.404665 0.888913 
0.199661 -0.362608 0.910303 
0.184698 -0.323473 0.928037 
0.171124 -0.287481 0.942375 
0.158675 -0.254552 0.953953 
0.14763 -0.224716 0.963176 
0.13717 -0.197622 0.970634 
0.127633 -0.172804 0.976652 
0.120489 -0.149768 0.981352 
0.112733 -0.130535 0.985014 
0.103592 -0.111996 0.988294 
0.107635 -0.100788 0.989068 
0.0934817 -0.0855994 0.991934 
0.0947069 -0.0725829 0.992856 
0.0988292 -0.0614381 0.993206 
0.0864819 -0.0476691 0.995112 
0.0924566 -0.0371553 0.995023 
0.0820502 -0.0247379 0.996321 
0.089607 -0.0140345 0.995878 
0.0803471 -0.00230721 0.996764 
0.0888686 0.00963032 0.995997 
0.0812524 0.0212998 0.996466 
0.0919617 0.035142 0.995142 
0.0863635 0.0480081 0.995106 
0.0837149 0.0618982 0.994565 
0.0954608 0.0769663 0.992453 
0.0901822 0.0896214 0.991885 
0.097681 0.108869 0.989245 
0.103286 0.12925 0.986218 
0.107429 0.153744 0.982253 
0.113659 0.179732 0.977127 
0.119927 0.20832 0.97068 
0.126079 0.240035 0.962542 
0.13238 0.275596 0.952115 
0.138763 0.315167 0.938837 
0.145271 0.359114 0.921918 
0.150636 0.408228 0.900366 
0.189473 -0.407248 0.893448 
0.176983 -0.365517 0.913824 
0.163695 -0.326968 0.93075 
0.151059 -0.291077 0.944699 
0.14025 -0.258514 0.955772 
0.129743 -0.22847 0.964867 
0.120647 -0.201391 0.972052 
0.112116 -0.176601 0.977876 
0.105464 -0.154087 0.982413 
0.0984546 -0.133904 0.986092 
0.0914972 -0.115828 0.989046 
0.0885628 -0.0976123 0.991276 
0.0801528 -0.0809972 0.993486 
0.0780419 -0.0691388 0.99455 
0.0827325 -0.0584177 0.994858 
0.0718132 -0.045174 0.996395 
0.0773291 -0.0351759 0.996385 
0.0678912 -0.0234137 0.997418 
0.0748468 -0.0132568 0.997107 
0.0663884 -0.00226004 0.997791 
0.0742179 0.00893871 0.997202 
0.0673428 0.019903 0.997531 
0.076735 0.0333094 0.996495 
0.0720127 0.0447722 0.996398 
0.0696868 0.0581419 0.995873 
0.0772736 0.0751172 0.994176 
0.078981 0.0954483 0.992296 
0.0837243 0.115398 0.989785 
0.0882879 0.136796 0.986657 
0.0920339 0.161261 0.982611 
0.0971027 0.188056 0.977346 
0.102269 0.217468 0.970695 
0.107687 0.250627 0.962076 
0.113079 0.286966 0.951243 
0.118852 0.327816 0.937236 
0.124736 0.372536 0.919597 
0.129084 0.42286 0.896954 
0.162124 -0.409271 0.897894 
0.153157 -0.368093 0.917088 
0.140706 -0.32966 0.933556 
0.130861 -0.294488 0.946653 
0.120588 -0.261563 0.957624 
0.1121 -0.231539 0.966345 
0.103774 -0.204013 0.973452 
0.0963749 -0.179043 0.979109 
0.0904024 -0.156429 0.983543 
0.0842653 -0.136343 0.987071 
0.0781852 -0.118413 0.989881 
0.0760249 -0.102177 0.991857 
0.0710548 -0.0892361 0.993473 
0.0655978 -0.0754515 0.994989 
0.0638395 -0.0642409 0.99589 
0.0679609 -0.0549974 0.996171 
0.0585162 -0.0427668 0.99737 
0.0636857 -0.0332843 0.997415 
0.055182 -0.02246 0.998224 
0.0615639 -0.0126046 0.998024 
0.0538691 -0.00195811 0.998546 
0.0608661 0.00843394 0.99811 
0.0545528 0.0191795 0.998327 
0.0631424 0.0307575 0.99753 
0.0584226 0.0421813 0.9974 
0.0578855 0.0525345 0.99694 
0.061528 0.0677034 0.995806 
0.0652927 0.0825938 0.994442 
0.0665819 0.100678 0.992689 
0.0703221 0.120358 0.990237 
0.0739261 0.142469 0.987035 
0.0772945 0.167447 0.982846 
0.0814789 0.195145 0.977384 
0.0859078 0.226038 0.970323 
0.0902928 0.25996 0.961389 
0.0951654 0.298019 0.949804 
0.0998811 0.338944 0.935489 
0.105604 0.38455 0.917044 
0.108671 0.435272 0.893716 
0.132697 -0.411323 0.901779 
0.127355 -0.371046 0.91984 
0.118211 -0.334387 0.934993 
0.108523 -0.299183 0.948004 
0.101451 -0.266832 0.958388 
0.0938086 -0.23642 0.967112 
0.0870864 -0.208623 0.974111 
0.0808519 -0.18312 0.97976 
0.0754942 -0.159999 0.984226 
0.0703808 -0.139206 0.987759 
0.0652869 -0.120232 0.990597 
0.0619258 -0.10316 0.992735 
0.058913 -0.0873711 0.994432 
0.0538904 -0.0735858 0.995832 
0.0509346 -0.0612389 0.996823 
0.0539382 -0.0519001 0.997195 
0.0461014 -0.0416406 0.998068 
0.0511667 -0.0322306 0.99817 
0.0438505 -0.0215705 0.998805 
0.0497715 -0.0120618 0.998688 
0.042782 -0.00173807 0.999083 
0.048874 0.00861537 0.998768 
0.0430671 0.0195223 0.998881 
0.0499101 0.0297497 0.998311 
0.0464084 0.0405373 0.9981 
0.0469734 0.0553257 0.997363 
0.0505176 0.0693205 0.996315 
0.0530734 0.0861787 0.994865 
0.0545547 0.105241 0.992949 
0.0575376 0.126125 0.990344 
0.060403 0.149319 0.986942 
0.0633119 0.175485 0.982444 
0.066695 0.204392 0.976614 
0.0702092 0.236288 0.969143 
0.0740092 0.271643 0.959548 
0.0776101 0.30952 0.94772 
0.0822584 0.351619 0.932522 
0.0871635 0.395256 0.914426 
0.0889393 0.445435 0.890886 
0.100182 -0.413814 0.904832 
0.102812 -0.378423 0.919905 
0.0924557 -0.342533 0.934945 
0.087235 -0.307965 0.94739 
0.0810184 -0.274814 0.958078 
0.0754854 -0.243757 0.966894 
0.0704134 -0.215213 0.974025 
0.0653521 -0.189005 0.979799 
0.0610431 -0.165328 0.984348 
0.0570412 -0.143941 0.987941 
0.052857 -0.124875 0.990764 
0.0501024 -0.107214 0.992973 
0.0473421 -0.0917805 0.994653 
0.044142 -0.0776197 0.996005 
0.0412117 -0.0641188 0.997091 
0.0407428 -0.0512436 0.997855 
0.0357127 -0.0397029 0.998573 
0.0401066 -0.0305755 0.998727 
0.0334488 -0.0200585 0.999239 
0.0391827 -0.0114554 0.999166 
0.0327479 -0.00218525 0.999461 
0.0383109 0.0082435 0.999232 
0.0334491 0.0183112 0.999273 
0.0375389 0.0307768 0.998821 
0.0369157 0.0446756 0.998319 
0.038089 0.0597307 0.997488 
0.0400888 0.0753648 0.99635 
0.0419491 0.0926021 0.994819 
0.0433947 0.112068 0.992753 
0.0455579 0.133769 0.989965 
0.0478133 0.158014 0.986279 
0.0500885 0.185226 0.981419 
0.052737 0.215533 0.975072 
0.0553864 0.248833 0.966962 
0.0582362 0.285447 0.956624 
0.0614344 0.325074 0.943691 
0.0645179 0.366206 0.928295 
0.0703135 0.409705 0.909504 
0.0687383 0.453391 0.888657 
0.071889 -0.416735 0.906181 
0.0720122 -0.369372 0.926487 
0.0660854 -0.326942 0.942731 
0.0605385 -0.288941 0.955431 
0.057082 -0.254988 0.965258 
0.0531659 -0.224258 0.973078 
0.0495807 -0.196548 0.97924 
0.0463413 -0.171629 0.984071 
0.043281 -0.149347 0.987837 
0.0402717 -0.129402 0.990774 
0.0379136 -0.111508 0.99304 
0.0358508 -0.0955927 0.994775 
0.0337396 -0.0814927 0.996103 
0.0316423 -0.0685751 0.997144 
0.0307695 -0.0564868 0.997929 
0.0289034 -0.0463599 0.998507 
0.0254821 -0.0360684 0.999024 
0.0297445 -0.0287793 0.999143 
0.0237385 -0.0205025 0.999508 
0.0288224 -0.0111828 0.999522 
0.0231724 -0.00123231 0.999731 
0.0285669 0.00708187 0.999567 
0.0240157 0.0152739 0.999595 
0.0267316 0.0259815 0.999305 
0.0278306 0.0369905 0.998928 
0.0276375 0.0500869 0.998362 
0.0284921 0.0645651 0.997507 
0.029994 0.0804671 0.996306 
0.031253 0.0983601 0.99466 
0.0322894 0.118964 0.992373 
0.0339317 0.141711 0.989326 
0.0355042 0.167538 0.985226 
0.0371831 0.196433 0.979812 
0.0390553 0.228787 0.972693 
0.0411332 0.265002 0.96337 
0.043157 0.305075 0.95135 
0.0464803 0.350674 0.935343 
0.0506493 0.401119 0.914624 
0.0513745 0.458549 0.887183 
0.04117 -0.420294 0.906453 
0.0467412 -0.381618 0.923138 
0.0423283 -0.343104 0.938343 
0.0398653 -0.304727 0.951605 
0.0377872 -0.268889 0.96243 
0.035511 -0.236322 0.971026 
0.0335182 -0.207034 0.977759 
0.0314008 -0.180831 0.983013 
0.0294744 -0.157466 0.987085 
0.0275396 -0.136768 0.99022 
0.025844 -0.1182 0.992653 
0.0244563 -0.101738 0.994511 
0.0230447 -0.0871153 0.995932 
0.0216199 -0.0738407 0.997036 
0.020933 -0.0616626 0.997878 
0.0196336 -0.0506354 0.998524 
0.017919 -0.0405503 0.999017 
0.0185318 -0.0292112 0.999401 
0.0151141 -0.0194902 0.999696 
0.0201184 -0.0106936 0.99974 
0.0148789 -0.0015239 0.999888 
0.0177176 0.00826523 0.999809 
0.0167561 0.0204064 0.999651 
0.0179212 0.0313941 0.999346 
0.0184689 0.0433671 0.998888 
0.0185366 0.0570296 0.9982 
0.0192822 0.0721149 0.99721 
0.020145 0.0888363 0.995843 
0.0208476 0.107584 0.993977 
0.021602 0.12889 0.991424 
0.0225334 0.152894 0.987986 
0.0234907 0.179949 0.983395 
0.0245362 0.210529 0.97728 
0.0256341 0.24475 0.969247 
0.0270143 0.283114 0.958706 
0.0285801 0.325389 0.945148 
0.0307449 0.370786 0.928209 
0.0345837 0.416601 0.908431 
0.0323295 0.461862 0.886362 
0.0152946 -0.423895 0.905582 
0.0185335 -0.372944 0.927669 
0.0184898 -0.32776 0.94458 
0.017526 -0.287331 0.957671 
0.0172454 -0.251592 0.96768 
0.0166305 -0.219883 0.975385 
0.0158209 -0.191736 0.981319 
0.0150419 -0.166797 0.985877 
0.0141378 -0.144687 0.989376 
0.0133004 -0.125048 0.992062 
0.0125969 -0.107646 0.994109 
0.0119101 -0.0921785 0.995671 
0.0111926 -0.0783857 0.99686 
0.0108414 -0.0658149 0.997773 
0.0102633 -0.0546537 0.998453 
0.00924518 -0.0442954 0.998976 
0.00979453 -0.0343188 0.999363 
0.00911361 -0.0257997 0.999626 
0.0060969 -0.0163311 0.999848 
0.0117246 -0.0107096 0.999874 
0.00592931 -0.00446597 0.999972 
0.00888651 0.005049 0.999948 
0.00933473 0.0141964 0.999856 
0.00855423 0.0249516 0.999652 
0.00926912 0.0361983 0.999302 
0.00931877 0.0486985 0.99877 
0.00944606 0.062847 0.997978 
0.0097853 0.078684 0.996852 
0.0101436 0.0962883 0.995302 
0.0103728 0.11633 0.993156 
0.0106281 0.139055 0.990228 
0.0109689 0.164659 0.98629 
0.0112551 0.193645 0.981007 
0.0116219 0.226405 0.973964 
0.01207 0.263371 0.964619 
0.0125663 0.305073 0.952246 
0.0139629 0.352295 0.935785 
0.0154056 0.404958 0.914205 
0.0155365 0.463604 0.885906 
-0.0102872 -0.427482 0.903965 
-0.00712016 -0.387462 0.921858 
-0.00560213 -0.34708 0.937819 
-0.0035093 -0.306547 0.951849 
-0.00209748 -0.26901 0.963135 
-0.00124597 -0.235315 0.971918 
-0.000592476 -0.205424 0.978673 
-0.000203134 -0.178939 0.98386 
3.45244e-05 -0.155556 0.987827 
0.000176796 -0.134841 0.990867 
0.000246259 -0.116475 0.993194 
0.000344218 -0.100267 0.994961 
0.000388822 -0.0857522 0.996316 
0.000430545 -0.072604 0.997361 
0.000446682 -0.0609194 0.998143 
0.000381672 -0.0502358 0.998737 
0.00037706 -0.0397611 0.999209 
0.000471505 -0.0309935 0.999519 
0.00033061 -0.0220433 0.999757 
0.0004807 -0.010436 0.999945 
0.000617409 0.00139408 0.999999 
0.000460085 0.0108313 0.999941 
0.000507558 0.020202 0.999796 
0.000478967 0.0317666 0.999495 
0.000352738 0.0436051 0.999049 
0.000283425 0.0568221 0.998384 
0.000204669 0.0717675 0.997421 
6.86688e-05 0.0883736 0.996087 
-8.58621e-05 0.107061 0.994252 
-0.0003329 0.128216 0.991746 
-0.00065258 0.152175 0.988353 
-0.000999833 0.179242 0.983804 
-0.00137799 0.209878 0.977727 
-0.00179312 0.244438 0.969663 
-0.00205599 0.283317 0.959024 
-0.00235285 0.326505 0.945193 
-0.00256732 0.372931 0.927856 
-0.00190606 0.418834 0.908061 
-0.0019622 0.46397 0.885849 
-0.0342664 -0.429868 0.902241 
-0.0317596 -0.377812 0.925337 
-0.0261432 -0.330958 0.943283 
-0.0228354 -0.289513 0.956902 
-0.0201685 -0.252959 0.967267 
-0.0180966 -0.220712 0.975171 
-0.0164184 -0.192165 0.981225 
-0.0150292 -0.16694 0.985853 
-0.0137904 -0.144624 0.989391 
-0.0128177 -0.124835 0.992095 
-0.0119939 -0.107379 0.994146 
-0.0111278 -0.0919023 0.995706 
-0.0103639 -0.0780362 0.996897 
-0.00988327 -0.0654405 0.997808 
-0.00953956 -0.0543272 0.998478 
-0.00847808 -0.0440688 0.998993 
-0.00906498 -0.0341508 0.999376 
-0.00835982 -0.0255752 0.999638 
-0.00508173 -0.0163624 0.999853 
-0.0108193 -0.0102829 0.999889 
-0.00505352 -0.00451425 0.999977 
-0.00783091 0.00520595 0.999956 
-0.00827696 0.0142576 0.999864 
-0.00758914 0.0250614 0.999657 
-0.00839167 0.0363942 0.999302 
-0.00873805 0.0489708 0.998762 
-0.00894425 0.0631275 0.997965 
-0.00950909 0.078946 0.996834 
-0.0100687 0.0967247 0.99526 
-0.0107368 0.11683 0.993094 
-0.0115934 0.139648 0.990133 
-0.0125756 0.165322 0.986159 
-0.0136474 0.194368 0.980834 
-0.0148082 0.227125 0.973753 
-0.016034 0.263998 0.96439 
-0.017362 0.305549 0.952018 