# vtk DataFile Version 3.0 
Exported using Morpho https://github.com/Morpho-lang/morpho 
ASCII 
DATASET UNSTRUCTURED_GRID 

POINTS 1245 float 
-0.303845 -0.952721 0 
-0.250833 -0.96803 0 
-0.195084 -0.980787 0 
-0.146308 -0.989239 0 
-0.0940719 -0.995565 0 
-0.0475118 -0.998871 0 
-0.000246339 -1 0 
0.0470875 -0.998891 0 
0.0937543 -0.995595 0 
0.146139 -0.989264 0 
0.195062 -0.980791 0 
0.250843 -0.968028 0 
0.303953 -0.952687 0 
-0.409153 -0.912466 0 
-0.356519 -0.934288 0 
-0.308871 -0.898929 0 
-0.258282 -0.916037 0 
-0.207345 -0.934859 0 
-0.154868 -0.930629 0 
-0.104343 -0.948989 0 
-0.0520099 -0.939193 0 
-8.5762e-05 -0.954582 0 
0.0518744 -0.939288 0 
0.104354 -0.949042 0 
0.154696 -0.9306 0 
0.207366 -0.934975 0 
0.258274 -0.916081 0 
0.308979 -0.898924 0 
0.356593 -0.93426 0 
0.409236 -0.912429 0 
-0.513788 -0.857917 0 
-0.461695 -0.887039 0 
-0.411157 -0.857936 0 
-0.359855 -0.879963 0 
-0.306888 -0.847481 0 
-0.254732 -0.866979 0 
-0.201991 -0.889059 0 
-0.149956 -0.874108 0 
-0.100608 -0.900088 0 
-0.0497575 -0.880388 0 
2.4595e-05 -0.904789 0 
0.0496869 -0.8804 0 
0.100612 -0.900177 0 
0.149872 -0.874171 0 
0.202071 -0.889165 0 
0.254695 -0.867031 0 
0.306946 -0.847482 0 
0.359894 -0.879943 0 
0.411236 -0.857929 0 
0.461748 -0.887011 0 
0.513842 -0.857885 0 
-0.564741 -0.825268 0 
-0.512908 -0.802945 0 
-0.462372 -0.832348 0 
-0.410124 -0.804631 0 
-0.358606 -0.827415 0 
-0.305781 -0.795641 0 
-0.25358 -0.816639 0 
-0.200756 -0.839997 0 
-0.149043 -0.818944 0 
-0.0987265 -0.846667 0 
-0.0490473 -0.822548 0 
5.00659e-05 -0.849932 0 
0.0490834 -0.822542 0 
0.0987838 -0.846676 0 
0.148997 -0.818924 0 
0.200826 -0.840131 0 
0.253508 -0.816728 0 
0.305831 -0.795701 0 
0.358581 -0.827419 0 
0.410181 -0.804654 0 
0.462414 -0.83234 0 
0.512965 -0.802929 0 
0.564777 -0.825243 0 
-0.660798 -0.750564 0 
-0.614015 -0.789295 0 
-0.561786 -0.769772 0 
-0.510673 -0.747856 0 
-0.460836 -0.778365 0 
-0.408794 -0.751554 0 
-0.357337 -0.774971 0 
-0.304815 -0.743684 0 
-0.252907 -0.765535 0 
-0.200631 -0.789263 0 
-0.149244 -0.764328 0 
-0.0986912 -0.791935 0 
-0.0492815 -0.765764 0 
4.16586e-05 -0.79382 0 
0.0492411 -0.765708 0 
0.0987508 -0.791951 0 
0.149196 -0.764326 0 
0.200666 -0.789356 0 
0.252841 -0.765599 0 
0.304862 -0.743741 0 
0.357323 -0.775038 0 
0.408863 -0.751626 0 
0.460863 -0.778382 0 
0.510716 -0.747859 0 
0.561819 -0.769761 0 
0.614041 -0.789274 0 
0.660811 -0.750552 0 
-0.707107 -0.707107 0 
-0.654819 -0.699058 0 
-0.60813 -0.73348 0 
-0.558104 -0.71337 0 
-0.509495 -0.692659 0 
-0.45935 -0.724356 0 
-0.407328 -0.698865 0 
-0.355968 -0.722823 0 
-0.303722 -0.691387 0 
-0.252254 -0.71362 0 
-0.20067 -0.737336 0 
-0.149608 -0.710068 0 
-0.0991558 -0.737129 0 
-0.0495872 -0.709825 0 
-2.23646e-05 -0.737917 0 
0.0494408 -0.709766 0 
0.0991291 -0.737116 0 
0.149502 -0.710042 0 
0.200696 -0.73743 0 
0.252186 -0.713735 0 
0.303753 -0.691518 0 
0.355952 -0.722893 0 
0.407371 -0.698945 0 
0.459374 -0.724407 0 
0.509524 -0.692668 0 
0.558131 -0.713361 0 
0.608151 -0.733462 0 
0.654824 -0.699048 0 
0.707107 -0.707107 0 
-0.750564 -0.660798 0 
-0.699058 -0.654819 0 
-0.647692 -0.647692 0 
-0.603437 -0.675718 0 
-0.55905 -0.655305 0 
-0.508501 -0.639581 0 
-0.457509 -0.671321 0 
-0.405555 -0.646545 0 
-0.354417 -0.670703 0 
-0.302427 -0.639219 0 
-0.251503 -0.661417 0 
-0.20061 -0.684911 0 
-0.149717 -0.655943 0 
-0.0995004 -0.682466 0 
-0.0498216 -0.654561 0 
-5.02113e-05 -0.682664 0 
0.0496787 -0.654499 0 
0.0994374 -0.682501 0 
0.149603 -0.655909 0 
0.200573 -0.684972 0 
0.251388 -0.661524 0 
0.302407 -0.639359 0 
0.354397 -0.670836 0 
0.405575 -0.646641 0 
0.457525 -0.67138 0 
0.508497 -0.639623 0 
0.559063 -0.655324 0 
0.603436 -0.675715 0 
0.64769 -0.64769 0 
0.699048 -0.654824 0 
0.750552 -0.660811 0 
-0.789295 -0.614015 0 
-0.73348 -0.60813 0 
-0.675718 -0.603437 0 
-0.613088 -0.613088 0 
-0.55962 -0.604068 0 
-0.506189 -0.588854 0 
-0.455505 -0.618874 0 
-0.403019 -0.594688 0 
-0.352514 -0.618952 0 
-0.300977 -0.586897 0 
-0.250543 -0.608767 0 
-0.200257 -0.632053 0 
-0.150049 -0.601979 0 
-0.0998281 -0.628222 0 
-0.0500377 -0.599914 0 
-3.12334e-05 -0.628076 0 
0.0498927 -0.599835 0 
0.0997818 -0.628253 0 
0.149924 -0.601867 0 
0.200214 -0.632118 0 
0.250423 -0.608915 0 
0.30086 -0.587085 0 
0.352457 -0.619096 0 
0.402948 -0.594743 0 
0.455483 -0.618952 0 
0.506147 -0.588901 0 
0.55964 -0.604067 0 
0.613069 -0.613069 0 
0.675715 -0.603436 0 
0.733462 -0.608151 0 
0.789274 -0.614041 0 
-0.825268 -0.564741 0 
-0.769772 -0.561786 0 
-0.71337 -0.558104 0 
-0.655305 -0.55905 0 
-0.604068 -0.55962 0 
-0.551031 -0.551031 0 
-0.497922 -0.537596 0 
-0.451508 -0.567021 0 
-0.399773 -0.542431 0 
-0.350494 -0.567003 0 
-0.301574 -0.534146 0 
-0.250874 -0.555692 0 
-0.200542 -0.579013 0 
-0.150324 -0.548268 0 
-0.100169 -0.57443 0 
-0.0500152 -0.545912 0 
-3.29278e-05 -0.574268 0 
0.0499208 -0.545788 0 
0.100058 -0.574485 0 
0.150038 -0.548073 0 
0.200377 -0.579041 0 
0.250556 -0.55585 0 
0.301273 -0.534348 0 
0.350318 -0.567174 0 
0.399615 -0.542384 0 
0.451404 -0.5671 0 
0.497945 -0.537702 0 
0.551073 -0.551073 0 
0.604067 -0.55964 0 
0.655324 -0.559063 0 
0.713361 -0.558131 0 
0.769761 -0.561819 0 
0.825243 -0.564777 0 
-0.857917 -0.513788 0 
-0.802945 -0.512908 0 
-0.747856 -0.510673 0 
-0.692659 -0.509495 0 
-0.639581 -0.508501 0 
-0.588854 -0.506189 0 
-0.537596 -0.497922 0 
-0.486157 -0.486157 0 
-0.444928 -0.512952 0 
-0.401787 -0.486784 0 
-0.351685 -0.513639 0 
-0.299695 -0.48291 0 
-0.250032 -0.503 0 
-0.200501 -0.526165 0 
-0.149489 -0.495195 0 
-0.0999281 -0.521367 0 
-0.0499712 -0.492294 0 
4.64723e-05 -0.520999 0 
0.050147 -0.492108 0 
0.099934 -0.52133 0 
0.14957 -0.494692 0 
0.200133 -0.526255 0 
0.249839 -0.503309 0 
0.299839 -0.483005 0 
0.351514 -0.513798 0 
0.401881 -0.486608 0 
0.444935 -0.513054 0 
0.486228 -0.486228 0 
0.537702 -0.497945 0 
0.588901 -0.506147 0 
0.639623 -0.508497 0 
0.692668 -0.509524 0 
0.747859 -0.510716 0 
0.802929 -0.512965 0 
0.857885 -0.513842 0 
-0.887039 -0.461695 0 
-0.832348 -0.462372 0 
-0.778365 -0.460836 0 
-0.724356 -0.45935 0 
-0.671321 -0.457509 0 
-0.618874 -0.455505 0 
-0.567021 -0.451508 0 
-0.512952 -0.444928 0 
-0.450685 -0.450685 0 
-0.397667 -0.437543 0 
-0.348492 -0.462546 0 
-0.295416 -0.432968 0 
-0.247004 -0.450633 0 
-0.198702 -0.473818 0 
-0.150161 -0.441625 0 
-0.100085 -0.468395 0 
-0.0502271 -0.439281 0 
0.000144229 -0.468374 0 
0.0504178 -0.439106 0 
0.100428 -0.468348 0 
0.150697 -0.441105 0 
0.199103 -0.473881 0 
0.247983 -0.450921 0 
0.296569 -0.432268 0 
0.348831 -0.462562 0 
0.397506 -0.4368 0 
0.450637 -0.450637 0 
0.513054 -0.444935 0 
0.5671 -0.451404 0 
0.618952 -0.455483 0 
0.67138 -0.457525 0 
0.724407 -0.459374 0 
0.778382 -0.460863 0 
0.83234 -0.462414 0 
0.887011 -0.461748 0 
-0.912466 -0.409153 0 
-0.857936 -0.411157 0 
-0.804631 -0.410124 0 
-0.751554 -0.408794 0 
-0.698865 -0.407328 0 
-0.646545 -0.405555 0 
-0.594688 -0.403019 0 
-0.542431 -0.399773 0 
-0.486784 -0.401787 0 
-0.437543 -0.397667 0 
-0.387256 -0.387256 0 
-0.344215 -0.411459 0 
-0.30136 -0.381507 0 
-0.25021 -0.395692 0 
-0.200211 -0.419975 0 
-0.150955 -0.389014 0 
-0.100617 -0.416095 0 
-0.0503197 -0.386922 0 
-4.02994e-05 -0.416525 0 
0.05006 -0.386948 0 
0.100784 -0.416323 0 
0.150432 -0.388572 0 
0.200855 -0.420694 0 
0.25086 -0.396905 0 
0.301746 -0.379789 0 
0.344135 -0.410678 0 
0.385823 -0.385823 0 
0.4368 -0.397506 0 
0.486608 -0.401881 0 
0.542384 -0.399615 0 
0.594743 -0.402948 0 
0.646641 -0.405575 0 
0.698945 -0.407371 0 
0.751626 -0.408863 0 
0.804654 -0.410181 0 
0.857929 -0.411236 0 
0.912429 -0.409236 0 
-0.934288 -0.356519 0 
-0.879963 -0.359855 0 
-0.827415 -0.358606 0 
-0.774971 -0.357337 0 
-0.722823 -0.355968 0 
-0.670703 -0.354417 0 
-0.618952 -0.352514 0 
-0.567003 -0.350494 0 
-0.513639 -0.351685 0 
-0.462546 -0.348492 0 
-0.411459 -0.344215 0 
-0.351697 -0.351697 0 
-0.29839 -0.336232 0 
-0.249846 -0.342529 0 
-0.200971 -0.367271 0 
-0.149995 -0.337521 0 
-0.100435 -0.3646 0 
-0.0498692 -0.335025 0 
-6.88684e-05 -0.365025 0 
0.0495433 -0.334795 0 
0.0996798 -0.364834 0 
0.148162 -0.337172 0 
0.199644 -0.368939 0 
0.24763 -0.345582 0 
0.295348 -0.332889 0 
0.34978 -0.34978 0 
0.410678 -0.344135 0 
0.462562 -0.348831 0 
0.513798 -0.351514 0 
0.567174 -0.350318 0 
0.619096 -0.352457 0 
0.670836 -0.354397 0 
0.722893 -0.355952 0 
0.775038 -0.357323 0 
0.827419 -0.358581 0 
0.879943 -0.359894 0 
0.93426 -0.356593 0 
-0.952721 -0.303845 0 
-0.898929 -0.308871 0 
-0.847481 -0.306888 0 
-0.795641 -0.305781 0 
-0.743684 -0.304815 0 
-0.691387 -0.303722 0 
-0.639219 -0.302427 0 
-0.586897 -0.300977 0 
-0.534146 -0.301574 0 
-0.48291 -0.299695 0 
-0.432968 -0.295416 0 
-0.381507 -0.30136 0 
-0.336232 -0.29839 0 
-0.288184 -0.288184 0 
-0.242975 -0.290577 0 
-0.198059 -0.315051 0 
-0.148383 -0.285894 0 
-0.0994753 -0.313232 0 
-0.0507184 -0.283118 0 
-0.000202902 -0.313447 0 
0.0500077 -0.282824 0 
0.0988289 -0.312817 0 
0.148102 -0.28482 0 
0.195742 -0.317413 0 
0.240766 -0.295824 0 
0.285014 -0.285014 0 
0.332889 -0.295348 0 
0.379789 -0.301746 0 
0.432268 -0.296569 0 
0.483005 -0.299839 0 
0.534348 -0.301273 0 
0.587085 -0.30086 0 
0.639359 -0.302407 0 
0.691518 -0.303753 0 
0.743741 -0.304862 0 
0.795701 -0.305831 0 
0.847482 -0.306946 0 
0.898924 -0.308979 0 
0.952687 -0.303953 0 
-0.96803 -0.250833 0 
-0.916037 -0.258282 0 
-0.866979 -0.254732 0 
-0.816639 -0.25358 0 
-0.765535 -0.252907 0 
-0.71362 -0.252254 0 
-0.661417 -0.251503 0 
-0.608767 -0.250543 0 
-0.555692 -0.250874 0 
-0.503 -0.250032 0 
-0.450633 -0.247004 0 
-0.395692 -0.25021 0 
-0.342529 -0.249846 0 
-0.290577 -0.242975 0 
-0.239946 -0.239946 0 
-0.194478 -0.26004 0 
-0.151293 -0.23238 0 
-0.101048 -0.260904 0 
-0.0503938 -0.232537 0 
-0.000203281 -0.262984 0 
0.050638 -0.232316 0 
0.100942 -0.260855 0 
0.152412 -0.232597 0 
0.195768 -0.261421 0 
0.241873 -0.241873 0 
0.295824 -0.240766 0 
0.345582 -0.24763 0 
0.396905 -0.25086 0 
0.450921 -0.247983 0 
[...]
POINT_DATA 1245 
VECTORS vectors float
0.433978 -0.164413 0.885794 
0.440232 -0.14276 0.886462 
0.444723 -0.120691 0.887499 
0.446887 -0.101875 0.888771 
0.446571 -0.0820246 0.89098 
0.444408 -0.06417 0.893523 
0.439661 -0.0454199 0.897015 
0.432102 -0.0247721 0.901484 
0.423203 -0.00172726 0.906033 
0.412507 0.0278196 0.91053 
0.403201 0.0583092 0.913252 
0.394587 0.0956859 0.913863 
0.38948 0.131276 0.911631 
0.416832 -0.208914 0.88465 
0.426146 -0.186508 0.88522 
0.386588 -0.157424 0.908718 
0.393191 -0.1381 0.909027 
0.403578 -0.119032 0.907169 
0.39209 -0.0975767 0.914737 
0.403562 -0.0800425 0.911444 
0.387816 -0.058379 0.919886 
0.396584 -0.0396201 0.917143 
0.377167 -0.0153649 0.926018 
0.381457 0.00832567 0.924349 
0.363604 0.0359361 0.93086 
0.366985 0.0656752 0.927905 
0.356453 0.0961092 0.929357 
0.350972 0.125253 0.927971 
0.387068 0.164349 0.907286 
0.386025 0.193346 0.901999 
0.393183 -0.254168 0.883632 
0.405866 -0.231516 0.884123 
0.370868 -0.198641 0.907193 
0.379207 -0.177853 0.908059 
0.343476 -0.148115 0.927409 
0.351648 -0.128708 0.927242 
0.36186 -0.110903 0.925612 
0.34372 -0.0882764 0.934914 
0.35917 -0.0727414 0.930433 
0.338013 -0.0511747 0.939749 
0.352961 -0.0340031 0.93502 
0.329696 -0.0115723 0.944016 
0.341861 0.00987932 0.939699 
0.321093 0.0340933 0.946434 
0.333006 0.061654 0.940907 
0.320913 0.0886919 0.942947 
0.314876 0.11559 0.942068 
0.348111 0.152967 0.924889 
0.345744 0.177849 0.92132 
0.38442 0.217372 0.897202 
0.380014 0.236627 0.894202 
0.378908 -0.276713 0.883096 
0.34933 -0.24078 0.905535 
0.360967 -0.219733 0.906322 
0.329013 -0.187503 0.925523 
0.336872 -0.167498 0.926532 
0.304564 -0.139 0.942295 
0.311788 -0.121222 0.942387 
0.322822 -0.103462 0.940788 
0.300582 -0.0817019 0.95025 
0.316244 -0.0660832 0.946374 
0.293717 -0.0455325 0.954807 
0.30997 -0.0293182 0.950294 
0.287278 -0.00837113 0.957811 
0.302325 0.011219 0.953139 
0.282963 0.0336835 0.958539 
0.298521 0.0584359 0.952613 
0.287407 0.0832459 0.954184 
0.280363 0.106696 0.953946 
0.310917 0.140278 0.940028 
0.307372 0.162996 0.937526 
0.342112 0.199216 0.918299 
0.335445 0.217276 0.916661 
0.371014 0.252283 0.893701 
0.34724 -0.320404 0.881343 
0.363382 -0.298967 0.882368 
0.336042 -0.261318 0.904869 
0.308857 -0.227104 0.923597 
0.319851 -0.207373 0.924495 
0.29096 -0.17671 0.940274 
0.297918 -0.1578 0.941458 
0.268387 -0.130875 0.954379 
0.275924 -0.113585 0.954445 
0.285469 -0.0971073 0.953456 
0.262994 -0.0757269 0.961821 
0.276673 -0.060664 0.959047 
0.255268 -0.0412006 0.965992 
0.270459 -0.0254743 0.962395 
0.250031 -0.00606753 0.968219 
0.265429 0.0123213 0.964052 
0.248432 0.0326615 0.968099 
0.265773 0.0557869 0.96242 
0.255184 0.0775732 0.963776 
0.248372 0.099014 0.963591 
0.276109 0.129227 0.952399 
0.271427 0.150006 0.950698 
0.30207 0.182804 0.935594 
0.293492 0.200196 0.934764 
0.324312 0.232765 0.916865 
0.356479 0.26626 0.895561 
0.336716 0.280343 0.898905 
0.330086 -0.341553 0.879991 
0.310491 -0.302506 0.901158 
0.321651 -0.280923 0.904225 
0.29611 -0.245815 0.922981 
0.272069 -0.214557 0.938053 
0.282329 -0.19564 0.939157 
0.256399 -0.166537 0.952116 
0.263001 -0.148347 0.953322 
0.235894 -0.122753 0.963995 
0.242391 -0.106639 0.9643 
0.250972 -0.0909851 0.963709 
0.229172 -0.0705816 0.970824 
0.241043 -0.0560646 0.968894 
0.221377 -0.0375938 0.974463 
0.235081 -0.0224892 0.971716 
0.217095 -0.00447521 0.97614 
0.231953 0.0129613 0.972641 
0.217273 0.0314585 0.975604 
0.234695 0.0528098 0.970633 
0.225195 0.0724625 0.971615 
0.218308 0.0917345 0.971559 
0.243578 0.119258 0.962521 
0.238365 0.138848 0.961199 
0.264898 0.168791 0.949389 
0.255301 0.186237 0.948756 
0.280759 0.215581 0.935254 
0.308593 0.247018 0.91856 
0.293265 0.264254 0.918785 
0.311421 0.296904 0.902699 
0.312892 -0.360639 0.878657 
0.294248 -0.320986 0.900214 
0.276197 -0.284462 0.918039 
0.282482 -0.263693 0.922318 
0.259735 -0.233201 0.937099 
0.239923 -0.203138 0.949301 
0.248737 -0.184481 0.95084 
0.225315 -0.156817 0.961583 
0.230942 -0.139624 0.962897 
0.206237 -0.115334 0.971681 
0.212087 -0.0999996 0.972121 
0.219683 -0.0851569 0.971848 
0.199002 -0.0657881 0.977788 
0.209369 -0.0519014 0.976458 
0.191437 -0.0345729 0.980896 
0.203862 -0.020128 0.978793 
0.187892 -0.00335858 0.982184 
0.201833 0.0129888 0.979334 
0.18903 0.0299398 0.981515 
0.205912 0.0496915 0.977308 
0.197278 0.0675577 0.978017 
0.190864 0.085349 0.977899 
0.213714 0.110651 0.970609 
0.208099 0.129069 0.969554 
0.231241 0.156858 0.960168 
0.22186 0.17489 0.959266 
0.24148 0.202953 0.948946 
0.264467 0.2306 0.936419 
0.254283 0.249285 0.93445 
0.269285 0.281277 0.921069 
0.283305 0.315902 0.905507 
0.29623 -0.376236 0.877892 
0.275794 -0.33229 0.901954 
0.25723 -0.291143 0.921449 
0.247302 -0.254546 0.934905 
0.230326 -0.222334 0.947374 
0.211526 -0.192179 0.958292 
0.218405 -0.173998 0.960221 
0.197068 -0.147539 0.969225 
0.2023 -0.131175 0.970499 
0.179484 -0.108292 0.977782 
0.18455 -0.0937275 0.978344 
0.191114 -0.0797479 0.978323 
0.172076 -0.061546 0.983159 
0.18118 -0.048291 0.982264 
0.165015 -0.0319855 0.985772 
0.176208 -0.0182205 0.984184 
0.16202 -0.00261217 0.986784 
0.174877 0.0128002 0.984507 
0.163531 0.0284689 0.986127 
0.179439 0.0466774 0.982661 
0.171618 0.0630463 0.983144 
0.165637 0.0795659 0.982972 
0.18633 0.102899 0.977084 
0.18065 0.120421 0.976148 
0.200928 0.146692 0.96856 
0.192715 0.164984 0.967286 
0.210073 0.193594 0.958327 
0.224954 0.223174 0.948467 
0.229899 0.257604 0.938502 
0.242725 0.295271 0.924067 
0.255578 0.335922 0.906552 
0.278689 -0.388919 0.878108 
0.259616 -0.345274 0.901879 
0.241631 -0.304327 0.921412 
0.227405 -0.267218 0.93642 
0.215923 -0.23716 0.947171 
0.200605 -0.207137 0.957524 
0.184206 -0.179033 0.966445 
0.190853 -0.163415 0.967921 
0.171241 -0.138531 0.975441 
0.176088 -0.123391 0.97661 
0.155395 -0.102452 0.982525 
0.159597 -0.0883928 0.983217 
0.165535 -0.0749452 0.983352 
0.148095 -0.0577566 0.987285 
0.156181 -0.0451038 0.986698 
0.141631 -0.0297082 0.989474 
0.151816 -0.0166974 0.988268 
0.139041 -0.00209444 0.990284 
0.150784 0.0124587 0.988488 
0.140682 0.0269599 0.989688 
0.155328 0.0440158 0.986882 
0.14818 0.0593836 0.987176 
0.142764 0.0752196 0.986894 
0.161393 0.0961485 0.982195 
0.155482 0.112582 0.981402 
0.173464 0.137125 0.975247 
0.165391 0.153718 0.974175 
0.179513 0.180742 0.967009 
0.192056 0.20942 0.958779 
0.199666 0.238092 0.950498 
0.207889 0.274036 0.938982 
0.218428 0.313613 0.924086 
0.228098 0.356817 0.905899 
0.259794 -0.398453 0.879626 
0.241989 -0.355427 0.902836 
0.225082 -0.315174 0.921956 
0.210305 -0.278459 0.93714 
0.197562 -0.246211 0.948867 
0.185872 -0.217851 0.958119 
0.172389 -0.190633 0.966406 
0.158696 -0.165492 0.973359 
0.164218 -0.152205 0.974611 
0.147045 -0.131807 0.980308 
0.152185 -0.117121 0.981388 
0.133863 -0.0965432 0.986286 
0.137343 -0.0831534 0.987027 
0.142513 -0.0705256 0.987277 
0.126714 -0.0540607 0.990465 
0.134083 -0.0421887 0.990072 
0.120881 -0.0277579 0.992279 
0.130168 -0.0154081 0.991372 
0.118628 -0.00168704 0.992937 
0.129431 0.0118852 0.991517 
0.120114 0.0255393 0.992432 
0.133583 0.041535 0.990167 
0.127092 0.0559379 0.990312 
0.12244 0.0708512 0.989944 
0.138445 0.0913185 0.986151 
0.13201 0.107627 0.985388 
0.147505 0.127612 0.980794 
0.140529 0.14214 0.97982 
0.151717 0.16707 0.974202 
0.162118 0.193677 0.967578 
0.169996 0.22173 0.960176 
0.177671 0.253774 0.950806 
0.185689 0.290721 0.938617 
0.194202 0.331873 0.923118 
0.201842 0.377247 0.90385 
0.238962 -0.405144 0.882471 
0.222587 -0.362652 0.904952 
0.206719 -0.32306 0.923526 
0.192397 -0.286537 0.938552 
0.179498 -0.253633 0.9505 
0.167852 -0.223844 0.960062 
0.156657 -0.196727 0.967862 
0.144996 -0.17068 0.9746 
0.138527 -0.145681 0.979585 
0.126714 -0.124321 0.984118 
0.130925 -0.11018 0.985251 
0.114822 -0.0904872 0.989256 
0.116967 -0.0779033 0.990076 
0.122031 -0.0660879 0.990324 
0.107553 -0.0512039 0.99288 
0.114305 -0.0396791 0.992653 
0.102483 -0.0261426 0.994391 
0.110965 -0.0143 0.993721 
0.100524 -0.00136933 0.994934 
0.110203 0.0115701 0.993842 
0.101819 0.024502 0.994501 
0.114154 0.0390173 0.992697 
0.10811 0.0526151 0.992746 
0.104141 0.0666463 0.992327 
0.118256 0.0861912 0.989235 
0.112544 0.101529 0.988446 
0.122288 0.123473 0.984784 
0.126084 0.149617 0.980672 
0.1345 0.175958 0.975166 
0.142091 0.203524 0.968704 
0.149129 0.233989 0.960734 
0.156268 0.26807 0.950641 
0.163484 0.306437 0.937747 
0.17076 0.348969 0.921445 
0.177064 0.396252 0.900907 
0.215908 -0.40963 0.886334 
0.201384 -0.367541 0.907942 
0.186812 -0.328376 0.925889 
0.173579 -0.292345 0.940428 
0.161409 -0.259324 0.952207 
0.150608 -0.22935 0.961621 
0.140342 -0.202076 0.969262 
0.130972 -0.177019 0.975454 
0.124019 -0.15366 0.98031 
0.116362 -0.134111 0.984111 
0.10727 -0.115204 0.987533 
0.111574 -0.103618 0.988339 
0.0972867 -0.0880713 0.991352 
0.0986768 -0.0745909 0.99232 
0.103076 -0.0629018 0.992683 
0.0905205 -0.0486714 0.994705 
0.0967759 -0.037624 0.994595 
0.0861516 -0.0246928 0.995976 
0.0939944 -0.0134617 0.995482 
0.0844799 -0.00120505 0.996424 
0.0932661 0.011238 0.995578 
0.0853534 0.0234461 0.996075 
0.0963057 0.0377685 0.994635 
0.0905936 0.0509522 0.994584 
0.08762 0.0655146 0.993997 
0.0996671 0.0807159 0.991742 
0.0940829 0.0938284 0.991133 
0.101615 0.113355 0.988345 
0.107179 0.134033 0.985164 
0.111209 0.158819 0.981024 
0.117381 0.185012 0.975701 
0.123587 0.213734 0.969043 
0.129676 0.24552 0.960679 
0.135902 0.281069 0.950016 
0.1422 0.320548 0.936498 
0.148608 0.364319 0.919341 
0.153821 0.413188 0.89756 
0.19054 -0.412667 0.89073 
0.178439 -0.370847 0.91139 
0.165491 -0.332258 0.928557 
0.153148 -0.296271 0.942746 
0.142599 -0.263601 0.954034 
0.132311 -0.233408 0.963335 
0.123403 -0.206132 0.970712 
0.115038 -0.181104 0.976713 
0.108547 -0.158282 0.981409 
0.101648 -0.137768 0.985235 
0.0947785 -0.119334 0.98832 
0.0920178 -0.100611 0.990661 
0.0835361 -0.0835531 0.992996 
0.0815847 -0.0711871 0.994121 
0.0865322 -0.0599663 0.994443 
0.0753974 -0.0462235 0.996082 
0.0811968 -0.0356784 0.996059 
0.0715091 -0.0233878 0.997166 
0.0787697 -0.0126885 0.996812 
0.0700334 -0.0011634 0.997544 
0.0781651 0.010543 0.996885 
0.0710305 0.0220095 0.997231 
0.0807687 0.0358282 0.996089 
0.0755563 0.0480564 0.995983 
0.0733658 0.0614695 0.995409 
0.0808903 0.0790932 0.99358 
0.0825411 0.0998012 0.991578 
0.087207 0.120154 0.988918 
0.0917364 0.141806 0.985635 
0.0953991 0.166518 0.981413 
0.10041 0.193485 0.975952 
0.10552 0.223002 0.96909 
0.110869 0.256201 0.960244 
0.116199 0.292495 0.949181 
0.121886 0.333241 0.93493 
0.127684 0.377764 0.917056 
0.131908 0.427826 0.894184 
0.163118 -0.415047 0.895058 
0.15444 -0.373786 0.914567 
0.142241 -0.335253 0.931329 
0.132645 -0.300001 0.944672 
0.122577 -0.266936 0.955887 
0.114291 -0.236747 0.964826 
0.106133 -0.209016 0.972136 
0.098875 -0.183796 0.977979 
0.0930539 -0.16088 0.982577 
0.0870157 -0.140463 0.986255 
0.0810133 -0.122178 0.989196 
0.0789695 -0.105511 0.991278 
0.0740924 -0.0921655 0.992983 
0.068585 -0.0779692 0.994594 
0.0668789 -0.0662923 0.995556 
0.0712817 -0.0565569 0.995852 
0.0615905 -0.0438225 0.997139 
0.0670637 -0.0337937 0.997176 
0.0582821 -0.0224485 0.998048 
0.0649882 -0.0120349 0.997813 
0.0569933 -0.000842807 0.998374 
0.064278 0.0100778 0.997881 
0.0577003 0.0213224 0.998106 
0.066507 0.0334594 0.997225 
0.0618602 0.0449738 0.997071 
0.0606832 0.0564 0.996562 
0.0648277 0.0713949 0.995339 
0.0683811 0.0869267 0.993865 
0.0696494 0.105295 0.991999 
0.0733594 0.125268 0.989407 
0.0769143 0.147654 0.986044 
0.0802126 0.172846 0.981677 
0.0843496 0.20069 0.976017 
0.0887219 0.23167 0.96874 
0.0930479 0.265596 0.959584 
0.0978498 0.303611 0.947758 
0.102505 0.344379 0.933218 
0.10816 0.389794 0.914528 
0.111119 0.440211 0.890992 
0.133672 -0.417345 0.898863 
0.128502 -0.376972 0.917267 
0.11955 -0.34027 0.932697 
0.11 -0.304946 0.945996 
0.10312 -0.272465 0.956624 
0.0956153 -0.241881 0.965583 
0.0890352 -0.213874 0.972795 
0.0829311 -0.188121 0.978638 
0.0776896 -0.164697 0.98328 
0.0726815 -0.143569 0.986968 
0.0676397 -0.124209 0.989948 
0.0644171 -0.106692 0.992203 
0.0614368 -0.090443 0.994005 
0.0564294 -0.0761517 0.995498 
0.0534762 -0.0633013 0.996561 
0.0567338 -0.0534875 0.996956 
0.0486165 -0.0427546 0.997902 
0.0540148 -0.0327964 0.998001 
0.0464108 -0.0215712 0.99869 
0.0526688 -0.0114993 0.998546 
0.0453537 -0.000607357 0.998971 
0.0517569 0.0102832 0.998607 
0.0456291 0.0217585 0.998721 
0.0527837 0.0324084 0.99808 
0.0489783 0.0437541 0.997841 
0.049794 0.0586523 0.997036 
0.0530176 0.0735587 0.995881 
0.0557966 0.0904947 0.994333 
0.057103 0.110047 0.992285 
0.0600849 0.131209 0.989532 
0.0628984 0.154651 0.985965 
0.0657563 0.181011 0.98128 
0.0690895 0.210044 0.975248 
0.0725537 0.241994 0.967561 
0.0763006 0.277343 0.957737 
0.0798435 0.31512 0.945687 
0.0844354 0.35709 0.930246 
0.0893101 0.400463 0.91195 
0.0909622 0.45033 0.888216 
0.101145 -0.419956 0.901891 
0.103879 -0.384534 0.917248 
0.0935603 -0.348595 0.932592 
0.0884798 -0.313935 0.945313 
0.0823458 -0.280662 0.956268 
0.0769304 -0.249437 0.965331 
0.0719717 -0.22069 0.972685 
0.0670019 -0.194234 0.978664 
0.0627923 -0.170268 0.983395 
0.0588683 -0.148539 0.987153 
0.0547549 -0.129113 0.990117 
0.0520629 -0.111013 0.992454 
0.0493844 -0.0951233 0.99424 
0.0461909 -0.0804721 0.995686 
0.0432756 -0.0664445 0.996851 
0.0429051 -0.0529229 0.997676 
0.0377186 -0.0408169 0.998454 
0.0424185 -0.0311209 0.998615 
0.0354508 -0.0200198 0.999171 
0.0415466 -0.0108849 0.999077 
0.0347612 -0.00108201 0.999395 
0.0406552 0.00991583 0.999124 
0.0354875 0.020519 0.999159 
0.0397951 0.0335085 0.998646 
0.0390498 0.0480057 0.998083 
0.0401381 0.063667 0.997164 
0.0422818 0.079502 0.995938 
0.0440147 0.0973029 0.994281 
0.0454768 0.116995 0.992091 
0.0475781 0.139031 0.989144 
0.0498097 0.163479 0.985289 
0.0520357 0.190865 0.980236 
0.054646 0.221268 0.973681 
0.0572448 0.254597 0.965351 
0.0600431 0.291171 0.954785 
0.063187 0.330691 0.941621 
0.0662231 0.371616 0.926021 
0.0720105 0.4149 0.907013 
0.0702608 0.458255 0.88604 
0.0728176 -0.422892 0.903249 
0.0729643 -0.375535 0.923932 
0.0670704 -0.333051 0.94052 
0.0615646 -0.294952 0.953527 
0.058186 -0.260849 0.963624 
0.0543317 -0.229926 0.97169 
0.0508171 -0.20198 0.97807 
0.0476455 -0.176775 0.983097 
0.0446518 -0.154172 0.987035 
0.0416761 -0.133848 0.990125 
0.0393872 -0.115549 0.992521 
0.03736 -0.0991738 0.994369 
0.0352823 -0.0846131 0.995789 
0.0331915 -0.0711734 0.996912 
0.0323688 -0.0585249 0.997761 
0.0304833 -0.0479012 0.998387 
0.0269396 -0.0370344 0.998951 
0.0314828 -0.029293 0.999075 
0.02516 -0.0205389 0.999472 
0.0305866 -0.0106245 0.999476 
0.0246006 -8.36963e-05 0.999697 
0.0303268 0.00871537 0.999502 
0.0254959 0.0173485 0.999524 
0.0283504 0.0285801 0.999189 
0.0294731 0.0400707 0.998762 
0.0292382 0.0536332 0.998133 
0.0300839 0.0685531 0.997194 
0.0315539 0.0849417 0.995886 
0.0328427 0.1031 0.994129 
0.0337996 0.124113 0.991692 
0.0354503 0.147068 0.988491 
0.0369791 0.173132 0.984204 
0.0386276 0.202155 0.978592 
0.0404607 0.234587 0.971253 
0.0424964 0.270802 0.961697 
0.0444672 0.310787 0.949439 
0.0477475 0.356231 0.933177 
0.0518747 0.40638 0.912231 
0.0524317 0.46343 0.884581 
0.0420229 -0.426404 0.903556 
0.0475566 -0.387781 0.920524 
0.0431186 -0.349262 0.936033 
0.0406268 -0.310823 0.949599 
0.0385702 -0.274872 0.960707 
0.0363115 -0.242143 0.969561 
0.0343584 -0.212642 0.976526 
0.0322738 -0.186176 0.981986 
0.0303776 -0.162501 0.986241 
0.0284782 -0.141458 0.989534 
0.0268059 -0.122492 0.992107 
0.0254447 -0.1056 0.994083 
0.0240561 -0.090518 0.995604 
0.0226285 -0.076743 0.996794 
0.021977 -0.0640469 0.997705 
0.0206663 -0.0524616 0.998409 
0.0188846 -0.0418405 0.998946 
0.0195852 -0.0298139 0.999364 
0.0159735 -0.0194856 0.999683 
0.0213234 -0.0101155 0.999721 
0.0157466 -0.000390561 0.999876 
0.0187762 0.00997103 0.999774 
0.0177365 0.0227636 0.999584 
0.0189691 0.0342546 0.999233 
0.0195226 0.0467175 0.998717 
0.0195477 0.060876 0.997954 
0.0203136 0.0763552 0.996874 
0.0211677 0.0934821 0.995396 
0.0218579 0.11257 0.993403 
0.0226041 0.13415 0.990703 
0.0235113 0.158411 0.987093 
0.0244563 0.18563 0.982315 
0.0254766 0.21633 0.975988 
0.026546 0.250587 0.96773 
0.0278907 0.288921 0.956946 
0.0294127 0.331082 0.943144 
0.031526 0.376276 0.925971 
0.035358 0.421846 0.905978 
0.0329008 0.466805 0.883748 
0.0160275 -0.429907 0.902731 
0.0191472 -0.37905 0.925178 
0.0190382 -0.333866 0.942428 
0.0180127 -0.293379 0.955827 
0.0177115 -0.257517 0.966111 
0.0170923 -0.225623 0.974065 
0.0162773 -0.197241 0.98022 
0.0155088 -0.172017 0.984972 
0.0146059 -0.149568 0.988644 
0.0137697 -0.129554 0.991477 
0.0130762 -0.111732 0.993652 
0.0123877 -0.0958058 0.995323 
0.011667 -0.0815328 0.996602 
0.0113269 -0.0684324 0.997591 
0.0107313 -0.0567455 0.998331 
0.0096836 -0.0458337 0.998902 
0.0102787 -0.0352665 0.999325 
0.00956177 -0.026226 0.99961 
0.00634908 -0.0161492 0.999849 
0.0123719 -0.0101662 0.999872 
0.00616691 -0.00351898 0.999975 
0.00933525 0.00656924 0.999935 
0.00981946 0.0162273 0.99982 
0.00897395 0.0275345 0.999581 
0.00972855 0.0392855 0.999181 
0.00977504 0.0522562 0.998586 
0.00989937 0.0668614 0.997713 
0.0102409 0.0831255 0.996486 
0.0106128 0.101084 0.994821 
0.0108363 0.121456 0.992538 
0.0110879 0.144456 0.989449 
0.0114344 0.170265 0.985332 
0.0117118 0.199408 0.979847 
0.0120687 0.23225 0.972581 
0.0125022 0.269228 0.962995 
0.012965 0.310857 0.950368 
0.0143474 0.357924 0.933641 
0.0157079 0.410322 0.911805 
0.0157231 0.468623 0.883258 
-0.00972639 -0.43336 0.901169 
-0.00664229 -0.393436 0.919328 
-0.00531027 -0.353123 0.935562 
-0.00328293 -0.312585 0.949884 
-0.00194029 -0.274975 0.961449 
-0.00114017 -0.241145 0.970489 
-0.000522516 -0.211056 0.977474 
-0.000158651 -0.184315 0.982867 
5.2316e-05 -0.160632 0.987014 
0.000174617 -0.139569 0.990212 
0.000227076 -0.120804 0.992676 
0.000305518 -0.104174 0.994559 
0.000335701 -0.0891925 0.996014 
0.000362005 -0.0755435 0.997142 
0.000364364 -0.0633457 0.997992 
0.000278264 -0.0521233 0.998641 
0.000255044 -0.0410655 0.999156 
0.000352857 -0.0317634 0.999495 
0.000182591 -0.0222415 0.999753 
0.000336435 -0.00988033 0.999951 
0.000482824 0.00268412 0.999996 
0.000307394 0.0126817 0.99992 
0.000365675 0.0225435 0.999746 
0.000342323 0.0346557 0.999399 
0.000216133 0.0469818 0.998896 
0.000155545 0.0606553 0.998159 
9.08005e-05 0.0760265 0.997106 
-3.2106e-05 0.0930153 0.995665 
-0.000173834 0.112048 0.993703 
-0.000401123 0.133488 0.99105 
-0.000708461 0.157687 0.987489 
-0.00104408 0.18494 0.982749 
-0.00140659 0.215693 0.97646 
-0.00181819 0.250306 0.968165 
-0.00207872 0.289167 0.957276 
-0.00239352 0.332256 0.943186 
-0.0026542 0.378509 0.925594 
-0.00199185 0.424192 0.90557 
-0.00214567 0.469073 0.883157 
-0.0339078 -0.435556 0.899523 
-0.0316754 -0.383683 0.922921 
-0.0261411 -0.336905 0.941176 
-0.0229796 -0.295467 0.955076 
-0.020388 -0.25882 0.96571 
-0.0183923 -0.22642 0.973856 
-0.0167696 -0.197653 0.980129 
-0.015441 -0.172156 0.984949 
-0.0142386 -0.149507 0.988658 
-0.0133142 -0.129345 0.99151 
-0.0125361 -0.111478 0.993688 
-0.0116907 -0.0955387 0.995357 
-0.0109649 -0.0811954 0.996638 
-0.0105209 -0.0680714 0.997625 
-0.0101995 -0.0564277 0.998355 
-0.00912976 -0.0456198 0.998917 
-0.00980037 -0.0351208 0.999335 
-0.00907412 -0.0260081 0.999621 
-0.00560243 -0.0162091 0.999853 
-0.0117452 -0.00972667 0.999884 
-0.00559104 -0.00359531 0.999978 
-0.00856511 0.00671965 0.999941 
-0.00903721 0.0162691 0.999827 
-0.00828903 0.0276336 0.999584 
-0.00912362 0.0394629 0.999179 
-0.0094598 0.0525198 0.998575 
-0.00963655 0.0671299 0.997698 
-0.0101873 0.0833611 0.996467 
-0.0107167 0.101507 0.994777 
-0.0113565 0.121933 0.992473 
-0.0121843 0.145027 0.989353 
-0.0131317 0.170914 0.985199 
-0.0141717 0.200115 0.97967 
-0.0153025 0.232968 0.972364 
-0.0165013 0.269863 0.962757 
-0.0178208 0.311366 0.950123 
-0.0190963 0.357858 0.933581 