# vtk DataFile Version 3.0 
Exported using Morpho https://github.com/Morpho-lang/morpho 
ASCII 
DATASET UNSTRUCTURED_GRID 

POINTS 1245 float 
-0.303845 -0.952721 0 
-0.250833 -0.96803 0 
-0.195084 -0.980787 0 
-0.146308 -0.989239 0 
-0.0940719 -0.995565 0 
-0.0475118 -0.998871 0 
-0.000246339 -1 0 
0.0470875 -0.998891 0 
0.0937543 -0.995595 0 
0.146139 -0.989264 0 
0.195062 -0.980791 0 
0.250843 -0.968028 0 
0.303953 -0.952687 0 
-0.409153 -0.912466 0 
-0.356519 -0.934288 0 
-0.308871 -0.898929 0 
-0.258282 -0.916037 0 
-0.207345 -0.934859 0 
-0.154868 -0.930629 0 
-0.104343 -0.948989 0 
-0.0520099 -0.939193 0 
-8.5762e-05 -0.954582 0 
0.0518744 -0.939288 0 
0.104354 -0.949042 0 
0.154696 -0.9306 0 
0.207366 -0.934975 0 
0.258274 -0.916081 0 
0.308979 -0.898924 0 
0.356593 -0.93426 0 
0.409236 -0.912429 0 
-0.513788 -0.857917 0 
-0.461695 -0.887039 0 
-0.411157 -0.857936 0 
-0.359855 -0.879963 0 
-0.306888 -0.847481 0 
-0.254732 -0.866979 0 
-0.201991 -0.889059 0 
-0.149956 -0.874108 0 
-0.100608 -0.900088 0 
-0.0497575 -0.880388 0 
2.4595e-05 -0.904789 0 
0.0496869 -0.8804 0 
0.100612 -0.900177 0 
0.149872 -0.874171 0 
0.202071 -0.889165 0 
0.254695 -0.867031 0 
0.306946 -0.847482 0 
0.359894 -0.879943 0 
0.411236 -0.857929 0 
0.461748 -0.887011 0 
0.513842 -0.857885 0 
-0.564741 -0.825268 0 
-0.512908 -0.802945 0 
-0.462372 -0.832348 0 
-0.410124 -0.804631 0 
-0.358606 -0.827415 0 
-0.305781 -0.795641 0 
-0.25358 -0.816639 0 
-0.200756 -0.839997 0 
-0.149043 -0.818944 0 
-0.0987265 -0.846667 0 
-0.0490473 -0.822548 0 
5.00659e-05 -0.849932 0 
0.0490834 -0.822542 0 
0.0987838 -0.846676 0 
0.148997 -0.818924 0 
0.200826 -0.840131 0 
0.253508 -0.816728 0 
0.305831 -0.795701 0 
0.358581 -0.827419 0 
0.410181 -0.804654 0 
0.462414 -0.83234 0 
0.512965 -0.802929 0 
0.564777 -0.825243 0 
-0.660798 -0.750564 0 
-0.614015 -0.789295 0 
-0.561786 -0.769772 0 
-0.510673 -0.747856 0 
-0.460836 -0.778365 0 
-0.408794 -0.751554 0 
-0.357337 -0.774971 0 
-0.304815 -0.743684 0 
-0.252907 -0.765535 0 
-0.200631 -0.789263 0 
-0.149244 -0.764328 0 
-0.0986912 -0.791935 0 
-0.0492815 -0.765764 0 
4.16586e-05 -0.79382 0 
0.0492411 -0.765708 0 
0.0987508 -0.791951 0 
0.149196 -0.764326 0 
0.200666 -0.789356 0 
0.252841 -0.765599 0 
0.304862 -0.743741 0 
0.357323 -0.775038 0 
0.408863 -0.751626 0 
0.460863 -0.778382 0 
0.510716 -0.747859 0 
0.561819 -0.769761 0 
0.614041 -0.789274 0 
0.660811 -0.750552 0 
-0.707107 -0.707107 0 
-0.654819 -0.699058 0 
-0.60813 -0.73348 0 
-0.558104 -0.71337 0 
-0.509495 -0.692659 0 
-0.45935 -0.724356 0 
-0.407328 -0.698865 0 
-0.355968 -0.722823 0 
-0.303722 -0.691387 0 
-0.252254 -0.71362 0 
-0.20067 -0.737336 0 
-0.149608 -0.710068 0 
-0.0991558 -0.737129 0 
-0.0495872 -0.709825 0 
-2.23646e-05 -0.737917 0 
0.0494408 -0.709766 0 
0.0991291 -0.737116 0 
0.149502 -0.710042 0 
0.200696 -0.73743 0 
0.252186 -0.713735 0 
0.303753 -0.691518 0 
0.355952 -0.722893 0 
0.407371 -0.698945 0 
0.459374 -0.724407 0 
0.509524 -0.692668 0 
0.558131 -0.713361 0 
0.608151 -0.733462 0 
0.654824 -0.699048 0 
0.707107 -0.707107 0 
-0.750564 -0.660798 0 
-0.699058 -0.654819 0 
-0.647692 -0.647692 0 
-0.603437 -0.675718 0 
-0.55905 -0.655305 0 
-0.508501 -0.639581 0 
-0.457509 -0.671321 0 
-0.405555 -0.646545 0 
-0.354417 -0.670703 0 
-0.302427 -0.639219 0 
-0.251503 -0.661417 0 
-0.20061 -0.684911 0 
-0.149717 -0.655943 0 
-0.0995004 -0.682466 0 
-0.0498216 -0.654561 0 
-5.02113e-05 -0.682664 0 
0.0496787 -0.654499 0 
0.0994374 -0.682501 0 
0.149603 -0.655909 0 
0.200573 -0.684972 0 
0.251388 -0.661524 0 
0.302407 -0.639359 0 
0.354397 -0.670836 0 
0.405575 -0.646641 0 
0.457525 -0.67138 0 
0.508497 -0.639623 0 
0.559063 -0.655324 0 
0.603436 -0.675715 0 
0.64769 -0.64769 0 
0.699048 -0.654824 0 
0.750552 -0.660811 0 
-0.789295 -0.614015 0 
-0.73348 -0.60813 0 
-0.675718 -0.603437 0 
-0.613088 -0.613088 0 
-0.55962 -0.604068 0 
-0.506189 -0.588854 0 
-0.455505 -0.618874 0 
-0.403019 -0.594688 0 
-0.352514 -0.618952 0 
-0.300977 -0.586897 0 
-0.250543 -0.608767 0 
-0.200257 -0.632053 0 
-0.150049 -0.601979 0 
-0.0998281 -0.628222 0 
-0.0500377 -0.599914 0 
-3.12334e-05 -0.628076 0 
0.0498927 -0.599835 0 
0.0997818 -0.628253 0 
0.149924 -0.601867 0 
0.200214 -0.632118 0 
0.250423 -0.608915 0 
0.30086 -0.587085 0 
0.352457 -0.619096 0 
0.402948 -0.594743 0 
0.455483 -0.618952 0 
0.506147 -0.588901 0 
0.55964 -0.604067 0 
0.613069 -0.613069 0 
0.675715 -0.603436 0 
0.733462 -0.608151 0 
0.789274 -0.614041 0 
-0.825268 -0.564741 0 
-0.769772 -0.561786 0 
-0.71337 -0.558104 0 
-0.655305 -0.55905 0 
-0.604068 -0.55962 0 
-0.551031 -0.551031 0 
-0.497922 -0.537596 0 
-0.451508 -0.567021 0 
-0.399773 -0.542431 0 
-0.350494 -0.567003 0 
-0.301574 -0.534146 0 
-0.250874 -0.555692 0 
-0.200542 -0.579013 0 
-0.150324 -0.548268 0 
-0.100169 -0.57443 0 
-0.0500152 -0.545912 0 
-3.29278e-05 -0.574268 0 
0.0499208 -0.545788 0 
0.100058 -0.574485 0 
0.150038 -0.548073 0 
0.200377 -0.579041 0 
0.250556 -0.55585 0 
0.301273 -0.534348 0 
0.350318 -0.567174 0 
0.399615 -0.542384 0 
0.451404 -0.5671 0 
0.497945 -0.537702 0 
0.551073 -0.551073 0 
0.604067 -0.55964 0 
0.655324 -0.559063 0 
0.713361 -0.558131 0 
0.769761 -0.561819 0 
0.825243 -0.564777 0 
-0.857917 -0.513788 0 
-0.802945 -0.512908 0 
-0.747856 -0.510673 0 
-0.692659 -0.509495 0 
-0.639581 -0.508501 0 
-0.588854 -0.506189 0 
-0.537596 -0.497922 0 
-0.486157 -0.486157 0 
-0.444928 -0.512952 0 
-0.401787 -0.486784 0 
-0.351685 -0.513639 0 
-0.299695 -0.48291 0 
-0.250032 -0.503 0 
-0.200501 -0.526165 0 
-0.149489 -0.495195 0 
-0.0999281 -0.521367 0 
-0.0499712 -0.492294 0 
4.64723e-05 -0.520999 0 
0.050147 -0.492108 0 
0.099934 -0.52133 0 
0.14957 -0.494692 0 
0.200133 -0.526255 0 
0.249839 -0.503309 0 
0.299839 -0.483005 0 
0.351514 -0.513798 0 
0.401881 -0.486608 0 
0.444935 -0.513054 0 
0.486228 -0.486228 0 
0.537702 -0.497945 0 
0.588901 -0.506147 0 
0.639623 -0.508497 0 
0.692668 -0.509524 0 
0.747859 -0.510716 0 
0.802929 -0.512965 0 
0.857885 -0.513842 0 
-0.887039 -0.461695 0 
-0.832348 -0.462372 0 
-0.778365 -0.460836 0 
-0.724356 -0.45935 0 
-0.671321 -0.457509 0 
-0.618874 -0.455505 0 
-0.567021 -0.451508 0 
-0.512952 -0.444928 0 
-0.450685 -0.450685 0 
-0.397667 -0.437543 0 
-0.348492 -0.462546 0 
-0.295416 -0.432968 0 
-0.247004 -0.450633 0 
-0.198702 -0.473818 0 
-0.150161 -0.441625 0 
-0.100085 -0.468395 0 
-0.0502271 -0.439281 0 
0.000144229 -0.468374 0 
0.0504178 -0.439106 0 
0.100428 -0.468348 0 
0.150697 -0.441105 0 
0.199103 -0.473881 0 
0.247983 -0.450921 0 
0.296569 -0.432268 0 
0.348831 -0.462562 0 
0.397506 -0.4368 0 
0.450637 -0.450637 0 
0.513054 -0.444935 0 
0.5671 -0.451404 0 
0.618952 -0.455483 0 
0.67138 -0.457525 0 
0.724407 -0.459374 0 
0.778382 -0.460863 0 
0.83234 -0.462414 0 
0.887011 -0.461748 0 
-0.912466 -0.409153 0 
-0.857936 -0.411157 0 
-0.804631 -0.410124 0 
-0.751554 -0.408794 0 
-0.698865 -0.407328 0 
-0.646545 -0.405555 0 
-0.594688 -0.403019 0 
-0.542431 -0.399773 0 
-0.486784 -0.401787 0 
-0.437543 -0.397667 0 
-0.387256 -0.387256 0 
-0.344215 -0.411459 0 
-0.30136 -0.381507 0 
-0.25021 -0.395692 0 
-0.200211 -0.419975 0 
-0.150955 -0.389014 0 
-0.100617 -0.416095 0 
-0.0503197 -0.386922 0 
-4.02994e-05 -0.416525 0 
0.05006 -0.386948 0 
0.100784 -0.416323 0 
0.150432 -0.388572 0 
0.200855 -0.420694 0 
0.25086 -0.396905 0 
0.301746 -0.379789 0 
0.344135 -0.410678 0 
0.385823 -0.385823 0 
0.4368 -0.397506 0 
0.486608 -0.401881 0 
0.542384 -0.399615 0 
0.594743 -0.402948 0 
0.646641 -0.405575 0 
0.698945 -0.407371 0 
0.751626 -0.408863 0 
0.804654 -0.410181 0 
0.857929 -0.411236 0 
0.912429 -0.409236 0 
-0.934288 -0.356519 0 
-0.879963 -0.359855 0 
-0.827415 -0.358606 0 
-0.774971 -0.357337 0 
-0.722823 -0.355968 0 
-0.670703 -0.354417 0 
-0.618952 -0.352514 0 
-0.567003 -0.350494 0 
-0.513639 -0.351685 0 
-0.462546 -0.348492 0 
-0.411459 -0.344215 0 
-0.351697 -0.351697 0 
-0.29839 -0.336232 0 
-0.249846 -0.342529 0 
-0.200971 -0.367271 0 
-0.149995 -0.337521 0 
-0.100435 -0.3646 0 
-0.0498692 -0.335025 0 
-6.88684e-05 -0.365025 0 
0.0495433 -0.334795 0 
0.0996798 -0.364834 0 
0.148162 -0.337172 0 
0.199644 -0.368939 0 
0.24763 -0.345582 0 
0.295348 -0.332889 0 
0.34978 -0.34978 0 
0.410678 -0.344135 0 
0.462562 -0.348831 0 
0.513798 -0.351514 0 
0.567174 -0.350318 0 
0.619096 -0.352457 0 
0.670836 -0.354397 0 
0.722893 -0.355952 0 
0.775038 -0.357323 0 
0.827419 -0.358581 0 
0.879943 -0.359894 0 
0.93426 -0.356593 0 
-0.952721 -0.303845 0 
-0.898929 -0.308871 0 
-0.847481 -0.306888 0 
-0.795641 -0.305781 0 
-0.743684 -0.304815 0 
-0.691387 -0.303722 0 
-0.639219 -0.302427 0 
-0.586897 -0.300977 0 
-0.534146 -0.301574 0 
-0.48291 -0.299695 0 
-0.432968 -0.295416 0 
-0.381507 -0.30136 0 
-0.336232 -0.29839 0 
-0.288184 -0.288184 0 
-0.242975 -0.290577 0 
-0.198059 -0.315051 0 
-0.148383 -0.285894 0 
-0.0994753 -0.313232 0 
-0.0507184 -0.283118 0 
-0.000202902 -0.313447 0 
0.0500077 -0.282824 0 
0.0988289 -0.312817 0 
0.148102 -0.28482 0 
0.195742 -0.317413 0 
0.240766 -0.295824 0 
0.285014 -0.285014 0 
0.332889 -0.295348 0 
0.379789 -0.301746 0 
0.432268 -0.296569 0 
0.483005 -0.299839 0 
0.534348 -0.301273 0 
0.587085 -0.30086 0 
0.639359 -0.302407 0 
0.691518 -0.303753 0 
0.743741 -0.304862 0 
0.795701 -0.305831 0 
0.847482 -0.306946 0 
0.898924 -0.308979 0 
0.952687 -0.303953 0 
-0.96803 -0.250833 0 
-0.916037 -0.258282 0 
-0.866979 -0.254732 0 
-0.816639 -0.25358 0 
-0.765535 -0.252907 0 
-0.71362 -0.252254 0 
-0.661417 -0.251503 0 
-0.608767 -0.250543 0 
-0.555692 -0.250874 0 
-0.503 -0.250032 0 
-0.450633 -0.247004 0 
-0.395692 -0.25021 0 
-0.342529 -0.249846 0 
-0.290577 -0.242975 0 
-0.239946 -0.239946 0 
-0.194478 -0.26004 0 
-0.151293 -0.23238 0 
-0.101048 -0.260904 0 
-0.0503938 -0.232537 0 
-0.000203281 -0.262984 0 
0.050638 -0.232316 0 
0.100942 -0.260855 0 
0.152412 -0.232597 0 
0.195768 -0.261421 0 
0.241873 -0.241873 0 
0.295824 -0.240766 0 
0.345582 -0.24763 0 
0.396905 -0.25086 0 
0.450921 -0.247983 0 
[...]
POINT_DATA 1245 
VECTORS vectors float
0.391675 -0.15603 0.906778 
0.39744 -0.134964 0.907649 
0.402899 -0.113888 0.908131 
0.406522 -0.0972564 0.90845 
0.407963 -0.0812497 0.909376 
0.406392 -0.0681269 0.911156 
0.401184 -0.0550462 0.914342 
0.391402 -0.0399617 0.919352 
0.378864 -0.0215241 0.925202 
0.362577 0.00532737 0.931939 
0.348157 0.0363216 0.936732 
0.336002 0.0780162 0.938624 
0.331655 0.119204 0.935839 
0.378554 -0.19744 0.904276 
0.385535 -0.177052 0.905547 
0.343892 -0.147634 0.927331 
0.349932 -0.129636 0.927762 
0.359795 -0.112552 0.926218 
0.349163 -0.0932573 0.93241 
0.361338 -0.07898 0.929084 
0.345598 -0.061708 0.936351 
0.354162 -0.0479027 0.933957 
0.332216 -0.028036 0.942787 
0.333684 -0.00867819 0.942645 
0.312302 0.0178941 0.949814 
0.31254 0.047605 0.948711 
0.301169 0.0801725 0.950194 
0.297787 0.111897 0.948052 
0.334105 0.156489 0.929454 
0.340741 0.186293 0.921515 
0.359023 -0.236001 0.902998 
0.369951 -0.216993 0.903355 
0.331804 -0.184423 0.925145 
0.338239 -0.166077 0.92629 
0.300746 -0.136853 0.943834 
0.307409 -0.12002 0.943978 
0.31794 -0.104139 0.942374 
0.298788 -0.0845113 0.95057 
0.315318 -0.0719997 0.946251 
0.292806 -0.0540797 0.954641 
0.308136 -0.041296 0.950446 
0.282458 -0.0218428 0.959031 
0.293257 -0.00442537 0.956023 
0.270373 0.0189254 0.96257 
0.280022 0.0448098 0.958947 
0.268501 0.0729955 0.96051 
0.264346 0.100036 0.959226 
0.299133 0.140635 0.943791 
0.302509 0.164258 0.938886 
0.34741 0.206862 0.914611 
0.349592 0.219087 0.910926 
0.34559 -0.255059 0.903057 
0.313566 -0.220364 0.923643 
0.323755 -0.202498 0.924217 
0.289381 -0.17117 0.941785 
0.295411 -0.153976 0.942881 
0.261472 -0.126745 0.956853 
0.267908 -0.11143 0.956979 
0.277895 -0.096726 0.955729 
0.255395 -0.0774415 0.96373 
0.270812 -0.0652797 0.960416 
0.247536 -0.0479032 0.967694 
0.263427 -0.0354827 0.964027 
0.239454 -0.0173504 0.970753 
0.2533 -0.00116534 0.967387 
0.232997 0.019578 0.97228 
0.247338 0.0428071 0.967983 
0.236864 0.0667421 0.969248 
0.232109 0.0893919 0.968573 
0.264109 0.1242 0.956463 
0.264834 0.144534 0.953401 
0.30454 0.181659 0.935016 
0.301965 0.193727 0.933427 
0.343849 0.226077 0.911404 
0.31414 -0.294991 0.902383 
0.330195 -0.274759 0.903039 
0.301215 -0.238096 0.923352 
0.272285 -0.204932 0.94014 
0.28186 -0.18812 0.940833 
0.25114 -0.158696 0.954853 
0.256572 -0.14261 0.955946 
0.225935 -0.117275 0.967057 
0.231947 -0.103164 0.967242 
0.240639 -0.0897029 0.966461 
0.217625 -0.071087 0.97344 
0.23072 -0.059434 0.971203 
0.208886 -0.0429718 0.976995 
0.22335 -0.0308347 0.97425 
0.202413 -0.0142403 0.979197 
0.216765 0.00101859 0.976223 
0.199697 0.0191559 0.979671 
0.216021 0.0402327 0.97556 
0.206689 0.0604601 0.976537 
0.201709 0.0797949 0.97619 
0.230659 0.109992 0.966798 
0.229358 0.127954 0.964895 
0.263512 0.160331 0.951239 
0.257665 0.172678 0.950679 
0.2925 0.202743 0.934526 
0.328891 0.232141 0.915391 
0.306087 0.241084 0.920972 
0.298033 -0.316106 0.900696 
0.277518 -0.276171 0.92017 
0.287573 -0.255678 0.923001 
0.260814 -0.221172 0.939712 
0.235599 -0.190824 0.952932 
0.244203 -0.174682 0.953861 
0.217026 -0.147057 0.965025 
0.22184 -0.131937 0.966116 
0.194011 -0.108248 0.975009 
0.199205 -0.0952807 0.975315 
0.206622 -0.0828968 0.974903 
0.184554 -0.0652984 0.980651 
0.195485 -0.0542754 0.979204 
0.175678 -0.038882 0.98368 
0.188435 -0.0272684 0.981707 
0.170458 -0.0122206 0.985289 
0.184254 0.00207687 0.982876 
0.170025 0.0179416 0.985276 
0.18662 0.037028 0.981734 
0.178403 0.0543399 0.982456 
0.173405 0.0710886 0.982282 
0.199441 0.0977045 0.975027 
0.196811 0.114072 0.973783 
0.225727 0.142849 0.96366 
0.218192 0.155942 0.963366 
0.245997 0.183173 0.951805 
0.276236 0.211721 0.937479 
0.259527 0.225648 0.939004 
0.277081 0.256076 0.926095 
0.283552 -0.335472 0.898363 
0.263402 -0.294025 0.918787 
0.244072 -0.256826 0.935131 
0.24864 -0.237176 0.939109 
0.225056 -0.206964 0.952111 
0.204173 -0.178006 0.962615 
0.211059 -0.162113 0.963936 
0.186746 -0.13612 0.972932 
0.190728 -0.12194 0.97404 
0.165648 -0.0998313 0.981119 
0.169983 -0.0878404 0.981524 
0.176177 -0.0764325 0.981387 
0.155618 -0.0599477 0.985997 
0.164741 -0.0496414 0.985087 
0.147102 -0.0354463 0.988486 
0.158309 -0.0245242 0.987085 
0.142835 -0.0109278 0.989686 
0.155619 0.00227744 0.987815 
0.143643 0.0162243 0.989497 
0.159634 0.0334886 0.986608 
0.152406 0.0485389 0.987125 
0.147675 0.0633655 0.987004 
0.17081 0.0871198 0.981445 
0.167461 0.102345 0.980552 
0.192059 0.128491 0.972936 
0.184552 0.142734 0.972403 
0.205517 0.168685 0.964006 
0.22966 0.194447 0.953649 
0.219323 0.210964 0.952571 
0.234133 0.241734 0.941672 
0.247128 0.276396 0.928727 
0.271006 -0.35056 0.896473 
0.248021 -0.304377 0.919696 
0.227343 -0.262226 0.937845 
0.21507 -0.22616 0.950051 
0.196851 -0.194757 0.960895 
0.177012 -0.165777 0.970147 
0.18179 -0.15036 0.971774 
0.159894 -0.125741 0.979093 
0.163231 -0.112556 0.980146 
0.140517 -0.0919757 0.985797 
0.143956 -0.0808516 0.986276 
0.149087 -0.0703494 0.986318 
0.130453 -0.0551742 0.989918 
0.138122 -0.0455668 0.989366 
0.122563 -0.0325571 0.991927 
0.132362 -0.0223883 0.990949 
0.119001 -0.010124 0.992843 
0.130566 0.00201721 0.991438 
0.120364 0.0144015 0.992625 
0.135195 0.0299013 0.990368 
0.128835 0.0431809 0.990726 
0.124508 0.0565427 0.990606 
0.145013 0.0779374 0.986355 
0.141311 0.0922013 0.985662 
0.162341 0.116542 0.979828 
0.155983 0.131553 0.97896 
0.174211 0.158102 0.971933 
0.189827 0.185793 0.964078 
0.195263 0.21853 0.956095 
0.207918 0.256176 0.944004 
0.220447 0.298416 0.928628 
0.25831 -0.361326 0.895946 
0.235695 -0.315897 0.919052 
0.214967 -0.273877 0.937433 
0.198346 -0.236695 0.951123 
0.185159 -0.207341 0.960586 
0.168506 -0.178253 0.969449 
0.151205 -0.151662 0.976799 
0.155636 -0.138697 0.978029 
0.135802 -0.115811 0.983944 
0.138754 -0.103821 0.98487 
0.118507 -0.0852656 0.989285 
0.121094 -0.0747353 0.989824 
0.12536 -0.0649201 0.989985 
0.108684 -0.0508887 0.992773 
0.11518 -0.0419963 0.992457 
0.101556 -0.03007 0.994375 
0.110133 -0.0207184 0.993701 
0.0985403 -0.00967308 0.995086 
0.108826 0.00146727 0.99406 
0.100006 0.0125586 0.994908 
0.113409 0.0266522 0.993191 
0.107794 0.0386929 0.99342 
0.104038 0.0511329 0.993258 
0.12193 0.0699868 0.990068 
0.117964 0.0832417 0.989523 
0.136088 0.105763 0.985035 
0.129877 0.119461 0.984307 
0.144529 0.144595 0.978879 
0.15766 0.171563 0.972476 
0.165787 0.19909 0.965856 
0.174576 0.234601 0.956287 
0.18553 0.275028 0.943365 
0.196096 0.320342 0.926783 
0.243922 -0.367592 0.897429 
0.222075 -0.323621 0.919757 
0.201996 -0.282665 0.937709 
0.184661 -0.245854 0.951555 
0.169878 -0.2141 0.961927 
0.156608 -0.186662 0.969862 
0.142011 -0.160783 0.97672 
0.127451 -0.137304 0.982295 
0.130988 -0.12658 0.98327 
0.114047 -0.107885 0.9876 
0.117084 -0.0965414 0.988418 
0.0994449 -0.0786964 0.991926 
0.101165 -0.0689212 0.99248 
0.104701 -0.0599361 0.992696 
0.0899629 -0.0468732 0.994841 
0.0955434 -0.0387751 0.99467 
0.0835762 -0.0279497 0.996109 
0.091076 -0.0193646 0.995656 
0.0809823 -0.00936233 0.996672 
0.090089 0.000747219 0.995933 
0.0824589 0.0106355 0.996538 
0.0943398 0.0235626 0.995261 
0.0894206 0.034549 0.995395 
0.0863238 0.0461225 0.995199 
0.101406 0.0640599 0.992781 
0.0970277 0.0770708 0.992293 
0.111987 0.0953316 0.989126 
0.106782 0.107414 0.988463 
0.118319 0.130435 0.984372 
0.129149 0.155491 0.979358 
0.137633 0.182346 0.973554 
0.145915 0.213804 0.965918 
0.154688 0.250975 0.955554 
0.164228 0.293212 0.941836 
0.173573 0.340369 0.924133 
0.226447 -0.37029 0.900892 
0.206125 -0.327693 0.922025 
0.187067 -0.287919 0.939206 
0.170096 -0.251554 0.952779 
0.155065 -0.219155 0.963289 
0.141707 -0.190371 0.971431 
0.129094 -0.164616 0.977873 
0.116423 -0.140472 0.983216 
0.10829 -0.11853 0.987028 
0.0961785 -0.099717 0.990357 
0.0982331 -0.0889634 0.991179 
0.0829333 -0.0723394 0.993926 
0.0836747 -0.0632318 0.994485 
0.0868164 -0.0551427 0.994697 
0.0738159 -0.0435942 0.996319 
0.0786563 -0.0360174 0.996251 
0.0683273 -0.0261964 0.997319 
0.074848 -0.0182652 0.997028 
0.0660839 -0.00916024 0.997772 
0.0739617 0.000104449 0.997261 
0.0671785 0.00937286 0.997697 
0.0777229 0.0207476 0.996759 
0.0734729 0.0305996 0.996828 
0.0710031 0.0413317 0.996619 
0.0838855 0.0580181 0.994785 
0.0801441 0.0704069 0.994294 
0.0898594 0.0897864 0.991899 
0.0947729 0.113073 0.989056 
0.103581 0.137587 0.985059 
0.111695 0.163816 0.980147 
0.119339 0.193456 0.973824 
0.127207 0.227299 0.965481 
0.135325 0.266095 0.954401 
0.143844 0.309612 0.93992 
0.15189 0.358195 0.921209 
0.205336 -0.370897 0.905689 
0.18748 -0.329278 0.925434 
0.170046 -0.290428 0.941667 
0.154283 -0.254773 0.954614 
0.14015 -0.222518 0.964802 
0.12749 -0.193582 0.972765 
0.115929 -0.16776 0.978988 
0.105302 -0.144546 0.983879 
0.0970491 -0.123701 0.987562 
0.0886961 -0.106598 0.990338 
0.0793142 -0.09052 0.992731 
0.0816067 -0.0819462 0.99329 
0.0688291 -0.0686617 0.995263 
0.0685115 -0.0593424 0.995884 
0.0711212 -0.0513557 0.996145 
0.0601524 -0.0407202 0.997358 
0.0643449 -0.0337045 0.997358 
0.0554357 -0.0246772 0.998157 
0.061122 -0.0174046 0.997979 
0.0535594 -0.00914013 0.998523 
0.0603174 -0.000494229 0.998179 
0.0545159 0.00773198 0.998483 
0.0635028 0.0185193 0.99781 
0.0591786 0.0286693 0.997836 
0.0580926 0.0388509 0.997555 
0.0681594 0.0524797 0.996293 
0.0647205 0.0623324 0.995955 
0.071991 0.0796203 0.994222 
0.0778518 0.0980017 0.992136 
0.0827064 0.120511 0.989261 
0.0893478 0.145178 0.985363 
0.0960592 0.172758 0.980269 
0.10279 0.204024 0.973555 
0.109734 0.239485 0.964679 
0.116936 0.279477 0.953005 
0.124368 0.324176 0.937786 
0.130808 0.374204 0.918075 
0.180859 -0.370855 0.91091 
0.166287 -0.329719 0.929319 
0.150861 -0.291497 0.944601 
0.136721 -0.256321 0.956874 
0.124027 -0.224404 0.966571 
0.112429 -0.195476 0.974243 
0.102019 -0.169654 0.980209 
0.0925832 -0.146534 0.984863 
0.0849651 -0.126054 0.988378 
0.0772005 -0.108152 0.991132 
0.0700118 -0.0924484 0.993253 
0.0658219 -0.0775524 0.994813 
0.0576635 -0.0645778 0.996245 
0.0551535 -0.0549946 0.996962 
0.0579551 -0.0481139 0.997159 
0.0486123 -0.0380859 0.998091 
0.0522275 -0.0316023 0.998135 
0.0445153 -0.0233126 0.998737 
0.0494563 -0.0166565 0.998637 
0.0428792 -0.00913491 0.999038 
0.0487459 -0.00126655 0.99881 
0.0436447 0.00636878 0.999027 
0.0509643 0.0168189 0.998559 
0.0484786 0.0243291 0.998528 
0.0464336 0.0359093 0.998276 
0.0537 0.0494457 0.997332 
0.0559397 0.0669757 0.996185 
0.0610178 0.0843834 0.994563 
0.065804 0.104029 0.992395 
0.0701232 0.126803 0.989446 
0.075559 0.152341 0.985435 
0.0812068 0.181088 0.980108 
0.0870608 0.213715 0.973009 
0.0930952 0.250342 0.963671 
0.0993889 0.29149 0.951397 
0.105875 0.337219 0.935454 
0.1107 0.388805 0.914645 
0.153795 -0.371141 0.915752 
0.143245 -0.330267 0.932955 
0.129902 -0.292465 0.947412 
0.11806 -0.25767 0.958993 
0.107051 -0.225794 0.968275 
0.0970502 -0.196761 0.975636 
0.087875 -0.17068 0.9814 
0.0795784 -0.147359 0.985877 
0.0726929 -0.126814 0.989259 
0.06601 -0.108936 0.991855 
0.0596038 -0.0933963 0.993843 
0.0561832 -0.0801179 0.995201 
0.0518445 -0.0697943 0.996213 
0.0457627 -0.0581016 0.997261 
0.0442123 -0.0512101 0.997709 
0.0462889 -0.0444026 0.997941 
0.0386323 -0.0356721 0.998617 
0.0418405 -0.0296782 0.998683 
0.0352423 -0.0223157 0.99913 
0.0395061 -0.0160424 0.999091 
0.0338419 -0.00899161 0.999387 
0.0388509 -0.00195361 0.999243 
0.034401 0.00541375 0.999393 
0.0411391 0.0137185 0.999059 
0.037099 0.0231924 0.999042 
0.0388661 0.028899 0.998826 
0.0406843 0.0431192 0.998241 
0.0450838 0.0547288 0.997483 
0.0467242 0.0705753 0.996412 
0.0506071 0.0882702 0.99481 
0.0545254 0.108472 0.992603 
0.058322 0.131993 0.989533 
0.0628736 0.158641 0.985332 
0.0676377 0.188768 0.97969 
0.0725645 0.222699 0.972183 
0.0777055 0.260642 0.962303 
0.083009 0.302688 0.949468 
0.0887886 0.34916 0.932847 
0.0921518 0.401891 0.911039 
0.124858 -0.372197 0.919717 
0.118972 -0.332155 0.935691 
0.108009 -0.295412 0.949245 
0.0983707 -0.261063 0.960297 
0.0897061 -0.229359 0.969199 
0.0814458 -0.200127 0.976379 
0.0738504 -0.173696 0.982026 
0.0668328 -0.149885 0.986442 
0.060813 -0.128795 0.989805 
0.0551362 -0.110263 0.992372 
0.0495994 -0.0939092 0.994344 
0.0458997 -0.0797399 0.995758 
0.0419173 -0.0670402 0.996869 
0.0378008 -0.0570627 0.997655 
0.0342605 -0.0472172 0.998297 
0.0359622 -0.0414336 0.998494 
0.0298857 -0.0341751 0.998969 
0.0328748 -0.0283814 0.999056 
0.0274712 -0.0213716 0.999394 
0.0311907 -0.0155112 0.999393 
0.026366 -0.00887179 0.999613 
0.0304188 -0.00202457 0.999535 
0.0266926 0.00522446 0.99963 
0.0314933 0.0126745 0.999424 
0.0296833 0.0201556 0.999356 
0.0295892 0.0327802 0.999024 
0.0339711 0.0425608 0.998516 
0.0357514 0.0577676 0.99769 
0.0380371 0.0739579 0.996536 
0.0410863 0.0928375 0.994833 
0.0442441 0.114347 0.992455 
0.0474889 0.139099 0.989139 
0.0511853 0.167105 0.98461 
0.0550534 0.198538 0.978546 
0.0591029 0.233706 0.970509 
0.0632628 0.2724 0.960102 
0.0678159 0.31489 0.946702 
0.0730935 0.360632 0.92984 
0.075236 0.412968 0.907633 
0.0932869 -0.374238 0.922629 
0.0943845 -0.33844 0.936243 
0.0850603 -0.302876 0.949226 
0.0782191 -0.268492 0.960101 
0.0717458 -0.236112 0.969074 
0.0655798 -0.206103 0.97633 
0.0597509 -0.178859 0.982059 
0.0542052 -0.154318 0.986533 
0.0493187 -0.132582 0.989944 
0.0448152 -0.113488 0.992528 
0.0404005 -0.0968519 0.994479 
0.0370812 -0.0821322 0.995931 
0.0341212 -0.0697987 0.996977 
0.030752 -0.0586691 0.997804 
0.0278954 -0.0489393 0.998412 
0.026878 -0.0402354 0.998829 
0.022911 -0.0323517 0.999214 
0.0253391 -0.0268858 0.999317 
0.0207457 -0.0201911 0.999581 
0.0241456 -0.0150046 0.999596 
0.0200064 -0.00920128 0.999758 
0.0234398 -0.00244581 0.999722 
0.0205343 0.00415317 0.999781 
0.0232674 0.0131022 0.999643 
0.0233463 0.0231824 0.999459 
0.0248036 0.0346304 0.999092 
0.0262655 0.0480999 0.998497 
0.0285672 0.0622533 0.997651 
0.030092 0.0797536 0.99636 
0.0325149 0.0993602 0.99452 
0.0349481 0.122075 0.991905 
0.0375186 0.148097 0.988261 
0.0403949 0.177596 0.983274 
0.0433885 0.210662 0.976596 
0.046541 0.247436 0.967786 
0.0499223 0.287594 0.956451 
0.0536647 0.330491 0.942282 
0.0588627 0.375014 0.925149 
0.0588508 0.421502 0.904916 
0.0657809 -0.37688 0.923923 
0.0657832 -0.329192 0.941969 
0.0587795 -0.286656 0.956229 
0.0536758 -0.249314 0.966934 
0.0493712 -0.216171 0.975106 
0.0451966 -0.186705 0.981376 
0.0411933 -0.160559 0.986166 
0.0375409 -0.137547 0.989784 
0.0341695 -0.117446 0.992491 
0.0309028 -0.100021 0.994505 
0.028275 -0.08489 0.995989 
0.0259679 -0.0719796 0.997068 
0.0237424 -0.0610592 0.997852 
0.0216821 -0.0515156 0.998437 
0.0205099 -0.0430542 0.998862 
0.0188396 -0.0362686 0.999164 
0.0163044 -0.0296952 0.999426 
0.0187219 -0.0253349 0.999504 
0.0148421 -0.0201665 0.999686 
0.0177124 -0.0146544 0.999736 
0.014285 -0.00856082 0.999861 
0.0174753 -0.0033408 0.999842 
0.0147949 0.00194685 0.999889 
0.0165721 0.00928044 0.99982 
0.0174554 0.0171778 0.9997 
0.0175756 0.0271062 0.999478 
0.0184838 0.0386024 0.999084 
0.020018 0.051578 0.998468 
0.0212103 0.0672802 0.997509 
0.022586 0.0854274 0.996088 
0.024249 0.1065 0.994017 
0.0260267 0.130778 0.99107 
0.0279063 0.158665 0.986938 
0.0300106 0.190435 0.981241 
0.0322915 0.226485 0.973479 
0.0348243 0.267239 0.963001 
0.0381072 0.313556 0.948805 
0.0429658 0.366345 0.929487 
0.0449265 0.426334 0.90345 
0.0361921 -0.380333 0.924141 
0.0409917 -0.34113 0.939122 
0.0374067 -0.302654 0.952366 
0.0346311 -0.264488 0.963767 
0.0323492 -0.229294 0.972819 
0.0300738 -0.197796 0.979782 
0.0277717 -0.169895 0.985071 
0.0255115 -0.145449 0.989037 
0.0233934 -0.124168 0.991985 
0.0213184 -0.105816 0.994157 
0.019515 -0.0899098 0.995759 
0.0179908 -0.0763443 0.996919 
0.0165313 -0.0647859 0.997762 
0.0151447 -0.0548006 0.998382 
0.014306 -0.0461022 0.998834 
0.0131598 -0.0386962 0.999164 
0.0118724 -0.0321145 0.999414 
0.0119905 -0.0252411 0.999609 
0.00988765 -0.0194472 0.999762 
0.0126309 -0.0143524 0.999817 
0.00962109 -0.0087498 0.999915 
0.0112131 -0.00266049 0.999934 
0.0107425 0.00528354 0.999928 
0.0114805 0.0129537 0.99985 
0.0119764 0.0217323 0.999692 
0.0122403 0.0322187 0.999406 
0.0128902 0.0445376 0.998925 
0.0137352 0.0586263 0.998186 
0.014496 0.0750649 0.997073 
0.0153021 0.0944094 0.995416 
0.0163205 0.1167 0.993033 
0.0173608 0.142525 0.989639 
0.018522 0.172215 0.984885 
0.0198313 0.206117 0.978326 
0.021356 0.24454 0.969404 
0.0232477 0.287527 0.95749 
0.025962 0.334315 0.942104 
0.0296906 0.38151 0.923888 
0.0293046 0.428813 0.902918 
0.0109708 -0.384132 0.923213 
0.0149242 -0.332682 0.942921 
0.0146677 -0.287348 0.957714 
0.0143492 -0.247325 0.968826 
0.014047 -0.212357 0.977091 
0.0134663 -0.18185 0.983234 
0.0127064 -0.155293 0.987787 
0.011892 -0.132279 0.991141 
0.0110184 -0.112441 0.993597 
0.0101971 -0.0953565 0.995391 
0.0095036 -0.0807747 0.996687 
0.00885736 -0.0683691 0.997621 
0.00822176 -0.0577931 0.998295 
0.00785866 -0.0487017 0.998782 
0.0074106 -0.0410054 0.999131 
0.00666617 -0.0342517 0.999391 
0.00696376 -0.0281434 0.99958 
0.00651027 -0.0229694 0.999715 
0.00476971 -0.0174776 0.999836 
0.00790986 -0.0141172 0.999869 
0.00472085 -0.010565 0.999933 
0.00634493 -0.004681 0.999969 
0.00657997 0.00115111 0.999978 
0.006196 0.00833364 0.999946 
0.00662809 0.0163275 0.999845 
0.0066899 0.0256917 0.999648 
0.00681691 0.0368409 0.999298 
0.00709128 0.0498696 0.998731 
0.00736035 0.0650322 0.997856 
0.007581 0.0828503 0.996533 
0.00782325 0.10368 0.99458 
0.00812077 0.127791 0.991768 
0.00843312 0.155671 0.987773 
0.00881942 0.187765 0.982174 
0.00934531 0.224555 0.974417 
0.010089 0.266663 0.963737 
0.0114408 0.314714 0.949118 
0.0137118 0.369073 0.929299 
0.0146999 0.42961 0.902895 
-0.013586 -0.388316 0.921426 
-0.0101372 -0.34773 0.93754 
-0.00734012 -0.307059 0.951662 
-0.0049316 -0.266531 0.963814 
-0.00318085 -0.229449 0.973316 
-0.00195919 -0.196672 0.980467 
-0.00110742 -0.168106 0.985768 
-0.000526671 -0.143339 0.989674 
-0.000106671 -0.122012 0.992529 
0.000193695 -0.103657 0.994613 
0.000422851 -0.0879595 0.996124 
0.000668621 -0.074615 0.997212 
0.000858995 -0.0632028 0.998 
0.00103775 -0.0533825 0.998574 
0.00119414 -0.0450864 0.998982 
0.00128818 -0.0379411 0.999279 
0.00144558 -0.0312791 0.99951 
0.00154465 -0.0259401 0.999662 
0.00166117 -0.020722 0.999784 
0.00184723 -0.0139014 0.999902 
0.00188295 -0.00682809 0.999975 
0.00180708 -0.00104766 0.999998 
0.00178488 0.00517057 0.999985 
0.00172055 0.0131487 0.999912 
0.00157127 0.021838 0.99976 
0.00142346 0.032036 0.999486 
0.00123725 0.0441483 0.999024 
0.000994149 0.0581891 0.998305 
0.000717151 0.0745568 0.997217 
0.000340196 0.0937213 0.995598 
-9.24939e-05 0.116009 0.993248 
-0.000557129 0.141766 0.9899 
-0.00104868 0.171514 0.985181 
-0.00151233 0.20563 0.978629 
-0.00186822 0.244535 0.969639 
-0.00206891 0.28826 0.95755 
-0.00199636 0.335671 0.941977 
-0.00153356 0.382782 0.923838 
-0.000874565 0.429253 0.903184 
-0.0365238 -0.391929 0.91927 
-0.0321793 -0.338863 0.940285 
-0.0260403 -0.291416 0.956242 
-0.0218109 -0.250012 0.967997 
-0.0186667 -0.214042 0.976646 
-0.0161423 -0.182835 0.983011 
-0.0140761 -0.155786 0.987691 
-0.0123249 -0.132421 0.991117 
-0.0107961 -0.112344 0.993611 
-0.00950061 -0.0950974 0.995423 
-0.0083716 -0.0804289 0.996725 
-0.00729886 -0.0680267 0.997657 
-0.00629346 -0.0573713 0.998333 
-0.00555681 -0.0482609 0.998819 
-0.00497794 -0.0406216 0.999162 
-0.00398656 -0.0339566 0.999415 
-0.00401579 -0.0278444 0.999604 
-0.00339415 -0.0227204 0.999736 
-0.00143086 -0.0173151 0.999849 
-0.00442808 -0.0138158 0.999895 
-0.00126346 -0.0104165 0.999945 
-0.0027031 -0.00449049 0.999986 
-0.00300628 0.00135209 0.999995 
-0.00269981 0.00853092 0.99996 
-0.00332527 0.0166364 0.999856 
-0.00373768 0.0260475 0.999654 
-0.00414898 0.0372409 0.999298 
-0.00483781 0.0503005 0.998722 
-0.00559648 0.0655968 0.997831 
-0.00647781 0.0835204 0.996485 
-0.00755067 0.104438 0.994503 
-0.00876469 0.128609 0.991657 