# vtk DataFile Version 3.0 
Exported using Morpho https://github.com/Morpho-lang/morpho 
ASCII 
DATASET UNSTRUCTURED_GRID 

POINTS 1245 float 
-0.303845 -0.952721 0 
-0.250833 -0.96803 0 
-0.195084 -0.980787 0 
-0.146308 -0.989239 0 
-0.0940719 -0.995565 0 
-0.0475118 -0.998871 0 
-0.000246339 -1 0 
0.0470875 -0.998891 0 
0.0937543 -0.995595 0 
0.146139 -0.989264 0 
0.195062 -0.980791 0 
0.250843 -0.968028 0 
0.303953 -0.952687 0 
-0.409153 -0.912466 0 
-0.356519 -0.934288 0 
-0.308871 -0.898929 0 
-0.258282 -0.916037 0 
-0.207345 -0.934859 0 
-0.154868 -0.930629 0 
-0.104343 -0.948989 0 
-0.0520099 -0.939193 0 
-8.5762e-05 -0.954582 0 
0.0518744 -0.939288 0 
0.104354 -0.949042 0 
0.154696 -0.9306 0 
0.207366 -0.934975 0 
0.258274 -0.916081 0 
0.308979 -0.898924 0 
0.356593 -0.93426 0 
0.409236 -0.912429 0 
-0.513788 -0.857917 0 
-0.461695 -0.887039 0 
-0.411157 -0.857936 0 
-0.359855 -0.879963 0 
-0.306888 -0.847481 0 
-0.254732 -0.866979 0 
-0.201991 -0.889059 0 
-0.149956 -0.874108 0 
-0.100608 -0.900088 0 
-0.0497575 -0.880388 0 
2.4595e-05 -0.904789 0 
0.0496869 -0.8804 0 
0.100612 -0.900177 0 
0.149872 -0.874171 0 
0.202071 -0.889165 0 
0.254695 -0.867031 0 
0.306946 -0.847482 0 
0.359894 -0.879943 0 
0.411236 -0.857929 0 
0.461748 -0.887011 0 
0.513842 -0.857885 0 
-0.564741 -0.825268 0 
-0.512908 -0.802945 0 
-0.462372 -0.832348 0 
-0.410124 -0.804631 0 
-0.358606 -0.827415 0 
-0.305781 -0.795641 0 
-0.25358 -0.816639 0 
-0.200756 -0.839997 0 
-0.149043 -0.818944 0 
-0.0987265 -0.846667 0 
-0.0490473 -0.822548 0 
5.00659e-05 -0.849932 0 
0.0490834 -0.822542 0 
0.0987838 -0.846676 0 
0.148997 -0.818924 0 
0.200826 -0.840131 0 
0.253508 -0.816728 0 
0.305831 -0.795701 0 
0.358581 -0.827419 0 
0.410181 -0.804654 0 
0.462414 -0.83234 0 
0.512965 -0.802929 0 
0.564777 -0.825243 0 
-0.660798 -0.750564 0 
-0.614015 -0.789295 0 
-0.561786 -0.769772 0 
-0.510673 -0.747856 0 
-0.460836 -0.778365 0 
-0.408794 -0.751554 0 
-0.357337 -0.774971 0 
-0.304815 -0.743684 0 
-0.252907 -0.765535 0 
-0.200631 -0.789263 0 
-0.149244 -0.764328 0 
-0.0986912 -0.791935 0 
-0.0492815 -0.765764 0 
4.16586e-05 -0.79382 0 
0.0492411 -0.765708 0 
0.0987508 -0.791951 0 
0.149196 -0.764326 0 
0.200666 -0.789356 0 
0.252841 -0.765599 0 
0.304862 -0.743741 0 
0.357323 -0.775038 0 
0.408863 -0.751626 0 
0.460863 -0.778382 0 
0.510716 -0.747859 0 
0.561819 -0.769761 0 
0.614041 -0.789274 0 
0.660811 -0.750552 0 
-0.707107 -0.707107 0 
-0.654819 -0.699058 0 
-0.60813 -0.73348 0 
-0.558104 -0.71337 0 
-0.509495 -0.692659 0 
-0.45935 -0.724356 0 
-0.407328 -0.698865 0 
-0.355968 -0.722823 0 
-0.303722 -0.691387 0 
-0.252254 -0.71362 0 
-0.20067 -0.737336 0 
-0.149608 -0.710068 0 
-0.0991558 -0.737129 0 
-0.0495872 -0.709825 0 
-2.23646e-05 -0.737917 0 
0.0494408 -0.709766 0 
0.0991291 -0.737116 0 
0.149502 -0.710042 0 
0.200696 -0.73743 0 
0.252186 -0.713735 0 
0.303753 -0.691518 0 
0.355952 -0.722893 0 
0.407371 -0.698945 0 
0.459374 -0.724407 0 
0.509524 -0.692668 0 
0.558131 -0.713361 0 
0.608151 -0.733462 0 
0.654824 -0.699048 0 
0.707107 -0.707107 0 
-0.750564 -0.660798 0 
-0.699058 -0.654819 0 
-0.647692 -0.647692 0 
-0.603437 -0.675718 0 
-0.55905 -0.655305 0 
-0.508501 -0.639581 0 
-0.457509 -0.671321 0 
-0.405555 -0.646545 0 
-0.354417 -0.670703 0 
-0.302427 -0.639219 0 
-0.251503 -0.661417 0 
-0.20061 -0.684911 0 
-0.149717 -0.655943 0 
-0.0995004 -0.682466 0 
-0.0498216 -0.654561 0 
-5.02113e-05 -0.682664 0 
0.0496787 -0.654499 0 
0.0994374 -0.682501 0 
0.149603 -0.655909 0 
0.200573 -0.684972 0 
0.251388 -0.661524 0 
0.302407 -0.639359 0 
0.354397 -0.670836 0 
0.405575 -0.646641 0 
0.457525 -0.67138 0 
0.508497 -0.639623 0 
0.559063 -0.655324 0 
0.603436 -0.675715 0 
0.64769 -0.64769 0 
0.699048 -0.654824 0 
0.750552 -0.660811 0 
-0.789295 -0.614015 0 
-0.73348 -0.60813 0 
-0.675718 -0.603437 0 
-0.613088 -0.613088 0 
-0.55962 -0.604068 0 
-0.506189 -0.588854 0 
-0.455505 -0.618874 0 
-0.403019 -0.594688 0 
-0.352514 -0.618952 0 
-0.300977 -0.586897 0 
-0.250543 -0.608767 0 
-0.200257 -0.632053 0 
-0.150049 -0.601979 0 
-0.0998281 -0.628222 0 
-0.0500377 -0.599914 0 
-3.12334e-05 -0.628076 0 
0.0498927 -0.599835 0 
0.0997818 -0.628253 0 
0.149924 -0.601867 0 
0.200214 -0.632118 0 
0.250423 -0.608915 0 
0.30086 -0.587085 0 
0.352457 -0.619096 0 
0.402948 -0.594743 0 
0.455483 -0.618952 0 
0.506147 -0.588901 0 
0.55964 -0.604067 0 
0.613069 -0.613069 0 
0.675715 -0.603436 0 
0.733462 -0.608151 0 
0.789274 -0.614041 0 
-0.825268 -0.564741 0 
-0.769772 -0.561786 0 
-0.71337 -0.558104 0 
-0.655305 -0.55905 0 
-0.604068 -0.55962 0 
-0.551031 -0.551031 0 
-0.497922 -0.537596 0 
-0.451508 -0.567021 0 
-0.399773 -0.542431 0 
-0.350494 -0.567003 0 
-0.301574 -0.534146 0 
-0.250874 -0.555692 0 
-0.200542 -0.579013 0 
-0.150324 -0.548268 0 
-0.100169 -0.57443 0 
-0.0500152 -0.545912 0 
-3.29278e-05 -0.574268 0 
0.0499208 -0.545788 0 
0.100058 -0.574485 0 
0.150038 -0.548073 0 
0.200377 -0.579041 0 
0.250556 -0.55585 0 
0.301273 -0.534348 0 
0.350318 -0.567174 0 
0.399615 -0.542384 0 
0.451404 -0.5671 0 
0.497945 -0.537702 0 
0.551073 -0.551073 0 
0.604067 -0.55964 0 
0.655324 -0.559063 0 
0.713361 -0.558131 0 
0.769761 -0.561819 0 
0.825243 -0.564777 0 
-0.857917 -0.513788 0 
-0.802945 -0.512908 0 
-0.747856 -0.510673 0 
-0.692659 -0.509495 0 
-0.639581 -0.508501 0 
-0.588854 -0.506189 0 
-0.537596 -0.497922 0 
-0.486157 -0.486157 0 
-0.444928 -0.512952 0 
-0.401787 -0.486784 0 
-0.351685 -0.513639 0 
-0.299695 -0.48291 0 
-0.250032 -0.503 0 
-0.200501 -0.526165 0 
-0.149489 -0.495195 0 
-0.0999281 -0.521367 0 
-0.0499712 -0.492294 0 
4.64723e-05 -0.520999 0 
0.050147 -0.492108 0 
0.099934 -0.52133 0 
0.14957 -0.494692 0 
0.200133 -0.526255 0 
0.249839 -0.503309 0 
0.299839 -0.483005 0 
0.351514 -0.513798 0 
0.401881 -0.486608 0 
0.444935 -0.513054 0 
0.486228 -0.486228 0 
0.537702 -0.497945 0 
0.588901 -0.506147 0 
0.639623 -0.508497 0 
0.692668 -0.509524 0 
0.747859 -0.510716 0 
0.802929 -0.512965 0 
0.857885 -0.513842 0 
-0.887039 -0.461695 0 
-0.832348 -0.462372 0 
-0.778365 -0.460836 0 
-0.724356 -0.45935 0 
-0.671321 -0.457509 0 
-0.618874 -0.455505 0 
-0.567021 -0.451508 0 
-0.512952 -0.444928 0 
-0.450685 -0.450685 0 
-0.397667 -0.437543 0 
-0.348492 -0.462546 0 
-0.295416 -0.432968 0 
-0.247004 -0.450633 0 
-0.198702 -0.473818 0 
-0.150161 -0.441625 0 
-0.100085 -0.468395 0 
-0.0502271 -0.439281 0 
0.000144229 -0.468374 0 
0.0504178 -0.439106 0 
0.100428 -0.468348 0 
0.150697 -0.441105 0 
0.199103 -0.473881 0 
0.247983 -0.450921 0 
0.296569 -0.432268 0 
0.348831 -0.462562 0 
0.397506 -0.4368 0 
0.450637 -0.450637 0 
0.513054 -0.444935 0 
0.5671 -0.451404 0 
0.618952 -0.455483 0 
0.67138 -0.457525 0 
0.724407 -0.459374 0 
0.778382 -0.460863 0 
0.83234 -0.462414 0 
0.887011 -0.461748 0 
-0.912466 -0.409153 0 
-0.857936 -0.411157 0 
-0.804631 -0.410124 0 
-0.751554 -0.408794 0 
-0.698865 -0.407328 0 
-0.646545 -0.405555 0 
-0.594688 -0.403019 0 
-0.542431 -0.399773 0 
-0.486784 -0.401787 0 
-0.437543 -0.397667 0 
-0.387256 -0.387256 0 
-0.344215 -0.411459 0 
-0.30136 -0.381507 0 
-0.25021 -0.395692 0 
-0.200211 -0.419975 0 
-0.150955 -0.389014 0 
-0.100617 -0.416095 0 
-0.0503197 -0.386922 0 
-4.02994e-05 -0.416525 0 
0.05006 -0.386948 0 
0.100784 -0.416323 0 
0.150432 -0.388572 0 
0.200855 -0.420694 0 
0.25086 -0.396905 0 
0.301746 -0.379789 0 
0.344135 -0.410678 0 
0.385823 -0.385823 0 
0.4368 -0.397506 0 
0.486608 -0.401881 0 
0.542384 -0.399615 0 
0.594743 -0.402948 0 
0.646641 -0.405575 0 
0.698945 -0.407371 0 
0.751626 -0.408863 0 
0.804654 -0.410181 0 
0.857929 -0.411236 0 
0.912429 -0.409236 0 
-0.934288 -0.356519 0 
-0.879963 -0.359855 0 
-0.827415 -0.358606 0 
-0.774971 -0.357337 0 
-0.722823 -0.355968 0 
-0.670703 -0.354417 0 
-0.618952 -0.352514 0 
-0.567003 -0.350494 0 
-0.513639 -0.351685 0 
-0.462546 -0.348492 0 
-0.411459 -0.344215 0 
-0.351697 -0.351697 0 
-0.29839 -0.336232 0 
-0.249846 -0.342529 0 
-0.200971 -0.367271 0 
-0.149995 -0.337521 0 
-0.100435 -0.3646 0 
-0.0498692 -0.335025 0 
-6.88684e-05 -0.365025 0 
0.0495433 -0.334795 0 
0.0996798 -0.364834 0 
0.148162 -0.337172 0 
0.199644 -0.368939 0 
0.24763 -0.345582 0 
0.295348 -0.332889 0 
0.34978 -0.34978 0 
0.410678 -0.344135 0 
0.462562 -0.348831 0 
0.513798 -0.351514 0 
0.567174 -0.350318 0 
0.619096 -0.352457 0 
0.670836 -0.354397 0 
0.722893 -0.355952 0 
0.775038 -0.357323 0 
0.827419 -0.358581 0 
0.879943 -0.359894 0 
0.93426 -0.356593 0 
-0.952721 -0.303845 0 
-0.898929 -0.308871 0 
-0.847481 -0.306888 0 
-0.795641 -0.305781 0 
-0.743684 -0.304815 0 
-0.691387 -0.303722 0 
-0.639219 -0.302427 0 
-0.586897 -0.300977 0 
-0.534146 -0.301574 0 
-0.48291 -0.299695 0 
-0.432968 -0.295416 0 
-0.381507 -0.30136 0 
-0.336232 -0.29839 0 
-0.288184 -0.288184 0 
-0.242975 -0.290577 0 
-0.198059 -0.315051 0 
-0.148383 -0.285894 0 
-0.0994753 -0.313232 0 
-0.0507184 -0.283118 0 
-0.000202902 -0.313447 0 
0.0500077 -0.282824 0 
0.0988289 -0.312817 0 
0.148102 -0.28482 0 
0.195742 -0.317413 0 
0.240766 -0.295824 0 
0.285014 -0.285014 0 
0.332889 -0.295348 0 
0.379789 -0.301746 0 
0.432268 -0.296569 0 
0.483005 -0.299839 0 
0.534348 -0.301273 0 
0.587085 -0.30086 0 
0.639359 -0.302407 0 
0.691518 -0.303753 0 
0.743741 -0.304862 0 
0.795701 -0.305831 0 
0.847482 -0.306946 0 
0.898924 -0.308979 0 
0.952687 -0.303953 0 
-0.96803 -0.250833 0 
-0.916037 -0.258282 0 
-0.866979 -0.254732 0 
-0.816639 -0.25358 0 
-0.765535 -0.252907 0 
-0.71362 -0.252254 0 
-0.661417 -0.251503 0 
-0.608767 -0.250543 0 
-0.555692 -0.250874 0 
-0.503 -0.250032 0 
-0.450633 -0.247004 0 
-0.395692 -0.25021 0 
-0.342529 -0.249846 0 
-0.290577 -0.242975 0 
-0.239946 -0.239946 0 
-0.194478 -0.26004 0 
-0.151293 -0.23238 0 
-0.101048 -0.260904 0 
-0.0503938 -0.232537 0 
-0.000203281 -0.262984 0 
0.050638 -0.232316 0 
0.100942 -0.260855 0 
0.152412 -0.232597 0 
0.195768 -0.261421 0 
0.241873 -0.241873 0 
0.295824 -0.240766 0 
0.345582 -0.24763 0 
0.396905 -0.25086 0 
0.450921 -0.247983 0 
[...]
POINT_DATA 1245 
VECTORS vectors float
0.386937 -0.155104 0.908968 
0.392606 -0.134065 0.909883 
0.398159 -0.113014 0.910328 
0.401948 -0.0965525 0.910558 
0.403662 -0.0808895 0.911325 
0.402214 -0.0682566 0.912998 
0.397058 -0.0558155 0.916095 
0.387089 -0.041392 0.921113 
0.374187 -0.0235536 0.927054 
0.357257 0.0029006 0.934002 
0.342198 0.0338665 0.939017 
0.329569 0.0760242 0.941066 
0.325258 0.117876 0.93825 
0.37436 -0.196167 0.906296 
0.381039 -0.176014 0.90765 
0.339133 -0.146537 0.929256 
0.345131 -0.12863 0.929698 
0.35481 -0.111773 0.928233 
0.344391 -0.0926233 0.934246 
0.356586 -0.0786686 0.930945 
0.340986 -0.0618607 0.938031 
0.349535 -0.0485678 0.935664 
0.327387 -0.0292635 0.944437 
0.328547 -0.0104133 0.94443 
0.306761 0.015948 0.951653 
0.306633 0.0456658 0.950732 
0.295098 0.0784107 0.952244 
0.291948 0.110463 0.950034 
0.328254 0.155679 0.931672 
0.335791 0.185598 0.923471 
0.355331 -0.233932 0.904995 
0.366051 -0.215361 0.905332 
0.327517 -0.182823 0.926989 
0.333722 -0.16475 0.928163 
0.296047 -0.135543 0.945507 
0.302436 -0.119023 0.945709 
0.313104 -0.103268 0.944088 
0.29375 -0.0839928 0.952185 
0.310492 -0.071741 0.947865 
0.28781 -0.0542388 0.956151 
0.303264 -0.0419272 0.951984 
0.277318 -0.022822 0.960507 
0.288008 -0.00589781 0.95761 
0.264869 0.0173601 0.964128 
0.274239 0.0429609 0.960702 
0.262784 0.0713294 0.962215 
0.258802 0.0983455 0.960911 
0.293759 0.139317 0.945672 
0.297795 0.162807 0.940644 
0.343426 0.205759 0.916363 
0.346353 0.21714 0.912628 
0.341983 -0.252557 0.905131 
0.30967 -0.218025 0.92551 
0.319691 -0.200535 0.926058 
0.285038 -0.169315 0.943444 
0.290832 -0.152443 0.944552 
0.256686 -0.125354 0.958331 
0.263092 -0.110262 0.958449 
0.272885 -0.0959062 0.957254 
0.250432 -0.0768525 0.965079 
0.265796 -0.0650579 0.961832 
0.242481 -0.0480294 0.968967 
0.258343 -0.0360146 0.965382 
0.234245 -0.0182245 0.972007 
0.247975 -0.0024213 0.968763 
0.227554 0.018091 0.973597 
0.241766 0.0411584 0.969461 
0.231334 0.0649528 0.970704 
0.226842 0.0875461 0.969989 
0.258989 0.122477 0.958083 
0.260184 0.142528 0.954982 
0.300467 0.179743 0.936703 
0.298319 0.191116 0.935137 
0.340923 0.223102 0.913234 
0.310467 -0.292022 0.904618 
0.326568 -0.271933 0.90521 
0.297412 -0.235421 0.925269 
0.268273 -0.202401 0.941841 
0.2777 -0.185932 0.942503 
0.246762 -0.156649 0.956331 
0.252037 -0.140868 0.95741 
0.221285 -0.1157 0.968321 
0.22708 -0.101956 0.968525 
0.235691 -0.0888019 0.967762 
0.21262 -0.0704862 0.974589 
0.225656 -0.0591897 0.972407 
0.203804 -0.0430599 0.978064 
0.218196 -0.0313059 0.975403 
0.197221 -0.015034 0.980244 
0.211462 -0.000123688 0.977386 
0.194392 0.0177556 0.980763 
0.210596 0.0385868 0.976811 
0.201399 0.0586415 0.977752 
0.196601 0.0777145 0.977399 
0.225682 0.107903 0.968207 
0.224754 0.125556 0.966293 
0.259298 0.157861 0.952809 
0.253729 0.169638 0.952284 
0.288982 0.199376 0.936343 
0.325806 0.228263 0.917467 
0.30254 0.236686 0.923282 
0.294419 -0.31317 0.902908 
0.273841 -0.273145 0.922173 
0.283814 -0.252767 0.924964 
0.256925 -0.218354 0.941441 
0.231589 -0.188124 0.954451 
0.240016 -0.172298 0.955356 
0.212705 -0.144842 0.966322 
0.217301 -0.13008 0.967398 
0.1894 -0.106597 0.976097 
0.194466 -0.093959 0.976399 
0.201749 -0.0819251 0.976005 
0.179666 -0.064634 0.981602 
0.190498 -0.0539802 0.980202 
0.170683 -0.0389281 0.984557 
0.183345 -0.0276926 0.982658 
0.16538 -0.01298 0.986145 
0.179062 0.000965355 0.983837 
0.164879 0.0165339 0.986175 
0.181379 0.0353563 0.982778 
0.173297 0.0524038 0.983475 
0.168509 0.0688767 0.983291 
0.19462 0.0953802 0.97623 
0.192255 0.111376 0.975004 
0.221426 0.140007 0.965074 
0.214092 0.152617 0.964817 
0.242132 0.179594 0.953477 
0.272593 0.207792 0.939423 
0.255673 0.221411 0.941068 
0.273059 0.251639 0.928502 
0.280219 -0.332633 0.900462 
0.259932 -0.290958 0.920749 
0.240492 -0.253684 0.936914 
0.244892 -0.234149 0.940852 
0.221225 -0.203983 0.953651 
0.200234 -0.175166 0.963962 
0.206919 -0.159579 0.965256 
0.182505 -0.133785 0.97406 
0.186325 -0.119927 0.975141 
0.161207 -0.0980672 0.982036 
0.165369 -0.0864411 0.982436 
0.171404 -0.075405 0.982311 
0.150877 -0.0592337 0.986776 
0.159862 -0.0493111 0.985907 
0.142275 -0.0354613 0.989192 
0.153347 -0.0249188 0.987858 
0.137936 -0.0116756 0.990372 
0.150589 0.00118767 0.988596 
0.138714 0.0147903 0.990222 
0.154598 0.03178 0.987466 
0.147523 0.0465076 0.987965 
0.142962 0.0610056 0.987846 
0.166114 0.0845698 0.982473 
0.163012 0.099449 0.981599 
0.18775 0.125395 0.97418 
0.180433 0.139221 0.973684 
0.201516 0.164937 0.965498 
0.225751 0.190483 0.955381 
0.215378 0.206803 0.954382 
0.230125 0.237495 0.943737 
0.242964 0.272259 0.931044 
0.268157 -0.347711 0.898437 
0.244896 -0.301244 0.921563 
0.224003 -0.258967 0.939553 
0.211488 -0.222949 0.951613 
0.193149 -0.191649 0.96227 
0.173207 -0.162805 0.971336 
0.177764 -0.147697 0.972926 
0.155819 -0.123287 0.980062 
0.158942 -0.110457 0.981089 
0.136256 -0.0901328 0.986565 
0.139521 -0.0793846 0.987032 
0.144499 -0.0692521 0.987079 
0.125925 -0.0544131 0.990546 
0.133433 -0.0451951 0.990027 
0.117955 -0.0325497 0.992485 
0.1276 -0.0227671 0.991564 
0.114344 -0.0108758 0.993382 
0.125765 0.000904583 0.99206 
0.115676 0.0129421 0.993203 
0.130387 0.0281267 0.991064 
0.124179 0.0410717 0.99141 
0.120047 0.0540651 0.991295 
0.140506 0.0752496 0.987216 
0.137011 0.0891421 0.98655 
0.158102 0.113266 0.980905 
0.151938 0.127921 0.980077 
0.170241 0.154237 0.973257 
0.185909 0.181734 0.965614 
0.191393 0.214323 0.957828 
0.204032 0.252046 0.945962 
0.216566 0.29457 0.930767 
0.256046 -0.358265 0.897823 
0.233017 -0.312617 0.920855 
0.21198 -0.270464 0.939103 
0.195104 -0.233265 0.952639 
0.181744 -0.203993 0.961954 
0.164957 -0.175012 0.970649 
0.147573 -0.148602 0.977824 
0.151763 -0.135925 0.979026 
0.131922 -0.113275 0.984767 
0.134674 -0.101626 0.985665 
0.114491 -0.0833475 0.989922 
0.116906 -0.0731899 0.990442 
0.120982 -0.0637679 0.990604 
0.104405 -0.0500824 0.993273 
0.110734 -0.0415949 0.992979 
0.0972239 -0.0300488 0.994809 
0.105623 -0.0210896 0.994183 
0.094166 -0.0104299 0.995502 
0.104278 0.000348996 0.994548 
0.0956426 0.0110157 0.995355 
0.108875 0.0248101 0.993746 
0.103427 0.036481 0.993968 
0.0998112 0.048588 0.993819 
0.117628 0.0671747 0.990783 
0.113865 0.0800879 0.990263 
0.131997 0.102361 0.985951 
0.125981 0.115745 0.985257 
0.140675 0.140671 0.980011 
0.15386 0.167458 0.973799 
0.16204 0.194881 0.967349 
0.170915 0.230378 0.957974 
0.181965 0.270949 0.945238 
0.192748 0.316551 0.928786 
0.242181 -0.364126 0.899311 
0.219847 -0.320066 0.921534 
0.199413 -0.279029 0.939349 
0.181796 -0.242208 0.95304 
0.166795 -0.210509 0.963258 
0.153363 -0.183176 0.971044 
0.138658 -0.157456 0.977743 
0.124011 -0.134166 0.983169 
0.127349 -0.123726 0.984111 
0.11043 -0.10522 0.988299 
0.113243 -0.0942376 0.989088 
0.0957087 -0.0767052 0.99245 
0.0972238 -0.067322 0.992983 
0.100612 -0.0587392 0.99319 
0.0860076 -0.0460587 0.995229 
0.0913788 -0.0383473 0.995078 
0.0795641 -0.027919 0.996439 
0.0868659 -0.019739 0.996024 
0.0769392 -0.0101411 0.996984 
0.0858702 -0.00042841 0.996306 
0.0783414 0.00916031 0.996885 
0.0900688 0.0217074 0.995699 
0.0853665 0.0322569 0.995827 
0.0824658 0.0434269 0.995647 
0.0974167 0.0610955 0.993367 
0.0932421 0.0737583 0.992908 
0.108107 0.0918479 0.989887 
0.103107 0.103648 0.989255 
0.114662 0.126462 0.985322 
0.125531 0.151349 0.980477 
0.134084 0.178076 0.974839 
0.142452 0.209485 0.96738 
0.151349 0.246693 0.957202 
0.161082 0.289056 0.943663 
0.170741 0.336376 0.92612 
0.225044 -0.36633 0.902861 
0.204275 -0.323762 0.923823 
0.184861 -0.283987 0.940839 
0.167594 -0.247647 0.954245 
0.152337 -0.21531 0.964591 
0.138804 -0.186646 0.972572 
0.126041 -0.161043 0.978866 
0.113282 -0.137125 0.984055 
0.104975 -0.115522 0.987742 
0.092858 -0.0970078 0.990942 
0.094709 -0.0866535 0.991726 
0.0794436 -0.0703119 0.994357 
0.0801286 -0.0616471 0.994876 
0.0829834 -0.0538856 0.995093 
0.0701681 -0.0426978 0.996621 
0.0748257 -0.0355832 0.996562 
0.0646712 -0.0261613 0.997564 
0.0709718 -0.0186414 0.997304 
0.0624114 -0.00996462 0.998001 
0.0700583 -0.00105911 0.997542 
0.0636067 0.00761429 0.997946 
0.0739194 0.0186739 0.997089 
0.0696342 0.0284129 0.997168 
0.0674438 0.0386306 0.996975 
0.0800715 0.0551206 0.995264 
0.0766434 0.0670589 0.994801 
0.0863291 0.0861582 0.992534 
0.0913601 0.109123 0.989821 
0.100211 0.133416 0.985981 
0.10838 0.159504 0.98123 
0.116102 0.189047 0.97508 
0.124074 0.222858 0.966923 
0.132336 0.261688 0.956037 
0.14106 0.305268 0.941761 
0.149375 0.353901 0.923277 
0.204062 -0.366492 0.907768 
0.185867 -0.324968 0.927281 
0.168143 -0.286182 0.943307 
0.152095 -0.250582 0.956073 
0.137775 -0.218427 0.966078 
0.124901 -0.189605 0.973884 
0.11323 -0.163958 0.979947 
0.102465 -0.14096 0.984699 
0.0940846 -0.120384 0.988259 
0.0856793 -0.103578 0.990924 
0.0762681 -0.0878134 0.993213 
0.0782651 -0.0794465 0.993762 
0.0660177 -0.0668368 0.995577 
0.0650791 -0.0574465 0.996225 
0.0677588 -0.0501722 0.996439 
0.0569385 -0.0398994 0.99758 
0.0608757 -0.0332401 0.997592 
0.0521656 -0.0246445 0.998334 
0.0576165 -0.0177898 0.99818 
0.0502586 -0.00993701 0.998687 
0.0568074 -0.00172104 0.998384 
0.0510453 0.00632769 0.998676 
0.0596854 0.0168856 0.998074 
0.0564071 0.0255466 0.998081 
0.0543708 0.0367277 0.997845 
0.0650228 0.0491342 0.996673 
0.0614851 0.0590463 0.99636 
0.0687955 0.0759834 0.994733 
0.07469 0.0940871 0.992758 
0.0796021 0.116365 0.990011 
0.0863087 0.140847 0.986262 
0.0930698 0.168284 0.981335 
0.0998899 0.199491 0.974795 
0.106927 0.234912 0.966118 
0.114259 0.274926 0.954652 
0.121823 0.319668 0.939666 
0.128403 0.369712 0.920231 
0.179596 -0.366163 0.913055 
0.164832 -0.325122 0.931196 
0.149134 -0.286946 0.946267 
0.134873 -0.251884 0.958313 
0.121901 -0.220044 0.967843 
0.110224 -0.191282 0.975327 
0.0996262 -0.165617 0.981145 
0.0901035 -0.142728 0.985652 
0.0823731 -0.122491 0.989045 
0.0745344 -0.104958 0.99168 
0.0672765 -0.0893632 0.993724 
0.06312 -0.0752728 0.995163 
0.0543307 -0.0617462 0.996612 
0.0527478 -0.0538428 0.997155 
0.0547608 -0.046593 0.997412 
0.0457331 -0.0371237 0.998264 
0.0491418 -0.031135 0.998306 
0.0416593 -0.0232749 0.998861 
0.0463509 -0.0170567 0.99878 
0.0400211 -0.00997027 0.999149 
0.0456592 -0.00253895 0.998954 
0.0408787 0.0045533 0.999154 
0.0483669 0.0140662 0.998731 
0.044192 0.0236555 0.998743 
0.0449452 0.0313986 0.998496 
0.0504636 0.0467154 0.997633 
0.0533303 0.0631248 0.99658 
0.0581019 0.0806497 0.995048 
0.0630329 0.0999029 0.992999 
0.0673877 0.122496 0.990179 
0.0728648 0.147848 0.986322 
0.0785863 0.176513 0.981156 
0.0844831 0.209027 0.974254 
0.0906238 0.245696 0.965102 
0.0969663 0.286819 0.953065 
0.103524 0.332642 0.937354 
0.108343 0.384332 0.916815 
0.152529 -0.366316 0.917904 
0.141825 -0.325435 0.934868 
0.128489 -0.287745 0.949049 
0.116316 -0.252966 0.960458 
0.105321 -0.221256 0.969512 
0.0950855 -0.192335 0.976712 
0.0858451 -0.166459 0.982304 
0.0774382 -0.143346 0.986638 
0.0704483 -0.123085 0.989892 
0.0637104 -0.105484 0.992378 
0.057269 -0.0902132 0.994275 
0.0538311 -0.0777423 0.995519 
0.049097 -0.0664868 0.996579 
0.0443318 -0.0577989 0.997343 
0.0409998 -0.0481987 0.997996 
0.0438315 -0.0434636 0.998093 
0.0361815 -0.0347519 0.998741 
0.0391848 -0.0292426 0.998804 
0.0328174 -0.0222881 0.999213 
0.0368159 -0.0164412 0.999187 
0.0314323 -0.00986726 0.999457 
0.0361116 -0.00312902 0.999343 
0.0320869 0.00356537 0.999479 
0.0378282 0.0124733 0.999206 
0.0365626 0.0181311 0.999167 
0.0337377 0.029735 0.998988 
0.0394492 0.0383023 0.998487 
0.0420722 0.0520066 0.99776 
0.0442707 0.0668401 0.996781 
0.0482092 0.0842249 0.99528 
0.0520915 0.104256 0.993185 
0.0559685 0.127535 0.990254 
0.0605568 0.154055 0.986205 
0.0653541 0.184047 0.980742 
0.0703664 0.217993 0.97341 
0.0755017 0.255847 0.963764 
0.0809029 0.298075 0.951108 
0.0866238 0.34458 0.934752 
0.0899542 0.39759 0.913143 
0.123705 -0.367332 0.921827 
0.117848 -0.327286 0.937548 
0.106529 -0.290457 0.95094 
0.0970836 -0.256249 0.961723 
0.0881347 -0.224596 0.970458 
0.0798475 -0.195531 0.977442 
0.0721482 -0.169274 0.982925 
0.0650377 -0.145689 0.98719 
0.0589517 -0.124866 0.990421 
0.0532132 -0.106612 0.992876 
0.0476456 -0.0906836 0.994739 
0.0438133 -0.0765399 0.996103 
0.0401107 -0.0652034 0.997066 
0.0350728 -0.0535943 0.997947 
0.0327581 -0.0464625 0.998383 
0.033709 -0.0400167 0.99863 
0.0279547 -0.0333301 0.999053 
0.0306546 -0.0278971 0.999141 
0.0255029 -0.0213408 0.999447 
0.0289438 -0.0159181 0.999454 
0.0243851 -0.00971757 0.999655 
0.0281674 -0.00328653 0.999598 
0.024691 0.00352508 0.999689 
0.0291506 0.0107412 0.999517 
0.0269974 0.0185507 0.999463 
0.0295304 0.0272704 0.999192 
0.0305935 0.0411074 0.998686 
0.0341834 0.0535017 0.997982 
0.0358993 0.0702267 0.996885 
0.0390676 0.0886736 0.995294 
0.042251 0.109966 0.993037 
0.0455197 0.134536 0.989863 
0.0492588 0.162402 0.985494 
0.0531663 0.193771 0.979605 
0.057227 0.228869 0.971774 
0.0614882 0.26771 0.961535 
0.0659417 0.310159 0.948395 
0.0712998 0.356264 0.931661 
0.0734186 0.408885 0.909628 
0.0923826 -0.369368 0.92468 
0.0931218 -0.333426 0.938166 
0.0841793 -0.297918 0.950873 
0.0769695 -0.263498 0.961584 
0.0705247 -0.231217 0.970343 
0.0642989 -0.201341 0.977408 
0.0583646 -0.174263 0.982968 
0.0527788 -0.149942 0.987285 
0.0478259 -0.128458 0.990561 
0.0432691 -0.109682 0.993024 
0.0388298 -0.0933056 0.99488 
0.0355031 -0.0791221 0.996233 
0.0323668 -0.0668379 0.997239 
0.0293219 -0.0567039 0.99796 
0.0261956 -0.0469597 0.998553 
0.0250842 -0.038684 0.998937 
0.0213815 -0.0314726 0.999276 
0.0235486 -0.0264143 0.999374 
0.0192205 -0.0202199 0.999611 
0.0223385 -0.015444 0.999631 
0.0184826 -0.010068 0.999778 
0.0216862 -0.00378046 0.999758 
0.0189614 0.00247482 0.999817 
0.0217631 0.0106648 0.999706 
0.0216018 0.0207051 0.999552 
0.0225759 0.0323841 0.99922 
0.0251378 0.0439979 0.998715 
0.0266462 0.0588969 0.997908 
0.0285664 0.0755998 0.996729 
0.0308805 0.0951142 0.994987 
0.033367 0.117567 0.992504 
0.0359652 0.143432 0.989006 
0.0388579 0.172806 0.984189 
0.0419001 0.205835 0.977689 
0.04508 0.242617 0.969074 
0.0484529 0.28281 0.957951 
0.052344 0.326017 0.943914 
0.0573527 0.370586 0.927026 
0.0576181 0.417552 0.906824 
0.0650438 -0.37194 0.925975 
0.0650334 -0.324172 0.94376 
0.0577419 -0.281562 0.957804 
0.0528298 -0.244323 0.968254 
0.0483433 -0.211259 0.976234 
0.0441661 -0.181963 0.982313 
0.0401137 -0.15602 0.986939 
0.0364131 -0.133262 0.990412 
0.0330161 -0.113439 0.992996 
0.0297277 -0.0963693 0.994902 
0.0270541 -0.0815377 0.996303 
0.0247839 -0.0691151 0.997301 
0.022473 -0.0584736 0.998036 
0.0204493 -0.0493795 0.998571 
0.0193139 -0.0414802 0.998953 
0.0176413 -0.035059 0.99923 
0.0152063 -0.0289113 0.999466 
0.0174136 -0.0249224 0.999538 
0.0138041 -0.0201187 0.999702 
0.0164304 -0.015044 0.999752 
0.0132634 -0.00945177 0.999867 
0.016147 -0.00458638 0.999859 
0.0137456 0.000285772 0.999905 
0.0153394 0.00728945 0.999856 
0.0161942 0.0148005 0.999759 
0.0165092 0.0241182 0.999573 
0.0174148 0.0352437 0.999227 
0.0186377 0.0482632 0.998661 
0.0201187 0.0632636 0.997794 
0.0213456 0.0813469 0.996457 
0.0230907 0.10207 0.994509 
0.0248548 0.126181 0.991696 
0.0267649 0.153911 0.987722 
0.0288946 0.185596 0.982201 
0.0311851 0.221596 0.97464 
0.033812 0.262462 0.96435 
0.0370349 0.308808 0.950403 
0.0420579 0.361979 0.931237 
0.0442029 0.422298 0.905379 
0.0356755 -0.375302 0.926216 
0.0402319 -0.336025 0.940994 
0.0368447 -0.297563 0.953991 
0.0339506 -0.259401 0.965173 
0.031628 -0.224284 0.97401 
0.029378 -0.19293 0.980773 
0.0270219 -0.165209 0.985888 
0.0247559 -0.140994 0.989701 
0.0226171 -0.119992 0.992517 
0.0205302 -0.101942 0.994578 
0.0187285 -0.0863932 0.996085 
0.017185 -0.0731923 0.99717 
0.0157315 -0.0620245 0.997951 
0.0143761 -0.0524844 0.998518 
0.0135088 -0.0441957 0.998932 
0.0123792 -0.0372289 0.99923 
0.0111687 -0.031095 0.999454 
0.0112183 -0.0247786 0.99963 
0.00932223 -0.0194376 0.999768 
0.0116437 -0.0148888 0.999821 
0.00905081 -0.00961533 0.999913 
0.0104448 -0.00399321 0.999937 
0.0100373 0.00346636 0.999944 
0.0107628 0.0106694 0.999885 
0.0112005 0.0191187 0.999754 
0.0114449 0.0292617 0.999506 
0.0121665 0.0411075 0.999081 
0.0129813 0.0548933 0.998408 
0.0137198 0.0710608 0.997378 
0.0145617 0.0900953 0.995827 
0.015559 0.112192 0.993565 
0.0166207 0.137824 0.990317 
0.0177823 0.167389 0.985731 
0.0191255 0.201239 0.979355 
0.0206533 0.239644 0.970641 
0.0225951 0.282714 0.958938 
0.0254257 0.329698 0.943744 
0.0290979 0.37702 0.925748 
0.0290656 0.424595 0.904917 
0.0105013 -0.379053 0.925316 
0.0145473 -0.327579 0.944712 
0.0141469 -0.282214 0.959247 
0.0139592 -0.242264 0.97011 
0.0136269 -0.207395 0.978162 
0.0130506 -0.177045 0.984116 
0.0123035 -0.150701 0.988503 
0.0114842 -0.127942 0.991715 
0.0106227 -0.108405 0.99405 
0.00980484 -0.0916552 0.995743 
0.00912118 -0.0774397 0.996955 
0.00849105 -0.06543 0.997821 
0.00786389 -0.0552574 0.998441 
0.00750435 -0.0466084 0.998885 
0.00709601 -0.0393469 0.9992 
0.00636948 -0.0330433 0.999434 
0.00666802 -0.027402 0.999602 
0.00625496 -0.0226108 0.999725 
0.00410802 -0.0179821 0.99983 
0.00785368 -0.0142878 0.999867 
0.00407211 -0.0116859 0.999923 
0.00610696 -0.00584796 0.999964 
0.00631044 -0.00043633 0.99998 
0.005946 0.0062972 0.999962 
0.00634139 0.0139224 0.999883 
0.00642652 0.0228537 0.999718 
0.00654184 0.0336418 0.999413 
0.00678135 0.0463431 0.998903 
0.00705462 0.0611623 0.998103 
0.00726313 0.0786981 0.996872 
0.00749612 0.0992796 0.995031 
0.00778966 0.123174 0.992355 
0.00809901 0.150904 0.988515 
0.00848358 0.18289 0.983097 
0.00901623 0.219643 0.975539 
0.00980314 0.26179 0.965075 
0.0111172 0.309908 0.950702 
0.0135746 0.364472 0.931115 
0.01468 0.425189 0.904985 
-0.0139479 -0.383274 0.923529 
-0.0105566 -0.342643 0.939406 
-0.00752423 -0.30197 0.953288 
-0.00510675 -0.261452 0.965203 
-0.00333039 -0.224431 0.974484 
-0.00205307 -0.191784 0.981435 
-0.00118261 -0.163396 0.98656 
-0.000574646 -0.138857 0.990312 
-0.000129505 -0.117805 0.993037 
0.000190853 -0.0997621 0.995011 
0.00045083 -0.0844108 0.996431 
0.000713368 -0.0714395 0.997445 
0.000922223 -0.0604288 0.998172 
0.00114265 -0.051021 0.998697 
0.00131513 -0.0431502 0.999068 
0.00141221 -0.0364603 0.999334 
0.00165643 -0.0302309 0.999542 
0.00159002 -0.0254089 0.999676 
0.00223908 -0.0203466 0.99979 
0.00290627 -0.013782 0.999901 
0.00244611 -0.00758538 0.999968 
0.00190055 -0.00257881 0.999995 
0.0020212 0.00337355 0.999992 
0.00191329 0.010871 0.999939 
0.0017617 0.019187 0.999814 
0.00159858 0.0290098 0.999578 
0.00140321 0.0407525 0.999168 
0.00114204 0.0544708 0.998515 
0.000844027 0.070539 0.997509 
0.000451801 0.0894344 0.995993 
7.63395e-07 0.111498 0.993765 
-0.000482842 0.137072 0.990561 
-0.000989493 0.166689 0.986009 
-0.00146135 0.200731 0.979645 
-0.00183995 0.23962 0.970865 
-0.00202659 0.283393 0.959002 
-0.00190598 0.330902 0.943663 
-0.00152032 0.378121 0.925755 
-0.000721698 0.424699 0.905334 
-0.03684 -0.387051 0.921322 
-0.0322043 -0.333895 0.94206 
-0.0260445 -0.286382 0.957761 
-0.0216807 -0.244997 0.969281 
-0.0184779 -0.209107 0.977718 
-0.0159031 -0.178044 0.983894 
-0.0137814 -0.151195 0.988408 
-0.0119952 -0.128085 0.991691 
-0.010415 -0.108297 0.994064 
-0.00908528 -0.0913904 0.995774 
-0.0079277 -0.0770918 0.996992 
-0.00678778 -0.0650605 0.997858 
-0.00579041 -0.0548422 0.998478 
-0.00503685 -0.0461862 0.99892 
-0.00436648 -0.0389381 0.999232 
-0.00342121 -0.0327447 0.999458 
-0.00335976 -0.0270943 0.999627 
-0.00272092 -0.0223685 0.999746 
-0.00150023 -0.017786 0.999841 
-0.00323452 -0.0140312 0.999896 
-0.00129601 -0.0114889 0.999933 
-0.00200259 -0.00566273 0.999982 
-0.00230964 -0.000205075 0.999997 
-0.00206662 0.00650912 0.999977 
-0.00265642 0.0142311 0.999895 
-0.00308913 0.0232451 0.999725 
-0.00352761 0.0340756 0.999413 
-0.00422603 0.0467805 0.998896 
-0.00501317 0.061755 0.998079 
-0.00592316 0.0793954 0.996826 