# vtk DataFile Version 3.0 
Exported using Morpho https://github.com/Morpho-lang/morpho 
ASCII 
DATASET UNSTRUCTURED_GRID 

POINTS 1245 float 
-0.303845 -0.952721 0 
-0.250833 -0.96803 0 
-0.195084 -0.980787 0 
-0.146308 -0.989239 0 
-0.0940719 -0.995565 0 
-0.0475118 -0.998871 0 
-0.000246339 -1 0 
0.0470875 -0.998891 0 
0.0937543 -0.995595 0 
0.146139 -0.989264 0 
0.195062 -0.980791 0 
0.250843 -0.968028 0 
0.303953 -0.952687 0 
-0.409153 -0.912466 0 
-0.356519 -0.934288 0 
-0.308871 -0.898929 0 
-0.258282 -0.916037 0 
-0.207345 -0.934859 0 
-0.154868 -0.930629 0 
-0.104343 -0.948989 0 
-0.0520099 -0.939193 0 
-8.5762e-05 -0.954582 0 
0.0518744 -0.939288 0 
0.104354 -0.949042 0 
0.154696 -0.9306 0 
0.207366 -0.934975 0 
0.258274 -0.916081 0 
0.308979 -0.898924 0 
0.356593 -0.93426 0 
0.409236 -0.912429 0 
-0.513788 -0.857917 0 
-0.461695 -0.887039 0 
-0.411157 -0.857936 0 
-0.359855 -0.879963 0 
-0.306888 -0.847481 0 
-0.254732 -0.866979 0 
-0.201991 -0.889059 0 
-0.149956 -0.874108 0 
-0.100608 -0.900088 0 
-0.0497575 -0.880388 0 
2.4595e-05 -0.904789 0 
0.0496869 -0.8804 0 
0.100612 -0.900177 0 
0.149872 -0.874171 0 
0.202071 -0.889165 0 
0.254695 -0.867031 0 
0.306946 -0.847482 0 
0.359894 -0.879943 0 
0.411236 -0.857929 0 
0.461748 -0.887011 0 
0.513842 -0.857885 0 
-0.564741 -0.825268 0 
-0.512908 -0.802945 0 
-0.462372 -0.832348 0 
-0.410124 -0.804631 0 
-0.358606 -0.827415 0 
-0.305781 -0.795641 0 
-0.25358 -0.816639 0 
-0.200756 -0.839997 0 
-0.149043 -0.818944 0 
-0.0987265 -0.846667 0 
-0.0490473 -0.822548 0 
5.00659e-05 -0.849932 0 
0.0490834 -0.822542 0 
0.0987838 -0.846676 0 
0.148997 -0.818924 0 
0.200826 -0.840131 0 
0.253508 -0.816728 0 
0.305831 -0.795701 0 
0.358581 -0.827419 0 
0.410181 -0.804654 0 
0.462414 -0.83234 0 
0.512965 -0.802929 0 
0.564777 -0.825243 0 
-0.660798 -0.750564 0 
-0.614015 -0.789295 0 
-0.561786 -0.769772 0 
-0.510673 -0.747856 0 
-0.460836 -0.778365 0 
-0.408794 -0.751554 0 
-0.357337 -0.774971 0 
-0.304815 -0.743684 0 
-0.252907 -0.765535 0 
-0.200631 -0.789263 0 
-0.149244 -0.764328 0 
-0.0986912 -0.791935 0 
-0.0492815 -0.765764 0 
4.16586e-05 -0.79382 0 
0.0492411 -0.765708 0 
0.0987508 -0.791951 0 
0.149196 -0.764326 0 
0.200666 -0.789356 0 
0.252841 -0.765599 0 
0.304862 -0.743741 0 
0.357323 -0.775038 0 
0.408863 -0.751626 0 
0.460863 -0.778382 0 
0.510716 -0.747859 0 
0.561819 -0.769761 0 
0.614041 -0.789274 0 
0.660811 -0.750552 0 
-0.707107 -0.707107 0 
-0.654819 -0.699058 0 
-0.60813 -0.73348 0 
-0.558104 -0.71337 0 
-0.509495 -0.692659 0 
-0.45935 -0.724356 0 
-0.407328 -0.698865 0 
-0.355968 -0.722823 0 
-0.303722 -0.691387 0 
-0.252254 -0.71362 0 
-0.20067 -0.737336 0 
-0.149608 -0.710068 0 
-0.0991558 -0.737129 0 
-0.0495872 -0.709825 0 
-2.23646e-05 -0.737917 0 
0.0494408 -0.709766 0 
0.0991291 -0.737116 0 
0.149502 -0.710042 0 
0.200696 -0.73743 0 
0.252186 -0.713735 0 
0.303753 -0.691518 0 
0.355952 -0.722893 0 
0.407371 -0.698945 0 
0.459374 -0.724407 0 
0.509524 -0.692668 0 
0.558131 -0.713361 0 
0.608151 -0.733462 0 
0.654824 -0.699048 0 
0.707107 -0.707107 0 
-0.750564 -0.660798 0 
-0.699058 -0.654819 0 
-0.647692 -0.647692 0 
-0.603437 -0.675718 0 
-0.55905 -0.655305 0 
-0.508501 -0.639581 0 
-0.457509 -0.671321 0 
-0.405555 -0.646545 0 
-0.354417 -0.670703 0 
-0.302427 -0.639219 0 
-0.251503 -0.661417 0 
-0.20061 -0.684911 0 
-0.149717 -0.655943 0 
-0.0995004 -0.682466 0 
-0.0498216 -0.654561 0 
-5.02113e-05 -0.682664 0 
0.0496787 -0.654499 0 
0.0994374 -0.682501 0 
0.149603 -0.655909 0 
0.200573 -0.684972 0 
0.251388 -0.661524 0 
0.302407 -0.639359 0 
0.354397 -0.670836 0 
0.405575 -0.646641 0 
0.457525 -0.67138 0 
0.508497 -0.639623 0 
0.559063 -0.655324 0 
0.603436 -0.675715 0 
0.64769 -0.64769 0 
0.699048 -0.654824 0 
0.750552 -0.660811 0 
-0.789295 -0.614015 0 
-0.73348 -0.60813 0 
-0.675718 -0.603437 0 
-0.613088 -0.613088 0 
-0.55962 -0.604068 0 
-0.506189 -0.588854 0 
-0.455505 -0.618874 0 
-0.403019 -0.594688 0 
-0.352514 -0.618952 0 
-0.300977 -0.586897 0 
-0.250543 -0.608767 0 
-0.200257 -0.632053 0 
-0.150049 -0.601979 0 
-0.0998281 -0.628222 0 
-0.0500377 -0.599914 0 
-3.12334e-05 -0.628076 0 
0.0498927 -0.599835 0 
0.0997818 -0.628253 0 
0.149924 -0.601867 0 
0.200214 -0.632118 0 
0.250423 -0.608915 0 
0.30086 -0.587085 0 
0.352457 -0.619096 0 
0.402948 -0.594743 0 
0.455483 -0.618952 0 
0.506147 -0.588901 0 
0.55964 -0.604067 0 
0.613069 -0.613069 0 
0.675715 -0.603436 0 
0.733462 -0.608151 0 
0.789274 -0.614041 0 
-0.825268 -0.564741 0 
-0.769772 -0.561786 0 
-0.71337 -0.558104 0 
-0.655305 -0.55905 0 
-0.604068 -0.55962 0 
-0.551031 -0.551031 0 
-0.497922 -0.537596 0 
-0.451508 -0.567021 0 
-0.399773 -0.542431 0 
-0.350494 -0.567003 0 
-0.301574 -0.534146 0 
-0.250874 -0.555692 0 
-0.200542 -0.579013 0 
-0.150324 -0.548268 0 
-0.100169 -0.57443 0 
-0.0500152 -0.545912 0 
-3.29278e-05 -0.574268 0 
0.0499208 -0.545788 0 
0.100058 -0.574485 0 
0.150038 -0.548073 0 
0.200377 -0.579041 0 
0.250556 -0.55585 0 
0.301273 -0.534348 0 
0.350318 -0.567174 0 
0.399615 -0.542384 0 
0.451404 -0.5671 0 
0.497945 -0.537702 0 
0.551073 -0.551073 0 
0.604067 -0.55964 0 
0.655324 -0.559063 0 
0.713361 -0.558131 0 
0.769761 -0.561819 0 
0.825243 -0.564777 0 
-0.857917 -0.513788 0 
-0.802945 -0.512908 0 
-0.747856 -0.510673 0 
-0.692659 -0.509495 0 
-0.639581 -0.508501 0 
-0.588854 -0.506189 0 
-0.537596 -0.497922 0 
-0.486157 -0.486157 0 
-0.444928 -0.512952 0 
-0.401787 -0.486784 0 
-0.351685 -0.513639 0 
-0.299695 -0.48291 0 
-0.250032 -0.503 0 
-0.200501 -0.526165 0 
-0.149489 -0.495195 0 
-0.0999281 -0.521367 0 
-0.0499712 -0.492294 0 
4.64723e-05 -0.520999 0 
0.050147 -0.492108 0 
0.099934 -0.52133 0 
0.14957 -0.494692 0 
0.200133 -0.526255 0 
0.249839 -0.503309 0 
0.299839 -0.483005 0 
0.351514 -0.513798 0 
0.401881 -0.486608 0 
0.444935 -0.513054 0 
0.486228 -0.486228 0 
0.537702 -0.497945 0 
0.588901 -0.506147 0 
0.639623 -0.508497 0 
0.692668 -0.509524 0 
0.747859 -0.510716 0 
0.802929 -0.512965 0 
0.857885 -0.513842 0 
-0.887039 -0.461695 0 
-0.832348 -0.462372 0 
-0.778365 -0.460836 0 
-0.724356 -0.45935 0 
-0.671321 -0.457509 0 
-0.618874 -0.455505 0 
-0.567021 -0.451508 0 
-0.512952 -0.444928 0 
-0.450685 -0.450685 0 
-0.397667 -0.437543 0 
-0.348492 -0.462546 0 
-0.295416 -0.432968 0 
-0.247004 -0.450633 0 
-0.198702 -0.473818 0 
-0.150161 -0.441625 0 
-0.100085 -0.468395 0 
-0.0502271 -0.439281 0 
0.000144229 -0.468374 0 
0.0504178 -0.439106 0 
0.100428 -0.468348 0 
0.150697 -0.441105 0 
0.199103 -0.473881 0 
0.247983 -0.450921 0 
0.296569 -0.432268 0 
0.348831 -0.462562 0 
0.397506 -0.4368 0 
0.450637 -0.450637 0 
0.513054 -0.444935 0 
0.5671 -0.451404 0 
0.618952 -0.455483 0 
0.67138 -0.457525 0 
0.724407 -0.459374 0 
0.778382 -0.460863 0 
0.83234 -0.462414 0 
0.887011 -0.461748 0 
-0.912466 -0.409153 0 
-0.857936 -0.411157 0 
-0.804631 -0.410124 0 
-0.751554 -0.408794 0 
-0.698865 -0.407328 0 
-0.646545 -0.405555 0 
-0.594688 -0.403019 0 
-0.542431 -0.399773 0 
-0.486784 -0.401787 0 
-0.437543 -0.397667 0 
-0.387256 -0.387256 0 
-0.344215 -0.411459 0 
-0.30136 -0.381507 0 
-0.25021 -0.395692 0 
-0.200211 -0.419975 0 
-0.150955 -0.389014 0 
-0.100617 -0.416095 0 
-0.0503197 -0.386922 0 
-4.02994e-05 -0.416525 0 
0.05006 -0.386948 0 
0.100784 -0.416323 0 
0.150432 -0.388572 0 
0.200855 -0.420694 0 
0.25086 -0.396905 0 
0.301746 -0.379789 0 
0.344135 -0.410678 0 
0.385823 -0.385823 0 
0.4368 -0.397506 0 
0.486608 -0.401881 0 
0.542384 -0.399615 0 
0.594743 -0.402948 0 
0.646641 -0.405575 0 
0.698945 -0.407371 0 
0.751626 -0.408863 0 
0.804654 -0.410181 0 
0.857929 -0.411236 0 
0.912429 -0.409236 0 
-0.934288 -0.356519 0 
-0.879963 -0.359855 0 
-0.827415 -0.358606 0 
-0.774971 -0.357337 0 
-0.722823 -0.355968 0 
-0.670703 -0.354417 0 
-0.618952 -0.352514 0 
-0.567003 -0.350494 0 
-0.513639 -0.351685 0 
-0.462546 -0.348492 0 
-0.411459 -0.344215 0 
-0.351697 -0.351697 0 
-0.29839 -0.336232 0 
-0.249846 -0.342529 0 
-0.200971 -0.367271 0 
-0.149995 -0.337521 0 
-0.100435 -0.3646 0 
-0.0498692 -0.335025 0 
-6.88684e-05 -0.365025 0 
0.0495433 -0.334795 0 
0.0996798 -0.364834 0 
0.148162 -0.337172 0 
0.199644 -0.368939 0 
0.24763 -0.345582 0 
0.295348 -0.332889 0 
0.34978 -0.34978 0 
0.410678 -0.344135 0 
0.462562 -0.348831 0 
0.513798 -0.351514 0 
0.567174 -0.350318 0 
0.619096 -0.352457 0 
0.670836 -0.354397 0 
0.722893 -0.355952 0 
0.775038 -0.357323 0 
0.827419 -0.358581 0 
0.879943 -0.359894 0 
0.93426 -0.356593 0 
-0.952721 -0.303845 0 
-0.898929 -0.308871 0 
-0.847481 -0.306888 0 
-0.795641 -0.305781 0 
-0.743684 -0.304815 0 
-0.691387 -0.303722 0 
-0.639219 -0.302427 0 
-0.586897 -0.300977 0 
-0.534146 -0.301574 0 
-0.48291 -0.299695 0 
-0.432968 -0.295416 0 
-0.381507 -0.30136 0 
-0.336232 -0.29839 0 
-0.288184 -0.288184 0 
-0.242975 -0.290577 0 
-0.198059 -0.315051 0 
-0.148383 -0.285894 0 
-0.0994753 -0.313232 0 
-0.0507184 -0.283118 0 
-0.000202902 -0.313447 0 
0.0500077 -0.282824 0 
0.0988289 -0.312817 0 
0.148102 -0.28482 0 
0.195742 -0.317413 0 
0.240766 -0.295824 0 
0.285014 -0.285014 0 
0.332889 -0.295348 0 
0.379789 -0.301746 0 
0.432268 -0.296569 0 
0.483005 -0.299839 0 
0.534348 -0.301273 0 
0.587085 -0.30086 0 
0.639359 -0.302407 0 
0.691518 -0.303753 0 
0.743741 -0.304862 0 
0.795701 -0.305831 0 
0.847482 -0.306946 0 
0.898924 -0.308979 0 
0.952687 -0.303953 0 
-0.96803 -0.250833 0 
-0.916037 -0.258282 0 
-0.866979 -0.254732 0 
-0.816639 -0.25358 0 
-0.765535 -0.252907 0 
-0.71362 -0.252254 0 
-0.661417 -0.251503 0 
-0.608767 -0.250543 0 
-0.555692 -0.250874 0 
-0.503 -0.250032 0 
-0.450633 -0.247004 0 
-0.395692 -0.25021 0 
-0.342529 -0.249846 0 
-0.290577 -0.242975 0 
-0.239946 -0.239946 0 
-0.194478 -0.26004 0 
-0.151293 -0.23238 0 
-0.101048 -0.260904 0 
-0.0503938 -0.232537 0 
-0.000203281 -0.262984 0 
0.050638 -0.232316 0 
0.100942 -0.260855 0 
0.152412 -0.232597 0 
0.195768 -0.261421 0 
0.241873 -0.241873 0 
0.295824 -0.240766 0 
0.345582 -0.24763 0 
0.396905 -0.25086 0 
0.450921 -0.247983 0 
[...]
POINT_DATA 1245 
VECTORS vectors float
0.438903 -0.165394 0.883181 
0.44517 -0.143587 0.883859 
0.449561 -0.121265 0.88498 
0.451581 -0.102094 0.88637 
0.451177 -0.0816929 0.888688 
0.449025 -0.0632539 0.891277 
0.444464 -0.0438528 0.894723 
0.437236 -0.0226156 0.899062 
0.428805 0.000847008 0.903397 
0.418745 0.0305918 0.907589 
0.409964 0.0609243 0.910065 
0.40167 0.0977722 0.91055 
0.396419 0.132744 0.908422 
0.421437 -0.210296 0.882138 
0.430953 -0.187654 0.882647 
0.391601 -0.158555 0.906371 
0.398304 -0.138981 0.906663 
0.408598 -0.119668 0.904836 
0.397187 -0.0978294 0.912508 
0.408516 -0.0798667 0.90925 
0.392952 -0.057647 0.91775 
0.40176 -0.0382946 0.914944 
0.382739 -0.0136121 0.923756 
0.387389 0.0105787 0.921856 
0.369917 0.0381677 0.92828 
0.373648 0.0679221 0.92508 
0.363141 0.0980233 0.926564 
0.357409 0.126917 0.925284 
0.393441 0.165369 0.904355 
0.391543 0.19429 0.899414 
0.397385 -0.256228 0.881154 
0.410251 -0.233212 0.88165 
0.375576 -0.200289 0.904891 
0.384093 -0.179222 0.905733 
0.348589 -0.149356 0.925299 
0.356806 -0.129673 0.925135 
0.367122 -0.111509 0.923465 
0.348989 -0.0885459 0.932934 
0.364448 -0.0725584 0.928393 
0.343426 -0.0505844 0.937816 
0.358448 -0.0328651 0.932971 
0.33546 -0.0101157 0.942 
0.347837 0.0117314 0.937482 
0.327306 0.0360644 0.94423 
0.339458 0.0636994 0.938462 
0.327294 0.0906685 0.940562 
0.320988 0.117489 0.939767 
0.354046 0.154507 0.922377 
0.351017 0.179533 0.918997 
0.389006 0.218689 0.894902 
0.383817 0.238703 0.892023 
0.38299 -0.27912 0.880574 
0.353674 -0.24309 0.903229 
0.36548 -0.221711 0.904029 
0.333777 -0.189376 0.923434 
0.341813 -0.169055 0.924437 
0.309663 -0.140397 0.940424 
0.317052 -0.12225 0.940496 
0.328112 -0.104133 0.938882 
0.306011 -0.0820273 0.948487 
0.321678 -0.065969 0.944548 
0.299298 -0.0450459 0.953096 
0.315616 -0.0283687 0.948463 
0.293098 -0.00712797 0.956056 
0.308313 0.012864 0.951198 
0.289046 0.0354712 0.956658 
0.304757 0.0604138 0.950512 
0.293531 0.0852694 0.952139 
0.286232 0.108855 0.951957 
0.316604 0.142268 0.937828 
0.312547 0.165248 0.935419 
0.346719 0.201339 0.916105 
0.339535 0.22007 0.914486 
0.374355 0.255319 0.891443 
0.351163 -0.323218 0.878758 
0.36739 -0.301636 0.879796 
0.340248 -0.263923 0.902538 
0.313264 -0.229621 0.921488 
0.324437 -0.209565 0.922401 
0.295737 -0.17877 0.938393 
0.302888 -0.159513 0.939582 
0.27349 -0.132383 0.952721 
0.281147 -0.114734 0.952782 
0.290818 -0.0978539 0.951761 
0.268407 -0.0761383 0.960292 
0.282173 -0.0606393 0.957445 
0.260855 -0.0408234 0.964514 
0.276153 -0.0246518 0.960798 
0.255806 -0.00493488 0.966715 
0.271346 0.013822 0.962383 
0.254359 0.0344025 0.966498 
0.271824 0.0577453 0.960613 
0.261077 0.0797142 0.962021 
0.254016 0.101367 0.961873 
0.281611 0.131572 0.950465 
0.276525 0.152687 0.9488 
0.306753 0.185511 0.933535 
0.297809 0.203488 0.932686 
0.32813 0.23631 0.914597 
0.359736 0.270222 0.893068 
0.340197 0.284994 0.896127 
0.333822 -0.344418 0.877462 
0.314385 -0.305479 0.898802 
0.325721 -0.283755 0.901881 
0.300338 -0.248611 0.920864 
0.276439 -0.217266 0.93615 
0.286906 -0.198036 0.937265 
0.261127 -0.168759 0.950438 
0.267911 -0.150227 0.951659 
0.240896 -0.124399 0.962546 
0.247566 -0.107882 0.962846 
0.256283 -0.0918248 0.96223 
0.234531 -0.0710812 0.969506 
0.246528 -0.0561287 0.967509 
0.226886 -0.0372959 0.973207 
0.240725 -0.0217681 0.970349 
0.222745 -0.00341254 0.974871 
0.237744 0.0143894 0.971221 
0.223006 0.0331866 0.974252 
0.240529 0.0547923 0.969094 
0.230869 0.0747099 0.970112 
0.223757 0.0942873 0.970074 
0.248934 0.121906 0.960818 
0.243383 0.141859 0.9595 
0.269629 0.171924 0.947493 
0.259753 0.18989 0.946821 
0.284896 0.219463 0.933097 
0.312387 0.25122 0.916135 
0.297155 0.268928 0.916175 
0.315276 0.301907 0.899696 
0.316286 -0.363537 0.876244 
0.297855 -0.324074 0.897919 
0.279983 -0.287625 0.915905 
0.286504 -0.266713 0.920206 
0.263866 -0.236204 0.935191 
0.244194 -0.206029 0.947587 
0.253253 -0.187045 0.949146 
0.229928 -0.1592 0.960098 
0.235776 -0.141632 0.961431 
0.211112 -0.117089 0.970424 
0.217136 -0.101353 0.970865 
0.224896 -0.0860894 0.970572 
0.20422 -0.0663739 0.976672 
0.214738 -0.0520433 0.975284 
0.196795 -0.0343464 0.979843 
0.209372 -0.0194709 0.977642 
0.193353 -0.00233316 0.981127 
0.207439 0.0143912 0.978142 
0.194542 0.0316855 0.980382 
0.211533 0.0517278 0.976001 
0.202718 0.0699222 0.976738 
0.196094 0.0880487 0.976624 
0.218895 0.113523 0.969122 
0.213011 0.132327 0.968047 
0.235956 0.160297 0.958452 
0.226331 0.178788 0.957502 
0.245759 0.207103 0.946948 
0.268568 0.234973 0.934162 
0.258384 0.253973 0.93206 
0.273355 0.28618 0.918356 
0.287454 0.32092 0.90243 
0.299155 -0.379238 0.875606 
0.27903 -0.335526 0.899758 
0.260739 -0.294486 0.919398 
0.251115 -0.257816 0.932991 
0.234306 -0.225518 0.945644 
0.215641 -0.195232 0.956757 
0.222786 -0.176722 0.958716 
0.201526 -0.150051 0.967921 
0.206977 -0.133317 0.96922 
0.184161 -0.110159 0.976704 
0.189428 -0.095177 0.977271 
0.19617 -0.0807664 0.977238 
0.177096 -0.0622051 0.982226 
0.186376 -0.0485046 0.98128 
0.170151 -0.0318102 0.984904 
0.181515 -0.017603 0.983231 
0.167242 -0.00160755 0.985915 
0.180256 0.0141983 0.983517 
0.16877 0.0302546 0.985191 
0.184805 0.0487807 0.981564 
0.176811 0.0655054 0.982063 
0.170622 0.0824089 0.981884 
0.191334 0.105961 0.975789 
0.185397 0.123864 0.974826 
0.205575 0.150357 0.967022 
0.197126 0.169053 0.965693 
0.214359 0.197911 0.956494 
0.22912 0.227743 0.946381 
0.234002 0.262431 0.936148 
0.246854 0.300188 0.921385 
0.259791 0.340775 0.903538 
0.281068 -0.392153 0.875909 
0.262403 -0.348705 0.89975 
0.244748 -0.307871 0.91941 
0.230822 -0.270762 0.934564 
0.219561 -0.240625 0.945459 
0.204414 -0.210492 0.955985 
0.188142 -0.182219 0.96509 
0.195059 -0.166283 0.966593 
0.175486 -0.14117 0.974308 
0.180573 -0.125647 0.975503 
0.159835 -0.104435 0.981604 
0.164236 -0.089941 0.982312 
0.170372 -0.0760591 0.98244 
0.152856 -0.058497 0.986516 
0.16114 -0.0453763 0.985888 
0.14649 -0.0295683 0.98877 
0.156874 -0.0161143 0.987487 
0.143961 -0.00108701 0.989583 
0.155879 0.0138794 0.987679 
0.145638 0.0287721 0.988919 
0.160426 0.0461846 0.985967 
0.153082 0.0619512 0.98627 
0.14747 0.0781756 0.985972 
0.166171 0.0993499 0.981079 
0.160024 0.116166 0.980254 
0.177972 0.140948 0.973889 
0.169671 0.157889 0.972771 
0.183714 0.185152 0.965385 
0.196179 0.214046 0.956921 
0.203727 0.24289 0.948419 
0.211909 0.278931 0.936639 
0.222461 0.318473 0.921459 
0.232149 0.361484 0.903015 
0.261639 -0.402049 0.87744 
0.244299 -0.359145 0.90074 
0.227769 -0.318975 0.919987 
0.213308 -0.282272 0.935319 
0.200819 -0.249962 0.947202 
0.189333 -0.221493 0.956606 
0.175998 -0.194126 0.965059 
0.162414 -0.168789 0.972179 
0.168196 -0.155192 0.973461 
0.150996 -0.134605 0.979327 
0.156396 -0.119514 0.980437 
0.138013 -0.09861 0.985509 
0.141699 -0.0847983 0.986271 
0.147088 -0.0717067 0.986521 
0.131171 -0.0548382 0.989842 
0.138756 -0.0425152 0.989414 
0.125421 -0.0276533 0.991718 
0.134922 -0.0148446 0.990745 
0.123218 -0.0006785 0.992379 
0.134226 0.0133075 0.990861 
0.124691 0.0274253 0.991816 
0.138351 0.0437817 0.989415 
0.131681 0.0585804 0.98956 
0.126831 0.0739053 0.989167 
0.142937 0.0946685 0.985194 
0.136253 0.111362 0.984395 
0.151799 0.131551 0.979618 
0.144612 0.146377 0.978602 
0.155752 0.171533 0.972789 
0.166097 0.19834 0.965957 
0.173908 0.226546 0.958349 
0.181536 0.258687 0.948749 
0.189516 0.295626 0.936317 
0.197995 0.336662 0.920574 
0.205576 0.381798 0.901093 
0.240362 -0.409187 0.880223 
0.224463 -0.366735 0.902841 
0.20899 -0.327183 0.921561 
0.194987 -0.29064 0.936754 
0.182358 -0.257679 0.948866 
0.170932 -0.227777 0.958593 
0.159916 -0.200496 0.966555 
0.1484 -0.17423 0.973458 
0.142143 -0.148871 0.978587 
0.130382 -0.127209 0.983269 
0.134868 -0.112654 0.984439 
0.118656 -0.0926269 0.988606 
0.121017 -0.079582 0.989455 
0.126283 -0.0673476 0.989705 
0.111653 -0.0520633 0.992383 
0.118638 -0.0400445 0.99213 
0.106649 -0.0260664 0.993955 
0.115366 -0.0137418 0.993228 
0.104735 -0.000359002 0.9945 
0.114625 0.0130305 0.993323 
0.10607 0.0263903 0.994008 
0.11861 0.0412845 0.992082 
0.112333 0.0553426 0.992128 
0.108188 0.0697553 0.99168 
0.122439 0.0896357 0.98842 
0.116484 0.105341 0.98759 
0.126225 0.127576 0.983764 
0.12988 0.154071 0.979486 
0.13825 0.180627 0.973787 
0.145787 0.208362 0.967125 
0.152769 0.23893 0.958944 
0.159853 0.27304 0.948629 
0.167023 0.31135 0.935502 
0.174226 0.353723 0.918981 
0.180419 0.400761 0.898243 
0.216995 -0.414142 0.883968 
0.20292 -0.372029 0.905769 
0.188711 -0.332836 0.923909 
0.17579 -0.296767 0.93863 
0.163892 -0.263669 0.950588 
0.153303 -0.233559 0.960181 
0.143232 -0.206128 0.967985 
0.134007 -0.180851 0.974338 
0.127236 -0.157197 0.979337 
0.119674 -0.137357 0.983266 
0.110623 -0.118122 0.986818 
0.115166 -0.106186 0.987654 
0.100801 -0.0902915 0.990801 
0.102285 -0.0764229 0.991815 
0.106971 -0.0642138 0.992186 
0.0942191 -0.0495676 0.994317 
0.100735 -0.0380315 0.994186 
0.0899124 -0.0246332 0.995645 
0.0980184 -0.0129177 0.995101 
0.0882727 -0.000179162 0.996096 
0.0972991 0.0127295 0.995174 
0.0891247 0.0254142 0.995696 
0.100303 0.0401672 0.994146 
0.0944458 0.0537072 0.99408 
0.0912319 0.068792 0.993451 
0.10351 0.0841896 0.991059 
0.0976694 0.0976707 0.990415 
0.105222 0.117477 0.987485 
0.110751 0.138422 0.984161 
0.11468 0.163469 0.97986 
0.1208 0.18986 0.974351 
0.126951 0.218693 0.9675 
0.132993 0.250557 0.958923 
0.139155 0.286083 0.948046 
0.145387 0.325475 0.934307 
0.151717 0.369073 0.916933 
0.156802 0.417694 0.894955 
0.191454 -0.41761 0.888227 
0.179728 -0.375707 0.909144 
0.167075 -0.337073 0.926535 
0.155051 -0.301012 0.940931 
0.144699 -0.268225 0.952427 
0.134654 -0.237911 0.961908 
0.125894 -0.210444 0.969466 
0.117698 -0.185205 0.975626 
0.111359 -0.162094 0.980472 
0.104551 -0.14129 0.984432 
0.0977914 -0.12251 0.987638 
0.0951773 -0.103335 0.990082 
0.0865823 -0.0859026 0.992534 
0.0848624 -0.0730229 0.993713 
0.0900062 -0.0613697 0.994049 
0.0786865 -0.0471668 0.995783 
0.0847419 -0.0361213 0.995748 
0.0748294 -0.023346 0.996923 
0.0823675 -0.0121507 0.996528 
0.073379 -0.000142172 0.997304 
0.0817878 0.0120283 0.996577 
0.0744105 0.0239624 0.99694 
0.0844428 0.0381919 0.995696 
0.0788889 0.0509631 0.99558 
0.0766681 0.0646376 0.994959 
0.0842323 0.0827179 0.993007 
0.0857897 0.103828 0.990888 
0.0904144 0.124497 0.988092 
0.0948988 0.146407 0.984662 
0.0984936 0.171337 0.980277 
0.103448 0.198453 0.974636 
0.108519 0.228084 0.967575 
0.113799 0.261289 0.958529 
0.119092 0.297567 0.947244 
0.124692 0.338184 0.932783 
0.130424 0.382528 0.914692 
0.13453 0.432331 0.891623 
0.163957 -0.420336 0.892433 
0.155533 -0.378982 0.91224 
0.143651 -0.340374 0.929252 
0.134199 -0.305017 0.942844 
0.1244 -0.271847 0.954266 
0.116255 -0.241487 0.963415 
0.10828 -0.213578 0.970907 
0.101147 -0.188123 0.976923 
0.0954642 -0.164937 0.981673 
0.089525 -0.144211 0.985489 
0.083602 -0.125602 0.988552 
0.0816195 -0.108567 0.990733 
0.0769212 -0.0947995 0.99252 
0.071321 -0.080258 0.994219 
0.0696486 -0.068163 0.99524 
0.0743229 -0.0579666 0.995548 
0.0644079 -0.0447743 0.996919 
0.0701619 -0.0342432 0.996948 
0.0611276 -0.0224265 0.997878 
0.0681337 -0.0114986 0.99761 
0.0598634 0.000191783 0.998207 
0.0674152 0.0115939 0.997658 
0.0605852 0.023309 0.997891 
0.0696345 0.035895 0.996927 
0.0648922 0.047715 0.996751 
0.0634356 0.059712 0.996198 
0.0677638 0.0749028 0.994886 
0.0712591 0.0908507 0.993312 
0.0724692 0.109523 0.991339 
0.0761456 0.129782 0.988614 
0.0796653 0.152396 0.985103 
0.0828939 0.177796 0.98057 
0.0869955 0.205771 0.974726 
0.0913104 0.236813 0.967255 
0.0956011 0.270771 0.957885 
0.100316 0.308693 0.945857 
0.104949 0.349362 0.931092 
0.110514 0.394552 0.912204 
0.113372 0.444696 0.888477 
0.134511 -0.422876 0.896149 
0.129561 -0.382418 0.914861 
0.120661 -0.345633 0.93058 
0.111375 -0.310229 0.944115 
0.104595 -0.277601 0.954986 
0.0972537 -0.246867 0.964157 
0.0908009 -0.218664 0.971566 
0.0848158 -0.19268 0.977589 
0.0796888 -0.168979 0.982393 
0.0747811 -0.147543 0.986224 
0.069775 -0.127838 0.989338 
0.0667225 -0.109892 0.991701 
0.0637102 -0.0932598 0.993601 
0.058768 -0.0784785 0.995182 
0.0558059 -0.0651721 0.996312 
0.0593038 -0.0549269 0.996728 
0.0509238 -0.0437605 0.997743 
0.0566333 -0.0333002 0.99784 
0.0487654 -0.0215541 0.998578 
0.0553315 -0.0109695 0.998408 
0.0477209 0.000443427 0.998861 
0.0544098 0.0118204 0.998449 
0.0479891 0.0238165 0.998564 
0.0554345 0.0348435 0.997854 
0.0513845 0.0466557 0.997589 
0.0522524 0.061882 0.996715 
0.0554141 0.0773288 0.995464 
0.0582602 0.0945047 0.993818 
0.0594546 0.114445 0.991649 
0.0624277 0.135864 0.988759 
0.0651937 0.159541 0.985036 
0.0680078 0.186064 0.980181 
0.0712951 0.215217 0.97396 
0.0747186 0.247217 0.966075 
0.0784056 0.282533 0.956048 
0.0819267 0.320264 0.943779 
0.0864154 0.362036 0.92815 
0.0913094 0.405238 0.90964 
0.0928213 0.45479 0.885748 
0.102013 -0.425616 0.899136 
0.104721 -0.390123 0.914788 
0.0946373 -0.354173 0.930379 
0.089553 -0.31939 0.943382 
0.0835397 -0.286009 0.954578 
0.0782419 -0.254627 0.963869 
0.0733745 -0.225689 0.971432 
0.0685011 -0.199005 0.977601 
0.0643829 -0.174772 0.982502 
0.0605275 -0.152733 0.986412 
0.0564949 -0.132975 0.989508 
0.0538438 -0.114479 0.991965 
0.0512599 -0.098167 0.993849 
0.0480692 -0.0830671 0.995384 
0.0451666 -0.0685663 0.996624 
0.0448897 -0.0544491 0.997507 
0.0395655 -0.0418239 0.998341 
0.0445416 -0.0316109 0.998507 
0.0372956 -0.0199789 0.999105 
0.0437221 -0.0103534 0.99899 
0.0366168 -6.48625e-05 0.999329 
0.042812 0.0114604 0.999017 
0.037369 0.0225481 0.999047 
0.0418593 0.0360387 0.998473 
0.0410264 0.0510528 0.997853 
0.0420666 0.0672301 0.99685 
0.0442638 0.0833405 0.995538 
0.0459368 0.10159 0.993765 
0.0473881 0.121516 0.991458 
0.0494403 0.143849 0.988364 
0.0516485 0.16848 0.984351 
0.0538309 0.196028 0.97912 
0.0564041 0.226506 0.972375 
0.0589624 0.25987 0.963842 
0.0617116 0.296401 0.953068 
0.0647861 0.335795 0.939704 
0.0678375 0.376602 0.923888 
0.0735293 0.419589 0.904731 
0.0716698 0.462704 0.883611 
0.0736534 -0.42856 0.900506 
0.0738739 -0.381204 0.921535 
0.0678821 -0.338634 0.938466 
0.0625306 -0.300463 0.951742 
0.0591646 -0.266204 0.962099 
0.0553885 -0.235105 0.97039 
0.0519383 -0.206939 0.976974 
0.0488276 -0.181472 0.982183 
0.0459035 -0.158574 0.986279 
0.0429523 -0.137904 0.989514 
0.0407369 -0.119234 0.99203 
0.0387409 -0.102438 0.993985 
0.0366949 -0.0874597 0.995492 
0.0346147 -0.0735401 0.996691 
0.0338394 -0.0603769 0.997602 
0.0319378 -0.0493015 0.998273 
0.0282813 -0.0379146 0.998881 
0.0330873 -0.0297489 0.99901 
0.026469 -0.0205581 0.999438 
0.0322137 -0.0100947 0.99943 
0.0259199 0.000981108 0.999664 
0.0319536 0.0102227 0.999437 
0.0268608 0.0192597 0.999454 
0.0298502 0.0309671 0.999075 
0.0309904 0.0428991 0.998599 
0.0307066 0.0569007 0.997908 
0.0315463 0.0722207 0.99689 
0.0330051 0.0890333 0.995482 
0.0343025 0.107451 0.993618 
0.0351952 0.128828 0.991042 
0.036851 0.151973 0.987697 
0.0383397 0.17825 0.983238 
0.039961 0.207387 0.977442 
0.0417589 0.239892 0.969901 
0.0437471 0.276091 0.960135 
0.0456967 0.316024 0.94765 
0.0488827 0.361269 0.931179 
0.053032 0.411203 0.91 
0.0534094 0.467882 0.882176 
0.0428322 -0.432022 0.900845 
0.0482247 -0.393429 0.918089 
0.0438897 -0.354916 0.933868 
0.0413109 -0.316406 0.947724 
0.0392653 -0.280342 0.959097 
0.0370444 -0.247465 0.968188 
0.0351151 -0.217763 0.97537 
0.033068 -0.191056 0.981022 
0.0311975 -0.167096 0.985447 
0.0293348 -0.145739 0.988888 
0.0276854 -0.126407 0.991592 
0.0263483 -0.109124 0.993679 
0.0249856 -0.0936215 0.995294 
0.0235555 -0.0793892 0.996565 
0.022939 -0.0662187 0.997541 
0.0216197 -0.0541287 0.9983 
0.0197778 -0.0430057 0.998879 
0.0205613 -0.030355 0.999328 
0.0167772 -0.0194785 0.99967 
0.0224427 -0.00958597 0.999702 
0.0165545 0.000656801 0.999863 
0.0197604 0.0115413 0.999738 
0.0186495 0.024933 0.999515 
0.0199387 0.0368841 0.999121 
0.0205039 0.0497921 0.998549 
0.0204887 0.0644021 0.997714 
0.0212685 0.080245 0.996548 
0.0221142 0.0977419 0.994966 
0.0227945 0.117137 0.992854 
0.0235314 0.138967 0.990017 
0.0244162 0.163462 0.986247 
0.0253496 0.190826 0.981296 
0.026344 0.221632 0.974774 
0.0273942 0.255925 0.966308 
0.0286931 0.294221 0.955306 
0.0301796 0.336277 0.941279 
0.0322751 0.381305 0.923886 
0.0360351 0.426604 0.90372 
0.033445 0.471316 0.88133 
0.0167041 -0.435422 0.900072 
0.0197573 -0.384652 0.92285 
0.0194986 -0.339452 0.940421 
0.0184731 -0.298914 0.954101 
0.0181318 -0.262935 0.964643 
0.0175089 -0.230866 0.972828 
0.0166923 -0.202268 0.979188 
0.0159327 -0.176784 0.984121 
0.0150334 -0.154022 0.987953 
0.014198 -0.133667 0.990925 
0.0135174 -0.11546 0.99322 
0.012827 -0.0991165 0.994993 
0.0121068 -0.0844023 0.996358 
0.0117774 -0.0708209 0.99742 
0.0111684 -0.0586504 0.998216 
0.0100927 -0.0472309 0.998833 
0.0107361 -0.0361351 0.999289 
0.00997896 -0.0265994 0.999596 
0.00659255 -0.0159763 0.999851 
0.0129707 -0.00964521 0.999869 
0.00640526 -0.00265657 0.999976 
0.00975903 0.00797305 0.999921 
0.0102753 0.0180973 0.999783 
0.00937259 0.029907 0.999509 
0.0101621 0.0421234 0.999061 
0.0102037 0.0555218 0.998405 
0.0103257 0.0705463 0.997455 
0.0106695 0.087197 0.996134 
0.0110524 0.105479 0.99436 
0.0112704 0.12615 0.991947 
0.011517 0.149402 0.988709 
0.0118687 0.175394 0.984427 
0.0121386 0.204679 0.978754 
0.0124822 0.237593 0.971285 
0.012902 0.274579 0.961478 
0.0133445 0.316144 0.948617 
0.014676 0.363051 0.931654 
0.0160127 0.415223 0.909579 
0.0158893 0.473189 0.880818 
-0.00918336 -0.438744 0.898565 
-0.00622962 -0.398904 0.916972 
-0.00501395 -0.358658 0.933456 
-0.00306912 -0.31811 0.948049 
-0.00180237 -0.280426 0.959874 
-0.0010394 -0.246472 0.969149 
-0.000460131 -0.2162 0.976349 
-0.000117892 -0.189222 0.981934 
6.85344e-05 -0.165265 0.986249 
0.00017384 -0.143884 0.989595 
0.000212071 -0.124755 0.992188 
0.000273273 -0.107739 0.994179 
0.000293167 -0.0923304 0.995728 
0.000304157 -0.0782272 0.996936 
0.000297809 -0.0655559 0.997849 
0.000191647 -0.0538452 0.998549 
0.000156304 -0.0422536 0.999107 
0.000251294 -0.0324515 0.999473 
6.63523e-05 -0.0224261 0.999749 
0.000217171 -0.00936142 0.999956 
0.000365737 0.00388489 0.999992 
0.000185187 0.0143796 0.999897 
0.000245854 0.0247016 0.999695 
0.000230374 0.0373085 0.999304 
0.000102736 0.0500842 0.998745 
5.02386e-05 0.0641717 0.997939 
-3.63079e-06 0.0799334 0.9968 
-0.000114295 0.0972701 0.995258 
-0.000246365 0.116618 0.993177 
-0.000455326 0.138316 0.990388 
-0.000751934 0.162732 0.98667 
-0.00107945 0.190154 0.981754 
-0.00142779 0.22101 0.97527 
-0.0018342 0.25567 0.966762 
-0.00210275 0.294512 0.955646 
-0.00242953 0.337509 0.941319 
-0.00271931 0.383602 0.923495 
-0.00210833 0.429076 0.903266 
-0.00231479 0.473719 0.880673 
-0.0335645 -0.440764 0.896995 
-0.0315704 -0.389059 0.920672 
-0.0261426 -0.342339 0.939213 
-0.0231002 -0.300912 0.953372 
-0.0205845 -0.264174 0.964255 
-0.018661 -0.231632 0.972625 
-0.0170877 -0.202664 0.979099 
-0.0158162 -0.176916 0.984099 
-0.0146454 -0.153964 0.987968 
-0.0137653 -0.133462 0.990958 
-0.0130271 -0.115217 0.993255 
-0.012202 -0.0988593 0.995027 
-0.0115062 -0.0840751 0.996393 
-0.0110964 -0.0704717 0.997452 
-0.010793 -0.0583407 0.998238 
-0.00971804 -0.0470305 0.998846 
-0.0104618 -0.0360062 0.999297 
-0.00971584 -0.0263969 0.999604 
-0.00607468 -0.0160466 0.999853 
-0.0125739 -0.00922416 0.999878 
-0.00607017 -0.00274274 0.999978 
-0.00922054 0.00810849 0.999925 
-0.00972431 0.018125 0.999788 
-0.00891526 0.0299959 0.99951 
-0.00978442 0.0422846 0.999058 
-0.0101094 0.055776 0.998392 
-0.0102608 0.0708045 0.997437 
-0.0107995 0.0874093 0.996114 
-0.0113022 0.105891 0.994314 
-0.0119164 0.126609 0.991881 
-0.0127201 0.149952 0.988611 
-0.0136354 0.176031 0.98429 
-0.0146468 0.205371 0.978575 
-0.0157531 0.238311 0.971061 
-0.0169278 0.275225 0.961231 
-0.0182356 0.316678 0.948358 
-0.0195234 0.36306 0.931561 
-0.0218652 0.414921 0.909594 