# vtk DataFile Version 3.0 
Exported using Morpho https://github.com/Morpho-lang/morpho 
ASCII 
DATASET UNSTRUCTURED_GRID 

POINTS 1245 float 
-0.303845 -0.952721 0 
-0.250833 -0.96803 0 
-0.195084 -0.980787 0 
-0.146308 -0.989239 0 
-0.0940719 -0.995565 0 
-0.0475118 -0.998871 0 
-0.000246339 -1 0 
0.0470875 -0.998891 0 
0.0937543 -0.995595 0 
0.146139 -0.989264 0 
0.195062 -0.980791 0 
0.250843 -0.968028 0 
0.303953 -0.952687 0 
-0.409153 -0.912466 0 
-0.356519 -0.934288 0 
-0.308871 -0.898929 0 
-0.258282 -0.916037 0 
-0.207345 -0.934859 0 
-0.154868 -0.930629 0 
-0.104343 -0.948989 0 
-0.0520099 -0.939193 0 
-8.5762e-05 -0.954582 0 
0.0518744 -0.939288 0 
0.104354 -0.949042 0 
0.154696 -0.9306 0 
0.207366 -0.934975 0 
0.258274 -0.916081 0 
0.308979 -0.898924 0 
0.356593 -0.93426 0 
0.409236 -0.912429 0 
-0.513788 -0.857917 0 
-0.461695 -0.887039 0 
-0.411157 -0.857936 0 
-0.359855 -0.879963 0 
-0.306888 -0.847481 0 
-0.254732 -0.866979 0 
-0.201991 -0.889059 0 
-0.149956 -0.874108 0 
-0.100608 -0.900088 0 
-0.0497575 -0.880388 0 
2.4595e-05 -0.904789 0 
0.0496869 -0.8804 0 
0.100612 -0.900177 0 
0.149872 -0.874171 0 
0.202071 -0.889165 0 
0.254695 -0.867031 0 
0.306946 -0.847482 0 
0.359894 -0.879943 0 
0.411236 -0.857929 0 
0.461748 -0.887011 0 
0.513842 -0.857885 0 
-0.564741 -0.825268 0 
-0.512908 -0.802945 0 
-0.462372 -0.832348 0 
-0.410124 -0.804631 0 
-0.358606 -0.827415 0 
-0.305781 -0.795641 0 
-0.25358 -0.816639 0 
-0.200756 -0.839997 0 
-0.149043 -0.818944 0 
-0.0987265 -0.846667 0 
-0.0490473 -0.822548 0 
5.00659e-05 -0.849932 0 
0.0490834 -0.822542 0 
0.0987838 -0.846676 0 
0.148997 -0.818924 0 
0.200826 -0.840131 0 
0.253508 -0.816728 0 
0.305831 -0.795701 0 
0.358581 -0.827419 0 
0.410181 -0.804654 0 
0.462414 -0.83234 0 
0.512965 -0.802929 0 
0.564777 -0.825243 0 
-0.660798 -0.750564 0 
-0.614015 -0.789295 0 
-0.561786 -0.769772 0 
-0.510673 -0.747856 0 
-0.460836 -0.778365 0 
-0.408794 -0.751554 0 
-0.357337 -0.774971 0 
-0.304815 -0.743684 0 
-0.252907 -0.765535 0 
-0.200631 -0.789263 0 
-0.149244 -0.764328 0 
-0.0986912 -0.791935 0 
-0.0492815 -0.765764 0 
4.16586e-05 -0.79382 0 
0.0492411 -0.765708 0 
0.0987508 -0.791951 0 
0.149196 -0.764326 0 
0.200666 -0.789356 0 
0.252841 -0.765599 0 
0.304862 -0.743741 0 
0.357323 -0.775038 0 
0.408863 -0.751626 0 
0.460863 -0.778382 0 
0.510716 -0.747859 0 
0.561819 -0.769761 0 
0.614041 -0.789274 0 
0.660811 -0.750552 0 
-0.707107 -0.707107 0 
-0.654819 -0.699058 0 
-0.60813 -0.73348 0 
-0.558104 -0.71337 0 
-0.509495 -0.692659 0 
-0.45935 -0.724356 0 
-0.407328 -0.698865 0 
-0.355968 -0.722823 0 
-0.303722 -0.691387 0 
-0.252254 -0.71362 0 
-0.20067 -0.737336 0 
-0.149608 -0.710068 0 
-0.0991558 -0.737129 0 
-0.0495872 -0.709825 0 
-2.23646e-05 -0.737917 0 
0.0494408 -0.709766 0 
0.0991291 -0.737116 0 
0.149502 -0.710042 0 
0.200696 -0.73743 0 
0.252186 -0.713735 0 
0.303753 -0.691518 0 
0.355952 -0.722893 0 
0.407371 -0.698945 0 
0.459374 -0.724407 0 
0.509524 -0.692668 0 
0.558131 -0.713361 0 
0.608151 -0.733462 0 
0.654824 -0.699048 0 
0.707107 -0.707107 0 
-0.750564 -0.660798 0 
-0.699058 -0.654819 0 
-0.647692 -0.647692 0 
-0.603437 -0.675718 0 
-0.55905 -0.655305 0 
-0.508501 -0.639581 0 
-0.457509 -0.671321 0 
-0.405555 -0.646545 0 
-0.354417 -0.670703 0 
-0.302427 -0.639219 0 
-0.251503 -0.661417 0 
-0.20061 -0.684911 0 
-0.149717 -0.655943 0 
-0.0995004 -0.682466 0 
-0.0498216 -0.654561 0 
-5.02113e-05 -0.682664 0 
0.0496787 -0.654499 0 
0.0994374 -0.682501 0 
0.149603 -0.655909 0 
0.200573 -0.684972 0 
0.251388 -0.661524 0 
0.302407 -0.639359 0 
0.354397 -0.670836 0 
0.405575 -0.646641 0 
0.457525 -0.67138 0 
0.508497 -0.639623 0 
0.559063 -0.655324 0 
0.603436 -0.675715 0 
0.64769 -0.64769 0 
0.699048 -0.654824 0 
0.750552 -0.660811 0 
-0.789295 -0.614015 0 
-0.73348 -0.60813 0 
-0.675718 -0.603437 0 
-0.613088 -0.613088 0 
-0.55962 -0.604068 0 
-0.506189 -0.588854 0 
-0.455505 -0.618874 0 
-0.403019 -0.594688 0 
-0.352514 -0.618952 0 
-0.300977 -0.586897 0 
-0.250543 -0.608767 0 
-0.200257 -0.632053 0 
-0.150049 -0.601979 0 
-0.0998281 -0.628222 0 
-0.0500377 -0.599914 0 
-3.12334e-05 -0.628076 0 
0.0498927 -0.599835 0 
0.0997818 -0.628253 0 
0.149924 -0.601867 0 
0.200214 -0.632118 0 
0.250423 -0.608915 0 
0.30086 -0.587085 0 
0.352457 -0.619096 0 
0.402948 -0.594743 0 
0.455483 -0.618952 0 
0.506147 -0.588901 0 
0.55964 -0.604067 0 
0.613069 -0.613069 0 
0.675715 -0.603436 0 
0.733462 -0.608151 0 
0.789274 -0.614041 0 
-0.825268 -0.564741 0 
-0.769772 -0.561786 0 
-0.71337 -0.558104 0 
-0.655305 -0.55905 0 
-0.604068 -0.55962 0 
-0.551031 -0.551031 0 
-0.497922 -0.537596 0 
-0.451508 -0.567021 0 
-0.399773 -0.542431 0 
-0.350494 -0.567003 0 
-0.301574 -0.534146 0 
-0.250874 -0.555692 0 
-0.200542 -0.579013 0 
-0.150324 -0.548268 0 
-0.100169 -0.57443 0 
-0.0500152 -0.545912 0 
-3.29278e-05 -0.574268 0 
0.0499208 -0.545788 0 
0.100058 -0.574485 0 
0.150038 -0.548073 0 
0.200377 -0.579041 0 
0.250556 -0.55585 0 
0.301273 -0.534348 0 
0.350318 -0.567174 0 
0.399615 -0.542384 0 
0.451404 -0.5671 0 
0.497945 -0.537702 0 
0.551073 -0.551073 0 
0.604067 -0.55964 0 
0.655324 -0.559063 0 
0.713361 -0.558131 0 
0.769761 -0.561819 0 
0.825243 -0.564777 0 
-0.857917 -0.513788 0 
-0.802945 -0.512908 0 
-0.747856 -0.510673 0 
-0.692659 -0.509495 0 
-0.639581 -0.508501 0 
-0.588854 -0.506189 0 
-0.537596 -0.497922 0 
-0.486157 -0.486157 0 
-0.444928 -0.512952 0 
-0.401787 -0.486784 0 
-0.351685 -0.513639 0 
-0.299695 -0.48291 0 
-0.250032 -0.503 0 
-0.200501 -0.526165 0 
-0.149489 -0.495195 0 
-0.0999281 -0.521367 0 
-0.0499712 -0.492294 0 
4.64723e-05 -0.520999 0 
0.050147 -0.492108 0 
0.099934 -0.52133 0 
0.14957 -0.494692 0 
0.200133 -0.526255 0 
0.249839 -0.503309 0 
0.299839 -0.483005 0 
0.351514 -0.513798 0 
0.401881 -0.486608 0 
0.444935 -0.513054 0 
0.486228 -0.486228 0 
0.537702 -0.497945 0 
0.588901 -0.506147 0 
0.639623 -0.508497 0 
0.692668 -0.509524 0 
0.747859 -0.510716 0 
0.802929 -0.512965 0 
0.857885 -0.513842 0 
-0.887039 -0.461695 0 
-0.832348 -0.462372 0 
-0.778365 -0.460836 0 
-0.724356 -0.45935 0 
-0.671321 -0.457509 0 
-0.618874 -0.455505 0 
-0.567021 -0.451508 0 
-0.512952 -0.444928 0 
-0.450685 -0.450685 0 
-0.397667 -0.437543 0 
-0.348492 -0.462546 0 
-0.295416 -0.432968 0 
-0.247004 -0.450633 0 
-0.198702 -0.473818 0 
-0.150161 -0.441625 0 
-0.100085 -0.468395 0 
-0.0502271 -0.439281 0 
0.000144229 -0.468374 0 
0.0504178 -0.439106 0 
0.100428 -0.468348 0 
0.150697 -0.441105 0 
0.199103 -0.473881 0 
0.247983 -0.450921 0 
0.296569 -0.432268 0 
0.348831 -0.462562 0 
0.397506 -0.4368 0 
0.450637 -0.450637 0 
0.513054 -0.444935 0 
0.5671 -0.451404 0 
0.618952 -0.455483 0 
0.67138 -0.457525 0 
0.724407 -0.459374 0 
0.778382 -0.460863 0 
0.83234 -0.462414 0 
0.887011 -0.461748 0 
-0.912466 -0.409153 0 
-0.857936 -0.411157 0 
-0.804631 -0.410124 0 
-0.751554 -0.408794 0 
-0.698865 -0.407328 0 
-0.646545 -0.405555 0 
-0.594688 -0.403019 0 
-0.542431 -0.399773 0 
-0.486784 -0.401787 0 
-0.437543 -0.397667 0 
-0.387256 -0.387256 0 
-0.344215 -0.411459 0 
-0.30136 -0.381507 0 
-0.25021 -0.395692 0 
-0.200211 -0.419975 0 
-0.150955 -0.389014 0 
-0.100617 -0.416095 0 
-0.0503197 -0.386922 0 
-4.02994e-05 -0.416525 0 
0.05006 -0.386948 0 
0.100784 -0.416323 0 
0.150432 -0.388572 0 
0.200855 -0.420694 0 
0.25086 -0.396905 0 
0.301746 -0.379789 0 
0.344135 -0.410678 0 
0.385823 -0.385823 0 
0.4368 -0.397506 0 
0.486608 -0.401881 0 
0.542384 -0.399615 0 
0.594743 -0.402948 0 
0.646641 -0.405575 0 
0.698945 -0.407371 0 
0.751626 -0.408863 0 
0.804654 -0.410181 0 
0.857929 -0.411236 0 
0.912429 -0.409236 0 
-0.934288 -0.356519 0 
-0.879963 -0.359855 0 
-0.827415 -0.358606 0 
-0.774971 -0.357337 0 
-0.722823 -0.355968 0 
-0.670703 -0.354417 0 
-0.618952 -0.352514 0 
-0.567003 -0.350494 0 
-0.513639 -0.351685 0 
-0.462546 -0.348492 0 
-0.411459 -0.344215 0 
-0.351697 -0.351697 0 
-0.29839 -0.336232 0 
-0.249846 -0.342529 0 
-0.200971 -0.367271 0 
-0.149995 -0.337521 0 
-0.100435 -0.3646 0 
-0.0498692 -0.335025 0 
-6.88684e-05 -0.365025 0 
0.0495433 -0.334795 0 
0.0996798 -0.364834 0 
0.148162 -0.337172 0 
0.199644 -0.368939 0 
0.24763 -0.345582 0 
0.295348 -0.332889 0 
0.34978 -0.34978 0 
0.410678 -0.344135 0 
0.462562 -0.348831 0 
0.513798 -0.351514 0 
0.567174 -0.350318 0 
0.619096 -0.352457 0 
0.670836 -0.354397 0 
0.722893 -0.355952 0 
0.775038 -0.357323 0 
0.827419 -0.358581 0 
0.879943 -0.359894 0 
0.93426 -0.356593 0 
-0.952721 -0.303845 0 
-0.898929 -0.308871 0 
-0.847481 -0.306888 0 
-0.795641 -0.305781 0 
-0.743684 -0.304815 0 
-0.691387 -0.303722 0 
-0.639219 -0.302427 0 
-0.586897 -0.300977 0 
-0.534146 -0.301574 0 
-0.48291 -0.299695 0 
-0.432968 -0.295416 0 
-0.381507 -0.30136 0 
-0.336232 -0.29839 0 
-0.288184 -0.288184 0 
-0.242975 -0.290577 0 
-0.198059 -0.315051 0 
-0.148383 -0.285894 0 
-0.0994753 -0.313232 0 
-0.0507184 -0.283118 0 
-0.000202902 -0.313447 0 
0.0500077 -0.282824 0 
0.0988289 -0.312817 0 
0.148102 -0.28482 0 
0.195742 -0.317413 0 
0.240766 -0.295824 0 
0.285014 -0.285014 0 
0.332889 -0.295348 0 
0.379789 -0.301746 0 
0.432268 -0.296569 0 
0.483005 -0.299839 0 
0.534348 -0.301273 0 
0.587085 -0.30086 0 
0.639359 -0.302407 0 
0.691518 -0.303753 0 
0.743741 -0.304862 0 
0.795701 -0.305831 0 
0.847482 -0.306946 0 
0.898924 -0.308979 0 
0.952687 -0.303953 0 
-0.96803 -0.250833 0 
-0.916037 -0.258282 0 
-0.866979 -0.254732 0 
-0.816639 -0.25358 0 
-0.765535 -0.252907 0 
-0.71362 -0.252254 0 
-0.661417 -0.251503 0 
-0.608767 -0.250543 0 
-0.555692 -0.250874 0 
-0.503 -0.250032 0 
-0.450633 -0.247004 0 
-0.395692 -0.25021 0 
-0.342529 -0.249846 0 
-0.290577 -0.242975 0 
-0.239946 -0.239946 0 
-0.194478 -0.26004 0 
-0.151293 -0.23238 0 
-0.101048 -0.260904 0 
-0.0503938 -0.232537 0 
-0.000203281 -0.262984 0 
0.050638 -0.232316 0 
0.100942 -0.260855 0 
0.152412 -0.232597 0 
0.195768 -0.261421 0 
0.241873 -0.241873 0 
0.295824 -0.240766 0 
0.345582 -0.24763 0 
0.396905 -0.25086 0 
0.450921 -0.247983 0 
[...]
POINT_DATA 1245 
VECTORS vectors float
0.219482 -0.153104 0.963528 
0.15958 -0.188281 0.969064 
0.0792635 -0.118949 0.989731 
0.0768375 -0.0415837 0.996176 
0.158692 0.0148865 0.987216 
0.202673 -0.00684595 0.979223 
0.233332 -0.0783386 0.969236 
0.204434 -0.123484 0.97106 
0.146886 -0.164938 0.975305 
0.080837 -0.1333 0.987774 
0.0169609 -0.0811181 0.99656 
0.0141439 -0.0101196 0.999849 
0.0539002 0.0600004 0.996742 
0.175097 -0.0428759 0.983617 
0.237737 -0.0664758 0.969052 
0.162706 -0.0960057 0.981993 
0.122033 -0.109856 0.986428 
0.082309 -0.0999594 0.991581 
0.0602949 -0.0625717 0.996217 
0.087489 -0.0239571 0.995877 
0.103312 -0.0404778 0.993825 
0.155115 -0.071357 0.985316 
0.0935722 -0.0891087 0.991617 
0.0748741 -0.120407 0.989897 
0.0256461 -0.0847535 0.996072 
0.0030429 -0.0563465 0.998407 
0.0178481 -0.0112047 0.999778 
0.0188588 0.0215998 0.999589 
0.0851774 0.0889239 0.99239 
0.106338 0.0970884 0.989579 
0.100747 -0.19034 0.976535 
0.0991396 -0.0903303 0.990965 
0.105349 -0.0741091 0.99167 
0.142336 -0.068937 0.987415 
0.0915171 -0.0593002 0.994036 
0.0870421 -0.0620273 0.994272 
0.0652989 -0.0725686 0.995224 
0.053817 -0.0499893 0.997299 
0.058822 -0.0389304 0.997509 
0.0583791 -0.0443338 0.99731 
0.0699057 -0.0603687 0.995725 
0.0416153 -0.0667088 0.996904 
0.0310719 -0.0752302 0.996682 
0.00415327 -0.0684143 0.997648 
0.00409619 -0.0492998 0.998776 
-0.010668 -0.0132171 0.999856 
0.0114674 0.00682302 0.999911 
0.0437019 0.0482101 0.997881 
0.0773984 0.0673619 0.994722 
0.124852 0.114176 0.985584 
0.15205 0.120496 0.981 
0.169043 -0.233341 0.957589 
0.098538 -0.139321 0.985332 
0.0841992 -0.0995619 0.991463 
0.0692719 -0.0601777 0.995781 
0.0813194 -0.0626145 0.994719 
0.0505277 -0.0402448 0.997911 
0.0469622 -0.0562161 0.997314 
0.0565753 -0.0540153 0.996936 
0.0333242 -0.0417736 0.998571 
0.033024 -0.0455214 0.998417 
0.01572 -0.0401935 0.999068 
0.0166818 -0.0488763 0.998666 
0.00560439 -0.0561267 0.998408 
-0.0023545 -0.0581848 0.998303 
-0.00656436 -0.0525322 0.998598 
-0.0134065 -0.0381617 0.999182 
-0.00988226 -0.0113861 0.999886 
-0.00608806 -0.00754057 0.999953 
0.0294909 0.0221959 0.999319 
0.0461773 0.0488486 0.997738 
0.0969915 0.0748027 0.99247 
0.108749 0.0649401 0.991946 
0.196253 0.0957964 0.975863 
0.206465 -0.0822439 0.974991 
0.231452 -0.17099 0.957701 
0.135531 -0.144089 0.98024 
0.0781375 -0.103083 0.991599 
0.0645242 -0.0912349 0.993737 
0.0400872 -0.0614375 0.997306 
0.0486516 -0.0433153 0.997876 
0.016892 -0.0336879 0.99929 
0.0178618 -0.0357563 0.999201 
0.023633 -0.0341426 0.999138 
0.00670022 -0.035695 0.99934 
0.00450181 -0.0346248 0.99939 
-0.00692575 -0.0420543 0.999091 
0.00549118 -0.0361246 0.999332 
-0.00925605 -0.0571011 0.998325 
-0.00433204 -0.0484283 0.998817 
-0.0348198 -0.0463253 0.998319 
-0.0100709 -0.0395938 0.999165 
-0.012386 -0.0124118 0.999846 
-0.0127854 -0.0032698 0.999913 
0.00240626 0.0147461 0.999888 
0.011142 0.0279714 0.999547 
0.0528651 0.0415329 0.997738 
0.0526348 0.0295794 0.998176 
0.108228 0.050454 0.992845 
0.189707 0.0403805 0.98101 
0.1253 -0.0185876 0.991945 
0.108355 -0.0572632 0.992462 
0.116642 -0.0740749 0.990408 
0.147725 -0.105872 0.983345 
0.0882692 -0.0840153 0.992547 
0.0443265 -0.0655802 0.996862 
0.0371232 -0.0719275 0.996719 
0.0101517 -0.0446252 0.998952 
0.0186611 -0.0225916 0.999571 
0.00560091 -0.0216765 0.999749 
-0.00786303 -0.0204452 0.99976 
0.0105387 -0.0236263 0.999665 
-0.0113106 -0.0035156 0.99993 
-0.00557551 -0.0272015 0.999614 
-0.0137678 -0.0181129 0.999741 
0.000561919 -0.0405618 0.999177 
-0.0163157 -0.0412021 0.999018 
-0.0299539 -0.0389212 0.998793 
-0.0233563 -0.0326853 0.999193 
-0.0443478 -0.04886 0.997821 
-0.0348405 -0.0250914 0.999078 
-0.0248587 -0.00923528 0.999648 
-0.0147673 0.000542957 0.999891 
-0.0184912 0.0158484 0.999703 
0.0235883 0.0178598 0.999562 
0.0190442 0.0158257 0.999693 
0.0465573 0.0249512 0.998604 
0.0852522 0.0164494 0.996224 
0.0415406 -0.0143424 0.999034 
0.0360648 -0.0124161 0.999272 
0.0323589 -0.128995 0.991117 
0.0605217 -0.0822004 0.994776 
0.0594177 -0.0705778 0.995735 
0.0702423 -0.0760687 0.994625 
0.0368485 -0.0587418 0.997593 
0.018528 -0.0422563 0.998935 
0.0150943 -0.0564967 0.998289 
0.0017738 -0.0195582 0.999807 
-0.0116772 -0.0197329 0.999737 
-0.0160923 -0.0113868 0.999806 
-0.00348776 -0.00788959 0.999963 
-0.0114803 -0.0133499 0.999845 
-0.020689 -0.0210017 0.999565 
-0.00899383 -0.0369611 0.999276 
-0.019968 -0.0241392 0.999509 
-0.025339 -0.0394062 0.998902 
-0.0333803 -0.033369 0.998886 
-0.0210917 -0.024443 0.999479 
-0.0291092 -0.0252692 0.999257 
-0.0171422 -0.0226667 0.999596 
-0.0410092 -0.0133836 0.999069 
-0.0253294 -0.00426632 0.99967 
-0.0354413 0.00275389 0.999368 
-0.0174852 0.00426684 0.999838 
-0.00456524 0.0109571 0.99993 
-0.0147606 0.00502365 0.999878 
0.00798612 -0.00221471 0.999966 
0.0317918 0.002914 0.99949 
0.0045353 -0.00987848 0.999941 
-0.0171367 0.0177058 0.999696 
-0.0315484 0.0577283 0.997834 
0.0429216 -0.226339 0.973102 
0.0481299 -0.131524 0.990144 
0.0434363 -0.0714207 0.9965 
0.0402231 -0.0626872 0.997222 
0.0121516 -0.047863 0.99878 
-0.00365599 -0.0319849 0.999482 
0.00607753 -0.0330827 0.999434 
-0.0209838 -0.00973742 0.999732 
-0.0147704 -0.010544 0.999835 
-0.0352595 -0.0103541 0.999325 
-0.0171513 0.000755497 0.999853 
-0.0239129 0.00387505 0.999707 
-0.0302805 -0.0156177 0.999419 
-0.0242371 -0.00767079 0.999677 
-0.0185127 -0.0247661 0.999522 
-0.0336456 -0.0205254 0.999223 
-0.0299049 -0.0313898 0.99906 
-0.0307283 -0.0327978 0.99899 
-0.0297653 -0.022037 0.999314 
-0.0367227 -0.0126088 0.999246 
-0.0328016 -0.00537449 0.999447 
-0.0334545 -0.00243957 0.999437 
-0.0277563 0.000429518 0.999615 
-0.0402061 0.00753532 0.999163 
-0.0251799 0.0122303 0.999608 
-0.0306682 0.000765925 0.999529 
-0.0279785 0.00394843 0.999601 
-0.0202169 0.00248886 0.999793 
-0.0282597 0.0188105 0.999424 
-0.0229526 0.0534717 0.998306 
-0.027265 0.122388 0.992108 
0.1343 -0.267122 0.954258 
0.0863137 -0.175849 0.980626 
0.0548793 -0.103343 0.993131 
0.028909 -0.0601432 0.997771 
0.0197694 -0.0446885 0.998805 
0.00195141 -0.0384964 0.999257 
-0.0181055 -0.0239843 0.999548 
-0.0153941 -0.0245281 0.999581 
-0.0266538 -0.00044596 0.999645 
-0.0318452 0.00504707 0.99948 
-0.0221624 0.0215695 0.999522 
-0.0358374 0.0114142 0.999292 
-0.0279923 0.011646 0.99954 
-0.0288216 0.010432 0.99953 
-0.020421 -0.013163 0.999705 
-0.0241479 -0.014013 0.99961 
-0.0278624 -0.0184492 0.999442 
-0.0270552 -0.0175939 0.999479 
-0.0449895 -0.0404823 0.998167 
-0.0521409 -0.0225311 0.998386 
-0.0438152 -0.0148733 0.998929 
-0.0361507 -0.0144577 0.999242 
-0.0368406 0.00266764 0.999318 
-0.0350268 0.0130789 0.999301 
-0.0414566 0.00247033 0.999137 
-0.0345801 0.0107358 0.999344 
-0.0395686 0.00714782 0.999191 
-0.035445 0.00528678 0.999358 
-0.0414868 0.00215101 0.999137 
-0.0324316 0.00685609 0.99945 
-0.0284654 0.0407005 0.998766 
-0.0100944 0.0936716 0.995552 
0.0244904 0.163361 0.986262 
0.2394 -0.222942 0.944979 
0.137806 -0.162672 0.977009 
0.0897572 -0.120105 0.988695 
0.0322601 -0.0667283 0.99725 
0.0244882 -0.0425702 0.998793 
0.00811335 -0.0362628 0.999309 
-0.00581227 -0.0204935 0.999773 
-0.0128253 -0.0101826 0.999866 
-0.0405756 -0.0114046 0.999111 
-0.0288313 0.00189387 0.999582 
-0.0398053 -0.00108132 0.999207 
-0.0378893 0.0137012 0.999188 
-0.0372016 0.0105945 0.999252 
-0.0291235 -0.00117357 0.999575 
-0.0298102 -0.00529087 0.999542 
-0.025598 -0.0124786 0.999594 
-0.0363716 -0.0216744 0.999103 
-0.0353938 -0.0332162 0.998821 
-0.0286772 -0.0315517 0.999091 
-0.0302811 -0.0235826 0.999263 
-0.0272827 -0.0170068 0.999483 
-0.0342932 -0.0105913 0.999356 
-0.0322517 -0.0213003 0.999253 
-0.0328519 -0.000432162 0.99946 
-0.0387491 0.0119775 0.999177 
-0.0347304 0.0010019 0.999396 
-0.0375201 0.00106479 0.999295 
-0.0409206 0.00673283 0.99914 
-0.0322214 0.00477375 0.999469 
-0.0359431 0.0016799 0.999352 
-0.0355724 -0.00358526 0.999361 
-0.0312693 0.0197471 0.999316 
-0.0157685 0.0459143 0.998821 
0.00623973 0.0934448 0.995605 
0.0651468 0.152127 0.986212 
0.237678 -0.114188 0.964609 
0.15321 -0.120653 0.980801 
0.0963096 -0.0939692 0.990906 
0.0655942 -0.0631198 0.995848 
0.0503775 -0.0602636 0.99691 
0.0283455 -0.0392609 0.998827 
0.00838753 -0.0258854 0.99963 
-0.00723224 -0.0120052 0.999902 
-0.0102053 0.00342804 0.999942 
-0.0272224 0.003552 0.999623 
-0.0210501 0.0169824 0.999634 
-0.0391938 0.0172782 0.999082 
-0.0430728 0.0145181 0.998966 
-0.0412356 0.00106028 0.999149 
-0.0366389 0.000100479 0.999329 
-0.0340913 -0.00849576 0.999383 
-0.0395113 -0.0153118 0.999102 
-0.0389011 -0.0288659 0.998826 
-0.0344452 -0.0326114 0.998874 
-0.0339878 -0.029922 0.998974 
-0.0457254 -0.0343736 0.998362 
-0.0122461 -0.01395 0.999828 
-0.027972 -0.0178925 0.999449 
-0.0431392 0.00174508 0.999068 
-0.0356302 0.00981104 0.999317 
-0.0315351 0.000304267 0.999503 
-0.0397946 0.00469996 0.999197 
-0.0431532 -0.00354041 0.999062 
-0.0336134 -0.00845186 0.999399 
-0.034398 -0.00936215 0.999364 
-0.0410022 -0.0020334 0.999157 
-0.0378721 0.025194 0.998965 
-0.0192775 0.0394862 0.999034 
0.0179776 0.0720797 0.997237 
0.0600927 0.102846 0.99288 
0.145664 -0.0388725 0.98857 
0.133066 -0.0730661 0.98841 
0.100505 -0.0656545 0.992768 
0.074836 -0.0600933 0.995384 
0.0610663 -0.0526615 0.996744 
0.0323152 -0.0392589 0.998706 
0.0132344 -0.0277028 0.999529 
-0.00689991 -0.0173329 0.999826 
-0.013514 -0.0111357 0.999847 
-0.0113106 0.00751839 0.999908 
-0.0323513 0.0157584 0.999352 
-0.0483444 0.00941456 0.998786 
-0.0400736 0.0145107 0.999091 
-0.0462611 0.0120728 0.998856 
-0.033148 0.00453478 0.99944 
-0.0406592 0.00166929 0.999172 
-0.0310324 -0.0150466 0.999405 
-0.0287005 -0.0259648 0.999251 
-0.030857 -0.0296228 0.999085 
-0.0304119 -0.0412971 0.998684 
-0.0416542 -0.0361684 0.998477 
-0.0300076 -0.0348483 0.998942 
-0.0476019 -0.0333394 0.99831 
-0.0388841 -0.0134903 0.999153 
-0.0266345 -0.0168139 0.999504 
-0.0330262 -0.00803628 0.999422 
-0.0269475 -0.00196789 0.999635 
-0.0278404 -0.00234082 0.99961 
-0.0447612 -0.00209081 0.998996 
-0.0375044 -0.0219146 0.999056 
-0.0396292 -0.010337 0.999161 
-0.043967 -0.00804773 0.999001 
-0.0338042 0.000917571 0.999428 
-0.0295889 0.0112984 0.999498 
-0.0174254 0.0307444 0.999375 
0.00488704 0.0529192 0.998587 
0.0177874 0.0716972 0.997268 
0.0318143 -0.0593001 0.997733 
0.0700639 -0.054598 0.996047 
0.0826753 -0.0573637 0.994924 
0.0701687 -0.0458872 0.996479 
0.0490346 -0.0558537 0.997234 
0.0362274 -0.0242602 0.999049 
0.0230305 -0.0264269 0.999385 
0.0243371 -0.0211627 0.99948 
0.00830385 -0.00764806 0.999936 
-0.0201071 -0.00942353 0.999753 
-0.0187401 0.00549086 0.999809 
-0.0222436 0.0133763 0.999663 
-0.0243791 0.0181785 0.999537 
-0.0313532 0.00437151 0.999499 
-0.0433621 0.00896659 0.999019 
-0.0295621 -0.00942077 0.999519 
-0.0463267 -0.0334807 0.998365 
-0.0295952 -0.0401487 0.998755 
-0.0335869 -0.0387169 0.998686 
-0.0333277 -0.0505885 0.998163 
-0.0310939 -0.0375308 0.998812 
-0.0259089 -0.043965 0.998697 
-0.0421888 -0.0280395 0.998716 
-0.0261006 -0.0258584 0.999325 
-0.0196587 -0.0208991 0.999588 
-0.025175 -0.0200592 0.999482 
-0.0349798 -0.0141766 0.999287 
-0.0236798 -0.0170323 0.999574 
-0.0180447 -0.0248988 0.999527 
-0.0297842 -0.013004 0.999472 
-0.0301099 -0.0230402 0.999281 
-0.0275669 -0.0223171 0.999371 
-0.0241292 -0.0255616 0.999382 
-0.0283518 0.00967287 0.999551 
-0.0285647 0.0294575 0.999158 
-0.0232097 0.0545107 0.998243 
-0.0489407 0.0735609 0.996089 
-0.0343444 -0.134398 0.990332 
0.0171566 -0.102527 0.994582 
0.0283813 -0.0605574 0.997761 
0.0405369 -0.0496923 0.997942 
0.0368737 -0.0497932 0.998079 
0.0295841 -0.0402581 0.998751 
0.0319536 -0.0357236 0.998851 
0.0316832 -0.0196679 0.999304 
0.0102327 -0.0134494 0.999857 
0.00526849 0.0054945 0.999971 
-0.0102824 0.00798515 0.999915 
-0.0138276 0.0106735 0.999847 
-0.0343107 0.00719134 0.999385 
-0.0302052 0.00953347 0.999498 
-0.0303131 0.00256023 0.999537 
-0.0396413 0.00243145 0.999211 
-0.0395036 -0.0206905 0.999005 
-0.0275688 -0.0349397 0.999009 
-0.0342946 -0.0410327 0.998569 
-0.0299364 -0.044679 0.998553 
-0.0284019 -0.0618028 0.997684 
-0.0216247 -0.0470117 0.99866 
-0.0123198 -0.0564493 0.998329 
-0.012199 -0.0410208 0.999084 
-0.0217798 -0.0291672 0.999337 
-0.013456 -0.0323324 0.999387 
-0.0166648 -0.0176848 0.999705 
-0.0256556 -0.0216421 0.999437 
-0.0115619 -0.0223582 0.999683 
-0.0247772 -0.031743 0.999189 
-0.0210504 -0.02424 0.999485 
-0.0246991 -0.0277428 0.99931 
-0.0166223 -0.0289577 0.999442 
-0.0185299 -0.0357061 0.999191 
-0.0318427 -0.00960993 0.999447 
-0.0393446 0.00822198 0.999192 
-0.0393163 0.0398379 0.998432 
-0.0497362 0.0739083 0.996024 
-0.0974835 0.1325 0.986378 
-0.00554283 -0.22212 0.975004 
0.0136091 -0.151527 0.988359 
0.0296363 -0.0917929 0.995337 
0.0314523 -0.0574126 0.997855 
0.0414585 -0.0362502 0.998482 
0.0392425 -0.0339303 0.998653 
0.034578 -0.0236682 0.999122 
0.00786755 -0.0241442 0.999678 
0.00354546 -0.00714191 0.999968 
-0.00910569 0.00303186 0.999954 
-0.00781559 0.00883809 0.99993 
-0.0280214 0.00908537 0.999566 
-0.0302856 0.00279498 0.999537 
-0.0300436 0.00854449 0.999512 
-0.0372921 -0.000228524 0.999304 
-0.0321139 -0.0175487 0.99933 
-0.0142757 -0.0334337 0.999339 
-0.0299681 -0.0498933 0.998305 
-0.0273747 -0.0613875 0.997739 
-0.020453 -0.0580121 0.998106 
-0.00917442 -0.0667001 0.997731 
-0.0244253 -0.0601139 0.997893 
-0.0140588 -0.0657642 0.997736 
-0.0172948 -0.0554101 0.998314 
-0.02082 -0.0427889 0.998867 
-0.0126676 -0.0396608 0.999133 
-0.0110418 -0.0324837 0.999411 
-0.00282607 -0.0208261 0.999779 
-0.0109687 -0.033426 0.999381 
-0.0042099 -0.0327043 0.999456 
-0.0220013 -0.0331888 0.999207 
-0.0155763 -0.0405887 0.999055 
-0.0161349 -0.0373456 0.999172 
-0.0265444 -0.0199055 0.999449 
-0.0295112 -0.00437073 0.999555 
-0.0296933 0.011009 0.999498 
-0.0422565 0.0597999 0.997316 
-0.0489395 0.118459 0.991752 
-0.0782205 0.212194 0.974092 
0.0584443 -0.22587 0.972403 
0.0303545 -0.151147 0.988045 
0.0114731 -0.0902454 0.995853 
0.0164735 -0.0692747 0.997462 
0.0177782 -0.0480345 0.998687 
0.0247326 -0.0387149 0.998944 
0.0255519 -0.0156804 0.999551 
0.025763 -0.00825335 0.999634 
0.0123246 -0.00303832 0.999919 
0.00247534 -0.00142516 0.999996 
-0.000961402 0.00585186 0.999982 
-0.0101379 0.00891444 0.999909 
-0.0292918 0.00288582 0.999567 
-0.02363 0.00310165 0.999716 
-0.0267299 -0.00918876 0.9996 
-0.0211409 -0.0152109 0.999661 
-0.0232914 -0.0462062 0.99866 
-0.023136 -0.050007 0.998481 
-0.0156253 -0.0651706 0.997752 
-0.00524867 -0.0788613 0.996872 
-0.000508749 -0.0724235 0.997374 
0.00252342 -0.0563524 0.998408 
0.00793549 -0.0722149 0.997358 
-0.00451603 -0.0615799 0.998092 
0.0123138 -0.0492668 0.99871 
0.0110252 -0.0428957 0.999019 
0.00187902 -0.0343919 0.999407 
-0.00161089 -0.0361185 0.999346 
-0.00366216 -0.0419473 0.999113 
-0.00273083 -0.0276637 0.999614 
-0.00275559 -0.0410425 0.999154 
-0.00831049 -0.0409262 0.999128 
-0.0170091 -0.0233461 0.999583 
-0.0108451 -0.0156864 0.999818 
-0.00963471 -0.00461486 0.999943 
-0.0148085 0.0491843 0.99868 
-0.02293 0.0889569 0.995772 
-0.0220007 0.178324 0.983726 
-0.00846257 0.264491 0.964351 
0.0742319 -0.168149 0.982963 
0.0143678 -0.106357 0.994224 
0.0191185 -0.0833418 0.996338 
0.00550587 -0.059175 0.998232 
0.0191434 -0.0295677 0.999379 
0.00837161 -0.015971 0.999837 
0.0101344 -0.011543 0.999882 
0.0267595 0.0082871 0.999608 
0.012376 -0.0013479 0.999923 
0.00436049 0.0113956 0.999926 
-0.0175502 0.00580406 0.999829 
-0.0169275 0.0184785 0.999686 
-0.0188264 0.00257464 0.999819 
-0.0180178 -0.00176482 0.999836 
-0.0242615 -0.0211206 0.999483 
-0.0141185 -0.0294277 0.999467 
-0.0131175 -0.0460155 0.998855 
-0.0205187 -0.0530881 0.998379 
-0.00091626 -0.0611606 0.998128 
-0.000536951 -0.0826421 0.996579 
0.00443129 -0.0688133 0.99762 
0.00247861 -0.0665447 0.99778 
0.0148834 -0.0742538 0.997128 
0.0202541 -0.0699688 0.997344 
0.0102366 -0.0531532 0.998534 
0.0113462 -0.0496477 0.998702 
-0.00273993 -0.0530668 0.998587 
0.00569387 -0.0334486 0.999424 
-0.0117463 -0.0457676 0.998883 
-0.0084132 -0.0521352 0.998605 
0.00493902 -0.0354561 0.999359 
0.000347522 -0.0373809 0.999301 
-0.00641382 -0.0396494 0.999193 
-0.0170987 -0.0391885 0.999086 
-0.00603738 -0.0132628 0.999894 
-0.00690204 0.0182955 0.999809 
-0.00132532 0.0846892 0.996407 
0.00734477 0.138878 0.990282 
0.0615762 0.253585 0.965351 
0.028212 -0.0970914 0.994876 
0.031303 -0.0879693 0.995631 
-0.00235937 -0.069185 0.997601 
0.00320148 -0.047919 0.998846 
0.0161401 -0.0116054 0.999802 
0.00933006 0.00160026 0.999955 
0.012398 -0.000755561 0.999923 
0.00896239 -0.000916306 0.999959 
0.013861 0.0157094 0.999781 
-0.00517704 0.0170665 0.999841 
-0.00955068 0.0219439 0.999714 
-0.0256459 0.00729445 0.999644 
-0.0171193 0.0126652 0.999773 
-0.0151883 0.00670149 0.999862 
-0.0233822 -0.0218943 0.999487 
-0.0218909 -0.0290696 0.999338 
-0.0208695 -0.0512883 0.998466 
-0.0132598 -0.0622674 0.997971 
0.00849318 -0.0667269 0.997735 
-0.00431774 -0.0696515 0.997562 
0.00530712 -0.0718207 0.997403 
0.0136646 -0.0724844 0.997276 
0.0185077 -0.0734135 0.99713 
0.0132016 -0.0534289 0.998484 
0.0157156 -0.0516248 0.998543 
0.00570931 -0.0481189 0.998825 
0.00164505 -0.0453544 0.99897 
0.0193176 -0.0342856 0.999225 
0.00981536 -0.0504934 0.998676 
0.0005232 -0.046814 0.998903 
0.00302867 -0.0394192 0.999218 
-0.0130387 -0.0546992 0.998418 
-0.000265803 -0.0239658 0.999713 
-0.00516293 -0.0251343 0.999671 
-0.00256149 -0.00432091 0.999987 
0.0169347 0.0541674 0.998388 
0.0257238 0.078717 0.996565 
0.0674228 0.140581 0.987771 
0.109227 0.219999 0.969366 
-0.033211 -0.0646676 0.997354 
-0.0317239 -0.0596453 0.997715 
-0.0201231 -0.0417042 0.998927 
-0.0260023 -0.0157999 0.999537 
0.00694785 0.00825529 0.999942 
0.0082056 0.0120684 0.999894 
0.00641469 0.0180575 0.999816 
0.0037878 0.0269045 0.999631 
-0.0102113 0.0182278 0.999782 
-0.000126927 0.0277701 0.999614 
0.000579152 0.027478 0.999622 
-0.0115665 0.00550327 0.999918 
-0.0153641 0.000116112 0.999882 
-0.0104369 -0.0062186 0.999926 
-0.00343366 -0.0163245 0.999861 
0.000610668 -0.0256058 0.999672 
0.0036181 -0.0550337 0.998478 
0.00760731 -0.0728302 0.997315 
0.00933655 -0.0714912 0.997398 
0.0194713 -0.0811283 0.996513 
0.022795 -0.0647007 0.997644 
0.0307744 -0.0658276 0.997356 
0.0294612 -0.068053 0.997247 
0.0192022 -0.0643648 0.997742 
0.0320997 -0.0518259 0.99814 
0.0262878 -0.0482488 0.998489 
0.0139094 -0.0480835 0.998746 
0.0214139 -0.0381053 0.999044 
0.0169977 -0.0374126 0.999155 
0.00985465 -0.0486493 0.998767 
-0.00758641 -0.0395993 0.999187 
0.00121384 -0.0473315 0.998878 
-0.00608703 -0.0394594 0.999203 
-0.00944641 -0.0194022 0.999767 
-0.00183531 -0.0113429 0.999934 
0.00480692 0.0211472 0.999765 
0.0374366 0.0638376 0.997258 
0.0378444 0.0975298 0.994513 
0.0754724 0.149178 0.985926 
-0.102945 -0.10056 0.989591 
-0.0649861 -0.0769387 0.994916 
-0.0469535 -0.0421188 0.998009 
-0.0351481 -0.0209784 0.999162 
-0.0191186 -0.00155779 0.999816 
-0.00741157 0.0202577 0.999767 
-0.00363641 0.0180274 0.999831 
0.00927562 0.0399979 0.999157 
0.00169493 0.0279221 0.999609 
-0.000975842 0.0325791 0.999469 
-0.000545258 0.0211903 0.999775 
0.00103056 0.0353745 0.999374 
-0.0190121 0.0123757 0.999743 
-0.00872894 -0.00298349 0.999957 
-0.0202074 -0.0221874 0.99955 
-0.0016061 -0.0212787 0.999772 
0.00404117 -0.0434579 0.999047 
0.0106818 -0.0551515 0.998421 
0.0125332 -0.0524169 0.998547 
0.0235129 -0.0631931 0.997724 
0.0376965 -0.0734007 0.99659 
0.0252007 -0.0549412 0.998172 
0.0355879 -0.0438308 0.998405 
0.0330866 -0.0557355 0.997897 
0.0310846 -0.0452445 0.998492 
0.0277044 -0.0446522 0.998618 
0.00817059 -0.0426375 0.999057 
0.00540701 -0.0474818 0.998857 
-0.00177108 -0.0472794 0.99888 
-0.00101466 -0.0356788 0.999363 
0.00979945 -0.0420102 0.999069 
-0.00580315 -0.0425325 0.999078 
0.000935662 -0.0236751 0.999719 
0.00475517 -0.0175524 0.999835 
0.00933472 -0.0127696 0.999875 