# vtk DataFile Version 3.0 
Exported using Morpho https://github.com/Morpho-lang/morpho 
ASCII 
DATASET UNSTRUCTURED_GRID 

POINTS 1245 float 
-0.303845 -0.952721 0 
-0.250833 -0.96803 0 
-0.195084 -0.980787 0 
-0.146308 -0.989239 0 
-0.0940719 -0.995565 0 
-0.0475118 -0.998871 0 
-0.000246339 -1 0 
0.0470875 -0.998891 0 
0.0937543 -0.995595 0 
0.146139 -0.989264 0 
0.195062 -0.980791 0 
0.250843 -0.968028 0 
0.303953 -0.952687 0 
-0.409153 -0.912466 0 
-0.356519 -0.934288 0 
-0.308871 -0.898929 0 
-0.258282 -0.916037 0 
-0.207345 -0.934859 0 
-0.154868 -0.930629 0 
-0.104343 -0.948989 0 
-0.0520099 -0.939193 0 
-8.5762e-05 -0.954582 0 
0.0518744 -0.939288 0 
0.104354 -0.949042 0 
0.154696 -0.9306 0 
0.207366 -0.934975 0 
0.258274 -0.916081 0 
0.308979 -0.898924 0 
0.356593 -0.93426 0 
0.409236 -0.912429 0 
-0.513788 -0.857917 0 
-0.461695 -0.887039 0 
-0.411157 -0.857936 0 
-0.359855 -0.879963 0 
-0.306888 -0.847481 0 
-0.254732 -0.866979 0 
-0.201991 -0.889059 0 
-0.149956 -0.874108 0 
-0.100608 -0.900088 0 
-0.0497575 -0.880388 0 
2.4595e-05 -0.904789 0 
0.0496869 -0.8804 0 
0.100612 -0.900177 0 
0.149872 -0.874171 0 
0.202071 -0.889165 0 
0.254695 -0.867031 0 
0.306946 -0.847482 0 
0.359894 -0.879943 0 
0.411236 -0.857929 0 
0.461748 -0.887011 0 
0.513842 -0.857885 0 
-0.564741 -0.825268 0 
-0.512908 -0.802945 0 
-0.462372 -0.832348 0 
-0.410124 -0.804631 0 
-0.358606 -0.827415 0 
-0.305781 -0.795641 0 
-0.25358 -0.816639 0 
-0.200756 -0.839997 0 
-0.149043 -0.818944 0 
-0.0987265 -0.846667 0 
-0.0490473 -0.822548 0 
5.00659e-05 -0.849932 0 
0.0490834 -0.822542 0 
0.0987838 -0.846676 0 
0.148997 -0.818924 0 
0.200826 -0.840131 0 
0.253508 -0.816728 0 
0.305831 -0.795701 0 
0.358581 -0.827419 0 
0.410181 -0.804654 0 
0.462414 -0.83234 0 
0.512965 -0.802929 0 
0.564777 -0.825243 0 
-0.660798 -0.750564 0 
-0.614015 -0.789295 0 
-0.561786 -0.769772 0 
-0.510673 -0.747856 0 
-0.460836 -0.778365 0 
-0.408794 -0.751554 0 
-0.357337 -0.774971 0 
-0.304815 -0.743684 0 
-0.252907 -0.765535 0 
-0.200631 -0.789263 0 
-0.149244 -0.764328 0 
-0.0986912 -0.791935 0 
-0.0492815 -0.765764 0 
4.16586e-05 -0.79382 0 
0.0492411 -0.765708 0 
0.0987508 -0.791951 0 
0.149196 -0.764326 0 
0.200666 -0.789356 0 
0.252841 -0.765599 0 
0.304862 -0.743741 0 
0.357323 -0.775038 0 
0.408863 -0.751626 0 
0.460863 -0.778382 0 
0.510716 -0.747859 0 
0.561819 -0.769761 0 
0.614041 -0.789274 0 
0.660811 -0.750552 0 
-0.707107 -0.707107 0 
-0.654819 -0.699058 0 
-0.60813 -0.73348 0 
-0.558104 -0.71337 0 
-0.509495 -0.692659 0 
-0.45935 -0.724356 0 
-0.407328 -0.698865 0 
-0.355968 -0.722823 0 
-0.303722 -0.691387 0 
-0.252254 -0.71362 0 
-0.20067 -0.737336 0 
-0.149608 -0.710068 0 
-0.0991558 -0.737129 0 
-0.0495872 -0.709825 0 
-2.23646e-05 -0.737917 0 
0.0494408 -0.709766 0 
0.0991291 -0.737116 0 
0.149502 -0.710042 0 
0.200696 -0.73743 0 
0.252186 -0.713735 0 
0.303753 -0.691518 0 
0.355952 -0.722893 0 
0.407371 -0.698945 0 
0.459374 -0.724407 0 
0.509524 -0.692668 0 
0.558131 -0.713361 0 
0.608151 -0.733462 0 
0.654824 -0.699048 0 
0.707107 -0.707107 0 
-0.750564 -0.660798 0 
-0.699058 -0.654819 0 
-0.647692 -0.647692 0 
-0.603437 -0.675718 0 
-0.55905 -0.655305 0 
-0.508501 -0.639581 0 
-0.457509 -0.671321 0 
-0.405555 -0.646545 0 
-0.354417 -0.670703 0 
-0.302427 -0.639219 0 
-0.251503 -0.661417 0 
-0.20061 -0.684911 0 
-0.149717 -0.655943 0 
-0.0995004 -0.682466 0 
-0.0498216 -0.654561 0 
-5.02113e-05 -0.682664 0 
0.0496787 -0.654499 0 
0.0994374 -0.682501 0 
0.149603 -0.655909 0 
0.200573 -0.684972 0 
0.251388 -0.661524 0 
0.302407 -0.639359 0 
0.354397 -0.670836 0 
0.405575 -0.646641 0 
0.457525 -0.67138 0 
0.508497 -0.639623 0 
0.559063 -0.655324 0 
0.603436 -0.675715 0 
0.64769 -0.64769 0 
0.699048 -0.654824 0 
0.750552 -0.660811 0 
-0.789295 -0.614015 0 
-0.73348 -0.60813 0 
-0.675718 -0.603437 0 
-0.613088 -0.613088 0 
-0.55962 -0.604068 0 
-0.506189 -0.588854 0 
-0.455505 -0.618874 0 
-0.403019 -0.594688 0 
-0.352514 -0.618952 0 
-0.300977 -0.586897 0 
-0.250543 -0.608767 0 
-0.200257 -0.632053 0 
-0.150049 -0.601979 0 
-0.0998281 -0.628222 0 
-0.0500377 -0.599914 0 
-3.12334e-05 -0.628076 0 
0.0498927 -0.599835 0 
0.0997818 -0.628253 0 
0.149924 -0.601867 0 
0.200214 -0.632118 0 
0.250423 -0.608915 0 
0.30086 -0.587085 0 
0.352457 -0.619096 0 
0.402948 -0.594743 0 
0.455483 -0.618952 0 
0.506147 -0.588901 0 
0.55964 -0.604067 0 
0.613069 -0.613069 0 
0.675715 -0.603436 0 
0.733462 -0.608151 0 
0.789274 -0.614041 0 
-0.825268 -0.564741 0 
-0.769772 -0.561786 0 
-0.71337 -0.558104 0 
-0.655305 -0.55905 0 
-0.604068 -0.55962 0 
-0.551031 -0.551031 0 
-0.497922 -0.537596 0 
-0.451508 -0.567021 0 
-0.399773 -0.542431 0 
-0.350494 -0.567003 0 
-0.301574 -0.534146 0 
-0.250874 -0.555692 0 
-0.200542 -0.579013 0 
-0.150324 -0.548268 0 
-0.100169 -0.57443 0 
-0.0500152 -0.545912 0 
-3.29278e-05 -0.574268 0 
0.0499208 -0.545788 0 
0.100058 -0.574485 0 
0.150038 -0.548073 0 
0.200377 -0.579041 0 
0.250556 -0.55585 0 
0.301273 -0.534348 0 
0.350318 -0.567174 0 
0.399615 -0.542384 0 
0.451404 -0.5671 0 
0.497945 -0.537702 0 
0.551073 -0.551073 0 
0.604067 -0.55964 0 
0.655324 -0.559063 0 
0.713361 -0.558131 0 
0.769761 -0.561819 0 
0.825243 -0.564777 0 
-0.857917 -0.513788 0 
-0.802945 -0.512908 0 
-0.747856 -0.510673 0 
-0.692659 -0.509495 0 
-0.639581 -0.508501 0 
-0.588854 -0.506189 0 
-0.537596 -0.497922 0 
-0.486157 -0.486157 0 
-0.444928 -0.512952 0 
-0.401787 -0.486784 0 
-0.351685 -0.513639 0 
-0.299695 -0.48291 0 
-0.250032 -0.503 0 
-0.200501 -0.526165 0 
-0.149489 -0.495195 0 
-0.0999281 -0.521367 0 
-0.0499712 -0.492294 0 
4.64723e-05 -0.520999 0 
0.050147 -0.492108 0 
0.099934 -0.52133 0 
0.14957 -0.494692 0 
0.200133 -0.526255 0 
0.249839 -0.503309 0 
0.299839 -0.483005 0 
0.351514 -0.513798 0 
0.401881 -0.486608 0 
0.444935 -0.513054 0 
0.486228 -0.486228 0 
0.537702 -0.497945 0 
0.588901 -0.506147 0 
0.639623 -0.508497 0 
0.692668 -0.509524 0 
0.747859 -0.510716 0 
0.802929 -0.512965 0 
0.857885 -0.513842 0 
-0.887039 -0.461695 0 
-0.832348 -0.462372 0 
-0.778365 -0.460836 0 
-0.724356 -0.45935 0 
-0.671321 -0.457509 0 
-0.618874 -0.455505 0 
-0.567021 -0.451508 0 
-0.512952 -0.444928 0 
-0.450685 -0.450685 0 
-0.397667 -0.437543 0 
-0.348492 -0.462546 0 
-0.295416 -0.432968 0 
-0.247004 -0.450633 0 
-0.198702 -0.473818 0 
-0.150161 -0.441625 0 
-0.100085 -0.468395 0 
-0.0502271 -0.439281 0 
0.000144229 -0.468374 0 
0.0504178 -0.439106 0 
0.100428 -0.468348 0 
0.150697 -0.441105 0 
0.199103 -0.473881 0 
0.247983 -0.450921 0 
0.296569 -0.432268 0 
0.348831 -0.462562 0 
0.397506 -0.4368 0 
0.450637 -0.450637 0 
0.513054 -0.444935 0 
0.5671 -0.451404 0 
0.618952 -0.455483 0 
0.67138 -0.457525 0 
0.724407 -0.459374 0 
0.778382 -0.460863 0 
0.83234 -0.462414 0 
0.887011 -0.461748 0 
-0.912466 -0.409153 0 
-0.857936 -0.411157 0 
-0.804631 -0.410124 0 
-0.751554 -0.408794 0 
-0.698865 -0.407328 0 
-0.646545 -0.405555 0 
-0.594688 -0.403019 0 
-0.542431 -0.399773 0 
-0.486784 -0.401787 0 
-0.437543 -0.397667 0 
-0.387256 -0.387256 0 
-0.344215 -0.411459 0 
-0.30136 -0.381507 0 
-0.25021 -0.395692 0 
-0.200211 -0.419975 0 
-0.150955 -0.389014 0 
-0.100617 -0.416095 0 
-0.0503197 -0.386922 0 
-4.02994e-05 -0.416525 0 
0.05006 -0.386948 0 
0.100784 -0.416323 0 
0.150432 -0.388572 0 
0.200855 -0.420694 0 
0.25086 -0.396905 0 
0.301746 -0.379789 0 
0.344135 -0.410678 0 
0.385823 -0.385823 0 
0.4368 -0.397506 0 
0.486608 -0.401881 0 
0.542384 -0.399615 0 
0.594743 -0.402948 0 
0.646641 -0.405575 0 
0.698945 -0.407371 0 
0.751626 -0.408863 0 
0.804654 -0.410181 0 
0.857929 -0.411236 0 
0.912429 -0.409236 0 
-0.934288 -0.356519 0 
-0.879963 -0.359855 0 
-0.827415 -0.358606 0 
-0.774971 -0.357337 0 
-0.722823 -0.355968 0 
-0.670703 -0.354417 0 
-0.618952 -0.352514 0 
-0.567003 -0.350494 0 
-0.513639 -0.351685 0 
-0.462546 -0.348492 0 
-0.411459 -0.344215 0 
-0.351697 -0.351697 0 
-0.29839 -0.336232 0 
-0.249846 -0.342529 0 
-0.200971 -0.367271 0 
-0.149995 -0.337521 0 
-0.100435 -0.3646 0 
-0.0498692 -0.335025 0 
-6.88684e-05 -0.365025 0 
0.0495433 -0.334795 0 
0.0996798 -0.364834 0 
0.148162 -0.337172 0 
0.199644 -0.368939 0 
0.24763 -0.345582 0 
0.295348 -0.332889 0 
0.34978 -0.34978 0 
0.410678 -0.344135 0 
0.462562 -0.348831 0 
0.513798 -0.351514 0 
0.567174 -0.350318 0 
0.619096 -0.352457 0 
0.670836 -0.354397 0 
0.722893 -0.355952 0 
0.775038 -0.357323 0 
0.827419 -0.358581 0 
0.879943 -0.359894 0 
0.93426 -0.356593 0 
-0.952721 -0.303845 0 
-0.898929 -0.308871 0 
-0.847481 -0.306888 0 
-0.795641 -0.305781 0 
-0.743684 -0.304815 0 
-0.691387 -0.303722 0 
-0.639219 -0.302427 0 
-0.586897 -0.300977 0 
-0.534146 -0.301574 0 
-0.48291 -0.299695 0 
-0.432968 -0.295416 0 
-0.381507 -0.30136 0 
-0.336232 -0.29839 0 
-0.288184 -0.288184 0 
-0.242975 -0.290577 0 
-0.198059 -0.315051 0 
-0.148383 -0.285894 0 
-0.0994753 -0.313232 0 
-0.0507184 -0.283118 0 
-0.000202902 -0.313447 0 
0.0500077 -0.282824 0 
0.0988289 -0.312817 0 
0.148102 -0.28482 0 
0.195742 -0.317413 0 
0.240766 -0.295824 0 
0.285014 -0.285014 0 
0.332889 -0.295348 0 
0.379789 -0.301746 0 
0.432268 -0.296569 0 
0.483005 -0.299839 0 
0.534348 -0.301273 0 
0.587085 -0.30086 0 
0.639359 -0.302407 0 
0.691518 -0.303753 0 
0.743741 -0.304862 0 
0.795701 -0.305831 0 
0.847482 -0.306946 0 
0.898924 -0.308979 0 
0.952687 -0.303953 0 
-0.96803 -0.250833 0 
-0.916037 -0.258282 0 
-0.866979 -0.254732 0 
-0.816639 -0.25358 0 
-0.765535 -0.252907 0 
-0.71362 -0.252254 0 
-0.661417 -0.251503 0 
-0.608767 -0.250543 0 
-0.555692 -0.250874 0 
-0.503 -0.250032 0 
-0.450633 -0.247004 0 
-0.395692 -0.25021 0 
-0.342529 -0.249846 0 
-0.290577 -0.242975 0 
-0.239946 -0.239946 0 
-0.194478 -0.26004 0 
-0.151293 -0.23238 0 
-0.101048 -0.260904 0 
-0.0503938 -0.232537 0 
-0.000203281 -0.262984 0 
0.050638 -0.232316 0 
0.100942 -0.260855 0 
0.152412 -0.232597 0 
0.195768 -0.261421 0 
0.241873 -0.241873 0 
0.295824 -0.240766 0 
0.345582 -0.24763 0 
0.396905 -0.25086 0 
0.450921 -0.247983 0 
[...]
POINT_DATA 1245 
VECTORS vectors float
0.415977 -0.160822 0.895041 
0.42212 -0.13954 0.895736 
0.427054 -0.118079 0.896483 
0.429766 -0.100388 0.897342 
0.430063 -0.0823373 0.899036 
0.427961 -0.0665717 0.901342 
0.422845 -0.05024 0.904809 
0.414177 -0.0318433 0.909639 
0.403665 -0.0105938 0.914846 
0.390617 0.018034 0.920377 
0.379245 0.0488796 0.924005 
0.369307 0.0881523 0.925117 
0.364623 0.126064 0.922582 
0.400313 -0.20397 0.89339 
0.408747 -0.182409 0.894233 
0.368312 -0.153298 0.916976 
0.374785 -0.134578 0.917292 
0.384916 -0.116532 0.915565 
0.373809 -0.0960703 0.922517 
0.385446 -0.0800745 0.91925 
0.369631 -0.060332 0.927218 
0.378108 -0.043687 0.92473 
0.35758 -0.0212289 0.933641 
0.360548 0.000734751 0.932741 
0.341263 0.0280121 0.93955 
0.343401 0.0578893 0.937403 
0.332545 0.0891958 0.93886 
0.328036 0.11944 0.937084 
0.364271 0.160835 0.9173 
0.366418 0.190137 0.910816 
0.378306 -0.246529 0.892249 
0.390274 -0.225335 0.892698 
0.354009 -0.192605 0.915195 
0.361611 -0.172837 0.916169 
0.325174 -0.143369 0.934723 
0.332685 -0.125162 0.934695 
0.343146 -0.108195 0.93303 
0.32444 -0.0869803 0.941899 
0.340375 -0.0728147 0.937466 
0.318493 -0.0528017 0.946453 
0.333554 -0.0375731 0.941982 
0.309173 -0.0163135 0.950866 
0.320725 0.00345821 0.947166 
0.299077 0.0273983 0.953835 
0.310003 0.0542672 0.949186 
0.298273 0.0818728 0.950963 
0.29302 0.108792 0.949897 
0.326948 0.14755 0.933453 
0.327007 0.171902 0.929256 
0.368259 0.212739 0.905057 
0.366665 0.229115 0.9017 
0.364421 -0.267686 0.891931 
0.333842 -0.232204 0.913581 
0.344857 -0.212452 0.914296 
0.311927 -0.180599 0.932784 
0.319027 -0.161796 0.933833 
0.286027 -0.133886 0.948822 
0.292993 -0.117156 0.94891 
0.303555 -0.100805 0.947466 
0.281196 -0.0801113 0.956301 
0.296708 -0.0660593 0.952681 
0.273807 -0.0468642 0.960642 
0.289843 -0.0323021 0.956529 
0.266573 -0.0125127 0.963733 
0.281053 0.00563811 0.959676 
0.261299 0.0274161 0.964868 
0.276368 0.0515907 0.959666 
0.265516 0.076012 0.961105 
0.259513 0.0991623 0.960635 
0.290685 0.133277 0.947491 
0.288956 0.154984 0.944714 
0.325786 0.191626 0.92582 
0.320918 0.207194 0.924166 
0.359181 0.241193 0.901563 
0.333069 -0.30984 0.890541 
0.349045 -0.288918 0.891456 
0.320999 -0.251601 0.913048 
0.293072 -0.217777 0.930957 
0.303446 -0.199261 0.931781 
0.273794 -0.169112 0.946804 
0.280136 -0.151393 0.947947 
0.250141 -0.125162 0.960086 
0.257009 -0.109282 0.96021 
0.266212 -0.0941252 0.959308 
0.243465 -0.0739635 0.967086 
0.256879 -0.060404 0.964554 
0.235253 -0.0422178 0.971017 
0.250091 -0.0280581 0.967816 
0.229425 -0.00982456 0.973277 
0.244349 0.00723863 0.96966 
0.22733 0.026671 0.973453 
0.244222 0.0489391 0.968484 
0.234215 0.070094 0.969655 
0.228184 0.0906274 0.969391 
0.25645 0.120858 0.958972 
0.25325 0.140459 0.95715 
0.285387 0.17311 0.942649 
0.278048 0.188373 0.941915 
0.310624 0.219948 0.924735 
0.344698 0.251818 0.904307 
0.323884 0.263573 0.908641 
0.316474 -0.330891 0.889019 
0.296395 -0.291457 0.909507 
0.307005 -0.27036 0.912498 
0.280917 -0.235455 0.930401 
0.256372 -0.204548 0.944687 
0.265897 -0.186796 0.94573 
0.239445 -0.158311 0.957916 
0.245268 -0.141442 0.959082 
0.217849 -0.116668 0.968984 
0.223805 -0.101914 0.969291 
0.231896 -0.0876881 0.96878 
0.209944 -0.0685036 0.975311 
0.221405 -0.0555177 0.9736 
0.201639 -0.0383699 0.978708 
0.214922 -0.0247803 0.976317 
0.196914 -0.00801899 0.980388 
0.2113 0.00806954 0.977388 
0.196814 0.0254632 0.98011 
0.213886 0.0458625 0.975781 
0.204942 0.0645281 0.976645 
0.198896 0.0827384 0.976522 
0.224508 0.109899 0.968255 
0.22042 0.128108 0.966956 
0.247993 0.157591 0.955858 
0.239337 0.173167 0.95537 
0.265865 0.201648 0.942685 
0.294827 0.231898 0.926985 
0.279032 0.247583 0.927817 
0.297122 0.279168 0.913118 
0.300472 -0.349975 0.887262 
0.281119 -0.309597 0.908362 
0.262478 -0.272797 0.925574 
0.267971 -0.252531 0.929742 
0.244842 -0.222115 0.943778 
0.224547 -0.192505 0.955259 
0.23251 -0.175027 0.956716 
0.208699 -0.148061 0.966707 
0.213629 -0.132154 0.967935 
0.188744 -0.1088 0.975981 
0.193943 -0.0949158 0.97641 
0.200926 -0.0815777 0.976204 
0.180277 -0.0634454 0.981568 
0.190102 -0.0511277 0.980432 
0.172268 -0.0351365 0.984423 
0.184158 -0.0222239 0.982645 
0.168385 -0.00680764 0.985698 
0.181824 0.00819164 0.983297 
0.169369 0.0238677 0.985264 
0.185876 0.0425672 0.981651 
0.17786 0.0592334 0.982271 
0.172176 0.075763 0.982148 
0.19517 0.10042 0.975615 
0.190556 0.117481 0.974621 
0.214356 0.14459 0.965995 
0.205819 0.16098 0.965259 
0.226068 0.18815 0.955768 
0.24963 0.214981 0.944176 
0.239408 0.232647 0.942634 
0.254426 0.263997 0.930362 
0.268085 0.298421 0.91601 
0.285525 -0.36527 0.886033 
0.263987 -0.320428 0.909746 
0.244482 -0.278889 0.928682 
0.233497 -0.24252 0.941628 
0.215968 -0.210655 0.953406 
0.196694 -0.180972 0.963618 
0.202652 -0.163981 0.965423 
0.18106 -0.13829 0.973701 
0.185458 -0.123302 0.974886 
0.162675 -0.101392 0.981456 
0.167025 -0.0883237 0.981989 
0.17298 -0.075854 0.982 
0.154084 -0.058956 0.986297 
0.162566 -0.0472875 0.985564 
0.146633 -0.0323959 0.98866 
0.157227 -0.0201987 0.987356 
0.143369 -0.00601231 0.989651 
0.155673 0.00798658 0.987776 
0.144824 0.0222469 0.989207 
0.160275 0.0393006 0.98629 
0.153088 0.0543549 0.986717 
0.147834 0.0695236 0.986565 
0.168471 0.0920434 0.9814 
0.16366 0.108166 0.980569 
0.18429 0.133625 0.973746 
0.176899 0.150498 0.972655 
0.194674 0.17821 0.964543 
0.209926 0.206955 0.955563 
0.215098 0.240548 0.946504 
0.227835 0.278064 0.933152 
0.240466 0.319168 0.916683 
0.269988 -0.377129 0.885935 
0.249434 -0.332752 0.909428 
0.23027 -0.291374 0.928481 
0.214992 -0.254237 0.942943 
0.20276 -0.224499 0.953147 
0.186829 -0.194849 0.962875 
0.170025 -0.167388 0.971119 
0.175691 -0.152908 0.972498 
0.155966 -0.128867 0.97932 
0.159987 -0.115084 0.980388 
0.139455 -0.0951603 0.985645 
0.142966 -0.0826271 0.986273 
0.148169 -0.0707585 0.986428 
0.131029 -0.0549196 0.989856 
0.13843 -0.0439153 0.989398 
0.124256 -0.0300106 0.991796 
0.133744 -0.0185882 0.990842 
0.121467 -0.00551747 0.99258 
0.132592 0.00755482 0.991142 
0.123012 0.0206176 0.992191 
0.13715 0.0363902 0.989882 
0.130669 0.0503322 0.990148 
0.125981 0.0647033 0.98992 
0.144316 0.0847612 0.985895 
0.139259 0.0998286 0.985211 
0.157333 0.123521 0.97979 
0.150071 0.138854 0.978876 
0.164449 0.165067 0.972476 
0.17727 0.192974 0.965058 
0.185091 0.221118 0.957522 
0.193523 0.256788 0.946894 
0.204125 0.29662 0.932925 
0.213949 0.340625 0.915533 
0.253004 -0.385332 0.887417 
0.23351 -0.341878 0.910271 
0.215255 -0.30132 0.928909 
0.199373 -0.264566 0.943533 
0.185731 -0.232536 0.954689 
0.173337 -0.204557 0.963385 
0.159357 -0.17791 0.971058 
0.145252 -0.153453 0.977422 
0.149921 -0.141286 0.978551 
0.13281 -0.121594 0.983655 
0.137041 -0.108352 0.984622 
0.118989 -0.0889348 0.988905 
0.12168 -0.0771142 0.989569 
0.126149 -0.066081 0.989808 
0.11078 -0.0510795 0.992531 
0.117367 -0.0408389 0.992249 
0.104673 -0.027963 0.994114 
0.113191 -0.017251 0.993424 
0.102259 -0.00513664 0.994745 
0.112329 0.00694647 0.993647 
0.103773 0.01894 0.994421 
0.116558 0.0336309 0.992614 
0.110738 0.0465818 0.992757 
0.106758 0.0600721 0.992469 
0.122399 0.0794589 0.989295 
0.116857 0.0943436 0.988657 
0.132153 0.113592 0.984699 
0.125934 0.127074 0.983866 
0.137298 0.151174 0.978926 
0.147889 0.177108 0.973017 
0.156026 0.20462 0.966326 
0.163916 0.236377 0.957735 
0.172169 0.273392 0.946369 
0.180963 0.314993 0.931682 
0.189077 0.361194 0.91312 
0.233691 -0.390387 0.890498 
0.215621 -0.347781 0.912445 
0.198383 -0.308077 0.930448 
0.182913 -0.271617 0.944864 
0.169076 -0.238914 0.956208 
0.156679 -0.209552 0.965163 
0.144838 -0.183006 0.972384 
0.132728 -0.157768 0.978515 
0.125505 -0.134078 0.982991 
0.113543 -0.113785 0.986996 
0.116798 -0.101132 0.987993 
0.101002 -0.0827214 0.991441 
0.10255 -0.0716659 0.992143 
0.106756 -0.0614466 0.992385 
0.0928874 -0.0479921 0.994519 
0.0988181 -0.0382077 0.994372 
0.0876162 -0.0262668 0.995808 
0.0952571 -0.016138 0.995322 
0.0855154 -0.00484748 0.996325 
0.0944382 0.00648441 0.99551 
0.0866884 0.0178759 0.996075 
0.0982848 0.0310329 0.994674 
0.0930563 0.0429542 0.994734 
0.0897346 0.0555915 0.994413 
0.103353 0.0738833 0.991897 
0.0984821 0.0880014 0.99124 
0.108245 0.108831 0.988149 
0.112536 0.133759 0.984604 
0.12112 0.159321 0.979769 
0.128932 0.186306 0.973995 
0.136201 0.216416 0.966754 
0.143601 0.250395 0.957435 
0.151103 0.288973 0.945337 
0.158781 0.332005 0.929818 
0.165668 0.380026 0.910019 
0.211627 -0.393212 0.894762 
0.195596 -0.351254 0.915622 
0.179762 -0.312195 0.932856 
0.165404 -0.276289 0.946734 
0.15238 -0.243593 0.957832 
0.140737 -0.214051 0.966631 
0.129903 -0.187388 0.973658 
0.119955 -0.163113 0.979288 
0.112413 -0.140818 0.983633 
0.104438 -0.122309 0.986982 
0.0951843 -0.104631 0.989946 
0.098604 -0.094299 0.990649 
0.0849865 -0.0797992 0.993181 
0.0855557 -0.0680212 0.994009 
0.0892087 -0.0580094 0.994322 
0.0773077 -0.0453194 0.995977 
0.0826562 -0.0360165 0.995927 
0.0727513 -0.0247768 0.997042 
0.079661 -0.0152696 0.996705 
0.070983 -0.00474906 0.997466 
0.0788999 0.0060412 0.996864 
0.0719383 0.0164973 0.997273 
0.0820741 0.0292578 0.996197 
0.0768333 0.0413131 0.996188 
0.0748124 0.0537602 0.995747 
0.0859356 0.0684783 0.993945 
0.0813365 0.0800625 0.993466 
0.0887514 0.0987047 0.991151 
0.094451 0.118395 0.988464 
0.0988508 0.142208 0.984888 
0.105224 0.16776 0.980196 
0.111633 0.195999 0.974229 
0.117967 0.227586 0.966586 
0.124455 0.263127 0.9567 
0.131082 0.302897 0.943965 
0.137864 0.347189 0.927606 
0.143594 0.396755 0.906623 
0.186798 -0.394821 0.899568 
0.173502 -0.353291 0.919284 
0.159392 -0.314812 0.935675 
0.146262 -0.279188 0.949032 
0.134716 -0.246811 0.959654 
0.123867 -0.217159 0.968245 
0.114265 -0.190493 0.975016 
0.105416 -0.166275 0.980429 
0.0984188 -0.144441 0.984607 
0.0911104 -0.125061 0.987957 
0.0840771 -0.107739 0.990618 
0.0806907 -0.09072 0.992602 
0.0722269 -0.0752719 0.994544 
0.0701489 -0.0643167 0.995461 
0.0740749 -0.0548581 0.995743 
0.0637009 -0.0427321 0.997054 
0.0685556 -0.033979 0.997068 
0.0597037 -0.0234162 0.997941 
0.0659604 -0.0144922 0.997717 
0.0581444 -0.00469914 0.998297 
0.0652909 0.00533928 0.997852 
0.059016 0.0151535 0.998142 
0.0676588 0.0275828 0.997327 
0.0638847 0.0374605 0.997254 
0.0614661 0.0505113 0.99683 
0.0690665 0.0661391 0.995417 
0.0709157 0.085587 0.993804 
0.0758352 0.104586 0.99162 
0.0804659 0.125429 0.988834 
0.0844171 0.14932 0.985179 
0.0896081 0.175685 0.98036 
0.0949417 0.20491 0.974165 
0.100486 0.237875 0.966084 
0.1061 0.274395 0.955746 
0.112032 0.315357 0.942337 
0.118147 0.360524 0.925237 
0.122738 0.411367 0.903168 
0.15958 -0.396113 0.904228 
0.149934 -0.355066 0.922739 
0.137214 -0.316914 0.938476 
0.126512 -0.281819 0.95109 
0.116067 -0.249295 0.961447 
0.106961 -0.219583 0.969713 
0.0983556 -0.192559 0.976344 
0.0906242 -0.16814 0.981589 
0.0843064 -0.146236 0.985651 
0.0779753 -0.126895 0.988847 
0.0717618 -0.109768 0.991363 
0.0691235 -0.0946358 0.993109 
0.0643842 -0.0823896 0.994518 
0.0587986 -0.0696518 0.995837 
0.056885 -0.0595884 0.996601 
0.0604154 -0.0513931 0.996849 
0.0515459 -0.0403248 0.997856 
0.0560338 -0.0320727 0.997914 
0.048173 -0.0224484 0.998587 
0.0538218 -0.0138479 0.998455 
0.0468182 -0.00445269 0.998894 
0.0531478 0.00475728 0.998575 
0.0474557 0.0143472 0.99877 
0.0554911 0.0247118 0.998153 
0.050778 0.0357305 0.998071 
0.0514284 0.0439789 0.997708 
0.0541011 0.0592639 0.996775 
0.058298 0.0727962 0.995642 
0.0596433 0.0901926 0.994137 
0.0634437 0.109223 0.991991 
0.0671683 0.130665 0.989149 
0.0706875 0.155169 0.985356 
0.0750021 0.182532 0.980335 
0.0795348 0.213161 0.973774 
0.0841262 0.247161 0.965316 
0.0890644 0.285138 0.95434 
0.0940372 0.326576 0.940481 
0.0997967 0.372442 0.922674 
0.103083 0.423887 0.89983 
0.130267 -0.397685 0.908227 
0.12476 -0.35762 0.925496 
0.11474 -0.320904 0.940136 
0.105237 -0.28608 0.952409 
0.0974528 -0.253925 0.962302 
0.0896371 -0.223936 0.970473 
0.0825838 -0.196601 0.976999 
0.0760504 -0.171673 0.982214 
0.0704584 -0.149243 0.986287 
0.0651284 -0.12921 0.989476 
0.0598562 -0.111158 0.991999 
0.0563802 -0.0950038 0.993879 
0.0530007 -0.0804266 0.99535 
0.0482012 -0.0676931 0.996541 
0.045166 -0.0564881 0.997381 
0.0476322 -0.0482489 0.997699 
0.0404081 -0.0390704 0.998419 
0.0447404 -0.0309032 0.998521 
0.0380773 -0.021518 0.999043 
0.0432326 -0.0132938 0.998977 
0.0369886 -0.00425542 0.999307 
0.0423733 0.00486782 0.99909 
0.0372949 0.0144894 0.999199 
0.0434265 0.023752 0.998774 
0.0405776 0.0333196 0.998621 
0.0406981 0.0476558 0.998034 
0.0448358 0.0598118 0.997202 
0.046936 0.0763562 0.995975 
0.0487948 0.0943392 0.994344 
0.0517836 0.114561 0.992066 
0.0547641 0.137202 0.989028 
0.0577908 0.16289 0.98495 
0.0612887 0.191515 0.979574 
0.064932 0.223281 0.972589 
0.0688049 0.258563 0.963541 
0.0726546 0.29682 0.952166 
0.077228 0.338942 0.937632 
0.0823722 0.383422 0.919893 
0.0843177 0.434228 0.896848 
0.0979435 -0.399973 0.911279 
0.0998972 -0.364495 0.925831 
0.0901726 -0.328833 0.940073 
0.0841572 -0.294326 0.951992 
0.0779179 -0.26147 0.962061 
0.0721526 -0.230788 0.970325 
0.0667788 -0.202685 0.976964 
0.0615551 -0.17705 0.982275 
0.0570245 -0.154027 0.98642 
0.0528317 -0.133432 0.989649 
0.0485564 -0.115168 0.992159 
0.0455867 -0.0985487 0.994088 
0.0427296 -0.084127 0.995538 
0.0394964 -0.0710823 0.996688 
0.0365259 -0.0588198 0.9976 
0.0358564 -0.0473987 0.998232 
0.0311991 -0.0371375 0.998823 
0.0348889 -0.0293083 0.998961 
0.0289523 -0.0201293 0.999378 
0.0338629 -0.0127225 0.999346 
0.0282293 -0.0046677 0.999591 
0.0330402 0.0044801 0.999444 
0.028872 0.0133349 0.999494 
0.0324749 0.0245943 0.99917 
0.032122 0.0371437 0.998794 
0.0334501 0.050873 0.998145 
0.0351705 0.0659318 0.997204 
0.0372842 0.0819667 0.995937 
0.0387071 0.100861 0.994147 
0.040999 0.121813 0.991706 
0.0433105 0.145566 0.9884 
0.0456998 0.172391 0.983968 
0.0484242 0.202433 0.978098 
0.0512086 0.235687 0.970479 
0.0541666 0.272369 0.960667 
0.0574124 0.31215 0.948296 
0.0608169 0.353993 0.933268 
0.0663077 0.397659 0.915134 
0.0653204 0.442333 0.894469 
0.0697431 -0.402826 0.912616 
0.0699814 -0.355437 0.932077 
0.0635257 -0.312993 0.947629 
0.0582944 -0.275274 0.959597 
0.054451 -0.241599 0.968847 
0.0504723 -0.211312 0.976115 
0.0467275 -0.184135 0.98179 
0.043328 -0.159868 0.986187 
0.0401514 -0.138317 0.989574 
0.0370405 -0.119245 0.992174 
0.0345672 -0.102274 0.994156 
0.0324191 -0.0874072 0.995645 
0.0302334 -0.0743773 0.996772 
0.0281457 -0.0626366 0.997639 
0.0271659 -0.051817 0.998287 
0.0253462 -0.042834 0.998761 
0.0222095 -0.0338608 0.99918 
0.0258453 -0.027577 0.999286 
0.0205501 -0.0203812 0.999581 
0.0248654 -0.012398 0.999614 
0.0199827 -0.00380344 0.999793 
0.0246264 0.00341375 0.999691 
0.0207085 0.0105919 0.999729 
0.0231136 0.0201172 0.99953 
0.0241466 0.0300349 0.999257 
0.0240541 0.0420533 0.998826 
0.024933 0.0555129 0.998147 
0.026484 0.070347 0.997171 
0.0276903 0.0875742 0.995773 
0.028888 0.107278 0.993809 
0.0305208 0.129513 0.991108 
0.0321824 0.154802 0.987421 
0.033934 0.183385 0.982455 
0.0358954 0.215558 0.975831 
0.0380347 0.251721 0.967052 
0.0402765 0.292088 0.955543 
0.0435061 0.337854 0.940193 
0.047986 0.389172 0.919914 
0.0490243 0.447396 0.892991 
0.0393529 -0.406456 0.912822 
0.0446308 -0.367585 0.928918 
0.0406953 -0.329132 0.943407 
0.0380865 -0.290838 0.956014 
0.035926 -0.255231 0.966212 
0.0336873 -0.22304 0.974227 
0.0315582 -0.194223 0.98045 
0.0293944 -0.168617 0.985243 
0.0273934 -0.145962 0.988911 
0.0253934 -0.126055 0.991698 
0.0236539 -0.108397 0.993826 
0.0222043 -0.092923 0.995426 
0.0207618 -0.0793479 0.996631 
0.0193452 -0.0672159 0.997551 
0.0185847 -0.0562221 0.998245 
0.0173231 -0.0464748 0.998769 
0.0157643 -0.0375839 0.999169 
0.0161872 -0.0278176 0.999482 
0.0132261 -0.0194936 0.999722 
0.0174447 -0.0120036 0.999776 
0.0129646 -0.00406824 0.999908 
0.015373 0.00442124 0.999872 
0.0145866 0.0150941 0.99978 
0.0155946 0.0249253 0.999568 
0.0161333 0.0357884 0.999229 
0.0162834 0.0483311 0.998699 
0.0169888 0.0624944 0.997901 
0.017863 0.0782968 0.99677 
0.0185909 0.0962618 0.995182 
0.0193638 0.116922 0.992952 
0.0203419 0.140338 0.989895 
0.021329 0.167006 0.985725 
0.0224188 0.19729 0.980089 
0.0236041 0.231438 0.972563 
0.0250205 0.269825 0.962584 
0.026703 0.312367 0.949586 
0.0290867 0.358283 0.93316 
0.0327361 0.40451 0.913948 
0.0311377 0.450547 0.892209 
0.0136665 -0.410214 0.911887 
0.0173067 -0.35907 0.93315 
0.0171019 -0.313824 0.949327 
0.0164657 -0.273544 0.961719 
0.0161594 -0.238068 0.971114 
0.0155551 -0.206769 0.978266 
0.0147702 -0.179162 0.983709 
0.0139646 -0.154871 0.987836 
0.0130679 -0.133536 0.990958 
0.0122276 -0.114761 0.993318 
0.0115155 -0.0983186 0.995088 
0.010835 -0.0839037 0.996415 
0.0101337 -0.0712067 0.99741 
0.00976448 -0.0598483 0.99816 
0.00923459 -0.0498798 0.998713 
0.0082844 -0.0407759 0.999134 
0.00874898 -0.0321711 0.999444 
0.00813277 -0.0247901 0.99966 
0.00557715 -0.0167279 0.999845 
0.0102925 -0.0118809 0.999876 
0.00546467 -0.00662655 0.999963 
0.00792275 0.00163245 0.999967 
0.00828817 0.00961656 0.999919 
0.00766015 0.0191127 0.999788 
0.00827667 0.0292279 0.999539 
0.00833347 0.0406404 0.999139 
0.00846573 0.0537545 0.998518 
0.00879259 0.0686152 0.997604 
0.00911956 0.0854001 0.996305 
0.00935651 0.104683 0.994462 
0.00961477 0.126771 0.991885 
0.00994083 0.151888 0.988348 
0.0102475 0.180513 0.983519 
0.0106228 0.213066 0.97698 
0.0111017 0.249993 0.968184 
0.0117067 0.291868 0.956387 
0.0130179 0.339379 0.94056 
0.0148189 0.392692 0.91955 
0.0151254 0.452044 0.891867 
-0.0114613 -0.414069 0.910173 
-0.00829009 -0.373814 0.927467 
-0.00617012 -0.333312 0.942796 
-0.0040045 -0.29277 0.956174 
-0.00247811 -0.255385 0.966836 
-0.00147702 -0.222 0.975045 
-0.000759941 -0.192556 0.981286 
-0.000307178 -0.166652 0.986016 
-6.97756e-06 -0.143964 0.989583 
0.000183751 -0.124043 0.992277 
0.000300054 -0.106591 0.994303 
0.000444141 -0.0913542 0.995818 
0.000530338 -0.0779034 0.996961 
0.000611605 -0.0659042 0.997826 
0.000668011 -0.0553833 0.998465 
0.000649938 -0.0459363 0.998944 
0.000704362 -0.0367874 0.999323 
0.000777001 -0.0292046 0.999573 
0.000734982 -0.0216048 0.999766 
0.000861834 -0.011671 0.999932 
0.000960027 -0.00147987 0.999998 
0.000873372 0.00664393 0.999978 
0.000875656 0.0149306 0.999888 
0.000843735 0.0252314 0.999681 
0.000712354 0.0359741 0.999352 
0.000620141 0.0481421 0.99884 
0.000506571 0.062114 0.998069 
0.000338607 0.0778434 0.996966 
0.000148209 0.095737 0.995407 
-0.000143767 0.116228 0.993223 
-0.000495145 0.13963 0.990204 
-0.000877089 0.166264 0.986081 
-0.00129276 0.196619 0.980479 
-0.00171165 0.231049 0.972941 
-0.00201267 0.269958 0.96287 
-0.00225579 0.313358 0.949632 
-0.0023269 0.360162 0.932887 
-0.00182929 0.406535 0.913633 
-0.00154833 0.452212 0.891909 
-0.0350487 -0.416877 0.908287 
-0.0318668 -0.364428 0.930686 
-0.0261631 -0.31736 0.947944 
-0.022474 -0.27592 0.960918 
-0.0196551 -0.239564 0.970681 
-0.0174201 -0.207663 0.978045 
-0.0156088 -0.179623 0.983612 
-0.0140889 -0.15502 0.987811 
-0.0127592 -0.133464 0.990971 
-0.0116759 -0.114536 0.99335 
-0.0107462 -0.0980213 0.995126 
-0.00982341 -0.0836076 0.99645 
-0.00897164 -0.0708299 0.997448 
-0.00840919 -0.0594477 0.998196 
-0.00799508 -0.0495315 0.998741 
-0.00696287 -0.0405263 0.999154 
-0.00735048 -0.0319458 0.999463 
-0.00668795 -0.0245753 0.999676 
-0.00386857 -0.0166539 0.999854 
-0.00864896 -0.011563 0.999896 
-0.00377952 -0.00657004 0.999971 
-0.00610086 0.00178093 0.99998 
-0.00650845 0.00973363 0.999931 
-0.00594254 0.0192468 0.999797 
-0.00668689 0.0294651 0.999543 
-0.00705206 0.0409333 0.999137 
-0.00732939 0.0540712 0.99851 
-0.00793112 0.068936 0.99759 
-0.00856074 0.0858687 0.99627 
-0.00929687 0.105239 0.994403 
-0.010225 0.127414 0.991797 
-0.0112869 0.152594 0.988224 
-0.0124336 0.181272 0.983354 
-0.013673 0.213806 0.976781 
-0.014964 0.250619 0.96797 