# vtk DataFile Version 3.0 
Exported using Morpho https://github.com/Morpho-lang/morpho 
ASCII 
DATASET UNSTRUCTURED_GRID 

POINTS 1245 float 
-0.303845 -0.952721 0 
-0.250833 -0.96803 0 
-0.195084 -0.980787 0 
-0.146308 -0.989239 0 
-0.0940719 -0.995565 0 
-0.0475118 -0.998871 0 
-0.000246339 -1 0 
0.0470875 -0.998891 0 
0.0937543 -0.995595 0 
0.146139 -0.989264 0 
0.195062 -0.980791 0 
0.250843 -0.968028 0 
0.303953 -0.952687 0 
-0.409153 -0.912466 0 
-0.356519 -0.934288 0 
-0.308871 -0.898929 0 
-0.258282 -0.916037 0 
-0.207345 -0.934859 0 
-0.154868 -0.930629 0 
-0.104343 -0.948989 0 
-0.0520099 -0.939193 0 
-8.5762e-05 -0.954582 0 
0.0518744 -0.939288 0 
0.104354 -0.949042 0 
0.154696 -0.9306 0 
0.207366 -0.934975 0 
0.258274 -0.916081 0 
0.308979 -0.898924 0 
0.356593 -0.93426 0 
0.409236 -0.912429 0 
-0.513788 -0.857917 0 
-0.461695 -0.887039 0 
-0.411157 -0.857936 0 
-0.359855 -0.879963 0 
-0.306888 -0.847481 0 
-0.254732 -0.866979 0 
-0.201991 -0.889059 0 
-0.149956 -0.874108 0 
-0.100608 -0.900088 0 
-0.0497575 -0.880388 0 
2.4595e-05 -0.904789 0 
0.0496869 -0.8804 0 
0.100612 -0.900177 0 
0.149872 -0.874171 0 
0.202071 -0.889165 0 
0.254695 -0.867031 0 
0.306946 -0.847482 0 
0.359894 -0.879943 0 
0.411236 -0.857929 0 
0.461748 -0.887011 0 
0.513842 -0.857885 0 
-0.564741 -0.825268 0 
-0.512908 -0.802945 0 
-0.462372 -0.832348 0 
-0.410124 -0.804631 0 
-0.358606 -0.827415 0 
-0.305781 -0.795641 0 
-0.25358 -0.816639 0 
-0.200756 -0.839997 0 
-0.149043 -0.818944 0 
-0.0987265 -0.846667 0 
-0.0490473 -0.822548 0 
5.00659e-05 -0.849932 0 
0.0490834 -0.822542 0 
0.0987838 -0.846676 0 
0.148997 -0.818924 0 
0.200826 -0.840131 0 
0.253508 -0.816728 0 
0.305831 -0.795701 0 
0.358581 -0.827419 0 
0.410181 -0.804654 0 
0.462414 -0.83234 0 
0.512965 -0.802929 0 
0.564777 -0.825243 0 
-0.660798 -0.750564 0 
-0.614015 -0.789295 0 
-0.561786 -0.769772 0 
-0.510673 -0.747856 0 
-0.460836 -0.778365 0 
-0.408794 -0.751554 0 
-0.357337 -0.774971 0 
-0.304815 -0.743684 0 
-0.252907 -0.765535 0 
-0.200631 -0.789263 0 
-0.149244 -0.764328 0 
-0.0986912 -0.791935 0 
-0.0492815 -0.765764 0 
4.16586e-05 -0.79382 0 
0.0492411 -0.765708 0 
0.0987508 -0.791951 0 
0.149196 -0.764326 0 
0.200666 -0.789356 0 
0.252841 -0.765599 0 
0.304862 -0.743741 0 
0.357323 -0.775038 0 
0.408863 -0.751626 0 
0.460863 -0.778382 0 
0.510716 -0.747859 0 
0.561819 -0.769761 0 
0.614041 -0.789274 0 
0.660811 -0.750552 0 
-0.707107 -0.707107 0 
-0.654819 -0.699058 0 
-0.60813 -0.73348 0 
-0.558104 -0.71337 0 
-0.509495 -0.692659 0 
-0.45935 -0.724356 0 
-0.407328 -0.698865 0 
-0.355968 -0.722823 0 
-0.303722 -0.691387 0 
-0.252254 -0.71362 0 
-0.20067 -0.737336 0 
-0.149608 -0.710068 0 
-0.0991558 -0.737129 0 
-0.0495872 -0.709825 0 
-2.23646e-05 -0.737917 0 
0.0494408 -0.709766 0 
0.0991291 -0.737116 0 
0.149502 -0.710042 0 
0.200696 -0.73743 0 
0.252186 -0.713735 0 
0.303753 -0.691518 0 
0.355952 -0.722893 0 
0.407371 -0.698945 0 
0.459374 -0.724407 0 
0.509524 -0.692668 0 
0.558131 -0.713361 0 
0.608151 -0.733462 0 
0.654824 -0.699048 0 
0.707107 -0.707107 0 
-0.750564 -0.660798 0 
-0.699058 -0.654819 0 
-0.647692 -0.647692 0 
-0.603437 -0.675718 0 
-0.55905 -0.655305 0 
-0.508501 -0.639581 0 
-0.457509 -0.671321 0 
-0.405555 -0.646545 0 
-0.354417 -0.670703 0 
-0.302427 -0.639219 0 
-0.251503 -0.661417 0 
-0.20061 -0.684911 0 
-0.149717 -0.655943 0 
-0.0995004 -0.682466 0 
-0.0498216 -0.654561 0 
-5.02113e-05 -0.682664 0 
0.0496787 -0.654499 0 
0.0994374 -0.682501 0 
0.149603 -0.655909 0 
0.200573 -0.684972 0 
0.251388 -0.661524 0 
0.302407 -0.639359 0 
0.354397 -0.670836 0 
0.405575 -0.646641 0 
0.457525 -0.67138 0 
0.508497 -0.639623 0 
0.559063 -0.655324 0 
0.603436 -0.675715 0 
0.64769 -0.64769 0 
0.699048 -0.654824 0 
0.750552 -0.660811 0 
-0.789295 -0.614015 0 
-0.73348 -0.60813 0 
-0.675718 -0.603437 0 
-0.613088 -0.613088 0 
-0.55962 -0.604068 0 
-0.506189 -0.588854 0 
-0.455505 -0.618874 0 
-0.403019 -0.594688 0 
-0.352514 -0.618952 0 
-0.300977 -0.586897 0 
-0.250543 -0.608767 0 
-0.200257 -0.632053 0 
-0.150049 -0.601979 0 
-0.0998281 -0.628222 0 
-0.0500377 -0.599914 0 
-3.12334e-05 -0.628076 0 
0.0498927 -0.599835 0 
0.0997818 -0.628253 0 
0.149924 -0.601867 0 
0.200214 -0.632118 0 
0.250423 -0.608915 0 
0.30086 -0.587085 0 
0.352457 -0.619096 0 
0.402948 -0.594743 0 
0.455483 -0.618952 0 
0.506147 -0.588901 0 
0.55964 -0.604067 0 
0.613069 -0.613069 0 
0.675715 -0.603436 0 
0.733462 -0.608151 0 
0.789274 -0.614041 0 
-0.825268 -0.564741 0 
-0.769772 -0.561786 0 
-0.71337 -0.558104 0 
-0.655305 -0.55905 0 
-0.604068 -0.55962 0 
-0.551031 -0.551031 0 
-0.497922 -0.537596 0 
-0.451508 -0.567021 0 
-0.399773 -0.542431 0 
-0.350494 -0.567003 0 
-0.301574 -0.534146 0 
-0.250874 -0.555692 0 
-0.200542 -0.579013 0 
-0.150324 -0.548268 0 
-0.100169 -0.57443 0 
-0.0500152 -0.545912 0 
-3.29278e-05 -0.574268 0 
0.0499208 -0.545788 0 
0.100058 -0.574485 0 
0.150038 -0.548073 0 
0.200377 -0.579041 0 
0.250556 -0.55585 0 
0.301273 -0.534348 0 
0.350318 -0.567174 0 
0.399615 -0.542384 0 
0.451404 -0.5671 0 
0.497945 -0.537702 0 
0.551073 -0.551073 0 
0.604067 -0.55964 0 
0.655324 -0.559063 0 
0.713361 -0.558131 0 
0.769761 -0.561819 0 
0.825243 -0.564777 0 
-0.857917 -0.513788 0 
-0.802945 -0.512908 0 
-0.747856 -0.510673 0 
-0.692659 -0.509495 0 
-0.639581 -0.508501 0 
-0.588854 -0.506189 0 
-0.537596 -0.497922 0 
-0.486157 -0.486157 0 
-0.444928 -0.512952 0 
-0.401787 -0.486784 0 
-0.351685 -0.513639 0 
-0.299695 -0.48291 0 
-0.250032 -0.503 0 
-0.200501 -0.526165 0 
-0.149489 -0.495195 0 
-0.0999281 -0.521367 0 
-0.0499712 -0.492294 0 
4.64723e-05 -0.520999 0 
0.050147 -0.492108 0 
0.099934 -0.52133 0 
0.14957 -0.494692 0 
0.200133 -0.526255 0 
0.249839 -0.503309 0 
0.299839 -0.483005 0 
0.351514 -0.513798 0 
0.401881 -0.486608 0 
0.444935 -0.513054 0 
0.486228 -0.486228 0 
0.537702 -0.497945 0 
0.588901 -0.506147 0 
0.639623 -0.508497 0 
0.692668 -0.509524 0 
0.747859 -0.510716 0 
0.802929 -0.512965 0 
0.857885 -0.513842 0 
-0.887039 -0.461695 0 
-0.832348 -0.462372 0 
-0.778365 -0.460836 0 
-0.724356 -0.45935 0 
-0.671321 -0.457509 0 
-0.618874 -0.455505 0 
-0.567021 -0.451508 0 
-0.512952 -0.444928 0 
-0.450685 -0.450685 0 
-0.397667 -0.437543 0 
-0.348492 -0.462546 0 
-0.295416 -0.432968 0 
-0.247004 -0.450633 0 
-0.198702 -0.473818 0 
-0.150161 -0.441625 0 
-0.100085 -0.468395 0 
-0.0502271 -0.439281 0 
0.000144229 -0.468374 0 
0.0504178 -0.439106 0 
0.100428 -0.468348 0 
0.150697 -0.441105 0 
0.199103 -0.473881 0 
0.247983 -0.450921 0 
0.296569 -0.432268 0 
0.348831 -0.462562 0 
0.397506 -0.4368 0 
0.450637 -0.450637 0 
0.513054 -0.444935 0 
0.5671 -0.451404 0 
0.618952 -0.455483 0 
0.67138 -0.457525 0 
0.724407 -0.459374 0 
0.778382 -0.460863 0 
0.83234 -0.462414 0 
0.887011 -0.461748 0 
-0.912466 -0.409153 0 
-0.857936 -0.411157 0 
-0.804631 -0.410124 0 
-0.751554 -0.408794 0 
-0.698865 -0.407328 0 
-0.646545 -0.405555 0 
-0.594688 -0.403019 0 
-0.542431 -0.399773 0 
-0.486784 -0.401787 0 
-0.437543 -0.397667 0 
-0.387256 -0.387256 0 
-0.344215 -0.411459 0 
-0.30136 -0.381507 0 
-0.25021 -0.395692 0 
-0.200211 -0.419975 0 
-0.150955 -0.389014 0 
-0.100617 -0.416095 0 
-0.0503197 -0.386922 0 
-4.02994e-05 -0.416525 0 
0.05006 -0.386948 0 
0.100784 -0.416323 0 
0.150432 -0.388572 0 
0.200855 -0.420694 0 
0.25086 -0.396905 0 
0.301746 -0.379789 0 
0.344135 -0.410678 0 
0.385823 -0.385823 0 
0.4368 -0.397506 0 
0.486608 -0.401881 0 
0.542384 -0.399615 0 
0.594743 -0.402948 0 
0.646641 -0.405575 0 
0.698945 -0.407371 0 
0.751626 -0.408863 0 
0.804654 -0.410181 0 
0.857929 -0.411236 0 
0.912429 -0.409236 0 
-0.934288 -0.356519 0 
-0.879963 -0.359855 0 
-0.827415 -0.358606 0 
-0.774971 -0.357337 0 
-0.722823 -0.355968 0 
-0.670703 -0.354417 0 
-0.618952 -0.352514 0 
-0.567003 -0.350494 0 
-0.513639 -0.351685 0 
-0.462546 -0.348492 0 
-0.411459 -0.344215 0 
-0.351697 -0.351697 0 
-0.29839 -0.336232 0 
-0.249846 -0.342529 0 
-0.200971 -0.367271 0 
-0.149995 -0.337521 0 
-0.100435 -0.3646 0 
-0.0498692 -0.335025 0 
-6.88684e-05 -0.365025 0 
0.0495433 -0.334795 0 
0.0996798 -0.364834 0 
0.148162 -0.337172 0 
0.199644 -0.368939 0 
0.24763 -0.345582 0 
0.295348 -0.332889 0 
0.34978 -0.34978 0 
0.410678 -0.344135 0 
0.462562 -0.348831 0 
0.513798 -0.351514 0 
0.567174 -0.350318 0 
0.619096 -0.352457 0 
0.670836 -0.354397 0 
0.722893 -0.355952 0 
0.775038 -0.357323 0 
0.827419 -0.358581 0 
0.879943 -0.359894 0 
0.93426 -0.356593 0 
-0.952721 -0.303845 0 
-0.898929 -0.308871 0 
-0.847481 -0.306888 0 
-0.795641 -0.305781 0 
-0.743684 -0.304815 0 
-0.691387 -0.303722 0 
-0.639219 -0.302427 0 
-0.586897 -0.300977 0 
-0.534146 -0.301574 0 
-0.48291 -0.299695 0 
-0.432968 -0.295416 0 
-0.381507 -0.30136 0 
-0.336232 -0.29839 0 
-0.288184 -0.288184 0 
-0.242975 -0.290577 0 
-0.198059 -0.315051 0 
-0.148383 -0.285894 0 
-0.0994753 -0.313232 0 
-0.0507184 -0.283118 0 
-0.000202902 -0.313447 0 
0.0500077 -0.282824 0 
0.0988289 -0.312817 0 
0.148102 -0.28482 0 
0.195742 -0.317413 0 
0.240766 -0.295824 0 
0.285014 -0.285014 0 
0.332889 -0.295348 0 
0.379789 -0.301746 0 
0.432268 -0.296569 0 
0.483005 -0.299839 0 
0.534348 -0.301273 0 
0.587085 -0.30086 0 
0.639359 -0.302407 0 
0.691518 -0.303753 0 
0.743741 -0.304862 0 
0.795701 -0.305831 0 
0.847482 -0.306946 0 
0.898924 -0.308979 0 
0.952687 -0.303953 0 
-0.96803 -0.250833 0 
-0.916037 -0.258282 0 
-0.866979 -0.254732 0 
-0.816639 -0.25358 0 
-0.765535 -0.252907 0 
-0.71362 -0.252254 0 
-0.661417 -0.251503 0 
-0.608767 -0.250543 0 
-0.555692 -0.250874 0 
-0.503 -0.250032 0 
-0.450633 -0.247004 0 
-0.395692 -0.25021 0 
-0.342529 -0.249846 0 
-0.290577 -0.242975 0 
-0.239946 -0.239946 0 
-0.194478 -0.26004 0 
-0.151293 -0.23238 0 
-0.101048 -0.260904 0 
-0.0503938 -0.232537 0 
-0.000203281 -0.262984 0 
0.050638 -0.232316 0 
0.100942 -0.260855 0 
0.152412 -0.232597 0 
0.195768 -0.261421 0 
0.241873 -0.241873 0 
0.295824 -0.240766 0 
0.345582 -0.24763 0 
0.396905 -0.25086 0 
0.450921 -0.247983 0 
[...]
POINT_DATA 1245 
VECTORS vectors float
0.274584 -0.128621 0.952922 
0.260065 -0.11943 0.958177 
0.254239 -0.0981639 0.962147 
0.259332 -0.0714335 0.963143 
0.269293 -0.0556938 0.961447 
0.285913 -0.0492256 0.95699 
0.288982 -0.0558075 0.955706 
0.276216 -0.0751505 0.958153 
0.249976 -0.0756751 0.96529 
0.207272 -0.0728015 0.975571 
0.176661 -0.0377722 0.983547 
0.147318 0.0269028 0.988723 
0.143562 0.0796578 0.98643 
0.258389 -0.139245 0.955953 
0.267222 -0.140409 0.953351 
0.21276 -0.113469 0.970494 
0.21227 -0.106062 0.971438 
0.213215 -0.0966852 0.97221 
0.201842 -0.07609 0.976458 
0.21749 -0.061772 0.974106 
0.210463 -0.0546177 0.976075 
0.225955 -0.0547808 0.972596 
0.199382 -0.0582892 0.978187 
0.191739 -0.0572448 0.979775 
0.157041 -0.0379673 0.986862 
0.14521 -0.00778601 0.98937 
0.129457 0.0340023 0.991002 
0.133746 0.0709131 0.988475 
0.168062 0.131341 0.976988 
0.19946 0.164205 0.96605 
0.238558 -0.180532 0.9542 
0.244716 -0.161441 0.95606 
0.20277 -0.128654 0.970738 
0.207071 -0.119925 0.970948 
0.163367 -0.0967941 0.981805 
0.164031 -0.0921762 0.982139 
0.168749 -0.0856221 0.981933 
0.148007 -0.0671015 0.986707 
0.170673 -0.0593286 0.98354 
0.15273 -0.0534387 0.986822 
0.172486 -0.0538273 0.98354 
0.144035 -0.0503735 0.98829 
0.150511 -0.0462861 0.987524 
0.117796 -0.0269522 0.992672 
0.11805 -0.0054627 0.992993 
0.106574 0.0250332 0.99399 
0.109861 0.0520277 0.992584 
0.148317 0.101941 0.983672 
0.16404 0.120079 0.979118 
0.229318 0.173531 0.957758 
0.255928 0.166633 0.952226 
0.245081 -0.190537 0.950595 
0.198675 -0.155319 0.96768 
0.199423 -0.143743 0.969313 
0.161455 -0.113563 0.980324 
0.160846 -0.104266 0.981457 
0.128291 -0.0821273 0.98833 
0.127485 -0.0762701 0.988904 
0.127226 -0.0722428 0.989239 
0.105957 -0.0563286 0.992774 
0.125334 -0.0532431 0.990685 
0.106192 -0.0475869 0.993206 
0.123414 -0.0492615 0.991132 
0.0956893 -0.0397401 0.994618 
0.108768 -0.0362096 0.993407 
0.0823497 -0.0177717 0.996445 
0.0884187 -0.00366199 0.996077 
0.0791781 0.0170898 0.996714 
0.0819671 0.036188 0.995978 
0.11735 0.0723013 0.990455 
0.12607 0.0837683 0.988478 
0.182279 0.126638 0.975057 
0.193022 0.121312 0.973666 
0.251662 0.143684 0.95709 
0.224734 -0.193394 0.955036 
0.241927 -0.19594 0.950305 
0.197394 -0.16395 0.966518 
0.15864 -0.133029 0.978334 
0.1615 -0.123159 0.979158 
0.128095 -0.0971713 0.98699 
0.128211 -0.0906394 0.987596 
0.0989696 -0.0686219 0.992722 
0.0988091 -0.0628608 0.993119 
0.0968802 -0.059973 0.993488 
0.0770646 -0.0499177 0.995776 
0.0883075 -0.0473631 0.994967 
0.0682246 -0.0402175 0.996859 
0.0787434 -0.0394316 0.996115 
0.0547576 -0.0285242 0.998092 
0.07031 -0.0246145 0.997221 
0.0539195 -0.0108476 0.998486 
0.0633819 2.69387e-05 0.997989 
0.0568837 0.0145851 0.998274 
0.0595675 0.026774 0.997865 
0.0886771 0.04909 0.99485 
0.0965015 0.0579955 0.993642 
0.137702 0.0901868 0.986359 
0.141516 0.0860267 0.986191 
0.187286 0.102434 0.97695 
0.239938 0.11273 0.964221 
0.201825 0.107318 0.973524 
0.193307 -0.208665 0.958693 
0.175648 -0.174796 0.968811 
0.188018 -0.167585 0.967763 
0.152792 -0.140555 0.978212 
0.120957 -0.112469 0.986266 
0.124987 -0.103044 0.986793 
0.0948861 -0.0814639 0.992149 
0.0976824 -0.0770567 0.99223 
0.0675148 -0.0556443 0.996165 
0.0701187 -0.0522138 0.996171 
0.0726989 -0.0520912 0.995993 
0.0547844 -0.0446288 0.9975 
0.0604663 -0.0419942 0.997286 
0.0411249 -0.0340621 0.998573 
0.0450535 -0.0313698 0.998492 
0.0289435 -0.0254331 0.999257 
0.0391911 -0.0201918 0.999028 
0.0297833 -0.0143721 0.999453 
0.0429457 0.0004451 0.999077 
0.0386031 0.0102625 0.999202 
0.0403004 0.0182425 0.999021 
0.0669477 0.0348192 0.997149 
0.0712598 0.0413592 0.9966 
0.101433 0.0643479 0.992759 
0.0967769 0.0632506 0.993294 
0.129392 0.0767312 0.98862 
0.166779 0.0919416 0.981698 
0.13919 0.102 0.984999 
0.144697 0.122932 0.98181 
0.16969 -0.24254 0.955186 
0.156449 -0.193544 0.968537 
0.138955 -0.155977 0.977938 
0.143254 -0.143644 0.979206 
0.117788 -0.118378 0.985958 
0.0920744 -0.0935727 0.991346 
0.0908527 -0.0860496 0.99214 
0.0665933 -0.0683287 0.995438 
0.0679812 -0.0632675 0.995679 
0.0418875 -0.0453705 0.998092 
0.0430072 -0.0441215 0.9981 
0.0492048 -0.0461958 0.99772 
0.0336238 -0.0383599 0.998698 
0.0372951 -0.0353546 0.998679 
0.02088 -0.030549 0.999315 
0.0259249 -0.0291143 0.99924 
0.0168912 -0.0254772 0.999533 
0.0194837 -0.0228591 0.999549 
0.014833 -0.0213072 0.999663 
0.0249535 -0.00810004 0.999656 
0.0222592 -0.00026404 0.999752 
0.0212462 0.00618232 0.999755 
0.0448417 0.023062 0.998728 
0.0456932 0.028254 0.998556 
0.0687677 0.0469804 0.996526 
0.0635085 0.0480551 0.996824 
0.0847023 0.0632506 0.994397 
0.108963 0.0805694 0.990775 
0.0984466 0.0946473 0.990631 
0.107021 0.120234 0.98696 
0.109465 0.159415 0.981124 
0.17059 -0.275554 0.946028 
0.147371 -0.210955 0.966323 
0.126692 -0.163664 0.978347 
0.113511 -0.12816 0.985236 
0.0950797 -0.101159 0.990317 
0.0726427 -0.076733 0.994402 
0.0669682 -0.0714835 0.995191 
0.0492123 -0.056455 0.997192 
0.0461636 -0.0521156 0.997574 
0.0249962 -0.0396586 0.998901 
0.0237484 -0.039481 0.998938 
0.0289779 -0.0411583 0.998732 
0.0142437 -0.0332506 0.999346 
0.0158357 -0.0302129 0.999418 
0.00286837 -0.0290282 0.999574 
0.0125169 -0.0287024 0.99951 
0.00696341 -0.0229782 0.999712 
0.0109515 -0.0225094 0.999687 
0.00776258 -0.0219284 0.999729 
0.0131361 -0.0169581 0.99977 
0.00896355 -0.00907434 0.999919 
0.00651384 -0.00395422 0.999971 
0.0237226 0.0104508 0.999664 
0.0252705 0.0161149 0.999551 
0.0429956 0.0327695 0.998538 
0.0419074 0.0334472 0.998561 
0.0597351 0.0517156 0.996874 
0.0747059 0.0745991 0.994411 
0.0780373 0.100336 0.991889 
0.0854871 0.142066 0.986159 
0.0948061 0.210321 0.973025 
0.195073 -0.293056 0.935983 
0.153778 -0.226772 0.961731 
0.125265 -0.175777 0.976428 
0.104916 -0.139284 0.984679 
0.0905566 -0.110745 0.989715 
0.0731484 -0.0831604 0.993848 
0.0553287 -0.0623736 0.996518 
0.0519301 -0.0579427 0.996968 
0.0348955 -0.0456814 0.998346 
0.0310243 -0.043722 0.998562 
0.0124434 -0.0347981 0.999317 
0.0106884 -0.0345054 0.999347 
0.0128591 -0.0359227 0.999272 
-0.00101118 -0.0275696 0.999619 
-0.00161597 -0.0274075 0.999623 
-0.00818764 -0.0268419 0.999606 
-0.00115699 -0.0266988 0.999643 
-0.00612521 -0.0211994 0.999757 
0.00201988 -0.0201059 0.999796 
-0.00419649 -0.0207753 0.999775 
0.00281445 -0.0177354 0.999839 
-0.00409753 -0.0107493 0.999934 
-0.00399744 -0.00993312 0.999943 
0.00921921 -0.000623974 0.999957 
0.011374 0.00551926 0.99992 
0.0249959 0.019814 0.999491 
0.0222114 0.019522 0.999563 
0.0343721 0.0359633 0.998762 
0.0472634 0.0597022 0.997097 
0.0547332 0.0817538 0.995149 
0.0622058 0.113397 0.991601 
0.0757813 0.166027 0.983205 
0.10187 0.228834 0.968121 
0.205344 -0.272291 0.940049 
0.161 -0.226436 0.960628 
0.126946 -0.179529 0.975528 
0.101545 -0.14292 0.984511 
0.0824356 -0.114751 0.989968 
0.0673288 -0.0892917 0.993727 
0.0528577 -0.0673317 0.99633 
0.0378758 -0.0517385 0.997942 
0.0360633 -0.0471304 0.998238 
0.0192748 -0.0374524 0.999113 
0.017056 -0.0364984 0.999188 
0.005266 -0.0274791 0.999609 
0.00249344 -0.0259863 0.999659 
0.000883791 -0.0270458 0.999634 
-0.00894758 -0.0214584 0.99973 
-0.00996216 -0.0244844 0.999651 
-0.0103004 -0.0243724 0.99965 
-0.00993627 -0.023904 0.999665 
-0.0150894 -0.0217246 0.99965 
-0.0111425 -0.0215057 0.999707 
-0.0161149 -0.0217157 0.999634 
-0.0117154 -0.0157117 0.999808 
-0.0146548 -0.0115415 0.999826 
-0.00999599 -0.0148465 0.99984 
3.36252e-06 -0.0091243 0.999958 
-0.000108292 -0.00361337 0.999993 
0.00965025 0.00853625 0.999917 
0.00670532 0.00956422 0.999932 
0.0120876 0.0228195 0.999667 
0.0204084 0.0441542 0.998816 
0.0314556 0.0661527 0.997314 
0.0436087 0.0901882 0.99497 
0.0569139 0.127648 0.990185 
0.0763031 0.17729 0.981196 
0.105611 0.228697 0.967752 
0.206394 -0.24371 0.947632 
0.160704 -0.212331 0.963893 
0.125099 -0.176018 0.976406 
0.097284 -0.139726 0.9854 
0.0757463 -0.110383 0.990998 
0.05943 -0.0868626 0.994446 
0.0467119 -0.066533 0.99669 
0.0341828 -0.0505275 0.998138 
0.020731 -0.0399451 0.998987 
0.00908929 -0.0307394 0.999486 
0.00729879 -0.0293965 0.999541 
0.00254171 -0.0211645 0.999773 
0.000367006 -0.01895 0.99982 
-0.00457034 -0.0191844 0.999806 
-0.0109294 -0.0206583 0.999727 
-0.0117298 -0.0228512 0.99967 
-0.0123042 -0.0243303 0.999628 
-0.0129283 -0.0229237 0.999654 
-0.016919 -0.0234998 0.999581 
-0.0173488 -0.0236473 0.99957 
-0.0151366 -0.0226218 0.999629 
-0.017883 -0.0165393 0.999703 
-0.0146877 -0.0150158 0.999779 
-0.0106967 -0.0185799 0.99977 
-0.00739216 -0.0156887 0.99985 
-0.0078656 -0.0105949 0.999913 
-0.00161722 -0.00053846 0.999999 
0.00291283 0.0104028 0.999942 
0.00681137 0.0270012 0.999612 
0.0155456 0.0477319 0.998739 
0.0289811 0.0701197 0.997118 
0.0427747 0.0991481 0.994153 
0.0560685 0.137903 0.988857 
0.0731947 0.180832 0.980787 
0.0986914 0.22431 0.969508 
0.172652 -0.218738 0.960388 
0.146138 -0.196342 0.969584 
0.116506 -0.168534 0.978786 
0.0911764 -0.135795 0.986533 
0.07093 -0.104603 0.991981 
0.0540942 -0.0810034 0.995245 
0.040773 -0.0626458 0.997203 
0.0297479 -0.0471279 0.998446 
0.019266 -0.0367271 0.99914 
0.00970168 -0.0294907 0.999518 
0.00314544 -0.0230218 0.99973 
0.00310851 -0.0226932 0.999738 
-0.00357404 -0.017534 0.99984 
-0.00346637 -0.020174 0.99979 
-0.00585932 -0.01964 0.99979 
-0.011845 -0.0232704 0.999659 
-0.0137966 -0.0234545 0.99963 
-0.0160685 -0.0254038 0.999548 
-0.0155762 -0.0251675 0.999562 
-0.0162567 -0.027221 0.999497 
-0.0153611 -0.024691 0.999577 
-0.012563 -0.0243259 0.999625 
-0.0127189 -0.0194921 0.999729 
-0.00929213 -0.0223629 0.999707 
-0.0112154 -0.0215301 0.999705 
-0.0104515 -0.0185123 0.999774 
-0.0110594 -0.0140723 0.99984 
-0.00712199 -0.00639448 0.999954 
-0.00170598 0.00176619 0.999997 
0.00319528 0.0121633 0.999921 
0.00708553 0.0276877 0.999592 
0.013398 0.0493175 0.998693 
0.023479 0.0759398 0.996836 
0.034895 0.107056 0.99364 
0.0450146 0.141722 0.988883 
0.0560426 0.178666 0.982312 
0.0661652 0.21333 0.974737 
0.121651 -0.21551 0.968894 
0.117175 -0.184935 0.97574 
0.0998306 -0.158748 0.982259 
0.081849 -0.130889 0.988013 
0.0657251 -0.0995857 0.992856 
0.0507916 -0.0741523 0.995953 
0.0361893 -0.0566462 0.997738 
0.0241704 -0.0425267 0.998803 
0.0148295 -0.0322248 0.999371 
0.0064352 -0.0258808 0.999644 
0.000852815 -0.0203932 0.999792 
-0.00405027 -0.0157489 0.999868 
-0.0102595 -0.0169072 0.999804 
-0.0112688 -0.0213028 0.99971 
-0.00904376 -0.0246187 0.999656 
-0.0125824 -0.022804 0.999661 
-0.014953 -0.0225645 0.999634 
-0.0145044 -0.0239297 0.999608 
-0.0163302 -0.0285139 0.99946 
-0.0138979 -0.0311747 0.999417 
-0.0144757 -0.0275917 0.999514 
-0.0144215 -0.0280407 0.999503 
-0.0102454 -0.0264875 0.999597 
-0.0119376 -0.0271645 0.99956 
-0.0109621 -0.0288236 0.999524 
-0.0120857 -0.0196135 0.999735 
-0.0101652 -0.0126657 0.999868 
-0.00773912 -0.00395924 0.999962 
-0.00269886 0.00293747 0.999992 
0.00113016 0.0121911 0.999925 
0.00127698 0.0306216 0.99953 
0.00300797 0.0563422 0.998407 
0.0114086 0.0837232 0.996424 
0.0221014 0.112032 0.993459 
0.029083 0.144695 0.989049 
0.0335531 0.185143 0.982139 
0.0307551 0.23571 0.971337 
0.0925334 -0.238418 0.966744 
0.0889252 -0.186287 0.978463 
0.0793224 -0.152735 0.985079 
0.0673906 -0.126238 0.989708 
0.0560253 -0.0978734 0.993621 
0.0443081 -0.0707626 0.996509 
0.0327638 -0.0519506 0.998112 
0.0223529 -0.0389621 0.998991 
0.0134928 -0.0302598 0.999451 
0.00532413 -0.0254085 0.999663 
-0.000445758 -0.0201781 0.999796 
-0.00489608 -0.0131033 0.999902 
-0.00741538 -0.0113314 0.999908 
-0.011731 -0.0136036 0.999839 
-0.0121454 -0.0234205 0.999652 
-0.0128989 -0.0245182 0.999616 
-0.0135932 -0.0195772 0.999716 
-0.0128971 -0.0189481 0.999737 
-0.00998287 -0.0203691 0.999743 
-0.0125376 -0.028251 0.999522 
-0.0114355 -0.031592 0.999435 
-0.0141341 -0.0310351 0.999418 
-0.0123302 -0.0291069 0.9995 
-0.0130512 -0.0291016 0.999491 
-0.00875379 -0.0342451 0.999375 
-0.0145161 -0.0285323 0.999487 
-0.0121732 -0.0295099 0.99949 
-0.0122376 -0.0211848 0.999701 
-0.0112324 -0.0134398 0.999847 
-0.00927426 -0.00498072 0.999945 
-0.00507061 0.00144104 0.999986 
-0.00256871 0.0137394 0.999902 
-0.00354571 0.0361082 0.999342 
-0.00111205 0.062044 0.998073 
0.00777269 0.0882082 0.996072 
0.0154537 0.117637 0.992936 
0.0175444 0.156148 0.987578 
0.0167066 0.205107 0.978597 
0.00934826 0.267908 0.963399 
0.0715218 -0.248081 0.966095 
0.0679158 -0.195539 0.978342 
0.0591601 -0.154449 0.986228 
0.0524588 -0.124576 0.990822 
0.0432834 -0.0985751 0.994188 
0.0347272 -0.0735065 0.99669 
0.0270261 -0.0532963 0.998213 
0.0205396 -0.0388955 0.999032 
0.0147582 -0.0292409 0.999463 
0.00806249 -0.0238303 0.999684 
0.00220645 -0.0188 0.999821 
-0.000168515 -0.012163 0.999926 
-0.00327582 -0.00837894 0.99996 
-0.00494746 -0.0149404 0.999876 
-0.0101639 -0.0184343 0.999778 
-0.0138336 -0.0214156 0.999675 
-0.0136762 -0.0195315 0.999716 
-0.0107284 -0.0178249 0.999784 
-0.00845163 -0.0202013 0.99976 
-0.0101099 -0.0245787 0.999647 
-0.0115304 -0.0310673 0.999451 
-0.0115977 -0.0325983 0.999401 
-0.0075348 -0.0281479 0.999575 
-0.00751499 -0.028067 0.999578 
-0.00714712 -0.0290955 0.999551 
-0.00989246 -0.0337816 0.99938 
-0.0143968 -0.0286683 0.999485 
-0.0109966 -0.0251918 0.999622 
-0.00884766 -0.0147654 0.999852 
-0.00729932 -0.00760552 0.999944 
-0.00549539 -0.00023044 0.999985 
-0.00434806 0.015872 0.999865 
-0.0025555 0.0392866 0.999225 
0.00178543 0.0649135 0.997889 
0.006917 0.0940978 0.995539 
0.00978379 0.129996 0.991466 
0.00980839 0.173868 0.98472 
0.00818246 0.228949 0.973404 
0.000961154 0.301028 0.953615 
0.0658704 -0.261948 0.962831 
0.0550067 -0.210116 0.976128 
0.0468547 -0.165324 0.985126 
0.0397032 -0.12661 0.991158 
0.0337263 -0.0979159 0.994623 
0.0274238 -0.0752968 0.996784 
0.0213385 -0.055922 0.998207 
0.0147953 -0.0404272 0.999073 
0.00929747 -0.0286882 0.999545 
0.00571812 -0.0203757 0.999776 
0.00366675 -0.0147006 0.999885 
0.0026943 -0.0104964 0.999941 
0.0011274 -0.00887688 0.99996 
-0.00269699 -0.0108947 0.999937 
-0.00620073 -0.015575 0.999859 
-0.0100954 -0.0185121 0.999778 
-0.00791616 -0.0209455 0.999749 
-0.00809483 -0.0221001 0.999723 
-0.00463248 -0.0243735 0.999692 
-0.00962217 -0.023793 0.999671 
-0.00737593 -0.0328435 0.999433 
-0.00895626 -0.0341074 0.999378 
-0.0055383 -0.0288132 0.999569 
-0.00475161 -0.0276415 0.999607 
-0.00642477 -0.0302483 0.999522 
-0.0088903 -0.0298478 0.999515 
-0.00746289 -0.0293234 0.999542 
-0.00501194 -0.0215294 0.999756 
-0.00262877 -0.0132531 0.999909 
-0.00485928 -0.00772535 0.999958 
-0.00722273 0.00145356 0.999973 
-0.00530489 0.0202089 0.999782 
-0.00122682 0.0449582 0.998988 
0.000936749 0.0741726 0.997245 
0.00223762 0.107758 0.994175 
0.005715 0.146481 0.989197 
0.0107102 0.19551 0.980643 
0.0126082 0.253029 0.967376 
0.0207998 0.323996 0.94583 
0.0669991 -0.249205 0.96613 
0.0441875 -0.194745 0.979858 
0.0306704 -0.142264 0.989354 
0.0241379 -0.103911 0.994294 
0.0191049 -0.0788443 0.996704 
0.0165111 -0.0581515 0.998171 
0.0109664 -0.0399257 0.999142 
0.00303353 -0.0270043 0.999631 
-0.000796532 -0.0178414 0.999841 
0.000325352 -0.0112552 0.999937 
0.00248158 -0.00811854 0.999964 
0.000951475 -0.00781041 0.999969 
-0.00342093 -0.0099421 0.999945 
-0.00612263 -0.0129788 0.999897 
-0.00521944 -0.0151468 0.999872 
-0.00319217 -0.0176862 0.999838 
0.000308436 -0.0227524 0.999741 
-0.00152855 -0.0260288 0.99966 
-0.000457054 -0.0292958 0.999571 
-0.00713161 -0.0304791 0.99951 
0.000284817 -0.0385383 0.999257 
-0.0037511 -0.035783 0.999353 
-0.000888039 -0.031384 0.999507 
-0.00385941 -0.0285941 0.999584 
-0.00387393 -0.0307879 0.999518 
-0.000550604 -0.0322392 0.99948 
0.000784163 -0.0307624 0.999526 
-0.00051351 -0.0270937 0.999633 
-0.000327361 -0.0191932 0.999816 
-0.00125677 -0.0103108 0.999946 
-0.00491908 -0.0034659 0.999982 
-0.00604193 0.00929879 0.999939 
-0.000989817 0.030329 0.999539 
0.00282427 0.0579837 0.998314 
0.00204308 0.0900262 0.995937 
0.00373503 0.12638 0.991975 
0.0101329 0.174805 0.984551 
0.0203821 0.243283 0.969741 
0.0449258 0.326679 0.944067 
0.0370129 -0.22965 0.972569 
0.0310954 -0.196928 0.979925 
0.0218573 -0.155794 0.987548 
0.0147518 -0.116865 0.993038 
0.00923985 -0.0899356 0.995905 
0.00774443 -0.0672958 0.997703 
0.00727703 -0.0435578 0.999024 
0.00308368 -0.0261453 0.999653 
-0.00154898 -0.0164404 0.999864 
-0.00221498 -0.0104659 0.999943 
-0.000933596 -0.00803352 0.999967 
-0.000879061 -0.00769352 0.99997 
-0.00308961 -0.0075525 0.999967 
-0.00513616 -0.00934533 0.999943 
-0.00401284 -0.0138341 0.999896 
-0.000926767 -0.017615 0.999844 
0.0020401 -0.0197536 0.999803 
0.00374199 -0.0236926 0.999712 
0.00214487 -0.0298965 0.999551 
0.00903394 -0.029829 0.999514 
0.00568348 -0.0385606 0.99924 
0.0065224 -0.0352523 0.999357 
0.0045312 -0.0311805 0.999503 
0.00238174 -0.0322757 0.999476 
0.00457057 -0.0338253 0.999417 
0.00741988 -0.0330042 0.999428 
0.00422496 -0.0312335 0.999503 
-0.00146151 -0.0256664 0.999669 
-0.00258493 -0.0159643 0.999869 
-0.00144985 -0.00606142 0.999981 
-0.0013123 0.00501386 0.999987 
0.00242627 0.0204397 0.999788 
0.00806331 0.0425361 0.999062 
0.00874189 0.0722236 0.99735 
0.0065553 0.104932 0.994458 
0.00777232 0.144266 0.989508 
0.0134042 0.196994 0.980313 
0.023463 0.251845 0.967483 
0.0401573 0.297091 0.954004 
0.00719985 -0.228399 0.973541 
0.00649134 -0.182958 0.983099 
0.005449 -0.138532 0.990343 
0.00369858 -0.105272 0.994437 
-5.92909e-06 -0.0805691 0.996749 
0.000205219 -0.0540118 0.99854 
0.00144863 -0.0311103 0.999515 
0.000757441 -0.0173469 0.999849 
-0.00065688 -0.0092423 0.999957 
-0.00276769 -0.00722929 0.99997 
-0.0040621 -0.00934929 0.999948 
-0.00283758 -0.00849141 0.99996 
-0.000914944 -0.00670351 0.999977 
-0.00030896 -0.0108918 0.999941 
2.16951e-05 -0.0177513 0.999842 
0.00245387 -0.0205618 0.999786 
0.0024671 -0.0222067 0.99975 
0.00278164 -0.0256 0.999668 
0.0362263 -0.0104428 0.999289 
-0.0149716 -0.0450478 0.998873 
0.0380706 -0.0117689 0.999206 
0.00828087 -0.0358061 0.999324 
0.00946274 -0.0357831 0.999315 
0.0092536 -0.0350618 0.999342 
0.00568117 -0.0351473 0.999366 
0.00693784 -0.0338138 0.999404 
0.00755071 -0.0316545 0.99947 
0.00322971 -0.0281009 0.9996 
-0.000503542 -0.021782 0.999763 
0.000793731 -0.0130682 0.999914 
0.00232262 -0.00189866 0.999996 
0.00318892 0.0116558 0.999927 
0.00623799 0.0285617 0.999573 
0.00787022 0.0547421 0.99847 
0.00669851 0.0886108 0.996044 
0.00655264 0.124267 0.992227 
0.00855624 0.170312 0.985353 
0.0194087 0.228031 0.973461 
0.045174 0.28392 0.957783 
-0.0259359 -0.220687 0.975 
-0.0203614 -0.191781 0.981226 
-0.0119645 -0.156378 0.987625 
-0.00658078 -0.120036 0.992748 
-0.0068363 -0.0911946 0.99581 
-0.00723574 -0.0650121 0.997858 
-0.00453206 -0.0412225 0.99914 
-0.00145031 -0.0248622 0.99969 
0.000182778 -0.0129719 0.999916 
-0.000192636 -0.00625447 0.99998 
-0.00168189 -0.00837666 0.999964 
-0.000704785 -0.0115554 0.999933 
0.00315672 -0.0091099 0.999954 
0.00545075 -0.00732088 0.999958 
0.00483571 -0.0118049 0.999919 
0.00542501 -0.017905 0.999825 
0.00544057 -0.0230986 0.999718 
0.0154608 -0.0198894 0.999683 
-0.0127163 -0.0391972 0.999151 
-0.040863 -0.0547628 0.997663 
-0.00969287 -0.0411555 0.999106 
0.0201852 -0.0311993 0.999309 
0.0101994 -0.0393794 0.999172 
0.00851505 -0.0365067 0.999297 
0.00583578 -0.0346669 0.999382 
0.00767048 -0.032062 0.999456 
0.00951039 -0.0271339 0.999587 
0.00864862 -0.021439 0.999733 
0.00749716 -0.0166588 0.999833 
0.00562805 -0.00916825 0.999942 
0.00237173 0.00336861 0.999992 
0.000576538 0.0185018 0.999829 
-0.0004537 0.0400838 0.999196 
-0.00156101 0.0723689 0.997377 
0.000138515 0.107145 0.994243 
0.00243538 0.142868 0.989739 
0.0034339 0.187198 0.982316 
0.00701408 0.231067 0.972913 
0.0142338 0.266161 0.963824 
-0.0634156 -0.236568 0.969543 
-0.0406757 -0.190433 0.980857 
-0.0262173 -0.142666 0.989424 
-0.020515 -0.104581 0.994305 
-0.0182275 -0.0760955 0.996934 
-0.0131749 -0.051802 0.99857 
-0.00693685 -0.0338297 0.999404 