# vtk DataFile Version 3.0 
Exported using Morpho https://github.com/Morpho-lang/morpho 
ASCII 
DATASET UNSTRUCTURED_GRID 

POINTS 1245 float 
-0.303845 -0.952721 0 
-0.250833 -0.96803 0 
-0.195084 -0.980787 0 
-0.146308 -0.989239 0 
-0.0940719 -0.995565 0 
-0.0475118 -0.998871 0 
-0.000246339 -1 0 
0.0470875 -0.998891 0 
0.0937543 -0.995595 0 
0.146139 -0.989264 0 
0.195062 -0.980791 0 
0.250843 -0.968028 0 
0.303953 -0.952687 0 
-0.409153 -0.912466 0 
-0.356519 -0.934288 0 
-0.308871 -0.898929 0 
-0.258282 -0.916037 0 
-0.207345 -0.934859 0 
-0.154868 -0.930629 0 
-0.104343 -0.948989 0 
-0.0520099 -0.939193 0 
-8.5762e-05 -0.954582 0 
0.0518744 -0.939288 0 
0.104354 -0.949042 0 
0.154696 -0.9306 0 
0.207366 -0.934975 0 
0.258274 -0.916081 0 
0.308979 -0.898924 0 
0.356593 -0.93426 0 
0.409236 -0.912429 0 
-0.513788 -0.857917 0 
-0.461695 -0.887039 0 
-0.411157 -0.857936 0 
-0.359855 -0.879963 0 
-0.306888 -0.847481 0 
-0.254732 -0.866979 0 
-0.201991 -0.889059 0 
-0.149956 -0.874108 0 
-0.100608 -0.900088 0 
-0.0497575 -0.880388 0 
2.4595e-05 -0.904789 0 
0.0496869 -0.8804 0 
0.100612 -0.900177 0 
0.149872 -0.874171 0 
0.202071 -0.889165 0 
0.254695 -0.867031 0 
0.306946 -0.847482 0 
0.359894 -0.879943 0 
0.411236 -0.857929 0 
0.461748 -0.887011 0 
0.513842 -0.857885 0 
-0.564741 -0.825268 0 
-0.512908 -0.802945 0 
-0.462372 -0.832348 0 
-0.410124 -0.804631 0 
-0.358606 -0.827415 0 
-0.305781 -0.795641 0 
-0.25358 -0.816639 0 
-0.200756 -0.839997 0 
-0.149043 -0.818944 0 
-0.0987265 -0.846667 0 
-0.0490473 -0.822548 0 
5.00659e-05 -0.849932 0 
0.0490834 -0.822542 0 
0.0987838 -0.846676 0 
0.148997 -0.818924 0 
0.200826 -0.840131 0 
0.253508 -0.816728 0 
0.305831 -0.795701 0 
0.358581 -0.827419 0 
0.410181 -0.804654 0 
0.462414 -0.83234 0 
0.512965 -0.802929 0 
0.564777 -0.825243 0 
-0.660798 -0.750564 0 
-0.614015 -0.789295 0 
-0.561786 -0.769772 0 
-0.510673 -0.747856 0 
-0.460836 -0.778365 0 
-0.408794 -0.751554 0 
-0.357337 -0.774971 0 
-0.304815 -0.743684 0 
-0.252907 -0.765535 0 
-0.200631 -0.789263 0 
-0.149244 -0.764328 0 
-0.0986912 -0.791935 0 
-0.0492815 -0.765764 0 
4.16586e-05 -0.79382 0 
0.0492411 -0.765708 0 
0.0987508 -0.791951 0 
0.149196 -0.764326 0 
0.200666 -0.789356 0 
0.252841 -0.765599 0 
0.304862 -0.743741 0 
0.357323 -0.775038 0 
0.408863 -0.751626 0 
0.460863 -0.778382 0 
0.510716 -0.747859 0 
0.561819 -0.769761 0 
0.614041 -0.789274 0 
0.660811 -0.750552 0 
-0.707107 -0.707107 0 
-0.654819 -0.699058 0 
-0.60813 -0.73348 0 
-0.558104 -0.71337 0 
-0.509495 -0.692659 0 
-0.45935 -0.724356 0 
-0.407328 -0.698865 0 
-0.355968 -0.722823 0 
-0.303722 -0.691387 0 
-0.252254 -0.71362 0 
-0.20067 -0.737336 0 
-0.149608 -0.710068 0 
-0.0991558 -0.737129 0 
-0.0495872 -0.709825 0 
-2.23646e-05 -0.737917 0 
0.0494408 -0.709766 0 
0.0991291 -0.737116 0 
0.149502 -0.710042 0 
0.200696 -0.73743 0 
0.252186 -0.713735 0 
0.303753 -0.691518 0 
0.355952 -0.722893 0 
0.407371 -0.698945 0 
0.459374 -0.724407 0 
0.509524 -0.692668 0 
0.558131 -0.713361 0 
0.608151 -0.733462 0 
0.654824 -0.699048 0 
0.707107 -0.707107 0 
-0.750564 -0.660798 0 
-0.699058 -0.654819 0 
-0.647692 -0.647692 0 
-0.603437 -0.675718 0 
-0.55905 -0.655305 0 
-0.508501 -0.639581 0 
-0.457509 -0.671321 0 
-0.405555 -0.646545 0 
-0.354417 -0.670703 0 
-0.302427 -0.639219 0 
-0.251503 -0.661417 0 
-0.20061 -0.684911 0 
-0.149717 -0.655943 0 
-0.0995004 -0.682466 0 
-0.0498216 -0.654561 0 
-5.02113e-05 -0.682664 0 
0.0496787 -0.654499 0 
0.0994374 -0.682501 0 
0.149603 -0.655909 0 
0.200573 -0.684972 0 
0.251388 -0.661524 0 
0.302407 -0.639359 0 
0.354397 -0.670836 0 
0.405575 -0.646641 0 
0.457525 -0.67138 0 
0.508497 -0.639623 0 
0.559063 -0.655324 0 
0.603436 -0.675715 0 
0.64769 -0.64769 0 
0.699048 -0.654824 0 
0.750552 -0.660811 0 
-0.789295 -0.614015 0 
-0.73348 -0.60813 0 
-0.675718 -0.603437 0 
-0.613088 -0.613088 0 
-0.55962 -0.604068 0 
-0.506189 -0.588854 0 
-0.455505 -0.618874 0 
-0.403019 -0.594688 0 
-0.352514 -0.618952 0 
-0.300977 -0.586897 0 
-0.250543 -0.608767 0 
-0.200257 -0.632053 0 
-0.150049 -0.601979 0 
-0.0998281 -0.628222 0 
-0.0500377 -0.599914 0 
-3.12334e-05 -0.628076 0 
0.0498927 -0.599835 0 
0.0997818 -0.628253 0 
0.149924 -0.601867 0 
0.200214 -0.632118 0 
0.250423 -0.608915 0 
0.30086 -0.587085 0 
0.352457 -0.619096 0 
0.402948 -0.594743 0 
0.455483 -0.618952 0 
0.506147 -0.588901 0 
0.55964 -0.604067 0 
0.613069 -0.613069 0 
0.675715 -0.603436 0 
0.733462 -0.608151 0 
0.789274 -0.614041 0 
-0.825268 -0.564741 0 
-0.769772 -0.561786 0 
-0.71337 -0.558104 0 
-0.655305 -0.55905 0 
-0.604068 -0.55962 0 
-0.551031 -0.551031 0 
-0.497922 -0.537596 0 
-0.451508 -0.567021 0 
-0.399773 -0.542431 0 
-0.350494 -0.567003 0 
-0.301574 -0.534146 0 
-0.250874 -0.555692 0 
-0.200542 -0.579013 0 
-0.150324 -0.548268 0 
-0.100169 -0.57443 0 
-0.0500152 -0.545912 0 
-3.29278e-05 -0.574268 0 
0.0499208 -0.545788 0 
0.100058 -0.574485 0 
0.150038 -0.548073 0 
0.200377 -0.579041 0 
0.250556 -0.55585 0 
0.301273 -0.534348 0 
0.350318 -0.567174 0 
0.399615 -0.542384 0 
0.451404 -0.5671 0 
0.497945 -0.537702 0 
0.551073 -0.551073 0 
0.604067 -0.55964 0 
0.655324 -0.559063 0 
0.713361 -0.558131 0 
0.769761 -0.561819 0 
0.825243 -0.564777 0 
-0.857917 -0.513788 0 
-0.802945 -0.512908 0 
-0.747856 -0.510673 0 
-0.692659 -0.509495 0 
-0.639581 -0.508501 0 
-0.588854 -0.506189 0 
-0.537596 -0.497922 0 
-0.486157 -0.486157 0 
-0.444928 -0.512952 0 
-0.401787 -0.486784 0 
-0.351685 -0.513639 0 
-0.299695 -0.48291 0 
-0.250032 -0.503 0 
-0.200501 -0.526165 0 
-0.149489 -0.495195 0 
-0.0999281 -0.521367 0 
-0.0499712 -0.492294 0 
4.64723e-05 -0.520999 0 
0.050147 -0.492108 0 
0.099934 -0.52133 0 
0.14957 -0.494692 0 
0.200133 -0.526255 0 
0.249839 -0.503309 0 
0.299839 -0.483005 0 
0.351514 -0.513798 0 
0.401881 -0.486608 0 
0.444935 -0.513054 0 
0.486228 -0.486228 0 
0.537702 -0.497945 0 
0.588901 -0.506147 0 
0.639623 -0.508497 0 
0.692668 -0.509524 0 
0.747859 -0.510716 0 
0.802929 -0.512965 0 
0.857885 -0.513842 0 
-0.887039 -0.461695 0 
-0.832348 -0.462372 0 
-0.778365 -0.460836 0 
-0.724356 -0.45935 0 
-0.671321 -0.457509 0 
-0.618874 -0.455505 0 
-0.567021 -0.451508 0 
-0.512952 -0.444928 0 
-0.450685 -0.450685 0 
-0.397667 -0.437543 0 
-0.348492 -0.462546 0 
-0.295416 -0.432968 0 
-0.247004 -0.450633 0 
-0.198702 -0.473818 0 
-0.150161 -0.441625 0 
-0.100085 -0.468395 0 
-0.0502271 -0.439281 0 
0.000144229 -0.468374 0 
0.0504178 -0.439106 0 
0.100428 -0.468348 0 
0.150697 -0.441105 0 
0.199103 -0.473881 0 
0.247983 -0.450921 0 
0.296569 -0.432268 0 
0.348831 -0.462562 0 
0.397506 -0.4368 0 
0.450637 -0.450637 0 
0.513054 -0.444935 0 
0.5671 -0.451404 0 
0.618952 -0.455483 0 
0.67138 -0.457525 0 
0.724407 -0.459374 0 
0.778382 -0.460863 0 
0.83234 -0.462414 0 
0.887011 -0.461748 0 
-0.912466 -0.409153 0 
-0.857936 -0.411157 0 
-0.804631 -0.410124 0 
-0.751554 -0.408794 0 
-0.698865 -0.407328 0 
-0.646545 -0.405555 0 
-0.594688 -0.403019 0 
-0.542431 -0.399773 0 
-0.486784 -0.401787 0 
-0.437543 -0.397667 0 
-0.387256 -0.387256 0 
-0.344215 -0.411459 0 
-0.30136 -0.381507 0 
-0.25021 -0.395692 0 
-0.200211 -0.419975 0 
-0.150955 -0.389014 0 
-0.100617 -0.416095 0 
-0.0503197 -0.386922 0 
-4.02994e-05 -0.416525 0 
0.05006 -0.386948 0 
0.100784 -0.416323 0 
0.150432 -0.388572 0 
0.200855 -0.420694 0 
0.25086 -0.396905 0 
0.301746 -0.379789 0 
0.344135 -0.410678 0 
0.385823 -0.385823 0 
0.4368 -0.397506 0 
0.486608 -0.401881 0 
0.542384 -0.399615 0 
0.594743 -0.402948 0 
0.646641 -0.405575 0 
0.698945 -0.407371 0 
0.751626 -0.408863 0 
0.804654 -0.410181 0 
0.857929 -0.411236 0 
0.912429 -0.409236 0 
-0.934288 -0.356519 0 
-0.879963 -0.359855 0 
-0.827415 -0.358606 0 
-0.774971 -0.357337 0 
-0.722823 -0.355968 0 
-0.670703 -0.354417 0 
-0.618952 -0.352514 0 
-0.567003 -0.350494 0 
-0.513639 -0.351685 0 
-0.462546 -0.348492 0 
-0.411459 -0.344215 0 
-0.351697 -0.351697 0 
-0.29839 -0.336232 0 
-0.249846 -0.342529 0 
-0.200971 -0.367271 0 
-0.149995 -0.337521 0 
-0.100435 -0.3646 0 
-0.0498692 -0.335025 0 
-6.88684e-05 -0.365025 0 
0.0495433 -0.334795 0 
0.0996798 -0.364834 0 
0.148162 -0.337172 0 
0.199644 -0.368939 0 
0.24763 -0.345582 0 
0.295348 -0.332889 0 
0.34978 -0.34978 0 
0.410678 -0.344135 0 
0.462562 -0.348831 0 
0.513798 -0.351514 0 
0.567174 -0.350318 0 
0.619096 -0.352457 0 
0.670836 -0.354397 0 
0.722893 -0.355952 0 
0.775038 -0.357323 0 
0.827419 -0.358581 0 
0.879943 -0.359894 0 
0.93426 -0.356593 0 
-0.952721 -0.303845 0 
-0.898929 -0.308871 0 
-0.847481 -0.306888 0 
-0.795641 -0.305781 0 
-0.743684 -0.304815 0 
-0.691387 -0.303722 0 
-0.639219 -0.302427 0 
-0.586897 -0.300977 0 
-0.534146 -0.301574 0 
-0.48291 -0.299695 0 
-0.432968 -0.295416 0 
-0.381507 -0.30136 0 
-0.336232 -0.29839 0 
-0.288184 -0.288184 0 
-0.242975 -0.290577 0 
-0.198059 -0.315051 0 
-0.148383 -0.285894 0 
-0.0994753 -0.313232 0 
-0.0507184 -0.283118 0 
-0.000202902 -0.313447 0 
0.0500077 -0.282824 0 
0.0988289 -0.312817 0 
0.148102 -0.28482 0 
0.195742 -0.317413 0 
0.240766 -0.295824 0 
0.285014 -0.285014 0 
0.332889 -0.295348 0 
0.379789 -0.301746 0 
0.432268 -0.296569 0 
0.483005 -0.299839 0 
0.534348 -0.301273 0 
0.587085 -0.30086 0 
0.639359 -0.302407 0 
0.691518 -0.303753 0 
0.743741 -0.304862 0 
0.795701 -0.305831 0 
0.847482 -0.306946 0 
0.898924 -0.308979 0 
0.952687 -0.303953 0 
-0.96803 -0.250833 0 
-0.916037 -0.258282 0 
-0.866979 -0.254732 0 
-0.816639 -0.25358 0 
-0.765535 -0.252907 0 
-0.71362 -0.252254 0 
-0.661417 -0.251503 0 
-0.608767 -0.250543 0 
-0.555692 -0.250874 0 
-0.503 -0.250032 0 
-0.450633 -0.247004 0 
-0.395692 -0.25021 0 
-0.342529 -0.249846 0 
-0.290577 -0.242975 0 
-0.239946 -0.239946 0 
-0.194478 -0.26004 0 
-0.151293 -0.23238 0 
-0.101048 -0.260904 0 
-0.0503938 -0.232537 0 
-0.000203281 -0.262984 0 
0.050638 -0.232316 0 
0.100942 -0.260855 0 
0.152412 -0.232597 0 
0.195768 -0.261421 0 
0.241873 -0.241873 0 
0.295824 -0.240766 0 
0.345582 -0.24763 0 
0.396905 -0.25086 0 
0.450921 -0.247983 0 
[...]
POINT_DATA 1245 
VECTORS vectors float
0.419352 -0.161504 0.893343 
0.425561 -0.140172 0.894008 
0.430493 -0.118548 0.894775 
0.432969 -0.100754 0.89576 
0.433262 -0.0823456 0.897498 
0.430951 -0.0662075 0.899943 
0.426026 -0.0494774 0.903357 
0.417441 -0.0305666 0.90819 
0.407281 -0.0090263 0.913258 
0.394663 0.0198714 0.918611 
0.383631 0.0505735 0.922101 
0.37402 0.089546 0.923087 
0.369264 0.127041 0.9206 
0.403385 -0.204894 0.891796 
0.412017 -0.183161 0.892577 
0.371587 -0.154182 0.915506 
0.378555 -0.135062 0.915672 
0.387898 -0.117328 0.914204 
0.377542 -0.0962849 0.920973 
0.388432 -0.0801983 0.917981 
0.373269 -0.060075 0.925776 
0.381271 -0.0428647 0.923469 
0.361345 -0.0202882 0.932212 
0.364282 0.002255 0.931286 
0.345384 0.0293189 0.938004 
0.347946 0.0596536 0.935615 
0.336856 0.0903041 0.937216 
0.332375 0.120598 0.935405 
0.368513 0.161469 0.915492 
0.37006 0.190719 0.90922 
0.381058 -0.247982 0.890673 
0.393168 -0.226497 0.891133 
0.357147 -0.193749 0.913733 
0.364944 -0.173748 0.914674 
0.32885 -0.144105 0.933323 
0.335814 -0.126106 0.933448 
0.34718 -0.108439 0.931508 
0.327659 -0.0874362 0.940742 
0.344172 -0.0727887 0.936081 
0.321886 -0.0525303 0.94532 
0.337299 -0.0370412 0.940668 
0.312845 -0.015382 0.94968 
0.324708 0.00453077 0.945804 
0.303196 0.0288177 0.952492 
0.314086 0.0553137 0.947782 
0.302658 0.0833717 0.949446 
0.296967 0.10991 0.948541 
0.330859 0.14852 0.931919 
0.330483 0.172997 0.927822 
0.371239 0.21359 0.903638 
0.369122 0.230518 0.900339 
0.367101 -0.269411 0.890312 
0.336725 -0.233827 0.912108 
0.347838 -0.213821 0.912847 
0.315138 -0.181888 0.931453 
0.322253 -0.162943 0.932525 
0.289245 -0.135024 0.947685 
0.296828 -0.117743 0.947644 
0.306941 -0.101467 0.946304 
0.285057 -0.0803205 0.955139 
0.300339 -0.0661203 0.951538 
0.27761 -0.0466585 0.95956 
0.293609 -0.0317789 0.955397 
0.270465 -0.0118099 0.962657 
0.284993 0.00663176 0.958507 
0.265278 0.0284373 0.963753 
0.280583 0.0529942 0.958366 
0.269445 0.0771668 0.959919 
0.263498 0.100688 0.959391 
0.294498 0.134634 0.946121 
0.29236 0.15646 0.943423 
0.328819 0.193046 0.924452 
0.323602 0.209086 0.922803 
0.361375 0.243285 0.900123 
0.335725 -0.311859 0.888838 
0.351711 -0.290841 0.889781 
0.323808 -0.253453 0.911542 
0.295995 -0.219545 0.929617 
0.306507 -0.200813 0.930445 
0.276949 -0.170568 0.945625 
0.283583 -0.152522 0.94674 
0.253728 -0.126126 0.959017 
0.260382 -0.110206 0.959195 
0.26982 -0.0946997 0.958243 
0.247016 -0.0743803 0.966153 
0.260499 -0.0605114 0.963576 
0.238973 -0.0420591 0.970115 
0.253829 -0.0276126 0.966855 
0.233253 -0.00915113 0.972373 
0.248257 0.00820167 0.96866 
0.231278 0.0278156 0.97249 
0.248193 0.0501782 0.96741 
0.238189 0.0715649 0.968579 
0.231855 0.0920831 0.968382 
0.260043 0.122332 0.957817 
0.256654 0.142259 0.955977 
0.288482 0.174903 0.941375 
0.280942 0.190587 0.940611 
0.313167 0.22234 0.923305 
0.346908 0.254541 0.902698 
0.326315 0.266712 0.906854 
0.319043 -0.332921 0.887342 
0.299022 -0.293553 0.907972 
0.309743 -0.272365 0.910976 
0.283742 -0.237426 0.929042 
0.259321 -0.206444 0.943469 
0.268966 -0.188461 0.944531 
0.242657 -0.159846 0.956853 
0.248458 -0.142836 0.958053 
0.221113 -0.117893 0.968096 
0.227318 -0.102795 0.96838 
0.235515 -0.0882971 0.967851 
0.213549 -0.068905 0.974499 
0.225121 -0.0556266 0.972742 
0.205299 -0.0382624 0.977951 
0.218696 -0.0243835 0.975488 
0.200661 -0.00738136 0.979633 
0.215139 0.00892141 0.976543 
0.200602 0.0265504 0.979313 
0.217752 0.0471132 0.974866 
0.208673 0.0659641 0.975758 
0.202557 0.0844571 0.975622 
0.228107 0.1117 0.967207 
0.223738 0.130073 0.965931 
0.251131 0.159678 0.954692 
0.242298 0.175588 0.954181 
0.268657 0.204253 0.941331 
0.297409 0.234729 0.925446 
0.281731 0.250688 0.926166 
0.29984 0.28245 0.911218 
0.302816 -0.351993 0.885665 
0.28357 -0.311739 0.906867 
0.265077 -0.275009 0.924178 
0.270692 -0.254666 0.92837 
0.24762 -0.224184 0.942564 
0.227404 -0.194527 0.954173 
0.235521 -0.176816 0.955649 
0.211751 -0.149741 0.965784 
0.216949 -0.133501 0.967011 
0.192047 -0.110013 0.9752 
0.19734 -0.0958776 0.975635 
0.204374 -0.0822967 0.975427 
0.183769 -0.0639057 0.98089 
0.193669 -0.051311 0.979724 
0.175848 -0.0350502 0.983793 
0.187816 -0.0218596 0.981961 
0.172017 -0.00619417 0.985075 
0.185544 0.00907963 0.982594 
0.173027 0.0249725 0.9846 
0.189606 0.0439013 0.980878 
0.18148 0.0607673 0.981515 
0.17562 0.077512 0.981402 
0.198577 0.102269 0.974735 
0.193837 0.119654 0.973709 
0.217512 0.146881 0.964943 
0.208824 0.163559 0.964179 
0.228941 0.190929 0.954532 
0.252419 0.217861 0.942773 
0.242181 0.235735 0.941157 
0.257232 0.267194 0.928676 
0.270965 0.301618 0.914114 
0.287538 -0.367333 0.884527 
0.266215 -0.322654 0.908309 
0.246884 -0.281233 0.927338 
0.236047 -0.244755 0.940413 
0.218676 -0.212895 0.95229 
0.199469 -0.183068 0.962652 
0.205617 -0.165871 0.964473 
0.184085 -0.140015 0.972887 
0.188546 -0.124831 0.974098 
0.16581 -0.1027 0.980795 
0.170261 -0.0893664 0.981338 
0.176391 -0.0765882 0.981336 
0.157439 -0.0594611 0.985737 
0.166033 -0.0474952 0.984976 
0.150046 -0.0323428 0.98815 
0.160761 -0.0198567 0.986794 
0.146827 -0.00539366 0.989147 
0.15924 0.00885878 0.9872 
0.1483 0.0233938 0.988666 
0.163834 0.040648 0.98565 
0.156529 0.0559664 0.986086 
0.151164 0.0713898 0.985928 
0.171825 0.0940836 0.980624 
0.166811 0.110425 0.979786 
0.187381 0.136042 0.972821 
0.179842 0.153201 0.971692 
0.197551 0.181038 0.963431 
0.212741 0.209988 0.954278 
0.217892 0.243666 0.945066 
0.230609 0.281238 0.931517 
0.243288 0.322217 0.91487 
0.271624 -0.379342 0.884488 
0.251353 -0.335106 0.908034 
0.232395 -0.293818 0.92718 
0.21731 -0.256641 0.94176 
0.205253 -0.226926 0.952038 
0.189379 -0.197131 0.961912 
0.17269 -0.169602 0.970264 
0.178485 -0.154887 0.971675 
0.158801 -0.1307 0.978621 
0.163008 -0.116634 0.979707 
0.1424 -0.096551 0.985089 
0.146106 -0.0837007 0.985722 
0.151376 -0.0715694 0.985882 
0.134182 -0.0554656 0.989403 
0.14174 -0.0441609 0.988918 
0.127491 -0.0299788 0.991387 
0.137101 -0.0182532 0.990389 
0.124743 -0.0049053 0.992177 
0.13598 0.00844288 0.990676 
0.126287 0.0217844 0.991754 
0.14053 0.0377924 0.989355 
0.133919 0.052007 0.989627 
0.129083 0.0666394 0.989392 
0.147468 0.0868576 0.985246 
0.142279 0.102198 0.984537 
0.160339 0.126054 0.97898 
0.152929 0.141598 0.97804 
0.167251 0.167996 0.971496 
0.180043 0.195993 0.963935 
0.187782 0.224297 0.956258 
0.196206 0.259965 0.945474 
0.206772 0.299735 0.931345 
0.216543 0.343586 0.913815 
0.254286 -0.3878 0.885974 
0.235102 -0.34443 0.908897 
0.217106 -0.303922 0.92763 
0.20144 -0.26718 0.942357 
0.187944 -0.23512 0.953622 
0.175679 -0.207041 0.96243 
0.161817 -0.180323 0.970206 
0.147712 -0.155678 0.976701 
0.152645 -0.143346 0.97783 
0.13542 -0.12351 0.98306 
0.139865 -0.110005 0.984041 
0.121811 -0.0903342 0.988434 
0.12452 -0.0782888 0.989124 
0.129245 -0.0669137 0.989352 
0.113782 -0.0516605 0.992162 
0.120467 -0.0410992 0.991866 
0.107681 -0.0279369 0.993793 
0.116343 -0.016924 0.993065 
0.105291 -0.00451116 0.994431 
0.11549 0.00785702 0.993278 
0.106817 0.0201517 0.994074 
0.119712 0.0350945 0.992188 
0.113797 0.0482916 0.99233 
0.109685 0.0620846 0.992026 
0.125412 0.0816694 0.988738 
0.119676 0.096799 0.988083 
0.135014 0.116191 0.984008 
0.128636 0.129886 0.983149 
0.139988 0.154117 0.978086 
0.150529 0.180193 0.972045 
0.158639 0.207777 0.965227 
0.166466 0.239593 0.956496 
0.174667 0.276601 0.944978 
0.183394 0.318107 0.930147 
0.191384 0.364163 0.911459 
0.234696 -0.393172 0.889007 
0.216931 -0.350575 0.911064 
0.199968 -0.310884 0.929174 
0.184691 -0.274429 0.943704 
0.171025 -0.241664 0.955169 
0.1588 -0.212249 0.964226 
0.147012 -0.185562 0.971573 
0.135073 -0.160214 0.977797 
0.12793 -0.136283 0.982375 
0.116046 -0.115731 0.986478 
0.119467 -0.102844 0.987497 
0.103448 -0.0842391 0.991061 
0.105384 -0.0727868 0.991764 
0.109511 -0.0623412 0.992029 
0.0955764 -0.0485855 0.994236 
0.101694 -0.0385094 0.99407 
0.0903757 -0.0262555 0.995562 
0.0981785 -0.0158191 0.995043 
0.0882969 -0.00420797 0.996085 
0.097371 0.0074224 0.99522 
0.0895024 0.0190465 0.995804 
0.101263 0.0324735 0.99433 
0.0957563 0.0448035 0.994396 
0.0924332 0.0576132 0.994051 
0.106059 0.0761462 0.99144 
0.101085 0.0905615 0.990747 
0.110857 0.111518 0.98756 
0.11507 0.136708 0.983905 
0.123597 0.162402 0.978953 
0.131382 0.189507 0.97305 
0.13859 0.219684 0.965677 
0.145951 0.253664 0.956218 
0.153369 0.292225 0.943972 
0.16097 0.335152 0.928311 
0.167722 0.383063 0.908368 
0.212453 -0.396292 0.893205 
0.196707 -0.354305 0.914207 
0.181131 -0.315261 0.931559 
0.166881 -0.279268 0.9456 
0.154172 -0.246572 0.956783 
0.142498 -0.216898 0.965738 
0.131939 -0.190155 0.972848 
0.121965 -0.165725 0.978601 
0.114574 -0.143204 0.983039 
0.106679 -0.124504 0.986468 
0.097384 -0.106699 0.989511 
0.100908 -0.0960571 0.990248 
0.0877223 -0.0811708 0.992832 
0.0876773 -0.0693765 0.99373 
0.0918961 -0.0589154 0.994024 
0.0797706 -0.0459827 0.995752 
0.0852879 -0.0363218 0.995694 
0.0752315 -0.024786 0.996858 
0.0823149 -0.0149418 0.996494 
0.0734844 -0.00410631 0.997288 
0.08157 0.00697305 0.996643 
0.0743738 0.0179094 0.99707 
0.0845854 0.031 0.995934 
0.0797743 0.0427155 0.995897 
0.0767808 0.0562696 0.995459 
0.0886392 0.070689 0.993552 
0.083704 0.0824778 0.993072 
0.0911407 0.101473 0.990655 
0.096807 0.121297 0.987884 
0.101134 0.145273 0.984209 
0.107497 0.171002 0.979389 
0.11383 0.199247 0.973316 
0.120151 0.230965 0.965515 
0.126548 0.266435 0.955509 
0.133138 0.306197 0.942612 
0.139818 0.350413 0.9261 
0.145456 0.399844 0.904968 
0.18757 -0.398174 0.897928 
0.174535 -0.356631 0.917797 
0.160373 -0.317982 0.934435 
0.14781 -0.282486 0.947815 
0.135976 -0.249877 0.958682 
0.125625 -0.220256 0.967319 
0.11589 -0.193389 0.974254 
0.107233 -0.169074 0.979753 
0.100378 -0.146989 0.984032 
0.0929663 -0.127537 0.987467 
0.0862493 -0.109753 0.99021 
0.0828049 -0.0925471 0.992259 
0.0737458 -0.0771279 0.99429 
0.0726855 -0.0654019 0.995208 
0.0763025 -0.0558362 0.99552 
0.065886 -0.0433478 0.996885 
0.0708876 -0.034306 0.996894 
0.0619016 -0.0233967 0.997808 
0.0683348 -0.0141716 0.997562 
0.0603525 -0.00404627 0.998169 
0.0676689 0.00629072 0.997688 
0.0612824 0.0163103 0.997987 
0.0703735 0.0286597 0.997109 
0.0651135 0.0405535 0.997053 
0.0646501 0.0514314 0.996582 
0.0710195 0.0688922 0.995093 
0.0731477 0.0881665 0.993416 
0.0779197 0.10746 0.991151 
0.0825684 0.128478 0.988269 
0.0864601 0.152542 0.984508 
0.0915827 0.178931 0.97959 
0.0969465 0.208386 0.97323 
0.102341 0.241142 0.965079 
0.108028 0.277932 0.954507 
0.11379 0.318577 0.941042 
0.119925 0.363806 0.923723 
0.124438 0.414491 0.901506 
0.160265 -0.399637 0.902555 
0.150539 -0.358429 0.92134 
0.138651 -0.320535 0.937034 
0.127215 -0.285049 0.950033 
0.117641 -0.252707 0.960364 
0.10816 -0.22273 0.968862 
0.0998777 -0.195671 0.97557 
0.0921892 -0.171046 0.980941 
0.0858901 -0.149 0.9851 
0.0796919 -0.129422 0.988382 
0.0735576 -0.11202 0.99098 
0.0705247 -0.0970045 0.992782 
0.0667628 -0.0838505 0.994239 
0.060612 -0.0711972 0.995619 
0.0585741 -0.0609352 0.996422 
0.0624312 -0.0523984 0.996673 
0.0533932 -0.0410151 0.997731 
0.0580736 -0.0324215 0.997786 
0.0500273 -0.0224945 0.998495 
0.0558771 -0.0135239 0.998346 
0.0486929 -0.00383153 0.998806 
0.0551898 0.00577686 0.998459 
0.0494271 0.0155046 0.998657 
0.0571946 0.0268698 0.998001 
0.0541454 0.0356555 0.997896 
0.0513432 0.0486788 0.997494 
0.0567739 0.0604227 0.996557 
0.0599853 0.0757545 0.995321 
0.0614729 0.0929563 0.993771 
0.0653045 0.112235 0.991533 
0.0689574 0.1338 0.988606 
0.0724542 0.158452 0.984705 
0.0767535 0.185961 0.979555 
0.0811732 0.216491 0.972904 
0.0858856 0.250812 0.964218 
0.0905334 0.288292 0.953253 
0.0957583 0.330219 0.939035 
0.101252 0.375511 0.921271 
0.104572 0.42694 0.898213 
0.13099 -0.401293 0.906535 
0.126098 -0.361424 0.923836 
0.114838 -0.324255 0.938973 
0.106781 -0.28978 0.951118 
0.0982061 -0.2573 0.961328 
0.0908541 -0.227317 0.969573 
0.0838217 -0.199824 0.97624 
0.0772959 -0.174747 0.981575 
0.0718388 -0.152138 0.985745 
0.0665686 -0.131848 0.989032 
0.0611901 -0.113711 0.991628 
0.058173 -0.0969465 0.993588 
0.0541774 -0.0825598 0.995112 
0.0498746 -0.0691849 0.996356 
0.0467475 -0.0578012 0.997233 
0.0493274 -0.0491393 0.997573 
0.0419318 -0.0398138 0.998327 
0.0464731 -0.0312154 0.998432 
0.0396207 -0.0214966 0.998984 
0.0449912 -0.0129464 0.998903 
0.0385322 -0.00354753 0.999251 
0.0440961 0.00590347 0.99901 
0.0388368 0.0158393 0.99912 
0.0450364 0.0254823 0.99866 
0.0417378 0.0357979 0.998487 
0.0436611 0.0479646 0.997894 
0.0456098 0.0634378 0.996943 
0.0487909 0.0786158 0.99571 
0.0503202 0.0973266 0.99398 
0.0533066 0.117624 0.991626 
0.0562825 0.140475 0.988483 
0.0592503 0.166239 0.984304 
0.0627363 0.194971 0.978801 
0.0663737 0.226825 0.971671 
0.0700746 0.261889 0.962551 
0.0742133 0.300596 0.95086 
0.0782569 0.341855 0.936489 
0.083886 0.386966 0.91827 
0.0855977 0.437233 0.895265 
0.0987859 -0.403718 0.909534 
0.0995986 -0.367986 0.924482 
0.091901 -0.332731 0.938533 
0.0844927 -0.29789 0.950854 
0.0788157 -0.265048 0.961009 
0.0731561 -0.234294 0.969409 
0.0676687 -0.206026 0.976204 
0.0626183 -0.180271 0.981622 
0.0581112 -0.15704 0.985881 
0.053921 -0.136299 0.989199 
0.0497803 -0.11769 0.991802 
0.0467126 -0.100965 0.993793 
0.0440103 -0.0861238 0.995312 
0.0407863 -0.0728386 0.996509 
0.037688 -0.0602104 0.997474 
0.037152 -0.048453 0.998134 
0.0324185 -0.0377731 0.99876 
0.0362377 -0.0296833 0.998902 
0.0301732 -0.0201752 0.999341 
0.0352649 -0.0124207 0.999301 
0.0294519 -0.00406018 0.999558 
0.0344269 0.00544849 0.999392 
0.0300718 0.0147057 0.99944 
0.0339561 0.0260459 0.999084 
0.0332996 0.0392877 0.998673 
0.0342867 0.0537182 0.997967 
0.036779 0.0680872 0.997001 
0.0384263 0.084925 0.995646 
0.0399597 0.103859 0.993789 
0.0422235 0.125 0.991258 
0.0445035 0.148898 0.987851 
0.046887 0.175853 0.983299 
0.0495401 0.205898 0.977319 
0.0523636 0.239266 0.969541 
0.0552668 0.275897 0.959597 
0.0582971 0.315381 0.947173 
0.062253 0.357821 0.931713 
0.066922 0.400345 0.913918 
0.0663211 0.445411 0.892866 
0.0702746 -0.406535 0.910928 
0.0710932 -0.359268 0.930523 
0.0634794 -0.316584 0.946438 
0.0593787 -0.279031 0.958444 
0.0549617 -0.245151 0.967926 
0.0512431 -0.214794 0.975314 
0.0475132 -0.187464 0.981122 
0.0441106 -0.163034 0.985634 
0.0410195 -0.141247 0.989124 
0.0378887 -0.122012 0.991805 
0.0354621 -0.104713 0.99387 
0.0333659 -0.0896169 0.995417 
0.0311218 -0.0762761 0.996601 
0.0291 -0.0642463 0.99751 
0.0281708 -0.0530893 0.998192 
0.0262852 -0.0437443 0.998697 
0.023026 -0.0345457 0.999138 
0.0269309 -0.027866 0.999249 
0.0213302 -0.0203584 0.999565 
0.0258897 -0.011983 0.999593 
0.0207925 -0.00308015 0.999779 
0.0256951 0.00441008 0.99966 
0.0215659 0.0118034 0.999698 
0.0240508 0.0217221 0.999475 
0.0251224 0.0318961 0.999175 
0.0250968 0.0440791 0.998713 
0.0259605 0.0578568 0.997987 
0.0273264 0.0731261 0.996948 
0.0286629 0.0904602 0.995488 
0.0298044 0.110367 0.993444 
0.0314203 0.132812 0.990643 
0.0330648 0.158192 0.986855 
0.0348031 0.186891 0.981764 
0.0367554 0.219129 0.975003 
0.0387771 0.255186 0.966114 
0.0412581 0.295804 0.954357 
0.04394 0.340941 0.939057 
0.0489851 0.392639 0.918387 
0.0496302 0.450359 0.891467 
0.0400099 -0.410189 0.911122 
0.0445129 -0.37123 0.927473 
0.0416191 -0.332958 0.942023 
0.0385551 -0.294555 0.954857 
0.0362855 -0.258868 0.965231 
0.0342975 -0.226626 0.973378 
0.0320292 -0.19765 0.979749 
0.0299544 -0.171892 0.98466 
0.0279535 -0.149057 0.988433 
0.0259587 -0.128916 0.991316 
0.0242569 -0.111027 0.993521 
0.0227945 -0.095293 0.995188 
0.0213711 -0.0814168 0.996451 
0.0199689 -0.0690086 0.997416 
0.0191916 -0.0576298 0.998154 
0.0179097 -0.0476501 0.998704 
0.0163779 -0.0382963 0.999132 
0.0168218 -0.028168 0.999462 
0.0137714 -0.0195786 0.999713 
0.0182156 -0.0117859 0.999765 
0.0134669 -0.00340161 0.999904 
0.0160099 0.00543513 0.999857 
0.0151758 0.0165319 0.999748 
0.0162102 0.0266213 0.999514 
0.0167309 0.0378511 0.999143 
0.0168469 0.0506706 0.998573 
0.0175943 0.0650785 0.997725 
0.0184871 0.0810922 0.996535 
0.0191838 0.0992886 0.994874 
0.0199495 0.120141 0.992556 
0.0209301 0.143687 0.989402 
0.0219092 0.170489 0.985116 
0.0229579 0.200809 0.979361 
0.0241971 0.235061 0.971679 
0.0254826 0.273334 0.961582 
0.0271864 0.315847 0.948421 
0.0298334 0.361844 0.931761 
0.0327756 0.407498 0.912618 
0.0315667 0.453663 0.890614 
0.013992 -0.41387 0.910228 
0.0180929 -0.362842 0.931675 
0.0170334 -0.317501 0.948105 
0.0169273 -0.27727 0.960643 
0.0164329 -0.241691 0.970214 
0.0158192 -0.210281 0.977513 
0.0150807 -0.182543 0.983082 
0.0142366 -0.158062 0.987327 
0.0133658 -0.136533 0.990545 
0.0125114 -0.117517 0.992992 
0.0118015 -0.100811 0.994836 
0.0111269 -0.0861327 0.996222 
0.0104118 -0.0731087 0.99727 
0.0100313 -0.0614749 0.998058 
0.0095472 -0.0511409 0.998646 
0.00848968 -0.0417022 0.999094 
0.00904098 -0.0328489 0.999419 
0.00835261 -0.0249641 0.999653 
0.00569645 -0.0166586 0.999845 
0.0105928 -0.0113806 0.999879 
0.00566301 -0.00622156 0.999965 
0.00817523 0.00256526 0.999963 
0.0085277 0.010849 0.999905 
0.00791307 0.0206379 0.999756 
0.00852592 0.0311075 0.99948 
0.00860304 0.0427683 0.999048 
0.00872759 0.0561895 0.998382 
0.00905161 0.0712942 0.997414 
0.00938172 0.0883202 0.996048 
0.00962388 0.107802 0.994126 
0.00988878 0.130052 0.991458 
0.0102023 0.155307 0.987814 
0.0105256 0.184042 0.982862 
0.0108759 0.216635 0.976192 
0.011343 0.253572 0.96725 
0.0120527 0.295467 0.955277 
0.0129677 0.342738 0.939342 
0.0152989 0.396088 0.918085 
0.0151491 0.455133 0.890294 
-0.0109691 -0.417674 0.908531 
-0.00854287 -0.377438 0.925995 
-0.00569282 -0.337032 0.941476 
-0.00385721 -0.296469 0.955035 
-0.00245226 -0.259029 0.965866 
-0.00137567 -0.225579 0.974224 
-0.000722315 -0.196006 0.980602 
-0.000284414 -0.169949 0.985453 
1.32486e-05 -0.147075 0.989125 
0.000176409 -0.126929 0.991912 
0.000285334 -0.109251 0.994014 
0.000417569 -0.0937363 0.995597 
0.000483846 -0.0800057 0.996794 
0.000569658 -0.0677036 0.997705 
0.000609097 -0.0568397 0.998383 
0.000554917 -0.0471135 0.998889 
0.000667905 -0.0375797 0.999293 
0.000621336 -0.029609 0.999561 
0.000708385 -0.0218506 0.999761 
0.000753826 -0.0113457 0.999935 
0.000774877 -0.000586696 1 
0.000819522 0.00767096 0.99997 
0.00073211 0.0163976 0.999865 
0.000743724 0.0269579 0.999636 
0.000608975 0.0380213 0.999277 
0.00051852 0.0504572 0.998726 
0.000419975 0.0646876 0.997905 
0.000260505 0.0806699 0.996741 
8.60052e-05 0.0987533 0.995112 
-0.000203441 0.119436 0.992842 
-0.000540144 0.142996 0.989723 
-0.000912104 0.169735 0.985489 
-0.00132635 0.200172 0.97976 
-0.00170587 0.234645 0.97208 
-0.00208436 0.273536 0.96186 
-0.00226231 0.316887 0.948461 
-0.00216475 0.363603 0.931551 
-0.00224642 0.409838 0.912156 
-0.00151631 0.455381 0.890296 
-0.0348918 -0.420382 0.906676 
-0.0315497 -0.368029 0.929279 
-0.0264075 -0.32099 0.946714 
-0.022492 -0.27957 0.959862 
-0.0197991 -0.243167 0.969782 
-0.0176097 -0.211158 0.977293 
-0.0158222 -0.182994 0.982987 
-0.0143378 -0.158211 0.987301 
-0.0130446 -0.136461 0.99056 
-0.0119782 -0.117303 0.993024 
-0.0110821 -0.100513 0.994874 
-0.0101709 -0.0858439 0.996257 
-0.00934975 -0.0727423 0.997307 
-0.00883253 -0.0610958 0.998093 
-0.00839949 -0.0507833 0.998674 
-0.00739877 -0.0414795 0.999112 
-0.00779122 -0.032596 0.999438 
-0.0071437 -0.0248572 0.999665 
-0.00428072 -0.0164071 0.999856 
-0.00916683 -0.011414 0.999893 
-0.00411765 -0.00598749 0.999974 
-0.00653167 0.0026013 0.999975 
-0.00702226 0.0110011 0.999915 
-0.00636032 0.0207485 0.999764 
-0.00716194 0.0313403 0.999483 
-0.00750127 0.0430505 0.999045 
-0.00776895 0.0565112 0.998372 
-0.00835456 0.0716036 0.997398 
-0.0089748 0.08876 0.996013 
-0.00968396 0.108357 0.994065 
-0.010593 0.130676 0.991369 
-0.0116386 0.156006 0.987688 
-0.0127555 0.184779 0.982697 
-0.0139863 0.217376 0.975988 
-0.0152584 0.254216 0.967027 
-0.0165158 0.295783 0.955112 