# vtk DataFile Version 3.0 
Exported using Morpho https://github.com/Morpho-lang/morpho 
ASCII 
DATASET UNSTRUCTURED_GRID 

POINTS 1245 float 
-0.303845 -0.952721 0 
-0.250833 -0.96803 0 
-0.195084 -0.980787 0 
-0.146308 -0.989239 0 
-0.0940719 -0.995565 0 
-0.0475118 -0.998871 0 
-0.000246339 -1 0 
0.0470875 -0.998891 0 
0.0937543 -0.995595 0 
0.146139 -0.989264 0 
0.195062 -0.980791 0 
0.250843 -0.968028 0 
0.303953 -0.952687 0 
-0.409153 -0.912466 0 
-0.356519 -0.934288 0 
-0.308871 -0.898929 0 
-0.258282 -0.916037 0 
-0.207345 -0.934859 0 
-0.154868 -0.930629 0 
-0.104343 -0.948989 0 
-0.0520099 -0.939193 0 
-8.5762e-05 -0.954582 0 
0.0518744 -0.939288 0 
0.104354 -0.949042 0 
0.154696 -0.9306 0 
0.207366 -0.934975 0 
0.258274 -0.916081 0 
0.308979 -0.898924 0 
0.356593 -0.93426 0 
0.409236 -0.912429 0 
-0.513788 -0.857917 0 
-0.461695 -0.887039 0 
-0.411157 -0.857936 0 
-0.359855 -0.879963 0 
-0.306888 -0.847481 0 
-0.254732 -0.866979 0 
-0.201991 -0.889059 0 
-0.149956 -0.874108 0 
-0.100608 -0.900088 0 
-0.0497575 -0.880388 0 
2.4595e-05 -0.904789 0 
0.0496869 -0.8804 0 
0.100612 -0.900177 0 
0.149872 -0.874171 0 
0.202071 -0.889165 0 
0.254695 -0.867031 0 
0.306946 -0.847482 0 
0.359894 -0.879943 0 
0.411236 -0.857929 0 
0.461748 -0.887011 0 
0.513842 -0.857885 0 
-0.564741 -0.825268 0 
-0.512908 -0.802945 0 
-0.462372 -0.832348 0 
-0.410124 -0.804631 0 
-0.358606 -0.827415 0 
-0.305781 -0.795641 0 
-0.25358 -0.816639 0 
-0.200756 -0.839997 0 
-0.149043 -0.818944 0 
-0.0987265 -0.846667 0 
-0.0490473 -0.822548 0 
5.00659e-05 -0.849932 0 
0.0490834 -0.822542 0 
0.0987838 -0.846676 0 
0.148997 -0.818924 0 
0.200826 -0.840131 0 
0.253508 -0.816728 0 
0.305831 -0.795701 0 
0.358581 -0.827419 0 
0.410181 -0.804654 0 
0.462414 -0.83234 0 
0.512965 -0.802929 0 
0.564777 -0.825243 0 
-0.660798 -0.750564 0 
-0.614015 -0.789295 0 
-0.561786 -0.769772 0 
-0.510673 -0.747856 0 
-0.460836 -0.778365 0 
-0.408794 -0.751554 0 
-0.357337 -0.774971 0 
-0.304815 -0.743684 0 
-0.252907 -0.765535 0 
-0.200631 -0.789263 0 
-0.149244 -0.764328 0 
-0.0986912 -0.791935 0 
-0.0492815 -0.765764 0 
4.16586e-05 -0.79382 0 
0.0492411 -0.765708 0 
0.0987508 -0.791951 0 
0.149196 -0.764326 0 
0.200666 -0.789356 0 
0.252841 -0.765599 0 
0.304862 -0.743741 0 
0.357323 -0.775038 0 
0.408863 -0.751626 0 
0.460863 -0.778382 0 
0.510716 -0.747859 0 
0.561819 -0.769761 0 
0.614041 -0.789274 0 
0.660811 -0.750552 0 
-0.707107 -0.707107 0 
-0.654819 -0.699058 0 
-0.60813 -0.73348 0 
-0.558104 -0.71337 0 
-0.509495 -0.692659 0 
-0.45935 -0.724356 0 
-0.407328 -0.698865 0 
-0.355968 -0.722823 0 
-0.303722 -0.691387 0 
-0.252254 -0.71362 0 
-0.20067 -0.737336 0 
-0.149608 -0.710068 0 
-0.0991558 -0.737129 0 
-0.0495872 -0.709825 0 
-2.23646e-05 -0.737917 0 
0.0494408 -0.709766 0 
0.0991291 -0.737116 0 
0.149502 -0.710042 0 
0.200696 -0.73743 0 
0.252186 -0.713735 0 
0.303753 -0.691518 0 
0.355952 -0.722893 0 
0.407371 -0.698945 0 
0.459374 -0.724407 0 
0.509524 -0.692668 0 
0.558131 -0.713361 0 
0.608151 -0.733462 0 
0.654824 -0.699048 0 
0.707107 -0.707107 0 
-0.750564 -0.660798 0 
-0.699058 -0.654819 0 
-0.647692 -0.647692 0 
-0.603437 -0.675718 0 
-0.55905 -0.655305 0 
-0.508501 -0.639581 0 
-0.457509 -0.671321 0 
-0.405555 -0.646545 0 
-0.354417 -0.670703 0 
-0.302427 -0.639219 0 
-0.251503 -0.661417 0 
-0.20061 -0.684911 0 
-0.149717 -0.655943 0 
-0.0995004 -0.682466 0 
-0.0498216 -0.654561 0 
-5.02113e-05 -0.682664 0 
0.0496787 -0.654499 0 
0.0994374 -0.682501 0 
0.149603 -0.655909 0 
0.200573 -0.684972 0 
0.251388 -0.661524 0 
0.302407 -0.639359 0 
0.354397 -0.670836 0 
0.405575 -0.646641 0 
0.457525 -0.67138 0 
0.508497 -0.639623 0 
0.559063 -0.655324 0 
0.603436 -0.675715 0 
0.64769 -0.64769 0 
0.699048 -0.654824 0 
0.750552 -0.660811 0 
-0.789295 -0.614015 0 
-0.73348 -0.60813 0 
-0.675718 -0.603437 0 
-0.613088 -0.613088 0 
-0.55962 -0.604068 0 
-0.506189 -0.588854 0 
-0.455505 -0.618874 0 
-0.403019 -0.594688 0 
-0.352514 -0.618952 0 
-0.300977 -0.586897 0 
-0.250543 -0.608767 0 
-0.200257 -0.632053 0 
-0.150049 -0.601979 0 
-0.0998281 -0.628222 0 
-0.0500377 -0.599914 0 
-3.12334e-05 -0.628076 0 
0.0498927 -0.599835 0 
0.0997818 -0.628253 0 
0.149924 -0.601867 0 
0.200214 -0.632118 0 
0.250423 -0.608915 0 
0.30086 -0.587085 0 
0.352457 -0.619096 0 
0.402948 -0.594743 0 
0.455483 -0.618952 0 
0.506147 -0.588901 0 
0.55964 -0.604067 0 
0.613069 -0.613069 0 
0.675715 -0.603436 0 
0.733462 -0.608151 0 
0.789274 -0.614041 0 
-0.825268 -0.564741 0 
-0.769772 -0.561786 0 
-0.71337 -0.558104 0 
-0.655305 -0.55905 0 
-0.604068 -0.55962 0 
-0.551031 -0.551031 0 
-0.497922 -0.537596 0 
-0.451508 -0.567021 0 
-0.399773 -0.542431 0 
-0.350494 -0.567003 0 
-0.301574 -0.534146 0 
-0.250874 -0.555692 0 
-0.200542 -0.579013 0 
-0.150324 -0.548268 0 
-0.100169 -0.57443 0 
-0.0500152 -0.545912 0 
-3.29278e-05 -0.574268 0 
0.0499208 -0.545788 0 
0.100058 -0.574485 0 
0.150038 -0.548073 0 
0.200377 -0.579041 0 
0.250556 -0.55585 0 
0.301273 -0.534348 0 
0.350318 -0.567174 0 
0.399615 -0.542384 0 
0.451404 -0.5671 0 
0.497945 -0.537702 0 
0.551073 -0.551073 0 
0.604067 -0.55964 0 
0.655324 -0.559063 0 
0.713361 -0.558131 0 
0.769761 -0.561819 0 
0.825243 -0.564777 0 
-0.857917 -0.513788 0 
-0.802945 -0.512908 0 
-0.747856 -0.510673 0 
-0.692659 -0.509495 0 
-0.639581 -0.508501 0 
-0.588854 -0.506189 0 
-0.537596 -0.497922 0 
-0.486157 -0.486157 0 
-0.444928 -0.512952 0 
-0.401787 -0.486784 0 
-0.351685 -0.513639 0 
-0.299695 -0.48291 0 
-0.250032 -0.503 0 
-0.200501 -0.526165 0 
-0.149489 -0.495195 0 
-0.0999281 -0.521367 0 
-0.0499712 -0.492294 0 
4.64723e-05 -0.520999 0 
0.050147 -0.492108 0 
0.099934 -0.52133 0 
0.14957 -0.494692 0 
0.200133 -0.526255 0 
0.249839 -0.503309 0 
0.299839 -0.483005 0 
0.351514 -0.513798 0 
0.401881 -0.486608 0 
0.444935 -0.513054 0 
0.486228 -0.486228 0 
0.537702 -0.497945 0 
0.588901 -0.506147 0 
0.639623 -0.508497 0 
0.692668 -0.509524 0 
0.747859 -0.510716 0 
0.802929 -0.512965 0 
0.857885 -0.513842 0 
-0.887039 -0.461695 0 
-0.832348 -0.462372 0 
-0.778365 -0.460836 0 
-0.724356 -0.45935 0 
-0.671321 -0.457509 0 
-0.618874 -0.455505 0 
-0.567021 -0.451508 0 
-0.512952 -0.444928 0 
-0.450685 -0.450685 0 
-0.397667 -0.437543 0 
-0.348492 -0.462546 0 
-0.295416 -0.432968 0 
-0.247004 -0.450633 0 
-0.198702 -0.473818 0 
-0.150161 -0.441625 0 
-0.100085 -0.468395 0 
-0.0502271 -0.439281 0 
0.000144229 -0.468374 0 
0.0504178 -0.439106 0 
0.100428 -0.468348 0 
0.150697 -0.441105 0 
0.199103 -0.473881 0 
0.247983 -0.450921 0 
0.296569 -0.432268 0 
0.348831 -0.462562 0 
0.397506 -0.4368 0 
0.450637 -0.450637 0 
0.513054 -0.444935 0 
0.5671 -0.451404 0 
0.618952 -0.455483 0 
0.67138 -0.457525 0 
0.724407 -0.459374 0 
0.778382 -0.460863 0 
0.83234 -0.462414 0 
0.887011 -0.461748 0 
-0.912466 -0.409153 0 
-0.857936 -0.411157 0 
-0.804631 -0.410124 0 
-0.751554 -0.408794 0 
-0.698865 -0.407328 0 
-0.646545 -0.405555 0 
-0.594688 -0.403019 0 
-0.542431 -0.399773 0 
-0.486784 -0.401787 0 
-0.437543 -0.397667 0 
-0.387256 -0.387256 0 
-0.344215 -0.411459 0 
-0.30136 -0.381507 0 
-0.25021 -0.395692 0 
-0.200211 -0.419975 0 
-0.150955 -0.389014 0 
-0.100617 -0.416095 0 
-0.0503197 -0.386922 0 
-4.02994e-05 -0.416525 0 
0.05006 -0.386948 0 
0.100784 -0.416323 0 
0.150432 -0.388572 0 
0.200855 -0.420694 0 
0.25086 -0.396905 0 
0.301746 -0.379789 0 
0.344135 -0.410678 0 
0.385823 -0.385823 0 
0.4368 -0.397506 0 
0.486608 -0.401881 0 
0.542384 -0.399615 0 
0.594743 -0.402948 0 
0.646641 -0.405575 0 
0.698945 -0.407371 0 
0.751626 -0.408863 0 
0.804654 -0.410181 0 
0.857929 -0.411236 0 
0.912429 -0.409236 0 
-0.934288 -0.356519 0 
-0.879963 -0.359855 0 
-0.827415 -0.358606 0 
-0.774971 -0.357337 0 
-0.722823 -0.355968 0 
-0.670703 -0.354417 0 
-0.618952 -0.352514 0 
-0.567003 -0.350494 0 
-0.513639 -0.351685 0 
-0.462546 -0.348492 0 
-0.411459 -0.344215 0 
-0.351697 -0.351697 0 
-0.29839 -0.336232 0 
-0.249846 -0.342529 0 
-0.200971 -0.367271 0 
-0.149995 -0.337521 0 
-0.100435 -0.3646 0 
-0.0498692 -0.335025 0 
-6.88684e-05 -0.365025 0 
0.0495433 -0.334795 0 
0.0996798 -0.364834 0 
0.148162 -0.337172 0 
0.199644 -0.368939 0 
0.24763 -0.345582 0 
0.295348 -0.332889 0 
0.34978 -0.34978 0 
0.410678 -0.344135 0 
0.462562 -0.348831 0 
0.513798 -0.351514 0 
0.567174 -0.350318 0 
0.619096 -0.352457 0 
0.670836 -0.354397 0 
0.722893 -0.355952 0 
0.775038 -0.357323 0 
0.827419 -0.358581 0 
0.879943 -0.359894 0 
0.93426 -0.356593 0 
-0.952721 -0.303845 0 
-0.898929 -0.308871 0 
-0.847481 -0.306888 0 
-0.795641 -0.305781 0 
-0.743684 -0.304815 0 
-0.691387 -0.303722 0 
-0.639219 -0.302427 0 
-0.586897 -0.300977 0 
-0.534146 -0.301574 0 
-0.48291 -0.299695 0 
-0.432968 -0.295416 0 
-0.381507 -0.30136 0 
-0.336232 -0.29839 0 
-0.288184 -0.288184 0 
-0.242975 -0.290577 0 
-0.198059 -0.315051 0 
-0.148383 -0.285894 0 
-0.0994753 -0.313232 0 
-0.0507184 -0.283118 0 
-0.000202902 -0.313447 0 
0.0500077 -0.282824 0 
0.0988289 -0.312817 0 
0.148102 -0.28482 0 
0.195742 -0.317413 0 
0.240766 -0.295824 0 
0.285014 -0.285014 0 
0.332889 -0.295348 0 
0.379789 -0.301746 0 
0.432268 -0.296569 0 
0.483005 -0.299839 0 
0.534348 -0.301273 0 
0.587085 -0.30086 0 
0.639359 -0.302407 0 
0.691518 -0.303753 0 
0.743741 -0.304862 0 
0.795701 -0.305831 0 
0.847482 -0.306946 0 
0.898924 -0.308979 0 
0.952687 -0.303953 0 
-0.96803 -0.250833 0 
-0.916037 -0.258282 0 
-0.866979 -0.254732 0 
-0.816639 -0.25358 0 
-0.765535 -0.252907 0 
-0.71362 -0.252254 0 
-0.661417 -0.251503 0 
-0.608767 -0.250543 0 
-0.555692 -0.250874 0 
-0.503 -0.250032 0 
-0.450633 -0.247004 0 
-0.395692 -0.25021 0 
-0.342529 -0.249846 0 
-0.290577 -0.242975 0 
-0.239946 -0.239946 0 
-0.194478 -0.26004 0 
-0.151293 -0.23238 0 
-0.101048 -0.260904 0 
-0.0503938 -0.232537 0 
-0.000203281 -0.262984 0 
0.050638 -0.232316 0 
0.100942 -0.260855 0 
0.152412 -0.232597 0 
0.195768 -0.261421 0 
0.241873 -0.241873 0 
0.295824 -0.240766 0 
0.345582 -0.24763 0 
0.396905 -0.25086 0 
0.450921 -0.247983 0 
[...]
POINT_DATA 1245 
VECTORS vectors float
0.400613 -0.157784 0.902559 
0.406548 -0.136661 0.903351 
0.411833 -0.115485 0.903912 
0.415106 -0.0985168 0.904423 
0.416098 -0.081806 0.905632 
0.414277 -0.0677375 0.907627 
0.409057 -0.0534663 0.910941 
0.399636 -0.0371327 0.915922 
0.387824 -0.017618 0.921565 
0.372736 0.00995319 0.927884 
0.35947 0.0409322 0.932258 
0.348186 0.0817533 0.933854 
0.343745 0.121717 0.931141 
0.386504 -0.199835 0.900378 
0.394044 -0.179009 0.901491 
0.352848 -0.14973 0.923623 
0.359087 -0.131465 0.923998 
0.369025 -0.114077 0.922392 
0.358247 -0.0943653 0.928846 
0.370178 -0.0795023 0.925553 
0.354406 -0.061334 0.933078 
0.362874 -0.0464903 0.930678 
0.341443 -0.0256544 0.939552 
0.343429 -0.00529793 0.939164 
0.322838 0.0215538 0.946209 
0.323803 0.0513784 0.944729 
0.312631 0.0834616 0.946201 
0.308858 0.114645 0.944173 
0.345161 0.158046 0.925141 
0.350121 0.187651 0.917716 
0.366039 -0.239897 0.899147 
0.377358 -0.220067 0.89954 
0.339919 -0.187441 0.921586 
0.3468 -0.168566 0.922667 
0.309712 -0.139259 0.940577 
0.316667 -0.121952 0.940664 
0.327228 -0.105664 0.939019 
0.308184 -0.0854953 0.947477 
0.324522 -0.0723914 0.943104 
0.302191 -0.0537077 0.951733 
0.317419 -0.0400438 0.94744 
0.29219 -0.0198993 0.956153 
0.303258 -0.00161292 0.952907 
0.280835 0.0219897 0.959504 
0.290949 0.0482317 0.955522 
0.279385 0.0762357 0.957148 
0.27482 0.103212 0.95594 
0.309302 0.143137 0.94013 
0.311451 0.167029 0.935468 
0.354986 0.208979 0.911215 
0.355775 0.222765 0.907634 
0.352444 -0.259751 0.899062 
0.320963 -0.22475 0.920038 
0.331456 -0.206176 0.920667 
0.297625 -0.174654 0.938571 
0.30405 -0.15687 0.939652 
0.270453 -0.129401 0.953997 
0.277118 -0.113557 0.954102 
0.287297 -0.0982782 0.952786 
0.26486 -0.0784752 0.961088 
0.280296 -0.0656438 0.957666 
0.257146 -0.0476002 0.965199 
0.273074 -0.0344031 0.961378 
0.24935 -0.0156524 0.968287 
0.263417 0.00126091 0.964681 
0.243316 0.0223927 0.969688 
0.257935 0.0459945 0.965067 
0.247319 0.0700977 0.966395 
0.242125 0.0929486 0.965783 
0.273822 0.127502 0.953291 
0.273642 0.148341 0.950324 
0.312281 0.185297 0.931743 
0.308876 0.198672 0.930121 
0.349424 0.231664 0.907874 
0.321087 -0.300527 0.898102 
0.337077 -0.280036 0.898865 
0.308442 -0.243108 0.919653 
0.279882 -0.209687 0.936855 
0.289747 -0.19224 0.937598 
0.259422 -0.162547 0.951987 
0.265201 -0.145855 0.953098 
0.234801 -0.120192 0.964584 
0.241115 -0.105449 0.964751 
0.250007 -0.0913702 0.963923 
0.227076 -0.0721971 0.971197 
0.240288 -0.0598557 0.968855 
0.21852 -0.0427601 0.974895 
0.233113 -0.0298885 0.97199 
0.212269 -0.0126858 0.977129 
0.226826 0.00323904 0.97393 
0.209778 0.0218605 0.977505 
0.22631 0.0433792 0.973089 
0.216742 0.0639574 0.974132 
0.211373 0.0837261 0.973813 
0.240078 0.113943 0.964043 
0.23809 0.132516 0.962161 
0.271501 0.165003 0.948188 
0.265124 0.178431 0.947561 
0.299141 0.209074 0.931023 
0.334706 0.23942 0.9114 
0.312707 0.249364 0.916532 
0.304835 -0.321596 0.896466 
0.284454 -0.281841 0.916325 
0.294689 -0.26113 0.919222 
0.26817 -0.226462 0.936376 
0.2432 -0.195897 0.949988 
0.252135 -0.179159 0.950962 
0.225227 -0.151213 0.962501 
0.230403 -0.135456 0.963621 
0.202722 -0.111368 0.972883 
0.208204 -0.097746 0.973189 
0.215871 -0.084694 0.972742 
0.193835 -0.0665186 0.978776 
0.204961 -0.0547851 0.977236 
0.185155 -0.0387501 0.981945 
0.198104 -0.0264179 0.979825 
0.180107 -0.0107378 0.983588 
0.194119 0.00421468 0.980969 
0.179793 0.0206463 0.983488 
0.196568 0.040219 0.979665 
0.188086 0.0580308 0.980437 
0.182713 0.0753224 0.980277 
0.208601 0.102146 0.972652 
0.205439 0.119188 0.971385 
0.23387 0.148236 0.960901 
0.225939 0.16224 0.960536 
0.253294 0.189944 0.948559 
0.283093 0.219134 0.933723 
0.266756 0.23367 0.935008 
0.284565 0.264493 0.921448 
0.289807 -0.34082 0.894346 
0.269929 -0.299779 0.915025 
0.250837 -0.26273 0.931694 
0.25573 -0.242859 0.935747 
0.232305 -0.21256 0.949133 
0.21163 -0.183357 0.959996 
0.218904 -0.166881 0.96137 
0.194771 -0.140526 0.97073 
0.199105 -0.125709 0.971882 
0.174088 -0.103144 0.979313 
0.178738 -0.0904643 0.979729 
0.185218 -0.0783575 0.979568 
0.16462 -0.0612688 0.984452 
0.173998 -0.0502343 0.983464 
0.15628 -0.0353803 0.987079 
0.167736 -0.0237351 0.985546 
0.152146 -0.0094707 0.988313 
0.165172 0.00439192 0.986255 
0.153018 0.0189742 0.988041 
0.169204 0.0367693 0.984895 
0.161691 0.0524135 0.985449 
0.156613 0.067865 0.985326 
0.179705 0.0919566 0.979413 
0.175901 0.10786 0.978481 
0.200217 0.134367 0.970494 
0.192344 0.149394 0.969889 
0.213063 0.175798 0.961093 
0.237017 0.201953 0.950283 
0.226731 0.218866 0.949047 
0.241647 0.249816 0.937656 
0.25491 0.284328 0.924218 
0.276362 -0.355954 0.892704 
0.253905 -0.310286 0.916109 
0.233646 -0.268371 0.934551 
0.221831 -0.232195 0.947036 
0.203858 -0.200621 0.958224 
0.184217 -0.171374 0.96783 
0.189423 -0.155381 0.969523 
0.167632 -0.130361 0.977193 
0.17135 -0.11652 0.978296 
0.148606 -0.0954468 0.98428 
0.152375 -0.0836164 0.984779 
0.15781 -0.0723981 0.984812 
0.139068 -0.0565929 0.988664 
0.147035 -0.0462376 0.98805 
0.13133 -0.0325396 0.990805 
0.141422 -0.0216345 0.989713 
0.127871 -0.00866504 0.991753 
0.13971 0.0041537 0.990184 
0.129271 0.0172253 0.99146 
0.144334 0.0332961 0.988969 
0.137674 0.0472276 0.989351 
0.133012 0.0612535 0.98922 
0.153577 0.0830671 0.984639 
0.149473 0.0980113 0.983896 
0.170369 0.122768 0.977703 
0.163639 0.13846 0.976755 
0.181716 0.165434 0.969335 
0.197215 0.193507 0.961073 
0.20256 0.226528 0.952709 
0.215242 0.264085 0.940176 
0.227783 0.305839 0.924434 
0.262593 -0.36712 0.892338 
0.24075 -0.32209 0.915586 
0.220596 -0.280316 0.934216 
0.204461 -0.243152 0.948194 
0.191618 -0.213661 0.957931 
0.175218 -0.184359 0.967114 
0.158094 -0.157446 0.974791 
0.162968 -0.143926 0.976077 
0.143167 -0.120611 0.982322 
0.146508 -0.107965 0.9833 
0.126146 -0.0889057 0.98802 
0.12907 -0.0776447 0.988591 
0.133674 -0.0670847 0.988752 
0.116818 -0.0523901 0.991771 
0.123647 -0.0427339 0.991406 
0.109813 -0.0300843 0.993497 
0.118724 -0.0199807 0.992726 
0.106876 -0.00819623 0.994239 
0.117474 0.00364728 0.993069 
0.108371 0.0154629 0.99399 
0.122052 0.03017 0.992065 
0.116121 0.0429075 0.992308 
0.112029 0.0560517 0.992123 
0.130093 0.0753536 0.988634 
0.125734 0.0892732 0.988039 
0.143852 0.112231 0.983215 
0.137259 0.126523 0.982421 
0.151821 0.152056 0.976642 
0.164847 0.17936 0.969874 
0.172861 0.207105 0.962926 
0.181509 0.242649 0.952983 
0.1923 0.282828 0.939696 
0.202523 0.32763 0.922845 
0.247239 -0.374125 0.893814 
0.226275 -0.330335 0.91634 
0.206873 -0.289525 0.934547 
0.19007 -0.252735 0.948682 
0.175699 -0.22088 0.959345 
0.162743 -0.19324 0.96756 
0.148365 -0.167076 0.974717 
0.13396 -0.143229 0.980582 
0.137911 -0.131981 0.981612 
0.120895 -0.112913 0.986223 
0.124365 -0.100877 0.987095 
0.106567 -0.0824503 0.990881 
0.108632 -0.0719337 0.991476 
0.112513 -0.0622059 0.991701 
0.097534 -0.0484345 0.994053 
0.103479 -0.0395575 0.993845 
0.0912373 -0.0279841 0.995436 
0.0991113 -0.0186283 0.994902 
0.0887056 -0.00785639 0.996027 
0.0981677 0.00297233 0.995165 
0.0902031 0.0136227 0.99583 
0.10242 0.0271972 0.994369 
0.0971726 0.0389033 0.994507 
0.093754 0.0511819 0.994279 
0.109053 0.0696537 0.991593 
0.104253 0.0833485 0.991052 
0.119346 0.101975 0.987602 
0.113771 0.114572 0.986879 
0.125254 0.137988 0.982482 
0.136 0.163367 0.977146 
0.144358 0.190457 0.971024 
0.152485 0.222018 0.963045 
0.161042 0.259124 0.952324 
0.17026 0.301126 0.938261 
0.179075 0.347954 0.92025 
0.229111 -0.377722 0.897126 
0.20962 -0.335094 0.91857 
0.191234 -0.295334 0.936059 
0.174812 -0.258929 0.949945 
0.160214 -0.226413 0.960765 
0.147204 -0.197415 0.969205 
0.134862 -0.171364 0.975934 
0.122392 -0.146816 0.981563 
0.114579 -0.12423 0.985616 
0.102515 -0.104867 0.989188 
0.105004 -0.0934274 0.990073 
0.0895008 -0.0761381 0.993072 
0.0905488 -0.0663265 0.993681 
0.094061 -0.057459 0.993907 
0.0807356 -0.045211 0.99571 
0.0859765 -0.0368412 0.995616 
0.0753203 -0.0262458 0.996814 
0.0822526 -0.0175208 0.996457 
0.0731248 -0.00761838 0.997294 
0.0813909 0.00239471 0.996679 
0.0742454 0.0124424 0.997162 
0.0851848 0.0244672 0.996065 
0.0805835 0.0350645 0.996131 
0.077806 0.0464956 0.995884 
0.0909697 0.0637674 0.99381 
0.0868158 0.0768003 0.99326 
0.0965597 0.0967098 0.990618 
0.101252 0.120604 0.987523 
0.109981 0.145505 0.983226 
0.117986 0.172013 0.978003 
0.125485 0.201828 0.971349 
0.133168 0.235723 0.962653 
0.141033 0.274451 0.951203 
0.149205 0.317816 0.936339 
0.156778 0.366253 0.917213 
0.207703 -0.379152 0.901723 
0.190496 -0.337379 0.921893 
0.17364 -0.298438 0.938501 
0.158382 -0.262678 0.951796 
0.144655 -0.230258 0.962318 
0.132353 -0.201092 0.97059 
0.121058 -0.174957 0.977105 
0.110665 -0.151349 0.982266 
0.102664 -0.129966 0.986189 
0.0944429 -0.112344 0.989171 
0.0850951 -0.0956816 0.991768 
0.0877851 -0.0864506 0.992381 
0.0747396 -0.0727527 0.994546 
0.0746758 -0.0624956 0.995248 
0.0776981 -0.0538027 0.995524 
0.0663733 -0.0424142 0.996893 
0.0709822 -0.0345642 0.996879 
0.061702 -0.0247331 0.997788 
0.0678354 -0.0166521 0.997558 
0.059862 -0.00756911 0.998178 
0.0670467 0.00185368 0.997748 
0.0608272 0.0108858 0.998089 
0.0702429 0.0223864 0.997279 
0.0655676 0.0332599 0.997294 
0.0641614 0.0442307 0.996959 
0.0746106 0.0582948 0.995507 
0.0707597 0.0687549 0.995121 
0.0780867 0.0865588 0.993182 
0.0838943 0.105422 0.990882 
0.0885882 0.128413 0.987756 
0.0951343 0.153413 0.983572 
0.101732 0.181236 0.978164 
0.108313 0.212632 0.971111 
0.115077 0.248133 0.961867 
0.122054 0.288069 0.9498 
0.129233 0.332659 0.93415 
0.135416 0.382582 0.913944 
0.183154 -0.379685 0.906804 
0.169008 -0.338396 0.925702 
0.154029 -0.300062 0.941402 
0.140265 -0.264723 0.954069 
0.127959 -0.232621 0.964113 
0.116646 -0.203429 0.972116 
0.106511 -0.177287 0.978379 
0.097286 -0.153762 0.983307 
0.0898879 -0.132776 0.987062 
0.0822759 -0.114339 0.990029 
0.0751389 -0.0980105 0.992345 
0.0712439 -0.0823775 0.994051 
0.0628821 -0.0684074 0.995674 
0.0606441 -0.0584451 0.996447 
0.0637833 -0.0505556 0.996682 
0.0540679 -0.0397736 0.997745 
0.0581343 -0.0324789 0.99778 
0.0500009 -0.0233616 0.998476 
0.0554213 -0.0158893 0.998337 
0.0483888 -0.00754256 0.9988 
0.0547234 0.00111097 0.998501 
0.0491908 0.00953872 0.998744 
0.0569899 0.0207196 0.99816 
0.0540741 0.0290414 0.998115 
0.0518537 0.0412272 0.997803 
0.059275 0.0554923 0.996698 
0.0613661 0.0737461 0.995387 
0.0664054 0.0917199 0.993568 
0.0711358 0.11182 0.991179 
0.0753255 0.13501 0.987977 
0.080672 0.160855 0.983676 
0.0862074 0.189796 0.978031 
0.0919405 0.222547 0.970577 
0.0978234 0.259168 0.960866 
0.10398 0.300259 0.948174 
0.110345 0.345823 0.931789 
0.115127 0.397176 0.910493 
0.156055 -0.380277 0.911612 
0.145775 -0.339352 0.929295 
0.132667 -0.30144 0.94421 
0.121179 -0.266517 0.956182 
0.110403 -0.234414 0.965848 
0.100694 -0.205119 0.973543 
0.0917303 -0.178691 0.97962 
0.0836299 -0.154959 0.984375 
0.0769403 -0.133913 0.988002 
0.0703806 -0.115491 0.990812 
0.0640359 -0.0993596 0.992989 
0.0608901 -0.0854545 0.99448 
0.0563795 -0.0742828 0.995642 
0.0505885 -0.0624817 0.996763 
0.0487169 -0.0541215 0.997345 
0.0514211 -0.046985 0.997571 
0.043292 -0.0373613 0.998364 
0.0469667 -0.030559 0.998429 
0.0399007 -0.0223732 0.998953 
0.0446691 -0.0152609 0.998885 
0.0385128 -0.00736086 0.999231 
0.0440087 0.000459856 0.999031 
0.0391011 0.00863704 0.999198 
0.0463346 0.0176721 0.99877 
0.0419986 0.0277697 0.998732 
0.0434507 0.0342874 0.998467 
0.0455039 0.0490011 0.997762 
0.0498857 0.061261 0.996874 
0.0514059 0.0776968 0.995651 
0.0552649 0.0958931 0.993856 
0.059119 0.11655 0.991424 
0.0628173 0.140443 0.988094 
0.0672861 0.167366 0.983596 
0.0719631 0.197681 0.977621 
0.0767768 0.231667 0.969761 
0.0818361 0.269613 0.959485 
0.0870445 0.311482 0.946257 
0.0928307 0.357723 0.929202 
0.0962247 0.409989 0.907 
0.126954 -0.381456 0.915628 
0.121207 -0.341461 0.932048 
0.110498 -0.304723 0.94601 
0.100962 -0.270229 0.957488 
0.0925626 -0.238349 0.966758 
0.0844754 -0.208844 0.974294 
0.0770665 -0.182076 0.98026 
0.0702146 -0.15785 0.984964 
0.0643466 -0.136263 0.988581 
0.0587873 -0.117171 0.99137 
0.053336 -0.100204 0.993536 
0.0497111 -0.0852607 0.995118 
0.045957 -0.0719796 0.996347 
0.0414966 -0.0607797 0.997288 
0.0382556 -0.0506748 0.997982 
0.040171 -0.0438913 0.998228 
0.0336799 -0.0359566 0.998786 
0.0371503 -0.0292961 0.99888 
0.0312835 -0.0214268 0.999281 
0.0355238 -0.014716 0.99926 
0.0301804 -0.00720869 0.999518 
0.0347188 0.000458757 0.999397 
0.0305026 0.00856421 0.999498 
0.0357892 0.0166716 0.99922 
0.0336179 0.024894 0.999125 
0.0335542 0.0382106 0.998706 
0.0379233 0.0487697 0.99809 
0.0397776 0.0645283 0.997123 
0.0419357 0.0813561 0.995802 
0.0449624 0.100738 0.993897 
0.0480618 0.122674 0.991283 
0.0512303 0.147775 0.987693 
0.0548581 0.176022 0.982856 
0.0586488 0.207591 0.976456 
0.0626314 0.242801 0.968052 
0.0667013 0.28137 0.957278 
0.0712507 0.323689 0.943477 
0.0765272 0.369003 0.926272 
0.0786211 0.420726 0.903775 
0.0950395 -0.383563 0.918611 
0.0964059 -0.347912 0.932557 
0.0870275 -0.312359 0.94597 
0.0804082 -0.277931 0.95723 
0.07404 -0.245387 0.966594 
0.0680153 -0.215134 0.974213 
0.0623377 -0.187571 0.980271 
0.0569093 -0.162625 0.985045 
0.0521439 -0.14041 0.988719 
0.0477455 -0.120764 0.991532 
0.0433761 -0.103515 0.993682 
0.040177 -0.0881161 0.9953 
0.0372346 -0.0749788 0.99649 
0.0339396 -0.0632078 0.997423 
0.0310015 -0.0525051 0.998139 
0.0301016 -0.0428084 0.99863 
0.0258902 -0.0340789 0.999084 
0.0287673 -0.027762 0.999201 
0.0236865 -0.0201706 0.999516 
0.0276307 -0.0141843 0.999518 
0.0229493 -0.0075687 0.999708 
0.0268798 5.04808e-05 0.999639 
0.0235197 0.00746439 0.999696 
0.0265667 0.0172548 0.999498 
0.0264977 0.0282258 0.99925 
0.0279238 0.040488 0.99879 
0.0294606 0.0545787 0.998075 
0.0317215 0.0693904 0.997085 
0.0332004 0.0874289 0.995617 
0.0355876 0.107527 0.993565 
0.0379782 0.130635 0.990703 
0.0404881 0.156963 0.986774 
0.0433101 0.18667 0.981468 
0.0462345 0.21982 0.974444 
0.049319 0.256567 0.965267 
0.0526467 0.296577 0.953557 
0.0563007 0.339119 0.939057 
0.0615729 0.383259 0.921586 
0.0612155 0.429075 0.901192 
0.0672 -0.3863 0.919922 
0.0673566 -0.338759 0.938459 
0.0605019 -0.296268 0.953187 
0.0554096 -0.258808 0.964338 
0.0512416 -0.225468 0.972902 
0.0471467 -0.195702 0.97953 
0.0432317 -0.169173 0.984638 
0.0396645 -0.145696 0.988534 
0.0363601 -0.125054 0.991483 
0.0331434 -0.107025 0.993704 
0.0305626 -0.0912055 0.995363 
0.028313 -0.0775871 0.996583 
0.0260845 -0.0658796 0.997487 
0.0240119 -0.0555373 0.998168 
0.0229096 -0.0462279 0.998668 
0.0211748 -0.0386373 0.999029 
0.0184118 -0.0311977 0.999344 
0.0212741 -0.0261403 0.999432 
0.0168714 -0.0202372 0.999653 
0.0202638 -0.0138366 0.999699 
0.0163079 -0.00684197 0.999844 
0.0200298 -0.000905067 0.999799 
0.0168966 0.00506496 0.999844 
0.0189069 0.0131899 0.999734 
0.0198477 0.021818 0.999565 
0.0198909 0.0325109 0.999273 
0.0207924 0.044726 0.998783 
0.0223443 0.0583693 0.998045 
0.0235375 0.074652 0.996932 
0.0248615 0.0933614 0.995322 
0.0265124 0.11488 0.993026 
0.0282542 0.139533 0.989814 
0.0300903 0.167689 0.985381 
0.0321466 0.199619 0.979346 
0.0343738 0.235715 0.971214 
0.036815 0.276348 0.960352 
0.0400499 0.322437 0.945743 
0.0447904 0.374703 0.926062 
0.0463595 0.434006 0.899716 
0.0372895 -0.389874 0.920113 
0.042266 -0.350783 0.935502 
0.0386288 -0.312334 0.949187 
0.0359033 -0.274123 0.961024 
0.0336642 -0.238779 0.97049 
0.0314148 -0.207027 0.977831 
0.0291659 -0.178784 0.983456 
0.0269411 -0.153907 0.987718 
0.0248611 -0.132117 0.990922 
0.0228073 -0.113186 0.993312 
0.0210234 -0.0966335 0.995098 
0.0195192 -0.0823637 0.996411 
0.0180601 -0.0700634 0.997379 
0.0166592 -0.0592967 0.998101 
0.0158397 -0.049755 0.998636 
0.0146449 -0.0415024 0.999031 
0.0132592 -0.0340787 0.999331 
0.0134815 -0.0261627 0.999567 
0.0110643 -0.0194627 0.999749 
0.0143478 -0.0135038 0.999806 
0.0107941 -0.00706032 0.999917 
0.0126842 -0.000106153 0.99992 
0.0121002 0.00882231 0.999888 
0.012935 0.0172739 0.999767 
0.0134503 0.0268089 0.99955 
0.0136778 0.0380399 0.999183 
0.0143485 0.05104 0.998594 
0.0152103 0.065755 0.99772 
0.0159626 0.0827584 0.996442 
0.0167589 0.102596 0.994582 
0.0177686 0.125305 0.991959 
0.0187917 0.151454 0.988286 
0.0199291 0.181371 0.983213 
0.0211988 0.215378 0.976301 
0.022679 0.253793 0.966993 
0.0244941 0.296627 0.954679 
0.0270919 0.34311 0.938905 
0.0307332 0.389928 0.920332 
0.0298895 0.436796 0.899064 
0.0118917 -0.393705 0.91916 
0.0157937 -0.342349 0.93944 
0.0155333 -0.297037 0.95474 
0.0151364 -0.256921 0.966314 
0.0148272 -0.221762 0.974988 
0.014238 -0.190959 0.981495 
0.0134706 -0.164011 0.986366 
0.0126545 -0.140521 0.989997 
0.0117706 -0.120128 0.992689 
0.010938 -0.102416 0.994682 
0.010233 -0.0871464 0.996143 
0.00956995 -0.0740029 0.997212 
0.00890492 -0.0626464 0.997996 
0.00853401 -0.0527296 0.998572 
0.00805478 -0.0442052 0.99899 
0.0072275 -0.0365976 0.999304 
0.00758333 -0.029593 0.999533 
0.00706498 -0.023614 0.999696 
0.00505908 -0.0171824 0.99984 
0.00871442 -0.0133089 0.999873 
0.00499054 -0.00912884 0.999946 
0.00688018 -0.00240221 0.999973 
0.00716077 0.00420518 0.999966 
0.00669396 0.012221 0.999903 
0.00719276 0.0209833 0.999754 
0.00725485 0.0310913 0.99949 
0.00738644 0.0429577 0.99905 
0.00768362 0.0566551 0.998364 
0.00797538 0.0724184 0.997342 
0.00820596 0.0907786 0.995837 
0.00845754 0.112078 0.993663 
0.00876693 0.136569 0.990592 
0.00908135 0.164734 0.986296 
0.00946484 0.197008 0.980356 
0.00997531 0.233861 0.972219 
0.0106749 0.275898 0.961128 
0.0119873 0.323758 0.946064 
0.0141006 0.377763 0.925795 
0.0147859 0.437898 0.898903 
-0.0128244 -0.397798 0.917383 
-0.00950233 -0.357307 0.933939 
-0.00690307 -0.316684 0.948506 
-0.00459208 -0.276142 0.961106 
-0.00292382 -0.238942 0.971029 
-0.00177531 -0.205937 0.978564 
-0.000974462 -0.177042 0.984203 
-0.000441389 -0.151851 0.988403 
-6.58371e-05 -0.130016 0.991512 
0.000191763 -0.111079 0.993812 
0.000376641 -0.0947332 0.995503 
0.000582439 -0.0806896 0.996739 
0.000731265 -0.0685281 0.997649 
0.000871022 -0.0579111 0.998321 
0.0009872 -0.0488013 0.998808 
0.00103701 -0.0408212 0.999166 
0.0011544 -0.0332592 0.999446 
0.00124376 -0.0271004 0.999632 
0.00128216 -0.02105 0.999778 
0.0014138 -0.0131211 0.999913 
0.00149291 -0.00490295 0.999987 
0.0014469 0.0017271 0.999997 
0.00142069 0.0086919 0.999961 
0.00137294 0.0175073 0.999846 
0.00123116 0.0269413 0.999636 
0.0011054 0.0378551 0.999283 
0.000946889 0.0506478 0.998716 
0.000733232 0.0653097 0.997865 
0.00049023 0.0822399 0.996612 
0.000145164 0.1019 0.994795 
-0.000255427 0.124606 0.992206 
-0.000687581 0.150694 0.98858 
-0.00115006 0.180677 0.983542 
-0.00159303 0.21492 0.97663 
-0.00193009 0.25384 0.967244 
-0.00213972 0.297461 0.954732 
-0.00210691 0.34467 0.938721 
-0.00166078 0.39154 0.92016 
-0.0011168 0.437763 0.89909 
-0.0359695 -0.401111 0.915323 
-0.032047 -0.348245 0.936856 
-0.0260969 -0.300925 0.953291 
-0.0220486 -0.259502 0.965491 
-0.0190264 -0.223385 0.974545 
-0.0166062 -0.191916 0.981271 
-0.0146327 -0.164497 0.986269 
-0.0129649 -0.140668 0.989972 
-0.0115114 -0.120042 0.992702 
-0.0102939 -0.102171 0.994714 
-0.0092384 -0.0868181 0.996181 
-0.00822426 -0.0736779 0.997248 
-0.00727521 -0.0622406 0.998035 
-0.00660469 -0.0523027 0.998609 
-0.00608906 -0.0438329 0.99902 
-0.00508493 -0.0363189 0.999327 
-0.00524484 -0.0293174 0.999556 
-0.00461308 -0.023382 0.999716 
-0.00231479 -0.017041 0.999852 
-0.00599816 -0.013019 0.999897 
-0.00217352 -0.00900392 0.999957 
-0.0039607 -0.00223236 0.99999 
-0.00430471 0.00437775 0.999981 
-0.00389977 0.0123935 0.999916 
-0.00456955 0.0212655 0.999763 
-0.00496405 0.0314213 0.999494 
-0.00532656 0.0433254 0.999047 
-0.00598158 0.0570442 0.998354 
-0.00669352 0.0729435 0.997314 
-0.0075205 0.0914046 0.995785 
-0.00853956 0.11279 0.993582 
-0.00969773 0.137342 0.990476 
-0.0109437 0.165548 0.986141 