# vtk DataFile Version 3.0 
Exported using Morpho https://github.com/Morpho-lang/morpho 
ASCII 
DATASET UNSTRUCTURED_GRID 

POINTS 1245 float 
-0.303845 -0.952721 0 
-0.250833 -0.96803 0 
-0.195084 -0.980787 0 
-0.146308 -0.989239 0 
-0.0940719 -0.995565 0 
-0.0475118 -0.998871 0 
-0.000246339 -1 0 
0.0470875 -0.998891 0 
0.0937543 -0.995595 0 
0.146139 -0.989264 0 
0.195062 -0.980791 0 
0.250843 -0.968028 0 
0.303953 -0.952687 0 
-0.409153 -0.912466 0 
-0.356519 -0.934288 0 
-0.308871 -0.898929 0 
-0.258282 -0.916037 0 
-0.207345 -0.934859 0 
-0.154868 -0.930629 0 
-0.104343 -0.948989 0 
-0.0520099 -0.939193 0 
-8.5762e-05 -0.954582 0 
0.0518744 -0.939288 0 
0.104354 -0.949042 0 
0.154696 -0.9306 0 
0.207366 -0.934975 0 
0.258274 -0.916081 0 
0.308979 -0.898924 0 
0.356593 -0.93426 0 
0.409236 -0.912429 0 
-0.513788 -0.857917 0 
-0.461695 -0.887039 0 
-0.411157 -0.857936 0 
-0.359855 -0.879963 0 
-0.306888 -0.847481 0 
-0.254732 -0.866979 0 
-0.201991 -0.889059 0 
-0.149956 -0.874108 0 
-0.100608 -0.900088 0 
-0.0497575 -0.880388 0 
2.4595e-05 -0.904789 0 
0.0496869 -0.8804 0 
0.100612 -0.900177 0 
0.149872 -0.874171 0 
0.202071 -0.889165 0 
0.254695 -0.867031 0 
0.306946 -0.847482 0 
0.359894 -0.879943 0 
0.411236 -0.857929 0 
0.461748 -0.887011 0 
0.513842 -0.857885 0 
-0.564741 -0.825268 0 
-0.512908 -0.802945 0 
-0.462372 -0.832348 0 
-0.410124 -0.804631 0 
-0.358606 -0.827415 0 
-0.305781 -0.795641 0 
-0.25358 -0.816639 0 
-0.200756 -0.839997 0 
-0.149043 -0.818944 0 
-0.0987265 -0.846667 0 
-0.0490473 -0.822548 0 
5.00659e-05 -0.849932 0 
0.0490834 -0.822542 0 
0.0987838 -0.846676 0 
0.148997 -0.818924 0 
0.200826 -0.840131 0 
0.253508 -0.816728 0 
0.305831 -0.795701 0 
0.358581 -0.827419 0 
0.410181 -0.804654 0 
0.462414 -0.83234 0 
0.512965 -0.802929 0 
0.564777 -0.825243 0 
-0.660798 -0.750564 0 
-0.614015 -0.789295 0 
-0.561786 -0.769772 0 
-0.510673 -0.747856 0 
-0.460836 -0.778365 0 
-0.408794 -0.751554 0 
-0.357337 -0.774971 0 
-0.304815 -0.743684 0 
-0.252907 -0.765535 0 
-0.200631 -0.789263 0 
-0.149244 -0.764328 0 
-0.0986912 -0.791935 0 
-0.0492815 -0.765764 0 
4.16586e-05 -0.79382 0 
0.0492411 -0.765708 0 
0.0987508 -0.791951 0 
0.149196 -0.764326 0 
0.200666 -0.789356 0 
0.252841 -0.765599 0 
0.304862 -0.743741 0 
0.357323 -0.775038 0 
0.408863 -0.751626 0 
0.460863 -0.778382 0 
0.510716 -0.747859 0 
0.561819 -0.769761 0 
0.614041 -0.789274 0 
0.660811 -0.750552 0 
-0.707107 -0.707107 0 
-0.654819 -0.699058 0 
-0.60813 -0.73348 0 
-0.558104 -0.71337 0 
-0.509495 -0.692659 0 
-0.45935 -0.724356 0 
-0.407328 -0.698865 0 
-0.355968 -0.722823 0 
-0.303722 -0.691387 0 
-0.252254 -0.71362 0 
-0.20067 -0.737336 0 
-0.149608 -0.710068 0 
-0.0991558 -0.737129 0 
-0.0495872 -0.709825 0 
-2.23646e-05 -0.737917 0 
0.0494408 -0.709766 0 
0.0991291 -0.737116 0 
0.149502 -0.710042 0 
0.200696 -0.73743 0 
0.252186 -0.713735 0 
0.303753 -0.691518 0 
0.355952 -0.722893 0 
0.407371 -0.698945 0 
0.459374 -0.724407 0 
0.509524 -0.692668 0 
0.558131 -0.713361 0 
0.608151 -0.733462 0 
0.654824 -0.699048 0 
0.707107 -0.707107 0 
-0.750564 -0.660798 0 
-0.699058 -0.654819 0 
-0.647692 -0.647692 0 
-0.603437 -0.675718 0 
-0.55905 -0.655305 0 
-0.508501 -0.639581 0 
-0.457509 -0.671321 0 
-0.405555 -0.646545 0 
-0.354417 -0.670703 0 
-0.302427 -0.639219 0 
-0.251503 -0.661417 0 
-0.20061 -0.684911 0 
-0.149717 -0.655943 0 
-0.0995004 -0.682466 0 
-0.0498216 -0.654561 0 
-5.02113e-05 -0.682664 0 
0.0496787 -0.654499 0 
0.0994374 -0.682501 0 
0.149603 -0.655909 0 
0.200573 -0.684972 0 
0.251388 -0.661524 0 
0.302407 -0.639359 0 
0.354397 -0.670836 0 
0.405575 -0.646641 0 
0.457525 -0.67138 0 
0.508497 -0.639623 0 
0.559063 -0.655324 0 
0.603436 -0.675715 0 
0.64769 -0.64769 0 
0.699048 -0.654824 0 
0.750552 -0.660811 0 
-0.789295 -0.614015 0 
-0.73348 -0.60813 0 
-0.675718 -0.603437 0 
-0.613088 -0.613088 0 
-0.55962 -0.604068 0 
-0.506189 -0.588854 0 
-0.455505 -0.618874 0 
-0.403019 -0.594688 0 
-0.352514 -0.618952 0 
-0.300977 -0.586897 0 
-0.250543 -0.608767 0 
-0.200257 -0.632053 0 
-0.150049 -0.601979 0 
-0.0998281 -0.628222 0 
-0.0500377 -0.599914 0 
-3.12334e-05 -0.628076 0 
0.0498927 -0.599835 0 
0.0997818 -0.628253 0 
0.149924 -0.601867 0 
0.200214 -0.632118 0 
0.250423 -0.608915 0 
0.30086 -0.587085 0 
0.352457 -0.619096 0 
0.402948 -0.594743 0 
0.455483 -0.618952 0 
0.506147 -0.588901 0 
0.55964 -0.604067 0 
0.613069 -0.613069 0 
0.675715 -0.603436 0 
0.733462 -0.608151 0 
0.789274 -0.614041 0 
-0.825268 -0.564741 0 
-0.769772 -0.561786 0 
-0.71337 -0.558104 0 
-0.655305 -0.55905 0 
-0.604068 -0.55962 0 
-0.551031 -0.551031 0 
-0.497922 -0.537596 0 
-0.451508 -0.567021 0 
-0.399773 -0.542431 0 
-0.350494 -0.567003 0 
-0.301574 -0.534146 0 
-0.250874 -0.555692 0 
-0.200542 -0.579013 0 
-0.150324 -0.548268 0 
-0.100169 -0.57443 0 
-0.0500152 -0.545912 0 
-3.29278e-05 -0.574268 0 
0.0499208 -0.545788 0 
0.100058 -0.574485 0 
0.150038 -0.548073 0 
0.200377 -0.579041 0 
0.250556 -0.55585 0 
0.301273 -0.534348 0 
0.350318 -0.567174 0 
0.399615 -0.542384 0 
0.451404 -0.5671 0 
0.497945 -0.537702 0 
0.551073 -0.551073 0 
0.604067 -0.55964 0 
0.655324 -0.559063 0 
0.713361 -0.558131 0 
0.769761 -0.561819 0 
0.825243 -0.564777 0 
-0.857917 -0.513788 0 
-0.802945 -0.512908 0 
-0.747856 -0.510673 0 
-0.692659 -0.509495 0 
-0.639581 -0.508501 0 
-0.588854 -0.506189 0 
-0.537596 -0.497922 0 
-0.486157 -0.486157 0 
-0.444928 -0.512952 0 
-0.401787 -0.486784 0 
-0.351685 -0.513639 0 
-0.299695 -0.48291 0 
-0.250032 -0.503 0 
-0.200501 -0.526165 0 
-0.149489 -0.495195 0 
-0.0999281 -0.521367 0 
-0.0499712 -0.492294 0 
4.64723e-05 -0.520999 0 
0.050147 -0.492108 0 
0.099934 -0.52133 0 
0.14957 -0.494692 0 
0.200133 -0.526255 0 
0.249839 -0.503309 0 
0.299839 -0.483005 0 
0.351514 -0.513798 0 
0.401881 -0.486608 0 
0.444935 -0.513054 0 
0.486228 -0.486228 0 
0.537702 -0.497945 0 
0.588901 -0.506147 0 
0.639623 -0.508497 0 
0.692668 -0.509524 0 
0.747859 -0.510716 0 
0.802929 -0.512965 0 
0.857885 -0.513842 0 
-0.887039 -0.461695 0 
-0.832348 -0.462372 0 
-0.778365 -0.460836 0 
-0.724356 -0.45935 0 
-0.671321 -0.457509 0 
-0.618874 -0.455505 0 
-0.567021 -0.451508 0 
-0.512952 -0.444928 0 
-0.450685 -0.450685 0 
-0.397667 -0.437543 0 
-0.348492 -0.462546 0 
-0.295416 -0.432968 0 
-0.247004 -0.450633 0 
-0.198702 -0.473818 0 
-0.150161 -0.441625 0 
-0.100085 -0.468395 0 
-0.0502271 -0.439281 0 
0.000144229 -0.468374 0 
0.0504178 -0.439106 0 
0.100428 -0.468348 0 
0.150697 -0.441105 0 
0.199103 -0.473881 0 
0.247983 -0.450921 0 
0.296569 -0.432268 0 
0.348831 -0.462562 0 
0.397506 -0.4368 0 
0.450637 -0.450637 0 
0.513054 -0.444935 0 
0.5671 -0.451404 0 
0.618952 -0.455483 0 
0.67138 -0.457525 0 
0.724407 -0.459374 0 
0.778382 -0.460863 0 
0.83234 -0.462414 0 
0.887011 -0.461748 0 
-0.912466 -0.409153 0 
-0.857936 -0.411157 0 
-0.804631 -0.410124 0 
-0.751554 -0.408794 0 
-0.698865 -0.407328 0 
-0.646545 -0.405555 0 
-0.594688 -0.403019 0 
-0.542431 -0.399773 0 
-0.486784 -0.401787 0 
-0.437543 -0.397667 0 
-0.387256 -0.387256 0 
-0.344215 -0.411459 0 
-0.30136 -0.381507 0 
-0.25021 -0.395692 0 
-0.200211 -0.419975 0 
-0.150955 -0.389014 0 
-0.100617 -0.416095 0 
-0.0503197 -0.386922 0 
-4.02994e-05 -0.416525 0 
0.05006 -0.386948 0 
0.100784 -0.416323 0 
0.150432 -0.388572 0 
0.200855 -0.420694 0 
0.25086 -0.396905 0 
0.301746 -0.379789 0 
0.344135 -0.410678 0 
0.385823 -0.385823 0 
0.4368 -0.397506 0 
0.486608 -0.401881 0 
0.542384 -0.399615 0 
0.594743 -0.402948 0 
0.646641 -0.405575 0 
0.698945 -0.407371 0 
0.751626 -0.408863 0 
0.804654 -0.410181 0 
0.857929 -0.411236 0 
0.912429 -0.409236 0 
-0.934288 -0.356519 0 
-0.879963 -0.359855 0 
-0.827415 -0.358606 0 
-0.774971 -0.357337 0 
-0.722823 -0.355968 0 
-0.670703 -0.354417 0 
-0.618952 -0.352514 0 
-0.567003 -0.350494 0 
-0.513639 -0.351685 0 
-0.462546 -0.348492 0 
-0.411459 -0.344215 0 
-0.351697 -0.351697 0 
-0.29839 -0.336232 0 
-0.249846 -0.342529 0 
-0.200971 -0.367271 0 
-0.149995 -0.337521 0 
-0.100435 -0.3646 0 
-0.0498692 -0.335025 0 
-6.88684e-05 -0.365025 0 
0.0495433 -0.334795 0 
0.0996798 -0.364834 0 
0.148162 -0.337172 0 
0.199644 -0.368939 0 
0.24763 -0.345582 0 
0.295348 -0.332889 0 
0.34978 -0.34978 0 
0.410678 -0.344135 0 
0.462562 -0.348831 0 
0.513798 -0.351514 0 
0.567174 -0.350318 0 
0.619096 -0.352457 0 
0.670836 -0.354397 0 
0.722893 -0.355952 0 
0.775038 -0.357323 0 
0.827419 -0.358581 0 
0.879943 -0.359894 0 
0.93426 -0.356593 0 
-0.952721 -0.303845 0 
-0.898929 -0.308871 0 
-0.847481 -0.306888 0 
-0.795641 -0.305781 0 
-0.743684 -0.304815 0 
-0.691387 -0.303722 0 
-0.639219 -0.302427 0 
-0.586897 -0.300977 0 
-0.534146 -0.301574 0 
-0.48291 -0.299695 0 
-0.432968 -0.295416 0 
-0.381507 -0.30136 0 
-0.336232 -0.29839 0 
-0.288184 -0.288184 0 
-0.242975 -0.290577 0 
-0.198059 -0.315051 0 
-0.148383 -0.285894 0 
-0.0994753 -0.313232 0 
-0.0507184 -0.283118 0 
-0.000202902 -0.313447 0 
0.0500077 -0.282824 0 
0.0988289 -0.312817 0 
0.148102 -0.28482 0 
0.195742 -0.317413 0 
0.240766 -0.295824 0 
0.285014 -0.285014 0 
0.332889 -0.295348 0 
0.379789 -0.301746 0 
0.432268 -0.296569 0 
0.483005 -0.299839 0 
0.534348 -0.301273 0 
0.587085 -0.30086 0 
0.639359 -0.302407 0 
0.691518 -0.303753 0 
0.743741 -0.304862 0 
0.795701 -0.305831 0 
0.847482 -0.306946 0 
0.898924 -0.308979 0 
0.952687 -0.303953 0 
-0.96803 -0.250833 0 
-0.916037 -0.258282 0 
-0.866979 -0.254732 0 
-0.816639 -0.25358 0 
-0.765535 -0.252907 0 
-0.71362 -0.252254 0 
-0.661417 -0.251503 0 
-0.608767 -0.250543 0 
-0.555692 -0.250874 0 
-0.503 -0.250032 0 
-0.450633 -0.247004 0 
-0.395692 -0.25021 0 
-0.342529 -0.249846 0 
-0.290577 -0.242975 0 
-0.239946 -0.239946 0 
-0.194478 -0.26004 0 
-0.151293 -0.23238 0 
-0.101048 -0.260904 0 
-0.0503938 -0.232537 0 
-0.000203281 -0.262984 0 
0.050638 -0.232316 0 
0.100942 -0.260855 0 
0.152412 -0.232597 0 
0.195768 -0.261421 0 
0.241873 -0.241873 0 
0.295824 -0.240766 0 
0.345582 -0.24763 0 
0.396905 -0.25086 0 
0.450921 -0.247983 0 
[...]
POINT_DATA 1245 
VECTORS vectors float
0.412429 -0.160124 0.896807 
0.418558 -0.13889 0.897507 
0.423633 -0.117459 0.898186 
0.426384 -0.100008 0.898997 
0.42692 -0.0822543 0.90054 
0.424746 -0.0668968 0.902838 
0.419689 -0.0510795 0.90623 
0.41076 -0.0330964 0.911143 
0.399981 -0.0122795 0.916441 
0.386455 0.0161738 0.922167 
0.374615 0.0469983 0.925989 
0.364423 0.0866669 0.927192 
0.359801 0.125063 0.924609 
0.39711 -0.203015 0.895035 
0.405358 -0.181613 0.895936 
0.364638 -0.152549 0.918568 
0.371386 -0.133735 0.918797 
0.380889 -0.116184 0.917292 
0.370435 -0.0956248 0.923923 
0.381642 -0.0800301 0.920839 
0.366282 -0.0606327 0.928527 
0.374393 -0.0442919 0.926212 
0.353924 -0.0223578 0.935007 
0.356476 -0.000585553 0.934304 
0.33697 0.0263986 0.941145 
0.338965 0.0566021 0.939095 
0.327841 0.0877456 0.940649 
0.323643 0.118382 0.938744 
0.359848 0.160175 0.919159 
0.362641 0.189549 0.912449 
0.375453 -0.245013 0.89387 
0.387276 -0.224122 0.894308 
0.350743 -0.191423 0.916699 
0.358217 -0.171831 0.91769 
0.321777 -0.142313 0.936059 
0.328691 -0.12461 0.936181 
0.339842 -0.107427 0.934327 
0.320415 -0.0867809 0.943294 
0.336911 -0.0727016 0.938725 
0.314551 -0.0530341 0.947758 
0.329908 -0.038234 0.943239 
0.30514 -0.0171093 0.952154 
0.316711 0.00219673 0.948519 
0.294865 0.0262683 0.955178 
0.305459 0.052642 0.950749 
0.294012 0.0807266 0.952386 
0.288725 0.107398 0.951369 
0.322845 0.1465 0.935045 
0.323398 0.170764 0.930727 
0.365166 0.211858 0.906516 
0.364123 0.227646 0.903101 
0.361634 -0.265876 0.893606 
0.330858 -0.230493 0.915099 
0.341739 -0.211005 0.915801 
0.308634 -0.179224 0.934143 
0.315489 -0.160712 0.935221 
0.282254 -0.132974 0.950079 
0.289549 -0.116204 0.950083 
0.299646 -0.10033 0.94876 
0.277587 -0.0796703 0.957391 
0.292902 -0.0659996 0.953862 
0.270015 -0.0470603 0.961705 
0.285972 -0.0328089 0.957676 
0.262608 -0.0132873 0.964811 
0.276956 0.00459498 0.960872 
0.257097 0.0261507 0.966032 
0.272158 0.0503834 0.960933 
0.261206 0.0745096 0.962403 
0.255556 0.0978084 0.961834 
0.286811 0.131976 0.948853 
0.285394 0.153434 0.946049 
0.322655 0.190164 0.927217 
0.318115 0.205232 0.925572 
0.356914 0.239006 0.903044 
0.330305 -0.307718 0.892305 
0.346269 -0.286895 0.89319 
0.318096 -0.249662 0.914595 
0.290005 -0.215923 0.932349 
0.300277 -0.197663 0.933147 
0.270435 -0.167617 0.948035 
0.276769 -0.150065 0.949147 
0.246718 -0.12394 0.961129 
0.253221 -0.108476 0.961308 
0.262472 -0.0934982 0.960399 
0.239606 -0.0736119 0.968075 
0.252989 -0.0603155 0.965587 
0.23137 -0.0423638 0.971943 
0.246121 -0.0285055 0.96882 
0.225445 -0.0105038 0.974199 
0.240277 0.00632425 0.970684 
0.223277 0.025577 0.974419 
0.240047 0.0476282 0.969592 
0.230214 0.0687261 0.97071 
0.224231 0.0889546 0.970468 
0.252614 0.119197 0.960197 
0.249752 0.138634 0.958334 
0.282164 0.171223 0.943963 
0.275069 0.18608 0.943245 
0.307961 0.217434 0.92622 
0.342397 0.248975 0.905967 
0.321329 0.260298 0.910491 
0.313803 -0.328768 0.890752 
0.293631 -0.289256 0.911105 
0.304159 -0.268247 0.914074 
0.277961 -0.233399 0.931806 
0.253337 -0.202564 0.945932 
0.262714 -0.185038 0.946965 
0.236187 -0.156666 0.958995 
0.241745 -0.140129 0.960168 
0.214275 -0.115502 0.96992 
0.220225 -0.100946 0.970212 
0.228227 -0.0869896 0.969714 
0.206227 -0.0680518 0.976135 
0.217636 -0.0553513 0.974459 
0.197807 -0.038481 0.979485 
0.211039 -0.0251793 0.977153 
0.193012 -0.008664 0.981158 
0.207316 0.00713568 0.978248 
0.192854 0.0243276 0.980926 
0.209867 0.0445245 0.976716 
0.201011 0.0629943 0.977561 
0.195179 0.0810507 0.977413 
0.220858 0.108143 0.969292 
0.216935 0.126018 0.968018 
0.244717 0.155425 0.957056 
0.236227 0.170629 0.956599 
0.262968 0.198946 0.94407 
0.292126 0.228955 0.92857 
0.276227 0.244363 0.929508 
0.29426 0.275756 0.915079 
0.298025 -0.347873 0.888912 
0.278532 -0.307335 0.909926 
0.25981 -0.27049 0.927003 
0.265148 -0.250326 0.931146 
0.24194 -0.219904 0.945044 
0.22155 -0.190413 0.956378 
0.229351 -0.173157 0.957818 
0.205441 -0.146348 0.967665 
0.210329 -0.130628 0.968864 
0.185378 -0.107484 0.976771 
0.190429 -0.0938936 0.9772 
0.197255 -0.0808652 0.977011 
0.176649 -0.0629563 0.982258 
0.186354 -0.0509457 0.981161 
0.168569 -0.0352053 0.985061 
0.180344 -0.0225917 0.983344 
0.164618 -0.00744321 0.986329 
0.177958 0.00730858 0.984011 
0.165579 0.0227145 0.985935 
0.182012 0.0412288 0.982432 
0.174116 0.0576407 0.983037 
0.168545 0.0739074 0.982919 
0.191555 0.0984191 0.976535 
0.187172 0.115262 0.975542 
0.211089 0.142225 0.967064 
0.202711 0.158288 0.966361 
0.223061 0.185304 0.95703 
0.246729 0.211946 0.945623 
0.236479 0.229448 0.944156 
0.251498 0.260698 0.932087 
0.265071 0.295114 0.917957 
0.283415 -0.363121 0.887592 
0.261671 -0.318088 0.911235 
0.241991 -0.276492 0.93005 
0.230781 -0.240125 0.942911 
0.213184 -0.208372 0.954533 
0.19381 -0.178752 0.964617 
0.199606 -0.162003 0.966392 
0.177977 -0.136452 0.974528 
0.182153 -0.121771 0.975701 
0.159414 -0.100028 0.982131 
0.16361 -0.087255 0.982659 
0.169485 -0.0750568 0.982671 
0.150604 -0.0584207 0.986866 
0.158965 -0.0470574 0.986162 
0.143076 -0.0324446 0.98918 
0.15356 -0.0205475 0.987926 
0.139767 -0.00663944 0.990162 
0.151969 0.00707872 0.98836 
0.141207 0.0210789 0.989756 
0.156573 0.0378904 0.986939 
0.149507 0.0526995 0.987355 
0.144411 0.0675999 0.987206 
0.16504 0.0899767 0.982174 
0.160364 0.105795 0.981372 
0.181061 0.131099 0.974695 
0.173827 0.147713 0.973635 
0.191682 0.175227 0.965688 
0.206995 0.203849 0.956869 
0.212222 0.237262 0.947982 
0.224923 0.274804 0.934822 
0.237535 0.316027 0.918534 
0.268282 -0.374818 0.887433 
0.247437 -0.330294 0.910868 
0.228034 -0.288831 0.929827 
0.212557 -0.251659 0.944186 
0.200205 -0.222032 0.954264 
0.184129 -0.192413 0.963885 
0.167275 -0.165113 0.971986 
0.172722 -0.15084 0.973352 
0.152992 -0.126974 0.980036 
0.156878 -0.113434 0.981082 
0.136354 -0.0937298 0.986216 
0.139771 -0.0814694 0.986827 
0.144788 -0.0699275 0.986989 
0.127714 -0.0543457 0.990321 
0.135003 -0.0436555 0.989883 
0.120902 -0.0300422 0.99221 
0.130254 -0.0189224 0.9913 
0.118081 -0.00615301 0.992985 
0.129079 0.00663828 0.991612 
0.119618 0.019397 0.99263 
0.133648 0.0349325 0.990413 
0.127292 0.048599 0.990674 
0.122721 0.0626934 0.990459 
0.140999 0.0825646 0.986561 
0.136121 0.0973823 0.985894 
0.154212 0.120902 0.980613 
0.147106 0.135981 0.979729 
0.161522 0.162058 0.973472 
0.174408 0.189792 0.96621 
0.182246 0.217883 0.958808 
0.190746 0.253489 0.948346 
0.201374 0.29339 0.934543 
0.211271 0.337575 0.917283 
0.251673 -0.382752 0.88891 
0.231837 -0.339222 0.91169 
0.213326 -0.298601 0.930231 
0.197237 -0.261843 0.944741 
0.183413 -0.229858 0.955785 
0.170887 -0.201939 0.964375 
0.15683 -0.175426 0.971921 
0.142605 -0.151071 0.978183 
0.147178 -0.139145 0.979274 
0.130018 -0.119588 0.984273 
0.1341 -0.106631 0.985214 
0.116141 -0.0874161 0.989378 
0.118598 -0.0759461 0.990034 
0.12302 -0.0651813 0.990261 
0.10773 -0.0504795 0.992898 
0.114135 -0.0405472 0.992637 
0.101548 -0.027975 0.994437 
0.109918 -0.0175829 0.993785 
0.0991012 -0.00577813 0.995061 
0.109035 0.00600838 0.99402 
0.100596 0.017728 0.994769 
0.113254 0.0321493 0.993046 
0.107604 0.0447721 0.993185 
0.103761 0.0579924 0.99291 
0.119332 0.0771718 0.989851 
0.113938 0.0917745 0.98924 
0.129185 0.110893 0.9854 
0.123109 0.124176 0.984594 
0.134511 0.148108 0.979781 
0.14513 0.173924 0.974006 
0.153331 0.201319 0.96745 
0.161262 0.233036 0.959004 
0.169579 0.270075 0.947788 
0.178459 0.311763 0.93325 
0.186706 0.358117 0.914819 
0.232639 -0.387482 0.892041 
0.214236 -0.34486 0.913879 
0.196747 -0.305136 0.931763 
0.181042 -0.268697 0.946058 
0.167028 -0.236023 0.957285 
0.154509 -0.206763 0.966114 
0.142507 -0.180306 0.973232 
0.130372 -0.155255 0.979234 
0.12297 -0.13182 0.983617 
0.11102 -0.111706 0.98752 
0.114094 -0.0993595 0.988489 
0.0982404 -0.0812415 0.991841 
0.0998734 -0.0703952 0.992507 
0.103744 -0.0605416 0.99276 
0.0900346 -0.0473408 0.994813 
0.0958303 -0.0379082 0.994676 
0.0847538 -0.0262699 0.996056 
0.0922322 -0.0164716 0.995601 
0.082632 -0.00550081 0.996565 
0.0913996 0.00553714 0.995799 
0.0838481 0.0165104 0.996342 
0.0953008 0.0294248 0.995014 
0.0900526 0.0412105 0.995084 
0.0869772 0.0534554 0.994775 
0.1004 0.0715637 0.99237 
0.0957681 0.0854267 0.991731 
0.105529 0.105999 0.988751 
0.109926 0.130709 0.985308 
0.118531 0.156106 0.980603 
0.126396 0.182993 0.974955 
0.133707 0.213034 0.967853 
0.141178 0.246982 0.958681 
0.148744 0.285612 0.946732 
0.156534 0.328715 0.931367 
0.16356 0.376856 0.911717 
0.210735 -0.389978 0.896386 
0.194433 -0.348056 0.917089 
0.178381 -0.309044 0.934169 
0.163743 -0.27313 0.947939 
0.150665 -0.240536 0.958876 
0.138739 -0.211043 0.967581 
0.127916 -0.184528 0.974467 
0.117771 -0.160399 0.980001 
0.110152 -0.138295 0.984247 
0.102133 -0.119996 0.987507 
0.0928072 -0.102615 0.990382 
0.0960041 -0.0924894 0.991075 
0.0829451 -0.078053 0.993493 
0.0827846 -0.0668193 0.994325 
0.086616 -0.0570309 0.994608 
0.0747701 -0.0446719 0.9962 
0.0799463 -0.0356804 0.99616 
0.0701725 -0.0247803 0.997227 
0.076904 -0.0155958 0.996917 
0.0683846 -0.00540726 0.997644 
0.0761429 0.00504467 0.997084 
0.0692438 0.0153594 0.997482 
0.0791219 0.0279087 0.996474 
0.0746735 0.0389145 0.996448 
0.0718665 0.0520164 0.996057 
0.0834942 0.0659504 0.994324 
0.0788488 0.0773808 0.993879 
0.0862759 0.0959098 0.991644 
0.0920003 0.115373 0.989053 
0.0964569 0.138994 0.985584 
0.102894 0.164455 0.981003 
0.109319 0.192541 0.975181 
0.115736 0.224151 0.967658 
0.122257 0.259634 0.957937 
0.128983 0.299475 0.945346 
0.135835 0.343855 0.929146 
0.141676 0.393504 0.908341 
0.186008 -0.391342 0.901251 
0.172541 -0.349892 0.920764 
0.158039 -0.311345 0.937063 
0.145057 -0.275916 0.950173 
0.133003 -0.243481 0.960743 
0.122323 -0.214027 0.969139 
0.112412 -0.187418 0.975827 
0.103549 -0.163398 0.981111 
0.09649 -0.141712 0.985194 
0.0889857 -0.12265 0.988453 
0.0821273 -0.10537 0.991036 
0.0785098 -0.0887885 0.992952 
0.069597 -0.0738539 0.994838 
0.0682625 -0.0628484 0.995686 
0.071609 -0.0538622 0.995977 
0.0614667 -0.042016 0.997224 
0.066118 -0.0336367 0.997245 
0.0574477 -0.0233933 0.998074 
0.0635042 -0.014828 0.997871 
0.0558749 -0.00536765 0.998423 
0.0628348 0.00433036 0.998015 
0.0567995 0.0137089 0.998291 
0.0655664 0.0254227 0.997524 
0.060485 0.0368924 0.997487 
0.0603538 0.0469851 0.997071 
0.0665142 0.0640441 0.995728 
0.0688318 0.0826752 0.994197 
0.0735912 0.10163 0.992097 
0.0783149 0.122259 0.989404 
0.0823086 0.146017 0.985852 
0.0875116 0.172201 0.981167 
0.0929449 0.201484 0.975072 
0.0984515 0.234225 0.967185 
0.104221 0.270985 0.956925 
0.110116 0.311788 0.943749 
0.116349 0.357173 0.926763 
0.120982 0.408129 0.904872 
0.158786 -0.392445 0.905966 
0.148809 -0.351344 0.924345 
0.136511 -0.313471 0.939734 
0.124969 -0.278168 0.952368 
0.115006 -0.245935 0.962439 
0.105393 -0.216195 0.970645 
0.0968718 -0.189376 0.977114 
0.0890204 -0.165075 0.982255 
0.0825668 -0.143402 0.986214 
0.0762344 -0.124247 0.989318 
0.0700222 -0.107305 0.991757 
0.0669068 -0.0927692 0.993437 
0.0629141 -0.0801893 0.994792 
0.0569482 -0.0680978 0.996052 
0.0548129 -0.058299 0.996793 
0.0583308 -0.0504193 0.997023 
0.0496081 -0.0396568 0.997981 
0.0539157 -0.0317372 0.998041 
0.0462301 -0.0224597 0.998678 
0.0516749 -0.0141805 0.998563 
0.0448802 -0.00516991 0.998979 
0.0509778 0.00380859 0.998693 
0.0456007 0.0128659 0.998877 
0.0529062 0.0237202 0.998318 
0.0503282 0.0317298 0.998229 
0.0473906 0.0446192 0.997879 
0.0530179 0.0555211 0.997049 
0.0560295 0.070592 0.99593 
0.057709 0.0872597 0.994513 
0.0615704 0.106127 0.992445 
0.0652763 0.127383 0.989703 
0.0688605 0.151746 0.986018 
0.0732224 0.179051 0.981111 
0.0777313 0.209494 0.974715 
0.0824959 0.243723 0.96633 
0.0872739 0.281346 0.955629 
0.0925261 0.323308 0.941759 
0.0981196 0.368923 0.924267 
0.101503 0.420676 0.901515 
0.129565 -0.393886 0.909982 
0.124386 -0.354015 0.926931 
0.113201 -0.316979 0.941653 
0.104704 -0.282538 0.953525 
0.0961118 -0.250261 0.963396 
0.0885108 -0.220465 0.971371 
0.0813295 -0.193237 0.977775 
0.0746728 -0.168474 0.982874 
0.0690632 -0.146243 0.986835 
0.0636823 -0.126389 0.989934 
0.0582585 -0.108702 0.992366 
0.0550397 -0.0925548 0.994185 
0.0510983 -0.0786992 0.995588 
0.0466993 -0.0659333 0.996731 
0.0436152 -0.0552252 0.997521 
0.0458964 -0.047168 0.997832 
0.0388406 -0.0383867 0.998508 
0.042979 -0.0305018 0.99861 
0.0364893 -0.0214735 0.999103 
0.0414382 -0.013613 0.999048 
0.0353892 -0.00491669 0.999362 
0.0405686 0.00387063 0.999169 
0.0356953 0.0131251 0.999277 
0.0415247 0.0222356 0.99889 
0.0384554 0.0320299 0.998747 
0.0405981 0.0433433 0.998235 
0.0422525 0.0586042 0.997387 
0.0456069 0.0730926 0.996282 
0.0471478 0.0914202 0.994696 
0.0501908 0.111323 0.992516 
0.0532143 0.133845 0.989573 
0.0562531 0.159371 0.985615 
0.0597961 0.187927 0.980361 
0.0634929 0.219688 0.973502 
0.0672883 0.254793 0.964652 
0.0714354 0.293495 0.953288 
0.0756263 0.335086 0.939147 
0.081183 0.380336 0.921278 
0.0830378 0.431097 0.898476 
0.0974401 -0.396184 0.912986 
0.0983631 -0.360483 0.927565 
0.0902089 -0.32517 0.941343 
0.0829633 -0.290465 0.953282 
0.0770664 -0.257748 0.963134 
0.071274 -0.227183 0.97124 
0.0656967 -0.199173 0.97776 
0.0605108 -0.173718 0.982935 
0.0559019 -0.15086 0.986973 
0.0516252 -0.130528 0.9901 
0.0474052 -0.112407 0.992531 
0.0442744 -0.0961984 0.994377 
0.0414767 -0.0819474 0.995773 
0.0382476 -0.0692774 0.996864 
0.0351707 -0.0573248 0.997736 
0.0344991 -0.0463312 0.99833 
0.0299679 -0.0363927 0.998888 
0.0334281 -0.0289679 0.999021 
0.0277334 -0.0201804 0.999412 
0.0323944 -0.0130892 0.999389 
0.0270044 -0.0053817 0.999621 
0.0315955 0.00341001 0.999495 
0.0275923 0.012008 0.999547 
0.031252 0.0226508 0.999255 
0.0307009 0.0352018 0.998909 
0.0316741 0.0490648 0.998293 
0.0342258 0.0627796 0.99744 
0.0358141 0.07926 0.99621 
0.0374618 0.097685 0.994512 
0.0397301 0.118503 0.992159 
0.042065 0.142097 0.988959 
0.0444968 0.168829 0.98464 
0.0472102 0.19875 0.978912 
0.0500792 0.23205 0.971414 
0.0530494 0.268727 0.961754 
0.056176 0.308389 0.9496 
0.0600753 0.350923 0.934475 
0.0648999 0.393956 0.916835 
0.0644273 0.43933 0.896012 
0.0691188 -0.398976 0.914352 
0.0697591 -0.351635 0.933534 
0.0623291 -0.309016 0.949012 
0.0579592 -0.271526 0.960684 
0.0535787 -0.237837 0.969826 
0.0497368 -0.207704 0.976926 
0.0459339 -0.180669 0.982471 
0.0424633 -0.156591 0.98675 
0.0392949 -0.135224 0.990036 
0.0361228 -0.116439 0.992541 
0.0336363 -0.0996767 0.994451 
0.0314851 -0.0851388 0.995872 
0.029231 -0.0723935 0.996948 
0.0271933 -0.0609922 0.997768 
0.0262029 -0.0505333 0.998379 
0.0243633 -0.0418356 0.998827 
0.0212827 -0.0332968 0.999219 
0.0248029 -0.0272204 0.999322 
0.0196412 -0.0203115 0.999601 
0.0237647 -0.0126724 0.999637 
0.0190959 -0.00449198 0.999808 
0.0235528 0.00242446 0.99972 
0.019809 0.00926164 0.999761 
0.0220972 0.0185414 0.999584 
0.0231231 0.0281355 0.999337 
0.0231817 0.0396868 0.998943 
0.0240603 0.0528868 0.998311 
0.0253898 0.0676971 0.997383 
0.0267784 0.0845038 0.996063 
0.0279302 0.104053 0.994179 
0.0295891 0.126121 0.991574 
0.0312602 0.151251 0.988001 
0.0330408 0.179751 0.983157 
0.0350337 0.211884 0.976667 
0.0371251 0.24795 0.968061 
0.0396158 0.288604 0.956629 
0.0424581 0.334049 0.941599 
0.0474349 0.385998 0.921279 
0.0483799 0.444272 0.894585 
0.0389789 -0.402632 0.914532 
0.043615 -0.363612 0.930529 
0.0405475 -0.325299 0.944742 
0.037574 -0.286963 0.957205 
0.03531 -0.251403 0.967238 
0.0332448 -0.219349 0.97508 
0.0309694 -0.190641 0.981171 
0.028843 -0.165208 0.985837 
0.0268074 -0.142759 0.989394 
0.0247885 -0.123062 0.992089 
0.0230553 -0.105668 0.994134 
0.0215698 -0.090474 0.995665 
0.0201321 -0.0771801 0.996814 
0.0187288 -0.0653842 0.997684 
0.0179293 -0.0546845 0.998343 
0.0166752 -0.0453518 0.998832 
0.0152 -0.0367133 0.99921 
0.015558 -0.0274165 0.999503 
0.0127435 -0.019539 0.999728 
0.0167529 -0.012438 0.999782 
0.0124465 -0.0047731 0.999911 
0.0147448 0.00335964 0.999886 
0.0140013 0.0136508 0.999809 
0.0149748 0.0231064 0.999621 
0.015479 0.0337279 0.999311 
0.0156242 0.0459734 0.99882 
0.0163758 0.0598174 0.998075 
0.0172522 0.0753618 0.997007 
0.0179639 0.0931278 0.995492 
0.0187536 0.113593 0.99335 
0.0197383 0.136847 0.990396 
0.0207414 0.163405 0.986341 
0.0218196 0.193583 0.980841 
0.0230786 0.227755 0.973445 
0.0244277 0.266077 0.963642 
0.0261753 0.308716 0.950794 
0.0288229 0.354914 0.934454 
0.0319581 0.400965 0.915536 
0.0309066 0.447423 0.893788 
0.0131712 -0.406391 0.913604 
0.0172607 -0.355238 0.934616 
0.0164413 -0.309896 0.950628 
0.0162786 -0.269718 0.962802 
0.0158397 -0.234291 0.972037 
0.0152359 -0.203104 0.979039 
0.0144888 -0.175658 0.984345 
0.0136514 -0.151541 0.988357 
0.0127759 -0.13043 0.991375 
0.0119248 -0.111894 0.993649 
0.0112154 -0.0957187 0.995345 
0.0105435 -0.0816079 0.996609 
0.00984204 -0.0692014 0.997554 
0.00946149 -0.0582077 0.99826 
0.00898078 -0.0485455 0.998781 
0.00800276 -0.0397896 0.999176 
0.00848128 -0.0316354 0.999463 
0.00785086 -0.0244508 0.99967 
0.00543913 -0.0168561 0.999843 
0.009867 -0.012092 0.999878 
0.00539669 -0.00732177 0.999959 
0.00767024 0.000705142 0.99997 
0.00799705 0.00835633 0.999933 
0.00743997 0.0174805 0.99982 
0.0080047 0.0273211 0.999595 
0.00808815 0.0383874 0.99923 
0.00821363 0.0512362 0.998653 
0.00852137 0.0658287 0.997795 
0.00884538 0.082379 0.996562 
0.00908235 0.101453 0.994799 
0.00934338 0.123355 0.992319 
0.00965858 0.148329 0.988891 
0.00997967 0.176863 0.984185 
0.0103429 0.20934 0.977788 
0.0108271 0.246253 0.969145 
0.0115429 0.288212 0.957497 
0.0125751 0.335696 0.941886 
0.0148621 0.389314 0.920985 
0.0149771 0.448776 0.893519 
-0.0116611 -0.410321 0.911867 
-0.00895124 -0.369972 0.929 
-0.00612522 -0.329488 0.94414 
-0.00412931 -0.288927 0.957342 
-0.00263146 -0.251572 0.967835 
-0.00151859 -0.218287 0.975883 
-0.000813965 -0.188963 0.981984 
-0.000339898 -0.163223 0.986589 
-1.39462e-05 -0.140732 0.990048 
0.000180909 -0.121031 0.992649 
0.000319471 -0.103842 0.994594 
0.000475105 -0.0888714 0.996043 
0.000568126 -0.0757232 0.997129 
0.000678241 -0.0640428 0.997947 
0.00074205 -0.0538311 0.99855 
0.000719094 -0.0447611 0.998997 
0.000839976 -0.0359591 0.999353 
0.000834608 -0.0286623 0.999589 
0.00091049 -0.021558 0.999767 
0.000980791 -0.0120101 0.999927 
0.00101936 -0.00219692 0.999997 
0.00103802 0.0054375 0.999985 
0.00096722 0.0135145 0.999908 
0.000961811 0.0234141 0.999725 
0.000823436 0.033874 0.999426 
0.000719117 0.0457433 0.998953 
0.000602538 0.0594354 0.998232 
0.000423056 0.0749319 0.997189 
0.00022345 0.0925904 0.995704 
-8.38458e-05 0.112895 0.993607 
-0.000443786 0.136146 0.990689 
-0.000837721 0.162649 0.986684 
-0.00126769 0.192923 0.981213 
-0.00166735 0.227317 0.973819 
-0.0020345 0.266224 0.963909 
-0.00221606 0.309683 0.950837 
-0.00212761 0.356594 0.934257 
-0.00205266 0.403079 0.915163 
-0.00135509 0.448896 0.893583 
-0.0352929 -0.413252 0.909933 
-0.0317144 -0.360698 0.932143 
-0.0263106 -0.313546 0.949208 
-0.0223255 -0.272126 0.962003 
-0.0195115 -0.235826 0.971599 
-0.0172378 -0.204014 0.978816 
-0.0153768 -0.176123 0.984248 
-0.0138294 -0.151692 0.988331 
-0.0124724 -0.130352 0.991389 
-0.0113519 -0.11167 0.993681 
-0.0104033 -0.0954114 0.995384 
-0.0094417 -0.0813004 0.996645 
-0.00858906 -0.0688242 0.997592 
-0.00802238 -0.0578185 0.998295 
-0.00754059 -0.0481764 0.99881 
-0.0065504 -0.0395478 0.999196 
-0.00685713 -0.0313738 0.999484 
-0.00621254 -0.0243028 0.999685 
-0.00356746 -0.0166327 0.999855 
-0.0079956 -0.0120275 0.999896 
-0.00340751 -0.00711499 0.999969 
-0.00558601 0.000783852 0.999984 
-0.00602639 0.00852133 0.999946 
-0.00545546 0.0176144 0.99983 
-0.00621068 0.0275673 0.999601 
-0.00656862 0.0386934 0.99923 
-0.00687178 0.0515794 0.998645 
-0.00748225 0.0661608 0.997781 
-0.00813576 0.0828509 0.996529 
-0.00888841 0.102033 0.994741 
-0.0098378 0.124008 0.992232 
-0.0109241 0.149056 0.988768 
-0.0120876 0.177624 0.984024 