# vtk DataFile Version 3.0 
Exported using Morpho https://github.com/Morpho-lang/morpho 
ASCII 
DATASET UNSTRUCTURED_GRID 

POINTS 1245 float 
-0.303845 -0.952721 0 
-0.250833 -0.96803 0 
-0.195084 -0.980787 0 
-0.146308 -0.989239 0 
-0.0940719 -0.995565 0 
-0.0475118 -0.998871 0 
-0.000246339 -1 0 
0.0470875 -0.998891 0 
0.0937543 -0.995595 0 
0.146139 -0.989264 0 
0.195062 -0.980791 0 
0.250843 -0.968028 0 
0.303953 -0.952687 0 
-0.409153 -0.912466 0 
-0.356519 -0.934288 0 
-0.308871 -0.898929 0 
-0.258282 -0.916037 0 
-0.207345 -0.934859 0 
-0.154868 -0.930629 0 
-0.104343 -0.948989 0 
-0.0520099 -0.939193 0 
-8.5762e-05 -0.954582 0 
0.0518744 -0.939288 0 
0.104354 -0.949042 0 
0.154696 -0.9306 0 
0.207366 -0.934975 0 
0.258274 -0.916081 0 
0.308979 -0.898924 0 
0.356593 -0.93426 0 
0.409236 -0.912429 0 
-0.513788 -0.857917 0 
-0.461695 -0.887039 0 
-0.411157 -0.857936 0 
-0.359855 -0.879963 0 
-0.306888 -0.847481 0 
-0.254732 -0.866979 0 
-0.201991 -0.889059 0 
-0.149956 -0.874108 0 
-0.100608 -0.900088 0 
-0.0497575 -0.880388 0 
2.4595e-05 -0.904789 0 
0.0496869 -0.8804 0 
0.100612 -0.900177 0 
0.149872 -0.874171 0 
0.202071 -0.889165 0 
0.254695 -0.867031 0 
0.306946 -0.847482 0 
0.359894 -0.879943 0 
0.411236 -0.857929 0 
0.461748 -0.887011 0 
0.513842 -0.857885 0 
-0.564741 -0.825268 0 
-0.512908 -0.802945 0 
-0.462372 -0.832348 0 
-0.410124 -0.804631 0 
-0.358606 -0.827415 0 
-0.305781 -0.795641 0 
-0.25358 -0.816639 0 
-0.200756 -0.839997 0 
-0.149043 -0.818944 0 
-0.0987265 -0.846667 0 
-0.0490473 -0.822548 0 
5.00659e-05 -0.849932 0 
0.0490834 -0.822542 0 
0.0987838 -0.846676 0 
0.148997 -0.818924 0 
0.200826 -0.840131 0 
0.253508 -0.816728 0 
0.305831 -0.795701 0 
0.358581 -0.827419 0 
0.410181 -0.804654 0 
0.462414 -0.83234 0 
0.512965 -0.802929 0 
0.564777 -0.825243 0 
-0.660798 -0.750564 0 
-0.614015 -0.789295 0 
-0.561786 -0.769772 0 
-0.510673 -0.747856 0 
-0.460836 -0.778365 0 
-0.408794 -0.751554 0 
-0.357337 -0.774971 0 
-0.304815 -0.743684 0 
-0.252907 -0.765535 0 
-0.200631 -0.789263 0 
-0.149244 -0.764328 0 
-0.0986912 -0.791935 0 
-0.0492815 -0.765764 0 
4.16586e-05 -0.79382 0 
0.0492411 -0.765708 0 
0.0987508 -0.791951 0 
0.149196 -0.764326 0 
0.200666 -0.789356 0 
0.252841 -0.765599 0 
0.304862 -0.743741 0 
0.357323 -0.775038 0 
0.408863 -0.751626 0 
0.460863 -0.778382 0 
0.510716 -0.747859 0 
0.561819 -0.769761 0 
0.614041 -0.789274 0 
0.660811 -0.750552 0 
-0.707107 -0.707107 0 
-0.654819 -0.699058 0 
-0.60813 -0.73348 0 
-0.558104 -0.71337 0 
-0.509495 -0.692659 0 
-0.45935 -0.724356 0 
-0.407328 -0.698865 0 
-0.355968 -0.722823 0 
-0.303722 -0.691387 0 
-0.252254 -0.71362 0 
-0.20067 -0.737336 0 
-0.149608 -0.710068 0 
-0.0991558 -0.737129 0 
-0.0495872 -0.709825 0 
-2.23646e-05 -0.737917 0 
0.0494408 -0.709766 0 
0.0991291 -0.737116 0 
0.149502 -0.710042 0 
0.200696 -0.73743 0 
0.252186 -0.713735 0 
0.303753 -0.691518 0 
0.355952 -0.722893 0 
0.407371 -0.698945 0 
0.459374 -0.724407 0 
0.509524 -0.692668 0 
0.558131 -0.713361 0 
0.608151 -0.733462 0 
0.654824 -0.699048 0 
0.707107 -0.707107 0 
-0.750564 -0.660798 0 
-0.699058 -0.654819 0 
-0.647692 -0.647692 0 
-0.603437 -0.675718 0 
-0.55905 -0.655305 0 
-0.508501 -0.639581 0 
-0.457509 -0.671321 0 
-0.405555 -0.646545 0 
-0.354417 -0.670703 0 
-0.302427 -0.639219 0 
-0.251503 -0.661417 0 
-0.20061 -0.684911 0 
-0.149717 -0.655943 0 
-0.0995004 -0.682466 0 
-0.0498216 -0.654561 0 
-5.02113e-05 -0.682664 0 
0.0496787 -0.654499 0 
0.0994374 -0.682501 0 
0.149603 -0.655909 0 
0.200573 -0.684972 0 
0.251388 -0.661524 0 
0.302407 -0.639359 0 
0.354397 -0.670836 0 
0.405575 -0.646641 0 
0.457525 -0.67138 0 
0.508497 -0.639623 0 
0.559063 -0.655324 0 
0.603436 -0.675715 0 
0.64769 -0.64769 0 
0.699048 -0.654824 0 
0.750552 -0.660811 0 
-0.789295 -0.614015 0 
-0.73348 -0.60813 0 
-0.675718 -0.603437 0 
-0.613088 -0.613088 0 
-0.55962 -0.604068 0 
-0.506189 -0.588854 0 
-0.455505 -0.618874 0 
-0.403019 -0.594688 0 
-0.352514 -0.618952 0 
-0.300977 -0.586897 0 
-0.250543 -0.608767 0 
-0.200257 -0.632053 0 
-0.150049 -0.601979 0 
-0.0998281 -0.628222 0 
-0.0500377 -0.599914 0 
-3.12334e-05 -0.628076 0 
0.0498927 -0.599835 0 
0.0997818 -0.628253 0 
0.149924 -0.601867 0 
0.200214 -0.632118 0 
0.250423 -0.608915 0 
0.30086 -0.587085 0 
0.352457 -0.619096 0 
0.402948 -0.594743 0 
0.455483 -0.618952 0 
0.506147 -0.588901 0 
0.55964 -0.604067 0 
0.613069 -0.613069 0 
0.675715 -0.603436 0 
0.733462 -0.608151 0 
0.789274 -0.614041 0 
-0.825268 -0.564741 0 
-0.769772 -0.561786 0 
-0.71337 -0.558104 0 
-0.655305 -0.55905 0 
-0.604068 -0.55962 0 
-0.551031 -0.551031 0 
-0.497922 -0.537596 0 
-0.451508 -0.567021 0 
-0.399773 -0.542431 0 
-0.350494 -0.567003 0 
-0.301574 -0.534146 0 
-0.250874 -0.555692 0 
-0.200542 -0.579013 0 
-0.150324 -0.548268 0 
-0.100169 -0.57443 0 
-0.0500152 -0.545912 0 
-3.29278e-05 -0.574268 0 
0.0499208 -0.545788 0 
0.100058 -0.574485 0 
0.150038 -0.548073 0 
0.200377 -0.579041 0 
0.250556 -0.55585 0 
0.301273 -0.534348 0 
0.350318 -0.567174 0 
0.399615 -0.542384 0 
0.451404 -0.5671 0 
0.497945 -0.537702 0 
0.551073 -0.551073 0 
0.604067 -0.55964 0 
0.655324 -0.559063 0 
0.713361 -0.558131 0 
0.769761 -0.561819 0 
0.825243 -0.564777 0 
-0.857917 -0.513788 0 
-0.802945 -0.512908 0 
-0.747856 -0.510673 0 
-0.692659 -0.509495 0 
-0.639581 -0.508501 0 
-0.588854 -0.506189 0 
-0.537596 -0.497922 0 
-0.486157 -0.486157 0 
-0.444928 -0.512952 0 
-0.401787 -0.486784 0 
-0.351685 -0.513639 0 
-0.299695 -0.48291 0 
-0.250032 -0.503 0 
-0.200501 -0.526165 0 
-0.149489 -0.495195 0 
-0.0999281 -0.521367 0 
-0.0499712 -0.492294 0 
4.64723e-05 -0.520999 0 
0.050147 -0.492108 0 
0.099934 -0.52133 0 
0.14957 -0.494692 0 
0.200133 -0.526255 0 
0.249839 -0.503309 0 
0.299839 -0.483005 0 
0.351514 -0.513798 0 
0.401881 -0.486608 0 
0.444935 -0.513054 0 
0.486228 -0.486228 0 
0.537702 -0.497945 0 
0.588901 -0.506147 0 
0.639623 -0.508497 0 
0.692668 -0.509524 0 
0.747859 -0.510716 0 
0.802929 -0.512965 0 
0.857885 -0.513842 0 
-0.887039 -0.461695 0 
-0.832348 -0.462372 0 
-0.778365 -0.460836 0 
-0.724356 -0.45935 0 
-0.671321 -0.457509 0 
-0.618874 -0.455505 0 
-0.567021 -0.451508 0 
-0.512952 -0.444928 0 
-0.450685 -0.450685 0 
-0.397667 -0.437543 0 
-0.348492 -0.462546 0 
-0.295416 -0.432968 0 
-0.247004 -0.450633 0 
-0.198702 -0.473818 0 
-0.150161 -0.441625 0 
-0.100085 -0.468395 0 
-0.0502271 -0.439281 0 
0.000144229 -0.468374 0 
0.0504178 -0.439106 0 
0.100428 -0.468348 0 
0.150697 -0.441105 0 
0.199103 -0.473881 0 
0.247983 -0.450921 0 
0.296569 -0.432268 0 
0.348831 -0.462562 0 
0.397506 -0.4368 0 
0.450637 -0.450637 0 
0.513054 -0.444935 0 
0.5671 -0.451404 0 
0.618952 -0.455483 0 
0.67138 -0.457525 0 
0.724407 -0.459374 0 
0.778382 -0.460863 0 
0.83234 -0.462414 0 
0.887011 -0.461748 0 
-0.912466 -0.409153 0 
-0.857936 -0.411157 0 
-0.804631 -0.410124 0 
-0.751554 -0.408794 0 
-0.698865 -0.407328 0 
-0.646545 -0.405555 0 
-0.594688 -0.403019 0 
-0.542431 -0.399773 0 
-0.486784 -0.401787 0 
-0.437543 -0.397667 0 
-0.387256 -0.387256 0 
-0.344215 -0.411459 0 
-0.30136 -0.381507 0 
-0.25021 -0.395692 0 
-0.200211 -0.419975 0 
-0.150955 -0.389014 0 
-0.100617 -0.416095 0 
-0.0503197 -0.386922 0 
-4.02994e-05 -0.416525 0 
0.05006 -0.386948 0 
0.100784 -0.416323 0 
0.150432 -0.388572 0 
0.200855 -0.420694 0 
0.25086 -0.396905 0 
0.301746 -0.379789 0 
0.344135 -0.410678 0 
0.385823 -0.385823 0 
0.4368 -0.397506 0 
0.486608 -0.401881 0 
0.542384 -0.399615 0 
0.594743 -0.402948 0 
0.646641 -0.405575 0 
0.698945 -0.407371 0 
0.751626 -0.408863 0 
0.804654 -0.410181 0 
0.857929 -0.411236 0 
0.912429 -0.409236 0 
-0.934288 -0.356519 0 
-0.879963 -0.359855 0 
-0.827415 -0.358606 0 
-0.774971 -0.357337 0 
-0.722823 -0.355968 0 
-0.670703 -0.354417 0 
-0.618952 -0.352514 0 
-0.567003 -0.350494 0 
-0.513639 -0.351685 0 
-0.462546 -0.348492 0 
-0.411459 -0.344215 0 
-0.351697 -0.351697 0 
-0.29839 -0.336232 0 
-0.249846 -0.342529 0 
-0.200971 -0.367271 0 
-0.149995 -0.337521 0 
-0.100435 -0.3646 0 
-0.0498692 -0.335025 0 
-6.88684e-05 -0.365025 0 
0.0495433 -0.334795 0 
0.0996798 -0.364834 0 
0.148162 -0.337172 0 
0.199644 -0.368939 0 
0.24763 -0.345582 0 
0.295348 -0.332889 0 
0.34978 -0.34978 0 
0.410678 -0.344135 0 
0.462562 -0.348831 0 
0.513798 -0.351514 0 
0.567174 -0.350318 0 
0.619096 -0.352457 0 
0.670836 -0.354397 0 
0.722893 -0.355952 0 
0.775038 -0.357323 0 
0.827419 -0.358581 0 
0.879943 -0.359894 0 
0.93426 -0.356593 0 
-0.952721 -0.303845 0 
-0.898929 -0.308871 0 
-0.847481 -0.306888 0 
-0.795641 -0.305781 0 
-0.743684 -0.304815 0 
-0.691387 -0.303722 0 
-0.639219 -0.302427 0 
-0.586897 -0.300977 0 
-0.534146 -0.301574 0 
-0.48291 -0.299695 0 
-0.432968 -0.295416 0 
-0.381507 -0.30136 0 
-0.336232 -0.29839 0 
-0.288184 -0.288184 0 
-0.242975 -0.290577 0 
-0.198059 -0.315051 0 
-0.148383 -0.285894 0 
-0.0994753 -0.313232 0 
-0.0507184 -0.283118 0 
-0.000202902 -0.313447 0 
0.0500077 -0.282824 0 
0.0988289 -0.312817 0 
0.148102 -0.28482 0 
0.195742 -0.317413 0 
0.240766 -0.295824 0 
0.285014 -0.285014 0 
0.332889 -0.295348 0 
0.379789 -0.301746 0 
0.432268 -0.296569 0 
0.483005 -0.299839 0 
0.534348 -0.301273 0 
0.587085 -0.30086 0 
0.639359 -0.302407 0 
0.691518 -0.303753 0 
0.743741 -0.304862 0 
0.795701 -0.305831 0 
0.847482 -0.306946 0 
0.898924 -0.308979 0 
0.952687 -0.303953 0 
-0.96803 -0.250833 0 
-0.916037 -0.258282 0 
-0.866979 -0.254732 0 
-0.816639 -0.25358 0 
-0.765535 -0.252907 0 
-0.71362 -0.252254 0 
-0.661417 -0.251503 0 
-0.608767 -0.250543 0 
-0.555692 -0.250874 0 
-0.503 -0.250032 0 
-0.450633 -0.247004 0 
-0.395692 -0.25021 0 
-0.342529 -0.249846 0 
-0.290577 -0.242975 0 
-0.239946 -0.239946 0 
-0.194478 -0.26004 0 
-0.151293 -0.23238 0 
-0.101048 -0.260904 0 
-0.0503938 -0.232537 0 
-0.000203281 -0.262984 0 
0.050638 -0.232316 0 
0.100942 -0.260855 0 
0.152412 -0.232597 0 
0.195768 -0.261421 0 
0.241873 -0.241873 0 
0.295824 -0.240766 0 
0.345582 -0.24763 0 
0.396905 -0.25086 0 
0.450921 -0.247983 0 
[...]
POINT_DATA 1245 
VECTORS vectors float
0.26857 -0.140044 0.953026 
0.275592 -0.126433 0.952924 
0.269768 -0.0998158 0.957738 
0.273011 -0.0829875 0.958425 
0.291707 -0.0595496 0.954652 
0.296482 -0.0593052 0.953195 
0.305162 -0.0684305 0.949839 
0.297029 -0.0667801 0.95253 
0.274393 -0.0792426 0.958347 
0.240392 -0.0509261 0.969339 
0.1942 -0.0234547 0.980682 
0.17525 0.0212158 0.984295 
0.17924 0.0915761 0.979534 
0.268556 -0.159163 0.950024 
0.279243 -0.133695 0.950867 
0.227684 -0.116074 0.966792 
0.227287 -0.105752 0.968069 
0.232711 -0.090163 0.968357 
0.22041 -0.0744954 0.972559 
0.23723 -0.0644249 0.969315 
0.224845 -0.0584049 0.972643 
0.243127 -0.0603518 0.968115 
0.213554 -0.0528474 0.975501 
0.210308 -0.0540283 0.976141 
0.173258 -0.0286286 0.98446 
0.15823 -0.00569021 0.987386 
0.146799 0.0328793 0.98862 
0.1458 0.0749615 0.98647 
0.187285 0.136023 0.972842 
0.213664 0.163435 0.963139 
0.26185 -0.188756 0.94647 
0.261508 -0.166551 0.950723 
0.224991 -0.1386 0.964453 
0.23184 -0.125666 0.964603 
0.186736 -0.101545 0.977148 
0.188976 -0.0892223 0.97792 
0.196795 -0.0770094 0.977416 
0.177077 -0.0680104 0.981844 
0.188642 -0.0621437 0.980078 
0.164058 -0.0513678 0.985112 
0.183684 -0.0478458 0.98182 
0.15019 -0.0354287 0.988022 
0.158396 -0.0348709 0.98676 
0.131877 -0.0159983 0.991137 
0.135194 0.00152207 0.990818 
0.123418 0.0322664 0.99183 
0.121402 0.0605943 0.990752 
0.158677 0.106427 0.981578 
0.185409 0.12809 0.974277 
0.244595 0.177323 0.953273 
0.258588 0.166422 0.951544 
0.253578 -0.20576 0.945178 
0.213558 -0.163525 0.963147 
0.218006 -0.149111 0.964489 
0.179452 -0.120075 0.976411 
0.187171 -0.110382 0.976106 
0.14043 -0.0886328 0.986115 
0.14692 -0.0818092 0.985759 
0.162199 -0.0725924 0.984084 
0.137521 -0.0642752 0.988411 
0.144188 -0.0587437 0.987805 
0.117588 -0.0455119 0.992019 
0.133152 -0.0382408 0.990358 
0.110018 -0.0311781 0.99344 
0.116817 -0.024901 0.992841 
0.0986057 -0.0143998 0.995022 
0.113056 0.00614214 0.99357 
0.105022 0.029391 0.994035 
0.102426 0.04805 0.993579 
0.135188 0.0842261 0.987234 
0.154371 0.0999609 0.982943 
0.202649 0.132105 0.9703 
0.208286 0.123313 0.970263 
0.278511 0.146869 0.949137 
0.229626 -0.209841 0.950389 
0.248194 -0.203243 0.947149 
0.207143 -0.169446 0.963525 
0.170924 -0.138032 0.975568 
0.172997 -0.131375 0.976121 
0.136867 -0.103864 0.985129 
0.139359 -0.0930692 0.985859 
0.102289 -0.077059 0.991766 
0.106473 -0.0739162 0.991564 
0.121886 -0.0673521 0.990256 
0.0959525 -0.0535257 0.993946 
0.104793 -0.0511726 0.993177 
0.0843963 -0.0414458 0.99557 
0.100177 -0.0377714 0.994252 
0.0849047 -0.0341759 0.995803 
0.0873671 -0.0272071 0.995805 
0.0697003 -0.0188507 0.99739 
0.0862182 -0.000366343 0.996276 
0.0808687 0.0155625 0.996603 
0.0769928 0.0295209 0.996595 
0.108127 0.0654913 0.991978 
0.114485 0.0748964 0.990598 
0.159089 0.0986498 0.982323 
0.154485 0.096475 0.983274 
0.202025 0.122159 0.971732 
0.246759 0.137938 0.95921 
0.203308 0.12089 0.971623 
0.203005 -0.223541 0.95332 
0.187999 -0.192216 0.963177 
0.198143 -0.175358 0.964359 
0.166213 -0.142022 0.975809 
0.138969 -0.118597 0.98317 
0.138433 -0.115483 0.983616 
0.10953 -0.0892992 0.989964 
0.104684 -0.0788541 0.991374 
0.0816409 -0.0689895 0.994271 
0.0802291 -0.0646824 0.994676 
0.0845348 -0.0564956 0.994818 
0.0606906 -0.0432979 0.997217 
0.0699617 -0.0430421 0.996621 
0.0556378 -0.0377853 0.997736 
0.0730348 -0.0370862 0.99664 
0.0579541 -0.0291462 0.997894 
0.0655212 -0.0251646 0.997534 
0.050315 -0.0126188 0.998654 
0.0599438 -0.00728422 0.998175 
0.0561494 0.00365669 0.998416 
0.053334 0.0143197 0.998474 
0.0753052 0.0437159 0.996202 
0.0783705 0.0508362 0.995627 
0.115491 0.0722624 0.990677 
0.115313 0.0736833 0.990593 
0.147241 0.0993853 0.984095 
0.179113 0.116853 0.976864 
0.15595 0.112582 0.981328 
0.166123 0.137744 0.976437 
0.184912 -0.253997 0.949365 
0.173111 -0.209039 0.962463 
0.156522 -0.175229 0.972006 
0.157873 -0.155875 0.975079 
0.130897 -0.127447 0.98317 
0.111112 -0.105269 0.988217 
0.11532 -0.0991536 0.988367 
0.0876749 -0.0747145 0.993343 
0.0830405 -0.0688505 0.994165 
0.063938 -0.0604872 0.996119 
0.0632462 -0.0550913 0.996476 
0.0585041 -0.0456393 0.997243 
0.0372224 -0.0379729 0.998585 
0.0441441 -0.0399301 0.998227 
0.0335343 -0.0328433 0.998898 
0.0422286 -0.0304731 0.998643 
0.026686 -0.0236968 0.999363 
0.0430259 -0.0171468 0.998927 
0.0295624 -0.00490824 0.999551 
0.0403686 -0.00238822 0.999182 
0.0368081 0.00310092 0.999318 
0.0377624 0.00936506 0.999243 
0.0523248 0.026607 0.998276 
0.0561633 0.0325116 0.997892 
0.0845308 0.050286 0.995151 
0.0834752 0.0558556 0.994943 
0.105991 0.0761265 0.991449 
0.130957 0.0943382 0.986889 
0.112852 0.101459 0.988418 
0.121516 0.135206 0.983338 
0.122604 0.178677 0.976239 
0.187794 -0.285994 0.939649 
0.163396 -0.224816 0.960604 
0.142614 -0.176003 0.974004 
0.125124 -0.14395 0.981643 
0.10265 -0.116616 0.987858 
0.0836442 -0.0946282 0.991993 
0.0893604 -0.0843699 0.992419 
0.0603965 -0.0627529 0.9962 
0.0605963 -0.0589639 0.996419 
0.0434914 -0.0474284 0.997927 
0.043931 -0.042567 0.998127 
0.0380883 -0.0361326 0.998621 
0.0234754 -0.0328026 0.999186 
0.0299792 -0.036775 0.998874 
0.022252 -0.0268301 0.999392 
0.0186902 -0.0241743 0.999533 
0.00617081 -0.0254478 0.999657 
0.0158761 -0.0181534 0.999709 
0.00576354 -0.00914633 0.999942 
0.0197259 0.00183021 0.999804 
0.0201922 0.00137116 0.999795 
0.0234709 0.00508377 0.999712 
0.0379672 0.0177451 0.999121 
0.0374893 0.020007 0.999097 
0.0591035 0.0348691 0.997643 
0.0531122 0.0467265 0.997495 
0.0687487 0.0643939 0.995554 
0.0823574 0.0804665 0.993349 
0.0883898 0.115685 0.989345 
0.101099 0.159281 0.982043 
0.114471 0.200564 0.97297 
0.195676 -0.289895 0.936841 
0.163153 -0.238183 0.957418 
0.136425 -0.187977 0.972652 
0.114766 -0.144102 0.982885 
0.0971531 -0.119283 0.988096 
0.0780231 -0.099288 0.991995 
0.0597818 -0.0793595 0.995052 
0.0606023 -0.0724115 0.995532 
0.0395532 -0.0532182 0.997799 
0.0395389 -0.0481704 0.998056 
0.0289382 -0.0362979 0.998922 
0.0272235 -0.0331593 0.999079 
0.0228198 -0.0292239 0.999312 
0.015561 -0.0304364 0.999416 
0.0216847 -0.0312318 0.999277 
0.010973 -0.0240153 0.999651 
0.00867227 -0.0228275 0.999702 
0.00192105 -0.0270152 0.999633 
0.000234851 -0.0233591 0.999727 
-0.000383267 -0.0152774 0.999883 
0.00505698 -0.00646085 0.999966 
0.0119881 -0.00942607 0.999884 
0.0117166 -0.001816 0.99993 
0.0219023 0.0112206 0.999697 
0.0190996 0.0102935 0.999765 
0.0348951 0.0238087 0.999107 
0.0331529 0.0370438 0.998764 
0.0462966 0.0551946 0.997402 
0.0567572 0.0691989 0.995987 
0.0662667 0.0958336 0.993189 
0.0817048 0.139997 0.986775 
0.0990257 0.180213 0.97863 
0.116521 0.235089 0.964964 
0.217138 -0.290113 0.932033 
0.169894 -0.238688 0.956119 
0.136165 -0.195307 0.971244 
0.111406 -0.152935 0.981937 
0.092712 -0.117987 0.988678 
0.0761826 -0.0966394 0.9924 
0.0584103 -0.0784823 0.995203 
0.0434538 -0.0601448 0.997243 
0.0416204 -0.058184 0.997438 
0.0322011 -0.043829 0.99852 
0.0291114 -0.0392297 0.998806 
0.0155564 -0.0322046 0.99936 
0.0138541 -0.0328943 0.999363 
0.0133537 -0.0309128 0.999433 
0.00702356 -0.0316274 0.999475 
0.00965343 -0.0281023 0.999558 
-0.00506974 -0.0244012 0.999689 
0.000418452 -0.0248517 0.999691 
-0.000488301 -0.0261938 0.999657 
0.00103858 -0.0218623 0.99976 
0.0022114 -0.0171647 0.99985 
0.00660008 -0.0173713 0.999827 
0.00922569 -0.0191264 0.999775 
0.00264734 -0.00744929 0.999969 
0.00799077 0.00594499 0.99995 
0.0092676 0.00500838 0.999945 
0.0182571 0.0134222 0.999743 
0.0202066 0.023278 0.999525 
0.0353811 0.040956 0.998534 
0.0467584 0.0533164 0.997482 
0.0517608 0.0747351 0.995859 
0.0587992 0.112804 0.991876 
0.0731936 0.152361 0.985611 
0.0929201 0.193783 0.976634 
0.119949 0.246325 0.961736 
0.198433 -0.264809 0.943663 
0.165591 -0.22726 0.959652 
0.134851 -0.188396 0.972791 
0.10987 -0.155419 0.98172 
0.0899847 -0.12319 0.988295 
0.0723415 -0.0955932 0.992788 
0.0545116 -0.0755709 0.995649 
0.0387243 -0.0578483 0.997574 
0.0328668 -0.0447986 0.998455 
0.0232266 -0.0350305 0.999116 
0.0192403 -0.0326134 0.999283 
0.00102031 -0.0300685 0.999547 
-0.00136157 -0.0333542 0.999443 
0.00303208 -0.0343839 0.999404 
-0.00229628 -0.0272791 0.999625 
-0.00308472 -0.0257925 0.999663 
-0.0114996 -0.0231744 0.999665 
-0.00857735 -0.0262257 0.999619 
-0.00673554 -0.0257352 0.999646 
-0.0019652 -0.0206048 0.999786 
-0.00851395 -0.0212735 0.999737 
0.00306006 -0.0228973 0.999733 
-0.00264204 -0.0229182 0.999734 
-0.00701292 -0.0134051 0.999886 
0.00112869 0.00100939 0.999999 
0.00432867 0.000383504 0.999991 
0.00923119 0.0092965 0.999914 
0.0142986 0.023588 0.99962 
0.0268028 0.0386408 0.998894 
0.0326851 0.0563127 0.997878 
0.033834 0.0854743 0.995766 
0.0406744 0.119711 0.991975 
0.0574297 0.154377 0.986341 
0.0800802 0.194398 0.977648 
0.102682 0.233586 0.966899 
0.171045 -0.242612 0.954926 
0.146319 -0.210851 0.966505 
0.12375 -0.174442 0.97686 
0.102397 -0.146581 0.983885 
0.0827889 -0.12317 0.988926 
0.0665318 -0.0972151 0.993037 
0.051467 -0.0748564 0.995865 
0.0371681 -0.0593761 0.997543 
0.0275746 -0.0464265 0.998541 
0.0208061 -0.0363344 0.999123 
0.0105981 -0.0294433 0.99951 
0.006139 -0.0286025 0.999572 
1.41615e-06 -0.026196 0.999657 
-0.0067513 -0.0237779 0.999694 
-0.00688643 -0.0267655 0.999618 
-0.00753555 -0.0196846 0.999778 
-0.0069603 -0.0222738 0.999728 
-0.00793332 -0.0211941 0.999744 
-0.00993009 -0.0237441 0.999669 
-0.0102137 -0.0231251 0.99968 
-0.0110943 -0.0238731 0.999653 
-0.0149477 -0.0251896 0.999571 
-0.0122647 -0.0249462 0.999614 
-0.0149519 -0.0209301 0.999669 
-0.0105529 -0.0180769 0.999781 
-0.00455851 -0.00878247 0.999951 
-0.00238581 -0.0102057 0.999945 
0.000622729 -0.00159721 0.999999 
0.00149694 0.00950801 0.999954 
0.00433319 0.0263768 0.999643 
0.0126628 0.0451395 0.9989 
0.0202517 0.0654414 0.997651 
0.0256247 0.090618 0.995556 
0.0337493 0.121581 0.992008 
0.0490931 0.159124 0.986037 
0.0661377 0.201072 0.977341 
0.0768764 0.245334 0.966386 
0.13829 -0.240758 0.960683 
0.122834 -0.207456 0.970502 
0.105289 -0.169107 0.979958 
0.0873438 -0.137367 0.986662 
0.0694168 -0.11809 0.990574 
0.0550823 -0.097747 0.993686 
0.0454598 -0.0750173 0.996145 
0.0360723 -0.0584815 0.997637 
0.0269696 -0.0465861 0.99855 
0.0194058 -0.034719 0.999209 
0.0112502 -0.0277613 0.999551 
0.0056875 -0.0275495 0.999604 
0.00422523 -0.0222626 0.999743 
-0.0012294 -0.015091 0.999885 
-0.00855117 -0.0147282 0.999855 
-0.00910694 -0.0191269 0.999776 
-0.00749736 -0.0227739 0.999713 
-0.00968752 -0.0237935 0.99967 
-0.00890946 -0.0196373 0.999767 
-0.0120024 -0.0196837 0.999734 
-0.0121201 -0.0247017 0.999621 
-0.00849633 -0.0259545 0.999627 
-0.015334 -0.0224776 0.99963 
-0.0119752 -0.0193838 0.99974 
-0.00944778 -0.0178413 0.999796 
-0.0070369 -0.0177299 0.999818 
-0.00487964 -0.0131087 0.999902 
-0.00205092 -0.00567452 0.999982 
-0.00239671 0.00983232 0.999949 
-8.58341e-06 0.0306674 0.99953 
0.0117514 0.0473843 0.998808 
0.0243084 0.0640321 0.997652 
0.0285677 0.0904847 0.995488 
0.0310438 0.128048 0.991282 
0.0395086 0.17091 0.984494 
0.0461826 0.21249 0.976071 
0.0402508 0.2518 0.966942 
0.0938984 -0.239718 0.966291 
0.0974203 -0.21033 0.972764 
0.0860623 -0.172646 0.981217 
0.0727543 -0.134445 0.988247 
0.0585896 -0.110335 0.992166 
0.0460145 -0.0936128 0.994545 
0.0363744 -0.0737062 0.996616 
0.027955 -0.0554502 0.99807 
0.0211536 -0.0411177 0.99893 
0.0165933 -0.0277235 0.999478 
0.0114535 -0.0209423 0.999715 
0.00679301 -0.025196 0.999659 
0.00315507 -0.0262004 0.999652 
0.000322372 -0.0195296 0.999809 
-0.00221377 -0.0109157 0.999938 
-0.00582254 -0.0118397 0.999913 
-0.00625866 -0.0234613 0.999705 
-0.0103128 -0.0283017 0.999546 
-0.0133322 -0.0301962 0.999455 
-0.0124791 -0.0215316 0.99969 
-0.0109637 -0.0218881 0.9997 
-0.00885358 -0.0232342 0.999691 
-0.00713416 -0.0289188 0.999556 
-0.00847483 -0.0236212 0.999685 
-0.0108911 -0.0191362 0.999758 
-0.00509447 -0.0208752 0.999769 
-0.00559117 -0.0162437 0.999852 
-0.00563847 -0.0151948 0.999869 
-0.00246666 -0.0124206 0.99992 
-0.000185958 -0.00476434 0.999989 
-0.00171131 0.0129658 0.999914 
0.00055962 0.0309483 0.999521 
0.0114962 0.0444211 0.998947 
0.0193946 0.0648144 0.997709 
0.018103 0.0981901 0.995003 
0.018522 0.139315 0.990075 
0.0248894 0.181804 0.98302 
0.0267377 0.225138 0.97396 
0.0145928 0.280054 0.959873 
0.0781238 -0.26784 0.960291 
0.0790033 -0.215896 0.973215 
0.0711478 -0.177784 0.981494 
0.0596644 -0.138766 0.988526 
0.0505742 -0.107206 0.99295 
0.0411823 -0.0860756 0.995437 
0.0310146 -0.0678798 0.997211 
0.0204497 -0.0507711 0.998501 
0.0118782 -0.0368283 0.999251 
0.00818602 -0.0241069 0.999676 
0.00570363 -0.0169411 0.99984 
-0.00016745 -0.0201356 0.999797 
-0.00504698 -0.0233697 0.999714 
-0.00794198 -0.016986 0.999824 
-0.00541921 -0.013677 0.999892 
-0.00231625 -0.0157841 0.999873 
-0.000351237 -0.0219527 0.999759 
-0.00918186 -0.0294308 0.999525 
-0.00898942 -0.0319969 0.999448 
-0.0108261 -0.029901 0.999494 
-0.00336328 -0.0261288 0.999653 
-0.00674402 -0.0239663 0.99969 
-0.00830843 -0.0335023 0.999404 
-0.0119825 -0.0311451 0.999443 
-0.0103318 -0.0288438 0.999531 
-0.00290436 -0.0215576 0.999763 
0.000697324 -0.0173299 0.99985 
-0.00222665 -0.0120698 0.999925 
-0.00328585 -0.0105772 0.999939 
-0.00239817 0.000830049 0.999997 
-0.00169253 0.0199675 0.999799 
0.00120578 0.0355903 0.999366 
0.00539907 0.0521494 0.998625 
0.00731002 0.0784491 0.996891 
0.00851435 0.11246 0.99362 
0.0125539 0.151332 0.988403 
0.017544 0.195982 0.980451 
0.0191443 0.245352 0.969245 
0.0176615 0.313015 0.949584 
0.0700574 -0.264249 0.961907 
0.0668169 -0.220354 0.973129 
0.0566563 -0.182428 0.981585 
0.0467503 -0.150406 0.987518 
0.0383091 -0.117692 0.992311 
0.0312665 -0.0883297 0.9956 
0.0243291 -0.0657265 0.997541 
0.019038 -0.04783 0.998674 
0.0139899 -0.0348997 0.999293 
0.0081647 -0.0260545 0.999627 
0.00248115 -0.0201258 0.999794 
-0.0033558 -0.0180388 0.999832 
-0.00719061 -0.0179154 0.999814 
-0.00723665 -0.0156836 0.999851 
-0.00554978 -0.0147158 0.999876 
-0.00169319 -0.0181908 0.999833 
-0.00234818 -0.0197572 0.999802 
-0.00595606 -0.0229881 0.999718 
-0.0042938 -0.0275958 0.99961 
-0.00226791 -0.0341053 0.999416 
0.00118349 -0.0256687 0.99967 
-0.00280418 -0.0245982 0.999693 
-0.00244995 -0.0349799 0.999385 
-0.00688829 -0.0353573 0.999351 
-0.00275452 -0.0294628 0.999562 
0.000621735 -0.02542 0.999677 
-0.00147483 -0.0182401 0.999833 
-0.00634526 -0.0154049 0.999861 
-0.00880867 -0.00997104 0.999911 
-0.00328103 0.00715288 0.999969 
0.00378141 0.0270741 0.999626 
0.00510852 0.043185 0.999054 
0.00440674 0.0630574 0.998 
0.00832534 0.0897898 0.995926 
0.0139149 0.124869 0.992076 
0.0153987 0.169562 0.985399 
0.014929 0.218846 0.975645 
0.018297 0.272021 0.962117 
0.0253495 0.333528 0.942399 
0.0498169 -0.263351 0.963413 
0.0470265 -0.205531 0.97752 
0.0376663 -0.167638 0.985129 
0.0300049 -0.134748 0.990426 
0.0236407 -0.0989944 0.994807 
0.0154223 -0.0716716 0.997309 
0.0130346 -0.0530968 0.998504 
0.0160981 -0.0375647 0.999165 
0.0138891 -0.0272376 0.999532 
0.00511733 -0.0220959 0.999743 
-0.0032665 -0.0183634 0.999826 
-0.00453736 -0.01521 0.999874 
-0.000610437 -0.012937 0.999916 
0.000960911 -0.0132141 0.999912 
-0.00261772 -0.0177469 0.999839 
-0.00485817 -0.0207554 0.999773 
-0.00709425 -0.0201604 0.999772 
-0.00703729 -0.0188324 0.999798 
-0.00281749 -0.0225461 0.999742 
0.00117413 -0.0282498 0.9996 
-0.00212305 -0.020289 0.999792 
-0.000565119 -0.0246226 0.999697 
0.000742444 -0.0343222 0.999411 
0.00337891 -0.0367108 0.99932 
0.00235839 -0.031589 0.999498 
-0.00285546 -0.0274968 0.999618 
-0.00586011 -0.0244673 0.999683 
-0.00521632 -0.0191859 0.999802 
-0.00621707 -0.01632 0.999847 
-0.00518915 -0.00868571 0.999949 
0.00224649 0.00941725 0.999953 
0.00714667 0.0283034 0.999574 
0.00286891 0.046804 0.9989 
0.00185191 0.0694087 0.997587 
0.00953486 0.101367 0.994803 
0.0145895 0.146939 0.989038 
0.0158333 0.198446 0.979984 
0.0214605 0.254802 0.966755 
0.0293769 0.325182 0.945195 
0.0407893 -0.254365 0.966248 
0.0331362 -0.212789 0.976536 
0.0236912 -0.177424 0.983849 
0.0189312 -0.144695 0.989295 
0.0178883 -0.105711 0.994236 
0.0125857 -0.0747878 0.99712 
0.00617724 -0.0594573 0.998212 
0.00712779 -0.04583 0.998924 
0.00962411 -0.0314507 0.999459 
0.00642127 -0.0224567 0.999727 
0.00146288 -0.0163302 0.999866 
-0.000198378 -0.0127497 0.999919 
0.00241591 -0.0133381 0.999908 
0.00493767 -0.0143509 0.999885 
0.00277915 -0.013873 0.9999 
-0.00110936 -0.016351 0.999866 
-0.00258255 -0.0212747 0.99977 
-0.00289447 -0.0237992 0.999713 
0.00175385 -0.0238772 0.999713 
-0.00299736 -0.0239416 0.999709 
-0.00100222 -0.0216009 0.999766 
-0.00224029 -0.0278491 0.99961 
0.00168561 -0.0360773 0.999348 
0.00353619 -0.0329398 0.999451 
-0.00130166 -0.0280788 0.999605 
-0.00701819 -0.025289 0.999656 
-0.00268412 -0.019519 0.999806 
0.0051697 -0.0148906 0.999876 
0.00493436 -0.0121245 0.999914 
0.00173306 -0.00354368 0.999992 
0.00218196 0.0117497 0.999929 
-0.00178719 0.0319466 0.999488 
-0.0081744 0.0554719 0.998427 
-0.00522341 0.0821154 0.996609 
0.00381171 0.121209 0.99262 
0.0111857 0.16882 0.985583 
0.0208978 0.213762 0.976662 
0.0352891 0.266319 0.963239 
0.0545157 0.32931 0.942647 
0.0118967 -0.236334 0.971599 
0.00774149 -0.194974 0.980778 
0.000503497 -0.158379 0.987378 
0.000159688 -0.118375 0.992969 
0.00445225 -0.0808073 0.99672 
0.00273247 -0.0622135 0.998059 
-0.000459941 -0.0509598 0.998701 
-0.000449209 -0.037283 0.999305 
0.000746376 -0.0273746 0.999625 
0.00378546 -0.0179819 0.999831 
0.00638125 -0.00869945 0.999942 
0.00499635 -0.00936819 0.999944 
0.00265513 -0.0153606 0.999878 
0.00321516 -0.0142605 0.999893 
0.00489523 -0.0109689 0.999928 
0.00571513 -0.0149898 0.999871 
0.00536112 -0.0230883 0.999719 
0.00630483 -0.0251746 0.999663 
0.000660047 -0.0304975 0.999535 
0.00907856 -0.0211875 0.999734 
0.00199586 -0.0365484 0.99933 
0.00374744 -0.0285614 0.999585 
0.00218238 -0.0299322 0.99955 
0.00477464 -0.0300888 0.999536 
0.00757863 -0.0292947 0.999542 
0.00473611 -0.0280931 0.999594 
0.00211458 -0.0250012 0.999685 
0.00740689 -0.0195149 0.999782 
0.0109411 -0.0136978 0.999846 
0.00563757 -0.00627359 0.999964 
0.00121552 0.00414144 0.999991 
-0.000338374 0.0208754 0.999782 
-0.00463564 0.0457383 0.998943 
-0.00599985 0.0700526 0.997525 
-0.00192252 0.0981222 0.995173 
0.00261543 0.142584 0.989779 
0.00986065 0.190287 0.981679 
0.0172853 0.240252 0.970557 
0.0179003 0.30305 0.952806 
-0.0256189 -0.251216 0.967592 
-0.0187179 -0.210394 0.977438 
-0.0189488 -0.173888 0.984583 
-0.0183629 -0.137748 0.990297 
-0.0112668 -0.100042 0.994919 
-0.00502178 -0.0729104 0.997326 
-0.00445873 -0.0560662 0.998417 
-0.00516576 -0.0400628 0.999184 
-0.00480209 -0.0305617 0.999521 
-0.00198817 -0.0247624 0.999691 
0.00289619 -0.0122419 0.999921 
0.00396627 -0.00297198 0.999988 
0.000229225 -0.00743522 0.999972 
-0.00051968 -0.0146059 0.999893 
0.00412689 -0.0142259 0.99989 
0.00731891 -0.0129398 0.999889 
0.00678141 -0.0164489 0.999842 
0.00464607 -0.0219906 0.999747 
0.0156229 -0.0197191 0.999683 
0.0284006 -0.02551 0.999271 
0.0173951 -0.0330918 0.999301 
0.00643004 -0.0296598 0.999539 
0.00954773 -0.0245012 0.999654 
0.014492 -0.0268436 0.999535 
0.0170953 -0.0276202 0.999472 
0.0122145 -0.0264328 0.999576 
0.00651453 -0.0254561 0.999655 
0.00471028 -0.0210735 0.999767 
0.00305452 -0.00961476 0.999949 
0.00306524 0.00358565 0.999989 
0.00629173 0.0166727 0.999841 
0.00759907 0.0371573 0.999281 
0.0079686 0.0608883 0.998113 
0.00871641 0.0816219 0.996625 
0.00463186 0.115081 0.993345 
0.00101598 0.163763 0.986499 
0.00336711 0.208552 0.978005 
0.00520841 0.249664 0.968319 
0.00727445 0.295423 0.955339 
-0.048666 -0.260578 0.964225 
-0.0396231 -0.207664 0.977397 
-0.0310145 -0.165458 0.985729 
-0.0213366 -0.127258 0.99164 
-0.0121292 -0.09228 0.995659 
-0.00933254 -0.0672148 0.997695 
-0.00936948 -0.0462246 0.998887 
-0.00781104 -0.0305478 0.999503 
-0.00638484 -0.0238533 0.999695 