# vtk DataFile Version 3.0 
Exported using Morpho https://github.com/Morpho-lang/morpho 
ASCII 
DATASET UNSTRUCTURED_GRID 

POINTS 1245 float 
-0.303845 -0.952721 0 
-0.250833 -0.96803 0 
-0.195084 -0.980787 0 
-0.146308 -0.989239 0 
-0.0940719 -0.995565 0 
-0.0475118 -0.998871 0 
-0.000246339 -1 0 
0.0470875 -0.998891 0 
0.0937543 -0.995595 0 
0.146139 -0.989264 0 
0.195062 -0.980791 0 
0.250843 -0.968028 0 
0.303953 -0.952687 0 
-0.409153 -0.912466 0 
-0.356519 -0.934288 0 
-0.308871 -0.898929 0 
-0.258282 -0.916037 0 
-0.207345 -0.934859 0 
-0.154868 -0.930629 0 
-0.104343 -0.948989 0 
-0.0520099 -0.939193 0 
-8.5762e-05 -0.954582 0 
0.0518744 -0.939288 0 
0.104354 -0.949042 0 
0.154696 -0.9306 0 
0.207366 -0.934975 0 
0.258274 -0.916081 0 
0.308979 -0.898924 0 
0.356593 -0.93426 0 
0.409236 -0.912429 0 
-0.513788 -0.857917 0 
-0.461695 -0.887039 0 
-0.411157 -0.857936 0 
-0.359855 -0.879963 0 
-0.306888 -0.847481 0 
-0.254732 -0.866979 0 
-0.201991 -0.889059 0 
-0.149956 -0.874108 0 
-0.100608 -0.900088 0 
-0.0497575 -0.880388 0 
2.4595e-05 -0.904789 0 
0.0496869 -0.8804 0 
0.100612 -0.900177 0 
0.149872 -0.874171 0 
0.202071 -0.889165 0 
0.254695 -0.867031 0 
0.306946 -0.847482 0 
0.359894 -0.879943 0 
0.411236 -0.857929 0 
0.461748 -0.887011 0 
0.513842 -0.857885 0 
-0.564741 -0.825268 0 
-0.512908 -0.802945 0 
-0.462372 -0.832348 0 
-0.410124 -0.804631 0 
-0.358606 -0.827415 0 
-0.305781 -0.795641 0 
-0.25358 -0.816639 0 
-0.200756 -0.839997 0 
-0.149043 -0.818944 0 
-0.0987265 -0.846667 0 
-0.0490473 -0.822548 0 
5.00659e-05 -0.849932 0 
0.0490834 -0.822542 0 
0.0987838 -0.846676 0 
0.148997 -0.818924 0 
0.200826 -0.840131 0 
0.253508 -0.816728 0 
0.305831 -0.795701 0 
0.358581 -0.827419 0 
0.410181 -0.804654 0 
0.462414 -0.83234 0 
0.512965 -0.802929 0 
0.564777 -0.825243 0 
-0.660798 -0.750564 0 
-0.614015 -0.789295 0 
-0.561786 -0.769772 0 
-0.510673 -0.747856 0 
-0.460836 -0.778365 0 
-0.408794 -0.751554 0 
-0.357337 -0.774971 0 
-0.304815 -0.743684 0 
-0.252907 -0.765535 0 
-0.200631 -0.789263 0 
-0.149244 -0.764328 0 
-0.0986912 -0.791935 0 
-0.0492815 -0.765764 0 
4.16586e-05 -0.79382 0 
0.0492411 -0.765708 0 
0.0987508 -0.791951 0 
0.149196 -0.764326 0 
0.200666 -0.789356 0 
0.252841 -0.765599 0 
0.304862 -0.743741 0 
0.357323 -0.775038 0 
0.408863 -0.751626 0 
0.460863 -0.778382 0 
0.510716 -0.747859 0 
0.561819 -0.769761 0 
0.614041 -0.789274 0 
0.660811 -0.750552 0 
-0.707107 -0.707107 0 
-0.654819 -0.699058 0 
-0.60813 -0.73348 0 
-0.558104 -0.71337 0 
-0.509495 -0.692659 0 
-0.45935 -0.724356 0 
-0.407328 -0.698865 0 
-0.355968 -0.722823 0 
-0.303722 -0.691387 0 
-0.252254 -0.71362 0 
-0.20067 -0.737336 0 
-0.149608 -0.710068 0 
-0.0991558 -0.737129 0 
-0.0495872 -0.709825 0 
-2.23646e-05 -0.737917 0 
0.0494408 -0.709766 0 
0.0991291 -0.737116 0 
0.149502 -0.710042 0 
0.200696 -0.73743 0 
0.252186 -0.713735 0 
0.303753 -0.691518 0 
0.355952 -0.722893 0 
0.407371 -0.698945 0 
0.459374 -0.724407 0 
0.509524 -0.692668 0 
0.558131 -0.713361 0 
0.608151 -0.733462 0 
0.654824 -0.699048 0 
0.707107 -0.707107 0 
-0.750564 -0.660798 0 
-0.699058 -0.654819 0 
-0.647692 -0.647692 0 
-0.603437 -0.675718 0 
-0.55905 -0.655305 0 
-0.508501 -0.639581 0 
-0.457509 -0.671321 0 
-0.405555 -0.646545 0 
-0.354417 -0.670703 0 
-0.302427 -0.639219 0 
-0.251503 -0.661417 0 
-0.20061 -0.684911 0 
-0.149717 -0.655943 0 
-0.0995004 -0.682466 0 
-0.0498216 -0.654561 0 
-5.02113e-05 -0.682664 0 
0.0496787 -0.654499 0 
0.0994374 -0.682501 0 
0.149603 -0.655909 0 
0.200573 -0.684972 0 
0.251388 -0.661524 0 
0.302407 -0.639359 0 
0.354397 -0.670836 0 
0.405575 -0.646641 0 
0.457525 -0.67138 0 
0.508497 -0.639623 0 
0.559063 -0.655324 0 
0.603436 -0.675715 0 
0.64769 -0.64769 0 
0.699048 -0.654824 0 
0.750552 -0.660811 0 
-0.789295 -0.614015 0 
-0.73348 -0.60813 0 
-0.675718 -0.603437 0 
-0.613088 -0.613088 0 
-0.55962 -0.604068 0 
-0.506189 -0.588854 0 
-0.455505 -0.618874 0 
-0.403019 -0.594688 0 
-0.352514 -0.618952 0 
-0.300977 -0.586897 0 
-0.250543 -0.608767 0 
-0.200257 -0.632053 0 
-0.150049 -0.601979 0 
-0.0998281 -0.628222 0 
-0.0500377 -0.599914 0 
-3.12334e-05 -0.628076 0 
0.0498927 -0.599835 0 
0.0997818 -0.628253 0 
0.149924 -0.601867 0 
0.200214 -0.632118 0 
0.250423 -0.608915 0 
0.30086 -0.587085 0 
0.352457 -0.619096 0 
0.402948 -0.594743 0 
0.455483 -0.618952 0 
0.506147 -0.588901 0 
0.55964 -0.604067 0 
0.613069 -0.613069 0 
0.675715 -0.603436 0 
0.733462 -0.608151 0 
0.789274 -0.614041 0 
-0.825268 -0.564741 0 
-0.769772 -0.561786 0 
-0.71337 -0.558104 0 
-0.655305 -0.55905 0 
-0.604068 -0.55962 0 
-0.551031 -0.551031 0 
-0.497922 -0.537596 0 
-0.451508 -0.567021 0 
-0.399773 -0.542431 0 
-0.350494 -0.567003 0 
-0.301574 -0.534146 0 
-0.250874 -0.555692 0 
-0.200542 -0.579013 0 
-0.150324 -0.548268 0 
-0.100169 -0.57443 0 
-0.0500152 -0.545912 0 
-3.29278e-05 -0.574268 0 
0.0499208 -0.545788 0 
0.100058 -0.574485 0 
0.150038 -0.548073 0 
0.200377 -0.579041 0 
0.250556 -0.55585 0 
0.301273 -0.534348 0 
0.350318 -0.567174 0 
0.399615 -0.542384 0 
0.451404 -0.5671 0 
0.497945 -0.537702 0 
0.551073 -0.551073 0 
0.604067 -0.55964 0 
0.655324 -0.559063 0 
0.713361 -0.558131 0 
0.769761 -0.561819 0 
0.825243 -0.564777 0 
-0.857917 -0.513788 0 
-0.802945 -0.512908 0 
-0.747856 -0.510673 0 
-0.692659 -0.509495 0 
-0.639581 -0.508501 0 
-0.588854 -0.506189 0 
-0.537596 -0.497922 0 
-0.486157 -0.486157 0 
-0.444928 -0.512952 0 
-0.401787 -0.486784 0 
-0.351685 -0.513639 0 
-0.299695 -0.48291 0 
-0.250032 -0.503 0 
-0.200501 -0.526165 0 
-0.149489 -0.495195 0 
-0.0999281 -0.521367 0 
-0.0499712 -0.492294 0 
4.64723e-05 -0.520999 0 
0.050147 -0.492108 0 
0.099934 -0.52133 0 
0.14957 -0.494692 0 
0.200133 -0.526255 0 
0.249839 -0.503309 0 
0.299839 -0.483005 0 
0.351514 -0.513798 0 
0.401881 -0.486608 0 
0.444935 -0.513054 0 
0.486228 -0.486228 0 
0.537702 -0.497945 0 
0.588901 -0.506147 0 
0.639623 -0.508497 0 
0.692668 -0.509524 0 
0.747859 -0.510716 0 
0.802929 -0.512965 0 
0.857885 -0.513842 0 
-0.887039 -0.461695 0 
-0.832348 -0.462372 0 
-0.778365 -0.460836 0 
-0.724356 -0.45935 0 
-0.671321 -0.457509 0 
-0.618874 -0.455505 0 
-0.567021 -0.451508 0 
-0.512952 -0.444928 0 
-0.450685 -0.450685 0 
-0.397667 -0.437543 0 
-0.348492 -0.462546 0 
-0.295416 -0.432968 0 
-0.247004 -0.450633 0 
-0.198702 -0.473818 0 
-0.150161 -0.441625 0 
-0.100085 -0.468395 0 
-0.0502271 -0.439281 0 
0.000144229 -0.468374 0 
0.0504178 -0.439106 0 
0.100428 -0.468348 0 
0.150697 -0.441105 0 
0.199103 -0.473881 0 
0.247983 -0.450921 0 
0.296569 -0.432268 0 
0.348831 -0.462562 0 
0.397506 -0.4368 0 
0.450637 -0.450637 0 
0.513054 -0.444935 0 
0.5671 -0.451404 0 
0.618952 -0.455483 0 
0.67138 -0.457525 0 
0.724407 -0.459374 0 
0.778382 -0.460863 0 
0.83234 -0.462414 0 
0.887011 -0.461748 0 
-0.912466 -0.409153 0 
-0.857936 -0.411157 0 
-0.804631 -0.410124 0 
-0.751554 -0.408794 0 
-0.698865 -0.407328 0 
-0.646545 -0.405555 0 
-0.594688 -0.403019 0 
-0.542431 -0.399773 0 
-0.486784 -0.401787 0 
-0.437543 -0.397667 0 
-0.387256 -0.387256 0 
-0.344215 -0.411459 0 
-0.30136 -0.381507 0 
-0.25021 -0.395692 0 
-0.200211 -0.419975 0 
-0.150955 -0.389014 0 
-0.100617 -0.416095 0 
-0.0503197 -0.386922 0 
-4.02994e-05 -0.416525 0 
0.05006 -0.386948 0 
0.100784 -0.416323 0 
0.150432 -0.388572 0 
0.200855 -0.420694 0 
0.25086 -0.396905 0 
0.301746 -0.379789 0 
0.344135 -0.410678 0 
0.385823 -0.385823 0 
0.4368 -0.397506 0 
0.486608 -0.401881 0 
0.542384 -0.399615 0 
0.594743 -0.402948 0 
0.646641 -0.405575 0 
0.698945 -0.407371 0 
0.751626 -0.408863 0 
0.804654 -0.410181 0 
0.857929 -0.411236 0 
0.912429 -0.409236 0 
-0.934288 -0.356519 0 
-0.879963 -0.359855 0 
-0.827415 -0.358606 0 
-0.774971 -0.357337 0 
-0.722823 -0.355968 0 
-0.670703 -0.354417 0 
-0.618952 -0.352514 0 
-0.567003 -0.350494 0 
-0.513639 -0.351685 0 
-0.462546 -0.348492 0 
-0.411459 -0.344215 0 
-0.351697 -0.351697 0 
-0.29839 -0.336232 0 
-0.249846 -0.342529 0 
-0.200971 -0.367271 0 
-0.149995 -0.337521 0 
-0.100435 -0.3646 0 
-0.0498692 -0.335025 0 
-6.88684e-05 -0.365025 0 
0.0495433 -0.334795 0 
0.0996798 -0.364834 0 
0.148162 -0.337172 0 
0.199644 -0.368939 0 
0.24763 -0.345582 0 
0.295348 -0.332889 0 
0.34978 -0.34978 0 
0.410678 -0.344135 0 
0.462562 -0.348831 0 
0.513798 -0.351514 0 
0.567174 -0.350318 0 
0.619096 -0.352457 0 
0.670836 -0.354397 0 
0.722893 -0.355952 0 
0.775038 -0.357323 0 
0.827419 -0.358581 0 
0.879943 -0.359894 0 
0.93426 -0.356593 0 
-0.952721 -0.303845 0 
-0.898929 -0.308871 0 
-0.847481 -0.306888 0 
-0.795641 -0.305781 0 
-0.743684 -0.304815 0 
-0.691387 -0.303722 0 
-0.639219 -0.302427 0 
-0.586897 -0.300977 0 
-0.534146 -0.301574 0 
-0.48291 -0.299695 0 
-0.432968 -0.295416 0 
-0.381507 -0.30136 0 
-0.336232 -0.29839 0 
-0.288184 -0.288184 0 
-0.242975 -0.290577 0 
-0.198059 -0.315051 0 
-0.148383 -0.285894 0 
-0.0994753 -0.313232 0 
-0.0507184 -0.283118 0 
-0.000202902 -0.313447 0 
0.0500077 -0.282824 0 
0.0988289 -0.312817 0 
0.148102 -0.28482 0 
0.195742 -0.317413 0 
0.240766 -0.295824 0 
0.285014 -0.285014 0 
0.332889 -0.295348 0 
0.379789 -0.301746 0 
0.432268 -0.296569 0 
0.483005 -0.299839 0 
0.534348 -0.301273 0 
0.587085 -0.30086 0 
0.639359 -0.302407 0 
0.691518 -0.303753 0 
0.743741 -0.304862 0 
0.795701 -0.305831 0 
0.847482 -0.306946 0 
0.898924 -0.308979 0 
0.952687 -0.303953 0 
-0.96803 -0.250833 0 
-0.916037 -0.258282 0 
-0.866979 -0.254732 0 
-0.816639 -0.25358 0 
-0.765535 -0.252907 0 
-0.71362 -0.252254 0 
-0.661417 -0.251503 0 
-0.608767 -0.250543 0 
-0.555692 -0.250874 0 
-0.503 -0.250032 0 
-0.450633 -0.247004 0 
-0.395692 -0.25021 0 
-0.342529 -0.249846 0 
-0.290577 -0.242975 0 
-0.239946 -0.239946 0 
-0.194478 -0.26004 0 
-0.151293 -0.23238 0 
-0.101048 -0.260904 0 
-0.0503938 -0.232537 0 
-0.000203281 -0.262984 0 
0.050638 -0.232316 0 
0.100942 -0.260855 0 
0.152412 -0.232597 0 
0.195768 -0.261421 0 
0.241873 -0.241873 0 
0.295824 -0.240766 0 
0.345582 -0.24763 0 
0.396905 -0.25086 0 
0.450921 -0.247983 0 
[...]
POINT_DATA 1245 
VECTORS vectors float
0.396269 -0.156933 0.904623 
0.402136 -0.135841 0.905447 
0.407531 -0.114698 0.905959 
0.410939 -0.0979226 0.906389 
0.412182 -0.0815497 0.907445 
0.410427 -0.0679479 0.909359 
0.405245 -0.0542725 0.912596 
0.395614 -0.0385208 0.917609 
0.383463 -0.0195405 0.923349 
0.367789 0.00770967 0.929877 
0.35395 0.0386747 0.934464 
0.342266 0.0799352 0.936197 
0.337874 0.120498 0.933446 
0.382638 -0.198672 0.902285 
0.389912 -0.178055 0.903474 
0.348457 -0.148743 0.925448 
0.354731 -0.130528 0.925812 
0.364397 -0.11342 0.924311 
0.353923 -0.0938053 0.930558 
0.365773 -0.0792827 0.927321 
0.350196 -0.0615432 0.934652 
0.358566 -0.0471574 0.932312 
0.336989 -0.0268524 0.941125 
0.338647 -0.0069123 0.940888 
0.317707 0.019726 0.947984 
0.318368 0.0496337 0.946667 
0.307024 0.0818158 0.948179 
0.303495 0.11333 0.946069 
0.339789 0.157284 0.927257 
0.34556 0.186986 0.919578 
0.362624 -0.238011 0.90103 
0.373757 -0.218576 0.901405 
0.33597 -0.185982 0.923328 
0.342651 -0.167351 0.924437 
0.305426 -0.138048 0.942156 
0.312049 -0.121086 0.942318 
0.322866 -0.10485 0.940619 
0.303511 -0.0850741 0.949022 
0.320131 -0.0721911 0.944619 
0.297562 -0.0538996 0.95318 
0.312941 -0.0406884 0.948901 
0.287421 -0.0208316 0.957578 
0.298408 -0.00301493 0.954434 
0.275753 0.0205508 0.961009 
0.285587 0.0464769 0.957225 
0.274136 0.0747234 0.958783 
0.269698 0.101628 0.957567 
0.304353 0.141908 0.94193 
0.307103 0.165679 0.937144 
0.351296 0.207945 0.91288 
0.352762 0.220976 0.909246 
0.349105 -0.25748 0.901016 
0.317368 -0.222621 0.921801 
0.327706 -0.204387 0.922407 
0.293627 -0.172961 0.940142 
0.299823 -0.155484 0.941239 
0.266018 -0.12816 0.955411 
0.272734 -0.112477 0.955492 
0.282667 -0.0975653 0.954243 
0.260328 -0.0779475 0.962369 
0.275683 -0.0654806 0.959016 
0.252501 -0.0477555 0.966417 
0.268389 -0.034934 0.962677 
0.244546 -0.0164976 0.969497 
0.258495 7.04794e-05 0.966013 
0.238285 0.0209827 0.970969 
0.252805 0.0444789 0.966494 
0.242202 0.0684135 0.967811 
0.237282 0.0912535 0.967145 
0.269111 0.125913 0.954843 
0.269353 0.146485 0.951836 
0.308519 0.183529 0.933345 
0.305509 0.196276 0.93174 
0.346713 0.228956 0.909599 
0.317713 -0.297849 0.900191 
0.333728 -0.277483 0.900905 
0.304933 -0.240681 0.92146 
0.276182 -0.207383 0.938465 
0.285914 -0.19025 0.939179 
0.255383 -0.160684 0.953394 
0.261041 -0.144259 0.954488 
0.230542 -0.118745 0.96579 
0.236613 -0.104369 0.965982 
0.245457 -0.0905636 0.965168 
0.222454 -0.0716784 0.972305 
0.235615 -0.059666 0.970013 
0.213832 -0.0428724 0.975929 
0.228351 -0.0303581 0.973105 
0.207474 -0.0134475 0.978148 
0.221927 0.00216382 0.975061 
0.204881 0.0205528 0.978571 
0.221298 0.0418417 0.974308 
0.21187 0.0622776 0.975312 
0.206651 0.0817838 0.974991 
0.235483 0.111998 0.965404 
0.23385 0.130304 0.963502 
0.267615 0.162726 0.949685 
0.261506 0.175638 0.949087 
0.295909 0.205994 0.93274 
0.331885 0.235895 0.913349 
0.309503 0.245347 0.918702 
0.301538 -0.318939 0.898528 
0.281081 -0.279097 0.918204 
0.291231 -0.25849 0.921069 
0.26459 -0.2239 0.938009 
0.23951 -0.193437 0.951429 
0.248279 -0.176986 0.952383 
0.221252 -0.149191 0.963737 
0.226207 -0.133775 0.96485 
0.198457 -0.109875 0.973931 
0.203841 -0.0965455 0.974232 
0.211389 -0.083818 0.973801 
0.189327 -0.0659285 0.979698 
0.200369 -0.054538 0.978201 
0.18054 -0.0388216 0.982801 
0.193407 -0.0268393 0.980752 
0.175412 -0.0114655 0.984428 
0.189321 0.00315851 0.98191 
0.175035 0.0193234 0.984373 
0.191726 0.0386539 0.980687 
0.183367 0.056225 0.981435 
0.178199 0.0732757 0.981262 
0.204161 0.100002 0.973816 
0.201239 0.116692 0.972567 
0.229909 0.145616 0.962256 
0.222171 0.159176 0.961927 
0.249753 0.186657 0.950149 
0.279768 0.215536 0.935561 
0.26326 0.229772 0.936963 
0.280947 0.260396 0.923722 
0.286776 -0.338227 0.896304 
0.266757 -0.296985 0.916865 
0.247559 -0.259869 0.933372 
0.252288 -0.240108 0.937389 
0.228781 -0.20984 0.950593 
0.208003 -0.180766 0.96128 
0.215088 -0.164568 0.962629 
0.190855 -0.138397 0.971813 
0.195057 -0.123863 0.972939 
0.169994 -0.10153 0.980201 
0.174482 -0.0891919 0.980613 
0.180808 -0.0774342 0.980465 
0.160239 -0.0606317 0.985214 
0.169488 -0.0499557 0.984265 
0.151817 -0.0354177 0.987774 
0.163147 -0.024126 0.986307 
0.147613 -0.0101862 0.988993 
0.16052 0.00336348 0.987027 
0.148459 0.0176272 0.988761 
0.164549 0.0351757 0.985741 
0.157178 0.0505214 0.986277 
0.152254 0.065668 0.986157 
0.175366 0.0895868 0.980419 
0.171802 0.105182 0.9795 
0.196253 0.131509 0.971694 
0.188561 0.14615 0.971126 
0.209396 0.172345 0.962523 
0.233448 0.198299 0.951935 
0.223133 0.215021 0.950777 
0.238008 0.245883 0.939624 
0.251144 0.280453 0.92643 
0.273764 -0.353333 0.894544 
0.251052 -0.307417 0.917861 
0.23059 -0.265398 0.936158 
0.218539 -0.22926 0.948515 
0.200458 -0.197785 0.95953 
0.180715 -0.168652 0.968968 
0.185716 -0.152945 0.970627 
0.163879 -0.128112 0.978126 
0.167386 -0.114607 0.979207 
0.144669 -0.0937623 0.985028 
0.148272 -0.0822798 0.985518 
0.153573 -0.0714019 0.985554 
0.134877 -0.0559072 0.989284 
0.142697 -0.0459163 0.988701 
0.127059 -0.0325541 0.991361 
0.137011 -0.0220072 0.990325 
0.123553 -0.00938214 0.992294 
0.135263 0.00310232 0.990805 
0.124926 0.0158562 0.992039 
0.139885 0.0316364 0.989662 
0.133365 0.0452618 0.990033 
0.128886 0.0589503 0.989906 
0.149419 0.0805774 0.985485 
0.145502 0.0951749 0.98477 
0.166464 0.119738 0.978751 
0.159917 0.135104 0.977841 
0.178073 0.16186 0.970614 
0.193629 0.189759 0.962548 
0.199024 0.222624 0.954373 
0.211685 0.260232 0.942056 
0.22422 0.302207 0.926497 
0.260512 -0.364303 0.894101 
0.238299 -0.319081 0.917279 
0.21786 -0.277191 0.93579 
0.201489 -0.240008 0.949631 
0.188486 -0.210603 0.959228 
0.171951 -0.181387 0.968262 
0.154749 -0.154643 0.975776 
0.159394 -0.141387 0.977038 
0.139582 -0.118284 0.98312 
0.142742 -0.105949 0.984073 
0.122425 -0.0871439 0.988645 
0.125199 -0.0762274 0.989199 
0.129618 -0.066039 0.989362 
0.112849 -0.0516631 0.992268 
0.119526 -0.0423801 0.991926 
0.105791 -0.0300824 0.993933 
0.11454 -0.0203445 0.99321 
0.102814 -0.00891705 0.994661 
0.113254 0.00259142 0.993563 
0.104319 0.0140156 0.994445 
0.11785 0.0284471 0.992624 
0.112073 0.0408446 0.99286 
0.108112 0.0536789 0.992688 
0.126112 0.0727393 0.989346 
0.121947 0.0863467 0.988774 
0.140079 0.109081 0.984113 
0.133669 0.123083 0.983353 
0.148274 0.148428 0.977744 
0.161359 0.175559 0.971155 
0.169418 0.203211 0.964366 
0.178141 0.238726 0.954607 
0.189003 0.27902 0.941502 
0.199385 0.32407 0.924783 
0.245626 -0.370953 0.895579 
0.224229 -0.327078 0.918009 
0.204507 -0.286194 0.936093 
0.187447 -0.249396 0.950087 
0.17287 -0.217591 0.960609 
0.15976 -0.190042 0.96869 
0.145282 -0.164025 0.975699 
0.130781 -0.140342 0.981428 
0.134559 -0.12936 0.982426 
0.117548 -0.110465 0.986904 
0.120816 -0.0987662 0.987749 
0.103112 -0.0806148 0.991398 
0.104971 -0.0704752 0.991975 
0.108726 -0.0611037 0.992192 
0.0938598 -0.0476848 0.994443 
0.0996103 -0.0391775 0.994255 
0.0875041 -0.02797 0.995771 
0.0951973 -0.0189932 0.995277 
0.0849399 -0.0085947 0.996349 
0.0942433 0.0018661 0.995547 
0.0863755 0.0122337 0.996188 
0.0984543 0.0254604 0.994816 
0.0934101 0.0367617 0.994949 
0.0901723 0.048674 0.994736 
0.105362 0.0669002 0.992181 
0.100748 0.0802724 0.991668 
0.115764 0.0987442 0.988356 
0.110374 0.111083 0.987663 
0.121882 0.134311 0.983415 
0.132667 0.159536 0.978237 
0.14109 0.186505 0.97227 
0.149289 0.218019 0.964459 
0.157948 0.255157 0.953912 
0.167317 0.297273 0.940018 
0.176376 0.344263 0.922158 
0.227817 -0.374121 0.898962 
0.207922 -0.331503 0.920258 
0.189215 -0.291733 0.937598 
0.17252 -0.255349 0.951333 
0.157712 -0.222886 0.962003 
0.14454 -0.193998 0.970295 
0.132049 -0.168079 0.976889 
0.119503 -0.143739 0.982374 
0.111517 -0.121463 0.986312 
0.0994475 -0.102361 0.989764 
0.101735 -0.091278 0.990615 
0.0862543 -0.0742911 0.993499 
0.0872613 -0.0648306 0.994074 
0.0904966 -0.0563237 0.994303 
0.0773427 -0.0444035 0.996015 
0.082409 -0.0364494 0.995932 
0.0719104 -0.0262252 0.997066 
0.0786406 -0.0178851 0.996743 
0.0696972 -0.00837994 0.997533 
0.0777554 0.00129653 0.996972 
0.0709097 0.0107951 0.997424 
0.0816448 0.0225287 0.996407 
0.0770054 0.0330213 0.996484 
0.0744981 0.043972 0.996251 
0.0874269 0.0610631 0.994298 
0.083568 0.073693 0.993773 
0.0932907 0.0933401 0.991254 
0.0980987 0.116944 0.988282 
0.106867 0.141645 0.984132 
0.114926 0.168028 0.97906 
0.122494 0.197755 0.972568 
0.130267 0.231622 0.964045 
0.138247 0.270391 0.952773 
0.146587 0.313827 0.938096 
0.154381 0.362347 0.919169 
0.206558 -0.375151 0.903657 
0.189033 -0.333447 0.923623 
0.171909 -0.294557 0.940044 
0.156373 -0.258833 0.95318 
0.142494 -0.226507 0.96353 
0.129965 -0.197435 0.971663 
0.118588 -0.171464 0.978027 
0.108045 -0.148046 0.983061 
0.0999295 -0.126909 0.986868 
0.0916536 -0.109552 0.989746 
0.0822655 -0.0931881 0.992244 
0.0847032 -0.0842041 0.992842 
0.0720969 -0.070872 0.994876 
0.0715021 -0.0608763 0.995581 
0.0745558 -0.0526583 0.995826 
0.0633583 -0.0416292 0.997122 
0.0677476 -0.0341424 0.997118 
0.0586427 -0.0247106 0.997973 
0.0645605 -0.0170211 0.997769 
0.0567745 -0.00832329 0.998352 
0.0637679 0.000697006 0.997965 
0.0575838 0.00957081 0.998295 
0.0666803 0.0208559 0.997556 
0.0630036 0.0303305 0.997552 
0.0606661 0.0422562 0.997263 
0.0717029 0.0551843 0.995898 
0.0677547 0.0656758 0.995538 
0.0751218 0.0831853 0.993699 
0.0809631 0.101792 0.991506 
0.0857144 0.124569 0.988502 
0.0923259 0.149413 0.984455 
0.0989647 0.177098 0.979205 
0.10563 0.208459 0.97231 
0.112469 0.243921 0.963251 
0.119563 0.283897 0.951371 
0.126854 0.328551 0.935928 
0.133168 0.378526 0.915961 
0.182061 -0.375406 0.908804 
0.167719 -0.3342 0.927459 
0.152443 -0.295881 0.942982 
0.138616 -0.260666 0.955426 
0.125987 -0.228608 0.965332 
0.114648 -0.199581 0.973151 
0.104302 -0.173567 0.979283 
0.0950059 -0.150255 0.984072 
0.0875086 -0.129488 0.987712 
0.0797848 -0.111378 0.99057 
0.0726619 -0.0951953 0.992803 
0.0686717 -0.0801456 0.994415 
0.0599218 -0.066222 0.996004 
0.058281 -0.0570298 0.99667 
0.0608512 -0.0492572 0.996931 
0.0513942 -0.0389073 0.99792 
0.0552474 -0.0320519 0.997958 
0.0473253 -0.0233316 0.998607 
0.0525129 -0.0162707 0.998488 
0.0457069 -0.00832929 0.99892 
0.0518305 -8.41949e-05 0.998656 
0.0465971 0.00782949 0.998883 
0.0545698 0.0181225 0.998345 
0.0500167 0.0284602 0.998343 
0.0505175 0.0369612 0.998039 
0.056242 0.0529705 0.997011 
0.0589355 0.0701693 0.995793 
0.0636973 0.0882449 0.99406 
0.0685651 0.107997 0.991784 
0.0727925 0.131026 0.988703 
0.078174 0.156696 0.984548 
0.0837878 0.185591 0.979048 
0.0895446 0.218213 0.971784 
0.0955423 0.254923 0.96223 
0.101728 0.295969 0.949765 
0.108179 0.341663 0.933576 
0.112982 0.39313 0.912515 
0.154968 -0.375836 0.913637 
0.144483 -0.334901 0.93111 
0.131463 -0.297132 0.945743 
0.119539 -0.262174 0.957588 
0.108872 -0.230257 0.96702 
0.0988745 -0.201039 0.974581 
0.0898766 -0.174807 0.980492 
0.0816644 -0.151255 0.985116 
0.0748624 -0.130469 0.988622 
0.0682595 -0.112297 0.991327 
0.0618922 -0.0964177 0.993415 
0.0585552 -0.0831296 0.994817 
0.0541221 -0.0715616 0.995967 
0.048749 -0.0612845 0.996929 
0.0460756 -0.0520189 0.997583 
0.0490202 -0.0459283 0.997741 
0.0410016 -0.0365257 0.998491 
0.0444685 -0.0301452 0.998556 
0.0376208 -0.0223547 0.999042 
0.0421404 -0.0156382 0.998989 
0.0362444 -0.00818703 0.999309 
0.0414351 -0.000644003 0.999141 
0.0369269 0.00689462 0.999294 
0.0432184 0.0165294 0.998929 
0.0415507 0.0229492 0.998873 
0.0385676 0.0351782 0.998637 
0.0443667 0.0444552 0.998026 
0.0470773 0.0587326 0.997163 
0.0491162 0.0742164 0.996032 
0.0530344 0.0921431 0.994332 
0.0568573 0.112638 0.992008 
0.0606341 0.13632 0.988808 
0.0651423 0.163137 0.98445 
0.0698408 0.193314 0.978648 
0.0747586 0.227366 0.970935 
0.0797801 0.265175 0.960894 
0.0851287 0.307299 0.947798 
0.0908431 0.353515 0.931007 
0.0942532 0.406056 0.908975 
0.125963 -0.376935 0.917635 
0.120301 -0.336993 0.93379 
0.109063 -0.300125 0.947644 
0.099886 -0.265823 0.958833 
0.0910929 -0.233955 0.967971 
0.0830283 -0.204615 0.975315 
0.0755112 -0.177999 0.981129 
0.0685598 -0.153977 0.985693 
0.0626352 -0.132632 0.989184 
0.0570182 -0.113791 0.991867 
0.051494 -0.0972 0.993932 
0.0478788 -0.0823726 0.995451 
0.0440448 -0.0699863 0.996575 
0.0393503 -0.058225 0.997528 
0.0365876 -0.0494929 0.998104 
0.0380896 -0.0426092 0.998365 
0.0318456 -0.0351366 0.998875 
0.0350656 -0.0288381 0.998969 
0.0294206 -0.0213922 0.999338 
0.0334074 -0.0150968 0.999328 
0.028305 -0.00800104 0.999567 
0.0325975 -0.000723105 0.999468 
0.0286151 0.0069678 0.999566 
0.0335751 0.0148671 0.999326 
0.0310762 0.0234135 0.999243 
0.0335449 0.03298 0.998893 
0.034736 0.0474583 0.998269 
0.0383088 0.0605421 0.99743 
0.0399432 0.0778869 0.996162 
0.0430794 0.0968694 0.994364 
0.0462096 0.118619 0.991864 
0.0494004 0.143554 0.988409 
0.0530723 0.171683 0.983722 
0.0569061 0.203207 0.977481 
0.0608819 0.23833 0.969274 
0.0650973 0.277109 0.958631 
0.0694926 0.319283 0.945108 
0.0749282 0.365035 0.927974 
0.0769951 0.416949 0.905663 
0.0942549 -0.379031 0.920571 
0.0951329 -0.343237 0.934419 
0.0863804 -0.30781 0.947519 
0.0792143 -0.273315 0.958657 
0.0729396 -0.240878 0.967811 
0.0668634 -0.21075 0.975251 
0.0610594 -0.183329 0.981153 
0.0556063 -0.158587 0.985778 
0.0507725 -0.136595 0.989325 
0.0463099 -0.117239 0.992023 
0.0419406 -0.10023 0.99408 
0.0386723 -0.0852801 0.995606 
0.0356672 -0.0723214 0.996743 
0.0325045 -0.0611858 0.997597 
0.0294265 -0.0507015 0.99828 
0.0284685 -0.0414541 0.998735 
0.0244435 -0.0332333 0.999149 
0.0270758 -0.0273303 0.99926 
0.0222545 -0.0201947 0.999548 
0.0259252 -0.0145962 0.999557 
0.0215163 -0.00838011 0.999733 
0.025215 -0.0012048 0.999681 
0.0220282 0.00589304 0.99974 
0.0251497 0.0149573 0.999572 
0.0248449 0.0259131 0.999355 
0.0258102 0.0384063 0.998929 
0.0284075 0.0507379 0.998308 
0.0299241 0.0662582 0.997354 
0.0317681 0.0835727 0.995995 
0.0340647 0.103583 0.994037 
0.0365043 0.126461 0.9913 
0.0390457 0.152655 0.987508 
0.04188 0.182245 0.982361 
0.0448607 0.215381 0.975499 
0.0479706 0.252135 0.966502 
0.051268 0.292148 0.954998 
0.0551436 0.335071 0.940578 
0.060131 0.379102 0.923399 
0.0600894 0.425415 0.903001 
0.066493 -0.38171 0.921887 
0.0667423 -0.334129 0.940161 
0.0594629 -0.291551 0.954705 
0.054703 -0.25422 0.965598 
0.0502805 -0.220936 0.973991 
0.046212 -0.191329 0.980437 
0.0422465 -0.164982 0.985391 
0.0386252 -0.141734 0.989151 
0.0353031 -0.121342 0.991983 
0.0320494 -0.103632 0.994099 
0.0294388 -0.0880998 0.995677 
0.0271957 -0.074888 0.996821 
0.0249095 -0.063495 0.997671 
0.0228684 -0.0535573 0.998303 
0.0217694 -0.0447182 0.998762 
0.0200359 -0.0374827 0.999096 
0.0173625 -0.0304754 0.999385 
0.0200369 -0.0257404 0.999468 
0.0158599 -0.0201895 0.99967 
0.0190036 -0.0142108 0.999718 
0.0153123 -0.00767962 0.999853 
0.0187693 -0.00207255 0.999822 
0.0158858 0.00350041 0.999868 
0.0177323 0.0113251 0.999779 
0.0186508 0.0195868 0.999634 
0.0188824 0.0297054 0.99938 
0.0197836 0.041583 0.998939 
0.0210414 0.0552731 0.99825 
0.0225055 0.0709184 0.997228 
0.0237023 0.0895597 0.995699 
0.025427 0.110775 0.99352 
0.02716 0.135276 0.990436 
0.0290278 0.163298 0.98615 
0.0311108 0.19516 0.980278 
0.0333363 0.2312 0.972335 
0.0359035 0.271984 0.961632 
0.0390076 0.318024 0.94728 
0.0439768 0.370709 0.927707 
0.0456488 0.430263 0.901549 
0.0367923 -0.385243 0.922082 
0.0414602 -0.346058 0.937297 
0.0381681 -0.307653 0.950733 
0.0352789 -0.269436 0.962372 
0.0329886 -0.234159 0.971639 
0.0307962 -0.202544 0.978789 
0.0284745 -0.174458 0.984253 
0.0262527 -0.149791 0.988369 
0.024147 -0.12825 0.991448 
0.0220805 -0.109592 0.993731 
0.0202956 -0.0933609 0.995425 
0.0187679 -0.0794288 0.996664 
0.0173131 -0.0674838 0.99757 
0.0159305 -0.0571169 0.99824 
0.0150851 -0.0479592 0.998735 
0.0139044 -0.0401349 0.999098 
0.0125896 -0.0331009 0.999373 
0.0127559 -0.0257076 0.999588 
0.0104958 -0.0194722 0.999755 
0.0135222 -0.0139449 0.999811 
0.0102144 -0.00788601 0.999917 
0.0119599 -0.00134894 0.999928 
0.0114228 0.00711753 0.999909 
0.0122412 0.0151283 0.999811 
0.0127056 0.024362 0.999622 
0.0129156 0.0352698 0.999294 
0.0136561 0.0478369 0.998762 
0.0144957 0.0622703 0.997954 
0.0152294 0.0790275 0.996756 
0.0160588 0.0985906 0.994998 
0.0170536 0.121125 0.992491 
0.018099 0.147106 0.988955 
0.0192343 0.176911 0.984039 
0.0205467 0.210889 0.977294 
0.0220154 0.24928 0.968181 
0.0238806 0.2922 0.956059 
0.0266189 0.338894 0.940448 
0.030099 0.385769 0.922104 
0.0296233 0.432939 0.900936 
0.0114086 -0.389054 0.921144 
0.01549 -0.337668 0.941138 
0.0149951 -0.292308 0.956207 
0.014802 -0.252266 0.967545 
0.0144429 -0.217189 0.976023 
0.0138576 -0.186527 0.982352 
0.0131068 -0.159772 0.987067 
0.0122802 -0.136508 0.990563 
0.0114086 -0.116386 0.993139 
0.0105748 -0.0989765 0.995034 
0.00987708 -0.0840394 0.996413 
0.00922612 -0.0712576 0.997415 
0.00856687 -0.0602721 0.998145 
0.00819552 -0.0507679 0.998677 
0.00774916 -0.0426398 0.99906 
0.00694241 -0.0354455 0.999347 
0.00728022 -0.0289089 0.999556 
0.00677885 -0.0232733 0.999706 
0.00492852 -0.017322 0.999838 
0.00828876 -0.0136652 0.999872 
0.00489158 -0.00985945 0.999939 
0.00661263 -0.00350817 0.999972 
0.00687031 0.0027087 0.999973 
0.00645383 0.0103123 0.999926 
0.00690131 0.0187256 0.999801 
0.00699266 0.0284296 0.999571 
0.00711345 0.0399639 0.999176 
0.00738026 0.0533577 0.998548 
0.00767679 0.0688098 0.9976 
0.00789841 0.0869154 0.996184 
0.00814446 0.107991 0.994119 
0.00845028 0.132291 0.991175 
0.00876561 0.160329 0.987025 
0.00914611 0.192509 0.981253 
0.00966321 0.229335 0.9733 
0.0104187 0.271426 0.962403 
0.0116417 0.319335 0.94757 
0.013992 0.373568 0.927497 
0.0147118 0.433876 0.900853 
-0.0131474 -0.393202 0.919358 
-0.00996348 -0.352644 0.935705 
-0.00703352 -0.312018 0.95005 
-0.00475066 -0.271473 0.962434 
-0.00306788 -0.234323 0.972154 
-0.00185325 -0.201435 0.9795 
-0.00104093 -0.172696 0.984975 
-0.000482364 -0.147708 0.989031 
-8.3161e-05 -0.126121 0.992015 
0.000189702 -0.107464 0.994209 
0.000402963 -0.0914324 0.995811 
0.000622909 -0.0777267 0.996975 
0.000785928 -0.0659334 0.997824 
0.000962157 -0.0556961 0.998447 
0.00109083 -0.0469778 0.998895 
0.00114602 -0.0394227 0.999222 
0.0013084 -0.0322874 0.999478 
0.00137572 -0.0265092 0.999648 
0.00147209 -0.0209277 0.99978 
0.00159029 -0.0135198 0.999907 
0.00164727 -0.00581963 0.999982 
0.00163526 0.000353724 0.999999 
0.00158167 0.00698893 0.999974 
0.00154168 0.0153706 0.999881 
0.00139126 0.024455 0.9997 
0.00125147 0.0350196 0.999386 
0.00108714 0.0474706 0.998872 
0.00085734 0.0618391 0.998086 
0.000596622 0.0784946 0.996914 
0.000238344 0.0979124 0.995195 
-0.000177815 0.12042 0.992723 
-0.000627164 0.146348 0.989233 
-0.00110321 0.176218 0.984351 
-0.00154791 0.210404 0.977613 
-0.00191602 0.249315 0.968421 
-0.00210052 0.292991 0.956113 
-0.00199825 0.340306 0.940313 
-0.00170089 0.387292 0.921955 
-0.000965136 0.433643 0.901084 
-0.0362493 -0.396661 0.917249 
-0.0320294 -0.343694 0.938535 
-0.0261293 -0.296299 0.954738 
-0.0219166 -0.254892 0.966721 
-0.0188502 -0.218844 0.975578 
-0.0163839 -0.1875 0.982128 
-0.0143565 -0.16026 0.986971 
-0.0126583 -0.136657 0.990538 
-0.0111583 -0.116291 0.993153 
-0.00990654 -0.0987269 0.995065 
-0.00882746 -0.0837074 0.996451 
-0.00775258 -0.0709103 0.997453 
-0.00681224 -0.0598703 0.998183 
-0.00612775 -0.050357 0.998712 
-0.00553072 -0.0422453 0.999092 
-0.00456067 -0.0351658 0.999371 
-0.00465428 -0.0286188 0.99958 
-0.0040209 -0.0230586 0.999726 
-0.00188767 -0.0171194 0.999852 
-0.0052324 -0.0134619 0.999896 
-0.00171186 -0.00967161 0.999952 
-0.00334265 -0.00335734 0.999989 
-0.0036854 0.00291401 0.999989 
-0.00330934 0.0104963 0.999939 
-0.00396804 0.0190099 0.999811 
-0.00436876 0.0287892 0.999576 
-0.00475828 0.0403621 0.999174 
-0.0054254 0.0537531 0.99854 
-0.00616238 0.0693565 0.997573 
-0.00701508 0.0875654 0.996134 
-0.00806035 0.108718 0.99404 