# vtk DataFile Version 3.0 
Exported using Morpho https://github.com/Morpho-lang/morpho 
ASCII 
DATASET UNSTRUCTURED_GRID 

POINTS 1245 float 
-0.303845 -0.952721 0 
-0.250833 -0.96803 0 
-0.195084 -0.980787 0 
-0.146308 -0.989239 0 
-0.0940719 -0.995565 0 
-0.0475118 -0.998871 0 
-0.000246339 -1 0 
0.0470875 -0.998891 0 
0.0937543 -0.995595 0 
0.146139 -0.989264 0 
0.195062 -0.980791 0 
0.250843 -0.968028 0 
0.303953 -0.952687 0 
-0.409153 -0.912466 0 
-0.356519 -0.934288 0 
-0.308871 -0.898929 0 
-0.258282 -0.916037 0 
-0.207345 -0.934859 0 
-0.154868 -0.930629 0 
-0.104343 -0.948989 0 
-0.0520099 -0.939193 0 
-8.5762e-05 -0.954582 0 
0.0518744 -0.939288 0 
0.104354 -0.949042 0 
0.154696 -0.9306 0 
0.207366 -0.934975 0 
0.258274 -0.916081 0 
0.308979 -0.898924 0 
0.356593 -0.93426 0 
0.409236 -0.912429 0 
-0.513788 -0.857917 0 
-0.461695 -0.887039 0 
-0.411157 -0.857936 0 
-0.359855 -0.879963 0 
-0.306888 -0.847481 0 
-0.254732 -0.866979 0 
-0.201991 -0.889059 0 
-0.149956 -0.874108 0 
-0.100608 -0.900088 0 
-0.0497575 -0.880388 0 
2.4595e-05 -0.904789 0 
0.0496869 -0.8804 0 
0.100612 -0.900177 0 
0.149872 -0.874171 0 
0.202071 -0.889165 0 
0.254695 -0.867031 0 
0.306946 -0.847482 0 
0.359894 -0.879943 0 
0.411236 -0.857929 0 
0.461748 -0.887011 0 
0.513842 -0.857885 0 
-0.564741 -0.825268 0 
-0.512908 -0.802945 0 
-0.462372 -0.832348 0 
-0.410124 -0.804631 0 
-0.358606 -0.827415 0 
-0.305781 -0.795641 0 
-0.25358 -0.816639 0 
-0.200756 -0.839997 0 
-0.149043 -0.818944 0 
-0.0987265 -0.846667 0 
-0.0490473 -0.822548 0 
5.00659e-05 -0.849932 0 
0.0490834 -0.822542 0 
0.0987838 -0.846676 0 
0.148997 -0.818924 0 
0.200826 -0.840131 0 
0.253508 -0.816728 0 
0.305831 -0.795701 0 
0.358581 -0.827419 0 
0.410181 -0.804654 0 
0.462414 -0.83234 0 
0.512965 -0.802929 0 
0.564777 -0.825243 0 
-0.660798 -0.750564 0 
-0.614015 -0.789295 0 
-0.561786 -0.769772 0 
-0.510673 -0.747856 0 
-0.460836 -0.778365 0 
-0.408794 -0.751554 0 
-0.357337 -0.774971 0 
-0.304815 -0.743684 0 
-0.252907 -0.765535 0 
-0.200631 -0.789263 0 
-0.149244 -0.764328 0 
-0.0986912 -0.791935 0 
-0.0492815 -0.765764 0 
4.16586e-05 -0.79382 0 
0.0492411 -0.765708 0 
0.0987508 -0.791951 0 
0.149196 -0.764326 0 
0.200666 -0.789356 0 
0.252841 -0.765599 0 
0.304862 -0.743741 0 
0.357323 -0.775038 0 
0.408863 -0.751626 0 
0.460863 -0.778382 0 
0.510716 -0.747859 0 
0.561819 -0.769761 0 
0.614041 -0.789274 0 
0.660811 -0.750552 0 
-0.707107 -0.707107 0 
-0.654819 -0.699058 0 
-0.60813 -0.73348 0 
-0.558104 -0.71337 0 
-0.509495 -0.692659 0 
-0.45935 -0.724356 0 
-0.407328 -0.698865 0 
-0.355968 -0.722823 0 
-0.303722 -0.691387 0 
-0.252254 -0.71362 0 
-0.20067 -0.737336 0 
-0.149608 -0.710068 0 
-0.0991558 -0.737129 0 
-0.0495872 -0.709825 0 
-2.23646e-05 -0.737917 0 
0.0494408 -0.709766 0 
0.0991291 -0.737116 0 
0.149502 -0.710042 0 
0.200696 -0.73743 0 
0.252186 -0.713735 0 
0.303753 -0.691518 0 
0.355952 -0.722893 0 
0.407371 -0.698945 0 
0.459374 -0.724407 0 
0.509524 -0.692668 0 
0.558131 -0.713361 0 
0.608151 -0.733462 0 
0.654824 -0.699048 0 
0.707107 -0.707107 0 
-0.750564 -0.660798 0 
-0.699058 -0.654819 0 
-0.647692 -0.647692 0 
-0.603437 -0.675718 0 
-0.55905 -0.655305 0 
-0.508501 -0.639581 0 
-0.457509 -0.671321 0 
-0.405555 -0.646545 0 
-0.354417 -0.670703 0 
-0.302427 -0.639219 0 
-0.251503 -0.661417 0 
-0.20061 -0.684911 0 
-0.149717 -0.655943 0 
-0.0995004 -0.682466 0 
-0.0498216 -0.654561 0 
-5.02113e-05 -0.682664 0 
0.0496787 -0.654499 0 
0.0994374 -0.682501 0 
0.149603 -0.655909 0 
0.200573 -0.684972 0 
0.251388 -0.661524 0 
0.302407 -0.639359 0 
0.354397 -0.670836 0 
0.405575 -0.646641 0 
0.457525 -0.67138 0 
0.508497 -0.639623 0 
0.559063 -0.655324 0 
0.603436 -0.675715 0 
0.64769 -0.64769 0 
0.699048 -0.654824 0 
0.750552 -0.660811 0 
-0.789295 -0.614015 0 
-0.73348 -0.60813 0 
-0.675718 -0.603437 0 
-0.613088 -0.613088 0 
-0.55962 -0.604068 0 
-0.506189 -0.588854 0 
-0.455505 -0.618874 0 
-0.403019 -0.594688 0 
-0.352514 -0.618952 0 
-0.300977 -0.586897 0 
-0.250543 -0.608767 0 
-0.200257 -0.632053 0 
-0.150049 -0.601979 0 
-0.0998281 -0.628222 0 
-0.0500377 -0.599914 0 
-3.12334e-05 -0.628076 0 
0.0498927 -0.599835 0 
0.0997818 -0.628253 0 
0.149924 -0.601867 0 
0.200214 -0.632118 0 
0.250423 -0.608915 0 
0.30086 -0.587085 0 
0.352457 -0.619096 0 
0.402948 -0.594743 0 
0.455483 -0.618952 0 
0.506147 -0.588901 0 
0.55964 -0.604067 0 
0.613069 -0.613069 0 
0.675715 -0.603436 0 
0.733462 -0.608151 0 
0.789274 -0.614041 0 
-0.825268 -0.564741 0 
-0.769772 -0.561786 0 
-0.71337 -0.558104 0 
-0.655305 -0.55905 0 
-0.604068 -0.55962 0 
-0.551031 -0.551031 0 
-0.497922 -0.537596 0 
-0.451508 -0.567021 0 
-0.399773 -0.542431 0 
-0.350494 -0.567003 0 
-0.301574 -0.534146 0 
-0.250874 -0.555692 0 
-0.200542 -0.579013 0 
-0.150324 -0.548268 0 
-0.100169 -0.57443 0 
-0.0500152 -0.545912 0 
-3.29278e-05 -0.574268 0 
0.0499208 -0.545788 0 
0.100058 -0.574485 0 
0.150038 -0.548073 0 
0.200377 -0.579041 0 
0.250556 -0.55585 0 
0.301273 -0.534348 0 
0.350318 -0.567174 0 
0.399615 -0.542384 0 
0.451404 -0.5671 0 
0.497945 -0.537702 0 
0.551073 -0.551073 0 
0.604067 -0.55964 0 
0.655324 -0.559063 0 
0.713361 -0.558131 0 
0.769761 -0.561819 0 
0.825243 -0.564777 0 
-0.857917 -0.513788 0 
-0.802945 -0.512908 0 
-0.747856 -0.510673 0 
-0.692659 -0.509495 0 
-0.639581 -0.508501 0 
-0.588854 -0.506189 0 
-0.537596 -0.497922 0 
-0.486157 -0.486157 0 
-0.444928 -0.512952 0 
-0.401787 -0.486784 0 
-0.351685 -0.513639 0 
-0.299695 -0.48291 0 
-0.250032 -0.503 0 
-0.200501 -0.526165 0 
-0.149489 -0.495195 0 
-0.0999281 -0.521367 0 
-0.0499712 -0.492294 0 
4.64723e-05 -0.520999 0 
0.050147 -0.492108 0 
0.099934 -0.52133 0 
0.14957 -0.494692 0 
0.200133 -0.526255 0 
0.249839 -0.503309 0 
0.299839 -0.483005 0 
0.351514 -0.513798 0 
0.401881 -0.486608 0 
0.444935 -0.513054 0 
0.486228 -0.486228 0 
0.537702 -0.497945 0 
0.588901 -0.506147 0 
0.639623 -0.508497 0 
0.692668 -0.509524 0 
0.747859 -0.510716 0 
0.802929 -0.512965 0 
0.857885 -0.513842 0 
-0.887039 -0.461695 0 
-0.832348 -0.462372 0 
-0.778365 -0.460836 0 
-0.724356 -0.45935 0 
-0.671321 -0.457509 0 
-0.618874 -0.455505 0 
-0.567021 -0.451508 0 
-0.512952 -0.444928 0 
-0.450685 -0.450685 0 
-0.397667 -0.437543 0 
-0.348492 -0.462546 0 
-0.295416 -0.432968 0 
-0.247004 -0.450633 0 
-0.198702 -0.473818 0 
-0.150161 -0.441625 0 
-0.100085 -0.468395 0 
-0.0502271 -0.439281 0 
0.000144229 -0.468374 0 
0.0504178 -0.439106 0 
0.100428 -0.468348 0 
0.150697 -0.441105 0 
0.199103 -0.473881 0 
0.247983 -0.450921 0 
0.296569 -0.432268 0 
0.348831 -0.462562 0 
0.397506 -0.4368 0 
0.450637 -0.450637 0 
0.513054 -0.444935 0 
0.5671 -0.451404 0 
0.618952 -0.455483 0 
0.67138 -0.457525 0 
0.724407 -0.459374 0 
0.778382 -0.460863 0 
0.83234 -0.462414 0 
0.887011 -0.461748 0 
-0.912466 -0.409153 0 
-0.857936 -0.411157 0 
-0.804631 -0.410124 0 
-0.751554 -0.408794 0 
-0.698865 -0.407328 0 
-0.646545 -0.405555 0 
-0.594688 -0.403019 0 
-0.542431 -0.399773 0 
-0.486784 -0.401787 0 
-0.437543 -0.397667 0 
-0.387256 -0.387256 0 
-0.344215 -0.411459 0 
-0.30136 -0.381507 0 
-0.25021 -0.395692 0 
-0.200211 -0.419975 0 
-0.150955 -0.389014 0 
-0.100617 -0.416095 0 
-0.0503197 -0.386922 0 
-4.02994e-05 -0.416525 0 
0.05006 -0.386948 0 
0.100784 -0.416323 0 
0.150432 -0.388572 0 
0.200855 -0.420694 0 
0.25086 -0.396905 0 
0.301746 -0.379789 0 
0.344135 -0.410678 0 
0.385823 -0.385823 0 
0.4368 -0.397506 0 
0.486608 -0.401881 0 
0.542384 -0.399615 0 
0.594743 -0.402948 0 
0.646641 -0.405575 0 
0.698945 -0.407371 0 
0.751626 -0.408863 0 
0.804654 -0.410181 0 
0.857929 -0.411236 0 
0.912429 -0.409236 0 
-0.934288 -0.356519 0 
-0.879963 -0.359855 0 
-0.827415 -0.358606 0 
-0.774971 -0.357337 0 
-0.722823 -0.355968 0 
-0.670703 -0.354417 0 
-0.618952 -0.352514 0 
-0.567003 -0.350494 0 
-0.513639 -0.351685 0 
-0.462546 -0.348492 0 
-0.411459 -0.344215 0 
-0.351697 -0.351697 0 
-0.29839 -0.336232 0 
-0.249846 -0.342529 0 
-0.200971 -0.367271 0 
-0.149995 -0.337521 0 
-0.100435 -0.3646 0 
-0.0498692 -0.335025 0 
-6.88684e-05 -0.365025 0 
0.0495433 -0.334795 0 
0.0996798 -0.364834 0 
0.148162 -0.337172 0 
0.199644 -0.368939 0 
0.24763 -0.345582 0 
0.295348 -0.332889 0 
0.34978 -0.34978 0 
0.410678 -0.344135 0 
0.462562 -0.348831 0 
0.513798 -0.351514 0 
0.567174 -0.350318 0 
0.619096 -0.352457 0 
0.670836 -0.354397 0 
0.722893 -0.355952 0 
0.775038 -0.357323 0 
0.827419 -0.358581 0 
0.879943 -0.359894 0 
0.93426 -0.356593 0 
-0.952721 -0.303845 0 
-0.898929 -0.308871 0 
-0.847481 -0.306888 0 
-0.795641 -0.305781 0 
-0.743684 -0.304815 0 
-0.691387 -0.303722 0 
-0.639219 -0.302427 0 
-0.586897 -0.300977 0 
-0.534146 -0.301574 0 
-0.48291 -0.299695 0 
-0.432968 -0.295416 0 
-0.381507 -0.30136 0 
-0.336232 -0.29839 0 
-0.288184 -0.288184 0 
-0.242975 -0.290577 0 
-0.198059 -0.315051 0 
-0.148383 -0.285894 0 
-0.0994753 -0.313232 0 
-0.0507184 -0.283118 0 
-0.000202902 -0.313447 0 
0.0500077 -0.282824 0 
0.0988289 -0.312817 0 
0.148102 -0.28482 0 
0.195742 -0.317413 0 
0.240766 -0.295824 0 
0.285014 -0.285014 0 
0.332889 -0.295348 0 
0.379789 -0.301746 0 
0.432268 -0.296569 0 
0.483005 -0.299839 0 
0.534348 -0.301273 0 
0.587085 -0.30086 0 
0.639359 -0.302407 0 
0.691518 -0.303753 0 
0.743741 -0.304862 0 
0.795701 -0.305831 0 
0.847482 -0.306946 0 
0.898924 -0.308979 0 
0.952687 -0.303953 0 
-0.96803 -0.250833 0 
-0.916037 -0.258282 0 
-0.866979 -0.254732 0 
-0.816639 -0.25358 0 
-0.765535 -0.252907 0 
-0.71362 -0.252254 0 
-0.661417 -0.251503 0 
-0.608767 -0.250543 0 
-0.555692 -0.250874 0 
-0.503 -0.250032 0 
-0.450633 -0.247004 0 
-0.395692 -0.25021 0 
-0.342529 -0.249846 0 
-0.290577 -0.242975 0 
-0.239946 -0.239946 0 
-0.194478 -0.26004 0 
-0.151293 -0.23238 0 
-0.101048 -0.260904 0 
-0.0503938 -0.232537 0 
-0.000203281 -0.262984 0 
0.050638 -0.232316 0 
0.100942 -0.260855 0 
0.152412 -0.232597 0 
0.195768 -0.261421 0 
0.241873 -0.241873 0 
0.295824 -0.240766 0 
0.345582 -0.24763 0 
0.396905 -0.25086 0 
0.450921 -0.247983 0 
[...]
POINT_DATA 1245 
VECTORS vectors float
0.337444 -0.14686 0.929819 
0.340151 -0.125504 0.931958 
0.346643 -0.105555 0.932039 
0.351286 -0.0894 0.93199 
0.357467 -0.0755785 0.930863 
0.36031 -0.0689836 0.930278 
0.356245 -0.0627287 0.932285 
0.348132 -0.055016 0.93583 
0.331206 -0.0442064 0.942522 
0.305425 -0.0212886 0.951978 
0.284034 0.00877255 0.958774 
0.263798 0.0540426 0.963063 
0.260517 0.104043 0.959847 
0.331586 -0.18243 0.925619 
0.335705 -0.163651 0.927642 
0.291521 -0.133427 0.947213 
0.294544 -0.118778 0.948228 
0.30631 -0.102102 0.94644 
0.293848 -0.0861726 0.95196 
0.308832 -0.0738646 0.948244 
0.291242 -0.0620919 0.954632 
0.303806 -0.0544929 0.951174 
0.27761 -0.0388667 0.959907 
0.27815 -0.0271595 0.960153 
0.250216 -0.00131175 0.968189 
0.245185 0.0244306 0.969169 
0.233756 0.0613952 0.970355 
0.232107 0.0963546 0.967906 
0.268623 0.146223 0.952082 
0.284144 0.178353 0.942047 
0.316867 -0.214117 0.923986 
0.327436 -0.199285 0.923618 
0.284465 -0.165582 0.944279 
0.288053 -0.149523 0.945869 
0.247721 -0.121581 0.961172 
0.255979 -0.106047 0.960848 
0.263644 -0.0946139 0.959969 
0.246759 -0.0763834 0.966062 
0.259616 -0.0680084 0.963314 
0.236768 -0.0535362 0.97009 
0.2506 -0.0453718 0.967027 
0.223442 -0.0297848 0.974262 
0.232637 -0.0172167 0.972411 
0.206896 0.00200564 0.978361 
0.215286 0.0264247 0.976194 
0.203174 0.0539353 0.977656 
0.203149 0.0840144 0.975537 
0.238624 0.127404 0.962718 
0.249192 0.148862 0.956945 
0.302883 0.192537 0.933376 
0.313087 0.195517 0.929381 
0.304986 -0.228891 0.924442 
0.269601 -0.194475 0.94313 
0.278721 -0.180518 0.943254 
0.240692 -0.149154 0.959073 
0.244735 -0.134935 0.960155 
0.209014 -0.10999 0.971708 
0.214089 -0.0986874 0.971816 
0.226282 -0.0858126 0.970274 
0.200785 -0.0706838 0.977082 
0.215497 -0.0613484 0.974575 
0.190055 -0.0478997 0.980604 
0.204732 -0.0387111 0.978052 
0.180848 -0.0248206 0.983198 
0.192613 -0.0129389 0.98119 
0.172851 0.00359985 0.984941 
0.184173 0.0235854 0.982611 
0.176625 0.0478969 0.983112 
0.173311 0.0698056 0.98239 
0.206501 0.107476 0.972526 
0.212878 0.124297 0.96914 
0.259072 0.159763 0.952553 
0.262413 0.16386 0.950941 
0.312577 0.191622 0.930364 
0.273117 -0.26008 0.926156 
0.289944 -0.241702 0.92602 
0.258394 -0.207401 0.943513 
0.227635 -0.175047 0.957883 
0.23521 -0.162318 0.958295 
0.201703 -0.134278 0.970199 
0.204123 -0.122994 0.971188 
0.171513 -0.101269 0.979963 
0.178067 -0.0900077 0.979893 
0.186643 -0.0795831 0.979199 
0.161964 -0.0641218 0.984711 
0.174803 -0.0561186 0.983003 
0.152963 -0.043806 0.98726 
0.167064 -0.0350839 0.985322 
0.147871 -0.023057 0.988738 
0.159682 -0.0116947 0.987099 
0.142986 0.00215288 0.989722 
0.157145 0.0205129 0.987363 
0.148717 0.0389025 0.988114 
0.145971 0.0573808 0.987623 
0.175488 0.0894774 0.980407 
0.177933 0.102668 0.978672 
0.21727 0.133699 0.966912 
0.214899 0.139271 0.966655 
0.254075 0.165245 0.952964 
0.293209 0.187889 0.937404 
0.264191 0.192047 0.945157 
0.257711 -0.280586 0.924585 
0.236705 -0.240625 0.941313 
0.245691 -0.221436 0.943717 
0.218023 -0.187911 0.957682 
0.191761 -0.159189 0.968446 
0.197755 -0.146137 0.969297 
0.168371 -0.121543 0.978202 
0.170568 -0.110793 0.979097 
0.142456 -0.0905734 0.985648 
0.14485 -0.0816745 0.986077 
0.150819 -0.0726994 0.985885 
0.127954 -0.0573163 0.990123 
0.138697 -0.0509492 0.989023 
0.120955 -0.0393843 0.991876 
0.134553 -0.0323264 0.990379 
0.117674 -0.0208618 0.992833 
0.130099 -0.0105183 0.991445 
0.114679 0.00258992 0.993399 
0.130137 0.0173105 0.991345 
0.122777 0.0321893 0.991912 
0.118763 0.0456262 0.991874 
0.145177 0.0719559 0.986786 
0.145557 0.0841728 0.985763 
0.178295 0.111887 0.977595 
0.172909 0.119381 0.977676 
0.203052 0.143928 0.968532 
0.234345 0.168088 0.957512 
0.213785 0.17783 0.960559 
0.228589 0.204757 0.951747 
0.243492 -0.303285 0.921265 
0.223865 -0.258853 0.939617 
0.203881 -0.220881 0.953753 
0.207339 -0.201887 0.957211 
0.183312 -0.173388 0.967643 
0.161542 -0.14638 0.975949 
0.165862 -0.132993 0.97714 
0.140766 -0.109667 0.98395 
0.141087 -0.100001 0.984934 
0.117408 -0.0801127 0.989847 
0.118717 -0.0723172 0.990291 
0.121976 -0.0642761 0.99045 
0.101905 -0.0499874 0.993537 
0.109442 -0.044744 0.992986 
0.0941256 -0.0347817 0.994953 
0.105568 -0.0289976 0.993989 
0.0895615 -0.0182881 0.995813 
0.101259 -0.00867469 0.994822 
0.0878439 0.00336266 0.996129 
0.103801 0.015374 0.994479 
0.0980987 0.0268188 0.994815 
0.0959504 0.0374244 0.994682 
0.11828 0.0582575 0.99127 
0.116843 0.0691519 0.99074 
0.143534 0.0936465 0.985205 
0.138066 0.103659 0.984984 
0.160357 0.126669 0.978898 
0.184491 0.150676 0.971216 
0.173 0.164217 0.971135 
0.186647 0.194129 0.963056 
0.197868 0.231831 0.952419 
0.238595 -0.319272 0.917136 
0.211936 -0.269441 0.939407 
0.189202 -0.224968 0.95582 
0.175242 -0.190154 0.965987 
0.155681 -0.160146 0.974739 
0.134826 -0.134296 0.981726 
0.137882 -0.121374 0.982984 
0.11541 -0.0986394 0.988408 
0.11757 -0.0886106 0.989103 
0.0957658 -0.0705362 0.992902 
0.0973469 -0.0632469 0.993239 
0.0985773 -0.0565179 0.993523 
0.0816663 -0.0445941 0.995662 
0.0863687 -0.0393971 0.995484 
0.0729411 -0.0314365 0.996841 
0.0804756 -0.0260028 0.996417 
0.0666389 -0.0172259 0.997628 
0.0757806 -0.00739046 0.997097 
0.066699 0.00195929 0.997771 
0.0808876 0.0135642 0.996631 
0.0780502 0.0219931 0.996707 
0.0764227 0.0304303 0.996611 
0.0947039 0.0476412 0.994365 
0.0928454 0.0582895 0.993973 
0.11415 0.0795943 0.99027 
0.110501 0.090752 0.989724 
0.12933 0.115132 0.984895 
0.14491 0.140134 0.979471 
0.150118 0.172279 0.973542 
0.163542 0.210913 0.963727 
0.178339 0.256088 0.95006 
0.231677 -0.32731 0.916075 
0.205102 -0.279382 0.938019 
0.181005 -0.235391 0.954897 
0.161612 -0.197803 0.966828 
0.146121 -0.16874 0.974769 
0.128337 -0.142723 0.981407 
0.109618 -0.118662 0.986865 
0.112917 -0.109105 0.987596 
0.093288 -0.0871552 0.991817 
0.0951799 -0.0782712 0.992378 
0.0760429 -0.0628329 0.995123 
0.076887 -0.0572697 0.995394 
0.0795986 -0.050854 0.995529 
0.064292 -0.0416076 0.997063 
0.0683165 -0.0362346 0.997005 
0.0561676 -0.0295163 0.997985 
0.0610632 -0.0245469 0.997832 
0.0504592 -0.0178417 0.998567 
0.0572182 -0.00893498 0.998322 
0.0520906 -0.00214204 0.99864 
0.0635532 0.00954909 0.997933 
0.0621268 0.0161525 0.997938 
0.0605699 0.0243456 0.997867 
0.0754597 0.0400991 0.996342 
0.0727499 0.0498255 0.996105 
0.0899863 0.068529 0.993583 
0.0869363 0.0790974 0.993069 
0.102301 0.100772 0.989636 
0.11511 0.126058 0.985322 
0.123633 0.152835 0.980488 
0.132795 0.189387 0.972881 
0.146054 0.231153 0.961892 
0.159628 0.279855 0.946679 
0.225987 -0.330815 0.916238 
0.197559 -0.284235 0.93818 
0.173294 -0.242023 0.95467 
0.152572 -0.204197 0.966967 
0.135147 -0.17212 0.975761 
0.119724 -0.146452 0.981946 
0.103275 -0.123036 0.987014 
0.0885183 -0.102868 0.990749 
0.0892478 -0.095208 0.991449 
0.0740792 -0.0777164 0.99422 
0.0749334 -0.0700291 0.994727 
0.0574462 -0.0573666 0.996699 
0.0588921 -0.0521429 0.996902 
0.0613775 -0.0476477 0.996977 
0.0484164 -0.0392519 0.998056 
0.0527603 -0.0342435 0.99802 
0.0421024 -0.0276738 0.99873 
0.0464255 -0.0236886 0.998641 
0.0386534 -0.018209 0.999087 
0.0446562 -0.0117485 0.998933 
0.0416248 -0.00742058 0.999106 
0.0509045 0.00326013 0.998698 
0.0481408 0.00987591 0.998792 
0.0451875 0.0182248 0.998812 
0.0579981 0.0338965 0.997741 
0.0553979 0.0432833 0.997526 
0.0692132 0.0585794 0.995881 
0.066934 0.0673236 0.995483 
0.0790641 0.0872393 0.993045 
0.0903997 0.109781 0.989836 
0.0984417 0.135796 0.985834 
0.106872 0.16768 0.980031 
0.117046 0.205587 0.971614 
0.13053 0.248296 0.95985 
0.147566 0.296061 0.943701 
0.2123 -0.323607 0.922067 
0.186365 -0.283248 0.940765 
0.162935 -0.243481 0.956122 
0.142865 -0.207473 0.967752 
0.125336 -0.175641 0.976443 
0.109458 -0.147561 0.982977 
0.095182 -0.124005 0.987706 
0.0808452 -0.102629 0.991429 
0.0714953 -0.0846318 0.993844 
0.0596764 -0.069624 0.995787 
0.0591406 -0.0625697 0.996287 
0.0445798 -0.0511582 0.997695 
0.0426508 -0.0477426 0.997949 
0.0454156 -0.0435984 0.998016 
0.0348801 -0.0352116 0.998771 
0.0388585 -0.0316599 0.998743 
0.0299836 -0.0250765 0.999236 
0.0345285 -0.0219768 0.999162 
0.0284055 -0.0169036 0.999454 
0.0348313 -0.0134847 0.999302 
0.029762 -0.00838195 0.999522 
0.0381225 -0.00125614 0.999272 
0.035128 0.00397083 0.999375 
0.0321054 0.0129309 0.999401 
0.044095 0.0269041 0.998665 
0.0419284 0.0349819 0.998508 
0.0516113 0.0513663 0.997345 
0.0579314 0.070562 0.995824 
0.0673497 0.0923346 0.993448 
0.0758008 0.116333 0.990314 
0.0832842 0.145054 0.985912 
0.0914367 0.179225 0.97955 
0.101765 0.21814 0.970597 
0.1145 0.260583 0.958638 
0.126907 0.30598 0.943542 
0.188672 -0.32107 0.928072 
0.168827 -0.279602 0.945156 
0.148592 -0.241235 0.959024 
0.130446 -0.207318 0.969537 
0.113832 -0.177002 0.977606 
0.0997578 -0.15054 0.983558 
0.0861581 -0.126305 0.988243 
0.0745526 -0.104957 0.991678 
0.0654203 -0.086853 0.994071 
0.0569621 -0.0731687 0.995692 
0.0484994 -0.0612571 0.996943 
0.0461502 -0.0563402 0.997344 
0.0350963 -0.048731 0.998195 
0.0327416 -0.040531 0.998642 
0.032955 -0.0389194 0.998699 
0.025636 -0.0307241 0.999199 
0.0276199 -0.0285105 0.999212 
0.0206558 -0.0232589 0.999516 
0.0243234 -0.0200148 0.999504 
0.019697 -0.0155316 0.999685 
0.0250187 -0.0129011 0.999604 
0.0210208 -0.0102884 0.999726 
0.027904 -0.0057808 0.999594 
0.0195225 0.00595781 0.999792 
0.0254682 0.00775254 0.999646 
0.0299337 0.0215689 0.999319 
0.0315526 0.0261303 0.99916 
0.0374756 0.039363 0.998522 
0.0429374 0.055595 0.99753 
0.0483072 0.0758569 0.995948 
0.0556631 0.0977974 0.993648 
0.0630109 0.122699 0.990442 
0.0700295 0.1524 0.985835 
0.0775012 0.188209 0.979066 
0.0865473 0.228525 0.969683 
0.096836 0.272325 0.95732 
0.105497 0.321538 0.941002 
0.166146 -0.317 0.933759 
0.148329 -0.276647 0.949455 
0.131462 -0.238856 0.962115 
0.11426 -0.204181 0.972242 
0.100883 -0.176083 0.979192 
0.0870016 -0.150581 0.984762 
0.0758905 -0.127869 0.988883 
0.0654575 -0.106256 0.992182 
0.0571115 -0.0872796 0.994545 
0.050216 -0.0722159 0.996124 
0.0421464 -0.0613617 0.997225 
0.0373352 -0.0530447 0.997894 
0.0290878 -0.0395847 0.998793 
0.0257091 -0.0380163 0.998946 
0.0252175 -0.0319804 0.99917 
0.0195532 -0.027154 0.99944 
0.0198462 -0.0261545 0.999461 
0.0142391 -0.0238199 0.999615 
0.0164144 -0.0191692 0.999682 
0.0131359 -0.0156703 0.999791 
0.0165881 -0.0119689 0.999791 
0.0124609 -0.00896997 0.999882 
0.0140446 -0.00156073 0.9999 
0.021437 -0.00706447 0.999745 
0.0107385 0.0154412 0.999823 
0.0248276 0.0146769 0.999584 
0.0259873 0.0279951 0.99927 
0.0306272 0.0408676 0.998695 
0.0337421 0.0595357 0.997656 
0.0387445 0.0808272 0.995975 
0.0458264 0.103085 0.993616 
0.0524584 0.127896 0.990399 
0.0586173 0.159485 0.985459 
0.0646487 0.196513 0.978368 
0.0717191 0.23937 0.968276 
0.0792678 0.284591 0.955366 
0.0845069 0.334049 0.93876 
0.134097 -0.315028 0.939561 
0.126299 -0.276016 0.952819 
0.110625 -0.237241 0.965132 
0.0997745 -0.203898 0.973895 
0.0850325 -0.173297 0.981192 
0.0748092 -0.148607 0.986063 
0.0642336 -0.126215 0.989921 
0.0554474 -0.105067 0.992918 
0.0481511 -0.0859432 0.995136 
0.0414961 -0.0704948 0.996649 
0.0348245 -0.0595743 0.997616 
0.0331808 -0.0525595 0.998066 
0.0240954 -0.0443451 0.998726 
0.0244932 -0.0419736 0.998818 
0.0183665 -0.026986 0.999467 
0.0206794 -0.0290433 0.999364 
0.0153434 -0.025851 0.999548 
0.0148971 -0.0260991 0.999548 
0.0106443 -0.024869 0.999634 
0.0116016 -0.0204246 0.999724 
0.00995926 -0.0165175 0.999814 
0.0118826 -0.0133038 0.999841 
0.00910777 -0.0109297 0.999899 
0.0139731 -0.010162 0.999851 
0.002354 0.00970927 0.99995 
0.0256405 -0.0120219 0.999599 
0.0125891 0.0193313 0.999734 
0.022855 0.015599 0.999617 
0.0218704 0.0287031 0.999349 
0.0230822 0.0439075 0.998769 
0.0268367 0.0636573 0.997611 
0.0320892 0.085388 0.995831 
0.0384939 0.10788 0.993418 
0.044309 0.134452 0.989929 
0.0484935 0.166787 0.9848 
0.0532571 0.20773 0.976735 
0.0577667 0.25023 0.966462 
0.0629013 0.298016 0.952486 
0.062665 0.351391 0.934129 
0.107715 -0.321873 0.940636 
0.101036 -0.277976 0.95526 
0.0950216 -0.242429 0.965504 
0.0807469 -0.206431 0.975124 
0.0728842 -0.175735 0.981736 
0.0619423 -0.148313 0.986999 
0.0537119 -0.125008 0.990701 
0.0464048 -0.104178 0.993476 
0.0399362 -0.0850243 0.995578 
0.0332509 -0.0690621 0.997058 
0.0278988 -0.0573309 0.997965 
0.0218127 -0.0496644 0.998528 
0.0212909 -0.0440074 0.998804 
0.0138476 -0.0317012 0.999401 
0.0157627 -0.0310936 0.999392 
0.0148583 -0.026106 0.999549 
0.0111721 -0.0257153 0.999607 
0.0108914 -0.0268106 0.999581 
0.0077878 -0.0254187 0.999647 
0.00885265 -0.0217038 0.999725 
0.00829587 -0.0176844 0.999809 
0.00921175 -0.0148024 0.999848 
0.00821357 -0.0144146 0.999862 
0.00942482 -0.0103955 0.999902 
0.0123301 -0.00921763 0.999881 
0.00299718 0.0152783 0.999879 
0.0197854 0.0036048 0.999798 
0.0138017 0.0230161 0.99964 
0.0166157 0.0307353 0.999389 
0.0185082 0.048529 0.99865 
0.0222676 0.0691496 0.997358 
0.0276516 0.0916249 0.99541 
0.0323746 0.115316 0.992801 
0.0358582 0.143636 0.988981 
0.039419 0.179735 0.982925 
0.0422727 0.219078 0.974791 
0.0472956 0.265997 0.962813 
0.0502528 0.310514 0.949239 
0.0522825 0.367994 0.928357 
0.0819462 -0.318728 0.944297 
0.0852503 -0.285197 0.95467 
0.0702063 -0.248833 0.965999 
0.067804 -0.215822 0.974076 
0.0582889 -0.182823 0.981416 
0.050191 -0.152735 0.986992 
0.0437646 -0.127364 0.99089 
0.0379933 -0.105508 0.993692 
0.033049 -0.0866347 0.995692 
0.0280957 -0.0704055 0.997123 
0.0219326 -0.0579043 0.998081 
0.01782 -0.0493029 0.998625 
0.0137357 -0.0422903 0.999011 
0.0125713 -0.0372169 0.999228 
0.0110328 -0.0294882 0.999504 
0.010084 -0.0251119 0.999634 
0.00713308 -0.0248114 0.999667 
0.00772412 -0.0251773 0.999653 
0.0055343 -0.0216751 0.99975 
0.00723518 -0.0202455 0.999769 
0.00649863 -0.0159784 0.999851 
0.00766156 -0.0153073 0.999853 
0.00652087 -0.0158758 0.999853 
0.00629054 -0.0108411 0.999921 
0.00784192 -0.00545072 0.999954 
0.0112323 0.00145296 0.999936 
0.00749767 0.0170944 0.999826 
0.012151 0.0213109 0.999699 
0.0121768 0.0366518 0.999254 
0.0155429 0.0538106 0.99843 
0.0191767 0.075506 0.996961 
0.0221192 0.0986177 0.99488 
0.0246668 0.124948 0.991857 
0.0268414 0.156047 0.987385 
0.0301752 0.193864 0.980564 
0.034918 0.237162 0.970842 
0.0373661 0.278859 0.959605 
0.0440381 0.328993 0.943305 
0.0442366 0.375971 0.925575 
0.055595 -0.322385 0.944975 
0.054637 -0.273707 0.96026 
0.0523886 -0.233124 0.971035 
0.0425439 -0.195456 0.979789 
0.0387893 -0.162502 0.985946 
0.0328465 -0.133642 0.990485 
0.0289511 -0.11011 0.993498 
0.0261431 -0.0908183 0.995524 
0.0227031 -0.0743167 0.996976 
0.0187382 -0.0605885 0.997987 
0.0143415 -0.0498958 0.998651 
0.0114075 -0.0424836 0.999032 
0.0098355 -0.0362604 0.999294 
0.00918749 -0.0307378 0.999485 
0.00829213 -0.0267863 0.999607 
0.0063882 -0.024389 0.999682 
0.00456709 -0.0216022 0.999756 
0.00432124 -0.0231248 0.999723 
0.00436558 -0.0197711 0.999795 
0.0053465 -0.0186508 0.999812 
0.0045574 -0.0153974 0.999871 
0.00546724 -0.0156703 0.999862 
0.00429094 -0.0149998 0.999878 
0.00506131 -0.0145991 0.999881 
0.00545119 -0.0101856 0.999933 
0.00451774 -0.00136908 0.999989 
0.00461962 0.00761448 0.99996 
0.00715325 0.014629 0.999867 
0.0075274 0.0266365 0.999617 
0.010634 0.0397401 0.999153 
0.0125433 0.0592322 0.998165 
0.014113 0.0817698 0.996551 
0.0147992 0.107072 0.994141 
0.0158015 0.13618 0.990558 
0.0189895 0.172091 0.984898 
0.0226887 0.212926 0.976805 
0.0299015 0.263648 0.964155 
0.032831 0.316589 0.947995 
0.037157 0.382653 0.923145 
0.0345494 -0.324575 0.945229 
0.0381369 -0.284766 0.957838 
0.028807 -0.245932 0.968859 
0.0271963 -0.208785 0.977583 
0.024675 -0.173957 0.984444 
0.0210777 -0.14294 0.989507 
0.0192316 -0.117729 0.99286 
0.0174169 -0.0976973 0.995064 
0.016297 -0.0810424 0.996577 
0.0145034 -0.0663139 0.997693 
0.012053 -0.0534464 0.998498 
0.00988518 -0.0435569 0.999002 
0.0087333 -0.0365345 0.999294 
0.00850765 -0.0314724 0.999468 
0.00775527 -0.0277433 0.999585 
0.00627325 -0.0237524 0.999698 
0.00381711 -0.0227635 0.999734 
0.00340249 -0.020612 0.999782 
0.00414483 -0.0185632 0.999819 
0.00421719 -0.0161476 0.999861 
0.00354917 -0.0160605 0.999865 
0.00307233 -0.0151579 0.99988 
0.00363645 -0.0142305 0.999892 
0.00430943 -0.0108534 0.999932 
0.00445399 -0.00587498 0.999973 
0.00439215 0.00149151 0.999989 
0.00420576 0.010396 0.999937 
0.00561988 0.0194406 0.999795 
0.00740856 0.030974 0.999493 
0.00837192 0.0472386 0.998849 
0.0087456 0.06751 0.99768 
0.00813871 0.091439 0.995777 
0.00804469 0.118721 0.992895 
0.00921483 0.150384 0.988585 
0.0131154 0.189156 0.981859 
0.017555 0.233586 0.972178 
0.0206981 0.281541 0.959326 
0.0287575 0.333198 0.942418 
0.0299134 0.381383 0.923933 
0.00994697 -0.322684 0.946454 
0.00865852 -0.273791 0.96175 
0.00998037 -0.229721 0.973205 
0.00771041 -0.189982 0.981757 
0.00893023 -0.155566 0.987785 
0.00859186 -0.127231 0.991836 
0.00766596 -0.105213 0.99442 
0.00745307 -0.0876791 0.996121 
0.00740449 -0.0719374 0.997382 
0.00708906 -0.0573148 0.998331 
0.00630948 -0.0451797 0.998959 
0.00602254 -0.0366734 0.999309 
0.00619592 -0.0316503 0.99948 
0.0066826 -0.0275581 0.999598 
0.00526961 -0.0252236 0.999668 
0.00428205 -0.0224212 0.999739 
0.00349309 -0.0204079 0.999786 
0.00479152 -0.020881 0.99977 
0.00571217 -0.0206903 0.99977 
0.00540713 -0.0191989 0.999801 
0.00377765 -0.0187306 0.999817 
0.00291984 -0.0166512 0.999857 
0.0030614 -0.0145353 0.99989 
0.00468191 -0.0113461 0.999925 
0.00563226 -0.00780245 0.999954 
0.00506913 -0.00209035 0.999985 
0.00442073 0.00455943 0.99998 
0.00475194 0.0129951 0.999904 
0.00536133 0.0237578 0.999703 
0.00575695 0.0377079 0.999272 
0.00529403 0.0559384 0.99842 
0.00447574 0.0781418 0.996932 
0.00381012 0.103503 0.994622 
0.00399958 0.132984 0.99111 
0.00526982 0.168357 0.985712 
0.0069393 0.210774 0.97751 
0.0113961 0.261042 0.96526 
0.0118455 0.316036 0.948673 
0.0169055 0.376987 0.926064 
-0.0193679 -0.33024 0.943698 
-0.0129728 -0.289682 0.957035 
-0.0131969 -0.249412 0.968307 
-0.00911486 -0.209236 0.977823 
-0.00488052 -0.172276 0.985037 
-0.00268509 -0.140506 0.990076 
-0.00207071 -0.115307 0.993328 
-0.00229916 -0.0955806 0.995419 
-0.00160099 -0.0786578 0.9969 
-0.000307609 -0.0628995 0.99802 
0.000535224 -0.0491503 0.998791 
0.000939269 -0.0393482 0.999225 
0.00163688 -0.0333321 0.999443 
0.00264466 -0.0297122 0.999555 
0.00303416 -0.026869 0.999634 
0.00320868 -0.0233323 0.999723 
0.00260441 -0.0218791 0.999757 
0.00467264 -0.0214572 0.999759 
0.00587308 -0.020723 0.999768 
0.00706611 -0.0207843 0.999759 
0.00459709 -0.0192911 0.999803 
0.00356638 -0.0157658 0.999869 
0.00527184 -0.0131915 0.999899 
0.00630415 -0.00860062 0.999943 
0.00598146 -0.00431047 0.999973 
0.00472038 0.00134514 0.999988 
0.00375018 0.00909459 0.999952 
0.00365403 0.0190493 0.999812 
0.00332044 0.0319697 0.999483 
0.00244157 0.0483664 0.998827 
0.0016164 0.0684242 0.997655 
0.00127147 0.0918784 0.995769 
0.00100039 0.118797 0.992918 
0.000210721 0.150597 0.988595 
-0.000132762 0.188995 0.981978 
-0.000967225 0.233451 0.972368 
-0.00200868 0.281527 0.959551 
0.000472554 0.328577 0.944477 
-0.00132379 0.374928 0.927053 
-0.0377192 -0.336318 0.940993 
-0.0350948 -0.283069 0.958457 
-0.0272333 -0.235842 0.97141 
-0.0209627 -0.194432 0.980692 
-0.0149749 -0.158507 0.987244 
-0.0123505 -0.12902 0.991565 
-0.0119979 -0.105615 0.994335 
-0.0109533 -0.0861664 0.996221 
-0.00840691 -0.0687097 0.997601 
-0.00579859 -0.0535966 0.998546 
-0.00435002 -0.0428261 0.999073 
-0.00351383 -0.0366622 0.999322 
-0.00212117 -0.0329906 0.999453 
-0.000253514 -0.0285532 0.999592 
0.00019104 -0.0252523 0.999681 
0.00169242 -0.0214647 0.999768 
0.00281478 -0.0200423 0.999795 
0.00472504 -0.0206859 0.999775 
0.00636272 -0.0226518 0.999723 
0.00504355 -0.0188043 0.99981 
0.00455259 -0.0207215 0.999775 
0.00395745 -0.0170369 0.999847 
0.00469427 -0.0153755 0.999871 
0.00577995 -0.0114337 0.999918 
0.00572213 -0.0077347 0.999954 