# vtk DataFile Version 3.0 
Exported using Morpho https://github.com/Morpho-lang/morpho 
ASCII 
DATASET UNSTRUCTURED_GRID 

POINTS 1245 float 
-0.303845 -0.952721 0 
-0.250833 -0.96803 0 
-0.195084 -0.980787 0 
-0.146308 -0.989239 0 
-0.0940719 -0.995565 0 
-0.0475118 -0.998871 0 
-0.000246339 -1 0 
0.0470875 -0.998891 0 
0.0937543 -0.995595 0 
0.146139 -0.989264 0 
0.195062 -0.980791 0 
0.250843 -0.968028 0 
0.303953 -0.952687 0 
-0.409153 -0.912466 0 
-0.356519 -0.934288 0 
-0.308871 -0.898929 0 
-0.258282 -0.916037 0 
-0.207345 -0.934859 0 
-0.154868 -0.930629 0 
-0.104343 -0.948989 0 
-0.0520099 -0.939193 0 
-8.5762e-05 -0.954582 0 
0.0518744 -0.939288 0 
0.104354 -0.949042 0 
0.154696 -0.9306 0 
0.207366 -0.934975 0 
0.258274 -0.916081 0 
0.308979 -0.898924 0 
0.356593 -0.93426 0 
0.409236 -0.912429 0 
-0.513788 -0.857917 0 
-0.461695 -0.887039 0 
-0.411157 -0.857936 0 
-0.359855 -0.879963 0 
-0.306888 -0.847481 0 
-0.254732 -0.866979 0 
-0.201991 -0.889059 0 
-0.149956 -0.874108 0 
-0.100608 -0.900088 0 
-0.0497575 -0.880388 0 
2.4595e-05 -0.904789 0 
0.0496869 -0.8804 0 
0.100612 -0.900177 0 
0.149872 -0.874171 0 
0.202071 -0.889165 0 
0.254695 -0.867031 0 
0.306946 -0.847482 0 
0.359894 -0.879943 0 
0.411236 -0.857929 0 
0.461748 -0.887011 0 
0.513842 -0.857885 0 
-0.564741 -0.825268 0 
-0.512908 -0.802945 0 
-0.462372 -0.832348 0 
-0.410124 -0.804631 0 
-0.358606 -0.827415 0 
-0.305781 -0.795641 0 
-0.25358 -0.816639 0 
-0.200756 -0.839997 0 
-0.149043 -0.818944 0 
-0.0987265 -0.846667 0 
-0.0490473 -0.822548 0 
5.00659e-05 -0.849932 0 
0.0490834 -0.822542 0 
0.0987838 -0.846676 0 
0.148997 -0.818924 0 
0.200826 -0.840131 0 
0.253508 -0.816728 0 
0.305831 -0.795701 0 
0.358581 -0.827419 0 
0.410181 -0.804654 0 
0.462414 -0.83234 0 
0.512965 -0.802929 0 
0.564777 -0.825243 0 
-0.660798 -0.750564 0 
-0.614015 -0.789295 0 
-0.561786 -0.769772 0 
-0.510673 -0.747856 0 
-0.460836 -0.778365 0 
-0.408794 -0.751554 0 
-0.357337 -0.774971 0 
-0.304815 -0.743684 0 
-0.252907 -0.765535 0 
-0.200631 -0.789263 0 
-0.149244 -0.764328 0 
-0.0986912 -0.791935 0 
-0.0492815 -0.765764 0 
4.16586e-05 -0.79382 0 
0.0492411 -0.765708 0 
0.0987508 -0.791951 0 
0.149196 -0.764326 0 
0.200666 -0.789356 0 
0.252841 -0.765599 0 
0.304862 -0.743741 0 
0.357323 -0.775038 0 
0.408863 -0.751626 0 
0.460863 -0.778382 0 
0.510716 -0.747859 0 
0.561819 -0.769761 0 
0.614041 -0.789274 0 
0.660811 -0.750552 0 
-0.707107 -0.707107 0 
-0.654819 -0.699058 0 
-0.60813 -0.73348 0 
-0.558104 -0.71337 0 
-0.509495 -0.692659 0 
-0.45935 -0.724356 0 
-0.407328 -0.698865 0 
-0.355968 -0.722823 0 
-0.303722 -0.691387 0 
-0.252254 -0.71362 0 
-0.20067 -0.737336 0 
-0.149608 -0.710068 0 
-0.0991558 -0.737129 0 
-0.0495872 -0.709825 0 
-2.23646e-05 -0.737917 0 
0.0494408 -0.709766 0 
0.0991291 -0.737116 0 
0.149502 -0.710042 0 
0.200696 -0.73743 0 
0.252186 -0.713735 0 
0.303753 -0.691518 0 
0.355952 -0.722893 0 
0.407371 -0.698945 0 
0.459374 -0.724407 0 
0.509524 -0.692668 0 
0.558131 -0.713361 0 
0.608151 -0.733462 0 
0.654824 -0.699048 0 
0.707107 -0.707107 0 
-0.750564 -0.660798 0 
-0.699058 -0.654819 0 
-0.647692 -0.647692 0 
-0.603437 -0.675718 0 
-0.55905 -0.655305 0 
-0.508501 -0.639581 0 
-0.457509 -0.671321 0 
-0.405555 -0.646545 0 
-0.354417 -0.670703 0 
-0.302427 -0.639219 0 
-0.251503 -0.661417 0 
-0.20061 -0.684911 0 
-0.149717 -0.655943 0 
-0.0995004 -0.682466 0 
-0.0498216 -0.654561 0 
-5.02113e-05 -0.682664 0 
0.0496787 -0.654499 0 
0.0994374 -0.682501 0 
0.149603 -0.655909 0 
0.200573 -0.684972 0 
0.251388 -0.661524 0 
0.302407 -0.639359 0 
0.354397 -0.670836 0 
0.405575 -0.646641 0 
0.457525 -0.67138 0 
0.508497 -0.639623 0 
0.559063 -0.655324 0 
0.603436 -0.675715 0 
0.64769 -0.64769 0 
0.699048 -0.654824 0 
0.750552 -0.660811 0 
-0.789295 -0.614015 0 
-0.73348 -0.60813 0 
-0.675718 -0.603437 0 
-0.613088 -0.613088 0 
-0.55962 -0.604068 0 
-0.506189 -0.588854 0 
-0.455505 -0.618874 0 
-0.403019 -0.594688 0 
-0.352514 -0.618952 0 
-0.300977 -0.586897 0 
-0.250543 -0.608767 0 
-0.200257 -0.632053 0 
-0.150049 -0.601979 0 
-0.0998281 -0.628222 0 
-0.0500377 -0.599914 0 
-3.12334e-05 -0.628076 0 
0.0498927 -0.599835 0 
0.0997818 -0.628253 0 
0.149924 -0.601867 0 
0.200214 -0.632118 0 
0.250423 -0.608915 0 
0.30086 -0.587085 0 
0.352457 -0.619096 0 
0.402948 -0.594743 0 
0.455483 -0.618952 0 
0.506147 -0.588901 0 
0.55964 -0.604067 0 
0.613069 -0.613069 0 
0.675715 -0.603436 0 
0.733462 -0.608151 0 
0.789274 -0.614041 0 
-0.825268 -0.564741 0 
-0.769772 -0.561786 0 
-0.71337 -0.558104 0 
-0.655305 -0.55905 0 
-0.604068 -0.55962 0 
-0.551031 -0.551031 0 
-0.497922 -0.537596 0 
-0.451508 -0.567021 0 
-0.399773 -0.542431 0 
-0.350494 -0.567003 0 
-0.301574 -0.534146 0 
-0.250874 -0.555692 0 
-0.200542 -0.579013 0 
-0.150324 -0.548268 0 
-0.100169 -0.57443 0 
-0.0500152 -0.545912 0 
-3.29278e-05 -0.574268 0 
0.0499208 -0.545788 0 
0.100058 -0.574485 0 
0.150038 -0.548073 0 
0.200377 -0.579041 0 
0.250556 -0.55585 0 
0.301273 -0.534348 0 
0.350318 -0.567174 0 
0.399615 -0.542384 0 
0.451404 -0.5671 0 
0.497945 -0.537702 0 
0.551073 -0.551073 0 
0.604067 -0.55964 0 
0.655324 -0.559063 0 
0.713361 -0.558131 0 
0.769761 -0.561819 0 
0.825243 -0.564777 0 
-0.857917 -0.513788 0 
-0.802945 -0.512908 0 
-0.747856 -0.510673 0 
-0.692659 -0.509495 0 
-0.639581 -0.508501 0 
-0.588854 -0.506189 0 
-0.537596 -0.497922 0 
-0.486157 -0.486157 0 
-0.444928 -0.512952 0 
-0.401787 -0.486784 0 
-0.351685 -0.513639 0 
-0.299695 -0.48291 0 
-0.250032 -0.503 0 
-0.200501 -0.526165 0 
-0.149489 -0.495195 0 
-0.0999281 -0.521367 0 
-0.0499712 -0.492294 0 
4.64723e-05 -0.520999 0 
0.050147 -0.492108 0 
0.099934 -0.52133 0 
0.14957 -0.494692 0 
0.200133 -0.526255 0 
0.249839 -0.503309 0 
0.299839 -0.483005 0 
0.351514 -0.513798 0 
0.401881 -0.486608 0 
0.444935 -0.513054 0 
0.486228 -0.486228 0 
0.537702 -0.497945 0 
0.588901 -0.506147 0 
0.639623 -0.508497 0 
0.692668 -0.509524 0 
0.747859 -0.510716 0 
0.802929 -0.512965 0 
0.857885 -0.513842 0 
-0.887039 -0.461695 0 
-0.832348 -0.462372 0 
-0.778365 -0.460836 0 
-0.724356 -0.45935 0 
-0.671321 -0.457509 0 
-0.618874 -0.455505 0 
-0.567021 -0.451508 0 
-0.512952 -0.444928 0 
-0.450685 -0.450685 0 
-0.397667 -0.437543 0 
-0.348492 -0.462546 0 
-0.295416 -0.432968 0 
-0.247004 -0.450633 0 
-0.198702 -0.473818 0 
-0.150161 -0.441625 0 
-0.100085 -0.468395 0 
-0.0502271 -0.439281 0 
0.000144229 -0.468374 0 
0.0504178 -0.439106 0 
0.100428 -0.468348 0 
0.150697 -0.441105 0 
0.199103 -0.473881 0 
0.247983 -0.450921 0 
0.296569 -0.432268 0 
0.348831 -0.462562 0 
0.397506 -0.4368 0 
0.450637 -0.450637 0 
0.513054 -0.444935 0 
0.5671 -0.451404 0 
0.618952 -0.455483 0 
0.67138 -0.457525 0 
0.724407 -0.459374 0 
0.778382 -0.460863 0 
0.83234 -0.462414 0 
0.887011 -0.461748 0 
-0.912466 -0.409153 0 
-0.857936 -0.411157 0 
-0.804631 -0.410124 0 
-0.751554 -0.408794 0 
-0.698865 -0.407328 0 
-0.646545 -0.405555 0 
-0.594688 -0.403019 0 
-0.542431 -0.399773 0 
-0.486784 -0.401787 0 
-0.437543 -0.397667 0 
-0.387256 -0.387256 0 
-0.344215 -0.411459 0 
-0.30136 -0.381507 0 
-0.25021 -0.395692 0 
-0.200211 -0.419975 0 
-0.150955 -0.389014 0 
-0.100617 -0.416095 0 
-0.0503197 -0.386922 0 
-4.02994e-05 -0.416525 0 
0.05006 -0.386948 0 
0.100784 -0.416323 0 
0.150432 -0.388572 0 
0.200855 -0.420694 0 
0.25086 -0.396905 0 
0.301746 -0.379789 0 
0.344135 -0.410678 0 
0.385823 -0.385823 0 
0.4368 -0.397506 0 
0.486608 -0.401881 0 
0.542384 -0.399615 0 
0.594743 -0.402948 0 
0.646641 -0.405575 0 
0.698945 -0.407371 0 
0.751626 -0.408863 0 
0.804654 -0.410181 0 
0.857929 -0.411236 0 
0.912429 -0.409236 0 
-0.934288 -0.356519 0 
-0.879963 -0.359855 0 
-0.827415 -0.358606 0 
-0.774971 -0.357337 0 
-0.722823 -0.355968 0 
-0.670703 -0.354417 0 
-0.618952 -0.352514 0 
-0.567003 -0.350494 0 
-0.513639 -0.351685 0 
-0.462546 -0.348492 0 
-0.411459 -0.344215 0 
-0.351697 -0.351697 0 
-0.29839 -0.336232 0 
-0.249846 -0.342529 0 
-0.200971 -0.367271 0 
-0.149995 -0.337521 0 
-0.100435 -0.3646 0 
-0.0498692 -0.335025 0 
-6.88684e-05 -0.365025 0 
0.0495433 -0.334795 0 
0.0996798 -0.364834 0 
0.148162 -0.337172 0 
0.199644 -0.368939 0 
0.24763 -0.345582 0 
0.295348 -0.332889 0 
0.34978 -0.34978 0 
0.410678 -0.344135 0 
0.462562 -0.348831 0 
0.513798 -0.351514 0 
0.567174 -0.350318 0 
0.619096 -0.352457 0 
0.670836 -0.354397 0 
0.722893 -0.355952 0 
0.775038 -0.357323 0 
0.827419 -0.358581 0 
0.879943 -0.359894 0 
0.93426 -0.356593 0 
-0.952721 -0.303845 0 
-0.898929 -0.308871 0 
-0.847481 -0.306888 0 
-0.795641 -0.305781 0 
-0.743684 -0.304815 0 
-0.691387 -0.303722 0 
-0.639219 -0.302427 0 
-0.586897 -0.300977 0 
-0.534146 -0.301574 0 
-0.48291 -0.299695 0 
-0.432968 -0.295416 0 
-0.381507 -0.30136 0 
-0.336232 -0.29839 0 
-0.288184 -0.288184 0 
-0.242975 -0.290577 0 
-0.198059 -0.315051 0 
-0.148383 -0.285894 0 
-0.0994753 -0.313232 0 
-0.0507184 -0.283118 0 
-0.000202902 -0.313447 0 
0.0500077 -0.282824 0 
0.0988289 -0.312817 0 
0.148102 -0.28482 0 
0.195742 -0.317413 0 
0.240766 -0.295824 0 
0.285014 -0.285014 0 
0.332889 -0.295348 0 
0.379789 -0.301746 0 
0.432268 -0.296569 0 
0.483005 -0.299839 0 
0.534348 -0.301273 0 
0.587085 -0.30086 0 
0.639359 -0.302407 0 
0.691518 -0.303753 0 
0.743741 -0.304862 0 
0.795701 -0.305831 0 
0.847482 -0.306946 0 
0.898924 -0.308979 0 
0.952687 -0.303953 0 
-0.96803 -0.250833 0 
-0.916037 -0.258282 0 
-0.866979 -0.254732 0 
-0.816639 -0.25358 0 
-0.765535 -0.252907 0 
-0.71362 -0.252254 0 
-0.661417 -0.251503 0 
-0.608767 -0.250543 0 
-0.555692 -0.250874 0 
-0.503 -0.250032 0 
-0.450633 -0.247004 0 
-0.395692 -0.25021 0 
-0.342529 -0.249846 0 
-0.290577 -0.242975 0 
-0.239946 -0.239946 0 
-0.194478 -0.26004 0 
-0.151293 -0.23238 0 
-0.101048 -0.260904 0 
-0.0503938 -0.232537 0 
-0.000203281 -0.262984 0 
0.050638 -0.232316 0 
0.100942 -0.260855 0 
0.152412 -0.232597 0 
0.195768 -0.261421 0 
0.241873 -0.241873 0 
0.295824 -0.240766 0 
0.345582 -0.24763 0 
0.396905 -0.25086 0 
0.450921 -0.247983 0 
[...]
POINT_DATA 1245 
VECTORS vectors float
0.27885 -0.401232 0.8725 
-0.0459769 -0.354461 0.93394 
-0.191089 0.1399 0.971552 
-0.0289951 0.193654 0.980641 
0.0303814 0.0819341 0.996175 
-0.00959198 0.0440898 0.998982 
0.198968 -0.150549 0.968373 
0.193216 -0.217048 0.956848 
0.142548 -0.286789 0.947329 
0.0527387 -0.00504779 0.998596 
-0.0720387 -0.00188557 0.9974 
-0.193669 -0.139193 0.971142 
-0.00947371 0.235976 0.971713 
-0.115419 0.164204 0.979651 
0.462384 0.282973 0.840314 
0.282556 -0.103417 0.95366 
0.14107 -0.12903 0.981555 
-0.0138413 0.0499538 0.998656 
-0.0207495 0.12176 0.992343 
-0.0726332 0.0877276 0.993493 
-0.148987 0.0387259 0.988081 
-0.0362913 -0.121988 0.991868 
-0.0234737 -0.153012 0.987945 
0.0228639 -0.172464 0.98475 
-0.0547105 -0.0918873 0.994265 
-0.122673 -0.0607259 0.990588 
-0.139981 -0.0349635 0.989537 
-0.115769 0.0511135 0.99196 
0.11164 -0.0128228 0.993666 
-0.0972222 -0.100595 0.990166 
0.110837 -0.342194 0.933069 
-0.07827 -0.246754 0.965912 
0.0582724 -0.0755509 0.995438 
0.234083 0.0049357 0.972204 
0.188023 -0.0796367 0.978931 
0.15446 -0.0221251 0.987751 
0.134928 0.0771999 0.987843 
0.0926365 0.0722844 0.993073 
-0.0828767 0.0615989 0.994654 
-0.229582 0.0344028 0.972681 
-0.193529 -0.0668675 0.978813 
-0.239241 -0.0967746 0.966125 
-0.111705 -0.1856 0.976255 
-0.0606789 -0.171412 0.983329 
-0.0853311 -0.0770645 0.993368 
-0.0915897 0.0242191 0.995502 
-0.159379 0.0470128 0.986097 
-0.117999 -0.0135047 0.992922 
-0.0660407 -0.0282644 0.997417 
-0.0217038 -0.035088 0.999149 
0.00788334 0.0432264 0.999034 
0.0980811 -0.300848 0.948615 
0.0422332 -0.221235 0.974306 
0.0604483 -0.175739 0.982579 
0.0550669 -0.113122 0.992054 
0.129628 -0.09602 0.986903 
-0.0131358 -0.0993212 0.994969 
0.0521465 -0.0399442 0.99784 
0.16882 0.0176433 0.985489 
0.0790697 0.000344152 0.996869 
-0.056499 0.0100074 0.998353 
-0.190372 0.0176078 0.981554 
-0.259982 -0.0414592 0.964723 
-0.145673 -0.215524 0.965572 
-0.0789231 -0.246226 0.965994 
0.000617292 -0.25196 0.967737 
0.0173125 -0.0992179 0.994915 
-0.00956292 0.0400849 0.999151 
-0.0571145 0.0419663 0.997485 
-0.10119 0.042036 0.993979 
0.0101194 0.0253259 0.999628 
0.0376789 -0.0492813 0.998074 
0.127464 -0.0640031 0.989776 
0.223002 0.0243497 0.974514 
0.126605 -0.0920539 0.987673 
0.0491314 -0.168016 0.984559 
0.0121339 -0.174413 0.984598 
-0.00313195 -0.104228 0.994549 
0.0117795 -0.112935 0.993533 
-0.0259989 -0.0653514 0.997524 
-0.0140578 -0.0799011 0.996704 
-0.0905134 -0.0961746 0.991241 
-0.0580819 -0.0937669 0.993899 
0.0843076 -0.0371966 0.995745 
-0.0256308 0.00530983 0.999657 
-0.0948867 -0.0764428 0.992549 
-0.0964445 -0.0271365 0.994968 
-0.113664 -0.130685 0.984887 
0.0737304 -0.308792 0.948267 
-0.0244212 -0.364166 0.931014 
0.0480658 -0.300848 0.95246 
0.077399 -0.172035 0.982045 
0.0589515 -0.0459955 0.997201 
-0.044548 0.00359036 0.999001 
-0.119294 0.059995 0.991045 
-0.0813016 0.0367652 0.996011 
0.102903 -0.0581589 0.99299 
0.155094 -0.037354 0.987193 
0.11363 0.093128 0.989149 
-0.0278878 0.186257 0.982105 
-0.0388841 -0.0282222 0.998845 
0.00351278 0.217086 0.976146 
-0.00732091 -0.0240137 0.999685 
0.00797419 -0.102664 0.994684 
0.0210665 -0.0851108 0.996149 
0.0318014 -0.00938131 0.99945 
-0.0092085 -0.0930997 0.995614 
-0.0701041 -0.00459473 0.997529 
-0.107997 -0.0471208 0.993034 
-0.0349127 -0.0946923 0.994894 
0.0133919 -0.054179 0.998441 
0.00731606 0.00736676 0.999946 
-0.0173376 -0.00181019 0.999848 
-0.110542 -0.0558188 0.992303 
-0.0490264 -0.0640295 0.996743 
0.0363096 -0.164371 0.98573 
0.098277 -0.218526 0.97087 
0.0592374 -0.306239 0.95011 
0.0570868 -0.163095 0.984957 
0.0962845 -0.198418 0.975377 
0.0349252 -0.0410474 0.998547 
-0.047272 0.0572772 0.997239 
-0.183986 0.0937261 0.97845 
-0.0947216 0.0195686 0.995311 
0.0622519 -0.0695114 0.995637 
0.17628 -0.065286 0.982173 
0.148555 0.0535246 0.987455 
-0.00541737 0.0795258 0.996818 
-0.078474 -0.138803 0.987206 
-0.18357 -0.164504 0.969144 
-0.240557 0.226811 0.943763 
-0.0989656 0.116761 0.988217 
-0.0109572 -0.0449535 0.998929 
-0.0108188 -0.0932608 0.995583 
-0.0681832 -0.0492323 0.996457 
-0.00920694 -0.00193264 0.999956 
0.042217 0.000206283 0.999108 
-0.0252072 0.0759658 0.996792 
-0.0851351 0.00389576 0.996362 
0.071128 -0.0753498 0.994617 
0.121939 -0.002014 0.992536 
0.067989 0.0494966 0.996458 
-0.0145291 0.0530483 0.998486 
-0.0650857 0.010836 0.997821 
-0.00711573 0.0105023 0.99992 
0.00411483 -0.0973915 0.995238 
-0.0244071 -0.0754085 0.996854 
0.0620817 -0.0944974 0.993587 
0.062617 0.0959934 0.99341 
-0.00449571 -0.0386578 0.999242 
-0.016081 0.0849111 0.996259 
-0.0742193 0.151417 0.98568 
-0.132937 0.101922 0.98587 
-0.115694 0.0173917 0.993133 
0.0667222 -0.0776421 0.994746 
0.115131 -0.0971742 0.988586 
0.160246 -0.0554344 0.985519 
0.0560758 -0.0850972 0.994793 
-0.121187 -0.134562 0.983467 
-0.235509 -0.0636908 0.969783 
-0.327891 0.0795967 0.941356 
-0.260029 -0.0162438 0.965464 
-0.0961338 0.037154 0.994675 
-0.0138636 0.00158515 0.999903 
-0.0970386 -0.0374458 0.994576 
-0.156551 -0.0599632 0.985848 
-0.0827854 -0.093834 0.99214 
0.0440427 0.0121226 0.998956 
-0.00153888 0.131722 0.991285 
-0.0472111 0.0572772 0.997241 
0.0103541 0.0765226 0.997014 
0.101236 0.0958672 0.990233 
0.0734303 0.106284 0.991621 
0.0151003 0.128332 0.991616 
0.0483457 -0.0177921 0.998672 
0.0922125 0.1043 0.990262 
-0.0307655 0.0262907 0.999181 
-0.0899271 0.00535718 0.995934 
-0.0848856 -0.00752729 0.996362 
-0.150608 0.073558 0.985853 
0.0107898 0.190905 0.981549 
-0.0456769 0.185285 0.981623 
-0.0603095 0.230728 0.971147 
-0.151329 0.14299 0.978087 
-0.137572 -0.0205673 0.990278 
-0.0234174 -0.0860557 0.996015 
-0.00342848 -0.071656 0.997424 
0.0522291 -0.0739087 0.995896 
-0.0390444 -0.111814 0.992962 
-0.177708 -0.0539794 0.982602 
-0.262689 0.062965 0.962824 
-0.15915 -0.0593029 0.985472 
0.0141186 -0.120873 0.992568 
0.0550529 -0.106285 0.99281 
0.0562795 -0.0590156 0.996669 
-0.0564529 0.0537701 0.996956 
-0.162676 0.0273306 0.986301 
-0.210047 -0.082708 0.974187 
-0.179864 -0.165918 0.969598 
-0.0821061 -0.0292807 0.996193 
-0.0884675 0.150566 0.984634 
-0.0547563 0.166659 0.984493 
-0.036281 0.16686 0.985313 
-0.0183976 0.119046 0.992718 
0.0137372 0.148927 0.988753 
0.0131995 0.0836759 0.996406 
0.135184 0.103427 0.985408 
0.114454 0.0664932 0.991201 
-0.00317624 0.0530324 0.998588 
-0.0541983 -0.0386853 0.997781 
-0.109863 -0.0187553 0.99377 
-0.0348097 0.0456676 0.99835 
-0.0901977 0.150479 0.98449 
-0.0756661 0.067566 0.994841 
-0.105746 0.140765 0.98438 
-0.136772 0.166606 0.976492 
-0.173395 -0.0114775 0.984785 
-0.0829932 -0.106316 0.990863 
-0.00223926 -0.00386823 0.99999 
0.0275635 0.00346955 0.999614 
0.0129163 -0.0680508 0.997598 
-0.0712849 -0.0642066 0.995387 
-0.122194 0.0688704 0.990114 
-0.134272 0.024792 0.990634 
-0.12 0.0133457 0.992684 
0.313076 0.0262515 0.949365 
0.206945 -0.0401839 0.977527 
0.13945 -0.0909538 0.986043 
0.0586297 -0.0339787 0.997701 
-0.0885322 0.0594688 0.994296 
-0.158622 -0.000285545 0.987339 
-0.198627 -0.162868 0.966448 
-0.133337 -0.186895 0.973289 
-0.115281 -0.0583968 0.991615 
-0.0681936 0.125014 0.989809 
0.0270192 0.248249 0.968319 
-0.0126832 0.183487 0.98294 
-0.137988 0.0498378 0.989179 
-0.122668 0.0526461 0.99105 
-0.0992587 -0.055543 0.99351 
0.0864158 0.0606893 0.994409 
-0.00953911 -0.00214726 0.999952 
-0.0339954 -0.017405 0.99927 
-0.0334279 -0.0725631 0.996803 
-0.00905136 -0.0348184 0.999353 
0.0987133 -0.0102278 0.995063 
0.0804046 0.0224274 0.99651 
0.0471877 -0.0656335 0.996727 
-0.102968 0.0722742 0.992055 
-0.173721 0.138534 0.975002 
-0.158237 0.0331561 0.986844 
-0.146841 -0.0356074 0.988519 
-0.0846979 0.0766094 0.993457 
0.068168 0.108967 0.991705 
0.133002 -0.00819116 0.991082 
0.059921 -0.0698392 0.995757 
-0.065515 0.0151175 0.997737 
-0.149655 0.0917581 0.984471 
-0.0913003 0.0237899 0.995539 
0.0270504 0.000149962 0.999634 
0.098344 0.0922104 0.990871 
0.169315 0.0876366 0.981658 
0.1674 0.0395453 0.985096 
0.169484 -0.0981716 0.980631 
0.0903554 -0.0945158 0.991414 
0.0235016 -0.0728183 0.997068 
-0.0527671 -0.145723 0.987917 
-0.107178 -0.206515 0.972556 
-0.0467458 -0.0675245 0.996622 
-0.0764577 0.133883 0.988043 
-0.0409958 0.171885 0.984264 
-0.134732 0.0810173 0.987564 
-0.246336 -0.0334741 0.968606 
-0.241522 -0.0894228 0.966266 
-0.19758 -0.0754003 0.977383 
-0.0691475 -0.0455447 0.996566 
-0.0683339 -0.0398986 0.996864 
-0.0727549 -0.0798157 0.994151 
0.0280312 -0.105216 0.994054 
0.0547025 -0.0728182 0.995844 
0.0746325 -0.0787122 0.9941 
0.118345 -0.0914881 0.988749 
-0.0283105 -0.126222 0.991598 
-0.151066 0.00850221 0.988487 
-0.149694 0.137494 0.979126 
-0.0953965 0.090454 0.991321 
-0.118543 0.0594827 0.991166 
-0.0936107 0.126852 0.987495 
0.0688762 0.0803543 0.994384 
0.0706574 -0.0376546 0.99679 
-0.0540108 -0.0401315 0.997734 
-0.17053 -0.0188467 0.985172 
-0.172034 -0.0300189 0.984634 
-0.0636954 -0.0981848 0.993128 
-0.00362397 -0.107727 0.994174 
0.0695653 0.11893 0.990463 
0.106577 0.132634 0.985418 
0.134025 0.146998 0.980015 
0.175822 0.0267915 0.984057 
0.155833 -0.160795 0.974608 
0.081611 -0.231946 0.969299 
0.0217166 -0.202666 0.979007 
-0.0398308 -0.196267 0.979741 
-0.106359 -0.127836 0.986076 
-0.111048 0.000460835 0.993815 
-0.0695625 0.0759736 0.99468 
-0.0896248 0.0933557 0.991591 
-0.069817 0.0627989 0.995581 
-0.199868 0.0578336 0.978114 
-0.301316 -0.00539392 0.953509 
-0.239734 -0.00356756 0.970832 
-0.139624 -0.0868045 0.986393 
-0.0381876 -0.0921607 0.995012 
-0.0229903 -0.0881046 0.995846 
0.0510262 -0.0571755 0.997059 
0.0473262 -0.0526126 0.997493 
-0.053978 -0.0632825 0.996535 
-0.0312243 -0.132523 0.990688 
-0.180982 -0.0896742 0.97939 
-0.160736 0.0242843 0.986699 
-0.155944 0.0944749 0.983237 
-0.121231 0.0438166 0.991657 
-0.128812 0.0517709 0.990317 
-0.1273 0.0485414 0.990676 
-0.091813 0.124603 0.98795 
-0.0457981 0.108358 0.993056 
-0.0633304 -0.0109958 0.997932 
-0.114215 -0.0930563 0.989088 
-0.145802 -0.0876103 0.985427 
-0.0917913 -0.0775062 0.992757 
-0.0073429 -0.0589513 0.998234 
-0.00614341 -0.0146797 0.999873 
0.0199661 0.109021 0.993839 
0.0609481 0.081333 0.994822 
0.138595 0.191023 0.971752 
0.135031 0.108846 0.984845 
0.118752 -0.0726785 0.99026 
0.100863 -0.273244 0.956642 
0.0899656 -0.269699 0.958733 
0.0448489 -0.184312 0.981844 
-0.0296963 -0.0591368 0.997808 
-0.0398922 0.0228939 0.998942 
0.0152698 0.0391217 0.999118 
0.0526514 0.0153307 0.998495 
0.0497231 0.059816 0.99697 
-0.0679698 0.17353 0.98248 
-0.226596 0.118704 0.966728 
-0.162393 0.0600348 0.984898 
-0.114821 -0.140548 0.983393 
-0.0470661 -0.151692 0.987307 
0.0283333 -0.0912989 0.99542 
0.0549408 -0.0781161 0.995429 
0.0460508 -0.013193 0.998852 
0.00878302 -0.0413754 0.999105 
-0.163836 -0.0861535 0.982718 
-0.173174 0.0195849 0.984696 
-0.0682626 0.0595534 0.995888 
-0.067851 0.0492716 0.996478 
-0.0505257 -0.0405678 0.997898 
-0.0357382 -0.104653 0.993866 
-0.0584063 -0.0151093 0.998179 
-0.0513318 0.120738 0.991356 
-0.0175144 0.0881413 0.995954 
0.0170856 -0.139471 0.990079 
-0.0037711 -0.202867 0.979199 
-0.0689642 -0.152832 0.985843 
-0.042722 -0.0549503 0.997575 
-0.0319273 -0.0244884 0.99919 
-0.110269 -0.0245036 0.9936 
-0.267644 0.189238 0.944752 
-0.0798279 -0.0381397 0.996079 
0.0438333 0.0287931 0.998624 
0.0915665 0.109261 0.989787 
0.0958506 -0.00771951 0.995366 
0.130933 -0.181948 0.974552 
0.126469 -0.251225 0.959631 
0.068458 -0.174469 0.98228 
0.0274531 0.0711839 0.997085 
0.00596994 0.13147 0.991302 
0.0890191 0.0978022 0.991217 
0.132951 -0.00285871 0.991119 
0.134082 -0.012165 0.990896 
0.0760231 0.132714 0.988235 
0.0165413 0.190196 0.981607 
-0.0757628 0.187789 0.979283 
0.0443118 0.00810076 0.998985 
-0.100238 -0.179992 0.978547 
-0.0725052 -0.208594 0.975311 
-0.00380872 -0.12691 0.991907 
0.00490949 -0.104248 0.994539 
0.00962016 -0.0662298 0.997758 
-0.0993193 -0.102949 0.989716 
-0.140918 -0.0352801 0.989393 
-0.087605 0.0246475 0.99585 
-0.000660046 0.115348 0.993325 
0.0351015 0.104595 0.993895 
0.0378912 0.0479947 0.998129 
0.0113308 -0.135315 0.990738 
0.0431942 -0.116044 0.992304 
-0.0054222 0.0631085 0.997992 
0.0109704 0.143734 0.989556 
0.0568155 -0.020658 0.998171 
0.0556544 -0.198332 0.978553 
0.0107582 -0.208019 0.978066 
-0.0429302 -0.0977238 0.994287 
-0.0501437 -0.0298768 0.998295 
-0.0803151 -0.0164951 0.996633 
-0.167858 -0.0114403 0.985745 
-0.143789 -0.291112 0.945822 
0.0516239 -0.204159 0.977576 
0.12158 -0.180322 0.976065 
0.118305 0.00843396 0.992941 
0.142497 0.0591181 0.988028 
0.204857 -0.0250193 0.978472 
0.196615 -0.127982 0.972092 
0.115848 -0.0822836 0.989853 
-0.0464971 0.0797135 0.995733 
-0.0423955 0.165516 0.985295 
0.0287101 0.149152 0.988397 
0.0593235 0.0517252 0.996898 
-0.0256292 0.0199571 0.999472 
-0.0151052 0.0936967 0.995486 
0.0378472 0.153156 0.987477 
0.049232 0.0919977 0.994541 
0.105641 -0.0791495 0.991249 
-0.0289484 -0.180929 0.98307 
-0.0759922 -0.247597 0.965878 
-0.041476 -0.19897 0.979128 
0.00962596 -0.147943 0.988949 
-0.0715021 -0.0712068 0.994895 
-0.098472 -0.162086 0.981851 
-0.167542 -0.100572 0.980722 
-0.0499731 -0.0328725 0.998209 
0.122789 0.0434274 0.991482 
0.160025 0.076762 0.984124 
0.138582 -0.01476 0.990241 
0.0683492 -0.112204 0.991332 
0.0246717 -0.0265009 0.999344 
0.0163131 0.115073 0.993223 
0.0337072 0.0538973 0.997977 
0.051936 -0.0973781 0.993891 
0.0211928 -0.171107 0.985025 
0.0156381 -0.1512 0.98838 
-0.0242163 -0.056232 0.998124 
-0.0626119 -0.00845942 0.998002 
-0.0989197 0.0471491 0.993978 
-0.144524 0.127089 0.981306 
0.146934 -0.132394 0.980246 
0.125596 -0.139588 0.982212 
0.15968 -0.191096 0.968496 
0.0885834 -0.195122 0.97677 
0.075079 -0.102924 0.991852 
0.141535 -0.0438901 0.98896 
0.231559 -0.0946823 0.968202 
0.261358 -0.034184 0.964636 
0.179785 0.0742724 0.980898 
0.0658354 0.108854 0.991875 
-0.000129265 0.0861309 0.996284 
-0.0816965 0.0535148 0.99522 
-0.118688 0.0428874 0.992005 
-0.102124 0.071533 0.992196 
0.0174021 0.0712534 0.997306 
0.136928 0.0114959 0.990514 
0.134202 -0.0416781 0.990077 
-0.0224346 -0.158685 0.987074 
-0.0829612 -0.157556 0.984019 
-0.0313394 -0.241439 0.96991 
-0.0117033 -0.0945881 0.995448 
-0.0533155 -0.0811945 0.995271 
-0.0522998 -0.194993 0.979409 
-0.0712291 -0.17382 0.982198 
0.0604025 -0.110346 0.992056 
0.141401 -0.0704684 0.987441 
0.146331 -0.0431848 0.988293 
0.0450807 -0.0723253 0.996362 
-0.023165 -0.0971612 0.994999 
0.00636869 0.0101481 0.999928 
0.00542357 0.102596 0.994708 
-0.00166685 -0.00471245 0.999988 
-0.0010485 -0.0939102 0.99558 
0.0437096 -0.126472 0.991007 
0.11862 -0.0535525 0.991495 
0.0355944 0.0255132 0.999041 
-0.0516316 0.125354 0.990768 
-0.0797231 0.159942 0.983902 
-0.177702 0.258519 0.949521 
-0.0998065 -0.201019 0.97449 
0.0558179 -0.136239 0.989102 
0.0507558 -0.181024 0.982168 
0.0237553 -0.175737 0.984151 
0.00478581 -0.104242 0.99454 
0.0738918 -0.149234 0.986037 
0.194014 -0.132415 0.972021 
0.263525 -0.0450182 0.963602 
0.208252 0.0384322 0.97732 
0.0718675 0.0403533 0.996598 
-0.0795656 0.0359632 0.996181 
-0.161893 0.0452691 0.985769 
-0.0828319 0.106719 0.990833 
-0.0246109 -0.0156413 0.999575 
0.0591573 -0.0375957 0.99754 
0.0629422 -0.0397959 0.997223 
-0.0833483 -0.0383246 0.995783 
-0.0775531 -0.0327473 0.99645 
-0.10707 -0.0381998 0.993517 
-0.0559404 -0.109025 0.992464 
-0.159593 -0.00543149 0.987168 
-0.0724903 -0.0441514 0.996391 
-0.0738947 -0.166718 0.983232 
-0.022929 -0.22375 0.974377 
0.0595871 -0.182529 0.981393 
0.0411551 -0.151418 0.987613 
0.032937 -0.0933583 0.995088 
0.0127185 -0.0650515 0.997801 
-0.0340906 -0.136367 0.990072 
-0.0754838 -0.157604 0.984613 
-0.0336353 -0.0494348 0.998211 
-0.0406719 -0.0425587 0.998266 
-0.0949154 -0.0843806 0.991903 
-0.0559655 -0.102485 0.993159 
0.0486351 -0.133952 0.989794 
0.080946 0.0330909 0.996169 
-0.0406618 0.022463 0.99892 
-0.0437813 0.134804 0.989905 
-0.05065 0.408746 0.911242 
0.139606 -0.143216 0.979796 
-0.0305771 -0.0974444 0.994771 
-0.0575531 -0.0936506 0.99394 
-0.118825 -0.0669069 0.990658 
-0.0680121 -0.00388288 0.997677 
0.039677 -0.0299982 0.998762 
0.00169956 -0.183282 0.983059 
0.0961405 -0.152921 0.983551 
0.116103 -0.06682 0.990987 
0.0779216 0.0169315 0.996816 
0.00710135 0.0592606 0.998217 
-0.109123 0.0424328 0.993122 
-0.114877 0.0262098 0.993034 
-0.0180845 -0.0410556 0.998993 
0.0259072 -0.0866 0.995906 
0.0214775 -0.0471237 0.998658 
-0.097634 -0.0377712 0.994505 
-0.11167 -0.0522759 0.992369 
-0.00736212 -0.0914714 0.99578 
-0.055202 -0.0568226 0.996857 
-0.102265 -0.0360811 0.994103 
-0.134766 -0.0806113 0.987593 
-0.0285633 -0.127187 0.991467 
0.0683533 -0.0980543 0.992831 
0.0398655 -0.0716158 0.996635 
-0.0398895 -0.124945 0.991361 
0.0415649 -0.0405146 0.998314 
0.119049 -0.0275844 0.992505 
0.0301155 -0.159744 0.986699 
-0.0492394 -0.191196 0.980316 
-0.073196 -0.1336 0.988329 
-0.120666 -0.0911246 0.988502 
-0.142861 -0.0568386 0.988109 
-0.0599126 -0.12423 0.990443 
0.0387429 -0.113775 0.992751 
0.0990296 -0.0154315 0.994965 
0.076796 -0.0471475 0.995931 
0.103303 0.0574679 0.992988 
0.326852 0.185346 0.926723 
-0.113358 0.177634 0.977546 
-0.143539 0.106563 0.983891 
-0.273745 0.0979988 0.956797 
-0.230362 0.11921 0.965776 
-0.0980879 0.121625 0.987718 
-0.069555 0.018587 0.997405 
-0.143252 -0.123302 0.981975 
-0.121556 -0.0838862 0.989033 
-0.105187 -0.0633582 0.992432 
-0.0219182 0.0648323 0.997655 
-0.0274755 0.138432 0.989991 
-0.0959588 0.0524945 0.994 
-0.0560912 -0.078045 0.995371 
-0.0143396 -0.133786 0.990907 
0.0291247 -0.0416377 0.998708 
-0.0155265 0.00200632 0.999877 
-0.0580454 -0.0882995 0.994401 
0.0507127 -0.135909 0.989423 
0.202722 -0.161691 0.965795 
0.0531683 -0.103572 0.9932 
0.138235 -0.139682 0.9805 
-0.0592654 -0.0915551 0.994035 
-0.0545305 -0.0576224 0.996848 
0.105066 0.0177161 0.994307 
0.206603 0.0343029 0.977823 
0.219026 -0.00127206 0.975718 
0.13856 -0.059326 0.988576 
0.119003 -0.0145885 0.992787 
0.125395 -0.00735439 0.99208 
-0.0260811 -0.145752 0.988977 
-0.0534827 -0.154419 0.986557 
-0.0775021 -0.106333 0.991306 
-0.0787697 -0.0475762 0.995757 
0.00530554 -0.0234385 0.999711 
0.0108733 -0.209749 0.977695 
0.0843553 -0.134897 0.987262 
0.0859183 -0.0872942 0.992471 
-0.0166799 -0.118292 0.992839 
-0.210568 -0.136437 0.968011 
-0.404956 -0.0959711 0.909286 
-0.29148 0.00882081 0.956536 
-0.276718 0.0676369 0.958568 
-0.232259 0.111122 0.966286 
-0.107645 0.111687 0.987896 
-0.0333633 0.118265 0.992421 
-0.110195 0.0727753 0.991242 
-0.225985 -0.012414 0.974052 
-0.248607 -0.032517 0.968058 
-0.20427 -0.0523728 0.977513 
-0.0814909 0.224339 0.971098 
-0.112771 0.239347 0.964363 
-0.138456 0.0589677 0.988611 
-0.128693 -0.145501 0.980952 
-0.0714153 -0.158013 0.984851 
-0.0458686 -0.0775336 0.995934 
-0.00395102 -0.0720523 0.997393 
0.0773719 -0.190942 0.978547 
0.191982 -0.201256 0.960541 
0.215234 -0.175548 0.960655 
0.056145 -0.146168 0.987665 
0.0147218 -0.0340923 0.99931 
0.111061 0.0844553 0.990219 
0.242537 0.116605 0.963109 
0.281379 0.0456828 0.958509 
0.223654 -0.00232172 0.974666 
0.102248 -0.08213 0.991363 
0.0106756 -0.0564757 0.998347 
-0.0745073 -0.0781837 0.994151 
-0.11865 -0.119634 0.985703 
-0.00178232 -0.0302152 0.999542 
0.0979309 -0.045293 0.994162 
0.084728 -0.0411415 0.995554 
0.128666 -0.156474 0.979265 
0.100238 -0.171412 0.980087 
0.0887964 -0.0551886 0.99452 
0.0584814 -0.0306613 0.997818 
-0.0448257 -0.0472731 0.997876 
-0.139898 0.0457206 0.98911 
-0.266607 -0.253823 0.929782 
-0.215091 -0.0148109 0.976482 
-0.121621 0.0752553 0.98972 
0.0228181 0.0621987 0.997803 
0.102902 0.132101 0.985881 
0.0349213 0.159323 0.986609 
-0.124631 0.104396 0.986696 
-0.226183 0.0592007 0.972284 
-0.213872 0.0450102 0.975824 
-0.191404 0.177087 0.965404 
-0.154334 0.282989 0.946625 
-0.148211 0.170017 0.974232 
-0.0919614 -0.0500542 0.994504 
-0.0706451 -0.149311 0.986263 
-0.0543189 -0.1127 0.992143 
-0.0343675 -0.117838 0.992438 
0.0524187 -0.20776 0.976774 