# vtk DataFile Version 3.0 
Exported using Morpho https://github.com/Morpho-lang/morpho 
ASCII 
DATASET UNSTRUCTURED_GRID 

POINTS 1245 float 
-0.303845 -0.952721 0 
-0.250833 -0.96803 0 
-0.195084 -0.980787 0 
-0.146308 -0.989239 0 
-0.0940719 -0.995565 0 
-0.0475118 -0.998871 0 
-0.000246339 -1 0 
0.0470875 -0.998891 0 
0.0937543 -0.995595 0 
0.146139 -0.989264 0 
0.195062 -0.980791 0 
0.250843 -0.968028 0 
0.303953 -0.952687 0 
-0.409153 -0.912466 0 
-0.356519 -0.934288 0 
-0.308871 -0.898929 0 
-0.258282 -0.916037 0 
-0.207345 -0.934859 0 
-0.154868 -0.930629 0 
-0.104343 -0.948989 0 
-0.0520099 -0.939193 0 
-8.5762e-05 -0.954582 0 
0.0518744 -0.939288 0 
0.104354 -0.949042 0 
0.154696 -0.9306 0 
0.207366 -0.934975 0 
0.258274 -0.916081 0 
0.308979 -0.898924 0 
0.356593 -0.93426 0 
0.409236 -0.912429 0 
-0.513788 -0.857917 0 
-0.461695 -0.887039 0 
-0.411157 -0.857936 0 
-0.359855 -0.879963 0 
-0.306888 -0.847481 0 
-0.254732 -0.866979 0 
-0.201991 -0.889059 0 
-0.149956 -0.874108 0 
-0.100608 -0.900088 0 
-0.0497575 -0.880388 0 
2.4595e-05 -0.904789 0 
0.0496869 -0.8804 0 
0.100612 -0.900177 0 
0.149872 -0.874171 0 
0.202071 -0.889165 0 
0.254695 -0.867031 0 
0.306946 -0.847482 0 
0.359894 -0.879943 0 
0.411236 -0.857929 0 
0.461748 -0.887011 0 
0.513842 -0.857885 0 
-0.564741 -0.825268 0 
-0.512908 -0.802945 0 
-0.462372 -0.832348 0 
-0.410124 -0.804631 0 
-0.358606 -0.827415 0 
-0.305781 -0.795641 0 
-0.25358 -0.816639 0 
-0.200756 -0.839997 0 
-0.149043 -0.818944 0 
-0.0987265 -0.846667 0 
-0.0490473 -0.822548 0 
5.00659e-05 -0.849932 0 
0.0490834 -0.822542 0 
0.0987838 -0.846676 0 
0.148997 -0.818924 0 
0.200826 -0.840131 0 
0.253508 -0.816728 0 
0.305831 -0.795701 0 
0.358581 -0.827419 0 
0.410181 -0.804654 0 
0.462414 -0.83234 0 
0.512965 -0.802929 0 
0.564777 -0.825243 0 
-0.660798 -0.750564 0 
-0.614015 -0.789295 0 
-0.561786 -0.769772 0 
-0.510673 -0.747856 0 
-0.460836 -0.778365 0 
-0.408794 -0.751554 0 
-0.357337 -0.774971 0 
-0.304815 -0.743684 0 
-0.252907 -0.765535 0 
-0.200631 -0.789263 0 
-0.149244 -0.764328 0 
-0.0986912 -0.791935 0 
-0.0492815 -0.765764 0 
4.16586e-05 -0.79382 0 
0.0492411 -0.765708 0 
0.0987508 -0.791951 0 
0.149196 -0.764326 0 
0.200666 -0.789356 0 
0.252841 -0.765599 0 
0.304862 -0.743741 0 
0.357323 -0.775038 0 
0.408863 -0.751626 0 
0.460863 -0.778382 0 
0.510716 -0.747859 0 
0.561819 -0.769761 0 
0.614041 -0.789274 0 
0.660811 -0.750552 0 
-0.707107 -0.707107 0 
-0.654819 -0.699058 0 
-0.60813 -0.73348 0 
-0.558104 -0.71337 0 
-0.509495 -0.692659 0 
-0.45935 -0.724356 0 
-0.407328 -0.698865 0 
-0.355968 -0.722823 0 
-0.303722 -0.691387 0 
-0.252254 -0.71362 0 
-0.20067 -0.737336 0 
-0.149608 -0.710068 0 
-0.0991558 -0.737129 0 
-0.0495872 -0.709825 0 
-2.23646e-05 -0.737917 0 
0.0494408 -0.709766 0 
0.0991291 -0.737116 0 
0.149502 -0.710042 0 
0.200696 -0.73743 0 
0.252186 -0.713735 0 
0.303753 -0.691518 0 
0.355952 -0.722893 0 
0.407371 -0.698945 0 
0.459374 -0.724407 0 
0.509524 -0.692668 0 
0.558131 -0.713361 0 
0.608151 -0.733462 0 
0.654824 -0.699048 0 
0.707107 -0.707107 0 
-0.750564 -0.660798 0 
-0.699058 -0.654819 0 
-0.647692 -0.647692 0 
-0.603437 -0.675718 0 
-0.55905 -0.655305 0 
-0.508501 -0.639581 0 
-0.457509 -0.671321 0 
-0.405555 -0.646545 0 
-0.354417 -0.670703 0 
-0.302427 -0.639219 0 
-0.251503 -0.661417 0 
-0.20061 -0.684911 0 
-0.149717 -0.655943 0 
-0.0995004 -0.682466 0 
-0.0498216 -0.654561 0 
-5.02113e-05 -0.682664 0 
0.0496787 -0.654499 0 
0.0994374 -0.682501 0 
0.149603 -0.655909 0 
0.200573 -0.684972 0 
0.251388 -0.661524 0 
0.302407 -0.639359 0 
0.354397 -0.670836 0 
0.405575 -0.646641 0 
0.457525 -0.67138 0 
0.508497 -0.639623 0 
0.559063 -0.655324 0 
0.603436 -0.675715 0 
0.64769 -0.64769 0 
0.699048 -0.654824 0 
0.750552 -0.660811 0 
-0.789295 -0.614015 0 
-0.73348 -0.60813 0 
-0.675718 -0.603437 0 
-0.613088 -0.613088 0 
-0.55962 -0.604068 0 
-0.506189 -0.588854 0 
-0.455505 -0.618874 0 
-0.403019 -0.594688 0 
-0.352514 -0.618952 0 
-0.300977 -0.586897 0 
-0.250543 -0.608767 0 
-0.200257 -0.632053 0 
-0.150049 -0.601979 0 
-0.0998281 -0.628222 0 
-0.0500377 -0.599914 0 
-3.12334e-05 -0.628076 0 
0.0498927 -0.599835 0 
0.0997818 -0.628253 0 
0.149924 -0.601867 0 
0.200214 -0.632118 0 
0.250423 -0.608915 0 
0.30086 -0.587085 0 
0.352457 -0.619096 0 
0.402948 -0.594743 0 
0.455483 -0.618952 0 
0.506147 -0.588901 0 
0.55964 -0.604067 0 
0.613069 -0.613069 0 
0.675715 -0.603436 0 
0.733462 -0.608151 0 
0.789274 -0.614041 0 
-0.825268 -0.564741 0 
-0.769772 -0.561786 0 
-0.71337 -0.558104 0 
-0.655305 -0.55905 0 
-0.604068 -0.55962 0 
-0.551031 -0.551031 0 
-0.497922 -0.537596 0 
-0.451508 -0.567021 0 
-0.399773 -0.542431 0 
-0.350494 -0.567003 0 
-0.301574 -0.534146 0 
-0.250874 -0.555692 0 
-0.200542 -0.579013 0 
-0.150324 -0.548268 0 
-0.100169 -0.57443 0 
-0.0500152 -0.545912 0 
-3.29278e-05 -0.574268 0 
0.0499208 -0.545788 0 
0.100058 -0.574485 0 
0.150038 -0.548073 0 
0.200377 -0.579041 0 
0.250556 -0.55585 0 
0.301273 -0.534348 0 
0.350318 -0.567174 0 
0.399615 -0.542384 0 
0.451404 -0.5671 0 
0.497945 -0.537702 0 
0.551073 -0.551073 0 
0.604067 -0.55964 0 
0.655324 -0.559063 0 
0.713361 -0.558131 0 
0.769761 -0.561819 0 
0.825243 -0.564777 0 
-0.857917 -0.513788 0 
-0.802945 -0.512908 0 
-0.747856 -0.510673 0 
-0.692659 -0.509495 0 
-0.639581 -0.508501 0 
-0.588854 -0.506189 0 
-0.537596 -0.497922 0 
-0.486157 -0.486157 0 
-0.444928 -0.512952 0 
-0.401787 -0.486784 0 
-0.351685 -0.513639 0 
-0.299695 -0.48291 0 
-0.250032 -0.503 0 
-0.200501 -0.526165 0 
-0.149489 -0.495195 0 
-0.0999281 -0.521367 0 
-0.0499712 -0.492294 0 
4.64723e-05 -0.520999 0 
0.050147 -0.492108 0 
0.099934 -0.52133 0 
0.14957 -0.494692 0 
0.200133 -0.526255 0 
0.249839 -0.503309 0 
0.299839 -0.483005 0 
0.351514 -0.513798 0 
0.401881 -0.486608 0 
0.444935 -0.513054 0 
0.486228 -0.486228 0 
0.537702 -0.497945 0 
0.588901 -0.506147 0 
0.639623 -0.508497 0 
0.692668 -0.509524 0 
0.747859 -0.510716 0 
0.802929 -0.512965 0 
0.857885 -0.513842 0 
-0.887039 -0.461695 0 
-0.832348 -0.462372 0 
-0.778365 -0.460836 0 
-0.724356 -0.45935 0 
-0.671321 -0.457509 0 
-0.618874 -0.455505 0 
-0.567021 -0.451508 0 
-0.512952 -0.444928 0 
-0.450685 -0.450685 0 
-0.397667 -0.437543 0 
-0.348492 -0.462546 0 
-0.295416 -0.432968 0 
-0.247004 -0.450633 0 
-0.198702 -0.473818 0 
-0.150161 -0.441625 0 
-0.100085 -0.468395 0 
-0.0502271 -0.439281 0 
0.000144229 -0.468374 0 
0.0504178 -0.439106 0 
0.100428 -0.468348 0 
0.150697 -0.441105 0 
0.199103 -0.473881 0 
0.247983 -0.450921 0 
0.296569 -0.432268 0 
0.348831 -0.462562 0 
0.397506 -0.4368 0 
0.450637 -0.450637 0 
0.513054 -0.444935 0 
0.5671 -0.451404 0 
0.618952 -0.455483 0 
0.67138 -0.457525 0 
0.724407 -0.459374 0 
0.778382 -0.460863 0 
0.83234 -0.462414 0 
0.887011 -0.461748 0 
-0.912466 -0.409153 0 
-0.857936 -0.411157 0 
-0.804631 -0.410124 0 
-0.751554 -0.408794 0 
-0.698865 -0.407328 0 
-0.646545 -0.405555 0 
-0.594688 -0.403019 0 
-0.542431 -0.399773 0 
-0.486784 -0.401787 0 
-0.437543 -0.397667 0 
-0.387256 -0.387256 0 
-0.344215 -0.411459 0 
-0.30136 -0.381507 0 
-0.25021 -0.395692 0 
-0.200211 -0.419975 0 
-0.150955 -0.389014 0 
-0.100617 -0.416095 0 
-0.0503197 -0.386922 0 
-4.02994e-05 -0.416525 0 
0.05006 -0.386948 0 
0.100784 -0.416323 0 
0.150432 -0.388572 0 
0.200855 -0.420694 0 
0.25086 -0.396905 0 
0.301746 -0.379789 0 
0.344135 -0.410678 0 
0.385823 -0.385823 0 
0.4368 -0.397506 0 
0.486608 -0.401881 0 
0.542384 -0.399615 0 
0.594743 -0.402948 0 
0.646641 -0.405575 0 
0.698945 -0.407371 0 
0.751626 -0.408863 0 
0.804654 -0.410181 0 
0.857929 -0.411236 0 
0.912429 -0.409236 0 
-0.934288 -0.356519 0 
-0.879963 -0.359855 0 
-0.827415 -0.358606 0 
-0.774971 -0.357337 0 
-0.722823 -0.355968 0 
-0.670703 -0.354417 0 
-0.618952 -0.352514 0 
-0.567003 -0.350494 0 
-0.513639 -0.351685 0 
-0.462546 -0.348492 0 
-0.411459 -0.344215 0 
-0.351697 -0.351697 0 
-0.29839 -0.336232 0 
-0.249846 -0.342529 0 
-0.200971 -0.367271 0 
-0.149995 -0.337521 0 
-0.100435 -0.3646 0 
-0.0498692 -0.335025 0 
-6.88684e-05 -0.365025 0 
0.0495433 -0.334795 0 
0.0996798 -0.364834 0 
0.148162 -0.337172 0 
0.199644 -0.368939 0 
0.24763 -0.345582 0 
0.295348 -0.332889 0 
0.34978 -0.34978 0 
0.410678 -0.344135 0 
0.462562 -0.348831 0 
0.513798 -0.351514 0 
0.567174 -0.350318 0 
0.619096 -0.352457 0 
0.670836 -0.354397 0 
0.722893 -0.355952 0 
0.775038 -0.357323 0 
0.827419 -0.358581 0 
0.879943 -0.359894 0 
0.93426 -0.356593 0 
-0.952721 -0.303845 0 
-0.898929 -0.308871 0 
-0.847481 -0.306888 0 
-0.795641 -0.305781 0 
-0.743684 -0.304815 0 
-0.691387 -0.303722 0 
-0.639219 -0.302427 0 
-0.586897 -0.300977 0 
-0.534146 -0.301574 0 
-0.48291 -0.299695 0 
-0.432968 -0.295416 0 
-0.381507 -0.30136 0 
-0.336232 -0.29839 0 
-0.288184 -0.288184 0 
-0.242975 -0.290577 0 
-0.198059 -0.315051 0 
-0.148383 -0.285894 0 
-0.0994753 -0.313232 0 
-0.0507184 -0.283118 0 
-0.000202902 -0.313447 0 
0.0500077 -0.282824 0 
0.0988289 -0.312817 0 
0.148102 -0.28482 0 
0.195742 -0.317413 0 
0.240766 -0.295824 0 
0.285014 -0.285014 0 
0.332889 -0.295348 0 
0.379789 -0.301746 0 
0.432268 -0.296569 0 
0.483005 -0.299839 0 
0.534348 -0.301273 0 
0.587085 -0.30086 0 
0.639359 -0.302407 0 
0.691518 -0.303753 0 
0.743741 -0.304862 0 
0.795701 -0.305831 0 
0.847482 -0.306946 0 
0.898924 -0.308979 0 
0.952687 -0.303953 0 
-0.96803 -0.250833 0 
-0.916037 -0.258282 0 
-0.866979 -0.254732 0 
-0.816639 -0.25358 0 
-0.765535 -0.252907 0 
-0.71362 -0.252254 0 
-0.661417 -0.251503 0 
-0.608767 -0.250543 0 
-0.555692 -0.250874 0 
-0.503 -0.250032 0 
-0.450633 -0.247004 0 
-0.395692 -0.25021 0 
-0.342529 -0.249846 0 
-0.290577 -0.242975 0 
-0.239946 -0.239946 0 
-0.194478 -0.26004 0 
-0.151293 -0.23238 0 
-0.101048 -0.260904 0 
-0.0503938 -0.232537 0 
-0.000203281 -0.262984 0 
0.050638 -0.232316 0 
0.100942 -0.260855 0 
0.152412 -0.232597 0 
0.195768 -0.261421 0 
0.241873 -0.241873 0 
0.295824 -0.240766 0 
0.345582 -0.24763 0 
0.396905 -0.25086 0 
0.450921 -0.247983 0 
[...]
POINT_DATA 1245 
VECTORS vectors float
0.436491 -0.164931 0.884462 
0.442804 -0.143199 0.885109 
0.447366 -0.120882 0.886144 
0.449267 -0.102035 0.887552 
0.449111 -0.0818454 0.889719 
0.446674 -0.0636931 0.892427 
0.442252 -0.0447254 0.895775 
0.434685 -0.0236417 0.900272 
0.426133 -0.000464734 0.90466 
0.415728 0.0292895 0.909017 
0.406574 0.0595407 0.911676 
0.398232 0.0967254 0.912171 
0.393049 0.132043 0.909988 
0.419187 -0.209628 0.883368 
0.42863 -0.187084 0.883898 
0.388924 -0.158174 0.90759 
0.396295 -0.138239 0.907656 
0.405358 -0.119858 0.906267 
0.395175 -0.0975277 0.913414 
0.405473 -0.0800284 0.910597 
0.390855 -0.0581198 0.918616 
0.398812 -0.0386895 0.916216 
0.380282 -0.0146292 0.924755 
0.384252 0.00964308 0.923178 
0.36682 0.0368574 0.929562 
0.370727 0.0673317 0.926298 
0.359634 0.0968144 0.928057 
0.354402 0.126235 0.926533 
0.390326 0.164863 0.905796 
0.388858 0.193834 0.900676 
0.395335 -0.255237 0.882363 
0.40812 -0.232387 0.882856 
0.373274 -0.19951 0.906014 
0.381794 -0.1785 0.906847 
0.346493 -0.148488 0.926226 
0.353647 -0.129634 0.926352 
0.36535 -0.110717 0.924263 
0.34583 -0.088705 0.934095 
0.362323 -0.0725683 0.929223 
0.340405 -0.0508122 0.938905 
0.356009 -0.0335879 0.933879 
0.33241 -0.0106973 0.943074 
0.34507 0.0107288 0.938516 
0.324343 0.0353857 0.945277 
0.335953 0.0621928 0.939823 
0.324516 0.090082 0.941581 
0.317801 0.116347 0.940992 
0.351109 0.153711 0.923632 
0.348449 0.178707 0.920134 
0.386761 0.218044 0.896031 
0.381962 0.237687 0.89309 
0.380992 -0.277956 0.881808 
0.351574 -0.241957 0.904352 
0.363261 -0.220734 0.905162 
0.331512 -0.188429 0.924443 
0.339237 -0.168413 0.925503 
0.306804 -0.139982 0.941423 
0.314978 -0.121433 0.941299 
0.325216 -0.104047 0.939898 
0.30373 -0.0816609 0.949252 
0.319013 -0.0660555 0.945446 
0.296724 -0.0453046 0.953888 
0.312912 -0.0288137 0.949345 
0.290346 -0.00777987 0.95689 
0.305374 0.012011 0.952157 
0.286004 0.0344133 0.95761 
0.301927 0.0596914 0.95146 
0.290287 0.0839937 0.953246 
0.283563 0.108007 0.952852 
0.313931 0.141397 0.938858 
0.309988 0.164129 0.936466 
0.34449 0.200322 0.917168 
0.337521 0.218717 0.915556 
0.372733 0.253846 0.892543 
0.349261 -0.321857 0.880014 
0.365433 -0.300343 0.881052 
0.338218 -0.262668 0.903667 
0.311083 -0.228396 0.92253 
0.322209 -0.208539 0.923413 
0.29333 -0.177799 0.939332 
0.300671 -0.158552 0.940457 
0.271286 -0.131457 0.953479 
0.278358 -0.114337 0.953648 
0.288216 -0.0974769 0.952591 
0.265632 -0.0760474 0.96107 
0.279385 -0.0606951 0.958259 
0.258126 -0.0410008 0.965241 
0.273293 -0.0250648 0.961604 
0.252987 -0.00549083 0.967454 
0.268457 0.0131607 0.963202 
0.251521 0.0336311 0.967267 
0.268799 0.0567452 0.961523 
0.258353 0.0788199 0.96283 
0.251131 0.100073 0.962766 
0.278824 0.130309 0.95146 
0.274091 0.151429 0.949707 
0.304466 0.18417 0.934549 
0.295742 0.201901 0.933688 
0.326252 0.234567 0.915717 
0.358156 0.2683 0.894282 
0.338502 0.282729 0.897486 
0.332023 -0.343037 0.878685 
0.312456 -0.304027 0.899966 
0.32375 -0.28237 0.903025 
0.29826 -0.247262 0.921902 
0.274356 -0.21596 0.937065 
0.284697 -0.196849 0.938189 
0.258908 -0.167655 0.95124 
0.26534 -0.149446 0.952502 
0.2383 -0.123711 0.96328 
0.245112 -0.10725 0.963544 
0.253799 -0.0913602 0.962933 
0.231948 -0.0708205 0.970147 
0.243938 -0.0560568 0.968169 
0.224182 -0.0374689 0.973827 
0.238016 -0.022118 0.971009 
0.219984 -0.00392785 0.975496 
0.234917 0.0136358 0.97192 
0.220194 0.0323239 0.97492 
0.237697 0.0537853 0.969849 
0.228037 0.0735684 0.970869 
0.221187 0.0931228 0.970775 
0.246406 0.120717 0.961619 
0.240902 0.140336 0.96035 
0.267302 0.170402 0.948427 
0.257546 0.188081 0.947785 
0.282901 0.217585 0.934143 
0.310529 0.249185 0.917321 
0.295291 0.26666 0.91744 
0.313397 0.299462 0.901169 
0.314642 -0.362142 0.877413 
0.296064 -0.32255 0.899059 
0.278207 -0.286103 0.916922 
0.284555 -0.265292 0.921221 
0.261849 -0.234688 0.936139 
0.242083 -0.204645 0.948428 
0.251016 -0.185806 0.949983 
0.227607 -0.158076 0.960837 
0.233562 -0.140551 0.96213 
0.208796 -0.116199 0.971031 
0.21471 -0.100676 0.971475 
0.222268 -0.0856884 0.971213 
0.201686 -0.0660845 0.977218 
0.212092 -0.0520035 0.975865 
0.194201 -0.0344433 0.980357 
0.206672 -0.0197905 0.97821 
0.190707 -0.00285078 0.981643 
0.204717 0.01373 0.978725 
0.191853 0.0308256 0.980939 
0.208795 0.0507776 0.97664 
0.200092 0.0687587 0.977361 
0.193491 0.086701 0.977264 
0.216311 0.112053 0.969873 
0.210635 0.130778 0.968778 
0.233691 0.158644 0.959281 
0.224181 0.176881 0.958361 
0.243661 0.205136 0.947918 
0.266587 0.232787 0.935276 
0.256337 0.251703 0.93324 
0.271388 0.283801 0.919677 
0.285443 0.318459 0.903939 
0.297729 -0.377784 0.876719 
0.277472 -0.333936 0.900831 
0.259047 -0.292926 0.920374 
0.249183 -0.256153 0.933967 
0.232416 -0.224047 0.946459 
0.213647 -0.193719 0.957511 
0.220704 -0.175401 0.95944 
0.199421 -0.148803 0.96855 
0.204617 -0.132345 0.969854 
0.181903 -0.109254 0.977228 
0.186987 -0.0945027 0.977806 
0.193763 -0.0802562 0.97776 
0.174656 -0.0619019 0.982682 
0.183848 -0.0483968 0.981763 
0.167636 -0.0318971 0.985333 
0.178945 -0.0179247 0.983696 
0.164667 -0.00207267 0.986347 
0.177616 0.0135214 0.984007 
0.166245 0.029372 0.985647 
0.182194 0.0477325 0.982103 
0.174276 0.0643208 0.982594 
0.168227 0.0810333 0.982412 
0.188946 0.104507 0.976411 
0.183077 0.122164 0.975479 
0.20329 0.148548 0.967784 
0.194968 0.167091 0.966472 
0.212266 0.195753 0.957405 
0.227108 0.225565 0.947387 
0.232057 0.260006 0.937308 
0.244814 0.297813 0.922699 
0.257747 0.3384 0.905015 
0.279913 -0.39058 0.876981 
0.261053 -0.347035 0.900788 
0.243218 -0.306166 0.920384 
0.22914 -0.268959 0.935498 
0.217851 -0.239027 0.946259 
0.202507 -0.208796 0.956763 
0.186252 -0.180717 0.965739 
0.192944 -0.164881 0.967257 
0.173389 -0.13991 0.974865 
0.17841 -0.124523 0.976045 
0.157607 -0.103501 0.982063 
0.162055 -0.0891636 0.982745 
0.167976 -0.0755251 0.982894 
0.150501 -0.0581137 0.9869 
0.158738 -0.0452615 0.986283 
0.144142 -0.029659 0.989112 
0.154401 -0.0163923 0.987872 
0.141603 -0.00160824 0.989922 
0.153445 0.0131375 0.98807 
0.143143 0.0279618 0.989307 
0.157927 0.0451358 0.986419 
0.15068 0.0607091 0.986717 
0.145167 0.0766904 0.986431 
0.163802 0.0977696 0.981636 
0.157817 0.114414 0.980818 
0.175776 0.139107 0.974552 
0.167598 0.155828 0.973462 
0.181662 0.183043 0.966175 
0.194197 0.21173 0.95784 
0.201685 0.240626 0.949433 
0.209974 0.276537 0.937784 
0.22049 0.316085 0.922754 
0.23017 0.359207 0.904429 
0.260748 -0.400299 0.878505 
0.243174 -0.35735 0.901758 
0.226464 -0.317123 0.920949 
0.21187 -0.280416 0.936204 
0.199225 -0.248173 0.948008 
0.187635 -0.21969 0.957356 
0.174288 -0.19247 0.965701 
0.16051 -0.167107 0.972785 
0.166361 -0.153761 0.974003 
0.148995 -0.133232 0.979821 
0.154376 -0.118343 0.980899 
0.136095 -0.0975544 0.985881 
0.139458 -0.0840324 0.986656 
0.144932 -0.0711409 0.986881 
0.129065 -0.0545113 0.990137 
0.136463 -0.0423314 0.98974 
0.123195 -0.0276974 0.991996 
0.132594 -0.0151058 0.991055 
0.120966 -0.00117912 0.992656 
0.131818 0.0126743 0.991193 
0.122615 0.0263561 0.992104 
0.136078 0.0426273 0.989781 
0.129471 0.0572858 0.989927 
0.124677 0.0725057 0.989545 
0.140779 0.0930972 0.985654 
0.134172 0.109552 0.984884 
0.149726 0.129617 0.980195 
0.142581 0.144355 0.9792 
0.153798 0.169342 0.973483 
0.164138 0.196087 0.966752 
0.172038 0.224177 0.959243 
0.17964 0.256273 0.949765 
0.187645 0.293251 0.93744 
0.196152 0.334318 0.921822 
0.203742 0.37958 0.902446 
0.239687 -0.407228 0.881314 
0.223542 -0.36475 0.903873 
0.2079 -0.325153 0.922525 
0.193723 -0.288678 0.937623 
0.180946 -0.255685 0.949676 
0.169484 -0.225885 0.959297 
0.158261 -0.198633 0.967212 
0.146833 -0.172549 0.973995 
0.140371 -0.14738 0.979069 
0.128677 -0.125739 0.983683 
0.132965 -0.111505 0.984828 
0.116602 -0.0916511 0.988941 
0.119258 -0.0787258 0.989737 
0.124091 -0.066721 0.990025 
0.109595 -0.0515873 0.992637 
0.116533 -0.0398945 0.992385 
0.104625 -0.0260919 0.994169 
0.113249 -0.0140438 0.993467 
0.102663 -0.000812971 0.994716 
0.112517 0.0123032 0.993574 
0.103792 0.0256111 0.994269 
0.116333 0.0403229 0.992391 
0.110234 0.0539388 0.992441 
0.10626 0.0682056 0.991996 
0.120393 0.0877711 0.988839 
0.114536 0.103592 0.988003 
0.124326 0.125508 0.984272 
0.128076 0.151894 0.980064 
0.136401 0.178352 0.974467 
0.143995 0.206003 0.967899 
0.150976 0.236539 0.959821 
0.15813 0.270602 0.949615 
0.165268 0.308967 0.936603 
0.172543 0.351395 0.92019 
0.178773 0.398563 0.899549 
0.216459 -0.411935 0.88513 
0.202175 -0.369822 0.906839 
0.187846 -0.330737 0.924839 
0.174611 -0.294551 0.939548 
0.162831 -0.261597 0.951343 
0.151846 -0.231491 0.960913 
0.141949 -0.20417 0.968589 
0.132455 -0.179 0.974892 
0.125646 -0.155436 0.979823 
0.118095 -0.135737 0.983681 
0.108905 -0.116892 0.987155 
0.113296 -0.104898 0.988008 
0.099666 -0.0890349 0.991029 
0.100119 -0.0756511 0.992095 
0.105223 -0.0635857 0.992414 
0.0924478 -0.0492023 0.994501 
0.0988189 -0.0378294 0.994386 
0.0880746 -0.0246996 0.995808 
0.0960409 -0.0131733 0.99529 
0.0864512 -0.000721747 0.996256 
0.0953546 0.0119473 0.995372 
0.0874714 0.0244086 0.995868 
0.0985341 0.0388278 0.994376 
0.0926256 0.0525387 0.994314 
0.0893474 0.0669668 0.993747 
0.101641 0.08279 0.99137 
0.0960332 0.0953848 0.990797 
0.103464 0.115576 0.987895 
0.108968 0.1363 0.984656 
0.11298 0.161167 0.980439 
0.119158 0.187545 0.975002 
0.12529 0.216213 0.968274 
0.131393 0.248165 0.959766 
0.137545 0.283594 0.949029 
0.143859 0.323087 0.935371 
0.150176 0.366784 0.918105 
0.155346 0.415486 0.896236 
0.19105 -0.41522 0.889434 
0.179219 -0.373448 0.910174 
0.166032 -0.334543 0.927639 
0.154488 -0.298875 0.941704 
0.143334 -0.265861 0.953296 
0.133768 -0.235791 0.962553 
0.124556 -0.208306 0.9701 
0.116414 -0.183239 0.976151 
0.110098 -0.160176 0.980929 
0.102977 -0.139737 0.984819 
0.096565 -0.120719 0.987979 
0.0936325 -0.101935 0.990375 
0.0843779 -0.0851675 0.992787 
0.0837753 -0.0718627 0.99389 
0.0882002 -0.0606953 0.994252 
0.0770873 -0.0466172 0.995934 
0.0829975 -0.0358936 0.995903 
0.0732309 -0.0233125 0.997043 
0.0806186 -0.0124098 0.996668 
0.071756 -0.000608174 0.997422 
0.0799496 0.0113626 0.996734 
0.0726659 0.0230062 0.997091 
0.0824753 0.0370495 0.995904 
0.0771039 0.0496303 0.995787 
0.0753883 0.0629982 0.995162 
0.0824983 0.0811642 0.993281 
0.0840679 0.102141 0.991211 
0.0889127 0.122211 0.988514 
0.0933592 0.14421 0.985133 
0.0969887 0.169028 0.980828 
0.101932 0.195936 0.975305 
0.107119 0.225772 0.968273 
0.112292 0.258583 0.95944 
0.117759 0.295355 0.948103 
0.12325 0.335572 0.933917 
0.12912 0.380287 0.915811 
0.133255 0.430171 0.892858 
0.163505 -0.41776 0.893724 
0.154592 -0.376211 0.913546 
0.143675 -0.338225 0.930033 
0.132739 -0.302296 0.943927 
0.124043 -0.26963 0.954941 
0.11502 -0.239089 0.964161 
0.107316 -0.211406 0.971489 
0.100085 -0.185987 0.977442 
0.0942001 -0.163 0.982119 
0.088361 -0.142377 0.985861 
0.0824149 -0.123829 0.988875 
0.0797851 -0.10756 0.990992 
0.0762927 -0.0930771 0.992732 
0.0699256 -0.0790292 0.994417 
0.0681258 -0.0674363 0.995395 
0.072854 -0.0573466 0.995693 
0.0630309 -0.0443826 0.997024 
0.0686562 -0.0340821 0.997058 
0.0597115 -0.0225083 0.997962 
0.0665846 -0.0117832 0.997711 
0.0584212 -0.000362302 0.998292 
0.0659517 0.0108224 0.997764 
0.0591801 0.0222801 0.997999 
0.0682388 0.0348066 0.997062 
0.0635931 0.0460162 0.996914 
0.0617817 0.058534 0.996372 
0.0661746 0.0731116 0.995126 
0.0701323 0.0887489 0.993582 
0.0710385 0.107396 0.991675 
0.0747964 0.127693 0.988989 
0.0783089 0.150025 0.985576 
0.0815973 0.175376 0.981114 
0.0857316 0.203375 0.97534 
0.0899581 0.234124 0.968036 
0.094512 0.268587 0.958608 
0.098904 0.305737 0.946965 
0.103969 0.347446 0.931918 
0.109235 0.391931 0.913487 
0.112251 0.442494 0.889718 
0.134174 -0.42012 0.897495 
0.129977 -0.380112 0.915762 
0.118845 -0.342595 0.931936 
0.111706 -0.307942 0.944824 
0.103352 -0.27497 0.955882 
0.0966063 -0.244482 0.964829 
0.0899853 -0.216328 0.972165 
0.0838178 -0.19046 0.97811 
0.0787649 -0.166911 0.982821 
0.0737826 -0.145532 0.986599 
0.0686012 -0.126262 0.989622 
0.0659694 -0.107995 0.99196 
0.0620975 -0.0922049 0.993802 
0.0578432 -0.0773102 0.995328 
0.0547403 -0.0643166 0.996427 
0.058025 -0.0540452 0.996851 
0.0498308 -0.0433837 0.997815 
0.055378 -0.0329459 0.997922 
0.0476345 -0.0215003 0.998633 
0.0540758 -0.0111867 0.998474 
0.0465914 -1.94028e-05 0.998914 
0.0531201 0.0111299 0.998526 
0.0468991 0.0227687 0.99864 
0.0540149 0.0337686 0.997969 
0.0502366 0.0452734 0.997711 
0.0512413 0.0600869 0.996877 
0.0543537 0.0754571 0.995667 
0.0568293 0.0927436 0.994067 
0.0584313 0.112258 0.99196 
0.0612358 0.133565 0.989146 
0.0640982 0.157213 0.985482 
0.066882 0.183564 0.98073 
0.0702314 0.212703 0.97459 
0.0737138 0.244758 0.966778 
0.0772038 0.279725 0.956971 
0.0812428 0.318333 0.944491 
0.0850065 0.35885 0.929516 
0.0906548 0.403494 0.91048 
0.0919688 0.452616 0.88695 
0.101944 -0.422936 0.900407 
0.102665 -0.387058 0.916322 
0.0957938 -0.351784 0.931167 
0.0882392 -0.316614 0.944441 
0.083079 -0.283396 0.955398 
0.0777549 -0.252144 0.964561 
0.0725423 -0.223223 0.972064 
0.0678417 -0.196705 0.978113 
0.0636109 -0.172544 0.982946 
0.0596812 -0.150784 0.986764 
0.0557121 -0.130954 0.989822 
0.0528966 -0.112931 0.992194 
0.050384 -0.0966161 0.994046 
0.0472373 -0.0818187 0.995527 
0.0440932 -0.0674299 0.996749 
0.0439151 -0.0537709 0.997587 
0.0386895 -0.0412182 0.998401 
0.0434262 -0.0314448 0.998562 
0.0364446 -0.0201097 0.999133 
0.0426225 -0.0106649 0.999034 
0.0357552 -0.000651408 0.99936 
0.0416866 0.0106816 0.999074 
0.0364593 0.0216022 0.999102 
0.0408734 0.0347429 0.99856 
0.0399693 0.0496918 0.997965 
0.0410664 0.0654102 0.997013 
0.0432443 0.0817018 0.995718 
0.045158 0.0991871 0.994044 
0.0463158 0.119532 0.991749 
0.048604 0.141394 0.988759 
0.0507243 0.166069 0.984809 
0.0529874 0.193538 0.979661 
0.0554886 0.22389 0.973034 
0.0581857 0.257384 0.964556 
0.0609173 0.29388 0.953899 
0.0637362 0.332943 0.94079 
0.0676922 0.375031 0.924538 
0.0721258 0.416455 0.906291 
0.0711056 0.46072 0.884693 
0.0731779 -0.425796 0.901855 
0.0742434 -0.378584 0.922584 
0.0664125 -0.335719 0.939618 
0.0627664 -0.297903 0.952531 
0.0583763 -0.263545 0.962879 
0.054949 -0.232597 0.97102 
0.0514196 -0.204521 0.977511 
0.0482124 -0.17921 0.982629 
0.0453132 -0.15637 0.986659 
0.0423395 -0.136019 0.989801 
0.0400462 -0.11737 0.992281 
0.0381318 -0.100894 0.994166 
0.0359242 -0.0860312 0.995645 
0.0339568 -0.0724481 0.996794 
0.0332083 -0.05954 0.997673 
0.031218 -0.0485333 0.998334 
0.0275107 -0.0376854 0.998911 
0.0324115 -0.0294599 0.99904 
0.0256996 -0.0204378 0.999461 
0.0313702 -0.0101914 0.999456 
0.0251888 0.00055318 0.999683 
0.0312352 0.00949252 0.999467 
0.026114 0.0183098 0.999491 
0.0291013 0.0298377 0.999131 
0.0302984 0.0414653 0.99868 
0.0300293 0.0552775 0.998019 
0.030838 0.0705267 0.997033 
0.0323375 0.0868305 0.995698 
0.0334762 0.105614 0.993844 
0.0346369 0.126288 0.991389 
0.0360993 0.149736 0.988067 
0.0376911 0.17568 0.983726 
0.039309 0.204873 0.977999 
0.0411553 0.237334 0.970556 
0.043013 0.273369 0.960947 
0.0454104 0.313829 0.948393 
0.0477892 0.358271 0.932394 
0.0529091 0.40926 0.910883 
0.0529155 0.465672 0.883374 
0.0426822 -0.429324 0.902142 
0.0469473 -0.390537 0.91939 
0.0441789 -0.352266 0.934857 
0.0409906 -0.313677 0.948644 
0.038703 -0.277648 0.959903 
0.0368746 -0.244905 0.968846 
0.0346515 -0.215254 0.975943 
0.0327055 -0.188677 0.981494 
0.0308186 -0.164883 0.985831 
0.0288849 -0.143627 0.98921 
0.0272822 -0.124511 0.991843 
0.0259018 -0.107421 0.993876 
0.0245166 -0.0920879 0.995449 
0.0231473 -0.0781524 0.996673 
0.0224351 -0.065042 0.99763 
0.0210897 -0.0534474 0.998348 
0.0194492 -0.0422777 0.998917 
0.0201119 -0.0300385 0.999346 
0.0164702 -0.0196469 0.999671 
0.0220284 -0.0100906 0.999706 
0.0161588 0.000117257 0.999869 
0.0193254 0.010747 0.999755 
0.0182642 0.0238823 0.999548 
0.0194391 0.0355923 0.999177 
0.0199937 0.048355 0.99863 
0.0200487 0.0625859 0.997838 
0.020754 0.0784597 0.996701 
0.0216963 0.0956117 0.995182 
0.0223439 0.114876 0.993129 
0.0230311 0.136706 0.990344 
0.02401 0.160934 0.986673 
0.0249114 0.188344 0.981787 
0.0258875 0.218992 0.975383 
0.0270556 0.253414 0.966979 
0.0281984 0.291552 0.956139 
0.0297814 0.333723 0.942201 
0.0323962 0.379168 0.92476 
0.0349833 0.423891 0.905037 
0.033375 0.469237 0.882442 
0.0162261 -0.432711 0.901387 
0.0201731 -0.381986 0.923948 
0.0186001 -0.336665 0.941441 
0.0185111 -0.296256 0.954929 
0.0179033 -0.260284 0.965366 
0.0172581 -0.228312 0.973435 
0.0165454 -0.199833 0.97969 
0.0156889 -0.174442 0.984543 
0.014839 -0.15188 0.988288 
0.0139954 -0.131658 0.991196 
0.0132875 -0.113632 0.993434 
0.0126275 -0.0975362 0.995152 
0.0118886 -0.0829568 0.996482 
0.0115182 -0.0697228 0.9975 
0.0110508 -0.0576897 0.998273 
0.00978931 -0.0465314 0.998869 
0.010536 -0.0358976 0.9993 
0.00972111 -0.0262418 0.999608 
0.00644338 -0.0161286 0.999849 
0.0125355 -0.00953852 0.999876 
0.00643834 -0.00338866 0.999974 
0.00956314 0.00732716 0.999927 
0.00997141 0.0172242 0.999802 
0.00921391 0.0286978 0.999546 
0.00994836 0.0407493 0.99912 
0.00999976 0.0539274 0.998495 
0.0101136 0.0687822 0.99758 
0.0104801 0.0851537 0.996313 
0.010808 0.103384 0.994583 
0.0110624 0.123865 0.992237 
0.0113327 0.146961 0.989077 
0.0116268 0.172914 0.984868 
0.0119508 0.20212 0.979288 
0.0122664 0.234982 0.971922 
0.0126789 0.271954 0.962227 
0.0133519 0.313658 0.949442 
0.0140113 0.360388 0.932697 
0.0164148 0.412988 0.910589 
0.0156782 0.470926 0.882033 
-0.00912273 -0.436121 0.899842 
-0.00741677 -0.396219 0.918126 
-0.00457589 -0.355981 0.934482 
-0.00316332 -0.31542 0.948947 
-0.00198804 -0.277765 0.960647 
-0.00102936 -0.243883 0.969804 
-0.00049852 -0.213689 0.976902 
-0.00015554 -0.186844 0.98239 
7.99707e-05 -0.163013 0.986624 
0.000171046 -0.141757 0.989902 
0.000209245 -0.122866 0.992423 
0.000298963 -0.105987 0.994368 
0.000304559 -0.0908041 0.995869 
0.000341747 -0.0769415 0.997036 
0.000326945 -0.0644346 0.997922 
0.000209068 -0.0530525 0.998592 
0.000312956 -0.0416615 0.999132 
0.000162891 -0.0319971 0.999488 
0.000288709 -0.0225593 0.999745 
0.000277619 -0.00963164 0.999954 
0.000256885 0.00353818 0.999994 
0.000367753 0.0133823 0.99991 
0.000237342 0.0237579 0.999718 
0.000284969 0.0360016 0.999352 
0.000157479 0.0485788 0.998819 
9.77701e-05 0.0624464 0.998048 
3.69716e-05 0.0780298 0.996951 
-7.86192e-05 0.095224 0.995456 
-0.000190967 0.114354 0.99344 
-0.000450331 0.135977 0.990712 
-0.000731725 0.160293 0.987069 
-0.00105001 0.187595 0.982246 
-0.00143859 0.218424 0.975853 
-0.00177836 0.253069 0.967447 
-0.00218732 0.291897 0.956447 
-0.00238096 0.334951 0.942232 
-0.00229044 0.381138 0.924515 
-0.00275334 0.426691 0.904393 
-0.00198767 0.471455 0.881888 
-0.0338328 -0.438263 0.89821 
-0.0310745 -0.386416 0.921801 
-0.0266134 -0.339701 0.940157 
-0.0228794 -0.298244 0.954216 
-0.020511 -0.26159 0.964961 
-0.0185318 -0.22908 0.973231 
-0.016944 -0.200238 0.979601 
-0.0156034 -0.174577 0.98452 
-0.0144814 -0.151816 0.988303 
-0.0135408 -0.131472 0.991227 
-0.0127627 -0.113351 0.993473 
-0.0119866 -0.0972985 0.995183 
-0.0112223 -0.0826185 0.996518 
-0.0108169 -0.0693667 0.997533 
-0.0105202 -0.0573682 0.998298 
-0.00947116 -0.0463583 0.99888 
-0.0100682 -0.0356671 0.999313 
-0.00942011 -0.026241 0.999611 
-0.00599099 -0.0158073 0.999857 
-0.0120469 -0.00981907 0.999879 
-0.00581957 -0.00308728 0.999978 
-0.00883648 0.00725529 0.999935 
-0.00944947 0.0173423 0.999805 
-0.00856371 0.0287467 0.99955 
-0.00948122 0.0409588 0.999116 
-0.00978143 0.0541497 0.998485 
-0.00996537 0.0690474 0.997564 
-0.0104891 0.0854222 0.99629 
-0.0110368 0.103742 0.994543 
-0.0116384 0.124366 0.992168 
-0.0124487 0.147525 0.98898 
-0.0134032 0.173546 0.984735 
-0.0144075 0.202817 0.979111 
-0.0155412 0.235703 0.971701 
-0.0167347 0.272632 0.961973 
-0.017909 0.314035 0.949243 
-0.0196733 0.360654 0.932492 