# vtk DataFile Version 3.0 
Exported using Morpho https://github.com/Morpho-lang/morpho 
ASCII 
DATASET UNSTRUCTURED_GRID 

POINTS 1978 float 
-8.48131 -2.82127 0.000176923 
-8.23407 -2.82707 -0.000800712 
-8.04167 -2.82385 -0.000659944 
-7.79009 -2.82648 -0.000554861 
-7.46143 -2.81854 -0.00043273 
-7.1977 -2.82298 -0.000283398 
-6.99834 -2.82533 -0.000319685 
-6.75435 -2.81949 -0.000246847 
-6.50724 -2.82384 -0.000160786 
-6.33701 -2.82396 -0.000180916 
-6.16729 -2.82083 -1.57083e-05 
-5.93101 -2.82306 -0.000126964 
-5.71824 -2.82182 -0.000221618 
-5.51804 -2.82076 -9.84094e-06 
-5.29633 -2.82175 -7.31407e-05 
-5.08295 -2.82254 -0.000153193 
-4.8714 -2.82236 -5.94681e-05 
-4.66199 -2.82273 -1.74994e-06 
-4.44966 -2.82275 6.47105e-06 
-4.22771 -2.82347 4.06267e-05 
-4.02296 -2.8221 -2.79259e-05 
-3.82089 -2.82342 5.8584e-05 
-3.61359 -2.8231 7.81673e-05 
-3.40557 -2.82376 0.000144232 
-3.18619 -2.82219 0.000212299 
-2.96893 -2.82308 0.000209961 
-2.74947 -2.82367 0.000403061 
-2.51982 -2.824 0.000489706 
-2.29337 -2.82612 0.000707243 
-2.0619 -2.82735 0.000697802 
-1.82407 -2.82733 0.000784429 
-1.62017 -2.828 0.000355701 
-1.42581 -2.82964 0.00015628 
-1.22201 -2.82484 0.000289496 
-1.05338 -2.81052 0.000654575 
-0.878897 -2.8234 0.00125904 
-0.785957 -2.81795 0.00208088 
-0.643385 -2.7945 0.00750013 
-0.281709 -2.73165 0.0056487 
0.0777552 -2.75657 -0.00327826 
0.324197 -2.76179 -0.00284643 
0.602286 -2.80744 -0.010056 
0.764794 -2.79895 -0.00338224 
0.922351 -2.8226 -0.00103713 
1.09408 -2.82047 -0.000583124 
1.22643 -2.82619 0.000164741 
1.36158 -2.82686 -0.000402992 
1.59537 -2.8275 -0.000509316 
1.81515 -2.82815 -0.000697422 
2.07678 -2.82844 -0.000750562 
2.29409 -2.82478 -0.000585141 
2.51545 -2.82622 -0.000524176 
2.74316 -2.82364 -0.00039111 
2.97401 -2.82315 -0.000311017 
3.19544 -2.82182 -0.000151775 
3.39877 -2.82333 -0.000112705 
3.61856 -2.82336 -8.62509e-05 
3.82149 -2.82274 2.13817e-05 
4.02979 -2.82255 -5.06121e-05 
4.24933 -2.82279 5.06561e-05 
4.45068 -2.82276 -1.65621e-06 
4.66118 -2.82199 1.61804e-05 
4.85774 -2.82259 -1.80269e-05 
5.07646 -2.82179 5.87815e-05 
5.2811 -2.82287 0.000138906 
5.49965 -2.82248 -9.8996e-05 
5.7139 -2.82239 0.000257596 
5.9286 -2.82176 0.000113761 
6.16203 -2.82009 7.04989e-05 
6.36841 -2.82209 0.000224831 
6.59663 -2.8228 0.000119657 
6.8201 -2.82193 0.000289972 
7.02363 -2.82459 0.000241078 
7.28575 -2.82159 0.000338077 
7.5274 -2.82461 0.000380971 
7.75974 -2.82287 0.00046042 
8.03269 -2.82427 0.000773369 
8.22121 -2.82852 0.000618355 
8.47812 -2.8205 -6.24044e-05 
-8.48162 -2.55416 0.000877681 
-8.27914 -2.60913 -0.00011504 
-8.04083 -2.54108 -0.000151504 
-7.84332 -2.6103 -3.76813e-05 
-7.57643 -2.65755 -9.17847e-05 
-7.25799 -2.61698 -9.46643e-05 
-7.00891 -2.55547 -4.98315e-06 
-6.80856 -2.60186 1.36665e-05 
-6.55823 -2.60923 8.2676e-05 
-6.33393 -2.51784 1.36245e-05 
-6.11146 -2.60393 -3.59506e-05 
-5.89064 -2.58232 2.93221e-05 
-5.68299 -2.56521 7.44789e-05 
-5.45991 -2.59068 8.05415e-05 
-5.23763 -2.58452 3.38505e-05 
-5.01986 -2.58474 4.03239e-05 
-4.80489 -2.58401 6.06323e-05 
-4.58819 -2.58916 8.98901e-05 
-4.3644 -2.60064 8.12497e-05 
-4.14834 -2.5829 9.69762e-05 
-3.94012 -2.57837 7.22139e-05 
-3.7312 -2.58323 0.00011303 
-3.51844 -2.58159 0.000101304 
-3.30084 -2.59065 0.00011959 
-3.07712 -2.58453 0.000185092 
-2.85571 -2.58435 0.000224089 
-2.62837 -2.59323 0.000296105 
-2.39779 -2.59209 0.000227584 
-2.16825 -2.59992 0.000267 
-1.93298 -2.61018 0.000467805 
-1.71149 -2.58258 0.000337501 
-1.5119 -2.58818 -0.000125846 
-1.31773 -2.61058 -0.000272983 
-1.13509 -2.57471 -4.19844e-05 
-0.949615 -2.60489 7.09855e-05 
-0.833136 -2.45169 -0.000769571 
-0.722494 -2.59142 -0.000116644 
-0.546012 -2.67114 -0.00070374 
-0.279494 -2.64955 -0.00157882 
-0.0179336 -2.6482 0.00853863 
0.239938 -2.63784 -0.00432609 
0.502752 -2.67626 0.00234923 
0.678292 -2.60279 0.00105326 
0.859436 -2.58726 3.6503e-05 
1.02094 -2.59884 -7.10562e-05 
1.17835 -2.51213 0.000190095 
1.38965 -2.63494 0.000359454 
1.60849 -2.61011 -0.000251188 
1.86346 -2.63892 -0.000466341 
2.08086 -2.59243 -0.000459966 
2.30677 -2.58817 -0.000297812 
2.53723 -2.59548 -0.000235682 
2.77466 -2.59705 -0.00020691 
3.00214 -2.58855 -0.000204139 
3.21295 -2.56887 -0.000137173 
3.4349 -2.59299 -0.000122746 
3.64493 -2.57598 -0.000158562 
3.85711 -2.58333 -0.000145778 
4.07928 -2.59704 -0.0001118 
4.28862 -2.5782 -7.46493e-05 
4.50201 -2.58927 -6.10784e-05 
4.70619 -2.57031 -2.36308e-05 
4.92033 -2.59464 7.62671e-06 
5.13228 -2.57709 -4.85206e-05 
5.35069 -2.59231 -5.31216e-07 
5.56807 -2.58495 -6.64703e-05 
5.78581 -2.58488 -6.68755e-05 
6.01398 -2.60101 -5.63053e-05 
6.23231 -2.56839 -6.22543e-05 
6.45359 -2.59245 -4.94249e-05 
6.67931 -2.58542 3.68346e-05 
6.89221 -2.56064 9.89277e-05 
7.12358 -2.61854 8.38252e-05 
7.37681 -2.59943 0.000126717 
7.61215 -2.59154 5.88898e-05 
7.87032 -2.62604 0.000106212 
8.07468 -2.53942 9.72191e-05 
8.29741 -2.61616 8.08465e-06 
8.48623 -2.53211 -0.000824314 
-8.48029 -2.35881 0.000755553 
-8.19931 -2.35909 -5.88878e-06 
-7.9429 -2.30006 -5.55928e-05 
-7.72553 -2.42448 0.000106482 
-7.58238 -2.28014 4.46542e-05 
-7.43539 -2.46801 -6.40876e-05 
-7.1762 -2.37718 1.41429e-05 
-6.95318 -2.29574 2.22079e-06 
-6.73 -2.39261 -1.19328e-05 
-6.51297 -2.35517 -3.97499e-05 
-6.21662 -2.33036 6.54367e-05 
-6.01418 -2.35746 6.02154e-05 
-5.80142 -2.32551 7.15534e-05 
-5.57313 -2.34556 0.000108224 
-5.35578 -2.35548 0.000128348 
-5.13294 -2.34968 0.000118585 
-4.91622 -2.348 7.92527e-05 
-4.6988 -2.35423 8.32409e-05 
-4.47652 -2.37036 5.84805e-05 
-4.26296 -2.36093 7.30023e-05 
-4.04822 -2.34069 5.52148e-05 
-3.83681 -2.34131 9.34285e-05 
-3.62605 -2.34553 0.000111091 
-3.40751 -2.35071 7.34576e-05 
-3.19033 -2.35635 6.44837e-05 
-2.96775 -2.34627 0.000105738 
-2.7438 -2.35539 9.40625e-05 
-2.51953 -2.36176 -2.1514e-05 
-2.29088 -2.36322 -0.000134448 
-2.06104 -2.38128 -1.62919e-05 
-1.84238 -2.36879 0.000231679 
-1.62595 -2.34016 -4.41212e-06 
-1.42747 -2.36012 -0.000176651 
-1.24851 -2.36552 0.000247322 
-1.03468 -2.38969 0.000147976 
-0.776916 -2.29252 0.00125026 
-0.605976 -2.45053 0.0010667 
-0.44241 -2.53055 -0.0019731 
-0.222152 -2.532 0.00255025 
0.00431748 -2.52011 0.0035414 
0.2325 -2.52076 -0.00574861 
0.454783 -2.53364 0.0034499 
0.641875 -2.42198 -0.00147787 
0.822394 -2.39157 0.000674781 
1.00776 -2.35612 0.000236271 
1.18155 -2.26598 -6.39122e-05 
1.34983 -2.40277 -2.64241e-05 
1.5423 -2.40225 -0.000145091 
1.78307 -2.43411 -7.70033e-05 
2.00141 -2.37254 3.02151e-05 
2.2313 -2.35868 0.000154387 
2.4642 -2.36088 6.14524e-05 
2.69283 -2.37432 -5.99385e-05 
2.92588 -2.35856 -0.000177372 
3.14327 -2.32848 -0.000101813 
3.36852 -2.35376 -5.06007e-05 
3.57906 -2.33979 -4.33679e-05 
3.79661 -2.34413 -7.099e-05 
4.0139 -2.36783 -0.000110031 
4.22584 -2.3453 -0.000117993 
4.44281 -2.35335 -0.000113375 
4.65016 -2.33241 -8.64582e-05 
4.86749 -2.35434 -7.0149e-06 
5.0748 -2.34387 -5.7451e-05 
5.29641 -2.35738 -6.12219e-05 
5.51261 -2.35075 -7.03259e-05 
5.73116 -2.34959 -6.2678e-05 
5.955 -2.36944 -1.61573e-05 
6.17127 -2.33939 -1.76729e-05 
6.40458 -2.34907 -5.79445e-05 
6.62302 -2.35077 2.46734e-05 
6.84091 -2.31627 3.93418e-05 
7.07211 -2.37124 -2.76336e-05 
7.29417 -2.39302 -1.22596e-05 
7.5457 -2.3624 -4.71022e-05 
7.7947 -2.40599 -5.19306e-05 
8.00628 -2.30387 4.70359e-06 
8.25141 -2.35488 -1.20063e-05 
8.47981 -2.29697 -0.000658885 
-8.47918 -2.10382 0.00079195 
-8.26465 -2.16082 -3.35383e-05 
-8.07486 -2.07122 -0.00011455 
-7.80679 -2.12432 1.92704e-05 
-7.55402 -2.05667 3.32648e-05 
-7.33373 -2.22612 -7.49844e-05 
-7.09975 -2.10584 -1.03335e-05 
-6.80218 -2.12481 -7.90958e-05 
-6.60386 -2.12631 -9.52529e-05 
-6.36069 -2.16298 -1.09384e-05 
-6.11878 -2.08685 6.09737e-06 
-5.92319 -2.09828 -3.49136e-05 
-5.69134 -2.11033 -3.0895e-05 
-5.46999 -2.11425 -1.47494e-05 
-5.25346 -2.12342 -5.28806e-05 
-5.03462 -2.11502 -6.05292e-05 
-4.81745 -2.11975 -0.000114563 
-4.59606 -2.13719 -0.000107704 
-4.38538 -2.13295 -0.000126154 
-4.17533 -2.12068 -0.000138623 
-3.95928 -2.10596 -0.000147873 
-3.74812 -2.10634 -0.000123046 
-3.53264 -2.11709 -0.000173711 
-3.31386 -2.11875 -0.000207246 
-3.09743 -2.12099 -0.000223233 
-2.87012 -2.11748 -0.000192669 
-2.64796 -2.12404 -0.000187183 
-2.4245 -2.13124 -0.000200829 
-2.19286 -2.14099 -0.000142006 
-1.975 -2.14059 -4.1869e-05 
-1.75791 -2.12646 6.20746e-05 
-1.5403 -2.10616 0.000217516 
-1.3534 -2.11229 0.000313024 
-1.15757 -2.16416 -0.000545757 
-0.971492 -2.21417 -0.000166449 
-0.82866 -2.07799 0.000596742 
-0.618736 -2.23575 0.00296782 
-0.413249 -2.39406 -0.0032242 
-0.176048 -2.39136 0.00618822 
0.0797542 -2.40919 -0.0193018 
0.358391 -2.38553 0.00151279 
0.52248 -2.28937 -0.00598616 
0.67011 -2.22175 -0.000623238 
0.812524 -2.13069 -0.000259909 
0.963853 -2.1478 -0.000349814 
1.15399 -2.05749 -0.000147697 
1.38135 -2.16788 -8.06253e-05 
1.614 -2.21309 3.03966e-05 
1.82003 -2.19007 0.000101502 
2.05453 -2.14436 0.000126533 
2.29278 -2.13647 0.000224502 
2.52342 -2.13129 0.000255132 
2.74834 -2.14587 0.00019065 
2.96504 -2.11141 0.00017291 
3.2003 -2.10685 0.000217065 
3.40885 -2.10832 0.000213361 
3.62934 -2.11011 0.000184751 
3.85124 -2.1209 0.00021268 
4.0574 -2.12882 0.000158182 
4.27778 -2.11845 0.000119464 
4.48264 -2.10992 6.37249e-05 
4.70616 -2.10951 5.80226e-05 
4.90953 -2.11004 8.09923e-05 
5.13112 -2.12054 5.82054e-05 
5.34435 -2.12201 2.03651e-05 
5.56305 -2.11712 -2.83486e-06 
5.78884 -2.12577 3.74782e-05 
5.99828 -2.12334 4.0487e-05 
6.23514 -2.11916 1.99e-05 
6.45652 -2.10926 -5.43592e-06 
6.66806 -2.09951 4.36504e-05 
6.91435 -2.10224 6.59951e-05 
7.13077 -2.13258 -2.02165e-05 
7.35963 -2.1697 -4.9348e-05 
7.55057 -2.07741 -6.46145e-05 
7.73871 -2.17753 -6.89434e-05 
7.95568 -2.07854 3.585e-05 
8.20931 -2.12621 -9.0198e-05 
8.47976 -2.09579 -0.000708362 
-8.47716 -1.7891 0.000513924 
-8.30639 -1.89351 9.93851e-05 
-7.90273 -1.89963 -1.19142e-07 
-7.67442 -1.87478 3.2919e-05 
-7.43855 -1.78761 -7.48829e-05 
[...]
POINT_DATA 1978 
VECTORS vectors float
0.0970392 -0.140626 0.986469 
0.108247 -0.104368 0.991529 
0.116547 -0.0810911 0.992845 
0.126634 -0.0572492 0.993291 
0.136141 -0.0370467 0.993035 
0.143191 -0.026473 0.992213 
0.147607 -0.0197132 0.991571 
0.150691 -0.0157407 0.991104 
0.154834 -0.0128083 0.990477 
0.155803 -0.0120887 0.989459 
0.156318 -0.0125255 0.990212 
0.156327 -0.0114707 0.990084 
0.156293 -0.0108144 0.99017 
0.155593 -0.0104418 0.990344 
0.154114 -0.0083656 0.990529 
0.154482 -0.00663674 0.990484 
0.154212 -0.00462421 0.990517 
0.1526 -0.00265576 0.990786 
0.152132 -0.000159271 0.990843 
0.150294 0.00353323 0.991126 
0.14836 0.00771162 0.991424 
0.147083 0.0135121 0.991584 
0.145282 0.0189504 0.991818 
0.14444 0.0258714 0.99183 
0.141916 0.0335742 0.992042 
0.139061 0.0418454 0.992172 
0.133065 0.0540534 0.992472 
0.124201 0.0716164 0.992541 
0.112604 0.0966753 0.99177 
0.097276 0.132687 0.989112 
0.0780689 0.183303 0.982496 
0.0571965 0.242611 0.970707 
0.0345631 0.314526 0.950238 
0.0100521 0.410031 0.91301 
-0.00721657 0.502528 0.865197 
-0.0237363 0.608089 0.793794 
-0.0279028 0.664797 0.746536 
-0.0323444 0.751226 0.661457 
-0.0232728 0.943904 0.325128 
0.00113309 0.99565 -0.0983747 
0.0219379 0.926429 -0.369045 
0.0369519 0.780942 -0.626246 
0.0294094 0.678149 -0.733782 
0.0201293 0.577728 -0.815911 
0.000861209 0.477791 -0.879052 
-0.0127781 0.408355 -0.913316 
-0.0273285 0.342793 -0.940769 
-0.0546756 0.25163 -0.96825 
-0.0772952 0.18586 -0.981995 
-0.0987236 0.12957 -0.989281 
-0.112893 0.0964574 -0.991772 
-0.124075 0.0722542 -0.992505 
-0.132894 0.0540941 -0.992491 
-0.138789 0.04178 -0.992224 
-0.142304 0.0330433 -0.992023 
-0.144185 0.0260554 -0.991902 
-0.145605 0.0191274 -0.991752 
-0.146878 0.0128413 -0.991656 
-0.148484 0.00790867 -0.991426 
-0.150322 0.00279223 -0.991125 
-0.151439 0.00021278 -0.990942 
-0.15311 -0.00257248 -0.990667 
-0.153536 -0.0049504 -0.990605 
-0.154649 -0.00635435 -0.990429 
-0.154625 -0.00834602 -0.990419 
-0.155125 -0.00995964 -0.990317 
-0.156273 -0.0116467 -0.990129 
-0.156011 -0.0125763 -0.990148 
-0.156309 -0.0128472 -0.9902 
-0.155746 -0.0122038 -0.990341 
-0.154046 -0.0129045 -0.990604 
-0.149968 -0.0157881 -0.991298 
-0.14711 -0.0207763 -0.991613 
-0.141052 -0.0295115 -0.992306 
-0.135019 -0.040211 -0.992933 
-0.126937 -0.0559757 -0.993278 
-0.116284 -0.0808069 -0.992892 
-0.108758 -0.104634 -0.991438 
-0.100354 -0.142961 -0.985788 
0.0659376 -0.150096 0.989147 
0.0806219 -0.118344 0.995499 
0.0824659 -0.0912672 0.999844 
0.0967602 -0.0693272 1.00005 
0.110271 -0.0480888 1.00031 
0.113503 -0.0324977 0.999883 
0.110137 -0.0242721 1.00072 
0.118756 -0.0190488 0.999569 
0.123197 -0.0150002 0.998988 
0.111967 -0.0135799 1.0013 
0.12433 -0.0124541 0.998793 
0.121438 -0.0112917 0.999195 
0.119039 -0.0105256 0.999548 
0.121992 -0.00927795 0.999125 
0.120576 -0.0072694 0.999294 
0.120146 -0.00519317 0.99931 
0.119217 -0.00286716 0.999397 
0.118742 -0.000471965 0.999402 
0.119447 0.00258328 0.99928 
0.115652 0.00659543 0.999778 
0.113743 0.011393 1 
0.112799 0.0169669 1.00006 
0.111253 0.023273 1.0002 
0.110847 0.0308636 1.0001 
0.107623 0.0403334 1.00022 
0.103953 0.0528257 1.00015 
0.0993911 0.0702296 0.999582 
0.0917512 0.0943228 0.998295 
0.0829859 0.126844 0.995385 
0.071739 0.172296 0.9891 
0.0576796 0.231233 0.977493 
0.0454504 0.297924 0.95915 
0.0324164 0.377152 0.930296 
0.0242651 0.468558 0.886765 
0.0117721 0.571277 0.82252 
0.0290005 0.641298 0.767596 
0.00560073 0.708155 0.705026 
-0.0103398 0.812316 0.576938 
-0.0101192 0.943016 0.321585 
-0.00625297 0.993832 0.0147194 
-0.000927326 0.956121 -0.28186 
0.00900978 0.837856 -0.539081 
-0.00462348 0.735411 -0.675859 
-0.0108308 0.623853 -0.78304 
-0.0160415 0.52915 -0.850745 
-0.0313398 0.446581 -0.899428 
-0.036975 0.343187 -0.94352 
-0.0520995 0.262379 -0.96939 
-0.0695742 0.186965 -0.986245 
-0.0783771 0.141963 -0.993639 
-0.088152 0.106108 -0.997468 
-0.0971672 0.078736 -0.999125 
-0.103707 0.058165 -0.99986 
-0.107084 0.0439129 -1.00019 
-0.107734 0.0341224 -1.00047 
-0.112451 0.0258719 -0.999999 
-0.111327 0.0193796 -1.00025 
-0.113617 0.0134372 -0.999994 
-0.116869 0.00799792 -0.999594 
-0.115738 0.00370514 -0.999773 
-0.118159 0.0005242 -0.99943 
-0.116661 -0.00189669 -0.999683 
-0.120919 -0.00420984 -0.999098 
-0.119136 -0.00609243 -0.999407 
-0.12166 -0.00827562 -0.999056 
-0.121357 -0.00997446 -0.999111 
-0.121633 -0.0113354 -0.999086 
-0.123988 -0.0124388 -0.998768 
-0.119423 -0.0133782 -0.999497 
-0.121426 -0.0141911 -0.99922 
-0.118497 -0.0167016 -0.999636 
-0.112803 -0.0211089 -1.00034 
-0.115972 -0.027119 -0.999689 
-0.108057 -0.0379403 -1.00046 
-0.101503 -0.0515758 -1.00061 
-0.0975843 -0.0717473 -0.999582 
-0.0820603 -0.095789 -0.999323 
-0.0814903 -0.121541 -0.994903 
-0.0664527 -0.152618 -0.988534 
0.0475488 -0.159994 0.988735 
0.0599435 -0.117376 0.998719 
0.0633541 -0.0880554 1.0026 
0.0811775 -0.0642219 1.00137 
0.0715405 -0.0576201 1.0031 
0.0924856 -0.0439068 1.00128 
0.087661 -0.0328489 1.00299 
0.0826112 -0.0259901 1.00352 
0.0945136 -0.0197788 1.00244 
0.0925891 -0.0161976 1.00269 
0.090844 -0.0132537 1.0028 
0.0937119 -0.0119507 1.00245 
0.0902498 -0.0108418 1.0027 
0.092277 -0.00968392 1.00255 
0.0929431 -0.00782042 1.0025 
0.0916783 -0.00548351 1.00257 
0.0907085 -0.00330292 1.00261 
0.090619 -0.000899794 1.00259 
0.0913265 0.00204971 1.00252 
0.0897526 0.00547253 1.00265 
0.0861545 0.00974248 1.00295 
0.0849956 0.014757 1.00301 
0.0842668 0.0206614 1.00304 
0.0838994 0.0278551 1.00301 
0.0832388 0.0367313 1.00287 
0.0801164 0.048829 1.00271 
0.0779923 0.0649347 1.00207 
0.0746554 0.0859085 1.00077 
0.0701104 0.114043 0.998301 
0.065312 0.152166 0.993416 
0.0586431 0.201278 0.98463 
0.0528701 0.263878 0.969486 
0.0479168 0.334406 0.946987 
0.0441306 0.410589 0.916148 
0.0396332 0.521309 0.855272 
0.0507857 0.665306 0.745162 
0.0264049 0.776018 0.627042 
0.0100034 0.869136 0.486216 
0.00410877 0.961005 0.259953 
-0.00510703 0.995951 -0.0114555 
-0.0124604 0.954708 -0.274393 
-0.0133613 0.863098 -0.498431 
-0.0333547 0.7524 -0.655116 
-0.0380151 0.641597 -0.766762 
-0.0428324 0.532933 -0.847879 
-0.0514457 0.439129 -0.901358 
-0.0444693 0.366638 -0.93386 
-0.0501312 0.29144 -0.96121 
-0.0582894 0.215713 -0.98134 
-0.0630101 0.164863 -0.991327 
-0.0682101 0.122799 -0.997312 
-0.0737864 0.0919589 -1.00033 
-0.0790111 0.06918 -1.00173 
-0.0810526 0.0511513 -1.00262 
-0.0804813 0.0386991 -1.00311 
-0.0842176 0.0289807 -1.003 
-0.083712 0.0219223 -1.00312 
-0.0851715 0.0157583 -1.00303 
-0.088787 0.0104087 -1.00271 
-0.0873621 0.00603211 -1.00284 
-0.089088 0.00238759 -1.00269 
-0.0877052 -0.00039397 -1.00282 
-0.0908516 -0.00284607 -1.00254 
-0.0906808 -0.00478263 -1.00258 
-0.0928467 -0.00704181 -1.0024 
-0.092692 -0.00909265 -1.00242 
-0.0928584 -0.0106928 -1.00242 
-0.0951721 -0.012243 -1.00224 
-0.0919434 -0.0135847 -1.0026 
-0.0921588 -0.0149869 -1.00262 
-0.0911722 -0.0178007 -1.00273 
-0.0858675 -0.0226234 -1.00316 
-0.0887703 -0.028899 -1.00288 
-0.0873096 -0.0379367 -1.00284 
-0.0796733 -0.0527532 -1.00365 
-0.0775235 -0.0706036 -1.00116 
-0.0622781 -0.094864 -1.00187 
-0.0584556 -0.124294 -0.997622 
-0.0440646 -0.160869 -0.988778 
0.0309747 -0.170455 0.98758 
0.0430739 -0.132796 0.997374 
0.0438319 -0.110397 1.00043 
0.0543143 -0.0792695 1.00362 
0.0557625 -0.0606183 1.00398 
0.0717938 -0.043311 1.0038 
0.0657793 -0.0340589 1.00531 
0.0696412 -0.0238068 1.00431 
0.0711893 -0.01914 1.00424 
0.0750788 -0.0151758 1.00398 
0.0696055 -0.0130687 1.00432 
0.0701171 -0.0114917 1.00425 
0.0706155 -0.00979755 1.00417 
0.0702768 -0.00815924 1.00422 
0.0704685 -0.00601385 1.00419 
0.069022 -0.00375458 1.00422 
0.0685203 -0.0016248 1.00424 
0.0689915 0.0010995 1.00418 
0.0680005 0.0041478 1.00424 
0.0665784 0.00761785 1.0043 
0.0644967 0.0122416 1.00442 
0.0636508 0.0177545 1.00446 
0.0638901 0.0242173 1.0044 
0.0633951 0.0321705 1.0043 
0.0629566 0.0424767 1.00404 
0.0614763 0.0570095 1.00353 
0.0604551 0.0751783 1.00249 
0.0589647 0.0988585 1.00058 
0.0574382 0.131335 0.99696 
0.0559072 0.171631 0.990668 
0.055007 0.223098 0.979967 
0.0563639 0.287679 0.962332 
0.0585726 0.358082 0.93651 
0.0606263 0.445078 0.897979 
0.0587152 0.545962 0.838679 
0.0801281 0.611157 0.788879 
0.0614837 0.752616 0.651402 
0.0309596 0.880274 0.466572 
0.0161366 0.969002 0.212001 
-0.00363315 0.991142 -0.104119 
-0.0349929 0.904729 -0.415715 
-0.0564005 0.812479 -0.577647 
-0.0655354 0.719234 -0.690727 
-0.0757675 0.625254 -0.778326 
-0.0669168 0.543507 -0.839686 
-0.0679588 0.438342 -0.90088 
-0.0559099 0.347115 -0.94179 
-0.0539201 0.266137 -0.969543 
-0.0553083 0.207816 -0.983558 
-0.0561925 0.156149 -0.993248 
-0.057802 0.115667 -0.998854 
-0.059689 0.08746 -1.00164 
-0.0624211 0.0665571 -1.00295 
-0.0616781 0.0505193 -1.00389 
-0.0622957 0.0371401 -1.0043 
-0.0630794 0.0283071 -1.00443 
-0.0638868 0.0209709 -1.00448 
-0.0653393 0.0148781 -1.0044 
-0.0666871 0.00993265 -1.0043 
-0.0663738 0.00566028 -1.00434 
-0.0662904 0.00261951 -1.00437 
-0.0670109 -0.000377904 -1.00431 
-0.0681216 -0.00266421 -1.00423 
-0.0695129 -0.00478006 -1.00418 
-0.0706222 -0.00689771 -1.00413 
-0.0708607 -0.00893491 -1.00413 
-0.0720016 -0.0105467 -1.00408 
-0.0722621 -0.0122277 -1.0041 
-0.07184 -0.0142114 -1.00417 
-0.0707332 -0.0165743 -1.00428 
-0.0691067 -0.0207681 -1.00439 
-0.0673608 -0.0274101 -1.00447 
-0.0675983 -0.0350306 -1.00435 
-0.0673867 -0.0459813 -1.00324 
-0.0573621 -0.0600196 -1.00385 
-0.0601435 -0.0718988 -1.0029 
-0.0479305 -0.0959062 -1.00168 
-0.0430078 -0.126282 -0.998376 
-0.0306818 -0.170388 -0.987758 
0.0187296 -0.182304 0.985673 
0.0282126 -0.148971 0.995208 
0.0396318 -0.0946745 1.00129 
0.043154 -0.0732958 1.00372 
0.042486 -0.0576002 1.0056 
0.0554887 -0.0473475 1.004 
0.0493244 -0.0402484 1.00522 
0.0568431 -0.0300533 1.00504 
0.0543381 -0.0236851 1.0052 
0.058777 -0.0181176 1.00503 
0.0585121 -0.0147369 1.00504 
0.0537732 -0.0127455 1.00523 
0.056123 -0.0104616 1.00506 
0.055666 -0.00849845 1.00506 
0.0546061 -0.00647853 1.00514 
0.0542984 -0.00413174 1.00512 
0.0529143 -0.00220559 1.00515 
0.0527726 -0.000122449 1.00514 
0.0520221 0.00249463 1.00519 
0.0512496 0.0055908 1.0052 
0.050452 0.00961448 1.00521 
0.0490871 0.014771 1.00526 
0.0491198 0.020513 1.00522 
0.0496458 0.027311 1.00512 
0.0495663 0.0362871 1.00495 
0.0500436 0.048615 1.00453 
0.0496496 0.0649566 1.00375 
0.0497349 0.0852617 1.00233 
0.0503404 0.112747 0.999644 
0.0509374 0.147773 0.995016 
0.0531181 0.190652 0.987359 
0.0579851 0.244812 0.974754 
0.066704 0.306103 0.95673 
0.0733532 0.400428 0.918201 
0.0824024 0.497174 0.867418 
0.110166 0.567276 0.818307 
0.0958429 0.702419 0.704232 
0.0762682 0.823499 0.55775 
0.0436572 0.922678 0.369319 
-0.014391 0.991911 0.0543722 
-0.0446674 0.959514 -0.25895 
-0.0772149 0.835881 -0.537977 
-0.107048 0.695173 -0.708176 
-0.102568 0.5795 -0.810556 
-0.0891653 0.477355 -0.877957 
-0.0780767 0.376915 -0.928419 
-0.0640594 0.335375 -0.945889 
-0.0597791 0.276908 -0.964891 
-0.0552038 0.225351 -0.979595 
-0.0525335 0.175485 -0.990168 
-0.0508603 0.130307 -0.997409 
-0.0500287 0.0977207 -1.00126 
-0.0502917 0.073376 -1.00321 
-0.0495403 0.0564743 -1.00427 
-0.0497808 0.0417448 -1.00486 
-0.0484737 0.0312624 -1.00515 
-0.0494355 0.0238051 -1.0052 
-0.050359 0.0175472 -1.00522 
-0.0503648 0.0119583 -1.00523 
-0.0514222 0.00728184 -1.00517 
-0.0502652 0.00380913 -1.00524 
-0.0517389 0.00110188 -1.00517 
-0.0512035 -0.00131123 -1.00519 
-0.053752 -0.00352692 -1.00507 
-0.054127 -0.00551614 -1.00509 
-0.0553676 -0.00752829 -1.00505 
-0.0566629 -0.00938156 -1.00502 
-0.0560932 -0.0111528 -1.00508 
-0.0578159 -0.0135707 -1.00502 
-0.0562518 -0.016525 -1.00514 
-0.0545883 -0.0209047 -1.00522 
-0.055041 -0.0270754 -1.0051 
-0.052209 -0.036078 -1.00595 
-0.0522618 -0.0466103 -1.00497 
-0.0447055 -0.0625955 -1.00452 
-0.0429273 -0.0816238 -1.00314 
-0.0341922 -0.110718 -1.00064 
-0.0307455 -0.138663 -0.996961 
-0.0203631 -0.179462 -0.986246 
0.0139083 -0.189754 0.98426 
0.0191462 -0.152456 0.994857 
0.0298201 -0.123816 0.999143 
0.0294799 -0.0963986 1.00222 
0.0320864 -0.0748102 1.00332 
0.0364442 -0.0505866 1.00529 
0.0405387 -0.0367528 1.00544 
0.0430263 -0.0293535 1.00549 
0.0448717 -0.0213336 1.00553 
0.0460865 -0.0170526 1.00557 
0.0445416 -0.0143271 1.00559 
0.0442702 -0.0108388 1.00546 
0.045058 -0.00849767 1.0054 
0.0441102 -0.00620597 1.00542 
0.0428767 -0.00366766 1.00547 
0.0420453 -0.00187764 1.00544 
0.0415191 -0.000318525 1.00546 
0.0405999 0.00164993 1.00549 
0.0399598 0.0043451 1.00549 
0.03973 0.00798398 1.00548 
0.0390378 0.0125446 1.00548 
0.0385903 0.0178467 1.00545 
0.0390818 0.0236479 1.0054 
0.0395077 0.0308465 1.00531 
0.0400636 0.0409963 1.00506 
0.0407073 0.0543418 1.00454 
0.041095 0.0716762 1.0036 
0.0425094 0.0940909 1.00178 
0.0443441 0.121748 0.998725 
0.0475325 0.156627 0.993668 
0.0535223 0.200481 0.985342 
0.0630521 0.251845 0.972652 
0.0788285 0.334786 0.945055 
0.0959028 0.379745 0.925038 
0.0993665 0.448208 0.892865 
0.127964 0.485246 0.869277 
0.135663 0.646273 0.750428 
0.104367 0.829945 0.542819 
0.0421036 0.966507 0.21696 
0.000226338 0.996329 -0.0506107 
-0.0522881 0.943184 -0.288013 
-0.107352 0.826172 -0.550493 
-0.142376 0.646452 -0.748579 
-0.127114 0.526701 -0.843989 
-0.104348 0.432826 -0.900493 
-0.0893989 0.350631 -0.938188 
-0.0712114 0.299256 -0.957964 
-0.0606714 0.246419 -0.974984 
-0.0532882 0.200924 -0.985361 
-0.048179 0.154867 -0.993188 
-0.0446838 0.11709 -1.00007 
-0.0428511 0.0881682 -1.00232 
-0.0409845 0.0682504 -1.00386 
-0.0408277 0.0515246 -1.00476 
-0.0398888 0.038588 -1.00523 
-0.0385575 0.028724 -1.00542 
-0.0392187 0.0220051 -1.00546 
-0.0392701 0.016461 -1.0055 
-0.0391744 0.0113532 -1.00551 
-0.0400418 0.00699782 -1.00547 
-0.0395807 0.00350514 -1.00548 
-0.0404832 0.00102936 -1.00546 
-0.0406143 -0.00105676 -1.00546 
-0.0427727 -0.00291665 -1.00541 
-0.043306 -0.00463586 -1.00543 
-0.0448577 -0.00697616 -1.00542 
-0.0453574 -0.00905153 -1.00544 
-0.0451825 -0.0114476 -1.00549 
-0.0464067 -0.0146344 -1.00552 
-0.0441708 -0.0183783 -1.00566 
-0.0426728 -0.0237705 -1.00564 
-0.0429678 -0.0310331 -1.00475 
-0.0388978 -0.0401573 -1.00545 
-0.0389498 -0.0508869 -1.00529 
-0.0331248 -0.0678812 -1.00459 
-0.0325833 -0.0863471 -1.00318 
-0.0253975 -0.114604 -1.0004 
-0.0219333 -0.147806 -0.995619 
-0.0146422 -0.187929 -0.984607 
0.0114655 -0.192883 0.983596 
0.0145317 -0.149092 0.995542 
0.0220373 -0.120142 0.999807 
0.0218132 -0.0908666 1.00365 
0.0276406 -0.0651637 1.0047 
0.0249896 -0.0532575 1.00517 
0.0300404 -0.0417865 1.00474 
0.0293892 -0.0322516 1.00637 
0.0348222 -0.0250975 1.00502 
0.0344544 -0.0194707 1.00579 
0.0340713 -0.0159963 1.00584 
0.0363811 -0.0123021 1.00568 
0.0353383 -0.00886003 1.00564 
0.0359144 -0.0061937 1.00563 
0.0348576 -0.00346337 1.00555 
0.0337313 -0.00160504 1.00557 
0.0334574 -0.000431928 1.00552 
0.0323116 0.00118898 1.00561 
0.0317812 0.00363853 1.00554 
0.0314886 0.00707503 1.00556 
0.0309754 0.0114103 1.00558 
0.030737 0.016106 1.00558 
0.0307153 0.0212401 1.00552 
0.031191 0.0275754 1.00548 
0.0320054 0.0364438 1.00534 
0.0326934 0.0486048 1.00494 
0.0335493 0.0640518 1.0042 
0.0352972 0.0844745 1.00277 
0.0378654 0.109085 1.00037 
0.0420597 0.139725 0.996425 
0.0492329 0.178765 0.98983 
0.0599805 0.224362 0.979843 
0.0772135 0.293557 0.959667 
0.0984883 0.332325 0.94489 
0.122389 0.401829 0.912801 
0.158086 0.477556 0.868819 
0.169848 0.584055 0.798264 
0.181067 0.686638 0.701485 
0.123934 0.864249 0.484768 
-0.00505356 0.995566 -0.0431928 
-0.13625 0.850844 -0.509214 
-0.18462 0.677706 -0.709815 
-0.177173 0.578175 -0.801949 
-0.155445 0.482703 -0.866099 
-0.124903 0.422291 -0.903034 
-0.102076 0.344941 -0.939265 
-0.0773174 0.283709 -0.962399 
-0.0608907 0.228807 -0.978719 
-0.0499891 0.179724 -0.98964 
-0.0444485 0.146376 -0.995334 
-0.0391945 0.117325 -0.999338 
-0.0374657 0.0941617 -1.00112 
-0.033633 0.0718354 -1.00379 
-0.033399 0.055332 -1.00472 
-0.0323972 0.0411632 -1.00532 
-0.0311846 0.0302884 -1.00561 
-0.0308404 0.0228531 -1.00563 
-0.0306589 0.0179183 -1.00562 
-0.0303754 0.0131162 -1.00565 
-0.030914 0.00849353 -1.00565 
-0.0313827 0.00473334 -1.00556 
-0.0315691 0.00184692 -1.0056 
-0.0324124 0.000112425 -1.00557 
-0.0333487 -0.00132201 -1.00555 
-0.0345199 -0.00282899 -1.00556 
-0.0361652 -0.00526433 -1.00559 
-0.0361967 -0.00807702 -1.00561 
-0.0363533 -0.0107386 -1.00563 
-0.0365034 -0.0145583 -1.00576 
-0.0348058 -0.0184451 -1.00585 
-0.032671 -0.0235453 -1.00658 
-0.031652 -0.0315805 -1.00572 
-0.0294113 -0.0419292 -1.00549 
-0.0277491 -0.0552093 -1.00522 
-0.0231391 -0.0728548 -1.00423 
-0.0230722 -0.0913436 -1.00278 
-0.0184058 -0.115724 -1.00024 
-0.0170233 -0.146568 -0.995955 
-0.0119482 -0.191107 -0.983966 
0.00899652 -0.193563 0.983379 
0.0113672 -0.154194 0.994588 
0.016831 -0.114868 1.00042 
0.0150877 -0.094686 1.00243 
0.0198327 -0.0750048 1.00412 
0.0191147 -0.0561166 1.00508 
0.0219365 -0.0407919 1.00556 
0.020868 -0.031086 1.00591 
0.0247113 -0.024437 1.00598 
0.0224724 -0.0200253 1.00617 
0.0250162 -0.0152649 1.00602 
0.0275213 -0.0112903 1.00587 
0.0255928 -0.00806271 1.0059 
0.0262736 -0.0050133 1.00642 
0.0259679 -0.00215878 1.00515 
0.0250842 -0.000509793 1.00633 
0.0245958 0.000424529 1.00517 
0.0234325 0.00179212 1.00639 
0.0230785 0.00412948 1.00523 
0.0227665 0.00756619 1.00579 
0.0222874 0.0118026 1.00584 
0.0223391 0.0162705 1.00582 
0.0222412 0.0209022 1.00578 
0.0229941 0.0271416 1.00575 
0.0242279 0.0362181 1.0056 
0.0249773 0.048163 1.00524 
0.026755 0.0639342 1.00447 
0.0289558 0.0827335 1.00313 
0.0324423 0.105737 1.00097 
0.0379981 0.135575 0.997276 
0.0460745 0.170572 0.991585 
0.0616172 0.223435 0.980085 
0.0776278 0.270633 0.966556 
0.101797 0.320991 0.948233 
0.130867 0.385933 0.918935 
0.16471 0.444946 0.884407 
0.205559 0.541525 0.819081 
0.231443 0.719884 0.659912 
0.155298 0.89633 0.428448 
-0.00902452 1.00316 0.0198198 
-0.156925 0.891191 -0.433605 
-0.229542 0.718972 -0.662848 
-0.21176 0.560015 -0.803898 
-0.165533 0.452517 -0.880241 
-0.124663 0.37066 -0.926144 
-0.0919878 0.298666 -0.956821 
-0.0750493 0.261891 -0.969194 
-0.0598538 0.217218 -0.981582 
-0.0497299 0.18136 -0.989447 
-0.040539 0.143212 -0.996155 
-0.0336471 0.109823 -1.00052 
-0.0299809 0.085067 -1.00298 
-0.0261097 0.0640702 -1.00455 
-0.0252527 0.0493575 -1.0052 
-0.0238909 0.0369114 -1.00564 
-0.0233254 0.0264691 -1.00584 
-0.0221903 0.0201384 -1.00584 
-0.0220095 0.0159686 -1.00582 
-0.0221379 0.0116378 -1.00588 
-0.0222594 0.0073487 -1.00641 
-0.0233896 0.00372862 -1.00518 
-0.0230974 0.00157988 -1.0064 
-0.0243865 0.000269239 -1.00579 
-0.0240366 -0.000583691 -1.00583 
-0.025743 -0.00237981 -1.00586 
-0.0266649 -0.00530771 -1.0059 
-0.0262355 -0.00868589 -1.00522 
-0.0266769 -0.0118437 -1.00592 
-0.0251594 -0.0156517 -1.00671 
-0.0243257 -0.0207673 -1.00536 
-0.0226546 -0.0263226 -1.00591 
-0.0227244 -0.0334359 -1.00575 
-0.0206389 -0.042606 -1.00549 
-0.0209535 -0.0540231 -1.00518 
-0.0178208 -0.0706748 -1.00429 
-0.0165024 -0.0929809 -1.00256 
-0.0135664 -0.122885 -0.999293 
-0.0122606 -0.15606 -0.994279 
-0.00951168 -0.193659 -0.983451 
0.00650261 -0.195113 0.983149 
0.00845961 -0.160617 0.993394 
0.0122816 -0.123576 0.999215 
0.0119273 -0.0935109 1.00246 
0.0154172 -0.0719067 1.00426 
0.0140767 -0.0576796 1.00503 
0.0167264 -0.0453087 1.00543 
0.0160027 -0.0345695 1.00578 
0.016999 -0.0255406 1.00612 
0.0165655 -0.0196271 1.00683 
0.0177623 -0.0147774 1.00611 
0.0189697 -0.0107849 1.006 
0.0178473 -0.00718807 1.00592 
0.0179035 -0.00397015 1.00532 
0.0182565 -0.00121336 1.0058 
0.0171235 0.000350717 1.00589 
0.0170937 0.0010488 1.00585 
0.0162346 0.00215158 1.00592 
0.0156853 0.0043682 1.00659 
0.0153346 0.00773397 1.00601 
0.0150304 0.0117623 1.00596 
0.0150505 0.0155545 1.00594 
0.0153669 0.0196227 1.00597 
0.0162349 0.0259207 1.00596 
0.017669 0.035301 1.0058 
0.0190005 0.0478804 1.00543 
0.0211102 0.0627817 1.00472 