# vtk DataFile Version 3.0 
Exported using Morpho https://github.com/Morpho-lang/morpho 
ASCII 
DATASET UNSTRUCTURED_GRID 

POINTS 1978 float 
-8.48528 -2.82843 5.04577e-10 
-8.25321 -2.82843 6.18392e-09 
-8.01859 -2.82843 4.76832e-09 
-7.75929 -2.82843 5.41255e-09 
-7.46566 -2.82843 5.31786e-09 
-7.14378 -2.82843 2.80189e-09 
-6.95995 -2.82843 9.73647e-10 
-6.71879 -2.82843 9.67606e-10 
-6.53714 -2.82843 5.06621e-10 
-6.34516 -2.82843 4.2037e-10 
-6.15703 -2.82843 6.69402e-10 
-5.94088 -2.82843 3.65485e-10 
-5.74007 -2.82843 -3.50998e-11 
-5.53341 -2.82843 -2.20758e-10 
-5.30271 -2.82843 -4.11713e-10 
-5.09251 -2.82843 -6.43289e-10 
-4.87943 -2.82843 -7.71634e-10 
-4.66242 -2.82843 -9.84634e-10 
-4.45012 -2.82843 -1.20565e-09 
-4.23365 -2.82843 -1.42245e-09 
-4.03012 -2.82843 -1.82923e-09 
-3.81032 -2.82843 -2.39318e-09 
-3.5978 -2.82843 -2.7722e-09 
-3.38595 -2.82843 -3.36922e-09 
-3.16887 -2.82843 -4.32587e-09 
-2.95002 -2.82843 -5.43472e-09 
-2.73481 -2.82843 -5.80399e-09 
-2.52374 -2.82843 -6.28506e-09 
-2.30067 -2.82843 -7.67564e-09 
-2.05995 -2.82843 -7.8301e-09 
-1.88054 -2.82843 -4.37014e-09 
-1.67483 -2.82843 -2.21937e-09 
-1.45417 -2.82843 -4.19615e-09 
-1.3029 -2.82843 8.65549e-10 
-1.11968 -2.82843 -4.84792e-09 
-0.943714 -2.82843 -6.0987e-08 
-0.743611 -2.82843 -8.03389e-08 
-0.530703 -2.82843 -8.31164e-08 
-0.28868 -2.82843 -1.58869e-07 
-0.136004 -2.82843 4.88284e-08 
0.228874 -2.82843 2.5698e-07 
0.609848 -2.82843 1.66618e-07 
0.767457 -2.82843 -6.08229e-09 
0.934338 -2.82843 1.33224e-08 
1.09623 -2.82843 2.23297e-09 
1.26873 -2.82843 9.28638e-09 
1.46601 -2.82843 -2.00077e-09 
1.65335 -2.82843 2.06079e-09 
1.87003 -2.82843 7.10656e-09 
2.09399 -2.82843 8.0972e-09 
2.31262 -2.82843 7.63544e-09 
2.5293 -2.82843 6.49895e-09 
2.7529 -2.82843 6.13896e-09 
2.96982 -2.82843 5.17296e-09 
3.18362 -2.82843 3.9549e-09 
3.39689 -2.82843 3.46798e-09 
3.61545 -2.82843 2.91071e-09 
3.82624 -2.82843 2.28544e-09 
4.0395 -2.82843 1.8434e-09 
4.25814 -2.82843 1.44094e-09 
4.46686 -2.82843 1.13637e-09 
4.67621 -2.82843 9.26299e-10 
4.88288 -2.82843 7.25156e-10 
5.08962 -2.82843 5.7142e-10 
5.29859 -2.82843 3.85284e-10 
5.51342 -2.82843 1.55226e-10 
5.72485 -2.82843 9.13785e-11 
5.94476 -2.82843 -2.36832e-10 
6.16731 -2.82843 -6.18192e-10 
6.38424 -2.82843 -6.23246e-10 
6.60729 -2.82843 -7.87846e-10 
6.8302 -2.82843 -1.07792e-09 
7.04159 -2.82843 -1.71536e-09 
7.29676 -2.82843 -2.66008e-09 
7.53329 -2.82843 -2.88247e-09 
7.75936 -2.82843 -3.96827e-09 
8.02574 -2.82843 -4.30918e-09 
8.22075 -2.82843 -5.96435e-09 
8.48528 -2.82843 -1.13481e-10 
-8.48528 -2.58914 -5.25333e-09 
-8.26165 -2.58868 4.08285e-19 
-8.03258 -2.58814 1.50782e-18 
-7.79031 -2.61873 2.1744e-18 
-7.51843 -2.64483 3.06578e-18 
-7.23344 -2.6576 2.20868e-18 
-6.97682 -2.53518 3.36394e-19 
-6.78319 -2.61968 9.83923e-19 
-6.55174 -2.55708 1.24278e-19 
-6.35097 -2.58989 3.25098e-19 
-6.13202 -2.57591 9.22014e-20 
-5.91418 -2.5828 7.18888e-20 
-5.69833 -2.58503 -8.26041e-21 
-5.46269 -2.61035 -1.37009e-19 
-5.23538 -2.59342 -1.69883e-19 
-5.01677 -2.59598 -2.64072e-19 
-4.79503 -2.6017 -3.92617e-19 
-4.57593 -2.59667 -4.74024e-19 
-4.35613 -2.60168 -6.62508e-19 
-4.14381 -2.58656 -6.65709e-19 
-3.92857 -2.60277 -1.10544e-18 
-3.7092 -2.59435 -1.21652e-18 
-3.49361 -2.59227 -1.45927e-18 
-3.27626 -2.59755 -1.93687e-18 
-3.05382 -2.59656 -2.34585e-18 
-2.83162 -2.59327 -2.6573e-18 
-2.61321 -2.58855 -2.74999e-18 
-2.39233 -2.60252 -3.67953e-18 
-2.158 -2.62115 -5.31552e-18 
-1.94207 -2.55392 -3.22703e-19 
-1.75089 -2.59651 -3.99053e-18 
-1.54041 -2.61601 -1.81117e-18 
-1.35126 -2.55172 -7.01639e-19 
-1.1893 -2.60188 5.16741e-18 
-1.00583 -2.61105 -4.7488e-18 
-0.900989 -2.43077 -1.99672e-17 
-0.826149 -2.65445 -5.60106e-18 
-0.61371 -2.67244 -2.37424e-17 
-0.396169 -2.68079 -3.86831e-17 
-0.014747 -2.73675 4.98218e-17 
0.259039 -2.66729 7.21332e-17 
0.457998 -2.73959 -2.76421e-17 
0.808009 -2.64273 -1.71175e-17 
0.968003 -2.46909 8.3279e-18 
1.01366 -2.64412 -1.00282e-17 
1.2096 -2.57968 1.91633e-17 
1.39628 -2.60961 -9.85457e-19 
1.6027 -2.59445 -3.65303e-20 
1.81671 -2.61606 3.68002e-18 
2.05304 -2.61539 3.93687e-18 
2.28922 -2.60223 3.58101e-18 
2.5135 -2.59609 3.09093e-18 
2.73626 -2.60068 3.22292e-18 
2.96433 -2.5917 2.23541e-18 
3.1838 -2.58804 1.97355e-18 
3.4068 -2.59646 1.79299e-18 
3.62293 -2.59021 1.22617e-18 
3.84069 -2.59431 1.06559e-18 
4.06377 -2.60212 9.60038e-19 
4.27899 -2.59283 6.31959e-19 
4.49267 -2.5939 5.22621e-19 
4.70485 -2.5909 3.86478e-19 
4.91628 -2.59116 2.91713e-19 
5.12991 -2.59258 2.09472e-19 
5.34748 -2.59776 1.48203e-19 
5.56389 -2.59212 6.56419e-20 
5.78556 -2.59908 -1.13657e-20 
6.01119 -2.59923 -1.17531e-19 
6.23363 -2.59067 -2.0584e-19 
6.45758 -2.59446 -3.53671e-19 
6.68343 -2.59118 -5.22953e-19 
6.89945 -2.57601 -5.25788e-19 
7.13662 -2.61577 -1.30425e-18 
7.38377 -2.59974 -1.36225e-18 
7.61181 -2.5873 -1.26158e-18 
7.86103 -2.62208 -2.52831e-18 
8.07034 -2.54677 -5.49017e-19 
8.29809 -2.61819 -4.98835e-19 
8.48528 -2.53287 6.09008e-09 
-8.48528 -2.34781 -4.70322e-09 
-8.25799 -2.34587 -9.08034e-19 
-8.02924 -2.34082 8.65156e-19 
-7.79481 -2.40214 7.4548e-20 
-7.57579 -2.25279 9.52971e-19 
-7.52738 -2.45005 2.45679e-19 
-7.2462 -2.45941 3.56395e-19 
-6.99783 -2.32674 5.64682e-19 
-6.72971 -2.37252 2.45962e-19 
-6.48801 -2.31833 3.05686e-19 
-6.27188 -2.35586 1.65747e-19 
-6.04722 -2.34452 1.08801e-19 
-5.8296 -2.34301 4.52111e-20 
-5.60156 -2.371 -3.27053e-20 
-5.38212 -2.37861 -8.72919e-20 
-5.15825 -2.36223 -1.60148e-19 
-4.93735 -2.37146 -2.25499e-19 
-4.72079 -2.37162 -2.96982e-19 
-4.49871 -2.37244 -3.71948e-19 
-4.28849 -2.3623 -4.98301e-19 
-4.06793 -2.36051 -6.18001e-19 
-3.85444 -2.3717 -7.11399e-19 
-3.63553 -2.36033 -9.43287e-19 
-3.41731 -2.36058 -1.13413e-18 
-3.19784 -2.3685 -1.3108e-18 
-2.97228 -2.36557 -1.52463e-18 
-2.7499 -2.35721 -1.93061e-18 
-2.52227 -2.36293 -2.112e-18 
-2.2914 -2.39243 -1.77692e-18 
-2.08038 -2.36755 -2.47958e-18 
-1.84176 -2.32098 -3.58672e-18 
-1.65345 -2.3736 2.1974e-18 
-1.46289 -2.35949 -3.92045e-18 
-1.26051 -2.32013 -9.08067e-19 
-1.09676 -2.39202 -1.17903e-18 
-0.866658 -2.25029 5.09953e-18 
-0.720064 -2.50421 -1.39525e-17 
-0.516851 -2.51183 -2.34044e-17 
-0.201266 -2.62744 -1.76196e-18 
0.0637971 -2.6227 1.57872e-17 
0.400087 -2.55679 -1.22127e-17 
0.618686 -2.61885 5.87864e-17 
0.781629 -2.4495 -2.16624e-17 
0.966337 -2.26425 -1.58329e-17 
1.15176 -2.38209 -1.22465e-18 
1.22682 -2.19329 -6.51801e-18 
1.37084 -2.36828 4.55506e-18 
1.5553 -2.37096 8.97152e-19 
1.76781 -2.39128 1.4681e-18 
1.98966 -2.40909 2.32431e-18 
2.22575 -2.39292 2.00953e-18 
2.45731 -2.36871 2.27942e-18 
2.67993 -2.36857 1.94311e-18 
2.9016 -2.36816 1.69709e-18 
3.12903 -2.35397 1.38714e-18 
3.35114 -2.36449 1.133e-18 
3.57031 -2.35623 1.01622e-18 
3.78882 -2.36109 7.77227e-19 
4.00886 -2.37496 5.86473e-19 
4.22677 -2.36349 5.25371e-19 
4.44424 -2.36045 4.10605e-19 
4.65682 -2.35803 3.25773e-19 
4.87115 -2.35607 2.5352e-19 
5.08383 -2.35975 1.77579e-19 
5.30074 -2.36623 1.05116e-19 
5.51633 -2.3606 5.75944e-20 
5.73692 -2.36829 -7.54731e-21 
5.959 -2.37164 -8.44542e-20 
6.18291 -2.3598 -1.56602e-19 
6.40863 -2.35941 -2.21527e-19 
6.63165 -2.35778 -3.055e-19 
6.85318 -2.33063 -4.97845e-19 
7.07852 -2.37719 -4.85277e-19 
7.30788 -2.38605 -6.12325e-19 
7.54788 -2.34859 -7.00574e-19 
7.78277 -2.38962 -7.4115e-20 
8.00064 -2.31879 -8.25906e-19 
8.24852 -2.35603 7.92176e-19 
8.48528 -2.30275 3.69675e-09 
-8.48528 -2.10688 -3.41589e-09 
-8.26624 -2.10455 -9.45456e-19 
-8.05661 -2.07535 6.33825e-19 
-7.83261 -2.16289 4.57145e-19 
-7.54602 -2.05983 5.07723e-19 
-7.29283 -2.26183 8.1005e-19 
-7.10465 -2.11398 5.78182e-19 
-6.83666 -2.14785 4.26961e-19 
-6.61091 -2.12844 3.34149e-19 
-6.33751 -2.11518 2.19711e-19 
-6.12612 -2.11287 1.23585e-19 
-5.91091 -2.10609 7.27605e-20 
-5.68697 -2.13183 -2.18454e-21 
-5.46978 -2.14147 -5.8478e-20 
-5.25939 -2.14133 -1.04697e-19 
-5.03623 -2.13888 -1.54361e-19 
-4.82467 -2.13957 -2.21395e-19 
-4.60996 -2.14767 -2.87146e-19 
-4.40126 -2.13052 -3.31467e-19 
-4.18864 -2.13431 -4.3077e-19 
-3.97371 -2.13056 -5.3837e-19 
-3.76597 -2.13622 -6.85799e-19 
-3.55002 -2.12674 -8.24745e-19 
-3.33457 -2.12937 -1.02435e-18 
-3.11654 -2.14064 -1.29095e-18 
-2.89592 -2.1301 -1.51962e-18 
-2.66966 -2.13167 -1.72542e-18 
-2.43873 -2.14813 -2.03291e-18 
-2.23137 -2.14402 -1.99715e-18 
-2.00528 -2.14399 -2.5618e-18 
-1.7789 -2.08172 5.21315e-19 
-1.58869 -2.12913 -3.41952e-18 
-1.39256 -2.12516 1.13264e-18 
-1.20382 -2.08636 3.98831e-18 
-1.03779 -2.1763 -5.24893e-18 
-0.880338 -2.01944 -7.97451e-18 
-0.673597 -2.33163 -1.68112e-18 
-0.33799 -2.48131 -1.86574e-17 
-0.134105 -2.47937 3.33218e-17 
0.178615 -2.48245 1.39818e-16 
0.383056 -2.38627 5.49735e-17 
0.581819 -2.44516 3.3009e-17 
0.760908 -2.26486 1.82885e-17 
0.86753 -2.06473 6.64571e-18 
1.06214 -2.0736 1.38158e-17 
1.24972 -1.96083 -5.57928e-18 
1.42823 -2.11898 1.45727e-18 
1.63352 -2.15382 1.81053e-18 
1.85391 -2.18151 1.54118e-18 
2.07603 -2.19196 2.63313e-18 
2.2995 -2.16387 2.11831e-18 
2.52229 -2.13575 1.82681e-18 
2.73906 -2.13516 1.62184e-18 
2.95909 -2.13705 1.45466e-18 
3.18351 -2.1241 1.1741e-18 
3.39904 -2.12969 9.4332e-19 
3.61829 -2.12502 7.78702e-19 
3.83903 -2.13545 6.53147e-19 
4.05214 -2.14246 5.28848e-19 
4.26996 -2.13399 4.07414e-19 
4.48204 -2.12584 3.02554e-19 
4.69634 -2.12714 2.38423e-19 
4.90926 -2.12302 1.82016e-19 
5.12554 -2.13187 1.30135e-19 
5.33791 -2.1319 7.83427e-20 
5.55802 -2.13301 3.76862e-20 
5.77738 -2.13915 -1.69352e-20 
5.99714 -2.13965 -9.59757e-20 
6.22264 -2.12971 -1.57092e-19 
6.44384 -2.12363 -2.16813e-19 
6.66126 -2.11546 -3.11239e-19 
6.89415 -2.10051 -3.89377e-19 
7.11642 -2.14561 -5.78989e-19 
7.3463 -2.15529 -7.57678e-19 
7.55377 -2.08739 -5.2735e-19 
7.7588 -2.15138 -3.92816e-19 
7.98011 -2.08227 -3.69157e-19 
8.21369 -2.13247 -1.14289e-19 
8.48528 -2.10304 3.20377e-09 
-8.48528 -1.84993 -3.05698e-09 
-8.27326 -1.85099 -9.2579e-19 
-7.8829 -1.90549 -1.50824e-19 
[...]
POINT_DATA 1978 
VECTORS vectors float
0.00817479 -0.0113635 0.999902 
0.00128238 -0.0339376 0.999425 
-0.000129382 -0.0454134 0.99897 
-0.00232098 -0.0385116 0.999257 
-0.00394041 -0.0279096 0.999606 
-0.000430023 -0.0184122 0.999832 
0.00216071 -0.0140154 0.999901 
0.00207093 -0.0101297 0.999948 
0.00513337 -0.00704793 0.999963 
0.00418202 -0.00399081 0.999986 
0.0030805 -0.00227045 0.999993 
0.00264509 -0.000565523 0.999997 
0.00312485 0.000978316 0.999996 
0.00180822 0.0020921 0.999997 
0.00175394 0.00305142 0.999995 
0.00254618 0.00443731 0.999988 
0.00215761 0.00620691 0.99998 
0.00218989 0.0084015 0.999963 
0.00217488 0.0111573 0.999937 
0.00257746 0.0147194 0.999889 
0.00238867 0.0190351 0.999817 
0.00195516 0.024631 0.999696 
0.00230309 0.0313717 0.999506 
0.00209887 0.0397955 0.999207 
0.00176575 0.0504277 0.998727 
0.00176414 0.0641668 0.997939 
0.00202252 0.0815589 0.996667 
0.00168852 0.103595 0.994619 
0.000633796 0.133214 0.991088 
0.00152266 0.174786 0.984606 
0.00237824 0.215319 0.976541 
0.000981063 0.272331 0.962203 
0.00106128 0.34829 0.937386 
0.00108259 0.41321 0.910635 
-0.000482238 0.508355 0.861147 
-0.000614593 0.604474 0.796625 
-0.00048486 0.720031 0.693942 
-0.000794408 0.841195 0.540732 
-0.00107788 0.951653 0.307172 
-0.000360446 0.990578 0.13695 
-0.0016587 0.961546 -0.274647 
-0.00014863 0.777538 -0.628836 
0.00154626 0.68721 -0.726457 
0.000486828 0.596821 -0.802375 
-0.000272184 0.510269 -0.860014 
-0.000171313 0.424654 -0.905357 
-0.00133108 0.342581 -0.939487 
-0.00134997 0.27706 -0.960852 
-0.00100843 0.216488 -0.976285 
-0.0010738 0.167483 -0.985875 
-0.00140262 0.130392 -0.991462 
-0.00149746 0.101888 -0.994795 
-0.00157957 0.0796218 -0.996825 
-0.00188661 0.0629187 -0.998017 
-0.0021055 0.0497453 -0.998762 
-0.00193349 0.0390485 -0.999236 
-0.00212772 0.0306231 -0.99953 
-0.00235269 0.0239927 -0.99971 
-0.00199302 0.0186432 -0.999825 
-0.00225318 0.0143427 -0.999896 
-0.00262613 0.0109274 -0.999938 
-0.0027129 0.00821152 -0.999964 
-0.00284469 0.00611748 -0.999978 
-0.00277204 0.0044177 -0.999988 
-0.00240764 0.00313203 -0.999993 
-0.00237617 0.00207005 -0.999996 
-0.00216737 0.000924293 -0.999998 
-0.00169725 -0.00039862 -1 
-0.00186692 -0.00230283 -0.999997 
-0.00181202 -0.00486254 -0.999988 
-0.00150542 -0.00790817 -0.999969 
-0.00219818 -0.0118685 -0.999928 
-0.000823725 -0.0164253 -0.999866 
5.19421e-05 -0.0225616 -0.999747 
-0.00122525 -0.0299517 -0.999552 
0.00039743 -0.0383332 -0.999266 
-0.00127107 -0.0458167 -0.99895 
-0.00131769 -0.0359328 -0.999355 
-0.00722525 -0.00938527 -0.999931 
0.00858569 -0.00679217 0.999942 
0.0143923 -0.0322291 0.999376 
0.0175305 -0.0382741 0.999114 
0.0193779 -0.0385754 0.999068 
0.0198116 -0.0308877 0.999326 
0.0199029 -0.0215048 0.999571 
0.0237161 -0.0152928 0.999602 
0.0227626 -0.0112195 0.999678 
0.0240065 -0.00775637 0.999682 
0.0247838 -0.00497332 0.99968 
0.0233667 -0.00252786 0.999725 
0.0244295 -0.000577452 0.999701 
0.024585 0.00096143 0.999697 
0.0240461 0.00234651 0.999708 
0.0246138 0.00372967 0.99969 
0.0245735 0.00530028 0.999684 
0.0243287 0.00728322 0.999677 
0.024332 0.00980622 0.999656 
0.0239803 0.0129805 0.999628 
0.0240951 0.0168406 0.999568 
0.0233874 0.021717 0.999491 
0.0232445 0.0279656 0.999339 
0.0228711 0.0356155 0.999104 
0.0222508 0.0452675 0.998727 
0.0217146 0.0577945 0.998092 
0.0212183 0.0739461 0.997036 
0.0206473 0.0942845 0.995331 
0.0195992 0.120827 0.99248 
0.0183708 0.15743 0.987359 
0.0203553 0.201184 0.979342 
0.0187861 0.249933 0.968081 
0.0178333 0.317574 0.948066 
0.0235086 0.390971 0.920103 
0.0194437 0.469299 0.882825 
0.0208102 0.566841 0.823564 
0.0422241 0.611254 0.790307 
0.0174266 0.672988 0.739448 
0.0153086 0.792897 0.609164 
0.0110308 0.903807 0.427796 
-0.000635225 0.999892 -0.0146374 
-0.0063614 0.954771 -0.297278 
-0.0054593 0.833446 -0.55258 
-0.0188699 0.67712 -0.735634 
-0.0276501 0.594115 -0.803904 
-0.0201723 0.522967 -0.852117 
-0.0228102 0.441707 -0.896867 
-0.0176506 0.364444 -0.931058 
-0.0184128 0.290864 -0.956587 
-0.0176869 0.228615 -0.973356 
-0.0182387 0.175406 -0.984327 
-0.0193043 0.134264 -0.990758 
-0.0201024 0.104319 -0.994341 
-0.0206434 0.0814416 -0.996464 
-0.0215589 0.0635751 -0.997745 
-0.0220551 0.0499968 -0.998505 
-0.0224595 0.0390726 -0.998984 
-0.0229953 0.0307796 -0.999262 
-0.023271 0.0239591 -0.999442 
-0.0235176 0.0184352 -0.999553 
-0.0240193 0.0142193 -0.99961 
-0.0243091 0.0108292 -0.999646 
-0.0245989 0.00816269 -0.999664 
-0.0247329 0.0060614 -0.999676 
-0.0247427 0.00437719 -0.999684 
-0.0246375 0.00297085 -0.999692 
-0.0246799 0.00170025 -0.999694 
-0.0243529 0.000364093 -0.999703 
-0.0241558 -0.00127409 -0.999707 
-0.0240838 -0.00345563 -0.999704 
-0.0237289 -0.0062212 -0.999699 
-0.023486 -0.00965807 -0.999678 
-0.0232119 -0.0136595 -0.999637 
-0.0219505 -0.0188522 -0.999581 
-0.0216863 -0.025616 -0.999437 
-0.0211741 -0.0330647 -0.999229 
-0.0196062 -0.0397217 -0.999018 
-0.0172294 -0.036379 -0.99919 
-0.0139746 -0.0300871 -0.999449 
-0.00904465 -0.00479813 -0.999949 
0.0109275 -0.00562104 0.999924 
0.0150524 -0.0284907 0.999483 
0.0226749 -0.0361945 0.999088 
0.0253273 -0.0384443 0.99894 
0.0298143 -0.032814 0.999017 
0.0245956 -0.0294963 0.999262 
0.0262063 -0.0217689 0.99942 
0.0310061 -0.0165514 0.999382 
0.0301343 -0.0112165 0.999483 
0.0328452 -0.00735726 0.999433 
0.0317804 -0.00436692 0.999485 
0.0329097 -0.00209811 0.999456 
0.033372 -0.00026782 0.999443 
0.0329598 0.00134158 0.999456 
0.0329015 0.00277787 0.999455 
0.0336607 0.00436665 0.999424 
0.0332773 0.00612328 0.999427 
0.0330783 0.00827675 0.999419 
0.0328346 0.0110775 0.999399 
0.0328201 0.014375 0.999358 
0.0324068 0.0186822 0.9993 
0.0316496 0.0238996 0.999213 
0.0315151 0.0306235 0.999034 
0.0309333 0.0390155 0.99876 
0.0301108 0.0496766 0.998311 
0.0294782 0.0635914 0.997541 
0.0292213 0.0812728 0.996263 
0.0284929 0.104517 0.994115 
0.0272305 0.135267 0.990435 
0.0284462 0.171142 0.984836 
0.0312191 0.223005 0.974317 
0.0304409 0.27916 0.959762 
0.0352344 0.341001 0.939402 
0.0420165 0.429067 0.902295 
0.0414234 0.511499 0.858285 
0.0657815 0.639804 0.765718 
0.0355055 0.734957 0.677184 
0.0299602 0.864489 0.501758 
0.00962151 0.974808 0.222836 
-0.00495905 0.994888 -0.100861 
-0.0219108 0.923116 -0.3839 
-0.0189594 0.828532 -0.559622 
-0.0364932 0.69945 -0.713749 
-0.0497345 0.575992 -0.815941 
-0.0412778 0.483768 -0.874223 
-0.0481638 0.417311 -0.907487 
-0.0343252 0.374698 -0.926511 
-0.0313468 0.307033 -0.951182 
-0.0283367 0.241949 -0.969875 
-0.0268256 0.187573 -0.981884 
-0.0271526 0.143728 -0.989245 
-0.0282675 0.111134 -0.993403 
-0.0286955 0.0870064 -0.995794 
-0.029234 0.0683305 -0.997234 
-0.0300607 0.0534014 -0.998121 
-0.0303842 0.0419173 -0.998659 
-0.0312436 0.0328823 -0.998971 
-0.0315386 0.0257105 -0.999172 
-0.0316552 0.0199501 -0.9993 
-0.0325315 0.0154428 -0.999351 
-0.0329929 0.0118527 -0.999385 
-0.0334127 0.00903572 -0.999401 
-0.0337211 0.00675691 -0.999408 
-0.0337674 0.00492238 -0.999418 
-0.0335786 0.00334398 -0.999431 
-0.0336957 0.00189196 -0.99943 
-0.0332162 0.000423062 -0.999448 
-0.0327358 -0.00121576 -0.999463 
-0.0326894 -0.00334751 -0.99946 
-0.0321798 -0.00605114 -0.999464 
-0.0316093 -0.00929186 -0.999457 
-0.0317169 -0.0132548 -0.999409 
-0.0298891 -0.0179991 -0.999391 
-0.0288115 -0.0239051 -0.999299 
-0.0285225 -0.0316011 -0.999094 
-0.0260354 -0.0382948 -0.998927 
-0.0243256 -0.0375602 -0.998998 
-0.0157807 -0.0288744 -0.999459 
-0.0108545 -0.00775196 -0.999912 
0.00963076 -0.00493821 0.999944 
0.0143739 -0.0275447 0.999516 
0.0217747 -0.0358588 0.99912 
0.0275803 -0.0395634 0.998836 
0.0289647 -0.0332985 0.999026 
0.0310641 -0.0243518 0.999221 
0.0311554 -0.019484 0.999325 
0.0322902 -0.0135647 0.999386 
0.0330727 -0.00955493 0.999407 
0.0332575 -0.00554635 0.999431 
0.0334914 -0.00319833 0.999434 
0.033454 -0.00118096 0.99944 
0.0341948 0.000593811 0.999415 
0.0344803 0.00218245 0.999403 
0.0346164 0.00375639 0.999394 
0.0344523 0.0055504 0.999391 
0.0342719 0.00749779 0.999384 
0.0341244 0.00993274 0.999368 
0.0335116 0.0128632 0.999356 
0.0332739 0.0165109 0.99931 
0.0328839 0.0211012 0.999236 
0.032645 0.0266399 0.999112 
0.0321853 0.0338329 0.998909 
0.031835 0.0427908 0.998577 
0.03159 0.0542344 0.998028 
0.0312266 0.0687566 0.997145 
0.0311493 0.0879779 0.995635 
0.0314364 0.113139 0.993082 
0.032128 0.142042 0.989339 
0.0339212 0.181924 0.982727 
0.0382327 0.234571 0.971347 
0.0417892 0.286043 0.957305 
0.0485259 0.3573 0.932728 
0.0605968 0.43364 0.899047 
0.0648027 0.524624 0.848864 
0.0899151 0.574737 0.813384 
0.0557175 0.749606 0.659535 
0.0354012 0.925891 0.376128 
0.00929215 0.992634 0.120796 
-0.0193722 0.977588 -0.209639 
-0.045408 0.889088 -0.455479 
-0.0407581 0.804922 -0.59198 
-0.0615628 0.679958 -0.730662 
-0.0792308 0.590116 -0.803421 
-0.0657984 0.497515 -0.864956 
-0.0611897 0.401778 -0.91369 
-0.0456218 0.335695 -0.940865 
-0.038649 0.273449 -0.96111 
-0.0344337 0.216623 -0.975648 
-0.0325009 0.169162 -0.985052 
-0.0316801 0.132476 -0.99068 
-0.0311689 0.103673 -0.994123 
-0.0310273 0.0818273 -0.996163 
-0.0312024 0.0643153 -0.997442 
-0.0313977 0.0505026 -0.99823 
-0.0317161 0.0399525 -0.998698 
-0.0320291 0.0312881 -0.998997 
-0.032597 0.0244636 -0.999169 
-0.0330477 0.0192196 -0.999269 
-0.0333327 0.0149545 -0.999332 
-0.0335074 0.0116395 -0.999371 
-0.0338494 0.00891247 -0.999387 
-0.0340433 0.00668206 -0.999398 
-0.0343789 0.00479662 -0.999397 
-0.0344811 0.00316489 -0.9994 
-0.0345096 0.00152694 -0.999403 
-0.0344267 -0.00010574 -0.999407 
-0.0341514 -0.00189629 -0.999415 
-0.0336513 -0.00420243 -0.999425 
-0.0331179 -0.0070107 -0.999427 
-0.0325014 -0.0103003 -0.999419 
-0.0318101 -0.0146864 -0.999386 
-0.0315166 -0.0195422 -0.999312 
-0.0309373 -0.0258974 -0.999186 
-0.0290429 -0.0328197 -0.999039 
-0.0284168 -0.0386653 -0.998848 
-0.0246695 -0.0391582 -0.998929 
-0.0174878 -0.029261 -0.999419 
-0.00883888 -0.00681198 -0.999938 
0.00730934 -0.00442289 0.999965 
0.0117247 -0.0281299 0.999535 
0.0227812 -0.0412373 0.99889 
0.0244159 -0.0375359 0.998997 
0.0225027 -0.0296684 0.999306 
0.0285034 -0.0263569 0.999246 
0.0250927 -0.0216283 0.999451 
0.0274814 -0.0159759 0.999495 
0.0275684 -0.0114013 0.999555 
0.0292932 -0.00770107 0.999541 
0.0271739 -0.00494724 0.999618 
0.0277447 -0.0026616 0.999611 
0.0281216 -0.000534704 0.999604 
0.0287654 0.00120993 0.999585 
0.0286822 0.00294106 0.999584 
0.029172 0.0046999 0.999563 
0.0285757 0.00661259 0.99957 
0.0286651 0.00882053 0.99955 
0.0280951 0.0113959 0.99954 
0.0277703 0.0146869 0.999506 
0.0276034 0.0186965 0.999444 
0.0272263 0.0237459 0.999347 
0.0272708 0.0299547 0.999179 
0.0270044 0.0380846 0.99891 
0.0272021 0.0484241 0.998456 
0.027367 0.0612543 0.997747 
0.0278778 0.0784631 0.996527 
0.0289789 0.101267 0.994437 
0.0304119 0.128081 0.991297 
0.0333869 0.162487 0.986146 
0.0380941 0.206695 0.977664 
0.0471191 0.266066 0.962803 
0.0550423 0.325186 0.944047 
0.0682536 0.380173 0.922394 
0.0829138 0.47041 0.878544 
0.115661 0.554042 0.824415 
0.0920562 0.702062 0.70614 
0.0654609 0.825659 0.560359 
0.0503442 0.938833 0.340676 
0.0072977 0.99821 0.0593678 
-0.0404195 0.961178 -0.272956 
-0.0689038 0.782738 -0.618525 
-0.0966569 0.685651 -0.721485 
-0.102209 0.547418 -0.830594 
-0.0840812 0.464455 -0.881596 
-0.0737688 0.384954 -0.919983 
-0.0554439 0.327516 -0.943217 
-0.0449754 0.271183 -0.961476 
-0.0380968 0.220216 -0.974707 
-0.0339985 0.17572 -0.983853 
-0.0311957 0.138375 -0.989888 
-0.0291207 0.108898 -0.993626 
-0.0277516 0.0852583 -0.995972 
-0.0273845 0.0676103 -0.997336 
-0.0270001 0.0534617 -0.998205 
-0.0267795 0.0419522 -0.998761 
-0.0269377 0.0332334 -0.999084 
-0.0273106 0.0259816 -0.999289 
-0.0275533 0.0204224 -0.999412 
-0.0278007 0.0161342 -0.999483 
-0.0276906 0.0126473 -0.999537 
-0.0279655 0.00980871 -0.999561 
-0.0281303 0.00744995 -0.999576 
-0.0285665 0.00543108 -0.999577 
-0.0285934 0.00366859 -0.999584 
-0.028895 0.00194231 -0.999581 
-0.028882 0.000157969 -0.999583 
-0.0287486 -0.00166342 -0.999585 
-0.0284687 -0.00382102 -0.999587 
-0.0277561 -0.00657713 -0.999593 
-0.0269584 -0.00979921 -0.999588 
-0.0266797 -0.0136348 -0.999551 
-0.026389 -0.0189256 -0.999473 
-0.0263529 -0.02461 -0.99935 
-0.0242178 -0.0325639 -0.999176 
-0.0232165 -0.0398909 -0.998934 
-0.0188944 -0.0379783 -0.9991 
-0.0131575 -0.0287029 -0.999501 
-0.00738585 -0.00612413 -0.999955 
0.00536528 -0.00532044 0.999973 
0.00874985 -0.0288338 0.999546 
0.0158019 -0.0358987 0.999231 
0.0168796 -0.0422847 0.998963 
0.0189482 -0.037941 0.9991 
0.0188872 -0.0262013 0.999478 
0.0205122 -0.0193272 0.999603 
0.0218336 -0.0144963 0.999656 
0.0224507 -0.010033 0.999698 
0.0224661 -0.00711551 0.999722 
0.0212354 -0.0042197 0.999766 
0.0224122 -0.00190091 0.999747 
0.0222745 0.000148363 0.999752 
0.0224949 0.00196784 0.999745 
0.0227454 0.00387962 0.999734 
0.0228108 0.00569475 0.999724 
0.0225932 0.00783786 0.999714 
0.0221366 0.010169 0.999703 
0.0220395 0.0130277 0.999672 
0.0218038 0.0165897 0.999625 
0.0216465 0.0209622 0.999546 
0.0215198 0.0265662 0.999415 
0.0217898 0.0335485 0.9992 
0.0220321 0.0428945 0.998837 
0.0224124 0.0542525 0.998276 
0.0234622 0.069049 0.997337 
0.0249892 0.0888635 0.99573 
0.0267875 0.112221 0.993322 
0.0303881 0.142949 0.989263 
0.0357026 0.180204 0.982981 
0.0439874 0.22879 0.972481 
0.0587106 0.293275 0.954224 
0.0747177 0.351925 0.933041 
0.0881467 0.363854 0.927276 
0.0946973 0.43983 0.893074 
0.117262 0.461523 0.879344 
0.124917 0.679247 0.723201 
0.0983365 0.827051 0.55346 
0.0624697 0.95811 0.279505 
-0.00512253 0.999591 -0.0281763 
-0.0757216 0.884768 -0.45984 
-0.107042 0.794482 -0.59778 
-0.129698 0.645503 -0.752665 
-0.132431 0.548634 -0.825507 
-0.105242 0.456072 -0.883698 
-0.0825231 0.369902 -0.925398 
-0.0603623 0.306426 -0.949979 
-0.0476541 0.254329 -0.965943 
-0.0389847 0.209374 -0.977058 
-0.0330837 0.167048 -0.985394 
-0.028805 0.131688 -0.990873 
-0.0257699 0.103082 -0.994339 
-0.0236737 0.0815957 -0.996384 
-0.0228486 0.0648826 -0.997631 
-0.0222109 0.0509406 -0.998455 
-0.0215185 0.0403181 -0.998955 
-0.0217411 0.031619 -0.999263 
-0.0217408 0.0248512 -0.999455 
-0.0216796 0.0196556 -0.999572 
-0.0218955 0.0155729 -0.999639 
-0.0217916 0.0122401 -0.999688 
-0.0219785 0.00953731 -0.999713 
-0.0222336 0.00717235 -0.999727 
-0.0224514 0.00520952 -0.999734 
-0.0224868 0.00338364 -0.999741 
-0.0228381 0.00151875 -0.999738 
-0.0227358 -0.000394292 -0.999741 
-0.0225871 -0.00236866 -0.999742 
-0.0223755 -0.00469858 -0.999739 
-0.0216009 -0.0075802 -0.999738 
-0.0209581 -0.0110497 -0.999719 
-0.021226 -0.0154675 -0.999655 
-0.020385 -0.0207499 -0.999577 
-0.0205222 -0.0269835 -0.999425 
-0.0181128 -0.0344065 -0.999244 
-0.018451 -0.0405457 -0.999007 
-0.0152313 -0.0407187 -0.999055 
-0.0110997 -0.0301319 -0.999484 
-0.00525152 -0.00785639 -0.999956 
0.00372881 -0.00629339 0.999974 
0.00664962 -0.0297426 0.999535 
0.0119022 -0.0384849 0.999188 
0.0132061 -0.0421955 0.999022 
0.0159719 -0.0343061 0.999284 
0.0143106 -0.0276138 0.999516 
0.0160592 -0.0211086 0.999648 
0.0165815 -0.0154723 0.999743 
0.0177744 -0.0114044 0.999777 
0.0169527 -0.0079672 0.999825 
0.0171593 -0.00535291 0.999838 
0.0173466 -0.00251695 0.999846 
0.0176437 -0.000462096 0.999844 
0.0172932 0.00161836 0.999849 
0.017756 0.00350959 0.999836 
0.0176002 0.00536912 0.999831 
0.0178623 0.00732616 0.999814 
0.0171868 0.00958892 0.999806 
0.0171351 0.0121312 0.99978 
0.0171022 0.0151904 0.999738 
0.0169174 0.01905 0.999675 
0.0169389 0.0238993 0.999571 
0.0170908 0.0301217 0.9994 
0.0177462 0.0380564 0.999118 
0.0180508 0.0479063 0.99869 
0.0191136 0.0606373 0.997976 
0.02087 0.0769501 0.996816 
0.0226534 0.0963678 0.995088 
0.0259688 0.121843 0.99221 
0.0310569 0.153183 0.987709 
0.038791 0.19341 0.980352 
0.0501457 0.243184 0.968683 
0.0646127 0.288346 0.955344 
0.0810714 0.325872 0.941931 
0.11226 0.405532 0.907161 
0.151002 0.506199 0.849095 
0.1496 0.581073 0.799984 
0.167786 0.693666 0.700482 
0.135338 0.835022 0.533313 
-0.0551581 0.9784 -0.199222 
-0.127481 0.877231 -0.462834 
-0.152828 0.745318 -0.648956 
-0.173696 0.637165 -0.7509 
-0.14425 0.505541 -0.850659 
-0.109302 0.41592 -0.902809 
-0.0821499 0.339481 -0.937019 
-0.0644255 0.296297 -0.95292 
-0.0491991 0.242996 -0.968779 
-0.0393619 0.201741 -0.978648 
-0.0326003 0.165551 -0.985662 
-0.0272703 0.131994 -0.990875 
-0.0235103 0.104909 -0.994204 
-0.0206682 0.0828692 -0.996346 
-0.0192047 0.0659276 -0.99764 
-0.0184573 0.0526371 -0.998443 
-0.0174449 0.0415797 -0.998983 
-0.0173994 0.0328168 -0.99931 
-0.0172311 0.0258239 -0.999518 
-0.01698 0.0203779 -0.999648 
-0.0170107 0.0161744 -0.999724 
-0.0170739 0.0129217 -0.999771 
-0.0170793 0.0101181 -0.999803 
-0.0174044 0.007747 -0.999818 
-0.0174319 0.00565111 -0.999832 
-0.0175871 0.00378802 -0.999838 
-0.0178289 0.0018105 -0.999839 
-0.0178053 -0.000218828 -0.999841 
-0.0176941 -0.00229339 -0.999841 
-0.0175369 -0.00460706 -0.999836 
-0.0169239 -0.00746593 -0.999829 
-0.0164094 -0.0109332 -0.999806 
-0.0166762 -0.0151632 -0.999746 
-0.0158265 -0.0204568 -0.999665 
-0.0156441 -0.027011 -0.999513 
-0.0138962 -0.0351469 -0.999286 
-0.0134345 -0.0419918 -0.999028 
-0.010864 -0.0400203 -0.99914 
-0.00797218 -0.030105 -0.999515 
-0.00393244 -0.00618732 -0.999974 
0.00270346 -0.00749577 0.99997 
0.00517362 -0.0313306 0.999495 
0.00941608 -0.0412069 0.999106 
0.00947353 -0.0430429 0.999028 
0.0121054 -0.0366947 0.999253 
0.0112967 -0.0278266 0.999549 
0.0126241 -0.0203752 0.999713 
0.0128352 -0.0153586 0.9998 
0.0137184 -0.0111722 0.999843 
0.012764 -0.00813615 0.999885 
0.0139708 -0.00491363 0.99989 
0.0135301 -0.002496 0.999905 
0.0139126 -0.000299457 0.999903 
0.0134914 0.00181127 0.999907 
0.0137861 0.00375648 0.999898 
0.0137094 0.00567794 0.999891 
0.0138693 0.00762959 0.999874 
0.0133159 0.0098314 0.999863 
0.0133272 0.0123201 0.999835 
0.0133595 0.0153017 0.999794 
0.0132334 0.0190322 0.999731 
0.0133819 0.0239255 0.999624 
0.0136356 0.0301146 0.999453 
0.0142675 0.0377468 0.999185 
0.0147857 0.0474325 0.998764 
0.0158942 0.0595231 0.998101 
0.0176392 0.074679 0.997052 
0.0198422 0.0940964 0.995365 
0.0233344 0.1179 0.992751 
0.0288059 0.147703 0.988613 
0.0370051 0.185064 0.982028 
0.0475347 0.22649 0.972853 
0.0596736 0.265846 0.962167 
0.0835979 0.330059 0.940251 
0.113497 0.394494 0.911862 
0.155283 0.475433 0.865939 
0.197188 0.608194 0.768906 
0.226254 0.733465 0.640966 
0.17506 0.86923 0.462377 
0.052047 0.986945 0.152414 
-0.106897 0.951692 -0.287846 
-0.214421 0.759718 -0.613883 
-0.192922 0.595044 -0.780195 
-0.145509 0.464764 -0.873397 
-0.104006 0.381077 -0.918675 
-0.0730299 0.309744 -0.948011 
-0.0586178 0.268364 -0.961533 
-0.0463011 0.226838 -0.972831 
-0.0362085 0.186043 -0.981874 
-0.0293414 0.152378 -0.987887 
-0.0238594 0.122149 -0.992225 
-0.020064 0.0974925 -0.995034 
-0.0172225 0.0770049 -0.996882 
-0.0157604 0.0615261 -0.997981 
-0.0149429 0.0491488 -0.99868 
-0.0140829 0.0385396 -0.999158 
-0.0138776 0.0305408 -0.999437 
-0.0135882 0.0242426 -0.999614 
-0.0133585 0.0191941 -0.999727 
-0.0132553 0.015403 -0.999793 
-0.0134215 0.0123517 -0.999834 
-0.0133507 0.00976398 -0.999863 
-0.0136801 0.00750981 -0.999878 
-0.0135931 0.00550026 -0.999892 
-0.0138844 0.00354311 -0.999897 
-0.013969 0.00153786 -0.999901 
-0.0139503 -0.000623837 -0.999902 
-0.0138438 -0.00282502 -0.9999 
-0.0136225 -0.00521361 -0.999894 
-0.0131393 -0.00826299 -0.99988 
-0.0128655 -0.012119 -0.999844 
-0.0128688 -0.0163975 -0.999783 
-0.0119907 -0.0216168 -0.999694 
-0.0120011 -0.0277291 -0.999543 
-0.0105199 -0.0357002 -0.999307 
-0.0100927 -0.0427766 -0.999034 
-0.00806479 -0.0407732 -0.999136 
-0.00566936 -0.0300552 -0.999532 
-0.00316486 -0.0068807 -0.999972 
0.00201967 -0.0075155 0.999969 
0.00345608 -0.0312281 0.999507 
0.00649582 -0.0412246 0.999129 
0.00705187 -0.0431385 0.999044 
0.00927269 -0.0353401 0.999332 
0.00807989 -0.0289373 0.999549 
0.00965147 -0.0225776 0.999698 
0.00965376 -0.0169626 0.99981 