# vtk DataFile Version 3.0 
Exported using Morpho https://github.com/Morpho-lang/morpho 
ASCII 
DATASET UNSTRUCTURED_GRID 

POINTS 1978 float 
-8.48527 -2.82841 -6.68318e-08 
-8.25321 -2.82841 -3.5284e-07 
-8.01852 -2.82839 -1.86373e-07 
-7.75934 -2.82842 -2.00539e-07 
-7.46573 -2.8284 -1.88985e-07 
-7.14371 -2.82841 -1.00895e-07 
-6.9599 -2.82841 -3.5531e-08 
-6.71888 -2.82842 -2.89667e-08 
-6.5372 -2.82841 -2.49076e-08 
-6.34505 -2.82842 -2.12025e-08 
-6.15709 -2.82841 -4.33342e-08 
-5.94082 -2.82841 -2.48231e-08 
-5.74007 -2.82841 -9.24913e-10 
-5.53339 -2.82841 7.4411e-09 
-5.30272 -2.82841 1.86288e-08 
-5.09252 -2.82841 3.22568e-08 
-4.87942 -2.82841 3.35894e-08 
-4.66241 -2.82841 4.20671e-08 
-4.45012 -2.82841 4.8126e-08 
-4.23365 -2.82841 5.66705e-08 
-4.0301 -2.82841 7.07439e-08 
-3.8103 -2.82841 9.02255e-08 
-3.59779 -2.82841 1.06731e-07 
-3.38592 -2.82842 1.24643e-07 
-3.16884 -2.82842 1.62526e-07 
-2.94999 -2.82841 2.16743e-07 
-2.73477 -2.82842 2.2747e-07 
-2.52368 -2.82842 2.21638e-07 
-2.30061 -2.82842 2.14778e-07 
-2.05991 -2.82842 2.50502e-07 
-1.88048 -2.82842 1.22256e-07 
-1.67478 -2.82842 -1.77108e-07 
-1.45408 -2.82842 1.46841e-07 
-1.30291 -2.82842 1.13122e-08 
-1.11964 -2.82842 6.4818e-07 
-0.94374 -2.82841 5.31005e-06 
-0.743604 -2.82837 7.58219e-06 
-0.530781 -2.82834 8.55822e-06 
-0.288623 -2.82831 1.48989e-05 
-0.13602 -2.82822 -4.15226e-06 
0.22894 -2.82825 -1.90288e-05 
0.609883 -2.82834 -9.73281e-06 
0.76746 -2.82842 -3.52918e-06 
0.934376 -2.82837 -2.22931e-06 
1.09606 -2.82843 -4.35283e-07 
1.26879 -2.82839 -5.89834e-07 
1.46593 -2.82844 3.13593e-07 
1.65329 -2.82842 1.0051e-07 
1.86997 -2.82842 -1.76287e-07 
2.09392 -2.82843 -2.63305e-07 
2.31255 -2.82842 -2.82007e-07 
2.52924 -2.82842 -2.29504e-07 
2.75285 -2.82842 -2.30644e-07 
2.96979 -2.82841 -2.07289e-07 
3.18359 -2.82842 -1.49582e-07 
3.39687 -2.82841 -1.3052e-07 
3.61542 -2.82841 -1.1714e-07 
3.82623 -2.82841 -9.20555e-08 
4.03949 -2.82841 -6.84651e-08 
4.25811 -2.82841 -5.61881e-08 
4.46684 -2.82841 -4.71456e-08 
4.67619 -2.82841 -4.0582e-08 
4.88288 -2.82841 -3.30172e-08 
5.08963 -2.82841 -2.72448e-08 
5.2986 -2.82841 -1.69559e-08 
5.51343 -2.82841 -3.61894e-09 
5.72487 -2.82841 -3.08851e-09 
5.94477 -2.82841 1.63903e-08 
6.16731 -2.82841 3.78208e-08 
6.38425 -2.82841 2.84277e-08 
6.60729 -2.82841 2.86597e-08 
6.83022 -2.82841 4.36123e-08 
7.04164 -2.82841 5.94563e-08 
7.29677 -2.82841 9.93165e-08 
7.5333 -2.82842 1.18689e-07 
7.75934 -2.82841 1.26537e-07 
8.02565 -2.82841 1.68254e-07 
8.22071 -2.82842 3.3786e-07 
8.48525 -2.8284 2.69965e-08 
-8.48527 -2.58919 3.50532e-07 
-8.25824 -2.59189 5.45675e-08 
-8.03521 -2.57636 3.77538e-08 
-7.80308 -2.61868 4.87416e-08 
-7.54877 -2.64415 4.43182e-08 
-7.2394 -2.66134 -2.60197e-10 
-6.98389 -2.53905 -2.81367e-09 
-6.78681 -2.61735 -1.57362e-08 
-6.55866 -2.55063 5.51836e-09 
-6.35449 -2.56705 -2.84313e-09 
-6.12192 -2.59931 1.72927e-09 
-5.9031 -2.5825 -2.39143e-09 
-5.68587 -2.58325 -7.21331e-10 
-5.45205 -2.61087 6.03969e-10 
-5.2261 -2.59137 -1.22256e-09 
-5.00852 -2.59643 1.56933e-09 
-4.78884 -2.60137 2.03762e-09 
-4.57177 -2.59612 1.38717e-09 
-4.35369 -2.60079 1.50633e-09 
-4.14291 -2.5859 -4.81713e-10 
-3.92809 -2.60295 4.09254e-09 
-3.70926 -2.59408 9.25002e-10 
-3.49389 -2.59232 1.13123e-09 
-3.27647 -2.59684 3.08238e-09 
-3.0546 -2.59693 5.83455e-09 
-2.8323 -2.59272 5.65677e-09 
-2.61463 -2.58859 1.34168e-09 
-2.39366 -2.60271 1.37693e-08 
-2.15924 -2.62096 3.5599e-08 
-1.94415 -2.55246 -4.22627e-08 
-1.75329 -2.59468 1.55058e-08 
-1.53766 -2.61746 7.33306e-08 
-1.34961 -2.54049 -2.69783e-08 
-1.1885 -2.60847 -1.71758e-07 
-1.00659 -2.61565 1.53781e-07 
-0.909493 -2.42344 8.09925e-07 
-0.827756 -2.64994 -1.29313e-08 
-0.615901 -2.67161 2.49676e-07 
-0.397182 -2.68468 4.66605e-06 
-0.00111101 -2.73247 7.60972e-07 
0.261651 -2.70456 2.79457e-06 
0.521836 -2.742 4.83785e-06 
0.793098 -2.62688 -2.69307e-07 
0.93708 -2.53378 -3.2129e-07 
1.07038 -2.60272 -6.66616e-07 
1.2323 -2.55845 3.4585e-07 
1.40949 -2.61787 -4.92167e-08 
1.61104 -2.59702 -8.04527e-09 
1.8248 -2.61443 -3.04656e-09 
2.05724 -2.61522 -2.35169e-08 
2.2927 -2.60274 -1.63747e-08 
2.51667 -2.59709 -6.35193e-09 
2.73936 -2.60039 -5.06642e-09 
2.96667 -2.59157 -5.25186e-09 
3.18502 -2.58985 6.89786e-10 
3.40665 -2.5968 -6.86478e-09 
3.62158 -2.58869 1.70374e-09 
3.83983 -2.59437 -2.3006e-10 
4.06313 -2.60163 -3.54001e-09 
4.2786 -2.59216 -9.65295e-10 
4.49247 -2.59364 -1.85823e-09 
4.70462 -2.59065 -1.59253e-09 
4.91607 -2.59042 -1.00847e-09 
5.12952 -2.59208 -2.512e-11 
5.34733 -2.5975 2.96935e-10 
5.56385 -2.59176 1.08302e-09 
5.78564 -2.59871 2.66924e-09 
6.01149 -2.5988 3.35e-09 
6.23416 -2.59013 2.80835e-09 
6.45814 -2.594 3.29588e-09 
6.68459 -2.59144 3.29932e-09 
6.90002 -2.57548 1.10953e-10 
7.13725 -2.61598 1.08607e-08 
7.38429 -2.59828 -3.82969e-10 
7.61242 -2.58769 -1.24398e-08 
7.86127 -2.62261 -1.44796e-08 
8.07035 -2.54686 -4.07591e-08 
8.29773 -2.61824 -5.04451e-08 
8.48527 -2.53297 -3.97596e-07 
-8.48526 -2.34772 2.99584e-07 
-8.25772 -2.34741 7.61668e-09 
-8.03483 -2.32826 -6.10474e-08 
-7.79961 -2.39702 -4.96608e-09 
-7.57426 -2.27551 -6.44948e-08 
-7.49678 -2.47311 -6.02334e-09 
-7.2369 -2.44869 -1.73023e-08 
-7.00429 -2.31806 -4.10007e-08 
-6.74745 -2.37055 -2.07787e-08 
-6.49461 -2.31331 -2.25826e-08 
-6.26288 -2.36205 -8.77137e-09 
-6.04724 -2.35283 -9.15328e-09 
-5.83024 -2.33992 -3.9376e-09 
-5.59844 -2.36858 2.21176e-09 
-5.38124 -2.37773 5.7644e-09 
-5.15747 -2.36046 1.07322e-08 
-4.93864 -2.37075 1.5071e-08 
-4.72281 -2.37089 2.0067e-08 
-4.50062 -2.37149 2.52724e-08 
-4.29059 -2.36071 3.38897e-08 
-4.06909 -2.36066 4.27903e-08 
-3.85543 -2.37169 4.90784e-08 
-3.63612 -2.36019 6.52215e-08 
-3.41744 -2.36088 7.90298e-08 
-3.19761 -2.36738 9.07129e-08 
-2.97273 -2.36621 1.06477e-07 
-2.75044 -2.35589 1.33634e-07 
-2.52342 -2.36346 1.46595e-07 
-2.29242 -2.39217 1.23471e-07 
-2.08225 -2.36589 1.81776e-07 
-1.84538 -2.3164 1.43612e-07 
-1.64597 -2.38243 8.65864e-08 
-1.46042 -2.34588 1.2812e-07 
-1.24951 -2.32036 1.48117e-08 
-1.08965 -2.39243 2.11546e-07 
-0.830863 -2.25293 -1.32655e-07 
-0.704691 -2.5119 1.08846e-06 
-0.479441 -2.52337 -8.90366e-07 
-0.209536 -2.62938 -2.76396e-06 
0.0750527 -2.5955 -8.45994e-06 
0.331153 -2.54776 -6.57912e-06 
0.529055 -2.6093 6.84466e-08 
0.74589 -2.47188 1.19389e-06 
0.943445 -2.31716 -2.84835e-07 
1.1251 -2.34699 1.4922e-07 
1.24661 -2.19152 9.44625e-08 
1.36824 -2.37328 -1.78366e-07 
1.55041 -2.37226 -4.31962e-08 
1.76525 -2.3937 -1.1675e-07 
1.99329 -2.40752 -1.16028e-07 
2.23011 -2.39333 -1.32982e-07 
2.46192 -2.36895 -1.52132e-07 
2.68405 -2.36884 -1.32926e-07 
2.90515 -2.36718 -1.13422e-07 
3.13154 -2.35539 -9.84067e-08 
3.35146 -2.36502 -7.79863e-08 
3.57014 -2.35359 -7.01256e-08 
3.78879 -2.36141 -5.42362e-08 
4.00912 -2.37454 -4.06857e-08 
4.22773 -2.36222 -3.60009e-08 
4.44521 -2.35995 -2.83003e-08 
4.65772 -2.35732 -2.24192e-08 
4.8715 -2.3552 -1.75605e-08 
5.08437 -2.35843 -1.21538e-08 
5.30082 -2.36603 -7.24598e-09 
5.51655 -2.36008 -3.94688e-09 
5.73712 -2.36768 4.25514e-10 
5.95921 -2.37106 5.81622e-09 
6.18329 -2.35916 1.08574e-08 
6.40932 -2.35846 1.5231e-08 
6.63248 -2.35861 2.13314e-08 
6.8539 -2.32881 3.4645e-08 
7.07817 -2.37696 3.31884e-08 
7.30705 -2.38509 4.13865e-08 
7.54855 -2.3486 4.93851e-08 
7.78294 -2.39026 5.81148e-09 
8.00024 -2.31882 5.6947e-08 
8.24818 -2.35556 -4.46209e-10 
8.48526 -2.30276 -2.39138e-07 
-8.48527 -2.10688 2.11807e-07 
-8.26816 -2.09729 2.33491e-09 
-8.05799 -2.06425 -4.60271e-08 
-7.83251 -2.16504 -2.99664e-08 
-7.56293 -2.07145 -4.22374e-08 
-7.30339 -2.24664 -6.3856e-08 
-7.10531 -2.10492 -3.79828e-08 
-6.83947 -2.13715 -2.98655e-08 
-6.61484 -2.13778 -2.24137e-08 
-6.32873 -2.12096 -1.37285e-08 
-6.12229 -2.11612 -8.66911e-09 
-5.90593 -2.10072 -4.59744e-09 
-5.68281 -2.13209 3.57956e-10 
-5.46599 -2.13729 4.25518e-09 
-5.25766 -2.14152 7.07079e-09 
-5.03425 -2.13727 1.10025e-08 
-4.82397 -2.13929 1.54392e-08 
-4.60911 -2.14777 2.01812e-08 
-4.40061 -2.12899 2.33711e-08 
-4.18728 -2.13456 3.03849e-08 
-3.97262 -2.13094 3.76632e-08 
-3.76518 -2.13638 4.78937e-08 
-3.54921 -2.1272 5.77968e-08 
-3.33462 -2.12941 7.09444e-08 
-3.11718 -2.13915 9.01058e-08 
-2.89875 -2.13061 1.03878e-07 
-2.67259 -2.13024 1.20745e-07 
-2.44356 -2.14764 1.42266e-07 
-2.23657 -2.14219 1.41629e-07 
-2.01309 -2.14031 1.42219e-07 
-1.77727 -2.09136 6.3205e-08 
-1.59778 -2.12075 6.39336e-08 
-1.39051 -2.12752 1.07434e-07 
-1.19362 -2.09249 -3.24765e-07 
-1.02139 -2.17254 3.17021e-07 
-0.887436 -2.02008 2.47855e-07 
-0.66466 -2.35619 1.75887e-06 
-0.33567 -2.45024 4.67827e-06 
-0.120162 -2.50154 6.5332e-06 
0.163731 -2.46013 4.71417e-06 
0.393658 -2.37827 -3.05054e-06 
0.559956 -2.44046 -1.30319e-06 
0.753652 -2.26872 -1.63177e-06 
0.867935 -2.08128 -9.89684e-07 
1.04842 -2.08948 -2.71742e-08 
1.23408 -1.97209 1.29018e-07 
1.4366 -2.10798 -3.67809e-08 
1.63283 -2.15352 -1.08698e-07 
1.85027 -2.18654 -1.53544e-07 
2.07442 -2.19127 -1.83579e-07 
2.2959 -2.16354 -1.58228e-07 
2.51902 -2.13605 -1.31185e-07 
2.73625 -2.13491 -1.15876e-07 
2.95848 -2.13768 -1.00967e-07 
3.18183 -2.1244 -8.19085e-08 
3.39669 -2.1304 -6.62271e-08 
3.61777 -2.12322 -5.39177e-08 
3.83815 -2.13591 -4.54997e-08 
4.05196 -2.14222 -3.66201e-08 
4.27011 -2.13284 -2.82609e-08 
4.48189 -2.12543 -2.09609e-08 
4.69549 -2.12569 -1.67138e-08 
4.90852 -2.12259 -1.26235e-08 
5.12484 -2.13042 -9.0979e-09 
5.33703 -2.13214 -5.41638e-09 
5.55724 -2.13269 -2.65936e-09 
5.77662 -2.13866 1.07872e-09 
5.99647 -2.13922 6.59496e-09 
6.22255 -2.12954 1.08398e-08 
6.44434 -2.12317 1.50092e-08 
6.66082 -2.11591 2.12079e-08 
6.89499 -2.09913 2.73502e-08 
7.11763 -2.14471 4.02972e-08 
7.34886 -2.15592 5.36647e-08 
7.55553 -2.08622 3.75184e-08 
7.75896 -2.15197 2.67667e-08 
7.97876 -2.08213 2.47311e-08 
8.21262 -2.13165 4.58177e-08 
8.48526 -2.103 -2.14246e-07 
-8.48526 -1.84994 1.91707e-07 
-8.2745 -1.84269 1.08304e-08 
-7.87644 -1.90827 1.90769e-08 
[...]
POINT_DATA 1978 
VECTORS vectors float
0.0168926 -0.0183217 0.999702 
0.0177608 -0.0339383 0.999253 
0.0165268 -0.0454319 0.998831 
0.0163071 -0.0385119 0.99912 
0.0182042 -0.0279041 0.999434 
0.0175451 -0.0184067 0.999675 
0.0165248 -0.0140111 0.999767 
0.016651 -0.0101312 0.999812 
0.0194133 -0.00704761 0.999788 
0.0184164 -0.00398636 0.999823 
0.0175448 -0.00226837 0.999845 
0.0173376 -0.000564897 0.999851 
0.0173791 0.000979573 0.99985 
0.0167137 0.00209282 0.999859 
0.016786 0.00305001 0.999855 
0.0172014 0.00443603 0.999844 
0.0169377 0.00620585 0.999838 
0.016836 0.00839978 0.999824 
0.0167738 0.0111549 0.999798 
0.0169128 0.0147166 0.99975 
0.0166198 0.0190327 0.999682 
0.01618 0.0246276 0.999567 
0.0161196 0.0313671 0.999379 
0.015758 0.0397905 0.999085 
0.0151734 0.0504213 0.998614 
0.0146753 0.0641587 0.997833 
0.0142339 0.0815493 0.996569 
0.0132022 0.103586 0.994535 
0.0115984 0.133203 0.991022 
0.0106115 0.174772 0.984554 
0.00975976 0.215308 0.976499 
0.00723069 0.272322 0.962181 
0.00486638 0.348279 0.93738 
0.00270778 0.4132 0.910637 
-0.000857365 0.508358 0.861146 
-0.00242731 0.604467 0.796626 
-0.00347459 0.720023 0.693941 
-0.00502488 0.841186 0.540704 
-0.00383329 0.951659 0.307148 
0.00113364 0.990573 0.136976 
0.00441885 0.961552 -0.274589 
0.00525283 0.777543 -0.6288 
0.00409842 0.687167 -0.726486 
0.0016092 0.596818 -0.802376 
-0.000574931 0.510283 -0.860007 
-0.00186465 0.424655 -0.905356 
-0.00523925 0.342578 -0.939477 
-0.00735077 0.277049 -0.96083 
-0.00901261 0.216477 -0.976248 
-0.010364 0.167472 -0.985824 
-0.0117903 0.130382 -0.991395 
-0.0132093 0.101878 -0.994711 
-0.0141495 0.0796133 -0.996727 
-0.0147524 0.0629117 -0.997912 
-0.0153318 0.0497389 -0.998645 
-0.0156382 0.0390431 -0.999116 
-0.0161143 0.030619 -0.999403 
-0.0163973 0.0239889 -0.999579 
-0.0163737 0.0186402 -0.999693 
-0.0167394 0.0143408 -0.999758 
-0.0170755 0.0109256 -0.999796 
-0.0172761 0.00820998 -0.999818 
-0.0174354 0.00611622 -0.999831 
-0.0174355 0.00441631 -0.99984 
-0.0172335 0.00313111 -0.999848 
-0.0172238 0.00206983 -0.999851 
-0.0170228 0.00092417 -0.999856 
-0.0167189 -0.000397852 -0.999861 
-0.0167183 -0.0023015 -0.999859 
-0.0165426 -0.00486142 -0.999852 
-0.0163357 -0.00790583 -0.999836 
-0.0166717 -0.0118665 -0.999792 
-0.0156805 -0.0164242 -0.999742 
-0.0152082 -0.0225577 -0.999629 
-0.015612 -0.029948 -0.999431 
-0.0145862 -0.0383338 -0.999158 
-0.0163346 -0.0458348 -0.998815 
-0.0173325 -0.0359338 -0.999194 
-0.0173172 -0.0175333 -0.999708 
0.00954905 -0.0218257 0.999731 
0.0143916 -0.0322443 0.99938 
0.0175285 -0.0382821 0.999112 
0.0193773 -0.0385866 0.999071 
0.0198095 -0.0308935 0.999331 
0.0198983 -0.0215061 0.999577 
0.0237135 -0.0152916 0.999604 
0.0227686 -0.0112177 0.999683 
0.0239996 -0.00775574 0.99968 
0.0247896 -0.00497336 0.999686 
0.0233611 -0.00252759 0.999727 
0.0244305 -0.000576753 0.999704 
0.0245849 0.00096188 0.9997 
0.0240481 0.00234664 0.999713 
0.0246141 0.00372979 0.999693 
0.0245742 0.00530015 0.999687 
0.0243297 0.00728293 0.999681 
0.0243328 0.009806 0.999659 
0.0239814 0.0129803 0.999631 
0.0240949 0.0168402 0.99957 
0.0233887 0.0217167 0.999494 
0.0232452 0.0279654 0.999342 
0.0228716 0.0356152 0.999107 
0.0222516 0.045267 0.998731 
0.0217154 0.0577938 0.998096 
0.021219 0.0739453 0.99704 
0.0206474 0.0942831 0.995335 
0.0196001 0.120825 0.992485 
0.018372 0.157428 0.987365 
0.0203536 0.20118 0.979346 
0.0187875 0.249928 0.968086 
0.0178319 0.317573 0.948071 
0.0235112 0.390964 0.920108 
0.0194374 0.469302 0.882825 
0.0208158 0.566856 0.823556 
0.0422228 0.611243 0.790318 
0.017424 0.673001 0.739437 
0.0153166 0.792862 0.609193 
0.0110377 0.903771 0.427917 
-0.000645066 0.99989 -0.0147036 
-0.00635678 0.954783 -0.297233 
-0.00547824 0.833167 -0.552988 
-0.0188867 0.677121 -0.735628 
-0.0276283 0.594158 -0.803875 
-0.0201886 0.522886 -0.852166 
-0.0228144 0.441683 -0.896883 
-0.0176493 0.36445 -0.931059 
-0.0184109 0.290871 -0.956589 
-0.0176874 0.228612 -0.973361 
-0.0182395 0.175407 -0.984332 
-0.0193053 0.134262 -0.990762 
-0.0201025 0.104318 -0.994345 
-0.020644 0.0814394 -0.996469 
-0.0215594 0.0635746 -0.997748 
-0.0220555 0.0499964 -0.99851 
-0.0224608 0.039072 -0.998988 
-0.0229954 0.0307795 -0.999265 
-0.0232713 0.0239588 -0.999445 
-0.0235191 0.0184349 -0.999557 
-0.0240195 0.0142189 -0.999613 
-0.0243098 0.0108287 -0.999649 
-0.0245993 0.00816228 -0.999667 
-0.0247332 0.00606107 -0.999678 
-0.0247429 0.00437706 -0.999687 
-0.0246385 0.00297094 -0.999695 
-0.0246802 0.00170049 -0.999697 
-0.0243539 0.00036464 -0.999707 
-0.0241573 -0.00127326 -0.999711 
-0.0240845 -0.00345489 -0.999707 
-0.0237303 -0.0062206 -0.999703 
-0.023488 -0.00965764 -0.999681 
-0.023211 -0.013659 -0.99964 
-0.0219536 -0.0188517 -0.999587 
-0.021688 -0.0256162 -0.999441 
-0.0211748 -0.0330689 -0.999233 
-0.0196124 -0.0397348 -0.999022 
-0.0172242 -0.0363832 -0.999186 
-0.0139706 -0.0300998 -0.999457 
-0.0101585 -0.02049 -0.999744 
0.0119196 -0.0202593 0.999729 
0.0150478 -0.0284898 0.999483 
0.0226905 -0.0362033 0.999081 
0.0253387 -0.0384594 0.99894 
0.0298319 -0.0328184 0.999018 
0.0245971 -0.029494 0.999262 
0.0262106 -0.0217666 0.999417 
0.031023 -0.0165523 0.999384 
0.030145 -0.0112169 0.999484 
0.0328624 -0.00735691 0.999434 
0.0317911 -0.00436638 0.999485 
0.0329258 -0.00209758 0.999456 
0.0333873 -0.000267326 0.999444 
0.0329741 0.0013417 0.999456 
0.0329149 0.00277783 0.999454 
0.0336764 0.00436658 0.999424 
0.0332917 0.00612293 0.999427 
0.0330925 0.00827633 0.999418 
0.0328488 0.0110772 0.9994 
0.0328349 0.0143747 0.999358 
0.0324213 0.0186819 0.999301 
0.0316628 0.0238993 0.999214 
0.0315291 0.0306232 0.999035 
0.0309468 0.0390152 0.998761 
0.0301233 0.0496763 0.998312 
0.0294899 0.0635908 0.997542 
0.0292334 0.0812724 0.996265 
0.0285037 0.104517 0.994117 
0.027238 0.135265 0.990438 
0.0284553 0.171141 0.984839 
0.0312281 0.223003 0.974322 
0.0304428 0.27917 0.959763 
0.0352409 0.340989 0.93941 
0.0420173 0.429076 0.902295 
0.0414256 0.511485 0.858294 
0.0657833 0.639825 0.765701 
0.0355082 0.734956 0.677182 
0.029947 0.864553 0.501634 
0.00961704 0.974811 0.222803 
-0.00496083 0.994882 -0.100822 
-0.0218988 0.923224 -0.38361 
-0.0189658 0.828768 -0.559249 
-0.0364801 0.699454 -0.713747 
-0.0497256 0.576004 -0.815935 
-0.0412868 0.483791 -0.874214 
-0.0481593 0.417323 -0.907483 
-0.0343296 0.37468 -0.926522 
-0.0313508 0.307023 -0.951189 
-0.0283417 0.241941 -0.96988 
-0.0268322 0.187564 -0.981889 
-0.0271602 0.143723 -0.989248 
-0.0282781 0.111132 -0.993406 
-0.0287068 0.0870054 -0.995796 
-0.0292461 0.0683298 -0.997236 
-0.0300735 0.0534014 -0.998122 
-0.0303969 0.0419172 -0.99866 
-0.0312578 0.0328821 -0.998972 
-0.0315523 0.0257103 -0.999172 
-0.0316681 0.0199498 -0.9993 
-0.0325462 0.0154425 -0.999352 
-0.0330076 0.0118525 -0.999386 
-0.0334278 0.00903546 -0.999401 
-0.0337365 0.00675668 -0.999409 
-0.0337827 0.00492226 -0.999418 
-0.0335932 0.00334404 -0.99943 
-0.0337109 0.00189205 -0.99943 
-0.0332306 0.000423318 -0.999448 
-0.0327493 -0.00121516 -0.999463 
-0.0327039 -0.0033469 -0.99946 
-0.0321937 -0.00605071 -0.999464 
-0.0316225 -0.00929143 -0.999458 
-0.0317327 -0.0132545 -0.999411 
-0.0299006 -0.0179986 -0.99939 
-0.0288225 -0.0239047 -0.999299 
-0.0285362 -0.0316047 -0.999095 
-0.0260462 -0.0383086 -0.998926 
-0.0243439 -0.0375738 -0.998993 
-0.015779 -0.0288748 -0.999459 
-0.0117258 -0.0212423 -0.999719 
0.010567 -0.0194384 0.999754 
0.0143707 -0.0275456 0.999519 
0.0217882 -0.0358689 0.999114 
0.0275988 -0.0395827 0.998839 
0.0289768 -0.033304 0.99903 
0.0310827 -0.0243541 0.999224 
0.0311682 -0.0194835 0.999328 
0.0323041 -0.0135647 0.99939 
0.0330874 -0.00955462 0.999411 
0.0332706 -0.00554568 0.999435 
0.0335042 -0.00319786 0.999438 
0.0334653 -0.00118042 0.999444 
0.034208 0.000593992 0.999419 
0.0344937 0.00218253 0.999407 
0.0346298 0.00375652 0.999397 
0.0344652 0.00555047 0.999395 
0.0342847 0.00749771 0.999388 
0.0341374 0.00993274 0.999372 
0.0335233 0.0128632 0.999359 
0.0332859 0.016511 0.999314 
0.0328956 0.0211013 0.99924 
0.032657 0.0266399 0.999116 
0.0321968 0.0338331 0.998913 
0.0318465 0.0427909 0.998581 
0.0316017 0.0542346 0.998032 
0.0312376 0.0687563 0.997149 
0.0311596 0.0879779 0.99564 
0.0314466 0.113139 0.993086 
0.0321368 0.142042 0.989343 
0.033929 0.181919 0.982733 
0.0382356 0.234575 0.97135 
0.0417947 0.286031 0.957313 
0.0485262 0.357296 0.932732 
0.0605969 0.433644 0.899048 
0.0648055 0.524627 0.848865 
0.089912 0.574719 0.813398 
0.0557008 0.749619 0.659521 
0.0354082 0.925881 0.376136 
0.00927276 0.992642 0.120688 
-0.0193713 0.977574 -0.209683 
-0.045399 0.889035 -0.455576 
-0.0407543 0.80485 -0.592073 
-0.0615648 0.679928 -0.730689 
-0.0792327 0.590122 -0.803417 
-0.0658039 0.497504 -0.864966 
-0.0611858 0.401778 -0.913694 
-0.0456274 0.335707 -0.940866 
-0.0386552 0.273456 -0.961112 
-0.0344412 0.216632 -0.97565 
-0.0325107 0.169162 -0.985056 
-0.0316903 0.132478 -0.990684 
-0.031179 0.103675 -0.994127 
-0.0310379 0.081828 -0.996168 
-0.0312136 0.0643153 -0.997446 
-0.0314092 0.050503 -0.998234 
-0.0317275 0.0399528 -0.998702 
-0.0320405 0.031288 -0.999001 
-0.0326091 0.0244636 -0.999173 
-0.0330602 0.0192195 -0.999273 
-0.033345 0.0149545 -0.999336 
-0.0335191 0.0116395 -0.999374 
-0.0338614 0.00891248 -0.999391 
-0.0340552 0.006682 -0.999402 
-0.0343914 0.00479668 -0.999401 
-0.0344938 0.00316505 -0.999404 
-0.0345227 0.00152703 -0.999407 
-0.0344401 -0.000105567 -0.999411 
-0.034165 -0.0018958 -0.999419 
-0.0336643 -0.00420197 -0.999429 
-0.0331306 -0.00701046 -0.999431 
-0.0325138 -0.0102999 -0.999423 
-0.0318219 -0.0146862 -0.999389 
-0.0315303 -0.0195422 -0.999317 
-0.0309513 -0.0258979 -0.999189 
-0.0290543 -0.032824 -0.999043 
-0.0284323 -0.0386801 -0.998851 
-0.0246855 -0.0391777 -0.998926 
-0.0174937 -0.0292566 -0.999418 
-0.00962758 -0.0208778 -0.999751 
0.00806593 -0.019424 0.999775 
0.0117224 -0.0281343 0.999539 
0.0227913 -0.0412597 0.99889 
0.024419 -0.0375463 0.999001 
0.022505 -0.0296697 0.999312 
0.0285111 -0.0263566 0.99925 
0.0250952 -0.0216281 0.999456 
0.0274848 -0.0159759 0.999499 
0.0275727 -0.0114005 0.99956 
0.029299 -0.00770075 0.999546 
0.0271754 -0.00494706 0.999623 
0.0277483 -0.00266135 0.999616 
0.0281238 -0.000534424 0.999609 
0.0287693 0.00120988 0.99959 
0.0286852 0.00294132 0.999589 
0.0291758 0.00470012 0.999568 
0.0285787 0.00661266 0.999574 
0.0286685 0.00882054 0.999555 
0.0280979 0.011396 0.999545 
0.0277731 0.0146869 0.999511 
0.0276061 0.0186965 0.999449 
0.027229 0.0237459 0.999352 
0.0272738 0.0299548 0.999184 
0.0270071 0.0380847 0.998914 
0.027205 0.0484242 0.998461 
0.0273699 0.0612546 0.997752 
0.0278808 0.0784629 0.996532 
0.0289818 0.101267 0.994442 
0.0304141 0.128081 0.991302 
0.033389 0.162487 0.986151 
0.0380963 0.206703 0.977667 
0.0471222 0.266071 0.962806 
0.0550432 0.325206 0.944044 
0.0682544 0.38017 0.922398 
0.0829145 0.470396 0.878554 
0.115661 0.554053 0.824411 
0.0920546 0.702059 0.70614 
0.065464 0.825602 0.560442 
0.0503668 0.938785 0.340791 
0.00733879 0.998189 0.0596083 
-0.0404251 0.96115 -0.273042 
-0.0688957 0.782746 -0.618515 
-0.0966574 0.685675 -0.721463 
-0.102203 0.547409 -0.830605 
-0.0840859 0.464452 -0.8816 
-0.0737612 0.384953 -0.919988 
-0.0554438 0.327502 -0.943227 
-0.0449756 0.271181 -0.961482 
-0.0380982 0.220211 -0.974713 
-0.0340017 0.17572 -0.983856 
-0.0311988 0.138375 -0.989893 
-0.0291235 0.108899 -0.993631 
-0.0277541 0.0852588 -0.995977 
-0.0273877 0.0676106 -0.997341 
-0.0270029 0.0534621 -0.998209 
-0.0267822 0.0419524 -0.998765 
-0.0269405 0.0332337 -0.999089 
-0.0273134 0.0259815 -0.999294 
-0.0275564 0.0204225 -0.999416 
-0.0278035 0.0161343 -0.999488 
-0.0276933 0.0126474 -0.999541 
-0.027968 0.00980886 -0.999565 
-0.0281331 0.00745001 -0.999581 
-0.0285695 0.00543122 -0.999582 
-0.0285964 0.00366884 -0.999589 
-0.0288983 0.00194247 -0.999585 
-0.0288854 0.000158022 -0.999587 
-0.0287521 -0.00166309 -0.99959 
-0.0284723 -0.00382058 -0.999592 
-0.0277594 -0.00657692 -0.999598 
-0.0269612 -0.00979907 -0.999593 
-0.0266828 -0.0136345 -0.999556 
-0.0263924 -0.0189256 -0.999477 
-0.0263578 -0.0246104 -0.999356 
-0.0242208 -0.0325674 -0.999181 
-0.0232226 -0.0399069 -0.998938 
-0.0189006 -0.0379915 -0.999098 
-0.0131566 -0.0287098 -0.999506 
-0.00805205 -0.0201798 -0.999779 
0.00591045 -0.0207257 0.999779 
0.00874777 -0.0288362 0.99955 
0.015805 -0.0359061 0.999226 
0.0168824 -0.0423065 0.998965 
0.0189502 -0.0379501 0.999104 
0.018887 -0.0262017 0.999483 
0.0205119 -0.0193275 0.999608 
0.0218343 -0.0144958 0.999661 
0.0224512 -0.010033 0.999702 
0.0224666 -0.00711561 0.999727 
0.0212349 -0.00421934 0.99977 
0.0224137 -0.00190081 0.999752 
0.0222739 0.000148457 0.999756 
0.0224957 0.00196788 0.99975 
0.0227455 0.00387997 0.999738 
0.0228112 0.00569491 0.999728 
0.0225934 0.00783795 0.999718 
0.0221367 0.0101691 0.999708 
0.0220397 0.0130279 0.999677 
0.0218039 0.0165898 0.999629 
0.0216466 0.0209623 0.99955 
0.0215201 0.0265662 0.99942 
0.0217901 0.0335487 0.999204 
0.0220323 0.0428949 0.998841 
0.0224127 0.0542531 0.99828 
0.0234625 0.06905 0.997342 
0.0249898 0.0888643 0.995735 
0.0267878 0.112223 0.993327 
0.0303882 0.142949 0.989268 
0.0357032 0.180206 0.982986 
0.0439862 0.228784 0.972488 
0.0587126 0.293287 0.954225 
0.0747173 0.351921 0.933046 
0.0881415 0.363838 0.927287 
0.0946983 0.439834 0.893076 
0.117262 0.461534 0.879342 
0.124913 0.679262 0.723185 
0.0983548 0.82705 0.553452 
0.0624309 0.958154 0.279335 
-0.00516757 0.999571 -0.0284192 
-0.075724 0.884769 -0.459823 
-0.107038 0.794491 -0.597764 
-0.129699 0.645492 -0.752673 
-0.132432 0.548634 -0.825508 
-0.105246 0.45608 -0.883699 
-0.0825248 0.369922 -0.925394 
-0.0603647 0.306427 -0.949982 
-0.0476547 0.254333 -0.965947 
-0.0389855 0.209379 -0.977062 
-0.0330844 0.16705 -0.9854 
-0.0288052 0.131687 -0.990877 
-0.0257703 0.103082 -0.994344 
-0.0236737 0.0815956 -0.996389 
-0.022849 0.0648835 -0.997636 
-0.0222112 0.0509407 -0.998459 
-0.0215185 0.0403184 -0.99896 
-0.0217416 0.0316188 -0.999268 
-0.0217407 0.024851 -0.999459 
-0.0216798 0.0196554 -0.999576 
-0.0218957 0.0155728 -0.999643 
-0.0217917 0.0122403 -0.999692 
-0.0219785 0.00953746 -0.999717 
-0.0222338 0.00717245 -0.999732 
-0.0224517 0.00520966 -0.999739 
-0.022487 0.00338397 -0.999746 
-0.0228385 0.00151892 -0.999743 
-0.0227362 -0.000394284 -0.999746 
-0.0225874 -0.00236837 -0.999747 
-0.0223759 -0.00469818 -0.999743 
-0.0216012 -0.00758002 -0.999743 
-0.0209581 -0.0110495 -0.999724 
-0.0212266 -0.0154673 -0.99966 
-0.0203853 -0.02075 -0.999582 
-0.0205227 -0.0269838 -0.999429 
-0.0181133 -0.0344106 -0.999248 
-0.0184528 -0.0405612 -0.999011 
-0.0152351 -0.0407385 -0.999053 
-0.011099 -0.0301302 -0.999485 
-0.0057068 -0.0215334 -0.999769 
0.00409 -0.0211877 0.999783 
0.00664856 -0.0297426 0.999538 
0.0119043 -0.0384981 0.999184 
0.013208 -0.042214 0.999026 
0.0159719 -0.0343101 0.999288 
0.0143108 -0.0276144 0.999521 
0.0160591 -0.0211089 0.999652 
0.0165821 -0.0154722 0.999748 
0.0177742 -0.011404 0.999781 
0.0169525 -0.00796693 0.999829 
0.0171592 -0.00535273 0.999843 
0.0173469 -0.00251649 0.999851 
0.0176438 -0.00046222 0.999849 
0.0172931 0.00161873 0.999855 
0.0177559 0.00350995 0.99984 
0.0175998 0.00536943 0.999836 
0.0178622 0.00732628 0.999817 
0.0171864 0.00958918 0.999811 
0.0171348 0.0121314 0.999784 
0.0171018 0.0151904 0.999743 
0.016917 0.0190499 0.99968 
0.0169386 0.0238991 0.999575 
0.0170907 0.0301218 0.999406 
0.0177461 0.0380563 0.999122 
0.0180506 0.0479064 0.998695 
0.0191138 0.0606383 0.997982 
0.0208702 0.076951 0.99682 
0.0226536 0.0963681 0.995093 
0.0259688 0.121843 0.992215 
0.0310573 0.153184 0.987716 
0.0387913 0.193411 0.980354 
0.0501478 0.243194 0.968685 
0.0646089 0.288332 0.955354 
0.0810756 0.325882 0.941932 
0.112261 0.405545 0.907161 
0.150998 0.506192 0.8491 
0.149606 0.581087 0.799974 
0.16777 0.693659 0.700496 
0.135327 0.83507 0.533224 
-0.0551447 0.978415 -0.199127 
-0.127476 0.877225 -0.462833 
-0.152826 0.745319 -0.648954 
-0.173699 0.637168 -0.750896 
-0.144251 0.505543 -0.85066 
-0.109299 0.415912 -0.902817 
-0.0821496 0.339484 -0.937022 
-0.0644282 0.296304 -0.952923 
-0.049199 0.242996 -0.968784 
-0.0393618 0.201741 -0.978652 
-0.0326003 0.165551 -0.985666 
-0.0272703 0.131994 -0.99088 
-0.0235103 0.104909 -0.994209 
-0.0206683 0.08287 -0.996351 
-0.0192047 0.0659277 -0.997644 
-0.0184575 0.0526379 -0.998448 
-0.0174446 0.0415804 -0.998988 
-0.0173995 0.0328174 -0.999315 
-0.0172308 0.0258242 -0.999523 
-0.0169797 0.0203778 -0.999653 
-0.0170104 0.0161745 -0.999729 
-0.0170735 0.0129219 -0.999775 
-0.0170791 0.0101184 -0.999807 
-0.0174041 0.00774714 -0.999823 
-0.0174318 0.00565131 -0.999836 
-0.0175869 0.00378841 -0.999843 
-0.0178288 0.00181077 -0.999844 
-0.0178053 -0.000218838 -0.999846 
-0.0176942 -0.00229323 -0.999845 
-0.0175369 -0.00460662 -0.99984 
-0.016924 -0.00746569 -0.999834 
-0.0164094 -0.0109329 -0.99981 
-0.0166763 -0.0151631 -0.99975 
-0.0158267 -0.0204569 -0.999671 
-0.0156441 -0.0270118 -0.999518 
-0.0138964 -0.0351518 -0.99929 
-0.0134359 -0.0420091 -0.999031 
-0.0108663 -0.0400361 -0.999137 
-0.00797081 -0.0301081 -0.999517 
-0.00430014 -0.020641 -0.999794 
0.00293903 -0.0211496 0.999789 
0.00517361 -0.0313344 0.999498 
0.00941784 -0.0412257 0.999104 
0.00947459 -0.043061 0.999032 
0.0121057 -0.0367004 0.999258 
0.0112969 -0.0278269 0.999554 
0.0126244 -0.020375 0.999718 
0.0128355 -0.0153585 0.999804 
0.0137186 -0.011172 0.999848 
0.012764 -0.00813599 0.999891 
0.0139712 -0.00491311 0.999893 
0.0135301 -0.00249599 0.999911 
0.0139129 -0.00029934 0.999907 
0.0134914 0.00181162 0.999911 
0.0137859 0.00375686 0.999904 
0.0137094 0.00567832 0.999893 
0.0138694 0.00763009 0.999879 
0.0133156 0.00983179 0.999867 
0.0133271 0.0123203 0.99984 
0.0133594 0.0153017 0.999798 
0.0132332 0.019032 0.999735 
0.0133819 0.0239255 0.999629 
0.0136356 0.0301144 0.999457 
0.0142677 0.0377469 0.999191 
0.0147858 0.0474326 0.998769 
0.0158941 0.0595225 0.998105 
0.0176392 0.0746788 0.997058 
0.0198425 0.0940971 0.99537 
0.0233344 0.1179 0.992756 
0.0288061 0.147703 0.988616 
0.0370058 0.185066 0.982035 
0.0475316 0.226479 0.97286 
0.0596744 0.265851 0.962169 
0.0836001 0.330064 0.940252 
0.113496 0.394499 0.911865 
0.155284 0.475434 0.865942 
0.197197 0.608197 0.768903 
0.226254 0.733455 0.640983 
0.175064 0.869201 0.462439 
0.0520611 0.986935 0.152508 
-0.1069 0.951703 -0.287844 
-0.214422 0.759725 -0.613885 
-0.192919 0.59502 -0.780213 
-0.145505 0.464761 -0.873403 
-0.104003 0.381071 -0.918683 
-0.0730336 0.309753 -0.948012 
-0.0586155 0.268357 -0.96154 
-0.0463044 0.22685 -0.972833 
-0.0362093 0.186046 -0.981879 
-0.0293418 0.15238 -0.987891 
-0.0238599 0.122152 -0.99223 
-0.0200642 0.097494 -0.995038 
-0.0172228 0.077005 -0.996886 
-0.0157605 0.0615272 -0.997986 
-0.014943 0.0491496 -0.998684 
-0.0140829 0.0385393 -0.999163 
-0.0138775 0.030541 -0.999441 
-0.0135882 0.0242425 -0.999619 
-0.0133584 0.0191939 -0.999731 
-0.0132552 0.015403 -0.999798 
-0.0134212 0.012352 -0.999838 
-0.0133507 0.00976428 -0.999868 
-0.0136799 0.00751 -0.999883 
-0.013593 0.00550045 -0.999896 
-0.0138844 0.00354347 -0.999902 
-0.013969 0.00153814 -0.999906 
-0.0139505 -0.000623962 -0.999907 
-0.013844 -0.00282502 -0.999905 
-0.0136227 -0.00521319 -0.999898 
-0.0131394 -0.00826275 -0.999884 
-0.0128657 -0.0121192 -0.999848 
-0.012869 -0.0163975 -0.999787 
-0.0119909 -0.0216169 -0.999699 
-0.0120013 -0.0277294 -0.999548 
-0.0105202 -0.0357044 -0.999312 
-0.0100936 -0.0427939 -0.999037 
-0.0080662 -0.0407888 -0.999133 
-0.00566776 -0.0300587 -0.999537 
-0.00344095 -0.0207843 -0.999795 
0.002194 -0.0213553 0.999788 
0.00345466 -0.0312299 0.999509 
0.00649633 -0.0412401 0.999126 
0.00705264 -0.0431541 0.999048 
0.00927288 -0.035343 0.999337 
0.00807976 -0.0289381 0.999553 
0.00965169 -0.0225783 0.999702 
0.00965396 -0.016963 0.999814 
0.0103085 -0.0122985 0.999877 
0.00994351 -0.00852424 0.999918 
0.0109487 -0.005314 0.999931 