# vtk DataFile Version 3.0 
Exported using Morpho https://github.com/Morpho-lang/morpho 
ASCII 
DATASET UNSTRUCTURED_GRID 

POINTS 1978 float 
-8.48528 -2.82843 2.19336e-10 
-8.25321 -2.82843 2.68904e-09 
-8.01859 -2.82843 2.07365e-09 
-7.75929 -2.82843 2.35383e-09 
-7.46566 -2.82843 2.31265e-09 
-7.14378 -2.82843 1.2185e-09 
-6.95995 -2.82843 4.23423e-10 
-6.71879 -2.82843 4.20809e-10 
-6.53714 -2.82843 2.20309e-10 
-6.34516 -2.82843 1.828e-10 
-6.15703 -2.82843 2.91076e-10 
-5.94088 -2.82843 1.58921e-10 
-5.74007 -2.82843 -1.52686e-11 
-5.53341 -2.82843 -9.60055e-11 
-5.30271 -2.82843 -1.79041e-10 
-5.09251 -2.82843 -2.79739e-10 
-4.87943 -2.82843 -3.35561e-10 
-4.66242 -2.82843 -4.2819e-10 
-4.45012 -2.82843 -5.24312e-10 
-4.23365 -2.82843 -6.1859e-10 
-4.03012 -2.82843 -7.95494e-10 
-3.81032 -2.82843 -1.04075e-09 
-3.5978 -2.82843 -1.20557e-09 
-3.38595 -2.82843 -1.46522e-09 
-3.16887 -2.82843 -1.88124e-09 
-2.95002 -2.82843 -2.36344e-09 
-2.73481 -2.82843 -2.52403e-09 
-2.52374 -2.82843 -2.73329e-09 
-2.30067 -2.82843 -3.33814e-09 
-2.05995 -2.82843 -3.40526e-09 
-1.88054 -2.82843 -1.90058e-09 
-1.67483 -2.82843 -9.65677e-10 
-1.45417 -2.82843 -1.82486e-09 
-1.3029 -2.82843 3.76492e-10 
-1.11968 -2.82843 -2.10741e-09 
-0.943714 -2.82843 -2.65162e-08 
-0.743611 -2.82843 -3.4929e-08 
-0.530703 -2.82843 -3.61353e-08 
-0.28868 -2.82843 -6.90722e-08 
-0.136004 -2.82843 2.12303e-08 
0.228874 -2.82843 1.11736e-07 
0.609848 -2.82843 7.24519e-08 
0.767457 -2.82843 -2.65194e-09 
0.934338 -2.82843 5.79014e-09 
1.09623 -2.82843 9.70816e-10 
1.26873 -2.82843 4.03791e-09 
1.46601 -2.82843 -8.69628e-10 
1.65335 -2.82843 8.96575e-10 
1.87003 -2.82843 3.09071e-09 
2.09399 -2.82843 3.52141e-09 
2.31262 -2.82843 3.32053e-09 
2.5293 -2.82843 2.8263e-09 
2.7529 -2.82843 2.66972e-09 
2.96982 -2.82843 2.2496e-09 
3.18362 -2.82843 1.71991e-09 
3.39689 -2.82843 1.50816e-09 
3.61545 -2.82843 1.2658e-09 
3.82624 -2.82843 9.93887e-10 
4.0395 -2.82843 8.01661e-10 
4.25814 -2.82843 6.26633e-10 
4.46686 -2.82843 4.94179e-10 
4.67621 -2.82843 4.02819e-10 
4.88288 -2.82843 3.15346e-10 
5.08962 -2.82843 2.48489e-10 
5.29859 -2.82843 1.67548e-10 
5.51342 -2.82843 6.75092e-11 
5.72485 -2.82843 3.97395e-11 
5.94476 -2.82843 -1.02979e-10 
6.16731 -2.82843 -2.68812e-10 
6.38424 -2.82843 -2.71029e-10 
6.60729 -2.82843 -3.42622e-10 
6.8302 -2.82843 -4.68763e-10 
7.04159 -2.82843 -7.45987e-10 
7.29676 -2.82843 -1.15682e-09 
7.53329 -2.82843 -1.25351e-09 
7.75936 -2.82843 -1.72577e-09 
8.02574 -2.82843 -1.87397e-09 
8.22075 -2.82843 -2.59357e-09 
8.48528 -2.82843 -4.93065e-11 
-8.48528 -2.58914 -2.28428e-09 
-8.25914 -2.58906 1.12277e-14 
-8.02945 -2.58901 4.56653e-14 
-7.78692 -2.61783 6.80712e-14 
-7.515 -2.64369 7.67219e-14 
-7.2288 -2.65862 6.0441e-14 
-6.97271 -2.53497 -2.70556e-14 
-6.78162 -2.61935 2.84402e-14 
-6.55114 -2.55821 -1.52993e-14 
-6.35102 -2.58557 -3.10547e-14 
-6.13304 -2.57891 -1.03086e-14 
-5.91674 -2.58166 -7.98671e-15 
-5.70111 -2.58559 4.35608e-16 
-5.46586 -2.61027 1.346e-14 
-5.23857 -2.59381 1.72499e-14 
-5.01956 -2.59582 2.63778e-14 
-4.79732 -2.60185 -1.09725e-14 
-4.57764 -2.5969 -1.33378e-14 
-4.35746 -2.60173 -1.87135e-14 
-4.14475 -2.5867 -1.88469e-14 
-3.9292 -2.60277 -3.11088e-14 
-3.70963 -2.59432 -3.44364e-14 
-3.49388 -2.59225 -4.11539e-14 
-3.2764 -2.59753 -5.49654e-14 
-3.05374 -2.59635 -6.65432e-14 
-2.83139 -2.5935 -7.552e-14 
-2.61252 -2.58838 -7.72821e-14 
-2.39163 -2.60294 -1.03065e-13 
-2.15662 -2.62136 -1.5029e-13 
-1.94008 -2.55423 -1.06947e-14 
-1.74963 -2.59713 -9.7632e-14 
-1.54027 -2.61729 -5.75478e-14 
-1.34823 -2.5528 -1.14913e-13 
-1.18689 -2.60704 2.04028e-13 
-1.00413 -2.60863 1.77132e-14 
-0.908668 -2.42872 -5.55178e-13 
-0.82606 -2.65987 -2.67114e-13 
-0.609985 -2.66937 -5.31248e-13 
-0.390799 -2.68395 -6.53595e-13 
-0.00132499 -2.73844 4.51454e-12 
0.235456 -2.68213 3.20578e-12 
0.46105 -2.73966 -7.28535e-13 
0.82057 -2.6399 -2.6691e-13 
0.964137 -2.45604 -5.31251e-14 
1.01447 -2.63828 3.03466e-14 
1.20563 -2.58785 5.84901e-13 
1.39307 -2.60773 -3.98866e-14 
1.59811 -2.59376 3.85358e-14 
1.81237 -2.61646 1.07084e-13 
2.04899 -2.61544 1.16679e-13 
2.28526 -2.6028 9.96305e-14 
2.5103 -2.59643 8.65238e-14 
2.73395 -2.60074 8.83841e-14 
2.96256 -2.59204 6.75364e-14 
3.18311 -2.58726 5.21233e-14 
3.40643 -2.59625 5.08854e-14 
3.62314 -2.59053 3.47953e-14 
3.84088 -2.59428 3.00302e-14 
4.06404 -2.60224 2.71253e-14 
4.27923 -2.59294 1.78992e-14 
4.49278 -2.59401 1.47676e-14 
4.70499 -2.59103 -3.95855e-14 
4.91637 -2.59126 -2.9974e-14 
5.13004 -2.59276 -2.15205e-14 
5.34751 -2.59773 -1.52013e-14 
5.56388 -2.59216 -6.77507e-15 
5.7855 -2.59913 1.12048e-15 
6.01109 -2.59931 1.19902e-14 
6.23345 -2.59081 2.10787e-14 
6.45737 -2.59449 3.63174e-14 
6.6831 -2.59112 -1.46824e-14 
6.89931 -2.57632 -1.49231e-14 
7.13658 -2.61584 -3.67848e-14 
7.38368 -2.59979 -3.85223e-14 
7.6117 -2.58723 -3.57425e-14 
7.86091 -2.62197 -7.14528e-14 
8.07023 -2.54674 -1.58085e-14 
8.29807 -2.61823 -1.4516e-14 
8.48528 -2.53287 2.64814e-09 
-8.48528 -2.34781 -2.04511e-09 
-8.25825 -2.34789 -2.57301e-14 
-8.03068 -2.34264 2.38541e-14 
-7.79631 -2.39824 -8.09272e-15 
-7.57344 -2.24697 2.62449e-14 
-7.53001 -2.4481 -3.80561e-14 
-7.24891 -2.46182 1.15251e-14 
-6.99665 -2.33093 1.63036e-14 
-6.72403 -2.37258 -2.0321e-14 
-6.48696 -2.31718 -3.10532e-14 
-6.27035 -2.35391 -1.52626e-14 
-6.04889 -2.3438 -1.16819e-14 
-5.83054 -2.34367 -3.94405e-15 
-5.60256 -2.37182 3.67858e-15 
-5.38259 -2.37879 9.38366e-15 
-5.15868 -2.36256 1.65875e-14 
-4.93724 -2.37154 2.34101e-14 
-4.72043 -2.37216 3.08015e-14 
-4.49836 -2.37258 3.82741e-14 
-4.28791 -2.36243 -1.4e-14 
-4.06739 -2.3607 -1.72059e-14 
-3.85406 -2.37158 -1.98813e-14 
-3.63524 -2.36019 -2.63489e-14 
-3.41711 -2.36051 -3.15378e-14 
-3.19754 -2.36864 -3.64024e-14 
-2.97175 -2.36541 -4.19302e-14 
-2.74942 -2.35772 -5.3465e-14 
-2.52157 -2.36262 -5.7393e-14 
-2.29107 -2.3935 -4.77481e-14 
-2.08003 -2.36841 -6.91232e-14 
-1.8434 -2.32035 -1.08233e-13 
-1.65529 -2.37347 8.12329e-14 
-1.46679 -2.36194 -1.41959e-13 
-1.26845 -2.31735 3.11725e-14 
-1.10521 -2.3928 -3.93671e-13 
-0.866405 -2.2512 -5.79044e-14 
-0.732935 -2.50485 -5.26159e-13 
-0.52883 -2.50933 6.5488e-15 
-0.196786 -2.62196 -1.7237e-12 
0.0341926 -2.5877 -2.73101e-12 
0.418706 -2.57431 -6.47066e-13 
0.638633 -2.61632 1.56187e-12 
0.779015 -2.44109 -4.5498e-13 
0.979161 -2.2541 -7.40233e-13 
1.15725 -2.393 1.24496e-13 
1.22017 -2.19813 2.07193e-14 
1.37348 -2.37134 -5.49166e-14 
1.56169 -2.36938 3.28503e-14 
1.77249 -2.39196 3.60108e-14 
1.99255 -2.40854 6.16056e-14 
2.22749 -2.39291 5.80094e-14 
2.45855 -2.36905 6.58935e-14 
2.68065 -2.36879 5.57128e-14 
2.90186 -2.36797 4.81318e-14 
3.12836 -2.35395 3.99232e-14 
3.35086 -2.36388 3.13894e-14 
3.56985 -2.35697 2.84301e-14 
3.78852 -2.36101 2.15986e-14 
4.00856 -2.37512 1.63162e-14 
4.22641 -2.36373 1.46174e-14 
4.44387 -2.3606 1.1416e-14 
4.65644 -2.35843 -3.32159e-14 
4.87093 -2.35629 -2.57096e-14 
5.08377 -2.36008 -1.81041e-14 
5.30064 -2.36618 -1.06674e-14 
5.51628 -2.36063 -5.88201e-15 
5.73682 -2.36836 7.03342e-16 
5.95887 -2.37174 8.48625e-15 
6.18275 -2.35991 1.58191e-14 
6.40831 -2.35956 2.23825e-14 
6.63132 -2.35764 3.06617e-14 
6.85298 -2.33125 -1.38703e-14 
7.07848 -2.3775 -1.35255e-14 
7.30793 -2.38601 -1.71023e-14 
7.54773 -2.34849 -1.95229e-14 
7.78261 -2.38942 7.29725e-15 
8.00053 -2.31874 -2.2941e-14 
8.24848 -2.35616 2.23038e-14 
8.48528 -2.30275 1.60745e-09 
-8.48528 -2.10688 -1.48534e-09 
-8.26597 -2.10621 -2.52092e-14 
-8.0553 -2.07918 1.71632e-14 
-7.83001 -2.16188 1.30046e-14 
-7.54114 -2.05398 1.40237e-14 
-7.29269 -2.26526 2.12522e-14 
-7.10299 -2.1195 1.63013e-14 
-6.83446 -2.15215 1.24083e-14 
-6.60884 -2.12603 -3.15779e-14 
-6.34004 -2.11263 -2.42616e-14 
-6.12877 -2.11097 -1.36979e-14 
-5.91271 -2.10689 -7.33797e-15 
-5.68882 -2.13255 -1.62366e-16 
-5.47167 -2.1425 5.52249e-15 
-5.26078 -2.14144 1.04153e-14 
-5.03736 -2.1395 1.51974e-14 
-4.82503 -2.13994 2.2233e-14 
-4.61057 -2.14774 2.86165e-14 
-4.40161 -2.13085 3.30903e-14 
-4.18872 -2.13448 -1.18954e-14 
-3.9738 -2.13045 -1.48607e-14 
-3.76581 -2.1361 -1.89169e-14 
-3.54959 -2.12658 -2.27075e-14 
-3.33375 -2.12963 -2.82543e-14 
-3.11544 -2.14104 -3.57885e-14 
-2.89444 -2.13001 -4.28744e-14 
-2.66853 -2.13228 -4.92969e-14 
-2.43708 -2.14817 -6.01058e-14 
-2.23045 -2.14554 -5.89669e-14 
-2.00556 -2.14345 -7.5347e-14 
-1.78091 -2.08083 1.66453e-14 
-1.5918 -2.12837 -1.0398e-13 
-1.39811 -2.12413 5.25579e-14 
-1.20471 -2.08784 1.61848e-13 
-1.03952 -2.18073 1.55836e-13 
-0.881549 -2.01657 -1.42179e-13 
-0.664756 -2.33613 4.85517e-13 
-0.347829 -2.49032 -2.22844e-12 
-0.136287 -2.46064 3.83248e-12 
0.220991 -2.5038 5.02078e-12 
0.378843 -2.38495 2.26423e-12 
0.576145 -2.44429 2.95428e-13 
0.771918 -2.25931 4.32048e-13 
0.869113 -2.05945 3.50663e-13 
1.0671 -2.05841 2.43217e-13 
1.25998 -1.96027 -1.61467e-13 
1.42168 -2.12888 6.61237e-14 
1.6315 -2.15201 4.07605e-14 
1.84961 -2.18 4.12962e-14 
2.07325 -2.19192 7.08892e-14 
2.29835 -2.16454 5.65259e-14 
2.52147 -2.13605 4.84815e-14 
2.73895 -2.13504 4.31614e-14 
2.95927 -2.13636 3.98387e-14 
3.18412 -2.12461 3.21541e-14 
3.39995 -2.12912 2.58938e-14 
3.61888 -2.12575 2.16726e-14 
3.83974 -2.13543 1.81335e-14 
4.05263 -2.14255 1.46914e-14 
4.27028 -2.13428 1.13209e-14 
4.48227 -2.12603 -3.06487e-14 
4.69659 -2.12767 -2.38937e-14 
4.90972 -2.12354 -1.83339e-14 
5.12579 -2.13199 -1.30873e-14 
5.33833 -2.13194 -7.84414e-15 
5.55831 -2.133 -3.76514e-15 
5.7776 -2.13922 1.75989e-15 
5.99728 -2.13972 9.7619e-15 
6.22254 -2.12966 1.58966e-14 
6.44359 -2.12379 2.16969e-14 
6.66132 -2.11562 3.18729e-14 
6.89376 -2.10091 3.87908e-14 
7.11587 -2.14596 -1.6051e-14 
7.34563 -2.15506 -2.09547e-14 
7.55339 -2.08768 -1.45e-14 
7.75879 -2.15114 -1.09925e-14 
7.98046 -2.08234 3.76046e-14 
8.21397 -2.13271 1.04952e-14 
8.48528 -2.10304 1.39308e-09 
-8.48528 -1.84993 -1.32927e-09 
-8.2733 -1.85278 -2.64241e-14 
-7.88536 -1.90475 1.27193e-14 
[...]
POINT_DATA 1978 
VECTORS vectors float
0.00817413 -0.0113626 0.999902 
0.00128229 -0.0339376 0.999423 
-0.000129369 -0.0454133 0.998968 
-0.00232086 -0.0385115 0.999255 
-0.00394022 -0.0279095 0.999602 
-0.000429982 -0.0184121 0.99983 
0.00216064 -0.0140154 0.999899 
0.00207083 -0.0101297 0.999946 
0.00513321 -0.00704792 0.999962 
0.00418187 -0.0039908 0.999983 
0.00308038 -0.00227045 0.999993 
0.00264498 -0.000565523 0.999996 
0.00312475 0.000978314 0.999994 
0.00180813 0.0020921 0.999996 
0.00175387 0.00305141 0.999994 
0.00254609 0.00443731 0.999987 
0.00215752 0.0062069 0.999978 
0.00218981 0.00840149 0.999962 
0.00217479 0.0111573 0.999935 
0.00257736 0.0147194 0.999888 
0.00238858 0.0190351 0.999816 
0.00195508 0.024631 0.999694 
0.002303 0.0313716 0.999505 
0.00209879 0.0397954 0.999205 
0.00176567 0.0504276 0.998726 
0.00176407 0.0641668 0.997937 
0.00202244 0.0815588 0.996666 
0.00168846 0.103595 0.994618 
0.000633755 0.133214 0.991087 
0.00152261 0.174786 0.984605 
0.00237817 0.215319 0.976541 
0.000981016 0.272331 0.962203 
0.00106125 0.34829 0.937386 
0.00108256 0.41321 0.910635 
-0.00048223 0.508355 0.861147 
-0.000614573 0.604474 0.796624 
-0.000484839 0.720031 0.693942 
-0.000794375 0.841194 0.540732 
-0.00107784 0.951654 0.307172 
-0.000360411 0.990578 0.13695 
-0.00165861 0.961543 -0.274646 
-0.000148614 0.777538 -0.628836 
0.00154623 0.68721 -0.726457 
0.000486812 0.59682 -0.802375 
-0.00027218 0.510269 -0.860015 
-0.000171299 0.424653 -0.905356 
-0.00133104 0.342581 -0.939487 
-0.00134992 0.27706 -0.960852 
-0.00100839 0.216488 -0.976285 
-0.00107375 0.167483 -0.985874 
-0.00140256 0.130392 -0.991461 
-0.0014974 0.101888 -0.994795 
-0.0015795 0.0796217 -0.996824 
-0.00188653 0.0629187 -0.998017 
-0.00210542 0.0497452 -0.998759 
-0.00193341 0.0390485 -0.999235 
-0.00212763 0.0306231 -0.999529 
-0.0023526 0.0239926 -0.999709 
-0.00199293 0.0186432 -0.999824 
-0.00225309 0.0143427 -0.999894 
-0.00262603 0.0109274 -0.999937 
-0.0027128 0.00821151 -0.999962 
-0.00284458 0.00611748 -0.999977 
-0.00277193 0.0044177 -0.999986 
-0.00240754 0.00313203 -0.999992 
-0.00237607 0.00207004 -0.999995 
-0.00216729 0.000924292 -0.999997 
-0.00169717 -0.000398619 -0.999998 
-0.00186684 -0.00230283 -0.999995 
-0.00181194 -0.00486254 -0.999986 
-0.00150535 -0.00790816 -0.999967 
-0.00219811 -0.0118685 -0.999927 
-0.000823687 -0.0164253 -0.999864 
5.19554e-05 -0.0225615 -0.999745 
-0.00122521 -0.0299516 -0.99955 
0.000397436 -0.0383331 -0.999265 
-0.00127103 -0.0458166 -0.998949 
-0.00131759 -0.0359327 -0.999353 
-0.00722449 -0.00938436 -0.99993 
0.00858452 -0.00679078 0.99994 
0.0143923 -0.0322292 0.999377 
0.0175305 -0.0382741 0.999113 
0.0193779 -0.0385754 0.999068 
0.0198116 -0.0308877 0.999327 
0.0199029 -0.0215048 0.999571 
0.0237161 -0.0152928 0.999602 
0.0227626 -0.0112196 0.999678 
0.0240065 -0.00775637 0.999682 
0.0247839 -0.00497332 0.999681 
0.0233666 -0.00252786 0.999724 
0.0244295 -0.000577452 0.999701 
0.024585 0.00096143 0.999697 
0.0240461 0.00234651 0.999708 
0.0246138 0.00372967 0.99969 
0.0245735 0.00530028 0.999684 
0.0243287 0.00728322 0.999677 
0.024332 0.00980622 0.999656 
0.0239803 0.0129805 0.999628 
0.0240951 0.0168406 0.999568 
0.0233874 0.021717 0.999491 
0.0232445 0.0279656 0.999339 
0.0228711 0.0356155 0.999104 
0.0222508 0.0452675 0.998727 
0.0217146 0.0577945 0.998092 
0.0212183 0.0739461 0.997036 
0.0206473 0.0942845 0.995331 
0.0195992 0.120827 0.99248 
0.0183708 0.15743 0.987359 
0.0203553 0.201184 0.979342 
0.0187861 0.249933 0.968081 
0.0178333 0.317574 0.948066 
0.0235086 0.390971 0.920103 
0.0194437 0.469299 0.882825 
0.0208102 0.566841 0.823564 
0.0422241 0.611254 0.790307 
0.0174266 0.672988 0.739448 
0.0153085 0.792897 0.609163 
0.0110308 0.903808 0.427796 
-0.000635225 0.999893 -0.0146374 
-0.00636139 0.95477 -0.297278 
-0.00545927 0.833442 -0.552578 
-0.0188698 0.677118 -0.735632 
-0.0276502 0.594116 -0.803904 
-0.0201723 0.522965 -0.852115 
-0.0228103 0.441708 -0.896869 
-0.0176506 0.364444 -0.931058 
-0.0184128 0.290864 -0.956587 
-0.0176869 0.228615 -0.973356 
-0.0182387 0.175406 -0.984327 
-0.0193043 0.134264 -0.990758 
-0.0201024 0.104319 -0.994341 
-0.0206434 0.0814416 -0.996464 
-0.0215589 0.063575 -0.997744 
-0.0220551 0.0499969 -0.998506 
-0.0224595 0.0390726 -0.998984 
-0.0229953 0.0307796 -0.999262 
-0.023271 0.0239591 -0.999442 
-0.0235176 0.0184352 -0.999553 
-0.0240193 0.0142193 -0.99961 
-0.0243091 0.0108292 -0.999646 
-0.0245989 0.00816269 -0.999664 
-0.0247329 0.0060614 -0.999676 
-0.0247427 0.00437719 -0.999684 
-0.0246375 0.00297085 -0.999692 
-0.0246799 0.00170025 -0.999694 
-0.0243529 0.000364093 -0.999703 
-0.0241558 -0.00127409 -0.999707 
-0.0240838 -0.00345563 -0.999704 
-0.0237289 -0.0062212 -0.999699 
-0.023486 -0.00965807 -0.999678 
-0.0232119 -0.0136595 -0.999637 
-0.0219505 -0.0188522 -0.999581 
-0.0216863 -0.025616 -0.999437 
-0.0211741 -0.0330647 -0.999229 
-0.0196062 -0.0397217 -0.999018 
-0.0172294 -0.036379 -0.999189 
-0.0139746 -0.0300871 -0.99945 
-0.00904337 -0.00479687 -0.999947 
0.0109261 -0.00561997 0.999925 
0.0150524 -0.0284906 0.99948 
0.0226749 -0.0361945 0.999087 
0.0253273 -0.0384443 0.99894 
0.0298143 -0.032814 0.999017 
0.0245956 -0.0294963 0.999262 
0.0262063 -0.0217689 0.999419 
0.0310061 -0.0165514 0.999382 
0.0301343 -0.0112165 0.999483 
0.0328452 -0.00735726 0.999433 
0.0317803 -0.00436692 0.999485 
0.0329097 -0.00209811 0.999456 
0.033372 -0.00026782 0.999443 
0.0329598 0.00134158 0.999456 
0.0329015 0.00277787 0.999455 
0.0336607 0.00436665 0.999424 
0.0332773 0.00612328 0.999427 
0.0330783 0.00827675 0.999418 
0.0328346 0.0110775 0.999399 
0.0328201 0.014375 0.999358 
0.0324068 0.0186822 0.9993 
0.0316496 0.0238996 0.999213 
0.0315151 0.0306235 0.999034 
0.0309333 0.0390155 0.99876 
0.0301108 0.0496766 0.998311 
0.0294782 0.0635913 0.997541 
0.0292213 0.0812728 0.996263 
0.0284929 0.104517 0.994115 
0.0272305 0.135267 0.990435 
0.0284462 0.171142 0.984836 
0.031219 0.223005 0.974317 
0.0304409 0.27916 0.959762 
0.0352344 0.341001 0.939402 
0.0420165 0.429067 0.902295 
0.0414234 0.511499 0.858285 
0.0657815 0.639804 0.765718 
0.0355055 0.734957 0.677184 
0.0299602 0.864489 0.501758 
0.00962151 0.974808 0.222836 
-0.00495905 0.994888 -0.100861 
-0.0219107 0.923115 -0.383899 
-0.0189594 0.828531 -0.559622 
-0.0364932 0.69945 -0.713749 
-0.0497345 0.575992 -0.815941 
-0.0412778 0.483768 -0.874222 
-0.0481638 0.417311 -0.907487 
-0.0343252 0.374699 -0.926511 
-0.0313468 0.307033 -0.951182 
-0.0283367 0.241949 -0.969875 
-0.0268256 0.187573 -0.981884 
-0.0271526 0.143728 -0.989245 
-0.0282675 0.111134 -0.993403 
-0.0286955 0.0870063 -0.995794 
-0.029234 0.0683305 -0.997234 
-0.0300607 0.0534014 -0.998121 
-0.0303842 0.0419173 -0.998659 
-0.0312436 0.0328823 -0.998971 
-0.0315386 0.0257105 -0.999172 
-0.0316552 0.0199501 -0.9993 
-0.0325315 0.0154428 -0.999351 
-0.0329929 0.0118527 -0.999385 
-0.0334127 0.00903572 -0.999401 
-0.0337211 0.00675691 -0.999408 
-0.0337674 0.00492238 -0.999418 
-0.0335786 0.00334398 -0.99943 
-0.0336957 0.00189196 -0.99943 
-0.0332162 0.000423062 -0.999448 
-0.0327358 -0.00121576 -0.999463 
-0.0326894 -0.00334751 -0.99946 
-0.0321798 -0.00605114 -0.999464 
-0.0316093 -0.00929186 -0.999457 
-0.0317169 -0.0132548 -0.999409 
-0.0298891 -0.0179991 -0.999391 
-0.0288115 -0.0239051 -0.999299 
-0.0285225 -0.0316011 -0.999093 
-0.0260354 -0.0382948 -0.998927 
-0.0243256 -0.0375602 -0.998998 
-0.0157807 -0.0288744 -0.999458 
-0.0108534 -0.00775077 -0.999911 
0.00962948 -0.00493724 0.999941 
0.0143739 -0.0275447 0.999517 
0.0217747 -0.0358587 0.99912 
0.0275803 -0.0395634 0.998836 
0.0289647 -0.0332985 0.999026 
0.0310641 -0.0243518 0.999221 
0.0311554 -0.019484 0.999325 
0.0322902 -0.0135647 0.999386 
0.0330727 -0.00955493 0.999407 
0.0332575 -0.00554635 0.999431 
0.0334914 -0.00319833 0.999434 
0.033454 -0.00118096 0.99944 
0.0341948 0.000593811 0.999415 
0.0344803 0.00218245 0.999403 
0.0346164 0.00375639 0.999394 
0.0344523 0.0055504 0.999391 
0.0342719 0.00749779 0.999384 
0.0341245 0.00993274 0.999368 
0.0335116 0.0128632 0.999356 
0.0332739 0.0165109 0.99931 
0.0328839 0.0211012 0.999236 
0.032645 0.0266399 0.999112 
0.0321853 0.0338329 0.998909 
0.031835 0.0427908 0.998577 
0.03159 0.0542344 0.998028 
0.0312266 0.0687566 0.997145 
0.0311493 0.087978 0.995635 
0.0314364 0.113139 0.993082 
0.032128 0.142042 0.989339 
0.0339212 0.181924 0.982727 
0.0382327 0.234571 0.971347 
0.0417892 0.286043 0.957305 
0.0485259 0.3573 0.932728 
0.0605968 0.43364 0.899047 
0.0648027 0.524624 0.848864 
0.0899151 0.574737 0.813384 
0.0557175 0.749606 0.659535 
0.0354011 0.925891 0.376128 
0.00929215 0.992634 0.120796 
-0.0193722 0.977587 -0.209638 
-0.045408 0.889088 -0.455479 
-0.0407581 0.804922 -0.591979 
-0.0615628 0.679958 -0.730662 
-0.0792308 0.590116 -0.803421 
-0.0657983 0.497515 -0.864956 
-0.0611897 0.401778 -0.91369 
-0.0456218 0.335695 -0.940865 
-0.038649 0.273449 -0.96111 
-0.0344337 0.216623 -0.975648 
-0.0325009 0.169162 -0.985052 
-0.0316801 0.132476 -0.99068 
-0.0311689 0.103673 -0.994123 
-0.0310273 0.0818273 -0.996163 
-0.0312024 0.0643154 -0.997442 
-0.0313977 0.0505026 -0.99823 
-0.0317161 0.0399525 -0.998698 
-0.0320291 0.0312881 -0.998997 
-0.032597 0.0244636 -0.999169 
-0.0330477 0.0192196 -0.999269 
-0.0333327 0.0149545 -0.999332 
-0.0335074 0.0116395 -0.999371 
-0.0338494 0.00891247 -0.999387 
-0.0340433 0.00668206 -0.999398 
-0.0343789 0.00479662 -0.999397 
-0.0344811 0.00316489 -0.9994 
-0.0345096 0.00152694 -0.999403 
-0.0344267 -0.00010574 -0.999407 
-0.0341514 -0.00189629 -0.999415 
-0.0336513 -0.00420243 -0.999425 
-0.0331179 -0.0070107 -0.999427 
-0.0325014 -0.0103003 -0.999419 
-0.0318101 -0.0146864 -0.999386 
-0.0315166 -0.0195422 -0.999312 
-0.0309373 -0.0258974 -0.999186 
-0.0290429 -0.0328197 -0.999039 
-0.0284168 -0.0386653 -0.998848 
-0.0246695 -0.0391582 -0.998928 
-0.0174878 -0.029261 -0.999419 
-0.0088378 -0.00681077 -0.999938 
0.00730832 -0.00442195 0.999963 
0.0117247 -0.0281299 0.999536 
0.0227812 -0.0412373 0.99889 
0.0244159 -0.0375359 0.998997 
0.0225027 -0.0296684 0.999306 
0.0285034 -0.0263569 0.999246 
0.0250927 -0.0216283 0.999451 
0.0274814 -0.0159759 0.999495 
0.0275684 -0.0114013 0.999555 
0.0292932 -0.00770107 0.999541 
0.0271739 -0.00494725 0.999618 
0.0277447 -0.0026616 0.999612 
0.0281216 -0.000534704 0.999604 
0.0287654 0.00120993 0.999585 
0.0286822 0.00294106 0.999584 
0.029172 0.0046999 0.999563 
0.0285757 0.00661259 0.99957 
0.0286651 0.00882053 0.99955 
0.0280951 0.0113959 0.99954 
0.0277703 0.0146869 0.999506 
0.0276034 0.0186965 0.999444 
0.0272263 0.0237459 0.999347 
0.0272708 0.0299547 0.999179 
0.0270044 0.0380846 0.99891 
0.0272021 0.0484241 0.998456 
0.027367 0.0612543 0.997747 
0.0278778 0.0784631 0.996527 
0.0289789 0.101267 0.994437 
0.0304119 0.128081 0.991297 
0.0333869 0.162487 0.986146 
0.0380941 0.206695 0.977664 
0.0471191 0.266066 0.962803 
0.0550423 0.325186 0.944047 
0.0682536 0.380173 0.922394 
0.0829138 0.47041 0.878544 
0.115661 0.554042 0.824415 
0.0920562 0.702062 0.70614 
0.065461 0.825659 0.560359 
0.0503441 0.938832 0.340675 
0.00729769 0.998209 0.0593678 
-0.0404195 0.961177 -0.272955 
-0.0689038 0.782738 -0.618525 
-0.0966569 0.685651 -0.721485 
-0.102209 0.547418 -0.830594 
-0.0840812 0.464455 -0.881596 
-0.0737688 0.384954 -0.919983 
-0.0554439 0.327516 -0.943217 
-0.0449754 0.271183 -0.961477 
-0.0380968 0.220216 -0.974707 
-0.0339985 0.17572 -0.983853 
-0.0311957 0.138375 -0.989888 
-0.0291207 0.108898 -0.993626 
-0.0277516 0.0852583 -0.995972 
-0.0273845 0.0676103 -0.997336 
-0.0270001 0.0534617 -0.998205 
-0.0267795 0.0419522 -0.998761 
-0.0269377 0.0332334 -0.999085 
-0.0273106 0.0259816 -0.999289 
-0.0275533 0.0204224 -0.999412 
-0.0278007 0.0161342 -0.999483 
-0.0276906 0.0126473 -0.999537 
-0.0279655 0.00980871 -0.999561 
-0.0281303 0.00744995 -0.999577 
-0.0285665 0.00543108 -0.999577 
-0.0285934 0.00366859 -0.999584 
-0.028895 0.00194231 -0.999581 
-0.028882 0.000157969 -0.999583 
-0.0287486 -0.00166342 -0.999585 
-0.0284687 -0.00382102 -0.999587 
-0.0277561 -0.00657713 -0.999593 
-0.0269584 -0.00979921 -0.999589 
-0.0266797 -0.0136348 -0.999551 
-0.026389 -0.0189256 -0.999473 
-0.0263529 -0.02461 -0.99935 
-0.0242178 -0.0325639 -0.999176 
-0.0232165 -0.0398909 -0.998934 
-0.0188944 -0.0379783 -0.9991 
-0.0131575 -0.0287029 -0.999501 
-0.00738494 -0.00612296 -0.999954 
0.00536454 -0.00531939 0.999971 
0.00874985 -0.0288338 0.999546 
0.0158019 -0.0358987 0.99923 
0.0168796 -0.0422847 0.998963 
0.0189482 -0.037941 0.9991 
0.0188872 -0.0262014 0.999478 
0.0205122 -0.0193272 0.999603 
0.0218336 -0.0144963 0.999657 
0.0224507 -0.010033 0.999698 
0.0224661 -0.00711551 0.999722 
0.0212354 -0.00421971 0.999766 
0.0224122 -0.00190091 0.999747 
0.0222745 0.000148363 0.999752 
0.0224949 0.00196784 0.999745 
0.0227454 0.00387962 0.999734 
0.0228108 0.00569475 0.999724 
0.0225932 0.00783786 0.999714 
0.0221366 0.010169 0.999703 
0.0220395 0.0130277 0.999672 
0.0218038 0.0165897 0.999625 
0.0216465 0.0209622 0.999546 
0.0215198 0.0265662 0.999415 
0.0217898 0.0335485 0.9992 
0.0220321 0.0428945 0.998837 
0.0224124 0.0542525 0.998276 
0.0234622 0.069049 0.997337 
0.0249892 0.0888635 0.99573 
0.0267875 0.112221 0.993322 
0.0303881 0.142949 0.989263 
0.0357026 0.180204 0.982981 
0.0439874 0.22879 0.972481 
0.0587106 0.293275 0.954224 
0.0747177 0.351925 0.933041 
0.0881467 0.363854 0.927276 
0.0946973 0.43983 0.893074 
0.117262 0.461523 0.879344 
0.124917 0.679246 0.723201 
0.0983364 0.827051 0.553459 
0.0624697 0.95811 0.279505 
-0.00512252 0.99959 -0.0281762 
-0.0757216 0.884767 -0.45984 
-0.107042 0.794482 -0.59778 
-0.129698 0.645503 -0.752665 
-0.132431 0.548634 -0.825508 
-0.105242 0.456072 -0.883698 
-0.0825231 0.369902 -0.925398 
-0.0603624 0.306426 -0.949979 
-0.0476541 0.254329 -0.965943 
-0.0389847 0.209374 -0.977058 
-0.0330837 0.167048 -0.985394 
-0.028805 0.131688 -0.990873 
-0.0257699 0.103082 -0.994339 
-0.0236737 0.0815957 -0.996384 
-0.0228486 0.0648826 -0.997631 
-0.0222109 0.0509406 -0.998455 
-0.0215185 0.0403181 -0.998955 
-0.0217411 0.031619 -0.999264 
-0.0217408 0.0248512 -0.999455 
-0.0216796 0.0196556 -0.999572 
-0.0218956 0.0155729 -0.999639 
-0.0217916 0.0122401 -0.999688 
-0.0219785 0.00953731 -0.999713 
-0.0222336 0.00717235 -0.999727 
-0.0224514 0.00520952 -0.999734 
-0.0224868 0.00338364 -0.999741 
-0.0228381 0.00151875 -0.999738 
-0.0227358 -0.000394292 -0.999741 
-0.0225871 -0.00236866 -0.999742 
-0.0223755 -0.00469858 -0.999739 
-0.0216009 -0.0075802 -0.999738 
-0.0209581 -0.0110497 -0.999719 
-0.021226 -0.0154675 -0.999655 
-0.020385 -0.0207499 -0.999577 
-0.0205222 -0.0269835 -0.999425 
-0.0181128 -0.0344065 -0.999244 
-0.018451 -0.0405457 -0.999007 
-0.0152313 -0.0407187 -0.999055 
-0.0110997 -0.0301319 -0.999484 
-0.0052509 -0.00785516 -0.999955 
0.00372832 -0.00629222 0.999973 
0.00664962 -0.0297426 0.999535 
0.0119022 -0.0384849 0.999188 
0.0132061 -0.0421955 0.999022 
0.0159719 -0.0343061 0.999284 
0.0143106 -0.0276138 0.999516 
0.0160592 -0.0211086 0.999648 
0.0165815 -0.0154723 0.999743 
0.0177744 -0.0114044 0.999777 
0.0169527 -0.0079672 0.999825 
0.0171593 -0.00535291 0.999838 
0.0173466 -0.00251695 0.999846 
0.0176437 -0.000462096 0.999844 
0.0172932 0.00161836 0.999849 
0.017756 0.00350959 0.999836 
0.0176002 0.00536912 0.999831 
0.0178623 0.00732616 0.999814 
0.0171868 0.00958892 0.999806 
0.0171351 0.0121312 0.99978 
0.0171022 0.0151904 0.999738 
0.0169174 0.01905 0.999675 
0.0169389 0.0238993 0.999571 
0.0170908 0.0301217 0.9994 
0.0177462 0.0380564 0.999118 
0.0180508 0.0479062 0.998689 
0.0191136 0.0606373 0.997977 
0.02087 0.0769501 0.996817 
0.0226534 0.0963678 0.995088 
0.0259688 0.121843 0.99221 
0.031057 0.153183 0.98771 
0.0387909 0.19341 0.980351 
0.0501457 0.243184 0.968683 
0.0646127 0.288346 0.955344 
0.0810714 0.325872 0.941932 
0.11226 0.405532 0.907161 
0.151002 0.506198 0.849095 
0.1496 0.581073 0.799984 
0.167786 0.693666 0.700482 
0.135338 0.835021 0.533313 
-0.0551581 0.978401 -0.199222 
-0.127481 0.877231 -0.462834 
-0.152828 0.745318 -0.648956 
-0.173696 0.637165 -0.7509 
-0.14425 0.505541 -0.850659 
-0.109302 0.41592 -0.902809 
-0.0821499 0.339481 -0.937019 
-0.0644255 0.296298 -0.95292 
-0.0491991 0.242996 -0.968779 
-0.0393619 0.201741 -0.978648 
-0.0326003 0.165551 -0.985662 
-0.0272703 0.131994 -0.990875 
-0.0235103 0.104909 -0.994204 
-0.0206682 0.0828692 -0.996346 
-0.0192047 0.0659276 -0.99764 
-0.0184573 0.0526371 -0.998443 
-0.0174449 0.0415797 -0.998983 
-0.0173994 0.0328168 -0.99931 
-0.0172311 0.0258239 -0.999518 
-0.01698 0.0203779 -0.999648 
-0.0170107 0.0161744 -0.999724 
-0.0170739 0.0129217 -0.999771 
-0.0170793 0.0101181 -0.999803 
-0.0174044 0.007747 -0.999819 
-0.0174319 0.00565111 -0.999832 
-0.0175871 0.00378802 -0.999838 
-0.0178289 0.0018105 -0.999839 
-0.0178053 -0.000218828 -0.999841 
-0.0176941 -0.00229339 -0.999841 
-0.0175369 -0.00460706 -0.999836 
-0.0169239 -0.00746593 -0.999829 
-0.0164094 -0.0109332 -0.999806 
-0.0166762 -0.0151632 -0.999746 
-0.0158265 -0.0204568 -0.999665 
-0.0156441 -0.0270111 -0.999513 
-0.0138962 -0.0351469 -0.999286 
-0.0134345 -0.0419918 -0.999028 
-0.010864 -0.0400203 -0.99914 
-0.00797218 -0.030105 -0.999515 
-0.00393193 -0.00618612 -0.999973 
0.00270314 -0.00749453 0.999968 
0.00517363 -0.0313306 0.999496 
0.00941608 -0.0412068 0.999106 
0.00947353 -0.0430429 0.999028 
0.0121054 -0.0366947 0.999253 
0.0112967 -0.0278266 0.999549 
0.0126241 -0.0203752 0.999713 
0.0128352 -0.0153586 0.9998 
0.0137184 -0.0111722 0.999843 
0.012764 -0.00813615 0.999885 
0.0139708 -0.00491363 0.99989 
0.0135301 -0.002496 0.999905 
0.0139126 -0.000299457 0.999903 
0.0134914 0.00181127 0.999907 
0.0137861 0.00375648 0.999898 
0.0137094 0.00567794 0.99989 
0.0138693 0.0076296 0.999875 
0.0133159 0.0098314 0.999863 
0.0133272 0.0123201 0.999835 
0.0133595 0.0153017 0.999794 
0.0132334 0.0190322 0.999731 
0.0133819 0.0239255 0.999624 
0.0136356 0.0301146 0.999453 
0.0142675 0.0377468 0.999185 
0.0147857 0.0474326 0.998765 
0.0158942 0.0595231 0.9981 
0.0176392 0.074679 0.997052 
0.0198422 0.0940964 0.995365 
0.0233344 0.1179 0.992751 
0.0288059 0.147703 0.988612 
0.0370052 0.185065 0.98203 
0.0475347 0.22649 0.972853 
0.0596736 0.265846 0.962167 
0.0835979 0.330059 0.940251 
0.113497 0.394494 0.911862 
0.155283 0.475433 0.865939 
0.197188 0.608194 0.768906 
0.226254 0.733465 0.640966 
0.17506 0.86923 0.462377 
0.052047 0.986945 0.152414 
-0.106897 0.951692 -0.287846 
-0.214421 0.759718 -0.613883 
-0.192922 0.595044 -0.780195 
-0.145509 0.464764 -0.873397 
-0.104006 0.381077 -0.918675 
-0.0730299 0.309744 -0.948011 
-0.0586178 0.268364 -0.961533 
-0.0463011 0.226838 -0.972831 
-0.0362085 0.186043 -0.981874 
-0.0293414 0.152378 -0.987887 
-0.0238594 0.122149 -0.992225 
-0.020064 0.0974925 -0.995034 
-0.0172225 0.0770049 -0.996882 
-0.0157604 0.0615262 -0.997981 
-0.0149429 0.0491488 -0.99868 
-0.0140829 0.0385396 -0.999158 
-0.0138776 0.0305408 -0.999437 
-0.0135882 0.0242426 -0.999614 
-0.0133585 0.0191941 -0.999727 
-0.0132553 0.015403 -0.999794 
-0.0134215 0.0123517 -0.999834 
-0.0133507 0.00976398 -0.999863 
-0.0136801 0.00750981 -0.999878 
-0.0135931 0.00550026 -0.999892 
-0.0138844 0.00354311 -0.999897 
-0.013969 0.00153786 -0.999901 
-0.0139503 -0.000623837 -0.999903 
-0.0138438 -0.00282502 -0.9999 
-0.0136225 -0.00521361 -0.999894 
-0.0131393 -0.00826299 -0.99988 
-0.0128655 -0.012119 -0.999844 
-0.0128688 -0.0163975 -0.999783 
-0.0119907 -0.0216168 -0.999694 
-0.0120011 -0.0277291 -0.999543 
-0.0105199 -0.0357002 -0.999307 
-0.0100927 -0.0427766 -0.999034 
-0.00806479 -0.0407732 -0.999136 
-0.00566936 -0.0300552 -0.999532 
-0.00316448 -0.0068795 -0.999971 
0.00201943 -0.00751422 0.99997 
0.00345607 -0.0312281 0.999506 
0.00649582 -0.0412246 0.999129 
0.00705187 -0.0431385 0.999044 
0.00927269 -0.0353402 0.999332 
0.00807989 -0.0289373 0.999549 
0.00965147 -0.0225776 0.999699 
0.00965376 -0.0169626 0.99981 