# vtk DataFile Version 3.0 
Exported using Morpho https://github.com/Morpho-lang/morpho 
ASCII 
DATASET UNSTRUCTURED_GRID 

POINTS 1978 float 
-8.48472 -2.8274 -7.05748e-07 
-8.25391 -2.82827 -2.73304e-05 
-8.02187 -2.8274 -2.36578e-05 
-7.76536 -2.82768 -2.05616e-05 
-7.4642 -2.82735 -1.67031e-05 
-7.14333 -2.82774 -1.14731e-05 
-6.95293 -2.82746 -4.334e-06 
-6.69627 -2.82796 -4.55407e-06 
-6.5314 -2.82801 -1.98216e-06 
-6.36645 -2.82764 -1.53587e-06 
-6.16212 -2.82794 -3.8462e-06 
-5.95887 -2.82757 -2.09879e-06 
-5.74653 -2.82758 2.89635e-07 
-5.53817 -2.82751 1.212e-06 
-5.30429 -2.8277 1.82025e-06 
-5.09474 -2.82766 3.25045e-06 
-4.88018 -2.82766 3.69664e-06 
-4.66259 -2.82768 4.6381e-06 
-4.44937 -2.82765 5.52461e-06 
-4.23324 -2.82784 6.39505e-06 
-4.0301 -2.82773 8.41867e-06 
-3.8103 -2.82773 1.08619e-05 
-3.59678 -2.82783 1.25964e-05 
-3.38453 -2.82787 1.50922e-05 
-3.16805 -2.8279 1.95716e-05 
-2.94834 -2.82776 2.53446e-05 
-2.73313 -2.82804 2.66184e-05 
-2.523 -2.82813 2.8619e-05 
-2.29866 -2.82814 3.41715e-05 
-2.05746 -2.82822 3.60205e-05 
-1.87774 -2.82825 2.27489e-05 
-1.66971 -2.82844 8.80342e-06 
-1.45148 -2.82818 1.83924e-05 
-1.30188 -2.82813 1.92518e-07 
-1.11314 -2.82783 2.5128e-05 
-0.920168 -2.82706 0.000354566 
-0.732864 -2.82632 0.000429188 
-0.563014 -2.82437 0.000381312 
-0.351454 -2.82339 0.000883422 
-0.0775189 -2.81904 -0.000189978 
0.23625 -2.81887 -0.00107812 
0.645051 -2.8241 -0.000478205 
0.791084 -2.82708 -0.000124012 
0.92702 -2.82693 -0.000107444 
1.10313 -2.82814 -1.85868e-05 
1.256 -2.82747 -3.66433e-05 
1.45343 -2.82893 1.47061e-05 
1.65251 -2.82841 -7.32079e-06 
1.84996 -2.82826 -3.40876e-05 
2.07656 -2.8284 -3.95888e-05 
2.31095 -2.82798 -3.71134e-05 
2.53467 -2.82818 -2.88837e-05 
2.74926 -2.82814 -2.76066e-05 
2.9678 -2.82776 -2.43788e-05 
3.18605 -2.82796 -1.789e-05 
3.39715 -2.82773 -1.56126e-05 
3.61659 -2.82779 -1.34508e-05 
3.82649 -2.82774 -1.04802e-05 
4.03979 -2.82773 -8.25642e-06 
4.25862 -2.82769 -6.63636e-06 
4.46671 -2.82772 -5.27364e-06 
4.67599 -2.82767 -4.3995e-06 
4.88284 -2.82769 -3.4881e-06 
5.08923 -2.82762 -2.75262e-06 
5.29809 -2.82772 -1.80593e-06 
5.51313 -2.82767 -6.5612e-07 
5.72461 -2.82758 -4.49665e-07 
5.94454 -2.82761 1.25594e-06 
6.16688 -2.82758 3.29771e-06 
6.38351 -2.8277 2.96871e-06 
6.60675 -2.82764 3.2864e-06 
6.83026 -2.82771 4.73337e-06 
7.03783 -2.82771 7.76779e-06 
7.29994 -2.82747 1.14799e-05 
7.53199 -2.82792 1.28811e-05 
7.7594 -2.82769 1.7528e-05 
8.02645 -2.8276 2.21124e-05 
8.22139 -2.82828 2.7467e-05 
8.48415 -2.82724 -2.68183e-06 
-8.4846 -2.59288 2.61871e-05 
-8.24945 -2.59293 -2.36635e-15 
-8.03077 -2.57019 4.61381e-16 
-7.81526 -2.61376 8.05073e-16 
-7.54976 -2.64661 -1.77077e-16 
-7.23938 -2.65913 -2.96711e-16 
-6.98316 -2.54495 4.77923e-16 
-6.78251 -2.62134 -4.94526e-17 
-6.57378 -2.51104 -7.82701e-17 
-6.34188 -2.61011 1.06026e-16 
-6.09535 -2.57324 -1.07729e-16 
-5.88248 -2.58447 2.2362e-16 
-5.6701 -2.58185 3.30883e-16 
-5.44394 -2.61193 1.33137e-16 
-5.22238 -2.59 -3.62017e-18 
-5.00676 -2.59676 -6.49145e-17 
-4.78835 -2.60111 1.03859e-16 
-4.5713 -2.59639 8.92176e-17 
-4.35366 -2.60069 9.01776e-17 
-4.14351 -2.58577 1.38326e-16 
-3.9287 -2.60304 2.51932e-16 
-3.70974 -2.59405 3.55019e-16 
-3.49433 -2.59221 2.83265e-16 
-3.27681 -2.5963 3.41111e-16 
-3.05496 -2.5978 6.90246e-16 
-2.8318 -2.59259 4.69801e-16 
-2.61441 -2.5882 3.19036e-16 
-2.39383 -2.60312 9.35347e-16 
-2.15831 -2.62121 2.47211e-18 
-1.9443 -2.55219 -5.64285e-16 
-1.75306 -2.59704 -2.88202e-16 
-1.53802 -2.61992 -3.02284e-16 
-1.35347 -2.53441 7.86204e-16 
-1.19436 -2.60958 9.40432e-15 
-1.00731 -2.62605 8.93278e-14 
-0.907513 -2.40227 1.20352e-14 
-0.836016 -2.61874 1.9232e-14 
-0.603687 -2.6644 -2.81733e-14 
-0.332202 -2.70939 9.58155e-14 
-0.0387432 -2.6993 7.58364e-14 
0.224579 -2.71661 -7.55065e-14 
0.54678 -2.74229 -1.01186e-13 
0.777543 -2.5851 -1.2266e-15 
0.925921 -2.54537 8.90639e-15 
1.06919 -2.5975 -2.23895e-16 
1.23852 -2.54992 4.74731e-16 
1.40533 -2.60706 3.74888e-15 
1.5995 -2.59435 1.16482e-15 
1.83164 -2.6172 -4.25177e-15 
2.07009 -2.62061 1.35919e-15 
2.29881 -2.60685 -1.92434e-15 
2.51676 -2.59543 4.3897e-16 
2.74068 -2.59905 -7.62346e-16 
2.96491 -2.5968 -6.54216e-16 
3.18099 -2.58953 -2.94645e-16 
3.40575 -2.59808 -3.30172e-16 
3.62089 -2.5885 -5.35825e-16 
3.83983 -2.59396 -4.6965e-16 
4.06341 -2.60148 -1.96254e-16 
4.27834 -2.59174 -1.3917e-16 
4.49245 -2.59374 1.2791e-17 
4.70459 -2.59077 -7.10324e-19 
4.91573 -2.58995 4.76775e-17 
5.12924 -2.59195 3.52818e-17 
5.34732 -2.59739 9.24963e-17 
5.5639 -2.59142 -1.55191e-16 
5.78567 -2.59875 -3.04249e-16 
6.01146 -2.59883 -9.54638e-17 
6.23428 -2.59001 -1.96336e-16 
6.45861 -2.59395 -2.4596e-16 
6.68576 -2.59177 8.53488e-17 
6.90033 -2.57094 -2.78343e-17 
7.13821 -2.62254 3.842e-16 
7.3843 -2.5948 2.93725e-16 
7.61233 -2.58853 -1.77774e-16 
7.8624 -2.62261 -5.90014e-16 
8.07194 -2.54663 1.22545e-15 
8.29869 -2.61762 -9.16381e-16 
8.48515 -2.53196 -3.25091e-05 
-8.4842 -2.35854 2.70766e-05 
-8.25893 -2.34762 1.68042e-15 
-8.04774 -2.30805 1.58082e-15 
-7.78868 -2.41036 -1.31508e-15 
-7.57431 -2.27629 2.458e-15 
-7.48915 -2.47519 -8.34683e-16 
-7.23075 -2.4457 -1.28244e-15 
-7.02285 -2.31248 5.56702e-16 
-6.77975 -2.36183 5.54583e-17 
-6.48504 -2.32004 8.19802e-17 
-6.2705 -2.3852 6.27485e-16 
-6.04271 -2.33253 -8.19787e-17 
-5.83062 -2.34062 9.29967e-17 
-5.59911 -2.36603 3.05102e-16 
-5.38392 -2.37839 6.00753e-17 
-5.15899 -2.36067 -1.10823e-16 
-4.93985 -2.37093 2.31304e-16 
-4.72271 -2.37193 1.28411e-16 
-4.50061 -2.37148 -4.36426e-18 
-4.29101 -2.36065 8.69355e-18 
-4.06949 -2.36118 4.99838e-17 
-3.85573 -2.37222 1.17792e-16 
-3.63638 -2.36022 1.6107e-16 
-3.41775 -2.36112 1.05524e-16 
-3.19722 -2.36749 -3.16385e-16 
-2.9731 -2.36764 2.73383e-17 
-2.75012 -2.35582 3.25782e-16 
-2.52367 -2.36292 -7.36001e-16 
-2.29249 -2.39362 3.28516e-16 
-2.083 -2.36509 -2.42206e-15 
-1.8443 -2.31807 -1.04218e-15 
-1.64442 -2.38803 -1.07653e-15 
-1.46163 -2.34239 -2.95261e-15 
-1.2392 -2.32112 -1.95213e-15 
-1.08166 -2.40482 -9.24724e-15 
-0.835744 -2.24154 -1.6072e-13 
-0.714018 -2.49255 -2.00615e-13 
-0.473292 -2.55695 1.22724e-13 
-0.217778 -2.59998 -3.47301e-14 
0.0948095 -2.58841 -1.22398e-14 
0.328648 -2.56337 1.08024e-13 
0.48911 -2.63582 -1.62393e-13 
0.720137 -2.47416 -2.88538e-14 
0.946509 -2.29002 -1.04869e-14 
1.09758 -2.33946 -5.77237e-15 
1.23386 -2.24312 1.63007e-15 
1.38139 -2.34552 -8.76004e-16 
1.55624 -2.3596 1.57603e-16 
1.76637 -2.40473 4.38407e-16 
2.00091 -2.41236 1.83709e-15 
2.23319 -2.39161 9.6772e-16 
2.46155 -2.36556 3.1502e-16 
2.68339 -2.37 -3.75341e-16 
2.9062 -2.37006 1.07171e-16 
3.13053 -2.35378 7.75192e-17 
3.35126 -2.36848 -2.11086e-16 
3.57084 -2.35362 6.5091e-17 
3.78931 -2.36127 2.95125e-17 
4.0101 -2.37468 -1.90562e-16 
4.22833 -2.36203 -1.16484e-16 
4.44563 -2.36064 -1.01861e-16 
4.65818 -2.35761 -1.39785e-16 
4.87174 -2.35501 -8.92169e-17 
5.0846 -2.35859 2.36979e-17 
5.3007 -2.36635 1.3163e-16 
5.51662 -2.3602 -1.16041e-16 
5.73736 -2.36804 -3.27291e-16 
5.95926 -2.37146 -2.54837e-17 
6.18321 -2.35952 -8.27299e-17 
6.40924 -2.35871 -4.60624e-16 
6.63243 -2.35918 1.83447e-16 
6.85266 -2.32605 1.4341e-16 
7.08116 -2.38229 3.44858e-17 
7.30519 -2.38461 -1.42016e-16 
7.54977 -2.34871 5.7919e-16 
7.78406 -2.39159 3.0767e-16 
8.00113 -2.31909 -1.10787e-15 
8.24889 -2.35549 -1.00379e-16 
8.48454 -2.30178 -2.16431e-05 
-8.48509 -2.10283 1.77658e-05 
-8.27378 -2.10425 -2.98602e-15 
-8.05833 -2.05065 1.13208e-15 
-7.83395 -2.18038 -2.14674e-15 
-7.56468 -2.0696 6.92086e-17 
-7.31166 -2.24582 -1.75119e-16 
-7.10055 -2.0989 -2.14403e-16 
-6.83898 -2.12885 -1.1998e-16 
-6.61034 -2.15415 -2.70104e-16 
-6.324 -2.12192 3.00065e-16 
-6.1285 -2.12013 4.86175e-17 
-5.90079 -2.09322 -1.79144e-16 
-5.68283 -2.13431 2.34542e-16 
-5.46509 -2.13645 -3.31963e-17 
-5.2575 -2.14325 -1.79365e-16 
-5.0338 -2.13726 1.28278e-18 
-4.8228 -2.14076 -2.45489e-17 
-4.60809 -2.14784 9.00027e-18 
-4.39935 -2.12851 -1.29273e-16 
-4.18603 -2.13496 -1.719e-16 
-3.97166 -2.13154 -1.32828e-16 
-3.7647 -2.13691 5.68509e-17 
-3.54882 -2.12702 7.95623e-17 
-3.33458 -2.13027 -1.00272e-16 
-3.1172 -2.13858 -2.52934e-16 
-2.8991 -2.13196 2.0063e-16 
-2.67344 -2.12853 -2.39745e-16 
-2.44442 -2.14869 -6.59538e-16 
-2.2396 -2.14239 1.87571e-16 
-2.01435 -2.14052 -9.3621e-16 
-1.77452 -2.09566 -1.17331e-16 
-1.5991 -2.11918 -1.27745e-15 
-1.3854 -2.13263 2.57421e-15 
-1.20031 -2.07282 4.01744e-15 
-1.04081 -2.17727 -6.7639e-15 
-0.879658 -2.03812 1.32372e-13 
-0.622295 -2.38875 1.76628e-13 
-0.340454 -2.44689 -2.30977e-13 
-0.0999889 -2.49232 -1.63876e-14 
0.145799 -2.44536 1.67747e-13 
0.394879 -2.38458 7.26245e-14 
0.550408 -2.44539 1.44033e-13 
0.764597 -2.27454 3.57324e-15 
0.866905 -2.07856 3.29795e-14 
1.05154 -2.06355 -5.6847e-15 
1.24054 -2.01118 1.23544e-15 
1.43385 -2.08864 -3.74458e-15 
1.63222 -2.14797 4.29451e-15 
1.84657 -2.1974 2.48169e-16 
2.06949 -2.18824 3.04077e-15 
2.29465 -2.16197 -9.25916e-16 
2.51974 -2.13453 6.37443e-16 
2.73645 -2.13765 5.38974e-16 
2.95727 -2.13855 -4.33232e-16 
3.18203 -2.12327 1.91975e-16 
3.39611 -2.1325 -6.6223e-17 
3.61755 -2.1227 1.44361e-17 
3.83806 -2.13583 1.51109e-16 
4.05172 -2.14242 1.1872e-16 
4.26994 -2.13268 1.20634e-16 
4.48149 -2.12589 -2.32425e-19 
4.69507 -2.12556 5.03551e-17 
4.90881 -2.12267 -5.66863e-17 
5.12463 -2.13011 5.15248e-17 
5.33671 -2.13258 1.32157e-16 
5.55708 -2.13285 -9.26998e-17 
5.77635 -2.13881 -1.70754e-16 
5.99614 -2.13944 9.10903e-17 
6.22214 -2.12966 1.36142e-17 
6.44386 -2.12327 -2.74096e-16 
6.65936 -2.11495 1.97467e-16 
6.89904 -2.10367 1.62917e-16 
7.1159 -2.14214 -2.42382e-16 
7.34913 -2.15814 -1.75161e-16 
7.55596 -2.08595 -6.23855e-17 
7.75959 -2.15287 -5.97353e-16 
7.97842 -2.08145 7.20234e-16 
8.2119 -2.13201 1.40678e-16 
8.48441 -2.10289 -1.685e-05 
-8.48424 -1.83056 1.6071e-05 
-8.287 -1.85464 1.68877e-15 
-7.87684 -1.91615 1.52299e-15 
-7.67141 -1.90818 -9.27882e-16 
-7.42456 -1.78958 1.45543e-16 
[...]
POINT_DATA 1978 
VECTORS vectors float
0.060448 -0.082539 0.994904 
0.0645529 -0.064293 0.996008 
0.0679527 -0.0494929 0.996882 
0.0700521 -0.0372321 0.997123 
0.0721464 -0.0270235 0.997279 
0.0735657 -0.0177173 0.997399 
0.0740701 -0.0141009 0.997428 
0.0750108 -0.00902775 0.997407 
0.0752236 -0.00634897 0.997318 
0.0752332 -0.00377021 0.997546 
0.0761273 -0.000854832 0.997249 
0.0772194 0.000868455 0.997272 
0.0774591 0.00148547 0.997253 
0.0774661 0.00194461 0.997243 
0.0773531 0.00278648 0.997245 
0.0769942 0.00380162 0.997272 
0.0765797 0.00547722 0.997294 
0.0759423 0.00763202 0.997329 
0.075217 0.0104737 0.997358 
0.0746453 0.0141962 0.997358 
0.0740088 0.0183895 0.99734 
0.0731182 0.0238892 0.997291 
0.0719779 0.0307695 0.99719 
0.0707685 0.0391076 0.996988 
0.069405 0.0493541 0.996633 
0.0668785 0.0619209 0.99611 
0.0633336 0.0787377 0.995159 
0.0596322 0.100713 0.993406 
0.0550326 0.129953 0.990266 
0.0480002 0.169758 0.984594 
0.0410343 0.208497 0.97743 
0.0311621 0.266298 0.963625 
0.0196015 0.342861 0.939395 
0.0113689 0.406254 0.913852 
-0.000890541 0.500017 0.866094 
-0.0110852 0.613241 0.789678 
-0.0155467 0.724529 0.688973 
-0.0173501 0.822555 0.568382 
-0.0127338 0.927395 0.373768 
-0.0029321 0.99702 0.0735216 
0.0128617 0.958813 -0.283532 
0.0153419 0.764669 -0.644644 
0.0143096 0.677725 -0.735191 
0.00950639 0.597537 -0.801817 
-0.000268375 0.498355 -0.86708 
-0.00973151 0.422977 -0.906257 
-0.020729 0.340339 -0.940167 
-0.0299104 0.269253 -0.962827 
-0.0392733 0.213304 -0.976447 
-0.0489222 0.164069 -0.985498 
-0.0557067 0.126402 -0.990684 
-0.0603548 0.0988543 -0.993543 
-0.0640808 0.0777008 -0.995185 
-0.0670575 0.0609966 -0.996153 
-0.0689881 0.0482824 -0.996718 
-0.0706424 0.0380801 -0.997039 
-0.0722521 0.0296217 -0.997209 
-0.0732464 0.023349 -0.9973 
-0.0740636 0.0181387 -0.997342 
-0.0746857 0.0137208 -0.997364 
-0.0753599 0.0102373 -0.997353 
-0.075956 0.00746814 -0.997332 
-0.0765649 0.00538007 -0.997297 
-0.0770128 0.00389023 -0.99727 
-0.0772554 0.00289069 -0.997252 
-0.0773734 0.00205657 -0.997247 
-0.0773191 0.00143451 -0.997254 
-0.0772286 0.000555522 -0.997263 
-0.0763986 -0.000850794 -0.997333 
-0.0752617 -0.00367262 -0.997419 
-0.0752114 -0.00761459 -0.997404 
-0.0746187 -0.0113958 -0.99742 
-0.0742213 -0.0155415 -0.997389 
-0.0731289 -0.0217211 -0.997356 
-0.0718431 -0.0289487 -0.997276 
-0.0701189 -0.0374237 -0.997117 
-0.0678928 -0.0498342 -0.996739 
-0.0651875 -0.0615891 -0.996264 
-0.0604382 -0.0828798 -0.994871 
0.0445511 -0.0861735 0.99543 
0.0482286 -0.0671805 0.997472 
0.0499705 -0.0522445 0.998 
0.0548372 -0.0409434 0.998398 
0.0592452 -0.0308843 0.998515 
0.0609241 -0.02106 0.998656 
0.0543868 -0.014976 0.999245 
0.0603623 -0.0111275 0.998706 
0.053692 -0.00791255 0.999356 
0.060155 -0.00414877 0.998758 
0.0587118 -0.00139122 0.999086 
0.0598569 0.000334696 0.998887 
0.0598001 0.00147819 0.998889 
0.0617725 0.00238026 0.99876 
0.060194 0.00348416 0.998844 
0.0604306 0.00498554 0.99882 
0.0600851 0.00700067 0.998825 
0.0592702 0.00945597 0.998855 
0.0588942 0.0125911 0.998844 
0.057563 0.0165238 0.998865 
0.0578961 0.0214232 0.998757 
0.0566091 0.0277056 0.998685 
0.0557643 0.0353973 0.998496 
0.0549219 0.0449438 0.998167 
0.0533786 0.0570813 0.997637 
0.0509072 0.0728909 0.996743 
0.0483078 0.0931767 0.995185 
0.0462007 0.119659 0.99245 
0.0432883 0.155964 0.987518 
0.0380262 0.199586 0.979831 
0.034398 0.247473 0.96894 
0.0289697 0.315668 0.949019 
0.0287834 0.38815 0.921668 
0.0216231 0.462464 0.886779 
0.0172103 0.56162 0.827629 
0.0427898 0.610104 0.791349 
0.016233 0.662049 0.749269 
0.00725205 0.802168 0.59659 
-0.000114022 0.936035 0.350704 
0.000407496 0.999069 0.0239922 
0.00247801 0.961176 -0.274607 
0.00401996 0.819859 -0.571451 
-0.0185074 0.684841 -0.728497 
-0.024097 0.597956 -0.801336 
-0.0196583 0.520045 -0.854203 
-0.0262998 0.435419 -0.900377 
-0.025849 0.362084 -0.93244 
-0.0304836 0.291464 -0.956713 
-0.0359125 0.223398 -0.974728 
-0.0417529 0.169944 -0.985254 
-0.0452741 0.131878 -0.990932 
-0.0479514 0.10362 -0.99416 
-0.050588 0.080885 -0.996142 
-0.0524087 0.0630284 -0.997337 
-0.05354 0.0496621 -0.998021 
-0.055423 0.0387637 -0.998401 
-0.0558667 0.0305292 -0.998653 
-0.0571327 0.0238127 -0.99876 
-0.0583016 0.0182115 -0.998804 
-0.0581797 0.0139253 -0.998871 
-0.059012 0.0105005 -0.998864 
-0.0593184 0.00785076 -0.998865 
-0.0598775 0.00576359 -0.998851 
-0.0603089 0.00406305 -0.998829 
-0.0608317 0.00277759 -0.998808 
-0.0603918 0.00184611 -0.998841 
-0.0607146 0.000855709 -0.998828 
-0.060494 -0.000693408 -0.998854 
-0.0592149 -0.00272442 -0.998929 
-0.0587379 -0.00555854 -0.998959 
-0.0583805 -0.00940044 -0.998959 
-0.0565799 -0.0133775 -0.999021 
-0.0586372 -0.018408 -0.998838 
-0.0562639 -0.0252908 -0.99883 
-0.0546916 -0.0328619 -0.998697 
-0.0551881 -0.0433371 -0.998162 
-0.0477738 -0.0552257 -0.998185 
-0.0493596 -0.0699698 -0.996957 
-0.0406458 -0.0869174 -0.995642 
0.0322464 -0.088917 0.995921 
0.0359808 -0.0701966 0.99761 
0.0364314 -0.055103 0.998584 
0.0435071 -0.0416078 0.99894 
0.0393068 -0.0325594 0.999301 
0.0477294 -0.0288154 0.999169 
0.0477408 -0.0219797 0.999331 
0.0431315 -0.0169344 0.999537 
0.0453266 -0.0116252 0.999713 
0.0440202 -0.0068326 0.999701 
0.047817 -0.00365013 0.999545 
0.0457157 -0.00171653 0.999633 
0.0463996 4.01081e-05 0.999603 
0.0478597 0.00163463 0.999524 
0.0483536 0.00266858 0.99949 
0.0476618 0.00412241 0.999512 
0.0476371 0.00612164 0.9995 
0.0472587 0.00829196 0.999502 
0.0466682 0.0109052 0.999503 
0.0456306 0.0141083 0.999514 
0.0452308 0.0185107 0.999465 
0.0452767 0.0238646 0.999357 
0.0442025 0.0306863 0.999226 
0.0437696 0.0391645 0.998956 
0.0432921 0.0497185 0.998514 
0.0419797 0.0633279 0.997808 
0.0401766 0.0811034 0.996603 
0.0392631 0.104367 0.994475 
0.0386915 0.135125 0.990785 
0.0373587 0.170827 0.9853 
0.0365504 0.222824 0.974861 
0.0358603 0.279578 0.960102 
0.0381298 0.34153 0.939681 
0.0422822 0.432736 0.90101 
0.0395237 0.514219 0.857108 
0.0640592 0.636321 0.768621 
0.0343194 0.73051 0.682284 
0.0212649 0.869827 0.491675 
0.00916283 0.969937 0.241281 
-0.00435224 0.992713 -0.116742 
-0.0152377 0.927231 -0.372798 
-0.00983631 0.850683 -0.525049 
-0.0329908 0.713871 -0.6994 
-0.0518833 0.573614 -0.817771 
-0.0429882 0.495708 -0.867773 
-0.0461432 0.424518 -0.904768 
-0.0374536 0.367899 -0.929553 
-0.0358985 0.30439 -0.952478 
-0.0351192 0.241083 -0.97053 
-0.0371267 0.185469 -0.982632 
-0.0383474 0.143287 -0.989643 
-0.0390044 0.111142 -0.993746 
-0.0404865 0.087361 -0.996054 
-0.0418376 0.0685006 -0.997473 
-0.0419827 0.0533494 -0.998389 
-0.0434273 0.0418136 -0.998871 
-0.0436016 0.0328369 -0.999192 
-0.0445921 0.0256493 -0.999352 
-0.0456995 0.0198329 -0.999426 
-0.0456031 0.0152971 -0.999504 
-0.0460078 0.0117128 -0.999528 
-0.0463876 0.00900827 -0.999538 
-0.0467437 0.00676922 -0.999537 
-0.0472881 0.00475369 -0.999524 
-0.0478122 0.00310171 -0.999507 
-0.0474849 0.00199244 -0.99953 
-0.0478326 0.000868194 -0.999521 
-0.0477452 -0.000856361 -0.999528 
-0.0469138 -0.00290544 -0.999576 
-0.0464154 -0.00547221 -0.999597 
-0.0456986 -0.00915086 -0.999607 
-0.0435741 -0.0132301 -0.999669 
-0.0456699 -0.0179368 -0.999506 
-0.0447917 -0.0236617 -0.999433 
-0.0416529 -0.0319105 -0.999462 
-0.0421731 -0.0408148 -0.999009 
-0.0376475 -0.0530131 -0.998619 
-0.0361166 -0.0692556 -0.997682 
-0.0300541 -0.0900136 -0.995766 
0.0235945 -0.0918839 0.995735 
0.0256909 -0.073533 0.997587 
0.0267152 -0.0578941 0.998821 
0.0322412 -0.0453248 0.99931 
0.0302451 -0.0331524 0.99972 
0.0387106 -0.0248202 0.999672 
0.0328213 -0.0191409 1.00011 
0.0350825 -0.0134773 0.999995 
0.0367186 -0.00938509 0.999975 
0.0358187 -0.00489276 1.00003 
0.036224 -0.00289575 1.00002 
0.0354292 -0.00097295 1.00004 
0.0370695 0.000962509 0.999974 
0.0374213 0.00222186 0.999952 
0.0375147 0.00352872 0.999936 
0.0370915 0.00560034 0.999943 
0.0370454 0.00778221 0.999928 
0.0367792 0.0100806 0.999913 
0.035562 0.0127374 0.99993 
0.0354653 0.0163074 0.999883 
0.035078 0.0210495 0.999814 
0.0349282 0.0267718 0.99969 
0.0343609 0.0341778 0.99949 
0.0343546 0.0431369 0.999154 
0.034185 0.0543197 0.998622 
0.0332496 0.0687042 0.997775 
0.0329602 0.0879784 0.996279 
0.0336855 0.113188 0.993711 
0.0340389 0.141723 0.99003 
0.0355868 0.18158 0.983431 
0.0390437 0.23484 0.971925 
0.0426647 0.2853 0.958117 
0.0489633 0.360183 0.932157 
0.0612734 0.42988 0.901269 
0.0617851 0.516764 0.854213 
0.0890998 0.584341 0.806996 
0.0518141 0.774352 0.630278 
0.0338284 0.923497 0.381319 
0.00788113 0.993076 0.109366 
-0.0168932 0.980609 -0.19088 
-0.0405993 0.890269 -0.452292 
-0.0367905 0.810636 -0.583981 
-0.0597553 0.677835 -0.732795 
-0.0787685 0.591151 -0.802846 
-0.0665439 0.49387 -0.867452 
-0.0587573 0.403575 -0.913582 
-0.0464802 0.335072 -0.941719 
-0.0400622 0.273084 -0.961809 
-0.0362903 0.216909 -0.976197 
-0.0351712 0.170058 -0.985508 
-0.033853 0.133437 -0.991181 
-0.0331205 0.103844 -0.994746 
-0.0334728 0.0822891 -0.996746 
-0.0335211 0.0647584 -0.998029 
-0.0333479 0.0505834 -0.99885 
-0.0340618 0.0401517 -0.999291 
-0.0341285 0.0314477 -0.999593 
-0.0349662 0.0244711 -0.999751 
-0.0356113 0.0191523 -0.999839 
-0.0356579 0.0148348 -0.999904 
-0.0356501 0.0115908 -0.999941 
-0.0362034 0.00906499 -0.999945 
-0.0362654 0.00688321 -0.999962 
-0.0368897 0.0047553 -0.999955 
-0.0371766 0.00297672 -0.999955 
-0.0370937 0.00169003 -0.999964 
-0.0372824 0.000356841 -0.999966 
-0.0372 -0.00162058 -0.999977 
-0.0361586 -0.00381544 -1.00001 
-0.0357293 -0.00647351 -1.00003 
-0.0350203 -0.0102063 -1.00003 
-0.0337777 -0.0146175 -1.00002 
-0.035081 -0.0194144 -0.999909 
-0.0345934 -0.0258065 -0.999669 
-0.030915 -0.032992 -0.999693 
-0.0326695 -0.0414016 -0.999342 
-0.0279733 -0.0530284 -0.998811 
-0.0275292 -0.0678786 -0.998177 
-0.0236241 -0.0920952 -0.995735 
0.0169851 -0.0939567 0.995664 
0.0195056 -0.075987 0.997678 
0.0242321 -0.048487 0.99914 
0.0243023 -0.0384508 0.99968 
0.022853 -0.0299446 1.00011 
0.0291146 -0.0260206 0.999829 
0.0251824 -0.021869 1.00014 
0.0274301 -0.016074 1.00018 
0.0279698 -0.0112937 1.00023 
0.0296121 -0.00743832 1.00021 
0.0271916 -0.00449867 1.00028 
0.0281 -0.00241248 1.00026 
0.0281573 -0.000155711 1.00025 
0.0291608 0.00144843 1.00022 
0.0289803 0.00271206 1.00022 
0.0295193 0.00451966 1.00019 
0.0289812 0.00694338 1.00019 
0.0288729 0.00923539 1.00017 
0.0281972 0.0114409 1.00017 
0.0278239 0.0144432 1.00015 
0.0276013 0.0185138 1.00009 
0.0272088 0.0237064 0.999998 
0.0273861 0.0300667 0.999833 
0.0273223 0.0382495 0.999564 
0.0277493 0.0483315 0.999121 
0.0275725 0.0612383 0.998428 
0.0276234 0.0786277 0.997218 
0.0289654 0.101622 0.995108 
0.030555 0.12825 0.991982 
0.0335351 0.16259 0.986833 
0.0381487 0.207451 0.978196 
0.0469794 0.26358 0.964163 
0.05444 0.323329 0.94533 
0.0696545 0.387216 0.919903 
0.0844483 0.486649 0.869906 
0.117313 0.550304 0.82705 
0.0943207 0.67953 0.727362 
0.0692584 0.813137 0.577479 
0.0495745 0.936987 0.343828 
0.00624634 0.997636 0.0599908 
-0.0411896 0.949899 -0.308573 
-0.0697446 0.772518 -0.631142 
-0.0968461 0.684168 -0.722817 
-0.101566 0.550678 -0.828772 
-0.0828471 0.462313 -0.883311 
-0.0713794 0.38425 -0.921045 
-0.0558498 0.327455 -0.943704 
-0.0454789 0.271802 -0.961934 
-0.0383778 0.221447 -0.975088 
-0.0341225 0.1773 -0.98426 
-0.0310587 0.139128 -0.990491 
-0.0291402 0.10859 -0.994356 
-0.0278541 0.0853058 -0.99666 
-0.0276284 0.0679373 -0.997995 
-0.0271472 0.0535364 -0.998879 
-0.026891 0.0419634 -0.999428 
-0.0270413 0.0334009 -0.999742 
-0.0274568 0.0260547 -0.999939 
-0.0277298 0.0203699 -1.00005 
-0.0278917 0.0159652 -1.00013 
-0.0278372 0.0125613 -1.00017 
-0.0280868 0.0100433 -1.00019 
-0.0284587 0.00790747 -1.0002 
-0.0289062 0.00562106 -1.0002 
-0.0289537 0.00341964 -1.00021 
-0.029228 0.00185802 -1.00021 
-0.0290019 0.000621085 -1.00022 
-0.0291138 -0.00131237 -1.00023 
-0.0287602 -0.00360083 -1.00024 
-0.0278997 -0.00602571 -1.00026 
-0.0270831 -0.00964922 -1.00026 
-0.0269354 -0.0136834 -1.00022 
-0.0262333 -0.0186811 -1.00029 
-0.0267143 -0.0249793 -1.00003 
-0.0242034 -0.0324478 -0.999882 
-0.0237425 -0.0433153 -0.999502 
-0.0211643 -0.0576688 -0.998951 
-0.0212979 -0.0745322 -0.997592 
-0.0175603 -0.0939239 -0.99568 
0.0123723 -0.0952072 0.995627 
0.0137005 -0.0755937 0.997773 
0.0184539 -0.0612826 0.998656 
0.0171238 -0.0500027 0.999328 
0.0189498 -0.0384986 0.999656 
0.018495 -0.0263051 1.00016 
0.0202554 -0.0193739 1.00029 
0.021994 -0.0141367 1.00034 
0.0223141 -0.00982322 1.00038 
0.0223315 -0.00666793 1.0004 
0.0209403 -0.00389655 1.00043 
0.0222887 -0.00167673 1.0004 
0.0219062 0.000458863 1.0004 
0.0223733 0.00180235 1.00039 
0.0225957 0.0035136 1.00038 
0.0229075 0.00587955 1.00036 
0.0223333 0.00849547 1.00035 
0.021876 0.0105195 1.00034 
0.0218063 0.0128813 1.00031 
0.021367 0.016312 1.00028 
0.0211897 0.0208412 1.0002 
0.0210951 0.0267388 1.00007 
0.0214579 0.0339095 0.999858 
0.0219984 0.0430775 0.999502 
0.0226767 0.0540939 0.998959 
0.0232544 0.0690022 0.998037 
0.0246049 0.0893375 0.996403 
0.026695 0.112834 0.993971 
0.0306685 0.143858 0.989837 
0.0358897 0.181004 0.983541 
0.0439519 0.22661 0.97369 
0.0590851 0.297423 0.953583 
0.0738704 0.351217 0.933976 
0.0859729 0.359912 0.929609 
0.094309 0.44112 0.892972 
0.113173 0.44949 0.886536 
0.127035 0.687946 0.714472 
0.0974658 0.823401 0.558348 
0.059616 0.960164 0.270626 
-0.0144941 0.997127 -0.0594876 
-0.0707329 0.900036 -0.428324 
-0.102869 0.802593 -0.587132 
-0.129538 0.647396 -0.751191 
-0.132168 0.54712 -0.827045 
-0.105125 0.461709 -0.881124 
-0.0832048 0.376037 -0.923462 
-0.0608804 0.307946 -0.950208 
-0.0480067 0.255574 -0.966265 
-0.039361 0.2096 -0.977698 
-0.0332015 0.167396 -0.985919 
-0.0286909 0.131509 -0.99172 
-0.0259126 0.103052 -0.995042 
-0.0235971 0.0816264 -0.997081 
-0.0227532 0.0649758 -0.99831 
-0.022041 0.0509968 -0.999132 
-0.0212126 0.040436 -0.999626 
-0.0214807 0.0316353 -0.999928 
-0.0213151 0.0248074 -1.00011 
-0.0213127 0.019521 -1.00022 
-0.0215889 0.0153125 -1.00029 
-0.0214501 0.0121135 -1.00033 
-0.0216416 0.00987643 -1.00035 
-0.0220386 0.00783443 -1.00036 
-0.0223131 0.00544905 -1.00037 
-0.0223749 0.00300746 -1.00038 
-0.0227567 0.00136956 -1.00038 
-0.022544 9.56312e-05 -1.00039 
-0.0223228 -0.00198385 -1.0004 
-0.0222211 -0.00448574 -1.0004 
-0.0214197 -0.00702243 -1.00041 
-0.020876 -0.0109043 -1.0004 
-0.0212595 -0.0155448 -1.00022 
-0.0201702 -0.0203561 -1.00027 
-0.0203877 -0.027282 -1.00012 
-0.018127 -0.0346808 -0.999929 
-0.0184253 -0.0429357 -0.999619 
-0.0163154 -0.0553674 -0.999037 
-0.015875 -0.0715076 -0.998046 
-0.0132275 -0.0948435 -0.995657 
0.00882274 -0.0956858 0.995617 
0.00978351 -0.0746059 0.997873 
0.0135802 -0.0601267 0.998805 
0.0133163 -0.0470051 0.999632 
0.0159152 -0.034044 0.999999 
0.0144566 -0.0278276 1.00019 
0.0161114 -0.0210073 1.00021 
0.016468 -0.0155365 1.00053 
0.0174088 -0.0113025 1.00034 
0.016704 -0.00743097 1.00049 
0.0168589 -0.00494324 1.00049 
0.0169891 -0.00212229 1.0005 
0.0173044 -0.000171339 1.00048 
0.017176 0.0013354 1.00048 
0.0175719 0.00318745 1.00047 
0.0173533 0.00577877 1.00046 
0.0174742 0.00812514 1.00044 
0.0168445 0.0100516 1.00042 
0.0168465 0.012042 1.00041 
0.0167294 0.0148571 1.00038 
0.0165547 0.0187746 1.00032 
0.0166717 0.0238207 1.00021 
0.016735 0.0302174 1.00005 
0.0173988 0.0380437 0.999779 
0.0181049 0.0480089 0.999351 
0.0191205 0.0604844 0.998665 
0.02036 0.0769225 0.997523 
0.0221891 0.0964081 0.995794 
0.0259884 0.122641 0.992826 
0.0311701 0.154601 0.988201 
0.0385266 0.191879 0.981372 
0.0509177 0.245626 0.968721 
0.0641459 0.286223 0.956797 
0.0810137 0.326976 0.942207 
0.112204 0.409054 0.906046 
0.150678 0.507356 0.848886 
0.14489 0.568098 0.810499 
0.168669 0.705752 0.687762 
0.129752 0.848296 0.512537 
-0.0456421 0.983513 -0.169023 
-0.12872 0.873934 -0.467164 
-0.153864 0.742386 -0.651665 
-0.172916 0.629469 -0.757594 
-0.141263 0.494695 -0.857935 
-0.109091 0.416464 -0.903141 
-0.0830481 0.342692 -0.936424 
-0.064778 0.296655 -0.953453 
-0.0490103 0.242903 -0.969509 
-0.0392595 0.200837 -0.979539 
-0.0325372 0.164549 -0.986543 
-0.0272107 0.13166 -0.991627 
-0.023649 0.105713 -0.994708 
-0.0205071 0.0834481 -0.996991 
-0.0188616 0.0665148 -0.998296 
-0.0182485 0.0533645 -0.999082 
-0.0171393 0.0418691 -0.999642 
-0.0170498 0.0327518 -0.999968 
-0.0167637 0.0257804 -1.00018 
-0.0166148 0.0202974 -1.0003 
-0.0167198 0.0159223 -1.00036 
-0.0166606 0.0126818 -1.00041 
-0.016741 0.0104261 -1.00043 
-0.0170439 0.00858602 -1.00044 
-0.0172191 0.00619974 -1.00046 
-0.0174314 0.0034572 -1.00047 
-0.0175927 0.0013734 -1.00047 
-0.0175356 0.000107064 -1.00048 
-0.0173926 -0.00179263 -1.00049 
-0.0172553 -0.00444074 -1.00049 
-0.0165808 -0.0069959 -1.00049 
-0.0160839 -0.0105417 -1.00047 
-0.0164117 -0.01543 -1.00053 
-0.0156844 -0.0201943 -1.00034 
-0.0154284 -0.0270768 -1.0002 
-0.0139048 -0.0354884 -0.99996 
-0.0136298 -0.0456916 -0.999563 
-0.0120518 -0.0594332 -0.998866 
-0.0119304 -0.0743188 -0.997869 
-0.00983824 -0.0955069 -0.995623 
0.00583074 -0.0965694 0.995543 
0.0069222 -0.0762497 0.997768 
0.0101337 -0.0577703 0.998985 
0.00957271 -0.0465044 0.999572 
0.0122452 -0.036552 0.99993 
0.011274 -0.0284668 1.0002 
0.0125245 -0.0200705 1.0005 
0.0126611 -0.0153877 1.00034 
0.0137044 -0.0109993 1.00051 
0.0128709 -0.00764361 1.00053 
0.0138857 -0.00456564 1.00064 
0.0134279 -0.00205246 1.00043 
0.0137779 -0.000152051 1.00053 
0.0133543 0.00133404 1.00063 
0.0136237 0.00363663 1.00042 
0.0132712 0.00643435 1.0006 
0.013444 0.00863296 1.00038 
0.0127581 0.0102437 1.00058 
0.0127228 0.0121112 1.00046 
0.0128007 0.0149302 1.00033 
0.0127657 0.0187665 1.00047 
0.0130491 0.0237976 1.00017 
0.0132293 0.0298887 1.0001 
0.0140622 0.0378413 0.999842 
0.0148522 0.0475753 0.999422 
0.0161583 0.0598935 0.998753 
0.0175138 0.0746868 0.997738 
0.0198739 0.0940538 0.99608 
0.0236419 0.118393 0.993401 
0.0285321 0.1466 0.989496 
0.0376527 0.186879 0.982382 
0.0479547 0.226063 0.973651 
0.0588199 0.263133 0.963675 
0.0822952 0.327425 0.941989 
0.117431 0.402179 0.908594 
0.165078 0.491558 0.855539 
0.196398 0.621499 0.758276 
0.226577 0.727035 0.649097 
0.177956 0.866919 0.467032 
0.0547035 0.985152 0.166801 
-0.106035 0.95302 -0.288396 
-0.217542 0.76048 -0.613378 
-0.194384 0.599097 -0.776694 
-0.146262 0.468149 -0.871838 
-0.101629 0.375735 -0.921889 
-0.073896 0.311293 -0.948149 
-0.0594475 0.270219 -0.961686 
-0.0466465 0.228194 -0.973221 
-0.036747 0.188024 -0.982074 
-0.0296317 0.153193 -0.988591 
-0.0240348 0.122095 -0.992816 
-0.0201391 0.0970523 -0.995892 
-0.0171772 0.076717 -0.997704 
-0.0157276 0.0620289 -0.998513 
-0.0150085 0.0498046 -0.999316 
-0.0140224 0.0384535 -0.999811 
-0.0136107 0.0304181 -1.0002 
-0.0132356 0.0241723 -1.00015 
-0.0129318 0.0189987 -1.00036 
-0.0127882 0.0150368 -1.00053 
-0.0128783 0.0121831 -1.00036 
-0.012888 0.0102381 -1.00058 
-0.0132336 0.00851011 -1.00039 
-0.0133117 0.00612017 -1.00061 
-0.0137106 0.00316774 -1.00052 
-0.0137817 0.000986206 -1.00053 
-0.0137465 -0.000349426 -1.00053 
-0.0137655 -0.00223035 -1.00054 
-0.0136834 -0.0050632 -1.00053 
-0.0132319 -0.0079553 -1.00053 
-0.0129027 -0.0116199 -1.00051 
-0.0129488 -0.016633 -1.00032 
-0.0122003 -0.0217035 -1.00036 
-0.0119933 -0.0276394 -1.00021 
-0.0104858 -0.0358445 -0.999976 
-0.0100901 -0.0463148 -0.99957 
-0.00866065 -0.060058 -0.998842 
-0.00839088 -0.0767633 -0.997729 
-0.00635412 -0.0962998 -0.995568 
0.00411471 -0.0974989 0.995347 
0.00464034 -0.0765072 0.997867 
0.00701635 -0.0604811 0.998832 
0.00732521 -0.0463858 0.99958 
0.00937574 -0.0354951 0.999998 
0.00835948 -0.029205 1.00021 
0.0098918 -0.0224218 1.00025 
0.0102096 -0.0172529 1.00056 
0.0107745 -0.0121486 1.00052 
0.0102264 -0.00793918 1.00066 
0.0110502 -0.0050756 1.00045 
0.0107565 -0.00231335 1.00057 
0.0108567 -0.000472647 1.00066 
0.0105963 0.00112609 1.00045 
0.0105669 0.00389447 1.00055 
0.0104307 0.0069442 1.00053 
0.0102864 0.00908294 1.00051 
0.00986101 0.0105533 1.0004 