# vtk DataFile Version 3.0 
Exported using Morpho https://github.com/Morpho-lang/morpho 
ASCII 
DATASET UNSTRUCTURED_GRID 

POINTS 1978 float 
-8.48528 -2.82843 4.10518e-10 
-8.25321 -2.82843 5.03234e-09 
-8.01859 -2.82843 3.88057e-09 
-7.75929 -2.82843 4.40489e-09 
-7.46566 -2.82843 4.32783e-09 
-7.14378 -2.82843 2.28027e-09 
-6.95995 -2.82843 7.92382e-10 
-6.71879 -2.82843 7.87483e-10 
-6.53714 -2.82843 4.12287e-10 
-6.34516 -2.82843 3.42095e-10 
-6.15703 -2.82843 5.44731e-10 
-5.94088 -2.82843 2.97414e-10 
-5.74007 -2.82843 -2.85707e-11 
-5.53341 -2.82843 -1.79661e-10 
-5.30271 -2.82843 -3.35055e-10 
-5.09251 -2.82843 -5.23506e-10 
-4.87943 -2.82843 -6.27965e-10 
-4.66242 -2.82843 -8.01309e-10 
-4.45012 -2.82843 -9.81187e-10 
-4.23365 -2.82843 -1.15762e-09 
-4.03012 -2.82843 -1.48867e-09 
-3.81032 -2.82843 -1.94764e-09 
-3.5978 -2.82843 -2.25608e-09 
-3.38595 -2.82843 -2.74197e-09 
-3.16887 -2.82843 -3.52051e-09 
-2.95002 -2.82843 -4.42289e-09 
-2.73481 -2.82843 -4.72342e-09 
-2.52374 -2.82843 -5.11498e-09 
-2.30067 -2.82843 -6.24682e-09 
-2.05995 -2.82843 -6.37246e-09 
-1.88054 -2.82843 -3.55664e-09 
-1.67483 -2.82843 -1.80684e-09 
-1.45417 -2.82843 -3.41497e-09 
-1.3029 -2.82843 7.04512e-10 
-1.11968 -2.82843 -3.94428e-09 
-0.943714 -2.82843 -4.96252e-08 
-0.743611 -2.82843 -6.53705e-08 
-0.530703 -2.82843 -6.76289e-08 
-0.28868 -2.82843 -1.2927e-07 
-0.136004 -2.82843 3.97326e-08 
0.228874 -2.82843 2.09114e-07 
0.609848 -2.82843 1.35589e-07 
0.767457 -2.82843 -4.95864e-09 
0.934338 -2.82843 1.08376e-08 
1.09623 -2.82843 1.81692e-09 
1.26873 -2.82843 7.55677e-09 
1.46601 -2.82843 -1.62768e-09 
1.65335 -2.82843 1.6776e-09 
1.87003 -2.82843 5.78375e-09 
2.09399 -2.82843 6.58983e-09 
2.31262 -2.82843 6.21394e-09 
2.5293 -2.82843 5.28905e-09 
2.7529 -2.82843 4.99605e-09 
2.96982 -2.82843 4.20986e-09 
3.18362 -2.82843 3.2186e-09 
3.39689 -2.82843 2.82234e-09 
3.61545 -2.82843 2.3688e-09 
3.82624 -2.82843 1.85994e-09 
4.0395 -2.82843 1.50021e-09 
4.25814 -2.82843 1.17267e-09 
4.46686 -2.82843 9.24799e-10 
4.67621 -2.82843 7.53832e-10 
4.88288 -2.82843 5.90137e-10 
5.08962 -2.82843 4.65023e-10 
5.29859 -2.82843 3.13548e-10 
5.51342 -2.82843 1.26332e-10 
5.72485 -2.82843 7.43671e-11 
5.94476 -2.82843 -1.92722e-10 
6.16731 -2.82843 -5.03065e-10 
6.38424 -2.82843 -5.07202e-10 
6.60729 -2.82843 -6.41172e-10 
6.8302 -2.82843 -8.77235e-10 
7.04159 -2.82843 -1.39601e-09 
7.29676 -2.82843 -2.16484e-09 
7.53329 -2.82843 -2.3458e-09 
7.75936 -2.82843 -3.22954e-09 
8.02574 -2.82843 -3.50691e-09 
8.22075 -2.82843 -4.85367e-09 
8.48528 -2.82843 -9.22977e-11 
-8.48528 -2.58914 -4.27492e-09 
-8.25977 -2.58849 -5.48358e-14 
-8.03087 -2.58825 -2.1232e-13 
-7.78839 -2.61793 -3.11509e-13 
-7.51687 -2.6441 -3.51831e-13 
-7.23029 -2.65892 -2.81636e-13 
-6.97271 -2.5351 -3.59244e-14 
-6.78229 -2.61865 -1.2929e-13 
-6.55531 -2.55886 -1.71921e-14 
-6.35529 -2.56512 -4.32737e-14 
-6.12724 -2.59936 -1.15148e-14 
-5.91488 -2.57859 -1.01206e-14 
-5.69721 -2.5862 3.17642e-16 
-5.4647 -2.61005 1.73712e-14 
-5.23787 -2.59377 2.20836e-14 
-5.01835 -2.59593 3.37184e-14 
-4.79591 -2.60177 5.08048e-14 
-4.57664 -2.59672 6.16577e-14 
-4.35679 -2.6017 8.64434e-14 
-4.14429 -2.58665 8.72687e-14 
-3.92887 -2.60278 1.44062e-13 
-3.70938 -2.59434 1.5957e-13 
-3.49369 -2.59226 1.90828e-13 
-3.27629 -2.59752 2.54851e-13 
-3.05381 -2.59641 3.07431e-13 
-2.8316 -2.59336 3.50801e-13 
-2.61301 -2.58852 3.57881e-13 
-2.39192 -2.60266 4.80576e-13 
-2.15703 -2.62126 7.00977e-13 
-1.9411 -2.55397 5.12848e-14 
-1.75055 -2.59714 4.61854e-13 
-1.54115 -2.61681 2.68962e-13 
-1.34957 -2.55212 4.6284e-13 
-1.18841 -2.60609 -7.06237e-13 
-1.00696 -2.61199 -1.30584e-13 
-0.907054 -2.43002 2.03234e-12 
-0.824556 -2.65667 1.71967e-12 
-0.608129 -2.67291 3.0836e-12 
-0.388405 -2.68183 4.41182e-12 
-0.000170603 -2.73554 -1.43435e-11 
0.241609 -2.67591 -9.53759e-12 
0.455336 -2.73958 2.42568e-12 
0.808803 -2.64203 1.04727e-12 
0.968393 -2.4629 4.80903e-13 
1.0114 -2.64107 1.71145e-13 
1.2079 -2.58423 -3.11101e-12 
1.39498 -2.60848 3.24051e-13 
1.59999 -2.59416 -2.21623e-13 
1.81418 -2.61606 -5.18054e-13 
2.05123 -2.61542 -5.50763e-13 
2.28736 -2.60266 -4.75622e-13 
2.51184 -2.59628 -4.07774e-13 
2.73511 -2.60068 -4.1161e-13 
2.96352 -2.59196 -3.18582e-13 
3.18367 -2.58749 -2.38323e-13 
3.40675 -2.59633 -2.35946e-13 
3.62306 -2.59039 -1.61729e-13 
3.84078 -2.59429 -1.38906e-13 
4.06394 -2.60219 -1.25753e-13 
4.27913 -2.59288 -8.28687e-14 
4.49272 -2.59394 -6.84271e-14 
4.70489 -2.59096 -5.04786e-14 
4.91632 -2.59123 -3.82157e-14 
5.12997 -2.59266 -2.7438e-14 
5.3475 -2.59775 -1.93865e-14 
5.56389 -2.59214 -8.63796e-15 
5.78553 -2.5991 1.42831e-15 
6.01115 -2.59927 1.52875e-14 
6.23354 -2.59075 2.68736e-14 
6.45747 -2.59447 4.63074e-14 
6.68326 -2.59115 6.7944e-14 
6.89937 -2.57616 6.93809e-14 
7.1366 -2.6158 1.70528e-13 
7.38373 -2.59977 1.78671e-13 
7.61176 -2.58727 1.65628e-13 
7.86097 -2.62202 3.31145e-13 
8.0703 -2.54676 7.33643e-14 
8.29808 -2.61819 6.73491e-14 
8.48528 -2.53287 4.95585e-09 
-8.48528 -2.34781 -3.8273e-09 
-8.25814 -2.3474 1.1983e-13 
-8.03019 -2.34231 -1.134e-13 
-7.79613 -2.39967 -1.01494e-14 
-7.57499 -2.24919 -1.19552e-13 
-7.52856 -2.44913 -4.77966e-14 
-7.24857 -2.46087 -6.02795e-14 
-6.9957 -2.32901 -7.64888e-14 
-6.72696 -2.37326 -2.65984e-14 
-6.49191 -2.31393 -3.84687e-14 
-6.2646 -2.3567 -2.15033e-14 
-6.05184 -2.34684 -1.39207e-14 
-5.83111 -2.34292 -4.98938e-15 
-5.60147 -2.37132 4.63676e-15 
-5.38214 -2.37886 1.18624e-14 
-5.15826 -2.36239 2.10428e-14 
-4.93713 -2.37142 2.97521e-14 
-4.72065 -2.37183 3.91948e-14 
-4.49864 -2.37251 4.87415e-14 
-4.28821 -2.36238 6.53798e-14 
-4.0676 -2.36061 8.02977e-14 
-3.85423 -2.37165 9.2408e-14 
-3.63542 -2.36026 1.222e-13 
-3.41726 -2.36053 1.45973e-13 
-3.19772 -2.36855 1.68747e-13 
-2.97199 -2.36549 1.94231e-13 
-2.74966 -2.35742 2.48181e-13 
-2.52195 -2.36279 2.64022e-13 
-2.2913 -2.39289 2.19742e-13 
-2.08015 -2.36799 3.24345e-13 
-1.84288 -2.32051 4.81136e-13 
-1.65396 -2.37381 -3.75233e-13 
-1.46415 -2.36034 7.09887e-13 
-1.26295 -2.31984 -2.04714e-13 
-1.09943 -2.39276 1.81907e-12 
-0.866171 -2.24848 2.34097e-13 
-0.72956 -2.50475 1.87116e-12 
-0.530174 -2.5128 -1.00821e-12 
-0.205608 -2.61961 6.57401e-12 
0.0348584 -2.59852 3.57466e-12 
0.415206 -2.56689 7.17471e-13 
0.62683 -2.61659 -7.06071e-12 
0.783509 -2.44592 2.19102e-12 
0.971627 -2.2585 3.84222e-12 
1.15444 -2.38762 -7.91866e-13 
1.22311 -2.19609 -5.1713e-13 
1.37254 -2.36937 3.10803e-13 
1.55888 -2.3701 -5.65567e-14 
1.77008 -2.39137 -1.54099e-13 
1.99122 -2.40893 -2.63208e-13 
2.22661 -2.393 -2.57633e-13 
2.45779 -2.36882 -2.99562e-13 
2.68016 -2.36875 -2.5636e-13 
2.90171 -2.36803 -2.20929e-13 
3.12856 -2.35397 -1.8705e-13 
3.35085 -2.36417 -1.45684e-13 
3.56998 -2.35663 -1.33128e-13 
3.78863 -2.36106 -1.0042e-13 
4.00874 -2.37504 -7.59238e-14 
4.22661 -2.36359 -6.79943e-14 
4.44406 -2.36052 -5.30569e-14 
4.65663 -2.3582 -4.23025e-14 
4.87107 -2.35616 -3.2766e-14 
5.08377 -2.35992 -2.30639e-14 
5.30071 -2.36621 -1.35945e-14 
5.5163 -2.36062 -7.49226e-15 
5.73688 -2.36834 9.03842e-16 
5.95894 -2.37169 1.08256e-14 
6.18283 -2.35986 2.01705e-14 
6.40847 -2.35949 2.85467e-14 
6.63149 -2.35769 3.9117e-14 
6.85309 -2.33094 6.4399e-14 
7.0785 -2.37735 6.2865e-14 
7.30791 -2.38603 7.95175e-14 
7.54781 -2.34855 9.05872e-14 
7.7827 -2.38952 9.33357e-15 
8.00059 -2.31876 1.06351e-13 
8.2485 -2.35609 -1.03289e-13 
8.48528 -2.30275 3.00826e-09 
-8.48528 -2.10688 -2.77973e-09 
-8.26572 -2.10588 1.1732e-13 
-8.05592 -2.07737 -7.83579e-14 
-7.83088 -2.16332 -5.89169e-14 
-7.54353 -2.05677 -6.39843e-14 
-7.29327 -2.26369 -9.96722e-14 
-7.10385 -2.11703 -7.45888e-14 
-6.83342 -2.15027 -5.43573e-14 
-6.6095 -2.12821 -4.09607e-14 
-6.33951 -2.11485 -3.07611e-14 
-6.12954 -2.11118 -1.6857e-14 
-5.91056 -2.10502 -9.54495e-15 
-5.68684 -2.13322 -2.6854e-16 
-5.47074 -2.14174 7.12557e-15 
-5.26059 -2.14143 1.33797e-14 
-5.03686 -2.1391 1.94424e-14 
-4.82469 -2.13977 2.83364e-14 
-4.61024 -2.14778 3.6559e-14 
-4.40148 -2.1307 4.22569e-14 
-4.18871 -2.13436 5.50285e-14 
-3.97378 -2.13045 6.87197e-14 
-3.76593 -2.13617 8.76891e-14 
-3.54982 -2.12668 1.05573e-13 
-3.33414 -2.12951 1.3183e-13 
-3.11598 -2.14088 1.6709e-13 
-2.89523 -2.13005 2.01026e-13 
-2.66909 -2.13197 2.30451e-13 
-2.43769 -2.14808 2.83773e-13 
-2.23044 -2.14492 2.81648e-13 
-2.00504 -2.14355 3.51458e-13 
-1.77974 -2.08151 -7.84842e-14 
-1.59074 -2.12847 4.61885e-13 
-1.39615 -2.12532 -2.51745e-13 
-1.20506 -2.08658 -7.8397e-13 
-1.04215 -2.17715 -5.06188e-13 
-0.881169 -2.01757 4.44449e-13 
-0.666174 -2.33335 -1.44206e-12 
-0.350648 -2.48185 7.32779e-12 
-0.133463 -2.4709 -2.07072e-11 
0.215726 -2.49972 -1.71347e-11 
0.377697 -2.37956 -9.18299e-12 
0.581299 -2.44145 -6.35095e-13 
0.766727 -2.26349 -2.00694e-12 
0.866506 -2.06173 1.27038e-13 
1.06383 -2.06638 -5.9658e-13 
1.25537 -1.95992 6.58014e-13 
1.42458 -2.12408 -4.74527e-13 
1.63246 -2.1527 -1.33237e-13 
1.85133 -2.18082 -2.17082e-13 
2.07451 -2.19179 -3.40578e-13 
2.29912 -2.16427 -2.65183e-13 
2.52196 -2.13586 -2.2728e-13 
2.73912 -2.13506 -2.00044e-13 
2.9594 -2.1367 -1.8403e-13 
3.18389 -2.12434 -1.47798e-13 
3.39951 -2.12947 -1.19146e-13 
3.61859 -2.12542 -9.98612e-14 
3.83941 -2.13543 -8.35818e-14 
4.05239 -2.14248 -6.78939e-14 
4.27011 -2.13413 -5.23308e-14 
4.48209 -2.12596 -3.90788e-14 
4.69649 -2.12746 -3.04962e-14 
4.90946 -2.12313 -2.3389e-14 
5.12568 -2.13205 -1.66933e-14 
5.33809 -2.13188 -1.00107e-14 
5.55816 -2.13302 -4.80724e-15 
5.77751 -2.13921 2.23789e-15 
5.99722 -2.13969 1.24405e-14 
6.2226 -2.12969 2.02704e-14 
6.4437 -2.12371 2.76889e-14 
6.66129 -2.11552 4.05911e-14 
6.89396 -2.10072 4.953e-14 
7.11615 -2.14579 7.41713e-14 
7.34596 -2.15518 9.68316e-14 
7.55357 -2.08754 6.68754e-14 
7.75879 -2.15126 5.12443e-14 
7.98029 -2.0823 4.79087e-14 
8.21384 -2.1326 1.34134e-14 
8.48528 -2.10304 2.60708e-09 
-8.48528 -1.84993 -2.48766e-09 
-8.27368 -1.85096 1.22314e-13 
-7.88448 -1.90556 1.67234e-14 
[...]
POINT_DATA 1978 
VECTORS vectors float
0.0081746 -0.0113632 0.999902 
0.00128235 -0.0339376 0.999424 
-0.000129378 -0.0454134 0.998969 
-0.00232094 -0.0385115 0.999256 
-0.00394035 -0.0279095 0.999603 
-0.000430011 -0.0184122 0.999831 
0.00216069 -0.0140154 0.9999 
0.0020709 -0.0101297 0.999947 
0.00513333 -0.00704792 0.999962 
0.00418197 -0.0039908 0.999984 
0.00308047 -0.00227045 0.999993 
0.00264506 -0.000565523 0.999997 
0.00312482 0.000978315 0.999995 
0.00180819 0.0020921 0.999996 
0.00175392 0.00305141 0.999994 
0.00254615 0.00443731 0.999987 
0.00215758 0.00620691 0.999979 
0.00218987 0.00840149 0.999963 
0.00217485 0.0111573 0.999936 
0.00257743 0.0147194 0.999889 
0.00238865 0.0190351 0.999816 
0.00195514 0.024631 0.999695 
0.00230307 0.0313716 0.999505 
0.00209885 0.0397954 0.999206 
0.00176573 0.0504277 0.998726 
0.00176412 0.0641668 0.997938 
0.00202249 0.0815589 0.996667 
0.0016885 0.103595 0.994618 
0.000633784 0.133214 0.991087 
0.00152265 0.174786 0.984605 
0.00237822 0.215319 0.976541 
0.00098105 0.272331 0.962203 
0.00106127 0.34829 0.937386 
0.00108258 0.41321 0.910635 
-0.000482236 0.508355 0.861147 
-0.000614587 0.604474 0.796624 
-0.000484854 0.720031 0.693942 
-0.000794399 0.841194 0.540732 
-0.00107787 0.951653 0.307172 
-0.000360436 0.990578 0.13695 
-0.00165867 0.961545 -0.274646 
-0.000148626 0.777538 -0.628836 
0.00154625 0.68721 -0.726457 
0.000486824 0.59682 -0.802375 
-0.000272183 0.510269 -0.860014 
-0.000171309 0.424654 -0.905356 
-0.00133107 0.342581 -0.939487 
-0.00134996 0.27706 -0.960852 
-0.00100842 0.216488 -0.976285 
-0.00107379 0.167483 -0.985875 
-0.0014026 0.130392 -0.991462 
-0.00149744 0.101888 -0.994795 
-0.00157955 0.0796217 -0.996824 
-0.00188658 0.0629187 -0.998017 
-0.00210548 0.0497452 -0.99876 
-0.00193346 0.0390485 -0.999236 
-0.00212769 0.0306231 -0.999529 
-0.00235267 0.0239926 -0.99971 
-0.00199299 0.0186432 -0.999825 
-0.00225315 0.0143427 -0.999895 
-0.0026261 0.0109274 -0.999937 
-0.00271287 0.00821151 -0.999963 
-0.00284466 0.00611748 -0.999978 
-0.00277201 0.0044177 -0.999987 
-0.00240761 0.00313203 -0.999993 
-0.00237614 0.00207004 -0.999995 
-0.00216735 0.000924292 -0.999998 
-0.00169722 -0.000398619 -0.999999 
-0.0018669 -0.00230283 -0.999996 
-0.001812 -0.00486254 -0.999987 
-0.0015054 -0.00790817 -0.999968 
-0.00219816 -0.0118685 -0.999927 
-0.000823714 -0.0164253 -0.999865 
5.19458e-05 -0.0225615 -0.999746 
-0.00122524 -0.0299516 -0.999551 
0.000397431 -0.0383331 -0.999265 
-0.00127106 -0.0458166 -0.998949 
-0.00131766 -0.0359327 -0.999354 
-0.00722503 -0.00938501 -0.99993 
0.00858535 -0.00679177 0.999941 
0.0143923 -0.0322291 0.999377 
0.0175305 -0.0382741 0.999114 
0.0193779 -0.0385754 0.999068 
0.0198116 -0.0308877 0.999326 
0.0199029 -0.0215048 0.999571 
0.0237161 -0.0152928 0.999602 
0.0227626 -0.0112196 0.999678 
0.0240065 -0.00775637 0.999682 
0.0247839 -0.00497332 0.99968 
0.0233666 -0.00252786 0.999724 
0.0244295 -0.000577452 0.999701 
0.024585 0.00096143 0.999697 
0.0240461 0.00234651 0.999708 
0.0246138 0.00372967 0.99969 
0.0245735 0.00530028 0.999684 
0.0243287 0.00728322 0.999677 
0.024332 0.00980622 0.999656 
0.0239803 0.0129805 0.999628 
0.0240951 0.0168406 0.999568 
0.0233874 0.021717 0.999491 
0.0232445 0.0279656 0.999339 
0.0228711 0.0356155 0.999104 
0.0222508 0.0452675 0.998727 
0.0217146 0.0577945 0.998092 
0.0212183 0.0739461 0.997036 
0.0206473 0.0942845 0.995331 
0.0195992 0.120827 0.99248 
0.0183708 0.15743 0.987359 
0.0203553 0.201184 0.979342 
0.0187861 0.249933 0.968081 
0.0178333 0.317574 0.948066 
0.0235086 0.390971 0.920103 
0.0194437 0.469299 0.882825 
0.0208102 0.566841 0.823564 
0.0422241 0.611254 0.790307 
0.0174266 0.672988 0.739448 
0.0153085 0.792897 0.609164 
0.0110308 0.903808 0.427796 
-0.000635225 0.999893 -0.0146374 
-0.0063614 0.95477 -0.297278 
-0.00545928 0.833444 -0.552579 
-0.0188698 0.677119 -0.735632 
-0.0276502 0.594115 -0.803904 
-0.0201723 0.522966 -0.852116 
-0.0228103 0.441708 -0.896868 
-0.0176506 0.364444 -0.931058 
-0.0184128 0.290864 -0.956587 
-0.0176869 0.228615 -0.973356 
-0.0182387 0.175406 -0.984327 
-0.0193043 0.134264 -0.990758 
-0.0201024 0.104319 -0.994341 
-0.0206434 0.0814416 -0.996464 
-0.0215589 0.063575 -0.997744 
-0.0220551 0.0499969 -0.998506 
-0.0224595 0.0390726 -0.998984 
-0.0229953 0.0307796 -0.999262 
-0.023271 0.0239591 -0.999442 
-0.0235176 0.0184352 -0.999553 
-0.0240193 0.0142193 -0.99961 
-0.0243091 0.0108292 -0.999646 
-0.0245989 0.00816269 -0.999664 
-0.0247329 0.0060614 -0.999676 
-0.0247427 0.00437719 -0.999684 
-0.0246375 0.00297085 -0.999692 
-0.0246799 0.00170025 -0.999694 
-0.0243529 0.000364093 -0.999703 
-0.0241558 -0.00127409 -0.999707 
-0.0240838 -0.00345563 -0.999704 
-0.0237289 -0.0062212 -0.999699 
-0.023486 -0.00965807 -0.999678 
-0.0232119 -0.0136595 -0.999637 
-0.0219505 -0.0188522 -0.999581 
-0.0216863 -0.025616 -0.999437 
-0.0211741 -0.0330647 -0.999229 
-0.0196062 -0.0397217 -0.999018 
-0.0172294 -0.036379 -0.99919 
-0.0139746 -0.0300871 -0.99945 
-0.00904428 -0.00479777 -0.999948 
0.0109271 -0.00562074 0.999924 
0.0150524 -0.0284907 0.999481 
0.0226749 -0.0361945 0.999088 
0.0253273 -0.0384443 0.99894 
0.0298143 -0.032814 0.999017 
0.0245956 -0.0294963 0.999262 
0.0262063 -0.0217689 0.99942 
0.0310061 -0.0165514 0.999382 
0.0301343 -0.0112165 0.999483 
0.0328452 -0.00735726 0.999433 
0.0317803 -0.00436692 0.999485 
0.0329097 -0.00209811 0.999456 
0.033372 -0.00026782 0.999443 
0.0329598 0.00134158 0.999456 
0.0329015 0.00277787 0.999455 
0.0336607 0.00436665 0.999424 
0.0332773 0.00612328 0.999427 
0.0330783 0.00827675 0.999419 
0.0328346 0.0110775 0.999399 
0.0328201 0.014375 0.999358 
0.0324068 0.0186822 0.9993 
0.0316496 0.0238996 0.999213 
0.0315151 0.0306235 0.999034 
0.0309333 0.0390155 0.99876 
0.0301108 0.0496766 0.998311 
0.0294782 0.0635914 0.997541 
0.0292213 0.0812728 0.996263 
0.0284929 0.104517 0.994115 
0.0272305 0.135267 0.990435 
0.0284462 0.171142 0.984836 
0.031219 0.223005 0.974317 
0.0304409 0.27916 0.959762 
0.0352344 0.341001 0.939402 
0.0420165 0.429067 0.902295 
0.0414234 0.511499 0.858285 
0.0657815 0.639804 0.765718 
0.0355055 0.734957 0.677184 
0.0299602 0.864489 0.501758 
0.00962151 0.974808 0.222836 
-0.00495905 0.994888 -0.100861 
-0.0219108 0.923115 -0.383899 
-0.0189594 0.828532 -0.559622 
-0.0364932 0.69945 -0.713749 
-0.0497345 0.575992 -0.815941 
-0.0412778 0.483768 -0.874222 
-0.0481638 0.417311 -0.907487 
-0.0343252 0.374698 -0.926511 
-0.0313468 0.307033 -0.951182 
-0.0283367 0.241949 -0.969875 
-0.0268256 0.187573 -0.981884 
-0.0271526 0.143728 -0.989245 
-0.0282675 0.111134 -0.993403 
-0.0286955 0.0870064 -0.995794 
-0.029234 0.0683305 -0.997234 
-0.0300607 0.0534014 -0.998121 
-0.0303842 0.0419173 -0.998659 
-0.0312436 0.0328823 -0.998971 
-0.0315386 0.0257105 -0.999172 
-0.0316552 0.0199501 -0.9993 
-0.0325315 0.0154428 -0.999351 
-0.0329929 0.0118527 -0.999385 
-0.0334127 0.00903572 -0.999401 
-0.0337211 0.00675691 -0.999408 
-0.0337674 0.00492238 -0.999418 
-0.0335786 0.00334398 -0.99943 
-0.0336957 0.00189196 -0.99943 
-0.0332162 0.000423062 -0.999448 
-0.0327358 -0.00121576 -0.999463 
-0.0326894 -0.00334751 -0.99946 
-0.0321798 -0.00605114 -0.999464 
-0.0316093 -0.00929186 -0.999457 
-0.0317169 -0.0132548 -0.999409 
-0.0298891 -0.0179991 -0.999391 
-0.0288115 -0.0239051 -0.999299 
-0.0285225 -0.0316011 -0.999094 
-0.0260354 -0.0382948 -0.998927 
-0.0243256 -0.0375602 -0.998998 
-0.0157807 -0.0288744 -0.999458 
-0.0108542 -0.00775162 -0.999911 
0.00963039 -0.00493793 0.999942 
0.0143739 -0.0275447 0.999517 
0.0217747 -0.0358587 0.99912 
0.0275803 -0.0395634 0.998836 
0.0289647 -0.0332985 0.999026 
0.0310641 -0.0243518 0.999221 
0.0311554 -0.019484 0.999325 
0.0322902 -0.0135647 0.999386 
0.0330727 -0.00955493 0.999407 
0.0332575 -0.00554635 0.999431 
0.0334914 -0.00319833 0.999434 
0.033454 -0.00118096 0.99944 
0.0341948 0.000593811 0.999415 
0.0344803 0.00218245 0.999403 
0.0346164 0.00375639 0.999394 
0.0344523 0.0055504 0.999391 
0.0342719 0.00749779 0.999384 
0.0341245 0.00993274 0.999368 
0.0335116 0.0128632 0.999356 
0.0332739 0.0165109 0.99931 
0.0328839 0.0211012 0.999236 
0.032645 0.0266399 0.999112 
0.0321853 0.0338329 0.998909 
0.031835 0.0427908 0.998577 
0.03159 0.0542344 0.998028 
0.0312266 0.0687566 0.997145 
0.0311493 0.087978 0.995635 
0.0314364 0.113139 0.993082 
0.032128 0.142042 0.989339 
0.0339212 0.181924 0.982727 
0.0382327 0.234571 0.971347 
0.0417892 0.286043 0.957305 
0.0485259 0.3573 0.932728 
0.0605968 0.43364 0.899047 
0.0648027 0.524624 0.848864 
0.0899151 0.574737 0.813384 
0.0557175 0.749606 0.659535 
0.0354012 0.925891 0.376128 
0.00929215 0.992634 0.120796 
-0.0193722 0.977587 -0.209639 
-0.045408 0.889088 -0.455479 
-0.0407581 0.804922 -0.59198 
-0.0615628 0.679958 -0.730662 
-0.0792308 0.590116 -0.803421 
-0.0657984 0.497515 -0.864956 
-0.0611897 0.401778 -0.91369 
-0.0456218 0.335695 -0.940865 
-0.038649 0.273449 -0.96111 
-0.0344337 0.216623 -0.975648 
-0.0325009 0.169162 -0.985052 
-0.0316801 0.132476 -0.99068 
-0.0311689 0.103673 -0.994123 
-0.0310273 0.0818273 -0.996163 
-0.0312024 0.0643153 -0.997442 
-0.0313977 0.0505026 -0.99823 
-0.0317161 0.0399525 -0.998698 
-0.0320291 0.0312881 -0.998997 
-0.032597 0.0244636 -0.999169 
-0.0330477 0.0192196 -0.999269 
-0.0333327 0.0149545 -0.999332 
-0.0335074 0.0116395 -0.999371 
-0.0338494 0.00891247 -0.999387 
-0.0340433 0.00668206 -0.999398 
-0.0343789 0.00479662 -0.999397 
-0.0344811 0.00316489 -0.9994 
-0.0345096 0.00152694 -0.999403 
-0.0344267 -0.00010574 -0.999407 
-0.0341514 -0.00189629 -0.999415 
-0.0336513 -0.00420243 -0.999425 
-0.0331179 -0.0070107 -0.999427 
-0.0325014 -0.0103003 -0.999419 
-0.0318101 -0.0146864 -0.999386 
-0.0315166 -0.0195422 -0.999312 
-0.0309373 -0.0258974 -0.999186 
-0.0290429 -0.0328197 -0.999039 
-0.0284168 -0.0386653 -0.998848 
-0.0246695 -0.0391582 -0.998928 
-0.0174878 -0.029261 -0.999419 
-0.00883857 -0.00681163 -0.999938 
0.00730905 -0.00442262 0.999964 
0.0117247 -0.0281299 0.999536 
0.0227812 -0.0412373 0.99889 
0.0244159 -0.0375359 0.998997 
0.0225027 -0.0296684 0.999306 
0.0285034 -0.0263569 0.999246 
0.0250927 -0.0216283 0.999451 
0.0274814 -0.0159759 0.999495 
0.0275684 -0.0114013 0.999555 
0.0292932 -0.00770107 0.999541 
0.0271739 -0.00494725 0.999618 
0.0277447 -0.0026616 0.999611 
0.0281216 -0.000534704 0.999604 
0.0287654 0.00120993 0.999585 
0.0286822 0.00294106 0.999584 
0.029172 0.0046999 0.999563 
0.0285757 0.00661259 0.99957 
0.0286651 0.00882053 0.99955 
0.0280951 0.0113959 0.99954 
0.0277703 0.0146869 0.999506 
0.0276034 0.0186965 0.999444 
0.0272263 0.0237459 0.999347 
0.0272708 0.0299547 0.999179 
0.0270044 0.0380846 0.99891 
0.0272021 0.0484241 0.998456 
0.027367 0.0612543 0.997747 
0.0278778 0.0784631 0.996527 
0.0289789 0.101267 0.994437 
0.0304119 0.128081 0.991297 
0.0333869 0.162487 0.986146 
0.0380941 0.206695 0.977664 
0.0471191 0.266066 0.962803 
0.0550423 0.325186 0.944047 
0.0682536 0.380173 0.922394 
0.0829138 0.47041 0.878544 
0.115661 0.554042 0.824415 
0.0920562 0.702062 0.70614 
0.065461 0.825659 0.560359 
0.0503441 0.938832 0.340675 
0.0072977 0.99821 0.0593678 
-0.0404195 0.961177 -0.272955 
-0.0689038 0.782738 -0.618525 
-0.0966569 0.685651 -0.721485 
-0.102209 0.547418 -0.830594 
-0.0840812 0.464455 -0.881596 
-0.0737688 0.384954 -0.919983 
-0.0554439 0.327516 -0.943217 
-0.0449754 0.271183 -0.961477 
-0.0380968 0.220216 -0.974707 
-0.0339985 0.17572 -0.983853 
-0.0311957 0.138375 -0.989888 
-0.0291207 0.108898 -0.993626 
-0.0277516 0.0852583 -0.995972 
-0.0273845 0.0676103 -0.997336 
-0.0270001 0.0534617 -0.998205 
-0.0267795 0.0419522 -0.998761 
-0.0269377 0.0332334 -0.999085 
-0.0273106 0.0259816 -0.999289 
-0.0275533 0.0204224 -0.999412 
-0.0278007 0.0161342 -0.999483 
-0.0276906 0.0126473 -0.999537 
-0.0279655 0.00980871 -0.999561 
-0.0281303 0.00744995 -0.999576 
-0.0285665 0.00543108 -0.999577 
-0.0285934 0.00366859 -0.999584 
-0.028895 0.00194231 -0.999581 
-0.028882 0.000157969 -0.999583 
-0.0287486 -0.00166342 -0.999585 
-0.0284687 -0.00382102 -0.999587 
-0.0277561 -0.00657713 -0.999593 
-0.0269584 -0.00979921 -0.999589 
-0.0266797 -0.0136348 -0.999551 
-0.026389 -0.0189256 -0.999473 
-0.0263529 -0.02461 -0.99935 
-0.0242178 -0.0325639 -0.999176 
-0.0232165 -0.0398909 -0.998934 
-0.0188944 -0.0379783 -0.9991 
-0.0131575 -0.0287029 -0.999501 
-0.00738558 -0.0061238 -0.999954 
0.00536506 -0.00532014 0.999972 
0.00874985 -0.0288338 0.999546 
0.0158019 -0.0358987 0.999231 
0.0168796 -0.0422847 0.998963 
0.0189482 -0.037941 0.9991 
0.0188872 -0.0262014 0.999478 
0.0205122 -0.0193272 0.999603 
0.0218336 -0.0144963 0.999657 
0.0224507 -0.010033 0.999698 
0.0224661 -0.00711551 0.999722 
0.0212354 -0.0042197 0.999766 
0.0224122 -0.00190091 0.999747 
0.0222745 0.000148363 0.999752 
0.0224949 0.00196784 0.999745 
0.0227454 0.00387962 0.999734 
0.0228108 0.00569475 0.999724 
0.0225932 0.00783786 0.999714 
0.0221366 0.010169 0.999703 
0.0220395 0.0130277 0.999672 
0.0218038 0.0165897 0.999625 
0.0216465 0.0209622 0.999546 
0.0215198 0.0265662 0.999415 
0.0217898 0.0335485 0.9992 
0.0220321 0.0428945 0.998837 
0.0224124 0.0542525 0.998276 
0.0234622 0.069049 0.997337 
0.0249892 0.0888635 0.99573 
0.0267875 0.112221 0.993322 
0.0303881 0.142949 0.989263 
0.0357026 0.180204 0.982981 
0.0439874 0.22879 0.972481 
0.0587106 0.293275 0.954224 
0.0747177 0.351925 0.933041 
0.0881467 0.363854 0.927276 
0.0946973 0.43983 0.893074 
0.117262 0.461523 0.879344 
0.124917 0.679246 0.723201 
0.0983365 0.827051 0.553459 
0.0624697 0.95811 0.279505 
-0.00512252 0.99959 -0.0281762 
-0.0757216 0.884768 -0.45984 
-0.107042 0.794482 -0.59778 
-0.129698 0.645503 -0.752665 
-0.132431 0.548634 -0.825508 
-0.105242 0.456072 -0.883698 
-0.0825231 0.369902 -0.925398 
-0.0603624 0.306426 -0.949979 
-0.0476541 0.254329 -0.965943 
-0.0389847 0.209374 -0.977058 
-0.0330837 0.167048 -0.985394 
-0.028805 0.131688 -0.990873 
-0.0257699 0.103082 -0.994339 
-0.0236737 0.0815957 -0.996384 
-0.0228486 0.0648826 -0.997631 
-0.0222109 0.0509406 -0.998455 
-0.0215185 0.0403181 -0.998955 
-0.0217411 0.031619 -0.999264 
-0.0217408 0.0248512 -0.999455 
-0.0216796 0.0196556 -0.999572 
-0.0218955 0.0155729 -0.999639 
-0.0217916 0.0122401 -0.999688 
-0.0219785 0.00953731 -0.999713 
-0.0222336 0.00717235 -0.999727 
-0.0224514 0.00520952 -0.999734 
-0.0224868 0.00338364 -0.999741 
-0.0228381 0.00151875 -0.999738 
-0.0227358 -0.000394292 -0.999741 
-0.0225871 -0.00236866 -0.999742 
-0.0223755 -0.00469858 -0.999739 
-0.0216009 -0.0075802 -0.999738 
-0.0209581 -0.0110497 -0.999719 
-0.021226 -0.0154675 -0.999655 
-0.020385 -0.0207499 -0.999577 
-0.0205222 -0.0269835 -0.999425 
-0.0181128 -0.0344065 -0.999244 
-0.018451 -0.0405457 -0.999007 
-0.0152313 -0.0407187 -0.999055 
-0.0110997 -0.0301319 -0.999484 
-0.00525134 -0.00785604 -0.999956 
0.00372867 -0.00629305 0.999973 
0.00664962 -0.0297426 0.999535 
0.0119022 -0.0384849 0.999188 
0.0132061 -0.0421955 0.999022 
0.0159719 -0.0343061 0.999284 
0.0143106 -0.0276138 0.999516 
0.0160592 -0.0211086 0.999648 
0.0165815 -0.0154723 0.999743 
0.0177744 -0.0114044 0.999777 
0.0169527 -0.0079672 0.999825 
0.0171593 -0.00535291 0.999838 
0.0173466 -0.00251695 0.999846 
0.0176437 -0.000462096 0.999844 
0.0172932 0.00161836 0.999849 
0.017756 0.00350959 0.999836 
0.0176002 0.00536912 0.999831 
0.0178623 0.00732616 0.999814 
0.0171868 0.00958892 0.999806 
0.0171351 0.0121312 0.99978 
0.0171022 0.0151904 0.999738 
0.0169174 0.01905 0.999675 
0.0169389 0.0238993 0.999571 
0.0170908 0.0301217 0.9994 
0.0177462 0.0380564 0.999118 
0.0180508 0.0479063 0.998689 
0.0191136 0.0606373 0.997977 
0.02087 0.0769501 0.996816 
0.0226534 0.0963678 0.995088 
0.0259688 0.121843 0.99221 
0.0310569 0.153183 0.987709 
0.038791 0.19341 0.980351 
0.0501457 0.243184 0.968683 
0.0646127 0.288346 0.955344 
0.0810714 0.325872 0.941932 
0.11226 0.405532 0.907161 
0.151002 0.506198 0.849095 
0.1496 0.581073 0.799984 
0.167786 0.693666 0.700482 
0.135338 0.835021 0.533313 
-0.0551581 0.978401 -0.199222 
-0.127481 0.877231 -0.462834 
-0.152828 0.745318 -0.648956 
-0.173696 0.637165 -0.7509 
-0.14425 0.505541 -0.850659 
-0.109302 0.41592 -0.902809 
-0.0821499 0.339481 -0.937019 
-0.0644255 0.296298 -0.95292 
-0.0491991 0.242996 -0.968779 
-0.0393619 0.201741 -0.978648 
-0.0326003 0.165551 -0.985662 
-0.0272703 0.131994 -0.990875 
-0.0235103 0.104909 -0.994204 
-0.0206682 0.0828692 -0.996346 
-0.0192047 0.0659276 -0.99764 
-0.0184573 0.0526371 -0.998443 
-0.0174449 0.0415797 -0.998983 
-0.0173994 0.0328168 -0.99931 
-0.0172311 0.0258239 -0.999518 
-0.01698 0.0203779 -0.999648 
-0.0170107 0.0161744 -0.999724 
-0.0170739 0.0129217 -0.999771 
-0.0170793 0.0101181 -0.999803 
-0.0174044 0.007747 -0.999819 
-0.0174319 0.00565111 -0.999832 
-0.0175871 0.00378802 -0.999838 
-0.0178289 0.0018105 -0.999839 
-0.0178053 -0.000218828 -0.999841 
-0.0176941 -0.00229339 -0.999841 
-0.0175369 -0.00460706 -0.999836 
-0.0169239 -0.00746593 -0.999829 
-0.0164094 -0.0109332 -0.999806 
-0.0166762 -0.0151632 -0.999746 
-0.0158265 -0.0204568 -0.999665 
-0.0156441 -0.027011 -0.999513 
-0.0138962 -0.0351469 -0.999286 
-0.0134345 -0.0419918 -0.999028 
-0.010864 -0.0400203 -0.99914 
-0.00797218 -0.030105 -0.999515 
-0.00393229 -0.00618697 -0.999973 
0.00270337 -0.00749541 0.999969 
0.00517362 -0.0313306 0.999495 
0.00941608 -0.0412068 0.999106 
0.00947353 -0.0430429 0.999028 
0.0121054 -0.0366947 0.999253 
0.0112967 -0.0278266 0.999549 
0.0126241 -0.0203752 0.999713 
0.0128352 -0.0153586 0.9998 
0.0137184 -0.0111722 0.999843 
0.012764 -0.00813615 0.999885 
0.0139708 -0.00491363 0.99989 
0.0135301 -0.002496 0.999905 
0.0139126 -0.000299457 0.999903 
0.0134914 0.00181127 0.999907 
0.0137861 0.00375648 0.999898 
0.0137094 0.00567794 0.99989 
0.0138693 0.0076296 0.999874 
0.0133159 0.0098314 0.999863 
0.0133272 0.0123201 0.999835 
0.0133595 0.0153017 0.999794 
0.0132334 0.0190322 0.999731 
0.0133819 0.0239255 0.999624 
0.0136356 0.0301146 0.999453 
0.0142675 0.0377468 0.999185 
0.0147857 0.0474326 0.998765 
0.0158942 0.0595231 0.998101 
0.0176392 0.074679 0.997052 
0.0198422 0.0940964 0.995365 
0.0233344 0.1179 0.992751 
0.0288059 0.147703 0.988612 
0.0370051 0.185065 0.982029 
0.0475347 0.22649 0.972853 
0.0596736 0.265846 0.962167 
0.0835979 0.330059 0.940251 
0.113497 0.394494 0.911862 
0.155283 0.475433 0.865939 
0.197188 0.608194 0.768906 
0.226254 0.733465 0.640966 
0.17506 0.86923 0.462377 
0.052047 0.986945 0.152414 
-0.106897 0.951692 -0.287846 
-0.214421 0.759718 -0.613883 
-0.192922 0.595044 -0.780195 
-0.145509 0.464764 -0.873397 
-0.104006 0.381077 -0.918675 
-0.0730299 0.309744 -0.948011 
-0.0586178 0.268364 -0.961533 
-0.0463011 0.226838 -0.972831 
-0.0362085 0.186043 -0.981874 
-0.0293414 0.152378 -0.987887 
-0.0238594 0.122149 -0.992225 
-0.020064 0.0974925 -0.995034 
-0.0172225 0.0770049 -0.996882 
-0.0157604 0.0615262 -0.997981 
-0.0149429 0.0491488 -0.99868 
-0.0140829 0.0385396 -0.999158 
-0.0138776 0.0305408 -0.999437 
-0.0135882 0.0242426 -0.999614 
-0.0133585 0.0191941 -0.999727 
-0.0132553 0.015403 -0.999793 
-0.0134215 0.0123517 -0.999834 
-0.0133507 0.00976398 -0.999863 
-0.0136801 0.00750981 -0.999878 
-0.0135931 0.00550026 -0.999892 
-0.0138844 0.00354311 -0.999897 
-0.013969 0.00153786 -0.999901 
-0.0139503 -0.000623837 -0.999902 
-0.0138438 -0.00282502 -0.9999 
-0.0136225 -0.00521361 -0.999894 
-0.0131393 -0.00826299 -0.99988 
-0.0128655 -0.012119 -0.999844 
-0.0128688 -0.0163975 -0.999783 
-0.0119907 -0.0216168 -0.999694 
-0.0120011 -0.0277291 -0.999543 
-0.0105199 -0.0357002 -0.999307 
-0.0100927 -0.0427766 -0.999034 
-0.00806479 -0.0407732 -0.999136 
-0.00566936 -0.0300552 -0.999532 
-0.00316475 -0.00688035 -0.999971 
0.0020196 -0.00751513 0.99997 
0.00345607 -0.0312281 0.999507 
0.00649582 -0.0412246 0.999129 
0.00705187 -0.0431385 0.999044 
0.00927269 -0.0353401 0.999332 
0.00807989 -0.0289373 0.999549 
0.00965147 -0.0225776 0.999698 
0.00965376 -0.0169626 0.99981 