# vtk DataFile Version 3.0 
Exported using Morpho https://github.com/Morpho-lang/morpho 
ASCII 
DATASET UNSTRUCTURED_GRID 

POINTS 1978 float 
-12 -4 2.184e-21 
-11.6142 -4 2.259e-21 
-11.3188 -4 -7.61079e-22 
-10.9794 -4 4.3467e-21 
-10.6521 -4 -5.00169e-21 
-10.3023 -4 -2.22234e-22 
-9.99674 -4 -5.90649e-22 
-9.65067 -4 -5.93949e-21 
-9.30818 -4 -4.7626e-22 
-8.99848 -4 -1.64761e-21 
-8.69123 -4 -4.19604e-21 
-8.38081 -4 -4.39072e-22 
-8.08328 -4 -1.99882e-21 
-7.76643 -4 -4.35629e-22 
-7.47607 -4 9.6548e-22 
-7.1938 -4 -3.75081e-21 
-6.91035 -4 -1.90201e-21 
-6.6043 -4 -6.52514e-21 
-6.29864 -4 -1.28924e-20 
-5.99053 -4 -1.34033e-20 
-5.68923 -4 -4.35147e-21 
-5.39103 -4 -5.52805e-21 
-5.10452 -4 -5.76691e-20 
-4.80864 -4 -2.49364e-19 
-4.5066 -4 -8.48681e-19 
-4.20697 -4 -2.76213e-18 
-3.90537 -4 -9.02579e-18 
-3.57592 -4 -2.34452e-17 
-3.25951 -4 -6.26187e-17 
-2.94717 -4 -2.09598e-16 
-2.62726 -4 -4.97365e-16 
-2.32977 -4 -5.94085e-16 
-2.06983 -4 -6.55254e-16 
-1.7909 -4 9.06834e-16 
-1.61261 -4 1.16171e-15 
-1.42347 -4 3.885e-15 
-1.26876 -4 7.07444e-15 
-1.10759 -4 1.10561e-14 
-0.930542 -4 1.65329e-13 
-0.123155 -4 2.80097e-11 
0.413329 -4 2.5218e-11 
0.747643 -4 -6.90501e-15 
1.06488 -4 -1.76648e-14 
1.23688 -4 -8.89674e-15 
1.48011 -4 -3.11087e-15 
1.72707 -4 2.78441e-16 
1.97709 -4 8.96832e-16 
2.30274 -4 6.98711e-16 
2.60878 -4 2.2576e-16 
2.96046 -4 8.19577e-17 
3.26537 -4 2.8627e-17 
3.56292 -4 1.18904e-17 
3.87229 -4 4.53628e-18 
4.18822 -4 1.60437e-18 
4.49053 -4 5.53737e-19 
4.79221 -4 1.71858e-19 
5.09566 -4 2.24155e-20 
5.3954 -4 5.98679e-23 
5.6992 -4 2.28144e-21 
5.99238 -4 1.22538e-20 
6.29626 -4 1.21377e-20 
6.57767 -4 6.69858e-21 
6.89315 -4 1.90398e-22 
7.18653 -4 2.91929e-21 
7.48472 -4 -1.33964e-21 
7.78441 -4 2.39165e-21 
8.07803 -4 -3.30965e-22 
8.36029 -4 5.80295e-22 
8.66074 -4 4.67844e-21 
8.94407 -4 -6.59881e-22 
9.28913 -4 2.36359e-21 
9.618 -4 4.45242e-21 
9.9125 -4 -1.88635e-21 
10.2806 -4 3.55095e-21 
10.6027 -4 -3.77563e-22 
10.9819 -4 -1.26311e-21 
11.3035 -4 3.52597e-22 
11.5907 -4 -1.67147e-21 
12 -4 -2.56992e-21 
-12 -3.61662 -3.59331e-21 
-11.7094 -3.71122 1.08815e-23 
-11.3607 -3.6236 -2.91208e-24 
-11.0536 -3.67268 -1.17798e-24 
-10.7162 -3.66457 4.86625e-25 
-10.3792 -3.68678 1.03479e-24 
-10.0379 -3.64855 4.34963e-24 
-9.72029 -3.68676 5.13184e-24 
-9.37715 -3.68264 6.1132e-24 
-9.04887 -3.65726 7.36775e-24 
-8.7393 -3.6616 3.7915e-24 
-8.42668 -3.66933 6.90552e-24 
-8.11268 -3.65713 4.1592e-24 
-7.80636 -3.67764 1.28034e-23 
-7.48596 -3.65434 1.69611e-23 
-7.19101 -3.65314 4.52416e-23 
-6.89166 -3.66136 4.26856e-24 
-6.58112 -3.66898 5.98907e-23 
-6.26703 -3.67203 2.55512e-22 
-5.95836 -3.669 1.22643e-21 
-5.6537 -3.6679 6.44715e-21 
-5.35894 -3.65727 3.08264e-20 
-5.0584 -3.6673 1.289e-19 
-4.75121 -3.67405 4.21888e-19 
-4.44406 -3.66707 1.16825e-18 
-4.13072 -3.6679 3.4379e-18 
-3.79486 -3.69491 9.42152e-18 
-3.46162 -3.67849 2.51851e-17 
-3.12858 -3.67401 8.55367e-17 
-2.79508 -3.68513 2.19572e-16 
-2.47173 -3.67404 5.66106e-16 
-2.18298 -3.64545 1.08328e-15 
-1.91755 -3.69508 2.23798e-15 
-1.69317 -3.61349 2.86377e-15 
-1.50529 -3.7411 5.51908e-15 
-1.40902 -3.47524 -5.03557e-17 
-1.29901 -3.69347 9.07761e-15 
-1.11511 -3.75031 7.46415e-15 
-0.842569 -3.84327 5.14922e-14 
0.100814 -3.89905 -2.57848e-12 
0.337441 -3.79382 -1.55202e-11 
0.932354 -3.82503 -3.67308e-15 
1.28203 -3.73402 1.84434e-16 
1.52298 -3.70611 -6.61306e-16 
1.75057 -3.68181 -6.39943e-15 
1.96518 -3.61383 -1.03088e-15 
2.19272 -3.72801 -6.12152e-16 
2.47406 -3.68879 -2.57458e-16 
2.77723 -3.72335 -9.22612e-17 
3.07976 -3.67455 -4.54252e-17 
3.36927 -3.65884 -1.79216e-17 
3.66893 -3.66712 -6.77212e-18 
3.97727 -3.67277 -2.51867e-18 
4.27934 -3.6612 -1.02905e-18 
4.57667 -3.66292 -4.11329e-19 
4.87585 -3.66822 -1.36503e-19 
5.1719 -3.66556 -3.21412e-20 
5.4712 -3.67178 -5.39001e-21 
5.76318 -3.66088 -7.27835e-22 
6.06411 -3.67171 -1.96165e-22 
6.34919 -3.64491 -7.37789e-23 
6.65396 -3.68008 -2.87366e-23 
6.95067 -3.65617 -1.84432e-23 
7.25026 -3.66326 -2.43711e-23 
7.55339 -3.66547 -2.55252e-23 
7.8517 -3.65623 -1.67553e-23 
8.14539 -3.64271 -1.39129e-23 
8.44162 -3.66299 -3.73437e-24 
8.73371 -3.64028 -1.40336e-23 
9.05722 -3.70056 -5.26907e-24 
9.39063 -3.68257 -7.72855e-24 
9.69872 -3.64203 -7.36905e-24 
10.039 -3.71078 -2.83143e-24 
10.3746 -3.66433 -3.10702e-24 
10.734 -3.71164 1.96854e-25 
11.071 -3.65668 9.10883e-25 
11.3701 -3.613 2.65107e-25 
11.7172 -3.72569 -1.00242e-23 
12 -3.60756 3.2403e-21 
-12 -3.32301 -3.92212e-22 
-11.62 -3.36476 4.31292e-24 
-11.2711 -3.2794 1.49521e-24 
-10.9562 -3.33863 6.29308e-25 
-10.648 -3.298 8.47988e-25 
-10.3584 -3.36158 1.35094e-24 
-10.0511 -3.29739 1.72549e-24 
-9.74014 -3.34383 2.30764e-24 
-9.42479 -3.36408 5.68693e-24 
-9.0981 -3.3296 2.91381e-24 
-8.78177 -3.3181 -2.04001e-25 
-8.47623 -3.33439 -2.67288e-24 
-8.16761 -3.3297 -3.64018e-24 
-7.85263 -3.33622 4.09828e-24 
-7.55044 -3.33428 1.45145e-23 
-7.23724 -3.3084 1.52969e-23 
-6.93644 -3.32959 2.10882e-23 
-6.62882 -3.34127 5.17743e-23 
-6.31891 -3.34436 1.61855e-22 
-6.01132 -3.34118 3.90424e-22 
-5.70599 -3.33958 1.07361e-21 
-5.4043 -3.3221 -2.52631e-21 
-5.10472 -3.33574 2.01121e-20 
-4.80164 -3.34767 2.34626e-19 
-4.49546 -3.34089 8.77373e-19 
-4.18114 -3.34287 2.33487e-18 
-3.85427 -3.38353 6.76141e-18 
-3.52383 -3.36484 1.94389e-17 
-3.18986 -3.3569 5.42725e-17 
-2.85694 -3.36473 1.22098e-16 
-2.53239 -3.35605 2.69201e-16 
-2.23108 -3.31283 6.35796e-16 
-1.94896 -3.35086 8.34049e-16 
-1.66784 -3.35194 1.92254e-15 
-1.5287 -3.16872 -2.56595e-16 
-1.2581 -3.0457 -4.22731e-15 
-1.27097 -3.3003 6.08625e-15 
-1.11267 -3.51941 2.02565e-14 
-0.877738 -3.65424 -1.19785e-14 
-0.579678 -3.93696 -4.13279e-14 
0.619913 -3.82779 -1.36756e-14 
1.11242 -3.64596 -1.87728e-14 
1.11128 -3.45604 9.88741e-15 
1.43819 -3.45381 -4.9471e-15 
1.46405 -3.18663 -2.18241e-15 
1.70236 -3.33677 3.29211e-15 
1.93871 -3.27604 -6.16892e-16 
2.22264 -3.39121 -4.39129e-16 
2.53354 -3.39016 -1.42794e-16 
2.83328 -3.40116 -5.80922e-17 
3.14029 -3.33749 -2.20725e-17 
3.46432 -3.33608 -9.13147e-18 
3.79563 -3.34985 -3.48541e-18 
4.12182 -3.34048 -1.41597e-18 
4.44563 -3.33062 -5.3427e-19 
4.76258 -3.33868 -1.6721e-19 
5.07399 -3.33547 -4.58908e-20 
5.38527 -3.34427 -1.32527e-20 
5.6904 -3.32816 -4.55339e-21 
5.99659 -3.34536 -6.09076e-22 
6.29995 -3.30305 -2.87168e-22 
6.60229 -3.34757 -4.94488e-23 
6.90492 -3.32182 -2.69191e-23 
7.21008 -3.32818 -1.31312e-23 
7.51543 -3.33425 -1.40397e-23 
7.82201 -3.31875 -4.9912e-24 
8.12536 -3.30307 -2.37407e-24 
8.4341 -3.31529 -1.37752e-24 
8.75434 -3.32 5.59014e-24 
9.07679 -3.38449 -3.95575e-24 
9.38956 -3.34401 -5.10765e-24 
9.70582 -3.30268 -4.49893e-24 
10.0179 -3.39254 -3.14728e-24 
10.3118 -3.31114 -2.93614e-24 
10.6336 -3.3939 -1.49579e-24 
10.9639 -3.34572 -9.39364e-25 
11.29 -3.25724 -7.31526e-25 
11.6302 -3.37204 -2.20486e-24 
12 -3.30762 1.46624e-21 
-12 -2.98575 -2.99734e-21 
-11.6712 -3.06144 8.9358e-24 
-11.3344 -2.96638 1.89995e-24 
-10.9804 -2.98143 1.4024e-24 
-10.6424 -2.9721 1.52556e-24 
-10.3072 -2.99456 2.01894e-24 
-9.97767 -2.9619 2.75202e-24 
-9.66867 -3.00831 2.11921e-24 
-9.35812 -3.0261 3.55841e-25 
-9.0437 -2.98948 -1.31846e-24 
-8.73445 -2.97874 -2.48557e-24 
-8.42928 -2.99895 -7.05349e-24 
-8.11511 -3.00459 -5.56997e-24 
-7.81165 -2.99752 1.99177e-24 
-7.50619 -3.0018 9.80175e-24 
-7.2011 -2.97203 1.72472e-23 
-6.90006 -3.00333 3.79166e-23 
-6.59318 -3.0142 1.05252e-22 
-6.28777 -3.01531 3.00598e-22 
-5.98527 -3.01248 8.68338e-22 
-5.68435 -3.0093 2.34049e-21 
-5.38643 -2.99093 1.38082e-20 
-5.08868 -3.00618 3.35811e-20 
-4.78849 -3.02034 1.58912e-20 
-4.4859 -3.01079 7.56386e-20 
-4.18039 -3.02061 3.47752e-19 
-3.85631 -3.06753 2.87307e-18 
-3.52021 -3.04909 4.95732e-18 
-3.17918 -3.04072 1.02781e-17 
-2.8339 -3.04595 -1.3234e-18 
-2.50752 -3.02367 2.49356e-17 
-2.17748 -3.00007 -7.40102e-17 
-1.87135 -3.06227 -4.4102e-16 
-1.57948 -2.92521 -5.21095e-16 
-1.30132 -2.77804 -1.28477e-15 
-1.01663 -2.79715 -1.64236e-15 
-0.980223 -3.05175 2.70957e-15 
-1.02527 -3.28069 -1.09897e-14 
-0.576171 -3.73804 5.8989e-14 
-0.337905 -3.8533 -4.37598e-15 
0.785638 -3.64438 3.68917e-15 
0.844204 -3.42046 -1.53127e-14 
1.17657 -3.23389 2.72141e-15 
1.10852 -2.94753 -1.52306e-15 
1.38202 -2.91897 1.02114e-15 
1.69125 -2.96945 1.99026e-16 
1.98289 -2.94955 1.65297e-16 
2.24382 -3.08695 -1.20453e-17 
2.51696 -3.05779 -5.44217e-19 
2.82426 -3.07505 2.36363e-17 
3.15124 -3.02258 -2.00061e-18 
3.49033 -3.02645 -1.40194e-18 
3.82351 -3.03277 -6.08328e-19 
4.15018 -3.0206 -2.28362e-19 
4.47113 -3.00882 -4.29784e-20 
4.78261 -3.01312 4.99328e-21 
5.09391 -3.01252 3.6741e-21 
5.39737 -3.01607 -8.81247e-22 
5.70117 -3.00034 -7.01416e-22 
6.00386 -3.01813 -1.01679e-21 
6.30758 -2.97258 -1.86353e-22 
6.60813 -3.01472 -7.16769e-23 
6.91359 -2.99103 -1.65936e-23 
7.21561 -2.99394 -4.36124e-24 
7.51743 -3.00306 -5.96596e-24 
7.82328 -2.98464 8.85269e-25 
8.12859 -2.97174 5.15835e-24 
8.43911 -2.98885 6.76875e-24 
8.74036 -2.97643 9.62154e-24 
9.04562 -3.05368 -9.48262e-27 
9.35952 -3.01401 -2.36623e-26 
9.65984 -2.95946 -2.48417e-24 
9.9846 -3.03706 -2.20737e-24 
10.3215 -2.98602 -2.62954e-24 
10.6538 -3.05917 -1.11158e-24 
10.9824 -3.00427 -2.07046e-24 
11.3347 -2.93609 -1.6518e-24 
11.6636 -3.05862 -9.04603e-24 
12 -2.97735 4.00146e-21 
-12 -2.67087 -6.62301e-22 
-11.6559 -2.72821 4.68931e-24 
-11.3268 -2.62916 3.48736e-24 
-11.0014 -2.6651 4.86249e-25 
-10.6568 -2.6476 1.21944e-24 
-10.3213 -2.66789 7.60219e-25 
-9.98306 -2.64596 4.93665e-25 
-9.64432 -2.66712 1.52516e-24 
-9.33153 -2.68665 1.20996e-24 
-9.01474 -2.65303 -2.14925e-24 
-8.7023 -2.64474 -2.50365e-24 
-8.38859 -2.67507 -9.5061e-24 
-8.07974 -2.67161 -7.86778e-24 
-7.77172 -2.66626 8.84989e-25 
-7.46995 -2.66662 7.16711e-24 
-7.15828 -2.64501 2.27838e-23 
-6.85573 -2.67935 4.96015e-23 
-6.55265 -2.68628 1.29924e-22 
-6.25317 -2.68463 3.49527e-22 
-5.95376 -2.68424 6.21145e-22 
-5.66022 -2.6764 -4.2722e-22 
[...]
POINT_DATA 1978 
VECTORS vectors float
2.49833e-06 0.00019709 1 
-1.21056e-06 0.000160683 1 
3.26612e-07 0.000141611 1 
3.86332e-08 0.000133535 1 
2.3029e-08 0.000134314 1 
8.30432e-08 0.000140969 1 
7.68982e-08 0.000149007 1 
4.36433e-08 0.000161489 1 
4.19548e-08 0.00017584 1 
-3.12393e-09 0.000187428 1 
-4.92211e-08 0.000196251 1 
2.29531e-09 0.000201901 1 
1.41118e-08 0.000199309 1 
5.96107e-08 0.000182995 1 
-1.40143e-08 0.00015727 1 
-8.10459e-09 0.00013511 1 
1.43691e-07 0.000125738 1 
2.99596e-07 0.000136179 1 
2.49666e-07 0.000162471 1 
5.33946e-08 0.000215873 1 
-4.12494e-07 0.000346489 1 
-6.81781e-07 0.000646406 1 
-2.34003e-07 0.00119411 0.999999 
-6.0979e-07 0.00206167 0.999998 
-8.37457e-07 0.00322567 0.999995 
1.16388e-06 0.00474259 0.999989 
8.25272e-06 0.00704737 0.999975 
1.1378e-05 0.0107207 0.999943 
-4.30118e-07 0.015278 0.999883 
-2.46244e-05 0.0226383 0.999744 
-6.0071e-05 0.0365616 0.999331 
1.43842e-05 0.0568505 0.998383 
-0.000100027 0.0796117 0.996826 
0.00026814 0.109741 0.99396 
0.000520833 0.130707 0.991421 
0.000548537 0.151892 0.988397 
0.000444944 0.167224 0.985919 
-4.83396e-06 0.185308 0.98268 
-0.000264915 0.197965 0.980209 
-0.000731177 0.270671 0.962672 
-7.63692e-05 0.183674 -0.982987 
0.000213609 0.194766 -0.98085 
-0.000318429 0.17436 -0.984682 
-0.000458676 0.152491 -0.988305 
3.3456e-06 0.120993 -0.992653 
-0.000183314 0.0913193 -0.995822 
4.80787e-05 0.0642767 -0.997932 
6.9696e-05 0.0405515 -0.999177 
3.76413e-06 0.0273953 -0.999625 
-7.21648e-06 0.0185367 -0.999828 
-3.50357e-05 0.012968 -0.999916 
-9.32843e-07 0.008935 -0.99996 
4.01924e-06 0.00631502 -0.99998 
-2.2256e-07 0.00444089 -0.99999 
2.42473e-07 0.00304547 -0.999995 
6.38342e-07 0.00197114 -0.999998 
2.89802e-07 0.00115986 -0.999999 
4.52869e-07 0.000622247 -1 
7.44514e-08 0.000323134 -1 
-1.15171e-07 0.000190897 -1 
-1.21763e-07 0.000142177 -1 
-2.07274e-07 0.000124782 -1 
-1.82323e-07 0.000122932 -1 
-7.44347e-08 0.000137315 -1 
-3.32483e-09 0.00016653 -1 
-3.66131e-08 0.000195583 -1 
-2.75434e-08 0.000209949 -1 
-2.77294e-08 0.0002109 -1 
2.70221e-08 0.000204269 -1 
2.52813e-09 0.000195896 -1 
5.88767e-08 0.000182389 -1 
-8.45106e-08 0.00016963 -1 
-6.07285e-08 0.000159126 -1 
-9.47829e-08 0.000147578 -1 
-8.4043e-08 0.000140045 -1 
-7.1172e-08 0.000136718 -1 
-3.4786e-07 0.000142269 -1 
1.15864e-06 0.000158166 -1 
-2.25084e-06 0.000194194 -1 
-6.52712e-05 0.000143713 1 
-2.8791e-05 0.000154239 1 
-1.87947e-05 0.000133076 1 
-1.28401e-05 0.000130468 1 
-1.2977e-05 0.000131549 1 
-1.49032e-05 0.000138428 1 
-2.03683e-05 0.00014591 1 
-2.26453e-05 0.000155546 1 
-2.70539e-05 0.000166188 1 
-3.20777e-05 0.000173818 1 
-3.30159e-05 0.000178731 1 
-2.96369e-05 0.000180211 1 
-2.22174e-05 0.000173672 1 
-7.23182e-06 0.000161188 1 
1.27504e-05 0.000137269 1 
3.34952e-05 0.000120383 1 
4.95577e-05 0.000119203 1 
5.96093e-05 0.000137856 1 
5.57417e-05 0.000185951 1 
3.44615e-05 0.000290133 1 
-1.77024e-05 0.000507398 1 
-0.000117159 0.00091321 1 
-0.000293181 0.00157418 0.999999 
-0.000574276 0.00256257 0.999997 
-0.0009535 0.00390179 0.999992 
-0.00137546 0.00577814 0.999982 
-0.00177439 0.00863751 0.999961 
-0.00237783 0.0127947 0.999915 
-0.00292784 0.0189779 0.999816 
-0.00320058 0.0293241 0.999565 
-0.00291106 0.0447224 0.998995 
-0.0015047 0.0641997 0.997936 
-0.000456769 0.091168 0.995835 
0.00267222 0.112378 0.993662 
0.00228868 0.136521 0.990635 
0.0159892 0.125421 0.991975 
0.00924403 0.152447 0.988268 
0.0121187 0.172243 0.98498 
0.0145277 0.207312 0.978167 
0.0552147 0.281678 0.957919 
-0.0199488 0.20087 -0.979415 
-0.0121316 0.185394 -0.982589 
-0.00553447 0.132793 -0.991128 
-0.00192997 0.103978 -0.994578 
0.00100066 0.0823286 -0.996605 
0.00240985 0.0625246 -0.998041 
0.00322534 0.0464602 -0.998915 
0.00295507 0.03293 -0.999453 
0.00251593 0.0233789 -0.999724 
0.00210145 0.0167099 -0.999858 
0.0018309 0.0120601 -0.999926 
0.00155063 0.00854122 -0.999962 
0.00119064 0.00601201 -0.999981 
0.000901566 0.00427341 -0.99999 
0.000603414 0.00296439 -0.999995 
0.000333467 0.00195256 -0.999998 
0.000143576 0.00121411 -0.999999 
3.40274e-05 0.000697607 -1 
-2.01173e-05 0.000396929 -1 
-4.3633e-05 0.000228711 -1 
-5.84591e-05 0.000156437 -1 
-5.45218e-05 0.000123913 -1 
-5.0722e-05 0.000115928 -1 
-3.66074e-05 0.000125723 -1 
-1.80436e-05 0.000147025 -1 
1.87702e-06 0.000167261 -1 
1.94344e-05 0.000178695 -1 
2.93629e-05 0.0001862 -1 
3.54763e-05 0.000182962 -1 
3.04484e-05 0.000181662 -1 
2.84264e-05 0.000171763 -1 
2.60357e-05 0.000161994 -1 
1.7468e-05 0.00015357 -1 
1.48149e-05 0.000143627 -1 
1.04625e-05 0.000136608 -1 
1.16664e-05 0.000133427 -1 
1.67261e-05 0.000134587 -1 
2.54101e-05 0.000155365 -1 
6.14788e-05 0.000140163 -1 
-7.65901e-05 0.000105073 1 
-3.7927e-05 0.00012275 1 
-2.38267e-05 0.000121274 1 
-1.98736e-05 0.000127905 1 
-2.21452e-05 0.000134191 1 
-2.51777e-05 0.000140548 1 
-3.25837e-05 0.000149048 1 
-3.81415e-05 0.000155076 1 
-4.42509e-05 0.000160787 1 
-5.19567e-05 0.000163487 1 
-5.53518e-05 0.000162064 1 
-5.16119e-05 0.000158033 1 
-4.03401e-05 0.000148384 1 
-1.75704e-05 0.000133875 1 
1.21993e-05 0.000115541 1 
4.88533e-05 9.77847e-05 1 
8.13939e-05 0.000100704 1 
0.000108819 0.000122708 1 
0.00011917 0.000182975 1 
0.000104658 0.000311336 1 
5.16441e-05 0.000563516 1 
-5.75859e-05 0.00101808 0.999999 
-0.000279955 0.0017208 0.999998 
-0.000658822 0.00272102 0.999996 
-0.00118494 0.00408266 0.999991 
-0.00177951 0.00592262 0.999981 
-0.00241799 0.00863883 0.99996 
-0.00304931 0.0124888 0.999917 
-0.00349163 0.0182491 0.999827 
-0.00332878 0.0278747 0.999606 
-0.00164954 0.0415135 0.999137 
0.00194498 0.0580499 0.998312 
0.00414702 0.0785125 0.996905 
0.0109587 0.0986525 0.995062 
0.0253167 0.104445 0.994208 
0.0434643 0.116609 0.992226 
0.030562 0.141822 0.98942 
0.028918 0.168178 0.985332 
0.0396859 0.188734 0.981226 
0.0254269 0.227982 0.973333 
-0.0275072 0.194318 -0.980553 
-0.0138795 0.157756 -0.987381 
-0.0265261 0.145861 -0.988949 
-0.0151058 0.116209 -0.99311 
-0.0151567 0.0919925 -0.995644 
-0.00759467 0.0763076 -0.997055 
-0.00270064 0.0598863 -0.998202 
0.0015005 0.0451894 -0.998977 
0.00232666 0.0317997 -0.999492 
0.00246635 0.0223602 -0.999747 
0.00217163 0.015714 -0.999874 
0.0020306 0.0109433 -0.999938 
0.00175371 0.00757772 -0.99997 
0.00136134 0.00527577 -0.999985 
0.000903467 0.00363876 -0.999993 
0.000467113 0.00245869 -0.999997 
0.000152018 0.00159387 -0.999999 
-8.56869e-06 0.000960132 -1 
-8.07741e-05 0.00055047 -1 
-0.000100948 0.000304442 -1 
-0.000114745 0.0001817 -1 
-0.000101711 0.000123346 -1 
-8.81371e-05 9.92861e-05 -1 
-6.3619e-05 9.81071e-05 -1 
-3.27782e-05 0.00011184 -1 
3.94162e-07 0.000128996 -1 
2.9064e-05 0.000143515 -1 
4.74929e-05 0.000157938 -1 
5.57155e-05 0.000165707 -1 
5.15771e-05 0.000170091 -1 
4.75499e-05 0.000166597 -1 
4.04371e-05 0.000161811 -1 
3.01757e-05 0.000154935 -1 
2.58257e-05 0.0001484 -1 
1.87805e-05 0.000139778 -1 
1.70321e-05 0.000131751 -1 
2.05848e-05 0.000123413 -1 
3.33477e-05 0.000124973 -1 
6.87939e-05 0.000102315 -1 
-6.00362e-05 6.67799e-05 1 
-3.88965e-05 0.0001011 1 
-2.4063e-05 0.000111039 1 
-2.10139e-05 0.00012467 1 
-2.38519e-05 0.000137218 1 
-2.96056e-05 0.000146114 1 
-3.71395e-05 0.000153621 1 
-4.52337e-05 0.000158061 1 
-5.31658e-05 0.000158485 1 
-6.02508e-05 0.00015447 1 
-6.3044e-05 0.00014609 1 
-5.82748e-05 0.000134863 1 
-4.27768e-05 0.000119243 1 
-1.57544e-05 0.0001001 1 
2.19189e-05 8.17738e-05 1 
6.68566e-05 6.71652e-05 1 
0.0001089 7.70144e-05 1 
0.000150685 0.000109331 1 
0.000176518 0.000187337 1 
0.000179011 0.000344007 1 
0.000147115 0.000641883 1 
7.16616e-05 0.00115357 0.999999 
-0.000126345 0.00192724 0.999998 
-0.000482504 0.00299147 0.999995 
-0.000963854 0.00441154 0.99999 
-0.00154282 0.00632881 0.999979 
-0.002155 0.0089045 0.999958 
-0.00251068 0.012512 0.999919 
-0.00249386 0.0177481 0.999839 
-0.00153944 0.0260284 0.99966 
0.00169679 0.0376692 0.999289 
0.00828079 0.0532348 0.998548 
0.0148887 0.0732009 0.997206 
0.0293692 0.0844995 0.995991 
0.047667 0.090992 0.99471 
0.0693243 0.100063 0.992563 
0.0701549 0.128798 0.989186 
0.057426 0.151396 0.986804 
0.0553161 0.234508 0.970539 
0.0684377 0.25776 0.963782 
-0.0313596 0.185034 -0.982232 
-0.0437729 0.174413 -0.983699 
-0.0335775 0.118431 -0.992394 
-0.0434946 0.10127 -0.993908 
-0.0284812 0.082329 -0.996198 
-0.0180403 0.0644083 -0.997761 
-0.0101779 0.0499358 -0.998701 
-0.00343867 0.0413671 -0.999138 
-0.000792135 0.0301122 -0.999546 
0.000621047 0.0213369 -0.999772 
0.00116501 0.0150209 -0.999887 
0.00144107 0.0105047 -0.999944 
0.00138871 0.00741572 -0.999972 
0.00107889 0.00520463 -0.999986 
0.000631848 0.00362759 -0.999993 
0.000219272 0.00249835 -0.999997 
-5.46411e-05 0.0016477 -0.999999 
-0.000158126 0.00102236 -0.999999 
-0.000182952 0.00059201 -1 
-0.000168874 0.000324156 -1 
-0.000162563 0.000177816 -1 
-0.000136187 0.000108523 -1 
-0.000111783 7.39952e-05 -1 
-7.88339e-05 6.54658e-05 -1 
-4.10918e-05 7.43677e-05 -1 
-1.82557e-06 9.15497e-05 -1 
3.16647e-05 0.000112015 -1 
5.33142e-05 0.000133741 -1 
6.28942e-05 0.000148186 -1 
6.16735e-05 0.000160607 -1 
5.49947e-05 0.000163732 -1 
4.57681e-05 0.00016396 -1 
3.55832e-05 0.000159419 -1 
2.72392e-05 0.000152504 -1 
2.09646e-05 0.000141434 -1 
1.76656e-05 0.000130117 -1 
1.8684e-05 0.000114695 -1 
3.18184e-05 0.000104298 -1 
4.96066e-05 6.81287e-05 -1 
-3.00477e-05 4.83951e-05 1 
-2.35326e-05 8.76013e-05 1 
-1.64189e-05 0.000108058 1 
-1.76474e-05 0.000124821 1 
-2.1213e-05 0.000140009 1 
-2.73865e-05 0.000150228 1 
-3.5009e-05 0.000159173 1 
-4.40126e-05 0.000160017 1 
-5.30436e-05 0.000157379 1 
-6.02894e-05 0.000147911 1 
-6.25405e-05 0.000132246 1 
-5.65427e-05 0.000113181 1 
-3.93379e-05 9.00213e-05 1 
-9.7694e-06 6.59278e-05 1 
3.10191e-05 4.61067e-05 1 
8.31439e-05 3.35513e-05 1 
0.000134117 4.7797e-05 1 
0.000188545 8.89764e-05 1 
0.000229372 0.000178591 1 
0.000251894 0.00035475 1 
0.000255485 0.000669866 1 
0.000230864 0.00121116 0.999999 
0.000106839 0.00201875 0.999998 
-0.000158955 0.00312532 0.999995 
-0.000511454 0.00454867 0.99999 
-0.000937857 0.00637575 0.999979 
-0.00134923 0.00883112 0.99996 
-0.00134436 0.0121337 0.999925 
-0.000811333 0.0169614 0.999856 
0.000997024 0.0237489 0.999717 
0.0053764 0.0337785 0.999415 
0.0138301 0.0465021 0.998822 
0.0237133 0.0611252 0.997848 
0.038263 0.06646 0.997055 
0.059457 0.0700013 0.995773 
0.0930088 0.0919719 0.991408 
0.104598 0.129634 0.98603 
0.091535 0.164665 0.982093 
0.066966 0.193053 0.9789 
0.0922769 0.229405 0.968947 
-0.0378098 0.211037 -0.976746 
-0.0554487 0.145608 -0.987787 
-0.0763449 0.130484 -0.988507 
-0.0661097 0.0950809 -0.993272 
-0.0451916 0.0713358 -0.996428 
-0.0298933 0.0567911 -0.997938 
-0.0166484 0.0442085 -0.998884 
-0.00703401 0.0324591 -0.999448 
-0.00294949 0.0237111 -0.999715 
-0.000899777 0.0174295 -0.999848 
0.000141083 0.0123624 -0.999924 
0.000653663 0.00893001 -0.99996 
0.000740643 0.00652997 -0.999978 
0.000505024 0.00468613 -0.999989 
0.000135927 0.00333355 -0.999994 
-0.000158569 0.00233304 -0.999997 
-0.000310493 0.0015602 -0.999999 
-0.000319368 0.00097989 -0.999999 
-0.000276292 0.000563649 -1 
-0.000227001 0.000303497 -1 
-0.000198571 0.000150949 -1 
-0.000160181 7.9278e-05 -1 
-0.000125025 3.83036e-05 -1 
-8.63534e-05 2.74909e-05 -1 
-4.37935e-05 3.77082e-05 -1 
-2.79597e-06 5.63093e-05 -1 
3.315e-05 8.66161e-05 -1 
5.43441e-05 0.000115133 -1 
6.29914e-05 0.000137689 -1 
6.19744e-05 0.000154695 -1 
5.37452e-05 0.000163732 -1 
4.27312e-05 0.000168069 -1 
3.37389e-05 0.000164306 -1 
2.47393e-05 0.00015828 -1 
1.9198e-05 0.000145522 -1 
1.45005e-05 0.000130482 -1 
1.13233e-05 0.000111897 -1 
1.8012e-05 9.10979e-05 -1 
1.62547e-05 5.43474e-05 -1 
9.7713e-06 5.05024e-05 1 
-5.18059e-06 8.01926e-05 1 
-5.19741e-06 0.000103801 1 
-1.03765e-05 0.000125356 1 
-1.54415e-05 0.000141275 1 
-2.18234e-05 0.000154946 1 
-2.86197e-05 0.000164218 1 
-3.73588e-05 0.000167085 1 
-4.65017e-05 0.000163237 1 
-5.45997e-05 0.00015217 1 
-5.88314e-05 0.000132039 1 
-5.56585e-05 0.000105454 1 
-4.2718e-05 7.56238e-05 1 
-1.79115e-05 4.39326e-05 1 
1.94904e-05 1.67697e-05 1 
6.79052e-05 5.28338e-07 1 
0.000129476 1.24435e-06 1 
0.000190655 3.10597e-05 1 
0.000252971 0.000100378 1 
0.000302672 0.000240134 1 
0.000342658 0.000492563 1 
0.000370183 0.000927875 1 
0.000362188 0.00164519 0.999999 
0.000251475 0.00263462 0.999996 
5.04661e-05 0.00388651 0.999992 
-0.000209378 0.00551887 0.999985 
-0.000450039 0.00767498 0.99997 
-0.000363319 0.0101965 0.999948 
0.000189551 0.013828 0.999904 
0.00196461 0.0186994 0.999823 
0.00573128 0.0254514 0.99966 
0.0122197 0.0341377 0.999342 
0.0231192 0.043402 0.99879 
0.0352268 0.0465183 0.998296 
0.0527126 0.0493568 0.997389 
0.0929035 0.0638904 0.993623 
0.13783 0.102923 0.985094 
0.143314 0.154943 0.977473 
0.116221 0.194686 0.973956 
0.0998905 0.305788 0.946845 
-0.0326986 0.18086 -0.982965 
-0.0748886 0.1901 -0.978904 
-0.10955 0.115308 -0.98727 
-0.0816233 0.0743668 -0.993885 
-0.0551601 0.0549439 -0.996965 
-0.0343376 0.0406193 -0.998585 
-0.0208219 0.0354464 -0.999155 
-0.0106473 0.0290436 -0.999521 
-0.00499143 0.0198851 -0.99979 
-0.00247736 0.0148507 -0.999887 
-0.00101451 0.0112841 -0.999936 
-0.00015862 0.00837068 -0.999965 
0.00010664 0.00618492 -0.999981 
-3.03062e-06 0.00450266 -0.99999 
-0.000275727 0.003218 -0.999995 
-0.000464839 0.00227009 -0.999997 
-0.000515017 0.00153617 -0.999999 
-0.000451443 0.000967271 -0.999999 
-0.000362025 0.000560854 -1 
-0.000283386 0.000293168 -1 
-0.000235392 0.000137219 -1 
-0.000185742 4.60049e-05 -1 
-0.000143626 1.68858e-06 -1 
-9.844e-05 -1.4785e-05 -1 
-5.32619e-05 -3.16448e-06 -1 
-1.07479e-05 1.88251e-05 -1 
2.45666e-05 5.6477e-05 -1 
4.82411e-05 9.48907e-05 -1 
5.78339e-05 0.000127 -1 
5.7778e-05 0.000152601 -1 
4.8447e-05 0.000168178 -1 
3.72073e-05 0.000175475 -1 
2.92809e-05 0.000171711 -1 
2.03949e-05 0.000164814 -1 
1.49243e-05 0.000150132 -1 
8.9375e-06 0.000133635 -1 
1.80969e-06 0.000116404 -1 
1.88932e-07 9.26879e-05 -1 
-1.23981e-05 6.00305e-05 -1 
3.4811e-05 6.64368e-05 1 
1.41346e-05 9.4283e-05 1 
1.97685e-06 0.000117465 1 
-5.91847e-06 0.00013682 1 
-1.33334e-05 0.00015297 1 
-1.92511e-05 0.000166304 1 
-2.62647e-05 0.000174464 1 
-3.42658e-05 0.000175742 1 
-4.25452e-05 0.000169419 1 
-5.04157e-05 0.000151488 1 
-5.31455e-05 0.00012168 1 
-4.76824e-05 8.58903e-05 1 
-3.29039e-05 4.67483e-05 1 
-7.0784e-06 8.0514e-06 1 
3.07707e-05 -2.36309e-05 1 
8.34802e-05 -4.02621e-05 1 
0.000145841 -4.14112e-05 1 
0.0002142 -6.23601e-06 1 
0.00028786 7.25733e-05 1 
0.000352032 0.000219067 1 
0.000410462 0.000486854 1 
0.000466444 0.000960423 0.999999 
0.000514271 0.00168518 0.999998 
0.000497072 0.0026596 0.999996 
0.000394873 0.00396257 0.999992 
0.000263922 0.00565694 0.999984 
0.000306215 0.00745931 0.999972 
0.000600433 0.00989015 0.999951 
0.00153441 0.0128318 0.999916 
0.00367038 0.0167061 0.999854 
0.00786149 0.021757 0.999732 
0.0144132 0.0281805 0.999499 
0.021124 0.029168 0.999351 
0.0317542 0.0306717 0.999025 
0.0487801 0.0314637 0.998314 
0.0784575 0.0402851 0.996103 
0.150437 0.0679803 0.98628 
0.203102 0.151543 0.967359 
0.177245 0.216114 0.960145 
0.132821 0.259386 0.956597 
-0.0503281 0.202486 -0.977991 
-0.110265 0.173579 -0.978628 
-0.115403 0.0735917 -0.990589 
-0.0752408 0.0355449 -0.996532 
-0.0470082 0.0302746 -0.998436 
-0.0272162 0.0242587 -0.999335 
-0.0172787 0.0236082 -0.999572 
-0.00981685 0.0208178 -0.999735 
-0.00548161 0.0149671 -0.999873 
-0.00304912 0.0115462 -0.999929 
-0.00141555 0.00906178 -0.999958 
-0.000648719 0.00697833 -0.999975 
-0.000435556 0.00520963 -0.999986 
-0.000518658 0.00380111 -0.999993 
-0.000680295 0.0027181 -0.999996 
-0.000723952 0.00191671 -0.999998 
-0.000637175 0.00127084 -0.999999 
-0.000504173 0.000780297 -1 
-0.000383751 0.000421435 -1 
-0.000303996 0.000201872 -1 
-0.000240658 6.40842e-05 -1 
-0.000190811 -1.29222e-05 -1 
-0.000141049 -4.87587e-05 -1 
-9.26969e-05 -5.74766e-05 -1 
-4.79277e-05 -3.81987e-05 -1 
-6.69173e-06 -4.55083e-06 -1 
2.55163e-05 4.31636e-05 -1 
4.44438e-05 8.75032e-05 -1 
5.24938e-05 0.000129883 -1 
5.16203e-05 0.000157104 -1 
4.22238e-05 0.000176291 -1 
3.08608e-05 0.000184849 -1 
2.31716e-05 0.000180078 -1 
1.56013e-05 0.000171448 -1 
1.05208e-05 0.000155399 -1 
3.54208e-06 0.00014027 -1 
-6.52302e-06 0.000123589 -1 
-1.45518e-05 0.000101149 -1 
-3.29421e-05 7.52415e-05 -1 
5.19664e-05 8.64502e-05 1 
2.79414e-05 0.000109626 1 
1.11279e-05 0.000125781 1 
4.76015e-07 0.000144522 1 
-8.08904e-06 0.00016016 1 
-1.37491e-05 0.000174181 1 
-1.97331e-05 0.000184096 1 
-2.66966e-05 0.000187984 1 
-3.45366e-05 0.000183383 1 
-4.28616e-05 0.000164776 1 
-4.75119e-05 0.000132674 1 
-4.35759e-05 8.81848e-05 1 
-3.15184e-05 3.97262e-05 1 
-1.07975e-05 -7.59179e-06 1 
2.07089e-05 -4.99987e-05 1 
6.65245e-05 -7.85388e-05 1 
0.000124398 -9.08655e-05 1 
0.000195182 -7.09948e-05 1 
0.000273183 -9.59419e-06 1 
0.000345065 0.000107431 1 
0.000409692 0.000316501 1 
0.000488094 0.000691583 1 
0.000587301 0.00127188 0.999999 
0.000688004 0.00209595 0.999998 
0.000722139 0.00315917 0.999995 
0.000697651 0.00456564 0.999989 
0.000815442 0.00598136 0.999982 
0.00106121 0.00781317 0.999969 
0.00172898 0.00977065 0.999951 
0.00312362 0.0121629 0.999921 
0.00591785 0.0153066 0.999865 
0.0110029 0.0186 0.999766 
0.0177622 0.0193315 0.999655 
0.027917 0.0186286 0.999437 
0.0488922 0.0171154 0.998657 
0.0819421 0.0157955 0.996512 
0.124039 0.0279963 0.991882 
0.247422 0.100517 0.96368 
0.265863 0.253134 0.930183 
0.174088 0.335417 0.925845 
-0.0725539 0.279186 -0.957492 
-0.164155 0.161002 -0.973207 
-0.114799 0.0266184 -0.993032 
-0.064844 0.00453161 -0.997885 
-0.0384289 0.0122969 -0.999186 
-0.0221701 0.011983 -0.999682 
-0.0147529 0.0133215 -0.999802 
-0.0102024 0.0148105 -0.999838 
-0.00613331 0.0116976 -0.999913 
-0.00341861 0.0090273 -0.999953 
-0.00193942 0.0077488 -0.999968 
-0.00114167 0.00618138 -0.99998 
-0.000868623 0.00464131 -0.999989 
-0.000905621 0.00333138 -0.999994 
-0.000948963 0.00244705 -0.999997 
-0.000876067 0.0017103 -0.999998 
-0.000695696 0.00112513 -0.999999 
-0.000514268 0.00065842 -1 
-0.000391337 0.000346845 -1 
-0.000308161 0.000133699 -1 
-0.000252728 1.93686e-05 -1 
-0.000197902 -6.49508e-05 -1 
-0.000148578 -9.71363e-05 -1 
-9.95326e-05 -0.000101805 -1 
-5.24457e-05 -7.74644e-05 -1 
-1.35337e-05 -3.62214e-05 -1 
1.95654e-05 2.29595e-05 -1 
3.95778e-05 7.98084e-05 -1 
4.64935e-05 0.000130868 -1 
4.36014e-05 0.000167817 -1 
3.36022e-05 0.000190378 -1 
2.33228e-05 0.000197929 -1 
1.78829e-05 0.000190254 -1 
1.1636e-05 0.000181571 -1 
7.08325e-06 0.000164659 -1 
-5.79508e-07 0.000149257 -1 
-1.23428e-05 0.000135229 -1 
-2.54419e-05 0.000115295 -1 
-4.59828e-05 9.27808e-05 -1 
6.44117e-05 0.000108644 1 
3.68279e-05 0.000129334 1 
1.68555e-05 0.000140051 1 
3.22671e-06 0.000155823 1 
-5.64678e-06 0.00017049 1 
-1.10614e-05 0.000184353 1 
-1.61058e-05 0.000196627 1 
-2.18508e-05 0.000201911 1 
-2.92857e-05 0.000197406 1 
-3.72847e-05 0.000175873 1 
-4.22009e-05 0.00013849 1 
-3.82607e-05 8.69454e-05 1 
-2.71249e-05 2.98733e-05 1 
-7.87431e-06 -2.91928e-05 1 
2.10417e-05 -8.34293e-05 1 
6.0856e-05 -0.000121223 1 
0.000113361 -0.000139831 1 
0.000177837 -0.00012904 1 
0.00025245 -7.29409e-05 1 
0.000320316 3.17303e-05 1 
0.000392556 0.00022756 1 
0.000477815 0.000551253 1 
0.000605129 0.00104901 0.999999 
0.000762795 0.00172911 0.999998 
0.000896974 0.00263153 0.999996 
0.000969895 0.00377542 0.999992 
0.00110848 0.00484202 0.999988 
0.00133654 0.00624703 0.99998 
0.00188518 0.00771293 0.999968 
0.00308992 0.00945203 0.999951 
0.00548611 0.0116175 0.999917 
0.00932688 0.0129558 0.999873 
0.0149751 0.0120177 0.999816 
0.0265306 0.00890488 0.999608 
0.047811 0.000478235 0.998856 
0.0784517 -0.013925 0.996821 
0.16409 0.0182012 0.986277 
-0.11311 -0.0250677 -0.993266 
-0.0526043 -0.0211361 -0.998392 
-0.0313997 -0.00266555 -0.999503 
-0.0185114 0.00336169 -0.999823 
-0.0107245 0.00614461 -0.999924 