# vtk DataFile Version 3.0 
Exported using Morpho https://github.com/Morpho-lang/morpho 
ASCII 
DATASET UNSTRUCTURED_GRID 

POINTS 1978 float 
-12 -4 -6.86464e-11 
-11.614 -4.00001 -7.10603e-11 
-11.319 -4.00001 2.45484e-11 
-10.9794 -4.00001 -1.38617e-10 
-10.6522 -4.00001 1.59449e-10 
-10.3018 -4.00001 6.96512e-12 
-9.99714 -4.00001 1.86184e-11 
-9.65116 -4.00001 1.89076e-10 
-9.30786 -4.00001 1.47996e-11 
-8.99824 -4.00001 5.21894e-11 
-8.69115 -4.00001 1.33677e-10 
-8.38074 -4.00001 1.41353e-11 
-8.0834 -4.00001 6.42662e-11 
-7.76658 -4.00001 1.43856e-11 
-7.47519 -4.00001 -3.08506e-11 
-7.19382 -4.00001 1.18479e-10 
-6.9119 -4.00001 6.1692e-11 
-6.6035 -4.00001 2.096e-10 
-6.29879 -4.00001 4.14942e-10 
-5.99042 -4.00001 4.35508e-10 
-5.68917 -4.00001 1.29317e-10 
-5.39093 -4.00001 -1.02106e-10 
-5.10447 -4.00001 -4.96655e-11 
-4.80864 -4.00001 -4.4402e-10 
-4.50666 -4.00001 -1.25891e-09 
-4.20666 -4.00001 -1.47666e-09 
-3.90537 -4.00001 1.14362e-09 
-3.57589 -4.00001 2.67162e-09 
-3.25943 -4.00001 5.9947e-12 
-2.94764 -4.00001 -1.74128e-09 
-2.62659 -4.00001 2.37993e-09 
-2.3296 -4.00001 1.31527e-08 
-2.07074 -4 3.12019e-08 
-1.78861 -4 6.93696e-08 
-1.61506 -4.00001 5.62455e-08 
-1.41283 -4.00001 6.03963e-08 
-1.27529 -3.99998 2.66555e-07 
-1.1102 -4.00005 -2.00297e-06 
-0.937369 -4.00009 4.79415e-06 
-0.205192 -3.99921 4.59895e-05 
0.402486 -3.99983 -9.73913e-06 
0.756611 -3.99999 1.86396e-07 
1.05996 -4.00002 -5.47194e-07 
1.23755 -4 -1.5665e-07 
1.47803 -4 -1.05061e-07 
1.72659 -4.00001 -7.01625e-08 
1.9778 -4 -3.63077e-08 
2.30111 -4.00002 -8.5443e-10 
2.61003 -4.00001 1.23367e-09 
2.96068 -4.00001 -1.20054e-09 
3.26551 -4.00001 -5.4375e-10 
3.56324 -4.00001 -1.83615e-09 
3.87225 -4.00001 -7.45699e-10 
4.18836 -4.00001 2.5345e-09 
4.49061 -4.00001 8.5953e-10 
4.79226 -4.00001 -1.70161e-10 
5.0956 -4.00001 3.21019e-10 
5.39552 -4.00001 5.97716e-11 
5.69926 -4.00001 -1.03277e-10 
5.99246 -4.00001 -4.05844e-10 
6.29631 -4.00001 -3.91186e-10 
6.57761 -4.00001 -2.14775e-10 
6.89328 -4.00001 -6.11581e-12 
7.18665 -4.00001 -9.25781e-11 
7.48485 -4.00001 4.30823e-11 
7.78436 -4.00001 -7.65618e-11 
8.07812 -4.00001 9.97351e-12 
8.36032 -4.00001 -1.86902e-11 
8.66076 -4.00001 -1.49034e-10 
8.94387 -4.00001 2.13639e-11 
9.28914 -4.00001 -7.49216e-11 
9.61812 -4.00001 -1.41656e-10 
9.91244 -4.00001 6.04052e-11 
10.2805 -4.00001 -1.13066e-10 
10.6027 -4.00001 1.21274e-11 
10.9819 -4.00001 4.02786e-11 
11.3035 -4.00001 -1.13815e-11 
11.5906 -4.00001 5.24285e-11 
12 -4.00001 8.11582e-11 
-12 -3.61661 1.13579e-10 
-11.7104 -3.71259 2.61731e-13 
-11.362 -3.62497 -5.73981e-15 
-11.0546 -3.67386 -6.83106e-14 
-10.7163 -3.66248 5.98947e-14 
-10.3817 -3.68682 1.63258e-14 
-10.0408 -3.64454 7.1006e-14 
-9.7233 -3.69008 5.0174e-14 
-9.37902 -3.68885 6.2464e-14 
-9.04918 -3.66117 2.86347e-14 
-8.73788 -3.66 3.9807e-14 
-8.42428 -3.66823 -2.71435e-15 
-8.1103 -3.65603 -6.10511e-14 
-7.80561 -3.67832 -6.77951e-14 
-7.48971 -3.65466 -2.17691e-13 
-7.19326 -3.64125 7.52266e-15 
-6.88225 -3.67345 -3.11723e-13 
-6.57509 -3.66726 -1.56897e-13 
-6.26364 -3.67242 -9.72091e-14 
-5.95749 -3.66846 -1.55985e-13 
-5.65355 -3.668 -3.68285e-13 
-5.36007 -3.65649 -1.17133e-13 
-5.06023 -3.66667 6.35634e-13 
-4.75214 -3.67202 1.74086e-12 
-4.44554 -3.6673 2.01655e-13 
-4.1338 -3.66716 8.97645e-12 
-3.79981 -3.69666 6.70313e-13 
-3.46756 -3.68048 -7.37815e-12 
-3.13926 -3.67056 -5.96722e-11 
-2.80695 -3.68404 -5.96343e-10 
-2.49304 -3.67313 -4.29938e-10 
-2.19749 -3.64064 -4.52225e-09 
-1.90148 -3.71496 -4.47892e-09 
-1.65025 -3.63108 3.7558e-10 
-1.46668 -3.74097 4.03791e-08 
-1.40876 -3.44477 1.02888e-08 
-1.26884 -3.63691 7.00524e-08 
-1.11489 -3.76005 1.13644e-07 
-0.818533 -3.93442 5.18079e-07 
-0.169499 -3.83862 3.23723e-05 
0.398328 -3.83766 -9.45833e-06 
0.863558 -3.86169 -5.54555e-08 
1.29323 -3.73411 1.1961e-09 
1.54122 -3.69519 6.82175e-10 
1.76262 -3.67758 -1.95702e-09 
1.98929 -3.65101 -1.51512e-09 
2.22161 -3.72787 9.13752e-10 
2.49022 -3.70178 2.51699e-10 
2.78131 -3.72059 1.31877e-11 
3.07173 -3.67238 -4.34119e-11 
3.35741 -3.65628 -5.25635e-12 
3.65574 -3.66315 -2.55689e-12 
3.96539 -3.67059 -6.48431e-13 
4.26735 -3.66001 -1.10195e-12 
4.56557 -3.66372 -9.66917e-13 
4.86536 -3.66858 -5.6427e-13 
5.1615 -3.66677 -7.08307e-16 
5.46138 -3.67209 -1.77181e-13 
5.75349 -3.65998 1.39899e-12 
6.05459 -3.67043 -4.03369e-13 
6.33984 -3.64304 4.18589e-13 
6.64746 -3.68168 -9.1247e-14 
6.94604 -3.65826 1.50505e-13 
7.24668 -3.66458 1.5397e-13 
7.54983 -3.66587 2.41048e-13 
7.84844 -3.65685 9.855e-14 
8.14132 -3.64175 -1.04419e-13 
8.43858 -3.66402 2.51607e-13 
8.73116 -3.63992 -2.60188e-13 
9.05564 -3.70246 5.5811e-14 
9.39031 -3.68332 -7.62642e-14 
9.69789 -3.64145 -8.98536e-14 
10.0379 -3.71127 -8.14943e-15 
10.3738 -3.66512 -6.87501e-14 
10.7339 -3.71243 -1.81797e-14 
11.0712 -3.65645 2.7587e-14 
11.37 -3.6132 2.07543e-14 
11.7178 -3.72723 -2.91404e-13 
12 -3.60753 -1.02544e-10 
-12 -3.32302 1.18313e-11 
-11.6217 -3.36578 1.63775e-13 
-11.2742 -3.28192 -1.12989e-14 
-10.9588 -3.34073 -1.32611e-14 
-10.6489 -3.29706 1.57875e-14 
-10.3556 -3.3589 1.4557e-14 
-10.0426 -3.29633 -6.93102e-14 
-9.73022 -3.34896 2.47988e-14 
-9.41592 -3.37109 1.00575e-14 
-9.0952 -3.33105 1.29438e-15 
-8.78709 -3.31874 6.52346e-15 
-8.48237 -3.33351 -6.59218e-15 
-8.17506 -3.32757 1.63561e-16 
-7.8586 -3.33713 -3.54234e-15 
-7.55567 -3.33648 -1.26457e-13 
-7.2431 -3.30225 6.60163e-14 
-6.93642 -3.34377 -1.42802e-15 
-6.62725 -3.3359 8.69533e-14 
-6.31754 -3.345 1.19207e-14 
-6.00851 -3.33912 1.30568e-14 
-5.70415 -3.33941 4.16089e-14 
-5.40273 -3.32028 3.72584e-13 
-5.10496 -3.33442 -5.27752e-15 
-4.80231 -3.3476 1.42066e-12 
-4.49404 -3.33716 3.53986e-14 
-4.18653 -3.34141 1.78377e-11 
-3.86136 -3.3848 5.11047e-11 
-3.53007 -3.37086 1.28555e-10 
-3.19222 -3.35452 2.70891e-10 
-2.84565 -3.36891 1.3643e-09 
-2.50652 -3.34036 1.71468e-09 
-2.19703 -3.29614 4.08762e-09 
-1.93453 -3.39751 9.59791e-09 
-1.66844 -3.34437 1.89783e-08 
-1.46187 -3.18979 -9.14708e-09 
-1.22248 -3.1207 -8.74405e-09 
-1.16346 -3.39198 4.97176e-08 
-1.03559 -3.61828 1.05822e-07 
-0.889064 -3.60744 1.69266e-07 
-0.68895 -3.87186 -2.32283e-07 
0.657623 -3.73759 -2.84517e-08 
1.06379 -3.70992 -3.1958e-08 
1.08213 -3.46704 -4.39584e-08 
1.3386 -3.45941 -7.39056e-09 
1.50944 -3.28465 -9.62355e-09 
1.71727 -3.3149 -2.29864e-09 
1.94556 -3.32011 -4.90551e-09 
2.2173 -3.39352 -2.99012e-09 
2.50908 -3.39348 -1.64061e-09 
2.81237 -3.39771 -5.8674e-10 
3.1288 -3.34015 -1.23359e-10 
3.46262 -3.33487 -6.09631e-11 
3.80093 -3.34783 -2.19233e-11 
4.13028 -3.3346 -9.25931e-12 
4.45366 -3.33029 -3.53735e-12 
4.76851 -3.34002 -1.13206e-12 
5.07955 -3.33583 -3.2594e-13 
5.38822 -3.34568 -8.62102e-13 
5.69362 -3.32703 -3.11551e-14 
5.99951 -3.34341 1.46509e-13 
6.30394 -3.2992 7.54454e-14 
6.60578 -3.35136 2.43445e-13 
6.91052 -3.32435 3.48881e-14 
7.2143 -3.33042 -1.23754e-14 
7.51877 -3.3345 -5.00826e-14 
7.82406 -3.3193 -2.08872e-14 
8.12664 -3.29998 7.90432e-14 
8.43389 -3.31828 1.6531e-14 
8.75446 -3.32067 -2.85404e-14 
9.07789 -3.38821 2.8543e-14 
9.39071 -3.3442 -2.25881e-14 
9.70656 -3.30217 2.66083e-14 
10.0188 -3.39348 -2.83897e-14 
10.3116 -3.31051 3.13488e-14 
10.6324 -3.39531 1.39383e-14 
10.9628 -3.34686 7.31966e-15 
11.2901 -3.25651 1.85538e-15 
11.63 -3.37446 -1.70698e-13 
12 -3.30767 -4.62349e-11 
-12 -2.98578 9.49437e-11 
-11.6708 -3.05916 2.27154e-13 
-11.3342 -2.96871 4.8269e-14 
-10.9817 -2.98527 -5.64677e-14 
-10.6426 -2.97142 8.78312e-15 
-10.3037 -2.99599 -5.84161e-14 
-9.96912 -2.96492 8.81262e-14 
-9.66073 -3.01442 -3.26316e-14 
-9.35365 -3.02773 -1.27365e-14 
-9.04731 -2.98162 3.70252e-15 
-8.73823 -2.9806 -2.95029e-15 
-8.43268 -2.99838 2.04761e-15 
-8.1168 -3.00382 -4.35176e-16 
-7.81199 -2.999 4.76955e-15 
-7.50766 -3.0036 1.40921e-15 
-7.20344 -2.96785 -5.7633e-14 
-6.90544 -3.01488 -9.45852e-14 
-6.59622 -3.00767 1.37665e-13 
-6.28867 -3.01715 6.33173e-15 
-5.98552 -3.00928 3.03862e-14 
-5.68418 -3.0095 1.15658e-13 
-5.38681 -2.98842 -3.22075e-13 
-5.08669 -3.00785 6.23116e-13 
-4.78672 -3.02126 -1.97487e-12 
-4.48523 -3.00642 8.4226e-12 
-4.17281 -3.01762 -3.50449e-12 
-3.86025 -3.07059 5.66275e-12 
-3.53693 -3.05273 5.94e-11 
-3.20502 -3.03804 1.27013e-10 
-2.85445 -3.05216 5.64505e-11 
-2.5073 -3.0205 -8.82463e-11 
-2.1346 -2.99466 -1.94874e-09 
-1.82929 -3.06695 -8.38739e-09 
-1.54141 -2.93896 1.19023e-09 
-1.27437 -2.84978 -3.72407e-09 
-1.01925 -2.83028 -6.91998e-09 
-0.966361 -3.06397 5.50331e-08 
-0.975938 -3.29943 3.56293e-08 
-0.599875 -3.78856 1.15984e-07 
-0.429128 -3.74333 9.35492e-07 
0.851004 -3.63372 -6.20745e-09 
0.840309 -3.40608 -7.15516e-08 
1.15572 -3.21681 -1.57151e-08 
1.16852 -3.00632 3.62536e-09 
1.42371 -2.96191 3.04046e-10 
1.68581 -2.94236 4.58629e-10 
1.94979 -2.94795 2.76182e-09 
2.19269 -3.07138 -7.20765e-12 
2.47923 -3.07582 4.58282e-10 
2.79574 -3.07821 1.84312e-10 
3.13368 -3.03158 -2.62315e-11 
3.48091 -3.0274 -8.50551e-12 
3.82226 -3.03254 -3.57014e-12 
4.15472 -3.01467 -1.35961e-12 
4.4762 -3.00726 -3.40848e-13 
4.78901 -3.0159 -1.88329e-14 
5.09887 -3.01134 -4.6676e-14 
5.40189 -3.01798 9.42481e-13 
5.70489 -2.9992 -7.3564e-13 
6.00857 -3.01613 -1.29995e-13 
6.31435 -2.96841 4.94575e-14 
6.61323 -3.0189 -4.26764e-14 
6.91451 -2.98954 -1.12917e-13 
7.21585 -2.99655 -1.24994e-14 
7.51727 -3.00334 1.71335e-13 
7.82433 -2.98531 -8.20612e-14 
8.12734 -2.96641 3.68017e-14 
8.43786 -2.99242 -1.33456e-13 
8.74068 -2.97726 1.23093e-13 
9.04529 -3.05828 -1.29361e-15 
9.35729 -3.01345 -2.42615e-15 
9.65725 -2.95892 -2.37925e-15 
9.98278 -3.03769 -3.83673e-15 
10.3207 -2.98593 -2.56574e-15 
10.6545 -3.05993 -1.71391e-14 
10.9841 -3.00589 2.62888e-14 
11.337 -2.9346 -3.4216e-14 
11.6642 -3.06121 -2.39771e-13 
12 -2.97736 -1.27087e-10 
-12 -2.67082 2.0828e-11 
-11.6503 -2.72101 1.59727e-13 
-11.3255 -2.63146 -8.76812e-15 
-11.0013 -2.6673 2.92285e-14 
-10.658 -2.64686 -1.77693e-15 
-10.3191 -2.67168 1.52255e-14 
-9.98386 -2.64664 -1.20077e-15 
[...]
POINT_DATA 1978 
VECTORS vectors float
-9.51769e-06 0.000214719 1.00001 
1.51355e-06 0.000162275 1.00001 
-7.12615e-08 0.000142522 1.00001 
-2.18899e-06 0.000134204 1.00001 
-4.3813e-06 0.000134965 1.00001 
-6.14546e-06 0.000141726 1.00001 
-8.16491e-06 0.000149842 1.00001 
-1.06631e-05 0.000162725 1.00001 
-1.17041e-05 0.000177712 1.00001 
-1.15947e-05 0.000189826 1.00001 
-1.12967e-05 0.000199169 1.00001 
-9.01009e-06 0.000205607 1.00001 
-3.78637e-06 0.000203717 1.00001 
3.37729e-06 0.000187127 1.00001 
9.30388e-06 0.000159713 1.00001 
1.25383e-05 0.000136025 1.00001 
1.38978e-05 0.000125846 1.00001 
1.25421e-05 0.000136155 1.00001 
8.69936e-06 0.000160319 1.00001 
-5.51343e-06 0.000206882 1.00001 
-4.53964e-05 0.000326108 1.00001 
-0.000122522 0.000614114 1.00001 
-0.000236828 0.00115728 1.00001 
-0.000382592 0.00202721 1.00001 
-0.000556658 0.00318486 1 
-0.000802795 0.00466825 0.999996 
-0.0011993 0.00696074 0.999983 
-0.00159162 0.0106582 0.99995 
-0.00213854 0.015085 0.999892 
-0.0035649 0.0222479 0.999755 
-0.00527996 0.0362838 0.999336 
-0.00655729 0.0570085 0.998359 
-0.0071707 0.0801823 0.996761 
-0.00727734 0.110555 0.99385 
-0.00605017 0.132002 0.991234 
-0.00388377 0.15281 0.98825 
-0.00177922 0.168254 0.985743 
-0.000562824 0.187212 0.982319 
0.00211757 0.197904 0.98023 
0.0167274 0.282289 0.959174 
-0.00718256 0.191741 -0.981397 
-0.00587909 0.19615 -0.980562 
0.00218667 0.175615 -0.984462 
0.00575778 0.154118 -0.98804 
0.00703484 0.122224 -0.992482 
0.00892913 0.0920322 -0.995722 
0.00753036 0.0641329 -0.997921 
0.00527966 0.0402062 -0.999185 
0.00369895 0.0271358 -0.999632 
0.00222166 0.0184477 -0.999835 
0.00175815 0.0128958 -0.999923 
0.00128927 0.00883057 -0.999968 
0.000878228 0.00626243 -0.999988 
0.000666046 0.00441333 -0.999998 
0.000491758 0.00301966 -1 
0.000339723 0.00194465 -1.00001 
0.000213626 0.00113013 -1.00001 
0.000112035 0.000594008 -1.00001 
4.33627e-05 0.000303573 -1.00001 
6.32624e-06 0.000180618 -1.00001 
-8.67775e-06 0.000138866 -1.00001 
-1.36185e-05 0.000124253 -1.00001 
-1.67799e-05 0.00012321 -1.00001 
-1.63554e-05 0.000138555 -1.00001 
-1.3509e-05 0.000169776 -1.00001 
-6.01487e-06 0.000200467 -1.00001 
2.73173e-06 0.000214792 -1.00001 
9.01624e-06 0.000214792 -1.00001 
1.09808e-05 0.000207316 -1.00001 
1.2149e-05 0.000198408 -1.00001 
1.25385e-05 0.000184242 -1.00001 
1.04752e-05 0.000170997 -1.00001 
8.45988e-06 0.000160148 -1.00001 
6.84648e-06 0.000148403 -1.00001 
4.40718e-06 0.000140768 -1.00001 
2.44399e-06 0.000137347 -1.00001 
3.42951e-08 0.00014309 -1.00001 
-1.95835e-06 0.000159714 -1.00001 
8.84667e-06 0.00021206 -1.00001 
-6.70882e-05 0.000167899 1.00001 
-2.92666e-05 0.000155493 1.00001 
-1.8886e-05 0.000133943 1.00002 
-1.31523e-05 0.000131366 1.00002 
-1.34373e-05 0.000132442 1.00002 
-1.56181e-05 0.000139424 1.00001 
-2.13655e-05 0.000147095 1.00002 
-2.40419e-05 0.000156943 1.00002 
-2.8635e-05 0.00016798 1.00002 
-3.3763e-05 0.000175959 1.00002 
-3.49857e-05 0.000181209 1.00002 
-3.15617e-05 0.000183115 1.00002 
-2.39135e-05 0.000176841 1.00002 
-8.09836e-06 0.000164112 1.00002 
1.30194e-05 0.000139142 1.00001 
3.57537e-05 0.000120585 1.00002 
5.21785e-05 0.000119286 1.00002 
6.26096e-05 0.00013708 1.00002 
5.76541e-05 0.000182389 1.00002 
3.51043e-05 0.000281218 1.00002 
-1.98101e-05 0.000492151 1.00001 
-0.000123488 0.000893453 1.00001 
-0.000311332 0.00155439 1.00001 
-0.000615638 0.00254636 1.00001 
-0.00102499 0.00388213 1.00001 
-0.00147978 0.00575014 0.999998 
-0.00192515 0.0086107 0.999977 
-0.00259909 0.0127516 0.999931 
-0.00326159 0.0188768 0.999832 
-0.00368072 0.0291977 0.999583 
-0.00353823 0.0446186 0.999011 
-0.00204401 0.064152 0.997955 
-0.00108729 0.0915738 0.995809 
0.00211027 0.113333 0.993567 
0.000545925 0.138884 0.990316 
0.0151721 0.125426 0.991997 
0.00956395 0.152445 0.988276 
0.00958575 0.17274 0.984928 
0.0116373 0.210471 0.977534 
0.0527388 0.283378 0.957507 
-0.0212181 0.199528 -0.979625 
-0.0127377 0.189519 -0.981802 
-0.00489404 0.132878 -0.99113 
-0.000996444 0.10447 -0.99454 
0.00189222 0.083001 -0.99656 
0.00296842 0.0626349 -0.998043 
0.00399656 0.0461941 -0.998935 
0.00334831 0.03274 -0.999472 
0.00290776 0.0233942 -0.999736 
0.00230018 0.0167052 -0.999872 
0.00198787 0.012066 -0.99994 
0.00170766 0.00854056 -0.999978 
0.00128915 0.00600168 -0.999996 
0.000972865 0.00427354 -1.00001 
0.000654487 0.0029633 -1.00001 
0.000360646 0.00194428 -1.00001 
0.000154799 0.00120076 -1.00001 
3.85992e-05 0.00068343 -1.00001 
-1.87594e-05 0.000385592 -1.00001 
-4.37577e-05 0.000221889 -1.00001 
-6.02447e-05 0.000153163 -1.00002 
-5.72977e-05 0.000123206 -1.00002 
-5.36005e-05 0.000116129 -1.00002 
-3.88927e-05 0.000126635 -1.00002 
-1.91013e-05 0.000149246 -1.00002 
2.34025e-06 0.000170575 -1.00002 
2.11106e-05 0.000181867 -1.00002 
3.1597e-05 0.000189063 -1.00001 
3.76685e-05 0.000185515 -1.00002 
3.23843e-05 0.000183845 -1.00001 
3.01871e-05 0.00017357 -1.00002 
2.73902e-05 0.000163507 -1.00002 
1.85195e-05 0.000154831 -1.00001 
1.54828e-05 0.000144742 -1.00002 
1.09483e-05 0.000137494 -1.00002 
1.18916e-05 0.000134338 -1.00002 
1.67282e-05 0.0001355 -1.00002 
2.59408e-05 0.000156602 -1.00001 
6.31588e-05 0.000164436 -1.00001 
-7.85322e-05 0.000120939 1.00001 
-3.81573e-05 0.000123592 1.00002 
-2.39209e-05 0.000122286 1.00002 
-2.01402e-05 0.00012909 1.00001 
-2.26994e-05 0.000135459 1.00002 
-2.59888e-05 0.000141891 1.00002 
-3.37366e-05 0.000150624 1.00001 
-3.95769e-05 0.000156747 1.00002 
-4.60212e-05 0.000162647 1.00002 
-5.43035e-05 0.000165557 1.00002 
-5.81177e-05 0.000164111 1.00002 
-5.44791e-05 0.000160134 1.00001 
-4.30321e-05 0.000150534 1.00002 
-1.92677e-05 0.000135887 1.00002 
1.19495e-05 0.000116777 1.00002 
5.00468e-05 9.77643e-05 1.00002 
8.40432e-05 0.00010012 1.00001 
0.000113035 0.000120565 1.00002 
0.000124099 0.000178979 1.00002 
0.000109091 0.000303682 1.00001 
5.51869e-05 0.000551651 1.00001 
-5.51782e-05 0.00100799 1.00001 
-0.000281732 0.00171349 1.00001 
-0.000680519 0.00272225 1.00001 
-0.0012456 0.00409193 1.00001 
-0.00187779 0.00592554 0.999998 
-0.00255372 0.00865646 0.999972 
-0.0032474 0.0124933 0.999933 
-0.0037914 0.0182056 0.999845 
-0.00371667 0.0279782 0.999615 
-0.00207486 0.0416655 0.999148 
0.00161293 0.0583706 0.998309 
0.00371292 0.0792814 0.996858 
0.0104327 0.100015 0.994941 
0.0253722 0.105326 0.994125 
0.0431833 0.116513 0.992261 
0.0309511 0.143918 0.989114 
0.0257014 0.171927 0.984784 
0.0422302 0.187061 0.981448 
0.0320842 0.227391 0.973281 
-0.0312167 0.194969 -0.980355 
-0.0133569 0.159878 -0.987055 
-0.026117 0.146026 -0.988945 
-0.0150221 0.116515 -0.993085 
-0.0144838 0.0926937 -0.995603 
-0.00722399 0.0764727 -0.997058 
-0.00208176 0.0602881 -0.998192 
0.00200915 0.0455223 -0.998977 
0.00268503 0.0320326 -0.999497 
0.00269407 0.022323 -0.999759 
0.00232412 0.0157187 -0.999889 
0.00216858 0.0109624 -0.999953 
0.00186273 0.00758758 -0.999985 
0.00144655 0.00528503 -1 
0.000958388 0.00364438 -1.00001 
0.000487458 0.00246331 -1.00001 
0.000152803 0.00159422 -1.00001 
-1.13071e-05 0.000954317 -1.00001 
-8.30855e-05 0.000541595 -1.00002 
-0.000103301 0.000297071 -1.00001 
-0.000118256 0.000177526 -1.00002 
-0.000105116 0.000121699 -1.00001 
-9.12003e-05 9.87868e-05 -1.00002 
-6.60484e-05 9.81167e-05 -1.00002 
-3.38703e-05 0.000112633 -1.00001 
1.2063e-06 0.000130781 -1.00002 
3.15018e-05 0.00014556 -1.00002 
5.05018e-05 0.000160056 -1.00002 
5.88539e-05 0.000167858 -1.00002 
5.39841e-05 0.000172169 -1.00002 
4.95825e-05 0.000168499 -1.00002 
4.19518e-05 0.000163632 -1.00002 
3.12682e-05 0.000156576 -1.00002 
2.68401e-05 0.000149968 -1.00002 
1.92075e-05 0.000141032 -1.00001 
1.72792e-05 0.000132963 -1.00002 
2.06735e-05 0.000124436 -1.00002 
3.34599e-05 0.000125788 -1.00002 
7.05033e-05 0.000117917 -1.00001 
-6.14064e-05 7.77524e-05 1.00001 
-3.91373e-05 0.000101665 1.00002 
-2.41254e-05 0.000111943 1.00002 
-2.11406e-05 0.000125943 1.00002 
-2.42244e-05 0.000138815 1.00001 
-3.02939e-05 0.000147914 1.00002 
-3.79807e-05 0.000155585 1.00002 
-4.63902e-05 0.000160015 1.00001 
-5.47006e-05 0.000160436 1.00002 
-6.21119e-05 0.000156346 1.00002 
-6.53513e-05 0.000147834 1.00001 
-6.0896e-05 0.000136465 1.00002 
-4.53077e-05 0.0001208 1.00002 
-1.75094e-05 0.000101243 1.00002 
2.15595e-05 8.20262e-05 1.00001 
6.78936e-05 6.62659e-05 1.00002 
0.000111048 7.56245e-05 1.00002 
0.000154833 0.000106808 1.00002 
0.00018233 0.000182179 1.00001 
0.000185312 0.00033468 1.00001 
0.000154005 0.000629811 1.00001 
8.22504e-05 0.00114164 1.00001 
-0.00011688 0.0019308 1.00001 
-0.000485316 0.00300793 1.00001 
-0.000987021 0.00442076 1.00001 
-0.00160524 0.00637852 0.999991 
-0.00225207 0.00895918 0.999973 
-0.00264254 0.0125755 0.999933 
-0.00268062 0.0177372 0.999853 
-0.00184342 0.0260067 0.999679 
0.00146177 0.0379402 0.999295 
0.00840041 0.0536814 0.998539 
0.0147293 0.073435 0.997207 
0.0294028 0.0856736 0.995902 
0.0482447 0.0917911 0.994619 
0.0698519 0.10085 0.992457 
0.0702011 0.130466 0.988972 
0.057295 0.151127 0.98686 
0.0527872 0.237573 0.96994 
0.0718958 0.254274 0.964486 
-0.0283073 0.183897 -0.98254 
-0.0442128 0.17415 -0.983736 
-0.0342844 0.119698 -0.992229 
-0.0424324 0.102142 -0.993877 
-0.0290912 0.0819416 -0.996224 
-0.018078 0.065403 -0.997708 
-0.0102099 0.0503736 -0.998692 
-0.00333743 0.0416282 -0.999139 
-0.000631772 0.0300926 -0.999562 
0.000699156 0.0213923 -0.999789 
0.001264 0.0151373 -0.9999 
0.00152549 0.0105539 -0.999959 
0.00145965 0.00746161 -0.999987 
0.00113538 0.00522714 -1 
0.000657129 0.00363942 -1.00001 
0.00021536 0.00250842 -1.00001 
-6.93852e-05 0.00165309 -1.00001 
-0.000168322 0.00101872 -1.00001 
-0.000187401 0.000583446 -1.00001 
-0.000172148 0.000317194 -1.00001 
-0.000165874 0.000173032 -1.00001 
-0.000139119 0.000106331 -1.00002 
-0.000114117 7.28115e-05 -1.00001 
-8.07173e-05 6.46383e-05 -1.00002 
-4.19663e-05 7.39831e-05 -1.00002 
-8.46483e-07 9.22683e-05 -1.00002 
3.38937e-05 0.000113182 -1.00001 
5.59643e-05 0.000135448 -1.00002 
6.54927e-05 0.00015006 -1.00002 
6.4042e-05 0.000162641 -1.00002 
5.66688e-05 0.000165737 -1.00002 
4.68214e-05 0.000165978 -1.00002 
3.63353e-05 0.000161407 -1.00002 
2.77731e-05 0.000154403 -1.00002 
2.13212e-05 0.000143015 -1.00002 
1.77027e-05 0.000131469 -1.00002 
1.85753e-05 0.000115619 -1.00002 
3.18731e-05 0.000104865 -1.00002 
5.0702e-05 7.96122e-05 -1.00001 
-3.0608e-05 5.69742e-05 1.00001 
-2.35745e-05 8.80578e-05 1.00002 
-1.65105e-05 0.00010882 1.00002 
-1.7781e-05 0.000126232 1.00002 
-2.14432e-05 0.000141756 1.00002 
-2.77417e-05 0.000152108 1.00002 
-3.54417e-05 0.000161224 1.00001 
-4.46769e-05 0.000162054 1.00002 
-5.41066e-05 0.000159418 1.00002 
-6.18387e-05 0.000149784 1.00002 
-6.44855e-05 0.000133782 1.00002 
-5.87301e-05 0.000114302 1.00002 
-4.14254e-05 9.08852e-05 1.00002 
-1.13727e-05 6.62335e-05 1.00002 
3.04836e-05 4.56131e-05 1.00002 
8.40685e-05 3.20357e-05 1.00001 
0.000136092 4.56272e-05 1.00002 
0.000192984 8.55216e-05 1.00001 
0.000234938 0.000172622 1.00001 
0.000257577 0.000344626 1.00001 
0.000263008 0.000656417 1.00001 
0.000245071 0.00119956 1.00001 
0.000126527 0.0020171 1.00001 
-0.000145402 0.00314047 1.00001 
-0.000516293 0.00458326 1 
-0.00096346 0.00639801 0.999994 
-0.00139149 0.00889364 0.999977 
-0.00140478 0.0122087 0.99994 
-0.000901983 0.0170464 0.999871 
0.000864181 0.0237962 0.999733 
0.00526788 0.033971 0.999426 
0.0138848 0.0465324 0.998834 
0.0241429 0.0616941 0.997818 
0.038773 0.0673157 0.996993 
0.0590486 0.0705879 0.995773 
0.0938333 0.092863 0.991258 
0.105352 0.130654 0.985825 
0.0923349 0.165512 0.981882 
0.0690158 0.196136 0.978153 
0.0940173 0.234717 0.967511 
-0.0411474 0.211537 -0.976473 
-0.055789 0.148972 -0.987276 
-0.0755295 0.130487 -0.988581 
-0.0670577 0.0967348 -0.993062 
-0.0462535 0.0725259 -0.996308 
-0.0301038 0.0567819 -0.997948 
-0.0166385 0.0444516 -0.998888 
-0.00693152 0.0324277 -0.999468 
-0.00290975 0.0236753 -0.999731 
-0.000830291 0.0175167 -0.999862 
0.000177453 0.0124157 -0.999939 
0.000691578 0.00897155 -0.999975 
0.000784758 0.00656968 -0.999994 
0.000531189 0.00470851 -1 
0.000132641 0.00335004 -1.00001 
-0.000180852 0.00234525 -1.00001 
-0.000334112 0.00156343 -1.00001 
-0.000332719 0.000976721 -1.00001 
-0.000280714 0.00055755 -1.00001 
-0.000228171 0.000295968 -1.00002 
-0.000201442 0.000146767 -1.00001 
-0.000162752 7.7249e-05 -1.00002 
-0.000126898 3.65461e-05 -1.00001 
-8.79691e-05 2.59023e-05 -1.00002 
-4.44898e-05 3.67861e-05 -1.00001 
-2.05764e-06 5.57125e-05 -1.00002 
3.51798e-05 8.72511e-05 -1.00002 
5.68569e-05 0.000116861 -1.00001 
6.52154e-05 0.000139298 -1.00002 
6.38473e-05 0.00015673 -1.00002 
5.48473e-05 0.000165927 -1.00002 
4.3391e-05 0.000170331 -1.00002 
3.4228e-05 0.000166434 -1.00002 
2.49302e-05 0.000160378 -1.00002 
1.94397e-05 0.000147402 -1.00002 
1.46366e-05 0.000131971 -1.00002 
1.13952e-05 0.000112842 -1.00002 
1.81253e-05 9.14227e-05 -1.00002 
1.63904e-05 6.32877e-05 -1.00001 
1.01365e-05 5.9678e-05 1.00001 
-5.27481e-06 8.0319e-05 1.00002 
-5.12243e-06 0.000104932 1.00001 
-1.04317e-05 0.000126799 1.00002 
-1.54464e-05 0.000143061 1.00002 
-2.19672e-05 0.000157002 1.00002 
-2.88973e-05 0.000166514 1.00002 
-3.78048e-05 0.000169442 1.00002 
-4.72348e-05 0.000165489 1.00002 
-5.58659e-05 0.000154202 1.00002 
-6.05579e-05 0.00013376 1.00002 
-5.75354e-05 0.000106703 1.00002 
-4.45702e-05 7.6135e-05 1.00002 
-1.95822e-05 4.35296e-05 1.00001 
1.85691e-05 1.56613e-05 1.00001 
6.82168e-05 -8.37372e-07 1.00001 
0.000131346 -1.30109e-06 1.00001 
0.000194117 2.75077e-05 1.00001 
0.000258934 9.50827e-05 1.00001 
0.000309331 0.000231057 1.00001 
0.000350166 0.000479445 1.00001 
0.000382061 0.000912844 1.00001 
0.000382237 0.00163783 1.00001 
0.000273671 0.00264073 1.00001 
6.11173e-05 0.00390862 1.00001 
-0.000216295 0.00555559 0.999999 
-0.000468531 0.00772719 0.999985 
-0.000389759 0.0102575 0.999963 
0.000117323 0.0139081 0.999919 
0.00188278 0.0187802 0.999839 
0.00569981 0.0256358 0.999672 
0.0122341 0.0343114 0.999353 
0.0232804 0.0435863 0.998798 
0.0355546 0.0471218 0.998273 
0.0535867 0.0494888 0.997353 
0.0915028 0.0651329 0.993691 
0.139263 0.103129 0.984882 
0.143755 0.156773 0.977124 
0.114218 0.195493 0.974042 
0.113217 0.317088 0.941569 
-0.0340922 0.186103 -0.981926 
-0.0756603 0.191728 -0.978536 
-0.111063 0.11731 -0.98688 
-0.0825402 0.075535 -0.993735 
-0.0558626 0.0553512 -0.996919 
-0.0347008 0.0407764 -0.998582 
-0.0209237 0.0358377 -0.999158 
-0.0106489 0.0292289 -0.99953 
-0.00496296 0.0198695 -0.999807 
-0.00247738 0.0149524 -0.999902 
-0.00101696 0.0113317 -0.999952 
-0.000130165 0.00842939 -0.99998 
0.000142921 0.00623927 -0.999996 
1.18059e-05 0.00452736 -1 
-0.000291567 0.00322813 -1.00001 
-0.000494821 0.00227969 -1.00001 
-0.000540221 0.00154081 -1.00001 
-0.000465053 0.000963058 -1.00001 
-0.000367074 0.000552728 -1.00001 
-0.000285421 0.000285941 -1.00001 
-0.000238573 0.000133148 -1.00001 
-0.00018865 4.31063e-05 -1.00001 
-0.000146008 -9.48114e-07 -1.00001 
-0.000100251 -1.74696e-05 -1.00001 
-5.39748e-05 -5.22218e-06 -1.00002 
-1.01983e-05 1.74381e-05 -1.00001 
2.60766e-05 5.62569e-05 -1.00002 
5.02712e-05 9.58736e-05 -1.00002 
6.00311e-05 0.000129068 -1.00002 
5.94453e-05 0.000154804 -1.00002 
4.93519e-05 0.000170567 -1.00002 
3.75375e-05 0.000178042 -1.00002 
2.94843e-05 0.000174129 -1.00002 
2.04398e-05 0.000167066 -1.00002 
1.4915e-05 0.000152055 -1.00002 
8.91283e-06 0.000135153 -1.00002 
1.73313e-06 0.000117481 -1.00002 
7.22352e-08 9.31415e-05 -1.00002 
-1.28121e-05 6.96617e-05 -1.00001 
3.57849e-05 7.73213e-05 1.00001 
1.4198e-05 9.48558e-05 1.00002 
1.80761e-06 0.0001187 1.00001 
-6.10499e-06 0.000138226 1.00002 
-1.36017e-05 0.000154885 1.00002 
-1.9527e-05 0.000168539 1.00002 
-2.6502e-05 0.000176882 1.00002 
-3.46316e-05 0.00017821 1.00002 
-4.31983e-05 0.000171968 1.00002 
-5.15597e-05 0.000153697 1.00002 
-5.46281e-05 0.00012314 1.00002 
-4.92219e-05 8.65051e-05 1.00001 
-3.4408e-05 4.63924e-05 1.00001 
-8.47526e-06 6.92867e-06 1.00001 
2.98384e-05 -2.51877e-05 1.00001 
8.35576e-05 -4.25779e-05 1.00001 
0.000147299 -4.53592e-05 1.00001 
0.000217354 -1.07182e-05 1.00001 
0.000293763 6.57254e-05 1.00001 
0.000359792 0.000208359 1.00001 
0.00041905 0.000471758 1.00001 
0.000478004 0.000943906 1.00001 
0.000533852 0.00167422 1.00001 
0.000519735 0.00266563 1.00001 
0.00040711 0.00399152 1.00001 
0.000262711 0.00570241 0.999999 
0.000299206 0.00751593 0.999987 
0.000579876 0.0099638 0.999966 
0.00148608 0.0128924 0.999933 
0.00361531 0.0168321 0.999869 
0.00786608 0.0219251 0.999746 
0.0145713 0.0285095 0.999502 
0.0211938 0.0292386 0.999367 
0.0319937 0.0310708 0.999023 
0.0492028 0.0317879 0.9983 
0.0798455 0.0406094 0.995999 
0.152752 0.0688107 0.985881 
0.205568 0.153928 0.966469 
0.180586 0.214365 0.959916 
0.137397 0.262531 0.955112 
-0.0528719 0.205369 -0.977291 
-0.110033 0.175619 -0.978299 
-0.116303 0.0740486 -0.990463 
-0.0756253 0.0356184 -0.996518 
-0.0472827 0.0305355 -0.998434 
-0.0272357 0.0243903 -0.999354 
-0.0173215 0.0238535 -0.999582 
-0.00973888 0.0207824 -0.999758 
-0.00545764 0.0149521 -0.999891 
-0.00305666 0.0116048 -0.999945 
-0.00138814 0.0090893 -0.999974 
-0.000621017 0.0070478 -0.999991 
-0.00041726 0.00525686 -1 
-0.000522732 0.00381367 -1.00001 
-0.000710431 0.00272431 -1.00001 
-0.000757306 0.00192287 -1.00001 
-0.000657486 0.00127061 -1.00001 
-0.000513108 0.000774285 -1.00001 
-0.000387304 0.000412071 -1.00001 
-0.000307228 0.000194662 -1.00001 
-0.000243785 5.98466e-05 -1.00001 
-0.000193487 -1.63805e-05 -1.00001 
-0.000142847 -5.20013e-05 -1.00001 
-9.37594e-05 -6.07896e-05 -1.00001 
-4.8038e-05 -4.08147e-05 -1.00001 
-5.93985e-06 -6.35691e-06 -1.00002 
2.69512e-05 4.2916e-05 -1.00001 
4.61025e-05 8.82099e-05 -1.00002 
5.42299e-05 0.000131792 -1.00001 
5.30636e-05 0.000159475 -1.00002 
4.30086e-05 0.000178941 -1.00002 
3.1068e-05 0.000187575 -1.00002 
2.32936e-05 0.000182669 -1.00002 
1.57794e-05 0.000173766 -1.00002 
1.06307e-05 0.000157352 -1.00002 
3.70275e-06 0.000141828 -1.00002 
-6.38533e-06 0.000124667 -1.00002 
-1.46772e-05 0.00010176 -1.00002 
-3.38058e-05 8.75055e-05 -1.00001 
5.31926e-05 0.000100272 1.00001 
2.80131e-05 0.000110294 1.00002 
1.09493e-05 0.000126735 1.00002 
2.67709e-07 0.000146058 1.00002 
-8.27283e-06 0.000162284 1.00001 
-1.37712e-05 0.000176475 1.00002 
-1.96713e-05 0.000186751 1.00002 
-2.67255e-05 0.000190803 1.00002 
-3.48262e-05 0.000186357 1.00002 
-4.36746e-05 0.000167463 1.00001 
-4.88167e-05 0.000134661 1.00001 
-4.49208e-05 8.9043e-05 1.00001 
-3.26928e-05 3.93704e-05 1.00001 
-1.19133e-05 -8.93464e-06 1.00001 
1.95477e-05 -5.18857e-05 1.00001 
6.58413e-05 -8.13948e-05 1.00001 
0.000124781 -9.49832e-05 1.00001 
0.000197475 -7.60383e-05 1.00002 
0.000278309 -1.61968e-05 1.00001 
0.00035222 9.75221e-05 1.00001 
0.000416094 0.000302121 1.00002 
0.00049378 0.000672933 1.00001 
0.000599755 0.00125508 1.00001 
0.000712854 0.00209613 1.00001 
0.000747199 0.0031779 1.00001 
0.000709745 0.00460195 1 
0.000823802 0.00603716 0.999999 
0.00106387 0.00790176 0.999982 
0.00171111 0.00978106 0.999967 
0.00307164 0.0122229 0.999938 
0.0058223 0.0153529 0.999883 
0.0109545 0.0186851 0.999787 
0.0178792 0.0194591 0.99967 
0.0281052 0.0188818 0.999449 
0.0494605 0.0175788 0.998643 
0.0830162 0.015972 0.99644 
0.126179 0.0305515 0.991558 
0.24909 0.100664 0.963244 
0.270745 0.255746 0.928089 
0.178023 0.341729 0.922746 
-0.0721072 0.292738 -0.953406 
-0.167013 0.161969 -0.972579 
-0.11603 0.0275069 -0.992877 
-0.0655414 0.00428574 -0.997865 
-0.0387917 0.0123868 -0.999192 
-0.0221862 0.0120139 -0.999701 
-0.0147749 0.0132131 -0.999823 
-0.0102992 0.0148432 -0.999853 
-0.00617447 0.011809 -0.99993 
-0.00339694 0.00903052 -0.999974 
-0.00191868 0.00779326 -0.999982 
-0.00113129 0.00625383 -0.999996 
-0.000864758 0.00468061 -1 
-0.000927122 0.00333608 -1.00001 
-0.000989079 0.00245218 -1.00001 
-0.000910412 0.0017147 -1.00001 
-0.000710401 0.00112247 -1.00001 
-0.000517176 0.000649599 -1.00001 