# vtk DataFile Version 3.0 
Exported using Morpho https://github.com/Morpho-lang/morpho 
ASCII 
DATASET UNSTRUCTURED_GRID 

POINTS 1978 float 
-12.0003 -4.00023 -3.40569e-08 
-11.6143 -4.00088 -3.51499e-08 
-11.319 -4.00042 1.21551e-08 
-10.9795 -4.00045 -6.841e-08 
-10.6524 -4.00044 7.87578e-08 
-10.3014 -4.00045 3.44586e-09 
-9.99681 -4.00033 9.21211e-09 
-9.65219 -4.00064 9.33675e-08 
-9.30898 -4.00041 7.29844e-09 
-8.99692 -4.00053 2.57453e-08 
-8.69035 -4.00041 6.59765e-08 
-8.38032 -4.00047 6.91919e-09 
-8.08422 -4.00043 3.16299e-08 
-7.76798 -4.00047 6.98912e-09 
-7.47137 -4.00036 -1.53535e-08 
-7.19398 -4.00079 5.85759e-08 
-6.91707 -4.00041 3.04432e-08 
-6.60184 -4.00037 1.03426e-07 
-6.29874 -4.00037 2.04873e-07 
-5.99033 -4.00038 2.15266e-07 
-5.68838 -4.00045 6.45455e-08 
-5.38992 -4.00051 -4.92322e-08 
-5.10349 -4.00051 -2.27568e-08 
-4.80942 -4.00053 -2.17039e-07 
-4.50669 -4.00021 -6.18008e-07 
-4.20456 -4.00063 -7.21521e-07 
-3.9037 -4.00058 5.806e-07 
-3.57537 -4.0005 1.34863e-06 
-3.26139 -4.00072 6.85972e-08 
-2.95382 -4.00043 -7.87299e-07 
-2.61742 -3.99958 7.11582e-07 
-2.33492 -4.00101 3.85195e-06 
-2.06794 -4.00003 7.30942e-06 
-1.77067 -4.00024 1.95477e-05 
-1.57097 -4.00074 1.06369e-05 
-1.4043 -4.00079 1.10343e-05 
-1.29643 -3.99851 0.00010407 
-1.18464 -4.00459 -0.00104079 
-0.932888 -4.0028 0.00201338 
-0.23272 -3.97638 0.00404944 
0.484004 -3.98661 0.00122562 
0.781668 -4.00112 0.000132879 
1.01244 -3.99886 -0.000195961 
1.23739 -4.00036 -2.48681e-05 
1.45822 -4.00376 -2.25645e-05 
1.71001 -4.00001 -2.12841e-05 
1.99543 -3.99948 -1.40576e-05 
2.28957 -4.0008 3.49908e-07 
2.6215 -4.00065 6.84517e-07 
2.96592 -4.00103 -6.36872e-07 
3.26537 -4.00017 -2.91471e-07 
3.56633 -4.00041 -9.22974e-07 
3.87322 -4.0004 -3.7614e-07 
4.18885 -4.00053 1.24675e-06 
4.49066 -4.00032 4.21679e-07 
4.79218 -4.00033 -8.57705e-08 
5.09556 -4.0006 1.57011e-07 
5.39629 -4.00066 2.84379e-08 
5.70022 -4.00055 -5.16149e-08 
5.99234 -4.00043 -2.00608e-07 
6.29659 -4.00042 -1.93187e-07 
6.57841 -4.00061 -1.06011e-07 
6.89403 -4.00069 -3.04011e-09 
7.18773 -4.00053 -4.57149e-08 
7.48533 -4.0007 2.13545e-08 
7.78483 -4.0004 -3.76733e-08 
8.07684 -4.00059 5.03388e-09 
8.36214 -4.00075 -9.1628e-09 
8.65977 -4.00054 -7.35735e-08 
8.94286 -4.00065 1.05832e-08 
9.28959 -4.00075 -3.70007e-08 
9.61852 -4.00059 -6.99563e-08 
9.91221 -4.00065 2.98161e-08 
10.2799 -4.00064 -5.58486e-08 
10.6029 -4.00058 5.9594e-09 
10.9819 -4.00057 1.98486e-08 
11.303 -4.00057 -5.65313e-09 
11.5903 -4.00072 2.59312e-08 
12.0002 -4.00032 4.02209e-08 
-12.0009 -3.61599 5.62886e-08 
-11.7108 -3.71328 7.71852e-20 
-11.3615 -3.6248 8.12326e-20 
-11.0547 -3.67387 -1.89965e-19 
-10.7159 -3.66263 4.63591e-20 
-10.3811 -3.68769 1.0227e-19 
-10.0407 -3.64284 1.24683e-19 
-9.72951 -3.6879 1.50957e-19 
-9.38459 -3.69056 2.14802e-19 
-9.04595 -3.6643 6.0641e-20 
-8.73174 -3.66105 1.54543e-19 
-8.42178 -3.6689 1.50846e-19 
-8.11081 -3.65574 2.8148e-19 
-7.80901 -3.6788 -1.88388e-19 
-7.49144 -3.65777 2.26535e-19 
-7.19349 -3.63406 1.22396e-19 
-6.87956 -3.67798 -6.4998e-20 
-6.57294 -3.66641 3.66355e-19 
-6.26229 -3.67275 1.19451e-18 
-5.95678 -3.66831 1.63873e-18 
-5.65321 -3.66866 1.2697e-18 
-5.36103 -3.65772 -1.24457e-19 
-5.06205 -3.66572 -1.54714e-18 
-4.75477 -3.67182 -2.00248e-18 
-4.44548 -3.66607 -1.88568e-18 
-4.13394 -3.66749 4.4116e-22 
-3.79948 -3.70011 5.31929e-18 
-3.46485 -3.68112 3.71789e-18 
-3.1391 -3.66898 1.20799e-18 
-2.80491 -3.69107 6.00313e-18 
-2.47694 -3.6475 1.00247e-17 
-2.20689 -3.65655 2.13922e-17 
-1.91466 -3.73059 2.69626e-17 
-1.65749 -3.64675 5.20836e-17 
-1.48135 -3.64097 1.15076e-16 
-1.33742 -3.47559 1.42193e-16 
-1.21924 -3.62081 -4.23352e-16 
-1.09195 -3.8498 -5.2559e-15 
-0.827836 -3.9296 1.40419e-14 
-0.209544 -3.8947 8.56913e-15 
0.450736 -3.89444 -6.08281e-15 
0.9251 -3.801 -6.45904e-15 
1.31414 -3.71026 2.43954e-15 
1.53702 -3.7045 2.37735e-16 
1.7767 -3.67705 3.60902e-17 
1.98985 -3.68211 -1.13772e-16 
2.20675 -3.7094 -4.91144e-17 
2.49066 -3.70409 5.85984e-18 
2.76829 -3.72772 -3.99965e-18 
3.06166 -3.67318 2.63058e-18 
3.35195 -3.65832 -6.50248e-18 
3.65224 -3.65986 -6.03514e-18 
3.96316 -3.67264 -1.58023e-20 
4.2662 -3.66041 2.8565e-18 
4.56452 -3.66272 1.83581e-18 
4.86348 -3.66866 1.38169e-18 
5.16007 -3.66723 1.03164e-18 
5.45948 -3.67223 -3.02958e-19 
5.75201 -3.6597 -1.60922e-18 
6.05229 -3.67028 -1.29335e-18 
6.33729 -3.64216 -7.06784e-19 
6.64577 -3.68201 -5.95562e-19 
6.94449 -3.65914 5.40849e-19 
7.24567 -3.66465 -6.10978e-19 
7.54914 -3.66658 4.64384e-19 
7.84926 -3.65644 -3.48891e-19 
8.14184 -3.64768 1.53732e-19 
8.43801 -3.661 -2.97453e-19 
8.72969 -3.63809 -3.40235e-19 
9.05518 -3.70296 7.25351e-20 
9.39082 -3.68383 -1.46127e-19 
9.69792 -3.64105 -2.12419e-19 
10.0375 -3.71156 -3.8918e-20 
10.3735 -3.66588 -2.02347e-19 
10.7339 -3.71294 6.38322e-20 
11.071 -3.65668 1.20371e-19 
11.37 -3.61338 -1.13825e-19 
11.7184 -3.72808 -1.18485e-19 
12.0008 -3.60757 -5.08584e-08 
-12.0004 -3.32255 6.07474e-09 
-11.6222 -3.36791 8.99685e-21 
-11.275 -3.27966 5.69518e-20 
-10.9589 -3.34139 -1.10843e-19 
-10.6487 -3.2967 9.4542e-20 
-10.356 -3.36028 2.61953e-20 
-10.0438 -3.29263 -7.99257e-20 
-9.72435 -3.34921 -2.19178e-20 
-9.40676 -3.37819 4.91553e-20 
-9.09527 -3.33037 -2.48631e-20 
-8.79328 -3.31684 -6.97625e-20 
-8.48582 -3.33372 -2.19415e-20 
-8.17625 -3.3273 2.35547e-20 
-7.85985 -3.33649 -1.83052e-19 
-7.55758 -3.34149 3.27832e-19 
-7.24264 -3.29564 -4.67895e-19 
-6.9347 -3.34682 1.25275e-19 
-6.62572 -3.3358 -4.96799e-20 
-6.31771 -3.3452 -5.9078e-20 
-6.00873 -3.33855 -1.28308e-19 
-5.70377 -3.3397 -1.3571e-19 
-5.40244 -3.31997 -1.27441e-19 
-5.1071 -3.33437 2.48588e-19 
-4.80389 -3.34562 3.76617e-19 
-4.49581 -3.33947 -6.90074e-20 
-4.18148 -3.33778 9.98482e-19 
-3.86236 -3.38654 -2.26454e-18 
-3.53677 -3.37702 6.6741e-19 
-3.19494 -3.34944 1.96319e-18 
-2.85488 -3.37004 -5.77378e-19 
-2.51934 -3.34306 7.38565e-18 
-2.17398 -3.27867 7.0261e-19 
-1.94974 -3.41463 1.23583e-17 
-1.68626 -3.35442 5.41981e-18 
-1.4382 -3.22436 4.12576e-17 
-1.21286 -3.12669 -1.7828e-17 
-1.14186 -3.35325 2.14406e-16 
-1.02491 -3.65219 -4.6309e-15 
-0.870642 -3.60416 9.13241e-15 
-0.69894 -3.84265 -6.02888e-15 
0.444924 -3.80884 9.94778e-16 
1.05017 -3.64017 -4.62611e-15 
1.11911 -3.4492 -3.8122e-16 
1.39705 -3.45334 -1.00349e-17 
1.49035 -3.30605 -7.95048e-17 
1.7102 -3.32527 -1.47992e-17 
1.9251 -3.30191 -2.3285e-17 
2.21342 -3.40825 -1.0882e-17 
2.51457 -3.38976 -3.06e-18 
2.81501 -3.40068 8.23055e-19 
3.12865 -3.33773 -6.21413e-19 
3.46434 -3.33535 -1.58872e-18 
3.80578 -3.34519 2.68344e-18 
4.13111 -3.33597 -1.84445e-18 
4.45368 -3.33064 1.13777e-19 
4.76926 -3.33876 -1.0143e-18 
5.0791 -3.33734 9.53368e-20 
5.38835 -3.34481 1.19362e-19 
5.69415 -3.32766 5.63691e-19 
6.00149 -3.34101 -1.82818e-19 
6.30406 -3.29696 -3.50994e-19 
6.60612 -3.35305 1.62933e-19 
6.9127 -3.32462 2.52877e-20 
7.2158 -3.3306 4.98512e-19 
7.52047 -3.33388 -2.39051e-19 
7.8247 -3.32135 2.26405e-20 
8.13002 -3.30146 4.27815e-20 
8.42716 -3.31334 1.33897e-19 
8.75466 -3.32216 1.59928e-19 
9.0791 -3.38903 -1.03494e-19 
9.39061 -3.34402 8.22011e-20 
9.70637 -3.30193 1.08481e-19 
10.0191 -3.39342 -4.37245e-20 
10.3119 -3.31052 5.64965e-20 
10.6322 -3.39585 1.11026e-21 
10.9624 -3.34692 8.23264e-20 
11.2898 -3.25634 6.17112e-20 
11.6301 -3.37525 -1.27994e-20 
12.0005 -3.30764 -2.30441e-08 
-12.0005 -2.98683 4.70374e-08 
-11.6699 -3.06307 2.47969e-19 
-11.3343 -2.96398 1.78664e-20 
-10.9828 -2.9866 -1.22458e-19 
-10.6412 -2.9712 2.42975e-19 
-10.3058 -2.9972 -1.25982e-19 
-9.96738 -2.96589 3.06658e-20 
-9.65615 -3.01522 1.19831e-19 
-9.35463 -3.02851 -2.28309e-20 
-9.05026 -2.97865 -1.16157e-19 
-8.73927 -2.98083 2.25719e-19 
-8.4329 -2.99873 -2.62164e-20 
-8.11584 -3.00379 4.30489e-20 
-7.81024 -2.99993 -1.70052e-19 
-7.50983 -3.00169 -2.19851e-21 
-7.20704 -2.96758 5.15503e-20 
-6.90368 -3.01899 4.23963e-20 
-6.5975 -3.00563 -3.71893e-20 
-6.28958 -3.01782 -3.04517e-20 
-5.98572 -3.00868 1.72245e-20 
-5.68293 -3.00968 2.48487e-20 
-5.38566 -2.98696 -9.13119e-20 
-5.08474 -3.00815 1.66952e-19 
-4.78448 -3.02053 -2.89325e-19 
-4.48093 -3.00729 -6.94873e-19 
-4.17782 -3.01629 9.66557e-19 
-3.85859 -3.0668 5.5708e-19 
-3.53602 -3.05167 -6.22474e-19 
-3.21401 -3.04123 -8.68146e-19 
-2.86404 -3.04786 -9.3617e-19 
-2.50923 -3.03475 -2.22927e-18 
-2.15072 -2.97809 -6.90993e-19 
-1.8078 -3.05895 -7.52045e-18 
-1.52976 -2.9739 -2.41202e-17 
-1.25678 -2.83515 -6.09361e-17 
-1.00951 -2.82041 1.38073e-16 
-0.966614 -3.05807 -1.51682e-16 
-0.987349 -3.37447 -6.3329e-15 
-0.593265 -3.72995 1.58248e-15 
-0.19219 -3.79573 -3.37089e-15 
0.771465 -3.61714 3.01722e-15 
0.805001 -3.43801 1.27197e-14 
1.147 -3.24214 5.90737e-16 
1.19907 -3.03373 -7.11084e-17 
1.41907 -2.9466 4.98674e-17 
1.66955 -2.94698 2.69422e-17 
1.9289 -2.943 1.64017e-17 
2.18335 -3.07769 7.29824e-18 
2.46992 -3.07798 3.01e-18 
2.78934 -3.07575 -5.03499e-19 
3.12991 -3.03493 3.31174e-19 
3.47896 -3.02462 1.94011e-18 
3.82178 -3.03338 -2.13372e-18 
4.15908 -3.01163 1.41196e-18 
4.47914 -3.00779 4.48925e-19 
4.79071 -3.01644 -2.31008e-19 
5.10057 -3.01021 7.19795e-22 
5.40298 -3.01914 -6.44419e-20 
5.70694 -2.99966 -6.0986e-19 
6.00822 -3.01588 5.54194e-19 
6.31432 -2.96598 2.13679e-19 
6.61599 -3.02241 2.62822e-19 
6.91362 -2.98878 -5.22781e-19 
7.21647 -2.99809 1.16028e-19 
7.51714 -2.99925 -2.22893e-19 
7.82535 -2.99007 2.00466e-19 
8.12092 -2.95771 -9.4967e-20 
8.44264 -2.99848 2.99814e-21 
8.74245 -2.97626 -2.03139e-20 
9.04485 -3.05896 4.46406e-20 
9.35674 -3.01374 -1.33279e-20 
9.65648 -2.95869 1.78255e-20 
9.98198 -3.03786 4.05787e-20 
10.3203 -2.98603 2.43092e-20 
10.6547 -3.05989 6.04152e-21 
10.9845 -3.0057 -4.38545e-20 
11.3379 -2.93419 -2.88609e-20 
11.6645 -3.06195 -2.71476e-19 
12.0004 -2.97731 -6.28908e-08 
-12.0004 -2.66875 1.03471e-08 
-11.6555 -2.72879 2.69498e-19 
-11.326 -2.62701 -1.79497e-19 
-10.9985 -2.6675 1.76129e-19 
-10.6587 -2.64816 -2.13969e-19 
[...]
POINT_DATA 1978 
VECTORS vectors float
-2.7604e-05 0.000230631 1.00046 
8.07645e-06 0.000177318 1.00069 
8.77798e-06 0.000149817 1.0007 
-2.60136e-06 0.000135243 1.0007 
-1.77381e-05 0.00013976 1.00069 
-2.97641e-05 0.000146459 1.00068 
-3.75054e-05 0.00015537 1.00068 
-4.44426e-05 0.000169165 1.00067 
-5.68582e-05 0.000192444 1.00066 
-6.78224e-05 0.000213899 1.00066 
-6.72646e-05 0.000228155 1.00065 
-5.65004e-05 0.000241759 1.00064 
-2.99934e-05 0.000250816 1.00064 
1.32866e-05 0.000236018 1.00064 
4.57996e-05 0.000184197 1.00064 
4.38333e-05 0.000133167 1.00043 
4.14212e-05 0.000126106 1.00064 
8.37262e-05 0.000157315 1.00064 
0.000125415 0.000163529 1.00064 
9.06463e-05 0.000155641 1.00063 
-4.5826e-05 0.000177352 1.00063 
-0.000321904 0.000308218 1.00062 
-0.000767856 0.000735383 1.00062 
-0.00134942 0.0016262 1.00062 
-0.0020821 0.0028215 1.00063 
-0.00322567 0.00398242 1.00062 
-0.00512293 0.0056393 1.0006 
-0.00692799 0.00998107 1.00056 
-0.00730226 0.0144556 1.00051 
-0.01249 0.0168454 1.00043 
-0.0242628 0.030643 0.999891 
-0.0314636 0.0566414 0.998513 
-0.0334598 0.0874886 0.996099 
-0.0264868 0.127275 0.991994 
-0.0282587 0.138386 0.99037 
-0.0412255 0.163282 0.986247 
-0.0433913 0.181176 0.982651 
-0.0334492 0.196159 0.980242 
-0.00253292 0.207773 0.98096 
0.0492192 0.287911 0.95184 
-0.0167328 0.211143 -0.978099 
-0.00637075 0.21571 -0.976457 
0.0103678 0.195661 -0.980993 
0.023045 0.165105 -0.986357 
0.0336925 0.136853 -0.990418 
0.0345784 0.0983296 -0.99501 
0.0337161 0.0603158 -0.998187 
0.0235527 0.0362156 -0.999596 
0.0106063 0.0260095 -1 
0.0102122 0.0192427 -1.00036 
0.00738637 0.0109308 -1.00074 
0.00446535 0.00769446 -1.0004 
0.00364757 0.005929 -1.00063 
0.00292842 0.00413619 -1.00063 
0.00201454 0.00278017 -1.00063 
0.00129414 0.001624 -1.00063 
0.000707112 0.000737314 -1.00062 
0.000274704 0.000294683 -1.00062 
3.42073e-05 0.000150328 -1.00062 
-7.5969e-05 0.000117398 -1.00063 
-0.000115376 0.000124285 -1.00063 
-9.72875e-05 0.000141124 -1.00063 
-6.68312e-05 0.000126607 -1.00063 
-7.80646e-05 0.000137518 -1.00063 
-6.63511e-05 0.000207604 -1.00063 
-1.16004e-05 0.000261033 -1.00063 
3.58115e-05 0.000264717 -1.00063 
5.78125e-05 0.000249898 -1.00063 
6.9744e-05 0.000236052 -1.00064 
7.1384e-05 0.000224721 -1.00065 
6.12004e-05 0.000198903 -1.00065 
4.58111e-05 0.00017911 -1.00066 
3.99323e-05 0.000167558 -1.00067 
3.14714e-05 0.000153992 -1.00067 
2.14555e-05 0.000145482 -1.00068 
2.0426e-08 0.000137588 -1.00069 
-1.23029e-05 0.000148934 -1.0007 
-1.05311e-05 0.000174069 -1.00069 
2.44644e-05 0.000229584 -1.00046 
-7.55999e-05 0.000174115 1.00069 
-2.81959e-05 0.000163751 1.00113 
-1.67304e-05 0.000143398 1.00138 
-1.11487e-05 0.00014086 1.00138 
-2.01718e-05 0.000143813 1.00159 
-3.24751e-05 0.000148432 1.00115 
-4.1672e-05 0.000156941 1.00135 
-4.7017e-05 0.000168741 1.00155 
-5.58635e-05 0.000186403 1.00111 
-6.89254e-05 0.000196985 1.00131 
-7.62831e-05 0.000201074 1.0015 
-7.07523e-05 0.000204222 1.00128 
-4.94237e-05 0.000201251 1.00127 
-1.66602e-05 0.000191811 1.00127 
1.67266e-05 0.000157427 1.00127 
4.76651e-05 0.000121336 1.00146 
8.39981e-05 0.000109777 1.00126 
0.0001308 0.000129184 1.00126 
0.000149471 0.000166032 1.00125 
9.86563e-05 0.000234296 1.00124 
-3.54703e-05 0.000374197 1.00123 
-0.000234242 0.00072389 1.00123 
-0.000557253 0.00142223 1.00123 
-0.00109648 0.0025551 1.00124 
-0.00202561 0.00399164 1.00126 
-0.00343828 0.00565795 1.00125 
-0.0050544 0.00830093 1.00122 
-0.0059415 0.0130941 1.00118 
-0.007861 0.0187302 1.0011 
-0.0125428 0.0273821 1.00085 
-0.0145711 0.0468143 1.00007 
-0.0132531 0.0680534 0.998724 
-0.0140415 0.096 0.996316 
-0.0017757 0.122111 0.993358 
-0.00431176 0.141071 0.990693 
0.011449 0.14712 0.98976 
0.000208256 0.170088 0.985766 
-0.00924243 0.193476 0.98083 
0.0220033 0.207509 0.978611 
0.0763418 0.287685 0.950331 
-0.0189882 0.222897 -0.972901 
-0.00403606 0.193174 -0.981941 
0.00411379 0.140738 -0.990839 
0.0108107 0.115341 -0.99393 
0.0140285 0.0860869 -0.997183 
0.0178955 0.0636281 -0.998881 
0.0120344 0.0461307 -0.999828 
0.0116442 0.0315449 -1.00054 
0.00621762 0.0221223 -1.00105 
0.0060875 0.0178647 -1.00101 
0.00477611 0.0120569 -1.00096 
0.00349317 0.00845485 -1.00143 
0.0032127 0.00616588 -1.00125 
0.00233648 0.0043601 -1.00124 
0.00134794 0.0030554 -1.00124 
0.000690912 0.00199146 -1.00123 
0.000328299 0.00113264 -1.00122 
0.000119656 0.000555481 -1.00123 
-1.96769e-05 0.000281836 -1.00123 
-0.000102396 0.000168831 -1.00124 
-0.000126664 0.000137574 -1.00125 
-0.000120426 0.000123801 -1.00124 
-0.000103001 0.000112969 -1.00125 
-7.33056e-05 0.000132996 -1.00125 
-3.03452e-05 0.000169493 -1.00125 
1.44484e-05 0.000195395 -1.00126 
4.89282e-05 0.000208215 -1.00126 
7.12786e-05 0.000211786 -1.00107 
7.84372e-05 0.000204333 -1.00148 
7.29448e-05 0.000205105 -1.00108 
5.83764e-05 0.000191805 -1.0013 
4.90504e-05 0.000178982 -1.00153 
4.28037e-05 0.000164494 -1.00111 
3.19095e-05 0.000154837 -1.00156 
1.82296e-05 0.000148352 -1.00136 
9.16811e-06 0.000143973 -1.00137 
1.37661e-05 0.000144861 -1.00138 
2.22956e-05 0.000166141 -1.00114 
7.1692e-05 0.00017092 -1.00069 
-8.34357e-05 0.000123584 1.0007 
-3.91482e-05 0.000128489 1.00138 
-2.3358e-05 0.000131525 1.00159 
-1.92514e-05 0.00014209 1.00116 
-2.63813e-05 0.000150467 1.00137 
-3.4929e-05 0.000153546 1.00137 
-4.6089e-05 0.000162486 1.00135 
-5.16924e-05 0.000175142 1.00113 
-5.75542e-05 0.000184021 1.00153 
-6.99181e-05 0.000185356 1.00131 
-8.05712e-05 0.0001802 1.00129 
-8.36481e-05 0.000174819 1.00108 
-6.93962e-05 0.000166896 1.00128 
-4.17402e-05 0.000155589 1.00128 
-2.44109e-06 0.00013268 1.00147 
5.70605e-05 9.89854e-05 1.00127 
0.000115972 8.98391e-05 1.00106 
0.000160893 0.000107081 1.00126 
0.000170258 0.000158162 1.00126 
0.000152104 0.000245874 1.00125 
8.42349e-05 0.000434665 1.00124 
-2.95809e-05 0.00085065 1.00123 
-0.000209738 0.00161238 1.00142 
-0.000586556 0.0028464 1.00104 
-0.00141087 0.00444626 1.00144 
-0.00274536 0.00625778 1.00125 
-0.0040559 0.00854564 1.00103 
-0.00454513 0.0128355 1.00141 
-0.0052501 0.0192336 1.00112 
-0.00727282 0.0271747 1.00074 
-0.00704957 0.041845 1.00064 
0.000466005 0.0637204 0.999212 
0.00419963 0.083707 0.997379 
0.0145591 0.101773 0.995767 
0.0224256 0.118413 0.993759 
0.0401693 0.125796 0.991871 
0.0282687 0.146964 0.989591 
0.00943476 0.186095 0.983294 
0.033704 0.189947 0.98251 
0.0380078 0.218401 0.976896 
-0.0257523 0.228903 -0.967793 
-0.0140465 0.166081 -0.98646 
-0.0220975 0.148709 -0.989232 
-0.0111073 0.118945 -0.993797 
-0.0122801 0.0999752 -0.995872 
-0.00654517 0.0809484 -0.997558 
0.000471272 0.0649761 -0.99906 
0.00396578 0.0417208 -1.00031 
0.00427743 0.0306014 -1.00071 
0.00431519 0.0238503 -1.00074 
0.00309337 0.0163357 -1.00134 
0.00293674 0.0114732 -1.00124 
0.00311613 0.00765631 -1.00128 
0.00235218 0.00535332 -1.00128 
0.0011466 0.00390467 -1.00126 
0.000364761 0.00270604 -1.00125 
5.13355e-05 0.00163394 -1.00124 
-3.44652e-05 0.000855442 -1.00125 
-9.03141e-05 0.000429227 -1.00124 
-0.000118133 0.000227083 -1.00124 
-0.000131373 0.000153409 -1.00125 
-0.000139606 0.000113598 -1.00106 
-0.000133582 9.20327e-05 -1.00125 
-9.05139e-05 9.57718e-05 -1.00126 
-3.25714e-05 0.000122348 -1.00126 
1.89666e-05 0.00014497 -1.00126 
5.66878e-05 0.000161645 -1.00127 
8.08025e-05 0.000177467 -1.00148 
8.64381e-05 0.000183897 -1.00129 
7.59399e-05 0.000192027 -1.0013 
6.09638e-05 0.000190143 -1.00131 
5.2438e-05 0.000182007 -1.00133 
4.33139e-05 0.00016862 -1.00133 
3.38197e-05 0.000162334 -1.00135 
2.5683e-05 0.000156075 -1.00114 
1.54609e-05 0.000146743 -1.00137 
1.66274e-05 0.0001343 -1.0016 
3.38087e-05 0.000130377 -1.00138 
7.42972e-05 0.000118942 -1.0007 
-6.72044e-05 7.18841e-05 1.00069 
-4.103e-05 0.000102961 1.00138 
-2.51317e-05 0.00012145 1.00138 
-2.19401e-05 0.0001429 1.00137 
-2.60194e-05 0.000154572 1.00136 
-3.52172e-05 0.000158475 1.00157 
-4.57287e-05 0.000168251 1.00134 
-5.30578e-05 0.000179132 1.00132 
-6.12456e-05 0.000183666 1.0011 
-7.34104e-05 0.000174683 1.0013 
-8.75981e-05 0.000161233 1.00108 
-8.92026e-05 0.000147845 1.00148 
-7.21503e-05 0.000133482 1.00128 
-3.91411e-05 0.000115615 1.00126 
8.04797e-06 9.48436e-05 1.00106 
7.57714e-05 6.5799e-05 1.00125 
0.000147894 5.65906e-05 1.00146 
0.000190895 7.79568e-05 1.00125 
0.000204602 0.000151336 1.00125 
0.000214498 0.000281094 1.00124 
0.000199193 0.000505193 1.00123 
0.000168367 0.000955979 1.00121 
7.90932e-05 0.00183136 1.00102 
-0.000193709 0.00318843 1.00141 
-0.000927174 0.00494786 1.00104 
-0.00209417 0.00668262 1.00124 
-0.00308295 0.0089469 1.00144 
-0.00309941 0.0132033 1.001 
-0.00304144 0.019137 1.00113 
-0.00342425 0.026492 1.00122 
-0.00100025 0.0378076 1.00046 
0.0085722 0.0563215 0.999719 
0.0197768 0.0803021 0.997955 
0.0350047 0.0896897 0.99649 
0.0506528 0.0997121 0.99458 
0.0757529 0.109429 0.991724 
0.0700057 0.13446 0.989105 
0.0424007 0.160238 0.98569 
0.0671446 0.231448 0.970944 
0.0862628 0.294464 0.950168 
-0.0331521 0.196858 -0.979737 
-0.0420679 0.182965 -0.982882 
-0.0375547 0.132563 -0.991232 
-0.0447167 0.112729 -0.993497 
-0.0317874 0.0871199 -0.996791 
-0.0207049 0.06558 -0.998785 
-0.0103091 0.0541495 -0.999669 
-0.00254673 0.0428703 -1.00009 
0.00137284 0.0332242 -1.00068 
0.00141581 0.0227352 -1.00121 
0.000669467 0.0157634 -1.00099 
0.00174732 0.0114388 -1.00125 
0.0025577 0.00753111 -1.00129 
0.0017416 0.00528123 -1.00128 
0.000506427 0.00392321 -1.00126 
-0.000168862 0.00272172 -1.00124 
-0.000304507 0.00168864 -1.00123 
-0.000238941 0.000925994 -1.00123 
-0.000208218 0.000460704 -1.00123 
-0.000172072 0.000250108 -1.00123 
-0.000157988 0.000161326 -1.00123 
-0.000154991 0.000102508 -1.00144 
-0.000154822 5.97268e-05 -1.00125 
-0.000109796 5.46151e-05 -1.00125 
-4.44525e-05 7.28559e-05 -1.00125 
1.50377e-05 0.000101707 -1.00126 
5.80637e-05 0.000128431 -1.00126 
8.96515e-05 0.000151044 -1.00127 
9.37438e-05 0.000164915 -1.00128 
8.03306e-05 0.000179985 -1.00129 
6.39354e-05 0.000187551 -1.0013 
5.09765e-05 0.000187735 -1.00132 
4.50051e-05 0.000176872 -1.00134 
3.28301e-05 0.000168702 -1.00136 
2.3759e-05 0.000160271 -1.00136 
1.81919e-05 0.000147778 -1.00137 
2.00099e-05 0.000125365 -1.00138 
3.41402e-05 0.000106772 -1.00138 
5.51115e-05 7.45813e-05 -1.0007 
-3.17393e-05 5.61554e-05 1.00069 
-2.48215e-05 9.07897e-05 1.00158 
-1.72294e-05 0.000118574 1.00115 
-1.78731e-05 0.000143086 1.00158 
-2.12731e-05 0.000160383 1.00114 
-3.12468e-05 0.00016872 1.00135 
-4.17172e-05 0.000177941 1.00134 
-5.18815e-05 0.000184731 1.00133 
-5.98002e-05 0.000181106 1.00152 
-7.28717e-05 0.000164275 1.00129 
-8.53937e-05 0.000143637 1.00128 
-8.65529e-05 0.000126304 1.00127 
-6.58284e-05 0.000101473 1.00126 
-2.8436e-05 7.43859e-05 1.00125 
2.19116e-05 4.39744e-05 1.00125 
9.4769e-05 1.77982e-05 1.00125 
0.00017116 2.18439e-05 1.00124 
0.000228545 5.55507e-05 1.00123 
0.000277765 0.000138485 1.00123 
0.000331977 0.000279612 1.00122 
0.000344858 0.000517514 1.00121 
0.000324794 0.00101456 1.0012 
0.000316328 0.0019052 1.0012 
0.000185381 0.00328876 1.00121 
-0.000305224 0.00495958 1.00122 
-0.00134841 0.00685686 1.00123 
-0.00209344 0.00919245 1.00124 
-0.00165827 0.0125207 1.00123 
-0.00109139 0.0181679 1.00119 
-0.000413921 0.0253081 1.0011 
0.00336859 0.0351279 1.0008 
0.0157696 0.0501034 0.999978 
0.0273475 0.0663034 0.998695 
0.042414 0.0723465 0.997677 
0.0644603 0.0702888 0.996677 
0.101878 0.109218 0.989493 
0.102313 0.135956 0.986406 
0.0885626 0.173575 0.980668 
0.0630683 0.181162 0.982299 
0.105089 0.235407 0.967414 
-0.0410928 0.241535 -0.967094 
-0.0609575 0.163645 -0.985913 
-0.0739529 0.14034 -0.988142 
-0.0722344 0.103205 -0.993112 
-0.0523123 0.0766011 -0.996934 
-0.0332651 0.0610785 -0.998764 
-0.0160633 0.0493735 -0.999943 
-0.00485558 0.0325199 -1.00097 
-0.00242891 0.0246764 -1.00101 
-0.0020154 0.0168737 -1.00119 
-0.000327322 0.0132229 -1.00124 
0.00153844 0.00986108 -1.00126 
0.0018359 0.00677839 -1.00127 
0.000773967 0.00473674 -1.00125 
-0.000264878 0.00354205 -1.00123 
-0.000630344 0.00257002 -1.00122 
-0.000537534 0.00161987 -1.00121 
-0.000378358 0.000870775 -1.00122 
-0.00031673 0.0004366 -1.00122 
-0.000262352 0.000245607 -1.00122 
-0.000207306 0.000133668 -1.00122 
-0.000182809 6.80579e-05 -1.00124 
-0.000163743 1.53132e-05 -1.00125 
-0.000113659 -1.31538e-06 -1.00125 
-4.68472e-05 2.18168e-05 -1.00125 
7.68312e-06 6.07428e-05 -1.00126 
5.83828e-05 0.000103753 -1.00126 
8.67681e-05 0.000131817 -1.00107 
8.99244e-05 0.000151793 -1.00128 
7.8622e-05 0.00017194 -1.00129 
6.31924e-05 0.000186134 -1.0013 
4.6197e-05 0.000192398 -1.00131 
3.61739e-05 0.000186138 -1.00133 
2.82013e-05 0.000178619 -1.00135 
1.93776e-05 0.000164788 -1.00136 
1.28757e-05 0.000148332 -1.00137 
9.46731e-06 0.000122161 -1.00137 
1.66069e-05 9.45353e-05 -1.00137 
1.78995e-05 6.19698e-05 -1.00069 
1.50696e-05 5.55958e-05 1.00068 
-3.71786e-06 8.16372e-05 1.00113 
-6.09769e-06 0.000109817 1.00135 
-1.18427e-05 0.000141193 1.00135 
-1.72968e-05 0.000163324 1.00135 
-2.24566e-05 0.000176821 1.00134 
-3.02538e-05 0.000185868 1.00133 
-4.23395e-05 0.00019034 1.00132 
-5.33108e-05 0.000188417 1.0013 
-6.2692e-05 0.000172293 1.00128 
-7.41515e-05 0.000143439 1.00127 
-7.86549e-05 0.000113113 1.00126 
-6.40106e-05 8.496e-05 1.00125 
-3.11669e-05 4.82135e-05 1.00124 
6.66503e-06 6.89768e-06 1.00124 
5.76923e-05 -2.74115e-05 1.00124 
0.000141014 -2.66145e-05 1.00123 
0.000227928 1.26904e-07 1.00122 
0.000310163 6.01041e-05 1.00122 
0.000383185 0.000172782 1.00121 
0.000426223 0.000362495 1.0012 
0.000423791 0.0007305 1.00119 
0.00047093 0.00143731 1.00119 
0.00057563 0.00260534 1.0012 
0.000479163 0.00421017 1.00121 
-0.000262327 0.00614764 1.00123 
-0.00114178 0.00808483 1.00123 
-0.000834304 0.0106507 1.00123 
0.000364411 0.0146784 1.00123 
0.00147136 0.0195346 1.00122 
0.00367723 0.0263222 1.00111 
0.0117173 0.036975 1.00072 
0.0284114 0.0470266 0.999944 
0.0396447 0.0526236 0.99922 
0.0552521 0.0526492 0.998422 
0.0963208 0.0707613 0.994331 
0.148589 0.115591 0.983115 
0.151581 0.165551 0.974796 
0.135309 0.243482 0.959797 
0.120788 0.320244 0.935673 
-0.0246593 0.184108 -0.982364 
-0.094107 0.206433 -0.974382 
-0.112124 0.138946 -0.984827 
-0.0948703 0.0813162 -0.993385 
-0.0644101 0.0620062 -0.997446 
-0.0367289 0.0465493 -0.999617 
-0.0195109 0.0356622 -1.00068 
-0.00966921 0.029518 -1.00069 
-0.00562564 0.0192562 -1.00119 
-0.00328945 0.0142336 -1.00127 
-0.0011213 0.0126028 -1.00128 
0.000812438 0.00954368 -1.00128 
0.00106415 0.0063152 -1.00128 
3.71821e-05 0.00455798 -1.00125 
-0.00082896 0.00345255 -1.00123 
-0.000967434 0.00244623 -1.00121 
-0.000729167 0.00155094 -1.0012 
-0.000474337 0.000851778 -1.0012 
-0.000371245 0.000432423 -1.0012 
-0.000322003 0.000230938 -1.0012 
-0.000263228 0.000113309 -1.00121 
-0.000207349 3.16277e-05 -1.00122 
-0.000167834 -2.24669e-05 -1.00123 
-0.00011203 -5.35325e-05 -1.00124 
-6.07804e-05 -3.59207e-05 -1.00124 
-1.08313e-05 6.42356e-06 -1.00125 
3.99783e-05 6.54793e-05 -1.00126 
7.54463e-05 0.000107805 -1.00147 
8.27775e-05 0.000141725 -1.00128 
7.35797e-05 0.000172315 -1.00129 
5.53847e-05 0.000193289 -1.0013 
4.07834e-05 0.000201547 -1.00131 
3.00888e-05 0.000195695 -1.00133 
2.05236e-05 0.000188481 -1.00134 
1.67392e-05 0.000172886 -1.00136 
1.08511e-05 0.000151128 -1.00136 
3.65043e-06 0.000125016 -1.00136 
-9.3474e-07 9.48918e-05 -1.00137 
-1.98065e-05 6.77675e-05 -1.00069 
3.83408e-05 7.69599e-05 1.00068 
1.50047e-05 9.61047e-05 1.00155 
1.09868e-06 0.00012626 1.00134 
-6.70143e-06 0.000153806 1.00134 
-1.10855e-05 0.000176205 1.00133 
-1.52696e-05 0.000189635 1.00133 
-2.53989e-05 0.000200689 1.00131 
-3.79085e-05 0.000204183 1.00129 
-4.98027e-05 0.000195515 1.00128 
-6.20363e-05 0.000172471 1.00127 
-7.08053e-05 0.00013769 1.00125 
-6.64304e-05 9.54005e-05 1.00125 
-4.40757e-05 4.81651e-05 1.00124 
-1.13394e-05 -6.09795e-06 1.00123 
2.13945e-05 -5.23429e-05 1.00123 
7.11311e-05 -6.93049e-05 1.00123 
0.000156023 -6.18054e-05 1.00121 
0.000265006 -3.95724e-05 1.00121 
0.000368781 1.5427e-05 1.0012 
0.000443413 0.00014182 1.00119 
0.00048967 0.000347997 1.00118 
0.000512657 0.00072838 1.00118 
0.000612664 0.00144581 1.00119 
0.000829059 0.00260898 1.00121 
0.000889579 0.00437533 1.00122 
0.000298884 0.00632522 1.00124 
-0.000238644 0.00804163 1.00125 
0.000228241 0.0105958 1.00104 
0.00161261 0.0135839 1.00148 
0.00349213 0.0172396 1.0013 
0.00651584 0.0228169 1.00124 
0.013751 0.0304596 1.00071 
0.022251 0.031306 1.00105 
0.0349204 0.035368 1.00003 
0.0532106 0.0355095 0.999865 
0.0923016 0.0445622 0.996077 
0.158205 0.0849484 0.985026 
0.211177 0.145735 0.966859 
0.167222 0.225036 0.95908 
0.203615 0.29652 0.935625 
-0.0569197 0.257637 -0.961758 
-0.134366 0.193031 -0.972677 
-0.127865 0.0802171 -0.989624 
-0.0793949 0.0355001 -0.997684 
-0.0477968 0.0323871 -1 
-0.0284606 0.0255531 -1.00087 
-0.0179609 0.0235456 -1.00118 
-0.010108 0.0227314 -1.00143 
-0.00592508 0.0135793 -1.00135 
-0.00343314 0.0117194 -1.00133 
-0.0011698 0.0111015 -1.00108 
0.000467445 0.00775043 -1.00151 
2.86248e-05 0.00511008 -1.00127 
-0.00101141 0.00384246 -1.00123 
-0.00138127 0.00294471 -1.00121 
-0.00111477 0.00204824 -1.00119 
-0.00072241 0.00120955 -1.00118 
-0.000488491 0.000620048 -1.00119 
-0.000391636 0.000313692 -1.00119 
-0.000346262 0.000163086 -1.00119 
-0.000288687 4.90529e-05 -1.0012 
-0.000227403 -3.27227e-05 -1.00121 
-0.000160577 -8.16941e-05 -1.00123 
-0.000103352 -0.000105382 -1.00123 
-5.88677e-05 -8.13659e-05 -1.00124 
-9.91624e-06 -2.72469e-05 -1.00124 
4.11153e-05 4.30853e-05 -1.00125 
7.22117e-05 0.000100445 -1.00106 
7.62903e-05 0.000150359 -1.00126 
6.57097e-05 0.000180707 -1.00128 
4.78085e-05 0.00020667 -1.00129 
3.20519e-05 0.00021464 -1.00129 
2.06081e-05 0.000206463 -1.00131 
1.14941e-05 0.000196237 -1.00132 
9.9588e-06 0.000178184 -1.00134 
4.64073e-06 0.000157588 -1.00134 
-5.48354e-06 0.000132598 -1.00134 
-1.47928e-05 0.000103046 -1.00135 
-3.68996e-05 8.69463e-05 -1.00068 
5.4e-05 0.000105527 1.00066 
2.71202e-05 0.000115087 1.00111 
7.95938e-06 0.000135465 1.00133 
-5.2785e-06 0.000162182 1.00153 
-1.23503e-05 0.000181542 1.00111 
-1.62697e-05 0.000196942 1.00131 
-2.00638e-05 0.00020784 1.0013 
-2.85617e-05 0.000216488 1.00128 
-3.99448e-05 0.000214016 1.00126 
-5.33909e-05 0.000194357 1.00126 
-6.29769e-05 0.000154686 1.00124 
-6.14908e-05 9.52895e-05 1.00124 
-4.29871e-05 3.17187e-05 1.00123 
-1.43904e-05 -2.88655e-05 1.00122 
1.2526e-05 -7.87765e-05 1.00122 
4.62984e-05 -0.000102317 1.00121 
0.000110568 -0.000118914 1.00121 
0.000219407 -0.000118186 1.00119 
0.000335377 -8.16689e-05 1.00118 
0.000445656 2.10215e-05 1.00118 
0.000536795 0.000204834 1.00117 
0.000578787 0.000510397 1.00115 
0.000612483 0.00101581 1.00116 
0.00080304 0.00190682 1.00118 
0.00117241 0.00332625 1.00139 
0.00121221 0.00515683 1.00103 
0.000801337 0.00659404 1.00145 
0.000525468 0.00837137 1.00127 
0.00140477 0.0103245 1.00129 
0.00306071 0.0126343 1.00134 
0.00588956 0.0158043 1.00139 
0.00988325 0.0203045 1.00133 
0.0168565 0.0210354 1.00108 
0.0294547 0.0211792 1.00137 
0.0540262 0.0218324 0.99992 
0.0939335 0.0216482 0.997263 
0.147326 0.0456866 0.989697 
0.246536 0.0994909 0.964802 
0.336828 0.270416 0.900415 
0.251288 0.442241 0.854149 
-0.0859996 0.279028 -0.952654 
-0.173797 0.18719 -0.967904 
-0.124018 0.0280352 -0.992918 
-0.0709435 0.00420494 -0.999203 
-0.0400016 0.0143707 -1.001 
-0.0213534 0.0118897 -1.00178 
-0.014197 0.0142473 -1.00124 
-0.0100664 0.0154288 -1.00144 
-0.0066492 0.0105616 -1.00146 
-0.00363619 0.0102507 -1.00141 
-0.0014589 0.00966674 -1.00134 
-7.58809e-05 0.00671313 -1.00112 
-0.000803437 0.0044423 -1.00129 
-0.00165151 0.00344612 -1.00143 
-0.00160244 0.00267667 -1.00102 
-0.00110435 0.0017663 -1.00137 
-0.000721949 0.00103042 -1.00099 
-0.000516429 0.000507449 -1.00135 
-0.000431644 0.000247607 -1.00099 
-0.00037791 8.43706e-05 -1.00117 
-0.000318634 -4.01653e-06 -1.00118 
-0.000231461 -0.000101421 -1.00119 