# vtk DataFile Version 3.0 
Exported using Morpho https://github.com/Morpho-lang/morpho 
ASCII 
DATASET UNSTRUCTURED_GRID 

POINTS 1978 float 
-12 -4 5.67111e-13 
-11.6142 -4 5.87038e-13 
-11.3189 -4 -2.02792e-13 
-10.9794 -4 1.14509e-12 
-10.6521 -4 -1.31718e-12 
-10.3022 -4 -5.75434e-14 
-9.99685 -4 -1.53804e-13 
-9.65078 -4 -1.56191e-12 
-9.3081 -4 -1.22254e-13 
-8.99842 -4 -4.31124e-13 
-8.69122 -4 -1.10425e-12 
-8.38078 -4 -1.16755e-13 
-8.08331 -4 -5.30875e-13 
-7.76641 -4 -1.18831e-13 
-7.47598 -4 2.55078e-13 
-7.19377 -4 -9.79123e-13 
-6.91075 -4 -5.09385e-13 
-6.60404 -4 -1.73145e-12 
-6.29868 -4 -3.42775e-12 
-5.9905 -4 -3.59767e-12 
-5.68923 -4 -1.06848e-12 
-5.39101 -4 8.42997e-13 
-5.1045 -4 4.06682e-13 
-4.80864 -4 3.6525e-12 
-4.50665 -4 1.03469e-11 
-4.20685 -4 1.20297e-11 
-3.90539 -4 -9.98517e-12 
-3.57593 -4 -2.34569e-11 
-3.25947 -4 -3.7961e-12 
-2.9473 -4 2.33283e-12 
-2.62706 -4 -4.65616e-11 
-2.32986 -4 -1.30499e-10 
-2.07007 -4 -2.64703e-10 
-1.79087 -4 -4.67484e-10 
-1.61251 -4 -3.23388e-10 
-1.42076 -4 -2.09033e-10 
-1.26999 -4 -1.6712e-09 
-1.10885 -4 1.72006e-08 
-0.931723 -4 -2.2631e-08 
-0.173093 -4.00001 3.63465e-07 
0.392601 -4 2.78755e-07 
0.748047 -4 -2.12244e-09 
1.06357 -4 3.16537e-09 
1.23782 -4 5.11795e-10 
1.47951 -4 5.84419e-10 
1.72672 -4 5.45254e-10 
1.9774 -4 3.37501e-10 
2.30215 -4 4.60431e-11 
2.60915 -4 2.72103e-12 
2.96048 -4 1.46647e-11 
3.26539 -4 6.11199e-12 
3.56299 -4 1.58515e-11 
3.87228 -4 6.42294e-12 
4.18825 -4 -2.08388e-11 
4.49053 -4 -7.06668e-12 
4.79223 -4 1.41525e-12 
5.09564 -4 -2.65014e-12 
5.39542 -4 -4.93576e-13 
5.69921 -4 8.53168e-13 
5.9924 -4 3.35264e-12 
6.29627 -4 3.23147e-12 
6.57765 -4 1.77419e-12 
6.89318 -4 5.05204e-14 
7.18657 -4 7.64765e-13 
7.48475 -4 -3.55925e-13 
7.7844 -4 6.3245e-13 
8.07806 -4 -8.24154e-14 
8.36028 -4 1.54387e-13 
8.66076 -4 1.23113e-12 
8.94401 -4 -1.76489e-13 
9.28914 -4 6.18908e-13 
9.61803 -4 1.17019e-12 
9.91248 -4 -4.98989e-13 
10.2806 -4 9.34016e-13 
10.6027 -4 -1.00178e-13 
10.9819 -4 -3.32723e-13 
11.3035 -4 9.40256e-14 
11.5907 -4 -4.33104e-13 
12 -4 -6.70452e-13 
-12 -3.61663 -9.38286e-13 
-11.7098 -3.71046 -1.67763e-18 
-11.3625 -3.62523 4.00282e-17 
-11.0544 -3.67348 -1.06494e-17 
-10.7163 -3.6631 8.23928e-18 
-10.3801 -3.68628 -1.28519e-16 
-10.0389 -3.64785 1.42114e-17 
-9.72128 -3.68879 -4.03934e-16 
-9.3773 -3.68454 1.06011e-17 
-9.04975 -3.65877 -2.18725e-16 
-8.73969 -3.6617 -3.36619e-16 
-8.42653 -3.66896 2.42185e-17 
-8.11177 -3.65712 7.0574e-18 
-7.80546 -3.67753 1.50493e-18 
-7.48976 -3.65297 -1.97277e-16 
-7.19376 -3.6428 2.84622e-16 
-6.88411 -3.67222 -2.39094e-16 
-6.57604 -3.66774 2.36988e-17 
-6.26486 -3.67212 6.47372e-17 
-5.95795 -3.66872 1.45227e-16 
-5.65334 -3.66783 3.44081e-16 
-5.35929 -3.65646 1.87977e-15 
-5.05812 -3.66767 8.04133e-15 
-4.75056 -3.67307 2.53526e-14 
-4.44597 -3.66708 -4.31348e-21 
-4.1341 -3.66819 -1.23694e-20 
-3.80054 -3.69508 -3.3189e-20 
-3.46795 -3.67906 -8.84894e-20 
-3.13846 -3.67228 -2.91702e-19 
-2.80408 -3.68098 -9.80911e-19 
-2.48337 -3.67559 -3.33953e-18 
-2.18395 -3.64846 -5.18057e-18 
-1.90303 -3.70738 -1.11934e-17 
-1.66939 -3.61181 -1.58762e-17 
-1.48734 -3.74476 -3.23024e-17 
-1.42708 -3.45592 -1.72144e-17 
-1.28921 -3.66854 -4.28657e-17 
-1.11778 -3.74122 -5.23544e-17 
-0.850345 -3.85288 -1.42114e-16 
0.0754299 -3.90775 1.78983e-15 
0.365179 -3.7865 1.99672e-14 
0.922572 -3.84246 3.49369e-17 
1.30435 -3.75156 2.47367e-17 
1.53478 -3.68907 1.61953e-17 
1.75333 -3.66156 1.30124e-17 
1.98334 -3.64255 6.9773e-18 
2.21617 -3.73218 3.00672e-18 
2.48948 -3.69158 1.20619e-18 
2.78136 -3.72302 4.44316e-19 
3.07713 -3.67473 1.6279e-19 
3.3634 -3.65594 6.30441e-20 
3.66271 -3.66532 2.46131e-20 
3.97083 -3.67083 9.15964e-21 
4.27202 -3.65994 3.72344e-21 
4.56949 -3.6633 -2.43943e-14 
4.86899 -3.6687 -8.24777e-15 
5.16494 -3.66608 -1.72676e-15 
5.46461 -3.67208 -3.67958e-16 
5.75677 -3.66036 1.00709e-17 
6.05831 -3.67123 -9.39592e-17 
6.3436 -3.64388 9.59363e-18 
6.64999 -3.68095 -2.09597e-17 
6.94753 -3.65761 2.14868e-18 
7.24759 -3.66397 9.01092e-18 
7.55112 -3.66612 3.27055e-17 
7.84943 -3.65614 1.56309e-17 
8.14245 -3.64163 -1.41083e-17 
8.43957 -3.66402 2.17413e-17 
8.73224 -3.64047 -1.40232e-17 
9.05629 -3.70162 2.83371e-18 
9.39029 -3.68282 -1.35822e-17 
9.69814 -3.64191 -6.57363e-18 
10.0385 -3.71112 6.38761e-17 
10.3742 -3.66452 -7.46347e-18 
10.7338 -3.71206 1.49907e-16 
11.0711 -3.65672 -2.25213e-16 
11.37 -3.61302 -1.78698e-16 
11.7175 -3.72644 -3.86647e-17 
12 -3.60755 8.47138e-13 
-12 -3.32301 -9.77626e-14 
-11.6217 -3.36369 1.23224e-17 
-11.2731 -3.28256 9.20881e-17 
-10.9577 -3.33939 1.07992e-16 
-10.6481 -3.29727 -1.2967e-16 
-10.3565 -3.36007 -1.20981e-16 
-10.0467 -3.29738 -5.52519e-18 
-9.73558 -3.34706 -2.04988e-16 
-9.42092 -3.36699 -8.40988e-17 
-9.09591 -3.32953 -1.25707e-17 
-8.78393 -3.31876 -5.48678e-17 
-8.47935 -3.33399 5.15009e-17 
-8.17165 -3.3287 -5.32102e-18 
-7.85618 -3.33699 2.5722e-17 
-7.55424 -3.33397 -8.14811e-19 
-7.24137 -3.30425 1.15573e-17 
-6.93623 -3.3409 8.87076e-18 
-6.62826 -3.33758 1.94322e-17 
-6.31805 -3.34427 -7.53393e-17 
-6.00923 -3.34001 -8.96484e-17 
-5.70456 -3.33944 -2.56043e-16 
-5.40326 -3.32035 1.14274e-15 
-5.10444 -3.33653 1.12267e-15 
-4.80053 -3.34743 1.37598e-14 
-4.49369 -3.33629 4.80998e-14 
-4.18637 -3.34482 -1.02502e-20 
-3.85901 -3.38396 -2.82345e-20 
-3.5252 -3.36743 -8.28132e-20 
-3.18703 -3.35451 -1.90956e-19 
-2.84379 -3.36609 -8.372e-19 
-2.50334 -3.34891 -1.0644e-18 
-2.20883 -3.29835 -2.27508e-18 
-1.94553 -3.38325 -5.73e-18 
-1.67159 -3.33046 -8.87995e-18 
-1.47515 -3.16505 6.41972e-18 
-1.22716 -3.11712 1.20103e-17 
-1.22571 -3.36707 -1.76447e-17 
-1.07697 -3.52858 -1.97341e-16 
-0.856592 -3.66702 9.00664e-17 
-0.579565 -3.92864 8.34047e-16 
0.602915 -3.82801 8.60807e-17 
1.10977 -3.67116 1.63239e-17 
1.07815 -3.45642 2.23034e-17 
1.34477 -3.4733 2.14512e-18 
1.49065 -3.2742 1.32916e-17 
1.70223 -3.30905 1.83193e-18 
1.94693 -3.30385 3.10326e-18 
2.22541 -3.40146 1.85971e-18 
2.52306 -3.38214 9.8278e-19 
2.82273 -3.40034 3.71245e-19 
3.13058 -3.33809 9.06554e-20 
3.46168 -3.33566 3.82827e-20 
3.79752 -3.34864 1.43512e-20 
4.12627 -3.33661 5.81311e-21 
4.45058 -3.33001 -3.5166e-14 
4.76686 -3.33974 -1.10827e-14 
5.07797 -3.33563 -2.93048e-15 
5.38779 -3.34503 -1.02417e-15 
5.69279 -3.32728 -9.14299e-17 
5.99845 -3.34485 -1.14862e-17 
6.30237 -3.30073 2.64547e-17 
6.60424 -3.34965 1.95092e-17 
6.90803 -3.32321 -2.86707e-16 
7.21195 -3.32944 1.01336e-16 
7.51732 -3.33516 4.02653e-16 
7.82368 -3.31855 1.71775e-16 
8.12657 -3.30057 -3.44075e-18 
8.4344 -3.31768 -1.3205e-16 
8.75469 -3.3205 2.31474e-16 
9.07741 -3.38678 -2.3811e-16 
9.39002 -3.34393 1.85485e-16 
9.70624 -3.30259 -2.1847e-16 
10.0182 -3.39318 2.33311e-16 
10.3115 -3.31061 -2.58425e-16 
10.633 -3.39452 -1.13623e-16 
10.9634 -3.34669 -5.95755e-17 
11.2902 -3.25671 -1.46416e-17 
11.6301 -3.37332 -1.29172e-17 
12 -3.30764 3.81955e-13 
-12 -2.98568 -7.84339e-13 
-11.6713 -3.05955 2.73502e-17 
-11.3339 -2.96854 -3.95527e-16 
-10.981 -2.98336 -2.41262e-18 
-10.6417 -2.97194 -7.21485e-17 
-10.3044 -2.99528 -2.8669e-18 
-9.97256 -2.96314 6.60164e-18 
-9.66431 -3.01166 2.70901e-16 
-9.35541 -3.02741 1.06174e-16 
-9.04487 -2.9853 -2.69599e-17 
-8.73636 -2.97949 2.68772e-17 
-8.43128 -2.99846 -1.63408e-17 
-8.11622 -3.0038 4.34067e-18 
-7.81187 -2.99776 -3.43143e-17 
-7.50563 -3.00343 -1.36553e-17 
-7.20216 -2.96957 -6.3427e-18 
-6.9041 -3.01122 3.85681e-18 
-6.59592 -3.01008 4.41397e-18 
-6.28871 -3.01628 -4.77247e-17 
-5.98626 -3.01032 -2.06049e-16 
-5.68507 -3.00944 3.58495e-16 
-5.38678 -2.98988 -5.90075e-16 
-5.08801 -3.00665 1.81031e-15 
-4.78857 -3.02092 3.03184e-15 
-4.48472 -3.00764 2.51278e-14 
-4.17672 -3.01951 -1.58489e-15 
-3.86063 -3.07111 -1.17508e-20 
-3.53175 -3.05002 -2.14084e-20 
-3.19226 -3.04104 -9.20484e-20 
-2.84108 -3.04935 -1.81766e-20 
-2.50875 -3.01796 -6.55892e-20 
-2.15594 -2.99949 -4.68975e-19 
-1.84034 -3.06545 4.53958e-18 
-1.56246 -2.9263 1.93859e-18 
-1.27402 -2.8237 2.96154e-18 
-1.02738 -2.81678 2.24722e-18 
-0.979149 -3.06112 -2.8881e-17 
-0.985872 -3.30428 6.98916e-17 
-0.597311 -3.73812 -4.17316e-16 
-0.346637 -3.81914 -5.62622e-17 
0.840914 -3.66232 -2.17162e-17 
0.850217 -3.41438 5.23226e-17 
1.16818 -3.22815 -5.92791e-18 
1.14281 -2.94145 1.54956e-17 
1.41514 -3.00007 -9.28821e-18 
1.69411 -2.94806 -1.23567e-19 
1.96311 -2.94028 -1.66583e-18 
2.21032 -3.07759 1.44423e-19 
2.48979 -3.06901 -2.52395e-19 
2.80682 -3.07476 -9.61446e-20 
3.13977 -3.02802 1.38474e-20 
3.48426 -3.02774 6.75548e-21 
3.82209 -3.03281 -4.32995e-14 
4.15155 -3.01697 -1.53944e-14 
4.47345 -3.00788 -2.59365e-15 
4.78577 -3.01476 7.0497e-16 
5.09645 -3.01196 5.79578e-16 
5.39999 -3.01717 2.04852e-16 
5.70368 -2.99947 -1.7818e-16 
6.00658 -3.01757 -2.31949e-17 
6.31162 -2.97025 -4.72863e-16 
6.61144 -3.01688 3.37791e-16 
6.91419 -2.98965 -1.17808e-17 
7.2162 -2.99569 1.05864e-16 
7.51778 -3.00406 5.4956e-18 
7.82326 -2.98441 9.60612e-18 
8.12792 -2.96893 -2.99768e-16 
8.43886 -2.9915 -6.76342e-18 
8.74014 -2.97646 7.34566e-18 
9.04516 -3.05653 1.33762e-17 
9.35867 -3.01396 2.1218e-17 
9.65841 -2.95914 1.76784e-17 
9.98368 -3.03742 3.12932e-17 
10.3212 -2.98573 2.0848e-17 
10.6542 -3.05959 1.41364e-16 
10.9832 -3.00556 -2.15622e-16 
11.3359 -2.93516 2.80325e-16 
11.664 -3.06003 -1.85724e-17 
12 -2.97735 1.04986e-12 
-12 -2.67092 -1.72047e-13 
-11.652 -2.72609 -5.16331e-18 
-11.3251 -2.62837 7.89542e-17 
-11.0014 -2.66619 -2.44106e-16 
-10.6576 -2.64774 1.41819e-17 
-10.32 -2.67013 -1.2585e-16 
-9.9831 -2.64628 8.6002e-18 
-9.64358 -2.66873 -1.29789e-16 
-9.33246 -2.68449 -1.56594e-16 
-9.0145 -2.64914 -3.34449e-17 
-8.70205 -2.64585 -2.77675e-17 
-8.38745 -2.67593 2.52679e-17 
-8.07804 -2.67102 6.85748e-18 
-7.77002 -2.66676 -1.27855e-17 
-7.46935 -2.66599 1.04233e-17 
-7.15694 -2.64384 6.47969e-17 
-6.85546 -2.68222 1.84871e-18 
-6.54925 -2.68477 5.6947e-18 
-6.25068 -2.68417 -2.43507e-16 
[...]
POINT_DATA 1978 
VECTORS vectors float
-3.10957e-06 0.000212791 1 
1.09704e-06 0.000161058 1 
-3.81992e-07 0.000141808 1 
-3.69105e-07 0.00013369 1 
-8.29961e-07 0.000134465 1 
-1.12824e-06 0.000141144 1 
-1.48394e-06 0.000149203 1 
-1.94426e-06 0.000161772 1 
-2.0696e-06 0.000176259 1 
-1.96536e-06 0.000187963 1 
-1.84149e-06 0.000196901 1 
-1.41808e-06 0.000202721 1 
-4.55931e-07 0.000200278 1 
6.94917e-07 0.000183898 1 
1.70328e-06 0.000157812 1 
2.15016e-06 0.000135311 1 
2.17063e-06 0.000125755 1 
1.89616e-06 0.000136152 1 
8.55159e-07 0.00016196 1 
-2.60045e-06 0.000213865 1 
-1.05749e-05 0.000342001 1 
-2.4337e-05 0.000639382 1 
-4.57976e-05 0.00118616 0.999999 
-7.27074e-05 0.00205421 0.999998 
-0.000102889 0.00321676 0.999995 
-0.000147317 0.00472676 0.999989 
-0.000226779 0.00702923 0.999975 
-0.000309272 0.0107073 0.999943 
-0.000421 0.0152376 0.999884 
-0.000684201 0.0225576 0.999745 
-0.000964527 0.0365061 0.999333 
-0.00117204 0.0568893 0.99838 
-0.00118359 0.0797259 0.996816 
-0.00131717 0.109919 0.99394 
-0.00118946 0.130933 0.991391 
-0.00100157 0.152132 0.98836 
-0.000829455 0.16743 0.985884 
-0.000661562 0.185685 0.982609 
-0.00555569 0.198554 0.980074 
-0.00779284 0.273719 0.961777 
-0.00581501 0.185274 -0.982669 
-0.00244366 0.195062 -0.980788 
0.00019855 0.174613 -0.984637 
0.0012267 0.152803 -0.988256 
0.00118272 0.121245 -0.992622 
0.00146518 0.0914683 -0.995807 
0.00129247 0.0642454 -0.997933 
0.00107499 0.0404832 -0.99918 
0.000713347 0.0273391 -0.999626 
0.00045961 0.0185173 -0.999829 
0.000325375 0.0129524 -0.999916 
0.0002247 0.0089119 -0.99996 
0.000168427 0.00630314 -0.99998 
0.000126377 0.00443478 -0.99999 
8.95404e-05 0.00303974 -0.999995 
6.30502e-05 0.00196525 -0.999998 
4.12271e-05 0.00115334 -0.999999 
2.26267e-05 0.000616055 -1 
9.88858e-06 0.000318818 -1 
2.45367e-06 0.000188599 -1 
-8.40013e-07 0.00014141 -1 
-2.12199e-06 0.000124646 -1 
-2.69359e-06 0.00012299 -1 
-2.79139e-06 0.000137591 -1 
-2.41573e-06 0.000167241 -1 
-1.16607e-06 0.000196652 -1 
2.47161e-07 0.000211014 -1 
1.31967e-06 0.000211763 -1 
1.7468e-06 0.000204944 -1 
2.16838e-06 0.000196452 -1 
2.2182e-06 0.000182807 -1 
1.81414e-06 0.000169941 -1 
1.54381e-06 0.00015936 -1 
1.29278e-06 0.000147769 -1 
8.80774e-07 0.000140213 -1 
4.25058e-07 0.000136866 -1 
3.61318e-07 0.000142448 -1 
-1.07267e-06 0.000158526 -1 
2.79606e-06 0.000210037 -1 
-6.63829e-05 0.000166745 1 
-2.88859e-05 0.000154546 1 
-1.88162e-05 0.000133279 1 
-1.29024e-05 0.000130669 1 
-1.3075e-05 0.00013175 1 
-1.50475e-05 0.000138649 1 
-2.05826e-05 0.000146174 1 
-2.29219e-05 0.000155857 1 
-2.73719e-05 0.00016659 1 
-3.24354e-05 0.000174299 1 
-3.34375e-05 0.000179283 1 
-3.00479e-05 0.000180855 1 
-2.25779e-05 0.000174369 1 
-7.41742e-06 0.000161845 1 
1.28202e-05 0.000137658 1 
3.39563e-05 0.000120458 1 
5.00781e-05 0.000119205 1 
6.0264e-05 0.000137667 1 
5.61598e-05 0.000185144 1 
3.46443e-05 0.000288115 1 
-1.80721e-05 0.00050399 1 
-0.000118428 0.000908712 1 
-0.000296901 0.00156972 0.999999 
-0.000582835 0.00255888 0.999997 
-0.000967976 0.00389703 0.999992 
-0.00139777 0.00577249 0.999983 
-0.00180535 0.00863156 0.999961 
-0.00242318 0.0127856 0.999915 
-0.00299642 0.0189539 0.999816 
-0.00329798 0.0292946 0.999566 
-0.00303901 0.0446911 0.998996 
-0.00162111 0.0641596 0.997938 
-0.000592711 0.0912329 0.99583 
0.00255034 0.112678 0.993628 
0.00193587 0.137116 0.990553 
0.0157899 0.125364 0.991985 
0.0092812 0.152495 0.988261 
0.0117666 0.172267 0.98498 
0.0136915 0.208055 0.978021 
0.0557794 0.285282 0.956818 
-0.02015 0.201643 -0.979251 
-0.012204 0.186383 -0.982401 
-0.00543728 0.132811 -0.991126 
-0.00173991 0.104022 -0.994574 
0.00119131 0.0824675 -0.996593 
0.00253971 0.0625607 -0.998038 
0.00337639 0.0463956 -0.998918 
0.00303957 0.0328942 -0.999454 
0.00259278 0.0233774 -0.999723 
0.00214365 0.0167104 -0.999858 
0.00186458 0.012062 -0.999926 
0.00158267 0.00854191 -0.999962 
0.00121129 0.00601094 -0.999981 
0.000916756 0.00427423 -0.999991 
0.000614071 0.00296455 -0.999996 
0.000339126 0.0019511 -0.999998 
0.000145889 0.00121143 -0.999999 
3.49101e-05 0.00069459 -1 
-1.98693e-05 0.000394476 -1 
-4.36945e-05 0.000227208 -1 
-5.88551e-05 0.00015571 -1 
-5.50942e-05 0.000123739 -1 
-5.13261e-05 0.000115966 -1 
-3.70862e-05 0.00012593 -1 
-1.82665e-05 0.000147516 -1 
1.97469e-06 0.000167987 -1 
1.97949e-05 0.000179399 -1 
2.98355e-05 0.000186844 -1 
3.5954e-05 0.000183528 -1 
3.08467e-05 0.000182153 -1 
2.87884e-05 0.000172167 -1 
2.63259e-05 0.000162335 -1 
1.76778e-05 0.000153853 -1 
1.49552e-05 0.000143877 -1 
1.05577e-05 0.000136809 -1 
1.17146e-05 0.000133631 -1 
1.67316e-05 0.000134792 -1 
2.5512e-05 0.000155676 -1 
6.25288e-05 0.000163258 -1 
-7.78749e-05 0.000120298 1 
-3.79891e-05 0.000122944 1 
-2.38498e-05 0.000121502 1 
-1.99343e-05 0.000128166 1 
-2.22651e-05 0.000134474 1 
-2.53577e-05 0.00014085 1 
-3.28371e-05 0.000149403 1 
-3.84594e-05 0.000155453 1 
-4.46432e-05 0.000161205 1 
-5.24697e-05 0.000163947 1 
-5.59535e-05 0.000162524 1 
-5.22396e-05 0.000158505 1 
-4.09288e-05 0.000148866 1 
-1.79367e-05 0.000134324 1 
1.21249e-05 0.000115832 1 
4.91288e-05 9.77224e-05 1 
8.19688e-05 0.000100622 1 
0.000109763 0.000122227 1 
0.000120238 0.000182062 1 
0.000105632 0.00030962 1 
5.23977e-05 0.000560907 1 
-5.70643e-05 0.0010158 1 
-0.00028041 0.0017185 0.999999 
-0.000664035 0.0027221 0.999996 
-0.00119906 0.00408696 0.999991 
-0.00179995 0.00591979 0.999981 
-0.00244801 0.00864097 0.99996 
-0.00309338 0.0124895 0.999917 
-0.00355699 0.0182405 0.999827 
-0.00341525 0.027894 0.999605 
-0.0017426 0.0415368 0.999136 
0.0018713 0.0581026 0.998309 
0.00404191 0.0787255 0.996888 
0.0108383 0.098813 0.995047 
0.025347 0.104725 0.994178 
0.0434386 0.116713 0.992215 
0.030492 0.142267 0.989359 
0.0286415 0.169029 0.985195 
0.0398796 0.188128 0.981335 
0.0271278 0.226599 0.97361 
-0.0285693 0.194675 -0.980452 
-0.0137093 0.158442 -0.987273 
-0.0264661 0.145941 -0.988939 
-0.0151238 0.116527 -0.993072 
-0.0150296 0.0921548 -0.995631 
-0.00754545 0.0762723 -0.997059 
-0.00250526 0.0599665 -0.998197 
0.00160649 0.0452171 -0.998976 
0.00240944 0.0318649 -0.999489 
0.00251721 0.0223577 -0.999747 
0.00220573 0.0157143 -0.999874 
0.00206056 0.0109449 -0.999938 
0.00177772 0.00757853 -0.99997 
0.00137979 0.00527681 -0.999985 
0.000915266 0.00363935 -0.999993 
0.000471669 0.00245934 -0.999997 
0.000152286 0.0015936 -0.999999 
-9.11862e-06 0.00095872 -1 
-8.13024e-05 0.000548481 -1 
-0.000101472 0.000302786 -1 
-0.000115512 0.000180752 -1 
-0.000102445 0.000122957 -1 
-8.88048e-05 9.91643e-05 -1 
-6.41425e-05 9.81169e-05 -1 
-3.30103e-05 0.000112028 -1 
5.73343e-07 0.000129393 -1 
2.95888e-05 0.000143967 -1 
4.81473e-05 0.000158419 -1 
5.6394e-05 0.000166188 -1 
5.21088e-05 0.000170557 -1 
4.79958e-05 0.000167021 -1 
4.07688e-05 0.000162217 -1 
3.04188e-05 0.000155299 -1 
2.60395e-05 0.000148749 -1 
1.88803e-05 0.00014006 -1 
1.70857e-05 0.00013202 -1 
2.06034e-05 0.000123639 -1 
3.33784e-05 0.000125171 -1 
6.99366e-05 0.000117274 -1 
-6.1053e-05 7.74307e-05 1 
-3.89531e-05 0.000101229 1 
-2.40832e-05 0.000111241 1 
-2.10456e-05 0.000124952 1 
-2.39355e-05 0.000137572 1 
-2.97551e-05 0.000146511 1 
-3.733e-05 0.000154056 1 
-4.54938e-05 0.000158496 1 
-5.35102e-05 0.000158921 1 
-6.067e-05 0.000154888 1 
-6.35583e-05 0.000146485 1 
-5.88569e-05 0.000135225 1 
-4.33333e-05 0.000119587 1 
-1.61306e-05 0.000100349 1 
2.18356e-05 8.18395e-05 1 
6.70981e-05 6.69418e-05 1 
0.000109355 7.67274e-05 1 
0.000151624 0.000108703 1 
0.000177768 0.000186163 1 
0.00018041 0.000341925 1 
0.000148648 0.000639201 1 
7.39494e-05 0.00115108 0.999999 
-0.000124434 0.00192845 0.999998 
-0.000483175 0.00299365 0.999996 
-0.000968597 0.00441143 0.99999 
-0.00155771 0.00634419 0.999979 
-0.00217729 0.00891837 0.999958 
-0.00254056 0.0125256 0.999918 
-0.00253612 0.017744 0.999839 
-0.00160597 0.026019 0.99966 
0.00164571 0.0377449 0.999286 
0.00831145 0.0533532 0.998541 
0.0148597 0.0732844 0.997201 
0.0294019 0.0847355 0.99597 
0.0477594 0.0912333 0.994684 
0.0694486 0.100151 0.992546 
0.0702059 0.128971 0.98916 
0.0575161 0.151299 0.986813 
0.0546191 0.235259 0.970397 
0.0695872 0.257857 0.963674 
-0.0305977 0.184779 -0.982304 
-0.043787 0.17401 -0.98377 
-0.0336375 0.11852 -0.992382 
-0.0433169 0.101661 -0.993876 
-0.0286038 0.0821538 -0.996209 
-0.0180257 0.06465 -0.997745 
-0.0102089 0.0500195 -0.998696 
-0.00343296 0.0414781 -0.999134 
-0.000756474 0.0301182 -0.999546 
0.00063899 0.0213578 -0.999772 
0.00118669 0.0150465 -0.999886 
0.00145965 0.0105172 -0.999944 
0.00140473 0.00742578 -0.999972 
0.00109127 0.00520961 -0.999986 
0.000637578 0.00363044 -0.999993 
0.000218688 0.00250032 -0.999997 
-5.77543e-05 0.00164874 -0.999999 
-0.000160334 0.00102145 -1 
-0.000183984 0.000590101 -1 
-0.000169587 0.000322562 -1 
-0.000163292 0.000176724 -1 
-0.000136823 0.000108018 -1 
-0.000112314 7.37203e-05 -1 
-7.92515e-05 6.52836e-05 -1 
-4.12822e-05 7.4295e-05 -1 
-1.61816e-06 9.1702e-05 -1 
3.2149e-05 0.000112263 -1 
5.3901e-05 0.000134124 -1 
6.34739e-05 0.000148604 -1 
6.21958e-05 0.000161063 -1 
5.5371e-05 0.00016418 -1 
4.60081e-05 0.000164411 -1 
3.57562e-05 0.000159861 -1 
2.73596e-05 0.000152925 -1 
2.10431e-05 0.000141786 -1 
1.7679e-05 0.000130417 -1 
1.86666e-05 0.000114899 -1 
3.1838e-05 0.000104441 -1 
5.0446e-05 7.92771e-05 -1 
-3.05398e-05 5.69518e-05 1 
-2.35289e-05 8.77225e-05 1 
-1.64396e-05 0.00010824 1 
-1.76776e-05 0.000125129 1 
-2.12632e-05 0.000140398 1 
-2.7469e-05 0.000150649 1 
-3.51076e-05 0.000159631 1 
-4.41671e-05 0.000160472 1 
-5.32829e-05 0.000157835 1 
-6.06377e-05 0.000148325 1 
-6.29759e-05 0.00013259 1 
-5.7028e-05 0.000113434 1 
-3.97952e-05 9.02051e-05 1 
-1.01156e-05 6.59872e-05 1 
3.09022e-05 4.59997e-05 1 
8.33842e-05 3.32201e-05 1 
0.000134535 4.73023e-05 1 
0.000189555 8.82075e-05 1 
0.000230607 0.000177252 1 
0.000253214 0.000352512 1 
0.00025723 0.000666886 1 
0.000233973 0.0012088 0.999999 
0.000110981 0.00201867 0.999998 
-0.000156249 0.0031289 0.999995 
-0.000512566 0.00455624 0.99999 
-0.000943815 0.00637988 0.999979 
-0.00135871 0.00884577 0.99996 
-0.00135819 0.0121489 0.999925 
-0.000833055 0.0169749 0.999856 
0.000963084 0.0237542 0.999718 
0.00535104 0.0338323 0.999413 
0.0138613 0.0464776 0.998823 
0.0237869 0.0612596 0.997839 
0.0383813 0.0665897 0.997042 
0.0593235 0.0701613 0.99577 
0.0931796 0.0922072 0.991371 
0.104817 0.130042 0.985953 
0.0913685 0.164941 0.982062 
0.0673167 0.194325 0.978625 
0.0929283 0.230942 0.96852 
-0.0392032 0.211024 -0.976694 
-0.0555658 0.146518 -0.987646 
-0.076096 0.130401 -0.988537 
-0.0662189 0.0953248 -0.993241 
-0.045433 0.0716583 -0.996394 
-0.0299602 0.0567362 -0.99794 
-0.0166624 0.0443137 -0.998879 
-0.00699326 0.0324184 -0.99945 
-0.00294012 0.0236932 -0.999715 
-0.000883642 0.0174467 -0.999848 
0.000150197 0.0123718 -0.999924 
0.000662688 0.0089377 -0.99996 
0.000750464 0.00653827 -0.999978 
0.000510608 0.00469085 -0.999989 
0.000135437 0.00333709 -0.999995 
-0.000163164 0.00233587 -0.999997 
-0.00031555 0.001561 -0.999999 
-0.000322304 0.000979321 -1 
-0.000277361 0.000562345 -1 
-0.000227336 0.000301878 -1 
-0.000199212 0.000149981 -1 
-0.000160761 7.88288e-05 -1 
-0.00012546 3.78994e-05 -1 
-8.67153e-05 2.71396e-05 -1 
-4.39386e-05 3.75015e-05 -1 
-2.63368e-06 5.61883e-05 -1 
3.3602e-05 8.67534e-05 -1 
5.48977e-05 0.000115509 -1 
6.34876e-05 0.000138057 -1 
6.23937e-05 0.000155147 -1 
5.39996e-05 0.00016422 -1 
4.28818e-05 0.000168574 -1 
3.38488e-05 0.000164782 -1 
2.47865e-05 0.000158747 -1 
1.92497e-05 0.000145937 -1 
1.45281e-05 0.000130813 -1 
1.13346e-05 0.000112108 -1 
1.80345e-05 9.11846e-05 -1 
1.65043e-05 6.32163e-05 -1 
9.94026e-06 5.94442e-05 1 
-5.20486e-06 8.02438e-05 1 
-5.18503e-06 0.000104051 1 
-1.03854e-05 0.000125673 1 
-1.54479e-05 0.000141666 1 
-2.18606e-05 0.0001554 1 
-2.86817e-05 0.000164729 1 
-3.74613e-05 0.000167604 1 
-4.66673e-05 0.000163743 1 
-5.48799e-05 0.000152628 1 
-5.92116e-05 0.000132417 1 
-5.60763e-05 0.000105728 1 
-4.31339e-05 7.57406e-05 1 
-1.82796e-05 4.3849e-05 1 
1.92845e-05 1.65305e-05 1 
6.79636e-05 2.13217e-07 1 
0.000129891 6.71164e-07 1 
0.00019141 3.025e-05 1 
0.000254285 9.91632e-05 1 
0.000304154 0.000238082 1 
0.000344396 0.000489656 1 
0.000372832 0.000924668 1 
0.000366604 0.00164361 0.999999 
0.000256201 0.00263593 0.999997 
5.29321e-05 0.00389098 0.999993 
-0.000210806 0.00552741 0.999985 
-0.000454837 0.00768586 0.999971 
-0.000369291 0.0102102 0.999948 
0.000174253 0.013847 0.999904 
0.00194625 0.0187148 0.999823 
0.00572025 0.0254954 0.999659 
0.0122003 0.0341302 0.999343 
0.0231646 0.0434683 0.998786 
0.0352849 0.0466444 0.998288 
0.0529514 0.0493967 0.997375 
0.0924429 0.0642336 0.993644 
0.138205 0.103032 0.98503 
0.143318 0.155291 0.977417 
0.11584 0.194548 0.974029 
0.104054 0.309654 0.945138 
-0.0330173 0.182068 -0.982731 
-0.0752312 0.190881 -0.978726 
-0.109871 0.115857 -0.987171 
-0.0819024 0.074788 -0.99383 
-0.0553635 0.0549953 -0.996951 
-0.0344566 0.0406663 -0.998579 
-0.0208228 0.0355167 -0.999152 
-0.0106441 0.029107 -0.99952 
-0.00498624 0.0198641 -0.99979 
-0.00247662 0.0148725 -0.999886 
-0.00101442 0.0112967 -0.999936 
-0.00015257 0.00838468 -0.999965 
0.000114305 0.00619719 -0.999981 
1.96075e-07 0.00450888 -0.99999 
-0.000278991 0.00322059 -0.999995 
-0.000471278 0.00227221 -0.999997 
-0.000520509 0.00153727 -0.999999 
-0.000454504 0.000966391 -1 
-0.000363245 0.000559141 -1 
-0.000283878 0.0002916 -1 
-0.000236091 0.000136281 -1 
-0.00018637 4.53035e-05 -1 
-0.000144157 1.11522e-06 -1 
-9.88239e-05 -1.53796e-05 -1 
-5.34211e-05 -3.61142e-06 -1 
-1.06402e-05 1.84972e-05 -1 
2.4892e-05 5.6423e-05 -1 
4.87041e-05 9.51411e-05 -1 
5.83077e-05 0.00012744 -1 
5.81489e-05 0.000153099 -1 
4.86469e-05 0.000168717 -1 
3.72848e-05 0.000176047 -1 
2.93292e-05 0.000172248 -1 
2.04081e-05 0.000165316 -1 
1.49272e-05 0.000150562 -1 
8.93643e-06 0.000133971 -1 
1.79461e-06 0.000116644 -1 
1.65483e-07 9.28006e-05 -1 
-1.26317e-05 6.93945e-05 -1 
3.54473e-05 7.679e-05 1 
1.41482e-05 9.44076e-05 1 
1.9557e-06 0.000117674 1 
-5.97003e-06 0.000137207 1 
-1.33917e-05 0.0001534 1 
-1.93083e-05 0.0001668 1 
-2.63163e-05 0.000175009 1 
-3.43486e-05 0.000176294 1 
-4.26915e-05 0.000169987 1 
-5.06713e-05 0.000151977 1 
-5.34748e-05 0.000122007 1 
-4.80282e-05 8.60344e-05 1 
-3.32366e-05 4.66749e-05 1 
-7.3864e-06 7.80353e-06 1 
3.05737e-05 -2.39865e-05 1 
8.35047e-05 -4.07817e-05 1 
0.000146169 -4.22924e-05 1 
0.000214905 -7.24363e-06 1 
0.000289172 7.10011e-05 1 
0.000353738 0.000216674 1 
0.000412386 0.000483499 1 
0.000469019 0.000956662 1 
0.0005186 0.00168292 0.999999 
0.000502038 0.00266044 0.999996 
0.000397476 0.00396941 0.999992 
0.000263945 0.00566731 0.999984 
0.000304076 0.00747311 0.999972 
0.000595961 0.00990858 0.999951 
0.00152463 0.0128459 0.999916 
0.00366257 0.0167427 0.999853 
0.00786406 0.0217906 0.999732 
0.0144655 0.0282743 0.999496 
0.0211185 0.0291468 0.999352 
0.0318377 0.0308 0.999019 
0.0488375 0.0315194 0.998309 
0.078787 0.0402581 0.996078 
0.151036 0.0682838 0.986167 
0.203609 0.151877 0.9672 
0.178325 0.215588 0.960064 
0.13391 0.259329 0.95646 
-0.05089 0.202631 -0.977932 
-0.110445 0.173527 -0.978617 
-0.115603 0.0737201 -0.990556 
-0.0753358 0.0355599 -0.996524 
-0.0470491 0.0302907 -0.998433 
-0.0272029 0.024298 -0.999335 
-0.0172804 0.023651 -0.999571 
-0.00979725 0.0208203 -0.999735 
-0.00547444 0.0149543 -0.999873 
-0.00304841 0.0115573 -0.999929 
-0.00141003 0.00906837 -0.999958 
-0.000642764 0.00699304 -0.999976 
-0.000431753 0.00521957 -0.999986 
-0.000519632 0.00380413 -0.999993 
-0.000686808 0.0027195 -0.999996 
-0.000731217 0.00191805 -0.999998 
-0.000641701 0.00127087 -0.999999 
-0.000506234 0.000778978 -1 
-0.000384574 0.000419373 -1 
-0.000304706 0.000200285 -1 
-0.000241327 6.31095e-05 -1 
-0.000191411 -1.37585e-05 -1 
-0.000141453 -4.94623e-05 -1 
-9.29312e-05 -5.82196e-05 -1 
-4.79474e-05 -3.8771e-05 -1 
-6.5004e-06 -4.91999e-06 -1 
2.5857e-05 4.31555e-05 -1 
4.47883e-05 8.75992e-05 -1 
5.28785e-05 0.000130289 -1 
5.1943e-05 0.000157623 -1 
4.24022e-05 0.00017688 -1 
3.09139e-05 0.000185456 -1 
2.31982e-05 0.000180655 -1 
1.56355e-05 0.000171962 -1 
1.05449e-05 0.000155831 -1 
3.57758e-06 0.000140616 -1 
-6.49732e-06 0.000123831 -1 
-1.4579e-05 0.000101299 -1 
-3.35286e-05 8.68702e-05 -1 
5.2864e-05 9.94941e-05 1 
2.79373e-05 0.000109791 1 
1.10862e-05 0.000126073 1 
4.38609e-07 0.000144846 1 
-8.12442e-06 0.000160571 1 
-1.3755e-05 0.00017469 1 
-1.97208e-05 0.000184682 1 
-2.67074e-05 0.000188612 1 
-3.46046e-05 0.000184048 1 
-4.30457e-05 0.000165375 1 
-4.78004e-05 0.000133118 1 
-4.38763e-05 8.83765e-05 1 
-3.17903e-05 3.96578e-05 1 
-1.10462e-05 -7.89522e-06 1 
2.04539e-05 -5.04204e-05 1 
6.63916e-05 -7.91836e-05 1 
0.000124492 -9.17906e-05 1 
0.000195722 -7.21276e-05 1 
0.000274308 -1.11117e-05 1 
0.000346629 0.000105204 1 
0.000411135 0.000313334 1 
0.000489478 0.000687489 1 
0.000590083 0.00126802 0.999999 
0.000693282 0.0020955 0.999998 
0.000727587 0.00316437 0.999995 
0.000700497 0.00457423 0.999989 
0.000817611 0.00599413 0.999982 
0.00106116 0.00783112 0.999969 
0.00172446 0.00977325 0.999951 
0.00311156 0.0121768 0.999921 
0.00589369 0.0153106 0.999866 
0.0109859 0.0186212 0.999766 
0.0177898 0.0193463 0.999655 
0.0279908 0.0187035 0.999433 
0.0489811 0.0171795 0.998652 
0.0822212 0.01581 0.996489 
0.124689 0.0286943 0.991781 
0.24788 0.100617 0.963552 
0.266858 0.25388 0.929694 
0.174585 0.337252 0.925084 
-0.0720171 0.284039 -0.956103 
-0.164702 0.161366 -0.973054 
-0.115085 0.0268132 -0.992994 
-0.0650179 0.00446094 -0.997874 
-0.0385007 0.0123262 -0.999183 
-0.022181 0.0119843 -0.999682 
-0.0147628 0.0132967 -0.999803 
-0.0102356 0.0148245 -0.999838 
-0.00614409 0.0117283 -0.999913 
-0.00341381 0.00902684 -0.999954 
-0.00193571 0.00775954 -0.999968 
-0.00113924 0.00619712 -0.99998 
-0.000867916 0.00465036 -0.999989 
-0.000910352 0.00333256 -0.999994 
-0.000957538 0.00244826 -0.999997 
-0.000883552 0.0017111 -0.999998 
-0.00069908 0.0011246 -0.999999 
-0.00051507 0.000656498 -1 
-0.000391739 0.000344648 -1 
-0.000308765 0.000132002 -1 
-0.000253467 1.84171e-05 -1 
-0.000198489 -6.59818e-05 -1 
-0.000149049 -9.80374e-05 -1 
-9.97931e-05 -0.000102686 -1 
-5.24807e-05 -7.81906e-05 -1 
-1.34361e-05 -3.68133e-05 -1 
1.98318e-05 2.27523e-05 -1 
3.99933e-05 8.00357e-05 -1 
4.68664e-05 0.000131362 -1 
4.38342e-05 0.000168484 -1 
3.36608e-05 0.000191132 -1 
2.3294e-05 0.000198623 -1 
1.78652e-05 0.000190847 -1 
1.16398e-05 0.000182109 -1 
7.12771e-06 0.000165109 -1 
-5.16878e-07 0.000149595 -1 
-1.23e-05 0.000135484 -1 
-2.54513e-05 0.000115476 -1 
-4.67501e-05 0.000106223 -1 
6.54423e-05 0.000124132 1 
3.68733e-05 0.000129508 1 
1.68421e-05 0.000140301 1 
3.16912e-06 0.000156138 1 
-5.68549e-06 0.000170955 1 
-1.10635e-05 0.000184845 1 
-1.60848e-05 0.000197224 1 
-2.1836e-05 0.000202613 1 
-2.93352e-05 0.000198191 1 
-3.74624e-05 0.0001766 1 
-4.24991e-05 0.000139017 1 
-3.85743e-05 8.71517e-05 1 
-2.73943e-05 2.98122e-05 1 
-8.11776e-06 -2.95522e-05 1 
2.07966e-05 -8.39598e-05 1 
6.06661e-05 -0.00012202 1 
0.000113441 -0.000140957 1 
0.000178182 -0.000130408 1 
0.000253436 -7.47807e-05 1 
0.000321694 2.96007e-05 1 
0.000393685 0.000224702 1 
0.000478651 0.00054771 1 
0.000607527 0.00104731 0.999999 
0.000767716 0.00172741 0.999998 
0.000903177 0.00263229 0.999996 
0.000975356 0.00377927 0.999993 
0.00111266 0.00485028 0.999988 
0.00133865 0.00625616 0.99998 
0.00188587 0.00772726 0.999969 
0.00308494 0.00946273 0.999951 
0.00547634 0.0116302 0.999918 
0.00934234 0.0129954 0.999872 
0.0149743 0.0119979 0.999816 
0.0265031 0.00894257 0.999609 
0.0479759 0.000569609 0.998849 
0.0785729 -0.0139566 0.996811 
0.16392 0.0181144 0.986308 
-0.113324 -0.0252629 -0.993237 
-0.0525992 -0.0211844 -0.998391 
-0.0314089 -0.00265059 -0.999503 
-0.0185009 0.00337802 -0.999823 
-0.010691 0.00613289 -0.999924 
-0.00815427 0.00891057 -0.999927 