# vtk DataFile Version 3.0 
Exported using Morpho https://github.com/Morpho-lang/morpho 
ASCII 
DATASET UNSTRUCTURED_GRID 

POINTS 1978 float 
-8.48528 -2.82843 -3.60073e-10 
-8.31301 -2.82843 7.95675e-10 
-8.13032 -2.82843 2.12498e-09 
-7.76714 -2.82843 8.19989e-09 
-7.19147 -2.82843 8.73842e-09 
-6.95797 -2.82843 3.98255e-09 
-6.7453 -2.82843 2.11572e-09 
-6.5729 -2.82843 1.79413e-09 
-6.41227 -2.82843 7.7944e-10 
-6.26933 -2.82843 6.96451e-10 
-6.12519 -2.82843 1.09535e-09 
-5.91053 -2.82843 1.24073e-09 
-5.63741 -2.82843 1.4753e-09 
-5.39678 -2.82843 1.04865e-09 
-5.18748 -2.82843 8.84376e-10 
-4.98793 -2.82843 7.58373e-10 
-4.78356 -2.82843 5.62728e-10 
-4.58254 -2.82843 2.96849e-10 
-4.37718 -2.82843 3.97588e-11 
-4.16968 -2.82843 -1.58996e-10 
-3.96317 -2.82843 -3.41167e-10 
-3.75681 -2.82843 -5.35488e-10 
-3.54161 -2.82843 -7.62684e-10 
-3.31719 -2.82843 -1.05035e-09 
-3.0929 -2.82843 -1.32489e-09 
-2.8716 -2.82843 -1.64944e-09 
-2.65719 -2.82843 -2.13191e-09 
-2.41779 -2.82843 -2.82401e-09 
-2.20431 -2.82843 -2.97154e-09 
-1.99097 -2.82843 -2.57093e-09 
-1.79078 -2.82843 -3.08225e-09 
-1.59454 -2.82843 -3.00742e-09 
-1.39557 -2.82843 -2.6714e-09 
-1.20541 -2.82843 -2.10497e-09 
-1.01627 -2.82843 -2.20364e-09 
-0.799716 -2.82843 -1.76352e-09 
-0.588691 -2.82843 -5.31334e-10 
-0.411328 -2.82843 -1.01933e-09 
-0.209531 -2.82843 2.33009e-10 
0.0122335 -2.82843 8.22668e-10 
0.209187 -2.82843 5.7798e-10 
0.403211 -2.82843 1.08517e-09 
0.598981 -2.82843 7.76354e-10 
0.787438 -2.82843 4.83116e-10 
0.978561 -2.82843 2.76085e-09 
1.18459 -2.82843 2.25194e-09 
1.35771 -2.82843 2.62461e-09 
1.57621 -2.82843 3.17993e-09 
1.76477 -2.82843 3.35675e-09 
1.99125 -2.82843 3.9973e-09 
2.24417 -2.82843 3.13901e-09 
2.4355 -2.82843 2.67722e-09 
2.69606 -2.82843 2.39045e-09 
2.9209 -2.82843 1.59882e-09 
3.13463 -2.82843 1.15469e-09 
3.33585 -2.82843 8.65511e-10 
3.54968 -2.82843 6.23247e-10 
3.74668 -2.82843 4.89063e-10 
3.9877 -2.82843 4.41443e-10 
4.23432 -2.82843 3.03863e-10 
4.43589 -2.82843 1.69224e-10 
4.64067 -2.82843 5.91901e-11 
4.8456 -2.82843 -6.4127e-11 
5.04769 -2.82843 -1.93781e-10 
5.26348 -2.82843 -2.84053e-10 
5.45878 -2.82843 -3.71067e-10 
5.65663 -2.82843 -5.85331e-10 
5.85723 -2.82843 -7.53464e-10 
6.04541 -2.82843 -1.31335e-09 
6.23169 -2.82843 -1.22615e-09 
6.42072 -2.82843 -1.86942e-09 
6.62781 -2.82843 -2.18365e-09 
6.84036 -2.82843 -5.57223e-09 
7.3975 -2.82843 -5.70861e-09 
7.81958 -2.82843 -3.04773e-09 
8.02917 -2.82843 -6.50368e-10 
8.19175 -2.82843 -4.47521e-10 
8.3405 -2.82843 -1.15557e-09 
8.48528 -2.82843 6.8563e-10 
-8.48528 -2.60397 -2.10276e-10 
-8.2474 -2.53355 2.64178e-14 
-7.99948 -2.65152 1.63684e-13 
-7.86031 -2.49038 3.72169e-14 
-7.59366 -2.71017 3.02071e-13 
-7.0052 -2.58149 1.79524e-13 
-6.78261 -2.56406 -3.20956e-14 
-6.5847 -2.56905 1.60596e-13 
-6.39875 -2.57302 -1.32944e-13 
-6.3694 -2.33299 -3.42266e-14 
-6.21865 -2.56048 2.34716e-13 
-5.99818 -2.61691 5.16004e-14 
-5.72113 -2.61936 1.10679e-13 
-5.47727 -2.57655 3.67769e-14 
-5.24234 -2.56412 3.1157e-14 
-5.03069 -2.56055 2.46687e-14 
-4.82265 -2.57893 2.07912e-14 
-4.60861 -2.57944 1.10294e-14 
-4.39407 -2.58345 -2.39001e-16 
-4.1781 -2.57771 -8.78629e-15 
-3.9663 -2.57157 -1.77147e-14 
-3.7573 -2.56964 -3.0307e-14 
-3.54806 -2.57993 -4.0328e-14 
-3.33022 -2.58959 -5.57138e-14 
-3.10661 -2.58998 -6.87362e-14 
-2.88564 -2.58762 -9.36433e-14 
-2.67187 -2.58807 -1.0475e-13 
-2.45987 -2.61924 -1.70771e-13 
-2.22259 -2.59412 -2.06188e-13 
-2.00483 -2.58875 -8.49633e-14 
-1.79405 -2.57712 -2.49489e-13 
-1.58488 -2.58211 -1.29761e-13 
-1.38397 -2.56171 -1.40415e-13 
-1.19561 -2.55273 -8.21088e-14 
-0.969858 -2.59818 -1.70382e-13 
-0.767779 -2.57494 -7.03248e-14 
-0.585344 -2.50818 -1.49535e-14 
-0.382475 -2.49926 7.42922e-14 
-0.176219 -2.51762 -3.23091e-14 
0.0200384 -2.4862 1.42623e-13 
0.218548 -2.52688 9.38963e-14 
0.417765 -2.46546 -4.1192e-13 
0.60887 -2.52811 2.69503e-13 
0.82736 -2.54417 -1.58236e-13 
1.04551 -2.58824 2.0938e-13 
1.2432 -2.53964 9.98036e-14 
1.45333 -2.60874 1.59536e-13 
1.66548 -2.57362 2.23028e-13 
1.87975 -2.61416 1.90701e-13 
2.12913 -2.63266 2.27712e-13 
2.35632 -2.56844 1.21929e-13 
2.57104 -2.62471 1.52139e-13 
2.80963 -2.59165 9.34085e-14 
3.02471 -2.58524 7.79088e-14 
3.2327 -2.56697 5.43831e-14 
3.44262 -2.58175 4.79172e-14 
3.64614 -2.55682 3.1655e-14 
3.86104 -2.60321 2.82665e-14 
4.10569 -2.60434 2.13178e-14 
4.32647 -2.56128 1.09277e-14 
4.53702 -2.56841 4.97458e-15 
4.74944 -2.57137 -7.02616e-16 
4.96411 -2.57027 -6.05527e-15 
5.18139 -2.5909 -1.37634e-14 
5.40161 -2.57065 -1.9251e-14 
5.61014 -2.57797 -3.31463e-14 
5.82382 -2.5856 -3.33859e-14 
6.03981 -2.55816 -1.09228e-13 
6.24015 -2.56348 2.72309e-14 
6.45039 -2.57529 -1.2127e-13 
6.65901 -2.55847 -6.09389e-14 
6.86112 -2.53817 -1.2391e-13 
7.05675 -2.71898 -2.31593e-13 
7.44558 -2.55469 -8.8863e-14 
7.62087 -2.68818 -1.61258e-13 
7.8567 -2.58303 -1.36127e-13 
8.03897 -2.53954 7.55082e-14 
8.23332 -2.56378 -5.59065e-14 
8.48528 -2.67952 4.02903e-10 
-8.48528 -2.38452 -1.42866e-10 
-8.1613 -2.34476 1.94498e-14 
-7.94572 -2.21829 1.29269e-14 
-7.65802 -2.39245 5.14902e-14 
-7.44296 -2.43812 8.1715e-14 
-7.2966 -2.62985 3.31288e-13 
-7.17041 -2.38603 6.07672e-14 
-6.94702 -2.33057 6.12224e-14 
-6.73373 -2.31236 -3.71854e-15 
-6.55318 -2.28977 7.74573e-14 
-6.21614 -2.18344 4.32765e-14 
-6.10269 -2.38515 1.35903e-14 
-5.84026 -2.4321 1.07324e-14 
-5.59932 -2.34043 5.11902e-14 
-5.36248 -2.32776 6.58891e-15 
-5.14175 -2.30081 1.369e-14 
-4.9242 -2.31713 2.14426e-15 
-4.71268 -2.3392 9.04364e-16 
-4.48972 -2.34663 6.65196e-16 
-4.27149 -2.34205 -2.60172e-16 
-4.05656 -2.32565 -3.82384e-15 
-3.84657 -2.31659 -1.03633e-14 
-3.63574 -2.32256 -1.47489e-14 
-3.42358 -2.34293 -2.07067e-14 
-3.20741 -2.35339 -2.72143e-14 
-2.99 -2.35064 -3.81139e-14 
-2.77686 -2.34381 -4.38233e-14 
-2.56296 -2.36282 -5.68385e-14 
-2.35366 -2.39641 -6.31925e-14 
-2.12025 -2.35927 -6.10126e-14 
-1.90269 -2.34064 -1.23202e-13 
-1.68425 -2.34311 -5.17606e-14 
-1.46876 -2.32585 -1.10488e-13 
-1.25221 -2.27376 -8.90066e-14 
-1.03874 -2.36071 1.7273e-14 
-0.827284 -2.30315 7.87146e-14 
-0.608308 -2.22854 5.54856e-14 
-0.406703 -2.17447 7.83409e-14 
-0.200852 -2.1782 7.92385e-14 
0.0275585 -2.17538 -1.86544e-14 
0.250621 -2.21188 -2.08153e-13 
0.389523 -2.02171 9.09671e-14 
0.557299 -2.21013 6.02957e-13 
0.769156 -2.28814 1.81063e-13 
1.01498 -2.33145 1.16689e-14 
1.23361 -2.29095 3.87892e-14 
1.44961 -2.36557 8.00455e-14 
1.65631 -2.32825 5.14725e-14 
1.86809 -2.37212 1.38628e-13 
2.0769 -2.42424 1.03483e-13 
2.29288 -2.3573 7.52755e-14 
2.53933 -2.37262 5.96599e-14 
2.74669 -2.38018 5.03717e-14 
2.97948 -2.34037 3.83334e-14 
3.18043 -2.32225 3.19048e-14 
3.39403 -2.33186 2.29519e-14 
3.59445 -2.30273 1.88108e-14 
3.80367 -2.3391 1.54054e-14 
4.00963 -2.37928 1.08863e-14 
4.22671 -2.33162 7.16868e-15 
4.44786 -2.30958 3.91593e-15 
4.656 -2.31562 8.54445e-16 
4.86735 -2.32291 -2.06436e-15 
5.08837 -2.33686 -5.11735e-15 
5.29721 -2.3422 -8.50368e-15 
5.5186 -2.32564 -1.2949e-14 
5.73162 -2.34371 -1.47341e-14 
5.94377 -2.33917 -2.70579e-14 
6.164 -2.30753 -3.661e-15 
6.37335 -2.32246 -3.37437e-14 
6.57561 -2.30133 -1.08961e-14 
6.77868 -2.26039 -3.22962e-14 
7.01915 -2.37622 -2.57529e-14 
7.218 -2.58553 -7.42748e-14 
7.49989 -2.31817 -3.07857e-14 
7.72039 -2.40977 -2.70695e-14 
7.93984 -2.2853 1.35506e-14 
8.18872 -2.35735 -2.85582e-14 
8.48528 -2.51725 2.16023e-10 
-8.48528 -2.16562 2.93313e-10 
-8.2551 -2.14202 -3.59258e-14 
-8.12513 -1.95517 2.88106e-15 
-7.77737 -2.10355 8.87729e-15 
-7.53333 -2.13053 2.96281e-14 
-7.30646 -2.19454 4.7577e-14 
-7.0616 -2.1025 3.4971e-14 
-6.83944 -2.08534 3.2424e-14 
-6.64213 -2.02588 -7.57589e-15 
-6.42595 -2.07684 1.5501e-14 
-6.03764 -2.03797 5.24131e-14 
-5.94023 -2.22173 -1.27554e-14 
-5.7302 -2.15084 1.06516e-16 
-5.47249 -2.0911 1.62551e-14 
-5.26215 -2.06478 5.21045e-16 
-5.03545 -2.06696 5.15265e-15 
-4.82052 -2.08383 3.10139e-15 
-4.60467 -2.11725 1.9272e-15 
-4.38612 -2.11254 -7.53938e-16 
-4.17408 -2.09575 -4.93054e-15 
-3.96331 -2.07502 -6.01522e-15 
-3.75202 -2.07465 -9.0839e-15 
-3.53875 -2.09022 -1.40192e-14 
-3.32812 -2.1107 -1.76185e-14 
-3.11607 -2.11727 -2.34078e-14 
-2.90373 -2.10974 -2.65343e-14 
-2.68603 -2.11432 -3.12774e-14 
-2.47269 -2.13599 -4.57126e-14 
-2.26295 -2.16662 -4.85895e-14 
-2.02594 -2.11836 -2.13395e-14 
-1.79235 -2.10387 -7.72927e-14 
-1.57224 -2.09763 -1.73676e-14 
-1.34717 -2.05915 7.73086e-15 
-1.18029 -1.89849 8.63507e-14 
-1.05485 -2.10587 4.84969e-15 
-0.807933 -2.05357 6.4921e-13 
-0.58401 -1.92694 -4.75998e-13 
-0.357706 -1.85272 -1.25245e-13 
-0.1231 -1.87449 1.67236e-14 
0.0620868 -1.53493 1.39064e-14 
0.10855 -1.85849 -5.64511e-13 
0.30862 -1.72776 1.86127e-13 
0.575498 -1.82048 6.00562e-13 
0.74205 -1.98526 -8.80448e-13 
0.963583 -2.09331 -5.0133e-14 
1.19452 -2.04446 -6.9161e-14 
1.43292 -2.1103 2.95014e-14 
1.65841 -2.09177 -3.26451e-14 
1.88234 -2.13071 -2.10154e-14 
2.09657 -2.18178 2.47725e-14 
2.35619 -2.15715 5.4554e-14 
2.57425 -2.12741 4.33062e-14 
2.7968 -2.15311 3.41731e-14 
2.9946 -2.08167 2.07277e-14 
3.21358 -2.09186 1.32878e-14 
3.41334 -2.07992 1.34418e-14 
3.62769 -2.0693 9.60517e-15 
3.83887 -2.09952 8.49981e-15 
4.04716 -2.12998 6.17081e-15 
4.27153 -2.09 4.06589e-15 
4.48459 -2.06094 1.91367e-15 
4.69858 -2.07155 2.50701e-16 
4.92129 -2.09297 -1.31587e-15 
5.13338 -2.08971 -3.29358e-15 
5.34924 -2.10672 -6.32107e-15 
5.57474 -2.09284 -7.42564e-15 
5.78936 -2.10815 -1.1659e-14 
6.00608 -2.10347 -1.10049e-14 
6.23568 -2.07504 -1.66515e-14 
6.43465 -2.05837 -1.1713e-14 
6.64005 -2.02922 -1.95566e-14 
6.92281 -2.10092 -1.27858e-14 
7.14806 -2.11096 -2.19628e-14 
7.256 -2.31087 -2.87001e-14 
7.4501 -2.07942 -1.22445e-14 
7.70733 -2.14398 -1.24774e-14 
7.99482 -2.07368 3.74089e-15 
8.25642 -2.15739 2.57859e-14 
8.48528 -2.33613 2.14163e-11 
-8.48528 -1.44799 3.74391e-10 
-8.3879 -1.83033 -1.02245e-14 
-7.96713 -1.83661 -1.67497e-14 
-7.68754 -1.88562 2.41539e-14 
[...]
POINT_DATA 1978 
VECTORS vectors float
0.00196408 -0.0068135 0.999975 
0.00312011 -0.0457051 0.99895 
0.0031169 -0.0584932 0.998283 
0.00492041 -0.087172 0.996181 
0.00431715 -0.131051 0.991366 
0.00286932 -0.132318 0.991203 
0.00254814 -0.115753 0.993275 
0.00262483 -0.0959854 0.995379 
0.00266428 -0.0735504 0.997288 
0.00318219 -0.0580849 0.998307 
0.00263821 -0.0456349 0.998955 
0.00260993 -0.0339244 0.999421 
0.00277128 -0.0313006 0.999506 
0.00264568 -0.0327751 0.999459 
0.00268492 -0.0319778 0.999485 
0.0026299 -0.0277089 0.999613 
0.00262411 -0.0200005 0.999797 
0.00259694 -0.0108545 0.999938 
0.0026074 -0.00171128 0.999995 
0.00262774 0.00572103 0.99998 
0.00260465 0.0125804 0.999918 
0.00259675 0.0188159 0.99982 
0.0025633 0.0262601 0.999652 
0.00256868 0.035822 0.999355 
0.00252457 0.0474648 0.99887 
0.00253422 0.0626138 0.998035 
0.00239158 0.0819611 0.996633 
0.00240149 0.110361 0.993889 
0.00223396 0.144912 0.989442 
0.00210277 0.19062 0.981662 
0.00197267 0.246333 0.969183 
0.00174795 0.312535 0.949905 
0.00152159 0.393503 0.919322 
0.00131287 0.48427 0.874918 
0.00104617 0.585732 0.810504 
0.00071837 0.707269 0.706944 
0.000468059 0.824106 0.566435 
0.000306076 0.905531 0.424281 
0.000122983 0.976382 0.216052 
1.69494e-05 0.999794 -0.0203143 
-0.000123638 0.973067 -0.230524 
-0.000242786 0.906825 -0.421508 
-0.000537219 0.813175 -0.582019 
-0.000752428 0.708099 -0.706113 
-0.000989937 0.598303 -0.80127 
-0.00130099 0.487928 -0.872883 
-0.001597 0.405816 -0.913953 
-0.0017026 0.31727 -0.948334 
-0.00204156 0.253696 -0.967282 
-0.00205913 0.193435 -0.981111 
-0.00232864 0.141761 -0.989898 
-0.00238938 0.112624 -0.993635 
-0.00241554 0.0821979 -0.996613 
-0.00251048 0.061621 -0.998096 
-0.00253116 0.0456128 -0.998956 
-0.00256042 0.0333708 -0.99944 
-0.00259323 0.0234915 -0.999721 
-0.00264853 0.0169901 -0.999852 
-0.00259741 0.0123912 -0.99992 
-0.00266099 0.00926013 -0.999954 
-0.00266416 0.00614447 -0.999978 
-0.00260438 0.00209987 -0.999994 
-0.00267299 -0.00233984 -0.999994 
-0.00262032 -0.00643684 -0.999976 
-0.00266226 -0.0100045 -0.999946 
-0.00266436 -0.0141637 -0.999896 
-0.00257733 -0.0213732 -0.999768 
-0.00266345 -0.0310836 -0.999513 
-0.00253597 -0.0444767 -0.999007 
-0.00263012 -0.0585968 -0.998278 
-0.00255711 -0.0705266 -0.997507 
-0.00282463 -0.0804951 -0.996751 
-0.00409914 -0.0849407 -0.996377 
-0.00486664 -0.0771397 -0.997008 
-0.00344705 -0.0654918 -0.997847 
-0.002728 -0.0610345 -0.998132 
-0.00273192 -0.0595183 -0.998223 
-0.00304074 -0.0525611 -0.998613 
-0.00336081 -0.0120115 -0.999922 
0.0012592 -0.000354072 0.999999 
0.0309484 -0.0557423 0.997965 
0.0390997 -0.0715791 0.996668 
0.051346 -0.0878111 0.994813 
0.0420168 -0.101763 0.993921 
0.0605698 -0.120116 0.99091 
0.0588009 -0.110281 0.99216 
0.0628326 -0.0912658 0.993842 
0.0665179 -0.0755626 0.99492 
0.0788115 -0.0656686 0.994724 
0.0577974 -0.0547132 0.996828 
0.0568072 -0.0375453 0.997679 
0.0611732 -0.031364 0.997634 
0.0623993 -0.0293725 0.997619 
0.0631469 -0.0273957 0.997628 
0.0628307 -0.023966 0.997736 
0.0608759 -0.0183447 0.997977 
0.0601561 -0.01052 0.998134 
0.0587579 -0.0023583 0.998269 
0.058551 0.00543124 0.99827 
0.0589872 0.0126053 0.998179 
0.0585502 0.0195082 0.998094 
0.0567186 0.0270054 0.998025 
0.0547598 0.0364941 0.997832 
0.0535524 0.0488138 0.997371 
0.0523463 0.0641299 0.996568 
0.0501443 0.0832075 0.99527 
0.0449649 0.107873 0.993147 
0.0422773 0.145742 0.988419 
0.0376828 0.191556 0.980758 
0.0329519 0.251132 0.967392 
0.0275356 0.322856 0.946048 
0.0225439 0.406664 0.9133 
0.0176338 0.497866 0.867075 
0.0121435 0.619191 0.785147 
0.00789481 0.736237 0.676678 
0.00498775 0.829338 0.558726 
0.00243201 0.91972 0.392567 
0.000703081 0.981275 0.192612 
-0.00114953 0.999947 -0.0102549 
-0.0024195 0.975483 -0.220063 
-0.00510264 0.905567 -0.424172 
-0.00746229 0.80732 -0.590067 
-0.0107255 0.688718 -0.72495 
-0.0150359 0.566655 -0.823818 
-0.0200538 0.464181 -0.885513 
-0.0244268 0.369996 -0.928712 
-0.030436 0.291211 -0.956175 
-0.0343499 0.225125 -0.973724 
-0.0385711 0.16647 -0.985292 
-0.0462062 0.127434 -0.99077 
-0.0451755 0.0977921 -0.994181 
-0.0506263 0.0727108 -0.996067 
-0.0533161 0.0549358 -0.997065 
-0.056276 0.04142 -0.997556 
-0.0565383 0.0303424 -0.997939 
-0.0594958 0.0224507 -0.997976 
-0.0561776 0.0159794 -0.998293 
-0.0565896 0.0110693 -0.998336 
-0.0614396 0.00745141 -0.998083 
-0.0609274 0.00390221 -0.998135 
-0.060868 -3.78544e-05 -0.998146 
-0.061133 -0.00422138 -0.998121 
-0.0590378 -0.00853914 -0.998219 
-0.0609196 -0.0134738 -0.998052 
-0.0596577 -0.0200132 -0.998018 
-0.0593293 -0.0294832 -0.997803 
-0.059491 -0.0416571 -0.997359 
-0.0609063 -0.0538415 -0.99669 
-0.0591508 -0.0656138 -0.99609 
-0.0599429 -0.0735441 -0.995489 
-0.0622924 -0.0769278 -0.995089 
-0.0412642 -0.0817285 -0.9958 
-0.0545096 -0.076643 -0.995567 
-0.0431384 -0.0725002 -0.996435 
-0.0449839 -0.0705728 -0.996492 
-0.040782 -0.0667778 -0.996934 
-0.0322005 -0.0581353 -0.997789 
-0.00503066 -0.000536596 -0.999987 
0.00165883 -0.00319357 0.999993 
0.0415574 -0.0730819 0.99646 
0.0538053 -0.0907151 0.994422 
0.0638639 -0.0999714 0.992939 
0.0694434 -0.108283 0.991692 
0.056049 -0.117704 0.991466 
0.0764098 -0.112046 0.990761 
0.0787638 -0.107012 0.991133 
0.0782962 -0.0972659 0.992174 
0.0813812 -0.082855 0.993233 
0.0810307 -0.0524342 0.995331 
0.0744005 -0.0478028 0.996082 
0.072299 -0.0343039 0.996793 
0.0780535 -0.0276752 0.996565 
0.077118 -0.024882 0.996711 
0.0776449 -0.0209419 0.996761 
0.0769004 -0.0166471 0.9969 
0.0758128 -0.0109381 0.997062 
0.074377 -0.00371985 0.997223 
0.0734915 0.00354998 0.99729 
0.072951 0.0106142 0.997279 
0.0720472 0.0175919 0.997246 
0.0706922 0.025109 0.997182 
0.0687387 0.0337878 0.997062 
0.0668221 0.0447513 0.996761 
0.0648945 0.0586095 0.996169 
0.0621582 0.0760979 0.995161 
0.0581142 0.0984268 0.993446 
0.0530042 0.127042 0.99048 
0.0473099 0.170126 0.984286 
0.0408544 0.222253 0.974133 
0.0336147 0.289782 0.956502 
0.0262209 0.371273 0.928154 
0.0188218 0.467825 0.883621 
0.0136253 0.574091 0.818678 
0.00807223 0.69095 0.722858 
0.00364917 0.818354 0.574703 
0.00172218 0.913185 0.407541 
0.00088751 0.975216 0.221252 
4.09037e-05 0.999954 -0.00960361 
-0.00238218 0.967683 -0.25216 
-0.0028172 0.907573 -0.419885 
-0.00631907 0.813057 -0.58215 
-0.00967174 0.698658 -0.71539 
-0.0144064 0.577223 -0.81646 
-0.0199974 0.471307 -0.881743 
-0.0270973 0.374922 -0.92666 
-0.033573 0.298704 -0.953755 
-0.0401148 0.232365 -0.971801 
-0.0456483 0.179231 -0.982747 
-0.05244 0.139481 -0.988835 
-0.0570357 0.103396 -0.993004 
-0.0604542 0.080284 -0.994937 
-0.0646267 0.060345 -0.996083 
-0.067341 0.0465688 -0.996643 
-0.069125 0.0348338 -0.997 
-0.0712588 0.0263563 -0.99711 
-0.0720207 0.0191217 -0.99722 
-0.0718643 0.0137387 -0.99732 
-0.0743317 0.00958474 -0.997188 
-0.0753719 0.00557016 -0.99714 
-0.0755458 0.00184081 -0.997141 
-0.0756624 -0.00203346 -0.997131 
-0.0754701 -0.00628756 -0.997128 
-0.0753675 -0.0107446 -0.997098 
-0.0756385 -0.0165238 -0.996998 
-0.0747791 -0.0238179 -0.996916 
-0.0744905 -0.0336114 -0.996655 
-0.0748804 -0.0440837 -0.996218 
-0.0741383 -0.0551219 -0.995723 
-0.0733632 -0.0639602 -0.995252 
-0.0730678 -0.0695405 -0.9949 
-0.0680267 -0.0766839 -0.994732 
-0.0544772 -0.0788715 -0.995395 
-0.0615378 -0.0793673 -0.994944 
-0.0535346 -0.0766297 -0.995621 
-0.0461244 -0.0767842 -0.99598 
-0.0349345 -0.064025 -0.997337 
-0.0029689 -0.0028394 -0.999991 
-0.000349919 -0.0058996 0.999981 
0.0300793 -0.0654212 0.997404 
0.0446995 -0.0860245 0.99529 
0.0634263 -0.101482 0.992814 
0.0727721 -0.105453 0.991758 
0.0791155 -0.108194 0.990977 
0.0810399 -0.101849 0.991493 
0.0818253 -0.0931054 0.992288 
0.0807447 -0.0799879 0.99352 
0.0814464 -0.0678123 0.994368 
0.0793528 -0.0412329 0.995993 
0.0799645 -0.0385403 0.996052 
0.079505 -0.0299843 0.996383 
0.0773319 -0.0228273 0.996744 
0.0773836 -0.0192778 0.996815 
0.0766378 -0.0148176 0.996949 
0.076361 -0.0103404 0.997027 
0.0762648 -0.00503558 0.997075 
0.0749442 0.00139878 0.997187 
0.0732506 0.00801451 0.997281 
0.0712779 0.0149883 0.997344 
0.0698382 0.0223236 0.997309 
0.0687866 0.0306106 0.997162 
0.0675432 0.0401746 0.996907 
0.0655117 0.052142 0.996489 
0.062548 0.0676264 0.995748 
0.0588592 0.0880293 0.994377 
0.0548096 0.113664 0.992006 
0.0499524 0.146787 0.987906 
0.0420991 0.197543 0.97939 
0.034398 0.260061 0.964979 
0.0263183 0.337958 0.940793 
0.0183963 0.432916 0.901247 
0.0116121 0.515429 0.856854 
0.0106456 0.571172 0.820761 
0.00518773 0.709388 0.704799 
0.00342479 0.821614 0.570033 
0.0036658 0.926114 0.377226 
0.00290311 0.989092 0.147274 
0.00204491 0.998448 -0.0556542 
0.00188922 0.990061 -0.140624 
0.00176291 0.938167 -0.346178 
-0.000826355 0.839003 -0.544126 
-0.00419902 0.725342 -0.688376 
-0.00982671 0.611407 -0.791255 
-0.0146764 0.501849 -0.864831 
-0.023381 0.387793 -0.92145 
-0.0298756 0.307609 -0.951044 
-0.0379209 0.236501 -0.970891 
-0.0452895 0.180879 -0.982462 
-0.0523695 0.131101 -0.989985 
-0.0568436 0.101368 -0.993224 
-0.0617803 0.0776171 -0.995067 
-0.0629751 0.06162 -0.996111 
-0.0659178 0.0469386 -0.99672 
-0.0678051 0.0362991 -0.997038 
-0.06975 0.027193 -0.997194 
-0.0719573 0.0198276 -0.997211 
-0.0734462 0.0141247 -0.997199 
-0.0740194 0.00935176 -0.997213 
-0.0739975 0.0052546 -0.997245 
-0.0747196 0.00131097 -0.997204 
-0.0754904 -0.00276281 -0.997143 
-0.0755515 -0.00680117 -0.997119 
-0.075868 -0.0115144 -0.997051 
-0.0755706 -0.0175323 -0.996986 
-0.0757093 -0.0246762 -0.996825 
-0.0756658 -0.0333808 -0.996574 
-0.0749657 -0.04307 -0.996256 
-0.0739458 -0.0517279 -0.99592 
-0.0724657 -0.0598267 -0.995575 
-0.0714372 -0.072058 -0.994839 
-0.0687211 -0.0780495 -0.994578 
-0.0663389 -0.078796 -0.994681 
-0.061392 -0.0831597 -0.994643 
-0.0552227 -0.0832132 -0.995001 
-0.044551 -0.0836346 -0.9955 
-0.0295917 -0.0637649 -0.997526 
-0.00122984 -0.00258562 -0.999996 
-0.00046058 -0.00620645 0.99998 
0.0222244 -0.0560382 0.998181 
0.0550782 -0.10048 0.993413 
0.0672586 -0.107336 0.991945 
0.0719111 -0.10781 0.991567 
0.0769854 -0.10607 0.991374 
0.0768138 -0.0998193 0.992036 
0.077345 -0.0896998 0.992961 
0.0753751 -0.0753971 0.994301 
0.0768138 -0.0633048 0.995034 
0.0770559 -0.0513749 0.995702 
0.0717777 -0.0378055 0.996704 
0.0757556 -0.0321056 0.996609 
0.0737361 -0.0246267 0.996974 
0.0691469 -0.0176756 0.99745 
0.0702532 -0.0141748 0.997428 
0.0693394 -0.0096263 0.997547 
0.0702288 -0.00512019 0.997518 
0.0696162 5.73123e-05 0.997574 
0.0675277 0.00613811 0.997699 
0.0652627 0.0126405 0.997788 
0.0632316 0.0198375 0.997802 
0.0623652 0.0276948 0.997669 
0.0613851 0.0365693 0.997444 
0.0601864 0.0469337 0.997083 
0.0579925 0.0600926 0.996507 
0.0549621 0.0774846 0.995477 
0.0511618 0.100082 0.993663 
0.0472455 0.128414 0.990595 
0.0425591 0.165845 0.985233 
0.0341027 0.224576 0.97386 
0.0261372 0.296647 0.95463 
0.0188447 0.38339 0.923394 
0.01206 0.480398 0.876968 
0.00632919 0.652188 0.758031 
0.00508317 0.769927 0.638112 
0.0042164 0.885114 0.465356 
0.00359018 0.947999 0.318253 
0.00225872 0.980262 0.197691 
0.00249868 0.998232 0.0593904 
0.00087824 0.98204 -0.188672 
0.000968495 0.936724 -0.350066 
-0.00123764 0.83186 -0.554984 
-0.00360772 0.715443 -0.698662 
-0.00751084 0.59585 -0.803061 
-0.00953644 0.521026 -0.853488 
-0.0164993 0.430754 -0.902318 
-0.021821 0.344463 -0.938546 
-0.0298152 0.263237 -0.96427 
-0.037565 0.201866 -0.978692 
-0.0445213 0.155509 -0.986831 
-0.0488022 0.118642 -0.991737 
-0.054253 0.087743 -0.994665 
-0.0549174 0.0720394 -0.995889 
-0.0584561 0.0547115 -0.99679 
-0.0598517 0.0422957 -0.997311 
-0.0618846 0.032401 -0.997557 
-0.0641162 0.0237559 -0.99766 
-0.0661564 0.0171712 -0.997662 
-0.0674243 0.0120749 -0.997651 
-0.0664666 0.00737671 -0.997761 
-0.0671884 0.00298558 -0.997736 
-0.0686504 -0.00115585 -0.99764 
-0.0685916 -0.00507707 -0.997632 
-0.0690343 -0.00939764 -0.99757 
-0.0695765 -0.0142776 -0.997474 
-0.0692901 -0.0205999 -0.997384 
-0.0700137 -0.0276405 -0.997163 
-0.0698046 -0.0357813 -0.996919 
-0.0674543 -0.0439374 -0.996754 
-0.0659217 -0.0526764 -0.996433 
-0.0679398 -0.0653265 -0.995548 
-0.0654537 -0.0758694 -0.994967 
-0.0623482 -0.084034 -0.99451 
-0.0530954 -0.0924172 -0.994304 
-0.0515174 -0.0898202 -0.994625 
-0.0402262 -0.0882145 -0.995289 
-0.0294068 -0.0714575 -0.99701 
0.000310276 -0.00624954 -0.999979 
0.00196307 -0.00281364 0.999994 
0.0394832 -0.0810432 0.995928 
0.0405379 -0.0842136 0.995623 
0.0618753 -0.110887 0.991905 
0.0664134 -0.110542 0.99165 
0.0699693 -0.101505 0.992371 
0.0702689 -0.09095 0.993373 
0.0690281 -0.0788705 0.994492 
0.0681836 -0.0628762 0.99569 
0.0684453 -0.0518299 0.996308 
0.0667565 -0.0424075 0.996868 
0.0618809 -0.0297866 0.997639 
0.0653332 -0.0253814 0.997541 
0.0627368 -0.0191638 0.997846 
0.0582564 -0.0128667 0.998219 
0.0596199 -0.00930694 0.998178 
0.0603195 -0.00468451 0.998168 
0.0595377 0.000203653 0.998226 
0.0581121 0.00548699 0.998295 
0.0557595 0.0115874 0.998377 
0.0539725 0.0183566 0.998374 
0.0528584 0.0262148 0.998258 
0.051974 0.0348807 0.998039 
0.0510507 0.0450058 0.997681 
0.0496856 0.0571864 0.997126 
0.0476383 0.0729339 0.996198 
0.0445535 0.0938495 0.994589 
0.0408249 0.121771 0.991718 
0.0371327 0.157512 0.986819 
0.032023 0.204994 0.978239 
0.0233043 0.282717 0.95892 
0.0160657 0.375829 0.92655 
0.0103075 0.502107 0.864744 
0.0074856 0.614795 0.788651 
0.0075806 0.611157 0.791473 
0.00587539 0.727237 0.686361 
0.00467817 0.842962 0.537954 
0.00414289 0.9372 0.348767 
0.00299255 0.996789 0.0800155 
-0.00206581 0.998863 -0.0476272 
-0.00171475 0.9795 -0.201439 
-0.00482375 0.985576 -0.169165 
-0.00115372 0.90873 -0.417382 
-0.00148975 0.822255 -0.569118 
-0.0043483 0.668917 -0.743325 
-0.00622303 0.537327 -0.843351 
-0.0129088 0.410517 -0.911761 
-0.0197704 0.315009 -0.948883 
-0.0269479 0.24155 -0.970014 
-0.0336123 0.186819 -0.981819 
-0.0391801 0.145631 -0.988563 
-0.0449071 0.106481 -0.9933 
-0.0437696 0.0868024 -0.995264 
-0.0482893 0.066577 -0.996612 
-0.0497055 0.0522187 -0.997398 
-0.0505363 0.0407786 -0.997889 
-0.0534281 0.0307226 -0.998099 
-0.0546292 0.0229882 -0.998242 
-0.0556836 0.016812 -0.998307 
-0.0573286 0.0114298 -0.99829 
-0.056372 0.00630337 -0.99839 
-0.0577502 0.00167474 -0.99833 
-0.0582001 -0.00228048 -0.998302 
-0.0586374 -0.00635923 -0.998259 
-0.0587532 -0.010516 -0.998217 
-0.060261 -0.015414 -0.998064 
-0.0595499 -0.0211804 -0.998001 
-0.0605562 -0.0279055 -0.997775 
-0.0596348 -0.0351277 -0.997602 
-0.0564012 -0.0432396 -0.997471 
-0.0590248 -0.0561167 -0.996678 
-0.0609937 -0.0684129 -0.995791 
-0.0585539 -0.0794603 -0.995117 
-0.0584805 -0.0865864 -0.994526 
-0.0523115 -0.0953867 -0.994065 
-0.0427829 -0.0960974 -0.994452 
-0.0294288 -0.0786327 -0.996469 
-0.0165938 -0.0551479 -0.99834 
0.000540092 -0.00653127 -0.999977 
0.00252792 -0.00230958 0.999994 
0.0372828 -0.0797077 0.996121 
0.0537592 -0.104899 0.993029 
0.0596759 -0.112989 0.991803 
0.0645779 -0.107541 0.992101 
0.0607093 -0.100213 0.993112 
0.0630118 -0.0920142 0.993762 
0.0588334 -0.0768761 0.995303 
0.0597991 -0.0645437 0.996122 
0.0566341 -0.0502411 0.99713 
0.0528706 -0.040165 0.997793 
0.054892 -0.033175 0.997941 
0.0491011 -0.0241742 0.998501 
0.0515089 -0.0196757 0.998479 
0.05103 -0.0147381 0.998588 
0.0458399 -0.00936365 0.998905 
0.0489087 -0.00560779 0.998788 
0.0479109 -0.000996483 0.998851 
0.0462262 0.00394173 0.998923 
0.0450223 0.00927635 0.998943 
0.043359 0.0155562 0.998938 
0.0425254 0.0227221 0.998837 
0.0413344 0.0307732 0.998671 
0.0406836 0.0398881 0.998376 
0.0398471 0.0506278 0.997922 
0.0388929 0.063978 0.997193 
0.037212 0.08124 0.996 
0.0346684 0.104409 0.99393 
0.0314001 0.135382 0.990296 
0.0281902 0.17602 0.983983 
0.0239769 0.23358 0.972042 
0.0164801 0.32449 0.945746 
0.011712 0.4268 0.90427 
0.00828469 0.535449 0.844527 
0.00590117 0.746828 0.664991 
0.00402173 0.855886 0.517149 
0.00507187 0.922622 0.385673 
0.00591532 0.954766 0.297299 
0.0028489 0.975978 0.217848 
0.00295457 0.99353 0.113527 
-0.00257646 0.998583 -0.0531552 
-0.00732574 0.916304 -0.400418 
-0.00582242 0.926335 -0.376656 
-0.000789943 0.826869 -0.562394 
-0.00112008 0.718879 -0.695134 
-0.00283608 0.587561 -0.809175 
-0.00820368 0.441277 -0.897333 
-0.0134565 0.342648 -0.939367 
-0.0196057 0.260179 -0.965361 
-0.0253552 0.199326 -0.979605 
-0.0300819 0.154623 -0.987515 
-0.0357758 0.120857 -0.992025 
-0.0331532 0.101824 -0.99425 
-0.0369682 0.0778956 -0.996276 
-0.0389879 0.0618416 -0.997324 
-0.0393022 0.0486921 -0.99804 
-0.0414358 0.0371215 -0.998451 
-0.0425918 0.0284606 -0.998687 
-0.0432241 0.0211561 -0.998841 
-0.0444132 0.0147978 -0.998904 
-0.045855 0.00942949 -0.998904 
-0.045854 0.00390171 -0.998941 
-0.0457478 -0.00046405 -0.998953 
-0.0468125 -0.0046023 -0.998893 
-0.0466366 -0.00864872 -0.998874 
-0.0478817 -0.0130143 -0.998768 
-0.0484504 -0.0176637 -0.998669 
-0.0484547 -0.0237137 -0.998544 
-0.0479343 -0.0302621 -0.998392 
-0.0461862 -0.0378754 -0.998215 
-0.0491238 -0.0506885 -0.997506 
-0.0523965 -0.0649651 -0.996511 
-0.0517667 -0.0777979 -0.995624 
-0.0518166 -0.0899737 -0.994595 
-0.0462205 -0.0996478 -0.993949 
-0.0469444 -0.100909 -0.993787 
-0.0421171 -0.102635 -0.993827 
-0.0343985 -0.0880057 -0.995526 
-0.00131605 -0.00300163 -0.999995 
0.00426483 -0.00296144 0.999986 
0.0398052 -0.0922902 0.994936 
0.0536965 -0.110322 0.992444 
0.0535184 -0.113922 0.992047 
0.0580648 -0.110386 0.992191 
0.0530514 -0.0966979 0.993899 
0.0519501 -0.0817024 0.995302 
0.0454155 -0.0657685 0.996801 
0.048327 -0.0574493 0.997178 
0.042522 -0.0459712 0.998037 
0.0408318 -0.0356227 0.998531 
0.0414238 -0.0277541 0.998756 
0.0365529 -0.0204363 0.999123 
0.0393977 -0.0162285 0.999092 
0.0387716 -0.0120191 0.999176 
0.034812 -0.0069125 0.99937 
0.0366278 -0.00302475 0.999324 
0.0351052 0.00163273 0.999382 
0.0335771 0.00685099 0.999413 
0.0330426 0.0126417 0.999374 
0.0322015 0.0195502 0.99929 
0.0312837 0.0271904 0.999141 
0.0304229 0.0359755 0.99889 
0.0298502 0.0460376 0.998494 
0.0293965 0.0584072 0.99786 
0.0285663 0.0740315 0.996847 
0.0272047 0.0945026 0.995153 
0.0248711 0.122243 0.992189 
0.0223147 0.161484 0.986623 
0.0198082 0.214259 0.976576 
0.0160955 0.284659 0.958494 
0.0110853 0.39272 0.919591 
0.0083088 0.502511 0.864531 
0.00561253 0.634873 0.772596 
0.00652727 0.656078 0.754665 
0.0072404 0.860635 0.509171 
0.00958544 0.919843 0.392169 
0.00270062 0.997323 0.0730696 
0.0023203 0.999556 0.0296964 
0.000312384 0.999962 -0.00874077 
-0.000544076 0.999356 -0.0358894 
-0.00265409 0.999018 -0.0442239 
-0.00700713 0.829073 -0.559096 
-0.00400152 0.797448 -0.603375 
-0.000812171 0.685275 -0.728284 
-0.0025869 0.582195 -0.813045 
-0.00472721 0.494854 -0.868964 
-0.00785689 0.388358 -0.921475 
-0.012535 0.298129 -0.954443 
-0.0171831 0.225562 -0.974077 
-0.0210398 0.172397 -0.984803 
-0.0254137 0.130759 -0.991088 
-0.0265881 0.0930118 -0.99531 
-0.0280152 0.0734101 -0.996908 
-0.0294706 0.0580254 -0.99788 
-0.0304925 0.0445651 -0.998541 
-0.0309523 0.0348369 -0.998914 
-0.031764 0.0266045 -0.999141 
-0.0325447 0.0193389 -0.999283 
-0.0331403 0.013115 -0.999365 
-0.0357054 0.00741406 -0.999335 
-0.0340154 0.00241089 -0.999418 
-0.0347216 -0.00215734 -0.999395 
-0.0350802 -0.0062021 -0.999365 
-0.0356745 -0.010342 -0.99931 
-0.0357604 -0.0142957 -0.999258 
-0.0372773 -0.018951 -0.999125 
-0.0363094 -0.0243669 -0.999043 
-0.0354938 -0.0308305 -0.998894 
-0.0381888 -0.0417376 -0.998399 
-0.0391938 -0.052886 -0.997831 
-0.0438307 -0.0646558 -0.996945 
-0.0422781 -0.0757442 -0.996231 
-0.0462943 -0.0880661 -0.995038 
-0.0414721 -0.0961528 -0.994502 
-0.0420296 -0.104866 -0.993598 
-0.0382814 -0.102443 -0.994002 
-0.0273151 -0.0751082 -0.996801 
-0.00223488 -0.00248051 -0.999994 
0.00458199 -0.00302843 0.999985 
0.0347385 -0.0884808 0.995472 
0.048478 -0.105318 0.993256 
0.0477492 -0.112114 0.992547 
0.0522041 -0.106364 0.992956 
0.0433713 -0.0961007 0.994426 
0.0439819 -0.0834558 0.99554 
0.0370372 -0.0670312 0.997063 