# vtk DataFile Version 3.0 
Exported using Morpho https://github.com/Morpho-lang/morpho 
ASCII 
DATASET UNSTRUCTURED_GRID 

POINTS 1978 float 
-8.48528 -2.82843 -2.45402e-12 
-8.313 -2.82843 4.95788e-12 
-8.13029 -2.82843 1.66328e-11 
-7.76712 -2.82843 6.33417e-11 
-7.1915 -2.82843 6.98408e-11 
-6.95798 -2.82843 3.56473e-11 
-6.74531 -2.82843 2.78114e-11 
-6.5729 -2.82843 1.82694e-11 
-6.4123 -2.82843 1.53318e-11 
-6.26934 -2.82843 8.01324e-12 
-6.12517 -2.82843 9.0116e-12 
-5.9105 -2.82843 1.09492e-11 
-5.6374 -2.82843 1.03037e-11 
-5.3968 -2.82843 8.91027e-12 
-5.18748 -2.82843 7.8114e-12 
-4.98793 -2.82843 6.5718e-12 
-4.78356 -2.82843 4.81471e-12 
-4.58254 -2.82843 2.50744e-12 
-4.37717 -2.82843 3.05186e-13 
-4.16967 -2.82843 -1.33453e-12 
-3.96317 -2.82843 -2.89977e-12 
-3.75681 -2.82843 -4.18479e-12 
-3.54161 -2.82843 -6.18134e-12 
-3.31719 -2.82843 -8.57319e-12 
-3.09289 -2.82843 -1.0927e-11 
-2.87161 -2.82843 -1.32302e-11 
-2.6572 -2.82843 -1.75054e-11 
-2.41779 -2.82843 -2.25417e-11 
-2.20431 -2.82843 -2.22034e-11 
-1.99097 -2.82843 -2.52482e-11 
-1.79079 -2.82843 -2.20708e-11 
-1.59454 -2.82843 -2.41059e-11 
-1.39557 -2.82843 -2.14446e-11 
-1.20541 -2.82843 -1.71996e-11 
-1.01628 -2.82843 -1.59458e-11 
-0.799714 -2.82843 -1.28931e-11 
-0.588707 -2.82843 -5.39735e-12 
-0.411319 -2.82843 -6.6228e-12 
-0.209517 -2.82843 -2.27507e-14 
0.0122149 -2.82843 2.30151e-12 
0.209193 -2.82843 6.25924e-12 
0.403224 -2.82843 1.5599e-12 
0.598983 -2.82843 2.5096e-12 
0.787439 -2.82843 1.39687e-11 
0.978562 -2.82843 1.7309e-11 
1.1846 -2.82843 1.68718e-11 
1.35772 -2.82843 2.91087e-11 
1.57621 -2.82843 2.58173e-11 
1.76477 -2.82843 2.79898e-11 
1.99126 -2.82843 3.29182e-11 
2.24416 -2.82843 2.54133e-11 
2.43551 -2.82843 2.17422e-11 
2.69606 -2.82843 1.97807e-11 
2.9209 -2.82843 1.32948e-11 
3.13463 -2.82843 9.38141e-12 
3.33585 -2.82843 6.97805e-12 
3.54968 -2.82843 4.97855e-12 
3.74668 -2.82843 3.96146e-12 
3.9877 -2.82843 3.59417e-12 
4.23432 -2.82843 2.54193e-12 
4.43589 -2.82843 1.4329e-12 
4.64067 -2.82843 5.12296e-13 
4.8456 -2.82843 -5.48261e-13 
5.04769 -2.82843 -1.64462e-12 
5.26348 -2.82843 -2.31635e-12 
5.45877 -2.82843 -2.93849e-12 
5.65663 -2.82843 -4.60881e-12 
5.85724 -2.82843 -6.66314e-12 
6.0454 -2.82843 -7.75537e-12 
6.23169 -2.82843 -1.20292e-11 
6.42072 -2.82843 -1.56275e-11 
6.62783 -2.82843 -1.8422e-11 
6.84039 -2.82843 -4.62889e-11 
7.39749 -2.82843 -5.04798e-11 
7.81955 -2.82843 -2.53379e-11 
8.02916 -2.82843 -9.80322e-12 
8.19174 -2.82843 -6.84093e-12 
8.34051 -2.82843 -5.60616e-12 
8.48528 -2.82843 2.62939e-12 
-8.48528 -2.60402 5.46351e-13 
-8.24744 -2.53416 -7.37438e-12 
-7.99972 -2.65241 -3.40716e-11 
-7.86563 -2.4881 -7.84966e-12 
-7.59587 -2.71032 -6.64991e-11 
-7.01253 -2.58155 -3.1124e-11 
-6.78299 -2.57323 -1.9825e-11 
-6.57828 -2.55722 -1.00241e-11 
-6.3967 -2.57433 -2.55734e-11 
-6.3625 -2.333 -7.2625e-12 
-6.21926 -2.55583 -2.59689e-12 
-6.00179 -2.61751 -1.99501e-11 
-5.72425 -2.62103 -1.66326e-11 
-5.47933 -2.57757 -8.26971e-12 
-5.24511 -2.56484 -6.98295e-12 
-5.03252 -2.56072 -4.29126e-12 
-4.82347 -2.57926 -3.91942e-12 
-4.60883 -2.5795 -2.07208e-12 
-4.39391 -2.58353 -2.13302e-13 
-4.17786 -2.57804 1.57719e-12 
-3.96614 -2.57204 3.45073e-12 
-3.75736 -2.57027 5.40034e-12 
-3.54831 -2.58046 7.97951e-12 
-3.33067 -2.59009 1.09601e-11 
-3.10712 -2.59045 1.39687e-11 
-2.88633 -2.58806 1.77477e-11 
-2.67273 -2.58813 2.10842e-11 
-2.46068 -2.61937 3.21669e-11 
-2.22315 -2.59382 3.22891e-11 
-2.00557 -2.58776 3.54321e-11 
-1.79558 -2.57679 3.18987e-11 
-1.58603 -2.58199 3.99861e-11 
-1.38395 -2.56227 2.95644e-11 
-1.19628 -2.55201 1.91185e-11 
-0.971403 -2.59824 2.47511e-11 
-0.768494 -2.57405 2.05708e-11 
-0.584779 -2.50692 -2.85514e-12 
-0.381854 -2.50056 -1.60106e-11 
-0.177222 -2.51614 7.4943e-12 
0.0219615 -2.48691 -6.85749e-13 
0.220289 -2.52763 -1.02234e-11 
0.41608 -2.46537 6.56255e-12 
0.608379 -2.52658 -2.21823e-13 
0.826435 -2.55016 -8.53982e-12 
1.04667 -2.591 -3.55684e-11 
1.24368 -2.53751 -1.51589e-11 
1.45368 -2.60712 -5.18961e-11 
1.66563 -2.57332 -3.19313e-11 
1.87944 -2.6136 -4.54993e-11 
2.129 -2.63262 -4.51813e-11 
2.35655 -2.56905 -2.47888e-11 
2.57147 -2.62507 -2.94709e-11 
2.81013 -2.59162 -1.94493e-11 
3.02514 -2.58551 -1.54245e-11 
3.23326 -2.5675 -1.05787e-11 
3.44318 -2.58223 -9.4235e-12 
3.64673 -2.55736 -5.96118e-12 
3.86149 -2.60356 -5.73344e-12 
4.106 -2.60466 -4.07884e-12 
4.32678 -2.56183 -2.16352e-12 
4.53733 -2.56886 -9.64322e-13 
4.74972 -2.57174 1.16159e-13 
4.96434 -2.57069 1.19266e-12 
5.18167 -2.59118 2.69346e-12 
5.40167 -2.57109 3.98997e-12 
5.60969 -2.57848 5.75595e-12 
5.82391 -2.58569 9.00563e-12 
6.03879 -2.56509 9.18683e-12 
6.23976 -2.5558 9.40059e-12 
6.44992 -2.57628 1.70556e-11 
6.6578 -2.55865 1.44636e-11 
6.86169 -2.54064 1.97994e-11 
7.05895 -2.71908 4.66232e-11 
7.44581 -2.55476 1.55942e-11 
7.62268 -2.68841 3.72898e-11 
7.8596 -2.5826 1.73751e-11 
8.04046 -2.53934 1.07863e-11 
8.23043 -2.55959 9.294e-12 
8.48528 -2.67967 3.02439e-13 
-8.48528 -2.38452 7.57422e-13 
-8.16372 -2.34532 -3.10449e-12 
-7.94699 -2.21785 -1.50866e-12 
-7.66043 -2.39438 -9.67125e-12 
-7.44387 -2.44207 -1.49329e-11 
-7.29817 -2.63243 -4.90581e-11 
-7.17037 -2.38879 -1.39262e-11 
-6.94481 -2.32562 -6.12837e-12 
-6.73647 -2.3102 2.40166e-13 
-6.54888 -2.29734 -7.15519e-12 
-6.21912 -2.18072 -7.33243e-12 
-6.10254 -2.3823 -3.37156e-12 
-5.84436 -2.43244 -3.94759e-12 
-5.60312 -2.34637 -6.13139e-12 
-5.36446 -2.32903 -1.55315e-12 
-5.14313 -2.30139 -1.47336e-12 
-4.92435 -2.31787 -7.89277e-13 
-4.71269 -2.3396 -7.10272e-13 
-4.48975 -2.3468 -3.98186e-13 
-4.27144 -2.34242 2.24562e-13 
-4.05668 -2.32644 1.09204e-12 
-3.84691 -2.31751 1.98497e-12 
-3.63635 -2.32352 2.95811e-12 
-3.42448 -2.3436 3.9979e-12 
-3.20845 -2.35418 5.10724e-12 
-2.99086 -2.35155 6.90425e-12 
-2.77744 -2.34455 8.46068e-12 
-2.56303 -2.36305 1.07592e-11 
-2.35369 -2.39634 1.29086e-11 
-2.11993 -2.35917 1.46601e-11 
-1.90219 -2.33949 1.60709e-11 
-1.68311 -2.3424 1.50537e-11 
-1.46709 -2.3255 1.26625e-11 
-1.25148 -2.2721 9.40341e-12 
-1.03919 -2.36065 1.12242e-11 
-0.827389 -2.30325 -1.33891e-11 
-0.608745 -2.2277 -1.11792e-11 
-0.405099 -2.17876 -1.30831e-11 
-0.195599 -2.17545 -1.49961e-11 
0.0343299 -2.17898 8.70763e-12 
0.256195 -2.20874 4.42182e-11 
0.382797 -2.00765 -4.08572e-11 
0.553097 -2.20607 -1.57566e-11 
0.77035 -2.28474 -3.98628e-12 
1.01018 -2.33662 6.49092e-13 
1.23128 -2.28816 -1.33685e-11 
1.44974 -2.36232 -1.22094e-11 
1.65677 -2.32759 -1.53524e-11 
1.8677 -2.37093 -1.60754e-11 
2.07618 -2.42439 -1.68864e-11 
2.29282 -2.35846 -1.41933e-11 
2.53938 -2.37316 -1.12748e-11 
2.74664 -2.3805 -8.73523e-12 
2.97969 -2.3407 -7.00496e-12 
3.18058 -2.3233 -5.69862e-12 
3.39443 -2.33262 -4.32326e-12 
3.59481 -2.30373 -3.47994e-12 
3.80414 -2.3398 -2.83562e-12 
4.01008 -2.37989 -2.06182e-12 
4.22721 -2.33238 -1.27043e-12 
4.44826 -2.31045 -6.9049e-13 
4.6564 -2.3163 -1.62169e-13 
4.86772 -2.32352 3.02093e-13 
5.08867 -2.3375 8.52198e-13 
5.29752 -2.34278 1.56004e-12 
5.51825 -2.32655 2.3675e-12 
5.73097 -2.34429 3.56011e-12 
5.94416 -2.33974 3.52537e-12 
6.16122 -2.30669 3.43405e-12 
6.37255 -2.32349 4.7544e-12 
6.57346 -2.30246 2.72798e-12 
6.77754 -2.26356 5.07094e-12 
7.01976 -2.37715 5.30793e-12 
7.2195 -2.585 1.55401e-11 
7.50063 -2.31831 6.43132e-12 
7.71933 -2.41207 4.7383e-12 
7.93854 -2.28513 -8.07619e-14 
8.18944 -2.3573 1.69671e-13 
8.48528 -2.51726 -1.11904e-12 
-8.48528 -2.16554 -3.16629e-13 
-8.25265 -2.14306 6.77162e-12 
-8.12424 -1.95311 -8.90461e-13 
-7.77659 -2.10611 -6.34609e-13 
-7.53237 -2.13235 -5.85408e-12 
-7.30788 -2.19947 -7.94255e-12 
-7.06926 -2.10563 -7.04299e-12 
-6.83707 -2.07719 -3.56939e-12 
-6.63348 -2.03615 -1.02211e-12 
-6.42621 -2.0791 -6.44247e-13 
-6.03821 -2.03592 -3.62692e-12 
-5.94074 -2.21977 -3.56958e-12 
-5.72804 -2.15264 -3.07213e-12 
-5.47314 -2.09553 -2.75342e-12 
-5.26272 -2.06488 -7.41521e-13 
-5.03572 -2.06808 -8.67022e-13 
-4.82021 -2.08431 -2.07782e-13 
-4.60437 -2.11716 -6.08279e-15 
-4.38583 -2.11276 3.92482e-13 
-4.17395 -2.09634 8.38039e-13 
-3.96341 -2.07606 1.06391e-12 
-3.7522 -2.07581 1.60022e-12 
-3.53911 -2.09112 2.24464e-12 
-3.32848 -2.11149 3.23619e-12 
-3.1164 -2.11818 4.29592e-12 
-2.90394 -2.11069 5.13974e-12 
-2.68609 -2.1152 5.88035e-12 
-2.47223 -2.13601 7.83382e-12 
-2.26217 -2.16698 8.77299e-12 
-2.02591 -2.11762 7.09473e-12 
-1.79203 -2.10344 9.51256e-12 
-1.5714 -2.09677 2.16683e-12 
-1.34614 -2.05754 -2.12255e-12 
-1.17947 -1.89819 -5.0429e-12 
-1.05362 -2.1065 -1.20627e-11 
-0.809013 -2.05201 -2.00991e-11 
-0.581259 -1.92842 -1.70762e-11 
-0.357392 -1.85701 1.94507e-11 
-0.120573 -1.87344 6.16067e-12 
0.0598112 -1.54174 -2.78567e-12 
0.107574 -1.86547 1.62679e-11 
0.312548 -1.71764 9.79954e-12 
0.582288 -1.81942 7.03023e-12 
0.73987 -1.98703 2.5779e-11 
0.955741 -2.09503 -5.11311e-12 
1.19155 -2.05058 1.89357e-11 
1.43563 -2.105 -4.17769e-12 
1.66144 -2.09149 3.56402e-12 
1.88456 -2.1289 -5.00147e-12 
2.09731 -2.18247 -8.21549e-12 
2.35613 -2.15806 -9.37785e-12 
2.57384 -2.1277 -7.45416e-12 
2.79678 -2.15381 -6.42193e-12 
2.99451 -2.08199 -4.14173e-12 
3.21379 -2.09331 -2.88786e-12 
3.41363 -2.08067 -2.44585e-12 
3.62808 -2.07038 -1.93092e-12 
3.83928 -2.10043 -1.7087e-12 
4.04771 -2.13081 -1.26414e-12 
4.27191 -2.0907 -8.00705e-13 
4.48486 -2.06184 -3.8421e-13 
4.69884 -2.07224 -6.70131e-14 
4.92147 -2.09348 2.65778e-13 
5.13368 -2.0905 6.7125e-13 
5.34976 -2.10741 1.17955e-12 
5.57449 -2.09392 1.30224e-12 
5.78889 -2.10779 1.92689e-12 
6.00646 -2.10289 2.33176e-12 
6.23633 -2.07436 2.4903e-12 
6.43439 -2.06068 2.35706e-12 
6.64084 -2.03151 3.28251e-12 
6.92365 -2.10353 2.54156e-12 
7.14964 -2.11134 3.57819e-12 
7.25734 -2.31098 5.90255e-12 
7.45041 -2.07963 1.29257e-12 
7.70637 -2.14297 2.20545e-12 
7.99784 -2.07202 -5.89912e-13 
8.256 -2.16011 -2.92971e-12 
8.48528 -2.33612 -2.97561e-13 
-8.48528 -1.44802 -9.49424e-13 
-8.38843 -1.83891 4.9035e-12 
-7.96677 -1.83609 1.0624e-12 
[...]
POINT_DATA 1978 
VECTORS vectors float
-2.24495e-05 -0.00342887 0.999994 
0.000612754 -0.0456929 0.998955 
0.000487268 -0.0584967 0.998287 
0.00160307 -0.0871759 0.996192 
0.00122175 -0.131041 0.991376 
0.000415045 -0.132307 0.991209 
0.000225422 -0.115747 0.993279 
0.000414258 -0.0959821 0.995383 
0.000459303 -0.0735536 0.997291 
0.000830167 -0.0580872 0.998311 
0.000311554 -0.0456373 0.998958 
1.2702e-06 -0.0339271 0.999424 
2.85666e-05 -0.031301 0.99951 
0.000117193 -0.0327728 0.999463 
0.000223132 -0.0319746 0.999489 
0.000191513 -0.0277061 0.999616 
0.00019348 -0.0199988 0.9998 
0.000186672 -0.0108541 0.999941 
0.000169876 -0.00171181 0.999999 
0.000175195 0.00572086 0.999984 
0.000177726 0.0125802 0.999921 
0.000166831 0.0188164 0.999823 
0.000116668 0.0262609 0.999655 
0.000111731 0.0358231 0.999358 
0.000103817 0.0474668 0.998873 
0.000163255 0.0626163 0.998038 
7.12417e-05 0.081964 0.996635 
0.000104382 0.110365 0.993891 
0.000129714 0.144917 0.989444 
0.000136245 0.190625 0.981663 
0.000173109 0.246338 0.969184 
0.000139663 0.312542 0.949904 
0.000127955 0.393508 0.919321 
0.000138391 0.484276 0.874915 
8.06282e-05 0.585737 0.810502 
2.32799e-05 0.707275 0.706938 
3.74833e-05 0.824107 0.566434 
3.80113e-05 0.905534 0.424273 
-2.5311e-06 0.97638 0.21606 
6.67452e-06 0.999794 -0.0203088 
-1.51077e-05 0.973068 -0.230517 
-2.9333e-06 0.906827 -0.421504 
-5.96654e-05 0.813177 -0.582017 
-7.39131e-05 0.708101 -0.706111 
-6.13253e-05 0.598308 -0.801267 
-0.000138299 0.487933 -0.872881 
-0.000152646 0.405821 -0.913952 
-9.42108e-05 0.317276 -0.948333 
-0.000197446 0.253702 -0.967282 
2.1673e-05 0.193439 -0.981112 
-0.000159795 0.141766 -0.9899 
-0.000121667 0.112627 -0.993637 
-1.25677e-05 0.0822002 -0.996616 
-0.000147214 0.0616225 -0.9981 
-0.000177993 0.0456143 -0.998959 
-0.000163829 0.0333726 -0.999443 
-0.000192914 0.0234933 -0.999724 
-0.000164409 0.0169919 -0.999856 
-6.03599e-07 0.012392 -0.999923 
-0.000128608 0.00925982 -0.999957 
-0.000226148 0.00614399 -0.999981 
-0.000162479 0.00209972 -0.999998 
-0.000212954 -0.00233958 -0.999997 
-0.000143395 -0.00643642 -0.999979 
-0.000178662 -0.0100049 -0.99995 
-0.000245021 -0.0141649 -0.9999 
-0.000172773 -0.0213741 -0.999772 
-0.000253255 -0.0310851 -0.999517 
-0.000238422 -0.0444763 -0.99901 
-0.000296422 -0.058594 -0.998282 
-0.000192215 -0.0705229 -0.99751 
-0.000434591 -0.0804898 -0.996755 
-0.00117054 -0.0849353 -0.996386 
-0.00182537 -0.0771399 -0.997019 
-0.000698656 -0.0654959 -0.997853 
-0.000425542 -0.0610375 -0.998135 
-0.000489522 -0.0595157 -0.998227 
-0.00056511 -0.0525391 -0.998619 
-0.000353762 -0.00771238 -0.99997 
-0.000463098 0.00142406 0.999999 
0.0309289 -0.0557233 0.997967 
0.0390667 -0.0715811 0.996669 
0.0513373 -0.0878054 0.994814 
0.0419665 -0.101757 0.993924 
0.0605469 -0.12011 0.990913 
0.0587858 -0.110272 0.992161 
0.0628189 -0.0912641 0.993843 
0.0664866 -0.0755548 0.994923 
0.0788035 -0.0656703 0.994725 
0.0577955 -0.0547174 0.996828 
0.0567801 -0.0375522 0.99768 
0.0611384 -0.0313653 0.997636 
0.0623776 -0.0293718 0.99762 
0.0631257 -0.0273944 0.99763 
0.062812 -0.0239639 0.997738 
0.0608549 -0.0183431 0.997978 
0.060136 -0.0105191 0.998135 
0.0587379 -0.00235774 0.998271 
0.0585319 0.00543145 0.998271 
0.0589677 0.0126054 0.99818 
0.0585311 0.0195085 0.998095 
0.0566987 0.0270061 0.998026 
0.0547392 0.0364951 0.997834 
0.0535321 0.0488146 0.997372 
0.0523265 0.0641312 0.996569 
0.0501259 0.0832097 0.995271 
0.0449428 0.107875 0.993148 
0.0422597 0.145745 0.988419 
0.0376673 0.191562 0.980757 
0.0329391 0.251134 0.967392 
0.0275231 0.322857 0.946048 
0.0225349 0.406666 0.913299 
0.0176272 0.497865 0.867076 
0.0121368 0.619187 0.785149 
0.00789141 0.736225 0.676691 
0.00498582 0.829338 0.558725 
0.00243135 0.919721 0.392566 
0.000705525 0.981274 0.192614 
-0.00114434 0.999947 -0.0102613 
-0.00241526 0.975478 -0.220083 
-0.00510273 0.905565 -0.424177 
-0.00746324 0.80732 -0.590067 
-0.0107235 0.68871 -0.724958 
-0.0150279 0.566652 -0.82382 
-0.0200476 0.464184 -0.885512 
-0.0244132 0.37 -0.928711 
-0.0304243 0.291214 -0.956174 
-0.0343324 0.225129 -0.973724 
-0.0385496 0.166473 -0.985292 
-0.0461905 0.127436 -0.990771 
-0.0451529 0.0977935 -0.994182 
-0.0506069 0.0727123 -0.996068 
-0.0532963 0.0549372 -0.997066 
-0.0562582 0.041421 -0.997557 
-0.0565176 0.0303434 -0.99794 
-0.0594786 0.0224516 -0.997977 
-0.0561539 0.0159801 -0.998294 
-0.0565662 0.0110698 -0.998337 
-0.0614206 0.00745156 -0.998084 
-0.0609076 0.0039021 -0.998136 
-0.0608479 -3.79788e-05 -0.998147 
-0.0611133 -0.00422141 -0.998122 
-0.0590158 -0.00853922 -0.998221 
-0.0609005 -0.0134743 -0.998053 
-0.0596388 -0.020014 -0.998019 
-0.0593071 -0.0294835 -0.997804 
-0.0594746 -0.0416564 -0.99736 
-0.0608887 -0.0538393 -0.996691 
-0.0591297 -0.0656111 -0.996092 
-0.059925 -0.0735403 -0.99549 
-0.0622727 -0.0769263 -0.99509 
-0.0412176 -0.0817247 -0.995802 
-0.0544938 -0.0766418 -0.995568 
-0.0430998 -0.0724998 -0.996437 
-0.0449646 -0.0705701 -0.996493 
-0.0407692 -0.0667745 -0.996935 
-0.0321782 -0.0581151 -0.997791 
-0.000953054 0.00183808 -0.999998 
1.97962e-05 -0.000693121 1 
0.0415442 -0.0730642 0.996462 
0.0538003 -0.0907079 0.994423 
0.0638549 -0.0999673 0.99294 
0.0694313 -0.108279 0.991693 
0.0560172 -0.117701 0.991468 
0.0763983 -0.112041 0.990762 
0.0787545 -0.107006 0.991134 
0.0782906 -0.0972594 0.992175 
0.0813703 -0.0828503 0.993234 
0.0810238 -0.0524364 0.995332 
0.0743919 -0.047801 0.996083 
0.0722927 -0.0343048 0.996793 
0.0780423 -0.0276768 0.996566 
0.0771097 -0.0248808 0.996712 
0.0776363 -0.020941 0.996762 
0.0768916 -0.0166461 0.9969 
0.0758038 -0.0109376 0.997063 
0.0743686 -0.00371984 0.997224 
0.073483 0.00354979 0.99729 
0.0729425 0.0106141 0.99728 
0.0720389 0.0175919 0.997247 
0.0706839 0.0251092 0.997183 
0.0687306 0.0337882 0.997063 
0.066814 0.0447517 0.996761 
0.0648862 0.0586102 0.99617 
0.0621502 0.076099 0.995161 
0.0581064 0.0984286 0.993446 
0.0529965 0.127044 0.99048 
0.047303 0.170129 0.984286 
0.0408484 0.222258 0.974132 
0.0336095 0.289786 0.956501 
0.0262169 0.371278 0.928152 
0.0188191 0.467831 0.883617 
0.0136239 0.574101 0.818671 
0.00807198 0.690962 0.722846 
0.00365113 0.818349 0.57471 
0.00172518 0.913177 0.407559 
0.000890264 0.975218 0.221246 
3.71158e-05 0.999954 -0.00963683 
-0.00238824 0.967672 -0.252202 
-0.00281246 0.907587 -0.419854 
-0.00631959 0.813093 -0.5821 
-0.00967217 0.698676 -0.715372 
-0.0144058 0.577231 -0.816454 
-0.0199934 0.471311 -0.881741 
-0.027093 0.374925 -0.926659 
-0.0335675 0.298709 -0.953754 
-0.0401087 0.232369 -0.9718 
-0.0456413 0.179236 -0.982747 
-0.0524324 0.139483 -0.988835 
-0.0570279 0.103397 -0.993004 
-0.0604463 0.0802852 -0.994937 
-0.0646186 0.0603458 -0.996084 
-0.067333 0.0465697 -0.996643 
-0.0691169 0.0348343 -0.997 
-0.0712507 0.0263569 -0.99711 
-0.0720122 0.0191223 -0.99722 
-0.0718557 0.0137391 -0.99732 
-0.0743227 0.00958483 -0.997188 
-0.0753633 0.00557018 -0.997141 
-0.0755372 0.00184075 -0.997141 
-0.0756538 -0.00203352 -0.997132 
-0.0754613 -0.00628766 -0.997129 
-0.0753586 -0.0107448 -0.997099 
-0.0756297 -0.0165242 -0.996999 
-0.0747705 -0.0238188 -0.996916 
-0.0744819 -0.0336111 -0.996656 
-0.0748725 -0.0440829 -0.996218 
-0.0741297 -0.0551203 -0.995724 
-0.0733559 -0.0639567 -0.995253 
-0.0730602 -0.0695383 -0.9949 
-0.0680186 -0.0766806 -0.994733 
-0.0544609 -0.07887 -0.995396 
-0.0615305 -0.0793653 -0.994945 
-0.0535281 -0.0766267 -0.995622 
-0.0461217 -0.0767796 -0.995981 
-0.0349271 -0.0640113 -0.997338 
0.00010954 -0.000729389 -1 
0.00024282 -0.0009562 1 
0.030077 -0.0653975 0.997406 
0.044693 -0.086013 0.995291 
0.0634213 -0.101474 0.992815 
0.0727653 -0.105449 0.991759 
0.0791068 -0.108189 0.990978 
0.0810334 -0.101847 0.991494 
0.0818186 -0.0931013 0.992289 
0.0807405 -0.0799851 0.993521 
0.0814406 -0.0678084 0.994369 
0.0793475 -0.0412336 0.995994 
0.0799568 -0.0385399 0.996053 
0.0794986 -0.0299849 0.996384 
0.0773278 -0.0228287 0.996744 
0.0773774 -0.0192769 0.996815 
0.0766328 -0.0148174 0.996949 
0.076356 -0.0103399 0.997027 
0.076259 -0.00503524 0.997075 
0.0749387 0.00139903 0.997187 
0.0732454 0.00801474 0.997282 
0.0712732 0.0149884 0.997344 
0.0698338 0.0223239 0.997309 
0.0687818 0.0306109 0.997162 
0.0675381 0.0401751 0.996908 
0.0655066 0.052143 0.996489 
0.0625431 0.0676275 0.995748 
0.0588547 0.0880305 0.994378 
0.0548049 0.113665 0.992006 
0.0499477 0.146789 0.987906 
0.0420954 0.197544 0.97939 
0.0343944 0.260065 0.964978 
0.0263161 0.337959 0.940793 
0.0183942 0.432916 0.901247 
0.0116109 0.515435 0.85685 
0.0106441 0.571178 0.820757 
0.00518842 0.709386 0.704801 
0.00342744 0.821631 0.570009 
0.00366507 0.926113 0.377229 
0.00289938 0.989097 0.147236 
0.00204591 0.998446 -0.0556889 
0.00188381 0.990068 -0.140576 
0.00176288 0.938174 -0.346159 
-0.000823454 0.838974 -0.54417 
-0.00418909 0.725367 -0.688349 
-0.00982441 0.611408 -0.791255 
-0.0146772 0.501834 -0.864839 
-0.0233788 0.387791 -0.921451 
-0.0298742 0.307602 -0.951046 
-0.0379175 0.236499 -0.970892 
-0.0452849 0.18088 -0.982462 
-0.0523648 0.131104 -0.989985 
-0.0568388 0.10137 -0.993224 
-0.0617746 0.0776181 -0.995067 
-0.0629705 0.0616206 -0.996111 
-0.0659134 0.0469388 -0.996721 
-0.0678006 0.0362993 -0.997038 
-0.0697456 0.0271933 -0.997194 
-0.071952 0.0198278 -0.997211 
-0.0734404 0.0141248 -0.9972 
-0.074014 0.00935186 -0.997213 
-0.0739928 0.00525463 -0.997245 
-0.0747146 0.00131094 -0.997204 
-0.0754851 -0.00276288 -0.997143 
-0.0755464 -0.00680134 -0.997119 
-0.0758626 -0.0115147 -0.997052 
-0.0755654 -0.0175324 -0.996987 
-0.075704 -0.0246764 -0.996825 
-0.0756603 -0.0333806 -0.996575 
-0.0749604 -0.0430693 -0.996256 
-0.0739409 -0.0517268 -0.99592 
-0.0724607 -0.0598258 -0.995575 
-0.0714318 -0.0720551 -0.994839 
-0.0687151 -0.0780464 -0.994579 
-0.0663312 -0.0787933 -0.994682 
-0.0613885 -0.0831565 -0.994644 
-0.055218 -0.0832093 -0.995001 
-0.0445453 -0.0836227 -0.995501 
-0.0295825 -0.0637365 -0.997528 
0.000321001 -0.000150284 -1 
0.000189186 -0.00108129 0.999999 
0.0222008 -0.0559582 0.998186 
0.0550736 -0.10047 0.993415 
0.0672525 -0.107329 0.991946 
0.071908 -0.107806 0.991568 
0.0769808 -0.106064 0.991375 
0.076809 -0.0998129 0.992037 
0.0773416 -0.0896975 0.992962 
0.075372 -0.0753962 0.994301 
0.0768084 -0.063303 0.995034 
0.0770524 -0.0513746 0.995703 
0.0717748 -0.0378059 0.996704 
0.0757502 -0.0321042 0.99661 
0.0737318 -0.0246258 0.996974 
0.0691441 -0.017676 0.99745 
0.0702488 -0.0141741 0.997429 
0.0693364 -0.00962606 0.997547 
0.0702246 -0.00511974 0.997518 
0.0696124 5.75904e-05 0.997574 
0.0675242 0.0061382 0.997699 
0.0652594 0.0126404 0.997788 
0.0632288 0.0198373 0.997802 
0.062362 0.0276946 0.997669 
0.0613819 0.0365691 0.997444 
0.0601831 0.0469338 0.997083 
0.0579892 0.0600929 0.996507 
0.0549589 0.0774853 0.995478 
0.0511589 0.100083 0.993663 
0.0472424 0.128416 0.990595 
0.0425563 0.165846 0.985233 
0.0341001 0.22458 0.973859 
0.0261347 0.296652 0.954628 
0.0188436 0.383388 0.923395 
0.012059 0.480397 0.876968 
0.00632918 0.652179 0.758039 
0.0050826 0.769914 0.638127 
0.0042146 0.885122 0.46534 
0.00359508 0.947993 0.31827 
0.00225714 0.980259 0.197705 
0.00250522 0.998229 0.059433 
0.000880914 0.982037 -0.188686 
0.000968018 0.936732 -0.350047 
-0.00124603 0.831853 -0.554995 
-0.00360936 0.715384 -0.698723 
-0.00750855 0.595854 -0.803057 
-0.00953465 0.521047 -0.853475 
-0.0164959 0.430784 -0.902304 
-0.0218198 0.344468 -0.938545 
-0.0298122 0.263245 -0.964268 
-0.0375619 0.201871 -0.978692 
-0.0445183 0.155512 -0.98683 
-0.048799 0.118644 -0.991737 
-0.0542494 0.0877447 -0.994665 
-0.0549141 0.0720406 -0.995889 
-0.0584529 0.054712 -0.99679 
-0.0598486 0.0422966 -0.997311 
-0.0618815 0.0324015 -0.997557 
-0.0641128 0.0237563 -0.99766 
-0.0661529 0.0171715 -0.997662 
-0.0674207 0.0120751 -0.997652 
-0.0664633 0.00737683 -0.997762 
-0.0671849 0.0029857 -0.997736 
-0.0686467 -0.00115579 -0.99764 
-0.068588 -0.00507709 -0.997632 
-0.0690309 -0.00939776 -0.99757 
-0.0695728 -0.0142777 -0.997475 
-0.0692869 -0.0205999 -0.997384 
-0.0700097 -0.0276404 -0.997163 
-0.0698008 -0.0357811 -0.996919 
-0.0674503 -0.0439371 -0.996755 
-0.0659188 -0.0526757 -0.996434 
-0.067936 -0.0653251 -0.995549 
-0.0654499 -0.075866 -0.994968 
-0.0623442 -0.084031 -0.994511 
-0.0530936 -0.0924104 -0.994304 
-0.0515127 -0.0898152 -0.994625 
-0.0402221 -0.0882042 -0.99529 
-0.0293995 -0.0714344 -0.997012 
-0.000275136 -0.00142365 -0.999999 
-0.000305332 -0.000175664 1 
0.03947 -0.0810154 0.995931 
0.0405187 -0.084173 0.995627 
0.0618713 -0.110879 0.991906 
0.0664113 -0.110534 0.991651 
0.069965 -0.1015 0.992372 
0.0702645 -0.0909463 0.993374 
0.0690253 -0.0788689 0.994492 
0.0681805 -0.0628763 0.99569 
0.0684418 -0.0518288 0.996308 
0.0667535 -0.0424067 0.996868 
0.0618772 -0.0297861 0.997639 
0.065332 -0.0253829 0.997541 
0.0627337 -0.0191642 0.997846 
0.0582548 -0.0128672 0.998219 
0.0596171 -0.0093067 0.998178 
0.0603164 -0.00468446 0.998168 
0.0595351 0.000203784 0.998226 
0.0581097 0.00548706 0.998295 
0.0557572 0.0115874 0.998377 
0.0539705 0.0183567 0.998374 
0.0528562 0.0262146 0.998258 
0.0519718 0.0348806 0.998039 
0.0510485 0.0450058 0.997682 
0.0496833 0.0571865 0.997127 
0.0476359 0.0729342 0.996198 
0.0445511 0.0938503 0.994589 
0.0408226 0.121772 0.991718 
0.0371301 0.157514 0.986818 
0.0320211 0.204995 0.978239 
0.0233028 0.282717 0.95892 
0.0160647 0.37583 0.92655 
0.0103073 0.502097 0.86475 
0.00748445 0.614792 0.788653 
0.00758041 0.611152 0.791477 
0.00587313 0.727264 0.686333 
0.00467613 0.842968 0.537944 
0.00414917 0.937228 0.348692 
0.0029972 0.99679 0.0800007 
-0.00209036 0.998859 -0.0477178 
-0.00171382 0.979503 -0.20142 
-0.00483089 0.985626 -0.168871 
-0.00115236 0.908721 -0.417402 
-0.00149069 0.822285 -0.569074 
-0.00435197 0.668953 -0.743292 
-0.00622193 0.537314 -0.843359 
-0.0129083 0.410506 -0.911767 
-0.0197691 0.315008 -0.948883 
-0.0269465 0.241545 -0.970015 
-0.0336105 0.186815 -0.98182 
-0.039178 0.145631 -0.988563 
-0.044905 0.10648 -0.9933 
-0.0437671 0.0868025 -0.995264 
-0.0482872 0.0665768 -0.996612 
-0.049703 0.052219 -0.997398 
-0.0505347 0.0407784 -0.997889 
-0.0534257 0.0307227 -0.998099 
-0.054627 0.0229882 -0.998242 
-0.0556817 0.016812 -0.998307 
-0.0573259 0.0114299 -0.99829 
-0.0563696 0.00630344 -0.99839 
-0.0577477 0.00167483 -0.99833 
-0.0581975 -0.00228043 -0.998302 
-0.0586349 -0.00635926 -0.998259 
-0.058751 -0.010516 -0.998217 
-0.0602582 -0.0154142 -0.998064 
-0.0595478 -0.0211804 -0.998001 
-0.0605532 -0.0279056 -0.997775 
-0.0596322 -0.0351278 -0.997602 
-0.0563986 -0.0432396 -0.997472 
-0.059023 -0.0561158 -0.996678 
-0.0609904 -0.0684109 -0.995791 
-0.0585506 -0.0794582 -0.995117 
-0.0584775 -0.0865825 -0.994527 
-0.0523094 -0.0953806 -0.994066 
-0.0427808 -0.0960885 -0.994453 
-0.0294224 -0.0786104 -0.996471 
-0.0165753 -0.0550623 -0.998345 
-0.000293449 -0.00149205 -0.999999 
-0.000514907 1.95271e-05 1 
0.037267 -0.0796738 0.996124 
0.0537523 -0.104885 0.993031 
0.0596721 -0.11298 0.991804 
0.0645726 -0.107538 0.992102 
0.0607089 -0.10021 0.993113 
0.0630071 -0.0920085 0.993763 
0.0588306 -0.0768717 0.995304 
0.0597971 -0.0645426 0.996122 
0.0566326 -0.0502418 0.99713 
0.0528695 -0.0401657 0.997793 
0.0548905 -0.0331754 0.997941 
0.0490984 -0.0241742 0.998501 
0.0515094 -0.0196768 0.998479 
0.0510277 -0.0147382 0.998588 
0.0458397 -0.00936396 0.998905 
0.0489064 -0.00560778 0.998788 
0.0479098 -0.000996564 0.998851 
0.0462252 0.00394161 0.998923 
0.0450213 0.00927619 0.998943 
0.0433582 0.015556 0.998938 
0.0425243 0.0227218 0.998837 
0.0413336 0.030773 0.998671 
0.0406826 0.0398879 0.998376 
0.0398459 0.0506278 0.997922 
0.0388917 0.0639782 0.997193 
0.0372107 0.0812407 0.996 
0.0346669 0.10441 0.99393 
0.0313986 0.135384 0.990296 
0.0281884 0.176024 0.983982 
0.0239754 0.233582 0.972041 
0.0164786 0.324496 0.945744 
0.0117099 0.426806 0.904267 
0.00828061 0.53547 0.844514 
0.00589996 0.746796 0.665027 
0.00401986 0.855884 0.517153 
0.00507698 0.92261 0.385701 
0.00589108 0.954828 0.297101 
0.00285734 0.975988 0.217804 
0.00295927 0.993502 0.113772 
-0.00256222 0.998571 -0.0533872 
-0.00734633 0.916322 -0.400375 
-0.00582883 0.926332 -0.376664 
-0.00079026 0.826889 -0.562365 
-0.00111846 0.718882 -0.695131 
-0.00283512 0.587571 -0.809168 
-0.00820341 0.441281 -0.897332 
-0.013455 0.342658 -0.939364 
-0.0196045 0.260183 -0.96536 
-0.0253539 0.199328 -0.979605 
-0.0300795 0.154624 -0.987515 
-0.0357743 0.120859 -0.992025 
-0.0331521 0.101825 -0.99425 
-0.0369673 0.0778948 -0.996276 
-0.0389862 0.0618411 -0.997324 
-0.0393018 0.0486911 -0.99804 
-0.0414346 0.0371212 -0.998451 
-0.042591 0.0284602 -0.998687 
-0.0432231 0.0211558 -0.998841 
-0.0444121 0.0147979 -0.998904 
-0.0458537 0.00942948 -0.998904 
-0.0458527 0.00390178 -0.998941 
-0.0457468 -0.000463931 -0.998953 
-0.0468113 -0.00460223 -0.998893 
-0.0466354 -0.00864872 -0.998875 
-0.0478807 -0.0130144 -0.998768 
-0.0484489 -0.017664 -0.998669 
-0.048454 -0.0237139 -0.998544 
-0.0479328 -0.0302626 -0.998392 
-0.0461849 -0.0378756 -0.998215 
-0.0491228 -0.0506889 -0.997506 
-0.0523948 -0.064963 -0.996511 
-0.0517643 -0.077793 -0.995625 
-0.0518128 -0.0899694 -0.994596 
-0.0462181 -0.0996426 -0.993949 
-0.0469425 -0.100899 -0.993789 
-0.0421131 -0.102624 -0.993828 
-0.0343927 -0.0879927 -0.995527 
0.000250385 -0.000258926 -1 
0.00049746 -0.000466921 1 
0.0397908 -0.0922605 0.99494 
0.0536906 -0.110307 0.992446 
0.0535161 -0.113914 0.992048 
0.0580596 -0.11038 0.992192 
0.053047 -0.0966921 0.9939 
0.0519503 -0.081704 0.995302 
0.0454159 -0.0657707 0.996801 
0.0483249 -0.0574486 0.997178 
0.0425223 -0.0459712 0.998037 
0.0408317 -0.0356235 0.998531 
0.0414235 -0.0277551 0.998756 
0.0365533 -0.020437 0.999123 
0.0393977 -0.0162286 0.999092 
0.0387703 -0.0120189 0.999176 
0.0348121 -0.00691251 0.99937 
0.0366272 -0.00302456 0.999324 
0.0351051 0.00163284 0.999382 
0.033577 0.00685098 0.999413 
0.0330426 0.0126417 0.999374 
0.0322012 0.01955 0.99929 
0.0312838 0.0271903 0.999141 
0.0304229 0.0359753 0.998889 
0.0298499 0.0460373 0.998494 
0.0293962 0.058407 0.99786 
0.0285661 0.0740317 0.996847 
0.027204 0.0945024 0.995153 
0.0248707 0.122244 0.992188 
0.0223139 0.161485 0.986623 
0.0198072 0.214262 0.976575 
0.0160951 0.284655 0.958495 
0.0110846 0.392712 0.919595 
0.00830672 0.50249 0.864543 
0.00561274 0.634822 0.772638 
0.00652086 0.65611 0.754637 
0.00724695 0.860563 0.509292 
0.00959198 0.919727 0.392441 
0.00270191 0.997324 0.0730583 
0.00232027 0.999556 0.0297061 
0.000313408 0.999962 -0.00871312 
-0.000546073 0.999355 -0.0359156 
-0.00265263 0.999018 -0.0442346 
-0.00700661 0.829086 -0.559077 
-0.00400275 0.79743 -0.603398 
-0.00081354 0.685261 -0.728297 
-0.0025871 0.582187 -0.813051 
-0.00472639 0.494836 -0.868974 
-0.00785554 0.388364 -0.921472 
-0.0125341 0.298131 -0.954443 
-0.0171826 0.225561 -0.974078 
-0.0210386 0.172398 -0.984803 
-0.0254129 0.130758 -0.991089 
-0.0265881 0.0930122 -0.99531 
-0.0280143 0.0734108 -0.996908 
-0.0294704 0.0580252 -0.99788 
-0.030492 0.0445657 -0.998541 
-0.0309524 0.034837 -0.998914 
-0.031764 0.0266046 -0.999141 
-0.0325442 0.0193391 -0.999283 
-0.0331403 0.0131152 -0.999365 
-0.0357051 0.00741419 -0.999335 
-0.0340151 0.00241099 -0.999418 
-0.0347214 -0.0021572 -0.999395 
-0.03508 -0.00620197 -0.999365 
-0.0356741 -0.0103419 -0.99931 
-0.0357606 -0.0142958 -0.999258 
-0.0372766 -0.0189513 -0.999125 
-0.0363102 -0.0243674 -0.999043 
-0.0354925 -0.0308302 -0.998894 
-0.0381887 -0.0417374 -0.998399 
-0.039193 -0.0528845 -0.997831 
-0.0438287 -0.0646536 -0.996945 
-0.0422772 -0.0757419 -0.996231 
-0.0462908 -0.0880614 -0.995039 
-0.0414707 -0.0961492 -0.994503 
-0.0420269 -0.104858 -0.993599 
-0.0382762 -0.10243 -0.994004 
-0.0273011 -0.0750643 -0.996805 
8.5248e-05 -0.000181268 -1 
0.000557356 -0.000444601 1 
0.0347255 -0.0884566 0.995475 
0.0484716 -0.105307 0.993258 
0.0477455 -0.112108 0.992548 
0.0522028 -0.106358 0.992957 
0.0433687 -0.0960954 0.994427 
0.0439791 -0.0834496 0.995541 