# vtk DataFile Version 3.0 
Exported using Morpho https://github.com/Morpho-lang/morpho 
ASCII 
DATASET UNSTRUCTURED_GRID 

POINTS 1978 float 
-8.48527 -2.82842 -1.80255e-08 
-8.31314 -2.82841 -8.37591e-08 
-8.13051 -2.8284 9.53551e-08 
-7.76737 -2.82838 6.29519e-07 
-7.19131 -2.82839 9.48354e-07 
-6.95808 -2.82841 5.94525e-07 
-6.74458 -2.82841 4.17187e-07 
-6.57318 -2.82842 2.81038e-07 
-6.41193 -2.82841 1.7912e-07 
-6.26922 -2.82843 1.14469e-07 
-6.1257 -2.82841 8.31676e-08 
-5.91108 -2.82841 1.27148e-07 
-5.63751 -2.8284 1.36379e-07 
-5.39648 -2.82841 1.43663e-07 
-5.1875 -2.82841 1.31881e-07 
-4.98788 -2.82841 1.15024e-07 
-4.78355 -2.82841 8.02484e-08 
-4.58256 -2.82841 3.92197e-08 
-4.37726 -2.82841 -1.30702e-09 
-4.16969 -2.82841 -1.99087e-08 
-3.96316 -2.82841 -3.93926e-08 
-3.75682 -2.82841 -5.28335e-08 
-3.54164 -2.82841 -7.33143e-08 
-3.31721 -2.82841 -1.03276e-07 
-3.09292 -2.82841 -1.26377e-07 
-2.87155 -2.82841 -1.52707e-07 
-2.65714 -2.82841 -1.95817e-07 
-2.41773 -2.82841 -2.40013e-07 
-2.20441 -2.82841 -2.28039e-07 
-1.9908 -2.82842 -2.32087e-07 
-1.79067 -2.82842 -1.93527e-07 
-1.59446 -2.82842 -1.82147e-07 
-1.39554 -2.82842 -1.33607e-07 
-1.20545 -2.82842 -1.07116e-07 
-1.01607 -2.82842 -1.1369e-07 
-0.799739 -2.82842 -5.83058e-08 
-0.588481 -2.82842 -4.08678e-08 
-0.411485 -2.82842 -3.7239e-08 
-0.209638 -2.82842 -8.32324e-08 
0.0124916 -2.82842 7.74649e-08 
0.209122 -2.82842 1.82414e-07 
0.403023 -2.82842 7.62115e-08 
0.598927 -2.82842 -1.82319e-08 
0.78725 -2.82842 6.9878e-08 
0.978596 -2.82842 1.04703e-07 
1.18446 -2.82842 1.20837e-07 
1.35768 -2.82842 1.9035e-07 
1.57613 -2.82842 2.0546e-07 
1.76465 -2.82842 2.47681e-07 
1.99118 -2.82841 3.16933e-07 
2.2442 -2.82841 2.66439e-07 
2.43533 -2.82841 2.37415e-07 
2.69607 -2.82841 2.29626e-07 
2.92097 -2.82841 1.60089e-07 
3.13461 -2.82841 1.11193e-07 
3.33586 -2.82841 7.86343e-08 
3.54964 -2.82841 5.39931e-08 
3.74666 -2.82841 3.90476e-08 
3.98766 -2.82841 4.08507e-08 
4.23444 -2.82841 3.72382e-08 
4.43592 -2.82841 2.33236e-08 
4.64069 -2.82841 8.63139e-09 
4.8456 -2.82841 -9.29505e-09 
5.04769 -2.82841 -2.64656e-08 
5.26353 -2.82841 -2.88031e-08 
5.4588 -2.82841 -2.87821e-08 
5.65666 -2.82841 -5.38994e-08 
5.85716 -2.82841 -7.8558e-08 
6.0455 -2.82841 -1.20769e-07 
6.2316 -2.82841 -1.94174e-07 
6.42074 -2.82841 -2.43785e-07 
6.6277 -2.82841 -2.94134e-07 
6.84032 -2.82839 -5.74603e-07 
7.39765 -2.82839 -5.81782e-07 
7.81969 -2.8284 -2.39864e-07 
8.0294 -2.82841 -4.8997e-08 
8.19174 -2.82842 -4.30906e-08 
8.34039 -2.82842 2.95438e-09 
8.48528 -2.82842 5.45861e-08 
-8.48527 -2.60362 1.2175e-07 
-8.24596 -2.53577 9.20778e-18 
-7.99807 -2.65098 3.83576e-17 
-7.85091 -2.49369 1.94142e-17 
-7.57896 -2.7094 8.77385e-17 
-7.01398 -2.58182 3.66296e-17 
-6.79372 -2.58635 3.01956e-17 
-6.58694 -2.536 1.25409e-17 
-6.40164 -2.59149 1.87011e-17 
-6.36796 -2.34427 1.00257e-17 
-6.20676 -2.54809 1.96251e-17 
-5.99466 -2.62013 2.19923e-17 
-5.71299 -2.60982 1.74837e-17 
-5.47124 -2.57419 1.06915e-17 
-5.23541 -2.5637 6.8977e-18 
-5.026 -2.56074 4.92031e-18 
-4.82087 -2.57875 4.22664e-18 
-4.60921 -2.57862 2.51103e-18 
-4.39554 -2.58338 3.16236e-19 
-4.17937 -2.57728 -1.80195e-18 
-3.96743 -2.57124 -4.23444e-18 
-3.75728 -2.56751 -6.84172e-18 
-3.54765 -2.57874 -9.93402e-18 
-3.32884 -2.58865 -1.34607e-17 
-3.10488 -2.58911 -1.68827e-17 
-2.88397 -2.58628 -2.21368e-17 
-2.67121 -2.58807 -2.65202e-17 
-2.4593 -2.61874 -3.80817e-17 
-2.22248 -2.59465 -3.96809e-17 
-2.0048 -2.59124 -4.64465e-17 
-1.79178 -2.57758 -4.5528e-17 
-1.58243 -2.58157 -4.72806e-17 
-1.38016 -2.56174 -3.71307e-17 
-1.19089 -2.55295 -3.00715e-17 
-0.969154 -2.59713 -2.64668e-17 
-0.765334 -2.5773 -3.11144e-17 
-0.585926 -2.50467 1.01599e-17 
-0.382917 -2.49717 2.81398e-17 
-0.175798 -2.52122 -1.08203e-17 
0.0208642 -2.48261 1.33801e-18 
0.214652 -2.51376 1.25809e-17 
0.414773 -2.49331 -6.36734e-18 
0.614311 -2.52462 -3.40645e-18 
0.827084 -2.54562 8.39058e-18 
1.04335 -2.58359 4.0103e-17 
1.23948 -2.53759 2.38654e-17 
1.452 -2.6156 6.45272e-17 
1.66675 -2.5731 3.94059e-17 
1.88 -2.61575 5.45196e-17 
2.12845 -2.63292 5.30637e-17 
2.35546 -2.56702 2.95782e-17 
2.56988 -2.62407 3.50129e-17 
2.80835 -2.59222 2.44819e-17 
3.02357 -2.58481 1.92401e-17 
3.23124 -2.56572 1.38648e-17 
3.44151 -2.58061 1.19219e-17 
3.64516 -2.55559 7.91675e-18 
3.86018 -2.60273 6.86459e-18 
4.10507 -2.60348 4.92744e-18 
4.3259 -2.56028 2.7031e-18 
4.53632 -2.56734 1.19455e-18 
4.74872 -2.57072 -1.77661e-19 
4.96355 -2.56943 -1.4692e-18 
5.1812 -2.59005 -3.30604e-18 
5.40187 -2.56972 -5.12093e-18 
5.60975 -2.57662 -7.52941e-18 
5.8238 -2.58542 -1.13193e-17 
6.04051 -2.55747 -9.30702e-18 
6.24346 -2.56335 -1.64568e-17 
6.45284 -2.57329 -1.76589e-17 
6.66014 -2.5582 -2.05249e-17 
6.85901 -2.53265 -2.17285e-17 
7.05259 -2.71835 -5.92143e-17 
7.44274 -2.55363 -2.26294e-17 
7.61623 -2.68841 -4.72511e-17 
7.85105 -2.58075 -2.06626e-17 
8.04171 -2.57499 -1.48803e-17 
8.24312 -2.55136 -1.0141e-17 
8.48527 -2.67919 -4.54394e-08 
-8.48526 -2.3842 8.87223e-08 
-8.15738 -2.34431 4.99675e-18 
-7.93834 -2.2166 1.51628e-18 
-7.65691 -2.38879 1.37907e-17 
-7.44091 -2.43152 2.03121e-17 
-7.29212 -2.62282 5.34262e-17 
-7.16674 -2.37925 1.83776e-17 
-6.94297 -2.32883 9.04372e-18 
-6.74021 -2.32915 8.3905e-18 
-6.5588 -2.26347 6.4525e-18 
-6.21759 -2.18289 8.87297e-18 
-6.09728 -2.38925 8.42403e-18 
-5.83452 -2.42874 3.59433e-18 
-5.58987 -2.32721 7.31197e-18 
-5.35689 -2.32689 2.67603e-18 
-5.13813 -2.29777 2.35099e-18 
-4.92406 -2.31552 1.23044e-18 
-4.7148 -2.33772 1.13178e-18 
-4.4911 -2.34682 5.00909e-19 
-4.27162 -2.34169 -5.30321e-19 
-4.0555 -2.32393 -1.84e-18 
-3.8454 -2.31462 -3.32651e-18 
-3.63399 -2.32028 -4.77702e-18 
-3.4215 -2.34144 -6.48088e-18 
-3.2053 -2.35179 -8.38842e-18 
-2.98805 -2.34863 -1.12429e-17 
-2.77503 -2.34205 -1.36057e-17 
-2.56222 -2.36248 -1.69612e-17 
-2.35341 -2.39538 -2.02223e-17 
-2.1215 -2.36076 -2.20999e-17 
-1.90486 -2.34557 -2.42969e-17 
-1.68593 -2.34191 -2.20589e-17 
-1.47096 -2.32548 -1.60484e-17 
-1.25501 -2.27684 -1.02632e-17 
-1.03716 -2.3592 -1.54948e-17 
-0.826705 -2.30627 2.11409e-17 
-0.605865 -2.23082 1.06721e-17 
-0.411233 -2.16308 2.72637e-17 
-0.208198 -2.18427 1.55471e-17 
0.0118964 -2.16669 -6.26274e-18 
0.226383 -2.18613 -5.52664e-17 
0.393371 -2.08089 4.0234e-17 
0.577946 -2.21441 6.39808e-19 
0.784689 -2.27769 -4.12733e-18 
1.01789 -2.32549 1.70162e-18 
1.23598 -2.28888 7.98492e-18 
1.44919 -2.37646 2.0714e-17 
1.65517 -2.33106 2.05119e-17 
1.87158 -2.37372 2.28929e-17 
2.07929 -2.42453 2.46437e-17 
2.29267 -2.3541 2.23067e-17 
2.53932 -2.37126 1.74625e-17 
2.74706 -2.37982 1.354e-17 
2.97935 -2.34001 1.11613e-17 
3.18018 -2.31972 8.65156e-18 
3.39309 -2.33003 6.91015e-18 
3.59366 -2.30067 5.42782e-18 
3.8027 -2.33742 4.46102e-18 
4.00865 -2.37815 3.20801e-18 
4.22595 -2.32999 2.04587e-18 
4.44722 -2.30751 1.07683e-18 
4.65506 -2.31401 2.78483e-19 
4.86615 -2.32145 -4.48129e-19 
5.08751 -2.33544 -1.32812e-18 
5.29683 -2.34116 -2.38169e-18 
5.51848 -2.32328 -3.74373e-18 
5.73206 -2.34357 -5.30086e-18 
5.94455 -2.33666 -5.78539e-18 
6.16751 -2.31128 -6.93584e-18 
6.37821 -2.31927 -6.82771e-18 
6.5794 -2.2989 -5.94448e-18 
6.77933 -2.25317 -6.95319e-18 
7.0192 -2.3745 -8.93576e-18 
7.21556 -2.58718 -2.48701e-17 
7.49967 -2.31802 -1.02063e-17 
7.72035 -2.40734 -7.50895e-18 
7.94763 -2.28617 -1.29754e-18 
8.17364 -2.35489 -6.94347e-19 
8.48527 -2.51738 -4.15509e-08 
-8.48524 -2.16666 1.08644e-07 
-8.26148 -2.13851 -7.87845e-18 
-8.13154 -1.95748 2.70177e-18 
-7.77604 -2.09465 2.58265e-18 
-7.53326 -2.12993 1.01517e-17 
-7.30248 -2.18913 1.12985e-17 
-7.05879 -2.09921 7.38214e-18 
-6.83547 -2.08436 5.49652e-18 
-6.65129 -2.01642 2.95909e-18 
-6.42451 -2.08302 1.73158e-18 
-6.02485 -2.04084 4.91309e-18 
-5.95057 -2.23496 9.1241e-18 
-5.73085 -2.14725 6.12138e-18 
-5.47189 -2.07996 3.26945e-18 
-5.2637 -2.06495 1.55292e-18 
-5.03606 -2.06439 9.81703e-19 
-4.82073 -2.08299 2.73792e-19 
-4.60431 -2.11754 5.72923e-21 
-4.38569 -2.1119 -6.56582e-19 
-4.17391 -2.09394 -1.328e-18 
-3.96304 -2.07257 -1.59299e-18 
-3.75203 -2.07181 -2.33863e-18 
-3.5386 -2.08836 -3.49036e-18 
-3.32774 -2.10853 -4.88158e-18 
-3.11552 -2.11506 -6.59368e-18 
-2.90317 -2.10773 -7.94285e-18 
-2.68595 -2.11237 -9.41697e-18 
-2.47348 -2.13508 -1.17123e-17 
-2.26312 -2.16589 -1.38317e-17 
-2.02657 -2.12062 -1.22741e-17 
-1.79578 -2.10731 -1.2795e-17 
-1.57393 -2.09677 -4.86127e-18 
-1.34776 -2.05907 2.44841e-18 
-1.18529 -1.89662 9.94991e-18 
-1.05779 -2.10864 2.29282e-17 
-0.805765 -2.06086 1.40995e-17 
-0.591449 -1.92476 4.74772e-17 
-0.356822 -1.84801 -2.88147e-17 
-0.125987 -1.87851 -3.67458e-18 
0.0600506 -1.53631 3.26591e-18 
0.111307 -1.8493 -9.73841e-18 
0.315415 -1.74068 -2.54178e-17 
0.562847 -1.85057 -1.55665e-17 
0.758219 -1.95474 -1.94796e-17 
0.96018 -2.0926 4.72874e-19 
1.19494 -2.0407 -3.93676e-18 
1.4324 -2.11715 2.61641e-18 
1.65493 -2.09198 8.26823e-18 
1.87734 -2.13451 1.2248e-17 
2.09442 -2.17995 1.52112e-17 
2.35646 -2.15473 1.50209e-17 
2.57558 -2.12615 1.12535e-17 
2.79735 -2.15176 1.0314e-17 
2.99465 -2.08067 6.5163e-18 
3.21308 -2.08841 5.17247e-18 
3.41276 -2.07811 3.8539e-18 
3.62673 -2.06687 3.26265e-18 
3.83783 -2.09716 2.82429e-18 
4.04582 -2.12817 2.1195e-18 
4.27082 -2.0883 1.31715e-18 
4.4842 -2.05865 6.65066e-19 
4.69808 -2.06983 1.5536e-19 
4.92089 -2.09153 -4.19429e-19 
5.13323 -2.08812 -1.06427e-18 
5.34875 -2.105 -1.79922e-18 
5.57434 -2.09073 -1.94404e-18 
5.7885 -2.10674 -3.19698e-18 
6.00829 -2.10477 -3.31601e-18 
6.23571 -2.07631 -3.50179e-18 
6.43497 -2.05569 -3.73101e-18 
6.63738 -2.02407 -4.16273e-18 
6.92134 -2.09534 -3.98053e-18 
7.14524 -2.11002 -5.25328e-18 
7.25552 -2.31086 -8.97573e-18 
7.44685 -2.07928 -1.85324e-18 
7.70584 -2.14426 -4.16352e-18 
7.98831 -2.06943 6.25517e-19 
8.25613 -2.15593 2.79559e-18 
8.48526 -2.3363 -9.42093e-08 
-8.48524 -1.44774 6.89449e-08 
-8.38689 -1.80982 -2.77848e-18 
-7.96895 -1.83941 -1.73667e-18 
-7.68078 -1.88721 2.6357e-18 
[...]
POINT_DATA 1978 
VECTORS vectors float
0.0065217 -0.0166819 0.999837 
0.00947767 -0.0458524 0.998904 
0.00933593 -0.0584409 0.998251 
0.00792425 -0.0871359 0.996154 
0.00854581 -0.131207 0.991313 
0.00953164 -0.132486 0.991142 
0.00928854 -0.115839 0.993227 
0.00839534 -0.0960313 0.995344 
0.00789415 -0.0735079 0.997264 
0.00859193 -0.0580558 0.998275 
0.00922588 -0.0455997 0.998918 
0.0123996 -0.0338827 0.999353 
0.0135812 -0.031293 0.999423 
0.011484 -0.0328086 0.9994 
0.0104421 -0.0320239 0.999436 
0.0102985 -0.0277492 0.999565 
0.0103376 -0.0200244 0.999749 
0.0103201 -0.0108613 0.999891 
0.0105565 -0.00170394 0.999946 
0.0106574 0.00572341 0.99993 
0.0104993 0.012583 0.999869 
0.0106256 0.0188085 0.99977 
0.0109999 0.0262474 0.999599 
0.011225 0.0358058 0.9993 
0.0109853 0.047437 0.998818 
0.0106437 0.06258 0.997987 
0.0106551 0.0819195 0.996586 
0.0105146 0.110304 0.993846 
0.00935432 0.144849 0.989412 
0.00852416 0.19055 0.981643 
0.00759377 0.246251 0.969178 
0.00670336 0.312454 0.949911 
0.00575795 0.393422 0.919341 
0.00485159 0.484197 0.874946 
0.00413019 0.58567 0.81054 
0.00310198 0.707187 0.70702 
0.00185437 0.824098 0.566445 
0.00111602 0.905477 0.424393 
0.000557601 0.97641 0.215929 
2.64956e-05 0.999793 -0.0203639 
-0.000493771 0.973041 -0.23063 
-0.00103475 0.906795 -0.421572 
-0.00196504 0.813147 -0.582055 
-0.00283492 0.708055 -0.706152 
-0.00387506 0.598234 -0.801312 
-0.00477689 0.487855 -0.872913 
-0.00601267 0.405747 -0.913967 
-0.00683273 0.317196 -0.948337 
-0.00813631 0.253617 -0.967272 
-0.00977438 0.193364 -0.981081 
-0.00984943 0.141701 -0.989863 
-0.0104165 0.112578 -0.993591 
-0.0114213 0.0821662 -0.996557 
-0.0106402 0.0616001 -0.998048 
-0.0101631 0.0455916 -0.998912 
-0.010272 0.0333456 -0.999394 
-0.0103017 0.0234662 -0.999675 
-0.0112079 0.0169647 -0.999797 
-0.0124557 0.0123793 -0.999851 
-0.0115767 0.00926483 -0.999894 
-0.0104275 0.00615157 -0.99993 
-0.0103866 0.00210244 -0.999947 
-0.0105758 -0.00234314 -0.999945 
-0.0108077 -0.00644272 -0.999924 
-0.010702 -0.00999872 -0.999896 
-0.0101881 -0.0141456 -0.999851 
-0.0100936 -0.0213595 -0.999724 
-0.00998585 -0.0310623 -0.99947 
-0.00932303 -0.0444843 -0.998969 
-0.00947177 -0.0586368 -0.998237 
-0.00964036 -0.0705785 -0.997462 
-0.00933377 -0.080574 -0.996708 
-0.00849522 -0.0850289 -0.99634 
-0.00675825 -0.0771464 -0.996981 
-0.00971667 -0.0654342 -0.997812 
-0.00873432 -0.0609915 -0.998102 
-0.00822633 -0.0595546 -0.998191 
-0.00883249 -0.0528444 -0.998563 
-0.00868419 -0.0211144 -0.999734 
0.00431897 -0.0133014 0.999901 
0.0312031 -0.0560001 0.997943 
0.039546 -0.0715543 0.996652 
0.0514783 -0.0878853 0.9948 
0.0427134 -0.101829 0.993883 
0.0608763 -0.120218 0.990879 
0.0590629 -0.110378 0.992133 
0.0629508 -0.0913212 0.99383 
0.0669793 -0.0756634 0.994881 
0.0789387 -0.0656393 0.994716 
0.0578343 -0.0546492 0.996829 
0.0571762 -0.0374484 0.997661 
0.0616411 -0.0313457 0.997605 
0.0626944 -0.0293817 0.9976 
0.0634364 -0.0274151 0.997609 
0.0630884 -0.0239968 0.997719 
0.0611611 -0.0183682 0.997959 
0.0604293 -0.0105336 0.998117 
0.0590315 -0.002366 0.998253 
0.0588111 0.00542867 0.998254 
0.0592548 0.0126045 0.998163 
0.0588114 0.0195045 0.998079 
0.0569897 0.026995 0.99801 
0.0550415 0.0364803 0.997817 
0.05383 0.0488018 0.997357 
0.0526176 0.0641108 0.996555 
0.0503973 0.0831766 0.99526 
0.0452659 0.107833 0.993138 
0.0425243 0.145686 0.988417 
0.0378859 0.191458 0.98077 
0.033142 0.251119 0.96739 
0.0277005 0.322827 0.946054 
0.0226684 0.406626 0.913315 
0.0177255 0.497862 0.867077 
0.0122332 0.619223 0.785122 
0.00794068 0.736389 0.676512 
0.00501066 0.829344 0.558719 
0.00245488 0.919694 0.39263 
0.000688805 0.981267 0.19265 
-0.00119695 0.999946 -0.0103009 
-0.00246074 0.975563 -0.219706 
-0.00509952 0.905611 -0.424078 
-0.00746871 0.807358 -0.590018 
-0.0107534 0.688839 -0.724836 
-0.0151453 0.566657 -0.823815 
-0.0201448 0.464106 -0.885553 
-0.0246171 0.369948 -0.928727 
-0.0305961 0.291178 -0.956181 
-0.0345902 0.225071 -0.973729 
-0.0388677 0.16642 -0.985289 
-0.0464193 0.127411 -0.990764 
-0.0454851 0.0977698 -0.994169 
-0.0508944 0.072688 -0.996055 
-0.0535869 0.0549157 -0.997052 
-0.0565191 0.0414046 -0.997543 
-0.0568224 0.0303278 -0.997923 
-0.0597318 0.0224372 -0.997962 
-0.0565014 0.01597 -0.998274 
-0.0569105 0.0110628 -0.998318 
-0.0616997 0.00744929 -0.998067 
-0.0611987 0.00390385 -0.998118 
-0.0611435 -3.61142e-05 -0.998129 
-0.0614014 -0.00422099 -0.998104 
-0.0593378 -0.00853808 -0.998201 
-0.0611806 -0.0134664 -0.998036 
-0.0599159 -0.0200033 -0.998003 
-0.0596334 -0.0294793 -0.997785 
-0.0597156 -0.0416678 -0.997345 
-0.0611512 -0.0538702 -0.996674 
-0.059435 -0.0656537 -0.996071 
-0.0601929 -0.0735969 -0.99547 
-0.0625521 -0.0769516 -0.995071 
-0.0419087 -0.0817825 -0.995767 
-0.0547293 -0.0766593 -0.995554 
-0.0436678 -0.072505 -0.996411 
-0.0452421 -0.0706085 -0.996477 
-0.040973 -0.0668278 -0.996922 
-0.0324629 -0.0583862 -0.997766 
-0.00984522 -0.0104453 -0.999893 
0.0044271 -0.0141801 0.999891 
0.0417318 -0.0733086 0.996436 
0.0538692 -0.0908109 0.99441 
0.0639864 -0.100032 0.992925 
0.0696104 -0.108345 0.991673 
0.0564663 -0.117758 0.991435 
0.0765651 -0.112113 0.990741 
0.0788932 -0.107093 0.991114 
0.0783973 -0.097343 0.992158 
0.0815145 -0.0829288 0.993216 
0.0811293 -0.0524029 0.995325 
0.0745318 -0.0478312 0.996071 
0.0723825 -0.0342979 0.996787 
0.078206 -0.0276546 0.996554 
0.0772374 -0.0248982 0.996702 
0.0777672 -0.0209554 0.996751 
0.0770232 -0.0166626 0.99689 
0.0759409 -0.0109454 0.997052 
0.0744968 -0.00371953 0.997214 
0.0736124 0.00355281 0.997281 
0.073071 0.0106157 0.99727 
0.0721645 0.0175912 0.997238 
0.0708095 0.0251058 0.997174 
0.0688544 0.0337815 0.997055 
0.0669377 0.0447448 0.996754 
0.0650125 0.0585981 0.996163 
0.0622711 0.0760822 0.995156 
0.0582249 0.098401 0.993442 
0.0531127 0.127014 0.990478 
0.0474075 0.170091 0.984288 
0.0409421 0.222178 0.974147 
0.0336862 0.289737 0.956515 
0.0262791 0.371206 0.92818 
0.0188615 0.467745 0.883664 
0.0136479 0.573971 0.818763 
0.00807306 0.6908 0.723003 
0.00363299 0.818331 0.574735 
0.00168689 0.913337 0.407199 
0.000855105 0.975225 0.221216 
8.22378e-05 0.999958 -0.00914917 
-0.00229133 0.96778 -0.251787 
-0.00288447 0.907337 -0.420395 
-0.00629428 0.812693 -0.582661 
-0.00967096 0.698419 -0.715626 
-0.0144245 0.577181 -0.816492 
-0.0200437 0.471259 -0.881768 
-0.0271586 0.374873 -0.92668 
-0.0336498 0.298645 -0.953772 
-0.0402005 0.232319 -0.971809 
-0.0457453 0.179171 -0.982755 
-0.0525472 0.139443 -0.988835 
-0.0571473 0.103369 -0.993001 
-0.0605656 0.0802692 -0.994932 
-0.0647414 0.060333 -0.996077 
-0.0674544 0.0465566 -0.996636 
-0.0692406 0.0348252 -0.996992 
-0.0713741 0.0263474 -0.997102 
-0.0721411 0.0191129 -0.997212 
-0.0719863 0.0137325 -0.997311 
-0.0744591 0.00958341 -0.997178 
-0.0754947 0.00556991 -0.997131 
-0.0756664 0.00184146 -0.997132 
-0.075785 -0.00203275 -0.997122 
-0.0755957 -0.00628611 -0.997119 
-0.0754937 -0.0107413 -0.997089 
-0.0757631 -0.016518 -0.996989 
-0.0749012 -0.023806 -0.996907 
-0.0746127 -0.0336163 -0.996646 
-0.0749951 -0.0440925 -0.996209 
-0.0742588 -0.0551432 -0.995713 
-0.0734684 -0.0640061 -0.995242 
-0.0731738 -0.0695726 -0.99489 
-0.0681413 -0.076731 -0.994721 
-0.0547115 -0.0788932 -0.99538 
-0.0616418 -0.0793958 -0.994936 
-0.0536237 -0.0766703 -0.995614 
-0.0461728 -0.0768588 -0.995973 
-0.0350401 -0.0642217 -0.99732 
-0.00700539 -0.0122448 -0.999898 
0.00237805 -0.0133329 0.999902 
0.0301218 -0.0657984 0.997377 
0.0448053 -0.0862029 0.99527 
0.0635052 -0.101591 0.992798 
0.0728705 -0.105517 0.991745 
0.0792385 -0.108264 0.990959 
0.0811309 -0.101896 0.991482 
0.081912 -0.0931549 0.992277 
0.0808112 -0.0800302 0.993512 
0.0815282 -0.0678683 0.994358 
0.0794292 -0.0412348 0.995988 
0.0800776 -0.0385349 0.996043 
0.0795986 -0.0299793 0.996377 
0.077392 -0.0228114 0.99674 
0.0774701 -0.019288 0.996808 
0.0767093 -0.0148203 0.996944 
0.0764334 -0.0103467 0.997021 
0.0763477 -0.0050405 0.997069 
0.0750232 0.00139498 0.997181 
0.0733243 0.00801078 0.997276 
0.0713433 0.0149866 0.99734 
0.0699017 0.0223205 0.997304 
0.0688546 0.0306069 0.997157 
0.0676157 0.0401678 0.996903 
0.0655837 0.0521296 0.996485 
0.0626165 0.067611 0.995745 
0.0589243 0.0880113 0.994376 
0.0548768 0.113637 0.992006 
0.0500189 0.14676 0.987907 
0.0421526 0.197536 0.97939 
0.0344494 0.260007 0.964993 
0.0263508 0.337943 0.940799 
0.0184279 0.432893 0.901259 
0.0116246 0.515414 0.856865 
0.0106731 0.571094 0.820818 
0.00518649 0.70933 0.704859 
0.00338317 0.821484 0.570225 
0.00364567 0.926103 0.377254 
0.00291678 0.989027 0.1477 
0.00203098 0.998479 -0.0550881 
0.00193031 0.989964 -0.141303 
0.00174238 0.938093 -0.346379 
-0.000854853 0.839412 -0.543497 
-0.00432899 0.724933 -0.688808 
-0.0098511 0.611342 -0.791306 
-0.0146825 0.502026 -0.864731 
-0.0234143 0.387772 -0.92146 
-0.029902 0.307667 -0.951025 
-0.0379716 0.236505 -0.970889 
-0.0453567 0.180857 -0.982465 
-0.0524384 0.13105 -0.989989 
-0.0569126 0.101341 -0.993223 
-0.0618608 0.0776019 -0.995064 
-0.0630404 0.0616111 -0.996108 
-0.0659807 0.0469343 -0.996717 
-0.0678685 0.0362946 -0.997034 
-0.0698128 0.0271879 -0.99719 
-0.0720338 0.019824 -0.997205 
-0.0735288 0.0141226 -0.997194 
-0.0740957 0.00935039 -0.997208 
-0.0740654 0.00525409 -0.99724 
-0.0747908 0.00131128 -0.997199 
-0.0755651 -0.00276184 -0.997137 
-0.0756255 -0.00679873 -0.997113 
-0.075945 -0.0115106 -0.997046 
-0.0756436 -0.0175313 -0.996981 
-0.0757857 -0.0246752 -0.996819 
-0.0757441 -0.0333829 -0.996569 
-0.0750402 -0.0430798 -0.99625 
-0.0740163 -0.0517445 -0.995914 
-0.0725366 -0.0598426 -0.995569 
-0.0715152 -0.0721003 -0.994831 
-0.0688063 -0.0780944 -0.994569 
-0.0664474 -0.0788348 -0.994671 
-0.0614446 -0.0832116 -0.994637 
-0.0552858 -0.0832626 -0.994993 
-0.044627 -0.0838004 -0.995483 
-0.0297179 -0.0641689 -0.997496 
-0.00412495 -0.0122302 -0.99992 
0.00275752 -0.0147994 0.999875 
0.022535 -0.0571852 0.998104 
0.0551416 -0.100616 0.993396 
0.0673385 -0.107425 0.99193 
0.0719569 -0.10788 0.991557 
0.0770516 -0.106152 0.99136 
0.0768792 -0.0999019 0.992023 
0.077404 -0.0897438 0.992953 
0.0754177 -0.0754063 0.994297 
0.0768848 -0.0633278 0.995027 
0.0771054 -0.0513867 0.995698 
0.0718221 -0.0377957 0.996701 
0.0758268 -0.0321177 0.996604 
0.0737985 -0.0246404 0.996969 
0.069191 -0.0176715 0.997447 
0.070314 -0.0141829 0.997424 
0.0693826 -0.00962938 0.997544 
0.0702882 -0.00512585 0.997514 
0.0696696 5.39873e-05 0.99757 
0.0675774 0.00613755 0.997695 
0.0653093 0.0126421 0.997785 
0.0632725 0.0198404 0.997799 
0.0624115 0.0276974 0.997666 
0.0614305 0.0365705 0.997442 
0.0602327 0.046931 0.997081 
0.0580395 0.0600878 0.996505 
0.055008 0.0774759 0.995476 
0.0512047 0.10007 0.993663 
0.0472901 0.12839 0.990596 
0.0426003 0.165821 0.985236 
0.0341403 0.224519 0.973873 
0.0261697 0.296585 0.954649 
0.0188593 0.383416 0.923385 
0.0120723 0.480397 0.876969 
0.00632724 0.652404 0.757847 
0.00509131 0.770022 0.637998 
0.00424951 0.884958 0.465653 
0.00355168 0.948101 0.317948 
0.00229359 0.980259 0.197706 
0.00239772 0.998283 0.0584913 
0.000847727 0.982066 -0.188537 
0.000987357 0.936659 -0.350243 
-0.00115066 0.831886 -0.554946 
-0.00358632 0.716226 -0.697861 
-0.00753475 0.595883 -0.803037 
-0.00955253 0.520715 -0.85368 
-0.0165354 0.43048 -0.90245 
-0.0218375 0.344425 -0.938562 
-0.0298523 0.263169 -0.964289 
-0.0376082 0.201817 -0.978702 
-0.0445643 0.155474 -0.986835 
-0.0488463 0.118612 -0.991739 
-0.0543046 0.0877204 -0.994665 
-0.0549617 0.0720267 -0.995887 
-0.0585019 0.0547041 -0.996788 
-0.0598966 0.0422853 -0.997309 
-0.0619295 0.0323948 -0.997555 
-0.0641637 0.0237508 -0.997657 
-0.0662065 0.0171668 -0.997659 
-0.0674762 0.0120728 -0.997648 
-0.0665147 0.0073753 -0.997759 
-0.0672386 0.00298401 -0.997733 
-0.0687029 -0.00115663 -0.997637 
-0.0686434 -0.00507681 -0.997629 
-0.0690829 -0.00939569 -0.997567 
-0.0696298 -0.0142757 -0.997471 
-0.0693366 -0.0205991 -0.997381 
-0.0700699 -0.02764 -0.997159 
-0.0698594 -0.0357827 -0.996915 
-0.0675098 -0.0439411 -0.996751 
-0.0659645 -0.0526854 -0.99643 
-0.0679947 -0.0653478 -0.995544 
-0.0655071 -0.075915 -0.994961 
-0.0624056 -0.084078 -0.994503 
-0.05312 -0.0925054 -0.994295 
-0.0515852 -0.0899012 -0.994614 
-0.0402812 -0.088357 -0.995274 
-0.0294944 -0.0717529 -0.996986 
-0.00214438 -0.0139474 -0.999889 
0.00620936 -0.0153184 0.999865 
0.0396597 -0.0814279 0.995889 
0.0407642 -0.0847056 0.995572 
0.0619337 -0.111015 0.991887 
0.066448 -0.110651 0.991636 
0.0700275 -0.10157 0.992362 
0.0703286 -0.0910024 0.993365 
0.0690704 -0.0788976 0.994487 
0.068229 -0.0628798 0.995687 
0.0684853 -0.0518372 0.996305 
0.0668056 -0.0424174 0.996864 
0.0619332 -0.0297952 0.997636 
0.0653477 -0.02536 0.99754 
0.0627817 -0.0191593 0.997844 
0.0582824 -0.0128617 0.998218 
0.0596575 -0.00931008 0.998176 
0.0603633 -0.00468599 0.998166 
0.0595752 0.000201259 0.998224 
0.0581473 0.00548581 0.998293 
0.0557928 0.0115869 0.998375 
0.0540013 0.0183561 0.998372 
0.0528901 0.0262166 0.998256 
0.052004 0.0348811 0.998038 
0.0510818 0.0450056 0.99768 
0.0497193 0.0571855 0.997125 
0.0476718 0.07293 0.996198 
0.0445874 0.0938389 0.994589 
0.0408579 0.121759 0.991719 
0.0371686 0.157484 0.986823 
0.0320521 0.204971 0.978245 
0.0233295 0.282682 0.958932 
0.0160819 0.375808 0.926561 
0.0103139 0.502237 0.86467 
0.00749968 0.614855 0.788607 
0.00758127 0.611157 0.791476 
0.00591189 0.726934 0.686684 
0.00471175 0.842895 0.538058 
0.00406016 0.936857 0.349677 
0.00293451 0.996723 0.0808276 
-0.00188796 0.998897 -0.0469044 
-0.00170937 0.979387 -0.201981 
-0.00488074 0.985206 -0.171307 
-0.00118375 0.908654 -0.417551 
-0.00148268 0.822021 -0.569459 
-0.0042999 0.668508 -0.743696 
-0.00624421 0.537401 -0.843305 
-0.0129216 0.410578 -0.911737 
-0.0197897 0.315 -0.948887 
-0.0269704 0.241593 -0.970004 
-0.0336383 0.186866 -0.981811 
-0.0392111 0.145629 -0.988563 
-0.0449381 0.106483 -0.993299 
-0.0438039 0.0868007 -0.995263 
-0.0483215 0.0665788 -0.996611 
-0.0497405 0.0522149 -0.997397 
-0.0505604 0.0407807 -0.997888 
-0.0534616 0.0307209 -0.998098 
-0.0546622 0.0229876 -0.998241 
-0.0557111 0.016812 -0.998306 
-0.057366 0.0114292 -0.998288 
-0.056406 0.00630241 -0.998388 
-0.0577853 0.00167373 -0.998328 
-0.0582368 -0.00228121 -0.998301 
-0.0586728 -0.00635861 -0.998257 
-0.0587863 -0.0105145 -0.998216 
-0.0602995 -0.015411 -0.998062 
-0.0595809 -0.0211796 -0.997999 
-0.0605996 -0.0279051 -0.997772 
-0.0596725 -0.0351276 -0.9976 
-0.0564366 -0.0432406 -0.99747 
-0.0590523 -0.0561305 -0.996676 
-0.0610397 -0.0684432 -0.995786 
-0.0585987 -0.0794904 -0.995112 
-0.0585226 -0.0866419 -0.99452 
-0.0523429 -0.0954734 -0.994055 
-0.0428128 -0.096223 -0.994439 
-0.0295232 -0.0789566 -0.996441 
-0.0168349 -0.0563699 -0.998261 
-0.00193497 -0.0145008 -0.999878 
0.00707944 -0.0145866 0.999866 
0.037492 -0.0801836 0.996073 
0.0538478 -0.105084 0.993004 
0.0597314 -0.113107 0.991786 
0.0646454 -0.107591 0.992091 
0.060722 -0.100255 0.993107 
0.0630754 -0.0920919 0.993751 
0.0588709 -0.0769297 0.995298 
0.0598271 -0.0645572 0.996119 
0.0566594 -0.0502358 0.997129 
0.0528859 -0.0401542 0.997794 
0.0549121 -0.0331686 0.99794 
0.0491377 -0.0241739 0.9985 
0.0515016 -0.0196613 0.99848 
0.0510615 -0.0147375 0.998587 
0.0458472 -0.00936047 0.998905 
0.0489379 -0.00560755 0.998786 
0.0479266 -0.000995695 0.998851 
0.0462412 0.00394318 0.998923 
0.045037 0.00927855 0.998943 
0.0433713 0.0155581 0.998938 
0.042541 0.0227257 0.998837 
0.0413453 0.0307756 0.998671 
0.0406978 0.0398898 0.998375 
0.0398636 0.0506281 0.997922 
0.03891 0.0639747 0.997193 
0.0372297 0.0812317 0.996 
0.0346901 0.104396 0.993931 
0.0314201 0.135357 0.9903 
0.0282147 0.175981 0.98399 
0.0239964 0.233564 0.972047 
0.0164948 0.324482 0.94575 
0.0117213 0.4268 0.904271 
0.00834134 0.5352 0.844687 
0.00591749 0.747223 0.664547 
0.00401022 0.855876 0.517167 
0.00502163 0.922885 0.385041 
0.00613856 0.954291 0.298817 
0.00285047 0.9758 0.218618 
0.00278124 0.993754 0.111551 
-0.00253676 0.998752 -0.0498611 
-0.00720173 0.916189 -0.400695 
-0.00575438 0.926443 -0.376395 
-0.000806821 0.826891 -0.562364 
-0.00114534 0.718633 -0.695387 
-0.00285644 0.587446 -0.809262 
-0.00820844 0.441269 -0.89734 
-0.0134756 0.342563 -0.9394 
-0.0196224 0.260138 -0.965374 
-0.0253732 0.199302 -0.979611 
-0.030115 0.154604 -0.987518 
-0.0357976 0.120828 -0.992029 
-0.0331684 0.101809 -0.994251 
-0.0369815 0.0779056 -0.996275 
-0.0390119 0.0618481 -0.997323 
-0.0393096 0.0487052 -0.99804 
-0.0414518 0.0371255 -0.998451 
-0.0426042 0.0284652 -0.998687 
-0.0432383 0.0211591 -0.998841 
-0.0444274 0.014797 -0.998903 
-0.0458738 0.00942904 -0.998903 
-0.0458717 0.00390043 -0.99894 
-0.0457639 -0.000465947 -0.998953 
-0.0468292 -0.00460357 -0.998893 
-0.0466538 -0.00864882 -0.998874 
-0.0478964 -0.0130132 -0.998768 
-0.0484708 -0.0176594 -0.998669 
-0.0484676 -0.0237104 -0.998544 
-0.0479552 -0.030254 -0.998392 
-0.0462037 -0.0378715 -0.998214 
-0.0491392 -0.0506848 -0.997506 
-0.0524207 -0.0649944 -0.996508 
-0.0518019 -0.0778681 -0.995617 
-0.0518675 -0.0900362 -0.994587 
-0.0462547 -0.0997234 -0.99394 
-0.0469734 -0.101046 -0.993772 
-0.0421742 -0.102789 -0.993809 
-0.0344829 -0.0881997 -0.995506 
-0.00450077 -0.0147428 -0.999886 
0.0088702 -0.0131322 0.99987 
0.0399749 -0.0926218 0.994898 
0.053782 -0.110537 0.992416 
0.0535523 -0.114045 0.992031 
0.0581352 -0.11047 0.992178 
0.0531103 -0.0967874 0.993888 
0.0519488 -0.0816828 0.995304 
0.0454102 -0.0657455 0.996803 
0.0483531 -0.0574597 0.997177 
0.042526 -0.0459692 0.998038 
0.0408311 -0.035612 0.998531 
0.0414273 -0.0277411 0.998757 
0.0365476 -0.0204274 0.999123 
0.039399 -0.0162258 0.999092 
0.0387883 -0.0120209 0.999176 
0.0348118 -0.00691309 0.999371 
0.0366333 -0.00302687 0.999324 
0.0351075 0.00163161 0.999383 
0.0335784 0.00685156 0.999413 
0.0330424 0.0126427 0.999374 
0.0322046 0.0195531 0.99929 
0.0312825 0.0271932 0.999141 
0.0304231 0.0359789 0.99889 
0.0298536 0.0460428 0.998494 
0.0294006 0.0584094 0.99786 
0.0285687 0.0740287 0.996847 
0.0272139 0.0945043 0.995153 
0.0248784 0.122229 0.992191 
0.0223256 0.161473 0.986626 
0.0198219 0.214216 0.976587 
0.0161041 0.284672 0.958492 
0.0111078 0.392676 0.919613 
0.00833608 0.502709 0.864417 
0.005614 0.635505 0.772078 
0.00661406 0.655641 0.755045 
0.00713869 0.861546 0.507614 
0.00943749 0.921098 0.389203 
0.00271097 0.997313 0.0732004 
0.00235409 0.999567 0.0293374 
0.000265987 0.999952 -0.00942056 
-0.000509983 0.999376 -0.035282 
-0.00267129 0.999029 -0.04409 
-0.00699676 0.82874 -0.559611 
-0.00394274 0.797768 -0.602951 
-0.000801919 0.685437 -0.728133 
-0.00257982 0.582402 -0.812898 
-0.00473954 0.495129 -0.868808 
-0.00787504 0.388235 -0.921529 
-0.0125482 0.298084 -0.954459 
-0.017191 0.225571 -0.974077 
-0.0210563 0.172379 -0.984807 
-0.0254233 0.130771 -0.991088 
-0.0265887 0.0930072 -0.995311 
-0.028027 0.0734034 -0.996909 
-0.029473 0.0580266 -0.99788 
-0.0304981 0.0445594 -0.998541 
-0.0309515 0.0348366 -0.998914 
-0.031765 0.0266039 -0.999142 
-0.032551 0.0193367 -0.999283 
-0.0331404 0.0131127 -0.999365 
-0.0357108 0.00741238 -0.999335 
-0.0340185 0.00240941 -0.999419 
-0.034724 -0.00215946 -0.999395 
-0.0350828 -0.00620422 -0.999365 
-0.0356799 -0.0103435 -0.99931 
-0.0357582 -0.0142956 -0.999259 
-0.0372862 -0.0189477 -0.999125 
-0.0362988 -0.0243593 -0.999044 
-0.0355092 -0.0308329 -0.998894 
-0.0381913 -0.0417387 -0.998399 
-0.0392055 -0.0529034 -0.99783 
-0.0438573 -0.0646855 -0.996942 
-0.042292 -0.0757762 -0.996228 
-0.0463415 -0.0881299 -0.995031 
-0.0414925 -0.0962046 -0.994497 
-0.0420681 -0.104977 -0.993585 
-0.0383532 -0.102636 -0.993979 
-0.0274969 -0.0757079 -0.996749 
-0.00558688 -0.0136967 -0.999889 
0.0092803 -0.0128702 0.99987 
0.0349565 -0.088976 0.995419 
0.0485698 -0.105485 0.993234 
0.0478012 -0.112203 0.992535 
0.0522256 -0.106446 0.992946 
0.0434004 -0.0961698 0.994419 
0.0440238 -0.0835426 0.995531 
0.0370591 -0.0670784 0.99706 
0.0338993 -0.0512526 0.998111 