# vtk DataFile Version 3.0 
Exported using Morpho https://github.com/Morpho-lang/morpho 
ASCII 
DATASET UNSTRUCTURED_GRID 

POINTS 1978 float 
-12 -4 -1.60705e-13 
-11.6809 -4 1.36043e-12 
-11.3529 -4 1.44787e-12 
-11.019 -4 1.31818e-12 
-10.6873 -4 1.18452e-12 
-10.289 -4 8.89169e-13 
-9.97139 -4 4.37518e-13 
-9.68155 -4 2.54593e-13 
-9.36829 -4 1.23072e-13 
-9.05148 -4 4.93585e-14 
-8.69065 -4 4.47532e-14 
-8.31218 -4 5.82365e-14 
-7.99282 -4 4.1419e-14 
-7.72307 -4 4.11333e-15 
-7.47874 -4 -5.28287e-14 
-7.2022 -4 -1.33557e-13 
-6.90591 -4 -2.10868e-13 
-6.60389 -4 -2.52186e-13 
-6.29504 -4 -3.0358e-13 
-5.97784 -4 -3.43602e-13 
-5.67017 -4 -4.01952e-13 
-5.36549 -4 -4.79415e-13 
-5.06883 -4 -5.72313e-13 
-4.77831 -4 -7.83405e-13 
-4.45268 -4 -9.52496e-13 
-4.14643 -4 -1.15188e-12 
-3.81467 -4 -1.49703e-12 
-3.49127 -4 -1.79792e-12 
-3.17564 -4 -2.05766e-12 
-2.8811 -4 -2.27264e-12 
-2.5918 -4 -2.671e-12 
-2.30986 -4 -3.044e-12 
-2.03108 -4 -3.31331e-12 
-1.75544 -4 -3.42664e-12 
-1.48197 -4 -3.29147e-12 
-1.19534 -4 -2.77528e-12 
-0.913504 -4 -2.33437e-12 
-0.59953 -4 -1.70412e-12 
-0.287004 -4 1.30098e-12 
0.0330629 -4 2.74068e-12 
0.318109 -4 -2.84591e-12 
0.600013 -4 1.24294e-12 
0.883824 -4 1.09458e-12 
1.1547 -4 1.89396e-12 
1.42116 -4 2.88877e-12 
1.69269 -4 3.38489e-12 
1.97101 -4 3.6508e-12 
2.26701 -4 3.95397e-12 
2.59586 -4 3.31933e-12 
2.90715 -4 2.87476e-12 
3.25401 -4 2.10338e-12 
3.54218 -4 1.51764e-12 
3.84499 -4 1.36639e-12 
4.16344 -4 1.08511e-12 
4.46055 -4 8.48729e-13 
4.75877 -4 7.57088e-13 
5.07695 -4 6.57e-13 
5.39074 -4 5.5475e-13 
5.70678 -4 4.39563e-13 
5.99898 -4 3.41214e-13 
6.29119 -4 2.70126e-13 
6.57921 -4 2.1465e-13 
6.88085 -4 1.51696e-13 
7.15282 -4 1.27832e-13 
7.4773 -4 1.19882e-13 
7.78546 -4 9.44769e-14 
8.09615 -4 6.82101e-14 
8.38418 -4 1.63571e-14 
8.63725 -4 -3.86242e-14 
8.91885 -4 -1.34771e-13 
9.27105 -4 -2.59401e-13 
9.60719 -4 -3.27969e-13 
9.88267 -4 -5.52928e-13 
10.2506 -4 -8.00982e-13 
10.5716 -4 -1.46998e-12 
11.0441 -4 -1.66089e-12 
11.3594 -4 -1.4106e-12 
11.6824 -4 -1.3834e-12 
12 -4 1.822e-13 
-12 -3.71158 -1.94738e-13 
-11.6493 -3.67537 2.98143e-14 
-11.3334 -3.64538 3.1651e-14 
-11.0235 -3.66472 3.0943e-14 
-10.6999 -3.66271 2.57188e-14 
-10.3683 -3.7134 2.40431e-14 
-10.0142 -3.65719 1.48495e-14 
-9.69843 -3.63357 9.61523e-15 
-9.3987 -3.65501 6.80234e-15 
-9.0804 -3.65061 3.51657e-15 
-8.76207 -3.68407 -4.29455e-14 
-8.40895 -3.70387 -2.07465e-14 
-8.06518 -3.66824 5.31432e-15 
-7.75933 -3.62967 2.18519e-14 
-7.48394 -3.61028 4.03955e-14 
-7.21654 -3.65619 -3.04169e-15 
-6.91418 -3.66425 -4.33317e-15 
-6.60433 -3.66751 -5.35363e-15 
-6.28458 -3.66996 -7.68063e-15 
-5.97029 -3.66055 -8.88238e-15 
-5.66076 -3.65823 -1.0523e-14 
-5.3602 -3.65107 -1.22447e-14 
-5.06691 -3.64663 -1.44732e-14 
-4.74827 -3.6822 -1.95372e-14 
-4.44862 -3.66227 -2.33951e-14 
-4.14833 -3.66316 -2.67987e-14 
-3.8463 -3.68955 -3.58138e-14 
-3.52524 -3.68602 -4.75427e-14 
-3.21172 -3.68174 -5.78479e-14 
-2.90043 -3.65901 -6.56776e-14 
-2.60956 -3.66162 -8.17712e-14 
-2.32053 -3.66346 -9.71368e-14 
-2.02773 -3.66733 -1.05051e-13 
-1.73972 -3.66362 -1.13907e-13 
-1.45686 -3.66378 -9.90561e-14 
-1.17294 -3.64201 -6.78454e-14 
-0.863576 -3.65113 -1.60518e-14 
-0.573971 -3.62592 2.4966e-14 
-0.26943 -3.63221 6.75985e-14 
0.0343699 -3.60726 -3.90998e-14 
0.312012 -3.54886 -1.16817e-13 
0.592869 -3.62951 5.79001e-14 
0.888199 -3.63311 -5.29859e-14 
1.17036 -3.62931 6.83634e-14 
1.46883 -3.65199 9.40658e-14 
1.76123 -3.65864 1.10272e-13 
2.05935 -3.6799 1.10898e-13 
2.38557 -3.71687 1.12091e-13 
2.70901 -3.68879 7.91845e-14 
3.03852 -3.71529 7.21227e-14 
3.34444 -3.65268 4.78213e-14 
3.64016 -3.66565 4.00837e-14 
3.94895 -3.68026 3.37955e-14 
4.24841 -3.65506 2.56642e-14 
4.54283 -3.65329 2.10375e-14 
4.84998 -3.67203 1.83344e-14 
5.16076 -3.66685 1.50933e-14 
5.47407 -3.66954 1.25932e-14 
5.77474 -3.64668 9.84361e-15 
6.07094 -3.65142 8.2424e-15 
6.36226 -3.64411 6.69088e-15 
6.66039 -3.66073 5.56823e-15 
6.94465 -3.6232 4.47693e-15 
7.24912 -3.67536 3.68719e-15 
7.55755 -3.65937 2.51252e-15 
7.86543 -3.66625 -3.80202e-14 
8.1629 -3.64611 -1.21414e-14 
8.43527 -3.6065 1.62808e-14 
8.72111 -3.64199 -2.5047e-15 
9.04794 -3.70506 -5.31392e-15 
9.38803 -3.68238 -8.4855e-15 
9.6796 -3.60659 -1.10566e-14 
10.0076 -3.70162 -1.98974e-14 
10.3381 -3.64841 -2.15012e-14 
10.7251 -3.76038 -3.96897e-14 
11.0337 -3.6403 -2.93467e-14 
11.3484 -3.6482 -3.2815e-14 
11.6751 -3.66627 -2.90085e-14 
12 -3.66914 2.18664e-13 
-12 -3.41696 -1.08344e-13 
-11.6464 -3.35412 4.98068e-15 
-11.3046 -3.30047 4.34135e-15 
-10.9778 -3.32447 9.80691e-15 
-10.6527 -3.31346 9.95426e-15 
-10.3493 -3.39095 9.90249e-15 
-10.0327 -3.31893 6.77599e-15 
-9.72389 -3.29108 5.94661e-15 
-9.40941 -3.29872 4.7465e-15 
-9.10392 -3.30664 3.6454e-15 
-8.79011 -3.33192 -3.90865e-14 
-8.47705 -3.38435 -1.64039e-14 
-8.15061 -3.35519 5.97431e-15 
-7.83935 -3.29854 2.07222e-14 
-7.54334 -3.25031 1.62283e-14 
-7.25412 -3.28757 2.27902e-14 
-6.97038 -3.33627 3.14678e-14 
-6.66335 -3.3334 4.491e-14 
-6.34897 -3.34171 -3.13225e-15 
-6.03371 -3.32644 -3.73129e-15 
-5.72181 -3.32093 -4.36651e-15 
-5.41595 -3.30867 -4.99904e-15 
-5.11586 -3.29786 -5.7713e-15 
-4.81579 -3.35313 -7.74119e-15 
-4.51263 -3.32608 -9.74154e-15 
-4.21426 -3.32944 -1.19789e-14 
-3.90916 -3.3555 -1.6041e-14 
-3.60255 -3.3731 -2.214e-14 
-3.28815 -3.36086 -2.83701e-14 
-2.98039 -3.34383 -3.4245e-14 
-2.66376 -3.31739 -3.77738e-14 
-2.36985 -3.32346 -4.21126e-14 
-2.06963 -3.34904 -5.64012e-14 
-1.76495 -3.33823 -5.52601e-14 
-1.45863 -3.31359 -4.70604e-14 
-1.142 -3.30527 -2.77678e-14 
-0.859718 -3.25287 2.76277e-14 
-0.560574 -3.23862 7.26179e-14 
-0.242633 -3.26235 -1.52996e-14 
0.0682935 -3.22759 -2.3047e-13 
0.26438 -3.00598 2.00018e-13 
0.522697 -3.27441 2.28376e-14 
0.84436 -3.27499 7.47578e-15 
1.15521 -3.26218 2.67393e-15 
1.44807 -3.30957 6.41924e-14 
1.75774 -3.31398 4.73699e-14 
2.05264 -3.35278 5.57329e-14 
2.35734 -3.42004 5.79312e-14 
2.6633 -3.3708 4.45553e-14 
2.97627 -3.40655 3.84784e-14 
3.27988 -3.3361 2.64082e-14 
3.59233 -3.32455 1.9397e-14 
3.88953 -3.35017 1.59567e-14 
4.1874 -3.32262 1.16954e-14 
4.48729 -3.3085 9.04952e-15 
4.78494 -3.33367 7.89835e-15 
5.08704 -3.33621 6.60522e-15 
5.39852 -3.33928 5.36534e-15 
5.70559 -3.31214 4.0553e-15 
6.01448 -3.30621 3.38435e-15 
6.31127 -3.29694 2.62625e-15 
6.61313 -3.31609 2.47351e-15 
6.90957 -3.2741 -3.82981e-14 
7.21322 -3.33066 -3.62979e-14 
7.51781 -3.32205 -2.30352e-14 
7.82741 -3.32584 -6.12735e-15 
8.12506 -3.28862 2.75988e-15 
8.444 -3.28354 1.51452e-14 
8.76237 -3.29963 3.76689e-14 
9.06086 -3.38987 -2.55711e-15 
9.35643 -3.32549 -4.10536e-15 
9.68569 -3.27575 -5.26931e-15 
10.0097 -3.3682 -7.78244e-15 
10.3121 -3.28798 -7.88009e-15 
10.6304 -3.43878 -1.34444e-14 
10.9619 -3.32607 -1.14709e-14 
11.3155 -3.29658 -6.10197e-15 
11.6522 -3.34238 -6.16763e-15 
12 -3.33045 1.23703e-13 
-12 -3.11407 -1.2706e-13 
-11.6401 -3.03664 -2.83381e-15 
-11.2956 -2.96637 -4.9674e-15 
-10.9538 -2.98054 -2.33732e-14 
-10.6161 -2.98131 -3.71601e-14 
-10.2895 -3.03776 2.94586e-15 
-9.9703 -2.96481 3.11479e-15 
-9.64306 -2.95928 3.51373e-15 
-9.32506 -2.96153 3.3953e-15 
-9.005 -2.97721 -3.88216e-14 
-8.71165 -2.96178 -2.17639e-14 
-8.44292 -3.0499 -1.198e-14 
-8.14207 -3.00861 -1.54959e-15 
-7.84526 -2.95464 4.70876e-15 
-7.53221 -2.92765 4.35542e-15 
-7.22329 -2.95223 9.77223e-15 
-6.92813 -3.00164 2.06714e-14 
-6.61514 -3.00925 1.98822e-14 
-6.3093 -3.00718 2.33814e-14 
-6.00101 -2.99252 3.15419e-14 
-5.69721 -2.98419 3.8682e-14 
-5.39553 -2.96997 4.6183e-14 
-5.09305 -2.96655 -2.62897e-15 
-4.79428 -3.02011 -3.97979e-15 
-4.49522 -2.99259 -3.97579e-15 
-4.20224 -2.99524 -5.24768e-15 
-3.90926 -3.03273 -8.43245e-15 
-3.60251 -3.05237 -1.00593e-14 
-3.29991 -3.03169 -1.37087e-14 
-2.98037 -3.02349 -1.61689e-14 
-2.68114 -2.97809 -1.89899e-14 
-2.36987 -2.97423 -2.36603e-14 
-2.07083 -3.02346 -1.90863e-14 
-1.75697 -3.0116 -8.4798e-15 
-1.42624 -2.98399 -5.37249e-15 
-1.13775 -2.90758 2.09607e-14 
-0.833475 -2.85033 2.49609e-14 
-0.519541 -2.85842 2.80761e-14 
-0.19957 -2.86852 7.50365e-14 
0.0386126 -2.68164 -1.46319e-13 
0.323242 -2.50846 -5.05298e-14 
0.531482 -2.80207 -7.02769e-14 
0.799242 -2.90982 4.8578e-14 
1.13024 -2.90948 1.98136e-14 
1.45524 -2.93327 -3.97109e-15 
1.74326 -2.9766 3.64823e-14 
2.06448 -3.00941 2.24851e-14 
2.36298 -3.09535 3.03589e-14 
2.67055 -3.03447 2.30794e-14 
2.96597 -3.0824 1.92715e-14 
3.26491 -3.00226 1.27482e-14 
3.56743 -3.00503 1.01522e-14 
3.88072 -3.01424 7.78047e-15 
4.17883 -2.99013 5.857e-15 
4.48105 -2.98063 4.20859e-15 
4.78364 -2.99584 3.33823e-15 
5.07994 -2.99959 2.6873e-15 
5.37875 -3.01053 -4.41004e-14 
5.67972 -2.979 -3.33473e-14 
5.98287 -2.98077 -2.67376e-14 
6.29276 -2.95329 -2.70721e-14 
6.59013 -2.97584 -2.08176e-14 
6.91132 -2.9567 -1.53494e-14 
7.22799 -2.99364 -1.06609e-14 
7.52425 -2.97838 -7.55698e-15 
7.82387 -2.98887 -4.61671e-15 
8.13641 -2.9638 4.96915e-15 
8.43358 -2.93964 9.27191e-15 
8.73132 -2.97272 2.04912e-14 
9.05115 -3.03665 -2.41978e-15 
9.37772 -3.00055 -3.0376e-15 
9.66577 -2.91569 -3.09559e-15 
9.97218 -3.02023 -2.85087e-15 
10.3025 -2.95732 3.58185e-14 
10.6392 -3.09379 -4.80622e-15 
10.9929 -3.00225 1.44546e-14 
11.3269 -2.95644 4.41124e-15 
11.6609 -3.02013 6.99767e-15 
12 -2.99665 1.30083e-13 
-12 -2.80421 -1.53211e-13 
-11.6577 -2.70986 -3.76041e-15 
-11.3293 -2.62376 -6.65452e-15 
-10.9845 -2.64885 -2.54758e-15 
-10.6417 -2.6508 1.31925e-14 
-10.3012 -2.69878 -6.64939e-15 
-9.96549 -2.64175 -3.84583e-14 
-9.63721 -2.63132 -3.8658e-14 
-9.31237 -2.6402 -4.08385e-14 
-9.01042 -2.62485 -2.48199e-14 
-8.68945 -2.63905 -1.31226e-14 
-8.36869 -2.68803 -5.91719e-15 
-8.07243 -2.64984 -1.63262e-15 
-7.75778 -2.62799 3.32851e-15 
-7.43387 -2.61582 -5.07306e-16 
-7.1266 -2.63616 4.41718e-15 
-6.82937 -2.6859 1.19488e-14 
-6.52467 -2.67804 6.02841e-15 
-6.22188 -2.67288 9.17596e-15 
-5.91857 -2.65773 1.74997e-14 
[...]
POINT_DATA 1978 
VECTORS vectors float
5.50127e-05 -0.00196972 0.999998 
0.000204789 -0.0608335 0.998148 
-0.000194013 -0.0621369 0.998068 
-6.25378e-05 -0.0533827 0.998574 
-0.000234797 -0.0417314 0.999129 
-0.000175165 -0.0268749 0.999639 
-2.10109e-05 -0.0166397 0.999862 
2.71047e-05 -0.00943025 0.999956 
-2.14859e-05 -0.00420634 0.999991 
-0.000131314 -0.00171228 0.999999 
-0.000233341 -0.00118497 0.999999 
-0.000158589 -0.00170081 0.999999 
4.6195e-05 -0.00145537 0.999999 
0.000178588 5.13992e-05 1 
0.000154564 0.00200825 0.999998 
0.00010253 0.00486199 0.999988 
5.38225e-05 0.007548 0.999972 
2.25512e-05 0.00911832 0.999958 
2.34396e-05 0.0103117 0.999947 
4.06436e-06 0.0117527 0.999931 
3.16785e-05 0.0140975 0.999901 
5.29542e-05 0.0175607 0.999846 
5.23082e-05 0.0218139 0.999762 
3.42104e-05 0.0263933 0.999652 
-8.1636e-06 0.0322277 0.999481 
-2.07168e-05 0.0389266 0.999242 
-3.29565e-05 0.0482337 0.998836 
-1.88004e-05 0.0607252 0.998155 
3.35634e-05 0.079064 0.99687 
6.41952e-05 0.103798 0.994598 
8.69632e-05 0.137745 0.990468 
8.81964e-05 0.183244 0.983067 
9.52087e-05 0.243936 0.969791 
8.62955e-05 0.318836 0.94781 
6.8495e-05 0.415029 0.909808 
4.03542e-05 0.538906 0.842366 
1.85898e-05 0.677296 0.735711 
-7.93003e-06 0.834904 0.550395 
-1.15029e-05 0.958386 0.285475 
2.84575e-06 0.999352 -0.0360001 
8.18931e-06 0.947932 -0.318472 
-5.04113e-06 0.833501 -0.552518 
-3.49409e-05 0.691511 -0.722366 
-5.15662e-05 0.556448 -0.830882 
-8.51728e-05 0.437739 -0.899102 
-7.96222e-05 0.336973 -0.941514 
-6.15401e-05 0.25651 -0.966542 
-1.91797e-05 0.190857 -0.981618 
2.49799e-05 0.1385 -0.990362 
3.30247e-05 0.103147 -0.994666 
3.64934e-06 0.0759739 -0.99711 
-4.52393e-05 0.0600256 -0.998197 
-2.66304e-05 0.0478929 -0.998852 
-2.19466e-05 0.0384405 -0.999261 
-4.81451e-05 0.0317163 -0.999497 
-3.1775e-05 0.0264773 -0.999649 
5.17634e-06 0.022138 -0.999755 
-5.5837e-06 0.0187649 -0.999824 
-3.6562e-05 0.0157132 -0.999877 
-7.54598e-05 0.012917 -0.999917 
-7.24663e-05 0.0102336 -0.999948 
-8.30335e-05 0.00777546 -0.99997 
-7.24437e-05 0.00576644 -0.999983 
-7.05297e-05 0.00469678 -0.999989 
7.52643e-07 0.0039403 -0.999992 
-1.5109e-05 0.00324944 -0.999995 
-5.86474e-05 0.00215929 -0.999998 
-0.000149536 0.000618474 -1 
-0.000120729 -0.00117205 -0.999999 
-3.54611e-06 -0.00370403 -0.999993 
8.86912e-05 -0.00786494 -0.999969 
2.88758e-05 -0.0130659 -0.999915 
3.1156e-05 -0.0183029 -0.999832 
0.000254796 -0.0278858 -0.999611 
0.000476356 -0.0382422 -0.999268 
0.000447666 -0.0544486 -0.998516 
0.000238936 -0.0637098 -0.997968 
-0.000164824 -0.0609926 -0.998138 
-0.000211672 -0.00135402 -0.999999 
0.000163464 0.00111562 0.999999 
0.0248905 -0.0508687 0.998395 
0.0305567 -0.0570371 0.997904 
0.0315629 -0.0516455 0.998167 
0.0327217 -0.0412874 0.998611 
0.0320297 -0.0304945 0.999022 
0.0359065 -0.0198187 0.999159 
0.0384047 -0.0119802 0.99919 
0.0385834 -0.00646052 0.999234 
0.0391833 -0.00326101 0.999227 
0.0378474 -0.00174481 0.999282 
0.0371948 -0.001337 0.999307 
0.0395381 -0.000820756 0.999218 
0.0422675 0.000633853 0.999106 
0.0437448 0.0025307 0.99904 
0.0408087 0.00456885 0.999157 
0.0396129 0.00682518 0.999192 
0.0402203 0.00855758 0.999154 
0.0400137 0.00997722 0.999149 
0.0404904 0.011591 0.999113 
0.0405321 0.0139459 0.999081 
0.0409209 0.0170872 0.999016 
0.0411355 0.0208681 0.998936 
0.0394017 0.0259431 0.998887 
0.040961 0.0312024 0.998673 
0.0401948 0.0378408 0.998475 
0.0381646 0.0465882 0.998185 
0.0379456 0.0590679 0.997533 
0.0363916 0.0767181 0.996388 
0.0351426 0.101985 0.994165 
0.0325494 0.135413 0.990254 
0.0296158 0.181159 0.983008 
0.0258937 0.243342 0.969595 
0.0222605 0.324647 0.945573 
0.0178241 0.430109 0.902601 
0.0136588 0.555635 0.831314 
0.00905497 0.711975 0.702147 
0.00647621 0.854216 0.519879 
0.00423384 0.960527 0.278154 
0.00235204 0.999989 -0.00395095 
-0.000991601 0.955034 -0.296494 
-0.00442407 0.842646 -0.53845 
-0.00813254 0.697789 -0.716257 
-0.0133129 0.547567 -0.836656 
-0.0180368 0.419819 -0.907429 
-0.022517 0.315979 -0.948499 
-0.0261801 0.2344 -0.971788 
-0.028992 0.17046 -0.984938 
-0.0325255 0.124348 -0.991705 
-0.0339907 0.0920473 -0.995174 
-0.0382209 0.069794 -0.996829 
-0.0386993 0.0549483 -0.997739 
-0.0387621 0.0435605 -0.998299 
-0.0405075 0.0351484 -0.998561 
-0.0406956 0.0289054 -0.998753 
-0.039732 0.0239879 -0.998922 
-0.0401209 0.0200454 -0.998994 
-0.0400402 0.0168535 -0.999056 
-0.0413595 0.0140409 -0.999046 
-0.04121 0.0115505 -0.999084 
-0.0415288 0.00922745 -0.999095 
-0.041148 0.00719472 -0.999127 
-0.0429928 0.00568345 -0.999059 
-0.040081 0.00454583 -0.999186 
-0.0409153 0.00371076 -0.999156 
-0.040513 0.00277866 -0.999175 
-0.0413906 0.0015187 -0.999142 
-0.0431669 -0.000102365 -0.999068 
-0.0408585 -0.00227997 -0.999162 
-0.0370249 -0.00546982 -0.999299 
-0.037353 -0.00986132 -0.999253 
-0.039955 -0.0148304 -0.999091 
-0.0345661 -0.0215753 -0.999169 
-0.0348568 -0.0303659 -0.998931 
-0.0294854 -0.0428675 -0.998646 
-0.0336947 -0.0516791 -0.998095 
-0.0312495 -0.0572013 -0.997873 
-0.0256662 -0.0496594 -0.998436 
-6.32957e-05 0.000658225 -1 
-0.000244353 -0.000118965 1 
0.0265297 -0.0487055 0.998461 
0.0326869 -0.0552898 0.997935 
0.0362763 -0.0493623 0.998122 
0.0387564 -0.0398391 0.998454 
0.0406349 -0.0304689 0.998709 
0.0429816 -0.0216436 0.998841 
0.0449418 -0.0139392 0.998892 
0.0460411 -0.00790465 0.998908 
0.0475925 -0.0042734 0.998858 
0.0481454 -0.00227833 0.998838 
0.0486175 -0.00122714 0.998817 
0.0491061 -0.000403534 0.998793 
0.0493556 0.000880012 0.998781 
0.0492371 0.00262428 0.998784 
0.0496031 0.0043535 0.99876 
0.0495921 0.00611918 0.998751 
0.0495525 0.00772321 0.998742 
0.0493255 0.00918816 0.99874 
0.0492249 0.0107699 0.99873 
0.0491085 0.0128501 0.998711 
0.0491182 0.0155499 0.998672 
0.049108 0.0188548 0.998615 
0.0492562 0.0233187 0.998514 
0.0493903 0.0281452 0.998383 
0.0488301 0.0343304 0.998217 
0.0483458 0.0430069 0.997904 
0.0471672 0.054318 0.997409 
0.0453223 0.0707592 0.996463 
0.0425882 0.0939793 0.994663 
0.0387741 0.128085 0.991005 
0.035186 0.173709 0.984168 
0.0311909 0.235861 0.971286 
0.0260308 0.318994 0.947399 
0.0204693 0.428211 0.903447 
0.0150599 0.573936 0.818761 
0.0106871 0.719171 0.694751 
0.00744567 0.855044 0.518502 
0.00504879 0.960168 0.279377 
0.00215197 0.999773 -0.0211891 
-0.000242778 0.958867 -0.283854 
-0.00491206 0.851782 -0.523873 
-0.0097801 0.708207 -0.705937 
-0.014847 0.560394 -0.828093 
-0.0206067 0.425434 -0.904755 
-0.0262163 0.318565 -0.947538 
-0.0314221 0.236988 -0.971004 
-0.0360659 0.174517 -0.983993 
-0.0398789 0.128572 -0.990898 
-0.0427519 0.0955946 -0.994502 
-0.045396 0.0727689 -0.996315 
-0.0469862 0.0558797 -0.997331 
-0.0480826 0.0443926 -0.997856 
-0.0487112 0.0354043 -0.998185 
-0.048886 0.0285978 -0.998395 
-0.0490944 0.0237251 -0.998512 
-0.0492504 0.0197974 -0.99859 
-0.0493705 0.0166353 -0.998642 
-0.049204 0.0137901 -0.998694 
-0.0493696 0.0113999 -0.998716 
-0.0494016 0.00932544 -0.998735 
-0.0494145 0.0074905 -0.99875 
-0.0496706 0.00602385 -0.998747 
-0.0497661 0.00482301 -0.998749 
-0.0495314 0.00381764 -0.998765 
-0.0494481 0.002776 -0.998773 
-0.0493249 0.00142044 -0.998782 
-0.0491931 -0.000462049 -0.998789 
-0.0486886 -0.00295186 -0.99881 
-0.047292 -0.00599004 -0.998863 
-0.0467563 -0.0100711 -0.998856 
-0.045483 -0.0159969 -0.998837 
-0.0434771 -0.0229266 -0.998791 
-0.041827 -0.0310936 -0.998641 
-0.0394522 -0.0394729 -0.998441 
-0.0382375 -0.0490801 -0.998063 
-0.0344584 -0.0553183 -0.997874 
-0.0284915 -0.0491585 -0.998385 
-0.000171576 -0.000369617 -1 
0.000530634 -7.28123e-05 1 
0.0232932 -0.0495785 0.998499 
0.0282828 -0.0565852 0.997997 
0.0320329 -0.0495797 0.998256 
0.0352846 -0.0406753 0.998549 
0.0386386 -0.0305997 0.998785 
0.0399931 -0.0216936 0.998964 
0.0416907 -0.0135991 0.999038 
0.0437152 -0.00795018 0.999012 
0.0447195 -0.00439327 0.99899 
0.0452024 -0.00233255 0.998975 
0.0470615 -0.000993085 0.998892 
0.0466624 0.000224609 0.998911 
0.0460387 0.0015899 0.998938 
0.0454536 0.00319961 0.998961 
0.0460106 0.004723 0.99893 
0.047146 0.00616098 0.998869 
0.0469317 0.00767631 0.998869 
0.0464938 0.00909002 0.998877 
0.0463252 0.0106678 0.998869 
0.0462386 0.0126076 0.998851 
0.0461847 0.0150899 0.998819 
0.0462961 0.0182665 0.998761 
0.0468851 0.0222174 0.998653 
0.0463651 0.0272048 0.998554 
0.0463469 0.033636 0.998359 
0.0463326 0.0418681 0.998048 
0.0449912 0.0536341 0.997547 
0.0429609 0.069879 0.99663 
0.0400923 0.0945778 0.99471 
0.0361444 0.12693 0.991253 
0.0318054 0.173271 0.984361 
0.0282839 0.237859 0.970888 
0.0230132 0.327568 0.944547 
0.017871 0.44885 0.893428 
0.0134722 0.578908 0.815282 
0.00997934 0.7188 0.695146 
0.00634313 0.873901 0.486063 
0.00318186 0.972172 0.234248 
-1.18966e-05 0.999994 -0.00338998 
-0.00336371 0.963485 -0.267742 
-0.00361246 0.865377 -0.501109 
-0.00815346 0.720604 -0.693299 
-0.0133045 0.568098 -0.822853 
-0.0181121 0.431132 -0.902107 
-0.0233578 0.321414 -0.946651 
-0.0288094 0.235775 -0.971381 
-0.0342811 0.173965 -0.984155 
-0.0373937 0.127949 -0.991076 
-0.0410221 0.096269 -0.99451 
-0.0424592 0.0731652 -0.996416 
-0.0441082 0.0558186 -0.997466 
-0.045381 0.0430713 -0.998041 
-0.0459912 0.0342618 -0.998354 
-0.0463601 0.0276986 -0.998541 
-0.0466438 0.0226928 -0.998654 
-0.0466687 0.0188748 -0.998732 
-0.0465955 0.0158342 -0.998788 
-0.0464406 0.0133729 -0.998832 
-0.0463124 0.0111872 -0.998864 
-0.0460037 0.00921468 -0.998899 
-0.0459765 0.00760115 -0.998914 
-0.0460591 0.00622296 -0.998919 
-0.0464088 0.00497033 -0.99891 
-0.0466414 0.00393658 -0.998904 
-0.0467128 0.00274061 -0.998905 
-0.0463236 0.00126009 -0.998926 
-0.0452663 -0.000591295 -0.998975 
-0.0455227 -0.00292623 -0.998959 
-0.0460317 -0.00609242 -0.998921 
-0.0440274 -0.010578 -0.998974 
-0.0413178 -0.0161503 -0.999016 
-0.0410978 -0.0232796 -0.998884 
-0.0379693 -0.0323471 -0.998755 
-0.0377903 -0.0408691 -0.99845 
-0.0332415 -0.0505208 -0.99817 
-0.0290908 -0.0561243 -0.998 
-0.0241106 -0.0477076 -0.99857 
-0.000443533 -0.000172339 -1 
0.00137398 -0.000949055 0.999999 
0.0188195 -0.0509184 0.998525 
0.0232967 -0.059369 0.997964 
0.0268188 -0.0531112 0.998228 
0.0295247 -0.0436714 0.99861 
0.0328477 -0.0331763 0.99891 
0.0343818 -0.0237198 0.999127 
0.0361284 -0.0153813 0.999229 
0.0374442 -0.00905863 0.999258 
0.0380178 -0.00529588 0.999263 
0.0388584 -0.00254184 0.999241 
0.0400524 -0.000571055 0.999197 
0.0396964 0.000998833 0.999211 
0.0395008 0.00255734 0.999216 
0.0390154 0.00417492 0.99923 
0.0398197 0.00553803 0.999192 
0.0410158 0.00676592 0.999136 
0.0401499 0.00810084 0.999161 
0.0398482 0.0094602 0.999161 
0.039805 0.0109983 0.999147 
0.0398596 0.0129112 0.999122 
0.0398809 0.0153557 0.999086 
0.0402279 0.0185774 0.999018 
0.0410946 0.0224603 0.998903 
0.0403134 0.0275819 0.998806 
0.0403448 0.0343684 0.998595 
0.0406335 0.0431878 0.99824 
0.0389278 0.0554539 0.997702 
0.0371462 0.073775 0.996583 
0.0337051 0.097009 0.994713 
0.0298322 0.134055 0.990525 
0.0258326 0.185039 0.982392 
0.0230421 0.249445 0.968115 
0.0182953 0.352732 0.935546 
0.0140321 0.465065 0.885165 
0.01108 0.592305 0.805638 
0.00895663 0.776548 0.629994 
0.00413347 0.901684 0.432376 
0.00365199 0.938252 0.345934 
-0.00155683 0.998545 0.0538953 
-0.00541232 0.968783 -0.24785 
-0.00789776 0.856919 -0.51539 
-0.00812762 0.72429 -0.689447 
-0.0115911 0.568652 -0.822497 
-0.0156058 0.421266 -0.906803 
-0.0197764 0.309629 -0.950652 
-0.0243868 0.231387 -0.972556 
-0.0297751 0.168659 -0.985225 
-0.031804 0.124933 -0.991655 
-0.0354631 0.0930385 -0.995031 
-0.0367861 0.0685685 -0.996968 
-0.0388674 0.0516689 -0.997908 
-0.0398485 0.0401831 -0.998397 
-0.0401853 0.0316477 -0.998691 
-0.0402727 0.0253829 -0.998866 
-0.0405135 0.0208494 -0.998961 
-0.040427 0.0173758 -0.999031 
-0.0403501 0.0146879 -0.999078 
-0.039781 0.0124478 -0.999131 
-0.0398786 0.0105578 -0.999149 
-0.0391275 0.00894035 -0.999194 
-0.0398697 0.00746919 -0.999177 
-0.0394928 0.00620072 -0.999201 
-0.0396086 0.00514795 -0.999202 
-0.0397971 0.00402746 -0.9992 
-0.0403125 0.00271819 -0.999183 
-0.0396735 0.0011163 -0.999212 
-0.038622 -0.000926233 -0.999253 
-0.0388614 -0.00346732 -0.999239 
-0.0403048 -0.00656366 -0.999166 
-0.037482 -0.0108047 -0.999239 
-0.0350163 -0.0172229 -0.999238 
-0.0350747 -0.0249646 -0.999073 
-0.0318798 -0.0347426 -0.998888 
-0.0319738 -0.0431279 -0.998558 
-0.0269897 -0.0526801 -0.998247 
-0.0228666 -0.0576607 -0.998074 
-0.0186244 -0.0473598 -0.998704 
-0.000262741 -0.000296305 -1 
0.00138637 -0.00093106 0.999999 
0.0111301 -0.0410619 0.999095 
0.0179317 -0.0580113 0.998155 
0.0212505 -0.0584606 0.998064 
0.0234107 -0.0501453 0.998468 
0.0260582 -0.0397211 0.998871 
0.0278521 -0.0302319 0.999155 
0.02889 -0.0204942 0.999372 
0.0300996 -0.012731 0.999466 
0.0304362 -0.0077021 0.999507 
0.0310164 -0.00401189 0.999511 
0.0321362 -0.00127824 0.999483 
0.03188 0.000627187 0.999492 
0.0317891 0.0023728 0.999492 
0.031951 0.00394464 0.999482 
0.0316642 0.00542904 0.999484 
0.0322172 0.00659355 0.999459 
0.0326904 0.00764487 0.999436 
0.0320063 0.00886228 0.999448 
0.0318833 0.010163 0.99944 
0.0320847 0.0117116 0.999417 
0.0321628 0.0136593 0.999389 
0.0325924 0.0162547 0.999337 
0.0327906 0.0195703 0.999271 
0.0335142 0.0236504 0.999158 
0.0331042 0.0295596 0.999015 
0.033293 0.0374127 0.998745 
0.0329438 0.0470436 0.998349 
0.0317992 0.062123 0.997562 
0.0285719 0.0807095 0.996328 
0.0257378 0.11104 0.993483 
0.0217175 0.156573 0.987428 
0.0181877 0.225263 0.974128 
0.016363 0.301957 0.953181 
0.0119213 0.403571 0.914871 
0.00834018 0.549414 0.835509 
0.00637661 0.719987 0.693959 
0.00164108 0.841019 0.541003 
-0.00107384 0.995812 0.0914225 
-0.00484587 0.996956 -0.077818 
-0.0060375 0.963466 -0.267764 
-0.00632246 0.957089 -0.289727 
-0.00903633 0.848289 -0.529457 
-0.0089401 0.637299 -0.770565 
-0.0105912 0.484244 -0.874869 
-0.0135202 0.343735 -0.938969 
-0.0172455 0.245715 -0.969189 
-0.0231241 0.179292 -0.983524 
-0.0245151 0.134221 -0.990648 
-0.028184 0.0982797 -0.99476 
-0.0300952 0.0736791 -0.996828 
-0.0317617 0.0537663 -0.998048 
-0.0325261 0.0411482 -0.998623 
-0.0330316 0.0322798 -0.998933 
-0.0329867 0.0256345 -0.999127 
-0.032927 0.020785 -0.999242 
-0.0327522 0.0172774 -0.999314 
-0.0325933 0.0146304 -0.999362 
-0.0322328 0.0125629 -0.999401 
-0.0321111 0.0107923 -0.999426 
-0.0312451 0.00933132 -0.999468 
-0.0320125 0.00796025 -0.999456 
-0.032157 0.00679697 -0.99946 
-0.0312628 0.0057201 -0.999495 
-0.0318208 0.00460315 -0.999483 
-0.0320036 0.00319231 -0.999483 
-0.0316714 0.00152882 -0.999497 
-0.0306667 -0.000586898 -0.999529 
-0.0307967 -0.00330186 -0.99952 
-0.0324407 -0.00677893 -0.999451 
-0.0303165 -0.0117531 -0.999471 
-0.0280743 -0.0185968 -0.999433 
-0.0284337 -0.0270121 -0.999231 
-0.0254127 -0.0373097 -0.998981 
-0.0257819 -0.045701 -0.998622 
-0.0211053 -0.0550678 -0.99826 
-0.0173382 -0.0597628 -0.998062 
-0.0143525 -0.0495732 -0.998667 
-0.000230225 -0.000266149 -1 
0.000412687 -0.000226411 1 
0.0126413 -0.0512572 0.998605 
0.0168117 -0.0616188 0.997958 
0.0178061 -0.0562777 0.998256 
0.0196191 -0.0468173 0.998711 
0.0205309 -0.0371267 0.9991 
0.0220881 -0.0272933 0.999383 
0.0226392 -0.0180089 0.999581 
0.0228188 -0.0114622 0.999674 
0.0233775 -0.00658132 0.999705 
0.0242331 -0.00284219 0.999702 
0.0239188 -0.000328659 0.999714 
0.0239423 0.00180072 0.999712 
0.024051 0.0036043 0.999704 
0.0244339 0.00506471 0.999689 
0.0236352 0.00635063 0.9997 
0.023684 0.00735707 0.999692 
0.0244675 0.00831613 0.999666 
0.0238242 0.009447 0.999672 
0.0239868 0.0107042 0.999655 
0.0242751 0.0122276 0.999631 
0.0247576 0.0142811 0.999591 
0.0249802 0.0169733 0.999544 
0.0249629 0.0204738 0.999479 
0.0261857 0.025276 0.999337 
0.0260003 0.0323566 0.999138 
0.0252349 0.0411045 0.998836 
0.0256602 0.0537846 0.998223 
0.0225964 0.0696329 0.997317 
0.0205363 0.0976348 0.99501 
0.0172441 0.141952 0.989723 
0.0142314 0.213806 0.976772 
0.0108833 0.318887 0.94773 
0.00764842 0.457519 0.889167 
0.00469133 0.613935 0.789342 
0.00414677 0.659576 0.751626 
0.00478272 0.923485 0.383604 
0.00254172 0.950591 0.310434 
-0.00199116 0.974456 0.22457 
-0.00440631 0.998411 0.0561789 
-0.0070517 0.998006 -0.0627219 
-0.01236 0.957218 -0.289103 
-0.0101146 0.864557 -0.502433 
-0.00929059 0.72209 -0.691737 
-0.00786357 0.515802 -0.856672 
-0.00885728 0.387468 -0.921841 
-0.0111484 0.273162 -0.961903 
-0.0162166 0.184331 -0.98273 
-0.0186875 0.127854 -0.991617 
-0.0214762 0.0924542 -0.995485 
-0.0242568 0.0660155 -0.997524 
-0.0247935 0.0491556 -0.998483 
-0.0252755 0.0377082 -0.998969 
-0.025691 0.0295758 -0.999232 
-0.025506 0.0235659 -0.999397 
-0.0251318 0.0192256 -0.999499 
-0.0248098 0.0160564 -0.999563 
-0.0245079 0.0137415 -0.999605 
-0.0245408 0.0118774 -0.999628 
-0.0238403 0.0104364 -0.999661 
-0.0238465 0.00909494 -0.999674 
-0.0239489 0.00799567 -0.999681 
-0.0242882 0.00693605 -0.999681 
-0.023157 0.00596327 -0.999714 
-0.0240523 0.0047328 -0.999699 
-0.023646 0.00329899 -0.999715 
-0.0235189 0.00140906 -0.999722 
-0.022749 -0.001004 -0.999741 
-0.0229716 -0.00399265 -0.999728 
-0.024911 -0.00746733 -0.999662 
-0.0228679 -0.012552 -0.99966 
-0.0211055 -0.0198408 -0.99958 
-0.0216977 -0.0287662 -0.999351 
-0.0190371 -0.0393058 -0.999046 
-0.0195288 -0.0483856 -0.998638 
-0.0154538 -0.0572242 -0.998242 
-0.0124944 -0.0615955 -0.998023 
-0.0102508 -0.0498537 -0.998704 
-0.000120204 -0.000216929 -1 
3.00283e-05 8.36274e-05 1 
0.0111979 -0.0527667 0.998544 
0.0138385 -0.0631701 0.997907 
0.0137525 -0.0589453 0.998166 
0.0147444 -0.0502224 0.998629 
0.0147756 -0.0399639 0.999092 
0.0157844 -0.0300617 0.999423 
0.0165438 -0.0209731 0.999643 
0.0163361 -0.0135528 0.999775 
0.0167946 -0.00814557 0.999826 
0.0177572 -0.00394317 0.999835 
0.0170319 -0.000817535 0.999855 
0.0171564 0.001627 0.999851 
0.0172539 0.00365445 0.999844 
0.0174853 0.00520879 0.999834 
0.0170866 0.00643772 0.999833 
0.0164371 0.00752859 0.999837 
0.0169921 0.00839502 0.99982 
0.0170605 0.00929225 0.999811 
0.0170324 0.0103754 0.999801 
0.0173221 0.011639 0.999782 
0.0180469 0.0133392 0.999748 
0.0183173 0.0156891 0.999709 
0.0182586 0.0188538 0.999656 
0.0191125 0.0233342 0.999545 
0.0199945 0.0293929 0.999368 
0.0187629 0.0375411 0.999119 
0.0190525 0.049886 0.998573 
0.0168908 0.0663578 0.997653 
0.0155831 0.0922875 0.99561 
0.01309 0.134496 0.990828 
0.0109198 0.204174 0.978874 
0.00871574 0.300949 0.9536 
0.00596448 0.431863 0.90192 
0.00584987 0.632214 0.774772 
0.00207358 0.826471 0.562975 
0.00290322 0.982721 0.18507 
0.00517481 0.993388 0.114685 
0.00430335 0.995552 0.0941178 
0.00281392 0.998087 0.0617601 
0.00204393 0.999895 0.0143659 
-0.000619966 0.997716 -0.0675524 
-0.0113478 0.876594 -0.481096 
-0.00917546 0.629176 -0.777209 
-0.00692793 0.574754 -0.818297 
-0.00677683 0.434829 -0.900488 
-0.00741033 0.319911 -0.947419 
-0.0106794 0.207542 -0.978168 
-0.0130552 0.143573 -0.989554 
-0.0150153 0.0973592 -0.995136 
-0.0177917 0.0705203 -0.997352 
-0.0182347 0.0517858 -0.998492 
-0.0186196 0.0392092 -0.999058 
-0.0189954 0.0305378 -0.999353 
-0.0189964 0.0243523 -0.999523 
-0.0185574 0.0197089 -0.999634 
-0.018113 0.0163167 -0.999703 
-0.0175825 0.0138638 -0.999749 
-0.0178721 0.0121824 -0.999766 
-0.0169263 0.0107311 -0.999799 
-0.0175567 0.00963575 -0.999799 
-0.0167908 0.00854838 -0.999822 
-0.017247 0.00763575 -0.999822 
-0.016692 0.00670807 -0.999838 
-0.0171057 0.00543036 -0.999839 
-0.0167625 0.00394396 -0.999852 
-0.0167245 0.00187547 -0.999858 
-0.0162893 -0.000753859 -0.999867 
-0.0162695 -0.00407794 -0.999859 
-0.0176759 -0.00822585 -0.99981 
-0.01639 -0.0139491 -0.999768 
-0.0147462 -0.0214273 -0.999662 
-0.0156908 -0.0298093 -0.999432 
-0.0133828 -0.0399792 -0.999111 
-0.0140228 -0.0494534 -0.998678 
-0.0110287 -0.0585983 -0.998221 
-0.00896005 -0.0632831 -0.997955 
-0.00714793 -0.0503943 -0.998704 
-9.80132e-05 -0.00015786 -1 
4.02354e-05 0.0001684 1 
0.00879833 -0.0523886 0.998588 
0.0105411 -0.0637516 0.99791 
0.0103631 -0.0604723 0.998116 