# vtk DataFile Version 3.0 
Exported using Morpho https://github.com/Morpho-lang/morpho 
ASCII 
DATASET UNSTRUCTURED_GRID 

POINTS 1978 float 
-12 -4 -1.34604e-12 
-11.6809 -4 7.13473e-11 
-11.3529 -4 6.87092e-11 
-11.019 -4 6.19929e-11 
-10.6873 -4 5.60286e-11 
-10.289 -4 4.30927e-11 
-9.97139 -4 2.22352e-11 
-9.68155 -4 1.44164e-11 
-9.36829 -4 6.87977e-12 
-9.05148 -4 2.69705e-12 
-8.69065 -4 2.42535e-12 
-8.31218 -4 2.58105e-12 
-7.99282 -4 1.31078e-12 
-7.72307 -4 2.20848e-14 
-7.47874 -4 -3.0635e-12 
-7.2022 -4 -6.28806e-12 
-6.90591 -4 -9.15689e-12 
-6.60389 -4 -1.09218e-11 
-6.29504 -4 -1.35504e-11 
-5.97784 -4 -1.58771e-11 
-5.67017 -4 -1.86512e-11 
-5.36549 -4 -2.17136e-11 
-5.06884 -4 -2.54289e-11 
-4.77831 -4 -3.52667e-11 
-4.45268 -4 -4.33951e-11 
-4.14643 -4 -5.24085e-11 
-3.81467 -4 -6.93936e-11 
-3.49127 -4 -8.54795e-11 
-3.17564 -4 -9.76709e-11 
-2.8811 -4 -1.08877e-10 
-2.5918 -4 -1.29999e-10 
-2.30986 -4 -1.4938e-10 
-2.03108 -4 -1.65245e-10 
-1.75544 -4 -1.73103e-10 
-1.48197 -4 -1.66221e-10 
-1.19534 -4 -1.3796e-10 
-0.913504 -4 -9.23133e-11 
-0.599529 -4 -1.10407e-10 
-0.287004 -4 1.17257e-10 
0.0330631 -4 1.92382e-10 
0.318109 -4 -2.16567e-10 
0.600013 -4 1.08535e-11 
0.883824 -4 7.78066e-11 
1.1547 -4 9.63833e-11 
1.42116 -4 1.4478e-10 
1.69269 -4 1.71799e-10 
1.97101 -4 1.81285e-10 
2.26701 -4 1.9669e-10 
2.59586 -4 1.61244e-10 
2.90715 -4 1.39089e-10 
3.25401 -4 9.93309e-11 
3.54218 -4 6.9877e-11 
3.84499 -4 6.36877e-11 
4.16344 -4 4.96314e-11 
4.46055 -4 3.83758e-11 
4.75877 -4 3.45891e-11 
5.07695 -4 2.98216e-11 
5.39074 -4 2.49448e-11 
5.70678 -4 1.95449e-11 
5.99898 -4 1.50596e-11 
6.29119 -4 1.21372e-11 
6.57921 -4 1.01331e-11 
6.88085 -4 6.99697e-12 
7.15282 -4 5.77734e-12 
7.4773 -4 5.48992e-12 
7.78546 -4 4.04617e-12 
8.09615 -4 3.50386e-12 
8.38418 -4 4.30805e-13 
8.63725 -4 -2.63972e-12 
8.91885 -4 -7.25427e-12 
9.27105 -4 -1.25274e-11 
9.60719 -4 -1.53272e-11 
9.88267 -4 -2.68963e-11 
10.2506 -4 -3.90799e-11 
10.5716 -4 -6.79367e-11 
11.0441 -4 -7.57356e-11 
11.3594 -4 -6.29569e-11 
11.6824 -4 -7.36714e-11 
12 -4 4.66557e-12 
-12 -3.71158 -2.22119e-11 
-11.6495 -3.67531 4.07549e-14 
-11.3347 -3.64311 4.27707e-14 
-11.0263 -3.6644 4.24419e-14 
-10.7026 -3.66149 3.46368e-14 
-10.372 -3.71362 3.25062e-14 
-10.0187 -3.6569 2.08323e-14 
-9.70391 -3.63217 1.37541e-14 
-9.40199 -3.65512 9.69651e-15 
-9.08373 -3.64956 5.00914e-15 
-8.7652 -3.68274 2.91379e-15 
-8.41096 -3.7031 1.36304e-15 
-8.06676 -3.66798 -3.78628e-16 
-7.75997 -3.62862 -1.5274e-15 
-7.48546 -3.60931 -2.76764e-15 
-7.2169 -3.65561 -4.38321e-15 
-6.91296 -3.66629 -5.63307e-15 
-6.60056 -3.66462 -8.18387e-15 
-6.28048 -3.66902 -1.05072e-14 
-5.96718 -3.65917 -1.24706e-14 
-5.65739 -3.65691 -1.47633e-14 
-5.35572 -3.6499 -1.7236e-14 
-5.0627 -3.64513 -2.03421e-14 
-4.74421 -3.68109 -2.73688e-14 
-4.44534 -3.65998 -3.23502e-14 
-4.14548 -3.6612 -3.74463e-14 
-3.84402 -3.68816 -4.95655e-14 
-3.52428 -3.68487 -6.576e-14 
-3.21165 -3.68152 -8.09789e-14 
-2.90079 -3.65936 -9.2989e-14 
-2.61007 -3.66276 -1.15195e-13 
-2.32062 -3.66459 -1.37799e-13 
-2.02653 -3.66827 -1.50054e-13 
-1.73933 -3.6639 -1.567e-13 
-1.45441 -3.66826 -1.44571e-13 
-1.1699 -3.64611 -9.42557e-14 
-0.860641 -3.6563 -2.67212e-14 
-0.570698 -3.62488 4.32297e-14 
-0.268535 -3.63424 8.9875e-14 
0.0236176 -3.61498 -2.79054e-14 
0.309865 -3.57082 -1.75219e-13 
0.601241 -3.61904 3.28584e-15 
0.890493 -3.63628 -1.9397e-14 
1.1759 -3.63321 1.0791e-13 
1.46668 -3.65555 1.32918e-13 
1.7571 -3.66147 1.60204e-13 
2.0576 -3.68128 1.55148e-13 
2.38516 -3.71804 1.57143e-13 
2.70911 -3.68973 1.10243e-13 
3.03819 -3.71567 1.00052e-13 
3.3438 -3.65205 6.69575e-14 
3.63901 -3.66467 5.60137e-14 
3.9477 -3.67914 4.71825e-14 
4.24696 -3.65354 3.59261e-14 
4.54157 -3.6516 2.94174e-14 
4.84943 -3.6704 2.5489e-14 
5.16115 -3.66559 2.10152e-14 
5.47535 -3.66838 1.75306e-14 
5.77633 -3.64559 1.37927e-14 
6.07328 -3.65076 1.16337e-14 
6.36629 -3.64387 9.06943e-15 
6.66266 -3.66112 8.26125e-15 
6.94396 -3.61945 5.97264e-15 
7.24817 -3.67362 5.2879e-15 
7.55666 -3.65735 3.62836e-15 
7.86642 -3.66233 2.24923e-15 
8.15317 -3.64741 8.25828e-16 
8.42985 -3.61458 -9.47356e-16 
8.71935 -3.63756 -3.42251e-15 
9.04847 -3.70451 -7.34612e-15 
9.38786 -3.68108 -1.19722e-14 
9.6791 -3.60496 -1.53677e-14 
10.0066 -3.70041 -2.70882e-14 
10.3375 -3.64777 -2.90249e-14 
10.725 -3.76035 -5.02067e-14 
11.0324 -3.63856 -3.842e-14 
11.3463 -3.64696 -4.43771e-14 
11.6739 -3.66553 -3.98311e-14 
12 -3.66914 2.68314e-11 
-12 -3.41696 -1.65644e-11 
-11.6453 -3.35376 7.58892e-15 
-11.3023 -3.29718 6.26136e-15 
-10.9758 -3.32424 1.40608e-14 
-10.6508 -3.31139 1.41226e-14 
-10.3494 -3.39038 1.41601e-14 
-10.0316 -3.31629 9.76041e-15 
-9.72264 -3.28554 8.52853e-15 
-9.41134 -3.30317 6.8287e-15 
-9.10292 -3.30657 5.22932e-15 
-8.78861 -3.32911 2.74491e-15 
-8.47639 -3.38314 1.15752e-15 
-8.15044 -3.35341 -4.42989e-16 
-7.84071 -3.2981 -1.43894e-15 
-7.54502 -3.247 -1.1715e-15 
-7.25644 -3.28786 -1.5628e-15 
-6.97068 -3.33827 -2.19235e-15 
-6.66327 -3.33426 -3.24202e-15 
-6.34697 -3.33863 -4.45484e-15 
-6.03377 -3.32477 -5.40041e-15 
-5.72169 -3.31875 -6.3048e-15 
-5.41496 -3.30724 -7.22312e-15 
-5.11419 -3.2949 -8.31315e-15 
-4.81416 -3.35116 -1.11817e-14 
-4.5113 -3.32208 -1.3954e-14 
-4.21321 -3.32626 -1.72769e-14 
-3.90802 -3.35325 -2.32595e-14 
-3.60226 -3.36993 -3.17867e-14 
-3.28923 -3.35993 -4.08396e-14 
-2.98163 -3.34445 -4.8772e-14 
-2.66439 -3.31905 -5.40275e-14 
-2.37036 -3.32525 -6.07093e-14 
-2.06831 -3.3529 -8.00406e-14 
-1.76085 -3.33785 -7.96199e-14 
-1.45226 -3.32142 -7.17027e-14 
-1.13199 -3.31462 -4.77632e-14 
-0.853449 -3.26082 3.02922e-14 
-0.566015 -3.22932 1.14163e-13 
-0.268284 -3.24842 -2.72212e-14 
0.0428798 -3.22112 -5.3331e-14 
0.277425 -3.04704 -1.36538e-13 
0.534731 -3.24156 2.01005e-14 
0.850951 -3.26305 2.45621e-14 
1.15554 -3.27233 8.43165e-15 
1.4487 -3.31611 8.80035e-14 
1.75776 -3.32034 6.81369e-14 
2.05409 -3.35599 8.02488e-14 
2.35963 -3.42242 8.29275e-14 
2.66511 -3.37203 6.3626e-14 
2.97747 -3.407 5.52436e-14 
3.27977 -3.33418 3.82055e-14 
3.59096 -3.32273 2.82203e-14 
3.88756 -3.34841 2.31802e-14 
4.18522 -3.32016 1.69933e-14 
4.48505 -3.30601 1.31473e-14 
4.78325 -3.33131 1.14529e-14 
5.08592 -3.33376 9.55322e-15 
5.39699 -3.33713 7.73856e-15 
5.70366 -3.31019 5.86221e-15 
6.0124 -3.30515 4.92626e-15 
6.30876 -3.29749 3.99914e-15 
6.60915 -3.30857 3.53862e-15 
6.90804 -3.27665 2.71025e-15 
7.21191 -3.32708 2.46804e-15 
7.51377 -3.32002 1.62649e-15 
7.82556 -3.32884 7.37863e-16 
8.13638 -3.28368 -2.18759e-16 
8.44545 -3.27416 -1.18877e-15 
8.75594 -3.30708 -2.73708e-15 
9.06457 -3.38813 -4.04943e-15 
9.36104 -3.32278 -5.67529e-15 
9.68906 -3.27297 -7.57735e-15 
10.0116 -3.36687 -1.14063e-14 
10.3129 -3.28571 -1.14765e-14 
10.6292 -3.43843 -1.92928e-14 
10.959 -3.32348 -1.63458e-14 
11.3119 -3.2938 -8.6887e-15 
11.6494 -3.3428 -9.21801e-15 
12 -3.33045 1.9745e-11 
-12 -3.11408 -1.42805e-11 
-11.6384 -3.03706 -2.40159e-15 
-11.2925 -2.9635 -7.05063e-15 
-10.9507 -2.98028 1.42266e-15 
-10.6142 -2.97891 2.75339e-15 
-10.2865 -3.03483 4.29372e-15 
-9.96512 -2.96399 4.50511e-15 
-9.63778 -2.95245 5.02858e-15 
-9.32371 -2.96607 4.74433e-15 
-9.00661 -2.97338 2.69581e-15 
-8.71211 -2.95956 1.49706e-15 
-8.44223 -3.04738 8.39906e-16 
-8.14274 -3.00521 1.06376e-16 
-7.84593 -2.95424 -3.19582e-16 
-7.53297 -2.92415 -3.38317e-16 
-7.22434 -2.95256 -6.76236e-16 
-6.92952 -3.00518 -1.41965e-15 
-6.61744 -3.00999 -1.38349e-15 
-6.31156 -3.00399 -1.64443e-15 
-6.00333 -2.99101 -2.18733e-15 
-5.69857 -2.98154 -2.69557e-15 
-5.39563 -2.96883 -3.21088e-15 
-5.09268 -2.96355 -3.80133e-15 
-4.7935 -3.01752 -5.71451e-15 
-4.49369 -2.9884 -5.77405e-15 
-4.20074 -2.99202 -7.62848e-15 
-3.9084 -3.03126 -1.21577e-14 
-3.60155 -3.04852 -1.48119e-14 
-3.29848 -3.03158 -1.98353e-14 
-2.97781 -3.02521 -2.47366e-14 
-2.68021 -2.97894 -2.81301e-14 
-2.36898 -2.97535 -3.62576e-14 
-2.06997 -3.02952 -2.83928e-14 
-1.75434 -3.01204 -1.34345e-14 
-1.42252 -2.9953 -3.41913e-15 
-1.13635 -2.91647 3.12648e-14 
-0.835752 -2.8519 4.09489e-14 
-0.525459 -2.84109 3.29205e-14 
-0.219623 -2.85449 -1.99287e-13 
0.0512422 -2.74441 2.52893e-13 
0.306408 -2.49963 -1.35664e-13 
0.519659 -2.81211 1.67392e-14 
0.817113 -2.88768 3.23432e-14 
1.13598 -2.91558 2.44894e-14 
1.45546 -2.94548 -1.82703e-16 
1.74591 -2.98426 4.98357e-14 
2.0667 -3.0118 3.29501e-14 
2.36333 -3.0981 4.52042e-14 
2.67033 -3.03662 3.37743e-14 
2.96609 -3.08223 2.77022e-14 
3.26461 -3.0009 1.84159e-14 
3.56765 -3.00247 1.47142e-14 
3.87976 -3.01227 1.13861e-14 
4.17729 -2.98727 8.52707e-15 
4.47906 -2.97744 6.13694e-15 
4.78122 -2.99365 4.9129e-15 
5.07814 -2.99752 3.9402e-15 
5.37786 -3.00695 3.14586e-15 
5.6801 -2.9774 2.35174e-15 
5.98386 -2.97905 1.88376e-15 
6.29386 -2.95468 1.8342e-15 
6.59046 -2.97043 1.49706e-15 
6.91143 -2.95854 1.00462e-15 
7.22782 -2.98946 8.26266e-16 
7.5248 -2.97713 5.41318e-16 
7.82417 -2.99518 2.41849e-16 
8.13639 -2.95908 -3.62185e-16 
8.43376 -2.93515 -7.299e-16 
8.73462 -2.97079 -1.34555e-15 
9.04895 -3.0402 -3.50018e-15 
9.37774 -2.99763 -4.72843e-15 
9.66716 -2.91377 -4.75385e-15 
9.97417 -3.01799 -4.17741e-15 
10.3021 -2.95419 -2.7283e-15 
10.6382 -3.09189 -6.99154e-15 
10.9915 -2.99878 -1.09615e-15 
11.3266 -2.95392 6.22223e-15 
11.6603 -3.02202 -6.61418e-16 
12 -2.99665 1.81484e-11 
-12 -2.80422 -1.48161e-11 
-11.656 -2.71213 -3.4859e-15 
-11.3248 -2.62339 -9.52888e-15 
-10.9794 -2.64843 -3.85483e-15 
-10.639 -2.6479 -8.36038e-16 
-10.3018 -2.69827 5.16528e-16 
-9.96949 -2.64134 2.65045e-15 
-9.6385 -2.63441 2.89757e-15 
-9.30965 -2.63519 2.89535e-15 
-9.0074 -2.62282 1.80006e-15 
-8.68862 -2.63487 9.76216e-16 
-8.36973 -2.68407 4.34227e-16 
-8.07273 -2.64794 1.13143e-16 
-7.75926 -2.62745 -1.95432e-16 
-7.43403 -2.61365 7.85279e-15 
-7.12667 -2.6385 -2.95177e-16 
-6.83063 -2.68829 -7.91095e-16 
-6.5256 -2.67699 -4.57536e-16 
-6.22214 -2.66985 -6.93149e-16 
-5.91893 -2.65592 -1.20713e-15 
[...]
POINT_DATA 1978 
VECTORS vectors float
0.000496219 -0.00224319 0.999997 
0.0015694 -0.060834 0.998147 
0.00116866 -0.062137 0.998067 
0.00151766 -0.0533827 0.998573 
0.00170853 -0.0417313 0.999127 
0.00166294 -0.0268748 0.999637 
0.00126256 -0.0166397 0.999861 
0.00123346 -0.00943021 0.999955 
0.00134256 -0.0042063 0.99999 
0.0015556 -0.00171225 0.999997 
0.00178667 -0.00118496 0.999998 
0.00159033 -0.00170082 0.999997 
0.00125075 -0.00145538 0.999998 
0.00107285 5.13883e-05 0.999999 
0.00100869 0.00200824 0.999997 
0.00107999 0.00486199 0.999988 
0.00110626 0.00754801 0.999971 
0.00113066 0.00911832 0.999958 
0.0012127 0.0103117 0.999946 
0.00118254 0.0117526 0.99993 
0.00116973 0.0140975 0.9999 
0.00114829 0.0175607 0.999845 
0.00110712 0.0218139 0.999761 
0.00120017 0.0263933 0.999651 
0.0012226 0.0322277 0.99948 
0.00125642 0.0389266 0.999241 
0.00129654 0.0482337 0.998835 
0.00120792 0.0607251 0.998154 
0.0011084 0.079064 0.996869 
0.000995238 0.103798 0.994598 
0.000925135 0.137745 0.990467 
0.000838551 0.183244 0.983067 
0.000769633 0.243936 0.969791 
0.000672539 0.318836 0.94781 
0.000568564 0.415029 0.909808 
0.000428155 0.538906 0.842366 
0.00029073 0.677296 0.735711 
0.00014738 0.834904 0.550395 
5.41289e-05 0.958386 0.285475 
2.86871e-05 0.999352 -0.0360004 
-1.16952e-05 0.947932 -0.318472 
-0.000115175 0.833501 -0.552518 
-0.000261651 0.691511 -0.722366 
-0.000386845 0.556448 -0.830882 
-0.000548117 0.437739 -0.899102 
-0.000665175 0.336973 -0.941514 
-0.000806343 0.25651 -0.966541 
-0.000991783 0.190857 -0.981617 
-0.00108248 0.138499 -0.990362 
-0.00120812 0.103147 -0.994665 
-0.00118965 0.0759739 -0.997109 
-0.00111014 0.0600255 -0.998196 
-0.00116673 0.0478929 -0.998852 
-0.00114375 0.0384405 -0.99926 
-0.00113106 0.0317163 -0.999496 
-0.0011932 0.0264773 -0.999649 
-0.00120024 0.022138 -0.999754 
-0.00119951 0.0187649 -0.999823 
-0.00115145 0.0157132 -0.999876 
-0.00110509 0.012917 -0.999916 
-0.00107488 0.0102336 -0.999947 
-0.00111355 0.00777545 -0.999969 
-0.00106459 0.00576643 -0.999983 
-0.00115619 0.00469677 -0.999988 
-0.00116784 0.0039403 -0.999992 
-0.00113961 0.00324944 -0.999994 
-0.00112835 0.0021593 -0.999997 
-0.00108502 0.000618481 -0.999999 
-0.00104915 -0.00117204 -0.999999 
-0.0012602 -0.00370401 -0.999992 
-0.00135298 -0.00786492 -0.999968 
-0.00122333 -0.0130659 -0.999914 
-0.00148618 -0.0183028 -0.999831 
-0.00165755 -0.0278858 -0.99961 
-0.00240177 -0.0382421 -0.999266 
-0.00227231 -0.0544485 -0.998514 
-0.00128528 -0.06371 -0.997968 
-0.00159296 -0.060993 -0.998137 
-0.000742747 -0.00160613 -0.999998 
0.00017003 0.00142602 0.999999 
0.024891 -0.0508692 0.998395 
0.030557 -0.0570373 0.997904 
0.0315633 -0.0516456 0.998167 
0.0327221 -0.0412874 0.998611 
0.0320301 -0.0304945 0.999022 
0.0359069 -0.0198187 0.999159 
0.0384051 -0.0119802 0.99919 
0.0385838 -0.0064605 0.999234 
0.0391837 -0.003261 0.999227 
0.0378477 -0.0017448 0.999282 
0.0371952 -0.001337 0.999307 
0.0395385 -0.000820768 0.999218 
0.0422678 0.000633844 0.999106 
0.0437452 0.0025307 0.99904 
0.040809 0.00456886 0.999157 
0.0396132 0.0068252 0.999192 
0.0402207 0.0085576 0.999154 
0.0400141 0.00997723 0.999149 
0.0404908 0.011591 0.999113 
0.0405325 0.0139459 0.999081 
0.0409212 0.0170872 0.999016 
0.0411359 0.0208681 0.998936 
0.0394021 0.0259431 0.998887 
0.0409614 0.0312024 0.998673 
0.0401951 0.0378408 0.998475 
0.038165 0.0465882 0.998185 
0.037946 0.0590679 0.997532 
0.036392 0.0767181 0.996388 
0.0351429 0.101985 0.994165 
0.0325497 0.135413 0.990254 
0.0296161 0.181159 0.983008 
0.025894 0.243342 0.969595 
0.0222607 0.324647 0.945573 
0.0178243 0.430109 0.902601 
0.013659 0.555635 0.831314 
0.00905509 0.711975 0.702147 
0.00647628 0.854216 0.519878 
0.00423379 0.960527 0.278154 
0.00235199 0.999989 -0.00394999 
-0.000991558 0.955034 -0.296494 
-0.00442406 0.842646 -0.53845 
-0.00813258 0.697789 -0.716257 
-0.0133131 0.547567 -0.836656 
-0.018037 0.419819 -0.907429 
-0.0225173 0.315979 -0.948499 
-0.0261804 0.2344 -0.971788 
-0.0289924 0.17046 -0.984938 
-0.0325259 0.124348 -0.991705 
-0.0339911 0.0920473 -0.995174 
-0.0382213 0.069794 -0.996829 
-0.0386996 0.0549483 -0.997739 
-0.0387625 0.0435605 -0.998299 
-0.0405079 0.0351484 -0.998561 
-0.0406959 0.0289054 -0.998753 
-0.0397324 0.0239879 -0.998922 
-0.0401212 0.0200454 -0.998994 
-0.0400406 0.0168535 -0.999056 
-0.0413599 0.0140409 -0.999046 
-0.0412104 0.0115505 -0.999084 
-0.0415292 0.00922746 -0.999095 
-0.0411484 0.00719473 -0.999127 
-0.0429931 0.00568344 -0.999059 
-0.0400814 0.00454583 -0.999186 
-0.0409157 0.00371076 -0.999156 
-0.0405134 0.00277867 -0.999175 
-0.0413909 0.00151871 -0.999142 
-0.0431673 -0.000102357 -0.999068 
-0.0408589 -0.00227997 -0.999162 
-0.0370253 -0.00546982 -0.999299 
-0.0373534 -0.00986131 -0.999253 
-0.0399553 -0.0148304 -0.999091 
-0.0345665 -0.0215753 -0.999169 
-0.0348572 -0.0303659 -0.998931 
-0.0294858 -0.0428676 -0.998646 
-0.0336951 -0.0516792 -0.998095 
-0.0312499 -0.0572015 -0.997873 
-0.0256668 -0.0496599 -0.998436 
-7.32683e-05 0.000747847 -1 
-0.000246539 -0.000122661 1 
0.02653 -0.048706 0.998461 
0.032687 -0.0552901 0.997935 
0.0362765 -0.0493624 0.998122 
0.0387566 -0.0398392 0.998454 
0.0406351 -0.0304689 0.998709 
0.0429818 -0.0216436 0.998841 
0.0449419 -0.0139392 0.998892 
0.0460413 -0.00790463 0.998908 
0.0475927 -0.00427338 0.998858 
0.0481456 -0.00227832 0.998838 
0.0486178 -0.00122714 0.998817 
0.0491063 -0.000403539 0.998793 
0.0493558 0.000880005 0.998781 
0.0492372 0.00262428 0.998784 
0.0496033 0.0043535 0.99876 
0.0495923 0.00611919 0.998751 
0.0495527 0.00772321 0.998742 
0.0493257 0.00918817 0.99874 
0.0492251 0.0107699 0.99873 
0.0491087 0.0128501 0.998711 
0.0491184 0.0155499 0.998672 
0.0491082 0.0188548 0.998615 
0.0492564 0.0233187 0.998514 
0.0493905 0.0281452 0.998383 
0.0488303 0.0343304 0.998217 
0.048346 0.0430069 0.997904 
0.0471674 0.054318 0.997409 
0.0453225 0.0707592 0.996463 
0.0425884 0.0939793 0.994663 
0.0387743 0.128085 0.991005 
0.0351862 0.173709 0.984168 
0.0311911 0.235861 0.971286 
0.026031 0.318994 0.947399 
0.0204694 0.428211 0.903447 
0.01506 0.573936 0.818761 
0.0106871 0.719172 0.69475 
0.00744566 0.855044 0.518502 
0.0050488 0.960168 0.279377 
0.00215205 0.999773 -0.0211882 
-0.000242867 0.958867 -0.283855 
-0.00491204 0.851781 -0.523875 
-0.00978005 0.708207 -0.705937 
-0.014847 0.560394 -0.828093 
-0.0206068 0.425434 -0.904755 
-0.0262164 0.318565 -0.947538 
-0.0314223 0.236988 -0.971004 
-0.0360661 0.174517 -0.983993 
-0.0398791 0.128572 -0.990898 
-0.0427522 0.0955946 -0.994502 
-0.0453962 0.0727689 -0.996315 
-0.0469864 0.0558797 -0.997331 
-0.0480828 0.0443926 -0.997856 
-0.0487114 0.0354043 -0.998185 
-0.0488861 0.0285978 -0.998395 
-0.0490946 0.0237251 -0.998512 
-0.0492506 0.0197974 -0.99859 
-0.0493707 0.0166354 -0.998642 
-0.0492042 0.0137902 -0.998694 
-0.0493698 0.0113999 -0.998716 
-0.0494018 0.00932545 -0.998735 
-0.0494146 0.0074905 -0.99875 
-0.0496708 0.00602385 -0.998747 
-0.0497663 0.00482301 -0.998749 
-0.0495316 0.00381765 -0.998765 
-0.0494483 0.00277601 -0.998773 
-0.0493251 0.00142045 -0.998782 
-0.0491933 -0.000462043 -0.998789 
-0.0486888 -0.00295185 -0.99881 
-0.0472922 -0.00599003 -0.998863 
-0.0467565 -0.0100711 -0.998856 
-0.0454832 -0.0159969 -0.998837 
-0.0434773 -0.0229266 -0.998791 
-0.0418272 -0.0310936 -0.998641 
-0.0394524 -0.0394729 -0.998441 
-0.0382377 -0.0490802 -0.998063 
-0.0344586 -0.0553185 -0.997874 
-0.0284919 -0.0491589 -0.998385 
-0.000182038 -0.000588676 -1 
0.000557494 -0.000989519 0.999999 
0.0232934 -0.049579 0.998499 
0.0282828 -0.0565855 0.997997 
0.032033 -0.0495798 0.998256 
0.0352846 -0.0406754 0.998549 
0.0386387 -0.0305998 0.998785 
0.0399932 -0.0216936 0.998964 
0.0416908 -0.0135991 0.999038 
0.0437153 -0.00795016 0.999012 
0.0447196 -0.00439326 0.99899 
0.0452025 -0.00233255 0.998975 
0.0470616 -0.000993082 0.998891 
0.0466625 0.00022461 0.998911 
0.0460388 0.0015899 0.998938 
0.0454537 0.00319961 0.998961 
0.0460107 0.004723 0.99893 
0.0471461 0.00616099 0.998869 
0.0469318 0.00767632 0.998869 
0.0464939 0.00909003 0.998877 
0.0463253 0.0106678 0.998869 
0.0462387 0.0126076 0.998851 
0.0461848 0.0150899 0.998819 
0.0462962 0.0182665 0.998761 
0.0468852 0.0222175 0.998653 
0.0463652 0.0272048 0.998554 
0.046347 0.033636 0.998359 
0.0463327 0.0418681 0.998048 
0.0449913 0.0536341 0.997547 
0.042961 0.069879 0.99663 
0.0400924 0.0945778 0.99471 
0.0361445 0.12693 0.991253 
0.0318055 0.173271 0.984361 
0.028284 0.237859 0.970888 
0.0230133 0.327568 0.944547 
0.0178711 0.44885 0.893428 
0.0134721 0.578908 0.815282 
0.00997928 0.7188 0.695146 
0.00634318 0.873901 0.486063 
0.00318198 0.972172 0.234248 
-1.17459e-05 0.999994 -0.00338845 
-0.00336351 0.963485 -0.26774 
-0.00361269 0.865377 -0.501109 
-0.00815357 0.720603 -0.693299 
-0.0133045 0.568098 -0.822853 
-0.0181121 0.431133 -0.902107 
-0.0233579 0.321414 -0.946651 
-0.0288094 0.235775 -0.971381 
-0.0342812 0.173965 -0.984155 
-0.0373938 0.127949 -0.991076 
-0.0410222 0.096269 -0.99451 
-0.0424593 0.0731652 -0.996416 
-0.0441083 0.0558186 -0.997466 
-0.0453811 0.0430713 -0.998041 
-0.0459913 0.0342618 -0.998354 
-0.0463602 0.0276986 -0.998541 
-0.0466439 0.0226928 -0.998654 
-0.0466688 0.0188748 -0.998732 
-0.0465956 0.0158342 -0.998788 
-0.0464406 0.0133729 -0.998832 
-0.0463125 0.0111872 -0.998864 
-0.0460038 0.00921469 -0.998899 
-0.0459766 0.00760115 -0.998914 
-0.0460592 0.00622296 -0.998919 
-0.0464089 0.00497034 -0.99891 
-0.0466415 0.00393658 -0.998904 
-0.0467129 0.00274061 -0.998905 
-0.0463237 0.00126009 -0.998926 
-0.0452663 -0.000591291 -0.998975 
-0.0455228 -0.00292623 -0.998959 
-0.0460319 -0.00609242 -0.998921 
-0.0440275 -0.010578 -0.998974 
-0.0413179 -0.0161503 -0.999016 
-0.0410979 -0.0232797 -0.998884 
-0.0379694 -0.0323472 -0.998755 
-0.0377904 -0.0408692 -0.99845 
-0.0332416 -0.0505209 -0.99817 
-0.0290908 -0.0561245 -0.998 
-0.0241108 -0.0477081 -0.99857 
-0.000463302 -0.000536441 -1 
0.00147445 -0.0054886 0.999984 
0.0188196 -0.0509189 0.998525 
0.0232968 -0.0593693 0.997964 
0.0268188 -0.0531113 0.998228 
0.0295247 -0.0436715 0.99861 
0.0328477 -0.0331763 0.99891 
0.0343818 -0.0237198 0.999127 
0.0361285 -0.0153813 0.999229 
0.0374443 -0.00905862 0.999258 
0.0380179 -0.00529588 0.999263 
0.0388584 -0.00254184 0.999241 
0.0400525 -0.000571052 0.999197 
0.0396965 0.000998836 0.999211 
0.0395009 0.00255734 0.999216 
0.0390154 0.00417492 0.99923 
0.0398197 0.00553803 0.999192 
0.0410159 0.00676593 0.999136 
0.04015 0.00810085 0.999161 
0.0398482 0.00946021 0.999161 
0.0398051 0.0109983 0.999147 
0.0398597 0.0129112 0.999122 
0.0398809 0.0153557 0.999086 
0.0402279 0.0185774 0.999018 
0.0410947 0.0224603 0.998903 
0.0403134 0.027582 0.998806 
0.0403449 0.0343684 0.998595 
0.0406335 0.0431878 0.99824 
0.0389279 0.0554539 0.997702 
0.0371463 0.073775 0.996583 
0.0337052 0.097009 0.994713 
0.0298323 0.134055 0.990525 
0.0258327 0.185039 0.982392 
0.0230422 0.249445 0.968115 
0.0182953 0.352732 0.935546 
0.0140321 0.465065 0.885165 
0.0110799 0.592304 0.805638 
0.00895659 0.776548 0.629995 
0.00413351 0.901683 0.432378 
0.00365203 0.938252 0.345933 
-0.00155676 0.998545 0.0538934 
-0.00541221 0.968783 -0.247852 
-0.00789765 0.85692 -0.515389 
-0.00812775 0.72429 -0.689447 
-0.0115912 0.568652 -0.822497 
-0.0156058 0.421266 -0.906803 
-0.0197765 0.309629 -0.950652 
-0.0243868 0.231386 -0.972556 
-0.0297752 0.168659 -0.985225 
-0.031804 0.124933 -0.991655 
-0.0354631 0.0930385 -0.995031 
-0.0367862 0.0685685 -0.996968 
-0.0388675 0.0516689 -0.997908 
-0.0398485 0.0401831 -0.998397 
-0.0401853 0.0316477 -0.998691 
-0.0402728 0.0253829 -0.998866 
-0.0405135 0.0208494 -0.998961 
-0.0404271 0.0173758 -0.999031 
-0.0403502 0.0146879 -0.999078 
-0.0397811 0.0124479 -0.999131 
-0.0398787 0.0105579 -0.999149 
-0.0391276 0.00894036 -0.999194 
-0.0398697 0.0074692 -0.999177 
-0.0394929 0.00620073 -0.999201 
-0.0396087 0.00514796 -0.999202 
-0.0397972 0.00402747 -0.9992 
-0.0403126 0.0027182 -0.999183 
-0.0396736 0.0011163 -0.999212 
-0.0386221 -0.000926227 -0.999253 
-0.0388614 -0.00346731 -0.999239 
-0.0403049 -0.00656365 -0.999166 
-0.0374821 -0.0108047 -0.999239 
-0.0350164 -0.0172229 -0.999238 
-0.0350748 -0.0249646 -0.999073 
-0.0318798 -0.0347426 -0.998888 
-0.0319739 -0.0431279 -0.998558 
-0.0269897 -0.0526803 -0.998247 
-0.0228666 -0.0576609 -0.998074 
-0.0186245 -0.0473603 -0.998704 
-0.000278266 -0.000732708 -1 
0.00148934 -0.00575189 0.999982 
0.0111303 -0.0410627 0.999095 
0.0179318 -0.0580116 0.998155 
0.0212506 -0.0584607 0.998064 
0.0234107 -0.0501454 0.998468 
0.0260582 -0.0397211 0.998871 
0.0278522 -0.030232 0.999155 
0.02889 -0.0204942 0.999372 
0.0300997 -0.012731 0.999466 
0.0304362 -0.0077021 0.999507 
0.0310164 -0.00401188 0.999511 
0.0321362 -0.00127823 0.999483 
0.03188 0.000627192 0.999492 
0.0317891 0.00237281 0.999492 
0.031951 0.00394465 0.999482 
0.0316643 0.00542905 0.999484 
0.0322172 0.00659356 0.999459 
0.0326905 0.00764487 0.999436 
0.0320064 0.00886229 0.999448 
0.0318833 0.010163 0.99944 
0.0320847 0.0117116 0.999417 
0.0321628 0.0136593 0.999389 
0.0325925 0.0162548 0.999337 
0.0327907 0.0195703 0.999271 
0.0335143 0.0236504 0.999158 
0.0331042 0.0295596 0.999015 
0.0332931 0.0374127 0.998745 
0.0329439 0.0470436 0.998349 
0.0317993 0.062123 0.997562 
0.0285719 0.0807095 0.996328 
0.0257378 0.11104 0.993483 
0.0217175 0.156573 0.987428 
0.0181877 0.225263 0.974128 
0.016363 0.301957 0.953181 
0.0119213 0.403571 0.914871 
0.0083403 0.549414 0.835509 
0.0063768 0.719986 0.693959 
0.00164122 0.841019 0.541002 
-0.00107397 0.995812 0.0914227 
-0.00484598 0.996956 -0.0778176 
-0.00603767 0.963466 -0.267764 
-0.00632248 0.957089 -0.289726 
-0.00903624 0.848288 -0.529458 
-0.00894002 0.637299 -0.770565 
-0.0105913 0.484244 -0.874869 
-0.0135202 0.343735 -0.938969 
-0.0172455 0.245715 -0.969189 
-0.0231242 0.179292 -0.983524 
-0.0245151 0.134221 -0.990648 
-0.028184 0.0982797 -0.99476 
-0.0300952 0.0736791 -0.996828 
-0.0317618 0.0537664 -0.998048 
-0.0325261 0.0411482 -0.998623 
-0.0330317 0.0322798 -0.998933 
-0.0329868 0.0256345 -0.999127 
-0.0329271 0.020785 -0.999242 
-0.0327522 0.0172774 -0.999314 
-0.0325934 0.0146304 -0.999362 
-0.0322328 0.0125629 -0.999401 
-0.0321111 0.0107923 -0.999426 
-0.0312451 0.00933133 -0.999468 
-0.0320126 0.00796026 -0.999456 
-0.032157 0.00679698 -0.99946 
-0.0312628 0.00572011 -0.999495 
-0.0318208 0.00460316 -0.999483 
-0.0320036 0.00319232 -0.999483 
-0.0316715 0.00152882 -0.999497 
-0.0306668 -0.000586892 -0.999529 
-0.0307968 -0.00330186 -0.99952 
-0.0324408 -0.00677893 -0.999451 
-0.0303165 -0.0117531 -0.999471 
-0.0280743 -0.0185968 -0.999433 
-0.0284337 -0.0270121 -0.999231 
-0.0254128 -0.0373098 -0.998981 
-0.0257819 -0.045701 -0.998622 
-0.0211053 -0.055068 -0.99826 
-0.0173382 -0.0597631 -0.998062 
-0.0143527 -0.0495738 -0.998667 
-0.000241893 -0.00069561 -1 
0.000440146 -0.00140334 0.999999 
0.0126414 -0.0512577 0.998605 
0.0168117 -0.061619 0.997958 
0.0178061 -0.0562778 0.998256 
0.0196191 -0.0468174 0.998711 
0.0205309 -0.0371267 0.9991 
0.0220881 -0.0272934 0.999383 
0.0226392 -0.0180089 0.999581 
0.0228188 -0.0114622 0.999674 
0.0233775 -0.00658131 0.999705 
0.0242331 -0.00284218 0.999702 
0.0239189 -0.000328652 0.999714 
0.0239423 0.00180073 0.999712 
0.024051 0.00360431 0.999704 
0.024434 0.00506471 0.999689 
0.0236352 0.00635064 0.9997 
0.023684 0.00735708 0.999692 
0.0244675 0.00831614 0.999666 
0.0238242 0.00944701 0.999672 
0.0239869 0.0107042 0.999655 
0.0242751 0.0122276 0.999631 
0.0247576 0.0142811 0.999591 
0.0249802 0.0169733 0.999544 
0.0249629 0.0204738 0.999479 
0.0261857 0.025276 0.999337 
0.0260003 0.0323566 0.999138 
0.025235 0.0411045 0.998836 
0.0256602 0.0537846 0.998223 
0.0225964 0.0696329 0.997317 
0.0205363 0.0976347 0.99501 
0.0172441 0.141952 0.989723 
0.0142315 0.213806 0.976772 
0.0108834 0.318888 0.94773 
0.0076485 0.45752 0.889167 
0.00469119 0.613935 0.789343 
0.00414681 0.659578 0.751625 
0.00478147 0.923487 0.3836 
0.00254161 0.950592 0.310434 
-0.00199112 0.974456 0.22457 
-0.00440626 0.998411 0.0561794 
-0.00705228 0.998006 -0.062727 
-0.0123594 0.957218 -0.289102 
-0.0101148 0.864557 -0.502433 
-0.00929055 0.72209 -0.691736 
-0.00786352 0.515802 -0.856672 
-0.00885728 0.387468 -0.921841 
-0.0111484 0.273162 -0.961903 
-0.0162167 0.184331 -0.98273 
-0.0186875 0.127854 -0.991617 
-0.0214763 0.0924542 -0.995485 
-0.0242568 0.0660155 -0.997524 
-0.0247935 0.0491556 -0.998483 
-0.0252755 0.0377082 -0.998969 
-0.025691 0.0295758 -0.999232 
-0.0255061 0.0235659 -0.999397 
-0.0251319 0.0192257 -0.999499 
-0.0248099 0.0160564 -0.999563 
-0.024508 0.0137415 -0.999605 
-0.0245408 0.0118774 -0.999628 
-0.0238403 0.0104364 -0.999661 
-0.0238465 0.00909495 -0.999674 
-0.023949 0.00799568 -0.999681 
-0.0242882 0.00693605 -0.999681 
-0.0231571 0.00596328 -0.999714 
-0.0240523 0.00473281 -0.9997 
-0.023646 0.003299 -0.999715 
-0.023519 0.00140907 -0.999722 
-0.022749 -0.001004 -0.999741 
-0.0229716 -0.00399264 -0.999728 
-0.0249111 -0.00746732 -0.999662 
-0.0228679 -0.012552 -0.99966 
-0.0211055 -0.0198408 -0.99958 
-0.0216977 -0.0287662 -0.999351 
-0.0190371 -0.0393058 -0.999046 
-0.0195288 -0.0483857 -0.998638 
-0.0154538 -0.0572243 -0.998242 
-0.0124944 -0.0615957 -0.998023 
-0.0102509 -0.0498543 -0.998704 
-0.000127652 -0.000583521 -1 
3.46143e-05 -1.99139e-05 1 
0.011198 -0.0527672 0.998544 
0.0138386 -0.0631703 0.997907 
0.0137525 -0.0589454 0.998166 
0.0147444 -0.0502225 0.998629 
0.0147756 -0.0399639 0.999092 
0.0157844 -0.0300618 0.999423 
0.0165438 -0.0209731 0.999643 
0.0163361 -0.0135528 0.999775 
0.0167946 -0.00814556 0.999826 
0.0177572 -0.00394317 0.999835 
0.0170319 -0.00081753 0.999855 
0.0171564 0.00162701 0.999851 
0.0172539 0.00365446 0.999844 
0.0174853 0.0052088 0.999834 
0.0170866 0.00643773 0.999833 
0.0164371 0.0075286 0.999837 
0.0169921 0.00839503 0.99982 
0.0170605 0.00929226 0.999811 
0.0170324 0.0103754 0.999801 
0.0173221 0.0116391 0.999782 
0.0180469 0.0133392 0.999748 
0.0183173 0.0156891 0.999709 
0.0182586 0.0188538 0.999656 
0.0191126 0.0233342 0.999545 
0.0199945 0.0293929 0.999368 
0.0187629 0.0375411 0.999119 
0.0190525 0.049886 0.998573 
0.0168908 0.0663578 0.997653 
0.0155831 0.0922876 0.99561 
0.01309 0.134496 0.990828 
0.0109198 0.204174 0.978874 
0.00871575 0.300949 0.9536 
0.00596441 0.431862 0.90192 
0.00584963 0.632213 0.774772 
0.00207329 0.826471 0.562975 
0.00290312 0.982719 0.185079 
0.0051748 0.993388 0.114685 
0.00430337 0.995552 0.0941178 
0.0028139 0.998087 0.0617603 
0.00204397 0.999895 0.0143669 
-0.000619894 0.997715 -0.0675556 
-0.0113475 0.876596 -0.481093 
-0.00917555 0.629175 -0.777209 
-0.00692812 0.574754 -0.818297 
-0.00677687 0.434829 -0.900488 
-0.00741033 0.319911 -0.947419 
-0.0106795 0.207542 -0.978168 
-0.0130552 0.143573 -0.989554 
-0.0150153 0.0973591 -0.995136 
-0.0177917 0.0705203 -0.997352 
-0.0182347 0.0517858 -0.998492 
-0.0186196 0.0392092 -0.999058 
-0.0189954 0.0305378 -0.999353 
-0.0189964 0.0243523 -0.999523 
-0.0185574 0.0197089 -0.999634 
-0.018113 0.0163167 -0.999703 
-0.0175825 0.0138639 -0.999749 
-0.0178721 0.0121824 -0.999766 
-0.0169263 0.0107311 -0.999799 
-0.0175567 0.00963576 -0.999799 
-0.0167908 0.00854839 -0.999822 
-0.017247 0.00763576 -0.999822 
-0.016692 0.00670808 -0.999838 
-0.0171057 0.00543038 -0.999839 
-0.0167626 0.00394397 -0.999852 
-0.0167245 0.00187548 -0.999858 
-0.0162893 -0.000753854 -0.999867 
-0.0162695 -0.00407793 -0.999859 
-0.0176759 -0.00822585 -0.99981 
-0.01639 -0.0139491 -0.999768 
-0.0147462 -0.0214273 -0.999662 
-0.0156908 -0.0298094 -0.999432 
-0.0133828 -0.0399793 -0.999111 
-0.0140228 -0.0494535 -0.998678 
-0.0110287 -0.0585984 -0.998221 
-0.00896006 -0.0632834 -0.997955 
-0.00714798 -0.0503948 -0.998704 
-0.000102942 -0.00038799 -1 
4.18774e-05 0.000316257 1 
0.00879842 -0.0523892 0.998588 
0.0105412 -0.0637518 0.99791 
0.0103631 -0.0604725 0.998116 
0.0106677 -0.0510803 0.998638 