# vtk DataFile Version 3.0 
Exported using Morpho https://github.com/Morpho-lang/morpho 
ASCII 
DATASET UNSTRUCTURED_GRID 

POINTS 1978 float 
-12 -4 -8.03426e-16 
-11.6809 -4 5.95883e-15 
-11.3529 -4 6.6568e-15 
-11.019 -4 5.88165e-15 
-10.6873 -4 5.44914e-15 
-10.289 -4 3.98884e-15 
-9.97139 -4 1.99449e-15 
-9.68155 -4 1.11696e-15 
-9.36829 -4 5.37407e-16 
-9.05148 -4 2.19324e-16 
-8.69065 -4 2.06171e-16 
-8.31218 -4 2.69189e-16 
-7.99282 -4 1.88357e-16 
-7.72307 -4 1.60429e-17 
-7.47874 -4 -2.3161e-16 
-7.2022 -4 -5.9373e-16 
-6.90591 -4 -1.00153e-15 
-6.60389 -4 -1.59647e-15 
-6.29504 -4 -3.56202e-16 
-5.97784 -4 -1.53527e-15 
-5.67017 -4 -2.00964e-15 
-5.36549 -4 -2.16946e-15 
-5.06884 -4 -7.64302e-15 
-4.77831 -4 6.88241e-16 
-4.45268 -4 -3.6713e-15 
-4.14643 -4 -5.63134e-15 
-3.81467 -4 -7.14742e-15 
-3.49127 -4 -8.04734e-15 
-3.17564 -4 -8.93007e-15 
-2.8811 -4 -9.27008e-15 
-2.5918 -4 -1.23253e-14 
-2.30986 -4 -1.23624e-14 
-2.03108 -4 -1.43739e-14 
-1.75544 -4 -1.1221e-14 
-1.48197 -4 -1.24956e-14 
-1.19534 -4 -1.03563e-14 
-0.913504 -4 -7.64528e-15 
-0.59953 -4 -5.58127e-15 
-0.287004 -4 4.02893e-15 
0.0330629 -4 1.41507e-14 
0.31811 -4 -2.26826e-14 
0.600013 -4 5.13983e-15 
0.883824 -4 4.20413e-15 
1.1547 -4 2.36326e-15 
1.42116 -4 8.7918e-15 
1.69269 -4 1.35396e-14 
1.97101 -4 1.62976e-14 
2.26701 -4 1.65669e-14 
2.59586 -4 1.40859e-14 
2.90715 -4 1.27352e-14 
3.25401 -4 9.39008e-15 
3.54218 -4 6.91152e-15 
3.84499 -4 6.24759e-15 
4.16344 -4 5.0597e-15 
4.46055 -4 3.9951e-15 
4.75877 -4 3.54674e-15 
5.07695 -4 3.07863e-15 
5.39074 -4 2.60333e-15 
5.70678 -4 2.04378e-15 
5.99898 -4 1.55934e-15 
6.29119 -4 1.19734e-15 
6.57921 -4 9.68368e-16 
6.88085 -4 7.12608e-16 
7.15282 -4 5.81417e-16 
7.4773 -4 5.38165e-16 
7.78546 -4 4.13888e-16 
8.09615 -4 2.87952e-16 
8.38418 -4 7.79725e-17 
8.63725 -4 -1.73403e-16 
8.91885 -4 -6.09332e-16 
9.27105 -4 -1.19243e-15 
9.60719 -4 -1.52185e-15 
9.88267 -4 -2.51838e-15 
10.2506 -4 -3.59375e-15 
10.5716 -4 -6.56499e-15 
11.0441 -4 -7.66205e-15 
11.3594 -4 -6.50937e-15 
11.6824 -4 -6.17783e-15 
12 -4 7.23344e-16 
-12 -3.71158 -8.00371e-16 
-11.649 -3.67504 -1.29304e-16 
-11.3321 -3.64648 -1.19388e-15 
-11.0213 -3.66475 5.27355e-16 
-10.6981 -3.66408 -5.59942e-16 
-10.3651 -3.71364 4.79295e-16 
-10.0107 -3.6581 2.32564e-16 
-9.69533 -3.6343 2.73483e-16 
-9.39481 -3.6546 1.78748e-16 
-9.07807 -3.65039 8.27066e-17 
-8.76061 -3.68536 -1.86006e-16 
-8.40747 -3.70464 -1.06503e-16 
-8.0638 -3.66867 4.39964e-17 
-7.75861 -3.63033 9.21428e-17 
-7.48386 -3.61073 1.63186e-16 
-7.21637 -3.65493 7.99251e-19 
-6.91475 -3.6702 1.59151e-16 
-6.60305 -3.66387 1.77038e-15 
-6.28721 -3.66691 -3.25774e-15 
-5.97476 -3.6613 4.20442e-16 
-5.66382 -3.65959 9.1265e-16 
-5.35822 -3.65253 -2.57263e-15 
-5.06233 -3.66217 1.78962e-14 
-4.75762 -3.67312 -2.03789e-14 
-4.45814 -3.66193 2.53432e-15 
-4.15381 -3.66667 2.75464e-15 
-3.84771 -3.68993 1.50688e-15 
-3.52594 -3.68634 -1.09115e-16 
-3.21163 -3.68135 -4.31674e-16 
-2.89986 -3.65763 -2.47322e-15 
-2.61049 -3.66275 1.1326e-15 
-2.32032 -3.66332 -1.99971e-15 
-2.02918 -3.66681 1.96695e-15 
-1.7453 -3.66894 -1.66865e-14 
-1.46056 -3.65913 9.45243e-15 
-1.17229 -3.63998 -9.29529e-15 
-0.867165 -3.64622 -1.82978e-14 
-0.577028 -3.62545 1.35904e-15 
-0.268964 -3.63426 4.90945e-16 
0.0315797 -3.6186 -1.52639e-14 
0.311485 -3.56197 -5.86111e-14 
0.59486 -3.63292 2.71602e-14 
0.893244 -3.63007 9.58012e-15 
1.17516 -3.62902 1.70562e-14 
1.46787 -3.64742 3.83627e-15 
1.75813 -3.65537 2.46064e-15 
2.05909 -3.67923 5.04724e-16 
2.38644 -3.71622 -1.6635e-15 
2.70933 -3.68841 3.55468e-15 
3.039 -3.71539 -1.41345e-16 
3.34482 -3.65274 7.62529e-18 
3.64074 -3.66627 -6.26495e-16 
3.94951 -3.68084 -3.29095e-16 
4.24905 -3.65613 -5.11119e-16 
4.54328 -3.65441 -3.79151e-16 
4.85003 -3.67301 -3.23442e-16 
5.16082 -3.66779 -2.82402e-16 
5.47443 -3.67051 -1.88754e-16 
5.77488 -3.64745 -1.18758e-16 
6.07145 -3.65178 -1.14804e-16 
6.36367 -3.64373 5.17634e-17 
6.6618 -3.66402 -1.72231e-17 
6.94451 -3.62182 -9.93959e-17 
7.25022 -3.67629 -2.54735e-17 
7.55965 -3.65898 7.43289e-18 
7.87012 -3.66305 -1.12876e-16 
8.16069 -3.64555 -5.59554e-17 
8.43424 -3.60711 1.84358e-17 
8.71987 -3.64515 -3.44975e-17 
9.04794 -3.70462 4.46425e-17 
9.38762 -3.68257 1.8178e-16 
9.67918 -3.60763 2.06184e-16 
10.0072 -3.70197 2.63277e-16 
10.3379 -3.64855 1.54103e-16 
10.725 -3.7604 5.58587e-17 
11.0349 -3.64156 1.0171e-15 
11.3499 -3.64898 4.14745e-16 
11.6758 -3.66666 2.12493e-17 
12 -3.66914 8.90118e-16 
-12 -3.41696 -4.18487e-16 
-11.6471 -3.35428 1.8485e-17 
-11.3062 -3.302 -3.37602e-17 
-10.9794 -3.32452 -2.66622e-16 
-10.6547 -3.31541 -4.78322e-16 
-10.3506 -3.39268 -4.13052e-16 
-10.0332 -3.31965 -2.99041e-16 
-9.72457 -3.29101 -1.90275e-16 
-9.41047 -3.30013 -9.84459e-17 
-9.10443 -3.30722 -8.55436e-17 
-8.78899 -3.33324 -1.61149e-16 
-8.47628 -3.38638 -8.04196e-17 
-8.1499 -3.35669 8.06902e-18 
-7.83851 -3.29898 1.38018e-16 
-7.54252 -3.25191 1.0096e-16 
-7.25272 -3.2869 1.54139e-16 
-6.96858 -3.33633 -9.81809e-17 
-6.66474 -3.33468 3.52959e-16 
-6.3497 -3.33923 -4.78256e-16 
-6.03426 -3.32819 5.37977e-16 
-5.72355 -3.32259 1.19005e-17 
-5.41785 -3.30996 -7.43346e-16 
-5.11555 -3.31013 1.12232e-15 
-4.81882 -3.34415 -2.9173e-15 
-4.51377 -3.32859 2.87395e-15 
-4.21428 -3.33229 9.0711e-16 
-3.91053 -3.35801 -4.54686e-16 
-3.60246 -3.37451 1.66075e-17 
-3.28689 -3.361 1.63531e-15 
-2.97843 -3.34232 2.12193e-15 
-2.6617 -3.31451 3.60301e-15 
-2.37209 -3.32603 -1.62894e-15 
-2.07075 -3.34601 -1.91186e-15 
-1.76668 -3.33406 1.22253e-16 
-1.46194 -3.31524 8.05169e-15 
-1.14262 -3.29757 7.46264e-15 
-0.856189 -3.24821 3.17212e-17 
-0.549272 -3.24922 2.42218e-14 
-0.234417 -3.25229 -5.29344e-16 
0.0858326 -3.22957 2.6055e-14 
0.251168 -2.97889 -1.18362e-14 
0.51179 -3.26149 6.79477e-15 
0.835001 -3.27818 -2.87595e-14 
1.15355 -3.25611 -7.56124e-15 
1.44506 -3.30345 -8.29802e-15 
1.75377 -3.31054 -8.92928e-15 
2.05161 -3.35145 -1.981e-16 
2.357 -3.41829 3.00124e-15 
2.66205 -3.36928 -3.36945e-15 
2.97551 -3.40685 -1.08839e-15 
3.28007 -3.33692 -3.99091e-16 
3.59329 -3.32572 -5.71103e-17 
3.89087 -3.351 6.38334e-18 
4.18907 -3.32435 -3.57375e-17 
4.48928 -3.31043 2.16217e-17 
4.78675 -3.33515 2.28788e-17 
5.0882 -3.33769 -2.25656e-17 
5.39916 -3.34124 -1.25481e-16 
5.70613 -3.31324 -3.52558e-17 
6.0148 -3.30704 -4.32535e-17 
6.31079 -3.2964 -3.67913e-17 
6.6111 -3.31405 -9.44365e-17 
6.90958 -3.27936 -1.77103e-16 
7.21414 -3.33224 -1.65772e-16 
7.51684 -3.32294 -1.30277e-16 
7.82484 -3.32797 -8.01983e-17 
8.12902 -3.28531 1.33722e-16 
8.44676 -3.28521 1.70112e-16 
8.76561 -3.29826 4.02851e-16 
9.05847 -3.39025 -9.3383e-17 
9.35432 -3.327 -2.56771e-16 
9.68411 -3.27736 -1.80781e-16 
10.0086 -3.36938 -4.33758e-17 
10.312 -3.28999 2.51645e-16 
10.6317 -3.43909 4.13568e-16 
10.9641 -3.32772 4.31027e-16 
11.318 -3.29828 2.42403e-16 
11.654 -3.342 -5.62676e-17 
12 -3.33045 4.27465e-16 
-12 -3.11407 -5.30039e-16 
-11.6413 -3.03643 -3.5891e-17 
-11.2977 -2.96762 3.2225e-16 
-10.9558 -2.98052 -2.60666e-16 
-10.6181 -2.98272 -3.60793e-17 
-10.2919 -3.03898 -2.38517e-16 
-9.97197 -2.96666 -1.82869e-16 
-9.64456 -2.95912 -1.38151e-16 
-9.32683 -2.96148 -2.33754e-16 
-9.00622 -2.97911 -1.52785e-16 
-8.71241 -2.96434 -1.13693e-16 
-8.44253 -3.0523 -5.29609e-17 
-8.1417 -3.01056 -1.14121e-17 
-7.8449 -2.95501 3.28517e-17 
-7.53145 -2.92973 -3.92798e-17 
-7.22168 -2.9517 6.75291e-17 
-6.92636 -2.9989 1.82222e-16 
-6.61447 -3.01007 3.76529e-17 
-6.30771 -3.00954 2.54321e-16 
-5.9997 -2.99446 2.22966e-16 
-5.696 -2.98581 2.19958e-16 
-5.39463 -2.97099 1.15529e-16 
-5.09352 -2.9718 -6.30527e-17 
-4.79523 -3.01708 8.74279e-16 
-4.49646 -2.9959 -3.19198e-16 
-4.20357 -2.99797 4.44673e-17 
-3.91007 -3.03383 6.27208e-16 
-3.6034 -3.05498 -4.11104e-16 
-3.3001 -3.03205 -2.46761e-16 
-2.98034 -3.02159 -1.14543e-15 
-2.67859 -2.9777 -3.85042e-16 
-2.36664 -2.9704 3.50634e-15 
-2.07714 -3.01797 -2.17899e-15 
-1.76098 -3.00667 -4.17893e-15 
-1.42967 -2.98271 -1.37093e-14 
-1.13958 -2.90229 -1.19021e-14 
-0.827092 -2.85698 5.16399e-15 
-0.515613 -2.86821 3.43604e-15 
-0.191988 -2.87064 9.95615e-14 
0.038159 -2.66085 -7.1119e-14 
0.332385 -2.50731 3.24531e-14 
0.537395 -2.81201 7.74075e-15 
0.803483 -2.91874 2.71469e-14 
1.12612 -2.90515 7.11971e-16 
1.45608 -2.92667 1.30052e-14 
1.74362 -2.97088 4.69182e-15 
2.063 -3.00817 8.70726e-16 
2.36186 -3.09247 -3.82012e-16 
2.67014 -3.03305 -8.75066e-16 
2.96631 -3.08341 5.08987e-16 
3.26543 -3.00286 2.07083e-16 
3.5677 -3.00697 -1.19667e-16 
3.88146 -3.01532 -9.80634e-17 
4.17985 -2.99222 9.75098e-18 
4.48241 -2.98286 -8.55586e-19 
4.78528 -2.99751 1.67828e-17 
5.08126 -3.00123 2.38917e-17 
5.37948 -3.01271 -1.65147e-16 
5.68023 -2.98032 -1.39923e-16 
5.98346 -2.9815 -7.66615e-17 
6.29307 -2.95323 -1.12742e-16 
6.59023 -2.97558 -8.80933e-17 
6.91001 -2.95972 -4.9941e-17 
7.22601 -2.995 -7.35082e-17 
7.52323 -2.98002 -6.53481e-17 
7.82341 -2.99196 -1.71861e-17 
8.13625 -2.96143 -4.36048e-17 
8.43303 -2.94237 -1.54047e-17 
8.73045 -2.97305 -2.20792e-17 
9.05269 -3.03492 1.42396e-16 
9.37776 -3.00132 9.0093e-17 
9.66598 -2.91726 1.15514e-16 
9.97162 -3.02235 -1.97689e-16 
10.3017 -2.9597 -2.87601e-16 
10.6396 -3.0949 1.29396e-16 
10.994 -3.00455 7.99769e-18 
11.3274 -2.95803 -2.12365e-16 
11.6612 -3.01883 1.6749e-16 
12 -2.99665 4.87203e-16 
-12 -2.8042 -5.82805e-16 
-11.6588 -2.7087 -5.48156e-17 
-11.3317 -2.624 9.3342e-17 
-10.9872 -2.64891 -3.2128e-16 
-10.6434 -2.65257 3.07267e-16 
-10.3025 -2.69951 3.88356e-17 
-9.96663 -2.6424 -4.7104e-17 
-9.63814 -2.63276 -1.01564e-16 
-9.31218 -2.63831 -1.76092e-16 
-9.01021 -2.62792 -5.06254e-17 
-8.68947 -2.64105 -4.16863e-17 
-8.36882 -2.69015 -1.69573e-17 
-8.07232 -2.65152 -6.86912e-18 
-7.75693 -2.62859 6.43852e-17 
-7.43394 -2.61715 -5.95906e-17 
-7.12654 -2.63441 6.67267e-17 
-6.8285 -2.68342 9.29214e-17 
-6.52384 -2.67904 -1.26395e-17 
-6.22186 -2.67562 -9.76007e-18 
-5.91819 -2.65901 1.29353e-16 
[...]
POINT_DATA 1978 
VECTORS vectors float
-3.45122e-05 -0.000259752 1 
6.4107e-05 -0.0608334 0.998148 
-5.56811e-05 -0.0621368 0.998068 
7.03087e-05 -0.0533826 0.998574 
3.03701e-05 -0.0417313 0.999129 
3.87477e-05 -0.0268749 0.999639 
2.01771e-05 -0.0166397 0.999862 
1.10428e-05 -0.00943026 0.999956 
1.272e-05 -0.00420635 0.999991 
3.17661e-05 -0.00171228 0.999999 
4.39654e-05 -0.00118498 0.999999 
2.26402e-05 -0.00170081 0.999999 
9.3257e-06 -0.00145536 0.999999 
2.50136e-05 5.14023e-05 1 
4.35906e-06 0.00200825 0.999998 
-8.62807e-06 0.00486199 0.999988 
-8.9522e-06 0.007548 0.999972 
-8.27736e-06 0.00911831 0.999958 
1.86901e-07 0.0103117 0.999947 
-8.53317e-06 0.0117527 0.999931 
-3.16925e-06 0.0140975 0.999901 
-3.08942e-06 0.0175607 0.999846 
-2.76933e-06 0.0218139 0.999762 
-3.77291e-07 0.0263932 0.999652 
-4.0644e-06 0.0322277 0.999481 
4.17587e-06 0.0389266 0.999242 
2.49297e-06 0.0482337 0.998836 
-2.9314e-06 0.0607252 0.998155 
-4.68757e-07 0.079064 0.99687 
-5.17265e-06 0.103798 0.994598 
-3.36716e-06 0.137745 0.990468 
-6.50768e-06 0.183244 0.983067 
-2.52733e-06 0.243936 0.969791 
-2.52197e-06 0.318836 0.94781 
-2.44335e-06 0.415029 0.909808 
-4.13013e-06 0.538906 0.842366 
-8.31804e-07 0.677296 0.735711 
-2.48972e-06 0.834904 0.550395 
-9.62209e-07 0.958386 0.285475 
1.25495e-06 0.999352 -0.036 
2.13616e-06 0.947932 -0.318472 
2.94701e-06 0.833501 -0.552518 
-4.95897e-07 0.691511 -0.722366 
4.0368e-06 0.556448 -0.830882 
-3.62744e-06 0.437739 -0.899102 
1.95027e-06 0.336973 -0.941514 
1.13595e-06 0.25651 -0.966542 
2.05102e-06 0.190857 -0.981618 
1.58058e-06 0.1385 -0.990362 
-6.51305e-07 0.103147 -0.994666 
1.65755e-06 0.0759739 -0.99711 
-5.99516e-06 0.0600256 -0.998197 
6.52154e-06 0.0478929 -0.998852 
8.26082e-06 0.0384405 -0.999261 
-1.45784e-06 0.0317163 -0.999497 
9.44175e-07 0.0264773 -0.999649 
7.08038e-06 0.022138 -0.999755 
3.93812e-06 0.0187649 -0.999824 
5.89454e-06 0.0157132 -0.999877 
5.78177e-07 0.012917 -0.999917 
9.03731e-06 0.0102336 -0.999948 
5.35523e-06 0.00777546 -0.99997 
7.72139e-06 0.00576644 -0.999983 
-4.58958e-06 0.00469678 -0.999989 
1.50455e-05 0.0039403 -0.999992 
5.95874e-06 0.00324944 -0.999995 
1.47371e-05 0.00215929 -0.999998 
-1.38601e-05 0.000618472 -1 
-1.12517e-05 -0.00117205 -0.999999 
1.11673e-06 -0.00370403 -0.999993 
4.91869e-06 -0.00786494 -0.999969 
-1.41875e-05 -0.0130659 -0.999915 
-4.73389e-05 -0.0183029 -0.999832 
-5.42566e-05 -0.0278858 -0.999611 
-0.000147623 -0.0382422 -0.999268 
-0.000150781 -0.0544486 -0.998517 
-2.72764e-06 -0.0637098 -0.997968 
-4.03013e-05 -0.0609924 -0.998138 
-3.60401e-05 -7.04998e-05 -1 
9.81332e-05 9.44807e-05 1 
0.0248904 -0.0508686 0.998395 
0.0305566 -0.0570371 0.997904 
0.0315629 -0.0516455 0.998167 
0.0327216 -0.0412873 0.998611 
0.0320296 -0.0304945 0.999022 
0.0359064 -0.0198187 0.999159 
0.0384046 -0.0119802 0.99919 
0.0385833 -0.00646053 0.999235 
0.0391832 -0.00326101 0.999227 
0.0378473 -0.00174481 0.999282 
0.0371947 -0.001337 0.999307 
0.039538 -0.000820753 0.999218 
0.0422674 0.000633855 0.999106 
0.0437447 0.0025307 0.99904 
0.0408086 0.00456885 0.999157 
0.0396128 0.00682518 0.999192 
0.0402202 0.00855758 0.999154 
0.0400136 0.00997722 0.999149 
0.0404903 0.011591 0.999113 
0.040532 0.0139459 0.999081 
0.0409208 0.0170872 0.999016 
0.0411354 0.0208681 0.998936 
0.0394016 0.0259431 0.998887 
0.0409609 0.0312024 0.998673 
0.0401947 0.0378408 0.998475 
0.0381645 0.0465882 0.998185 
0.0379455 0.0590679 0.997533 
0.0363915 0.0767181 0.996388 
0.0351425 0.101985 0.994165 
0.0325493 0.135413 0.990254 
0.0296158 0.181159 0.983008 
0.0258936 0.243342 0.969595 
0.0222604 0.324647 0.945573 
0.017824 0.430109 0.902601 
0.0136588 0.555635 0.831314 
0.00905493 0.711975 0.702147 
0.0064762 0.854216 0.519879 
0.00423387 0.960527 0.278154 
0.00235208 0.999989 -0.00395112 
-0.000991601 0.955034 -0.296494 
-0.00442407 0.842646 -0.53845 
-0.00813253 0.697789 -0.716257 
-0.0133129 0.547567 -0.836656 
-0.0180368 0.419819 -0.907429 
-0.022517 0.315979 -0.948499 
-0.0261801 0.2344 -0.971788 
-0.028992 0.17046 -0.984938 
-0.0325254 0.124348 -0.991705 
-0.0339906 0.0920473 -0.995174 
-0.0382208 0.069794 -0.996829 
-0.0386992 0.0549483 -0.997739 
-0.038762 0.0435605 -0.998299 
-0.0405074 0.0351484 -0.998561 
-0.0406955 0.0289054 -0.998753 
-0.0397319 0.0239879 -0.998922 
-0.0401208 0.0200454 -0.998994 
-0.0400401 0.0168535 -0.999056 
-0.0413595 0.0140409 -0.999046 
-0.0412099 0.0115505 -0.999084 
-0.0415287 0.00922745 -0.999095 
-0.0411479 0.00719472 -0.999127 
-0.0429927 0.00568345 -0.999059 
-0.0400809 0.00454583 -0.999186 
-0.0409152 0.00371076 -0.999156 
-0.0405129 0.00277866 -0.999175 
-0.0413905 0.0015187 -0.999142 
-0.0431668 -0.000102367 -0.999068 
-0.0408584 -0.00227997 -0.999162 
-0.0370248 -0.00546982 -0.999299 
-0.0373529 -0.00986132 -0.999253 
-0.0399549 -0.0148304 -0.999091 
-0.034566 -0.0215753 -0.99917 
-0.0348568 -0.0303659 -0.998931 
-0.0294853 -0.0428675 -0.998646 
-0.0336947 -0.0516791 -0.998095 
-0.0312494 -0.0572013 -0.997873 
-0.0256661 -0.0496593 -0.998436 
2.40483e-05 2.39417e-05 -1 
-0.000180945 -0.000126022 1 
0.0265297 -0.0487054 0.998461 
0.0326868 -0.0552898 0.997935 
0.0362763 -0.0493623 0.998122 
0.0387564 -0.0398391 0.998454 
0.0406348 -0.0304689 0.998709 
0.0429815 -0.0216436 0.998841 
0.0449417 -0.0139392 0.998892 
0.046041 -0.00790465 0.998908 
0.0475925 -0.0042734 0.998858 
0.0481454 -0.00227833 0.998838 
0.0486175 -0.00122714 0.998817 
0.049106 -0.000403533 0.998793 
0.0493555 0.000880013 0.998781 
0.049237 0.00262428 0.998784 
0.049603 0.0043535 0.99876 
0.0495921 0.00611918 0.998751 
0.0495525 0.0077232 0.998742 
0.0493254 0.00918816 0.99874 
0.0492248 0.0107699 0.99873 
0.0491085 0.0128501 0.998711 
0.0491182 0.0155499 0.998672 
0.0491079 0.0188548 0.998615 
0.0492561 0.0233187 0.998514 
0.0493903 0.0281452 0.998383 
0.0488301 0.0343304 0.998217 
0.0483457 0.0430069 0.997904 
0.0471671 0.054318 0.997409 
0.0453223 0.0707592 0.996463 
0.0425881 0.0939793 0.994663 
0.0387741 0.128085 0.991005 
0.035186 0.173709 0.984168 
0.0311909 0.235861 0.971286 
0.0260308 0.318994 0.947399 
0.0204693 0.428211 0.903447 
0.0150599 0.573936 0.818761 
0.0106871 0.719171 0.694751 
0.00744569 0.855044 0.518502 
0.0050488 0.960168 0.279377 
0.00215193 0.999773 -0.0211896 
-0.000242763 0.958867 -0.283854 
-0.00491208 0.851782 -0.523873 
-0.00978012 0.708207 -0.705937 
-0.0148469 0.560394 -0.828093 
-0.0206067 0.425434 -0.904755 
-0.0262162 0.318565 -0.947538 
-0.0314221 0.236988 -0.971004 
-0.0360659 0.174517 -0.983993 
-0.0398789 0.128572 -0.990898 
-0.0427519 0.0955946 -0.994502 
-0.045396 0.0727689 -0.996315 
-0.0469862 0.0558797 -0.997331 
-0.0480826 0.0443926 -0.997856 
-0.0487112 0.0354043 -0.998185 
-0.0488859 0.0285978 -0.998395 
-0.0490943 0.0237251 -0.998512 
-0.0492504 0.0197974 -0.99859 
-0.0493705 0.0166353 -0.998642 
-0.049204 0.0137901 -0.998694 
-0.0493696 0.0113999 -0.998716 
-0.0494016 0.00932544 -0.998735 
-0.0494144 0.0074905 -0.99875 
-0.0496706 0.00602385 -0.998747 
-0.049766 0.00482301 -0.998749 
-0.0495313 0.00381764 -0.998765 
-0.049448 0.002776 -0.998773 
-0.0493248 0.00142044 -0.998782 
-0.0491931 -0.000462051 -0.998789 
-0.0486885 -0.00295186 -0.99881 
-0.0472919 -0.00599004 -0.998863 
-0.0467563 -0.0100711 -0.998856 
-0.045483 -0.0159969 -0.998837 
-0.043477 -0.0229266 -0.998791 
-0.041827 -0.0310936 -0.998641 
-0.0394521 -0.0394729 -0.998441 
-0.0382375 -0.0490801 -0.998063 
-0.0344584 -0.0553182 -0.997874 
-0.0284915 -0.0491583 -0.998385 
-1.3264e-06 -2.83822e-05 -1 
0.000115314 5.53766e-05 1 
0.0232932 -0.0495784 0.998499 
0.0282828 -0.0565852 0.997997 
0.0320329 -0.0495797 0.998256 
0.0352845 -0.0406753 0.998549 
0.0386385 -0.0305997 0.998785 
0.0399931 -0.0216936 0.998964 
0.0416907 -0.0135992 0.999038 
0.0437151 -0.00795019 0.999012 
0.0447195 -0.00439327 0.99899 
0.0452024 -0.00233255 0.998975 
0.0470615 -0.000993086 0.998892 
0.0466624 0.000224609 0.998911 
0.0460386 0.0015899 0.998938 
0.0454536 0.00319961 0.998961 
0.0460105 0.004723 0.99893 
0.047146 0.00616098 0.998869 
0.0469317 0.00767631 0.998869 
0.0464938 0.00909002 0.998877 
0.0463251 0.0106678 0.998869 
0.0462386 0.0126076 0.998851 
0.0461847 0.0150899 0.998819 
0.0462961 0.0182665 0.998761 
0.0468851 0.0222174 0.998653 
0.0463651 0.0272048 0.998554 
0.0463469 0.033636 0.998359 
0.0463325 0.0418681 0.998048 
0.0449911 0.0536341 0.997547 
0.0429609 0.069879 0.99663 
0.0400922 0.0945778 0.99471 
0.0361444 0.12693 0.991253 
0.0318054 0.173271 0.984361 
0.0282839 0.237859 0.970888 
0.0230132 0.327568 0.944547 
0.017871 0.44885 0.893428 
0.0134722 0.578907 0.815282 
0.00997936 0.7188 0.695146 
0.0063431 0.873901 0.486063 
0.00318181 0.972172 0.234248 
-1.19326e-05 0.999994 -0.00339026 
-0.00336374 0.963485 -0.267742 
-0.00361239 0.865377 -0.501109 
-0.00815344 0.720604 -0.693299 
-0.0133045 0.568098 -0.822853 
-0.0181121 0.431132 -0.902107 
-0.0233578 0.321414 -0.946651 
-0.0288094 0.235775 -0.971381 
-0.0342811 0.173965 -0.984155 
-0.0373937 0.127949 -0.991076 
-0.041022 0.096269 -0.99451 
-0.0424591 0.0731652 -0.996416 
-0.0441082 0.0558186 -0.997466 
-0.0453809 0.0430713 -0.998041 
-0.0459912 0.0342618 -0.998354 
-0.0463601 0.0276986 -0.998541 
-0.0466438 0.0226928 -0.998654 
-0.0466687 0.0188748 -0.998732 
-0.0465955 0.0158342 -0.998788 
-0.0464405 0.0133729 -0.998832 
-0.0463124 0.0111872 -0.998864 
-0.0460037 0.00921468 -0.998899 
-0.0459765 0.00760114 -0.998914 
-0.0460591 0.00622296 -0.998919 
-0.0464087 0.00497033 -0.99891 
-0.0466413 0.00393657 -0.998904 
-0.0467128 0.00274061 -0.998905 
-0.0463236 0.00126009 -0.998926 
-0.0452662 -0.000591296 -0.998975 
-0.0455227 -0.00292624 -0.998959 
-0.0460317 -0.00609243 -0.998921 
-0.0440273 -0.010578 -0.998974 
-0.0413178 -0.0161503 -0.999016 
-0.0410978 -0.0232796 -0.998884 
-0.0379693 -0.0323471 -0.998755 
-0.0377903 -0.0408691 -0.99845 
-0.0332415 -0.0505208 -0.99817 
-0.0290907 -0.0561242 -0.998 
-0.0241105 -0.0477074 -0.99857 
-0.000105979 4.16336e-05 -1 
-8.04163e-05 4.14055e-05 1 
0.0188195 -0.0509183 0.998525 
0.0232967 -0.059369 0.997964 
0.0268188 -0.0531112 0.998228 
0.0295247 -0.0436714 0.99861 
0.0328476 -0.0331763 0.99891 
0.0343818 -0.0237198 0.999127 
0.0361284 -0.0153813 0.999229 
0.0374442 -0.00905864 0.999258 
0.0380178 -0.00529588 0.999263 
0.0388583 -0.00254185 0.999241 
0.0400524 -0.000571055 0.999197 
0.0396964 0.000998832 0.999211 
0.0395008 0.00255734 0.999216 
0.0390154 0.00417492 0.99923 
0.0398196 0.00553802 0.999192 
0.0410158 0.00676592 0.999136 
0.0401499 0.00810084 0.999161 
0.0398482 0.0094602 0.999161 
0.039805 0.0109983 0.999147 
0.0398596 0.0129112 0.999122 
0.0398808 0.0153557 0.999086 
0.0402279 0.0185774 0.999018 
0.0410946 0.0224603 0.998903 
0.0403134 0.0275819 0.998806 
0.0403448 0.0343684 0.998595 
0.0406334 0.0431878 0.99824 
0.0389278 0.0554539 0.997702 
0.0371462 0.073775 0.996583 
0.0337051 0.097009 0.994713 
0.0298322 0.134055 0.990525 
0.0258326 0.185039 0.982392 
0.0230421 0.249445 0.968115 
0.0182953 0.352732 0.935546 
0.0140321 0.465065 0.885165 
0.01108 0.592305 0.805637 
0.00895664 0.776548 0.629994 
0.00413347 0.901684 0.432376 
0.00365196 0.938252 0.345934 
-0.00155685 0.998545 0.0538957 
-0.00541236 0.968783 -0.24785 
-0.00789779 0.856919 -0.515391 
-0.00812759 0.72429 -0.689447 
-0.0115911 0.568652 -0.822497 
-0.0156058 0.421266 -0.906803 
-0.0197764 0.309629 -0.950652 
-0.0243868 0.231387 -0.972556 
-0.0297751 0.168659 -0.985225 
-0.031804 0.124933 -0.991655 
-0.035463 0.0930385 -0.995031 
-0.0367861 0.0685685 -0.996968 
-0.0388674 0.0516689 -0.997908 
-0.0398485 0.0401831 -0.998397 
-0.0401852 0.0316477 -0.998691 
-0.0402727 0.0253829 -0.998866 
-0.0405135 0.0208494 -0.998961 
-0.040427 0.0173758 -0.999031 
-0.0403501 0.0146879 -0.999078 
-0.039781 0.0124478 -0.999131 
-0.0398786 0.0105578 -0.999149 
-0.0391275 0.00894035 -0.999194 
-0.0398696 0.00746919 -0.999177 
-0.0394928 0.00620072 -0.999201 
-0.0396086 0.00514795 -0.999202 
-0.0397971 0.00402746 -0.9992 
-0.0403125 0.00271819 -0.999183 
-0.0396735 0.00111629 -0.999212 
-0.038622 -0.000926235 -0.999253 
-0.0388614 -0.00346732 -0.999239 
-0.0403048 -0.00656366 -0.999166 
-0.037482 -0.0108047 -0.999239 
-0.0350163 -0.0172229 -0.999238 
-0.0350747 -0.0249646 -0.999073 
-0.0318797 -0.0347426 -0.998888 
-0.0319738 -0.0431279 -0.998558 
-0.0269897 -0.0526801 -0.998247 
-0.0228666 -0.0576606 -0.998074 
-0.0186243 -0.0473597 -0.998704 
-8.809e-06 -7.55975e-08 -1 
-9.13559e-05 4.34855e-05 1 
0.0111301 -0.0410617 0.999095 
0.0179317 -0.0580113 0.998155 
0.0212505 -0.0584605 0.998064 
0.0234107 -0.0501453 0.998468 
0.0260581 -0.039721 0.998871 
0.0278521 -0.0302319 0.999155 
0.02889 -0.0204942 0.999372 
0.0300996 -0.0127311 0.999466 
0.0304362 -0.00770211 0.999507 
0.0310164 -0.00401189 0.999511 
0.0321362 -0.00127824 0.999483 
0.03188 0.000627186 0.999492 
0.0317891 0.0023728 0.999492 
0.0319509 0.00394464 0.999482 
0.0316642 0.00542904 0.999484 
0.0322172 0.00659355 0.999459 
0.0326904 0.00764486 0.999436 
0.0320063 0.00886228 0.999448 
0.0318833 0.010163 0.99944 
0.0320847 0.0117116 0.999417 
0.0321628 0.0136593 0.999389 
0.0325924 0.0162547 0.999337 
0.0327906 0.0195702 0.999271 
0.0335142 0.0236504 0.999158 
0.0331042 0.0295596 0.999015 
0.033293 0.0374127 0.998745 
0.0329438 0.0470436 0.998349 
0.0317992 0.062123 0.997562 
0.0285718 0.0807095 0.996328 
0.0257377 0.11104 0.993483 
0.0217175 0.156573 0.987428 
0.0181877 0.225263 0.974128 
0.0163629 0.301957 0.953181 
0.0119213 0.403571 0.914871 
0.00834015 0.549414 0.835509 
0.00637656 0.719987 0.693958 
0.00164104 0.841019 0.541003 
-0.00107382 0.995812 0.0914225 
-0.00484587 0.996956 -0.0778183 
-0.00603745 0.963466 -0.267764 
-0.00632247 0.957089 -0.289726 
-0.00903635 0.848289 -0.529457 
-0.00894012 0.637299 -0.770565 
-0.0105912 0.484244 -0.874869 
-0.0135202 0.343736 -0.938969 
-0.0172455 0.245715 -0.969189 
-0.0231241 0.179292 -0.983524 
-0.0245151 0.134221 -0.990648 
-0.0281839 0.0982797 -0.99476 
-0.0300952 0.0736791 -0.996828 
-0.0317617 0.0537663 -0.998048 
-0.032526 0.0411482 -0.998623 
-0.0330316 0.0322798 -0.998933 
-0.0329867 0.0256345 -0.999127 
-0.032927 0.020785 -0.999242 
-0.0327522 0.0172774 -0.999314 
-0.0325933 0.0146304 -0.999362 
-0.0322327 0.0125629 -0.999401 
-0.032111 0.0107923 -0.999426 
-0.0312451 0.00933132 -0.999468 
-0.0320125 0.00796025 -0.999456 
-0.032157 0.00679697 -0.99946 
-0.0312628 0.0057201 -0.999495 
-0.0318208 0.00460315 -0.999483 
-0.0320036 0.00319231 -0.999483 
-0.0316714 0.00152882 -0.999497 
-0.0306667 -0.000586899 -0.999529 
-0.0307967 -0.00330186 -0.99952 
-0.0324407 -0.00677894 -0.999451 
-0.0303165 -0.0117531 -0.999471 
-0.0280743 -0.0185968 -0.999433 
-0.0284336 -0.0270121 -0.999231 
-0.0254127 -0.0373097 -0.998981 
-0.0257819 -0.045701 -0.998622 
-0.0211053 -0.0550678 -0.99826 
-0.0173382 -0.0597627 -0.998062 
-0.0143525 -0.0495731 -0.998667 
-3.82747e-05 1.49383e-05 -1 
9.99488e-06 1.3924e-05 1 
0.0126412 -0.051257 0.998605 
0.0168117 -0.0616187 0.997958 
0.0178061 -0.0562776 0.998256 
0.0196191 -0.0468173 0.998711 
0.0205309 -0.0371266 0.9991 
0.0220881 -0.0272933 0.999383 
0.0226392 -0.0180089 0.999581 
0.0228188 -0.0114622 0.999674 
0.0233774 -0.00658132 0.999705 
0.0242331 -0.00284219 0.999702 
0.0239188 -0.00032866 0.999714 
0.0239423 0.00180072 0.999712 
0.024051 0.0036043 0.999704 
0.0244339 0.0050647 0.999689 
0.0236352 0.00635063 0.9997 
0.0236839 0.00735707 0.999692 
0.0244675 0.00831613 0.999666 
0.0238242 0.009447 0.999672 
0.0239868 0.0107042 0.999655 
0.0242751 0.0122276 0.999631 
0.0247576 0.0142811 0.999591 
0.0249802 0.0169733 0.999544 
0.0249629 0.0204738 0.999479 
0.0261856 0.025276 0.999337 
0.0260003 0.0323566 0.999138 
0.0252349 0.0411045 0.998836 
0.0256602 0.0537846 0.998223 
0.0225964 0.069633 0.997317 
0.0205363 0.0976348 0.99501 
0.0172441 0.141952 0.989723 
0.0142314 0.213806 0.976772 
0.0108833 0.318887 0.94773 
0.0076484 0.457519 0.889167 
0.00469138 0.613936 0.789342 
0.00414676 0.659576 0.751627 
0.00478294 0.923485 0.383604 
0.00254175 0.950591 0.310435 
-0.00199114 0.974456 0.22457 
-0.00440638 0.998411 0.0561787 
-0.00705145 0.998006 -0.0627198 
-0.0123601 0.957218 -0.289103 
-0.0101146 0.864557 -0.502433 
-0.00929059 0.72209 -0.691736 
-0.00786358 0.515802 -0.856672 
-0.00885728 0.387468 -0.921841 
-0.0111484 0.273162 -0.961903 
-0.0162166 0.184331 -0.98273 
-0.0186875 0.127854 -0.991617 
-0.0214762 0.0924543 -0.995485 
-0.0242568 0.0660155 -0.997524 
-0.0247935 0.0491556 -0.998483 
-0.0252755 0.0377082 -0.998969 
-0.025691 0.0295758 -0.999232 
-0.025506 0.0235659 -0.999397 
-0.0251318 0.0192256 -0.999499 
-0.0248098 0.0160564 -0.999563 
-0.0245079 0.0137415 -0.999605 
-0.0245408 0.0118774 -0.999628 
-0.0238403 0.0104364 -0.999661 
-0.0238465 0.00909494 -0.999674 
-0.0239489 0.00799567 -0.999681 
-0.0242882 0.00693605 -0.999681 
-0.023157 0.00596327 -0.999714 
-0.0240523 0.0047328 -0.999699 
-0.023646 0.00329899 -0.999715 
-0.0235189 0.00140906 -0.999722 
-0.022749 -0.00100401 -0.999741 
-0.0229716 -0.00399265 -0.999728 
-0.024911 -0.00746734 -0.999662 
-0.0228679 -0.012552 -0.99966 
-0.0211055 -0.0198408 -0.99958 
-0.0216977 -0.0287662 -0.999351 
-0.0190371 -0.0393058 -0.999046 
-0.0195288 -0.0483856 -0.998638 
-0.0154538 -0.0572241 -0.998242 
-0.0124944 -0.0615954 -0.998023 
-0.0102508 -0.0498536 -0.998704 
-6.09742e-07 3.41157e-06 -1 
-3.24896e-05 -1.36713e-05 1 
0.0111978 -0.0527666 0.998544 
0.0138385 -0.06317 0.997907 
0.0137525 -0.0589452 0.998166 
0.0147444 -0.0502224 0.998629 
0.0147756 -0.0399639 0.999092 
0.0157844 -0.0300617 0.999423 
0.0165438 -0.0209731 0.999643 
0.0163361 -0.0135528 0.999775 
0.0167946 -0.00814557 0.999826 
0.0177572 -0.00394317 0.999835 
0.0170319 -0.000817536 0.999855 
0.0171564 0.001627 0.999851 
0.0172539 0.00365445 0.999844 
0.0174853 0.00520879 0.999834 
0.0170866 0.00643772 0.999833 
0.0164371 0.00752859 0.999837 
0.0169921 0.00839502 0.99982 
0.0170605 0.00929225 0.999811 
0.0170324 0.0103754 0.999801 
0.0173221 0.011639 0.999782 
0.0180469 0.0133392 0.999748 
0.0183173 0.0156891 0.999709 
0.0182586 0.0188538 0.999656 
0.0191125 0.0233342 0.999545 
0.0199945 0.0293929 0.999368 
0.0187629 0.0375411 0.999119 
0.0190525 0.049886 0.998573 
0.0168908 0.0663578 0.997653 
0.0155831 0.0922875 0.99561 
0.01309 0.134496 0.990828 
0.0109198 0.204174 0.978874 
0.00871574 0.300949 0.9536 
0.0059645 0.431863 0.90192 
0.00584996 0.632214 0.774772 
0.00207366 0.826471 0.562976 
0.00290324 0.982722 0.185066 
0.00517481 0.993388 0.114685 
0.00430334 0.995552 0.0941178 
0.00281392 0.998087 0.06176 
0.00204392 0.999895 0.0143657 
-0.000619999 0.997716 -0.0675515 
-0.0113479 0.876594 -0.481097 
-0.00917543 0.629176 -0.777208 
-0.00692789 0.574754 -0.818297 
-0.00677682 0.434829 -0.900488 
-0.00741032 0.319911 -0.947419 
-0.0106794 0.207543 -0.978168 
-0.0130552 0.143573 -0.989554 
-0.0150153 0.0973592 -0.995136 
-0.0177917 0.0705203 -0.997352 
-0.0182347 0.0517858 -0.998492 
-0.0186195 0.0392092 -0.999058 
-0.0189954 0.0305378 -0.999353 
-0.0189964 0.0243523 -0.999523 
-0.0185574 0.0197089 -0.999634 
-0.018113 0.0163167 -0.999703 
-0.0175825 0.0138638 -0.999749 
-0.0178721 0.0121824 -0.999766 
-0.0169263 0.0107311 -0.999799 
-0.0175567 0.00963575 -0.999799 
-0.0167908 0.00854838 -0.999822 
-0.017247 0.00763575 -0.999822 
-0.016692 0.00670807 -0.999838 
-0.0171057 0.00543036 -0.999839 
-0.0167625 0.00394396 -0.999852 
-0.0167245 0.00187546 -0.999858 
-0.0162893 -0.00075386 -0.999867 
-0.0162695 -0.00407794 -0.999859 
-0.0176759 -0.00822585 -0.99981 
-0.01639 -0.0139491 -0.999768 
-0.0147462 -0.0214273 -0.999662 
-0.0156908 -0.0298093 -0.999432 
-0.0133828 -0.0399792 -0.999111 
-0.0140228 -0.0494534 -0.998678 
-0.0110287 -0.0585983 -0.998221 
-0.00896005 -0.063283 -0.997955 
-0.00714791 -0.0503941 -0.998704 
-1.62029e-05 1.05139e-05 -1 
1.25527e-05 -3.04256e-05 1 
0.0087983 -0.0523885 0.998588 
0.0105411 -0.0637515 0.99791 
0.0103631 -0.0604723 0.998116 
0.0106677 -0.0510802 0.998638 