# vtk DataFile Version 3.0 
Exported using Morpho https://github.com/Morpho-lang/morpho 
ASCII 
DATASET UNSTRUCTURED_GRID 

POINTS 1978 float 
-12 -3.99999 -3.66911e-08 
-11.681 -3.99998 3.0152e-08 
-11.3529 -3.99998 6.49038e-08 
-11.019 -3.99998 5.96979e-08 
-10.6873 -3.99998 4.82064e-08 
-10.2889 -3.99998 3.15221e-08 
-9.97132 -3.99999 1.29916e-08 
-9.68158 -3.99999 6.71956e-10 
-9.36834 -3.99999 2.32006e-10 
-9.05155 -3.99998 -5.53395e-11 
-8.69066 -3.99998 2.1993e-10 
-8.31209 -3.99998 3.50843e-09 
-7.99272 -3.99999 5.20069e-09 
-7.72299 -3.99999 1.14432e-09 
-7.47877 -3.99999 9.23089e-11 
-7.2023 -3.99999 -6.5774e-09 
-6.90594 -3.99999 -1.33769e-08 
-6.6039 -3.99998 -1.72634e-08 
-6.29505 -3.99998 -1.76732e-08 
-5.97783 -3.99998 -1.75122e-08 
-5.67016 -3.99998 -2.02106e-08 
-5.36548 -3.99999 -2.67133e-08 
-5.06884 -3.99999 -3.45759e-08 
-4.77834 -3.99999 -4.42717e-08 
-4.45271 -3.99998 -5.10117e-08 
-4.14643 -3.99998 -6.19509e-08 
-3.81466 -3.99998 -7.34753e-08 
-3.49123 -3.99999 -7.91307e-08 
-3.17562 -3.99999 -9.36316e-08 
-2.88107 -3.99999 -1.01561e-07 
-2.59175 -3.99999 -1.0924e-07 
-2.30985 -3.99999 -1.21849e-07 
-2.03105 -3.99999 -1.20566e-07 
-1.75541 -3.99999 -1.12026e-07 
-1.48198 -3.99999 -1.12564e-07 
-1.1953 -3.99999 -1.07618e-07 
-0.913497 -3.99999 -2.03145e-07 
-0.599541 -3.99999 4.08449e-08 
-0.287008 -3.99999 -1.89055e-07 
0.0330689 -3.99999 -1.04403e-07 
0.318084 -3.99999 1.40799e-07 
0.599894 -3.99999 1.50053e-07 
0.883853 -3.99999 1.05412e-07 
1.15465 -4 3.68869e-08 
1.42116 -3.99999 1.03274e-07 
1.69265 -3.99999 1.14971e-07 
1.97096 -3.99999 1.33962e-07 
2.26701 -3.99999 1.38216e-07 
2.5958 -3.99999 1.3312e-07 
2.90714 -3.99999 1.15114e-07 
3.25403 -3.99999 9.62999e-08 
3.54217 -3.99999 7.99307e-08 
3.84498 -3.99999 6.71029e-08 
4.16345 -3.99999 5.78604e-08 
4.46054 -3.99999 4.773e-08 
4.75875 -3.99998 4.03921e-08 
5.07695 -3.99998 3.58998e-08 
5.39076 -3.99998 3.14888e-08 
5.70681 -3.99998 2.62481e-08 
5.999 -3.99999 2.11622e-08 
6.29117 -3.99999 1.57219e-08 
6.57922 -3.99999 1.05437e-08 
6.88084 -3.99999 7.70875e-09 
7.15277 -3.99998 7.13099e-09 
7.47729 -3.99998 6.41835e-09 
7.78548 -3.99998 6.20989e-09 
8.09621 -3.99999 2.09402e-09 
8.38423 -3.99999 2.42464e-09 
8.63722 -3.99999 1.90088e-09 
8.91875 -3.99998 -1.9581e-09 
9.27105 -3.99998 -1.02676e-08 
9.60723 -3.99998 -1.62171e-08 
9.88266 -3.99998 -2.04192e-08 
10.2505 -3.99998 -2.94778e-08 
10.5716 -3.99998 -5.7611e-08 
11.0442 -3.99998 -7.0338e-08 
11.3594 -3.99998 -8.52436e-08 
11.6825 -3.99998 -2.60744e-08 
12 -3.99999 2.85112e-08 
-12 -3.71156 4.84414e-08 
-11.6492 -3.67521 -5.89098e-08 
-11.3374 -3.63625 -4.20281e-08 
-11.0333 -3.66388 -4.70768e-08 
-10.7091 -3.65801 -3.59733e-08 
-10.3821 -3.71362 -3.22687e-08 
-10.0299 -3.65377 -2.61553e-08 
-9.71579 -3.62485 -1.84937e-08 
-9.4121 -3.6506 -1.29253e-08 
-9.09598 -3.64677 -6.96552e-09 
-8.77599 -3.67814 -3.61576e-09 
-8.41712 -3.70099 -1.33376e-09 
-8.0702 -3.66527 7.49565e-10 
-7.75919 -3.62482 2.2119e-09 
-7.484 -3.60279 3.88622e-09 
-7.21651 -3.65494 5.45028e-09 
-6.90784 -3.66759 6.65092e-09 
-6.59378 -3.6619 9.36446e-09 
-6.27323 -3.66451 1.19631e-08 
-5.95871 -3.65431 1.47923e-08 
-5.64779 -3.65238 1.77515e-08 
-5.34476 -3.64588 2.12842e-08 
-5.05232 -3.64103 2.54791e-08 
-4.73363 -3.67744 3.14057e-08 
-4.43765 -3.65246 3.79856e-08 
-4.13847 -3.65707 4.44864e-08 
-3.83556 -3.68374 5.56483e-08 
-3.52155 -3.67833 7.54755e-08 
-3.21143 -3.67801 9.53884e-08 
-2.90193 -3.66108 1.17982e-07 
-2.61074 -3.66382 1.456e-07 
-2.32316 -3.66696 1.72824e-07 
-2.03026 -3.67512 1.91795e-07 
-1.74273 -3.66901 1.99602e-07 
-1.45307 -3.67715 1.86058e-07 
-1.1641 -3.65531 1.13991e-07 
-0.848169 -3.67043 5.18018e-08 
-0.56017 -3.61271 -2.13062e-07 
-0.276507 -3.65498 1.55926e-08 
0.00861866 -3.60142 2.27398e-07 
0.300458 -3.598 1.38201e-08 
0.588352 -3.61307 1.56682e-08 
0.875142 -3.64826 -2.03466e-08 
1.17384 -3.6528 -1.18526e-07 
1.4658 -3.66359 -1.81368e-07 
1.75877 -3.67136 -2.07014e-07 
2.06058 -3.68716 -1.90616e-07 
2.38534 -3.71662 -1.72213e-07 
2.70784 -3.6909 -1.28584e-07 
3.03515 -3.71396 -1.10614e-07 
3.33973 -3.64859 -8.34986e-08 
3.63438 -3.66069 -6.85752e-08 
3.94419 -3.67479 -5.48624e-08 
4.24418 -3.6483 -4.35071e-08 
4.53975 -3.64595 -3.56875e-08 
4.84934 -3.66544 -2.93849e-08 
5.1623 -3.66084 -2.39555e-08 
5.47716 -3.66451 -1.9988e-08 
5.77832 -3.64173 -1.65715e-08 
6.07408 -3.6473 -1.40367e-08 
6.36781 -3.64423 -1.14221e-08 
6.66202 -3.65827 -1.02266e-08 
6.94067 -3.61159 -7.671e-09 
7.24428 -3.66846 -6.18092e-09 
7.5519 -3.65368 -4.14167e-09 
7.86398 -3.66218 -2.43294e-09 
8.15676 -3.64728 -9.8453e-10 
8.42931 -3.59922 1.50278e-09 
8.71744 -3.63852 4.76211e-09 
9.04642 -3.70255 8.17809e-09 
9.38763 -3.67551 1.31485e-08 
9.67975 -3.59787 1.95333e-08 
10.0048 -3.69565 2.96719e-08 
10.3365 -3.6475 3.32665e-08 
10.7262 -3.75967 4.3716e-08 
11.0299 -3.63283 4.15816e-08 
11.3411 -3.64168 4.66159e-08 
11.6705 -3.66316 7.00192e-08 
12 -3.6692 -6.38342e-08 
-12 -3.41697 4.69261e-08 
-11.6406 -3.35376 -2.98107e-08 
-11.2939 -3.28809 -9.16212e-09 
-10.9694 -3.32443 -2.05027e-08 
-10.6458 -3.30584 -2.01574e-08 
-10.3501 -3.38796 -2.08535e-08 
-10.0338 -3.30997 -1.48524e-08 
-9.72168 -3.27837 -1.25043e-08 
-9.40811 -3.30084 -1.00703e-08 
-9.09407 -3.30162 -7.31953e-09 
-8.78268 -3.3228 -4.03365e-09 
-8.47415 -3.3803 -1.74459e-09 
-8.15051 -3.34748 7.40548e-10 
-7.84361 -3.29684 2.03293e-09 
-7.54799 -3.23728 1.75811e-09 
-7.25953 -3.28281 2.24257e-09 
-6.9742 -3.34629 3.34329e-09 
-6.66235 -3.3325 4.95009e-09 
-6.34504 -3.33089 6.66294e-09 
-6.03361 -3.31829 8.06129e-09 
-5.72131 -3.31264 9.37987e-09 
-5.41354 -3.30289 1.08245e-08 
-5.1116 -3.28785 1.23852e-08 
-4.81081 -3.34682 1.70468e-08 
-4.50902 -3.30815 2.0296e-08 
-4.21205 -3.31736 2.51999e-08 
-3.90754 -3.35425 3.5188e-08 
-3.6017 -3.35459 4.65796e-08 
-3.29304 -3.35459 5.86139e-08 
-2.9837 -3.34691 7.26553e-08 
-2.66508 -3.32397 8.07392e-08 
-2.36818 -3.32806 9.48081e-08 
-2.06794 -3.36262 1.20704e-07 
-1.76123 -3.34487 1.16099e-07 
-1.45286 -3.34008 9.22003e-08 
-1.12557 -3.33378 6.60146e-08 
-0.838441 -3.28432 -3.25264e-08 
-0.561368 -3.20398 6.42255e-08 
-0.276541 -3.26379 -1.91009e-07 
0.0240326 -3.20646 9.86143e-08 
0.287389 -3.12486 1.18191e-07 
0.563107 -3.2125 2.01047e-08 
0.854827 -3.27081 -1.82623e-08 
1.1495 -3.31335 -4.78731e-08 
1.45516 -3.32676 -1.04346e-07 
1.75536 -3.33994 -1.16502e-07 
2.05463 -3.369 -1.19846e-07 
2.36303 -3.42203 -1.2067e-07 
2.6699 -3.37596 -9.32977e-08 
2.98056 -3.40452 -8.10938e-08 
3.27952 -3.32742 -5.63764e-08 
3.58701 -3.31628 -4.25701e-08 
3.88213 -3.34257 -3.51773e-08 
4.17926 -3.31328 -2.59589e-08 
4.47973 -3.29844 -1.99871e-08 
4.77956 -3.32469 -1.73576e-08 
5.08444 -3.32697 -1.43715e-08 
5.39677 -3.33102 -1.16355e-08 
5.70378 -3.3053 -8.88771e-09 
6.01277 -3.29957 -7.37161e-09 
6.309 -3.29949 -6.15459e-09 
6.60944 -3.30329 -5.30923e-09 
6.90885 -3.26791 -4.04242e-09 
7.21208 -3.31956 -3.68921e-09 
7.5129 -3.3122 -2.41603e-09 
7.81789 -3.3269 -1.16779e-09 
8.12268 -3.28999 1.59345e-10 
8.44195 -3.27496 1.73575e-09 
8.76053 -3.29492 3.69759e-09 
9.06494 -3.38636 6.43502e-09 
9.36752 -3.31579 9.44741e-09 
9.69807 -3.2639 1.24885e-08 
10.0186 -3.3605 1.78442e-08 
10.3161 -3.27988 1.7327e-08 
10.6256 -3.43843 2.84227e-08 
10.9512 -3.31679 2.34449e-08 
11.3006 -3.28376 1.22443e-08 
11.6403 -3.34369 4.01624e-08 
12 -3.33049 -5.78329e-08 
-12 -3.11417 3.38856e-08 
-11.6315 -3.03953 -1.18305e-08 
-11.2817 -2.95566 1.02096e-08 
-10.9414 -2.98032 -1.13067e-09 
-10.609 -2.97214 -4.30609e-09 
-10.2847 -3.02927 -6.42819e-09 
-9.96338 -2.96042 -6.69836e-09 
-9.6335 -2.94838 -7.23136e-09 
-9.3181 -2.96828 -6.56194e-09 
-9.00105 -2.96728 -4.0619e-09 
-8.7084 -2.95001 -2.23543e-09 
-8.44073 -3.04086 -1.24984e-09 
-8.14373 -2.99672 -1.10076e-10 
-7.84685 -2.95405 4.47676e-10 
-7.53558 -2.9132 6.40323e-10 
-7.22874 -2.94909 9.943e-10 
-6.93401 -3.01724 1.92042e-09 
-6.62092 -3.00798 2.0983e-09 
-6.31635 -2.99399 2.44663e-09 
-6.00853 -2.98468 3.15093e-09 
-5.70243 -2.97638 3.93254e-09 
-5.39795 -2.96538 4.64832e-09 
-5.09403 -2.95604 5.58077e-09 
-4.79476 -3.01236 8.11806e-09 
-4.49098 -2.975 8.90715e-09 
-4.19651 -2.98286 1.19092e-08 
-3.90561 -3.03395 1.82571e-08 
-3.60003 -3.03156 2.29278e-08 
-3.29528 -3.03011 3.14057e-08 
-2.97348 -3.03106 4.05496e-08 
-2.67746 -2.98278 4.62149e-08 
-2.36626 -2.98264 5.37924e-08 
-2.06136 -3.04016 5.26611e-08 
-1.74243 -3.01774 3.80416e-08 
-1.41001 -3.0185 1.65512e-08 
-1.12205 -2.94391 -1.12072e-08 
-0.846433 -2.85519 -5.62386e-08 
-0.525256 -2.81666 -3.06483e-07 
-0.228951 -2.87389 4.5895e-07 
0.0105067 -2.71621 -2.21873e-07 
0.276865 -2.6161 -1.15822e-07 
0.547949 -2.77159 1.55725e-07 
0.837679 -2.87697 -1.12924e-09 
1.14099 -2.94061 -3.15643e-08 
1.44632 -2.97187 -3.01536e-08 
1.75086 -2.99522 -5.92951e-08 
2.06038 -3.02881 -6.48919e-08 
2.36196 -3.10403 -7.00997e-08 
2.67158 -3.04502 -4.91082e-08 
2.96766 -3.08015 -4.26469e-08 
3.26385 -2.99493 -2.89992e-08 
3.56478 -2.99493 -2.27861e-08 
3.87525 -3.00554 -1.77756e-08 
4.17391 -2.9813 -1.27963e-08 
4.47461 -2.96873 -9.42617e-09 
4.77508 -2.9881 -7.72018e-09 
5.07405 -2.99191 -6.10374e-09 
5.37629 -3.00015 -4.83959e-09 
5.6802 -2.97356 -3.54468e-09 
5.9845 -2.97434 -2.94276e-09 
6.29562 -2.95761 -2.662e-09 
6.59145 -2.96697 -2.25198e-09 
6.91287 -2.95118 -1.5656e-09 
7.22981 -2.98213 -1.28792e-09 
7.52857 -2.97234 -7.76576e-10 
7.82915 -2.98968 -2.36776e-10 
8.14017 -2.96809 7.00275e-10 
8.43477 -2.92966 1.2803e-09 
8.72949 -2.96636 2.23596e-09 
9.05005 -3.04115 4.86062e-09 
9.37474 -2.99033 6.59929e-09 
9.66531 -2.91075 6.5742e-09 
9.97914 -3.00875 7.27771e-09 
10.3052 -2.94846 4.98027e-09 
10.6384 -3.08832 1.07232e-08 
10.9866 -2.98848 2.04599e-09 
11.3244 -2.94588 -8.65257e-09 
11.6577 -3.02736 2.4109e-08 
12 -2.99664 -4.91011e-08 
-12 -2.80443 4.46003e-08 
-11.6469 -2.71761 -9.22702e-09 
-11.3143 -2.61823 1.35606e-08 
-10.9687 -2.64721 6.53617e-09 
-10.6341 -2.64089 7.22957e-10 
[...]
POINT_DATA 1978 
VECTORS vectors float
0.00189199 -0.0105668 0.999943 
0.00974172 -0.0610328 0.998089 
0.00961343 -0.0621977 0.998015 
0.0088773 -0.0534062 0.998532 
0.010492 -0.0417433 0.999072 
0.010532 -0.0268723 0.999582 
0.00755954 -0.0166306 0.999833 
0.00763979 -0.00941733 0.999927 
0.00855998 -0.00419028 0.999954 
0.00962366 -0.00169937 0.999952 
0.0114642 -0.00118141 0.999934 
0.0105731 -0.00170739 0.999942 
0.00742941 -0.00146505 0.999973 
0.00532168 4.59797e-05 0.999992 
0.00548169 0.00200445 0.999988 
0.00734279 0.00486438 0.999963 
0.00837205 0.00755553 0.999937 
0.00855885 0.00912384 0.999922 
0.00900427 0.0103146 0.999906 
0.0088542 0.0117528 0.999891 
0.00851129 0.0140973 0.999864 
0.00805626 0.0175633 0.999814 
0.00764189 0.0218203 0.999733 
0.00859724 0.0264005 0.999614 
0.00889386 0.0322351 0.99944 
0.00892834 0.0389346 0.999201 
0.00945354 0.0482351 0.998791 
0.00892143 0.0607182 0.998113 
0.00792069 0.0790539 0.996838 
0.00696077 0.103786 0.994575 
0.00636294 0.137729 0.99045 
0.0057033 0.183226 0.983055 
0.0050734 0.243919 0.969783 
0.0043985 0.318813 0.947808 
0.00383906 0.415001 0.909813 
0.00302714 0.538885 0.842374 
0.00218637 0.677259 0.735742 
0.00132603 0.834866 0.550452 
0.000506084 0.958402 0.28542 
8.96439e-05 0.999348 -0.0361011 
-0.000354378 0.947916 -0.318521 
-0.000999727 0.833475 -0.552558 
-0.00175902 0.691483 -0.722394 
-0.00239813 0.556406 -0.830905 
-0.00329518 0.437719 -0.899106 
-0.00419445 0.336949 -0.941514 
-0.0054669 0.256495 -0.96653 
-0.00722575 0.190834 -0.981594 
-0.00809054 0.138482 -0.99033 
-0.00903865 0.103133 -0.994625 
-0.00847361 0.075968 -0.997073 
-0.00748672 0.0600257 -0.998169 
-0.00857188 0.047896 -0.998815 
-0.00847305 0.038445 -0.999224 
-0.00783696 0.0317218 -0.999466 
-0.00851252 0.026483 -0.999613 
-0.00907873 0.0221437 -0.999713 
-0.0090566 0.0187718 -0.999782 
-0.00834664 0.0157202 -0.999842 
-0.00764738 0.0129221 -0.999888 
-0.00760867 0.0102367 -0.99992 
-0.00785294 0.00777499 -0.99994 
-0.00728627 0.00576383 -0.999958 
-0.00814796 0.00469535 -0.999956 
-0.00923841 0.00394071 -0.999949 
-0.00901355 0.00325233 -0.999954 
-0.0081328 0.00216277 -0.999965 
-0.00617438 0.000620795 -0.999984 
-0.00584292 -0.00116947 -0.999987 
-0.00914607 -0.00370087 -0.999951 
-0.0106608 -0.00786237 -0.999911 
-0.00805836 -0.0130634 -0.999882 
-0.00863585 -0.0182996 -0.999795 
-0.00908644 -0.0278888 -0.999569 
-0.0112475 -0.0382517 -0.999205 
-0.0105456 -0.0544733 -0.998459 
-0.00844029 -0.0637749 -0.997928 
-0.00958453 -0.0611893 -0.998082 
-0.00181664 -0.010227 -0.999944 
-0.000847032 -0.00875462 0.99996 
0.0251028 -0.0510358 0.998382 
0.0306981 -0.0571119 0.997896 
0.0317091 -0.0516878 0.99816 
0.0328634 -0.0413057 0.998606 
0.0321961 -0.0305026 0.999017 
0.036055 -0.01982 0.999154 
0.0385476 -0.0119755 0.999185 
0.0387423 -0.00645265 0.999229 
0.0393319 -0.0032554 0.999222 
0.0380126 -0.00174133 0.999276 
0.0373677 -0.00133782 0.999301 
0.0396936 -0.000825551 0.999212 
0.0424118 0.000630425 0.9991 
0.0438863 0.00253056 0.999034 
0.0409563 0.00457084 0.999151 
0.0397559 0.00682988 0.999186 
0.0403765 0.00856265 0.999148 
0.0401719 0.00998051 0.999143 
0.0406445 0.0115929 0.999107 
0.0406841 0.0139483 0.999075 
0.0410694 0.0170914 0.999011 
0.0412807 0.0208738 0.99893 
0.0395613 0.0259516 0.998881 
0.0411172 0.0312108 0.998668 
0.040339 0.037846 0.998469 
0.0383204 0.0465939 0.998179 
0.0381066 0.05907 0.997527 
0.0365439 0.0767147 0.996384 
0.0352771 0.101975 0.994162 
0.0326778 0.135394 0.990253 
0.0297369 0.181134 0.983009 
0.026001 0.243312 0.969599 
0.0223528 0.324606 0.945585 
0.0178988 0.430087 0.90261 
0.0137163 0.555615 0.831327 
0.00909836 0.71199 0.702131 
0.00649707 0.854321 0.519707 
0.00422932 0.960488 0.27829 
0.00234703 0.99999 -0.00377324 
-0.000963751 0.955098 -0.29629 
-0.00442364 0.842674 -0.538407 
-0.0081517 0.697874 -0.716172 
-0.0133781 0.547522 -0.836686 
-0.0181109 0.419805 -0.907434 
-0.0226132 0.315931 -0.948513 
-0.0262931 0.23436 -0.971795 
-0.0291368 0.170441 -0.984937 
-0.0326654 0.124346 -0.991702 
-0.034152 0.0920478 -0.995169 
-0.0383609 0.0697944 -0.996824 
-0.0388467 0.0549506 -0.997734 
-0.0389169 0.0435643 -0.998293 
-0.0406546 0.0351525 -0.998555 
-0.0408436 0.0289096 -0.998748 
-0.0398867 0.0239922 -0.998917 
-0.0402747 0.0200498 -0.998988 
-0.0401948 0.0168584 -0.99905 
-0.0415068 0.0140452 -0.99904 
-0.0413607 0.0115541 -0.999078 
-0.0416718 0.00922938 -0.999089 
-0.0413048 0.00719491 -0.999121 
-0.0431343 0.0056832 -0.999053 
-0.0402425 0.00454602 -0.99918 
-0.0410684 0.00371268 -0.99915 
-0.0406653 0.00278166 -0.99917 
-0.0415354 0.00152146 -0.999136 
-0.0432987 -9.94776e-05 -0.999063 
-0.0410138 -0.00227826 -0.999156 
-0.0371927 -0.00546786 -0.999294 
-0.0375142 -0.00985855 -0.999248 
-0.0400904 -0.0148274 -0.999086 
-0.0347384 -0.0215714 -0.999164 
-0.0349994 -0.0303675 -0.998926 
-0.0296883 -0.0428837 -0.99864 
-0.033836 -0.0517191 -0.998089 
-0.0314015 -0.057278 -0.997865 
-0.0258942 -0.0498433 -0.998422 
0.0029086 -0.0115977 -0.999932 
-0.00199655 -0.0119411 0.999925 
0.0266569 -0.048888 0.998449 
0.0327495 -0.0553719 0.997929 
0.0363392 -0.0493949 0.998119 
0.0388206 -0.0398545 0.998451 
0.0407105 -0.0304775 0.998706 
0.0430512 -0.0216476 0.998839 
0.0450096 -0.0139347 0.99889 
0.046107 -0.00789618 0.998906 
0.0476719 -0.00426601 0.998854 
0.0482288 -0.0022748 0.998834 
0.0487055 -0.00122621 0.998813 
0.0491907 -0.000405354 0.99879 
0.0494275 0.000877433 0.998778 
0.0492993 0.00262439 0.998781 
0.0496729 0.00435533 0.998757 
0.0496679 0.00612253 0.998748 
0.0496317 0.00772678 0.998738 
0.0494048 0.00919089 0.998737 
0.0493012 0.0107719 0.998726 
0.0491827 0.0128523 0.998708 
0.0491903 0.0155529 0.998669 
0.0491783 0.0188588 0.998612 
0.0493327 0.0233241 0.998511 
0.0494659 0.0281497 0.99838 
0.0489038 0.0343338 0.998214 
0.0484258 0.0430114 0.997901 
0.0472437 0.0543125 0.997407 
0.045401 0.0707539 0.996459 
0.0426608 0.093972 0.994661 
0.0388381 0.128075 0.991004 
0.0352455 0.173709 0.984166 
0.0312501 0.235848 0.971288 
0.0260834 0.318968 0.947407 
0.0205141 0.428151 0.903474 
0.0150953 0.573878 0.818802 
0.0106962 0.719225 0.694695 
0.00744811 0.855001 0.518573 
0.00505438 0.960184 0.279326 
0.00214661 0.999776 -0.021108 
-0.000251186 0.958795 -0.284105 
-0.00490217 0.851584 -0.524197 
-0.00977385 0.708195 -0.705949 
-0.0148679 0.560464 -0.828046 
-0.0206522 0.425343 -0.904797 
-0.0262648 0.318581 -0.947532 
-0.0314825 0.236973 -0.971006 
-0.0361408 0.174511 -0.983993 
-0.0399508 0.128556 -0.990897 
-0.0428326 0.0955855 -0.9945 
-0.0454702 0.0727673 -0.996312 
-0.0470593 0.0558822 -0.997328 
-0.0481593 0.0443967 -0.997853 
-0.0487846 0.0354093 -0.998182 
-0.0489575 0.0286028 -0.998392 
-0.0491693 0.0237298 -0.998509 
-0.0493268 0.0198019 -0.998587 
-0.0494474 0.0166401 -0.998639 
-0.0492771 0.0137946 -0.99869 
-0.0494421 0.0114033 -0.998712 
-0.0494722 0.00932792 -0.998732 
-0.0494869 0.00749186 -0.998747 
-0.0497387 0.00602489 -0.998745 
-0.049843 0.00482386 -0.998746 
-0.0496081 0.00381911 -0.998762 
-0.0495219 0.00277809 -0.998769 
-0.049398 0.00142308 -0.998779 
-0.0492686 -0.00045962 -0.998786 
-0.0487583 -0.00294871 -0.998807 
-0.0473742 -0.00598902 -0.99886 
-0.0468318 -0.0100713 -0.998852 
-0.045553 -0.0159991 -0.998834 
-0.043556 -0.0229322 -0.998788 
-0.0418938 -0.0311057 -0.998638 
-0.0395327 -0.0394865 -0.998438 
-0.0383072 -0.0491111 -0.998059 
-0.0345308 -0.0554024 -0.997867 
-0.0286363 -0.0493485 -0.998372 
0.00347638 -0.0145123 -0.999892 
-0.00102378 -0.00986745 0.999944 
0.0233791 -0.04977 0.998488 
0.0283096 -0.0566735 0.997992 
0.0320582 -0.0496127 0.998254 
0.0353129 -0.0406971 0.998548 
0.038676 -0.0306142 0.998783 
0.0400287 -0.0216977 0.998963 
0.0417267 -0.013595 0.999037 
0.0437547 -0.00794303 0.999011 
0.044758 -0.00438919 0.998989 
0.0452407 -0.00233029 0.998974 
0.0471091 -0.000991792 0.99889 
0.0467042 0.000225071 0.998909 
0.0460772 0.00159031 0.998937 
0.0454841 0.0032008 0.99896 
0.0460447 0.0047246 0.998929 
0.0471929 0.0061632 0.998867 
0.0469723 0.00767919 0.998867 
0.0465316 0.00909285 0.998876 
0.0463639 0.0106706 0.998868 
0.0462767 0.0126103 0.99885 
0.0462222 0.0150929 0.998818 
0.0463321 0.0182698 0.99876 
0.0469265 0.0222208 0.998651 
0.0464 0.0272084 0.998553 
0.0463834 0.0336402 0.998357 
0.0463763 0.0418718 0.998047 
0.045035 0.0536401 0.997544 
0.0430023 0.0698802 0.99663 
0.0401326 0.0945801 0.994708 
0.0361784 0.126929 0.991252 
0.0318373 0.17326 0.984361 
0.0283127 0.23788 0.970882 
0.0230345 0.327616 0.94453 
0.0178896 0.448885 0.89341 
0.0134657 0.579058 0.815175 
0.00996351 0.7188 0.695146 
0.00636765 0.873966 0.485946 
0.00320608 0.972114 0.234489 
4.06012e-05 0.999995 -0.00278406 
-0.00328711 0.963582 -0.2674 
-0.00370512 0.865291 -0.501258 
-0.00818973 0.720424 -0.693486 
-0.0133171 0.568139 -0.822826 
-0.0181269 0.431223 -0.902059 
-0.0233843 0.321353 -0.946673 
-0.0288398 0.2358 -0.971373 
-0.034321 0.173948 -0.984157 
-0.0374328 0.127941 -0.991075 
-0.0410651 0.0962692 -0.994508 
-0.042497 0.0731682 -0.996414 
-0.0441469 0.0558205 -0.997465 
-0.0454218 0.0430755 -0.998039 
-0.0460304 0.0342659 -0.998353 
-0.0463973 0.0277031 -0.998539 
-0.046683 0.0226978 -0.998652 
-0.046708 0.0188795 -0.998731 
-0.0466347 0.0158386 -0.998787 
-0.0464784 0.0133772 -0.99883 
-0.0463495 0.0111908 -0.998863 
-0.0460428 0.00921726 -0.998897 
-0.046014 0.00760307 -0.998912 
-0.0460939 0.00622486 -0.998918 
-0.0464471 0.00497215 -0.998909 
-0.0466807 0.00393844 -0.998902 
-0.0467547 0.00274241 -0.998903 
-0.0463651 0.00126225 -0.998924 
-0.0452937 -0.000589542 -0.998974 
-0.0455642 -0.00292502 -0.998958 
-0.0460803 -0.00608894 -0.99892 
-0.0440666 -0.0105733 -0.998973 
-0.0413521 -0.0161485 -0.999015 
-0.0411361 -0.0232877 -0.998883 
-0.0380009 -0.0323642 -0.998754 
-0.0378328 -0.0408895 -0.998447 
-0.0332692 -0.0505586 -0.998167 
-0.0291239 -0.056219 -0.997994 
-0.0242151 -0.0479039 -0.998559 
0.00228524 -0.0137697 -0.999904 
-0.00316225 -0.0150538 0.9999 
0.0188876 -0.0511236 0.998514 
0.0233151 -0.0594711 0.997958 
0.0268345 -0.0531604 0.998226 
0.0295414 -0.0436991 0.998608 
0.0328692 -0.0331955 0.998908 
0.0344063 -0.0237263 0.999127 
0.0361526 -0.0153808 0.999228 
0.0374723 -0.00905508 0.999257 
0.0380435 -0.00529317 0.999262 
0.0388824 -0.00254009 0.999241 
0.0400796 -0.000570054 0.999197 
0.0397227 0.000999861 0.999211 
0.0395282 0.0025585 0.999216 
0.0390376 0.00417734 0.999229 
0.0398463 0.00554082 0.999191 
0.0410467 0.0067686 0.999135 
0.0401731 0.00810421 0.99916 
0.0398716 0.00946361 0.99916 
0.0398308 0.0110015 0.999146 
0.039885 0.0129145 0.999121 
0.0399068 0.0153595 0.999086 
0.0402527 0.0185815 0.999017 
0.0411237 0.0224643 0.998902 
0.0403386 0.0275866 0.998806 
0.0403724 0.0343743 0.998594 
0.0406651 0.0431874 0.998239 
0.0389529 0.0554571 0.997701 
0.037177 0.0737723 0.996582 
0.0337337 0.0970001 0.994713 
0.0298566 0.134045 0.990525 
0.0258538 0.185013 0.982396 
0.0230628 0.249406 0.968124 
0.0183034 0.352716 0.935551 
0.0140326 0.46515 0.885121 
0.0110731 0.592013 0.805851 
0.00894542 0.776436 0.630134 
0.00410698 0.901463 0.432848 
0.00368836 0.938437 0.34544 
-0.0015578 0.998587 0.0531493 
-0.00538722 0.968669 -0.248313 
-0.00786539 0.857327 -0.514715 
-0.00817201 0.724324 -0.689412 
-0.0116176 0.568547 -0.822568 
-0.0156185 0.421208 -0.906833 
-0.019793 0.309674 -0.950634 
-0.0244058 0.231346 -0.972565 
-0.0297987 0.168679 -0.98522 
-0.0318316 0.124936 -0.991654 
-0.0354918 0.0930337 -0.99503 
-0.0368136 0.0685669 -0.996967 
-0.0388957 0.0516687 -0.997907 
-0.0398778 0.040184 -0.998397 
-0.040213 0.0316501 -0.99869 
-0.0402982 0.0253859 -0.998866 
-0.0405409 0.0208525 -0.998961 
-0.0404532 0.017379 -0.999031 
-0.0403753 0.0146912 -0.999077 
-0.0398055 0.0124516 -0.99913 
-0.0399037 0.0105611 -0.999148 
-0.0391538 0.00894333 -0.999194 
-0.0398953 0.00747153 -0.999176 
-0.0395158 0.0062028 -0.9992 
-0.0396333 0.0051504 -0.999201 
-0.0398228 0.00403032 -0.999199 
-0.0403384 0.0027211 -0.999183 
-0.0397055 0.00111898 -0.999212 
-0.0386464 -0.000924014 -0.999253 
-0.0388833 -0.00346469 -0.999238 
-0.0403362 -0.00656121 -0.999165 
-0.0375063 -0.0108033 -0.999238 
-0.0350392 -0.0172224 -0.999238 
-0.0351002 -0.024969 -0.999072 
-0.0319017 -0.0347577 -0.998887 
-0.0319953 -0.0431521 -0.998556 
-0.0270046 -0.0527272 -0.998244 
-0.0228858 -0.0577612 -0.998068 
-0.0186993 -0.0475589 -0.998694 
0.001708 -0.0138631 -0.999903 
-0.00360401 -0.0166836 0.999879 
0.0112268 -0.0414408 0.99908 
0.017961 -0.0581259 0.998148 
0.0212653 -0.0585313 0.998059 
0.0234245 -0.050181 0.998466 
0.0260739 -0.0397465 0.99887 
0.0278711 -0.0302471 0.999154 
0.0289074 -0.0204981 0.999372 
0.0301177 -0.0127266 0.999466 
0.0304561 -0.00769878 0.999507 
0.0310326 -0.00400916 0.999511 
0.032153 -0.00127613 0.999483 
0.0318975 0.000628871 0.999491 
0.0318045 0.00237509 0.999492 
0.0319684 0.00394728 0.999482 
0.0316804 0.00543262 0.999484 
0.0322336 0.006597 0.999459 
0.0327079 0.00764809 0.999436 
0.0320201 0.00886572 0.999448 
0.0318981 0.0101665 0.99944 
0.0321013 0.0117149 0.999416 
0.0321791 0.0136629 0.999389 
0.0326086 0.0162581 0.999336 
0.0328064 0.0195739 0.999271 
0.0335339 0.0236538 0.999158 
0.0331223 0.0295646 0.999014 
0.0333111 0.037418 0.998745 
0.0329675 0.0470453 0.998349 
0.0318178 0.062131 0.997561 
0.0285927 0.0807085 0.996328 
0.0257575 0.111029 0.993483 
0.021732 0.156551 0.987431 
0.0182018 0.225248 0.974131 
0.0163784 0.301924 0.953192 
0.0119366 0.40349 0.914905 
0.00838075 0.549411 0.83551 
0.00643382 0.719664 0.694296 
0.00166455 0.841097 0.540885 
-0.00113217 0.995792 0.0916749 
-0.00491017 0.996906 -0.0784129 
-0.00603668 0.963472 -0.267751 
-0.00637588 0.957249 -0.289219 
-0.00899387 0.848059 -0.529826 
-0.00890979 0.637364 -0.77051 
-0.0105993 0.484215 -0.874884 
-0.0135312 0.343615 -0.939012 
-0.0172648 0.245671 -0.969199 
-0.0231479 0.179217 -0.983537 
-0.0245305 0.134192 -0.990651 
-0.028207 0.0982901 -0.994759 
-0.0301151 0.0736825 -0.996827 
-0.0317816 0.0537711 -0.998048 
-0.0325464 0.041153 -0.998623 
-0.033051 0.0322837 -0.998933 
-0.0330032 0.0256379 -0.999127 
-0.0329453 0.0207886 -0.999241 
-0.0327692 0.017281 -0.999314 
-0.0326092 0.014634 -0.999362 
-0.032248 0.0125667 -0.999401 
-0.0321279 0.0107962 -0.999426 
-0.0312591 0.00933468 -0.999468 
-0.032028 0.00796341 -0.999456 
-0.0321738 0.00679971 -0.99946 
-0.0312769 0.0057231 -0.999495 
-0.0318358 0.0046064 -0.999483 
-0.0320178 0.00319558 -0.999483 
-0.0316903 0.00153083 -0.999497 
-0.0306822 -0.00058445 -0.99953 
-0.0308123 -0.00330022 -0.99952 
-0.0324641 -0.00677761 -0.99945 
-0.0303318 -0.0117507 -0.999471 
-0.028092 -0.0185987 -0.999433 
-0.0284509 -0.0270241 -0.99923 
-0.0254281 -0.0373341 -0.99898 
-0.0257994 -0.0457295 -0.998621 
-0.0211169 -0.0551181 -0.998257 
-0.0173508 -0.0598661 -0.998056 
-0.0144037 -0.0497753 -0.998657 
0.00118756 -0.0138974 -0.999902 
-0.00107092 -0.0104979 0.999938 
0.0126976 -0.0514985 0.998593 
0.0168303 -0.0617169 0.997952 
0.0178154 -0.0563296 0.998253 
0.0196275 -0.0468479 0.99871 
0.0205399 -0.0371458 0.999099 
0.0220978 -0.0273037 0.999383 
0.0226485 -0.0180088 0.999582 
0.0228266 -0.0114592 0.999674 
0.0233872 -0.00657919 0.999705 
0.0242408 -0.00283965 0.999703 
0.023927 -0.000326242 0.999714 
0.0239489 0.00180354 0.999712 
0.0240567 0.00360796 0.999705 
0.0244438 0.00506817 0.999689 
0.023639 0.00635434 0.999701 
0.0236895 0.0073605 0.999693 
0.0244751 0.00831942 0.999666 
0.0238293 0.00945054 0.999672 
0.0239922 0.0107077 0.999655 
0.0242832 0.012231 0.999631 
0.024764 0.0142839 0.999592 
0.0249878 0.0169757 0.999544 
0.0249694 0.0204761 0.999479 
0.0261973 0.0252781 0.999338 
0.0260096 0.0323587 0.999138 
0.0252436 0.0411059 0.998836 
0.0256783 0.0537854 0.998223 
0.0226031 0.0696157 0.997318 
0.0205494 0.0976027 0.995013 
0.0172555 0.141907 0.989729 
0.0142423 0.213772 0.976779 
0.0108948 0.318897 0.947726 
0.00767481 0.457607 0.889119 
0.00465737 0.613616 0.789589 
0.00414704 0.660135 0.751142 
0.00430993 0.923492 0.383603 
0.00243401 0.950874 0.309607 
-0.00191327 0.974402 0.224809 
-0.00453453 0.998415 0.0565354 
-0.00743521 0.997903 -0.0646716 
-0.0123084 0.957144 -0.2894 
-0.0102041 0.864526 -0.502487 
-0.00927458 0.722108 -0.691719 
-0.00784355 0.515829 -0.856655 
-0.00885543 0.387525 -0.921815 
-0.0111521 0.273175 -0.961899 
-0.0162265 0.184371 -0.982722 
-0.0186937 0.12786 -0.991617 
-0.0214899 0.0924482 -0.995485 
-0.024269 0.06601 -0.997524 
-0.024805 0.0491551 -0.998483 
-0.0252872 0.0377091 -0.998969 
-0.0257009 0.0295776 -0.999232 
-0.0255137 0.0235672 -0.999397 
-0.0251404 0.0192278 -0.999499 
-0.0248174 0.0160587 -0.999563 
-0.0245144 0.0137443 -0.999605 
-0.0245472 0.0118805 -0.999629 
-0.0238468 0.0104398 -0.999662 
-0.0238506 0.00909841 -0.999675 
-0.0239562 0.00799871 -0.999681 
-0.0242956 0.00693894 -0.999681 
-0.0231623 0.00596645 -0.999714 
-0.0240579 0.00473644 -0.9997 
-0.0236524 0.00330225 -0.999715 
-0.0235274 0.00141214 -0.999723 
-0.0227551 -0.00100112 -0.999741 
-0.0229739 -0.00398989 -0.999729 
-0.0249253 -0.0074627 -0.999662 
-0.0228761 -0.0125488 -0.99966 
-0.0211139 -0.0198411 -0.999581 
-0.0217069 -0.0287788 -0.99935 
-0.0190443 -0.0393313 -0.999045 
-0.019539 -0.0484205 -0.998636 
-0.0154592 -0.0572772 -0.998239 
-0.0125018 -0.0617031 -0.998017 
-0.0102868 -0.0500606 -0.998694 
0.00100077 -0.0144639 -0.999896 
-0.000658443 -0.0110913 0.999932 
0.0112425 -0.0529539 0.998534 
0.0138532 -0.0632706 0.997901 
0.0137588 -0.059 0.998164 
0.014748 -0.0502596 0.998628 
0.0147784 -0.039988 0.999091 
0.0157862 -0.0300737 0.999424 
0.0165465 -0.020976 0.999643 
0.0163383 -0.0135519 0.999775 
0.016797 -0.00814429 0.999826 
0.0177598 -0.00394185 0.999835 
0.017034 -0.000815344 0.999855 
0.0171575 0.00162997 0.999852 
0.0172547 0.00365867 0.999845 
0.017487 0.00521314 0.999834 
0.0170862 0.00644165 0.999834 
0.016436 0.00753275 0.999837 
0.0169927 0.0083988 0.999821 
0.0170603 0.00929601 0.999812 
0.0170319 0.010379 0.999802 
0.0173238 0.0116426 0.999783 
0.0180476 0.0133419 0.999749 
0.0183193 0.0156916 0.99971 
0.0182604 0.0188556 0.999656 
0.0191167 0.0233369 0.999545 
0.0199995 0.029394 0.999368 
0.0187671 0.0375412 0.999119 
0.019059 0.0498893 0.998573 
0.0168953 0.0663605 0.997653 
0.0155875 0.0922943 0.99561 
0.0130942 0.134498 0.990827 
0.0109258 0.204212 0.978865 
0.00872132 0.301001 0.953583 
0.00593993 0.431773 0.901962 
0.00576797 0.632361 0.774653 
0.00203256 0.826474 0.562981 
0.00308452 0.981752 0.190217 
0.005176 0.993401 0.114571 
0.00432395 0.995514 0.0945405 
0.0028064 0.998077 0.0618865 
0.00205878 0.999887 0.0147273 
-0.000563821 0.997611 -0.0690558 
-0.01123 0.877252 -0.479896 
-0.00919868 0.628875 -0.777453 
-0.00699038 0.574706 -0.818336 
-0.00678493 0.434801 -0.900498 
-0.00740826 0.319951 -0.947403 
-0.0106838 0.20749 -0.978178 
-0.0130598 0.143549 -0.989557 
-0.0150268 0.0973236 -0.995139 
-0.0177988 0.0705065 -0.997353 
-0.0182395 0.0517787 -0.998492 
-0.0186247 0.0392091 -0.999058 
-0.0189995 0.0305404 -0.999353 
-0.0189999 0.024356 -0.999523 
-0.01856 0.0197112 -0.999634 
-0.0181153 0.0163192 -0.999703 
-0.0175838 0.0138669 -0.99975 
-0.0178731 0.0121859 -0.999767 
-0.0169257 0.0107348 -0.9998 
-0.0175566 0.00964003 -0.9998 
-0.0167922 0.00855246 -0.999823 
-0.0172464 0.00763962 -0.999822 
-0.0166925 0.00671251 -0.999839 
-0.0171057 0.00543531 -0.999839 
-0.0167633 0.00394866 -0.999852 
-0.0167252 0.00187906 -0.999859 
-0.0162917 -0.000751803 -0.999868 
-0.0162682 -0.00407632 -0.99986 
-0.0176827 -0.00822543 -0.99981 
-0.0163921 -0.013951 -0.999769 
-0.0147461 -0.0214316 -0.999662 
-0.0156943 -0.0298196 -0.999432 
-0.0133828 -0.039999 -0.99911 
-0.0140262 -0.0494842 -0.998677 
-0.0110301 -0.05865 -0.998218 
-0.00896328 -0.0633905 -0.997949 
-0.0071729 -0.0506092 -0.998693 
0.000523294 -0.0130481 -0.999911 
-0.000333521 -0.0111537 0.999931 
0.00883868 -0.0525961 0.998578 
0.0105538 -0.063857 0.997904 
0.0103672 -0.0605263 0.998113 
0.0106698 -0.0511171 0.998636 
0.010658 -0.040972 0.999104 