# vtk DataFile Version 3.0 
Exported using Morpho https://github.com/Morpho-lang/morpho 
ASCII 
DATASET UNSTRUCTURED_GRID 

POINTS 1978 float 
-12 -4 -6.36036e-15 
-11.6809 -4 5.16807e-14 
-11.3529 -4 5.52758e-14 
-11.019 -4 5.03246e-14 
-10.6873 -4 4.52247e-14 
-10.289 -4 3.39035e-14 
-9.97139 -4 1.66474e-14 
-9.68155 -4 9.63555e-15 
-9.36829 -4 4.66071e-15 
-9.05148 -4 1.87131e-15 
-8.69065 -4 1.69865e-15 
-8.31218 -4 2.22956e-15 
-7.99282 -4 1.60291e-15 
-7.72307 -4 1.62723e-16 
-7.47874 -4 -1.99784e-15 
-7.2022 -4 -5.0952e-15 
-6.90591 -4 -8.08164e-15 
-6.60389 -4 -9.66766e-15 
-6.29504 -4 -1.16354e-14 
-5.97784 -4 -1.31319e-14 
-5.67017 -4 -1.53555e-14 
-5.36549 -4 -1.83572e-14 
-5.06884 -4 -2.16358e-14 
-4.77831 -4 -3.02165e-14 
-4.45268 -4 -3.64014e-14 
-4.14643 -4 -4.41829e-14 
-3.81467 -4 -5.71583e-14 
-3.49127 -4 -6.86336e-14 
-3.17564 -4 -7.85175e-14 
-2.8811 -4 -8.65635e-14 
-2.5918 -4 -1.01914e-13 
-2.30986 -4 -1.16018e-13 
-2.03108 -4 -1.25974e-13 
-1.75544 -4 -1.30783e-13 
-1.48197 -4 -1.25175e-13 
-1.19534 -4 -1.05546e-13 
-0.913504 -4 -8.96349e-14 
-0.59953 -4 -6.34852e-14 
-0.287004 -4 4.77662e-14 
0.0330629 -4 1.02662e-13 
0.31811 -4 -1.07653e-13 
0.600013 -4 4.94167e-14 
0.883824 -4 4.09232e-14 
1.1547 -4 7.12301e-14 
1.42116 -4 1.10105e-13 
1.69269 -4 1.28637e-13 
1.97101 -4 1.389e-13 
2.26701 -4 1.50444e-13 
2.59586 -4 1.2642e-13 
2.90715 -4 1.09579e-13 
3.25401 -4 8.02785e-14 
3.54218 -4 5.79977e-14 
3.84499 -4 5.21957e-14 
4.16344 -4 4.14927e-14 
4.46055 -4 3.24749e-14 
4.75877 -4 2.89553e-14 
5.07695 -4 2.51314e-14 
5.39074 -4 2.1227e-14 
5.70678 -4 1.68247e-14 
5.99898 -4 1.30627e-14 
6.29119 -4 1.03298e-14 
6.57921 -4 8.19476e-15 
6.88085 -4 5.79483e-15 
7.15282 -4 4.89443e-15 
7.4773 -4 4.58451e-15 
7.78546 -4 3.61758e-15 
8.09615 -4 2.59349e-15 
8.38418 -4 6.36296e-16 
8.63725 -4 -1.44575e-15 
8.91885 -4 -5.11158e-15 
9.27105 -4 -9.89532e-15 
9.60719 -4 -1.2531e-14 
9.88267 -4 -2.10866e-14 
10.2506 -4 -3.05369e-14 
10.5716 -4 -5.61308e-14 
11.0441 -4 -6.34862e-14 
11.3594 -4 -5.39845e-14 
11.6824 -4 -5.25209e-14 
12 -4 7.07663e-15 
-12 -3.71158 -6.96306e-15 
-11.6491 -3.67513 -1.62247e-15 
-11.3326 -3.64609 -1.83504e-15 
-11.0221 -3.66471 -1.60358e-15 
-10.6987 -3.66366 -1.43014e-15 
-10.3661 -3.71365 -1.24114e-15 
-10.0119 -3.65785 -7.58393e-16 
-9.69645 -3.63419 -4.61854e-16 
-9.39591 -3.65459 -3.53995e-16 
-9.07901 -3.65031 -1.7374e-16 
-8.76132 -3.68501 -1.707e-15 
-8.40797 -3.70434 -8.26115e-16 
-8.06418 -3.66855 2.12987e-16 
-7.75875 -3.63017 8.67828e-16 
-7.48389 -3.61077 1.61189e-15 
-7.2163 -3.65469 1.4459e-16 
-6.91661 -3.66961 2.432e-16 
-6.60462 -3.66015 2.92403e-16 
-6.28456 -3.67064 4.47399e-16 
-5.97152 -3.6609 5.01405e-16 
-5.6616 -3.65877 5.22537e-16 
-5.36167 -3.65274 8.38344e-16 
-5.06723 -3.6485 -2.21982e-16 
-4.7513 -3.68112 2.25822e-15 
-4.45213 -3.6618 7.71423e-16 
-4.15252 -3.66604 1.70875e-15 
-3.8478 -3.68947 1.75872e-15 
-3.52554 -3.68626 2.6915e-15 
-3.21156 -3.68151 -1.57523e-15 
-2.89992 -3.6581 -2.1458e-15 
-2.61028 -3.66253 -2.10415e-15 
-2.3202 -3.66366 -2.52206e-15 
-2.02829 -3.66684 -4.4247e-15 
-1.74386 -3.67047 8.80701e-17 
-1.45986 -3.6588 -7.7332e-15 
-1.17081 -3.64042 1.78164e-15 
-0.865238 -3.64726 -4.14084e-16 
-0.576681 -3.62508 -2.19973e-15 
-0.26983 -3.63402 1.12226e-15 
0.033222 -3.61843 -2.59915e-16 
0.311562 -3.55644 -1.23002e-15 
0.593325 -3.6344 7.58984e-15 
0.891022 -3.63005 -5.41931e-15 
1.17398 -3.6302 3.54996e-15 
1.46836 -3.64885 3.0344e-15 
1.75862 -3.65643 3.63718e-15 
2.05878 -3.67938 3.13378e-15 
2.38618 -3.71645 3.18752e-15 
2.70947 -3.68862 2.42432e-15 
3.0389 -3.71534 2.03823e-15 
3.3446 -3.65274 -2.54496e-15 
3.64052 -3.66605 -2.20756e-15 
3.94936 -3.68066 -1.84613e-15 
4.24885 -3.65576 -1.42232e-15 
4.54312 -3.65404 -1.16376e-15 
4.84995 -3.67268 -1.00823e-15 
5.16067 -3.66745 -8.31199e-16 
5.47412 -3.67016 -7.07803e-16 
5.77471 -3.6472 -5.49887e-16 
6.07125 -3.65163 -4.50013e-16 
6.36336 -3.64382 -3.40044e-16 
6.66145 -3.66386 -3.16786e-16 
6.94428 -3.62135 -2.30266e-16 
7.24982 -3.67614 -2.17713e-16 
7.5591 -3.65897 -1.449e-16 
7.86958 -3.66318 -1.49705e-15 
8.16086 -3.64601 -4.73968e-16 
8.43438 -3.60686 6.43831e-16 
8.72011 -3.64484 1.10717e-16 
9.04804 -3.70453 2.78951e-16 
9.38782 -3.68223 5.00897e-16 
9.67948 -3.60728 6.16876e-16 
10.0073 -3.70186 1.11172e-15 
10.3379 -3.64849 1.16968e-15 
10.725 -3.76038 2.08165e-15 
11.0345 -3.64115 1.67859e-15 
11.3494 -3.64874 1.8025e-15 
11.6755 -3.66652 1.5553e-15 
12 -3.66914 7.76787e-15 
-12 -3.41696 -3.75722e-15 
-11.6468 -3.35426 -2.67047e-16 
-11.3057 -3.30144 -2.39479e-16 
-10.9789 -3.32451 -5.55151e-16 
-10.6541 -3.3148 -5.80178e-16 
-10.3503 -3.39229 -5.63039e-16 
-10.0329 -3.31925 -3.75847e-16 
-9.72436 -3.29078 -3.63383e-16 
-9.41037 -3.30004 -2.49009e-16 
-9.10431 -3.30699 -2.13387e-16 
-8.78913 -3.33273 -1.55268e-15 
-8.47644 -3.3858 -6.52933e-16 
-8.15014 -3.35621 2.35588e-16 
-7.83897 -3.29886 8.26427e-16 
-7.54303 -3.25132 6.45476e-16 
-7.25314 -3.28738 9.20169e-16 
-6.96854 -3.33665 1.249e-15 
-6.66536 -3.33229 1.7704e-15 
-6.34811 -3.34187 1.74941e-16 
-6.03477 -3.32726 1.94172e-16 
-5.72309 -3.32241 2.35796e-16 
-5.41661 -3.30982 2.92145e-16 
-5.11734 -3.30462 3.25209e-16 
-4.81605 -3.34983 5.45393e-16 
-4.5141 -3.32703 3.5608e-16 
-4.21467 -3.33142 7.15972e-16 
-3.90969 -3.35683 9.01279e-16 
-3.60209 -3.37428 1.33269e-15 
-3.28746 -3.36088 1.61509e-15 
-2.97938 -3.34296 1.95297e-15 
-2.66266 -3.31505 2.13366e-15 
-2.37184 -3.32587 1.98967e-15 
-2.06983 -3.34669 -9.80037e-16 
-1.76586 -3.3353 -4.02598e-16 
-1.46198 -3.31504 1.13132e-15 
-1.14294 -3.29953 3.93868e-16 
-0.857223 -3.24913 -2.028e-15 
-0.552788 -3.24565 5.48557e-15 
-0.237941 -3.25416 2.66417e-15 
0.0793203 -3.22817 -5.29961e-15 
0.255307 -2.98731 1.02953e-14 
0.515868 -3.26518 -7.55676e-15 
0.837972 -3.27698 -3.15535e-15 
1.15534 -3.25845 9.27614e-17 
1.44673 -3.30552 1.64039e-15 
1.75523 -3.31198 -2.73433e-15 
2.05214 -3.35194 1.51372e-15 
2.35741 -3.41899 1.62568e-15 
2.66252 -3.36967 -2.48352e-15 
2.97572 -3.40667 -2.21113e-15 
3.27996 -3.33664 -1.47445e-15 
3.59295 -3.32533 -1.03676e-15 
3.89043 -3.35074 -8.41053e-16 
4.18849 -3.32377 -6.29667e-16 
4.48861 -3.30979 -4.82621e-16 
4.78616 -3.33466 -4.21831e-16 
5.08783 -3.33719 -3.5853e-16 
5.39901 -3.34053 -2.83672e-16 
5.70605 -3.31286 -2.10198e-16 
6.01479 -3.30673 -1.87777e-16 
6.31099 -3.29652 -1.57072e-16 
6.61153 -3.3142 -1.29376e-16 
6.90969 -3.27824 -1.52542e-15 
7.21419 -3.3318 -1.43908e-15 
7.51698 -3.32252 -9.13069e-16 
7.82467 -3.32743 -2.55086e-16 
8.12824 -3.28627 1.16787e-16 
8.44596 -3.28485 6.09563e-16 
8.76482 -3.29848 1.50621e-15 
9.05882 -3.39004 1.70193e-16 
9.35514 -3.32668 1.58659e-16 
9.68475 -3.27674 2.26214e-16 
10.009 -3.36904 4.07152e-16 
10.312 -3.28929 4.46226e-16 
10.6313 -3.43894 7.62384e-16 
10.9634 -3.32716 6.65686e-16 
11.3172 -3.29772 3.55444e-16 
11.6534 -3.34213 3.28879e-16 
12 -3.33045 4.24031e-15 
-12 -3.11407 -4.54452e-15 
-11.6408 -3.03657 8.9553e-17 
-11.2971 -2.96715 3.12495e-16 
-10.9551 -2.98054 -9.57027e-16 
-10.6174 -2.9821 -1.48032e-15 
-10.2911 -3.03846 -1.71902e-16 
-9.97129 -2.96628 -2.51008e-16 
-9.64395 -2.95888 -1.85048e-16 
-9.32628 -2.96163 -2.22577e-16 
-9.00586 -2.97838 -1.5203e-15 
-8.71221 -2.96354 -8.67293e-16 
-8.44257 -3.05155 -4.75648e-16 
-8.14195 -3.00981 -6.31823e-17 
-7.84512 -2.95482 1.88244e-16 
-7.53164 -2.92899 1.69337e-16 
-7.222 -2.95206 3.8813e-16 
-6.9269 -2.99991 8.26761e-16 
-6.61458 -3.01011 7.99574e-16 
-6.30874 -3.009 9.33055e-16 
-6.00067 -2.99378 1.25758e-15 
-5.69618 -2.98528 1.5487e-15 
-5.39379 -2.97114 1.86895e-15 
-5.093 -2.97233 1.33589e-16 
-4.79586 -3.01675 1.76714e-16 
-4.49581 -2.99531 2.35941e-16 
-4.20338 -2.99703 2.70866e-16 
-3.91003 -3.0334 4.66897e-16 
-3.60303 -3.05406 4.92566e-16 
-3.29993 -3.03206 7.39824e-16 
-2.98024 -3.02224 9.28313e-16 
-2.67883 -2.97785 8.4649e-16 
-2.36685 -2.97044 1.49883e-15 
-2.07616 -3.01942 4.73015e-16 
-1.75987 -3.00784 2.327e-16 
-1.42803 -2.98304 -3.10561e-16 
-1.1384 -2.90489 -9.38112e-16 
-0.828871 -2.85421 -5.64408e-16 
-0.517218 -2.86435 -7.68967e-17 
-0.194773 -2.86936 5.37946e-15 
0.0385124 -2.6661 -1.05684e-14 
0.329864 -2.50907 7.37141e-15 
0.536798 -2.80747 -3.89837e-15 
0.802349 -2.91683 2.32275e-15 
1.12632 -2.90667 -1.64386e-15 
1.45567 -2.9279 1.79725e-15 
1.74303 -2.97338 -2.64069e-15 
2.06322 -3.00864 -1.491e-15 
2.36222 -3.09333 -1.65275e-15 
2.67041 -3.03355 -1.21559e-15 
2.96622 -3.08308 -1.00704e-15 
3.26518 -3.00259 -6.85334e-16 
3.5676 -3.00632 -5.47519e-16 
3.88119 -3.01496 -4.22734e-16 
4.17944 -2.99151 -3.17115e-16 
4.48191 -2.98212 -2.25954e-16 
4.78473 -2.99696 -1.74021e-16 
5.08079 -3.00067 -1.41167e-16 
5.37918 -3.01198 -1.75063e-15 
5.68004 -2.97989 -1.32601e-15 
5.98327 -2.9812 -1.05764e-15 
6.29303 -2.9533 -1.0781e-15 
6.59033 -2.97553 -8.23385e-16 
6.91037 -2.95887 -6.04872e-16 
7.22651 -2.99449 -4.31805e-16 
7.52372 -2.97961 -3.04692e-16 
7.82369 -2.99116 -1.82335e-16 
8.13639 -2.96223 1.88672e-16 
8.4331 -2.94161 3.68723e-16 
8.73051 -2.97285 8.14175e-16 
9.05243 -3.0355 1.17341e-16 
9.37762 -3.00101 2.03027e-16 
9.66579 -2.91681 2.04783e-16 
9.97185 -3.02162 1.02848e-16 
10.3019 -2.95887 1.39244e-15 
10.6394 -3.0945 2.65099e-16 
10.9936 -3.00377 5.60833e-16 
11.3273 -2.95749 -2.59355e-16 
11.6611 -3.01928 3.1283e-16 
12 -2.99665 4.53013e-15 
-12 -2.8042 -5.34819e-15 
-11.6586 -2.70907 1.00791e-16 
-11.3309 -2.62409 3.65053e-16 
-10.9861 -2.64897 9.87655e-17 
-10.6427 -2.65197 5.50283e-16 
-10.3021 -2.69919 -2.55389e-16 
-9.96641 -2.64217 -1.452e-15 
-9.63785 -2.63249 -1.55696e-15 
-9.31211 -2.63851 -1.60448e-15 
-9.01013 -2.62714 -9.97927e-16 
-8.6894 -2.64019 -5.14701e-16 
-8.36885 -2.68925 -2.33539e-16 
-8.07237 -2.65099 -6.67154e-17 
-7.75723 -2.6284 1.37143e-16 
-7.43394 -2.6167 -2.65964e-17 
-7.1266 -2.63508 1.81253e-16 
-6.82879 -2.68402 4.80489e-16 
-6.52389 -2.6788 2.34814e-16 
-6.22197 -2.67495 3.57468e-16 
-5.91872 -2.65835 6.94975e-16 
[...]
POINT_DATA 1978 
VECTORS vectors float
1.5397e-05 -0.00158952 0.999999 
0.000188173 -0.0608334 0.998148 
-0.000176201 -0.0621368 0.998068 
-4.3497e-05 -0.0533826 0.998574 
-0.000199017 -0.0417313 0.999129 
-0.000146003 -0.0268749 0.999639 
-1.42909e-05 -0.0166397 0.999862 
2.63461e-05 -0.00943025 0.999956 
-1.57697e-05 -0.00420634 0.999991 
-0.000108763 -0.00171228 0.999999 
-0.000195966 -0.00118498 0.999999 
-0.000133916 -0.00170081 0.999999 
4.28627e-05 -0.00145536 0.999999 
0.000160543 5.14017e-05 1 
0.000136594 0.00200825 0.999998 
8.91997e-05 0.00486199 0.999988 
4.65159e-05 0.007548 0.999972 
1.9323e-05 0.00911831 0.999958 
2.13132e-05 0.0103117 0.999947 
3.16513e-06 0.0117527 0.999931 
2.80355e-05 0.0140975 0.999901 
4.66693e-05 0.0175607 0.999846 
4.61452e-05 0.0218139 0.999762 
3.06892e-05 0.0263933 0.999652 
-6.83177e-06 0.0322277 0.999481 
-1.66246e-05 0.0389266 0.999242 
-2.75386e-05 0.0482337 0.998836 
-1.59909e-05 0.0607252 0.998155 
3.00481e-05 0.079064 0.99687 
5.61139e-05 0.103798 0.994598 
7.62002e-05 0.137745 0.990468 
7.68007e-05 0.183244 0.983067 
8.34346e-05 0.243936 0.969791 
7.55889e-05 0.318836 0.94781 
5.99426e-05 0.415029 0.909808 
3.50052e-05 0.538906 0.842366 
1.63203e-05 0.677296 0.735711 
-7.19871e-06 0.834904 0.550395 
-1.01644e-05 0.958386 0.285475 
2.69497e-06 0.999352 -0.036 
7.47333e-06 0.947932 -0.318472 
-4.07296e-06 0.833501 -0.552518 
-3.07876e-05 0.691511 -0.722366 
-4.48306e-05 0.556448 -0.830882 
-7.5373e-05 0.437739 -0.899102 
-6.98555e-05 0.336973 -0.941514 
-5.42269e-05 0.25651 -0.966542 
-1.71748e-05 0.190857 -0.981618 
2.13024e-05 0.1385 -0.990362 
2.79512e-05 0.103147 -0.994666 
2.55443e-06 0.0759739 -0.99711 
-4.11899e-05 0.0600256 -0.998197 
-2.31746e-05 0.0478929 -0.998852 
-1.88076e-05 0.0384405 -0.999261 
-4.30935e-05 0.0317163 -0.999497 
-2.84793e-05 0.0264773 -0.999649 
4.70925e-06 0.022138 -0.999755 
-5.11476e-06 0.0187649 -0.999824 
-3.19407e-05 0.0157132 -0.999877 
-6.66491e-05 0.012917 -0.999917 
-6.28466e-05 0.0102336 -0.999948 
-7.25807e-05 0.00777546 -0.99997 
-6.30352e-05 0.00576644 -0.999983 
-6.30648e-05 0.00469678 -0.999989 
1.98412e-06 0.0039403 -0.999992 
-1.30462e-05 0.00324944 -0.999995 
-5.00266e-05 0.00215929 -0.999998 
-0.000133501 0.000618473 -1 
-0.000108002 -0.00117205 -0.999999 
-3.86332e-06 -0.00370403 -0.999993 
7.72378e-05 -0.00786494 -0.999969 
2.21051e-05 -0.0130659 -0.999915 
1.88784e-05 -0.0183029 -0.999832 
0.000212468 -0.0278858 -0.999611 
0.000391024 -0.0382422 -0.999268 
0.000365854 -0.0544486 -0.998517 
0.000206512 -0.0637098 -0.997968 
-0.000149626 -0.0609925 -0.998138 
-0.000131779 -0.00103757 -0.999999 
0.000108903 0.000788681 1 
0.0248904 -0.0508686 0.998395 
0.0305566 -0.0570371 0.997904 
0.0315629 -0.0516455 0.998167 
0.0327217 -0.0412873 0.998611 
0.0320296 -0.0304945 0.999022 
0.0359064 -0.0198187 0.999159 
0.0384047 -0.0119802 0.99919 
0.0385833 -0.00646053 0.999235 
0.0391832 -0.00326101 0.999227 
0.0378473 -0.00174481 0.999282 
0.0371947 -0.001337 0.999307 
0.039538 -0.000820754 0.999218 
0.0422674 0.000633854 0.999106 
0.0437447 0.0025307 0.99904 
0.0408086 0.00456885 0.999157 
0.0396128 0.00682518 0.999192 
0.0402202 0.00855758 0.999154 
0.0400137 0.00997722 0.999149 
0.0404903 0.011591 0.999113 
0.040532 0.0139459 0.999081 
0.0409208 0.0170872 0.999016 
0.0411354 0.0208681 0.998936 
0.0394016 0.0259431 0.998887 
0.0409609 0.0312024 0.998673 
0.0401947 0.0378408 0.998475 
0.0381645 0.0465882 0.998185 
0.0379455 0.0590679 0.997533 
0.0363915 0.0767181 0.996388 
0.0351425 0.101985 0.994165 
0.0325493 0.135413 0.990254 
0.0296158 0.181159 0.983008 
0.0258937 0.243342 0.969595 
0.0222604 0.324647 0.945573 
0.0178241 0.430109 0.902601 
0.0136588 0.555635 0.831314 
0.00905494 0.711975 0.702147 
0.0064762 0.854216 0.519879 
0.00423386 0.960527 0.278154 
0.00235207 0.999989 -0.00395109 
-0.000991602 0.955034 -0.296494 
-0.00442407 0.842646 -0.53845 
-0.00813253 0.697789 -0.716257 
-0.0133129 0.547567 -0.836656 
-0.0180368 0.419819 -0.907429 
-0.022517 0.315979 -0.948499 
-0.0261801 0.2344 -0.971788 
-0.028992 0.17046 -0.984938 
-0.0325255 0.124348 -0.991705 
-0.0339906 0.0920473 -0.995174 
-0.0382209 0.069794 -0.996829 
-0.0386992 0.0549483 -0.997739 
-0.0387621 0.0435605 -0.998299 
-0.0405075 0.0351484 -0.998561 
-0.0406955 0.0289054 -0.998753 
-0.0397319 0.0239879 -0.998922 
-0.0401208 0.0200454 -0.998994 
-0.0400402 0.0168535 -0.999056 
-0.0413595 0.0140409 -0.999046 
-0.0412099 0.0115505 -0.999084 
-0.0415287 0.00922745 -0.999095 
-0.0411479 0.00719472 -0.999127 
-0.0429927 0.00568345 -0.999059 
-0.0400809 0.00454583 -0.999186 
-0.0409152 0.00371076 -0.999156 
-0.0405129 0.00277866 -0.999175 
-0.0413905 0.0015187 -0.999142 
-0.0431668 -0.000102366 -0.999068 
-0.0408584 -0.00227997 -0.999162 
-0.0370248 -0.00546982 -0.999299 
-0.0373529 -0.00986132 -0.999253 
-0.0399549 -0.0148304 -0.999091 
-0.034566 -0.0215753 -0.99917 
-0.0348568 -0.0303659 -0.998931 
-0.0294853 -0.0428675 -0.998646 
-0.0336947 -0.0516791 -0.998095 
-0.0312494 -0.0572013 -0.997873 
-0.0256661 -0.0496593 -0.998436 
2.30932e-05 0.000513177 -1 
-0.000210546 -0.000196689 1 
0.0265297 -0.0487054 0.998461 
0.0326868 -0.0552898 0.997935 
0.0362763 -0.0493623 0.998122 
0.0387564 -0.0398391 0.998454 
0.0406348 -0.0304689 0.998709 
0.0429815 -0.0216436 0.998841 
0.0449417 -0.0139392 0.998892 
0.0460411 -0.00790465 0.998908 
0.0475925 -0.0042734 0.998858 
0.0481454 -0.00227833 0.998838 
0.0486175 -0.00122714 0.998817 
0.049106 -0.000403534 0.998793 
0.0493555 0.000880013 0.998781 
0.049237 0.00262428 0.998784 
0.049603 0.0043535 0.99876 
0.0495921 0.00611918 0.998751 
0.0495525 0.0077232 0.998742 
0.0493254 0.00918816 0.99874 
0.0492248 0.0107699 0.99873 
0.0491085 0.0128501 0.998711 
0.0491182 0.0155499 0.998672 
0.049108 0.0188548 0.998615 
0.0492561 0.0233187 0.998514 
0.0493903 0.0281452 0.998383 
0.0488301 0.0343304 0.998217 
0.0483457 0.0430069 0.997904 
0.0471671 0.054318 0.997409 
0.0453223 0.0707592 0.996463 
0.0425881 0.0939793 0.994663 
0.0387741 0.128085 0.991005 
0.035186 0.173709 0.984168 
0.0311909 0.235861 0.971286 
0.0260308 0.318994 0.947399 
0.0204693 0.428211 0.903447 
0.0150599 0.573936 0.818761 
0.0106871 0.719171 0.694751 
0.00744568 0.855044 0.518502 
0.0050488 0.960168 0.279377 
0.00215193 0.999773 -0.0211895 
-0.000242766 0.958867 -0.283854 
-0.00491208 0.851782 -0.523873 
-0.00978011 0.708207 -0.705937 
-0.014847 0.560394 -0.828093 
-0.0206067 0.425434 -0.904755 
-0.0262162 0.318565 -0.947538 
-0.0314221 0.236988 -0.971004 
-0.0360659 0.174517 -0.983993 
-0.0398789 0.128572 -0.990898 
-0.0427519 0.0955946 -0.994502 
-0.045396 0.0727689 -0.996315 
-0.0469862 0.0558797 -0.997331 
-0.0480826 0.0443926 -0.997856 
-0.0487112 0.0354043 -0.998185 
-0.0488859 0.0285978 -0.998395 
-0.0490943 0.0237251 -0.998512 
-0.0492504 0.0197974 -0.99859 
-0.0493705 0.0166353 -0.998642 
-0.049204 0.0137901 -0.998694 
-0.0493696 0.0113999 -0.998716 
-0.0494016 0.00932544 -0.998735 
-0.0494144 0.0074905 -0.99875 
-0.0496706 0.00602385 -0.998747 
-0.0497661 0.00482301 -0.998749 
-0.0495313 0.00381764 -0.998765 
-0.049448 0.002776 -0.998773 
-0.0493249 0.00142044 -0.998782 
-0.0491931 -0.00046205 -0.998789 
-0.0486885 -0.00295186 -0.99881 
-0.0472919 -0.00599004 -0.998863 
-0.0467563 -0.0100711 -0.998856 
-0.045483 -0.0159969 -0.998837 
-0.043477 -0.0229266 -0.998791 
-0.041827 -0.0310936 -0.998641 
-0.0394521 -0.0394729 -0.998441 
-0.0382375 -0.0490801 -0.998063 
-0.0344584 -0.0553182 -0.997874 
-0.0284915 -0.0491584 -0.998385 
-9.11082e-06 -0.000215568 -1 
0.000123793 0.000122269 1 
0.0232932 -0.0495784 0.998499 
0.0282828 -0.0565852 0.997997 
0.0320329 -0.0495797 0.998256 
0.0352845 -0.0406753 0.998549 
0.0386385 -0.0305997 0.998785 
0.0399931 -0.0216936 0.998964 
0.0416907 -0.0135991 0.999038 
0.0437151 -0.00795019 0.999012 
0.0447195 -0.00439327 0.99899 
0.0452024 -0.00233255 0.998975 
0.0470615 -0.000993086 0.998892 
0.0466624 0.000224609 0.998911 
0.0460387 0.0015899 0.998938 
0.0454536 0.00319961 0.998961 
0.0460106 0.004723 0.99893 
0.047146 0.00616098 0.998869 
0.0469317 0.00767631 0.998869 
0.0464938 0.00909002 0.998877 
0.0463252 0.0106678 0.998869 
0.0462386 0.0126076 0.998851 
0.0461847 0.0150899 0.998819 
0.0462961 0.0182665 0.998761 
0.0468851 0.0222174 0.998653 
0.0463651 0.0272048 0.998554 
0.0463469 0.033636 0.998359 
0.0463325 0.0418681 0.998048 
0.0449911 0.0536341 0.997547 
0.0429609 0.069879 0.99663 
0.0400923 0.0945778 0.99471 
0.0361444 0.12693 0.991253 
0.0318054 0.173271 0.984361 
0.0282839 0.237859 0.970888 
0.0230132 0.327568 0.944547 
0.017871 0.44885 0.893428 
0.0134722 0.578907 0.815282 
0.00997936 0.7188 0.695146 
0.00634311 0.873901 0.486063 
0.00318182 0.972172 0.234248 
-1.19256e-05 0.999994 -0.00339021 
-0.00336373 0.963485 -0.267742 
-0.0036124 0.865377 -0.501109 
-0.00815344 0.720604 -0.693299 
-0.0133045 0.568098 -0.822853 
-0.0181121 0.431132 -0.902107 
-0.0233578 0.321414 -0.946651 
-0.0288094 0.235775 -0.971381 
-0.0342811 0.173965 -0.984155 
-0.0373937 0.127949 -0.991076 
-0.041022 0.096269 -0.99451 
-0.0424591 0.0731652 -0.996416 
-0.0441082 0.0558186 -0.997466 
-0.0453809 0.0430713 -0.998041 
-0.0459912 0.0342618 -0.998354 
-0.0463601 0.0276986 -0.998541 
-0.0466438 0.0226928 -0.998654 
-0.0466687 0.0188748 -0.998732 
-0.0465955 0.0158342 -0.998788 
-0.0464405 0.0133729 -0.998832 
-0.0463124 0.0111872 -0.998864 
-0.0460037 0.00921468 -0.998899 
-0.0459765 0.00760114 -0.998914 
-0.0460591 0.00622296 -0.998919 
-0.0464087 0.00497033 -0.99891 
-0.0466413 0.00393657 -0.998904 
-0.0467128 0.00274061 -0.998905 
-0.0463236 0.00126009 -0.998926 
-0.0452662 -0.000591296 -0.998975 
-0.0455227 -0.00292624 -0.998959 
-0.0460317 -0.00609243 -0.998921 
-0.0440273 -0.010578 -0.998974 
-0.0413178 -0.0161503 -0.999016 
-0.0410978 -0.0232796 -0.998884 
-0.0379693 -0.0323471 -0.998755 
-0.0377903 -0.0408691 -0.99845 
-0.0332415 -0.0505208 -0.99817 
-0.0290907 -0.0561243 -0.998 
-0.0241105 -0.0477075 -0.99857 
-0.000137799 4.22251e-05 -1 
-0.000127568 0.000192654 1 
0.0188195 -0.0509183 0.998525 
0.0232967 -0.059369 0.997964 
0.0268188 -0.0531112 0.998228 
0.0295247 -0.0436714 0.99861 
0.0328476 -0.0331763 0.99891 
0.0343818 -0.0237198 0.999127 
0.0361284 -0.0153813 0.999229 
0.0374442 -0.00905864 0.999258 
0.0380178 -0.00529588 0.999263 
0.0388583 -0.00254185 0.999241 
0.0400524 -0.000571055 0.999197 
0.0396964 0.000998832 0.999211 
0.0395008 0.00255734 0.999216 
0.0390154 0.00417492 0.99923 
0.0398196 0.00553803 0.999192 
0.0410158 0.00676592 0.999136 
0.0401499 0.00810084 0.999161 
0.0398482 0.0094602 0.999161 
0.039805 0.0109983 0.999147 
0.0398596 0.0129112 0.999122 
0.0398809 0.0153557 0.999086 
0.0402279 0.0185774 0.999018 
0.0410946 0.0224603 0.998903 
0.0403134 0.0275819 0.998806 
0.0403448 0.0343684 0.998595 
0.0406334 0.0431878 0.99824 
0.0389278 0.0554539 0.997702 
0.0371462 0.073775 0.996583 
0.0337051 0.097009 0.994713 
0.0298322 0.134055 0.990525 
0.0258326 0.185039 0.982392 
0.0230421 0.249445 0.968115 
0.0182953 0.352732 0.935546 
0.0140321 0.465065 0.885165 
0.01108 0.592305 0.805637 
0.00895663 0.776548 0.629994 
0.00413347 0.901684 0.432376 
0.00365197 0.938252 0.345934 
-0.00155685 0.998545 0.0538957 
-0.00541235 0.968783 -0.24785 
-0.00789779 0.856919 -0.515391 
-0.0081276 0.72429 -0.689447 
-0.0115911 0.568652 -0.822497 
-0.0156058 0.421266 -0.906803 
-0.0197764 0.309629 -0.950652 
-0.0243868 0.231387 -0.972556 
-0.0297751 0.168659 -0.985225 
-0.031804 0.124933 -0.991655 
-0.035463 0.0930385 -0.995031 
-0.0367861 0.0685685 -0.996968 
-0.0388674 0.0516689 -0.997908 
-0.0398485 0.0401831 -0.998397 
-0.0401853 0.0316477 -0.998691 
-0.0402727 0.0253829 -0.998866 
-0.0405135 0.0208494 -0.998961 
-0.040427 0.0173758 -0.999031 
-0.0403501 0.0146879 -0.999078 
-0.039781 0.0124478 -0.999131 
-0.0398786 0.0105578 -0.999149 
-0.0391275 0.00894035 -0.999194 
-0.0398696 0.00746919 -0.999177 
-0.0394928 0.00620072 -0.999201 
-0.0396086 0.00514795 -0.999202 
-0.0397971 0.00402746 -0.9992 
-0.0403125 0.00271819 -0.999183 
-0.0396735 0.00111629 -0.999212 
-0.038622 -0.000926234 -0.999253 
-0.0388614 -0.00346732 -0.999239 
-0.0403048 -0.00656366 -0.999166 
-0.037482 -0.0108047 -0.999239 
-0.0350163 -0.0172229 -0.999238 
-0.0350747 -0.0249646 -0.999073 
-0.0318797 -0.0347426 -0.998888 
-0.0319738 -0.0431279 -0.998558 
-0.0269897 -0.0526801 -0.998247 
-0.0228666 -0.0576606 -0.998074 
-0.0186243 -0.0473597 -0.998704 
-2.40638e-05 -3.97037e-05 -1 
-0.000150803 0.000255407 1 
0.0111301 -0.0410617 0.999095 
0.0179317 -0.0580113 0.998155 
0.0212505 -0.0584605 0.998064 
0.0234107 -0.0501453 0.998468 
0.0260582 -0.039721 0.998871 
0.0278521 -0.0302319 0.999155 
0.02889 -0.0204942 0.999372 
0.0300996 -0.0127311 0.999466 
0.0304362 -0.00770211 0.999507 
0.0310164 -0.00401189 0.999511 
0.0321362 -0.00127824 0.999483 
0.03188 0.000627186 0.999492 
0.0317891 0.0023728 0.999492 
0.0319509 0.00394464 0.999482 
0.0316642 0.00542904 0.999484 
0.0322172 0.00659355 0.999459 
0.0326904 0.00764487 0.999436 
0.0320063 0.00886228 0.999448 
0.0318833 0.010163 0.99944 
0.0320847 0.0117116 0.999417 
0.0321628 0.0136593 0.999389 
0.0325924 0.0162547 0.999337 
0.0327906 0.0195702 0.999271 
0.0335142 0.0236504 0.999158 
0.0331042 0.0295596 0.999015 
0.033293 0.0374127 0.998745 
0.0329438 0.0470436 0.998349 
0.0317992 0.062123 0.997562 
0.0285718 0.0807095 0.996328 
0.0257377 0.11104 0.993483 
0.0217175 0.156573 0.987428 
0.0181877 0.225263 0.974128 
0.0163629 0.301957 0.953181 
0.0119213 0.403571 0.914871 
0.00834015 0.549414 0.835509 
0.00637657 0.719987 0.693958 
0.00164105 0.841019 0.541003 
-0.00107382 0.995812 0.0914225 
-0.00484587 0.996956 -0.0778183 
-0.00603746 0.963466 -0.267764 
-0.00632246 0.957089 -0.289727 
-0.00903635 0.848289 -0.529457 
-0.00894011 0.637299 -0.770565 
-0.0105912 0.484244 -0.874869 
-0.0135202 0.343736 -0.938969 
-0.0172455 0.245715 -0.969189 
-0.0231241 0.179292 -0.983524 
-0.0245151 0.134221 -0.990648 
-0.0281839 0.0982797 -0.99476 
-0.0300952 0.0736791 -0.996828 
-0.0317617 0.0537663 -0.998048 
-0.032526 0.0411482 -0.998623 
-0.0330316 0.0322798 -0.998933 
-0.0329867 0.0256345 -0.999127 
-0.032927 0.020785 -0.999242 
-0.0327522 0.0172774 -0.999314 
-0.0325933 0.0146304 -0.999362 
-0.0322327 0.0125629 -0.999401 
-0.032111 0.0107923 -0.999426 
-0.0312451 0.00933132 -0.999468 
-0.0320125 0.00796025 -0.999456 
-0.032157 0.00679697 -0.99946 
-0.0312628 0.0057201 -0.999495 
-0.0318208 0.00460315 -0.999483 
-0.0320036 0.00319231 -0.999483 
-0.0316714 0.00152882 -0.999497 
-0.0306667 -0.000586899 -0.999529 
-0.0307967 -0.00330186 -0.99952 
-0.0324407 -0.00677894 -0.999451 
-0.0303165 -0.0117531 -0.999471 
-0.0280743 -0.0185968 -0.999433 
-0.0284336 -0.0270121 -0.999231 
-0.0254127 -0.0373097 -0.998981 
-0.0257819 -0.045701 -0.998622 
-0.0211053 -0.0550678 -0.99826 
-0.0173382 -0.0597627 -0.998062 
-0.0143525 -0.0495731 -0.998667 
-5.07936e-05 -1.68641e-05 -1 
4.80003e-07 4.64224e-05 1 
0.0126412 -0.051257 0.998605 
0.0168117 -0.0616188 0.997958 
0.0178061 -0.0562777 0.998256 
0.0196191 -0.0468173 0.998711 
0.0205309 -0.0371266 0.9991 
0.0220881 -0.0272933 0.999383 
0.0226392 -0.0180089 0.999581 
0.0228188 -0.0114622 0.999674 
0.0233774 -0.00658132 0.999705 
0.0242331 -0.00284219 0.999702 
0.0239188 -0.00032866 0.999714 
0.0239423 0.00180072 0.999712 
0.024051 0.0036043 0.999704 
0.0244339 0.0050647 0.999689 
0.0236352 0.00635063 0.9997 
0.0236839 0.00735707 0.999692 
0.0244675 0.00831613 0.999666 
0.0238242 0.009447 0.999672 
0.0239868 0.0107042 0.999655 
0.0242751 0.0122276 0.999631 
0.0247576 0.0142811 0.999591 
0.0249802 0.0169733 0.999544 
0.0249629 0.0204738 0.999479 
0.0261857 0.025276 0.999337 
0.0260003 0.0323566 0.999138 
0.0252349 0.0411045 0.998836 
0.0256602 0.0537846 0.998223 
0.0225964 0.069633 0.997317 
0.0205363 0.0976348 0.99501 
0.0172441 0.141952 0.989723 
0.0142314 0.213806 0.976772 
0.0108833 0.318887 0.94773 
0.00764841 0.457519 0.889167 
0.00469137 0.613936 0.789342 
0.00414676 0.659576 0.751627 
0.00478291 0.923485 0.383605 
0.00254174 0.950591 0.310435 
-0.00199114 0.974456 0.22457 
-0.00440635 0.998411 0.0561788 
-0.00705152 0.998006 -0.0627205 
-0.0123601 0.957218 -0.289103 
-0.0101146 0.864557 -0.502433 
-0.00929059 0.72209 -0.691736 
-0.00786358 0.515802 -0.856672 
-0.00885728 0.387468 -0.921841 
-0.0111484 0.273162 -0.961903 
-0.0162166 0.184331 -0.98273 
-0.0186875 0.127854 -0.991617 
-0.0214762 0.0924543 -0.995485 
-0.0242568 0.0660155 -0.997524 
-0.0247935 0.0491556 -0.998483 
-0.0252755 0.0377082 -0.998969 
-0.025691 0.0295758 -0.999232 
-0.025506 0.0235659 -0.999397 
-0.0251318 0.0192256 -0.999499 
-0.0248098 0.0160564 -0.999563 
-0.0245079 0.0137415 -0.999605 
-0.0245408 0.0118774 -0.999628 
-0.0238403 0.0104364 -0.999661 
-0.0238465 0.00909494 -0.999674 
-0.0239489 0.00799567 -0.999681 
-0.0242882 0.00693605 -0.999681 
-0.023157 0.00596327 -0.999714 
-0.0240523 0.0047328 -0.999699 
-0.023646 0.00329899 -0.999715 
-0.0235189 0.00140906 -0.999722 
-0.022749 -0.00100401 -0.999741 
-0.0229716 -0.00399265 -0.999728 
-0.024911 -0.00746734 -0.999662 
-0.0228679 -0.012552 -0.99966 
-0.0211055 -0.0198408 -0.99958 
-0.0216977 -0.0287662 -0.999351 
-0.0190371 -0.0393058 -0.999046 
-0.0195288 -0.0483856 -0.998638 
-0.0154538 -0.0572241 -0.998242 
-0.0124944 -0.0615954 -0.998023 
-0.0102508 -0.0498536 -0.998704 
-5.79297e-06 -7.62169e-06 -1 
-3.93255e-05 4.37327e-05 1 
0.0111978 -0.0527666 0.998544 
0.0138385 -0.06317 0.997907 
0.0137525 -0.0589452 0.998166 
0.0147444 -0.0502224 0.998629 
0.0147756 -0.0399639 0.999092 
0.0157844 -0.0300617 0.999423 
0.0165438 -0.0209731 0.999643 
0.0163361 -0.0135528 0.999775 
0.0167946 -0.00814557 0.999826 
0.0177572 -0.00394317 0.999835 
0.0170319 -0.000817536 0.999855 
0.0171564 0.001627 0.999851 
0.0172539 0.00365445 0.999844 
0.0174853 0.00520879 0.999834 
0.0170866 0.00643772 0.999833 
0.0164371 0.00752859 0.999837 
0.0169921 0.00839502 0.99982 
0.0170605 0.00929225 0.999811 
0.0170324 0.0103754 0.999801 
0.0173221 0.011639 0.999782 
0.0180469 0.0133392 0.999748 
0.0183173 0.0156891 0.999709 
0.0182586 0.0188538 0.999656 
0.0191125 0.0233342 0.999545 
0.0199945 0.0293929 0.999368 
0.0187629 0.0375411 0.999119 
0.0190525 0.049886 0.998573 
0.0168908 0.0663578 0.997653 
0.0155831 0.0922875 0.99561 
0.01309 0.134496 0.990828 
0.0109198 0.204174 0.978874 
0.00871574 0.300949 0.9536 
0.00596449 0.431863 0.90192 
0.00584993 0.632214 0.774772 
0.00207365 0.826471 0.562976 
0.00290324 0.982722 0.185067 
0.00517481 0.993388 0.114685 
0.00430334 0.995552 0.0941178 
0.00281392 0.998087 0.06176 
0.00204393 0.999895 0.0143657 
-0.000619986 0.997716 -0.0675517 
-0.0113478 0.876594 -0.481097 
-0.00917543 0.629176 -0.777208 
-0.0069279 0.574754 -0.818297 
-0.00677682 0.434829 -0.900488 
-0.00741033 0.319911 -0.947419 
-0.0106794 0.207543 -0.978168 
-0.0130552 0.143573 -0.989554 
-0.0150153 0.0973592 -0.995136 
-0.0177917 0.0705203 -0.997352 
-0.0182347 0.0517858 -0.998492 
-0.0186196 0.0392092 -0.999058 
-0.0189954 0.0305378 -0.999353 
-0.0189964 0.0243523 -0.999523 
-0.0185574 0.0197089 -0.999634 
-0.018113 0.0163167 -0.999703 
-0.0175825 0.0138638 -0.999749 
-0.0178721 0.0121824 -0.999766 
-0.0169263 0.0107311 -0.999799 
-0.0175567 0.00963575 -0.999799 
-0.0167908 0.00854838 -0.999822 
-0.017247 0.00763575 -0.999822 
-0.016692 0.00670807 -0.999838 
-0.0171057 0.00543036 -0.999839 
-0.0167625 0.00394396 -0.999852 
-0.0167245 0.00187546 -0.999858 
-0.0162893 -0.00075386 -0.999867 
-0.0162695 -0.00407794 -0.999859 
-0.0176759 -0.00822585 -0.99981 
-0.01639 -0.0139491 -0.999768 
-0.0147462 -0.0214273 -0.999662 
-0.0156908 -0.0298093 -0.999432 
-0.0133828 -0.0399792 -0.999111 
-0.0140228 -0.0494534 -0.998678 
-0.0110287 -0.0585983 -0.998221 
-0.00896005 -0.0632831 -0.997955 
-0.00714791 -0.0503942 -0.998704 
-2.19097e-05 -1.87457e-05 -1 
1.41217e-05 4.18642e-05 1 
0.00879831 -0.0523885 0.998588 
0.0105411 -0.0637515 0.99791 
0.0103631 -0.0604723 0.998116 