# vtk DataFile Version 3.0 
Exported using Morpho https://github.com/Morpho-lang/morpho 
ASCII 
DATASET UNSTRUCTURED_GRID 

POINTS 1978 float 
-11.999 -3.99886 -3.1934e-06 
-11.5881 -3.99905 -2.62295e-06 
-11.2888 -3.99915 1.66278e-06 
-10.948 -3.99924 1.26877e-06 
-10.6402 -3.99924 -2.8144e-06 
-10.2899 -3.99919 -1.00493e-06 
-9.96785 -3.99919 -5.50004e-07 
-9.66151 -3.99913 -1.77903e-06 
-9.32467 -3.99913 -1.34153e-06 
-9.0046 -3.99912 5.70018e-07 
-8.68218 -3.9991 6.73652e-07 
-8.3548 -3.99918 -8.49132e-07 
-8.0462 -3.99918 1.7506e-07 
-7.75622 -3.99924 3.15536e-07 
-7.47911 -3.99916 -7.81557e-08 
-7.19514 -3.99922 -1.66853e-07 
-6.90484 -3.9993 -6.96559e-08 
-6.59694 -3.99916 4.61668e-07 
-6.29696 -3.99918 -1.85497e-07 
-5.98742 -3.99918 -2.3012e-07 
-5.68498 -3.99919 3.18246e-07 
-5.38033 -3.99918 2.95837e-08 
-5.07979 -3.99921 2.19447e-07 
-4.7866 -3.99918 1.00802e-07 
-4.44718 -3.99913 5.28051e-07 
-4.1609 -3.99922 6.33621e-07 
-3.85156 -3.99918 -1.15605e-07 
-3.51872 -3.99918 1.82907e-06 
-3.21682 -3.99935 2.27901e-06 
-2.91783 -3.99944 3.54071e-06 
-2.64035 -3.99946 7.08823e-06 
-2.37195 -3.99951 7.8797e-06 
-2.0884 -3.99967 9.94822e-06 
-1.80528 -3.99971 1.32952e-05 
-1.52525 -3.9998 1.00973e-05 
-1.22317 -3.9997 8.47081e-06 
-0.931249 -3.99964 -9.28954e-06 
-0.610407 -3.99936 -1.26006e-05 
-0.332358 -3.99917 -2.88426e-05 
0.0122582 -3.99886 1.05131e-05 
0.326743 -3.99915 2.79089e-05 
0.613037 -3.99935 1.3346e-05 
0.925127 -3.99965 7.24206e-06 
1.19729 -3.99983 -5.32928e-06 
1.46404 -3.99977 -8.37188e-06 
1.74946 -3.99974 -1.37719e-05 
2.03055 -3.99963 -1.14153e-05 
2.32215 -3.99952 -5.82922e-06 
2.64552 -3.99944 -4.31072e-06 
2.95082 -3.99936 -2.27765e-06 
3.27562 -3.99925 -2.46537e-06 
3.5673 -3.99926 -2.08303e-06 
3.87112 -3.99921 -3.91772e-07 
4.18386 -3.99921 -6.41403e-08 
4.48461 -3.9992 -8.91095e-07 
4.78535 -3.99918 -2.31095e-07 
5.09698 -3.99919 4.98092e-08 
5.40418 -3.99918 -2.74035e-07 
5.71603 -3.99918 -1.00049e-07 
6.00741 -3.99922 2.81936e-07 
6.30266 -3.99921 -3.66421e-08 
6.60124 -3.99919 -2.1616e-07 
6.90082 -3.99922 -3.12969e-09 
7.17521 -3.99921 -1.84217e-07 
7.47952 -3.99919 -5.53237e-08 
7.77505 -3.99919 3.21851e-07 
8.06995 -3.99921 -3.76784e-07 
8.35738 -3.99926 7.7111e-07 
8.65557 -3.99921 -4.08379e-07 
8.92786 -3.99916 -1.35837e-07 
9.27831 -3.99912 2.86887e-07 
9.60968 -3.99914 2.38389e-06 
9.89848 -3.99915 -4.80229e-07 
10.2712 -3.99913 1.02677e-06 
10.5869 -3.99916 1.94685e-06 
10.9792 -3.99917 -2.67932e-06 
11.2936 -3.99919 -7.9329e-09 
11.5864 -3.99906 2.13791e-06 
11.9991 -3.99886 2.6426e-06 
-11.9992 -3.60252 4.49604e-06 
-11.7053 -3.71465 -6.36144e-18 
-11.3494 -3.61671 1.44206e-16 
-11.0384 -3.66635 1.58175e-16 
-10.7114 -3.63921 1.4383e-16 
-10.3918 -3.67865 1.42994e-16 
-10.0565 -3.65473 9.81964e-17 
-9.73809 -3.64237 4.29248e-17 
-9.41579 -3.67437 6.92622e-18 
-9.08142 -3.65855 3.46785e-17 
-8.75519 -3.66082 3.68077e-17 
-8.43106 -3.67108 7.65267e-18 
-8.1097 -3.66123 -2.96006e-19 
-7.79408 -3.64535 -8.22262e-19 
-7.4971 -3.63324 1.61176e-17 
-7.20733 -3.65834 2.47014e-17 
-6.89713 -3.66192 8.43408e-18 
-6.58858 -3.65845 -8.8171e-18 
-6.27349 -3.6669 -3.89022e-18 
-5.9622 -3.65886 -4.99189e-19 
-5.65242 -3.65884 -9.50854e-18 
-5.34757 -3.65154 -1.5149e-17 
-5.05292 -3.64123 -2.57129e-17 
-4.7279 -3.68286 -5.2546e-17 
-4.43762 -3.63503 -4.82391e-17 
-4.13583 -3.6591 -6.27046e-17 
-3.81213 -3.69072 -1.00493e-16 
-3.50938 -3.6703 -1.25419e-16 
-3.20981 -3.67796 -1.52417e-16 
-2.91368 -3.6724 -2.19289e-16 
-2.63462 -3.66336 -2.37851e-16 
-2.35021 -3.67404 -3.38114e-16 
-2.05399 -3.69439 -3.73852e-16 
-1.76204 -3.6909 -3.75265e-16 
-1.47076 -3.70121 -3.65403e-16 
-1.1813 -3.67674 -1.83538e-16 
-0.863498 -3.69459 -7.72531e-17 
-0.580147 -3.61018 7.65579e-17 
-0.262153 -3.68031 -1.7901e-17 
0.0254741 -3.58848 1.8687e-17 
0.298918 -3.63613 -3.26653e-17 
0.59838 -3.61708 -4.68143e-17 
0.889151 -3.68935 5.53385e-17 
1.20449 -3.66342 1.7728e-16 
1.50267 -3.69392 3.48111e-16 
1.79807 -3.69331 3.68375e-16 
2.09386 -3.69967 4.05037e-16 
2.40992 -3.72447 4.01995e-16 
2.71132 -3.69349 2.60909e-16 
3.02485 -3.70248 2.09749e-16 
3.32326 -3.6561 1.37035e-16 
3.61998 -3.66162 1.14897e-16 
3.93015 -3.66884 8.22154e-17 
4.23078 -3.6498 5.47168e-17 
4.53016 -3.64781 5.59067e-17 
4.84211 -3.66269 4.69952e-17 
5.15368 -3.66039 2.7926e-17 
5.46799 -3.66668 1.60262e-17 
5.76833 -3.64585 5.56724e-18 
6.06571 -3.65271 6.80347e-18 
6.36502 -3.65598 6.03721e-18 
6.66832 -3.65841 -3.60672e-18 
6.95057 -3.62639 -2.68104e-18 
7.25149 -3.66172 -2.31424e-18 
7.55267 -3.65124 -7.8162e-18 
7.85577 -3.65386 -2.31877e-17 
8.15417 -3.6453 -8.93569e-18 
8.44772 -3.65412 -2.42221e-17 
8.73222 -3.61892 -3.22491e-17 
9.05114 -3.69736 -2.05412e-17 
9.38467 -3.67245 -3.51915e-17 
9.68815 -3.6196 -4.57288e-17 
10.0222 -3.70152 -7.11429e-17 
10.3482 -3.64655 -9.92472e-17 
10.7134 -3.71521 -1.23229e-16 
11.0415 -3.63963 -1.36909e-16 
11.3453 -3.60762 -1.80278e-16 
11.7053 -3.71848 2.75534e-17 
11.9991 -3.5999 -4.39213e-06 
-11.9992 -3.3 -7.49048e-07 
-11.6235 -3.36196 -8.93385e-17 
-11.2756 -3.26887 9.31814e-18 
-10.965 -3.3168 4.38349e-17 
-10.6508 -3.2841 1.94871e-17 
-10.3481 -3.34114 -1.71935e-17 
-10.0293 -3.30788 9.52657e-18 
-9.70639 -3.30231 1.04002e-17 
-9.38971 -3.34326 -8.40949e-18 
-9.06785 -3.32378 -1.99823e-18 
-8.77157 -3.30086 -3.759e-18 
-8.47167 -3.3331 7.84344e-18 
-8.16371 -3.32312 2.64e-19 
-7.85959 -3.31379 2.93212e-18 
-7.55479 -3.28503 4.86374e-18 
-7.25519 -3.3064 -5.52209e-18 
-6.95663 -3.33759 -1.03848e-17 
-6.64566 -3.32487 -3.01628e-18 
-6.33528 -3.33424 3.73998e-18 
-6.02881 -3.32551 2.41006e-18 
-5.71884 -3.32257 -2.17435e-18 
-5.41093 -3.31298 -3.8237e-18 
-5.10681 -3.28883 -4.87425e-18 
-4.80332 -3.35037 -1.44229e-17 
-4.50277 -3.29039 -1.21663e-17 
-4.20156 -3.31358 -5.95554e-18 
-3.89661 -3.36632 -1.22955e-17 
-3.5928 -3.34974 -2.41043e-17 
-3.28226 -3.3549 -1.97338e-17 
-2.97701 -3.35881 -1.69325e-17 
-2.67124 -3.32652 -1.32932e-17 
-2.37999 -3.34345 -1.35813e-17 
-2.08302 -3.38628 -2.58398e-17 
-1.78029 -3.38459 -3.58371e-17 
-1.47117 -3.37997 -5.62606e-17 
-1.14728 -3.36439 -7.20955e-17 
-0.85582 -3.31824 3.24709e-17 
-0.566396 -3.18948 -9.91009e-18 
-0.286829 -3.30666 4.62449e-17 
0.0122186 -3.16682 -1.65952e-17 
0.298346 -3.19514 1.35277e-16 
0.573644 -3.21382 -2.13742e-16 
0.87693 -3.32398 -5.31584e-17 
1.17438 -3.34517 8.4159e-18 
1.48559 -3.37117 3.26705e-17 
1.77987 -3.38053 2.15116e-17 
2.07338 -3.3906 5.01713e-17 
2.37206 -3.43235 6.45163e-17 
2.67602 -3.38393 5.398e-17 
2.97707 -3.39207 6.83471e-18 
3.26919 -3.32676 2.19326e-17 
3.56919 -3.32241 1.14206e-17 
3.86807 -3.33807 3.82591e-18 
4.16991 -3.31245 3.31506e-18 
4.47233 -3.302 8.33047e-18 
4.77543 -3.32509 6.54717e-18 
5.08341 -3.32523 7.6833e-18 
5.39479 -3.33409 1.43431e-18 
5.70096 -3.3097 -6.16904e-18 
6.00936 -3.30637 -4.9704e-18 
6.3066 -3.31341 1.49741e-18 
6.60822 -3.32278 1.1199e-17 
6.90605 -3.27132 6.03999e-18 
7.20404 -3.318 -4.63235e-18 
7.50735 -3.31161 -1.27207e-17 
7.8135 -3.31701 4.46583e-18 
8.12111 -3.30487 1.6262e-17 
8.42586 -3.29749 6.75679e-18 
8.74673 -3.29474 -1.72828e-17 
9.06875 -3.37357 -1.68406e-17 
9.38029 -3.32422 2.3081e-17 
9.69048 -3.269 1.0195e-17 
10 -3.36728 -1.90871e-17 
10.3046 -3.29361 -7.45792e-18 
10.629 -3.39662 -6.22405e-17 
10.9584 -3.31474 -4.53842e-17 
11.2869 -3.24164 -2.47919e-18 
11.6228 -3.36565 8.82301e-17 
11.9991 -3.29009 1.20721e-06 
-11.9992 -2.97907 -4.50562e-07 
-11.6506 -3.04752 -1.10239e-16 
-11.3022 -2.95299 -9.31953e-18 
-10.9567 -2.96442 4.00216e-17 
-10.6239 -2.95812 3.00696e-17 
-10.2945 -2.99287 -3.0243e-17 
-9.96713 -2.9745 2.76467e-17 
-9.63819 -2.97487 9.58408e-18 
-9.33293 -3.00844 -2.01322e-17 
-9.03329 -2.96704 7.75435e-18 
-8.73142 -2.95438 1.83596e-17 
-8.43582 -2.98991 -3.54909e-19 
-8.13499 -2.9797 -1.77611e-17 
-7.83647 -2.9753 -2.73092e-18 
-7.53368 -2.94922 1.62576e-17 
-7.23498 -2.9742 1.28121e-17 
-6.9345 -3.00974 1.82197e-18 
-6.62308 -2.9998 1.35992e-18 
-6.3211 -2.99977 -4.44401e-18 
-6.0134 -2.99543 5.32327e-18 
-5.70681 -2.98948 1.39314e-17 
-5.40067 -2.97811 1.28888e-17 
-5.09412 -2.95592 1.30743e-17 
-4.79632 -3.01372 6.69871e-18 
-4.48868 -2.9643 2.42057e-17 
-4.1878 -2.98357 2.21724e-17 
-3.89227 -3.04078 2.80247e-17 
-3.59666 -3.02405 2.43898e-17 
-3.29928 -3.04349 3.55875e-17 
-2.98332 -3.04142 4.3884e-17 
-2.68355 -2.99555 3.35409e-17 
-2.37021 -3.00032 1.39005e-17 
-2.07165 -3.06463 -8.02705e-20 
-1.76016 -3.06812 9.00823e-18 
-1.43112 -3.05991 -6.00404e-18 
-1.13711 -2.9889 3.79163e-17 
-0.839144 -2.90123 1.20978e-16 
-0.563399 -2.75675 -6.68608e-17 
-0.249926 -2.88407 6.09513e-17 
0.00919993 -2.63212 3.71626e-17 
0.268615 -2.70612 -2.30443e-16 
0.538288 -2.72145 1.95562e-16 
0.833826 -2.9172 -2.23447e-17 
1.14804 -2.97192 -6.42907e-17 
1.45654 -3.025 -4.69537e-17 
1.76668 -3.04559 8.6831e-18 
2.07001 -3.05939 4.58782e-19 
2.36786 -3.12118 -3.90317e-17 
2.67014 -3.05819 -5.06624e-17 
2.96281 -3.06705 -3.94246e-17 
3.26514 -2.9979 -4.0996e-17 
3.56345 -2.99664 -2.34973e-17 
3.86716 -3.00715 -2.39654e-17 
4.16627 -2.98214 -2.288e-17 
4.46527 -2.96937 -1.75597e-17 
4.76377 -2.99116 -1.0087e-17 
5.06616 -2.99326 -9.70989e-18 
5.37245 -3.0026 -1.13466e-17 
5.68077 -2.98182 -9.15081e-18 
5.98774 -2.98064 -1.00038e-17 
6.29926 -2.97101 -6.76795e-18 
6.59334 -2.98638 -5.66107e-18 
6.91507 -2.95766 1.14462e-18 
7.23311 -2.98212 -8.78809e-18 
7.53456 -2.97723 -1.12842e-17 
7.83757 -2.98535 -4.27813e-18 
8.13724 -2.96871 9.59874e-18 
8.44282 -2.97189 2.07007e-19 
8.74605 -2.95746 -1.08428e-17 
9.0537 -3.04234 5.44132e-18 
9.36454 -2.98867 2.81367e-17 
9.66668 -2.92818 -1.6299e-17 
9.988 -3.01539 -4.34879e-17 
10.3159 -2.96325 4.36163e-17 
10.6419 -3.06171 -1.67025e-18 
10.9714 -2.97452 -7.44618e-18 
11.3265 -2.92358 2.62835e-17 
11.666 -3.04602 9.30837e-17 
11.9992 -2.94682 1.16236e-06 
-11.9991 -2.66637 8.98118e-07 
-11.6428 -2.72432 -8.80628e-17 
-11.2999 -2.63007 -6.94098e-17 
-10.9606 -2.64341 -3.82995e-17 
[...]
POINT_DATA 1978 
VECTORS vectors float
0.0410476 -0.0599232 0.99718 
0.0353044 -0.0774712 0.996255 
0.0359522 -0.0738831 0.996511 
0.0339228 -0.057367 0.997688 
0.0345633 -0.0396519 0.998519 
0.035135 -0.024668 0.998975 
0.0369463 -0.0157942 0.999076 
0.0367763 -0.0102037 0.999147 
0.0369145 -0.00675374 0.999166 
0.0376783 -0.00560081 0.999142 
0.0372632 -0.00548336 0.999161 
0.0375547 -0.00457775 0.999155 
0.0385632 -0.00386908 0.999118 
0.0393852 -0.00361008 0.999085 
0.0394124 -0.00214171 0.999081 
0.0392197 -0.000304636 0.999052 
0.0384994 0.000647639 0.999163 
0.0381022 0.00147382 0.999141 
0.0382019 0.00255998 0.999135 
0.0380224 0.00388869 0.999135 
0.0380877 0.00565726 0.999126 
0.0378467 0.00833421 0.999117 
0.0382967 0.0118353 0.999067 
0.0370279 0.0160583 0.999054 
0.0369636 0.0219333 0.998951 
0.0377874 0.0282774 0.998769 
0.0360912 0.0368237 0.998554 
0.0357989 0.0484598 0.99804 
0.0356845 0.0642259 0.997233 
0.0345954 0.0866422 0.995603 
0.0342095 0.115909 0.992562 
0.0309794 0.153491 0.987657 
0.0277787 0.210664 0.977088 
0.023967 0.282875 0.958855 
0.0186995 0.377735 0.925747 
0.0124682 0.50623 0.862349 
0.00616949 0.653219 0.757192 
0.000829147 0.821873 0.569705 
-0.000513572 0.940727 0.339158 
-0.000200537 0.999855 -0.0164767 
0.000771789 0.940671 -0.339318 
-0.00138058 0.818692 -0.574266 
-0.00692222 0.655564 -0.755153 
-0.0125482 0.519451 -0.854429 
-0.0176468 0.399901 -0.916417 
-0.0232681 0.298183 -0.954226 
-0.027489 0.222532 -0.974517 
-0.0298406 0.163843 -0.985992 
-0.0322576 0.116521 -0.992597 
-0.0339125 0.0851754 -0.995708 
-0.0354627 0.0625179 -0.997308 
-0.0367568 0.0478528 -0.998068 
-0.036617 0.0368293 -0.998534 
-0.036961 0.0280681 -0.9988 
-0.0375942 0.0210644 -0.998948 
-0.0375173 0.0158022 -0.999046 
-0.0375891 0.0117021 -0.999094 
-0.0376467 0.0082442 -0.999126 
-0.0381406 0.00574351 -0.999123 
-0.0387208 0.0040929 -0.999109 
-0.0384575 0.00258418 -0.999123 
-0.0382919 0.00135551 -0.99913 
-0.0392055 0.000362967 -0.999096 
-0.0390495 -0.000605475 -0.999106 
-0.0382463 -0.0015999 -0.999131 
-0.0387153 -0.00281373 -0.999111 
-0.0388711 -0.00387588 -0.999104 
-0.0387083 -0.00485244 -0.999101 
-0.0393844 -0.00606932 -0.999072 
-0.0382907 -0.00704416 -0.999115 
-0.0362323 -0.00810534 -0.999178 
-0.037789 -0.0108814 -0.999104 
-0.0363826 -0.0159301 -0.9991 
-0.0353749 -0.0247963 -0.998959 
-0.0344623 -0.0372382 -0.998627 
-0.0331569 -0.0594661 -0.997592 
-0.0370139 -0.0733595 -0.996513 
-0.0353376 -0.0772483 -0.996272 
-0.0410652 -0.060133 -0.997165 
0.0386428 -0.0439541 0.998041 
0.0501972 -0.0773919 0.995813 
0.0465754 -0.0654209 0.996891 
0.0476313 -0.0570282 0.997347 
0.0487929 -0.0436804 0.997955 
0.0516667 -0.0306587 0.998312 
0.0530713 -0.0201064 0.998503 
0.0539625 -0.0131093 0.99858 
0.0560045 -0.00866076 0.998482 
0.0564791 -0.00643304 0.998487 
0.0571978 -0.0053106 0.998465 
0.0578975 -0.00436299 0.998413 
0.0578432 -0.00339636 0.998419 
0.0570037 -0.00272539 0.99847 
0.0561896 -0.00187475 0.998527 
0.0573641 -0.000711952 0.998474 
0.0579099 0.00051259 0.998402 
0.0575004 0.00165514 0.998438 
0.0574087 0.0027686 0.998445 
0.057126 0.00407036 0.998457 
0.0569947 0.00597428 0.998455 
0.0565206 0.00867452 0.998465 
0.0563079 0.0121227 0.998441 
0.0564386 0.0167066 0.998341 
0.05526 0.0215457 0.998368 
0.0555358 0.0283949 0.998163 
0.0549539 0.0377866 0.99788 
0.0535058 0.0496559 0.997447 
0.0517254 0.066285 0.996539 
0.0486398 0.0893901 0.994881 
0.044325 0.120836 0.991808 
0.0398314 0.1633 0.985874 
0.0347855 0.221489 0.974684 
0.0280897 0.301068 0.953317 
0.0210186 0.406064 0.913706 
0.013112 0.533324 0.845927 
0.00597868 0.689163 0.724687 
0.000830268 0.8361 0.548669 
-0.00127437 0.960101 0.279583 
-0.00131159 0.999796 -0.0185475 
-0.00122541 0.952676 -0.303968 
-0.00409431 0.82925 -0.558949 
-0.0091004 0.67626 -0.736715 
-0.0155889 0.517946 -0.855405 
-0.0228736 0.389157 -0.921007 
-0.0302789 0.289306 -0.956875 
-0.0372925 0.212582 -0.976544 
-0.0434377 0.152371 -0.987475 
-0.0475171 0.111119 -0.992775 
-0.0505184 0.080575 -0.995586 
-0.0518369 0.0604285 -0.996919 
-0.0536149 0.0456998 -0.99762 
-0.0547749 0.0345666 -0.998005 
-0.0550313 0.026301 -0.998246 
-0.0556057 0.019905 -0.998356 
-0.0564636 0.0148348 -0.998396 
-0.0567646 0.0108994 -0.998428 
-0.0571677 0.00768044 -0.998433 
-0.0567992 0.0053651 -0.998471 
-0.0569726 0.00368342 -0.998468 
-0.0573595 0.00239282 -0.998448 
-0.0572776 0.00130855 -0.998455 
-0.0570858 0.00031504 -0.998469 
-0.0577576 -0.000724429 -0.998428 
-0.0576157 -0.00168921 -0.998436 
-0.0575989 -0.00270603 -0.998435 
-0.057403 -0.00370172 -0.998444 
-0.0574744 -0.00481932 -0.998425 
-0.0568283 -0.0059253 -0.998478 
-0.0579408 -0.00738647 -0.998374 
-0.0564636 -0.00953947 -0.998459 
-0.0539145 -0.0134903 -0.998579 
-0.0543299 -0.0198423 -0.998417 
-0.0512201 -0.0296465 -0.998374 
-0.0503864 -0.0440664 -0.997863 
-0.0471531 -0.0565855 -0.997402 
-0.0464676 -0.0648536 -0.996935 
-0.0505993 -0.0771916 -0.995808 
-0.0388101 -0.0435036 -0.998052 
0.0344191 -0.0474064 0.998069 
0.0401065 -0.069409 0.9969 
0.0389018 -0.0601577 0.997578 
0.0419546 -0.0550194 0.99772 
0.043763 -0.0442741 0.998217 
0.0474 -0.0314951 0.998482 
0.0496067 -0.0215418 0.99866 
0.0514264 -0.0144013 0.998685 
0.0529633 -0.0095904 0.998687 
0.054052 -0.00691624 0.998635 
0.0549324 -0.0053773 0.998599 
0.055728 -0.00424583 0.99854 
0.0555916 -0.00317241 0.998569 
0.0557639 -0.00233463 0.998558 
0.0555018 -0.00158076 0.998585 
0.055675 -0.000675957 0.998568 
0.0560426 0.000466909 0.998528 
0.0555523 0.00162171 0.998571 
0.0553719 0.00260284 0.99858 
0.0551117 0.00372193 0.998589 
0.0550572 0.00544533 0.998585 
0.0548245 0.00795551 0.998583 
0.0541576 0.0111656 0.998608 
0.0546612 0.0152369 0.998517 
0.0535968 0.019987 0.99847 
0.0533175 0.0263615 0.998346 
0.052851 0.0348008 0.998103 
0.0509458 0.0461181 0.997774 
0.0491999 0.0628797 0.996926 
0.0461754 0.0854766 0.995366 
0.0413792 0.116573 0.992441 
0.0359066 0.161212 0.986426 
0.0304978 0.221735 0.974761 
0.0235555 0.303749 0.952599 
0.0164346 0.411353 0.911483 
0.00955972 0.551941 0.833964 
0.00390744 0.701911 0.712373 
-0.000126655 0.848187 0.529784 
-0.00157141 0.957282 0.289129 
-0.0031485 0.999932 -0.00656361 
-0.00429756 0.9552 -0.295832 
-0.00595444 0.842456 -0.538878 
-0.00894784 0.687246 -0.726507 
-0.0133396 0.53631 -0.844053 
-0.0192917 0.401895 -0.915621 
-0.0258272 0.296876 -0.95471 
-0.0321424 0.220194 -0.975052 
-0.0384241 0.162111 -0.986131 
-0.0422566 0.118377 -0.992179 
-0.0464167 0.0865434 -0.995285 
-0.0485406 0.0643768 -0.996873 
-0.0507351 0.0481986 -0.997696 
-0.0524778 0.0364334 -0.998075 
-0.0529739 0.0273648 -0.998361 
-0.0535265 0.0207047 -0.998463 
-0.0543211 0.0156515 -0.998516 
-0.0546626 0.0116121 -0.998557 
-0.0553179 0.00828843 -0.998539 
-0.0550424 0.00570355 -0.998597 
-0.055296 0.00392262 -0.998578 
-0.0555127 0.00272514 -0.99857 
-0.0560605 0.00173101 -0.998529 
-0.0557189 0.00074259 -0.998575 
-0.0563996 -0.000340124 -0.998512 
-0.0559949 -0.00126523 -0.998548 
-0.056081 -0.00212387 -0.998541 
-0.0561125 -0.00304176 -0.998542 
-0.0559309 -0.00425567 -0.998577 
-0.055371 -0.00586782 -0.998546 
-0.054902 -0.00773145 -0.998579 
-0.0535639 -0.0105096 -0.998632 
-0.0515788 -0.0149819 -0.998683 
-0.0503423 -0.0210349 -0.998641 
-0.0469804 -0.0308996 -0.998549 
-0.0454316 -0.0426441 -0.998172 
-0.0416885 -0.0541569 -0.997795 
-0.0386921 -0.0596022 -0.997623 
-0.0402389 -0.0695473 -0.996885 
-0.0339807 -0.0462038 -0.998137 
0.0253832 -0.0461392 0.998407 
0.0325856 -0.0688736 0.997209 
0.0344598 -0.0613801 0.997644 
0.0378976 -0.0569031 0.99778 
0.0414962 -0.0461256 0.998213 
0.0450002 -0.0325126 0.998587 
0.047587 -0.0221416 0.99875 
0.0497521 -0.0145678 0.998792 
0.0517856 -0.00997562 0.998715 
0.0524554 -0.00717673 0.998721 
0.0530653 -0.00519222 0.998701 
0.0538462 -0.0037782 0.998652 
0.0535653 -0.0026218 0.998675 
0.0536074 -0.00180784 0.998676 
0.0533186 -0.00113175 0.998676 
0.053409 -0.000295257 0.998685 
0.0536652 0.000800876 0.998687 
0.0533749 0.00189729 0.998689 
0.0531577 0.00278199 0.998697 
0.0529958 0.00380498 0.998702 
0.0528351 0.00545979 0.998705 
0.0526225 0.00799093 0.998699 
0.0523098 0.0112777 0.99867 
0.0524353 0.0150606 0.998643 
0.0520424 0.0200246 0.99854 
0.0513365 0.0262412 0.998451 
0.0508531 0.0346213 0.998236 
0.0493888 0.0464673 0.997801 
0.0470126 0.0625681 0.997053 
0.0429363 0.0864244 0.995481 
0.0379711 0.119246 0.992286 
0.0320494 0.166501 0.985656 
0.0270319 0.229632 0.973043 
0.0207026 0.315156 0.948967 
0.01385 0.430965 0.902412 
0.0071808 0.57025 0.821592 
0.00212468 0.713768 0.700526 
-0.00154627 0.861642 0.507543 
-0.00243349 0.967196 0.253983 
-0.00264897 0.999913 -0.0115202 
-0.00349916 0.961604 -0.274422 
-0.00384145 0.860303 -0.50986 
-0.00737736 0.709992 -0.704322 
-0.0119544 0.553331 -0.833038 
-0.017341 0.41651 -0.909138 
-0.0231665 0.309515 -0.950774 
-0.029396 0.223338 -0.974428 
-0.0358114 0.164214 -0.985907 
-0.0399091 0.120805 -0.992015 
-0.0436725 0.0884879 -0.995239 
-0.0460457 0.0654627 -0.996924 
-0.0483813 0.0487646 -0.997734 
-0.0499691 0.0363801 -0.998209 
-0.0510472 0.0273502 -0.998414 
-0.0515522 0.0205771 -0.998581 
-0.0524062 0.0156204 -0.998626 
-0.0527835 0.0116248 -0.998656 
-0.0529136 0.00829579 -0.998696 
-0.0530822 0.00574446 -0.998675 
-0.0529057 0.00399908 -0.998706 
-0.0526803 0.00284239 -0.998722 
-0.0529677 0.00194158 -0.998723 
-0.0531 0.000962021 -0.998689 
-0.0534165 -0.000138459 -0.998701 
-0.0537072 -0.00101569 -0.998672 
-0.0540928 -0.00173246 -0.998649 
-0.0539736 -0.00257193 -0.998649 
-0.0540461 -0.00390181 -0.998619 
-0.0535653 -0.00572156 -0.99869 
-0.0537317 -0.00801817 -0.998646 
-0.0519599 -0.0111706 -0.998706 
-0.0494907 -0.0160221 -0.998768 
-0.0481734 -0.0229285 -0.998703 
-0.0451257 -0.0337761 -0.998535 
-0.0426903 -0.0458202 -0.998166 
-0.0385228 -0.0568176 -0.997771 
-0.0339356 -0.0611745 -0.997682 
-0.0326455 -0.0698689 -0.997136 
-0.0248891 -0.0440108 -0.998504 
0.0171515 -0.0433563 0.998692 
0.0250473 -0.070578 0.997317 
0.0275141 -0.0632316 0.997738 
0.0310088 -0.0597854 0.997879 
0.0342409 -0.0494167 0.998286 
0.0377241 -0.0351611 0.998804 
0.0402244 -0.0238856 0.99903 
0.0420625 -0.0161709 0.999091 
0.0435936 -0.010836 0.999123 
0.0434871 -0.00754512 0.999137 
0.0436617 -0.00500561 0.999124 
0.04428 -0.00313025 0.999151 
0.0442542 -0.00188834 0.999138 
0.0441745 -0.00122217 0.999136 
0.0434187 -0.000563023 0.999168 
0.0444944 0.000335703 0.999121 
0.0451615 0.00138346 0.999091 
0.0440844 0.0023038 0.999137 
0.0441332 0.0030565 0.999133 
0.043942 0.00415267 0.999138 
0.0437651 0.00605139 0.999137 
0.0435204 0.00876313 0.999128 
0.043237 0.0121604 0.999104 
0.0443794 0.016036 0.998997 
0.0427839 0.021401 0.998964 
0.042666 0.0284004 0.998795 
0.0426699 0.0372872 0.998503 
0.0407205 0.0503467 0.998014 
0.0386111 0.0686571 0.997012 
0.0335812 0.0929439 0.99524 
0.0282713 0.130978 0.991133 
0.0225123 0.180516 0.983454 
0.0201204 0.240185 0.970703 
0.0144398 0.340177 0.940416 
0.00776378 0.466151 0.88481 
0.00191112 0.606406 0.795384 
-0.00034175 0.754743 0.656166 
-0.00148398 0.864192 0.503234 
-0.00142176 0.949241 0.31455 
-0.000888969 0.999088 0.0429803 
-0.00118811 0.964303 -0.264793 
-0.000110405 0.859177 -0.511705 
-0.00261119 0.713396 -0.700914 
-0.00702836 0.547572 -0.836919 
-0.0125467 0.409798 -0.912267 
-0.0176014 0.302082 -0.953285 
-0.0231691 0.225951 -0.974033 
-0.0293872 0.163474 -0.986261 
-0.0319565 0.11941 -0.99249 
-0.0363254 0.0867282 -0.99569 
-0.0376337 0.0626341 -0.997449 
-0.0403488 0.045954 -0.998238 
-0.0421854 0.0341841 -0.998636 
-0.0426179 0.0254135 -0.998878 
-0.042691 0.0190163 -0.999023 
-0.0439863 0.0144055 -0.999042 
-0.0442028 0.0106455 -0.99908 
-0.0443844 0.00756476 -0.9991 
-0.0437005 0.00519537 -0.999144 
-0.0437276 0.00365243 -0.999149 
-0.0427527 0.0027318 -0.999194 
-0.0443151 0.00191938 -0.999127 
-0.0437699 0.000969603 -0.999152 
-0.0438824 -1.84297e-05 -0.999149 
-0.0441318 -0.000797795 -0.999138 
-0.0446464 -0.0013834 -0.999115 
-0.0444441 -0.00220176 -0.999117 
-0.0445886 -0.0036655 -0.999083 
-0.0436123 -0.00570076 -0.999159 
-0.0462359 -0.00821595 -0.999018 
-0.0434113 -0.0117322 -0.999105 
-0.0406513 -0.0172991 -0.999146 
-0.0411942 -0.024834 -0.998965 
-0.0372949 -0.0363079 -0.998765 
-0.0369772 -0.0488764 -0.998242 
-0.0315758 -0.0602335 -0.997812 
-0.0262942 -0.0636174 -0.997757 
-0.0250453 -0.0709455 -0.997275 
-0.0167714 -0.0458464 -0.998587 
0.0105005 -0.0445817 0.998735 
0.0166563 -0.0761679 0.997044 
0.0189712 -0.067098 0.997691 
0.0217222 -0.0643151 0.997827 
0.023977 -0.056273 0.998252 
0.0269352 -0.0422569 0.998864 
0.0295379 -0.0296862 0.999249 
0.0305716 -0.0202172 0.999453 
0.0319447 -0.013653 0.999517 
0.032156 -0.00940915 0.999557 
0.0319237 -0.00600816 0.999587 
0.0323036 -0.00349003 0.999589 
0.0321762 -0.0018909 0.999598 
0.0320126 -0.00108719 0.999601 
0.0322604 -0.000618774 0.999592 
0.0315437 0.000197833 0.999616 
0.0325503 0.00116803 0.999582 
0.0324659 0.00202501 0.999583 
0.0318478 0.00267527 0.999602 
0.0318461 0.00344234 0.999601 
0.0319319 0.00487831 0.999593 
0.0319369 0.0071484 0.999579 
0.0318237 0.0101116 0.999557 
0.0315731 0.0137277 0.999519 
0.0328479 0.0178701 0.99941 
0.0314911 0.0241526 0.99932 
0.0308496 0.0320737 0.999118 
0.0310108 0.0423058 0.998734 
0.0293216 0.0579755 0.998003 
0.0254564 0.0773953 0.996802 
0.0218739 0.108 0.994053 
0.0157141 0.151485 0.9885 
0.0118404 0.217025 0.976278 
0.0104526 0.291537 0.956683 
0.004899 0.401876 0.91592 
8.41867e-05 0.539693 0.842019 
-0.0021037 0.677197 0.735979 
-0.00369776 0.831337 0.555819 
-0.00376585 0.991703 0.128648 
-0.000461923 0.999463 -0.0337986 
-0.0030941 0.955093 -0.296524 
0.00112742 0.969482 -0.245238 
0.000932664 0.788273 -0.615485 
0.000430292 0.633716 -0.773736 
-0.00270773 0.465517 -0.885235 
-0.00840449 0.330106 -0.944105 
-0.0128974 0.234595 -0.972201 
-0.0195605 0.170525 -0.98533 
-0.0200113 0.129865 -0.991491 
-0.0248424 0.0957532 -0.995201 
-0.0271408 0.0702485 -0.997274 
-0.0292219 0.0495641 -0.998461 
-0.0307888 0.036181 -0.998987 
-0.0315346 0.0269195 -0.999252 
-0.0314255 0.0199917 -0.999417 
-0.0320486 0.0149202 -0.999487 
-0.0323024 0.0111503 -0.99953 
-0.0323589 0.00803803 -0.999559 
-0.0319314 0.00557631 -0.999589 
-0.0318627 0.00384195 -0.999599 
-0.0307565 0.00289329 -0.999636 
-0.0319604 0.00223861 -0.999599 
-0.0324312 0.00146969 -0.999584 
-0.0313492 0.000450474 -0.999621 
-0.0317962 -0.000384219 -0.999607 
-0.031727 -0.000915176 -0.999611 
-0.0316599 -0.00158928 -0.999618 
-0.031795 -0.00303115 -0.999622 
-0.0313901 -0.00534374 -0.999603 
-0.033848 -0.00858869 -0.999505 
-0.0319246 -0.0128684 -0.999528 
-0.0292445 -0.0189312 -0.99952 
-0.030774 -0.0271232 -0.999285 
-0.0270998 -0.039636 -0.998972 
-0.0277886 -0.0524343 -0.99836 
-0.0228611 -0.0634274 -0.997852 
-0.0183168 -0.0664308 -0.997752 
-0.0172663 -0.0720992 -0.997357 
-0.0105568 -0.0466491 -0.998624 
0.00693121 -0.0483364 0.998573 
0.0113636 -0.0736125 0.997344 
0.0139201 -0.0676771 0.997716 
0.0153201 -0.0651904 0.997906 
0.0174436 -0.053673 0.998535 
0.019359 -0.0393782 0.999165 
0.0209752 -0.0275368 0.999531 
0.0217005 -0.018442 0.99972 
0.0218342 -0.0126298 0.999804 
0.0222504 -0.00828338 0.999839 
0.0220139 -0.00466358 0.999867 
0.021536 -0.00235678 0.999884 
0.0214949 -0.00114536 0.999885 
0.021369 -0.000662698 0.999887 
0.021565 -0.000162823 0.999883 
0.0207278 0.000778608 0.999901 
0.0211196 0.00166211 0.999892 
0.0214125 0.00229376 0.999884 
0.0208376 0.00277666 0.999896 
0.0211627 0.00370255 0.999887 
0.0215212 0.005485 0.999871 
0.021539 0.00807103 0.999853 
0.0215867 0.0112911 0.999819 
0.0210866 0.0151164 0.999774 
0.0229745 0.019993 0.999646 
0.0212539 0.0273043 0.999516 
0.0206278 0.0369036 0.99922 
0.0210516 0.0501767 0.998623 
0.0171995 0.0678526 0.997691 
0.0151116 0.0957296 0.99542 
0.0106268 0.135288 0.990931 
0.00628336 0.211224 0.977603 
0.0029484 0.318959 0.947951 
-0.000116739 0.45167 0.892365 
-0.00339801 0.622249 0.78299 
-0.00188247 0.789136 0.614367 
0.00473386 0.898421 0.439291 
0.00507992 0.94782 0.319222 
-0.000586489 0.946793 0.321995 
0.00489208 0.992413 0.121656 
0.00448963 0.996308 -0.0852019 
0.000467622 0.935949 -0.35221 
0.00153176 0.857164 -0.515106 
0.00467059 0.662209 -0.749493 
0.00350805 0.534393 -0.845417 
-0.00029791 0.38175 -0.924465 
-0.00403581 0.272623 -0.962314 
-0.00959366 0.183843 -0.983106 
-0.0122918 0.127424 -0.991904 
-0.0160079 0.0904673 -0.995935 
-0.0194094 0.0638658 -0.997875 
-0.0201721 0.0458512 -0.998886 
-0.0209982 0.0337397 -0.99933 
-0.0217208 0.0249865 -0.999565 
-0.0216795 0.0183979 -0.999709 
-0.0216096 0.0137431 -0.999787 
-0.0215493 0.0101658 -0.999834 
-0.0214333 0.00723241 -0.999862 
-0.0215707 0.00486311 -0.999871 
-0.0208752 0.00341739 -0.999892 
-0.0209131 0.00259849 -0.999898 
-0.0210153 0.00212277 -0.999892 
-0.0216934 0.00142557 -0.999879 
-0.0203573 0.000525483 -0.999908 
-0.0211337 -0.00030354 -0.999892 
-0.0206367 -0.0007808 -0.999904 
-0.0208712 -0.0014678 -0.999895 
-0.0210981 -0.00304246 -0.999872 
-0.0205068 -0.00551243 -0.9999 
-0.0236001 -0.00872678 -0.999809 
-0.0220965 -0.0132556 -0.999792 
-0.0204121 -0.0199867 -0.999719 
-0.0214073 -0.02925 -0.999472 
-0.0186447 -0.0424354 -0.999051 
-0.0190336 -0.0559472 -0.998378 
-0.0150709 -0.0663805 -0.997809 
-0.0119222 -0.0690749 -0.997668 
-0.0111767 -0.0742517 -0.997285 
-0.0066181 -0.0463301 -0.998658 
0.00495354 -0.0465352 0.998652 
0.00767481 -0.0758694 0.997201 
0.00944664 -0.0702166 0.997622 
0.0102476 -0.0683329 0.997726 
0.0117769 -0.0582488 0.998336 
0.0128879 -0.0432996 0.999104 
0.0138564 -0.0307274 0.99956 
0.0147182 -0.0212472 0.999791 
0.0144495 -0.0143574 0.999913 
0.0145112 -0.00919169 0.999971 
0.0146898 -0.00527656 0.999996 
0.0136431 -0.00243554 1.00002 
0.0134011 -0.001 1.00002 
0.013192 -0.000559021 1.00003 
0.0131547 -0.000182874 1.00003 
0.0128416 0.000636811 1.00003 
0.0122456 0.00156854 1.00004 
0.012761 0.00210488 1.00003 
0.012701 0.00244186 1.00003 
0.0128052 0.00316828 1.00003 
0.0132655 0.00473447 1.00002 
0.0135247 0.00712817 0.999999 
0.0137475 0.010178 0.999968 
0.0132715 0.0138167 0.999924 
0.0141632 0.0188244 0.999824 
0.014421 0.0249497 0.999702 
0.0131219 0.0347095 0.999439 
0.0133916 0.0479463 0.998879 
0.0106413 0.0654126 0.99793 
0.00924348 0.0917396 0.995883 
0.00641644 0.132646 0.991285 
0.00374125 0.198074 0.980373 
0.000671312 0.306073 0.952246 
-0.00188111 0.437441 0.899367 
-0.00151339 0.679317 0.733984 
0.00532918 0.835789 0.548995 
0.00619892 0.965075 0.261399 
0.00808277 0.996509 0.0938334 
0.00698543 0.997208 0.0673425 
0.00547286 0.999897 -0.00200665 
0.00507663 1.00034 -0.0198966 
0.00432495 0.998444 -0.0513672 
0.00212602 0.820022 -0.572305 
0.00469428 0.683508 -0.730081 
0.00544783 0.514838 -0.857345 
0.00362432 0.417904 -0.908629 
0.000794278 0.305465 -0.952415 
-0.00377612 0.206349 -0.978651 
-0.00632845 0.141679 -0.990051 
-0.00896939 0.0951887 -0.995577 
-0.0121172 0.0682013 -0.997742 
-0.0124722 0.0500706 -0.998766 
-0.0132255 0.0365502 -0.999353 
-0.0137925 0.0268373 -0.999655 
-0.014029 0.0199288 -0.999813 
-0.013652 0.014789 -0.999909 
-0.0134201 0.0109671 -0.999964 
-0.0130756 0.00780019 -1.00001 
-0.0136861 0.00531582 -0.999991 
-0.0127243 0.00357273 -1.00002 
-0.0132643 0.00266279 -1.00003 
-0.0125285 0.00221497 -1.00004 
-0.0130169 0.00174387 -1.00003 
-0.0125099 0.000983843 -1.00004 
-0.012849 5.29005e-05 -1.00003 
-0.0125994 -0.000458275 -1.00004 
-0.0130176 -0.000959083 -1.00004 
-0.012996 -0.00233908 -1.00005 
-0.013335 -0.00509027 -1.00001 
-0.0153243 -0.00925733 -0.999959 
-0.0149632 -0.0147246 -0.999901 
-0.0134614 -0.0216777 -0.999798 
-0.014745 -0.0303358 -0.999558 
-0.0126491 -0.04275 -0.999129 
-0.0129666 -0.0568902 -0.99842 
-0.0103413 -0.0683926 -0.99773 
-0.00821549 -0.0709554 -0.99757 
-0.00726456 -0.0763004 -0.997164 
-0.00422546 -0.0485241 -0.998574 
0.00397964 -0.0483859 0.998578 
0.00548275 -0.0773727 0.997079 
0.00652815 -0.0712417 0.997583 