# vtk DataFile Version 3.0 
Exported using Morpho https://github.com/Morpho-lang/morpho 
ASCII 
DATASET UNSTRUCTURED_GRID 

POINTS 1978 float 
-12 -4 1.12985e-13 
-11.5884 -4 2.96272e-12 
-11.2889 -4 2.32372e-12 
-10.9486 -4 1.97762e-12 
-10.6394 -4 1.45098e-12 
-10.29 -4 1.03953e-12 
-9.96834 -4 6.12019e-13 
-9.66139 -4 4.32168e-13 
-9.3244 -4 3.21499e-13 
-9.00428 -4 2.35543e-13 
-8.6821 -4 2.34484e-13 
-8.35538 -4 2.03891e-13 
-8.04663 -4 1.47245e-13 
-7.75655 -4 1.30586e-13 
-7.48014 -4 8.05977e-14 
-7.1947 -4 1.56918e-14 
-6.90224 -4 -2.45663e-14 
-6.59828 -4 -6.64699e-14 
-6.29679 -4 -1.08728e-13 
-5.98756 -4 -1.59912e-13 
-5.68479 -4 -2.34404e-13 
-5.38014 -4 -3.33168e-13 
-5.07961 -4 -4.48947e-13 
-4.78583 -4 -7.19502e-13 
-4.44825 -4 -8.56438e-13 
-4.15965 -4 -1.1217e-12 
-3.85188 -4 -1.61103e-12 
-3.51936 -4 -1.95896e-12 
-3.21731 -4 -2.30317e-12 
-2.91989 -4 -2.70535e-12 
-2.63995 -4 -2.7667e-12 
-2.37092 -4 -3.42285e-12 
-2.09103 -4 -3.96388e-12 
-1.80598 -4 -3.85612e-12 
-1.52472 -4 -3.46793e-12 
-1.22483 -4 -2.65065e-12 
-0.932028 -4 -2.04599e-12 
-0.60861 -4 -5.71929e-13 
-0.33379 -4 -2.17167e-12 
0.0150047 -4 2.1425e-12 
0.32818 -4 1.42885e-12 
0.61268 -4 7.04098e-13 
0.925519 -4 3.99448e-12 
1.19851 -4 7.89465e-13 
1.46524 -4 2.18424e-12 
1.74961 -4 3.97898e-12 
2.03235 -4 4.32889e-12 
2.32227 -4 4.75304e-12 
2.6463 -4 3.91835e-12 
2.95141 -4 3.14529e-12 
3.27581 -4 2.28868e-12 
3.56747 -4 1.75393e-12 
3.87086 -4 1.46798e-12 
4.18399 -4 1.10194e-12 
4.48468 -4 8.12849e-13 
4.78508 -4 6.42277e-13 
5.0968 -4 4.86761e-13 
5.40419 -4 3.47679e-13 
5.71587 -4 2.29045e-13 
6.00745 -4 1.55897e-13 
6.30288 -4 1.05012e-13 
6.60095 -4 5.46008e-14 
6.90072 -4 1.48543e-14 
7.17541 -4 -2.1783e-14 
7.47952 -4 -6.18915e-14 
7.77462 -4 -1.16396e-13 
8.07008 -4 -1.44851e-13 
8.35771 -4 -1.9609e-13 
8.65518 -4 -2.13836e-13 
8.92827 -4 -3.10253e-13 
9.27857 -4 -3.97564e-13 
9.60944 -4 -4.33091e-13 
9.89854 -4 -7.26191e-13 
10.2709 -4 -1.03678e-12 
10.5867 -4 -1.70401e-12 
10.9791 -4 -2.23816e-12 
11.2939 -4 -2.12247e-12 
11.5865 -4 -2.96024e-12 
12 -4 -1.18177e-13 
-12 -3.60306 -1.61914e-13 
-11.7117 -3.7185 -6.84627e-15 
-11.3592 -3.61911 -6.13744e-15 
-11.0476 -3.66884 -6.43848e-15 
-10.7161 -3.6436 -4.78736e-15 
-10.3908 -3.68302 -4.35143e-15 
-10.0514 -3.66081 -2.90048e-15 
-9.73099 -3.65179 -1.92804e-15 
-9.40446 -3.68293 -1.50241e-15 
-9.06749 -3.66176 -9.50965e-16 
-8.75036 -3.66144 -7.00846e-16 
-8.42843 -3.6728 -6.08328e-16 
-8.10608 -3.66277 -4.61529e-16 
-7.79619 -3.65255 -2.94406e-16 
-7.50029 -3.64405 -1.47306e-16 
-7.20941 -3.65869 -5.57007e-17 
-6.90518 -3.65916 7.16439e-17 
-6.59617 -3.66258 2.11105e-16 
-6.28146 -3.66945 3.81172e-16 
-5.97134 -3.66257 5.76889e-16 
-5.6617 -3.66249 8.40644e-16 
-5.35659 -3.65631 1.10862e-15 
-5.06252 -3.64829 1.45172e-15 
-4.73904 -3.69283 2.35915e-15 
-4.44626 -3.6472 2.54254e-15 
-4.14437 -3.66876 3.68661e-15 
-3.8221 -3.69639 5.33275e-15 
-3.51472 -3.67864 6.44628e-15 
-3.21408 -3.67833 8.16499e-15 
-2.91792 -3.67256 1.00859e-14 
-2.64573 -3.64836 1.02025e-14 
-2.35956 -3.66663 1.36731e-14 
-2.05772 -3.68592 1.70598e-14 
-1.76488 -3.6733 1.50884e-14 
-1.4658 -3.68262 1.35969e-14 
-1.16655 -3.6538 5.5456e-15 
-0.84145 -3.6819 1.04244e-15 
-0.560845 -3.5658 -2.95027e-15 
-0.235136 -3.67952 -1.39287e-14 
0.0581314 -3.55816 -7.65879e-15 
0.319522 -3.60341 1.57439e-14 
0.617348 -3.60497 5.83642e-15 
0.901859 -3.66847 -4.61149e-15 
1.20887 -3.62635 -3.14996e-15 
1.49652 -3.66831 -1.20129e-14 
1.79123 -3.6795 -1.62949e-14 
2.08641 -3.685 -1.7166e-14 
2.40928 -3.72294 -1.76059e-14 
2.72411 -3.69423 -1.26604e-14 
3.0399 -3.70136 -1.02262e-14 
3.33143 -3.65919 -6.89223e-15 
3.62996 -3.67079 -5.8234e-15 
3.93699 -3.67663 -4.58268e-15 
4.23664 -3.65995 -3.24133e-15 
4.5342 -3.6571 -2.48966e-15 
4.84182 -3.66863 -2.00903e-15 
5.15064 -3.66487 -1.45846e-15 
5.46352 -3.66961 -1.08892e-15 
5.76411 -3.6492 -7.12029e-16 
6.0631 -3.65623 -5.09283e-16 
6.36258 -3.65677 -3.32007e-16 
6.66824 -3.66368 -1.72401e-16 
6.95308 -3.63349 -5.67321e-17 
7.25414 -3.66724 6.78417e-17 
7.55439 -3.65642 1.89461e-16 
7.85661 -3.65795 3.18305e-16 
8.15237 -3.64698 4.20909e-16 
8.44492 -3.65438 5.81126e-16 
8.72908 -3.62188 6.55667e-16 
9.04977 -3.70198 1.25154e-15 
9.38463 -3.67824 1.59032e-15 
9.68879 -3.62643 1.79636e-15 
10.0246 -3.70762 3.41795e-15 
10.354 -3.65252 3.90209e-15 
10.7198 -3.71692 6.39697e-15 
11.0506 -3.64198 5.68913e-15 
11.353 -3.61024 5.93029e-15 
11.71 -3.72236 7.10245e-15 
12 -3.60002 1.60427e-13 
-12 -3.30099 -1.51162e-14 
-11.6257 -3.3642 -3.75805e-16 
-11.2754 -3.27305 -4.98866e-16 
-10.963 -3.32313 -3.87534e-16 
-10.6475 -3.28716 -1.825e-16 
-10.3465 -3.35089 -1.00052e-15 
-10.0267 -3.31781 -8.33559e-16 
-9.7062 -3.31107 -6.28032e-16 
-9.39269 -3.35853 -4.81921e-16 
-9.0844 -3.31637 -3.94483e-16 
-8.77696 -3.31456 -1.90365e-16 
-8.47102 -3.3352 -1.22469e-16 
-8.16125 -3.33202 -9.95424e-17 
-7.85152 -3.3185 -5.98284e-17 
-7.54935 -3.30046 -4.40359e-16 
-7.25191 -3.31295 9.62345e-15 
-6.95587 -3.32921 4.70483e-15 
-6.64662 -3.32994 7.01843e-15 
-6.33628 -3.33984 8.46299e-17 
-6.02608 -3.33096 1.73356e-16 
-5.71542 -3.32811 2.48421e-16 
-5.40774 -3.31899 3.03261e-16 
-5.1041 -3.29964 3.36686e-16 
-4.80476 -3.36578 5.59399e-16 
-4.50615 -3.31494 5.62066e-16 
-4.20413 -3.32871 8.66264e-16 
-3.9004 -3.37804 1.35218e-15 
-3.59392 -3.36821 1.61632e-15 
-3.27864 -3.35785 2.34477e-15 
-2.97381 -3.35732 3.20444e-15 
-2.67257 -3.30136 3.99051e-15 
-2.38971 -3.33122 3.29447e-15 
-2.08945 -3.37637 4.07484e-15 
-1.78018 -3.35137 3.93462e-15 
-1.46894 -3.35251 2.62352e-15 
-1.13195 -3.33097 1.91642e-15 
-0.84532 -3.29632 -2.81974e-15 
-0.535645 -3.16063 -2.18117e-15 
-0.251429 -3.30931 -8.53017e-15 
0.000624443 -3.11867 1.69201e-14 
0.286529 -3.11837 2.36079e-16 
0.557718 -3.21185 7.21278e-15 
0.877506 -3.29164 2.42184e-15 
1.17815 -3.28991 1.20602e-15 
1.48464 -3.32441 -2.35265e-15 
1.7815 -3.35852 -3.73393e-15 
2.07967 -3.36336 -3.64897e-15 
2.37724 -3.43035 -4.46307e-15 
2.67228 -3.37733 -3.4482e-15 
2.97718 -3.39521 -3.32095e-15 
3.27997 -3.33066 -1.8489e-15 
3.58081 -3.33749 -1.55976e-15 
3.87952 -3.34897 -1.26692e-15 
4.17964 -3.32681 -8.80283e-16 
4.47952 -3.31629 -6.28869e-16 
4.77911 -3.33338 -5.07459e-16 
5.083 -3.3334 -3.65507e-16 
5.39364 -3.34004 -3.05437e-16 
5.70108 -3.31472 -2.23788e-16 
6.01091 -3.3127 -1.62081e-16 
6.30913 -3.31509 -9.32361e-17 
6.61324 -3.33081 -3.57589e-17 
6.91325 -3.28288 -2.35162e-15 
7.21089 -3.32655 -4.04379e-15 
7.51191 -3.31816 3.23711e-15 
7.81496 -3.32301 5.68713e-17 
8.12115 -3.30467 1.0683e-16 
8.42168 -3.29813 1.32964e-16 
8.74477 -3.30103 1.73482e-16 
9.06783 -3.38263 3.68855e-16 
9.37935 -3.334 4.8376e-16 
9.69386 -3.28264 6.27566e-16 
10.0068 -3.37973 1.07375e-15 
10.3062 -3.29776 6.52421e-16 
10.629 -3.39942 8.95549e-16 
10.959 -3.3219 2.82924e-16 
11.2888 -3.24508 5.57684e-16 
11.6254 -3.36961 2.88747e-16 
12 -3.29107 2.94176e-14 
-12 -2.98005 -1.58826e-15 
-11.6523 -3.05115 7.57801e-16 
-11.3069 -2.95522 -3.58109e-16 
-10.9586 -2.96848 5.63364e-17 
-10.6199 -2.95882 -2.26543e-16 
-10.2921 -3.0002 -6.05747e-16 
-9.96918 -2.97988 -6.86365e-16 
-9.64613 -2.97872 -6.07269e-16 
-9.3481 -3.00921 -5.10747e-16 
-9.04256 -2.96963 -2.85868e-16 
-8.7374 -2.96863 -2.08093e-16 
-8.43494 -2.99431 -1.30257e-16 
-8.12785 -2.99486 -8.99417e-17 
-7.82774 -2.97846 -4.93078e-17 
-7.52539 -2.96355 2.90847e-15 
-7.22698 -2.97772 1.05088e-14 
-6.92368 -3.00296 6.36578e-15 
-6.61488 -3.00265 2.32254e-15 
-6.31009 -3.00787 6.79768e-17 
-6.00246 -3.00036 1.59865e-16 
-5.69774 -2.99363 2.25579e-16 
-5.39359 -2.98265 2.59119e-16 
-5.0907 -2.96618 2.99365e-16 
-4.79237 -3.02899 4.15779e-16 
-4.49236 -2.9849 6.1001e-16 
-4.1965 -2.99858 8.20207e-16 
-3.90002 -3.05423 1.08776e-15 
-3.6002 -3.04271 1.47618e-15 
-3.30198 -3.04812 1.80775e-15 
-2.98364 -3.03645 2.29222e-15 
-2.68493 -2.97094 2.97445e-15 
-2.37736 -2.97444 3.28713e-15 
-2.0953 -3.05615 3.88318e-16 
-1.78315 -3.02544 8.29033e-16 
-1.44363 -3.04041 -1.22726e-15 
-1.16331 -2.93743 -4.53569e-15 
-0.837121 -2.93403 7.83268e-15 
-0.605488 -2.70663 -2.30694e-14 
-0.296743 -2.8762 8.07704e-15 
0.0127577 -2.69408 -2.93428e-15 
0.272558 -2.58512 -8.43905e-15 
0.520463 -2.74548 3.74506e-15 
0.817283 -2.91898 3.26501e-15 
1.13806 -2.93173 -3.0576e-15 
1.46631 -2.96435 -1.94416e-15 
1.76648 -3.0261 -2.4158e-15 
2.0797 -3.0269 -3.49421e-15 
2.37559 -3.10557 -3.01259e-15 
2.67546 -3.04321 -2.95671e-15 
2.96742 -3.07513 -2.06891e-15 
3.26404 -3.00456 -2.19195e-15 
3.57036 -3.0116 -1.35784e-15 
3.87447 -3.01765 -1.01398e-15 
4.17241 -2.99492 -8.09324e-16 
4.47374 -2.98701 -5.7918e-16 
4.77504 -2.99764 -3.88317e-16 
5.07299 -2.99956 -2.84786e-16 
5.37433 -3.01105 -2.34921e-16 
5.67908 -2.98409 -2.17521e-16 
5.98556 -2.98688 -1.47e-16 
6.29789 -2.97086 -7.65235e-17 
6.59382 -2.99582 -7.78877e-15 
6.91499 -2.96649 -1.51072e-15 
7.23183 -2.98887 -4.78105e-15 
7.53138 -2.98081 -1.22918e-15 
7.83616 -2.99067 6.30153e-17 
8.13302 -2.96345 1.10766e-16 
8.44532 -2.97557 1.64888e-16 
8.74574 -2.95794 1.9692e-16 
9.04812 -3.05155 2.34802e-16 
9.36059 -3.00168 4.08643e-16 
9.65781 -2.93544 5.456e-16 
9.97813 -3.02617 5.78058e-16 
10.3124 -2.97091 6.54818e-16 
10.6454 -3.06232 2.22531e-16 
10.9768 -2.98011 1.07314e-16 
11.3321 -2.92497 4.76322e-16 
11.6678 -3.05087 -1.00708e-15 
12 -2.94804 2.17823e-14 
-12 -2.66669 -3.05167e-14 
-11.6456 -2.72459 1.03184e-15 
-11.3072 -2.62743 -3.11397e-16 
-10.968 -2.64632 1.92189e-16 
-10.6321 -2.63376 -5.58425e-17 
-10.297 -2.66723 -4.13931e-16 
-9.96638 -2.65456 -5.8996e-16 
-9.63876 -2.65642 -4.07659e-16 
-9.31256 -2.66233 -2.88954e-16 
-8.99664 -2.63189 -1.68791e-16 
-8.68582 -2.63126 -1.12101e-16 
-8.37628 -2.66357 -9.9557e-17 
-8.07232 -2.65467 -9.4178e-17 
-7.76231 -2.64777 -9.17754e-15 
-7.45046 -2.63691 4.06773e-15 
-7.1434 -2.65774 2.58566e-15 
-6.83898 -2.6804 -3.09747e-15 
-6.53124 -2.67349 -2.06473e-15 
-6.22666 -2.67731 5.69295e-17 
-5.92192 -2.66737 1.20252e-16 
[...]
POINT_DATA 1978 
VECTORS vectors float
-0.000464818 -0.00137524 0.999999 
-5.90185e-06 -0.0742123 0.997242 
0.000250046 -0.0712337 0.99746 
0.000284877 -0.0562194 0.998418 
0.000112553 -0.0399069 0.999203 
0.000157871 -0.0251936 0.999683 
0.0002307 -0.0162048 0.999869 
0.000191854 -0.0106358 0.999943 
0.000171491 -0.00703788 0.999975 
0.000213666 -0.00571429 0.999984 
0.000190141 -0.00535558 0.999986 
0.000185133 -0.00442647 0.99999 
0.000243453 -0.00369587 0.999993 
0.000302904 -0.00331559 0.999994 
0.0003051 -0.00207144 0.999998 
0.000273603 -0.000472921 1 
0.000234156 0.00055515 1 
0.00022527 0.00149373 0.999999 
0.000234985 0.00257669 0.999997 
0.000227719 0.00392146 0.999992 
0.00022286 0.00572027 0.999984 
0.000244509 0.00839637 0.999965 
0.000258706 0.0118064 0.99993 
0.000191134 0.0159441 0.999873 
0.000193172 0.021952 0.999759 
0.000287414 0.0282064 0.999602 
0.000181289 0.0367155 0.999326 
0.00017424 0.0488252 0.998807 
0.000231232 0.0647595 0.997901 
0.000248861 0.087356 0.996177 
0.000283036 0.116782 0.993158 
0.0002536 0.155032 0.987909 
0.000195078 0.211412 0.977397 
0.000180166 0.28432 0.958729 
0.000133376 0.379283 0.925281 
7.62534e-05 0.507393 0.861715 
4.29059e-05 0.653382 0.757029 
-1.3883e-05 0.821884 0.569655 
-3.15707e-06 0.940247 0.340493 
-2.54396e-06 0.999887 -0.0150315 
2.09975e-05 0.941258 -0.337688 
1.626e-05 0.819284 -0.573388 
-5.47908e-05 0.656157 -0.754625 
-0.000104222 0.520396 -0.853925 
-0.000137805 0.401188 -0.915996 
-0.000181269 0.299693 -0.954036 
-0.000204608 0.223713 -0.974655 
-0.000184917 0.164884 -0.986313 
-0.000169577 0.117456 -0.993078 
-0.000190939 0.0858617 -0.996307 
-0.000209663 0.0627951 -0.998026 
-0.000259688 0.048007 -0.998847 
-0.000204482 0.0368505 -0.999321 
-0.000211964 0.0279502 -0.999609 
-0.000247769 0.0210641 -0.999778 
-0.00023163 0.0158373 -0.999875 
-0.000209885 0.0116829 -0.999932 
-0.000212258 0.00826277 -0.999966 
-0.000236519 0.00571967 -0.999984 
-0.000276805 0.00406194 -0.999992 
-0.000234831 0.0026349 -0.999997 
-0.000230705 0.00135433 -0.999999 
-0.000284672 0.000330387 -1 
-0.000285768 -0.000525041 -1 
-0.000216552 -0.00156613 -0.999999 
-0.000254436 -0.00277856 -0.999996 
-0.00025181 -0.00379105 -0.999993 
-0.000263568 -0.0048214 -0.999988 
-0.000307987 -0.00594706 -0.999982 
-0.000224579 -0.00680015 -0.999977 
-0.000112514 -0.00828471 -0.999966 
-0.000246456 -0.0112795 -0.999936 
-0.000190648 -0.016109 -0.99987 
-0.000135234 -0.0253066 -0.99968 
-7.38732e-05 -0.0374794 -0.999297 
-0.000179069 -0.0582824 -0.9983 
-0.00031845 -0.0709661 -0.997479 
2.00549e-06 -0.073979 -0.99726 
0.000489714 -0.00134638 -0.999999 
-0.000112883 0.000725106 1 
0.0344167 -0.0620685 0.997478 
0.040511 -0.0643002 0.997108 
0.0399443 -0.0562679 0.997616 
0.042098 -0.043279 0.998176 
0.0430541 -0.0307305 0.9986 
0.0453616 -0.0203102 0.998764 
0.0468828 -0.0133706 0.998811 
0.0471148 -0.00887476 0.99885 
0.0484878 -0.00650429 0.998803 
0.0489805 -0.00527034 0.998786 
0.0493199 -0.00431681 0.998774 
0.0497993 -0.00340687 0.998753 
0.0499264 -0.00268751 0.998749 
0.0501238 -0.0017798 0.998741 
0.0498853 -0.000639872 0.998755 
0.049882 0.000529877 0.998755 
0.0499369 0.00162738 0.998751 
0.0493716 0.00275454 0.998777 
0.0495495 0.00409758 0.998763 
0.0493319 0.00600655 0.998764 
0.0492925 0.00868007 0.998747 
0.0495212 0.0120408 0.9987 
0.0474337 0.0166167 0.998736 
0.0492377 0.0215633 0.998554 
0.0479231 0.0283436 0.998449 
0.0462398 0.0377645 0.998216 
0.046209 0.0497526 0.997692 
0.0442704 0.0665497 0.996801 
0.0419132 0.0899342 0.995065 
0.0388669 0.120881 0.991906 
0.0342047 0.163437 0.985961 
0.0291184 0.222965 0.974392 
0.0235881 0.302531 0.952848 
0.0173783 0.406568 0.913455 
0.0110496 0.533057 0.846007 
0.00494276 0.691492 0.722367 
0.0010371 0.835952 0.548802 
-0.000648936 0.961233 0.275735 
-0.00120554 0.999769 -0.0214588 
-0.00129999 0.952507 -0.304515 
-0.003866 0.829175 -0.558976 
-0.00767741 0.67725 -0.735713 
-0.0134572 0.518463 -0.854994 
-0.0192878 0.390405 -0.920441 
-0.025569 0.289809 -0.956743 
-0.0313116 0.213625 -0.976414 
-0.0355861 0.153568 -0.987497 
-0.0399543 0.111084 -0.993008 
-0.0423514 0.0810033 -0.995814 
-0.0452808 0.0604786 -0.997142 
-0.0463611 0.045782 -0.997875 
-0.0469928 0.0345698 -0.998297 
-0.0480985 0.0262686 -0.998497 
-0.0486005 0.0198833 -0.99862 
-0.0486028 0.0148142 -0.998708 
-0.0491419 0.010875 -0.998733 
-0.0491314 0.00769595 -0.998763 
-0.0499659 0.00538915 -0.998736 
-0.0497941 0.00371005 -0.998753 
-0.0499372 0.00240539 -0.998749 
-0.0497777 0.00129858 -0.998759 
-0.0511132 0.000334141 -0.998693 
-0.0498349 -0.000691165 -0.998757 
-0.0503707 -0.00165727 -0.998729 
-0.0501953 -0.00266303 -0.998736 
-0.0505637 -0.00365589 -0.998714 
-0.0500774 -0.00476898 -0.998734 
-0.0509683 -0.00588895 -0.998683 
-0.0478837 -0.00741488 -0.998825 
-0.0477823 -0.00972899 -0.99881 
-0.0479917 -0.0137006 -0.998754 
-0.0441789 -0.0200743 -0.998822 
-0.0439593 -0.0297809 -0.998589 
-0.0400499 -0.0436764 -0.998243 
-0.0406828 -0.0558832 -0.997608 
-0.040637 -0.0637419 -0.997139 
-0.0344491 -0.0620685 -0.997477 
0.000147504 0.000744009 -1 
-0.00021046 -6.04649e-05 1 
0.0358481 -0.0609339 0.997498 
0.0384011 -0.0595157 0.997488 
0.0412255 -0.0534604 0.997719 
0.0431533 -0.0432399 0.998132 
0.0462664 -0.0314365 0.998434 
0.0484258 -0.0217141 0.998591 
0.0503395 -0.0145502 0.998626 
0.0517176 -0.00969821 0.998615 
0.052885 -0.00697163 0.998576 
0.0537913 -0.00538656 0.998538 
0.0543466 -0.00419065 0.998513 
0.0543891 -0.00315237 0.998515 
0.0543968 -0.00232078 0.998517 
0.0541158 -0.00152015 0.998534 
0.0543969 -0.000618873 0.998519 
0.0547361 0.000463871 0.998501 
0.054329 0.00157429 0.998522 
0.0541114 0.00259233 0.998532 
0.0538962 0.0037647 0.998539 
0.0537692 0.00549216 0.998538 
0.0535057 0.00796119 0.998536 
0.0529878 0.0111329 0.998533 
0.0533129 0.0151817 0.998462 
0.0524166 0.0199019 0.998427 
0.0521084 0.0262853 0.998295 
0.0516097 0.0348189 0.99806 
0.0498193 0.0461527 0.997691 
0.0479198 0.0629068 0.996868 
0.044941 0.085769 0.995301 
0.0400166 0.117638 0.99225 
0.0350193 0.161666 0.986224 
0.0297544 0.222187 0.97455 
0.0230644 0.303397 0.952585 
0.0160387 0.410764 0.911601 
0.00902222 0.554702 0.832 
0.00348154 0.701541 0.712621 
-0.000990595 0.851187 0.524861 
-0.00195957 0.957013 0.290039 
-0.00371374 0.999944 -0.00994078 
-0.00415228 0.955066 -0.296363 
-0.00562975 0.843421 -0.537223 
-0.00862831 0.687868 -0.725785 
-0.01308 0.53666 -0.843697 
-0.0188628 0.401984 -0.915452 
-0.0252032 0.298137 -0.95419 
-0.0314391 0.220259 -0.974935 
-0.0374522 0.161436 -0.986172 
-0.0414162 0.118748 -0.99206 
-0.0452032 0.0866514 -0.995213 
-0.0474018 0.0645063 -0.996791 
-0.0495234 0.0481869 -0.99761 
-0.051198 0.0364261 -0.998024 
-0.0517875 0.0273746 -0.998283 
-0.052247 0.0206215 -0.998421 
-0.0530501 0.015583 -0.99847 
-0.0534755 0.0115422 -0.998502 
-0.0540035 0.00827446 -0.998506 
-0.0537476 0.00573243 -0.998538 
-0.0539863 0.00394783 -0.998534 
-0.0542211 0.00271859 -0.998525 
-0.0546466 0.00169581 -0.998504 
-0.0543412 0.000724192 -0.998522 
-0.0549635 -0.000307528 -0.998488 
-0.0547443 -0.00122538 -0.9985 
-0.0547899 -0.00210056 -0.998496 
-0.0547664 -0.00304224 -0.998495 
-0.054467 -0.00422555 -0.998507 
-0.0541278 -0.00582739 -0.998517 
-0.0536674 -0.00775973 -0.998529 
-0.0523466 -0.0105811 -0.998573 
-0.0504394 -0.0151472 -0.998612 
-0.0490726 -0.0212393 -0.998569 
-0.0462253 -0.03076 -0.998457 
-0.0445883 -0.0418437 -0.998129 
-0.0411851 -0.0527454 -0.997758 
-0.0380716 -0.0591399 -0.997523 
-0.0359943 -0.0610014 -0.997488 
0.000312017 5.40074e-05 -1 
-0.000305543 0.000200272 1 
0.0289339 -0.059047 0.997836 
0.0332612 -0.0605251 0.997612 
0.0367682 -0.0550917 0.997804 
0.0399783 -0.0449051 0.998191 
0.0434767 -0.0322837 0.998533 
0.0458709 -0.0221736 0.998701 
0.0478782 -0.0147302 0.998745 
0.0500733 -0.0101167 0.998694 
0.0505256 -0.00725443 0.998696 
0.0510865 -0.00521837 0.998681 
0.0518843 -0.0037665 0.998646 
0.0517588 -0.00262869 0.998656 
0.051742 -0.00180506 0.998659 
0.0514481 -0.00108067 0.998675 
0.0516154 -0.000245641 0.998667 
0.0518267 0.000777041 0.998656 
0.0515723 0.00183297 0.998668 
0.0513819 0.00274686 0.998675 
0.0511908 0.00383937 0.998682 
0.0510342 0.00551362 0.998682 
0.0508142 0.00798203 0.998676 
0.0504499 0.0111907 0.998664 
0.050765 0.0149769 0.998598 
0.0501064 0.0199832 0.998544 
0.049512 0.0262934 0.998427 
0.0490957 0.0346711 0.998192 
0.0475786 0.0466306 0.997778 
0.0452436 0.0626867 0.997007 
0.0413165 0.086542 0.995391 
0.0363662 0.119567 0.99216 
0.0306583 0.166672 0.985536 
0.0260438 0.228644 0.973162 
0.0198053 0.313753 0.949298 
0.0129627 0.432369 0.901603 
0.00685701 0.564841 0.825171 
0.00162809 0.716441 0.697646 
-0.00172238 0.855385 0.517989 
-0.00376754 0.967669 0.252196 
-0.00326772 0.999931 -0.0112833 
-0.00296428 0.961543 -0.274638 
-0.00340699 0.860602 -0.509267 
-0.00688624 0.710859 -0.703301 
-0.0112656 0.553353 -0.832871 
-0.0164779 0.416076 -0.909181 
-0.0222496 0.308751 -0.950883 
-0.0280249 0.224431 -0.974087 
-0.034411 0.164762 -0.985733 
-0.0382973 0.12108 -0.991904 
-0.0420013 0.0888028 -0.995163 
-0.0443156 0.0657172 -0.996854 
-0.0465496 0.0487843 -0.997724 
-0.0482275 0.0362724 -0.998178 
-0.0491931 0.027291 -0.998416 
-0.0498535 0.0205829 -0.998544 
-0.050609 0.015531 -0.998598 
-0.0509528 0.0115454 -0.998634 
-0.0511356 0.00827545 -0.998657 
-0.05123 0.00578479 -0.99867 
-0.0511024 0.00402568 -0.998685 
-0.0508843 0.0028229 -0.998701 
-0.0512134 0.00190158 -0.998686 
-0.0512536 0.000929734 -0.998685 
-0.0515886 -0.000117678 -0.998668 
-0.0518268 -0.000973487 -0.998656 
-0.0522296 -0.00173984 -0.998634 
-0.0520555 -0.00260751 -0.998641 
-0.0521105 -0.0039369 -0.998634 
-0.0515105 -0.00570967 -0.998656 
-0.0519321 -0.0079871 -0.998619 
-0.050077 -0.0112428 -0.998682 
-0.0475513 -0.0160892 -0.998739 
-0.0465742 -0.0229393 -0.998651 
-0.0432842 -0.0335181 -0.9985 
-0.0414567 -0.0446783 -0.998141 
-0.0371932 -0.0550424 -0.997791 
-0.0327121 -0.0605275 -0.99763 
-0.0286069 -0.0587773 -0.997861 
0.000416137 0.000351367 -1 
-0.000377083 0.000494302 1 
0.0225867 -0.0608838 0.997889 
0.0266853 -0.0625833 0.997683 
0.03017 -0.0575495 0.997887 
0.0332299 -0.0481002 0.99829 
0.0365466 -0.0348429 0.998724 
0.0389583 -0.0239576 0.998954 
0.0408203 -0.016253 0.999034 
0.0422033 -0.0108857 0.99905 
0.0422712 -0.00751152 0.999078 
0.0424164 -0.00499463 0.999088 
0.0432751 -0.0031953 0.999058 
0.043061 -0.00196291 0.999071 
0.043024 -0.0012233 0.999073 
0.0424319 -0.000520919 0.999099 
0.0432291 0.00034329 0.999065 
0.0438892 0.00132421 0.999036 
0.0429977 0.00223268 0.999073 
0.0429747 0.00305303 0.999071 
0.0427883 0.00420511 0.999075 
0.0426553 0.00607834 0.999071 
0.042361 0.00871341 0.999064 
0.04215 0.0121009 0.999038 
0.0431687 0.015977 0.99894 
0.0417116 0.021363 0.998901 
0.0414871 0.0283575 0.998737 
0.0414917 0.0373716 0.99844 
0.0394334 0.0502945 0.997956 
0.037352 0.0687456 0.996935 
0.0326323 0.0930329 0.995128 
0.0272766 0.131365 0.990959 
0.0219452 0.180951 0.983247 
0.0192746 0.241191 0.970286 
0.0136219 0.342868 0.939285 
0.00736207 0.463022 0.886316 
0.0021945 0.614235 0.78912 
-0.000174589 0.758547 0.651619 
-0.000639661 0.873459 0.486897 
-0.000703653 0.945241 0.326372 
0.00033094 0.998219 0.0596557 
-0.0013233 0.962086 -0.272744 
-0.00078375 0.852842 -0.522168 
-0.0025256 0.714875 -0.699248 
-0.00669898 0.550702 -0.834675 
-0.0117711 0.411459 -0.911352 
-0.0171164 0.3011 -0.953439 
-0.0222249 0.224802 -0.974151 
-0.0285354 0.163016 -0.986211 
-0.0306754 0.119627 -0.992345 
-0.035145 0.0869922 -0.995589 
-0.0365951 0.0627996 -0.997355 
-0.0392767 0.0459714 -0.99817 
-0.0409105 0.0342249 -0.998576 
-0.041436 0.0254259 -0.998818 
-0.0417024 0.0190114 -0.998949 
-0.0427207 0.0143371 -0.998984 
-0.0429959 0.0105972 -0.999019 
-0.0431862 0.00757674 -0.999038 
-0.0425661 0.00524322 -0.99908 
-0.0426449 0.00368273 -0.999084 
-0.0417171 0.00270635 -0.999126 
-0.043171 0.00186786 -0.999066 
-0.0426723 0.000942358 -0.999089 
-0.0428036 2.09841e-05 -0.999084 
-0.0430479 -0.000763979 -0.999073 
-0.0434328 -0.00141117 -0.999055 
-0.0432575 -0.0022808 -0.999061 
-0.0433378 -0.00371121 -0.999054 
-0.0425584 -0.00574557 -0.999077 
-0.0448443 -0.00826437 -0.99896 
-0.0420675 -0.0118007 -0.999045 
-0.039475 -0.0174431 -0.999068 
-0.0399145 -0.0248964 -0.998893 
-0.0361686 -0.0359664 -0.998698 
-0.0356963 -0.0475363 -0.998231 
-0.0306681 -0.0581263 -0.997838 
-0.0256301 -0.062736 -0.997701 
-0.0221624 -0.0599309 -0.997956 
0.000298948 0.000186526 -1 
-0.000263523 0.000433699 1 
0.0141651 -0.0593478 0.998137 
0.0186878 -0.0659351 0.997649 
0.021488 -0.0622358 0.99783 
0.0237589 -0.0543674 0.998238 
0.0266627 -0.0414994 0.998783 
0.0290484 -0.0295986 0.99914 
0.0302027 -0.020269 0.999338 
0.0315273 -0.0136959 0.999409 
0.0317472 -0.00938474 0.999452 
0.0315001 -0.00602322 0.999486 
0.0319148 -0.00354062 0.999484 
0.0318481 -0.00199844 0.999491 
0.031734 -0.00113395 0.999496 
0.0318116 -0.000573415 0.999494 
0.0313231 0.000220722 0.999509 
0.0321318 0.00112382 0.999483 
0.0321277 0.00194205 0.999482 
0.0315448 0.00264525 0.999499 
0.03153 0.00348208 0.999497 
0.0316233 0.00492628 0.999488 
0.0315343 0.00713412 0.999477 
0.0315074 0.0100617 0.999453 
0.0312602 0.0136699 0.999418 
0.0323434 0.0178576 0.999317 
0.0310931 0.024093 0.999226 
0.030665 0.0321001 0.999014 
0.0304008 0.0422986 0.998642 
0.0288945 0.0580248 0.997897 
0.0251338 0.0774544 0.996679 
0.0215552 0.108177 0.993898 
0.0155583 0.152767 0.98814 
0.0116062 0.218554 0.975756 
0.0100712 0.293668 0.955855 
0.0045822 0.399733 0.91662 
-0.000157286 0.542407 0.840116 
-0.00227472 0.666221 0.745751 
-0.00294216 0.83068 0.556742 
-0.00202999 0.993187 0.116511 
0.000778835 0.999399 -0.0346672 
-0.0024622 0.957202 -0.28941 
-0.00305474 0.966725 -0.255801 
-0.000446287 0.794488 -0.60728 
-0.000122977 0.633221 -0.773971 
-0.00246656 0.469327 -0.883021 
-0.00829646 0.331524 -0.94341 
-0.0123349 0.237299 -0.971358 
-0.0191012 0.172281 -0.984863 
-0.0198598 0.130535 -0.991245 
-0.0244099 0.0951654 -0.995162 
-0.0268085 0.0700039 -0.997186 
-0.0288828 0.0494494 -0.998359 
-0.0302783 0.0362308 -0.998885 
-0.0311005 0.026935 -0.999153 
-0.0311246 0.0199851 -0.999316 
-0.0316437 0.0148897 -0.999388 
-0.0318786 0.0110891 -0.99943 
-0.0319884 0.00801167 -0.999456 
-0.0316175 0.00560869 -0.999484 
-0.0315486 0.00388647 -0.999495 
-0.0304966 0.00288458 -0.999531 
-0.0316751 0.00216061 -0.999496 
-0.0320738 0.00139836 -0.999485 
-0.031018 0.000456123 -0.999519 
-0.0315509 -0.000341927 -0.999502 
-0.0314043 -0.000947983 -0.999506 
-0.0314059 -0.00169934 -0.999505 
-0.0315309 -0.00313198 -0.999498 
-0.0309297 -0.00532949 -0.999507 
-0.0333968 -0.00851221 -0.999406 
-0.0316064 -0.0128734 -0.999417 
-0.0289903 -0.0189189 -0.999401 
-0.0302714 -0.0270237 -0.999176 
-0.0268361 -0.0390874 -0.998875 
-0.0272834 -0.0509179 -0.99833 
-0.0225582 -0.061149 -0.997874 
-0.0181097 -0.0652997 -0.997701 
-0.0157722 -0.0618097 -0.997963 
0.000167456 0.000204435 -1 
-0.000120322 0.000195359 1 
0.0105905 -0.0638974 0.9979 
0.0139186 -0.0665322 0.997687 
0.015322 -0.0627729 0.99791 
0.0174773 -0.0521898 0.998484 
0.0192612 -0.0389954 0.999054 
0.0208946 -0.0274922 0.999404 
0.0216574 -0.01854 0.999594 
0.0218281 -0.0126614 0.999682 
0.0221711 -0.00825458 0.99972 
0.0220311 -0.00472657 0.999746 
0.0215157 -0.00248834 0.999765 
0.0215557 -0.00124666 0.999767 
0.0213925 -0.00065765 0.999771 
0.0215568 -0.00010459 0.999768 
0.0208725 0.000760454 0.999782 
0.0211024 0.00158011 0.999776 
0.0214709 0.00222361 0.999767 
0.0209006 0.00279864 0.999778 
0.0212188 0.0037846 0.999768 
0.0214625 0.00553062 0.999754 
0.0215638 0.00806988 0.999735 
0.0215567 0.0112642 0.999704 
0.0211288 0.0151283 0.999662 
0.0226551 0.0200485 0.999542 
0.0213452 0.0274531 0.999395 
0.02052 0.0369723 0.999106 
0.0208906 0.0503878 0.998511 
0.0171979 0.06804 0.997534 
0.0150622 0.0958665 0.99528 
0.0106307 0.137427 0.990455 
0.00625366 0.213023 0.977027 
0.0031558 0.314015 0.949413 
-0.000255031 0.452774 0.891625 
-0.00210325 0.622017 0.783001 
-0.0024474 0.795358 0.606135 
0.00229909 0.883654 0.468134 
0.00301504 0.961627 0.274345 
-0.000265519 0.944198 0.329378 
0.00217198 0.996325 0.0856246 
0.00557798 0.998452 -0.055339 
-0.00171047 0.955359 -0.295443 
-0.000447965 0.857591 -0.514332 
0.0033131 0.660966 -0.750408 
0.00312505 0.529376 -0.848381 
-0.000517099 0.379885 -0.925033 
-0.00400334 0.272647 -0.962106 
-0.00971372 0.183129 -0.983041 
-0.0123418 0.127113 -0.991811 
-0.0159502 0.0910002 -0.995723 
-0.0193444 0.0638783 -0.99777 
-0.0200159 0.0460688 -0.998738 
-0.0209207 0.0338245 -0.999209 
-0.0216419 0.0250187 -0.999453 
-0.0216413 0.0184579 -0.999595 
-0.0215664 0.0137535 -0.999673 
-0.0215317 0.0101454 -0.999717 
-0.021438 0.00726223 -0.999744 
-0.0216117 0.00493603 -0.999754 
-0.0209086 0.00348161 -0.999775 
-0.020988 0.00259365 -0.999776 
-0.021049 0.00205339 -0.999776 
-0.0217292 0.00136069 -0.999763 
-0.0204138 0.00053284 -0.999791 
-0.0212271 -0.000252766 -0.999775 
-0.020652 -0.000797326 -0.999786 
-0.0209947 -0.00158541 -0.999778 
-0.0210414 -0.00312604 -0.999774 
-0.0206921 -0.0056209 -0.99977 
-0.023598 -0.00879969 -0.999683 
-0.02197 -0.0132778 -0.99967 
-0.0204239 -0.0200951 -0.999589 
-0.0213617 -0.0292094 -0.999345 
-0.0186542 -0.041829 -0.998951 
-0.0190232 -0.0542058 -0.998349 
-0.0151554 -0.0639769 -0.997836 
-0.0119862 -0.0678053 -0.997627 
-0.0103717 -0.063347 -0.997938 
0.000107125 0.000241989 -1 
-7.00116e-05 0.000229395 1 
0.00701989 -0.0640352 0.997923 
0.00942851 -0.0689474 0.997576 
0.0102866 -0.0657655 0.997782 
0.0118165 -0.0563856 0.998339 
0.0128733 -0.0427812 0.999002 
0.0139009 -0.0306205 0.999434 
0.0147479 -0.02125 0.999665 
0.0144825 -0.0143192 0.999793 
0.0145855 -0.00920665 0.999851 
0.01482 -0.00534915 0.999876 
0.0137697 -0.00257044 0.999902 
0.0135989 -0.00113524 0.999907 
0.0133478 -0.000559159 0.999911 
0.0133426 -0.000110592 0.999911 
0.0130203 0.000639743 0.999915 
0.0124673 0.00147689 0.999921 
0.0129474 0.00203 0.999914 
0.0128799 0.00245909 0.999914 
0.0130004 0.00326344 0.99991 
0.0133542 0.00480257 0.999899 
0.0136914 0.00713509 0.999881 
0.0138337 0.0101564 0.999853 
0.0134121 0.0138447 0.999814 
0.0141455 0.0188204 0.999723 
0.0145547 0.0252102 0.999576 
0.0131116 0.0347747 0.999309 
0.013442 0.0478852 0.998762 
0.0107423 0.0653254 0.997806 
0.00941072 0.0919298 0.995721 
0.00653466 0.130892 0.991375 
0.00384717 0.196009 0.980595 
0.000862555 0.305223 0.952281 
-0.00119889 0.430694 0.902497 
-0.00171836 0.67854 0.734562 
0.00742264 0.827381 0.561592 
0.00891536 0.952674 0.303863 
0.00735896 0.995322 0.096328 
0.00720462 0.997216 0.0742238 
0.00588992 0.999983 -0.000129251 
0.00489492 0.999627 -0.0268582 
0.003971 0.998413 -0.0561691 
0.00105275 0.837597 -0.546288 
0.00309745 0.685274 -0.728279 
0.00540527 0.520441 -0.853881 
0.00316764 0.415519 -0.909579 
0.000720274 0.304032 -0.952662 
-0.00385451 0.20633 -0.978475 
-0.00639329 0.142669 -0.98975 
-0.00894774 0.0963402 -0.995308 
-0.0120803 0.0688211 -0.997556 
-0.0125889 0.0501748 -0.998661 
-0.0132738 0.0365503 -0.999244 
-0.0138662 0.0268827 -0.999542 
-0.0140648 0.019958 -0.999702 
-0.0137479 0.0148096 -0.999796 
-0.0135357 0.0109279 -0.999849 
-0.013208 0.00779782 -0.999882 
-0.0137923 0.00538352 -0.99989 
-0.0128652 0.00365268 -0.999911 
-0.0134968 0.00269991 -0.999905 
-0.0126552 0.00215559 -0.999918 
-0.0132227 0.00165673 -0.999911 
-0.0126824 0.000941292 -0.999919 
-0.0130419 9.27774e-05 -0.999915 
-0.0127624 -0.000450069 -0.999918 
-0.0131676 -0.00108616 -0.999913 
-0.0132332 -0.00251159 -0.999909 
-0.0133536 -0.0051274 -0.999898 
-0.0153491 -0.00918649 -0.99984 
-0.0149908 -0.014664 -0.99978 
-0.0135039 -0.0216747 -0.999674 
-0.0147576 -0.0302797 -0.999433 
-0.0126319 -0.0422461 -0.999027 
-0.0129843 -0.0552608 -0.998388 
-0.0103667 -0.0658667 -0.997775 
-0.00821998 -0.0696249 -0.997539 
-0.00670409 -0.064144 -0.997918 
6.35952e-05 0.00010554 -1 
-4.57064e-05 0.000144306 1 