# vtk DataFile Version 3.0 
Exported using Morpho https://github.com/Morpho-lang/morpho 
ASCII 
DATASET UNSTRUCTURED_GRID 

POINTS 1978 float 
-12 -4 -1.97629e-09 
-11.5884 -4 3.2774e-09 
-11.2889 -4 6.21316e-09 
-10.9486 -4 4.66427e-09 
-10.6394 -4 1.06636e-09 
-10.29 -4 1.27767e-09 
-9.96834 -4 8.52264e-10 
-9.66139 -4 -2.61038e-10 
-9.3244 -4 -2.23864e-10 
-9.00428 -4 7.97965e-10 
-8.6821 -4 8.75269e-10 
-8.35538 -4 -1.01434e-10 
-8.04663 -4 4.12128e-10 
-7.75655 -4 4.79815e-10 
-7.48014 -4 1.29206e-10 
-7.1947 -4 -7.64006e-11 
-6.90224 -4 -9.29961e-11 
-6.59828 -4 1.49917e-10 
-6.29679 -4 -3.26914e-10 
-5.98756 -4 -4.55041e-10 
-5.68479 -4 -2.73872e-10 
-5.38014 -4 -6.50294e-10 
-5.07961 -4 -8.04745e-10 
-4.78583 -4 -1.30583e-09 
-4.44824 -4 -1.40213e-09 
-4.15966 -4 -1.88323e-09 
-3.85188 -4 -3.14098e-09 
-3.51936 -4 -2.6616e-09 
-3.21731 -4 -3.24845e-09 
-2.91989 -4 -3.37168e-09 
-2.63995 -4 -2.05382e-09 
-2.37092 -4 -2.08921e-09 
-2.09102 -4 -2.08876e-09 
-1.80597 -4 -1.0067e-10 
-1.52472 -4 -1.09861e-09 
-1.22483 -4 -1.64207e-10 
-0.932026 -4 -1.00163e-08 
-0.608615 -4 -8.22199e-09 
-0.333788 -4 -2.37884e-08 
0.0150001 -4 1.13196e-08 
0.32818 -4 2.03462e-08 
0.612677 -4 9.32963e-09 
0.925523 -4 6.83619e-09 
1.19851 -4 2.77667e-09 
1.46523 -4 1.57405e-09 
1.74961 -4 2.3002e-10 
2.03235 -4 2.23971e-09 
2.32227 -4 5.65344e-09 
2.6463 -4 5.07635e-09 
2.95141 -4 4.87721e-09 
3.27581 -4 3.09764e-09 
3.56747 -4 2.31464e-09 
3.87086 -4 2.64481e-09 
4.18399 -4 2.14044e-09 
4.48468 -4 1.10837e-09 
4.78508 -4 1.13983e-09 
5.0968 -4 9.99869e-10 
5.40419 -4 5.23116e-10 
5.71587 -4 4.00534e-10 
6.00745 -4 4.90827e-10 
6.30288 -4 1.90961e-10 
6.60095 -4 -2.23301e-11 
6.90072 -4 2.64786e-11 
7.17541 -4 -1.55449e-10 
7.47952 -4 -1.57758e-10 
7.77462 -4 -5.15084e-11 
8.07008 -4 -5.30711e-10 
8.35771 -4 5.57654e-11 
8.65518 -4 -7.18631e-10 
8.92827 -4 -6.87568e-10 
9.27857 -4 -5.41949e-10 
9.60944 -4 5.5956e-10 
9.89854 -4 -1.61933e-09 
10.2709 -4 -1.28432e-09 
10.5867 -4 -1.89804e-09 
10.9791 -4 -5.70548e-09 
11.2939 -4 -5.17033e-09 
11.5865 -4 -3.48336e-09 
12 -4 1.64297e-09 
-12 -3.60307 4.71121e-09 
-11.7108 -3.7179 1.55571e-17 
-11.3571 -3.61861 1.3964e-17 
-11.0454 -3.66831 1.3462e-17 
-10.7152 -3.64294 1.0159e-17 
-10.3912 -3.6821 9.38179e-18 
-10.053 -3.65926 6.41434e-18 
-9.7335 -3.64861 4.23873e-18 
-9.40924 -3.68119 3.3826e-18 
-9.07342 -3.66298 2.218e-18 
-8.74958 -3.66429 1.66351e-18 
-8.42658 -3.67135 1.33396e-18 
-8.10551 -3.66194 1.06326e-18 
-7.79523 -3.65064 6.18264e-19 
-7.49971 -3.64299 2.63735e-19 
-7.20765 -3.65909 1.57404e-19 
-6.90283 -3.65954 -1.8272e-19 
-6.59378 -3.66183 -4.81533e-19 
-6.2789 -3.66899 -8.59678e-19 
-5.96837 -3.66186 -1.33657e-18 
-5.65886 -3.66148 -1.92915e-18 
-5.3539 -3.65508 -2.5316e-18 
-5.05761 -3.64648 -3.35398e-18 
-4.73053 -3.68988 -5.07297e-18 
-4.44018 -3.65307 -5.62638e-18 
-4.14679 -3.65965 -8.02702e-18 
-3.82342 -3.69494 -1.20714e-17 
-3.51467 -3.67632 -1.43136e-17 
-3.21078 -3.67813 -1.80508e-17 
-2.91441 -3.67206 -2.35907e-17 
-2.63949 -3.66357 -2.86943e-17 
-2.35791 -3.66135 -2.50203e-17 
-2.06035 -3.68901 -3.8351e-17 
-1.76784 -3.67989 -3.66079e-17 
-1.47082 -3.68822 -3.27479e-17 
-1.17505 -3.65934 -1.12801e-17 
-0.85037 -3.68643 2.28551e-19 
-0.573539 -3.57146 7.15284e-18 
-0.252575 -3.67908 2.66713e-17 
0.0401539 -3.57161 1.97552e-17 
0.31394 -3.60901 -3.26496e-17 
0.61097 -3.61107 -1.14187e-17 
0.905664 -3.64909 -3.77791e-17 
1.19589 -3.66073 5.46274e-17 
1.48894 -3.66895 3.1705e-17 
1.79236 -3.68438 3.70276e-17 
2.09015 -3.69018 3.66134e-17 
2.41114 -3.72679 3.87484e-17 
2.72354 -3.6937 2.83557e-17 
3.03729 -3.70039 2.94019e-17 
3.32873 -3.65851 1.38452e-17 
3.62697 -3.66878 1.22978e-17 
3.93447 -3.67485 1.02208e-17 
4.23434 -3.65772 7.08839e-18 
4.5324 -3.65458 5.51681e-18 
4.84132 -3.66693 4.49679e-18 
5.15101 -3.66372 3.23804e-18 
5.46416 -3.66862 2.40407e-18 
5.76499 -3.64847 1.56385e-18 
6.06382 -3.65566 1.13168e-18 
6.36346 -3.65694 7.35842e-19 
6.66822 -3.66231 3.6886e-19 
6.95243 -3.63177 1.25719e-19 
7.25357 -3.66598 -1.4821e-19 
7.55405 -3.65541 -4.15424e-19 
7.85655 -3.65743 -7.16549e-19 
8.15302 -3.6468 -9.52473e-19 
8.44592 -3.65461 -1.32039e-18 
8.73023 -3.62109 -1.475e-18 
9.05047 -3.70121 -2.76546e-18 
9.38468 -3.67637 -3.47252e-18 
9.68818 -3.62436 -3.97026e-18 
10.0233 -3.70602 -7.42885e-18 
10.3516 -3.6512 -8.32415e-18 
10.7175 -3.71675 -1.34691e-17 
11.0473 -3.6415 -1.20025e-17 
11.3503 -3.60952 -1.3599e-17 
11.7088 -3.72135 -1.61645e-17 
12 -3.60003 -4.69554e-09 
-12 -3.30099 1.31962e-09 
-11.625 -3.36383 3.0608e-19 
-11.275 -3.27198 1.24328e-18 
-10.9631 -3.32142 1.09321e-18 
-10.6483 -3.2862 5.31102e-19 
-10.3475 -3.34863 2.40432e-18 
-10.028 -3.31509 1.91811e-18 
-9.70634 -3.3085 1.46224e-18 
-9.39154 -3.35413 1.16947e-18 
-9.07331 -3.32722 6.98242e-19 
-8.77553 -3.3059 3.99589e-19 
-8.47575 -3.33472 2.85118e-19 
-8.16452 -3.3293 2.22171e-19 
-7.85524 -3.31703 1.65397e-19 
-7.55146 -3.29677 -1.15766e-20 
-7.25393 -3.31343 -5.79582e-20 
-6.95736 -3.33002 -4.07371e-20 
-6.6477 -3.3298 -7.09624e-20 
-6.33678 -3.33867 -1.87234e-19 
-6.02672 -3.32992 -3.85234e-19 
-5.71543 -3.32656 -5.46257e-19 
-5.40763 -3.31693 -6.64722e-19 
-5.10433 -3.29594 -7.29786e-19 
-4.80289 -3.36155 -1.25329e-18 
-4.50245 -3.30925 -1.31492e-18 
-4.20476 -3.32139 -1.74071e-18 
-3.90032 -3.37539 -3.00623e-18 
-3.59364 -3.36338 -3.55768e-18 
-3.27973 -3.35733 -4.52445e-18 
-2.97442 -3.3575 -7.06672e-18 
-2.67102 -3.31255 -7.57e-18 
-2.3885 -3.33304 -8.41919e-18 
-2.08732 -3.3793 -7.91503e-18 
-1.7793 -3.36319 -5.48185e-18 
-1.46907 -3.36015 -3.30597e-18 
-1.13167 -3.3435 1.84228e-18 
-0.846693 -3.29862 9.14449e-18 
-0.533022 -3.162 1.59345e-17 
-0.252381 -3.30722 2.14542e-17 
0.0195887 -3.1108 -1.84796e-17 
0.284863 -3.1497 -1.35954e-17 
0.562736 -3.21126 -2.00425e-17 
0.871648 -3.29508 -3.93061e-18 
1.18243 -3.30714 -3.75796e-18 
1.47851 -3.33599 -1.24697e-18 
1.78327 -3.3652 8.82854e-18 
2.08276 -3.3742 9.32123e-18 
2.37962 -3.43743 1.12129e-17 
2.67202 -3.37772 4.45867e-18 
2.97486 -3.3935 3.96826e-18 
3.27642 -3.32959 6.95558e-18 
3.57656 -3.33416 3.48119e-18 
3.87511 -3.34652 3.17681e-18 
4.17632 -3.32323 2.05547e-18 
4.47654 -3.31231 1.40305e-18 
4.77711 -3.33079 1.13193e-18 
5.08219 -3.33124 8.01108e-19 
5.39325 -3.33783 6.88433e-19 
5.70077 -3.31344 5.18871e-19 
6.01071 -3.3113 3.83502e-19 
6.30881 -3.31524 2.29183e-19 
6.61224 -3.32826 9.35717e-20 
6.91147 -3.27984 3.48255e-20 
7.20905 -3.3245 4.38218e-20 
7.51058 -3.31665 -1.00887e-20 
7.81423 -3.32198 -1.28164e-19 
8.12071 -3.30507 -2.31435e-19 
8.42244 -3.29841 -3.24213e-19 
8.74493 -3.2991 -3.80508e-19 
9.06792 -3.38055 -8.23481e-19 
9.37935 -3.33054 -1.12837e-18 
9.69288 -3.27882 -1.30755e-18 
10.0049 -3.37625 -2.214e-18 
10.3056 -3.29655 -1.47911e-18 
10.6286 -3.39925 -2.30439e-18 
10.9586 -3.31976 -8.60989e-19 
11.288 -3.24392 -1.31333e-18 
11.6243 -3.36863 -7.47198e-20 
12 -3.29108 -1.27762e-09 
-12 -2.98004 1.09024e-09 
-11.6525 -3.05065 -1.70539e-18 
-11.3068 -2.95448 7.40501e-19 
-10.9588 -2.96668 -1.48985e-19 
-10.6205 -2.95904 7.12786e-19 
-10.2917 -2.99799 1.5266e-18 
-9.96724 -2.97876 1.51373e-18 
-9.64223 -2.9776 1.2945e-18 
-9.34109 -3.01205 9.99379e-19 
-9.04114 -2.96985 6.91593e-19 
-8.73687 -2.95881 5.23783e-19 
-8.43479 -2.99467 2.58154e-19 
-8.12932 -2.99047 2.0468e-19 
-7.82971 -2.97732 1.33514e-19 
-7.52775 -2.95938 -2.09824e-20 
-7.22935 -2.97823 -6.55327e-20 
-6.92601 -3.00472 1.99036e-20 
-6.61795 -3.00277 -1.62714e-20 
-6.31446 -3.00572 -1.36508e-19 
-6.00711 -2.99902 -3.31948e-19 
-5.70138 -2.99238 -4.66686e-19 
-5.3964 -2.98116 -5.14646e-19 
-5.09341 -2.96172 -6.28017e-19 
-4.79405 -3.02268 -8.26426e-19 
-4.49013 -2.97701 -1.36961e-18 
-4.19266 -2.99341 -1.95891e-18 
-3.89581 -3.05246 -2.61635e-18 
-3.59766 -3.03657 -3.53375e-18 
-3.30111 -3.04721 -4.52127e-18 
-2.98294 -3.03748 -6.06209e-18 
-2.68517 -2.97613 -6.95503e-18 
-2.37626 -2.98372 -6.62945e-18 
-2.0881 -3.0602 -9.9548e-18 
-1.77933 -3.03687 -7.7466e-18 
-1.44308 -3.04752 -2.98279e-18 
-1.16302 -2.95272 2.87947e-18 
-0.84144 -2.93572 -3.53685e-17 
-0.59565 -2.72482 7.30949e-17 
-0.267131 -2.87343 -2.8636e-17 
-0.00285983 -2.61913 4.50282e-17 
0.274385 -2.6314 -2.38442e-17 
0.532313 -2.76096 -1.17688e-17 
0.830969 -2.91639 -2.57761e-18 
1.14372 -2.94318 3.2389e-18 
1.4617 -2.97879 1.04676e-17 
1.77076 -3.02933 9.35373e-18 
2.07869 -3.04027 9.23502e-18 
2.37451 -3.11429 7.99271e-18 
2.67365 -3.04546 7.83406e-18 
2.96603 -3.07269 7.24118e-18 
3.2628 -3.00362 3.8244e-18 
3.56823 -3.00793 3.90381e-18 
3.87341 -3.01541 2.18304e-18 
4.17121 -2.9906 1.90763e-18 
4.47096 -2.98124 1.44897e-18 
4.77084 -2.99525 1.0239e-18 
5.07001 -2.99777 7.18957e-19 
5.37273 -3.00798 5.79185e-19 
5.67882 -2.98325 4.82787e-19 
5.98576 -2.98537 3.4866e-19 
6.29834 -2.97114 1.70813e-19 
6.59375 -2.99261 5.27569e-20 
6.91566 -2.96434 2.86283e-20 
7.23283 -2.98722 4.11879e-20 
7.5326 -2.97977 -6.96569e-21 
7.83659 -2.9895 -1.2743e-19 
8.13428 -2.96511 -2.85697e-19 
8.44471 -2.97468 -3.59733e-19 
8.7458 -2.95736 -4.56996e-19 
9.04967 -3.04938 -6.2114e-19 
9.36179 -2.99732 -1.04482e-18 
9.66019 -2.933 -1.45433e-18 
9.98048 -3.02295 -1.72739e-18 
10.3131 -2.96853 -1.7372e-18 
10.6441 -3.06247 -3.3393e-19 
10.9752 -2.97841 -1.35059e-19 
11.3306 -2.92438 -8.71055e-19 
11.6674 -3.04984 2.44896e-18 
12 -2.94803 -1.0511e-09 
-12 -2.66668 1.95532e-09 
-11.6449 -2.72438 -2.57153e-18 
-11.3045 -2.62815 5.06728e-19 
-10.9648 -2.64536 -5.25628e-19 
-10.6307 -2.63364 5.86004e-20 
-10.2974 -2.66733 9.39244e-19 
-9.96567 -2.6556 1.14875e-18 
-9.63944 -2.6546 1.00178e-18 
-9.31437 -2.66335 7.23013e-19 
-8.9986 -2.63193 3.55748e-19 
-8.68479 -2.62579 2.24485e-19 
-8.37725 -2.66204 2.57186e-19 
-8.07194 -2.65141 2.06811e-19 
-7.76255 -2.64672 6.60036e-20 
-7.4479 -2.63588 -3.55025e-20 
-7.14253 -2.65881 -5.17768e-20 
-6.83884 -2.68241 2.36823e-20 
-6.53116 -2.67287 -1.1325e-20 
-6.22636 -2.67545 -1.43556e-19 
-5.92089 -2.66687 -2.81405e-19 
[...]
POINT_DATA 1978 
VECTORS vectors float
0.000589775 -0.00370151 0.999994 
0.000740173 -0.0742168 0.997244 
0.00176057 -0.0712358 0.997458 
0.00218079 -0.0562203 0.998416 
0.00188455 -0.0399067 0.999202 
0.0019768 -0.0251931 0.999681 
0.00195906 -0.0162044 0.999867 
0.00195096 -0.0106355 0.999942 
0.00197344 -0.00703762 0.999974 
0.00198302 -0.00571419 0.999982 
0.00191491 -0.00535567 0.999984 
0.00177742 -0.00442651 0.999989 
0.00170238 -0.00369592 0.999992 
0.00167903 -0.00331575 0.999993 
0.00165477 -0.00207151 0.999997 
0.00163301 -0.000472859 0.999999 
0.00161197 0.000555166 0.999999 
0.00163875 0.00149371 0.999998 
0.00169934 0.00257667 0.999996 
0.00169805 0.00392143 0.999991 
0.00167479 0.00572022 0.999983 
0.00171559 0.00839634 0.999964 
0.00170318 0.0118064 0.999929 
0.00170924 0.0159441 0.999872 
0.00171613 0.0219521 0.999758 
0.00179034 0.0282064 0.999601 
0.00173202 0.0367155 0.999325 
0.00163323 0.048825 0.998807 
0.00156692 0.0647591 0.9979 
0.00148806 0.0873554 0.996176 
0.00140065 0.116781 0.993157 
0.00126323 0.15503 0.987909 
0.00110066 0.211411 0.977397 
0.00096478 0.284319 0.958729 
0.000769949 0.379281 0.925281 
0.000522844 0.507392 0.861715 
0.000296395 0.653382 0.757028 
6.10525e-05 0.821885 0.569654 
1.00795e-05 0.940248 0.340491 
1.66904e-05 0.999887 -0.0150335 
5.5264e-05 0.941258 -0.33769 
-3.16535e-05 0.819283 -0.57339 
-0.000289973 0.656155 -0.754627 
-0.000502563 0.520397 -0.853924 
-0.0007283 0.401186 -0.915996 
-0.000980863 0.299692 -0.954035 
-0.001174 0.223713 -0.974655 
-0.00136501 0.164883 -0.986312 
-0.00147483 0.117456 -0.993077 
-0.00159136 0.0858611 -0.996306 
-0.00163292 0.0627948 -0.998026 
-0.0016652 0.0480068 -0.998846 
-0.00164138 0.0368505 -0.99932 
-0.0016504 0.0279503 -0.999608 
-0.00169267 0.0210641 -0.999777 
-0.00171355 0.0158373 -0.999874 
-0.00169109 0.0116829 -0.999931 
-0.00168855 0.00826275 -0.999965 
-0.00168098 0.00571964 -0.999983 
-0.00168097 0.00406195 -0.999991 
-0.0016051 0.00263489 -0.999996 
-0.00160505 0.0013543 -0.999998 
-0.00163697 0.000330365 -0.999999 
-0.00164815 -0.000525051 -0.999999 
-0.00157957 -0.00156614 -0.999998 
-0.00160641 -0.00277863 -0.999995 
-0.00159789 -0.00379111 -0.999992 
-0.00166606 -0.00482145 -0.999987 
-0.00173851 -0.00594714 -0.999981 
-0.00183263 -0.00680014 -0.999976 
-0.00191097 -0.00828456 -0.999965 
-0.00199168 -0.0112792 -0.999935 
-0.0021995 -0.0161087 -0.999868 
-0.00229485 -0.0253062 -0.999678 
-0.00238078 -0.0374792 -0.999295 
-0.00252752 -0.0582834 -0.998297 
-0.0018366 -0.0709681 -0.997477 
-0.000667182 -0.0739835 -0.997261 
-0.000421869 -0.0037124 -0.999994 
0.00345093 -0.00250728 0.999991 
0.0344273 -0.062079 0.997477 
0.0405165 -0.0643023 0.997108 
0.03995 -0.0562686 0.997616 
0.0421035 -0.0432794 0.998175 
0.0430605 -0.0307304 0.9986 
0.0453676 -0.02031 0.998764 
0.0468886 -0.0133705 0.998811 
0.0471215 -0.00887462 0.99885 
0.0484941 -0.00650427 0.998802 
0.0489865 -0.00527035 0.998786 
0.0493265 -0.00431684 0.998773 
0.0498055 -0.00340689 0.998753 
0.0499322 -0.00268756 0.998749 
0.0501292 -0.00177986 0.998741 
0.0498912 -0.000639906 0.998754 
0.0498879 0.000529877 0.998755 
0.0499431 0.0016274 0.998751 
0.0493779 0.00275455 0.998776 
0.0495556 0.00409756 0.998763 
0.0493379 0.00600653 0.998764 
0.0492983 0.00868008 0.998746 
0.0495268 0.0120408 0.9987 
0.0474404 0.0166168 0.998736 
0.049243 0.0215633 0.998554 
0.0479292 0.0283437 0.998448 
0.0462464 0.0377645 0.998216 
0.046215 0.0497525 0.997692 
0.0442762 0.0665495 0.9968 
0.0419186 0.0899339 0.995065 
0.0388713 0.120881 0.991906 
0.0342093 0.163437 0.98596 
0.0291228 0.222963 0.974392 
0.0235915 0.30253 0.952848 
0.0173811 0.406568 0.913455 
0.0110511 0.533056 0.846008 
0.00494343 0.691489 0.72237 
0.00103638 0.835952 0.548802 
-0.000650496 0.961233 0.275736 
-0.00120584 0.999769 -0.0214554 
-0.00129942 0.952507 -0.304513 
-0.00386602 0.829177 -0.558973 
-0.00767859 0.677251 -0.735712 
-0.0134587 0.518461 -0.854995 
-0.0192906 0.390404 -0.920442 
-0.0255727 0.289807 -0.956743 
-0.0313163 0.213624 -0.976414 
-0.035592 0.153568 -0.987497 
-0.0399601 0.111084 -0.993007 
-0.0423575 0.0810034 -0.995813 
-0.045286 0.0604784 -0.997142 
-0.046367 0.045782 -0.997875 
-0.0469988 0.0345698 -0.998297 
-0.0481041 0.0262686 -0.998497 
-0.0486062 0.0198833 -0.99862 
-0.0486089 0.0148142 -0.998708 
-0.049148 0.010875 -0.998732 
-0.0491376 0.00769594 -0.998762 
-0.0499715 0.00538913 -0.998736 
-0.0497999 0.00371003 -0.998752 
-0.0499431 0.00240537 -0.998749 
-0.0497837 0.00129859 -0.998759 
-0.0511185 0.000334131 -0.998693 
-0.0498411 -0.000691194 -0.998757 
-0.0503766 -0.0016573 -0.998729 
-0.0502012 -0.00266306 -0.998736 
-0.0505694 -0.00365592 -0.998714 
-0.0500832 -0.00476902 -0.998734 
-0.0509735 -0.00588898 -0.998683 
-0.0478909 -0.00741487 -0.998825 
-0.0477889 -0.00972884 -0.99881 
-0.0479969 -0.0137004 -0.998753 
-0.044186 -0.0200741 -0.998822 
-0.043965 -0.0297808 -0.998589 
-0.0400569 -0.0436767 -0.998242 
-0.040688 -0.0558839 -0.997608 
-0.0406424 -0.063744 -0.997138 
-0.0344599 -0.0620788 -0.997476 
-0.0035613 -0.0026098 -0.99999 
0.00407612 -0.00320311 0.999987 
0.0358524 -0.060941 0.997497 
0.0384023 -0.059517 0.997488 
0.0412267 -0.0534615 0.997718 
0.0431543 -0.0432407 0.998132 
0.046268 -0.0314366 0.998434 
0.0484273 -0.021714 0.998591 
0.050341 -0.01455 0.998626 
0.0517194 -0.00969812 0.998615 
0.0528864 -0.00697149 0.998576 
0.0537931 -0.00538658 0.998538 
0.0543484 -0.00419069 0.998513 
0.0543908 -0.00315239 0.998515 
0.0543985 -0.0023208 0.998517 
0.0541173 -0.00152019 0.998533 
0.0543985 -0.000618919 0.998519 
0.0547379 0.000463873 0.998501 
0.0543306 0.00157433 0.998522 
0.0541131 0.00259234 0.998531 
0.0538979 0.00376467 0.998539 
0.0537709 0.00549212 0.998538 
0.0535073 0.00796117 0.998536 
0.0529893 0.0111329 0.998533 
0.0533147 0.0151818 0.998462 
0.052418 0.019902 0.998427 
0.0521099 0.0262853 0.998295 
0.0516114 0.0348189 0.99806 
0.0498209 0.0461526 0.997691 
0.0479214 0.0629066 0.996868 
0.0449426 0.0857686 0.995301 
0.0400181 0.117637 0.99225 
0.0350204 0.161665 0.986224 
0.0297555 0.222187 0.97455 
0.0230654 0.303396 0.952585 
0.0160395 0.410764 0.911601 
0.0090231 0.554698 0.832003 
0.00348217 0.701542 0.71262 
-0.00098838 0.851182 0.524869 
-0.00195803 0.957008 0.290055 
-0.00371164 0.999944 -0.00993131 
-0.00415186 0.955064 -0.296372 
-0.00562934 0.843419 -0.537228 
-0.00862832 0.687868 -0.725784 
-0.0130804 0.53666 -0.843697 
-0.0188635 0.401983 -0.915453 
-0.0252041 0.298136 -0.95419 
-0.0314402 0.220259 -0.974935 
-0.0374538 0.161436 -0.986172 
-0.0414176 0.118747 -0.99206 
-0.0452048 0.0866509 -0.995213 
-0.0474033 0.0645064 -0.996791 
-0.0495249 0.0481869 -0.99761 
-0.0511996 0.0364261 -0.998024 
-0.051789 0.0273746 -0.998283 
-0.0522485 0.0206215 -0.998421 
-0.0530517 0.015583 -0.99847 
-0.0534771 0.0115422 -0.998502 
-0.0540052 0.00827447 -0.998506 
-0.0537492 0.00573241 -0.998538 
-0.0539879 0.00394782 -0.998534 
-0.0542227 0.0027186 -0.998525 
-0.0546483 0.00169584 -0.998504 
-0.0543427 0.000724208 -0.998522 
-0.0549653 -0.000307547 -0.998488 
-0.0547459 -0.00122541 -0.9985 
-0.0547915 -0.00210058 -0.998496 
-0.054768 -0.00304225 -0.998494 
-0.0544686 -0.00422557 -0.998506 
-0.0541293 -0.00582741 -0.998517 
-0.0536694 -0.0077597 -0.998529 
-0.0523483 -0.0105811 -0.998573 
-0.0504407 -0.0151471 -0.998612 
-0.0490745 -0.0212391 -0.998569 
-0.0462265 -0.0307601 -0.998457 
-0.04459 -0.0418444 -0.998129 
-0.0411862 -0.0527465 -0.997758 
-0.0380728 -0.0591411 -0.997523 
-0.0359986 -0.0610085 -0.997488 
-0.0045872 -0.00325416 -0.999985 
0.00345563 -0.00301233 0.99999 
0.028937 -0.0590548 0.997835 
0.0332623 -0.0605267 0.997612 
0.0367691 -0.0550931 0.997804 
0.0399794 -0.0449061 0.998191 
0.0434779 -0.0322839 0.998533 
0.0458723 -0.0221736 0.998701 
0.0478796 -0.0147301 0.998744 
0.0500748 -0.0101165 0.998694 
0.0505271 -0.00725439 0.998696 
0.051088 -0.00521834 0.99868 
0.0518859 -0.0037665 0.998646 
0.0517602 -0.00262869 0.998656 
0.0517434 -0.00180507 0.998659 
0.0514496 -0.00108071 0.998675 
0.0516168 -0.000245677 0.998667 
0.0518281 0.000777045 0.998656 
0.0515737 0.00183302 0.998667 
0.0513833 0.00274687 0.998675 
0.0511922 0.00383934 0.998681 
0.0510356 0.00551357 0.998682 
0.0508156 0.00798202 0.998676 
0.0504513 0.0111908 0.998664 
0.0507663 0.0149769 0.998598 
0.0501078 0.0199832 0.998544 
0.0495134 0.0262934 0.998427 
0.0490971 0.0346711 0.998192 
0.0475799 0.0466305 0.997778 
0.045245 0.0626867 0.997007 
0.0413178 0.0865419 0.995391 
0.0363674 0.119566 0.99216 
0.0306594 0.166672 0.985535 
0.0260444 0.228646 0.973161 
0.0198059 0.313756 0.949297 
0.0129632 0.43237 0.901603 
0.00685719 0.564848 0.825166 
0.00162862 0.716439 0.697648 
-0.00172257 0.855393 0.517977 
-0.00376572 0.967674 0.252176 
-0.00326854 0.999931 -0.0112924 
-0.00296565 0.961547 -0.274626 
-0.00340794 0.860598 -0.509273 
-0.00688637 0.710859 -0.7033 
-0.011266 0.553353 -0.832871 
-0.0164785 0.416078 -0.90918 
-0.0222503 0.308752 -0.950882 
-0.0280259 0.224431 -0.974087 
-0.0344121 0.164762 -0.985733 
-0.0382987 0.12108 -0.991903 
-0.0420024 0.0888026 -0.995163 
-0.044317 0.0657169 -0.996854 
-0.046551 0.0487843 -0.997724 
-0.0482289 0.0362724 -0.998177 
-0.0491945 0.0272911 -0.998416 
-0.0498548 0.0205829 -0.998544 
-0.0506104 0.0155311 -0.998598 
-0.0509542 0.0115454 -0.998634 
-0.051137 0.00827546 -0.998657 
-0.0512314 0.00578477 -0.99867 
-0.0511038 0.00402566 -0.998685 
-0.0508857 0.00282291 -0.9987 
-0.0512148 0.00190161 -0.998686 
-0.051255 0.000929757 -0.998685 
-0.05159 -0.000117694 -0.998668 
-0.0518282 -0.000973517 -0.998655 
-0.0522311 -0.00173984 -0.998633 
-0.0520571 -0.00260749 -0.998641 
-0.052112 -0.00393687 -0.998633 
-0.0515121 -0.00570967 -0.998656 
-0.0519336 -0.00798712 -0.998619 
-0.0500784 -0.0112428 -0.998682 
-0.0475528 -0.0160891 -0.998739 
-0.0465754 -0.0229394 -0.998651 
-0.0432855 -0.0335184 -0.9985 
-0.0414578 -0.0446792 -0.998141 
-0.0371942 -0.0550437 -0.997791 
-0.0327133 -0.0605291 -0.99763 
-0.02861 -0.0587857 -0.997861 
-0.00395191 -0.00302543 -0.999988 
0.00283959 -0.00337765 0.999991 
0.0225887 -0.0608917 0.997889 
0.0266861 -0.0625847 0.997683 
0.0301707 -0.0575511 0.997886 
0.0332307 -0.0481013 0.998289 
0.0365475 -0.0348433 0.998724 
0.0389594 -0.0239576 0.998953 
0.0408212 -0.016253 0.999034 
0.0422044 -0.0108857 0.99905 
0.0422722 -0.00751152 0.999078 
0.0424173 -0.00499462 0.999087 
0.043276 -0.00319526 0.999058 
0.043062 -0.00196286 0.99907 
0.0430249 -0.0012233 0.999073 
0.0424327 -0.000520943 0.999099 
0.0432301 0.000343289 0.999065 
0.0438903 0.00132426 0.999035 
0.0429986 0.00223274 0.999073 
0.0429756 0.00305303 0.999071 
0.0427892 0.00420508 0.999075 
0.0426562 0.00607832 0.999071 
0.042362 0.00871345 0.999064 
0.0421509 0.0121009 0.999038 
0.0431697 0.0159771 0.99894 
0.0417125 0.0213631 0.998901 
0.041488 0.0283575 0.998736 
0.0414926 0.0373715 0.99844 
0.0394344 0.0502946 0.997956 
0.037353 0.0687456 0.996935 
0.0326332 0.0930328 0.995128 
0.0272774 0.131364 0.990959 
0.0219458 0.18095 0.983247 
0.0192752 0.241189 0.970287 
0.0136227 0.342863 0.939287 
0.00736245 0.463023 0.886316 
0.00219447 0.614224 0.789129 
-0.000175257 0.758547 0.651618 
-0.000639409 0.873448 0.486918 
-0.000706352 0.945241 0.326372 
0.000331168 0.998219 0.0596534 
-0.00132235 0.962085 -0.272748 
-0.00078327 0.852853 -0.522151 
-0.00252558 0.714872 -0.699251 
-0.00669913 0.5507 -0.834676 
-0.0117715 0.411456 -0.911353 
-0.0171168 0.301101 -0.953439 
-0.0222256 0.224803 -0.974151 
-0.0285362 0.163016 -0.986211 
-0.0306762 0.119626 -0.992345 
-0.0351461 0.0869917 -0.995589 
-0.0365958 0.0627994 -0.997355 
-0.0392777 0.0459713 -0.99817 
-0.0409116 0.0342248 -0.998576 
-0.041437 0.0254258 -0.998818 
-0.0417032 0.0190114 -0.998949 
-0.0427218 0.0143372 -0.998984 
-0.0429968 0.0105972 -0.999019 
-0.0431871 0.00757671 -0.999038 
-0.0425671 0.00524318 -0.99908 
-0.0426457 0.0036827 -0.999083 
-0.041718 0.00270636 -0.999126 
-0.0431719 0.0018679 -0.999066 
-0.0426732 0.000942375 -0.999089 
-0.0428046 2.09557e-05 -0.999083 
-0.0430488 -0.000764 -0.999073 
-0.0434338 -0.00141116 -0.999055 
-0.0432584 -0.00228074 -0.999061 
-0.0433389 -0.00371117 -0.999053 
-0.0425593 -0.00574554 -0.999077 
-0.0448454 -0.00826431 -0.99896 
-0.0420686 -0.0118006 -0.999045 
-0.039476 -0.0174429 -0.999068 
-0.0399155 -0.0248963 -0.998893 
-0.0361695 -0.0359667 -0.998698 
-0.0356973 -0.0475374 -0.998231 
-0.0306688 -0.0581279 -0.997838 
-0.0256309 -0.0627378 -0.997701 
-0.0221646 -0.0599394 -0.997956 
-0.00245893 -0.0031274 -0.999992 
0.00193831 -0.00347806 0.999992 
0.0141667 -0.0593592 0.998136 
0.0186883 -0.0659378 0.997649 
0.0214883 -0.0622374 0.99783 
0.0237592 -0.0543688 0.998238 
0.026663 -0.0415001 0.998783 
0.0290489 -0.0295987 0.99914 
0.030203 -0.020269 0.999338 
0.0315277 -0.0136959 0.999409 
0.0317476 -0.00938476 0.999452 
0.0315005 -0.00602321 0.999486 
0.0319151 -0.00354058 0.999484 
0.0318484 -0.00199837 0.999491 
0.0317342 -0.00113391 0.999496 
0.031812 -0.000573446 0.999494 
0.0313233 0.000220711 0.999509 
0.0321322 0.00112386 0.999483 
0.032128 0.00194211 0.999482 
0.0315451 0.00264527 0.999499 
0.0315303 0.00348205 0.999497 
0.0316237 0.00492623 0.999488 
0.0315347 0.00713414 0.999477 
0.0315076 0.0100617 0.999453 
0.0312605 0.01367 0.999418 
0.0323439 0.0178576 0.999317 
0.0310934 0.024093 0.999226 
0.0306652 0.0321001 0.999014 
0.0304013 0.0422986 0.998642 
0.0288949 0.0580248 0.997897 
0.0251341 0.0774542 0.996679 
0.0215555 0.108176 0.993898 
0.0155586 0.152765 0.98814 
0.0116064 0.218552 0.975756 
0.0100714 0.293666 0.955855 
0.00458253 0.399736 0.916619 
-0.000157296 0.542407 0.840116 
-0.00227503 0.666229 0.745744 
-0.00294308 0.830682 0.55674 
-0.00203187 0.993189 0.116496 
0.000779772 0.999399 -0.0346446 
-0.00246344 0.957202 -0.289409 
-0.00305341 0.966715 -0.255837 
-0.000444946 0.794481 -0.607288 
-0.000122645 0.633215 -0.773976 
-0.0024668 0.469324 -0.883023 
-0.0082968 0.33152 -0.943412 
-0.0123353 0.237296 -0.971359 
-0.0191018 0.172279 -0.984863 
-0.0198599 0.130535 -0.991245 
-0.0244103 0.0951659 -0.995162 
-0.0268087 0.0700043 -0.997186 
-0.0288832 0.0494495 -0.998359 
-0.0302787 0.0362308 -0.998885 
-0.0311009 0.026935 -0.999153 
-0.0311248 0.0199851 -0.999316 
-0.0316441 0.0148897 -0.999388 
-0.0318789 0.0110891 -0.99943 
-0.0319888 0.0080117 -0.999456 
-0.0316178 0.00560867 -0.999484 
-0.0315489 0.00388644 -0.999495 
-0.0304968 0.00288459 -0.999531 
-0.0316754 0.00216067 -0.999496 
-0.0320742 0.00139841 -0.999484 
-0.0310184 0.000456121 -0.999519 
-0.0315511 -0.00034195 -0.999502 
-0.0314047 -0.000947959 -0.999506 
-0.0314061 -0.00169927 -0.999505 
-0.0315312 -0.0031319 -0.999498 
-0.0309301 -0.00532948 -0.999507 
-0.0333972 -0.00851225 -0.999406 
-0.0316067 -0.0128734 -0.999417 
-0.0289906 -0.018919 -0.999401 
-0.0302718 -0.0270238 -0.999176 
-0.0268364 -0.0390879 -0.998875 
-0.0272839 -0.0509191 -0.99833 
-0.0225585 -0.0611507 -0.997874 
-0.01811 -0.0653016 -0.997701 
-0.0157735 -0.0618179 -0.997963 
-0.00149521 -0.00304684 -0.999994 
0.00091679 -0.0030842 0.999995 
0.0105912 -0.0639054 0.9979 
0.0139187 -0.0665338 0.997687 
0.015322 -0.0627747 0.99791 
0.0174773 -0.052191 0.998484 
0.0192613 -0.0389958 0.999054 
0.0208947 -0.0274923 0.999404 
0.0216574 -0.0185399 0.999593 
0.0218281 -0.0126614 0.999682 
0.0221712 -0.00825457 0.99972 
0.0220311 -0.00472651 0.999746 
0.0215157 -0.00248823 0.999765 
0.0215556 -0.00124658 0.999767 
0.0213925 -0.000657648 0.999771 
0.0215569 -0.000104628 0.999768 
0.0208724 0.000760471 0.999782 
0.0211024 0.00158017 0.999776 
0.0214709 0.00222365 0.999767 
0.0209006 0.00279862 0.999778 
0.0212188 0.00378454 0.999768 
0.0214626 0.00553059 0.999754 
0.0215638 0.00806987 0.999735 
0.0215567 0.0112642 0.999704 
0.0211288 0.0151283 0.999662 
0.0226554 0.0200484 0.999542 
0.0213451 0.027453 0.999395 
0.02052 0.0369722 0.999106 
0.0208909 0.0503876 0.998511 
0.0171978 0.0680395 0.997534 
0.0150623 0.0958659 0.99528 
0.0106307 0.137426 0.990455 
0.00625375 0.213021 0.977028 
0.00315572 0.314018 0.949412 
-0.000255077 0.452771 0.891627 
-0.00210355 0.622016 0.783002 
-0.00244752 0.795353 0.606141 
0.00230298 0.88365 0.468143 
0.00302049 0.961612 0.274399 
-0.000268113 0.944197 0.329381 
0.00216478 0.996328 0.0855901 
0.00557712 0.998454 -0.0553066 
-0.00171405 0.955357 -0.295449 
-0.000446595 0.857586 -0.514341 
0.00331423 0.660969 -0.750406 
0.00312576 0.529383 -0.848377 
-0.000516993 0.37989 -0.925031 
-0.00400331 0.272648 -0.962105 
-0.00971364 0.18313 -0.983041 
-0.0123418 0.127113 -0.991811 
-0.0159503 0.0909999 -0.995723 
-0.0193446 0.0638779 -0.99777 
-0.020016 0.0460685 -0.998738 
-0.0209208 0.0338244 -0.999209 
-0.021642 0.0250187 -0.999453 
-0.0216413 0.0184578 -0.999595 
-0.0215665 0.0137535 -0.999673 
-0.0215318 0.0101454 -0.999717 
-0.021438 0.00726219 -0.999744 
-0.0216116 0.00493595 -0.999754 
-0.0209087 0.00348155 -0.999775 
-0.020988 0.00259365 -0.999776 
-0.021049 0.00205344 -0.999776 
-0.0217293 0.00136073 -0.999763 
-0.0204138 0.000532837 -0.999791 
-0.021227 -0.000252796 -0.999775 
-0.0206521 -0.000797309 -0.999786 
-0.0209946 -0.00158532 -0.999778 
-0.0210415 -0.00312596 -0.999774 
-0.020692 -0.00562083 -0.99977 
-0.0235981 -0.00879962 -0.999683 
-0.0219701 -0.0132777 -0.99967 
-0.0204239 -0.020095 -0.999589 
-0.0213617 -0.0292095 -0.999345 
-0.0186542 -0.0418295 -0.998951 
-0.0190232 -0.0542073 -0.998348 
-0.0151553 -0.0639787 -0.997836 
-0.0119862 -0.0678073 -0.997626 
-0.0103724 -0.0633555 -0.997937 
-0.000975668 -0.0030899 -0.999995 
0.000691385 -0.00316875 0.999995 
0.00702043 -0.0640442 0.997922 
0.00942859 -0.0689495 0.997576 
0.0102865 -0.0657674 0.997782 
0.0118164 -0.0563871 0.998339 
0.0128734 -0.0427817 0.999001 
0.0139009 -0.0306206 0.999434 
0.014748 -0.02125 0.999665 
0.0144824 -0.0143192 0.999793 
0.0145855 -0.00920664 0.999851 
0.0148199 -0.0053491 0.999876 
0.0137696 -0.00257034 0.999902 
0.0135988 -0.00113514 0.999907 
0.0133477 -0.000559153 0.999911 
0.0133425 -0.000110637 0.999911 
0.0130202 0.00063974 0.999915 
0.0124671 0.00147696 0.999921 
0.0129473 0.00203005 0.999914 
0.0128798 0.00245908 0.999914 
0.0130003 0.00326337 0.99991 
0.0133542 0.00480251 0.999899 
0.0136913 0.00713506 0.999881 
0.0138337 0.0101564 0.999853 
0.0134119 0.0138447 0.999814 
0.0141455 0.0188204 0.999723 
0.0145547 0.02521 0.999576 
0.0131116 0.0347746 0.999309 
0.013442 0.0478852 0.998762 
0.0107423 0.0653255 0.997806 
0.00941057 0.0919303 0.995721 
0.0065346 0.130893 0.991375 
0.00384699 0.196011 0.980594 
0.000862393 0.305225 0.95228 
-0.00119926 0.4307 0.902494 
-0.00171638 0.678541 0.734561 
0.00742489 0.827415 0.561544 
0.00891586 0.952688 0.303827 
0.00735906 0.995323 0.0963257 
0.00720546 0.997216 0.0742278 
0.00588989 0.999983 -0.000134868 
0.00489498 0.999627 -0.0268564 
0.0039723 0.998412 -0.0561912 
0.00105209 0.837601 -0.546282 
0.0030968 0.68527 -0.728282 
0.00540559 0.52043 -0.853887 
0.00316807 0.41552 -0.909578 
0.000720487 0.304035 -0.952661 
-0.0038545 0.206329 -0.978475 
-0.00639322 0.142669 -0.98975 
-0.00894772 0.0963392 -0.995308 
-0.0120804 0.0688206 -0.997556 
-0.0125888 0.0501747 -0.998661 
-0.0132738 0.0365502 -0.999244 
-0.0138661 0.0268827 -0.999542 
-0.0140648 0.019958 -0.999702 
-0.0137478 0.0148096 -0.999796 
-0.0135357 0.0109279 -0.999849 
-0.0132079 0.00779783 -0.999882 
-0.0137922 0.00538348 -0.99989 
-0.0128651 0.00365262 -0.999911 
-0.0134966 0.00269989 -0.999905 
-0.0126551 0.00215563 -0.999918 
-0.0132226 0.00165679 -0.999911 
-0.0126823 0.000941326 -0.999919 
-0.0130417 9.27561e-05 -0.999915 
-0.0127623 -0.000450068 -0.999918 
-0.0131674 -0.00108605 -0.999913 
-0.0132331 -0.00251147 -0.999909 
-0.0133535 -0.00512735 -0.999898 
-0.0153491 -0.00918653 -0.99984 
-0.0149908 -0.0146641 -0.99978 
-0.0135039 -0.0216747 -0.999674 
-0.0147577 -0.0302798 -0.999432 
-0.0126319 -0.0422465 -0.999027 
-0.0129843 -0.055262 -0.998387 
-0.0103667 -0.0658686 -0.997774 
-0.00822001 -0.0696269 -0.997539 
-0.00670454 -0.0641531 -0.997918 