# vtk DataFile Version 3.0 
Exported using Morpho https://github.com/Morpho-lang/morpho 
ASCII 
DATASET UNSTRUCTURED_GRID 

POINTS 1978 float 
-12 -3.99998 -5.14646e-08 
-11.5885 -3.99998 4.87315e-08 
-11.2888 -3.99998 1.32058e-07 
-10.9486 -3.99998 9.66334e-08 
-10.6395 -3.99998 1.10293e-08 
-10.2899 -3.99998 2.11024e-08 
-9.96827 -3.99998 1.49641e-08 
-9.66142 -3.99998 -1.13268e-08 
-9.32444 -3.99998 -9.17374e-09 
-9.00431 -3.99998 1.7625e-08 
-8.68213 -3.99998 1.95485e-08 
-8.35529 -3.99998 -4.85646e-09 
-8.04654 -3.99998 8.80461e-09 
-7.75646 -3.99998 1.07115e-08 
-7.4801 -3.99998 2.37911e-09 
-7.19478 -3.99998 -2.1161e-09 
-6.90248 -3.99998 -2.09928e-09 
-6.59815 -3.99998 4.52364e-09 
-6.29681 -3.99998 -7.07876e-09 
-5.98754 -3.99998 -9.75194e-09 
-5.68481 -3.99998 -4.32531e-09 
-5.38016 -3.99998 -1.27826e-08 
-5.07965 -3.99998 -1.5406e-08 
-4.78593 -3.99998 -2.52937e-08 
-4.44778 -3.99998 -2.58468e-08 
-4.1602 -3.99998 -3.60048e-08 
-3.85182 -3.99998 -6.18924e-08 
-3.51925 -3.99998 -4.57539e-08 
-3.21725 -3.99999 -5.68782e-08 
-2.91966 -3.99999 -5.48295e-08 
-2.63984 -3.99999 -1.80546e-08 
-2.37127 -3.99999 -1.78091e-08 
-2.09071 -3.99999 -7.80746e-09 
-1.80594 -3.99999 4.22972e-08 
-1.52474 -4 1.27114e-08 
-1.22473 -3.99999 2.52488e-08 
-0.93186 -3.99999 -2.32374e-07 
-0.608983 -3.99999 -2.06088e-07 
-0.33355 -3.99998 -5.71559e-07 
0.0145042 -3.99998 2.6198e-07 
0.328224 -3.99998 4.9779e-07 
0.612359 -3.99999 2.26877e-07 
0.926097 -3.99999 2.04925e-07 
1.19807 -4 -8.75801e-10 
1.465 -3.99999 2.95476e-09 
1.74969 -3.99999 -4.08115e-08 
2.03214 -3.99999 7.54023e-09 
2.32228 -3.99999 8.96872e-08 
2.64622 -3.99999 8.49216e-08 
2.95126 -3.99999 8.61736e-08 
3.27585 -3.99998 5.27065e-08 
3.56747 -3.99998 3.94649e-08 
3.87086 -3.99998 5.07985e-08 
4.18399 -3.99998 4.21807e-08 
4.48467 -3.99998 1.91856e-08 
4.7851 -3.99998 2.17892e-08 
5.09683 -3.99998 1.99355e-08 
5.4042 -3.99998 9.38336e-09 
5.71591 -3.99998 7.59924e-09 
6.00745 -3.99998 1.0701e-08 
6.30284 -3.99998 3.66045e-09 
6.60101 -3.99998 -1.17246e-09 
6.90073 -3.99998 5.12665e-10 
7.17537 -3.99998 -3.70327e-09 
7.47951 -3.99998 -3.31199e-09 
7.77467 -3.99998 6.335e-12 
8.07007 -3.99998 -1.18332e-08 
8.35768 -3.99998 3.63236e-09 
8.65521 -3.99998 -1.58137e-08 
8.92819 -3.99998 -1.39943e-08 
9.27854 -3.99998 -9.3894e-09 
9.60947 -3.99998 1.8959e-08 
9.89852 -3.99998 -3.32468e-08 
10.2709 -3.99998 -2.13706e-08 
10.5867 -3.99998 -2.95655e-08 
10.9792 -3.99998 -1.20545e-07 
11.2938 -3.99998 -1.07668e-07 
11.5865 -3.99998 -5.39359e-08 
12 -3.99998 4.32049e-08 
-12 -3.60322 1.22478e-07 
-11.7049 -3.71486 -1.16449e-07 
-11.3523 -3.6173 -7.34368e-08 
-11.0415 -3.66649 -7.5864e-08 
-10.7125 -3.63932 -5.68498e-08 
-10.3912 -3.67956 -5.19495e-08 
-10.055 -3.65541 -3.65481e-08 
-9.73673 -3.64272 -2.44641e-08 
-9.414 -3.67662 -1.88784e-08 
-9.07881 -3.6597 -1.25386e-08 
-8.7538 -3.66122 -8.93005e-09 
-8.42912 -3.66998 -7.33809e-09 
-8.10738 -3.65979 -6.02581e-09 
-7.795 -3.64657 -3.77514e-09 
-7.49942 -3.63658 -1.75404e-09 
-7.2066 -3.6563 -5.47329e-10 
-6.89855 -3.6619 1.07162e-09 
-6.58979 -3.6578 2.60723e-09 
-6.2747 -3.66703 4.90234e-09 
-5.96452 -3.65911 7.47784e-09 
-5.65478 -3.65892 1.0908e-08 
-5.34912 -3.65196 1.44026e-08 
-5.05422 -3.64167 1.90716e-08 
-4.72868 -3.6848 2.87267e-08 
-4.43898 -3.63561 3.15512e-08 
-4.13728 -3.66122 4.78169e-08 
-3.81525 -3.69065 6.52771e-08 
-3.51139 -3.67014 7.91577e-08 
-3.20899 -3.67713 1.07751e-07 
-2.91304 -3.67185 1.32099e-07 
-2.6363 -3.65893 1.50162e-07 
-2.35233 -3.67302 1.81261e-07 
-2.0566 -3.69216 2.23674e-07 
-1.76411 -3.68908 2.14212e-07 
-1.47177 -3.69597 1.74146e-07 
-1.17843 -3.67368 7.96702e-08 
-0.861931 -3.68602 -1.60498e-08 
-0.580621 -3.59602 -4.89711e-08 
-0.263809 -3.67966 -1.89487e-07 
0.0267201 -3.58327 -1.03317e-07 
0.302765 -3.62661 2.16241e-07 
0.601176 -3.60955 8.32204e-08 
0.890403 -3.68178 -1.74345e-08 
1.20416 -3.65745 -8.85812e-08 
1.50167 -3.68511 -1.72492e-07 
1.79682 -3.69087 -2.13621e-07 
2.09097 -3.69601 -2.23251e-07 
2.40727 -3.72438 -2.16061e-07 
2.71825 -3.69626 -1.62781e-07 
3.02902 -3.70309 -1.33513e-07 
3.32552 -3.65684 -8.95568e-08 
3.62205 -3.66314 -7.39719e-08 
3.93079 -3.66983 -5.76922e-08 
4.23149 -3.65195 -4.09465e-08 
4.53089 -3.64908 -3.16289e-08 
4.84198 -3.66304 -2.53317e-08 
5.15268 -3.66055 -1.82921e-08 
5.46648 -3.66657 -1.37777e-08 
5.76728 -3.646 -9.15199e-09 
6.06513 -3.6529 -6.55389e-09 
6.36455 -3.65576 -4.29068e-09 
6.66811 -3.65874 -2.21276e-09 
6.95109 -3.62707 -7.38208e-10 
7.25233 -3.66212 8.33945e-10 
7.55336 -3.65194 2.3549e-09 
7.85615 -3.65438 4.00614e-09 
8.15358 -3.64507 5.45297e-09 
8.44728 -3.65385 7.55093e-09 
8.73179 -3.61843 8.68535e-09 
9.05111 -3.69782 1.5308e-08 
9.38495 -3.67261 1.96065e-08 
9.68797 -3.62015 2.32876e-08 
10.022 -3.70199 4.09832e-08 
10.3485 -3.64722 4.6555e-08 
10.7148 -3.7144 7.056e-08 
11.044 -3.63936 6.62616e-08 
11.3464 -3.60807 7.34018e-08 
11.7033 -3.71833 1.19072e-07 
12 -3.60027 -1.2204e-07 
-12 -3.30091 3.48385e-08 
-11.6238 -3.36267 -4.7392e-08 
-11.2752 -3.2702 -6.71666e-09 
-10.9644 -3.31874 -5.08702e-09 
-10.6501 -3.28438 -2.24193e-09 
-10.348 -3.34393 -1.41025e-08 
-10.0295 -3.30992 -1.21734e-08 
-9.7064 -3.3042 -8.94682e-09 
-9.38969 -3.34751 -7.22815e-09 
-9.06942 -3.32488 -4.52496e-09 
-8.77251 -3.30212 -2.74901e-09 
-8.47364 -3.33388 -1.81257e-09 
-8.16386 -3.32516 -1.3875e-09 
-7.85755 -3.31476 -9.35967e-10 
-7.55392 -3.28801 9.30853e-11 
-7.25603 -3.30992 4.42317e-10 
-6.95618 -3.33573 2.57674e-10 
-6.64731 -3.32606 2.57989e-10 
-6.33575 -3.33573 1.22025e-09 
-6.02807 -3.32716 2.45723e-09 
-5.71762 -3.32392 3.50677e-09 
-5.40959 -3.31432 4.21537e-09 
-5.10524 -3.29083 4.53577e-09 
-4.80259 -3.35423 7.86596e-09 
-4.50326 -3.29335 7.75469e-09 
-4.2022 -3.31801 1.1684e-08 
-3.89798 -3.36874 1.88327e-08 
-3.59382 -3.35372 2.23566e-08 
-3.28139 -3.35635 3.12154e-08 
-2.97599 -3.35884 4.40858e-08 
-2.67185 -3.32075 5.33551e-08 
-2.38183 -3.34136 5.02002e-08 
-2.08534 -3.3832 5.26269e-08 
-1.78209 -3.38128 3.54175e-08 
-1.47092 -3.37284 3.19645e-08 
-1.14223 -3.36046 -1.96286e-09 
-0.851899 -3.30922 -3.63407e-08 
-0.558941 -3.17942 -4.55314e-08 
-0.280753 -3.30889 -1.51037e-07 
0.012715 -3.154 1.42954e-07 
0.296655 -3.17591 6.98545e-08 
0.57466 -3.20994 1.40368e-07 
0.875757 -3.31168 3.53394e-08 
1.17325 -3.336 1.27236e-08 
1.48396 -3.35815 -2.50158e-08 
1.78271 -3.37629 -4.90326e-08 
2.0778 -3.38624 -5.52863e-08 
2.37747 -3.43512 -6.22677e-08 
2.67409 -3.38437 -4.31166e-08 
2.9765 -3.39075 -4.34195e-08 
3.27026 -3.33026 -2.84554e-08 
3.57167 -3.32603 -2.24624e-08 
3.87015 -3.34078 -1.84063e-08 
4.1716 -3.31565 -1.26614e-08 
4.47275 -3.30525 -8.99342e-09 
4.77556 -3.3268 -7.0987e-09 
5.08308 -3.32708 -4.94803e-09 
5.39424 -3.33507 -4.29585e-09 
5.7008 -3.31105 -3.24795e-09 
6.01002 -3.30795 -2.36339e-09 
6.30733 -3.31445 -1.34916e-09 
6.60955 -3.3244 -5.29055e-10 
6.90782 -3.27388 -1.58022e-10 
7.20561 -3.32004 -2.53982e-10 
7.50818 -3.31321 7.73682e-11 
7.81343 -3.31895 7.72205e-10 
8.12084 -3.30487 1.48986e-09 
8.42473 -3.29844 1.98182e-09 
8.74601 -3.29582 2.37568e-09 
9.06845 -3.37592 5.15786e-09 
9.37984 -3.32562 6.87564e-09 
9.69157 -3.27232 8.56274e-09 
10.0015 -3.36988 1.45926e-08 
10.3047 -3.29469 8.88587e-09 
10.6287 -3.39757 1.27206e-08 
10.9587 -3.31621 3.45722e-09 
11.2873 -3.24249 7.82546e-09 
11.623 -3.3668 4.85313e-08 
12 -3.29106 -3.42434e-08 
-12 -2.98004 2.85753e-08 
-11.6497 -3.04948 -3.13457e-08 
-11.3049 -2.95279 -5.86484e-09 
-10.9588 -2.96466 5.66836e-10 
-10.6213 -2.9592 -3.29757e-09 
-10.2925 -2.9951 -9.23858e-09 
-9.96703 -2.97648 -1.01617e-08 
-9.63994 -2.97595 -8.75956e-09 
-9.33605 -3.00958 -6.39986e-09 
-9.03634 -2.96854 -4.56185e-09 
-8.73348 -2.95673 -3.01206e-09 
-8.4354 -2.99095 -1.84015e-09 
-8.13352 -2.98362 -1.3648e-09 
-7.83378 -2.97665 -7.95842e-10 
-7.53088 -2.95312 1.12721e-10 
-7.23218 -2.97727 4.53353e-10 
-6.93296 -3.00775 1.02866e-10 
-6.62205 -3.00172 7.45473e-11 
-6.3197 -3.00225 8.91897e-10 
-6.0124 -2.99719 2.20871e-09 
-5.70572 -2.99085 3.16223e-09 
-5.39947 -2.97929 3.57137e-09 
-5.09407 -2.95765 4.23086e-09 
-4.79615 -3.01632 5.60851e-09 
-4.48874 -2.96837 8.96514e-09 
-4.18788 -2.98787 1.243e-08 
-3.89399 -3.04424 1.61213e-08 
-3.59627 -3.02935 2.22168e-08 
-3.29907 -3.0451 2.80744e-08 
-2.98371 -3.04146 3.4044e-08 
-2.68379 -2.99104 4.49624e-08 
-2.37163 -2.99753 4.63737e-08 
-2.07553 -3.06155 3.45194e-08 
-1.76545 -3.05995 3.41983e-08 
-1.43428 -3.05695 4.77142e-09 
-1.14217 -2.97757 -3.31496e-08 
-0.843513 -2.92356 1.70241e-07 
-0.569003 -2.74942 -3.99065e-07 
-0.255269 -2.88171 1.38243e-07 
0.000176444 -2.62051 -2.41328e-07 
0.268011 -2.66846 1.61086e-07 
0.540921 -2.74553 2.62747e-08 
0.834584 -2.91501 4.20553e-08 
1.14326 -2.96743 -4.18905e-08 
1.45699 -3.00899 -4.35887e-08 
1.76744 -3.04216 -4.2826e-08 
2.07248 -3.05446 -5.2722e-08 
2.36946 -3.11974 -5.09036e-08 
2.67018 -3.05415 -4.51754e-08 
2.96198 -3.0657 -3.67923e-08 
3.26498 -3.00131 -2.98244e-08 
3.56487 -3.00154 -2.17779e-08 
3.86919 -3.01043 -1.50853e-08 
4.16744 -2.98449 -1.19744e-08 
4.46663 -2.97298 -8.86708e-09 
4.76552 -2.99262 -6.13039e-09 
5.06715 -2.99545 -4.39715e-09 
5.37228 -3.00451 -3.58407e-09 
5.67979 -2.98246 -3.20209e-09 
5.98693 -2.98283 -2.19909e-09 
6.2992 -2.97157 -1.09661e-09 
6.59361 -2.98897 -3.63112e-10 
6.91544 -2.95995 -8.50223e-11 
7.23315 -2.98436 -2.29642e-10 
7.53415 -2.97843 -2.66582e-11 
7.83718 -2.98721 8.91035e-10 
8.13645 -2.96802 1.76246e-09 
8.44362 -2.97335 2.36348e-09 
8.74562 -2.9578 2.92768e-09 
9.05265 -3.04537 3.72908e-09 
9.36392 -2.99137 6.3628e-09 
9.66476 -2.92979 8.89468e-09 
9.98538 -3.01801 9.87802e-09 
10.3147 -2.96518 1.05908e-08 
10.6423 -3.06269 1.99233e-09 
10.973 -2.9761 1.35749e-09 
11.3276 -2.92392 7.12164e-09 
11.6649 -3.04791 3.73219e-08 
12 -2.94787 -2.82517e-08 
-12 -2.66672 5.10007e-08 
-11.6427 -2.72436 -1.65509e-08 
-11.3006 -2.62876 -4.75266e-09 
-10.9611 -2.64412 3.07813e-09 
-10.6295 -2.63403 -5.18485e-10 
[...]
POINT_DATA 1978 
VECTORS vectors float
0.0046274 -0.0111302 0.999928 
0.0144697 -0.0747771 0.997095 
0.008347 -0.0715076 0.997406 
0.0088496 -0.0563622 0.998371 
0.00921787 -0.0398945 0.999162 
0.00975239 -0.0251321 0.999636 
0.00859011 -0.0161517 0.999833 
0.00913082 -0.0105959 0.999902 
0.0097877 -0.00700272 0.999927 
0.00930438 -0.00570093 0.999941 
0.0096267 -0.00537164 0.999939 
0.00931756 -0.00443501 0.999947 
0.0080765 -0.00370239 0.999962 
0.00701692 -0.00333898 0.999972 
0.00674211 -0.00208178 0.999978 
0.00731032 -0.000465703 0.999975 
0.00813584 0.000557265 0.999968 
0.00841218 0.00149221 0.999964 
0.00848576 0.00257477 0.999961 
0.00846899 0.00391771 0.999957 
0.00836404 0.00571334 0.999949 
0.00815451 0.00839549 0.999932 
0.00776476 0.0118051 0.999902 
0.00916997 0.0159461 0.999831 
0.00860664 0.0219697 0.999722 
0.00779311 0.0282038 0.999573 
0.00919573 0.0367131 0.999283 
0.00881123 0.0487975 0.99877 
0.0076129 0.0647067 0.997877 
0.00658241 0.0872895 0.996163 
0.00535954 0.116705 0.993155 
0.00517491 0.15482 0.987932 
0.0050531 0.211317 0.977406 
0.00432412 0.284146 0.958773 
0.00359532 0.379093 0.925353 
0.00263606 0.507284 0.861776 
0.00153324 0.653389 0.757022 
0.00047986 0.821881 0.56966 
6.60053e-05 0.94033 0.340265 
5.80611e-05 0.999884 -0.015207 
1.10272e-05 0.941181 -0.337902 
-0.000505489 0.81917 -0.573551 
-0.00127911 0.655933 -0.754819 
-0.0019789 0.520372 -0.853938 
-0.00313019 0.401063 -0.916046 
-0.0041444 0.299531 -0.954079 
-0.00515769 0.223597 -0.97467 
-0.00694286 0.164762 -0.98631 
-0.00774235 0.117349 -0.993061 
-0.00831824 0.0857776 -0.99628 
-0.00793826 0.0627541 -0.997998 
-0.00760747 0.0479919 -0.99882 
-0.00836131 0.0368538 -0.999286 
-0.00831735 0.0279571 -0.999575 
-0.00796305 0.0210651 -0.999747 
-0.00839245 0.0158388 -0.99984 
-0.00864485 0.0116869 -0.999895 
-0.00873158 0.00825969 -0.999928 
-0.00814743 0.00571494 -0.999951 
-0.00766509 0.0040636 -0.999964 
-0.00796554 0.00263632 -0.999966 
-0.00810858 0.00134844 -0.999967 
-0.00720694 0.000325974 -0.999976 
-0.00750541 -0.000523962 -0.999973 
-0.00814331 -0.00156757 -0.999966 
-0.00786033 -0.00278936 -0.999966 
-0.00759673 -0.00379857 -0.999965 
-0.00761743 -0.00483222 -0.999961 
-0.00700442 -0.00596073 -0.99996 
-0.00894958 -0.00679775 -0.999937 
-0.010589 -0.0082698 -0.999909 
-0.00844423 -0.0112469 -0.999902 
-0.00962835 -0.016072 -0.999824 
-0.010048 -0.0252533 -0.99963 
-0.0106548 -0.0374538 -0.999242 
-0.0102461 -0.058445 -0.998238 
-0.00739079 -0.071223 -0.997435 
-0.0143393 -0.0745329 -0.997115 
-0.00477494 -0.0110768 -0.999928 
-0.00966861 -0.0120074 0.999883 
0.0359305 -0.0635197 0.997334 
0.0412717 -0.0645821 0.99706 
0.0407492 -0.0563654 0.99758 
0.0428508 -0.0433234 0.998143 
0.0439383 -0.0307228 0.998563 
0.0461998 -0.0202866 0.998728 
0.0476831 -0.0133429 0.998775 
0.0480376 -0.00885227 0.998807 
0.049357 -0.00649608 0.998761 
0.0498629 -0.00527384 0.998744 
0.0502198 -0.00432276 0.99873 
0.050667 -0.00340907 0.998711 
0.0507208 -0.00269402 0.99871 
0.0508634 -0.00178902 0.998705 
0.0507044 -0.000645113 0.998715 
0.050729 0.000529679 0.998714 
0.0507831 0.00162971 0.99871 
0.050235 0.00275566 0.998735 
0.0503853 0.00409498 0.998723 
0.0501663 0.00600343 0.998724 
0.0500903 0.00868071 0.998708 
0.0503052 0.0120493 0.998662 
0.0483414 0.0166268 0.998694 
0.0499584 0.0215607 0.99852 
0.0487714 0.0283563 0.998409 
0.0471415 0.0377688 0.998175 
0.0470239 0.049737 0.997656 
0.0450721 0.0665209 0.996768 
0.0426532 0.0898779 0.99504 
0.0394925 0.120841 0.991887 
0.0348399 0.163436 0.98594 
0.0297268 0.222822 0.974407 
0.0240758 0.302417 0.952873 
0.0177645 0.406506 0.913477 
0.0112699 0.53307 0.845998 
0.00504914 0.691166 0.72268 
0.000976107 0.836036 0.548674 
-0.000767571 0.961157 0.276 
-0.00121101 0.999777 -0.0210565 
-0.0012513 0.952579 -0.304288 
-0.00389284 0.829255 -0.558857 
-0.00783215 0.677302 -0.735665 
-0.0136818 0.518258 -0.855117 
-0.0196696 0.390171 -0.920534 
-0.0260955 0.289708 -0.956761 
-0.031957 0.213479 -0.976426 
-0.0364039 0.153478 -0.987482 
-0.0407666 0.111083 -0.992976 
-0.0431914 0.0810129 -0.995778 
-0.0460112 0.0604407 -0.997112 
-0.0471684 0.0457754 -0.997839 
-0.0478272 0.034569 -0.998259 
-0.0488766 0.0262721 -0.998461 
-0.0493864 0.0198854 -0.998583 
-0.0494464 0.0148152 -0.998668 
-0.0499788 0.0108768 -0.998692 
-0.0499866 0.00769409 -0.998721 
-0.0507441 0.00538637 -0.998698 
-0.0505999 0.00370735 -0.998713 
-0.0507521 0.00240365 -0.99871 
-0.0505967 0.00129933 -0.998719 
-0.0518392 0.00033266 -0.998657 
-0.0506894 -0.000695296 -0.998715 
-0.0511789 -0.00166105 -0.998689 
-0.0510125 -0.00266754 -0.998696 
-0.0513414 -0.00366089 -0.998676 
-0.0508817 -0.00477426 -0.998694 
-0.051684 -0.00589327 -0.998648 
-0.0488962 -0.00741261 -0.998777 
-0.048688 -0.00970821 -0.998768 
-0.0487128 -0.0136763 -0.998721 
-0.0451842 -0.0200485 -0.998779 
-0.0447634 -0.0297683 -0.998556 
-0.0410428 -0.0437184 -0.998202 
-0.0414034 -0.0559749 -0.997575 
-0.0413843 -0.064018 -0.997092 
-0.0359724 -0.0635044 -0.997333 
0.0100385 -0.0121805 -0.999877 
-0.0106486 -0.0126267 0.999862 
0.0364987 -0.0619068 0.997416 
0.0385553 -0.0596847 0.997474 
0.0413856 -0.0536164 0.997705 
0.0432908 -0.0433513 0.998123 
0.0464829 -0.0314509 0.998426 
0.0486298 -0.0216993 0.998583 
0.0505341 -0.0145316 0.998618 
0.0519525 -0.00968396 0.998604 
0.0530975 -0.00696351 0.998567 
0.0539945 -0.00538569 0.998528 
0.0545839 -0.00419486 0.998502 
0.0546101 -0.00315408 0.998504 
0.0546188 -0.00232323 0.998506 
0.0543056 -0.0015259 0.998525 
0.0546079 -0.000624733 0.998509 
0.0549789 0.000463838 0.998489 
0.0545425 0.00157871 0.998512 
0.0543335 0.00259374 0.998521 
0.0541104 0.00376039 0.998529 
0.0539888 0.00548686 0.998528 
0.0537221 0.00795963 0.998526 
0.0531805 0.0111357 0.998525 
0.0535558 0.0151877 0.998451 
0.0526029 0.0199081 0.998419 
0.0523117 0.0262904 0.998286 
0.051841 0.0348163 0.99805 
0.0500274 0.0461457 0.997683 
0.0481383 0.0628876 0.996861 
0.0451546 0.085722 0.995297 
0.0402082 0.117524 0.992258 
0.0351721 0.161629 0.986227 
0.0299017 0.222122 0.974562 
0.0231838 0.303305 0.952613 
0.0161328 0.410763 0.911602 
0.00911998 0.554281 0.832282 
0.00354684 0.701621 0.712544 
-0.000825967 0.850599 0.525816 
-0.00188726 0.956762 0.290866 
-0.0036042 0.999948 -0.00950375 
-0.00414162 0.954894 -0.296916 
-0.00563019 0.843254 -0.537488 
-0.00866305 0.687845 -0.725808 
-0.0131382 0.536596 -0.843739 
-0.0189518 0.401939 -0.915472 
-0.0253201 0.298058 -0.954214 
-0.0315827 0.220256 -0.974933 
-0.0376519 0.161456 -0.986163 
-0.0415944 0.118692 -0.992061 
-0.0454142 0.0865767 -0.995211 
-0.0476051 0.0645236 -0.996782 
-0.0497265 0.0481842 -0.997602 
-0.0514174 0.0364282 -0.998014 
-0.0519892 0.0273755 -0.998274 
-0.0524499 0.0206277 -0.998412 
-0.0532673 0.0155897 -0.99846 
-0.0536872 0.011548 -0.998493 
-0.054231 0.00827567 -0.998495 
-0.0539592 0.00572974 -0.998528 
-0.0541986 0.00394541 -0.998524 
-0.0544363 0.00271933 -0.998515 
-0.0548792 0.00169918 -0.998493 
-0.0545421 0.000726136 -0.998513 
-0.0551949 -0.000310421 -0.998477 
-0.0549561 -0.00122933 -0.99849 
-0.0550084 -0.00210295 -0.998485 
-0.0549819 -0.00304273 -0.998484 
-0.0546933 -0.00422853 -0.998496 
-0.0543286 -0.00583068 -0.998508 
-0.053924 -0.00775655 -0.998516 
-0.0525652 -0.010571 -0.998563 
-0.0506201 -0.0151281 -0.998605 
-0.0493216 -0.0212168 -0.998559 
-0.0463809 -0.0307777 -0.998451 
-0.0448123 -0.0419315 -0.998116 
-0.0413239 -0.0528872 -0.997747 
-0.0382287 -0.059301 -0.99751 
-0.0366375 -0.061981 -0.997406 
0.0116406 -0.0137114 -0.999837 
-0.00811284 -0.0118693 0.999897 
0.0293998 -0.0601193 0.997759 
0.0334115 -0.0607281 0.997597 
0.0368932 -0.0552848 0.99779 
0.0401329 -0.0450398 0.99818 
0.0436435 -0.0323169 0.998526 
0.046055 -0.0221689 0.998695 
0.0480742 -0.0147126 0.998737 
0.0502657 -0.0101 0.998686 
0.0507312 -0.00724568 0.998688 
0.0512992 -0.005215 0.998671 
0.052094 -0.00376725 0.998637 
0.0519533 -0.00262809 0.998648 
0.0519461 -0.00180623 0.99865 
0.0516609 -0.00108629 0.998665 
0.0518077 -0.000250725 0.998659 
0.052013 0.000778418 0.998648 
0.0517655 0.00183945 0.998659 
0.0515734 0.00274968 0.998667 
0.0513845 0.00383532 0.998673 
0.0512281 0.00550801 0.998673 
0.0510091 0.00798218 0.998668 
0.0506454 0.0111987 0.998655 
0.0509507 0.0149838 0.998591 
0.0503075 0.0199865 0.998535 
0.0497067 0.0262901 0.998419 
0.0492881 0.0346643 0.998185 
0.0477714 0.0466141 0.997771 
0.0454328 0.0626817 0.997001 
0.0414931 0.0865204 0.995388 
0.0365414 0.119535 0.992159 
0.030802 0.16666 0.985535 
0.0261416 0.228815 0.973121 
0.0198962 0.314038 0.949204 
0.0130393 0.432368 0.901605 
0.00688556 0.565638 0.824627 
0.00167773 0.716337 0.697754 
-0.0016821 0.856188 0.516663 
-0.0035899 0.967813 0.251644 
-0.00331129 0.999927 -0.0115993 
-0.00302287 0.961661 -0.274225 
-0.00344913 0.860448 -0.509528 
-0.0069226 0.71089 -0.703271 
-0.0113379 0.553372 -0.832859 
-0.0165721 0.416124 -0.909159 
-0.0223476 0.308808 -0.950864 
-0.0281617 0.224402 -0.974092 
-0.034557 0.164739 -0.985733 
-0.038483 0.121096 -0.991896 
-0.0421636 0.0887463 -0.995163 
-0.0445023 0.065688 -0.996849 
-0.0467406 0.0487883 -0.997716 
-0.0484193 0.0362814 -0.99817 
-0.0493891 0.0272961 -0.998408 
-0.0500385 0.0205852 -0.998536 
-0.0508035 0.0155411 -0.998589 
-0.0511478 0.0115541 -0.998626 
-0.0513278 0.00827756 -0.998649 
-0.0514289 0.00578103 -0.998661 
-0.0512953 0.00402284 -0.998677 
-0.0510789 0.00282467 -0.998692 
-0.0514045 0.00190581 -0.998678 
-0.0514493 0.000932876 -0.998676 
-0.0517857 -0.000119895 -0.99866 
-0.0520281 -0.000977667 -0.998647 
-0.0524295 -0.00173913 -0.998625 
-0.0522656 -0.00260443 -0.998631 
-0.0523204 -0.0039335 -0.998624 
-0.0517262 -0.00571032 -0.998647 
-0.0521288 -0.00798935 -0.99861 
-0.0502778 -0.0112364 -0.998674 
-0.0477532 -0.0160839 -0.998731 
-0.0467515 -0.0229438 -0.998645 
-0.0434667 -0.033558 -0.998493 
-0.0415985 -0.0448009 -0.998131 
-0.0373299 -0.055226 -0.997778 
-0.032873 -0.0607339 -0.997614 
-0.02909 -0.0599354 -0.99778 
0.00932005 -0.0135423 -0.999867 
-0.00687504 -0.0152965 0.999865 
0.0228862 -0.0619723 0.997817 
0.0267924 -0.0627602 0.99767 
0.0302642 -0.0577724 0.997873 
0.0333426 -0.0482523 0.99828 
0.0366755 -0.0348886 0.99872 
0.0391006 -0.0239514 0.99895 
0.0409598 -0.0162441 0.99903 
0.0423555 -0.0108803 0.999045 
0.0424118 -0.00751305 0.999074 
0.0425531 -0.00499482 0.999083 
0.0433954 -0.00318931 0.999054 
0.0431921 -0.00195529 0.999066 
0.0431575 -0.00122306 0.999069 
0.0425448 -0.0005247 0.999096 
0.0433689 0.000343121 0.999061 
0.0440381 0.00133042 0.999031 
0.0431195 0.00224014 0.999069 
0.0431039 0.00305373 0.999067 
0.0429197 0.00420024 0.999071 
0.0427813 0.00607564 0.999068 
0.0424943 0.00871897 0.99906 
0.0422713 0.0121077 0.999034 
0.0433064 0.0159837 0.998935 
0.0418378 0.0213684 0.998897 
0.0416179 0.0283637 0.998732 
0.041627 0.0373652 0.998436 
0.0395775 0.0503006 0.997951 
0.037488 0.0687436 0.996931 
0.0327472 0.0930257 0.995127 
0.0273913 0.131299 0.990966 
0.0220156 0.180866 0.983263 
0.0193675 0.241007 0.970333 
0.0137173 0.342393 0.939459 
0.00740992 0.463233 0.886208 
0.00219572 0.612909 0.790153 
-0.00020452 0.758534 0.651636 
-0.00068335 0.872341 0.488899 
-0.000862638 0.945599 0.325333 
0.000295863 0.998266 0.0588626 
-0.0013296 0.962273 -0.272083 
-0.000753392 0.853416 -0.521231 
-0.00248047 0.714637 -0.699493 
-0.00670797 0.550574 -0.834762 
-0.0118377 0.411275 -0.911437 
-0.0171686 0.301224 -0.953401 
-0.0223288 0.224869 -0.974135 
-0.0286392 0.163032 -0.986207 
-0.0308047 0.119545 -0.992353 
-0.0352981 0.0869766 -0.995587 
-0.0367048 0.0627787 -0.997354 
-0.0394064 0.0459636 -0.998167 
-0.0410536 0.0342207 -0.998572 
-0.0415687 0.0254235 -0.998814 
-0.0418156 0.0190118 -0.998946 
-0.042863 0.0143431 -0.99898 
-0.043133 0.0106013 -0.999015 
-0.0433201 0.00757482 -0.999034 
-0.0426954 0.00523808 -0.999076 
-0.0427685 0.00367918 -0.99908 
-0.0418375 0.00270867 -0.999122 
-0.0432996 0.00187333 -0.999062 
-0.0427957 0.000945 -0.999085 
-0.0429305 1.72501e-05 -0.99908 
-0.0431708 -0.000767008 -0.999069 
-0.043571 -0.00140856 -0.999051 
-0.0433921 -0.00227242 -0.999057 
-0.0434776 -0.00370519 -0.999049 
-0.0426848 -0.00574116 -0.999073 
-0.0450004 -0.00825814 -0.998954 
-0.0422159 -0.011791 -0.999041 
-0.0396089 -0.0174245 -0.999065 
-0.0400553 -0.0248893 -0.998889 
-0.0362989 -0.0360114 -0.998694 
-0.0358322 -0.0476894 -0.998221 
-0.030769 -0.0583464 -0.997824 
-0.0257293 -0.0629625 -0.997686 
-0.0225042 -0.0611004 -0.997879 
0.00581806 -0.0131637 -0.999899 
-0.00453179 -0.0156764 0.999873 
0.0144097 -0.0609365 0.998038 
0.0187557 -0.0662855 0.997626 
0.0215191 -0.062459 0.997817 
0.0237888 -0.0545729 0.998228 
0.0267017 -0.0415907 0.99878 
0.0291099 -0.0296142 0.999139 
0.0302494 -0.0202657 0.999339 
0.0315808 -0.0136916 0.999409 
0.0318017 -0.00938696 0.999452 
0.031553 -0.00602226 0.999486 
0.0319609 -0.00353424 0.999484 
0.031893 -0.00198744 0.999491 
0.0317705 -0.00112898 0.999496 
0.0318654 -0.000577613 0.999494 
0.0313567 0.00021891 0.99951 
0.0321837 0.00112857 0.999483 
0.0321745 0.00195018 0.999482 
0.0315815 0.00264837 0.999499 
0.0315716 0.00347796 0.999497 
0.0316645 0.00492083 0.999488 
0.0315872 0.00713569 0.999477 
0.0315465 0.0100665 0.999453 
0.0313015 0.0136764 0.999418 
0.0324061 0.0178602 0.999317 
0.0311444 0.0241 0.999226 
0.0306931 0.0320991 0.999015 
0.0304707 0.0422977 0.998642 
0.0289521 0.0580225 0.997897 
0.0251736 0.0774402 0.996681 
0.0215938 0.108126 0.993905 
0.0155911 0.152576 0.988171 
0.0116303 0.218385 0.975796 
0.0101028 0.293523 0.955901 
0.00462451 0.400068 0.916476 
-0.000154803 0.542277 0.840202 
-0.00228618 0.667164 0.74491 
-0.00307096 0.830825 0.556526 
-0.00233067 0.993264 0.115856 
0.000825861 0.999471 -0.0324923 
-0.00263505 0.956965 -0.290192 
-0.00264612 0.966618 -0.256211 
-0.000394248 0.794019 -0.607895 
-0.000102121 0.632653 -0.774438 
-0.00249301 0.468825 -0.88329 
-0.00831925 0.331146 -0.943545 
-0.0123986 0.236961 -0.971442 
-0.019163 0.172082 -0.984898 
-0.0198792 0.13051 -0.991249 
-0.024463 0.0952162 -0.995158 
-0.026846 0.0700516 -0.997184 
-0.0289319 0.0494575 -0.998359 
-0.0303387 0.0362299 -0.998884 
-0.0311566 0.0269359 -0.999153 
-0.0311608 0.0199874 -0.999316 
-0.0316964 0.0148936 -0.999388 
-0.0319315 0.0110959 -0.99943 
-0.0320363 0.00801441 -0.999456 
-0.0316574 0.00560534 -0.999485 
-0.0315919 0.00388237 -0.999495 
-0.0305327 0.00288557 -0.999531 
-0.0317092 0.00216855 -0.999496 
-0.0321232 0.00140589 -0.999484 
-0.0310613 0.00045565 -0.999519 
-0.0315803 -0.000345382 -0.999503 
-0.0314528 -0.000944676 -0.999506 
-0.031435 -0.00168827 -0.999506 
-0.0315727 -0.00312208 -0.999498 
-0.0309816 -0.0053283 -0.999508 
-0.0334536 -0.00851794 -0.999406 
-0.0316504 -0.0128738 -0.999418 
-0.0290285 -0.0189235 -0.999401 
-0.0303311 -0.0270409 -0.999176 
-0.0268725 -0.0391574 -0.998873 
-0.027347 -0.0510846 -0.998322 
-0.0225956 -0.0613866 -0.99786 
-0.0181488 -0.0655428 -0.997686 
-0.0159626 -0.0629335 -0.997891 
0.00352372 -0.0128754 -0.999914 
-0.00216374 -0.0122022 0.999926 
0.0106906 -0.0649986 0.99783 
0.013931 -0.0667502 0.997674 
0.0153227 -0.0630257 0.997896 
0.0174773 -0.0523584 0.998477 
0.0192734 -0.0390462 0.999053 
0.020908 -0.0274995 0.999405 
0.0216648 -0.0185291 0.999595 
0.0218319 -0.0126569 0.999683 
0.0221824 -0.00825476 0.999721 
0.0220349 -0.00471873 0.999748 
0.0215188 -0.00247397 0.999767 
0.0215521 -0.00123581 0.999769 
0.0213895 -0.000657551 0.999773 
0.0215638 -0.00010994 0.999769 
0.0208585 0.000762572 0.999784 
0.0211035 0.00158831 0.999778 
0.0214706 0.00223054 0.999769 
0.0208945 0.00279643 0.999779 
0.0212147 0.00377611 0.999769 
0.0214731 0.00552592 0.999756 
0.021563 0.00806926 0.999736 
0.0215617 0.011267 0.999706 
0.0211276 0.0151269 0.999664 
0.0226905 0.0200422 0.999543 
0.0213401 0.0274366 0.999397 
0.0205302 0.0369644 0.999107 
0.0209231 0.0503815 0.998512 
0.0171914 0.0679849 0.99754 
0.0150716 0.0957991 0.995288 
0.0106285 0.137272 0.990479 
0.0062605 0.212839 0.97707 
0.00314736 0.314345 0.949306 
-0.000240337 0.452344 0.891846 
-0.0021718 0.622363 0.782729 
-0.00248809 0.795231 0.606304 
0.00286212 0.883516 0.468396 
0.00361878 0.960369 0.278714 
-0.000441979 0.943813 0.330482 
0.00168672 0.996283 0.0861188 
0.00563239 0.998652 -0.0516064 
-0.00213788 0.953702 -0.300747 
-0.000194278 0.857736 -0.514092 
0.00353219 0.66172 -0.749745 
0.00319396 0.530116 -0.847921 
-0.000505408 0.380258 -0.924883 
-0.00400963 0.272625 -0.962114 
-0.00970112 0.183214 -0.983028 
-0.0123401 0.127093 -0.991816 
-0.0159575 0.0909567 -0.995729 
-0.0193638 0.063843 -0.997774 
-0.0200311 0.0460462 -0.99874 
-0.0209348 0.0338128 -0.99921 
-0.021653 0.0250141 -0.999454 
-0.0216466 0.0184498 -0.999597 
-0.0215736 0.0137516 -0.999674 
-0.0215367 0.010146 -0.999718 
-0.0214406 0.00725817 -0.999745 
-0.0216086 0.00492732 -0.999756 
-0.0209087 0.00347448 -0.999777 
-0.0209823 0.00259412 -0.999778 
-0.0210433 0.00206039 -0.999778 
-0.0217347 0.001367 -0.999764 
-0.0204081 0.000532538 -0.999793 
-0.021217 -0.00025706 -0.999776 
-0.0206552 -0.000794948 -0.999788 
-0.0209814 -0.00157323 -0.99978 
-0.0210449 -0.00311499 -0.999775 
-0.0206805 -0.00561072 -0.999772 
-0.0236049 -0.00879127 -0.999684 
-0.0219843 -0.0132718 -0.999672 
-0.0204284 -0.0200822 -0.999591 
-0.0213695 -0.0292179 -0.999346 
-0.0186567 -0.0419068 -0.998949 
-0.0190298 -0.0544009 -0.99834 
-0.0151496 -0.0642318 -0.997822 
-0.0119913 -0.0680746 -0.99761 
-0.0104775 -0.0645207 -0.997863 
0.00234089 -0.013434 -0.999911 
-0.00173379 -0.0134742 0.999912 
0.00710196 -0.0652933 0.997842 
0.00943869 -0.0692232 0.997558 
0.0102841 -0.0660327 0.997766 
0.0118124 -0.056587 0.998329 
0.0128739 -0.0428512 0.999 
0.0138975 -0.0306374 0.999436 
0.0147469 -0.0212531 0.999667 
0.0144776 -0.0143224 0.999794 
0.0145783 -0.00920516 0.999853 
0.0148087 -0.00534146 0.999878 
0.0137571 -0.00255564 0.999904 
0.0135779 -0.00112137 0.999909 
0.0133303 -0.000558465 0.999912 
0.0133242 -0.00011699 0.999913 
0.0130002 0.000639533 0.999917 
0.0124421 0.00148602 0.999923 
0.0129284 0.00203747 0.999916 
0.0128612 0.00245717 0.999916 
0.0129786 0.00325358 0.999912 
0.0133463 0.00479525 0.999901 
0.0136724 0.00713309 0.999883 
0.0138258 0.0101574 0.999854 
0.0133949 0.0138416 0.999816 
0.0141472 0.0188159 0.999725 
0.0145437 0.0251864 0.999578 
0.0131111 0.0347651 0.999311 
0.0134358 0.0478731 0.998765 
0.0107358 0.0653523 0.997806 
0.00939215 0.0919611 0.99572 
0.0065246 0.131009 0.991362 
0.00383012 0.196242 0.98055 
0.00083906 0.305562 0.952174 
-0.00126163 0.431534 0.902098 
-0.00154144 0.678201 0.734877 
0.00745198 0.831754 0.555094 
0.00787873 0.955633 0.294454 
0.0073621 0.995301 0.0965337 
0.00775871 0.997302 0.0729431 
0.00590327 0.999982 -0.000603065 
0.00490072 0.999632 -0.0266625 
0.0040515 0.998349 -0.0572782 
0.00122479 0.836852 -0.547429 
0.00321061 0.683323 -0.730111 
0.00543699 0.519474 -0.854471 
0.00321257 0.415705 -0.909496 
0.000740726 0.304459 -0.952528 
-0.00384705 0.206281 -0.978488 
-0.00638579 0.142626 -0.989758 
-0.00894553 0.0962249 -0.995321 
-0.0120889 0.0687482 -0.997562 
-0.0125784 0.0501535 -0.998664 
-0.0132693 0.036544 -0.999245 
-0.0138581 0.0268788 -0.999544 
-0.0140614 0.0199556 -0.999703 
-0.0137368 0.0148075 -0.999797 
-0.0135234 0.0109316 -0.99985 
-0.0131941 0.00779818 -0.999884 
-0.0137807 0.00537716 -0.999892 
-0.0128482 0.0036443 -0.999913 
-0.0134727 0.00269682 -0.999907 
-0.0126415 0.00216183 -0.999919 
-0.0132028 0.00166559 -0.999913 
-0.0126623 0.000945785 -0.999921 
-0.0130204 8.94646e-05 -0.999917 
-0.0127455 -0.000450151 -0.99992 
-0.0131486 -0.00107223 -0.999915 
-0.0132132 -0.00249455 -0.999911 
-0.013347 -0.00512084 -0.9999 
-0.0153466 -0.00919188 -0.999842 
-0.0149897 -0.0146716 -0.999782 
-0.0134978 -0.0216801 -0.999675 
-0.0147589 -0.0302901 -0.999434 
-0.0126314 -0.0423076 -0.999026 
-0.0129837 -0.0554417 -0.998379 
-0.0103629 -0.0661329 -0.997759 
-0.00822408 -0.0698951 -0.997522 
-0.0067745 -0.0654059 -0.997837 