# vtk DataFile Version 3.0 
Exported using Morpho https://github.com/Morpho-lang/morpho 
ASCII 
DATASET UNSTRUCTURED_GRID 

POINTS 1978 float 
-8.48528 -2.82843 7.76462e-13 
-8.2656 -2.82843 4.49257e-11 
-8.04231 -2.82843 3.78566e-11 
-7.76669 -2.82843 5.15199e-11 
-7.47508 -2.82843 4.57682e-11 
-7.22921 -2.82843 2.65235e-11 
-7.00194 -2.82843 2.22622e-11 
-6.77707 -2.82843 1.54984e-11 
-6.56186 -2.82843 1.3164e-11 
-6.34107 -2.82843 8.91776e-12 
-6.14349 -2.82843 7.21662e-12 
-5.92563 -2.82843 5.3807e-12 
-5.71277 -2.82843 3.91067e-12 
-5.51049 -2.82843 2.20093e-12 
-5.29446 -2.82843 1.29871e-12 
-5.08482 -2.82843 -3.53511e-13 
-4.8691 -2.82843 -1.54221e-12 
-4.6639 -2.82843 -3.603e-12 
-4.44459 -2.82843 -5.76367e-12 
-4.22793 -2.82843 -7.16604e-12 
-4.0085 -2.82843 -9.24223e-12 
-3.79815 -2.82843 -1.15584e-11 
-3.58286 -2.82843 -1.49211e-11 
-3.37149 -2.82843 -2.07364e-11 
-3.15145 -2.82843 -2.57248e-11 
-2.94149 -2.82843 -2.99532e-11 
-2.73256 -2.82843 -3.16756e-11 
-2.53633 -2.82843 -3.70323e-11 
-2.32258 -2.82843 -4.25344e-11 
-2.1152 -2.82843 -4.02999e-11 
-1.89729 -2.82843 -3.68004e-11 
-1.69288 -2.82843 -2.09342e-11 
-1.49972 -2.82843 -3.03117e-12 
-1.28204 -2.82843 -2.82308e-11 
-1.1095 -2.82843 -4.37911e-12 
-0.859317 -2.82843 -1.00369e-10 
-0.6439 -2.82843 -1.07218e-10 
-0.462027 -2.82843 -1.97808e-10 
-0.23754 -2.82843 -1.50642e-10 
0.0146626 -2.82843 -2.6706e-11 
0.242655 -2.82843 -1.02014e-10 
0.445996 -2.82843 3.73776e-10 
0.66639 -2.82843 1.82691e-10 
0.884534 -2.82843 9.56133e-11 
1.08655 -2.82843 4.26069e-11 
1.27193 -2.82843 2.15086e-11 
1.4685 -2.82843 1.50235e-11 
1.68711 -2.82843 2.51901e-12 
1.88671 -2.82843 4.41931e-11 
2.10526 -2.82843 5.1423e-11 
2.33381 -2.82843 3.68247e-11 
2.52832 -2.82843 3.82179e-11 
2.74727 -2.82843 3.94845e-11 
2.96895 -2.82843 2.96736e-11 
3.1776 -2.82843 2.27358e-11 
3.38367 -2.82843 2.0419e-11 
3.6096 -2.82843 1.47937e-11 
3.8115 -2.82843 1.08302e-11 
4.02681 -2.82843 9.60599e-12 
4.25314 -2.82843 7.29014e-12 
4.45234 -2.82843 4.59409e-12 
4.66535 -2.82843 3.56873e-12 
4.87251 -2.82843 1.47393e-12 
5.07645 -2.82843 3.36892e-13 
5.28984 -2.82843 -8.96067e-13 
5.50071 -2.82843 -2.35988e-12 
5.70341 -2.82843 -3.09537e-12 
5.92156 -2.82843 -6.42537e-12 
6.14224 -2.82843 -6.60394e-12 
6.34159 -2.82843 -1.10672e-11 
6.58083 -2.82843 -1.44512e-11 
6.79231 -2.82843 -1.06156e-11 
6.99346 -2.82843 -2.43537e-11 
7.2554 -2.82843 -3.25707e-11 
7.48773 -2.82843 -3.36809e-11 
7.73266 -2.82843 -4.96199e-11 
8.00324 -2.82843 -2.15518e-11 
8.18752 -2.82843 -6.74838e-11 
8.48528 -2.82843 -2.36467e-11 
-8.48528 -2.59842 -1.44158e-12 
-8.25618 -2.58882 6.04034e-09 
-8.02297 -2.58635 9.03278e-09 
-7.78744 -2.62564 4.2713e-09 
-7.52737 -2.64166 5.61349e-09 
-7.23718 -2.60338 5.21312e-09 
-6.99498 -2.60007 4.41019e-09 
-6.77889 -2.5875 3.66689e-09 
-6.5422 -2.60355 2.72588e-09 
-6.33296 -2.57486 2.60482e-09 
-6.10907 -2.60113 1.75216e-09 
-5.89132 -2.59236 1.41014e-09 
-5.68185 -2.57848 1.13194e-09 
-5.46436 -2.59575 6.43689e-10 
-5.24938 -2.58877 3.60033e-10 
-5.03123 -2.59579 -3.41512e-12 
-4.82097 -2.58381 -3.20362e-10 
-4.602 -2.59909 -7.55088e-10 
-4.38216 -2.59509 -1.12208e-09 
-4.16221 -2.59658 -1.58483e-09 
-3.94986 -2.58475 -2.20414e-09 
-3.73643 -2.59027 -2.91205e-09 
-3.52399 -2.58866 -3.98238e-09 
-3.30733 -2.60091 -4.81216e-09 
-3.09441 -2.59551 -6.34215e-09 
-2.88329 -2.59905 -7.30417e-09 
-2.68177 -2.59026 -8.92989e-09 
-2.47199 -2.61224 -9.67304e-09 
-2.25726 -2.6033 -9.29922e-09 
-2.04515 -2.61402 -8.33533e-09 
-1.83042 -2.59914 -7.18774e-09 
-1.62579 -2.58161 -3.73277e-09 
-1.42331 -2.60511 -3.939e-09 
-1.24477 -2.52544 2.42404e-09 
-1.01846 -2.62853 -1.34536e-08 
-0.790871 -2.57702 -2.06535e-08 
-0.600562 -2.49066 -3.51826e-09 
-0.399324 -2.51207 -2.05587e-08 
-0.178326 -2.53911 -1.35368e-08 
0.0135687 -2.45128 -7.30041e-10 
0.201379 -2.54261 4.5316e-08 
0.422002 -2.5069 1.83199e-08 
0.627839 -2.57124 3.31158e-08 
0.853531 -2.57612 2.18095e-08 
1.07479 -2.57744 -3.89103e-09 
1.27812 -2.58352 8.88578e-09 
1.48637 -2.61948 -3.5386e-09 
1.70248 -2.60083 3.48543e-09 
1.92542 -2.61854 5.91781e-09 
2.15893 -2.62643 7.70041e-09 
2.36995 -2.58961 1.07214e-08 
2.58132 -2.60983 7.92448e-09 
2.80481 -2.61047 8.18112e-09 
3.01197 -2.59182 6.65981e-09 
3.21981 -2.58644 5.47682e-09 
3.44185 -2.60668 4.11664e-09 
3.64772 -2.57859 3.46888e-09 
3.86197 -2.59338 2.4037e-09 
4.08918 -2.60521 1.77012e-09 
4.29737 -2.57528 1.46215e-09 
4.51273 -2.59377 8.22149e-10 
4.72618 -2.58789 5.27584e-10 
4.93876 -2.58627 1.48533e-10 
5.15331 -2.59704 -2.06505e-10 
5.37197 -2.59418 -4.66685e-10 
5.58302 -2.58364 -8.97855e-10 
5.79909 -2.5991 -1.27871e-09 
6.02387 -2.59938 -1.59076e-09 
6.23752 -2.57181 -2.33651e-09 
6.45733 -2.61248 -2.59846e-09 
6.68505 -2.58092 -3.34909e-09 
6.8945 -2.56491 -4.4949e-09 
7.12185 -2.62515 -4.77196e-09 
7.37307 -2.59642 -5.87284e-09 
7.61204 -2.60728 -5.98763e-09 
7.86923 -2.62852 -5.63675e-09 
8.07959 -2.53331 -8.1734e-09 
8.30198 -2.64177 -6.34262e-09 
8.48528 -2.52786 6.12919e-12 
-8.48528 -2.36185 -1.04554e-11 
-8.24114 -2.35681 4.98642e-09 
-7.99916 -2.34492 4.81952e-09 
-7.76217 -2.40508 4.8418e-09 
-7.56634 -2.25048 3.01459e-09 
-7.46617 -2.45477 6.6919e-09 
-7.17978 -2.39304 5.45669e-09 
-6.95226 -2.34914 3.39287e-09 
-6.70492 -2.37798 3.39877e-09 
-6.48574 -2.35452 2.44638e-09 
-6.24053 -2.35928 1.92072e-09 
-6.02494 -2.36346 1.47879e-09 
-5.80881 -2.34586 1.04869e-09 
-5.58009 -2.35327 7.66251e-10 
-5.36558 -2.35759 4.29063e-10 
-5.14116 -2.36143 1.4255e-10 
-4.92802 -2.34968 -1.58807e-10 
-4.70386 -2.36249 -4.48173e-10 
-4.48534 -2.3668 -8.0997e-10 
-4.26222 -2.36507 -1.20812e-09 
-4.04838 -2.34974 -1.65211e-09 
-3.83131 -2.34911 -2.23199e-09 
-3.61879 -2.35137 -2.97269e-09 
-3.40132 -2.3644 -3.87463e-09 
-3.18985 -2.36646 -4.93251e-09 
-2.97479 -2.36903 -5.93851e-09 
-2.76829 -2.35739 -6.70677e-09 
-2.55686 -2.37788 -7.77009e-09 
-2.34919 -2.39152 -8.52888e-09 
-2.1239 -2.38279 -7.88911e-09 
-1.91485 -2.38738 -6.36269e-09 
-1.69061 -2.35753 -1.14243e-09 
-1.46671 -2.35018 6.88123e-09 
-1.26579 -2.26177 -7.97055e-09 
-1.05215 -2.3941 1.92714e-08 
-0.862193 -2.31119 5.26988e-09 
-0.644037 -2.22989 4.5992e-10 
-0.415299 -2.1822 1.28022e-08 
-0.202171 -2.20337 4.1125e-09 
0.0449645 -2.15459 -2.82052e-08 
0.274471 -2.23226 -5.77278e-08 
0.46092 -2.12157 7.05192e-09 
0.619307 -2.27849 4.00568e-08 
0.826239 -2.31199 -2.48416e-08 
1.05011 -2.32862 -9.14773e-09 
1.26812 -2.32808 -1.78486e-08 
1.47486 -2.40348 -2.36012e-09 
1.66759 -2.35577 4.13689e-09 
1.87141 -2.39523 7.63148e-09 
2.08532 -2.41696 9.90857e-09 
2.29841 -2.38115 8.23665e-09 
2.52946 -2.37428 8.05651e-09 
2.73672 -2.39429 7.21658e-09 
2.94945 -2.35661 6.19279e-09 
3.15382 -2.35007 4.88198e-09 
3.37222 -2.37488 4.14129e-09 
3.57749 -2.34172 3.00318e-09 
3.79138 -2.35142 2.34467e-09 
4.00793 -2.37664 1.83365e-09 
4.2173 -2.34125 1.19534e-09 
4.4387 -2.35223 8.55674e-10 
4.64883 -2.35116 5.16824e-10 
4.86268 -2.35115 2.26406e-10 
5.07989 -2.35757 -2.14777e-11 
5.29234 -2.36657 -3.30884e-10 
5.50838 -2.34891 -5.98845e-10 
5.72719 -2.35983 -9.26974e-10 
5.94375 -2.37249 -1.34837e-09 
6.16001 -2.34206 -1.64616e-09 
6.39363 -2.36338 -2.15999e-09 
6.60309 -2.36232 -2.77045e-09 
6.82917 -2.31656 -2.95798e-09 
7.06028 -2.37303 -4.1801e-09 
7.27999 -2.3943 -5.26243e-09 
7.54172 -2.37558 -4.91293e-09 
7.78522 -2.40902 -5.19095e-09 
7.99895 -2.31147 -3.61855e-09 
8.26092 -2.37104 -4.92245e-09 
8.48528 -2.28464 6.06037e-12 
-8.48528 -2.10644 -7.59481e-12 
-8.26258 -2.11092 2.17603e-09 
-8.04923 -2.1044 9.9019e-10 
-7.80017 -2.15473 1.41989e-09 
-7.51572 -2.0355 1.26948e-09 
-7.31062 -2.22796 2.85888e-09 
-7.0672 -2.13248 2.05937e-09 
-6.80559 -2.14805 1.61895e-09 
-6.59036 -2.12699 1.42839e-09 
-6.3507 -2.14624 1.12179e-09 
-6.12152 -2.1178 8.56997e-10 
-5.91487 -2.11456 6.36827e-10 
-5.68816 -2.12588 4.51795e-10 
-5.4673 -2.1156 2.42232e-10 
-5.25084 -2.13183 9.39587e-11 
-5.0376 -2.11662 -5.34356e-11 
-4.81442 -2.1288 -1.83581e-10 
-4.59692 -2.13228 -3.39742e-10 
-4.37887 -2.13707 -5.34666e-10 
-4.16739 -2.11884 -7.38962e-10 
-3.95146 -2.11403 -1.0442e-09 
-3.73835 -2.11203 -1.40879e-09 
-3.52324 -2.12549 -1.88057e-09 
-3.31369 -2.13022 -2.37106e-09 
-3.1018 -2.13906 -2.95213e-09 
-2.89544 -2.1305 -3.34497e-09 
-2.6802 -2.136 -3.97564e-09 
-2.47389 -2.15104 -4.44282e-09 
-2.26157 -2.17412 -5.26457e-09 
-2.04073 -2.14577 -4.03482e-09 
-1.82837 -2.15954 -1.79359e-09 
-1.59571 -2.12944 1.1986e-09 
-1.39756 -2.05921 1.84691e-08 
-1.17566 -1.93328 -6.14799e-09 
-1.07308 -2.12313 2.91691e-08 
-0.8382 -2.04882 -3.65505e-08 
-0.593599 -1.94775 4.93019e-08 
-0.339714 -1.88092 6.63735e-09 
-0.0975672 -1.90329 4.96456e-09 
0.0634013 -1.64369 1.42588e-08 
0.19991 -1.89777 7.14898e-09 
0.303639 -1.59778 -1.28443e-08 
0.47115 -1.86704 -1.45632e-08 
0.736767 -1.984 -8.73656e-08 
0.956029 -2.06219 1.62676e-08 
1.18382 -2.07711 -6.57852e-09 
1.44192 -2.16124 -4.43909e-09 
1.67329 -2.13105 1.08734e-09 
1.89846 -2.15983 3.53605e-10 
2.10812 -2.18857 4.25739e-09 
2.35217 -2.17728 4.98257e-09 
2.57308 -2.14271 3.92087e-09 
2.77667 -2.15765 4.96229e-09 
2.98473 -2.11124 2.93068e-09 
3.20696 -2.13154 2.74406e-09 
3.40732 -2.1259 2.15458e-09 
3.62397 -2.1082 1.55484e-09 
3.84159 -2.12494 1.25026e-09 
4.04412 -2.12849 9.12088e-10 
4.27232 -2.11551 5.87013e-10 
4.48283 -2.11137 3.79933e-10 
4.69776 -2.11492 2.26171e-10 
4.91539 -2.12151 1.11741e-10 
5.13003 -2.12202 -1.89666e-11 
5.34169 -2.13082 -1.68953e-10 
5.56581 -2.12099 -3.21529e-10 
5.78314 -2.1285 -5.17389e-10 
5.99391 -2.12949 -7.25477e-10 
6.23514 -2.12801 -9.54604e-10 
6.44576 -2.11221 -1.14244e-09 
6.65918 -2.11769 -1.42752e-09 
6.918 -2.10731 -1.67624e-09 
7.13538 -2.1357 -2.25309e-09 
7.36837 -2.18164 -2.82812e-09 
7.56108 -2.08539 -1.33719e-09 
7.74258 -2.17736 -1.76093e-09 
7.95733 -2.07816 -1.31187e-10 
8.205 -2.14828 -1.34586e-09 
8.48528 -2.08853 7.03655e-12 
-8.48528 -1.81271 -5.86215e-12 
-8.30394 -1.86543 1.45787e-09 
-7.89005 -1.91279 -6.98364e-10 
[...]
POINT_DATA 1978 
VECTORS vectors float
0.00116338 -0.00181937 0.999998 
0.00129723 -0.0652113 0.997871 
0.00102795 -0.0780991 0.996945 
0.00117196 -0.0674603 0.997721 
0.00113532 -0.0515012 0.998672 
0.00103638 -0.0395748 0.999216 
0.00107962 -0.0314141 0.999506 
0.00101497 -0.0242043 0.999707 
0.0010845 -0.0183352 0.999831 
0.0010597 -0.013967 0.999902 
0.0010987 -0.0109791 0.999939 
0.0010809 -0.00805482 0.999967 
0.00109165 -0.00527254 0.999985 
0.00110993 -0.0033364 0.999994 
0.00110818 -0.00175466 0.999998 
0.00111848 -0.000283721 0.999999 
0.0011125 0.00121412 0.999999 
0.00112082 0.00273158 0.999996 
0.00111066 0.00471785 0.999988 
0.00110648 0.0072409 0.999973 
0.0010885 0.0103314 0.999946 
0.00107199 0.0140621 0.999901 
0.00105096 0.0191501 0.999816 
0.0010235 0.026016 0.999661 
0.000984013 0.0359914 0.999352 
0.000932587 0.0488956 0.998803 
0.000868547 0.0660914 0.997813 
0.000795986 0.0872025 0.99619 
0.000691892 0.117048 0.993126 
0.000564604 0.154972 0.987919 
0.000419495 0.205671 0.978621 
0.00024012 0.265523 0.964105 
2.22058e-05 0.337198 0.941434 
-0.00016972 0.434525 0.90066 
-0.00039391 0.526768 0.850009 
-0.000469609 0.664244 0.747516 
-0.00056391 0.785481 0.618886 
-0.000493573 0.876664 0.481102 
-0.000313744 0.965134 0.261757 
1.66962e-06 0.999658 -0.0261495 
0.000305873 0.964667 -0.263472 
0.0004667 0.889604 -0.456732 
0.000554471 0.781905 -0.623397 
0.000546691 0.65057 -0.759447 
0.000367117 0.533491 -0.845805 
0.000151549 0.437763 -0.89909 
-1.8989e-05 0.353315 -0.935505 
-0.000194578 0.265855 -0.964013 
-0.000444954 0.208042 -0.97812 
-0.000571367 0.157697 -0.987487 
-0.00069145 0.116018 -0.993247 
-0.000799486 0.0886695 -0.996061 
-0.000874877 0.0648032 -0.997898 
-0.000936555 0.0466868 -0.998909 
-0.000984776 0.0342004 -0.999414 
-0.00103479 0.0253792 -0.999677 
-0.00104435 0.0183017 -0.999832 
-0.00108048 0.0136434 -0.999906 
-0.00109196 0.00996772 -0.99995 
-0.00109274 0.00678765 -0.999976 
-0.00111171 0.00468827 -0.999988 
-0.00110089 0.00285632 -0.999995 
-0.00111303 0.00120558 -0.999999 
-0.00111382 -0.000194203 -0.999999 
-0.00111094 -0.00171133 -0.999998 
-0.00111032 -0.00327487 -0.999994 
-0.00110625 -0.0049695 -0.999987 
-0.00109367 -0.00745311 -0.999972 
-0.00108995 -0.0105421 -0.999944 
-0.00107598 -0.0139896 -0.999902 
-0.00106028 -0.0194193 -0.999811 
-0.00105568 -0.024818 -0.999691 
-0.00105457 -0.0308581 -0.999523 
-0.00106229 -0.0408978 -0.999163 
-0.00103767 -0.0518844 -0.998653 
-0.00107902 -0.0656137 -0.997845 
-0.00101168 -0.0785715 -0.996908 
-0.00109185 -0.0712944 -0.997455 
-0.00124088 -0.0012633 -0.999998 
0.000938076 -0.000636084 0.999999 
0.0225717 -0.052307 0.998376 
0.0326139 -0.0700155 0.997013 
0.0300845 -0.0674231 0.997271 
0.0303685 -0.054759 0.998038 
0.0353253 -0.0413141 0.998522 
0.0396774 -0.0321482 0.998695 
0.0404829 -0.0252309 0.998862 
0.0411398 -0.0190505 0.998972 
0.0457064 -0.0148078 0.998845 
0.0430569 -0.0110411 0.999012 
0.0447747 -0.00806013 0.998965 
0.0473847 -0.00560326 0.998861 
0.0455807 -0.00345791 0.998955 
0.0470593 -0.00171387 0.998891 
0.0462506 4.41848e-06 0.99893 
0.0480434 0.00171804 0.998844 
0.0455261 0.0036626 0.998956 
0.0456263 0.00601679 0.99894 
0.0447307 0.00888269 0.99896 
0.0453804 0.0123884 0.998893 
0.0435612 0.016836 0.998909 
0.0427078 0.0228449 0.998826 
0.0395146 0.0310628 0.998736 
0.0385689 0.042369 0.998357 
0.0357164 0.0572431 0.997721 
0.0337849 0.0762561 0.996516 
0.027924 0.100864 0.994508 
0.0236367 0.134695 0.990605 
0.0174173 0.177306 0.984002 
0.0119508 0.232842 0.972441 
0.00556791 0.299182 0.95418 
-0.00111719 0.379293 0.925276 
-0.0072814 0.467917 0.883742 
-0.0100225 0.58471 0.811181 
-0.0136009 0.709488 0.704586 
-0.0156455 0.812491 0.582763 
-0.0114554 0.907247 0.420441 
-0.00545859 0.979841 0.199705 
0.000169799 0.999915 -0.013004 
0.0057887 0.974099 -0.226048 
0.0106068 0.903862 -0.427693 
0.0118099 0.806754 -0.590769 
0.0118722 0.678806 -0.734221 
0.00970144 0.551301 -0.83425 
0.00529379 0.44645 -0.894793 
-0.00100698 0.347054 -0.937845 
-0.00808972 0.269831 -0.962874 
-0.0137949 0.205541 -0.978551 
-0.0195544 0.152588 -0.988096 
-0.0275696 0.117276 -0.992717 
-0.0292843 0.0874005 -0.995743 
-0.0332262 0.0637341 -0.997414 
-0.0376132 0.0473849 -0.998168 
-0.0405542 0.0352174 -0.998556 
-0.0398703 0.025377 -0.998883 
-0.0447008 0.0190998 -0.998818 
-0.0438056 0.0139565 -0.998943 
-0.0431818 0.00987843 -0.999018 
-0.048096 0.00711141 -0.998817 
-0.0461349 0.00463523 -0.998924 
-0.0473062 0.00259284 -0.998877 
-0.0479867 0.000761447 -0.998848 
-0.0461524 -0.000960359 -0.998934 
-0.0464653 -0.00272616 -0.998916 
-0.0474263 -0.00457852 -0.998864 
-0.0444091 -0.00671095 -0.998991 
-0.0435894 -0.00955179 -0.999004 
-0.046283 -0.013041 -0.998843 
-0.0397088 -0.017191 -0.999063 
-0.0429441 -0.0227838 -0.998818 
-0.0434732 -0.02883 -0.998639 
-0.0346671 -0.0363499 -0.998738 
-0.0368273 -0.0472132 -0.998206 
-0.0338684 -0.0589654 -0.997685 
-0.0302618 -0.0703684 -0.997062 
-0.0351385 -0.0671399 -0.997125 
-0.0164953 -0.0455329 -0.998827 
-0.000427193 -0.000948739 -0.999999 
0.000741839 -0.00124001 0.999999 
0.0311293 -0.0511961 0.998203 
0.0446816 -0.0686248 0.996641 
0.0464149 -0.065535 0.99677 
0.052193 -0.0587521 0.996907 
0.0479286 -0.0521457 0.997489 
0.053213 -0.040073 0.997779 
0.056729 -0.0318289 0.997882 
0.0574821 -0.0242797 0.998051 
0.0600508 -0.0188771 0.998017 
0.0614983 -0.0140394 0.998008 
0.0623955 -0.0106143 0.997995 
0.0637379 -0.00782193 0.997936 
0.0645187 -0.00525932 0.997903 
0.0651396 -0.00318172 0.997871 
0.0655772 -0.00113682 0.997847 
0.066174 0.000836397 0.997808 
0.065639 0.00307133 0.997839 
0.0649386 0.00550521 0.997874 
0.0640286 0.00841559 0.997913 
0.0632335 0.0118815 0.997928 
0.0616764 0.0162748 0.997963 
0.0598607 0.0219741 0.997965 
0.0573263 0.029798 0.997911 
0.0547347 0.0402369 0.99769 
0.0513701 0.0545189 0.99719 
0.0476189 0.0728908 0.996202 
0.0422123 0.0964666 0.994441 
0.0358368 0.126079 0.991373 
0.0279813 0.168245 0.985348 
0.0196675 0.218135 0.97572 
0.0100135 0.287422 0.957752 
0.000430497 0.37043 0.92886 
-0.00716578 0.463473 0.886082 
-0.0135165 0.568606 0.822499 
-0.0169747 0.67977 0.733228 
-0.0169642 0.798586 0.601642 
-0.0134755 0.903737 0.427877 
-0.00819743 0.972956 0.230845 
-0.00125167 0.999763 -0.0217432 
0.00616616 0.964617 -0.263583 
0.0102604 0.888357 -0.459039 
0.0142057 0.801012 -0.598479 
0.0149833 0.687363 -0.726159 
0.0123669 0.564985 -0.825009 
0.00656575 0.456665 -0.889614 
-0.00107217 0.363774 -0.931487 
-0.00918802 0.295199 -0.955392 
-0.0180184 0.229077 -0.973241 
-0.0262304 0.175958 -0.984048 
-0.0342258 0.135791 -0.990146 
-0.0410413 0.100374 -0.994103 
-0.0458641 0.0751925 -0.996114 
-0.0510858 0.0562132 -0.997111 
-0.0546644 0.0422611 -0.99761 
-0.05685 0.0307326 -0.99791 
-0.0599568 0.0233212 -0.997929 
-0.0615204 0.0172042 -0.997958 
-0.0622203 0.0124752 -0.997984 
-0.0645824 0.00922672 -0.99787 
-0.0652375 0.00618724 -0.997851 
-0.065916 0.00374554 -0.997818 
-0.0663301 0.00151097 -0.997797 
-0.0660788 -0.000598604 -0.997814 
-0.0654787 -0.00254682 -0.997851 
-0.0653544 -0.00462721 -0.997851 
-0.0641039 -0.00684338 -0.99792 
-0.0626032 -0.0094009 -0.997994 
-0.0623879 -0.0127402 -0.997971 
-0.0602821 -0.016958 -0.998037 
-0.0590148 -0.0216969 -0.998021 
-0.0583556 -0.0281635 -0.997899 
-0.0552832 -0.0355556 -0.997837 
-0.0527808 -0.0443135 -0.997622 
-0.0504041 -0.0566488 -0.997121 
-0.0470364 -0.0670138 -0.996643 
-0.0454212 -0.0687061 -0.996602 
-0.0291178 -0.0472113 -0.99846 
-0.00102457 -0.00105552 -0.999999 
0.000891036 -0.00126425 0.999999 
0.0267797 -0.0464965 0.998559 
0.0409233 -0.0671791 0.996901 
0.0478037 -0.0676743 0.996562 
0.0489412 -0.0582098 0.997104 
0.0545584 -0.047115 0.997398 
0.055291 -0.037561 0.997764 
0.0577282 -0.0283585 0.997929 
0.0591398 -0.0225442 0.997995 
0.0609852 -0.017088 0.997992 
0.0615438 -0.0131428 0.998018 
0.0624236 -0.0101334 0.997998 
0.0636818 -0.00730114 0.997944 
0.064269 -0.00494017 0.99792 
0.0653698 -0.00265026 0.997858 
0.0654178 -0.000429452 0.997858 
0.0658126 0.00207595 0.99783 
0.0655889 0.00469548 0.997836 
0.0649318 0.00760194 0.997861 
0.0633796 0.0109445 0.997929 
0.0617462 0.0150646 0.997978 
0.0598919 0.0203203 0.997998 
0.058035 0.027347 0.99794 
0.0555669 0.0366675 0.997781 
0.0526443 0.0492376 0.997399 
0.0487222 0.0656461 0.996653 
0.0440498 0.0875521 0.995186 
0.0387399 0.114268 0.992694 
0.0323732 0.148477 0.988386 
0.023733 0.195936 0.98033 
0.0151249 0.253381 0.967248 
0.00485463 0.334997 0.942207 
-0.00285356 0.417411 0.908713 
-0.00895844 0.525511 0.85074 
-0.0125013 0.56703 0.823602 
-0.0151653 0.69596 0.717921 
-0.0134594 0.823005 0.567875 
-0.0098527 0.927246 0.374323 
-0.00513421 0.992372 0.123173 
-0.00059592 0.996895 -0.078739 
0.00244503 0.974878 -0.222726 
0.00411537 0.943639 -0.330951 
0.00878439 0.868784 -0.495114 
0.0122464 0.736803 -0.675996 
0.0123697 0.622167 -0.782787 
0.00837649 0.507267 -0.861748 
0.000386252 0.388268 -0.921546 
-0.0084849 0.304561 -0.952455 
-0.0176855 0.235985 -0.971596 
-0.0265734 0.180124 -0.983285 
-0.0352497 0.13261 -0.990541 
-0.0412972 0.100332 -0.994097 
-0.0469595 0.0757375 -0.996021 
-0.050027 0.0578925 -0.997069 
-0.054332 0.0422273 -0.99763 
-0.0568591 0.031963 -0.99787 
-0.0588512 0.0237866 -0.997983 
-0.0612971 0.017503 -0.997966 
-0.0628061 0.0131616 -0.997939 
-0.0639337 0.00932805 -0.997911 
-0.0646771 0.00632104 -0.997886 
-0.0653418 0.00356261 -0.997857 
-0.0657767 0.000977085 -0.997834 
-0.0655806 -0.0013901 -0.997846 
-0.0653227 -0.00359979 -0.997858 
-0.0643244 -0.0060055 -0.997911 
-0.0635221 -0.00844476 -0.997945 
-0.0624699 -0.0111951 -0.997984 
-0.061242 -0.0150578 -0.998009 
-0.0595323 -0.0193104 -0.99804 
-0.058285 -0.0244395 -0.998001 
-0.0562394 -0.0322611 -0.997896 
-0.0550599 -0.0401147 -0.997677 
-0.0538671 -0.0501131 -0.99729 
-0.049999 -0.0600571 -0.996942 
-0.0494739 -0.0668347 -0.996537 
-0.0437433 -0.0706729 -0.99654 
-0.0336976 -0.0548727 -0.997925 
-0.00108484 -0.000936012 -0.999999 
0.000624231 -0.00139408 0.999999 
0.01989 -0.0432218 0.998868 
0.0399699 -0.0719149 0.99661 
0.0427063 -0.066356 0.996882 
0.0409428 -0.0558699 0.997598 
0.0498971 -0.0475142 0.997624 
0.0450534 -0.0423871 0.998085 
0.0508856 -0.03393 0.998128 
0.0500477 -0.0271272 0.998378 
0.0531192 -0.0210793 0.998366 
0.0536736 -0.0165394 0.998422 
0.0527554 -0.0130751 0.998522 
0.0549339 -0.00988701 0.998441 
0.0558627 -0.00720809 0.998412 
0.0564089 -0.00461823 0.998397 
0.0569572 -0.00219852 0.998374 
0.0576177 0.000586961 0.998339 
0.0576215 0.00343537 0.998333 
0.0574268 0.00644508 0.998329 
0.056081 0.00965063 0.99838 
0.0545932 0.0134552 0.998418 
0.0528991 0.018141 0.998435 
0.051384 0.0242758 0.998384 
0.0494523 0.0322482 0.998256 
0.0472232 0.0429868 0.997959 
0.0441566 0.0569144 0.997402 
0.0404977 0.0756736 0.99631 
0.035855 0.099626 0.994379 
0.0311096 0.129468 0.991095 
0.025318 0.167571 0.985535 
0.0168864 0.223315 0.9746 
0.00949663 0.287786 0.957648 
0.0018488 0.363689 0.931519 
-0.00443506 0.457144 0.889382 
-0.0120063 0.652616 0.757594 
-0.0112914 0.761517 0.648047 
-0.00904699 0.878337 0.477957 
-0.00582703 0.937628 0.347592 
-0.00552587 0.976115 0.217184 
-0.00198099 0.999793 0.0202423 
0.00104095 0.972869 -0.231353 
0.00468588 0.880137 -0.474697 
0.00862904 0.805723 -0.59223 
0.009711 0.688384 -0.725281 
0.00861118 0.578774 -0.815443 
0.00491921 0.482962 -0.875627 
0.00206914 0.41664 -0.909069 
-0.00347569 0.348163 -0.937428 
-0.011185 0.270704 -0.962598 
-0.0193478 0.208798 -0.977767 
-0.0273842 0.15854 -0.986973 
-0.032967 0.120366 -0.992182 
-0.0381254 0.0888126 -0.995318 
-0.0414177 0.06895 -0.99676 
-0.0458347 0.0499542 -0.997699 
-0.0479197 0.0375802 -0.998144 
-0.0503185 0.0283142 -0.998332 
-0.0526778 0.0208072 -0.998395 
-0.053815 0.0157023 -0.998427 
-0.0559957 0.0115624 -0.998364 
-0.055799 0.00801079 -0.99841 
-0.0566866 0.00487295 -0.99838 
-0.0573244 0.00188767 -0.998354 
-0.0571946 -0.000853581 -0.998363 
-0.0569421 -0.00347543 -0.998371 
-0.0567569 -0.00589804 -0.998371 
-0.0555232 -0.00860196 -0.99842 
-0.0543786 -0.01141 -0.998455 
-0.054533 -0.0146341 -0.998405 
-0.0514294 -0.0190827 -0.998494 
-0.0502472 -0.0241018 -0.998446 
-0.0504182 -0.0301988 -0.998272 
-0.0475099 -0.0392886 -0.998098 
-0.0478413 -0.04869 -0.997668 
-0.0431209 -0.060383 -0.997243 
-0.0415029 -0.0702531 -0.996665 
-0.0345263 -0.0699418 -0.996953 
-0.0257148 -0.0495057 -0.998443 
-0.000657716 -0.00101082 -0.999999 
0.000462607 -0.0010894 0.999999 
0.0161313 -0.047529 0.99874 
0.0305848 -0.0658183 0.997363 
0.0315698 -0.0738939 0.996766 
0.0344022 -0.0674287 0.997131 
0.0360718 -0.050279 0.998084 
0.0389264 -0.0380226 0.998518 
0.0412018 -0.0315089 0.998654 
0.042588 -0.0241819 0.9988 
0.0438098 -0.0194023 0.998851 
0.0433762 -0.0156275 0.998937 
0.0443081 -0.0119515 0.998946 
0.0458193 -0.00910024 0.998908 
0.0468656 -0.00633805 0.998881 
0.0464586 -0.00360568 0.998914 
0.0479266 -0.000705748 0.998851 
0.047851 0.00241313 0.998852 
0.0476805 0.00564067 0.998847 
0.04648 0.00891227 0.998879 
0.0455195 0.0125729 0.998884 
0.0441671 0.0169987 0.99888 
0.04292 0.0227158 0.99882 
0.0412 0.0302078 0.998694 
0.0394584 0.040188 0.998413 
0.0368494 0.053361 0.997895 
0.0340104 0.0708249 0.996909 
0.0300628 0.0937201 0.995145 
0.0256633 0.123914 0.991961 
0.0211201 0.161153 0.986703 
0.0153348 0.210283 0.97752 
0.00742468 0.28642 0.958075 
0.000382364 0.378795 0.92548 
-0.00500311 0.492517 0.870289 
-0.00693773 0.602269 0.798263 
-0.00877698 0.577657 0.816233 
-0.00890851 0.688323 0.72535 
-0.00820051 0.809355 0.587263 
-0.00461322 0.864874 0.501967 
-0.00193755 0.975295 0.220897 
0.00049063 0.997078 -0.076386 
0.000377584 0.999709 -0.0241008 
0.00163518 0.959158 -0.282867 
0.00285802 0.869301 -0.494275 
0.00632819 0.74419 -0.667938 
0.00679056 0.631745 -0.775147 
0.00515362 0.52731 -0.849657 
0.000910412 0.405238 -0.914211 
-0.00445542 0.320522 -0.947231 
-0.0106511 0.250265 -0.968119 
-0.0176794 0.192497 -0.981138 
-0.0231896 0.150551 -0.98833 
-0.0286048 0.112207 -0.993273 
-0.0302759 0.0863945 -0.995801 
-0.0356986 0.0635281 -0.997341 
-0.0377612 0.0479082 -0.998138 
-0.0395918 0.0360036 -0.998567 
-0.0425523 0.0266421 -0.998739 
-0.0434869 0.0202237 -0.998849 
-0.0447879 0.0151326 -0.998882 
-0.046693 0.0111058 -0.998848 
-0.0462133 0.00748526 -0.998904 
-0.0472361 0.00412743 -0.998875 
-0.0472186 0.0010161 -0.998884 
-0.0473465 -0.00200753 -0.998877 
-0.04674 -0.00481657 -0.998895 
-0.0469859 -0.00746015 -0.998868 
-0.0452976 -0.0102925 -0.998921 
-0.0447566 -0.0133678 -0.998908 
-0.0442286 -0.0167379 -0.998881 
-0.0412899 -0.0214683 -0.998917 
-0.0406975 -0.0270358 -0.998806 
-0.0414725 -0.0338354 -0.998567 
-0.0373534 -0.0419748 -0.99842 
-0.0389466 -0.0503801 -0.99797 
-0.0346157 -0.0624432 -0.997448 
-0.0339256 -0.0720304 -0.996825 
-0.027832 -0.0725685 -0.996975 
-0.0187561 -0.0477011 -0.998686 
-0.000610876 -0.000996215 -0.999999 
0.000446817 -0.000977882 0.999999 
0.0133943 -0.0540557 0.998448 
0.0240357 -0.0712611 0.997168 
0.0250725 -0.0738181 0.996956 
0.0298828 -0.0620441 0.997626 
0.0270452 -0.052879 0.998235 
0.0313147 -0.0429836 0.998585 
0.02997 -0.0345602 0.998953 
0.0343322 -0.0283375 0.999009 
0.0336919 -0.0227293 0.999174 
0.0342587 -0.0186599 0.999239 
0.0358281 -0.014654 0.999251 
0.0359075 -0.0114669 0.999289 
0.0375846 -0.00859346 0.999257 
0.0380966 -0.00578293 0.999257 
0.0381829 -0.00258245 0.999267 
0.0391447 0.000541245 0.999233 
0.0389307 0.00392997 0.999234 
0.0379619 0.00721276 0.999253 
0.0372559 0.0107444 0.999248 
0.0364948 0.0147046 0.999226 
0.0355583 0.0196219 0.999175 
0.0342983 0.0259305 0.999075 
0.0328497 0.03442 0.998867 
0.0310317 0.0455326 0.998481 
0.0287167 0.0606661 0.997745 
0.0258534 0.0802967 0.996436 
0.0222947 0.107018 0.994007 
0.0181491 0.141726 0.98974 
0.0140636 0.184858 0.982665 
0.00904479 0.245492 0.969356 
0.00286206 0.328625 0.944456 
-0.00221658 0.439326 0.898325 
-0.00421799 0.539317 0.842092 
-0.0061495 0.735853 0.677113 
-0.00243743 0.867777 0.496948 
0.000829045 0.928966 0.370164 
0.000373977 0.987406 0.158207 
-0.000418916 0.956739 0.290946 
0.00109323 0.98807 0.154001 
-0.00185443 0.999128 -0.0417028 
-0.000386529 0.965678 -0.259743 
0.00163479 0.889097 -0.457716 
0.00307474 0.769462 -0.638685 
0.00452064 0.735954 -0.677016 
0.00512616 0.589832 -0.80751 
0.00214208 0.428208 -0.903678 
-0.00172804 0.340793 -0.940137 
-0.00639008 0.267906 -0.963424 
-0.0120341 0.206368 -0.9784 
-0.0165703 0.159679 -0.98703 
-0.0212747 0.124939 -0.991936 
-0.0218423 0.102589 -0.994484 
-0.0267693 0.0748068 -0.996839 
-0.0293159 0.0567901 -0.997956 
-0.0311109 0.042442 -0.998614 
-0.0336429 0.0312603 -0.998945 
-0.034742 0.0237792 -0.999113 
-0.0359876 0.0178873 -0.999192 
-0.0371177 0.0132361 -0.999223 
-0.0380884 0.00955067 -0.999229 
-0.0381753 0.00569291 -0.999255 
-0.0382795 0.00231857 -0.999264 
-0.0385255 -0.00108312 -0.999257 
-0.0380372 -0.00422831 -0.999267 
-0.0380354 -0.00724716 -0.99925 
-0.0371822 -0.0100467 -0.999258 
-0.0364316 -0.0132063 -0.999249 
-0.0351647 -0.0167164 -0.999242 
-0.033918 -0.0206681 -0.999211 
-0.0323907 -0.026456 -0.999125 
-0.0327622 -0.0334049 -0.998905 
-0.0298973 -0.0428803 -0.998633 
-0.0298622 -0.0541526 -0.998086 
-0.0260151 -0.0658081 -0.997493 
-0.0264743 -0.0739213 -0.996913 
-0.0214161 -0.0757572 -0.996896 
-0.0165788 -0.0562261 -0.99828 
-0.000452404 -0.000971993 -0.999999 
0.000308281 -0.000906588 1 
0.0100077 -0.0553565 0.998416 
0.0191414 -0.0756371 0.996952 
0.0181334 -0.0761495 0.996932 
0.0226773 -0.0668445 0.997506 
0.0209523 -0.0550836 0.998262 
0.0239833 -0.0426974 0.9988 
0.0231557 -0.0340397 0.999152 
0.0265827 -0.0275247 0.999268 
0.0253783 -0.0227999 0.999418 
0.027644 -0.018171 0.999453 
0.0287131 -0.0145225 0.999482 
0.0287101 -0.0113349 0.999524 
0.0302237 -0.00836004 0.999508 
0.0311854 -0.00507796 0.999501 
0.03075 -0.00157747 0.999526 
0.0316624 0.00186416 0.999497 
0.0306247 0.00530691 0.999517 
0.0301458 0.00890094 0.999506 
0.0296223 0.0127171 0.99948 
0.0290598 0.0171239 0.999431 
0.0281437 0.0226801 0.999347 
0.0270653 0.0301151 0.99918 
0.0255611 0.0400291 0.998872 
0.0238781 0.053301 0.998293 
0.0214982 0.0710069 0.997244 
0.0188196 0.0945739 0.99534 
0.0154387 0.125975 0.991913 
0.0117282 0.167577 0.985789 
0.00835757 0.22016 0.975428 
0.00418579 0.287428 0.957793 
-0.000167714 0.387394 0.921914 
-0.00223957 0.495513 0.868598 
-0.00281153 0.609751 0.792588 
-0.00469551 0.646715 0.762717 
-0.00135136 0.845266 0.534345 
0.00139927 0.949857 0.312681 
0.00158979 0.99682 0.0796722 
0.0010619 0.99921 0.0397223 
-5.06965e-05 0.999804 0.0197844 
-0.00212596 0.999502 -0.0314892 
-0.00372079 0.995977 -0.0895346 
-0.00361323 0.950696 -0.310105 
0.000870939 0.84377 -0.536705 
0.00439387 0.645476 -0.763768 
0.00388164 0.532829 -0.846214 
0.00401171 0.49109 -0.871099 
0.00121287 0.386814 -0.922157 
-0.0023237 0.3028 -0.953051 
-0.00707492 0.229427 -0.9733 
-0.0110067 0.176231 -0.984287 
-0.0146031 0.134961 -0.990743 
-0.0186358 0.0941448 -0.995384 
-0.0213221 0.0711212 -0.99724 
-0.0238204 0.0530647 -0.998307 
-0.0259334 0.0385837 -0.998919 
-0.0271295 0.029153 -0.999207 
-0.0283689 0.0218899 -0.999358 
-0.0294519 0.0164021 -0.999432 
-0.0298081 0.0121904 -0.999481 
-0.0313351 0.0083762 -0.999474 
-0.030505 0.00471722 -0.999523 
-0.0310089 0.00106883 -0.999519 
-0.0306731 -0.00237249 -0.999527 
-0.0306775 -0.00578971 -0.999513 
-0.0299741 -0.00883228 -0.999512 
-0.0297854 -0.0118834 -0.999486 
-0.028565 -0.0151073 -0.999478 
-0.0269719 -0.0187241 -0.999461 
-0.0267333 -0.0232929 -0.999371 
-0.0245959 -0.029027 -0.999276 
-0.0257096 -0.0348832 -0.999061 
-0.0225342 -0.0428544 -0.998827 
-0.0233722 -0.0525589 -0.998344 
-0.0202498 -0.0648727 -0.997688 
-0.0193347 -0.0758018 -0.996935 
-0.0155427 -0.0761151 -0.996978 
-0.0112347 -0.0520007 -0.998584 
-0.000318605 -0.000966348 -0.999999 
0.000241793 -0.00093258 1 
0.00714609 -0.0565251 0.998376 
0.0134826 -0.0770183 0.996939 