# vtk DataFile Version 3.0 
Exported using Morpho https://github.com/Morpho-lang/morpho 
ASCII 
DATASET UNSTRUCTURED_GRID 

POINTS 1978 float 
-8.48528 -2.82843 -5.5374e-15 
-8.2656 -2.82843 3.45788e-14 
-8.04231 -2.82843 5.77106e-14 
-7.76669 -2.82843 5.3771e-14 
-7.47508 -2.82843 4.24109e-14 
-7.22921 -2.82843 2.73315e-14 
-7.00194 -2.82843 2.40113e-14 
-6.77706 -2.82843 1.71298e-14 
-6.56186 -2.82843 1.41986e-14 
-6.34107 -2.82843 1.07267e-14 
-6.14349 -2.82843 8.24216e-15 
-5.92563 -2.82843 6.74656e-15 
-5.71277 -2.82843 4.2992e-15 
-5.51049 -2.82843 2.45852e-15 
-5.29446 -2.82843 1.65217e-15 
-5.08482 -2.82843 1.50795e-16 
-4.8691 -2.82843 -7.83758e-16 
-4.6639 -2.82843 -2.54821e-15 
-4.44459 -2.82843 -3.96401e-15 
-4.22793 -2.82843 -6.14216e-15 
-4.0085 -2.82843 -8.07044e-15 
-3.79815 -2.82843 -1.07682e-14 
-3.58286 -2.82843 -1.38579e-14 
-3.37149 -2.82843 -1.8364e-14 
-3.15145 -2.82843 -2.29535e-14 
-2.94149 -2.82843 -2.73936e-14 
-2.73256 -2.82843 -3.0501e-14 
-2.53633 -2.82843 -3.4546e-14 
-2.32258 -2.82843 -3.57071e-14 
-2.1152 -2.82843 -3.11339e-14 
-1.89729 -2.82843 -2.29903e-14 
-1.69288 -2.82843 -1.21344e-14 
-1.49972 -2.82843 -4.95806e-15 
-1.28204 -2.82843 -2.39178e-14 
-1.1095 -2.82843 -5.10445e-14 
-0.859317 -2.82843 -1.30866e-13 
-0.6439 -2.82843 -1.32433e-13 
-0.462026 -2.82843 -2.46525e-13 
-0.237541 -2.82843 -1.96283e-13 
0.0146626 -2.82843 1.13302e-13 
0.242657 -2.82843 1.40775e-13 
0.445994 -2.82843 1.50098e-13 
0.666391 -2.82843 1.58363e-13 
0.884534 -2.82843 1.36231e-13 
1.08655 -2.82843 5.54904e-14 
1.27193 -2.82843 2.37301e-14 
1.4685 -2.82843 -6.06836e-15 
1.68711 -2.82843 1.00827e-14 
1.88671 -2.82843 2.12142e-14 
2.10526 -2.82843 3.4431e-14 
2.33381 -2.82843 3.5352e-14 
2.52832 -2.82843 3.40989e-14 
2.74727 -2.82843 3.36775e-14 
2.96895 -2.82843 2.70005e-14 
3.1776 -2.82843 2.10277e-14 
3.38367 -2.82843 1.78682e-14 
3.6096 -2.82843 1.38482e-14 
3.8115 -2.82843 1.00058e-14 
4.02681 -2.82843 8.24786e-15 
4.25314 -2.82843 5.97369e-15 
4.45234 -2.82843 3.50772e-15 
4.66535 -2.82843 2.51816e-15 
4.87251 -2.82843 1.04177e-15 
5.07645 -2.82843 -3.49684e-16 
5.28984 -2.82843 -1.39905e-15 
5.50071 -2.82843 -2.51332e-15 
5.70341 -2.82843 -4.29307e-15 
5.92156 -2.82843 -6.297e-15 
6.14224 -2.82843 -7.67201e-15 
6.34159 -2.82843 -1.16661e-14 
6.58083 -2.82843 -1.4791e-14 
6.79231 -2.82843 -1.63587e-14 
6.99346 -2.82843 -2.3972e-14 
7.2554 -2.82843 -3.06835e-14 
7.48773 -2.82843 -3.55851e-14 
7.73266 -2.82843 -4.86054e-14 
8.00324 -2.82843 -5.20761e-14 
8.18752 -2.82843 -3.97244e-14 
8.48528 -2.82843 -6.02394e-15 
-8.48528 -2.59842 -9.8773e-16 
-8.2547 -2.58787 -1.94064e-14 
-8.02101 -2.58836 -3.22853e-14 
-7.78295 -2.62345 -1.69416e-14 
-7.52343 -2.64026 -2.10897e-14 
-7.23538 -2.60142 -1.34644e-14 
-6.99119 -2.60201 -1.9475e-14 
-6.77674 -2.58621 -9.41299e-15 
-6.54027 -2.60432 -1.08749e-14 
-6.33247 -2.57437 -8.41235e-15 
-6.10874 -2.60148 -6.06491e-15 
-5.89131 -2.59226 -4.69206e-15 
-5.68233 -2.57826 -3.68507e-15 
-5.46457 -2.59591 -2.12743e-15 
-5.24946 -2.58875 -1.18395e-15 
-5.03129 -2.59554 2.31854e-17 
-4.82076 -2.5837 1.07085e-15 
-4.60184 -2.59894 2.53657e-15 
-4.38209 -2.59501 3.74662e-15 
-4.16234 -2.59673 5.35226e-15 
-3.95026 -2.58504 7.32661e-15 
-3.73712 -2.59091 9.81929e-15 
-3.52485 -2.58959 1.33149e-14 
-3.30841 -2.60142 1.62624e-14 
-3.09546 -2.59576 2.11514e-14 
-2.8845 -2.59865 2.4463e-14 
-2.68312 -2.58949 2.91904e-14 
-2.47298 -2.61152 3.25928e-14 
-2.25807 -2.60148 3.02434e-14 
-2.04616 -2.61173 2.61404e-14 
-1.83135 -2.59918 2.35283e-14 
-1.6254 -2.58099 1.20002e-14 
-1.42414 -2.6035 1.02947e-14 
-1.24709 -2.52193 -5.09349e-15 
-1.02074 -2.62738 3.65557e-14 
-0.790854 -2.57851 7.58883e-14 
-0.598388 -2.4926 1.81182e-14 
-0.397284 -2.50786 9.05793e-14 
-0.17515 -2.54122 3.30386e-14 
0.0212382 -2.45207 3.41216e-14 
0.207343 -2.54341 -1.53876e-13 
0.413064 -2.50738 5.03228e-14 
0.625734 -2.57672 -1.00658e-13 
0.858235 -2.57408 -7.80555e-14 
1.07951 -2.57356 -1.34088e-14 
1.28054 -2.58033 3.16375e-15 
1.48608 -2.61699 2.04302e-15 
1.70043 -2.59958 -2.50019e-14 
1.92296 -2.61774 -2.17455e-14 
2.15622 -2.62621 -3.04628e-14 
2.36842 -2.58904 -3.49212e-14 
2.58107 -2.60887 -2.69777e-14 
2.80524 -2.61036 -2.7354e-14 
3.01198 -2.59062 -2.17717e-14 
3.22054 -2.58684 -1.83553e-14 
3.44276 -2.60731 -1.40498e-14 
3.64864 -2.57895 -1.14188e-14 
3.86267 -2.59379 -8.11586e-15 
4.08947 -2.60534 -5.9919e-15 
4.29732 -2.57551 -4.8347e-15 
4.51242 -2.59383 -2.77898e-15 
4.72556 -2.5876 -1.76851e-15 
4.93804 -2.58641 -5.24514e-16 
5.15258 -2.59664 6.69029e-16 
5.37127 -2.59426 1.55831e-15 
5.58249 -2.58376 2.95472e-15 
5.79871 -2.59907 4.28068e-15 
6.02363 -2.59942 5.38164e-15 
6.23743 -2.57216 7.69658e-15 
6.45736 -2.61222 8.91573e-15 
6.68508 -2.58117 1.13321e-14 
6.89462 -2.56505 1.48565e-14 
7.12199 -2.62531 1.69676e-14 
7.37331 -2.59655 2.01998e-14 
7.6122 -2.60706 2.13315e-14 
7.86948 -2.62849 2.19951e-14 
8.07987 -2.53331 2.71675e-14 
8.30227 -2.64189 1.76449e-14 
8.48528 -2.52786 2.92046e-15 
-8.48528 -2.36185 1.1889e-15 
-8.24466 -2.35664 -1.07787e-14 
-8.00669 -2.34714 -1.59387e-14 
-7.76644 -2.40257 -1.5824e-14 
-7.56855 -2.24842 -1.04688e-14 
-7.47018 -2.45184 -2.31665e-14 
-7.17922 -2.39382 -1.60904e-14 
-6.95441 -2.35015 -1.29569e-14 
-6.70413 -2.37779 -9.47025e-15 
-6.48705 -2.35376 -8.01286e-15 
-6.24162 -2.35961 -6.22285e-15 
-6.02602 -2.3636 -4.79896e-15 
-5.81024 -2.34501 -3.50175e-15 
-5.58136 -2.35346 -2.57238e-15 
-5.36659 -2.35765 -1.46833e-15 
-5.14206 -2.36096 -5.30085e-16 
-4.92843 -2.34966 4.77877e-16 
-4.70394 -2.362 1.43082e-15 
-4.48538 -2.36651 2.61133e-15 
-4.26228 -2.36498 3.92077e-15 
-4.04868 -2.35004 5.37167e-15 
-3.83179 -2.34985 7.2766e-15 
-3.61957 -2.35269 9.702e-15 
-3.40253 -2.36539 1.25609e-14 
-3.19102 -2.36726 1.60084e-14 
-2.97575 -2.36854 1.93271e-14 
-2.7691 -2.3561 2.18897e-14 
-2.55706 -2.37685 2.56808e-14 
-2.34882 -2.38937 2.80274e-14 
-2.12268 -2.37909 2.58882e-14 
-1.91326 -2.38472 2.20967e-14 
-1.68989 -2.35927 5.11057e-15 
-1.46425 -2.34595 -1.60975e-14 
-1.26059 -2.25685 2.84571e-14 
-1.05176 -2.39199 -6.62576e-14 
-0.862042 -2.31345 -1.6555e-14 
-0.642606 -2.233 2.35787e-14 
-0.410524 -2.17757 -6.43036e-14 
-0.196807 -2.20449 2.02741e-14 
0.0570074 -2.16433 2.64434e-14 
0.293678 -2.24292 -4.66143e-14 
0.456219 -2.07257 1.39539e-13 
0.600619 -2.2893 -2.14536e-13 
0.81975 -2.3123 6.52092e-14 
1.04554 -2.32592 4.79518e-14 
1.26774 -2.31974 3.00601e-14 
1.47366 -2.39698 6.56674e-15 
1.66966 -2.35568 3.53378e-15 
1.87394 -2.39362 -2.2085e-14 
2.08682 -2.41538 -2.50611e-14 
2.2985 -2.38031 -2.65312e-14 
2.53185 -2.37362 -2.46462e-14 
2.73986 -2.3932 -2.27491e-14 
2.95142 -2.35382 -2.0051e-14 
3.15578 -2.35052 -1.60475e-14 
3.37397 -2.37554 -1.33675e-14 
3.57863 -2.34245 -9.84463e-15 
3.79249 -2.35197 -7.61295e-15 
4.00864 -2.37681 -5.93018e-15 
4.21785 -2.34126 -3.89175e-15 
4.43876 -2.35231 -2.79461e-15 
4.64874 -2.35075 -1.68014e-15 
4.8627 -2.35085 -7.09949e-16 
5.07953 -2.3572 7.63142e-17 
5.29247 -2.36624 1.10732e-15 
5.50851 -2.34898 1.98348e-15 
5.72746 -2.35984 3.0383e-15 
5.94428 -2.3725 4.38817e-15 
6.16081 -2.34215 5.44759e-15 
6.39399 -2.36329 6.99782e-15 
6.6038 -2.36207 9.03017e-15 
6.82955 -2.31683 9.76377e-15 
7.06072 -2.37325 1.35078e-14 
7.28037 -2.39438 1.68357e-14 
7.54183 -2.37513 1.57891e-14 
7.78549 -2.40889 1.66118e-14 
7.99883 -2.31127 1.18811e-14 
8.26102 -2.37094 9.83575e-15 
8.48528 -2.28464 1.58181e-15 
-8.48528 -2.10644 9.10135e-16 
-8.26405 -2.11358 -1.09149e-15 
-8.05154 -2.10255 -5.00815e-15 
-7.80566 -2.15529 -6.62091e-15 
-7.51539 -2.03633 -4.20738e-15 
-7.30977 -2.22939 -9.58498e-15 
-7.06734 -2.1292 -6.53048e-15 
-6.80748 -2.15192 -5.96735e-15 
-6.59111 -2.12405 -5.05936e-15 
-6.35272 -2.14648 -4.00406e-15 
-6.12369 -2.11846 -2.89715e-15 
-5.91668 -2.11398 -2.18234e-15 
-5.68894 -2.12584 -1.48512e-15 
-5.46765 -2.11607 -7.82455e-16 
-5.2508 -2.13152 -3.12822e-16 
-5.03671 -2.11667 2.35573e-16 
-4.81335 -2.1287 6.80624e-16 
-4.59559 -2.13172 1.24983e-15 
-4.37781 -2.13684 1.89058e-15 
-4.16659 -2.11877 2.61897e-15 
-3.95115 -2.11477 3.60175e-15 
-3.73855 -2.11316 4.86572e-15 
-3.52441 -2.12654 6.37226e-15 
-3.31525 -2.13134 7.943e-15 
-3.1036 -2.13938 9.75231e-15 
-2.89708 -2.12923 1.10956e-14 
-2.6814 -2.13458 1.28815e-14 
-2.4751 -2.14892 1.35857e-14 
-2.26248 -2.17136 1.62206e-14 
-2.04121 -2.14238 1.31709e-14 
-1.82898 -2.15712 7.00601e-15 
-1.59988 -2.13078 -1.21454e-14 
-1.39911 -2.06034 -6.05813e-14 
-1.17584 -1.93097 1.45304e-14 
-1.06828 -2.11627 -9.55519e-14 
-0.837839 -2.04786 -4.19272e-14 
-0.588891 -1.9536 -2.22124e-14 
-0.328783 -1.87885 -3.15158e-14 
-0.0924439 -1.90557 -1.92459e-14 
0.0567225 -1.63158 -1.33012e-14 
0.190562 -1.90865 4.64335e-14 
0.292538 -1.60002 3.21275e-15 
0.466465 -1.82761 1.39482e-13 
0.728628 -2.00294 1.05115e-13 
0.953256 -2.06099 5.29268e-14 
1.18394 -2.07521 2.70028e-14 
1.44762 -2.15245 4.56517e-15 
1.66408 -2.12135 -2.89713e-15 
1.88524 -2.15626 -8.5321e-15 
2.09763 -2.18495 -2.09049e-14 
2.34777 -2.1796 -1.78629e-14 
2.57094 -2.14246 -1.42125e-14 
2.7749 -2.15524 -1.65538e-14 
2.98499 -2.10971 -9.63035e-15 
3.20773 -2.13245 -8.95175e-15 
3.40782 -2.12626 -7.2554e-15 
3.62471 -2.10946 -5.1407e-15 
3.84212 -2.12525 -4.23731e-15 
4.04465 -2.12889 -3.03082e-15 
4.27232 -2.11522 -2.02191e-15 
4.4825 -2.11139 -1.31485e-15 
4.69761 -2.11481 -7.51595e-16 
4.91475 -2.12052 -4.03169e-16 
5.12988 -2.12226 7.84281e-17 
5.34166 -2.13029 5.9359e-16 
5.56565 -2.12094 1.07578e-15 
5.78327 -2.12861 1.74372e-15 
5.99432 -2.12971 2.45474e-15 
6.23499 -2.12735 3.18226e-15 
6.446 -2.11265 3.81038e-15 
6.65944 -2.11717 4.86338e-15 
6.91772 -2.10756 5.57221e-15 
7.13504 -2.13571 7.39519e-15 
7.36787 -2.18124 9.21615e-15 
7.56018 -2.0845 4.51892e-15 
7.74183 -2.17711 6.08663e-15 
7.95692 -2.07822 9.5798e-16 
8.20499 -2.14816 2.74802e-15 
8.48528 -2.08853 -6.02784e-16 
-8.48528 -1.81271 6.62137e-16 
-8.30184 -1.86271 1.15493e-15 
-7.88736 -1.91053 2.87712e-15 
[...]
POINT_DATA 1978 
VECTORS vectors float
0.000140609 -0.00085417 1 
-0.000105335 -0.0652093 0.997872 
-0.000254598 -0.0780981 0.996946 
-0.000307958 -0.0674601 0.997722 
-0.000268859 -0.0515012 0.998673 
-0.000173188 -0.039575 0.999217 
-0.000113363 -0.0314141 0.999506 
-0.000125797 -0.0242044 0.999707 
-9.38103e-05 -0.0183353 0.999832 
-8.15093e-05 -0.013967 0.999902 
-5.96624e-05 -0.0109791 0.99994 
-0.000106776 -0.00805484 0.999968 
-6.79502e-05 -0.00527258 0.999986 
-7.36273e-05 -0.00333643 0.999994 
-9.38367e-05 -0.00175467 0.999998 
-8.90028e-05 -0.000283727 1 
-8.31859e-05 0.00121413 0.999999 
-8.53157e-05 0.0027316 0.999996 
-0.000112348 0.00471789 0.999989 
-0.000108016 0.00724094 0.999974 
-9.62771e-05 0.0103314 0.999947 
-8.60614e-05 0.0140622 0.999901 
-8.63728e-05 0.0191502 0.999817 
-9.24294e-05 0.0260161 0.999662 
-8.75575e-05 0.0359916 0.999352 
-6.4402e-05 0.0488959 0.998804 
-3.8616e-05 0.0660918 0.997814 
-3.85887e-05 0.0872029 0.996191 
-5.03321e-05 0.117048 0.993126 
-4.34936e-05 0.154972 0.987919 
-2.98348e-05 0.205672 0.978621 
-3.21026e-06 0.265523 0.964104 
-1.4589e-06 0.337199 0.941433 
7.99727e-07 0.434526 0.90066 
1.46397e-05 0.526769 0.850009 
7.99254e-05 0.664244 0.747515 
-7.79876e-06 0.785481 0.618886 
6.64417e-06 0.876665 0.481102 
3.35068e-05 0.965134 0.261757 
3.79146e-06 0.999658 -0.0261485 
-6.1168e-06 0.964667 -0.263472 
-2.92578e-05 0.889605 -0.456731 
-4.86063e-05 0.781905 -0.623397 
-1.86095e-05 0.65057 -0.759446 
-2.29258e-06 0.533492 -0.845805 
-5.66659e-06 0.437764 -0.89909 
3.32698e-06 0.353315 -0.935505 
2.19027e-05 0.265856 -0.964013 
1.31364e-05 0.208042 -0.97812 
7.21796e-05 0.157697 -0.987488 
4.84237e-05 0.116018 -0.993247 
4.20129e-05 0.0886698 -0.996061 
9.59554e-05 0.0648035 -0.997898 
8.22898e-05 0.0466871 -0.99891 
5.85732e-05 0.0342006 -0.999415 
9.28345e-05 0.0253794 -0.999678 
9.39212e-05 0.0183018 -0.999833 
6.42622e-05 0.0136434 -0.999907 
0.000122541 0.00996778 -0.99995 
9.10261e-05 0.00678771 -0.999977 
5.81815e-05 0.0046883 -0.999989 
8.63697e-05 0.00285633 -0.999996 
5.97438e-05 0.00120559 -0.999999 
7.51041e-05 -0.000194211 -1 
9.15243e-05 -0.00171135 -0.999999 
6.51263e-05 -0.0032749 -0.999995 
7.84293e-05 -0.00496954 -0.999988 
0.000120121 -0.00745315 -0.999972 
7.15827e-05 -0.0105421 -0.999944 
0.000110227 -0.0139897 -0.999902 
0.000138538 -0.0194193 -0.999811 
5.00359e-05 -0.0248181 -0.999692 
0.000150696 -0.0308581 -0.999524 
0.000198783 -0.0408979 -0.999163 
0.000167554 -0.0518844 -0.998653 
0.000228463 -0.0656135 -0.997845 
0.000133143 -0.0785706 -0.996909 
0.000244344 -0.0712929 -0.997455 
-7.67928e-05 -0.000337406 -1 
0.000244891 0.000389967 1 
0.0225704 -0.0523057 0.998376 
0.0326124 -0.0700146 0.997013 
0.0300836 -0.0674226 0.997271 
0.0303675 -0.0547589 0.998038 
0.0353244 -0.041314 0.998522 
0.0396759 -0.0321482 0.998695 
0.0404821 -0.0252309 0.998862 
0.0411385 -0.0190505 0.998972 
0.0457052 -0.0148078 0.998845 
0.0430556 -0.0110411 0.999012 
0.0447734 -0.00806015 0.998965 
0.0473834 -0.00560328 0.998861 
0.0455794 -0.00345792 0.998955 
0.0470579 -0.00171387 0.998891 
0.0462493 4.41933e-06 0.99893 
0.048042 0.00171805 0.998844 
0.0455248 0.00366261 0.998956 
0.045625 0.00601681 0.998941 
0.0447294 0.00888272 0.99896 
0.0453792 0.0123884 0.998893 
0.0435599 0.0168361 0.998909 
0.0427066 0.022845 0.998826 
0.0395134 0.0310629 0.998736 
0.0385677 0.0423692 0.998357 
0.0357154 0.0572433 0.997721 
0.0337839 0.0762563 0.996516 
0.0279231 0.100864 0.994508 
0.023636 0.134695 0.990605 
0.0174167 0.177306 0.984002 
0.0119504 0.232842 0.972441 
0.00556773 0.299182 0.95418 
-0.00111714 0.379293 0.925276 
-0.00728113 0.467917 0.883743 
-0.010022 0.584709 0.811181 
-0.0136004 0.709488 0.704586 
-0.015645 0.812492 0.582763 
-0.011455 0.907248 0.420441 
-0.00545833 0.979841 0.199705 
0.000169922 0.999915 -0.0130036 
0.0057885 0.9741 -0.226046 
0.0106064 0.903862 -0.427692 
0.0118093 0.806753 -0.590771 
0.0118716 0.678805 -0.734222 
0.00970102 0.551301 -0.83425 
0.00529353 0.44645 -0.894793 
-0.00100694 0.347055 -0.937844 
-0.00808938 0.269831 -0.962874 
-0.0137944 0.205541 -0.978551 
-0.0195538 0.152589 -0.988096 
-0.0275687 0.117276 -0.992717 
-0.0292834 0.0874007 -0.995743 
-0.0332251 0.0637343 -0.997414 
-0.0376121 0.0473851 -0.998168 
-0.040553 0.0352175 -0.998557 
-0.0398691 0.0253771 -0.998883 
-0.0446995 0.0190999 -0.998818 
-0.0438043 0.0139566 -0.998943 
-0.0431806 0.00987847 -0.999018 
-0.0480947 0.00711143 -0.998817 
-0.0461336 0.00463524 -0.998925 
-0.0473049 0.00259285 -0.998877 
-0.0479854 0.000761451 -0.998848 
-0.0461511 -0.00096036 -0.998934 
-0.046464 -0.00272617 -0.998916 
-0.047425 -0.00457853 -0.998864 
-0.0444078 -0.00671097 -0.998991 
-0.0435881 -0.00955181 -0.999004 
-0.0462817 -0.013041 -0.998843 
-0.0397076 -0.017191 -0.999063 
-0.0429428 -0.0227838 -0.998818 
-0.043472 -0.02883 -0.998639 
-0.034666 -0.03635 -0.998738 
-0.0368262 -0.0472132 -0.998206 
-0.0338674 -0.0589653 -0.997685 
-0.0302607 -0.0703678 -0.997062 
-0.035137 -0.0671386 -0.997125 
-0.0164942 -0.0455313 -0.998827 
3.73462e-05 0.000334093 -1 
6.11449e-05 5.52761e-05 1 
0.0311279 -0.0511944 0.998203 
0.0446804 -0.0686238 0.996642 
0.046414 -0.0655346 0.99677 
0.0521923 -0.0587518 0.996907 
0.0479274 -0.0521458 0.997489 
0.053212 -0.040073 0.997779 
0.056728 -0.031829 0.997882 
0.0574811 -0.0242797 0.998051 
0.0600498 -0.0188772 0.998017 
0.0614972 -0.0140394 0.998009 
0.0623944 -0.0106143 0.997995 
0.0637369 -0.00782194 0.997936 
0.0645177 -0.00525933 0.997903 
0.0651385 -0.00318172 0.997871 
0.0655761 -0.00113682 0.997847 
0.0661729 0.000836399 0.997808 
0.0656379 0.00307133 0.997839 
0.0649375 0.00550522 0.997874 
0.0640275 0.00841561 0.997913 
0.0632325 0.0118815 0.997928 
0.0616754 0.0162748 0.997964 
0.0598597 0.0219741 0.997965 
0.0573253 0.0297981 0.997911 
0.0547338 0.040237 0.99769 
0.0513692 0.054519 0.99719 
0.0476181 0.0728909 0.996203 
0.0422115 0.0964668 0.994441 
0.0358361 0.126079 0.991373 
0.0279807 0.168246 0.985348 
0.019667 0.218135 0.97572 
0.0100133 0.287422 0.957752 
0.000430464 0.37043 0.92886 
-0.0071657 0.463474 0.886082 
-0.0135161 0.568607 0.822498 
-0.0169743 0.67977 0.733229 
-0.0169639 0.798585 0.601643 
-0.0134751 0.903736 0.427877 
-0.00819718 0.972956 0.230845 
-0.00125164 0.999763 -0.0217464 
0.00616617 0.964616 -0.263588 
0.01026 0.888356 -0.45904 
0.0142052 0.801014 -0.598477 
0.0149828 0.687364 -0.726159 
0.0123666 0.564986 -0.825008 
0.00656559 0.456666 -0.889614 
-0.00107215 0.363775 -0.931486 
-0.00918787 0.295199 -0.955392 
-0.018018 0.229078 -0.973241 
-0.0262298 0.175958 -0.984048 
-0.0342251 0.135791 -0.990146 
-0.0410405 0.100374 -0.994103 
-0.0458632 0.0751926 -0.996114 
-0.051085 0.0562133 -0.997111 
-0.0546635 0.0422612 -0.99761 
-0.056849 0.0307326 -0.99791 
-0.0599558 0.0233212 -0.997929 
-0.0615194 0.0172042 -0.997958 
-0.0622193 0.0124752 -0.997985 
-0.0645814 0.00922673 -0.99787 
-0.0652365 0.00618725 -0.997851 
-0.0659149 0.00374554 -0.997818 
-0.066329 0.00151097 -0.997797 
-0.0660778 -0.000598599 -0.997814 
-0.0654776 -0.00254682 -0.997851 
-0.0653534 -0.00462722 -0.997851 
-0.0641029 -0.00684339 -0.99792 
-0.0626021 -0.00940091 -0.997994 
-0.0623869 -0.0127402 -0.997971 
-0.0602811 -0.016958 -0.998037 
-0.0590138 -0.0216969 -0.998021 
-0.0583547 -0.0281635 -0.997899 
-0.0552822 -0.0355556 -0.997837 
-0.0527798 -0.0443135 -0.997622 
-0.0504032 -0.0566486 -0.997121 
-0.0470354 -0.0670133 -0.996643 
-0.0454201 -0.068705 -0.996603 
-0.0291165 -0.0472099 -0.998461 
-0.000303475 1.94349e-05 -1 
0.000111915 0.000276408 1 
0.0267789 -0.0464952 0.99856 
0.0409225 -0.0671778 0.996901 
0.0478031 -0.0676738 0.996562 
0.0489408 -0.0582095 0.997104 
0.0545577 -0.0471149 0.997398 
0.0552904 -0.0375609 0.997764 
0.0577276 -0.0283585 0.99793 
0.0591393 -0.0225442 0.997995 
0.0609846 -0.017088 0.997992 
0.0615433 -0.0131428 0.998018 
0.0624231 -0.0101334 0.997998 
0.0636812 -0.00730114 0.997944 
0.0642685 -0.00494016 0.99792 
0.0653693 -0.00265025 0.997858 
0.0654172 -0.000429439 0.997858 
0.0658121 0.00207596 0.99783 
0.0655883 0.00469549 0.997836 
0.0649312 0.00760194 0.997861 
0.063379 0.0109445 0.99793 
0.0617457 0.0150646 0.997978 
0.0598915 0.0203203 0.997998 
0.0580345 0.027347 0.99794 
0.0555664 0.0366676 0.997781 
0.0526438 0.0492377 0.997399 
0.0487218 0.0656462 0.996653 
0.0440494 0.0875522 0.995186 
0.0387395 0.114268 0.992694 
0.0323728 0.148478 0.988386 
0.0237327 0.195936 0.980329 
0.0151247 0.253381 0.967248 
0.00485464 0.334996 0.942207 
-0.0028535 0.417411 0.908714 
-0.00895832 0.525511 0.85074 
-0.0125011 0.567031 0.823602 
-0.0151651 0.69596 0.717921 
-0.0134592 0.823004 0.567875 
-0.00985248 0.927247 0.374321 
-0.0051342 0.992372 0.123172 
-0.000595961 0.996895 -0.0787362 
0.00244468 0.974879 -0.222723 
0.00411538 0.94364 -0.330949 
0.00878415 0.868786 -0.495111 
0.0122462 0.736804 -0.675995 
0.0123694 0.622166 -0.782788 
0.0083763 0.507267 -0.861748 
0.000386174 0.388268 -0.921546 
-0.00848473 0.304562 -0.952455 
-0.0176853 0.235985 -0.971596 
-0.026573 0.180124 -0.983285 
-0.0352493 0.13261 -0.990541 
-0.0412968 0.100332 -0.994097 
-0.046959 0.0757376 -0.996021 
-0.0500266 0.0578925 -0.997069 
-0.0543315 0.0422274 -0.99763 
-0.0568586 0.0319631 -0.99787 
-0.0588507 0.0237867 -0.997983 
-0.0612966 0.017503 -0.997966 
-0.0628056 0.0131616 -0.997939 
-0.0639331 0.00932805 -0.997911 
-0.0646766 0.00632104 -0.997886 
-0.0653413 0.0035626 -0.997857 
-0.0657762 0.000977092 -0.997834 
-0.0655801 -0.0013901 -0.997846 
-0.0653222 -0.00359978 -0.997858 
-0.0643239 -0.0060055 -0.997911 
-0.0635216 -0.00844475 -0.997945 
-0.0624694 -0.0111951 -0.997984 
-0.0612414 -0.0150578 -0.998009 
-0.0595318 -0.0193104 -0.99804 
-0.0582845 -0.0244395 -0.998001 
-0.0562389 -0.032261 -0.997896 
-0.0550594 -0.0401147 -0.997677 
-0.0538665 -0.050113 -0.99729 
-0.0499985 -0.0600568 -0.996942 
-0.0494733 -0.0668342 -0.996537 
-0.0437427 -0.0706719 -0.99654 
-0.0336966 -0.0548712 -0.997925 
-0.00031188 7.54779e-05 -1 
1.61733e-05 0.000215161 1 
0.0198893 -0.0432199 0.998868 
0.0399695 -0.071914 0.99661 
0.042706 -0.0663556 0.996882 
0.0409426 -0.0558698 0.997598 
0.0498968 -0.0475142 0.997624 
0.0450532 -0.0423871 0.998085 
0.0508853 -0.03393 0.998128 
0.0500476 -0.0271272 0.998378 
0.0531189 -0.0210793 0.998366 
0.0536734 -0.0165394 0.998422 
0.0527552 -0.0130751 0.998522 
0.0549336 -0.009887 0.998441 
0.0558625 -0.00720807 0.998412 
0.0564087 -0.00461822 0.998397 
0.056957 -0.00219851 0.998374 
0.0576175 0.000586966 0.998339 
0.0576213 0.00343537 0.998333 
0.0574265 0.00644507 0.998329 
0.0560808 0.00965062 0.99838 
0.054593 0.0134552 0.998418 
0.0528989 0.018141 0.998435 
0.0513838 0.0242758 0.998384 
0.0494521 0.0322482 0.998256 
0.047223 0.0429869 0.997959 
0.0441564 0.0569145 0.997402 
0.0404976 0.0756737 0.99631 
0.0358548 0.0996261 0.994379 
0.0311094 0.129468 0.991095 
0.0253178 0.167571 0.985535 
0.0168863 0.223315 0.9746 
0.00949656 0.287787 0.957648 
0.00184881 0.363689 0.931519 
-0.00443504 0.457144 0.889382 
-0.0120061 0.652615 0.757595 
-0.0112913 0.761517 0.648047 
-0.00904697 0.878337 0.477956 
-0.00582721 0.937629 0.347589 
-0.00552581 0.976116 0.217181 
-0.00198121 0.999793 0.0202393 
0.00104085 0.972869 -0.231353 
0.00468588 0.880135 -0.4747 
0.00862905 0.805723 -0.59223 
0.00971096 0.688385 -0.725281 
0.00861112 0.578774 -0.815442 
0.00491922 0.482963 -0.875627 
0.00206913 0.416641 -0.909069 
-0.00347578 0.348162 -0.937428 
-0.011185 0.270704 -0.962598 
-0.0193476 0.208798 -0.977767 
-0.027384 0.15854 -0.986973 
-0.0329668 0.120366 -0.992182 
-0.0381251 0.0888129 -0.995318 
-0.0414175 0.0689501 -0.99676 
-0.0458345 0.0499543 -0.997699 
-0.0479195 0.0375803 -0.998144 
-0.0503183 0.0283143 -0.998332 
-0.0526776 0.0208072 -0.998395 
-0.0538148 0.0157023 -0.998427 
-0.0559955 0.0115624 -0.998364 
-0.0557988 0.00801078 -0.99841 
-0.0566864 0.00487294 -0.99838 
-0.0573241 0.00188767 -0.998354 
-0.0571943 -0.000853571 -0.998363 
-0.0569418 -0.00347541 -0.998371 
-0.0567567 -0.00589802 -0.998371 
-0.055523 -0.00860195 -0.99842 
-0.0543784 -0.01141 -0.998455 
-0.0545327 -0.0146341 -0.998405 
-0.0514292 -0.0190827 -0.998494 
-0.050247 -0.0241018 -0.998446 
-0.050418 -0.0301988 -0.998272 
-0.0475097 -0.0392885 -0.998098 
-0.047841 -0.0486899 -0.997668 
-0.0431207 -0.0603827 -0.997243 
-0.0415026 -0.0702524 -0.996666 
-0.0345258 -0.0699405 -0.996954 
-0.0257141 -0.0495042 -0.998443 
-4.29657e-05 0.000137626 -1 
5.30516e-05 0.000155701 1 
0.016131 -0.0475276 0.99874 
0.0305843 -0.065817 0.997363 
0.0315696 -0.073893 0.996766 
0.0344021 -0.0674283 0.997131 
0.0360717 -0.050279 0.998084 
0.0389264 -0.0380225 0.998518 
0.0412017 -0.0315089 0.998654 
0.0425879 -0.0241819 0.9988 
0.0438097 -0.0194023 0.998851 
0.0433761 -0.0156275 0.998937 
0.0443081 -0.0119515 0.998946 
0.0458192 -0.00910023 0.998908 
0.0468655 -0.00633803 0.998881 
0.0464585 -0.00360566 0.998914 
0.0479265 -0.000705736 0.998851 
0.0478509 0.00241313 0.998852 
0.0476804 0.00564066 0.998847 
0.0464799 0.00891226 0.998879 
0.0455195 0.0125729 0.998884 
0.0441671 0.0169988 0.99888 
0.0429199 0.0227158 0.99882 
0.0411999 0.0302078 0.998694 
0.0394583 0.040188 0.998413 
0.0368494 0.0533611 0.997895 
0.0340103 0.070825 0.996909 
0.0300627 0.0937202 0.995145 
0.0256632 0.123914 0.991961 
0.02112 0.161153 0.986703 
0.0153348 0.210283 0.97752 
0.00742462 0.28642 0.958075 
0.000382349 0.378796 0.92548 
-0.00500311 0.492517 0.870289 
-0.00693772 0.602269 0.798263 
-0.00877689 0.577657 0.816232 
-0.00890846 0.688324 0.725349 
-0.00820055 0.809356 0.587261 
-0.00461321 0.864872 0.501971 
-0.00193753 0.975294 0.220903 
0.000491106 0.997079 -0.0763783 
0.000377568 0.99971 -0.0240946 
0.00163494 0.959159 -0.282864 
0.00285785 0.869301 -0.494274 
0.00632821 0.744188 -0.66794 
0.00679053 0.631744 -0.775147 
0.00515358 0.52731 -0.849658 
0.0009104 0.405238 -0.914211 
-0.00445542 0.320522 -0.947231 
-0.0106511 0.250266 -0.968119 
-0.0176794 0.192497 -0.981138 
-0.0231895 0.150551 -0.98833 
-0.0286047 0.112207 -0.993273 
-0.0302758 0.0863946 -0.995801 
-0.0356985 0.0635282 -0.997341 
-0.0377611 0.0479083 -0.998138 
-0.0395917 0.0360037 -0.998567 
-0.0425522 0.0266422 -0.998739 
-0.0434868 0.0202237 -0.998849 
-0.0447878 0.0151326 -0.998882 
-0.0466929 0.0111058 -0.998848 
-0.0462132 0.00748525 -0.998904 
-0.047236 0.00412743 -0.998875 
-0.0472185 0.0010161 -0.998884 
-0.0473464 -0.00200751 -0.998877 
-0.04674 -0.00481655 -0.998895 
-0.0469858 -0.00746013 -0.998868 
-0.0452976 -0.0102925 -0.998921 
-0.0447565 -0.0133678 -0.998908 
-0.0442285 -0.0167379 -0.998881 
-0.0412898 -0.0214683 -0.998917 
-0.0406975 -0.0270358 -0.998806 
-0.0414724 -0.0338354 -0.998567 
-0.0373533 -0.0419748 -0.99842 
-0.0389465 -0.05038 -0.99797 
-0.0346156 -0.0624429 -0.997448 
-0.0339254 -0.0720298 -0.996825 
-0.0278317 -0.0725672 -0.996975 
-0.0187556 -0.0476996 -0.998686 
-0.000126425 9.84073e-05 -1 
0.000107932 7.78179e-05 1 
0.0133939 -0.054054 0.998448 
0.0240354 -0.0712597 0.997168 
0.0250724 -0.0738174 0.996957 
0.0298827 -0.0620439 0.997626 
0.0270452 -0.0528789 0.998235 
0.0313147 -0.0429836 0.998585 
0.02997 -0.0345602 0.998953 
0.0343321 -0.0283374 0.999009 
0.0336919 -0.0227293 0.999174 
0.0342586 -0.0186599 0.999239 
0.035828 -0.014654 0.999251 
0.0359075 -0.0114669 0.999289 
0.0375845 -0.00859343 0.999257 
0.0380966 -0.0057829 0.999257 
0.0381828 -0.00258243 0.999267 
0.0391446 0.000541253 0.999233 
0.0389307 0.00392996 0.999234 
0.0379619 0.00721275 0.999253 
0.0372559 0.0107444 0.999248 
0.0364948 0.0147046 0.999226 
0.0355582 0.0196219 0.999175 
0.0342983 0.0259305 0.999075 
0.0328497 0.0344201 0.998867 
0.0310316 0.0455327 0.998481 
0.0287167 0.0606662 0.997745 
0.0258534 0.0802968 0.996436 
0.0222947 0.107018 0.994007 
0.0181491 0.141726 0.98974 
0.0140636 0.184858 0.982665 
0.0090448 0.245492 0.969356 
0.00286206 0.328625 0.944456 
-0.00221652 0.439325 0.898325 
-0.00421799 0.539315 0.842093 
-0.00614948 0.735853 0.677114 
-0.00243704 0.867779 0.496944 
0.000828637 0.92897 0.370154 
0.000373277 0.987402 0.158229 
-0.000418314 0.95674 0.290943 
0.00109197 0.988073 0.153983 
-0.00185388 0.999129 -0.0416825 
-0.000387302 0.965676 -0.259751 
0.00163488 0.889097 -0.457716 
0.00307467 0.769464 -0.638683 
0.00452049 0.735954 -0.677016 
0.00512604 0.589832 -0.807509 
0.00214204 0.428208 -0.903678 
-0.00172806 0.340793 -0.940137 
-0.00639008 0.267906 -0.963424 
-0.0120341 0.206368 -0.9784 
-0.0165703 0.159679 -0.98703 
-0.0212746 0.124939 -0.991936 
-0.0218423 0.102589 -0.994484 
-0.0267693 0.0748068 -0.996839 
-0.0293159 0.0567901 -0.997956 
-0.0311109 0.042442 -0.998614 
-0.0336428 0.0312603 -0.998945 
-0.034742 0.0237792 -0.999113 
-0.0359875 0.0178873 -0.999192 
-0.0371177 0.0132361 -0.999223 
-0.0380884 0.00955065 -0.999229 
-0.0381752 0.00569289 -0.999255 
-0.0382795 0.00231856 -0.999264 
-0.0385254 -0.00108311 -0.999257 
-0.0380372 -0.00422829 -0.999267 
-0.0380353 -0.00724714 -0.99925 
-0.0371822 -0.0100467 -0.999258 
-0.0364316 -0.0132063 -0.999249 
-0.0351647 -0.0167164 -0.999242 
-0.033918 -0.0206681 -0.999211 
-0.0323907 -0.026456 -0.999125 
-0.0327622 -0.0334049 -0.998905 
-0.0298973 -0.0428803 -0.998633 
-0.0298622 -0.0541525 -0.998086 
-0.0260151 -0.0658078 -0.997493 
-0.0264742 -0.0739207 -0.996913 
-0.021416 -0.075756 -0.996896 
-0.0165785 -0.0562245 -0.998281 
-9.25481e-05 8.16858e-05 -1 
6.05646e-05 7.40881e-05 1 
0.0100075 -0.0553549 0.998417 
0.0191412 -0.0756358 0.996952 
0.0181334 -0.0761488 0.996932 
0.0226773 -0.0668441 0.997506 
0.0209523 -0.0550834 0.998262 
0.0239833 -0.0426974 0.9988 
0.0231557 -0.0340398 0.999152 
0.0265827 -0.0275247 0.999268 
0.0253783 -0.0227999 0.999418 
0.0276439 -0.018171 0.999453 
0.0287131 -0.0145225 0.999482 
0.0287101 -0.0113349 0.999524 
0.0302237 -0.00836001 0.999508 
0.0311853 -0.00507794 0.999501 
0.03075 -0.00157746 0.999526 
0.0316624 0.00186415 0.999497 
0.0306247 0.0053069 0.999517 
0.0301458 0.00890092 0.999506 
0.0296222 0.0127171 0.99948 
0.0290597 0.0171239 0.999431 
0.0281437 0.0226802 0.999347 
0.0270653 0.0301152 0.99918 
0.025561 0.0400291 0.998872 
0.0238781 0.0533011 0.998293 
0.0214981 0.071007 0.997244 
0.0188196 0.094574 0.99534 
0.0154387 0.125975 0.991913 
0.0117282 0.167578 0.985789 
0.00835755 0.22016 0.975428 
0.00418581 0.287428 0.957793 
-0.000167654 0.387394 0.921914 
-0.00223953 0.495512 0.868598 
-0.00281141 0.609749 0.79259 
-0.00469547 0.646714 0.762718 
-0.00135099 0.845266 0.534343 
0.0014005 0.949859 0.312677 
0.00159002 0.99682 0.0796721 
0.00106173 0.99921 0.0397223 
-4.9891e-05 0.999804 0.0197869 
-0.00212596 0.999502 -0.0314887 
-0.0037205 0.995975 -0.0895581 
-0.00361355 0.950705 -0.310076 
0.000870414 0.843768 -0.536708 
0.00439379 0.645477 -0.763767 
0.00388159 0.532829 -0.846214 
0.00401164 0.491091 -0.871099 
0.00121285 0.386815 -0.922157 
-0.0023237 0.302801 -0.953051 
-0.00707491 0.229427 -0.9733 
-0.0110067 0.176231 -0.984287 
-0.0146031 0.134962 -0.990743 
-0.0186358 0.0941449 -0.995384 
-0.0213221 0.0711214 -0.99724 
-0.0238204 0.0530648 -0.998307 
-0.0259333 0.0385838 -0.998919 
-0.0271295 0.0291531 -0.999207 
-0.0283688 0.0218899 -0.999358 
-0.0294519 0.0164021 -0.999432 
-0.0298081 0.0121904 -0.999481 
-0.0313351 0.00837619 -0.999474 
-0.0305049 0.0047172 -0.999523 
-0.0310088 0.00106883 -0.999519 
-0.030673 -0.00237247 -0.999527 
-0.0306774 -0.00578968 -0.999513 
-0.029974 -0.00883225 -0.999512 
-0.0297854 -0.0118834 -0.999486 
-0.028565 -0.0151073 -0.999478 
-0.0269719 -0.0187241 -0.999461 
-0.0267333 -0.0232929 -0.999371 
-0.0245959 -0.029027 -0.999276 
-0.0257096 -0.0348832 -0.999061 
-0.0225342 -0.0428544 -0.998827 
-0.0233722 -0.0525588 -0.998344 
-0.0202497 -0.0648724 -0.997688 
-0.0193347 -0.0758012 -0.996935 
-0.0155426 -0.0761137 -0.996978 
-0.0112344 -0.0519991 -0.998584 
-4.78736e-05 0.000106589 -1 
5.6771e-05 5.26969e-05 1 
0.00714594 -0.0565235 0.998376 
0.0134825 -0.077017 0.996939 
0.0132639 -0.0776731 0.996891 
0.0167983 -0.0664942 0.997645 