# vtk DataFile Version 3.0 
Exported using Morpho https://github.com/Morpho-lang/morpho 
ASCII 
DATASET UNSTRUCTURED_GRID 

POINTS 1978 float 
-8.48528 -2.82843 1.2931e-09 
-8.26603 -2.82843 1.3102e-09 
-8.04343 -2.82843 -4.30508e-09 
-7.76576 -2.82843 -1.11183e-09 
-7.47626 -2.82843 -4.76873e-12 
-7.22613 -2.82843 -6.0373e-10 
-7.00334 -2.82843 -6.69509e-10 
-6.77751 -2.82843 -5.59855e-10 
-6.56069 -2.82843 -3.86351e-10 
-6.34164 -2.82843 -4.90617e-10 
-6.14345 -2.82843 -3.10893e-10 
-5.92605 -2.82843 -3.44022e-10 
-5.71282 -2.82843 -1.35947e-10 
-5.51047 -2.82843 -8.38542e-11 
-5.29451 -2.82843 -8.50622e-11 
-5.08486 -2.82843 -8.86416e-11 
-4.86908 -2.82843 -1.12608e-10 
-4.66394 -2.82843 -1.37948e-10 
-4.44468 -2.82843 -2.38752e-10 
-4.22803 -2.82843 -7.47522e-11 
-4.00868 -2.82843 -6.38334e-11 
-3.79823 -2.82843 4.0528e-11 
-3.58278 -2.82843 4.15425e-11 
-3.37158 -2.82843 -1.12088e-10 
-3.1512 -2.82843 -1.04965e-10 
-2.94144 -2.82843 1.58656e-11 
-2.73224 -2.82843 3.23404e-10 
-2.53601 -2.82843 1.5581e-10 
-2.32279 -2.82843 -5.69084e-10 
-2.11492 -2.82843 -1.0258e-09 
-1.89657 -2.82843 -1.97086e-09 
-1.69281 -2.82843 -1.35064e-09 
-1.49905 -2.82843 4.53868e-10 
-1.28249 -2.82843 -5.20469e-10 
-1.10735 -2.82843 9.08606e-09 
-0.859474 -2.82843 7.62692e-09 
-0.643809 -2.82843 6.52765e-09 
-0.463223 -2.82843 1.29121e-08 
-0.237047 -2.82843 1.15206e-08 
0.0159187 -2.82843 -2.63704e-08 
0.241597 -2.82843 -4.23506e-08 
0.447284 -2.82843 3.49562e-08 
0.665553 -2.82843 9.36796e-10 
0.883959 -2.82843 -9.38148e-09 
1.08762 -2.82843 -3.12438e-09 
1.27291 -2.82843 -7.15807e-10 
1.46281 -2.82843 3.70665e-09 
1.68914 -2.82843 -1.44704e-09 
1.8856 -2.82843 3.6361e-09 
2.10506 -2.82843 2.45294e-09 
2.33414 -2.82843 -2.94521e-10 
2.52732 -2.82843 1.45798e-10 
2.74749 -2.82843 4.67489e-10 
2.96854 -2.82843 5.66973e-12 
3.17782 -2.82843 -6.00997e-11 
3.38365 -2.82843 1.51258e-10 
3.60956 -2.82843 -6.30148e-11 
3.8116 -2.82843 -2.65044e-11 
4.02689 -2.82843 9.76413e-11 
4.25325 -2.82843 1.25352e-10 
4.45245 -2.82843 1.2358e-10 
4.66531 -2.82843 1.35056e-10 
4.87269 -2.82843 5.66287e-11 
5.07631 -2.82843 1.20195e-10 
5.28991 -2.82843 1.07788e-10 
5.50068 -2.82843 6.86639e-11 
5.70332 -2.82843 2.71781e-10 
5.92155 -2.82843 7.79854e-11 
6.14224 -2.82843 3.12497e-10 
6.34151 -2.82843 2.88174e-10 
6.58089 -2.82843 2.9598e-10 
6.79223 -2.82843 1.26419e-09 
6.9935 -2.82843 3.02496e-10 
7.25531 -2.82843 1.33064e-10 
7.48758 -2.82843 8.85882e-10 
7.73279 -2.82843 5.20804e-10 
8.00332 -2.82843 6.11646e-09 
8.18757 -2.82843 -4.26606e-09 
8.48528 -2.82843 -3.11201e-09 
-8.48528 -2.59865 -6.94761e-11 
-8.25605 -2.58407 -2.27198e-09 
-8.02805 -2.58209 -3.3689e-09 
-7.79586 -2.62682 -1.60876e-09 
-7.53141 -2.64002 -2.09754e-09 
-7.23733 -2.60582 -1.95599e-09 
-6.99719 -2.59654 -1.64148e-09 
-6.77929 -2.59301 -1.38233e-09 
-6.54336 -2.60218 -1.01854e-09 
-6.33319 -2.57479 -9.75464e-10 
-6.10906 -2.60023 -6.55796e-10 
-5.89072 -2.59275 -5.28025e-10 
-5.68135 -2.5783 -4.2382e-10 
-5.46441 -2.59545 -2.41006e-10 
-5.24959 -2.5888 -1.3497e-10 
-5.03143 -2.59599 1.30121e-12 
-4.82125 -2.58384 1.19809e-10 
-4.60214 -2.59911 2.82734e-10 
-4.38222 -2.59508 4.20107e-10 
-4.1621 -2.59629 5.93343e-10 
-3.94953 -2.58451 8.25243e-10 
-3.7359 -2.58985 1.09029e-09 
-3.52344 -2.58768 1.49049e-09 
-3.30657 -2.6008 1.80216e-09 
-3.09361 -2.59493 2.37394e-09 
-2.88221 -2.59933 2.73549e-09 
-2.68058 -2.59064 3.34431e-09 
-2.47138 -2.61233 3.62022e-09 
-2.2565 -2.60515 3.48537e-09 
-2.04357 -2.61571 3.12674e-09 
-1.829 -2.59823 2.692e-09 
-1.6257 -2.58335 1.3983e-09 
-1.42261 -2.60488 1.4763e-09 
-1.24166 -2.53115 -9.03137e-10 
-1.01586 -2.62626 5.078e-09 
-0.79023 -2.5764 7.67821e-09 
-0.602173 -2.48549 1.36624e-09 
-0.399807 -2.51595 7.66756e-09 
-0.1785 -2.53681 5.09867e-09 
0.0148652 -2.45308 2.10613e-10 
0.205803 -2.53857 -1.7094e-08 
0.419027 -2.51221 -6.73636e-09 
0.62187 -2.566 -1.24088e-08 
0.845917 -2.57654 -8.17267e-09 
1.06928 -2.58145 1.46907e-09 
1.27669 -2.58489 -3.3388e-09 
1.49066 -2.62466 1.34956e-09 
1.70768 -2.59897 -1.29341e-09 
1.93009 -2.62016 -2.20717e-09 
2.16282 -2.62729 -2.87517e-09 
2.37015 -2.58758 -4.00546e-09 
2.58014 -2.61144 -2.97442e-09 
2.80334 -2.61027 -3.06224e-09 
3.0109 -2.59324 -2.49609e-09 
3.21849 -2.586 -2.05007e-09 
3.44077 -2.60633 -1.54135e-09 
3.64684 -2.57823 -1.29879e-09 
3.86144 -2.59294 -8.99883e-10 
4.08912 -2.60504 -6.62595e-10 
4.29755 -2.575 -5.47332e-10 
4.51304 -2.59348 -3.07726e-10 
4.72679 -2.58827 -1.97527e-10 
4.93936 -2.58578 -5.55404e-11 
5.1539 -2.59751 7.73488e-11 
5.37254 -2.59394 1.74804e-10 
5.58343 -2.58333 3.3611e-10 
5.79934 -2.59907 4.78755e-10 
6.02407 -2.59916 5.95674e-10 
6.2375 -2.57143 8.74614e-10 
6.45729 -2.61272 9.73094e-10 
6.68518 -2.58044 1.25383e-09 
6.89452 -2.56476 1.6828e-09 
7.12162 -2.62488 1.78578e-09 
7.37255 -2.5963 2.19837e-09 
7.61193 -2.60741 2.24146e-09 
7.86939 -2.62823 2.10878e-09 
8.07947 -2.5333 3.06153e-09 
8.3017 -2.64167 2.39295e-09 
8.48528 -2.52777 4.78287e-10 
-8.48528 -2.36263 -1.97022e-09 
-8.23932 -2.3515 -1.87329e-09 
-7.99635 -2.34627 -1.80246e-09 
-7.76031 -2.4077 -1.81138e-09 
-7.56478 -2.25459 -1.12704e-09 
-7.46241 -2.45607 -2.50303e-09 
-7.18038 -2.39338 -2.04466e-09 
-6.95006 -2.34533 -1.26543e-09 
-6.70862 -2.38122 -1.27662e-09 
-6.48552 -2.35422 -9.15406e-10 
-6.24008 -2.35885 -7.1906e-10 
-6.02359 -2.36351 -5.53266e-10 
-5.80736 -2.34643 -3.92265e-10 
-5.57875 -2.3531 -2.86621e-10 
-5.36436 -2.35771 -1.60392e-10 
-5.14015 -2.36192 -5.31543e-11 
-4.92749 -2.34982 5.95607e-11 
-4.70374 -2.36299 1.67815e-10 
-4.48537 -2.36704 3.03183e-10 
-4.26241 -2.36526 4.52154e-10 
-4.04833 -2.34968 6.18367e-10 
-3.83111 -2.34875 8.35384e-10 
-3.61838 -2.35041 1.11257e-09 
-3.40038 -2.36381 1.45032e-09 
-3.18895 -2.36586 1.84577e-09 
-2.97367 -2.36922 2.22264e-09 
-2.76725 -2.3583 2.51043e-09 
-2.55645 -2.37834 2.90743e-09 
-2.34918 -2.39348 3.19145e-09 
-2.12438 -2.38588 2.95012e-09 
-1.91537 -2.3884 2.37648e-09 
-1.6907 -2.3561 4.30008e-10 
-1.46984 -2.35421 -2.58461e-09 
-1.27304 -2.26853 2.97642e-09 
-1.05347 -2.39345 -7.20106e-09 
-0.862133 -2.30846 -1.97818e-09 
-0.64428 -2.22289 -1.9087e-10 
-0.415949 -2.18956 -4.8012e-09 
-0.205184 -2.20067 -1.60399e-09 
0.038145 -2.15801 1.07659e-08 
0.266308 -2.22702 2.16282e-08 
0.459431 -2.13635 -2.56159e-09 
0.626249 -2.27379 -1.51111e-08 
0.830541 -2.31482 9.29335e-09 
1.0533 -2.33094 3.42737e-09 
1.26666 -2.32668 6.69134e-09 
1.47241 -2.41195 8.49671e-10 
1.66717 -2.35765 -1.55006e-09 
1.87353 -2.39521 -2.86218e-09 
2.08545 -2.41843 -3.71564e-09 
2.2963 -2.37981 -3.08895e-09 
2.5273 -2.37502 -3.01589e-09 
2.73448 -2.39564 -2.70297e-09 
2.94907 -2.35857 -2.31619e-09 
3.1533 -2.35013 -1.82673e-09 
3.37173 -2.37457 -1.54977e-09 
3.57705 -2.34106 -1.12373e-09 
3.79069 -2.35103 -8.77587e-10 
4.00744 -2.37663 -6.86389e-10 
4.21689 -2.34132 -4.47458e-10 
4.43864 -2.3522 -3.20283e-10 
4.64898 -2.35173 -1.93421e-10 
4.86259 -2.35134 -8.48218e-11 
5.08023 -2.358 8.06989e-12 
5.29216 -2.36695 1.23758e-10 
5.50824 -2.34887 2.24079e-10 
5.72705 -2.35979 3.46899e-10 
5.94337 -2.37259 5.04638e-10 
6.15943 -2.34188 6.16004e-10 
6.39326 -2.36361 8.08421e-10 
6.60247 -2.36258 1.03677e-09 
6.82903 -2.31639 1.10699e-09 
7.06001 -2.37284 1.56452e-09 
7.27958 -2.39416 1.96977e-09 
7.54162 -2.37607 1.83944e-09 
7.78533 -2.40897 1.94349e-09 
7.99916 -2.31167 1.35371e-09 
8.26071 -2.371 1.84877e-09 
8.48528 -2.28471 7.27023e-10 
-8.48528 -2.10585 -1.42398e-09 
-8.26735 -2.11987 -8.29719e-10 
-8.03777 -2.10718 -3.63379e-10 
-7.79262 -2.15419 -5.31917e-10 
-7.516 -2.03627 -4.74287e-10 
-7.31295 -2.22772 -1.06904e-09 
-7.07044 -2.13528 -7.73031e-10 
-6.80167 -2.14211 -6.04257e-10 
-6.58943 -2.13186 -5.32364e-10 
-6.3478 -2.14478 -4.19007e-10 
-6.11985 -2.11746 -3.20539e-10 
-5.91406 -2.11508 -2.38273e-10 
-5.68843 -2.12619 -1.6922e-10 
-5.46774 -2.11565 -9.07428e-11 
-5.2513 -2.13225 -3.52013e-11 
-5.03855 -2.11681 1.98362e-11 
-4.81539 -2.12908 6.85279e-11 
-4.59809 -2.13297 1.26853e-10 
-4.37984 -2.13743 1.99838e-10 
-4.16821 -2.11928 2.76114e-10 
-3.95195 -2.11377 3.90372e-10 
-3.73854 -2.11138 5.26658e-10 
-3.52258 -2.12495 7.03253e-10 
-3.31255 -2.1295 8.86923e-10 
-3.10025 -2.13881 1.10491e-09 
-2.89381 -2.13139 1.25213e-09 
-2.67918 -2.13709 1.48871e-09 
-2.47317 -2.15252 1.66335e-09 
-2.26139 -2.17651 1.97008e-09 
-2.04069 -2.14849 1.51026e-09 
-1.82736 -2.16107 6.71432e-10 
-1.59158 -2.12811 -4.25495e-10 
-1.39652 -2.05835 -6.91816e-09 
-1.17311 -1.93782 2.33268e-09 
-1.07975 -2.13143 -1.09329e-08 
-0.837495 -2.04834 1.37572e-08 
-0.592356 -1.94468 -1.85894e-08 
-0.347801 -1.88369 -2.39386e-09 
-0.100504 -1.90353 -1.91589e-09 
0.0688027 -1.64706 -5.38373e-09 
0.203718 -1.90344 -2.75893e-09 
0.308182 -1.59948 4.8624e-09 
0.479565 -1.8769 5.34279e-09 
0.742796 -1.99201 3.41688e-08 
0.958319 -2.06659 -7.52851e-09 
1.18507 -2.07128 2.45829e-09 
1.44511 -2.17375 1.67482e-09 
1.67912 -2.13065 -3.84926e-10 
1.89673 -2.1629 -1.41097e-10 
2.10934 -2.18954 -1.58492e-09 
2.3517 -2.17626 -1.86754e-09 
2.57245 -2.1439 -1.46803e-09 
2.77675 -2.16039 -1.8547e-09 
2.98416 -2.11234 -1.09638e-09 
3.20622 -2.13115 -1.0273e-09 
3.40669 -2.12563 -8.06258e-10 
3.62328 -2.10729 -5.82032e-10 
3.84113 -2.12487 -4.6765e-10 
4.04374 -2.12844 -3.41218e-10 
4.27243 -2.11599 -2.19436e-10 
4.4832 -2.11164 -1.42035e-10 
4.69789 -2.11525 -8.4639e-11 
4.91592 -2.12249 -4.17342e-11 
5.13012 -2.12205 7.06717e-12 
5.34164 -2.13146 6.31309e-11 
5.56595 -2.12126 1.20281e-10 
5.78311 -2.12852 1.93555e-10 
5.99353 -2.12957 2.71332e-10 
6.2352 -2.12857 3.57188e-10 
6.44549 -2.11215 4.27299e-10 
6.65909 -2.11832 5.33961e-10 
6.91839 -2.10734 6.27462e-10 
7.13561 -2.13585 8.43008e-10 
7.36864 -2.18206 1.0581e-09 
7.56187 -2.0862 5.00276e-10 
7.74345 -2.17769 6.58986e-10 
7.9578 -2.07818 4.81571e-11 
8.2049 -2.14839 5.05006e-10 
8.48528 -2.08844 1.29915e-09 
-8.48528 -1.81374 -1.12682e-09 
-8.29518 -1.87336 -5.5172e-10 
-7.89585 -1.90876 2.64584e-10 
[...]
POINT_DATA 1978 
VECTORS vectors float
0.000309897 -0.00704265 0.999976 
0.00372576 -0.068333 0.997654 
0.00301857 -0.0796958 0.996812 
0.00385669 -0.0677531 0.997691 
0.00364389 -0.0514838 0.998664 
0.00309639 -0.0394231 0.999215 
0.00287893 -0.0313655 0.999502 
0.00278607 -0.0241348 0.999702 
0.00285072 -0.0182193 0.999828 
0.00292166 -0.0138822 0.999898 
0.00298173 -0.0109419 0.999934 
0.00286264 -0.00803171 0.999962 
0.00294651 -0.0052095 0.99998 
0.00300921 -0.00328405 0.999988 
0.00294559 -0.00173191 0.999992 
0.00299133 -0.000275663 0.999994 
0.00300356 0.00120567 0.999993 
0.00302289 0.00269861 0.99999 
0.00294203 0.00466369 0.999983 
0.00293261 0.00717857 0.999968 
0.0029092 0.0102469 0.999941 
0.00288402 0.0139405 0.999897 
0.00281484 0.0189794 0.999814 
0.00272336 0.0257829 0.999662 
0.00260826 0.0356979 0.999358 
0.00251991 0.0485289 0.998817 
0.00239781 0.0656543 0.997839 
0.00218848 0.0866886 0.996232 
0.00185968 0.116419 0.993198 
0.00150735 0.154278 0.988026 
0.00113395 0.204865 0.978789 
0.000678019 0.264573 0.964365 
7.64849e-05 0.336279 0.941763 
-0.000518971 0.43342 0.901192 
-0.00102158 0.52621 0.850354 
-0.0012501 0.663589 0.748096 
-0.00164348 0.785302 0.619111 
-0.0013868 0.876321 0.481726 
-0.000828378 0.965071 0.261986 
5.14742e-05 0.999624 -0.0274211 
0.000828211 0.964846 -0.262813 
0.00126366 0.889291 -0.457339 
0.00150079 0.782095 -0.623156 
0.00143703 0.649668 -0.760216 
0.000993832 0.532665 -0.846325 
0.000534271 0.436784 -0.899566 
-1.51055e-05 0.353067 -0.935598 
-0.000586403 0.264734 -0.964321 
-0.00122237 0.207219 -0.978294 
-0.00147486 0.157036 -0.987591 
-0.00186695 0.115378 -0.993319 
-0.0022159 0.0881415 -0.996105 
-0.00227907 0.0643442 -0.997924 
-0.00250467 0.0463088 -0.998923 
-0.00268799 0.0338948 -0.99942 
-0.00275104 0.0251584 -0.999678 
-0.00278601 0.0181348 -0.99983 
-0.0029387 0.0135191 -0.999903 
-0.00286391 0.00988703 -0.999945 
-0.00291845 0.00671459 -0.999971 
-0.00303603 0.00464117 -0.999983 
-0.00296773 0.00283456 -0.99999 
-0.00302385 0.00119176 -0.999993 
-0.00301041 -0.000184418 -0.999994 
-0.00296086 -0.00168681 -0.999992 
-0.00302829 -0.00323478 -0.999989 
-0.0029755 -0.00490587 -0.999982 
-0.00287959 -0.00738875 -0.999967 
-0.00296432 -0.010473 -0.999939 
-0.00285141 -0.0139099 -0.999897 
-0.00277936 -0.0193693 -0.999807 
-0.00296628 -0.0247615 -0.999687 
-0.00288372 -0.0307749 -0.99952 
-0.00288235 -0.0408118 -0.99916 
-0.0029869 -0.0518348 -0.998649 
-0.00295812 -0.0658703 -0.997821 
-0.00276102 -0.079911 -0.996796 
-0.00331509 -0.073695 -0.997273 
0.00117662 -0.00430387 -0.999991 
-0.00138853 0.000526594 1 
0.0248554 -0.0544918 0.998205 
0.0350364 -0.0714534 0.996829 
0.0316416 -0.0681759 0.997172 
0.0321832 -0.0549352 0.997971 
0.0366983 -0.0413744 0.99847 
0.0420582 -0.0321502 0.998598 
0.0419256 -0.0251864 0.998804 
0.0432488 -0.0190399 0.998883 
0.0477117 -0.0147746 0.998752 
0.0450844 -0.011013 0.998923 
0.0467584 -0.00803513 0.998874 
0.0494623 -0.00557225 0.998761 
0.0476523 -0.00343373 0.998858 
0.0491774 -0.00170494 0.998789 
0.048331 3.36145e-06 0.998832 
0.0501823 0.00170773 0.998739 
0.047609 0.00364021 0.99886 
0.0477069 0.00598492 0.998844 
0.0467818 0.00884014 0.998866 
0.0474045 0.0123271 0.9988 
0.0455148 0.0167434 0.998824 
0.0446896 0.0227163 0.998743 
0.0413437 0.0308875 0.998668 
0.0404126 0.0421581 0.998293 
0.0373917 0.0569871 0.997675 
0.035394 0.0759853 0.996481 
0.0293782 0.100507 0.994503 
0.0248055 0.13428 0.990633 
0.0183446 0.176909 0.984056 
0.0126151 0.232357 0.972549 
0.00586137 0.298526 0.954384 
-0.00117883 0.378617 0.925553 
-0.0076929 0.468309 0.883531 
-0.010823 0.585456 0.810632 
-0.0144004 0.709303 0.704757 
-0.0165491 0.812234 0.583097 
-0.0120558 0.906868 0.421241 
-0.00583747 0.979666 0.200551 
1.66012e-05 0.999901 -0.0140732 
0.00621122 0.973007 -0.230689 
0.0112872 0.904137 -0.427092 
0.0126967 0.808063 -0.588959 
0.0126681 0.679712 -0.73337 
0.0103711 0.551185 -0.834318 
0.00571263 0.44679 -0.894621 
-0.00108157 0.345351 -0.938473 
-0.00860342 0.269376 -0.962997 
-0.0145288 0.205253 -0.978601 
-0.0205879 0.15212 -0.988148 
-0.0290001 0.117041 -0.992704 
-0.0306571 0.0871075 -0.995727 
-0.0349188 0.0634794 -0.997372 
-0.0393125 0.047131 -0.998115 
-0.0424303 0.0350439 -0.998485 
-0.0417628 0.0252349 -0.998809 
-0.0466927 0.0189963 -0.998729 
-0.0458065 0.0138824 -0.998854 
-0.0451763 0.00982392 -0.998931 
-0.0502086 0.00707616 -0.998714 
-0.048222 0.00461274 -0.998826 
-0.049377 0.00257874 -0.998777 
-0.0501601 0.000756415 -0.998741 
-0.0482185 -0.000957273 -0.998837 
-0.0485705 -0.00271531 -0.998816 
-0.0495477 -0.00455687 -0.998762 
-0.0464417 -0.00667686 -0.998899 
-0.0455964 -0.00951307 -0.998915 
-0.0483447 -0.0130038 -0.998746 
-0.0415999 -0.0171533 -0.998987 
-0.0449043 -0.0227589 -0.998732 
-0.0453978 -0.0287983 -0.998554 
-0.0364625 -0.0363041 -0.998676 
-0.0386337 -0.0472259 -0.998137 
-0.0355605 -0.0591755 -0.997614 
-0.0320721 -0.0712007 -0.996946 
-0.0374858 -0.0690228 -0.996911 
-0.0185537 -0.0479037 -0.99868 
0.00356792 0.000134658 -0.999994 
-0.00304342 -0.00200429 0.999993 
0.0334581 -0.0536319 0.998001 
0.0465321 -0.0701923 0.996448 
0.0479083 -0.0661296 0.99666 
0.0532522 -0.0591511 0.996828 
0.049765 -0.052149 0.997399 
0.0548093 -0.0400582 0.997693 
0.0582168 -0.0317927 0.997798 
0.0590579 -0.0242885 0.997959 
0.0615808 -0.018841 0.997924 
0.0630472 -0.0140165 0.997912 
0.0639922 -0.010594 0.997894 
0.0652574 -0.00780086 0.997838 
0.0660907 -0.00524369 0.9978 
0.0667489 -0.00317655 0.997765 
0.0672134 -0.00113835 0.997738 
0.0677715 0.000831166 0.997701 
0.0672838 0.00306461 0.997729 
0.066587 0.0054961 0.997766 
0.0656434 0.00839815 0.997808 
0.0647562 0.0118503 0.997831 
0.0631615 0.0162181 0.997872 
0.0613167 0.0218871 0.997878 
0.058774 0.0296841 0.99783 
0.0561395 0.0400894 0.997618 
0.0527089 0.0543535 0.99713 
0.0488337 0.0727078 0.996157 
0.0433908 0.0962874 0.994407 
0.0369127 0.125841 0.991364 
0.0288413 0.167888 0.985384 
0.0203173 0.217718 0.9758 
0.0103379 0.286993 0.957877 
0.000459475 0.369775 0.929121 
-0.00730403 0.462363 0.886661 
-0.0140287 0.567433 0.8233 
-0.017585 0.680889 0.732175 
-0.0174603 0.799113 0.600927 
-0.0139176 0.904127 0.427037 
-0.0085679 0.972939 0.230901 
-0.00136998 0.999838 -0.0179574 
0.00619443 0.966147 -0.257916 
0.0107045 0.889251 -0.457294 
0.0148498 0.799176 -0.600913 
0.0156838 0.686286 -0.727162 
0.0128968 0.564176 -0.825555 
0.00680273 0.455955 -0.889976 
-0.00108149 0.363588 -0.931559 
-0.00947926 0.294955 -0.955464 
-0.018702 0.228285 -0.973415 
-0.0271279 0.175562 -0.984095 
-0.0352321 0.135578 -0.99014 
-0.0421827 0.100137 -0.994079 
-0.0471743 0.0750377 -0.996064 
-0.0523974 0.0559754 -0.997056 
-0.056023 0.0421177 -0.997541 
-0.0583462 0.0306123 -0.997827 
-0.0613745 0.0232393 -0.997844 
-0.0630108 0.0171518 -0.997866 
-0.0638415 0.012441 -0.997883 
-0.0660919 0.00921366 -0.997771 
-0.0668191 0.00618068 -0.997746 
-0.0674995 0.00373992 -0.997712 
-0.0679286 0.00150651 -0.997689 
-0.0676929 -0.00060688 -0.997706 
-0.0671196 -0.0025501 -0.997742 
-0.0669034 -0.0046265 -0.997749 
-0.0656852 -0.00683449 -0.997817 
-0.0642157 -0.00938223 -0.997892 
-0.0638713 -0.0127211 -0.997877 
-0.0618345 -0.0169423 -0.997943 
-0.0605452 -0.0216828 -0.99793 
-0.0597005 -0.0281613 -0.997819 
-0.0568018 -0.0355482 -0.997753 
-0.0543361 -0.0443414 -0.997538 
-0.051836 -0.0568997 -0.997033 
-0.0485943 -0.0677339 -0.996519 
-0.0470892 -0.0703171 -0.996413 
-0.0312622 -0.0493963 -0.99829 
0.00185876 -0.00157005 -0.999997 
-0.0036587 -0.00274635 0.999987 
0.028182 -0.0485199 0.998425 
0.0421463 -0.0690056 0.996726 
0.0487133 -0.0685581 0.996457 
0.0495015 -0.0585371 0.997057 
0.055545 -0.0472417 0.997338 
0.0560704 -0.0376267 0.997718 
0.0585209 -0.0283631 0.997883 
0.0599578 -0.0225446 0.997946 
0.0618081 -0.0170818 0.997942 
0.0623163 -0.0131367 0.99797 
0.0631805 -0.0101307 0.997951 
0.0644744 -0.00730675 0.997893 
0.0650403 -0.00495555 0.99787 
0.0662009 -0.00266772 0.997803 
0.0662175 -0.000447291 0.997805 
0.066646 0.00206539 0.997775 
0.0664373 0.00468897 0.99778 
0.0657814 0.00759683 0.997805 
0.0641657 0.0109308 0.997879 
0.0624959 0.0150314 0.997932 
0.0606124 0.0202591 0.997956 
0.0587592 0.0272639 0.9979 
0.0562707 0.0365631 0.997746 
0.0533375 0.0491228 0.997368 
0.0493649 0.0655379 0.996628 
0.0446568 0.0874368 0.995169 
0.0393056 0.1142 0.99268 
0.0329194 0.148329 0.98839 
0.024133 0.195665 0.980374 
0.0153756 0.253227 0.967285 
0.00487907 0.335302 0.942098 
-0.00295033 0.417887 0.908494 
-0.00913898 0.525709 0.850615 
-0.012774 0.566956 0.823649 
-0.015491 0.69536 0.718495 
-0.0137474 0.823664 0.566912 
-0.0101496 0.926155 0.377005 
-0.00516544 0.99219 0.124633 
-0.000504809 0.996576 -0.0826815 
0.00285957 0.974376 -0.22491 
0.0041741 0.943424 -0.331562 
0.00919678 0.866006 -0.49995 
0.0125889 0.736062 -0.676797 
0.0127302 0.622514 -0.782505 
0.00861635 0.507426 -0.861652 
0.000357333 0.387615 -0.921821 
-0.00860198 0.304603 -0.952441 
-0.0178923 0.236511 -0.971464 
-0.0270585 0.179883 -0.983316 
-0.0358251 0.132383 -0.990551 
-0.0418726 0.1002 -0.994086 
-0.0477299 0.0754874 -0.996004 
-0.0506388 0.0578056 -0.997043 
-0.0550441 0.0421144 -0.997595 
-0.05758 0.0318709 -0.997832 
-0.0595393 0.0237247 -0.997944 
-0.0620635 0.0174621 -0.997919 
-0.0636015 0.0131463 -0.997889 
-0.064711 0.0093258 -0.997861 
-0.0654561 0.00632307 -0.997835 
-0.0661365 0.00356319 -0.997804 
-0.0665941 0.000966853 -0.99778 
-0.0663816 -0.00140422 -0.997793 
-0.0661428 -0.00361344 -0.997804 
-0.0650995 -0.00601741 -0.997861 
-0.0643083 -0.00844883 -0.997894 
-0.0632585 -0.0111917 -0.997934 
-0.0620231 -0.0150548 -0.997961 
-0.0602746 -0.0193096 -0.997995 
-0.059047 -0.0244449 -0.997956 
-0.0569524 -0.032283 -0.997855 
-0.0558406 -0.0401504 -0.997632 
-0.0547404 -0.05024 -0.997236 
-0.0506317 -0.060437 -0.996887 
-0.0503679 -0.0675754 -0.996442 
-0.0446787 -0.0722112 -0.996388 
-0.0353935 -0.0571653 -0.997737 
0.0011456 -0.00127515 -0.999999 
-0.00367439 -0.00267838 0.999987 
0.021255 -0.0458767 0.998721 
0.0405501 -0.073238 0.99649 
0.0430383 -0.0670003 0.996824 
0.0411873 -0.0561054 0.997575 
0.0503652 -0.0476247 0.997595 
0.045313 -0.0424156 0.998072 
0.0513235 -0.0339529 0.998105 
0.0503158 -0.0271344 0.998365 
0.0535334 -0.0210976 0.998343 
0.0540089 -0.0165425 0.998403 
0.0530273 -0.0130812 0.998507 
0.0552433 -0.00990095 0.998424 
0.0561926 -0.00722816 0.998394 
0.0567369 -0.00464061 0.998378 
0.0572836 -0.00222025 0.998356 
0.0579762 0.000577774 0.998318 
0.0579762 0.00344087 0.998312 
0.0577984 0.0064575 0.998307 
0.0564198 0.00966458 0.99836 
0.0549102 0.0134541 0.998401 
0.0531909 0.0181184 0.99842 
0.0516845 0.0242286 0.99837 
0.049741 0.0321794 0.998244 
0.0475117 0.042903 0.997949 
0.0444369 0.0568277 0.997395 
0.0407718 0.0755763 0.996306 
0.0361136 0.0995339 0.994379 
0.0313478 0.129374 0.9911 
0.0255605 0.167376 0.985562 
0.0170611 0.222925 0.974686 
0.00958512 0.287578 0.957709 
0.0018257 0.36385 0.931456 
-0.00447845 0.456874 0.88952 
-0.0122424 0.654062 0.756342 
-0.0114114 0.761642 0.647897 
-0.00908201 0.877474 0.479537 
-0.00569722 0.93692 0.349496 
-0.00563544 0.9753 0.220814 
-0.00188776 0.9997 0.0244296 
0.00116427 0.972292 -0.233766 
0.00472062 0.881666 -0.47185 
0.00865905 0.804147 -0.594367 
0.00982151 0.687727 -0.725903 
0.00868873 0.578266 -0.815802 
0.00493881 0.482636 -0.875807 
0.00221493 0.417647 -0.908607 
-0.00342125 0.349034 -0.937104 
-0.0112688 0.270517 -0.962649 
-0.0196083 0.208416 -0.977844 
-0.0276698 0.158178 -0.987023 
-0.0332266 0.120187 -0.992195 
-0.0384836 0.088486 -0.995334 
-0.0416806 0.0687972 -0.99676 
-0.0461522 0.0498182 -0.997691 
-0.0482092 0.037461 -0.998135 
-0.050602 0.028235 -0.99832 
-0.0529971 0.0207572 -0.998379 
-0.0541156 0.0156865 -0.998411 
-0.056353 0.011564 -0.998344 
-0.0561174 0.00802235 -0.998392 
-0.0570045 0.00488142 -0.998362 
-0.0576825 0.0018827 -0.998333 
-0.0575171 -0.000869597 -0.998344 
-0.0572739 -0.00349891 -0.998352 
-0.0571026 -0.00591955 -0.998351 
-0.0558367 -0.0086193 -0.998403 
-0.0546821 -0.0114195 -0.998439 
-0.0548988 -0.0146355 -0.998385 
-0.0517112 -0.0190871 -0.99848 
-0.0505468 -0.0241112 -0.998431 
-0.0507733 -0.0302123 -0.998253 
-0.0478225 -0.0393283 -0.998081 
-0.0482383 -0.0488026 -0.997643 
-0.0434197 -0.0607424 -0.997209 
-0.0419148 -0.0712105 -0.99658 
-0.0352601 -0.0719223 -0.996787 
-0.0269924 -0.0518324 -0.998291 
0.00207135 -0.000733803 -0.999997 
-0.00194829 -0.00172438 0.999996 
0.0167799 -0.0494028 0.998638 
0.0314393 -0.0681233 0.997182 
0.0318601 -0.0752363 0.996657 
0.0345028 -0.068037 0.997086 
0.0361861 -0.0504002 0.998073 
0.0390256 -0.038047 0.998514 
0.0413342 -0.0315378 0.998648 
0.0426801 -0.0241732 0.998796 
0.043971 -0.0194086 0.998844 
0.043468 -0.0156357 0.998933 
0.0443874 -0.0119662 0.998943 
0.0459349 -0.00912538 0.998903 
0.0470025 -0.00636843 0.998874 
0.0465608 -0.0036366 0.998909 
0.0480626 -0.000724222 0.998844 
0.0479913 0.00241138 0.998845 
0.0478152 0.00565368 0.99884 
0.0466164 0.00892481 0.998873 
0.0456335 0.0125775 0.998879 
0.0442775 0.0169757 0.998875 
0.0430367 0.022668 0.998816 
0.0413138 0.0301326 0.998692 
0.0395657 0.0400963 0.998412 
0.0369606 0.0532607 0.997896 
0.0341143 0.0707273 0.996912 
0.0301714 0.093601 0.995153 
0.0257546 0.123742 0.99198 
0.0212203 0.160892 0.986744 
0.0154242 0.209841 0.977614 
0.00749115 0.285825 0.958253 
0.000410805 0.378151 0.925744 
-0.00496182 0.491946 0.870612 
-0.00696108 0.60201 0.798458 
-0.00890969 0.576975 0.816713 
-0.00895023 0.686839 0.726754 
-0.00815795 0.808017 0.589103 
-0.00475136 0.868263 0.496082 
-0.00202392 0.976137 0.217148 
0.000211874 0.996943 -0.0781344 
0.000429714 0.999484 -0.0321353 
0.00178792 0.95883 -0.283976 
0.0029931 0.868979 -0.49484 
0.0062919 0.746253 -0.665632 
0.00685203 0.632853 -0.774241 
0.00520127 0.527579 -0.84949 
0.000922188 0.404754 -0.914425 
-0.0044684 0.320411 -0.947268 
-0.0107118 0.249915 -0.968209 
-0.0177689 0.192532 -0.98113 
-0.0232068 0.150634 -0.988317 
-0.02875 0.112111 -0.99328 
-0.0303691 0.0863003 -0.995806 
-0.0357955 0.0634215 -0.997345 
-0.0378929 0.0477959 -0.998138 
-0.0396908 0.0359066 -0.998567 
-0.0426731 0.0265628 -0.998736 
-0.0435951 0.0201841 -0.998845 
-0.0449046 0.0151192 -0.998877 
-0.0468317 0.0111135 -0.998841 
-0.0463287 0.00749996 -0.998898 
-0.0473664 0.00412957 -0.998869 
-0.0473445 0.00100801 -0.998878 
-0.0474645 -0.00203452 -0.998871 
-0.0468586 -0.00485104 -0.99889 
-0.0471149 -0.00749024 -0.998861 
-0.0453923 -0.0103163 -0.998916 
-0.044863 -0.0133822 -0.998904 
-0.0443504 -0.0167417 -0.998876 
-0.0413733 -0.0214774 -0.998913 
-0.0407977 -0.0270451 -0.998801 
-0.0416145 -0.0338552 -0.99856 
-0.037439 -0.0420188 -0.998415 
-0.0390976 -0.0504917 -0.997959 
-0.0347319 -0.0628203 -0.99742 
-0.0341217 -0.0730061 -0.996748 
-0.0282758 -0.0745415 -0.996817 
-0.0196505 -0.0500617 -0.998553 
0.00137444 -0.00107331 -0.999998 
-0.00089305 -0.00107143 0.999998 
0.0140287 -0.056982 0.998277 
0.0244641 -0.0733656 0.997005 
0.0251766 -0.0748763 0.996875 
0.0299518 -0.0623558 0.997604 
0.0270697 -0.0529738 0.998229 
0.0313743 -0.0430392 0.998581 
0.0299943 -0.0345887 0.998952 
0.034408 -0.0283549 0.999006 
0.0337126 -0.0227315 0.999173 
0.0343222 -0.0186676 0.999237 
0.0358816 -0.0146673 0.999248 
0.0359411 -0.0114909 0.999288 
0.0376609 -0.00862644 0.999253 
0.0381654 -0.00582183 0.999255 
0.0382453 -0.00260981 0.999265 
0.0392212 0.000530256 0.99923 
0.0390097 0.00393812 0.999231 
0.0380279 0.00723002 0.999251 
0.0373337 0.0107541 0.999245 
0.03655 0.0146951 0.999224 
0.035634 0.0195809 0.999173 
0.0343715 0.025857 0.999075 
0.032924 0.0343112 0.998869 
0.0311035 0.0454049 0.998484 
0.0287892 0.0605225 0.997752 
0.0259138 0.0801603 0.996445 
0.0223518 0.106852 0.994024 
0.0181849 0.141579 0.98976 
0.0140948 0.184585 0.982716 
0.00904318 0.245426 0.969373 
0.00285211 0.328321 0.944562 
-0.00229269 0.440975 0.897516 
-0.00423384 0.543072 0.839676 
-0.00616277 0.737511 0.675307 
-0.00284617 0.862194 0.50657 
0.000340082 0.928339 0.371736 
-6.83126e-05 0.986212 0.165512 
-0.000794882 0.95539 0.295353 
0.00116094 0.988429 0.151688 
-0.00132852 0.998926 -0.0463614 
-0.000604559 0.964826 -0.26289 
0.00165514 0.888333 -0.459196 
0.00316517 0.767397 -0.641164 
0.00469258 0.735354 -0.677667 
0.00528766 0.589586 -0.807688 
0.00218739 0.428073 -0.903742 
-0.00171162 0.340659 -0.940186 
-0.00637833 0.268089 -0.963373 
-0.0120215 0.206468 -0.97838 
-0.0165768 0.159683 -0.987029 
-0.02131 0.124801 -0.991953 
-0.0218995 0.102541 -0.994488 
-0.0268082 0.0747901 -0.996839 
-0.0293806 0.0567055 -0.997959 
-0.0311773 0.0423869 -0.998615 
-0.0337158 0.0311974 -0.998944 
-0.0348014 0.023745 -0.999112 
-0.0360575 0.017878 -0.99919 
-0.0371818 0.0132511 -0.999221 
-0.0381613 0.00958002 -0.999226 
-0.0382581 0.00571499 -0.999252 
-0.0383383 0.00232488 -0.999262 
-0.0386032 -0.00109762 -0.999254 
-0.0381073 -0.00426272 -0.999265 
-0.0381016 -0.00728552 -0.999247 
-0.0372364 -0.0100767 -0.999256 
-0.0364927 -0.0132265 -0.999246 
-0.0352033 -0.0167307 -0.99924 
-0.033973 -0.0206709 -0.999209 
-0.0324242 -0.0264749 -0.999124 
-0.0328215 -0.0334316 -0.998902 
-0.0299286 -0.0429222 -0.99863 
-0.0299195 -0.0542957 -0.998077 
-0.0260646 -0.0662401 -0.997463 
-0.0265701 -0.0748997 -0.996837 
-0.0216648 -0.0776262 -0.996747 
-0.0171922 -0.0587356 -0.998126 
0.00085546 -0.000967872 -0.999998 
-0.000562436 -0.000684025 0.999999 
0.010357 -0.0577252 0.998279 
0.0193674 -0.0775724 0.996799 
0.0181912 -0.0771503 0.996854 
0.0227439 -0.0673204 0.997472 
0.0209706 -0.0552521 0.998252 
0.0240148 -0.0427174 0.998799 
0.0231703 -0.0340452 0.999152 
0.0266411 -0.0275366 0.999266 
0.025389 -0.0228171 0.999417 
0.0276927 -0.0181901 0.999451 
0.0287707 -0.0145482 0.99948 
0.028748 -0.0113725 0.999522 
0.0302963 -0.00840479 0.999506 
0.0312566 -0.00511589 0.999498 
0.0308148 -0.00159342 0.999524 
0.0317363 0.00186993 0.999495 
0.0306855 0.0053293 0.999515 
0.0302113 0.00893107 0.999504 
0.029687 0.0127296 0.999478 
0.0291211 0.0171136 0.999429 
0.0282166 0.0226358 0.999346 
0.0271333 0.0300406 0.99918 
0.0256325 0.0399286 0.998874 
0.0239446 0.0531872 0.998297 
0.0215574 0.0708782 0.997252 
0.0188622 0.0944269 0.995353 
0.0154858 0.125739 0.991943 
0.011744 0.167287 0.985838 
0.00837886 0.219747 0.975521 
0.00416321 0.287066 0.957902 
-0.0002361 0.387699 0.921786 
-0.00230186 0.495837 0.868412 
-0.00291532 0.611661 0.791115 
-0.00477445 0.648357 0.761321 
-0.00172216 0.84578 0.533527 
0.00179121 0.938462 0.345378 
0.00114999 0.997731 0.0673114 
0.0012406 0.999174 0.0406118 
0.000183813 0.999864 0.0164754 
-0.00200455 0.999553 -0.0298553 
-0.00409033 0.996349 -0.0852921 
-0.00341963 0.953307 -0.301983 
0.00092264 0.843493 -0.537138 
0.00454249 0.645059 -0.764119 
0.00396011 0.533107 -0.846038 
0.00411119 0.490407 -0.871484 
0.00125429 0.386571 -0.922259 
-0.0023282 0.302164 -0.953253 
-0.00707948 0.229243 -0.973344 
-0.0110398 0.175683 -0.984385 
-0.0146573 0.13454 -0.9908 
-0.0186754 0.0939205 -0.995405 
-0.0214119 0.0708553 -0.997257 
-0.0238822 0.0528769 -0.998315 
-0.0260276 0.0384249 -0.998922 
-0.0272032 0.02904 -0.999208 
-0.0284423 0.0218175 -0.999357 
-0.0295226 0.0163749 -0.99943 
-0.0298705 0.0121933 -0.999479 
-0.0314104 0.00839671 -0.999471 
-0.030572 0.00473743 -0.999521 
-0.0310685 0.00106558 -0.999517 
-0.0307523 -0.00239616 -0.999524 
-0.0307468 -0.00583205 -0.99951 
-0.030031 -0.00887627 -0.99951 
-0.0298476 -0.0119204 -0.999483 
-0.0286165 -0.0151279 -0.999476 
-0.0270027 -0.018739 -0.99946 
-0.0267967 -0.0233072 -0.999369 
-0.0245999 -0.02902 -0.999276 
-0.0257497 -0.034884 -0.99906 
-0.0225635 -0.0428887 -0.998825 
-0.0234021 -0.0526809 -0.998337 
-0.0202772 -0.065246 -0.997663 
-0.0193972 -0.076817 -0.996857 
-0.0157411 -0.0781961 -0.996814 
-0.0117059 -0.0545009 -0.998445 
0.000755557 -0.000631756 -0.999999 
-0.000328768 -0.000673472 1 
0.00741174 -0.0590981 0.998225 
0.0136273 -0.079064 0.996777 
0.0132907 -0.078728 0.996808 