# vtk DataFile Version 3.0 
Exported using Morpho https://github.com/Morpho-lang/morpho 
ASCII 
DATASET UNSTRUCTURED_GRID 

POINTS 1978 float 
-8.48528 -2.82843 -6.13722e-14 
-8.2656 -2.82843 3.84005e-13 
-8.04231 -2.82843 6.40148e-13 
-7.76669 -2.82843 5.9736e-13 
-7.47508 -2.82843 4.71147e-13 
-7.22921 -2.82843 3.03471e-13 
-7.00194 -2.82843 2.66345e-13 
-6.77706 -2.82843 1.90112e-13 
-6.56186 -2.82843 1.57533e-13 
-6.34107 -2.82843 1.19014e-13 
-6.14349 -2.82843 9.14399e-14 
-5.92563 -2.82843 7.48498e-14 
-5.71277 -2.82843 4.77041e-14 
-5.51049 -2.82843 2.72781e-14 
-5.29446 -2.82843 1.83299e-14 
-5.08482 -2.82843 1.66626e-15 
-4.8691 -2.82843 -8.70809e-15 
-4.6639 -2.82843 -2.82931e-14 
-4.44459 -2.82843 -4.40178e-14 
-4.22793 -2.82843 -6.81775e-14 
-4.0085 -2.82843 -8.9573e-14 
-3.79815 -2.82843 -1.19494e-13 
-3.58286 -2.82843 -1.53773e-13 
-3.37149 -2.82843 -2.03802e-13 
-3.15145 -2.82843 -2.54753e-13 
-2.94149 -2.82843 -3.04046e-13 
-2.73256 -2.82843 -3.3853e-13 
-2.53633 -2.82843 -3.83466e-13 
-2.32258 -2.82843 -3.96471e-13 
-2.1152 -2.82843 -3.45827e-13 
-1.89729 -2.82843 -2.55555e-13 
-1.69288 -2.82843 -1.34753e-13 
-1.49972 -2.82843 -5.49109e-14 
-1.28204 -2.82843 -2.65452e-13 
-1.1095 -2.82843 -5.65979e-13 
-0.859317 -2.82843 -1.45235e-12 
-0.6439 -2.82843 -1.47023e-12 
-0.462026 -2.82843 -2.73582e-12 
-0.237541 -2.82843 -2.17783e-12 
0.0146626 -2.82843 1.25482e-12 
0.242657 -2.82843 1.56287e-12 
0.445994 -2.82843 1.66076e-12 
0.666391 -2.82843 1.75834e-12 
0.884534 -2.82843 1.51084e-12 
1.08655 -2.82843 6.1547e-13 
1.27193 -2.82843 2.63287e-13 
1.4685 -2.82843 -6.70323e-14 
1.68711 -2.82843 1.11696e-13 
1.88671 -2.82843 2.35689e-13 
2.10526 -2.82843 3.82326e-13 
2.33381 -2.82843 3.92342e-13 
2.52832 -2.82843 3.78495e-13 
2.74727 -2.82843 3.73844e-13 
2.96895 -2.82843 2.99748e-13 
3.1776 -2.82843 2.33345e-13 
3.38367 -2.82843 1.98304e-13 
3.6096 -2.82843 1.53678e-13 
3.8115 -2.82843 1.11036e-13 
4.02681 -2.82843 9.15496e-14 
4.25314 -2.82843 6.63067e-14 
4.45234 -2.82843 3.89381e-14 
4.66535 -2.82843 2.79599e-14 
4.87251 -2.82843 1.15662e-14 
5.07645 -2.82843 -3.87016e-15 
5.28984 -2.82843 -1.55194e-14 
5.50071 -2.82843 -2.78869e-14 
5.70341 -2.82843 -4.76222e-14 
5.92156 -2.82843 -6.98843e-14 
6.14224 -2.82843 -8.51161e-14 
6.34159 -2.82843 -1.29459e-13 
6.58083 -2.82843 -1.64151e-13 
6.79231 -2.82843 -1.81421e-13 
6.99346 -2.82843 -2.66064e-13 
7.2554 -2.82843 -3.40609e-13 
7.48773 -2.82843 -3.94956e-13 
7.73266 -2.82843 -5.39606e-13 
8.00324 -2.82843 -5.77544e-13 
8.18752 -2.82843 -4.41397e-13 
8.48528 -2.82843 -6.70463e-14 
-8.48528 -2.59842 -1.14124e-14 
-8.25472 -2.58788 -2.14877e-13 
-8.02142 -2.58782 -3.57265e-13 
-7.78379 -2.62372 -1.8888e-13 
-7.5241 -2.64053 -2.34518e-13 
-7.23581 -2.6018 -1.49774e-13 
-6.9919 -2.60173 -2.15697e-13 
-6.77721 -2.5864 -1.046e-13 
-6.54072 -2.60421 -1.20519e-13 
-6.33263 -2.57446 -9.33046e-14 
-6.10885 -2.60144 -6.72178e-14 
-5.89135 -2.59229 -5.20183e-14 
-5.68227 -2.57833 -4.0848e-14 
-5.46454 -2.5959 -2.35793e-14 
-5.24945 -2.58876 -1.31249e-14 
-5.03128 -2.59561 2.56152e-16 
-4.82079 -2.58374 1.18633e-14 
-4.60186 -2.59898 2.81122e-14 
-4.38209 -2.59503 4.15263e-14 
-4.16229 -2.59671 5.93222e-14 
-3.95016 -2.58497 8.1206e-14 
-3.73697 -2.59078 1.08821e-13 
-3.52466 -2.58943 1.47546e-13 
-3.30819 -2.60132 1.80244e-13 
-3.09524 -2.59574 2.34435e-13 
-2.88424 -2.59874 2.712e-13 
-2.68286 -2.58967 3.23664e-13 
-2.4728 -2.61173 3.61302e-13 
-2.25793 -2.60183 3.35471e-13 
-2.04598 -2.61219 2.90363e-13 
-1.83112 -2.59924 2.60915e-13 
-1.62537 -2.58101 1.3302e-13 
-1.42394 -2.60375 1.1441e-13 
-1.24668 -2.52244 -5.56068e-14 
-1.02041 -2.62769 4.0513e-13 
-0.791296 -2.57833 8.42393e-13 
-0.599674 -2.49253 2.01831e-13 
-0.397098 -2.50841 1.00175e-12 
-0.173949 -2.54 3.69293e-13 
0.0133387 -2.4482 3.77254e-13 
0.193004 -2.55513 -1.70164e-12 
0.425974 -2.48904 5.49568e-13 
0.630478 -2.57987 -1.10489e-12 
0.855826 -2.574 -8.6649e-13 
1.07771 -2.57445 -1.48759e-13 
1.28026 -2.5813 3.45088e-14 
1.48633 -2.61773 2.21879e-14 
1.70046 -2.59988 -2.76666e-13 
1.92315 -2.61805 -2.40758e-13 
2.15655 -2.62628 -3.37115e-13 
2.36872 -2.58919 -3.86908e-13 
2.58114 -2.60901 -2.98927e-13 
2.80518 -2.61039 -3.0291e-13 
3.01207 -2.59098 -2.4136e-13 
3.22043 -2.58676 -2.03315e-13 
3.44261 -2.60717 -1.55668e-13 
3.64849 -2.57888 -1.26554e-13 
3.86255 -2.59372 -8.99412e-14 
4.08942 -2.60532 -6.64147e-14 
4.29732 -2.57548 -5.35722e-14 
4.51248 -2.59383 -3.07961e-14 
4.72568 -2.58766 -1.9597e-14 
4.93819 -2.58642 -5.80593e-15 
5.15273 -2.59673 7.4203e-15 
5.37141 -2.59427 1.72758e-14 
5.5826 -2.58376 3.27496e-14 
5.79879 -2.59909 4.74495e-14 
6.02368 -2.59942 5.96563e-14 
6.23745 -2.57211 8.52871e-14 
6.45735 -2.61228 9.88608e-14 
6.68508 -2.58114 1.25585e-13 
6.89459 -2.56502 1.64656e-13 
7.12196 -2.62529 1.88128e-13 
7.37326 -2.59654 2.23942e-13 
7.61217 -2.60711 2.3661e-13 
7.86944 -2.6285 2.43997e-13 
8.07982 -2.53331 3.01131e-13 
8.30224 -2.64187 1.95655e-13 
8.48528 -2.52786 3.23771e-14 
-8.48528 -2.36185 1.28237e-14 
-8.24441 -2.35653 -1.19505e-13 
-8.00566 -2.34699 -1.76518e-13 
-7.76542 -2.40304 -1.75253e-13 
-7.56802 -2.24882 -1.15853e-13 
-7.46942 -2.45227 -2.56242e-13 
-7.17928 -2.3937 -1.78192e-13 
-6.95394 -2.35003 -1.43356e-13 
-6.70421 -2.37779 -1.04978e-13 
-6.48678 -2.35392 -8.87477e-14 
-6.24135 -2.35959 -6.89379e-14 
-6.02576 -2.36359 -5.31729e-14 
-5.80992 -2.34517 -3.87877e-14 
-5.5811 -2.35344 -2.84914e-14 
-5.3664 -2.35763 -1.62614e-14 
-5.14189 -2.36106 -5.85851e-15 
-4.92837 -2.34966 5.3055e-15 
-4.70393 -2.3621 1.58648e-14 
-4.48538 -2.36657 2.89477e-14 
-4.26225 -2.365 4.34563e-14 
-4.0486 -2.34995 5.9537e-14 
-3.83167 -2.34968 8.06388e-14 
-3.61939 -2.35242 1.0751e-13 
-3.40228 -2.36518 1.39195e-13 
-3.19079 -2.36711 1.77367e-13 
-2.97557 -2.36866 2.14115e-13 
-2.76896 -2.35637 2.42521e-13 
-2.55707 -2.37711 2.84377e-13 
-2.34895 -2.38984 3.10293e-13 
-2.12289 -2.37977 2.86441e-13 
-1.91353 -2.38525 2.44106e-13 
-1.69009 -2.35899 5.58749e-14 
-1.46473 -2.34658 -1.79792e-13 
-1.26144 -2.25781 3.14546e-13 
-1.05157 -2.39247 -7.33607e-13 
-0.8625 -2.31293 -1.83977e-13 
-0.643387 -2.23276 2.58323e-13 
-0.411313 -2.17814 -7.09963e-13 
-0.197181 -2.20557 2.21628e-13 
0.056828 -2.16474 3.04418e-13 
0.291169 -2.24584 -4.99666e-13 
0.459249 -2.07715 1.55903e-12 
0.604747 -2.28943 -2.40686e-12 
0.817104 -2.31108 7.24964e-13 
1.04623 -2.32704 5.32673e-13 
1.26994 -2.32104 3.33455e-13 
1.47411 -2.39881 7.27858e-14 
1.66957 -2.35629 3.7655e-14 
1.87388 -2.3942 -2.46102e-13 
2.08675 -2.41577 -2.79053e-13 
2.29854 -2.38052 -2.94508e-13 
2.53148 -2.37369 -2.73769e-13 
2.73924 -2.39344 -2.52834e-13 
2.95101 -2.35445 -2.22473e-13 
3.15528 -2.35038 -1.77999e-13 
3.37349 -2.37542 -1.48232e-13 
3.57829 -2.34233 -1.09109e-13 
3.79219 -2.35184 -8.43895e-14 
4.00846 -2.37677 -6.57216e-14 
4.21771 -2.34126 -4.3141e-14 
4.43873 -2.3523 -3.09718e-14 
4.64875 -2.35081 -1.86198e-14 
4.8627 -2.35094 -7.87772e-15 
5.07961 -2.35726 8.48675e-16 
5.29245 -2.36631 1.22613e-14 
5.50849 -2.34897 2.19743e-14 
5.7274 -2.35984 3.36604e-14 
5.94417 -2.37249 4.86139e-14 
6.16065 -2.34215 6.03423e-14 
6.39392 -2.3633 7.75419e-14 
6.60366 -2.36213 1.00045e-13 
6.82947 -2.31677 1.08182e-13 
7.06063 -2.3732 1.49651e-13 
7.28029 -2.39438 1.86528e-13 
7.54181 -2.37522 1.74965e-13 
7.78544 -2.40892 1.84049e-13 
7.99885 -2.31131 1.31658e-13 
8.26103 -2.37096 1.08855e-13 
8.48528 -2.28464 1.78542e-14 
-8.48528 -2.10644 9.64191e-15 
-8.26389 -2.11364 -1.19636e-14 
-8.05111 -2.10302 -5.54618e-14 
-7.80452 -2.15523 -7.30276e-14 
-7.51552 -2.03614 -4.66515e-14 
-7.30993 -2.22904 -1.06425e-13 
-7.06725 -2.12982 -7.22208e-14 
-6.80709 -2.15124 -6.61184e-14 
-6.59092 -2.12454 -5.59524e-14 
-6.35233 -2.14652 -4.43282e-14 
-6.12326 -2.11835 -3.20777e-14 
-5.91632 -2.1141 -2.41376e-14 
-5.68877 -2.12584 -1.64523e-14 
-5.46755 -2.11597 -8.67708e-15 
-5.25077 -2.13159 -3.46356e-15 
-5.03686 -2.11665 2.591e-15 
-4.81354 -2.12873 7.52424e-15 
-4.59583 -2.13183 1.38176e-14 
-4.37799 -2.13689 2.09238e-14 
-4.16672 -2.11877 2.8983e-14 
-3.95118 -2.1146 3.98835e-14 
-3.73847 -2.11293 5.388e-14 
-3.52416 -2.12631 7.06098e-14 
-3.31493 -2.13112 8.80373e-14 
-3.10323 -2.13933 1.08149e-13 
-2.89674 -2.12953 1.2303e-13 
-2.68116 -2.13491 1.42903e-13 
-2.47487 -2.14936 1.50842e-13 
-2.26228 -2.17193 1.8012e-13 
-2.04101 -2.14297 1.46354e-13 
-1.82879 -2.15754 7.76995e-14 
-1.59911 -2.13066 -1.31832e-13 
-1.39872 -2.06009 -6.71302e-13 
-1.17601 -1.9315 1.6146e-13 
-1.06907 -2.11773 -1.05793e-12 
-0.837834 -2.04843 -4.66354e-13 
-0.590047 -1.95231 -2.45374e-13 
-0.331328 -1.87877 -3.38772e-13 
-0.0948661 -1.90473 -2.10095e-13 
0.0566333 -1.63288 -1.40714e-13 
0.192491 -1.90903 4.93218e-13 
0.297117 -1.60293 3.73855e-14 
0.466057 -1.8295 1.52063e-12 
0.729034 -2.00364 1.1816e-12 
0.954878 -2.0612 5.86753e-13 
1.18574 -2.07653 2.98349e-13 
1.44804 -2.15433 5.03438e-14 
1.66446 -2.12236 -3.00224e-14 
1.88628 -2.15693 -9.19668e-14 
2.09922 -2.18551 -2.28404e-13 
2.34869 -2.17927 -1.96841e-13 
2.57156 -2.14242 -1.56818e-13 
2.77549 -2.15573 -1.8249e-13 
2.98509 -2.10994 -1.06572e-13 
3.20771 -2.13226 -9.91659e-14 
3.40782 -2.12618 -8.03125e-14 
3.62459 -2.10921 -5.69985e-14 
3.84202 -2.12519 -4.69364e-14 
4.04454 -2.1288 -3.35983e-14 
4.27231 -2.11528 -2.23947e-14 
4.48256 -2.11139 -1.45638e-14 
4.69766 -2.11483 -8.33554e-15 
4.91488 -2.12073 -4.45725e-15 
5.12991 -2.12221 8.68669e-16 
5.34167 -2.1304 6.57147e-15 
5.56569 -2.12096 1.19285e-14 
5.78324 -2.12859 1.93208e-14 
5.99424 -2.12968 2.7201e-14 
6.23501 -2.12749 3.52714e-14 
6.44595 -2.11256 4.22376e-14 
6.65938 -2.11728 5.38742e-14 
6.91777 -2.10751 6.17947e-14 
7.13511 -2.13572 8.19611e-14 
7.36796 -2.18133 1.02144e-13 
7.56037 -2.08469 5.00974e-14 
7.74199 -2.17717 6.74826e-14 
7.957 -2.07821 1.06173e-14 
8.205 -2.14819 3.03009e-14 
8.48528 -2.08853 -6.15425e-15 
-8.48528 -1.81271 7.03873e-15 
-8.3021 -1.86305 1.30815e-14 
-7.88784 -1.91097 3.19948e-14 
[...]
POINT_DATA 1978 
VECTORS vectors float
0.000374659 -0.00147684 0.999999 
-0.000143026 -0.0652095 0.997872 
-0.000416326 -0.0780981 0.996946 
-0.000542498 -0.0674601 0.997722 
-0.000466993 -0.0515012 0.998673 
-0.000290587 -0.0395749 0.999217 
-0.000189676 -0.0314141 0.999506 
-0.000192018 -0.0242044 0.999707 
-0.000147625 -0.0183353 0.999832 
-0.00012404 -0.013967 0.999902 
-9.78672e-05 -0.0109791 0.99994 
-0.000155379 -0.00805484 0.999968 
-0.000107759 -0.00527258 0.999986 
-0.000114005 -0.00333643 0.999994 
-0.000141165 -0.00175467 0.999998 
-0.000136279 -0.000283726 1 
-0.000128176 0.00121413 0.999999 
-0.000133691 0.0027316 0.999996 
-0.000170732 0.00471789 0.999989 
-0.000166564 0.00724094 0.999974 
-0.000148756 0.0103314 0.999947 
-0.000133431 0.0140622 0.999901 
-0.000133424 0.0191502 0.999817 
-0.000141343 0.0260161 0.999662 
-0.000132809 0.0359916 0.999352 
-9.79597e-05 0.0488958 0.998804 
-6.10446e-05 0.0660917 0.997814 
-5.97112e-05 0.0872029 0.996191 
-7.47755e-05 0.117048 0.993126 
-6.56281e-05 0.154972 0.987919 
-4.44349e-05 0.205672 0.978621 
-7.4853e-06 0.265523 0.964104 
-2.18935e-06 0.337199 0.941433 
2.64821e-06 0.434525 0.90066 
2.89524e-05 0.526769 0.850009 
0.000109649 0.664244 0.747516 
-7.43815e-07 0.785481 0.618886 
1.23896e-05 0.876665 0.481102 
4.71202e-05 0.965134 0.261757 
8.56839e-06 0.999658 -0.0261486 
-1.06293e-05 0.964667 -0.263472 
-4.43568e-05 0.889605 -0.456731 
-6.98125e-05 0.781905 -0.623397 
-3.00959e-05 0.65057 -0.759446 
-5.62349e-06 0.533492 -0.845805 
-7.1639e-06 0.437764 -0.89909 
6.1524e-06 0.353315 -0.935505 
3.078e-05 0.265856 -0.964013 
2.7275e-05 0.208042 -0.97812 
0.00010385 0.157697 -0.987488 
7.62767e-05 0.116018 -0.993247 
7.04998e-05 0.0886698 -0.996061 
0.00014182 0.0648035 -0.997898 
0.000125818 0.0466871 -0.99891 
9.521e-05 0.0342006 -0.999415 
0.000139877 0.0253794 -0.999678 
0.000141467 0.0183018 -0.999832 
0.000107117 0.0136434 -0.999907 
0.000181006 0.00996778 -0.99995 
0.000139803 0.0067877 -0.999977 
9.44918e-05 0.0046883 -0.999989 
0.00012625 0.00285633 -0.999996 
9.46065e-05 0.00120559 -0.999999 
0.000114417 -0.00019421 -1 
0.00013556 -0.00171135 -0.999999 
0.000103097 -0.0032749 -0.999995 
0.000122934 -0.00496954 -0.999988 
0.000176877 -0.00745315 -0.999972 
0.00011875 -0.0105421 -0.999944 
0.000170891 -0.0139897 -0.999902 
0.000205687 -0.0194193 -0.999811 
9.67757e-05 -0.0248181 -0.999692 
0.00023877 -0.0308581 -0.999524 
0.000319421 -0.0408979 -0.999163 
0.000286135 -0.0518844 -0.998653 
0.000367287 -0.0656135 -0.997845 
0.00023417 -0.0785706 -0.996909 
0.000325014 -0.071293 -0.997455 
-0.000201934 -0.000900024 -1 
0.000785787 -0.000183424 1 
0.0225705 -0.0523058 0.998376 
0.0326125 -0.0700147 0.997013 
0.0300837 -0.0674226 0.997271 
0.0303676 -0.0547589 0.998038 
0.0353245 -0.041314 0.998522 
0.039676 -0.0321482 0.998695 
0.0404821 -0.0252309 0.998862 
0.0411386 -0.0190505 0.998972 
0.0457053 -0.0148078 0.998845 
0.0430557 -0.0110411 0.999012 
0.0447735 -0.00806014 0.998965 
0.0473835 -0.00560328 0.998861 
0.0455795 -0.00345792 0.998955 
0.047058 -0.00171387 0.998891 
0.0462494 4.41927e-06 0.99893 
0.0480421 0.00171804 0.998844 
0.0455249 0.00366261 0.998956 
0.0456251 0.00601681 0.998941 
0.0447295 0.00888272 0.99896 
0.0453793 0.0123884 0.998893 
0.04356 0.016836 0.998909 
0.0427067 0.022845 0.998826 
0.0395135 0.0310629 0.998736 
0.0385678 0.0423692 0.998357 
0.0357155 0.0572433 0.997721 
0.033784 0.0762563 0.996516 
0.0279231 0.100864 0.994508 
0.023636 0.134695 0.990605 
0.0174168 0.177306 0.984002 
0.0119505 0.232842 0.972441 
0.00556774 0.299182 0.95418 
-0.00111715 0.379293 0.925276 
-0.00728115 0.467917 0.883743 
-0.0100221 0.584709 0.811181 
-0.0136004 0.709488 0.704586 
-0.015645 0.812492 0.582763 
-0.0114551 0.907248 0.420441 
-0.00545835 0.979841 0.199705 
0.000169911 0.999915 -0.0130037 
0.00578852 0.974099 -0.226046 
0.0106064 0.903862 -0.427692 
0.0118093 0.806753 -0.59077 
0.0118717 0.678805 -0.734222 
0.00970105 0.551301 -0.83425 
0.00529355 0.44645 -0.894793 
-0.00100694 0.347055 -0.937844 
-0.00808941 0.269831 -0.962874 
-0.0137944 0.205541 -0.978551 
-0.0195538 0.152589 -0.988096 
-0.0275687 0.117276 -0.992717 
-0.0292835 0.0874007 -0.995743 
-0.0332252 0.0637342 -0.997414 
-0.0376122 0.0473851 -0.998168 
-0.0405531 0.0352175 -0.998557 
-0.0398692 0.0253771 -0.998883 
-0.0446996 0.0190999 -0.998818 
-0.0438044 0.0139565 -0.998943 
-0.0431807 0.00987846 -0.999018 
-0.0480948 0.00711143 -0.998817 
-0.0461337 0.00463524 -0.998925 
-0.047305 0.00259285 -0.998877 
-0.0479855 0.000761451 -0.998848 
-0.0461512 -0.00096036 -0.998934 
-0.0464641 -0.00272617 -0.998916 
-0.0474251 -0.00457853 -0.998864 
-0.0444079 -0.00671097 -0.998991 
-0.0435882 -0.00955181 -0.999004 
-0.0462818 -0.013041 -0.998843 
-0.0397077 -0.017191 -0.999063 
-0.0429429 -0.0227838 -0.998818 
-0.0434721 -0.02883 -0.998639 
-0.0346661 -0.03635 -0.998738 
-0.0368262 -0.0472132 -0.998206 
-0.0338675 -0.0589653 -0.997685 
-0.0302608 -0.0703678 -0.997062 
-0.0351371 -0.0671387 -0.997125 
-0.0164943 -0.0455315 -0.998827 
-0.000302108 -0.000369485 -1 
0.000606077 -0.000650775 1 
0.031128 -0.0511946 0.998203 
0.0446805 -0.0686239 0.996642 
0.046414 -0.0655346 0.99677 
0.0521924 -0.0587518 0.996907 
0.0479275 -0.0521458 0.997489 
0.053212 -0.040073 0.997779 
0.056728 -0.031829 0.997882 
0.0574812 -0.0242797 0.998051 
0.0600499 -0.0188772 0.998017 
0.0614973 -0.0140394 0.998009 
0.0623945 -0.0106143 0.997995 
0.063737 -0.00782194 0.997936 
0.0645177 -0.00525933 0.997903 
0.0651386 -0.00318172 0.997871 
0.0655762 -0.00113682 0.997847 
0.066173 0.000836399 0.997808 
0.065638 0.00307133 0.997839 
0.0649376 0.00550522 0.997874 
0.0640276 0.0084156 0.997913 
0.0632326 0.0118815 0.997928 
0.0616755 0.0162748 0.997964 
0.0598598 0.0219741 0.997965 
0.0573254 0.0297981 0.997911 
0.0547338 0.040237 0.99769 
0.0513693 0.054519 0.99719 
0.0476181 0.0728909 0.996203 
0.0422116 0.0964668 0.994441 
0.0358362 0.126079 0.991373 
0.0279808 0.168246 0.985348 
0.0196671 0.218135 0.97572 
0.0100133 0.287422 0.957752 
0.000430467 0.37043 0.92886 
-0.00716571 0.463474 0.886082 
-0.0135162 0.568607 0.822498 
-0.0169743 0.67977 0.733229 
-0.0169639 0.798585 0.601642 
-0.0134752 0.903736 0.427877 
-0.0081972 0.972956 0.230845 
-0.00125164 0.999763 -0.0217461 
0.00616617 0.964616 -0.263588 
0.0102601 0.888356 -0.45904 
0.0142053 0.801014 -0.598477 
0.0149828 0.687364 -0.726159 
0.0123666 0.564986 -0.825008 
0.0065656 0.456665 -0.889614 
-0.00107215 0.363775 -0.931486 
-0.00918789 0.295199 -0.955392 
-0.018018 0.229078 -0.973241 
-0.0262299 0.175958 -0.984048 
-0.0342252 0.135791 -0.990146 
-0.0410406 0.100374 -0.994103 
-0.0458633 0.0751926 -0.996114 
-0.051085 0.0562133 -0.997111 
-0.0546636 0.0422612 -0.99761 
-0.0568491 0.0307326 -0.99791 
-0.0599559 0.0233212 -0.997929 
-0.0615194 0.0172042 -0.997958 
-0.0622194 0.0124752 -0.997985 
-0.0645814 0.00922673 -0.99787 
-0.0652366 0.00618725 -0.997851 
-0.065915 0.00374554 -0.997818 
-0.0663291 0.00151097 -0.997797 
-0.0660779 -0.000598599 -0.997814 
-0.0654777 -0.00254682 -0.997851 
-0.0653535 -0.00462721 -0.997851 
-0.064103 -0.00684339 -0.99792 
-0.0626022 -0.00940091 -0.997994 
-0.0623869 -0.0127402 -0.997971 
-0.0602811 -0.016958 -0.998037 
-0.0590138 -0.0216969 -0.998021 
-0.0583548 -0.0281635 -0.997899 
-0.0552823 -0.0355556 -0.997837 
-0.0527799 -0.0443135 -0.997622 
-0.0504033 -0.0566486 -0.997121 
-0.0470354 -0.0670134 -0.996643 
-0.0454202 -0.0687051 -0.996603 
-0.0291166 -0.04721 -0.998461 
-0.000884296 -0.00058938 -0.999999 
0.000735322 -0.000527525 1 
0.026779 -0.0464953 0.998559 
0.0409225 -0.0671779 0.996901 
0.0478031 -0.0676738 0.996562 
0.0489408 -0.0582096 0.997104 
0.0545578 -0.0471149 0.997398 
0.0552905 -0.0375609 0.997764 
0.0577277 -0.0283585 0.99793 
0.0591393 -0.0225442 0.997995 
0.0609847 -0.017088 0.997992 
0.0615433 -0.0131428 0.998018 
0.0624231 -0.0101334 0.997998 
0.0636813 -0.00730114 0.997944 
0.0642685 -0.00494016 0.99792 
0.0653693 -0.00265025 0.997858 
0.0654173 -0.00042944 0.997858 
0.0658121 0.00207596 0.99783 
0.0655884 0.00469549 0.997836 
0.0649313 0.00760194 0.997861 
0.0633791 0.0109445 0.99793 
0.0617458 0.0150646 0.997978 
0.0598915 0.0203203 0.997998 
0.0580345 0.027347 0.99794 
0.0555665 0.0366676 0.997781 
0.0526438 0.0492377 0.997399 
0.0487218 0.0656461 0.996653 
0.0440494 0.0875522 0.995186 
0.0387396 0.114268 0.992694 
0.0323729 0.148478 0.988386 
0.0237327 0.195936 0.98033 
0.0151247 0.253381 0.967248 
0.00485464 0.334996 0.942207 
-0.0028535 0.417411 0.908713 
-0.00895833 0.525511 0.85074 
-0.0125011 0.567031 0.823602 
-0.0151651 0.69596 0.717921 
-0.0134592 0.823004 0.567875 
-0.0098525 0.927247 0.374321 
-0.0051342 0.992372 0.123173 
-0.000595957 0.996895 -0.0787364 
0.00244471 0.974879 -0.222723 
0.00411537 0.94364 -0.330949 
0.00878417 0.868785 -0.495111 
0.0122462 0.736804 -0.675995 
0.0123695 0.622166 -0.782788 
0.00837632 0.507267 -0.861748 
0.00038618 0.388268 -0.921546 
-0.00848474 0.304562 -0.952455 
-0.0176853 0.235985 -0.971596 
-0.026573 0.180124 -0.983285 
-0.0352494 0.13261 -0.990541 
-0.0412968 0.100332 -0.994097 
-0.046959 0.0757376 -0.996021 
-0.0500267 0.0578925 -0.997069 
-0.0543316 0.0422274 -0.99763 
-0.0568587 0.0319631 -0.99787 
-0.0588507 0.0237867 -0.997983 
-0.0612966 0.017503 -0.997966 
-0.0628056 0.0131616 -0.997939 
-0.0639332 0.00932805 -0.997911 
-0.0646767 0.00632104 -0.997886 
-0.0653413 0.00356261 -0.997857 
-0.0657762 0.000977092 -0.997834 
-0.0655801 -0.0013901 -0.997846 
-0.0653222 -0.00359978 -0.997858 
-0.0643239 -0.0060055 -0.997911 
-0.0635216 -0.00844475 -0.997945 
-0.0624694 -0.0111951 -0.997984 
-0.0612415 -0.0150578 -0.998009 
-0.0595318 -0.0193104 -0.99804 
-0.0582846 -0.0244395 -0.998001 
-0.0562389 -0.032261 -0.997896 
-0.0550594 -0.0401147 -0.997677 
-0.0538665 -0.050113 -0.99729 
-0.0499986 -0.0600568 -0.996942 
-0.0494734 -0.0668342 -0.996537 
-0.0437427 -0.070672 -0.99654 
-0.0336967 -0.0548713 -0.997925 
-0.000935299 -0.000499858 -0.999999 
0.000501625 -0.000634367 1 
0.0198894 -0.0432201 0.998868 
0.0399695 -0.0719141 0.99661 
0.0427061 -0.0663556 0.996882 
0.0409426 -0.0558698 0.997598 
0.0498968 -0.0475142 0.997624 
0.0450532 -0.0423871 0.998085 
0.0508853 -0.03393 0.998128 
0.0500476 -0.0271272 0.998378 
0.0531189 -0.0210793 0.998366 
0.0536734 -0.0165394 0.998422 
0.0527552 -0.0130751 0.998522 
0.0549337 -0.009887 0.998441 
0.0558625 -0.00720807 0.998412 
0.0564087 -0.00461822 0.998397 
0.056957 -0.00219851 0.998374 
0.0576175 0.000586966 0.998339 
0.0576213 0.00343537 0.998333 
0.0574266 0.00644507 0.998329 
0.0560808 0.00965062 0.99838 
0.054593 0.0134552 0.998418 
0.0528989 0.018141 0.998435 
0.0513838 0.0242758 0.998384 
0.0494521 0.0322482 0.998256 
0.0472231 0.0429869 0.997959 
0.0441565 0.0569145 0.997402 
0.0404976 0.0756737 0.99631 
0.0358548 0.0996261 0.994379 
0.0311094 0.129468 0.991095 
0.0253178 0.167571 0.985535 
0.0168863 0.223315 0.9746 
0.00949657 0.287787 0.957648 
0.00184881 0.363689 0.931519 
-0.00443504 0.457144 0.889382 
-0.0120061 0.652615 0.757595 
-0.0112913 0.761517 0.648047 
-0.00904697 0.878337 0.477956 
-0.00582719 0.937629 0.34759 
-0.00552581 0.976116 0.217182 
-0.0019812 0.999793 0.0202394 
0.00104086 0.972869 -0.231353 
0.00468588 0.880136 -0.474699 
0.00862904 0.805723 -0.59223 
0.00971096 0.688385 -0.725281 
0.00861112 0.578774 -0.815442 
0.00491922 0.482963 -0.875627 
0.00206913 0.416641 -0.909069 
-0.00347577 0.348162 -0.937428 
-0.011185 0.270704 -0.962598 
-0.0193477 0.208798 -0.977767 
-0.0273841 0.15854 -0.986973 
-0.0329668 0.120366 -0.992182 
-0.0381251 0.0888128 -0.995318 
-0.0414175 0.0689501 -0.99676 
-0.0458345 0.0499543 -0.997699 
-0.0479195 0.0375803 -0.998144 
-0.0503183 0.0283143 -0.998332 
-0.0526776 0.0208072 -0.998395 
-0.0538148 0.0157023 -0.998427 
-0.0559955 0.0115624 -0.998364 
-0.0557988 0.00801079 -0.99841 
-0.0566864 0.00487294 -0.99838 
-0.0573241 0.00188767 -0.998354 
-0.0571944 -0.000853572 -0.998363 
-0.0569419 -0.00347541 -0.998371 
-0.0567567 -0.00589802 -0.998371 
-0.055523 -0.00860195 -0.99842 
-0.0543784 -0.01141 -0.998455 
-0.0545327 -0.0146341 -0.998405 
-0.0514292 -0.0190827 -0.998494 
-0.050247 -0.0241018 -0.998446 
-0.050418 -0.0301988 -0.998272 
-0.0475097 -0.0392885 -0.998098 
-0.047841 -0.0486899 -0.997668 
-0.0431207 -0.0603827 -0.997243 
-0.0415026 -0.0702525 -0.996665 
-0.0345259 -0.0699406 -0.996953 
-0.0257141 -0.0495043 -0.998443 
-0.000535972 -0.000502017 -1 
0.000380949 -0.000521221 1 
0.016131 -0.0475277 0.99874 
0.0305843 -0.0658171 0.997363 
0.0315696 -0.0738931 0.996766 
0.0344021 -0.0674283 0.997131 
0.0360717 -0.050279 0.998084 
0.0389264 -0.0380225 0.998518 
0.0412017 -0.0315089 0.998654 
0.0425879 -0.0241819 0.9988 
0.0438097 -0.0194023 0.998851 
0.0433761 -0.0156275 0.998937 
0.0443081 -0.0119515 0.998946 
0.0458193 -0.00910023 0.998908 
0.0468655 -0.00633803 0.998881 
0.0464586 -0.00360566 0.998914 
0.0479265 -0.000705737 0.998851 
0.0478509 0.00241313 0.998852 
0.0476804 0.00564066 0.998847 
0.0464799 0.00891226 0.998879 
0.0455195 0.0125729 0.998884 
0.0441671 0.0169988 0.99888 
0.0429199 0.0227158 0.99882 
0.0411999 0.0302078 0.998694 
0.0394583 0.040188 0.998413 
0.0368494 0.0533611 0.997895 
0.0340103 0.070825 0.996909 
0.0300627 0.0937202 0.995145 
0.0256632 0.123914 0.991961 
0.02112 0.161153 0.986703 
0.0153348 0.210283 0.97752 
0.00742462 0.28642 0.958075 
0.000382351 0.378796 0.92548 
-0.00500311 0.492517 0.870289 
-0.00693772 0.602269 0.798263 
-0.0087769 0.577657 0.816232 
-0.00890847 0.688324 0.725349 
-0.00820055 0.809356 0.587261 
-0.00461321 0.864872 0.501971 
-0.00193755 0.975294 0.220902 
0.000491045 0.997079 -0.0763794 
0.000377576 0.99971 -0.024095 
0.00163497 0.959159 -0.282864 
0.00285787 0.869301 -0.494274 
0.00632821 0.744188 -0.66794 
0.00679053 0.631744 -0.775147 
0.00515359 0.52731 -0.849658 
0.000910401 0.405238 -0.914211 
-0.00445542 0.320522 -0.947231 
-0.0106511 0.250266 -0.968119 
-0.0176794 0.192497 -0.981138 
-0.0231895 0.150551 -0.98833 
-0.0286047 0.112207 -0.993273 
-0.0302758 0.0863946 -0.995801 
-0.0356985 0.0635282 -0.997341 
-0.0377612 0.0479083 -0.998138 
-0.0395917 0.0360037 -0.998567 
-0.0425522 0.0266422 -0.998739 
-0.0434868 0.0202237 -0.998849 
-0.0447878 0.0151326 -0.998882 
-0.0466929 0.0111058 -0.998848 
-0.0462132 0.00748525 -0.998904 
-0.047236 0.00412743 -0.998875 
-0.0472185 0.0010161 -0.998884 
-0.0473464 -0.00200752 -0.998877 
-0.04674 -0.00481655 -0.998895 
-0.0469858 -0.00746013 -0.998868 
-0.0452976 -0.0102925 -0.998921 
-0.0447565 -0.0133678 -0.998908 
-0.0442285 -0.0167379 -0.998881 
-0.0412898 -0.0214683 -0.998917 
-0.0406975 -0.0270358 -0.998806 
-0.0414724 -0.0338354 -0.998567 
-0.0373533 -0.0419748 -0.99842 
-0.0389465 -0.05038 -0.99797 
-0.0346156 -0.062443 -0.997448 
-0.0339254 -0.0720298 -0.996825 
-0.0278317 -0.0725673 -0.996975 
-0.0187556 -0.0476997 -0.998686 
-0.00051559 -0.000516676 -1 
0.000380616 -0.000517991 1 
0.013394 -0.0540541 0.998448 
0.0240354 -0.0712598 0.997168 
0.0250724 -0.0738175 0.996957 
0.0298827 -0.0620439 0.997626 
0.0270452 -0.0528789 0.998235 
0.0313147 -0.0429836 0.998585 
0.02997 -0.0345602 0.998953 
0.0343321 -0.0283374 0.999009 
0.0336919 -0.0227293 0.999174 
0.0342586 -0.0186599 0.999239 
0.035828 -0.014654 0.999251 
0.0359075 -0.0114669 0.999289 
0.0375845 -0.00859344 0.999257 
0.0380966 -0.0057829 0.999257 
0.0381828 -0.00258244 0.999267 
0.0391446 0.000541252 0.999233 
0.0389307 0.00392997 0.999234 
0.0379619 0.00721275 0.999253 
0.0372559 0.0107444 0.999248 
0.0364948 0.0147046 0.999226 
0.0355583 0.0196219 0.999175 
0.0342983 0.0259305 0.999075 
0.0328497 0.0344201 0.998867 
0.0310316 0.0455327 0.998481 
0.0287167 0.0606662 0.997745 
0.0258534 0.0802968 0.996436 
0.0222947 0.107018 0.994007 
0.0181491 0.141726 0.98974 
0.0140636 0.184858 0.982665 
0.0090448 0.245492 0.969356 
0.00286206 0.328625 0.944456 
-0.00221652 0.439325 0.898325 
-0.00421799 0.539315 0.842093 
-0.00614948 0.735853 0.677114 
-0.00243707 0.867779 0.496944 
0.000828655 0.92897 0.370155 
0.000373353 0.987403 0.158227 
-0.000418364 0.95674 0.290943 
0.00109204 0.988072 0.153986 
-0.00185392 0.999129 -0.0416854 
-0.00038729 0.965676 -0.25975 
0.00163489 0.889097 -0.457716 
0.00307468 0.769464 -0.638683 
0.0045205 0.735954 -0.677016 
0.00512605 0.589832 -0.807509 
0.00214204 0.428208 -0.903678 
-0.00172806 0.340793 -0.940137 
-0.00639008 0.267906 -0.963424 
-0.0120341 0.206368 -0.9784 
-0.0165703 0.159679 -0.98703 
-0.0212746 0.124939 -0.991936 
-0.0218423 0.102589 -0.994484 
-0.0267693 0.0748068 -0.996839 
-0.0293159 0.0567901 -0.997956 
-0.0311109 0.042442 -0.998614 
-0.0336428 0.0312603 -0.998945 
-0.034742 0.0237792 -0.999113 
-0.0359875 0.0178873 -0.999192 
-0.0371177 0.0132361 -0.999223 
-0.0380884 0.00955065 -0.999229 
-0.0381752 0.00569289 -0.999255 
-0.0382795 0.00231856 -0.999264 
-0.0385254 -0.00108311 -0.999257 
-0.0380372 -0.00422829 -0.999267 
-0.0380353 -0.00724714 -0.99925 
-0.0371822 -0.0100467 -0.999258 
-0.0364316 -0.0132063 -0.999249 
-0.0351647 -0.0167164 -0.999242 
-0.033918 -0.0206681 -0.999211 
-0.0323907 -0.026456 -0.999125 
-0.0327622 -0.0334049 -0.998905 
-0.0298973 -0.0428803 -0.998633 
-0.0298622 -0.0541525 -0.998086 
-0.0260151 -0.0658078 -0.997493 
-0.0264742 -0.0739207 -0.996913 
-0.021416 -0.0757561 -0.996896 
-0.0165785 -0.0562246 -0.99828 
-0.000381911 -0.000515602 -1 
0.000259919 -0.000487975 1 
0.0100075 -0.055355 0.998417 
0.0191412 -0.0756359 0.996952 
0.0181334 -0.0761489 0.996932 
0.0226773 -0.0668441 0.997506 
0.0209523 -0.0550835 0.998262 
0.0239833 -0.0426974 0.9988 
0.0231557 -0.0340398 0.999152 
0.0265827 -0.0275247 0.999268 
0.0253783 -0.0227999 0.999418 
0.0276439 -0.018171 0.999453 
0.0287131 -0.0145225 0.999482 
0.0287101 -0.0113349 0.999524 
0.0302237 -0.00836002 0.999508 
0.0311853 -0.00507794 0.999501 
0.03075 -0.00157746 0.999526 
0.0316624 0.00186415 0.999497 
0.0306247 0.0053069 0.999517 
0.0301458 0.00890093 0.999506 
0.0296222 0.0127171 0.99948 
0.0290597 0.0171239 0.999431 
0.0281437 0.0226802 0.999347 
0.0270653 0.0301152 0.99918 
0.025561 0.0400291 0.998872 
0.0238781 0.0533011 0.998293 
0.0214981 0.071007 0.997244 
0.0188196 0.094574 0.99534 
0.0154387 0.125975 0.991913 
0.0117282 0.167578 0.985789 
0.00835755 0.22016 0.975428 
0.00418581 0.287428 0.957793 
-0.000167659 0.387394 0.921914 
-0.00223953 0.495512 0.868598 
-0.00281142 0.609749 0.79259 
-0.00469547 0.646714 0.762718 
-0.00135101 0.845266 0.534344 
0.00140043 0.949859 0.312677 
0.00159 0.99682 0.0796721 
0.00106174 0.99921 0.0397223 
-4.99092e-05 0.999804 0.0197867 
-0.00212596 0.999502 -0.0314887 
-0.00372049 0.995975 -0.0895574 
-0.00361354 0.950704 -0.310078 
0.000870444 0.843768 -0.536708 
0.00439379 0.645477 -0.763767 
0.0038816 0.532829 -0.846214 
0.00401165 0.491091 -0.871099 
0.00121285 0.386815 -0.922157 
-0.0023237 0.302801 -0.953051 
-0.00707491 0.229427 -0.9733 
-0.0110067 0.176231 -0.984287 
-0.0146031 0.134962 -0.990743 
-0.0186358 0.0941449 -0.995384 
-0.0213221 0.0711214 -0.99724 
-0.0238204 0.0530648 -0.998307 
-0.0259333 0.0385838 -0.998919 
-0.0271295 0.0291531 -0.999207 
-0.0283688 0.0218899 -0.999358 
-0.0294519 0.0164021 -0.999432 
-0.0298081 0.0121904 -0.999481 
-0.0313351 0.00837619 -0.999474 
-0.0305049 0.0047172 -0.999523 
-0.0310088 0.00106883 -0.999519 
-0.0306731 -0.00237247 -0.999527 
-0.0306774 -0.00578968 -0.999513 
-0.029974 -0.00883226 -0.999512 
-0.0297854 -0.0118834 -0.999486 
-0.028565 -0.0151073 -0.999478 
-0.0269719 -0.0187241 -0.999461 
-0.0267333 -0.0232929 -0.999371 
-0.0245959 -0.029027 -0.999276 
-0.0257096 -0.0348832 -0.999061 
-0.0225342 -0.0428544 -0.998827 
-0.0233722 -0.0525588 -0.998344 
-0.0202497 -0.0648724 -0.997688 
-0.0193347 -0.0758012 -0.996935 
-0.0155426 -0.0761138 -0.996978 
-0.0112344 -0.0519993 -0.998584 
-0.000265358 -0.000501704 -1 
0.000205781 -0.000518638 1 
0.00714596 -0.0565237 0.998376 
0.0134825 -0.0770171 0.996939 
0.0132639 -0.0776731 0.996891 
0.0167983 -0.0664943 0.997645 