# vtk DataFile Version 3.0 
Exported using Morpho https://github.com/Morpho-lang/morpho 
ASCII 
DATASET UNSTRUCTURED_GRID 

POINTS 2054 float 
-8.48528 -2.82843 0 
-8.20636 -2.82843 0 
-7.94054 -2.82843 0 
-7.6904 -2.82843 0 
-7.45357 -2.82843 0 
-7.22694 -2.82843 0 
-7.00705 -2.82843 0 
-6.79111 -2.82843 0 
-6.57731 -2.82843 0 
-6.36453 -2.82843 0 
-6.15219 -2.82843 0 
-5.94 -2.82843 0 
-5.72786 -2.82843 0 
-5.51573 -2.82843 0 
-5.3036 -2.82843 0 
-5.09147 -2.82843 0 
-4.87933 -2.82843 0 
-4.6672 -2.82843 0 
-4.45507 -2.82843 0 
-4.24294 -2.82843 0 
-4.03081 -2.82843 0 
-3.81867 -2.82843 0 
-3.60654 -2.82843 0 
-3.39441 -2.82843 0 
-3.18228 -2.82843 0 
-2.97015 -2.82843 0 
-2.75801 -2.82843 0 
-2.54588 -2.82843 0 
-2.33375 -2.82843 0 
-2.12162 -2.82843 0 
-1.90949 -2.82843 0 
-1.69735 -2.82843 0 
-1.48522 -2.82843 0 
-1.27309 -2.82843 0 
-1.06096 -2.82843 0 
-0.848825 -2.82843 0 
-0.636693 -2.82843 0 
-0.424561 -2.82843 0 
-0.212429 -2.82843 0 
-0.000296761 -2.82843 0 
0.211835 -2.82843 0 
0.423967 -2.82843 0 
0.636099 -2.82843 0 
0.848231 -2.82843 0 
1.06036 -2.82843 0 
1.2725 -2.82843 0 
1.48463 -2.82843 0 
1.69676 -2.82843 0 
1.90889 -2.82843 0 
2.12102 -2.82843 0 
2.33316 -2.82843 0 
2.54529 -2.82843 0 
2.75742 -2.82843 0 
2.96955 -2.82843 0 
3.18168 -2.82843 0 
3.39382 -2.82843 0 
3.60595 -2.82843 0 
3.81808 -2.82843 0 
4.03021 -2.82843 0 
4.24234 -2.82843 0 
4.45448 -2.82843 0 
4.66661 -2.82843 0 
4.87874 -2.82843 0 
5.09087 -2.82843 0 
5.303 -2.82843 0 
5.51514 -2.82843 0 
5.72727 -2.82843 0 
5.93941 -2.82843 0 
6.15159 -2.82843 0 
6.36393 -2.82843 0 
6.57672 -2.82843 0 
6.79055 -2.82843 0 
7.00652 -2.82843 0 
7.22647 -2.82843 0 
7.45313 -2.82843 0 
7.69005 -2.82843 0 
7.9403 -2.82843 0 
8.20621 -2.82843 0 
8.48528 -2.82843 0 
-8.48528 -2.5495 0 
-8.30526 -2.64845 0 
-8.07062 -2.59995 0 
-7.83904 -2.59637 0 
-7.59595 -2.59733 0 
-7.36578 -2.59177 0 
-7.13796 -2.5933 0 
-6.90908 -2.59428 0 
-6.68421 -2.5916 0 
-6.46568 -2.58832 0 
-6.24926 -2.58859 0 
-6.03358 -2.58941 0 
-5.81848 -2.59013 0 
-5.60402 -2.59075 0 
-5.39005 -2.59135 0 
-5.17642 -2.59186 0 
-4.96311 -2.59223 0 
-4.75009 -2.59242 0 
-4.53736 -2.59244 0 
-4.32497 -2.59236 0 
-4.1128 -2.59242 0 
-3.90059 -2.59259 0 
-3.68835 -2.5926 0 
-3.47627 -2.59248 0 
-3.26428 -2.59251 0 
-3.05216 -2.59271 0 
-2.83986 -2.59283 0 
-2.62755 -2.59274 0 
-2.41539 -2.59253 0 
-2.20336 -2.59238 0 
-1.99135 -2.59238 0 
-1.77924 -2.59246 0 
-1.56704 -2.59244 0 
-1.35495 -2.59215 0 
-1.14319 -2.59183 0 
-0.931581 -2.59195 0 
-0.719663 -2.59256 0 
-0.507197 -2.59324 0 
-0.294425 -2.59354 0 
-0.0817689 -2.59344 0 
0.130587 -2.59325 0 
0.342804 -2.59322 0 
0.555051 -2.59322 0 
0.767233 -2.59303 0 
0.97919 -2.59278 0 
1.19107 -2.59278 0 
1.40311 -2.59289 0 
1.61524 -2.59286 0 
1.82732 -2.59279 0 
2.03943 -2.59281 0 
2.25163 -2.5928 0 
2.46381 -2.59266 0 
2.67591 -2.59254 0 
2.88801 -2.59237 0 
3.10001 -2.59226 0 
3.31203 -2.59216 0 
3.52402 -2.59207 0 
3.73601 -2.59208 0 
3.94815 -2.59221 0 
4.16052 -2.5923 0 
4.37309 -2.59232 0 
4.58593 -2.59227 0 
4.79921 -2.5922 0 
5.01319 -2.59212 0 
5.22833 -2.5921 0 
5.44534 -2.59239 0 
5.6657 -2.59346 0 
5.89185 -2.59569 0 
6.12685 -2.59429 0 
6.36853 -2.59189 0 
6.6108 -2.57787 0 
6.84491 -2.61411 0 
7.08804 -2.58476 0 
7.34858 -2.60369 0 
7.58803 -2.59327 0 
7.83059 -2.59326 0 
8.06387 -2.59199 0 
8.30038 -2.64348 0 
8.48528 -2.54936 0 
-8.48528 -2.28369 0 
-8.25701 -2.4138 0 
-8.01078 -2.35334 0 
-7.73666 -2.37963 0 
-7.49744 -2.35565 0 
-7.26898 -2.35831 0 
-7.03324 -2.36676 0 
-6.7997 -2.36275 0 
-6.5773 -2.35166 0 
-6.35808 -2.3495 0 
-6.14038 -2.35058 0 
-5.92336 -2.35185 0 
-5.70723 -2.35272 0 
-5.49199 -2.35362 0 
-5.27734 -2.35447 0 
-5.0632 -2.35505 0 
-4.84958 -2.35534 0 
-4.63641 -2.35533 0 
-4.42363 -2.35504 0 
-4.21126 -2.35485 0 
-3.99909 -2.35513 0 
-3.78684 -2.3554 0 
-3.57461 -2.35516 0 
-3.36263 -2.35498 0 
-3.15066 -2.35537 0 
-2.93843 -2.35586 0 
-2.72604 -2.35589 0 
-2.51374 -2.35551 0 
-2.30162 -2.35509 0 
-2.08964 -2.35496 0 
-1.87761 -2.35518 0 
-1.66544 -2.3554 0 
-1.45322 -2.35518 0 
-1.2412 -2.35438 0 
-1.02967 -2.35407 0 
-0.818162 -2.35505 0 
-0.606054 -2.35676 0 
-0.393243 -2.3579 0 
-0.180256 -2.35789 0 
0.0323765 -2.35727 0 
0.244686 -2.35692 0 
0.456926 -2.35692 0 
0.669206 -2.35667 0 
0.881318 -2.35598 0 
1.09315 -2.35559 0 
1.305 -2.35583 0 
1.51709 -2.35595 0 
1.72919 -2.35571 0 
1.9412 -2.35566 0 
2.15334 -2.3558 0 
2.36559 -2.3556 0 
2.57772 -2.35522 0 
2.78976 -2.35507 0 
3.0019 -2.35461 0 
3.21373 -2.35451 0 
3.42571 -2.35439 0 
3.63769 -2.35431 0 
3.84965 -2.35453 0 
4.06183 -2.35491 0 
4.27435 -2.35507 0 
4.48707 -2.35507 0 
4.70017 -2.35506 0 
4.91376 -2.35498 0 
5.12819 -2.35502 0 
5.34378 -2.35528 0 
5.56106 -2.35662 0 
5.78097 -2.35971 0 
6.00401 -2.36251 0 
6.2308 -2.3624 0 
6.45748 -2.35551 0 
6.68075 -2.33423 0 
6.88797 -2.39744 0 
7.05313 -2.27289 0 
7.24377 -2.40237 0 
7.48542 -2.36016 0 
7.73055 -2.36599 0 
7.99177 -2.33552 0 
8.24864 -2.40698 0 
8.48528 -2.28345 0 
-8.48528 -2.03355 0 
-8.25312 -2.18214 0 
-8.03669 -2.07913 0 
-7.83956 -2.18231 0 
-7.6106 -2.12852 0 
-7.38852 -2.10959 0 
-7.16268 -2.14097 0 
-6.9229 -2.1435 0 
-6.70119 -2.12055 0 
-6.48111 -2.11285 0 
-6.26282 -2.11284 0 
-6.045 -2.1151 0 
-5.82775 -2.11658 0 
-5.61153 -2.11776 0 
-5.3962 -2.1192 0 
-5.18144 -2.1203 0 
-4.96732 -2.12084 0 
-4.75387 -2.12105 0 
-4.54086 -2.12091 0 
-4.32822 -2.12045 0 
-4.11596 -2.12045 0 
-3.90382 -2.12107 0 
-3.69156 -2.12116 0 
-3.47938 -2.12058 0 
-3.26746 -2.12068 0 
-3.05542 -2.12154 0 
-2.84307 -2.12198 0 
-2.63064 -2.12162 0 
-2.41836 -2.12087 0 
-2.20626 -2.12031 0 
-1.99426 -2.12034 0 
-1.78217 -2.1207 0 
-1.56989 -2.12074 0 
-1.35755 -2.11993 0 
-1.14542 -2.11838 0 
-0.934012 -2.11859 0 
-0.722404 -2.12089 0 
-0.509943 -2.12344 0 
-0.296911 -2.12431 0 
-0.0840921 -2.12359 0 
0.128295 -2.12281 0 
0.340414 -2.12274 0 
0.552564 -2.12288 0 
0.76478 -2.12226 0 
0.976792 -2.1213 0 
1.18855 -2.12128 0 
1.40042 -2.12188 0 
1.61256 -2.12177 0 
1.82458 -2.12141 0 
2.03655 -2.12164 0 
2.24875 -2.12174 0 
2.46099 -2.12114 0 
2.67302 -2.12065 0 
2.88504 -2.12054 0 
3.09728 -2.1194 0 
3.30873 -2.11968 0 
3.52086 -2.1195 0 
3.7329 -2.11938 0 
3.94484 -2.11986 0 
4.15715 -2.12044 0 
4.36983 -2.12035 0 
4.58282 -2.1204 0 
4.79606 -2.12017 0 
5.01004 -2.12012 0 
5.22483 -2.12002 0 
5.44073 -2.12051 0 
5.6582 -2.123 0 
5.8782 -2.12696 0 
6.10217 -2.12971 0 
6.33095 -2.12707 0 
6.567 -2.11601 0 
6.82301 -2.12303 0 
7.06572 -2.04567 0 
7.29733 -2.17484 0 
7.54632 -2.11408 0 
7.79371 -2.13741 0 
8.02274 -2.07453 0 
8.25027 -2.1738 0 
8.48528 -2.0332 0 
-8.48528 -1.79671 0 
-8.25436 -1.93882 0 
-8.01299 -1.83977 0 
-7.78596 -1.953 0 
-7.5297 -1.87194 0 
-7.2756 -1.88722 0 
-7.05707 -1.93544 0 
-6.84369 -1.89677 0 
-6.62219 -1.88079 0 
-6.40169 -1.87606 0 
-6.18206 -1.87854 0 
-5.96274 -1.881 0 
-5.74458 -1.88208 0 
-5.52796 -1.88344 0 
-5.31232 -1.88506 0 
-5.09736 -1.88569 0 
-4.88338 -1.88564 0 
-4.67019 -1.88555 0 
-4.45737 -1.88507 0 
-4.24485 -1.88447 0 
-4.03271 -1.88482 0 
-3.82061 -1.88562 0 
-3.60832 -1.88529 0 
-3.39617 -1.88464 0 
-3.18427 -1.88547 0 
-2.97209 -1.88672 0 
-2.7596 -1.88684 0 
-2.54714 -1.88601 0 
-2.33483 -1.88505 0 
-2.12268 -1.8846 0 
-1.91058 -1.885 0 
-1.69824 -1.88561 0 
-1.48561 -1.88547 0 
-1.27286 -1.88413 0 
-1.06032 -1.88216 0 
-0.848858 -1.8839 0 
-0.636875 -1.88781 0 
-0.424169 -1.89034 0 
-0.211518 -1.89004 0 
0.000731944 -1.88866 0 
0.21257 -1.88788 0 
0.424308 -1.88807 0 
0.636257 -1.88793 0 
0.848362 -1.88664 0 
1.06025 -1.88556 0 
1.27191 -1.88605 0 
1.48381 -1.88664 0 
1.69595 -1.886 0 
1.90782 -1.88577 0 
2.11974 -1.88637 0 
2.33202 -1.88609 0 
2.54419 -1.88502 0 
2.75607 -1.88472 0 
2.96812 -1.88462 0 
3.18055 -1.88217 0 
3.39117 -1.88415 0 
3.60398 -1.8838 0 
3.81618 -1.88366 0 
4.02827 -1.88469 0 
4.24071 -1.88523 0 
4.4544 -1.88509 0 
4.66716 -1.88476 0 
4.88099 -1.88493 0 
5.09545 -1.88466 0 
5.31057 -1.88453 0 
5.52653 -1.88564 0 
5.7436 -1.88981 0 
5.96352 -1.89563 0 
6.18733 -1.89813 0 
6.41543 -1.89522 0 
6.65059 -1.89622 0 
6.87542 -1.86913 0 
7.11122 -1.81621 0 
7.31223 -1.94975 0 
7.53264 -1.87683 0 
7.77077 -1.89068 0 
8.01717 -1.8297 0 
8.25014 -1.93148 0 
8.48528 -1.79628 0 
-8.48528 -1.57009 0 
-8.24868 -1.70836 0 
-8.015 -1.61096 0 
-7.76734 -1.73071 0 
-7.54593 -1.61782 0 
-7.32306 -1.66278 0 
-7.05152 -1.7082 0 
-6.79786 -1.66675 0 
-6.56099 -1.64764 0 
-6.33267 -1.64541 0 
-6.10856 -1.64921 0 
-5.88638 -1.65073 0 
-5.66697 -1.65153 0 
-5.44986 -1.65353 0 
-5.23379 -1.65525 0 
-5.01882 -1.6551 0 
-4.80519 -1.6548 0 
-4.59235 -1.65478 0 
-4.37976 -1.65422 0 
-4.16737 -1.65386 0 
-3.95537 -1.65471 0 
-3.74326 -1.6554 0 
-3.5309 -1.65455 0 
-3.31876 -1.65426 0 
-3.10682 -1.65593 0 
-2.89443 -1.65705 0 
-2.68177 -1.65644 0 
-2.46924 -1.65516 0 
-2.25682 -1.65408 0 
-2.04447 -1.65386 0 
-1.83202 -1.65455 0 
-1.61911 -1.65506 0 
-1.40572 -1.65429 0 
-1.19212 -1.65207 0 
-0.97885 -1.64982 0 
-0.767325 -1.65372 0 
-0.555434 -1.6581 0 
-0.343588 -1.65935 0 
-0.132061 -1.65818 0 
0.0792288 -1.65687 0 
0.290417 -1.65682 0 
0.501823 -1.6575 0 
0.713729 -1.65709 0 
0.925861 -1.65545 0 
1.13768 -1.65488 0 
1.34929 -1.65604 0 
1.56128 -1.6563 0 
1.77337 -1.65516 0 
1.985 -1.65561 0 
2.19698 -1.65642 0 
2.40939 -1.65525 0 
2.62143 -1.65394 0 
2.83323 -1.65414 0 
3.04553 -1.65355 0 
3.25842 -1.64868 0 
3.46746 -1.65522 0 
3.68272 -1.65284 0 
3.89574 -1.65288 0 
4.10731 -1.65378 0 
4.32287 -1.65565 0 
4.53627 -1.65249 0 
4.74932 -1.65397 0 
4.96428 -1.65355 0 
5.17935 -1.65257 0 
5.3944 -1.65202 0 
5.60927 -1.65354 0 
5.82513 -1.66019 0 
6.04295 -1.66711 0 
6.26383 -1.66843 0 
6.48537 -1.66776 0 
6.70098 -1.65646 0 
6.91299 -1.6206 0 
7.11709 -1.6046 0 
7.3526 -1.69716 0 
7.60698 -1.65764 0 
7.8325 -1.64214 0 
8.05985 -1.58842 0 
8.2608 -1.69223 0 
8.48528 -1.56961 0 
-8.48528 -1.35019 0 
-8.24958 -1.48044 0 
-8.0219 -1.3751 0 
-7.79713 -1.50391 0 
-7.58956 -1.39834 0 
-7.36199 -1.38754 0 
-7.16079 -1.49923 0 
-6.93764 -1.46284 0 
[...]
POINT_DATA 2054 
VECTORS vectors float
0.0380695 -0.0548561 0.997771 
0.0459217 -0.0405035 0.998144 
0.0458777 -0.0320355 0.998463 
0.0454435 -0.0259269 0.998662 
0.0456396 -0.0237465 0.998704 
0.0453639 -0.0233198 0.998726 
0.0449365 -0.0212596 0.99879 
0.0447741 -0.0178762 0.998863 
0.0448097 -0.0141034 0.998922 
0.0449134 -0.0105427 0.998961 
0.0450117 -0.00736923 0.998985 
0.0450814 -0.00453207 0.998998 
0.045118 -0.00189985 0.999005 
0.045122 0.0006629 0.999006 
0.0450964 0.00328491 0.999002 
0.045042 0.00608204 0.998991 
0.0449524 0.00918193 0.998972 
0.0448198 0.0127447 0.998939 
0.0446374 0.0169615 0.998884 
0.0443968 0.0220552 0.998796 
0.0440865 0.0282879 0.998653 
0.0436926 0.0359723 0.998424 
0.043197 0.0454839 0.998058 
0.0425755 0.0572822 0.997478 
0.0417974 0.0719302 0.996562 
0.0408241 0.0901178 0.995124 
0.0396076 0.112689 0.992872 
0.0380886 0.140662 0.989357 
0.0361967 0.17525 0.983892 
0.033851 0.21786 0.975429 
0.0309653 0.270049 0.962386 
0.0274621 0.33341 0.942421 
0.0233054 0.409295 0.912144 
0.0185587 0.498286 0.866853 
0.0134638 0.599238 0.800494 
0.00849477 0.707964 0.70623 
0.00430302 0.81596 0.578119 
0.00147659 0.9103 0.413962 
0.000178584 0.975862 0.218391 
-8.56062e-05 0.99999 0.00408569 
-0.000321042 0.977567 -0.210628 
-0.00154762 0.913308 -0.407283 
-0.00429351 0.819659 -0.572862 
-0.00842488 0.711775 -0.702389 
-0.0133638 0.602766 -0.797843 
-0.0184537 0.501322 -0.865103 
-0.0232094 0.411795 -0.91102 
-0.0273806 0.335406 -0.941714 
-0.0308989 0.271614 -0.961947 
-0.0337983 0.21907 -0.975159 
-0.0361556 0.176175 -0.983729 
-0.0380566 0.141365 -0.989258 
-0.0395827 0.113223 -0.992812 
-0.040805 0.0905229 -0.995088 
-0.0417827 0.072238 -0.996541 
-0.0425645 0.0575173 -0.997464 
-0.043189 0.045666 -0.99805 
-0.0436867 0.0361158 -0.998419 
-0.0440818 0.0284038 -0.99865 
-0.0443928 0.022151 -0.998794 
-0.0446336 0.0170423 -0.998883 
-0.0448159 0.0128134 -0.998938 
-0.044949 0.0092398 -0.998971 
-0.0450405 0.00613035 -0.998991 
-0.0450988 0.00332617 -0.999002 
-0.0451283 0.000698989 -0.999006 
-0.0451308 -0.00188026 -0.999004 
-0.0451035 -0.00451885 -0.998998 
-0.0450258 -0.00736705 -0.998985 
-0.0450338 -0.0105613 -0.998943 
-0.0447802 -0.0139803 -0.998927 
-0.0449754 -0.0176846 -0.998857 
-0.0451347 -0.0209086 -0.998788 
-0.0455095 -0.0227964 -0.998733 
-0.0457059 -0.0232686 -0.998712 
-0.0454154 -0.0256242 -0.998672 
-0.0457827 -0.031784 -0.998476 
-0.0457991 -0.0403579 -0.998157 
-0.0379463 -0.0548031 -0.997779 
0.0153544 -0.0586668 0.998185 
0.0278487 -0.0460275 0.998617 
0.030127 -0.0374994 0.998926 
0.0326082 -0.0301769 0.999098 
0.0345977 -0.0255989 0.999153 
0.0351878 -0.0230929 0.999189 
0.0354153 -0.021146 0.999222 
0.0355926 -0.0186866 0.999264 
0.0356967 -0.0155567 0.999313 
0.0357811 -0.0121288 0.999358 
0.0359708 -0.00881231 0.999385 
0.0361349 -0.00578953 0.999401 
0.0362461 -0.00302469 0.999409 
0.0363073 -0.00039855 0.999411 
0.0363244 0.00222228 0.999407 
0.0362974 0.0049674 0.999398 
0.0362216 0.00796819 0.999382 
0.0360899 0.0113737 0.999354 
0.0358967 0.0153593 0.999308 
0.0356376 0.0201315 0.999233 
0.0353119 0.0259366 0.999111 
0.0349047 0.033073 0.998915 
0.03439 0.0418939 0.998603 
0.0337507 0.0528187 0.998108 
0.032975 0.0663707 0.997326 
0.0320358 0.0832072 0.996094 
0.0308902 0.104128 0.994163 
0.0294967 0.130079 0.991146 
0.0278186 0.162178 0.986453 
0.0258199 0.20175 0.979183 
0.0234621 0.250304 0.967972 
0.0207139 0.30945 0.950782 
0.0175764 0.380642 0.924649 
0.0141208 0.464689 0.885454 
0.0105279 0.561013 0.82783 
0.00707226 0.666769 0.745314 
0.00407143 0.775601 0.631282 
0.00180548 0.876574 0.481319 
0.000383698 0.954941 0.296826 
-0.000369643 0.996154 0.0876091 
-0.000884985 0.991612 -0.12925 
-0.00167727 0.942415 -0.334477 
-0.00314704 0.858663 -0.512588 
-0.00543728 0.755125 -0.655633 
-0.00841694 0.645972 -0.763399 
-0.0117984 0.541381 -0.840785 
-0.0152676 0.447079 -0.894457 
-0.0185682 0.365455 -0.930737 
-0.021552 0.29668 -0.954825 
-0.0241656 0.239688 -0.970638 
-0.0264039 0.19297 -0.980936 
-0.0282896 0.154972 -0.987597 
-0.0298679 0.124219 -0.991886 
-0.0311787 0.0993933 -0.994639 
-0.0322653 0.0793963 -0.996398 
-0.033161 0.063293 -0.997519 
-0.0338956 0.0503296 -0.998231 
-0.0344981 0.0398855 -0.998681 
-0.0349907 0.0314512 -0.998965 
-0.0353844 0.0246154 -0.999142 
-0.0356926 0.0190425 -0.999252 
-0.0359283 0.0144496 -0.99932 
-0.036106 0.0105963 -0.999362 
-0.0362346 0.00727729 -0.999387 
-0.036322 0.00431737 -0.999401 
-0.0363795 0.0015649 -0.999408 
-0.0364262 -0.00112891 -0.999407 
-0.0364657 -0.00392905 -0.9994 
-0.0362956 -0.00704294 -0.99939 
-0.0358967 -0.0105341 -0.999389 
-0.0353464 -0.0142682 -0.999361 
-0.0363839 -0.0177534 -0.999241 
-0.0350231 -0.0202601 -0.999271 
-0.0357409 -0.0226324 -0.99918 
-0.0345663 -0.0252613 -0.999164 
-0.0326176 -0.0298255 -0.99911 
-0.0298888 -0.0372238 -0.998946 
-0.0276509 -0.0457479 -0.998636 
-0.015412 -0.0585846 -0.99819 
0.00926747 -0.0602951 0.998165 
0.0191749 -0.0463647 0.998821 
0.0209629 -0.0362616 0.999223 
0.0252423 -0.0285462 0.999351 
0.0257011 -0.0245033 0.999449 
0.0261503 -0.021551 0.999501 
0.0268032 -0.0191353 0.999532 
0.0271602 -0.0167659 0.999563 
0.0272144 -0.0138224 0.999606 
0.0274392 -0.0105154 0.99964 
0.027684 -0.00732008 0.999661 
0.0278691 -0.00439353 0.999673 
0.0279795 -0.0016727 0.999678 
0.028038 0.00097198 0.999676 
0.0280478 0.00367692 0.99967 
0.0280001 0.00657716 0.999656 
0.0278912 0.00981551 0.999633 
0.0277164 0.0135544 0.999594 
0.0274703 0.0179865 0.999531 
0.0271566 0.0233377 0.999429 
0.0267755 0.0298796 0.999266 
0.0262998 0.0379444 0.999006 
0.0257007 0.0479249 0.998593 
0.024981 0.0602869 0.997943 
0.0241387 0.0756263 0.99692 
0.0231391 0.09469 0.995315 
0.0219449 0.118362 0.992808 
0.0205386 0.147675 0.988905 
0.018913 0.183847 0.982857 
0.0170625 0.228287 0.973531 
0.0149813 0.282562 0.959221 
0.0126743 0.348213 0.937421 
0.010186 0.426384 0.904577 
0.00762523 0.517183 0.855932 
0.00517147 0.61877 0.785641 
0.00300358 0.726642 0.687088 
0.00126432 0.83231 0.554373 
3.12391e-05 0.922723 0.385506 
-0.000733976 0.982521 0.186165 
-0.00120758 0.999567 -0.0293481 
-0.00165321 0.970305 -0.241903 
-0.00233778 0.901121 -0.43361 
-0.00344842 0.805278 -0.592955 
-0.00503574 0.697704 -0.716449 
-0.00702612 0.590529 -0.807073 
-0.009276 0.491304 -0.87103 
-0.0116101 0.403736 -0.914894 
-0.0138776 0.328986 -0.944324 
-0.0159952 0.266533 -0.963782 
-0.0179191 0.21502 -0.976531 
-0.0196194 0.172931 -0.984822 
-0.0211008 0.138782 -0.990179 
-0.0223882 0.111177 -0.993627 
-0.0234841 0.088898 -0.995841 
-0.0244236 0.0709722 -0.997255 
-0.025215 0.0565244 -0.998157 
-0.0258761 0.0448851 -0.99873 
-0.0264301 0.0354972 -0.999092 
-0.0268872 0.0278972 -0.99932 
-0.0272478 0.0217128 -0.999464 
-0.0275246 0.0166429 -0.999553 
-0.0277345 0.0124266 -0.999608 
-0.0278875 0.00884424 -0.999642 
-0.027994 0.00570758 -0.999662 
-0.0280549 0.00285599 -0.999673 
-0.0280886 0.000142408 -0.999677 
-0.0281269 -0.00257153 -0.999673 
-0.0281015 -0.00543047 -0.999664 
-0.0278832 -0.00858152 -0.999649 
-0.0274332 -0.0119435 -0.999627 
-0.0262938 -0.0150955 -0.999604 
-0.0283384 -0.0175779 -0.999517 
-0.0236911 -0.0187997 -0.999616 
-0.028004 -0.0211595 -0.999446 
-0.0259563 -0.0241278 -0.999452 
-0.0248287 -0.0283129 -0.999372 
-0.0206632 -0.0355372 -0.99926 
-0.0192171 -0.0460045 -0.998839 
-0.00928687 -0.0602144 -0.998171 
0.00588707 -0.0599402 0.998209 
0.0123883 -0.0474073 0.998885 
0.0132494 -0.0381966 0.999259 
0.0180953 -0.0314371 0.999399 
0.0188051 -0.0267036 0.999543 
0.0190474 -0.0227719 0.999636 
0.0202187 -0.0197777 0.999671 
0.0210395 -0.0176833 0.999692 
0.0212193 -0.0154788 0.999726 
0.0215785 -0.0124698 0.999761 
0.0219378 -0.00918609 0.999788 
0.022218 -0.00607541 0.999805 
0.0223983 -0.00321595 0.999814 
0.0225133 -0.00050979 0.999816 
0.0225779 0.00217849 0.999812 
0.0225771 0.00498828 0.999802 
0.0225068 0.00805977 0.999783 
0.0223716 0.0115428 0.999752 
0.0221663 0.0156144 0.999702 
0.021884 0.0204848 0.999621 
0.0215319 0.0263974 0.99949 
0.0211037 0.0336484 0.999282 
0.0205666 0.0426037 0.998952 
0.0199073 0.0536907 0.998432 
0.019141 0.067421 0.997615 
0.0182561 0.0844628 0.996335 
0.017219 0.105637 0.994333 
0.0160157 0.131895 0.991214 
0.0146491 0.164343 0.986376 
0.0131269 0.20428 0.978909 
0.0114587 0.253168 0.967442 
0.00965295 0.312573 0.949934 
0.00773326 0.38391 0.923429 
0.00575874 0.467934 0.883835 
0.00383222 0.563989 0.825862 
0.00209753 0.668864 0.743465 
0.000650898 0.776575 0.630096 
-0.000444341 0.876726 0.481045 
-0.00117103 0.954771 0.297372 
-0.00158714 0.996037 0.0889265 
-0.00182937 0.991877 -0.127196 
-0.002081 0.943403 -0.331677 
-0.0025207 0.860672 -0.509211 
-0.00326772 0.758221 -0.652063 
-0.00435295 0.650013 -0.759994 
-0.00573571 0.546102 -0.837788 
-0.00732565 0.452069 -0.892044 
-0.00900384 0.37028 -0.928967 
-0.010677 0.301132 -0.953611 
-0.0122933 0.243663 -0.969869 
-0.0138059 0.196401 -0.980511 
-0.0151811 0.157875 -0.987424 
-0.0164213 0.126663 -0.991889 
-0.0175308 0.101435 -0.994765 
-0.0184859 0.0810703 -0.996613 
-0.0193348 0.0647117 -0.997791 
-0.0200536 0.0514873 -0.998545 
-0.0206592 0.0408287 -0.999024 
-0.0211714 0.032221 -0.999328 
-0.021591 0.0252301 -0.999519 
-0.021912 0.019519 -0.999639 
-0.0221591 0.0148076 -0.999714 
-0.0223342 0.0108577 -0.999761 
-0.02246 0.00745778 -0.999789 
-0.0225363 0.00443957 -0.999806 
-0.0225625 0.0016479 -0.999814 
-0.0225457 -0.00106562 -0.999815 
-0.0224898 -0.00384372 -0.99981 
-0.0223515 -0.00683875 -0.999798 
-0.0219689 -0.0101474 -0.999779 
-0.0213911 -0.0135814 -0.999751 
-0.0208594 -0.0164769 -0.999733 
-0.0186049 -0.0184561 -0.999731 
-0.020782 -0.0213034 -0.99963 
-0.018676 -0.0252968 -0.999599 
-0.0174853 -0.0301202 -0.999458 
-0.0134148 -0.0375667 -0.999285 
-0.0123621 -0.047297 -0.998892 
-0.00598465 -0.0599103 -0.998211 
0.0039713 -0.0605555 0.99818 
0.00831943 -0.0482847 0.99888 
0.00992263 -0.0377229 0.999318 
0.0141148 -0.0306228 0.999505 
0.014019 -0.0250589 0.999686 
0.0149726 -0.0206592 0.999751 
0.0165933 -0.0184803 0.999753 
0.0167183 -0.0169314 0.999789 
0.0171119 -0.014574 0.999819 
0.01751 -0.0113985 0.999854 
0.0178792 -0.00810191 0.999879 
0.0181473 -0.00503558 0.999894 
0.0183206 -0.00220121 0.9999 
0.0184309 0.000522447 0.9999 
0.0184783 0.00327915 0.999893 
0.0184469 0.0062145 0.99988 
0.0183445 0.00947015 0.999856 
0.0181792 0.0132047 0.999817 
0.0179407 0.017613 0.999754 
0.017627 0.0229215 0.999652 
0.0172472 0.0293872 0.99949 
0.0167853 0.0373335 0.999233 
0.0162087 0.0471607 0.998828 
0.0155221 0.0593248 0.998192 
0.014745 0.0743827 0.997196 
0.0138541 0.0930787 0.995639 
0.0128238 0.116294 0.993211 
0.0116591 0.145031 0.989439 
0.0103779 0.180471 0.983609 
0.00899887 0.223969 0.97464 
0.00754012 0.277023 0.960921 
0.00601295 0.341193 0.940064 
0.004442 0.417707 0.908662 
0.00288133 0.506871 0.862107 
0.00141537 0.607164 0.794661 
0.000156387 0.713873 0.700353 
-0.000848725 0.819695 0.572864 
-0.00155999 0.912366 0.409418 
-0.00196998 0.976685 0.214688 
-0.00213195 0.999995 0.00161453 
-0.00216287 0.97744 -0.211223 
-0.00221471 0.914038 -0.405669 
-0.00242842 0.822102 -0.569399 
-0.0028903 0.716288 -0.697876 
-0.00362096 0.609193 -0.793099 
-0.00459287 0.509028 -0.860827 
-0.00573897 0.419845 -0.907668 
-0.00697601 0.343104 -0.939361 
-0.00825185 0.278684 -0.960435 
-0.00952879 0.225325 -0.974322 
-0.0107547 0.181523 -0.983411 
-0.0118998 0.145889 -0.98931 
-0.0129657 0.117043 -0.993121 
-0.0139363 0.0937117 -0.995579 
-0.0147694 0.0748673 -0.997159 
-0.0155539 0.0597812 -0.998164 
-0.0162063 0.0474942 -0.998813 
-0.0167583 0.0376054 -0.999224 
-0.0172319 0.0296045 -0.999484 
-0.01761 0.0230895 -0.999649 
-0.0178993 0.0177256 -0.999753 
-0.018107 0.0133005 -0.999817 
-0.0182567 0.0095418 -0.999858 
-0.018349 0.00627081 -0.999882 
-0.0184049 0.00332907 -0.999895 
-0.018437 0.000565269 -0.9999 
-0.0184501 -0.00216754 -0.999898 
-0.0184169 -0.00502587 -0.999889 
-0.0182605 -0.00815126 -0.999873 
-0.0178875 -0.0115507 -0.999846 
-0.0174125 -0.0148067 -0.999813 
-0.0163183 -0.0170025 -0.999798 
-0.0145424 -0.0186422 -0.999792 
-0.0160343 -0.0212451 -0.999722 
-0.0141736 -0.0251214 -0.999656 
-0.0130982 -0.0300056 -0.999555 
-0.00976785 -0.0377598 -0.999319 
-0.0083625 -0.0480881 -0.99889 
-0.00392993 -0.0604948 -0.998184 
0.00357038 -0.0608557 0.998161 
0.00620493 -0.0486066 0.998875 
0.00749339 -0.0379978 0.999326 
0.0107223 -0.030232 0.999561 
0.0102745 -0.025145 0.99971 
0.0115462 -0.0210386 0.999787 
0.0132476 -0.0182491 0.999829 
0.0137666 -0.0166156 0.999839 
0.0142054 -0.0138802 0.999873 
0.0146353 -0.0104674 0.999907 
0.0150056 -0.00713162 0.99993 
0.0152589 -0.00408055 0.999942 
0.0154219 -0.00124798 0.999947 
0.0155236 0.00151079 0.999944 
0.0155565 0.00435486 0.999935 
0.0155086 0.00743065 0.999918 
0.0153964 0.0108803 0.999888 
0.0152209 0.0148767 0.999839 
0.0149696 0.0196336 0.999761 
0.0146441 0.0253903 0.999637 
0.0142477 0.0324167 0.99944 
0.0137608 0.04107 0.99913 
0.0131643 0.0517807 0.998641 
0.0124721 0.0650303 0.997876 
0.0116927 0.0814294 0.996683 
0.0108012 0.101801 0.99482 
0.00978995 0.127072 0.991922 
0.00867764 0.158294 0.987433 
0.00748551 0.196723 0.980512 
0.0062367 0.243777 0.969895 
0.0049515 0.300989 0.953701 
0.00364525 0.369888 0.929158 
0.00234413 0.451477 0.892369 
0.00109369 0.545493 0.838202 
-4.23418e-05 0.649335 0.760585 
-0.00098552 0.756552 0.654005 
-0.00171134 0.858469 0.512921 
-0.00218066 0.941385 0.337366 
-0.00238791 0.990849 0.134963 
-0.00238548 0.996858 -0.0791743 
-0.00228079 0.958197 -0.286132 
-0.00220576 0.882918 -0.469576 
-0.00227367 0.784558 -0.62012 
-0.00254951 0.677303 -0.73578 
-0.00304933 0.572298 -0.820126 
-0.00375385 0.476094 -0.879475 
-0.00461527 0.391512 -0.92025 
-0.00558053 0.319382 -0.947697 
-0.00661831 0.259186 -0.965889 
-0.00768721 0.209415 -0.977879 
-0.00873456 0.168626 -0.985721 
-0.00973747 0.135514 -0.990805 
-0.010687 0.108712 -0.994091 
-0.0115524 0.0870071 -0.996214 
-0.0122944 0.069463 -0.99758 
-0.0130307 0.0555243 -0.998442 
-0.0136141 0.0439643 -0.999009 
-0.0141088 0.0347239 -0.999365 
-0.0145223 0.0272801 -0.99959 
-0.0148701 0.0211008 -0.999734 
-0.0150864 0.0160796 -0.999823 
-0.0152694 0.0118938 -0.999879 
-0.0153658 0.00829076 -0.999914 
-0.0153934 0.00512424 -0.999935 
-0.0153756 0.00224253 -0.999946 
-0.0153356 -0.000501498 -0.999949 
-0.0152973 -0.00326436 -0.999944 
-0.0151987 -0.00619295 -0.999932 
-0.0149608 -0.0094135 -0.999911 
-0.0145782 -0.0127946 -0.99988 
-0.0139244 -0.0156793 -0.999848 
-0.0128228 -0.0174721 -0.999832 
-0.0118183 -0.0186385 -0.999811 
-0.011938 -0.0216459 -0.999777 
-0.0105377 -0.0265294 -0.999671 
-0.00911038 -0.0318707 -0.999522 
-0.00688766 -0.040034 -0.999237 
-0.00592698 -0.0492324 -0.998848 
-0.00342246 -0.0608245 -0.998166 
0.00339705 -0.0608009 0.998164 
0.00510997 -0.0487893 0.998872 
0.00618078 -0.0381234 0.999329 
0.00817446 -0.0308247 0.999562 
0.00860587 -0.0258751 0.999693 
0.00955115 -0.0214284 0.999809 
0.0109763 -0.0190521 0.999818 
0.0118048 -0.0177186 0.999843 
0.0124637 -0.0159071 0.999865 
0.012999 -0.0128614 0.999901 
0.0134427 -0.00940517 0.999933 
0.0137829 -0.00613077 0.999953 
0.0140084 -0.00312318 0.999963 
0.0141621 -0.000307233 0.999965 
0.0142555 0.0024887 0.99996 
0.0142721 0.00542209 0.999948 
0.0142156 0.00864066 0.999926 
0.0140976 0.0122833 0.99989 
0.0139118 0.0165396 0.999831 
0.0136506 0.0216512 0.999738 
0.0133152 0.0278548 0.999589 
0.0129047 0.0354418 0.999355 
0.0124022 0.0448022 0.998987 
0.0118022 0.0563943 0.998408 
0.0111137 0.0707209 0.997504 
0.0103305 0.0884555 0.996098 
0.00943631 0.110493 0.993906 
0.00843914 0.1378 0.9905 
0.0073575 0.171479 0.985239 
0.00620861 0.212867 0.977143 
0.00501394 0.263434 0.964748 
0.00379617 0.324727 0.945886 
0.00257847 0.398182 0.91739 
0.00139323 0.484446 0.874908 
0.000282548 0.582478 0.812932 
-0.000701102 0.68835 0.725456 
-0.00149908 0.794019 0.607959 
-0.00208282 0.890084 0.455843 
-0.00241203 0.962532 0.271186 
-0.00249354 0.997972 0.0635973 
-0.00239476 0.988676 -0.150059 
-0.00223104 0.936486 -0.350737 
-0.00212585 0.851813 -0.523901 
-0.00217318 0.748911 -0.66274 
-0.00242234 0.641364 -0.767315 
-0.00287994 0.538921 -0.842438 
-0.0035239 0.446608 -0.89481 
-0.0043164 0.366292 -0.930577 
-0.00521589 0.298339 -0.954531 
-0.00618379 0.241914 -0.970361 
-0.00717697 0.195285 -0.980801 
-0.00815274 0.157126 -0.987623 
-0.00908592 0.12624 -0.992034 
-0.00995885 0.101223 -0.994887 
-0.0107484 0.0808977 -0.996736 
-0.0114352 0.0644311 -0.997928 
-0.0121257 0.0516041 -0.998661 
-0.0126463 0.0404193 -0.999171 
-0.0130602 0.0319989 -0.99947 
-0.0134659 0.0248002 -0.999668 
-0.0137223 0.019092 -0.99979 
-0.013921 0.0143706 -0.999866 
-0.0140717 0.0104253 -0.999912 
-0.0141229 0.0069465 -0.999942 
-0.0141036 0.00387477 -0.999958 
-0.0140315 0.00106441 -0.999967 
-0.0139348 -0.0016872 -0.999967 
-0.0138049 -0.00448345 -0.99996 
-0.0136056 -0.00749687 -0.999945 
-0.0132652 -0.0108059 -0.99992 
-0.0127936 -0.0141251 -0.999886 
-0.0120856 -0.0167898 -0.999855 
-0.0110235 -0.018225 -0.999852 
-0.0102361 -0.0199803 -0.999802 
-0.00928859 -0.0237025 -0.999749 
-0.00802114 -0.0285355 -0.999635 
-0.00669729 -0.0345558 -0.999453 
-0.00491263 -0.0483039 -0.998913 
-0.00328705 -0.0608722 -0.99816 
0.00297998 -0.0606879 0.998171 
0.00455756 -0.0487254 0.998877 
0.00559805 -0.0378566 0.999342 
0.00721522 -0.0306182 0.999576 
0.00817479 -0.0248316 0.999733 
0.00899254 -0.0207042 0.999818 
0.0103823 -0.0188189 0.99984 
0.0111172 -0.0175937 0.999855 
0.0116574 -0.0153025 0.999884 
0.0120927 -0.0119249 0.999923 
0.0124796 -0.00842329 0.999953 
0.0127567 -0.00517487 0.999971 
0.0129035 -0.0022052 0.999979 
0.0130312 0.000601058 0.999979 
0.0130932 0.00342946 0.999972 
0.0130734 0.0064613 0.999957 
0.0129852 0.00982538 0.999931 
0.012851 0.0136455 0.999888 
0.0126607 0.0181784 0.999819 
0.0123937 0.0236485 0.999708 
0.0120659 0.0302985 0.999533 
0.0116708 0.0384425 0.999259 
0.0111853 0.0485081 0.998827 
0.0106144 0.0609534 0.998152 
0.00997255 0.076314 0.997103 
0.00923731 0.0953412 0.995473 
0.00838857 0.118986 0.992934 
0.00744579 0.148196 0.989006 
0.00642988 0.184095 0.982966 
0.00535526 0.228043 0.973717 
0.0042424 0.281438 0.959653 
0.00311187 0.345675 0.938434 
0.00198754 0.421965 0.906696 
0.00090671 0.510433 0.860003 
-8.91544e-05 0.609592 0.792797 
-0.000953283 0.715213 0.69898 
-0.00163759 0.819236 0.573517 
-0.00210498 0.911383 0.4116 
-0.0023185 0.976115 0.217267 
-0.00230127 0.999992 0.00314539 
-0.00214144 0.97743 -0.211273 
-0.00196373 0.913574 -0.406714 
-0.00188163 0.821191 -0.570714 
-0.00196961 0.71509 -0.699105 
-0.00226132 0.608202 -0.793862 
-0.00275125 0.508688 -0.861032 
-0.00340871 0.420105 -0.907556 
-0.00419145 0.343696 -0.939157 
-0.00505939 0.279568 -0.960196 
-0.00597712 0.22652 -0.974069 
-0.00689618 0.182539 -0.983253 
-0.00777638 0.146646 -0.989235 
-0.00861301 0.117769 -0.993077 
-0.00939001 0.0942213 -0.995579 
-0.0100714 0.0748696 -0.997214 
-0.0106172 0.059131 -0.998272 
-0.0114703 0.0473614 -0.998868 
-0.0116061 0.0371164 -0.999321 
-0.0122055 0.0286601 -0.99958 
-0.0124284 0.0222141 -0.999742 
-0.0126391 0.0168986 -0.999843 
-0.0127882 0.0125031 -0.999905 
-0.0129708 0.00880505 -0.999941 
-0.0129583 0.00536105 -0.999966 
-0.0128754 0.00243013 -0.999979 
-0.0128465 -0.000382225 -0.999982 
-0.0127694 -0.00314782 -0.999978 
-0.0127013 -0.00594403 -0.999965 
-0.0125503 -0.0088636 -0.999935 
-0.0121714 -0.0120092 -0.999918 
-0.0117143 -0.0151806 -0.999882 
-0.011041 -0.0175525 -0.999852 
-0.0100627 -0.0188235 -0.999839 
-0.00956576 -0.0203368 -0.999814 
-0.00826025 -0.0248786 -0.999734 
-0.00679337 -0.0302922 -0.999604 
-0.00543767 -0.0396737 -0.999272 
-0.00419064 -0.0497005 -0.998821 
-0.00285092 -0.0608396 -0.998163 
0.00233591 -0.0606555 0.998174 
0.00394104 -0.0485295 0.998889 
0.00472753 -0.0375332 0.999359 
0.00655684 -0.0301648 0.999595 
0.00710583 -0.0248855 0.999739 
0.00747464 -0.02103 0.999819 