# vtk DataFile Version 3.0 
Exported using Morpho https://github.com/Morpho-lang/morpho 
ASCII 
DATASET UNSTRUCTURED_GRID 

POINTS 2054 float 
-8.48528 -2.82843 0 
-8.20636 -2.82843 0 
-7.94054 -2.82843 0 
-7.6904 -2.82843 0 
-7.45357 -2.82843 0 
-7.22694 -2.82843 0 
-7.00705 -2.82843 0 
-6.79111 -2.82843 0 
-6.57731 -2.82843 0 
-6.36453 -2.82843 0 
-6.15219 -2.82843 0 
-5.94 -2.82843 0 
-5.72786 -2.82843 0 
-5.51573 -2.82843 0 
-5.3036 -2.82843 0 
-5.09147 -2.82843 0 
-4.87933 -2.82843 0 
-4.6672 -2.82843 0 
-4.45507 -2.82843 0 
-4.24294 -2.82843 0 
-4.03081 -2.82843 0 
-3.81867 -2.82843 0 
-3.60654 -2.82843 0 
-3.39441 -2.82843 0 
-3.18228 -2.82843 0 
-2.97015 -2.82843 0 
-2.75801 -2.82843 0 
-2.54588 -2.82843 0 
-2.33375 -2.82843 0 
-2.12162 -2.82843 0 
-1.90949 -2.82843 0 
-1.69735 -2.82843 0 
-1.48522 -2.82843 0 
-1.27309 -2.82843 0 
-1.06096 -2.82843 0 
-0.848825 -2.82843 0 
-0.636693 -2.82843 0 
-0.424561 -2.82843 0 
-0.212429 -2.82843 0 
-0.000296761 -2.82843 0 
0.211835 -2.82843 0 
0.423967 -2.82843 0 
0.636099 -2.82843 0 
0.848231 -2.82843 0 
1.06036 -2.82843 0 
1.2725 -2.82843 0 
1.48463 -2.82843 0 
1.69676 -2.82843 0 
1.90889 -2.82843 0 
2.12102 -2.82843 0 
2.33316 -2.82843 0 
2.54529 -2.82843 0 
2.75742 -2.82843 0 
2.96955 -2.82843 0 
3.18168 -2.82843 0 
3.39382 -2.82843 0 
3.60595 -2.82843 0 
3.81808 -2.82843 0 
4.03021 -2.82843 0 
4.24234 -2.82843 0 
4.45448 -2.82843 0 
4.66661 -2.82843 0 
4.87874 -2.82843 0 
5.09087 -2.82843 0 
5.303 -2.82843 0 
5.51514 -2.82843 0 
5.72727 -2.82843 0 
5.93941 -2.82843 0 
6.15159 -2.82843 0 
6.36393 -2.82843 0 
6.57672 -2.82843 0 
6.79055 -2.82843 0 
7.00652 -2.82843 0 
7.22647 -2.82843 0 
7.45313 -2.82843 0 
7.69005 -2.82843 0 
7.9403 -2.82843 0 
8.20621 -2.82843 0 
8.48528 -2.82843 0 
-8.48528 -2.5495 0 
-8.30526 -2.64845 0 
-8.07062 -2.59995 0 
-7.83904 -2.59637 0 
-7.59595 -2.59733 0 
-7.36578 -2.59177 0 
-7.13796 -2.5933 0 
-6.90908 -2.59428 0 
-6.68421 -2.5916 0 
-6.46568 -2.58832 0 
-6.24926 -2.58859 0 
-6.03358 -2.58941 0 
-5.81848 -2.59013 0 
-5.60402 -2.59075 0 
-5.39005 -2.59135 0 
-5.17642 -2.59186 0 
-4.96311 -2.59223 0 
-4.75009 -2.59242 0 
-4.53736 -2.59244 0 
-4.32497 -2.59236 0 
-4.1128 -2.59242 0 
-3.90059 -2.59259 0 
-3.68835 -2.5926 0 
-3.47627 -2.59248 0 
-3.26428 -2.59251 0 
-3.05216 -2.59271 0 
-2.83986 -2.59283 0 
-2.62755 -2.59274 0 
-2.41539 -2.59253 0 
-2.20336 -2.59238 0 
-1.99135 -2.59238 0 
-1.77924 -2.59246 0 
-1.56704 -2.59244 0 
-1.35495 -2.59215 0 
-1.14319 -2.59183 0 
-0.931581 -2.59195 0 
-0.719663 -2.59256 0 
-0.507197 -2.59324 0 
-0.294425 -2.59354 0 
-0.0817689 -2.59344 0 
0.130587 -2.59325 0 
0.342804 -2.59322 0 
0.555051 -2.59322 0 
0.767233 -2.59303 0 
0.97919 -2.59278 0 
1.19107 -2.59278 0 
1.40311 -2.59289 0 
1.61524 -2.59286 0 
1.82732 -2.59279 0 
2.03943 -2.59281 0 
2.25163 -2.5928 0 
2.46381 -2.59266 0 
2.67591 -2.59254 0 
2.88801 -2.59237 0 
3.10001 -2.59226 0 
3.31203 -2.59216 0 
3.52402 -2.59207 0 
3.73601 -2.59208 0 
3.94815 -2.59221 0 
4.16052 -2.5923 0 
4.37309 -2.59232 0 
4.58593 -2.59227 0 
4.79921 -2.5922 0 
5.01319 -2.59212 0 
5.22833 -2.5921 0 
5.44534 -2.59239 0 
5.6657 -2.59346 0 
5.89185 -2.59569 0 
6.12685 -2.59429 0 
6.36853 -2.59189 0 
6.6108 -2.57787 0 
6.84491 -2.61411 0 
7.08804 -2.58476 0 
7.34858 -2.60369 0 
7.58803 -2.59327 0 
7.83059 -2.59326 0 
8.06387 -2.59199 0 
8.30038 -2.64348 0 
8.48528 -2.54936 0 
-8.48528 -2.28369 0 
-8.25701 -2.4138 0 
-8.01078 -2.35334 0 
-7.73666 -2.37963 0 
-7.49744 -2.35565 0 
-7.26898 -2.35831 0 
-7.03324 -2.36676 0 
-6.7997 -2.36275 0 
-6.5773 -2.35166 0 
-6.35808 -2.3495 0 
-6.14038 -2.35058 0 
-5.92336 -2.35185 0 
-5.70723 -2.35272 0 
-5.49199 -2.35362 0 
-5.27734 -2.35447 0 
-5.0632 -2.35505 0 
-4.84958 -2.35534 0 
-4.63641 -2.35533 0 
-4.42363 -2.35504 0 
-4.21126 -2.35485 0 
-3.99909 -2.35513 0 
-3.78684 -2.3554 0 
-3.57461 -2.35516 0 
-3.36263 -2.35498 0 
-3.15066 -2.35537 0 
-2.93843 -2.35586 0 
-2.72604 -2.35589 0 
-2.51374 -2.35551 0 
-2.30162 -2.35509 0 
-2.08964 -2.35496 0 
-1.87761 -2.35518 0 
-1.66544 -2.3554 0 
-1.45322 -2.35518 0 
-1.2412 -2.35438 0 
-1.02967 -2.35407 0 
-0.818162 -2.35505 0 
-0.606054 -2.35676 0 
-0.393243 -2.3579 0 
-0.180256 -2.35789 0 
0.0323765 -2.35727 0 
0.244686 -2.35692 0 
0.456926 -2.35692 0 
0.669206 -2.35667 0 
0.881318 -2.35598 0 
1.09315 -2.35559 0 
1.305 -2.35583 0 
1.51709 -2.35595 0 
1.72919 -2.35571 0 
1.9412 -2.35566 0 
2.15334 -2.3558 0 
2.36559 -2.3556 0 
2.57772 -2.35522 0 
2.78976 -2.35507 0 
3.0019 -2.35461 0 
3.21373 -2.35451 0 
3.42571 -2.35439 0 
3.63769 -2.35431 0 
3.84965 -2.35453 0 
4.06183 -2.35491 0 
4.27435 -2.35507 0 
4.48707 -2.35507 0 
4.70017 -2.35506 0 
4.91376 -2.35498 0 
5.12819 -2.35502 0 
5.34378 -2.35528 0 
5.56106 -2.35662 0 
5.78097 -2.35971 0 
6.00401 -2.36251 0 
6.2308 -2.3624 0 
6.45748 -2.35551 0 
6.68075 -2.33423 0 
6.88797 -2.39744 0 
7.05313 -2.27289 0 
7.24377 -2.40237 0 
7.48542 -2.36016 0 
7.73055 -2.36599 0 
7.99177 -2.33552 0 
8.24864 -2.40698 0 
8.48528 -2.28345 0 
-8.48528 -2.03355 0 
-8.25312 -2.18214 0 
-8.03669 -2.07913 0 
-7.83956 -2.18231 0 
-7.6106 -2.12852 0 
-7.38852 -2.10959 0 
-7.16268 -2.14097 0 
-6.9229 -2.1435 0 
-6.70119 -2.12055 0 
-6.48111 -2.11285 0 
-6.26282 -2.11284 0 
-6.045 -2.1151 0 
-5.82775 -2.11658 0 
-5.61153 -2.11776 0 
-5.3962 -2.1192 0 
-5.18144 -2.1203 0 
-4.96732 -2.12084 0 
-4.75387 -2.12105 0 
-4.54086 -2.12091 0 
-4.32822 -2.12045 0 
-4.11596 -2.12045 0 
-3.90382 -2.12107 0 
-3.69156 -2.12116 0 
-3.47938 -2.12058 0 
-3.26746 -2.12068 0 
-3.05542 -2.12154 0 
-2.84307 -2.12198 0 
-2.63064 -2.12162 0 
-2.41836 -2.12087 0 
-2.20626 -2.12031 0 
-1.99426 -2.12034 0 
-1.78217 -2.1207 0 
-1.56989 -2.12074 0 
-1.35755 -2.11993 0 
-1.14542 -2.11838 0 
-0.934012 -2.11859 0 
-0.722404 -2.12089 0 
-0.509943 -2.12344 0 
-0.296911 -2.12431 0 
-0.0840921 -2.12359 0 
0.128295 -2.12281 0 
0.340414 -2.12274 0 
0.552564 -2.12288 0 
0.76478 -2.12226 0 
0.976792 -2.1213 0 
1.18855 -2.12128 0 
1.40042 -2.12188 0 
1.61256 -2.12177 0 
1.82458 -2.12141 0 
2.03655 -2.12164 0 
2.24875 -2.12174 0 
2.46099 -2.12114 0 
2.67302 -2.12065 0 
2.88504 -2.12054 0 
3.09728 -2.1194 0 
3.30873 -2.11968 0 
3.52086 -2.1195 0 
3.7329 -2.11938 0 
3.94484 -2.11986 0 
4.15715 -2.12044 0 
4.36983 -2.12035 0 
4.58282 -2.1204 0 
4.79606 -2.12017 0 
5.01004 -2.12012 0 
5.22483 -2.12002 0 
5.44073 -2.12051 0 
5.6582 -2.123 0 
5.8782 -2.12696 0 
6.10217 -2.12971 0 
6.33095 -2.12707 0 
6.567 -2.11601 0 
6.82301 -2.12303 0 
7.06572 -2.04567 0 
7.29733 -2.17484 0 
7.54632 -2.11408 0 
7.79371 -2.13741 0 
8.02274 -2.07453 0 
8.25027 -2.1738 0 
8.48528 -2.0332 0 
-8.48528 -1.79671 0 
-8.25436 -1.93882 0 
-8.01299 -1.83977 0 
-7.78596 -1.953 0 
-7.5297 -1.87194 0 
-7.2756 -1.88722 0 
-7.05707 -1.93544 0 
-6.84369 -1.89677 0 
-6.62219 -1.88079 0 
-6.40169 -1.87606 0 
-6.18206 -1.87854 0 
-5.96274 -1.881 0 
-5.74458 -1.88208 0 
-5.52796 -1.88344 0 
-5.31232 -1.88506 0 
-5.09736 -1.88569 0 
-4.88338 -1.88564 0 
-4.67019 -1.88555 0 
-4.45737 -1.88507 0 
-4.24485 -1.88447 0 
-4.03271 -1.88482 0 
-3.82061 -1.88562 0 
-3.60832 -1.88529 0 
-3.39617 -1.88464 0 
-3.18427 -1.88547 0 
-2.97209 -1.88672 0 
-2.7596 -1.88684 0 
-2.54714 -1.88601 0 
-2.33483 -1.88505 0 
-2.12268 -1.8846 0 
-1.91058 -1.885 0 
-1.69824 -1.88561 0 
-1.48561 -1.88547 0 
-1.27286 -1.88413 0 
-1.06032 -1.88216 0 
-0.848858 -1.8839 0 
-0.636875 -1.88781 0 
-0.424169 -1.89034 0 
-0.211518 -1.89004 0 
0.000731944 -1.88866 0 
0.21257 -1.88788 0 
0.424308 -1.88807 0 
0.636257 -1.88793 0 
0.848362 -1.88664 0 
1.06025 -1.88556 0 
1.27191 -1.88605 0 
1.48381 -1.88664 0 
1.69595 -1.886 0 
1.90782 -1.88577 0 
2.11974 -1.88637 0 
2.33202 -1.88609 0 
2.54419 -1.88502 0 
2.75607 -1.88472 0 
2.96812 -1.88462 0 
3.18055 -1.88217 0 
3.39117 -1.88415 0 
3.60398 -1.8838 0 
3.81618 -1.88366 0 
4.02827 -1.88469 0 
4.24071 -1.88523 0 
4.4544 -1.88509 0 
4.66716 -1.88476 0 
4.88099 -1.88493 0 
5.09545 -1.88466 0 
5.31057 -1.88453 0 
5.52653 -1.88564 0 
5.7436 -1.88981 0 
5.96352 -1.89563 0 
6.18733 -1.89813 0 
6.41543 -1.89522 0 
6.65059 -1.89622 0 
6.87542 -1.86913 0 
7.11122 -1.81621 0 
7.31223 -1.94975 0 
7.53264 -1.87683 0 
7.77077 -1.89068 0 
8.01717 -1.8297 0 
8.25014 -1.93148 0 
8.48528 -1.79628 0 
-8.48528 -1.57009 0 
-8.24868 -1.70836 0 
-8.015 -1.61096 0 
-7.76734 -1.73071 0 
-7.54593 -1.61782 0 
-7.32306 -1.66278 0 
-7.05152 -1.7082 0 
-6.79786 -1.66675 0 
-6.56099 -1.64764 0 
-6.33267 -1.64541 0 
-6.10856 -1.64921 0 
-5.88638 -1.65073 0 
-5.66697 -1.65153 0 
-5.44986 -1.65353 0 
-5.23379 -1.65525 0 
-5.01882 -1.6551 0 
-4.80519 -1.6548 0 
-4.59235 -1.65478 0 
-4.37976 -1.65422 0 
-4.16737 -1.65386 0 
-3.95537 -1.65471 0 
-3.74326 -1.6554 0 
-3.5309 -1.65455 0 
-3.31876 -1.65426 0 
-3.10682 -1.65593 0 
-2.89443 -1.65705 0 
-2.68177 -1.65644 0 
-2.46924 -1.65516 0 
-2.25682 -1.65408 0 
-2.04447 -1.65386 0 
-1.83202 -1.65455 0 
-1.61911 -1.65506 0 
-1.40572 -1.65429 0 
-1.19212 -1.65207 0 
-0.97885 -1.64982 0 
-0.767325 -1.65372 0 
-0.555434 -1.6581 0 
-0.343588 -1.65935 0 
-0.132061 -1.65818 0 
0.0792288 -1.65687 0 
0.290417 -1.65682 0 
0.501823 -1.6575 0 
0.713729 -1.65709 0 
0.925861 -1.65545 0 
1.13768 -1.65488 0 
1.34929 -1.65604 0 
1.56128 -1.6563 0 
1.77337 -1.65516 0 
1.985 -1.65561 0 
2.19698 -1.65642 0 
2.40939 -1.65525 0 
2.62143 -1.65394 0 
2.83323 -1.65414 0 
3.04553 -1.65355 0 
3.25842 -1.64868 0 
3.46746 -1.65522 0 
3.68272 -1.65284 0 
3.89574 -1.65288 0 
4.10731 -1.65378 0 
4.32287 -1.65565 0 
4.53627 -1.65249 0 
4.74932 -1.65397 0 
4.96428 -1.65355 0 
5.17935 -1.65257 0 
5.3944 -1.65202 0 
5.60927 -1.65354 0 
5.82513 -1.66019 0 
6.04295 -1.66711 0 
6.26383 -1.66843 0 
6.48537 -1.66776 0 
6.70098 -1.65646 0 
6.91299 -1.6206 0 
7.11709 -1.6046 0 
7.3526 -1.69716 0 
7.60698 -1.65764 0 
7.8325 -1.64214 0 
8.05985 -1.58842 0 
8.2608 -1.69223 0 
8.48528 -1.56961 0 
-8.48528 -1.35019 0 
-8.24958 -1.48044 0 
-8.0219 -1.3751 0 
-7.79713 -1.50391 0 
-7.58956 -1.39834 0 
-7.36199 -1.38754 0 
-7.16079 -1.49923 0 
-6.93764 -1.46284 0 
[...]
POINT_DATA 2054 
VECTORS vectors float
0.14321 -0.213717 0.964644 
0.157876 -0.157892 0.976052 
0.169317 -0.116566 0.980352 
0.178065 -0.0870941 0.981696 
0.184733 -0.0659932 0.981837 
0.189682 -0.0505734 0.981638 
0.193418 -0.0389559 0.981285 
0.196283 -0.0300045 0.980905 
0.198523 -0.0229943 0.980556 
0.200239 -0.0174227 0.980255 
0.201546 -0.0129248 0.979988 
0.202518 -0.00924123 0.979771 
0.203222 -0.00612207 0.979603 
0.203677 -0.00339686 0.979488 
0.203906 -0.000900616 0.979426 
0.203918 0.00150117 0.979413 
0.203695 0.00399677 0.979454 
0.203229 0.00673713 0.979552 
0.20249 0.00990147 0.979707 
0.20148 0.0136884 0.979912 
0.200151 0.0182676 0.980164 
0.198395 0.0239031 0.98047 
0.196126 0.0309594 0.98082 
0.193243 0.0398594 0.981181 
0.189593 0.0511266 0.981503 
0.184985 0.0654336 0.981689 
0.179181 0.0836365 0.981565 
0.171885 0.106823 0.980823 
0.162736 0.136379 0.978934 
0.15132 0.17405 0.974993 
0.137224 0.221976 0.967486 
0.120157 0.282613 0.953934 
0.100171 0.358381 0.930444 
0.077966 0.45082 0.891308 
0.0551318 0.559102 0.829033 
0.034053 0.678173 0.73537 
0.0172786 0.797454 0.60371 
0.00644479 0.901493 0.432403 
0.00134536 0.973287 0.227487 
-0.000218298 0.999405 0.00301896 
-0.00170437 0.974624 -0.221759 
-0.00660624 0.903846 -0.427505 
-0.0172092 0.800327 -0.599919 
-0.0338068 0.681081 -0.732689 
-0.0548013 0.561722 -0.827269 
-0.0776316 0.453005 -0.890213 
-0.0998716 0.360126 -0.929789 
-0.119905 0.283971 -0.953551 
-0.137018 0.223015 -0.967265 
-0.151156 0.174837 -0.974868 
-0.162609 0.13697 -0.978865 
-0.171788 0.107268 -0.980788 
-0.179104 0.0839702 -0.981551 
-0.184925 0.0656816 -0.981686 
-0.189547 0.0513102 -0.981505 
-0.193208 0.039995 -0.981186 
-0.196102 0.0310595 -0.980825 
-0.198381 0.0239826 -0.980476 
-0.200142 0.0183359 -0.980168 
-0.20148 0.0137486 -0.979914 
-0.202501 0.00996755 -0.979709 
-0.20324 0.00682009 -0.979556 
-0.203704 0.00409291 -0.979462 
-0.203923 0.00161498 -0.979425 
-0.203897 -0.000781013 -0.979446 
-0.20365 -0.0032827 -0.97952 
-0.20317 -0.00604637 -0.97965 
-0.202485 -0.00926841 -0.979853 
-0.201721 -0.0130402 -0.980026 
-0.200813 -0.0174067 -0.979058 
-0.198729 -0.0227317 -0.98078 
-0.19633 -0.0298135 -0.980848 
-0.193382 -0.0387361 -0.981366 
-0.18956 -0.0504953 -0.981884 
-0.184714 -0.0659117 -0.981869 
-0.178092 -0.0869831 -0.981783 
-0.169315 -0.116491 -0.980493 
-0.157863 -0.15789 -0.976196 
-0.143224 -0.213751 -0.964706 
0.0950998 -0.224813 0.969612 
0.121179 -0.183173 0.981797 
0.124076 -0.142538 0.990988 
0.1321 -0.109477 0.994334 
0.139794 -0.0826543 0.995409 
0.144602 -0.0632975 0.995882 
0.149341 -0.0484305 0.995748 
0.153069 -0.0368777 0.995454 
0.155385 -0.0280668 0.995241 
0.156943 -0.0213113 0.995091 
0.158587 -0.0159315 0.994842 
0.159925 -0.011572 0.994604 
0.160924 -0.00795757 0.994408 
0.161624 -0.00485571 0.994264 
0.16206 -0.00207474 0.99416 
0.162242 0.000551703 0.994106 
0.162161 0.00319657 0.994105 
0.161795 0.00603315 0.994151 
0.161128 0.00923089 0.994252 
0.160152 0.0129775 0.994395 
0.158871 0.017484 0.99457 
0.157213 0.023009 0.994775 
0.155053 0.0298823 0.995 
0.152311 0.0385096 0.995213 
0.14892 0.0494014 0.995351 
0.144736 0.063212 0.995309 
0.139547 0.0807695 0.99492 
0.133141 0.103103 0.993894 
0.125327 0.131485 0.991725 
0.11592 0.167499 0.987583 
0.104764 0.213055 0.980128 
0.0917888 0.270317 0.967219 
0.0771503 0.341407 0.94558 
0.0613871 0.427729 0.910481 
0.045512 0.528925 0.855657 
0.0308209 0.641736 0.773683 
0.0185579 0.758718 0.657206 
0.00955554 0.867373 0.501676 
0.00384783 0.95143 0.309094 
0.000505224 0.995352 0.0903437 
-0.00209017 0.990201 -0.136343 
-0.00574434 0.9372 -0.350625 
-0.0119734 0.846988 -0.535981 
-0.0215594 0.73543 -0.683561 
-0.0343132 0.618255 -0.792762 
-0.0492784 0.507095 -0.868772 
-0.0651418 0.408611 -0.919071 
-0.0806367 0.325415 -0.950957 
-0.0948853 0.257318 -0.970462 
-0.107456 0.202615 -0.982024 
-0.118208 0.159159 -0.988657 
-0.127199 0.124867 -0.992311 
-0.134628 0.0978867 -0.994196 
-0.140706 0.0766741 -0.995065 
-0.145658 0.0599963 -0.99536 
-0.149665 0.0468612 -0.99535 
-0.15289 0.036496 -0.995197 
-0.155484 0.0282849 -0.994975 
-0.157557 0.0217347 -0.994746 
-0.159169 0.0164519 -0.994541 
-0.160393 0.0121303 -0.994367 
-0.161287 0.00852861 -0.99424 
-0.161885 0.00543329 -0.99416 
-0.162211 0.00265512 -0.994131 
-0.162291 1.61085e-05 -0.994155 
-0.162178 -0.00267464 -0.994227 
-0.161941 -0.00561652 -0.994347 
-0.161613 -0.00904603 -0.994496 
-0.160362 -0.0132665 -0.994891 
-0.158506 -0.0186149 -0.996212 
-0.153954 -0.0256157 -0.996867 
-0.157392 -0.0338913 -0.993828 
-0.148679 -0.0456659 -0.997116 
-0.146933 -0.0617717 -0.995595 
-0.139388 -0.081875 -0.995757 
-0.131941 -0.108435 -0.994742 
-0.123139 -0.141725 -0.991596 
-0.12064 -0.182387 -0.982206 
-0.0951582 -0.224798 -0.969754 
0.063548 -0.236805 0.96988 
0.0897495 -0.18181 0.988125 
0.0919983 -0.139712 0.996793 
0.104138 -0.101857 0.998659 
0.10726 -0.0778154 1.00034 
0.112351 -0.0596457 1.00067 
0.117429 -0.0451722 1.00057 
0.120034 -0.0342283 1.0005 
0.120924 -0.0261105 1.00054 
0.122456 -0.0196811 1.00039 
0.123988 -0.0145141 1.00019 
0.125194 -0.010287 1.00001 
0.126043 -0.00673005 0.999872 
0.126621 -0.0036096 0.999765 
0.126938 -0.000735491 0.999691 
0.12698 0.00206948 0.999664 
0.126739 0.00498868 0.999676 
0.126201 0.00819934 0.999729 
0.125347 0.0118836 0.999816 
0.124201 0.0162527 0.999929 
0.122765 0.021559 1.00005 
0.120913 0.0281142 1.00017 
0.118511 0.0363033 1.00028 
0.115556 0.0465938 1.00029 
0.112014 0.0595869 1.00012 
0.107701 0.0760571 0.999608 
0.102424 0.0969609 0.998505 
0.0960762 0.123455 0.996373 
0.0886037 0.156941 0.992505 
0.0799857 0.199086 0.985783 
0.0702462 0.251812 0.974452 
0.0595133 0.317089 0.95584 
0.0481263 0.39647 0.926047 
0.0366942 0.49029 0.879768 
0.0260504 0.596569 0.810511 
0.0169117 0.710286 0.711019 
0.00973274 0.822107 0.574917 
0.00462151 0.917876 0.400116 
0.00122591 0.981113 0.192782 
-0.00124575 0.998942 -0.0317212 
-0.00380808 0.967648 -0.252947 
-0.00745266 0.894073 -0.451809 
-0.0129174 0.792379 -0.616016 
-0.0204748 0.678597 -0.741826 
-0.0299096 0.565893 -0.832473 
-0.0406635 0.462548 -0.894714 
-0.0519612 0.372641 -0.93579 
-0.0630522 0.297314 -0.961981 
-0.0734445 0.235725 -0.978218 
-0.0828398 0.186108 -0.988044 
-0.0910418 0.146547 -0.993829 
-0.0980509 0.115219 -0.997124 
-0.103995 0.0904763 -0.998915 
-0.108924 0.0709547 -0.999824 
-0.113034 0.0555682 -1.00021 
-0.116404 0.043406 -1.00032 
-0.119148 0.0337739 -1.00028 
-0.121394 0.026105 -1.00016 
-0.123204 0.0199421 -1.00003 
-0.124594 0.0149308 -0.999903 
-0.125627 0.0107881 -0.999803 
-0.126358 0.00726823 -0.999732 
-0.126805 0.00416562 -0.9997 
-0.127009 0.00129703 -0.999714 
-0.126995 -0.00152408 -0.999769 
-0.126871 -0.00448865 -0.999844 
-0.126709 -0.00778741 -0.999961 
-0.126198 -0.0116468 -1.00013 
-0.12492 -0.0163858 -1.0004 
-0.122353 -0.0223443 -1.00067 
-0.117594 -0.0297674 -1.0002 
-0.123667 -0.0375858 -1.00009 
-0.105149 -0.0472267 -1.00198 
-0.118794 -0.0572896 -0.999004 
-0.108117 -0.0764779 -1.00056 
-0.102582 -0.101354 -0.999463 
-0.090571 -0.137244 -0.99792 
-0.0893467 -0.180427 -0.988804 
-0.0635414 -0.236765 -0.970022 
0.0437688 -0.246134 0.968608 
0.0649795 -0.188705 0.988949 
0.0633247 -0.15128 0.995801 
0.0786954 -0.119092 0.997689 
0.0791401 -0.0929295 1.00153 
0.0818796 -0.0722411 1.00293 
0.0889104 -0.0552469 1.00281 
0.092542 -0.041751 1.00293 
0.0926155 -0.0321623 1.00328 
0.0937574 -0.0244833 1.00328 
0.0952688 -0.0183263 1.00316 
0.0966672 -0.0133233 1.00302 
0.0976776 -0.00918128 1.00289 
0.0983816 -0.00562909 1.00279 
0.0988591 -0.00244447 1.00271 
0.0990626 0.000559854 1.00266 
0.0989769 0.00357531 1.00265 
0.098623 0.00679305 1.00266 
0.0979853 0.0103959 1.00271 
0.0970431 0.0145876 1.00277 
0.095847 0.0196089 1.00284 
0.094368 0.0257453 1.00289 
0.0924314 0.0333562 1.00291 
0.0899671 0.0428779 1.00286 
0.087051 0.0548333 1.00264 
0.0836088 0.0699106 1.00212 
0.0794383 0.0889885 1.0011 
0.0744369 0.113113 0.999208 
0.0686002 0.143523 0.995883 
0.0619664 0.18168 0.990225 
0.0546061 0.229267 0.980845 
0.0466157 0.288121 0.965624 
0.0381895 0.359947 0.941416 
0.0296825 0.445709 0.903803 
0.0215984 0.544768 0.847056 
0.0145237 0.653642 0.764661 
0.00876096 0.765938 0.6496 
0.00442081 0.87064 0.496763 
0.00141303 0.952335 0.307161 
-0.000623831 0.995462 0.0912198 
-0.00229257 0.990871 -0.132818 
-0.00428987 0.939807 -0.34434 
-0.00724092 0.852981 -0.527108 
-0.0115412 0.745816 -0.673031 
-0.0172781 0.633086 -0.782023 
-0.024286 0.52542 -0.8593 
-0.032193 0.428756 -0.911974 
-0.0404672 0.345617 -0.946708 
-0.0486509 0.276312 -0.968966 
-0.0564552 0.219636 -0.982922 
-0.0636105 0.173863 -0.991492 
-0.0699327 0.137264 -0.996643 
-0.0754482 0.108178 -0.999652 
-0.0802178 0.085112 -1.00135 
-0.0841632 0.0668489 -1.00228 
-0.0875754 0.0524194 -1.00271 
-0.0903694 0.0409513 -1.0029 
-0.0926597 0.0318329 -1.00294 
-0.0945676 0.0245313 -1.0029 
-0.0961015 0.0186187 -1.00283 
-0.0972295 0.0137708 -1.00277 
-0.0980771 0.00970889 -1.00271 
-0.0986249 0.00619682 -1.00269 
-0.098941 0.00303026 -1.00268 
-0.0990132 2.58578e-05 -1.00271 
-0.0989116 -0.00301734 -1.00278 
-0.0987722 -0.00628962 -1.00285 
-0.098518 -0.00999088 -1.00295 
-0.0978283 -0.0144181 -1.00311 
-0.0962161 -0.0199706 -1.00334 
-0.0932948 -0.02717 -1.0036 
-0.0914214 -0.0371296 -1.00465 
-0.0807005 -0.0503571 -1.00401 
-0.0901806 -0.0640255 -1.00266 
-0.0789707 -0.0862991 -1.00351 
-0.0755121 -0.114029 -0.99951 
-0.0632968 -0.14907 -0.996735 
-0.0643121 -0.188416 -0.989318 
-0.0437198 -0.24613 -0.968689 
0.0310179 -0.252985 0.967144 
0.0461605 -0.196194 0.988103 
0.0465372 -0.152836 0.996367 
0.0599569 -0.116712 1.00039 
0.0589513 -0.0886577 1.00447 
0.0643702 -0.0661442 1.00432 
0.0713738 -0.0509935 1.00319 
0.0705604 -0.0400243 1.00459 
0.0712566 -0.0307248 1.00484 
0.0724648 -0.023263 1.00484 
0.0739171 -0.0172356 1.00474 
0.0750719 -0.0123122 1.00464 
0.0758417 -0.00818873 1.00455 
0.0763908 -0.00459429 1.00447 
0.0767371 -0.00131569 1.0044 
0.0767851 0.00184715 1.00438 
0.0765638 0.00510052 1.00437 
0.0761251 0.00863589 1.00438 
0.0754241 0.0126493 1.00441 
0.0744602 0.0173743 1.00444 
0.073293 0.0230725 1.00445 
0.0718385 0.0300613 1.00443 
0.0699219 0.0387488 1.00435 
0.0675682 0.0496105 1.00413 
0.0648737 0.063217 1.00365 
0.0616939 0.0803495 1.00276 
0.0578654 0.101968 1.00119 
0.0533848 0.129171 0.998464 
0.0483128 0.16325 0.993893 
0.0427258 0.205692 0.986387 
0.0367246 0.258161 0.974303 
0.0304168 0.322412 0.955152 
0.023993 0.39985 0.925338 
0.0177599 0.490855 0.879968 
0.0120953 0.593814 0.812947 
0.00739995 0.703721 0.717978 
0.00374736 0.813009 0.588357 
0.00114343 0.908926 0.420983 
-0.000532015 0.975567 0.220623 
-0.00160479 0.999631 0.000904475 
-0.00256541 0.976029 -0.218484 
-0.00393968 0.910097 -0.418345 
-0.00614685 0.814799 -0.585776 
-0.00940057 0.705462 -0.716182 
-0.013714 0.595179 -0.811863 
-0.0189573 0.492452 -0.878988 
-0.02484 0.401537 -0.924541 
-0.0309793 0.323972 -0.954582 
-0.0371141 0.259528 -0.97391 
-0.0430443 0.20679 -0.986132 
-0.0485083 0.164106 -0.993743 
-0.0533824 0.129898 -0.998374 
-0.0577302 0.10262 -1.00114 
-0.0615294 0.080899 -1.00275 
-0.0646073 0.0636413 -1.00367 
-0.0674928 0.0499843 -1.00411 
-0.0697678 0.0390342 -1.00437 
-0.0716459 0.0303028 -1.00445 
-0.0732556 0.0232647 -1.00446 
-0.0745039 0.017528 -1.00446 
-0.0754177 0.0127653 -1.00443 
-0.0760535 0.00874497 -1.00441 
-0.0764992 0.00519301 -1.00441 
-0.0766846 0.00192724 -1.00442 
-0.0766642 -0.0012467 -1.00446 
-0.0765272 -0.00453936 -1.00452 
-0.0764128 -0.00813526 -1.00456 
-0.0761785 -0.0122629 -1.00463 
-0.0753674 -0.0172649 -1.00474 
-0.0737537 -0.0235511 -1.00487 
-0.0719862 -0.0316596 -1.00503 
-0.0676158 -0.0417693 -1.00511 
-0.0609243 -0.0554635 -1.00459 
-0.0685451 -0.0681656 -1.00389 
-0.059108 -0.0887673 -1.0022 
-0.0553586 -0.115735 -1.00214 
-0.0456158 -0.153756 -0.996471 
-0.0457454 -0.195519 -0.988485 
-0.0309961 -0.252908 -0.967188 
0.0224127 -0.257817 0.966003 
0.0335644 -0.20049 0.987535 
0.0340692 -0.157519 0.995832 
0.0451702 -0.118237 1.00093 
0.0423975 -0.0939456 1.00333 
0.048171 -0.0725553 1.00479 
0.054467 -0.0527601 1.00608 
0.0542353 -0.0394966 1.00582 
0.0547763 -0.0297474 1.00585 
0.0559745 -0.0221989 1.00576 
0.0572546 -0.0162047 1.00565 
0.0581212 -0.0113142 1.00557 
0.0586998 -0.00718184 1.00549 
0.0591473 -0.00353673 1.00541 
0.0593825 -0.000154759 1.00536 
0.059301 0.00318576 1.00535 
0.0590206 0.00669203 1.00534 
0.0585651 0.0105529 1.00534 
0.0578646 0.0149926 1.00534 
0.0569494 0.0202713 1.00534 
0.0558597 0.0266636 1.0053 
0.0544696 0.0345259 1.0052 
0.0526555 0.0443109 1.00501 
0.0505229 0.0565197 1.0046 
0.0481223 0.0717774 1.00386 
0.0452617 0.0909638 1.0026 
0.0418618 0.115092 1.00043 
0.0379961 0.145291 0.99683 
0.033736 0.1829 0.990946 
0.0291668 0.229433 0.9815 
0.0243804 0.286548 0.96656 
0.0194732 0.355911 0.943246 
0.0146169 0.438615 0.907479 
0.0100649 0.534377 0.853868 
0.00610219 0.640444 0.776065 
0.00300002 0.750095 0.668357 
0.000720424 0.854515 0.524872 
-0.000741933 0.939601 0.345461 
-0.00151861 0.990375 0.137983 
-0.00191785 0.996448 -0.0817459 
-0.00235969 0.956583 -0.293891 
-0.00325282 0.879181 -0.481392 
-0.00487856 0.778281 -0.634565 
-0.00734581 0.668502 -0.75151 
-0.0106339 0.56125 -0.836088 
-0.0146234 0.46325 -0.894938 
-0.0190657 0.377471 -0.93474 
-0.0236894 0.304781 -0.960955 
-0.0283663 0.244566 -0.977867 
-0.0329095 0.195237 -0.988648 
-0.0370758 0.155263 -0.995412 
-0.0408432 0.12318 -0.999568 
-0.0442749 0.0975123 -1.00208 
-0.0472531 0.0769966 -1.0036 
-0.0495622 0.0606408 -1.00449 
-0.0521262 0.0477096 -1.00488 
-0.0538467 0.0371738 -1.0052 
-0.0553785 0.0287754 -1.0053 
-0.0566531 0.0220034 -1.00538 
-0.0577538 0.0163556 -1.00538 
-0.0582665 0.0117097 -1.0054 
-0.0588688 0.00770767 -1.00538 
-0.0591435 0.00409881 -1.0054 
-0.0591868 0.000715402 -1.00543 
-0.0590651 -0.00264391 -1.00546 
-0.0588835 -0.00619065 -1.00549 
-0.058837 -0.0101146 -1.00551 
-0.0585693 -0.0146543 -1.00552 
-0.0576562 -0.0201749 -1.00556 
-0.0563222 -0.0269928 -1.00561 
-0.0540411 -0.0353042 -1.00558 
-0.0499945 -0.0457164 -1.0053 
-0.0470604 -0.0579436 -1.0037 
-0.0496874 -0.0744801 -1.00497 
-0.0436097 -0.0997452 -1.00267 
-0.0388874 -0.128534 -0.999801 
-0.0320945 -0.16588 -0.993417 
-0.0324317 -0.203397 -0.986901 
-0.0223625 -0.257584 -0.966285 
0.0162891 -0.261288 0.965086 
0.0243384 -0.204914 0.986673 
0.0244915 -0.162322 0.995098 
0.0329543 -0.125684 0.999943 
0.0313086 -0.101392 1.0015 
0.0334398 -0.0788498 1.00536 
0.0409751 -0.0618777 1.00433 
0.0411409 -0.0481662 1.00587 
0.0410383 -0.0369688 1.00624 
0.0417632 -0.0279676 1.00627 
0.042917 -0.0208067 1.0062 
0.0439618 -0.0150229 1.00613 
0.0445283 -0.0102196 1.00607 
0.0449485 -0.00611576 1.00599 
0.0453018 -0.00243945 1.00592 
0.0453783 0.00104349 1.0059 
0.0451902 0.00457294 1.00588 
0.0448854 0.0083309 1.00586 
0.0444353 0.0125166 1.00585 
0.0437798 0.0173996 1.00584 
0.0429437 0.0232436 1.0058 
0.0419591 0.0303379 1.0057 
0.0406781 0.0390847 1.00554 
0.0390533 0.049973 1.00521 
0.0372202 0.0635182 1.00462 
0.0351529 0.0804138 1.00361 
0.0326658 0.101629 1.00194 
0.0297688 0.128204 0.99916 
0.0265624 0.161295 0.994625 
0.0231096 0.202292 0.987355 
0.0194879 0.252734 0.975857 
0.0157718 0.314253 0.957905 
0.0120371 0.38837 0.930219 
0.00843437 0.475745 0.888269 
0.00516629 0.575257 0.826342 
0.00244857 0.682807 0.738252 
0.000441323 0.790167 0.619375 
-0.00091539 0.887897 0.464835 
-0.00161832 0.961667 0.276651 
-0.001811 0.997749 0.0647207 
-0.00178349 0.988221 -0.153471 
-0.00189498 0.934994 -0.358174 
-0.00245758 0.848762 -0.534383 
-0.0036522 0.744104 -0.67516 
-0.00552388 0.634827 -0.780681 
-0.00803464 0.530814 -0.856004 
-0.0110678 0.437216 -0.908049 
-0.0144109 0.35603 -0.943129 
-0.0178956 0.287633 -0.966204 
-0.0214671 0.231116 -0.981111 
-0.0249162 0.184748 -0.990685 
-0.028056 0.147131 -0.996729 
-0.0309601 0.116928 -1.00045 
-0.0336482 0.0926901 -1.00274 
-0.0359249 0.073213 -1.00417 
-0.0375724 0.0576046 -1.00505 
-0.040089 0.0453869 -1.00529 
-0.0412256 0.0350297 -1.00568 
-0.0422418 0.0271431 -1.00588 
-0.0436722 0.020375 -1.00589 
-0.0440838 0.0149894 -1.00594 
-0.0445145 0.0104252 -1.00596 
-0.0450852 0.0064543 -1.00594 
-0.0451583 0.00276156 -1.00599 
-0.0450573 -0.00075608 -1.006 
-0.044824 -0.00430441 -1.00604 
-0.0447525 -0.00814739 -1.00603 
-0.0447346 -0.0124136 -1.00598 
-0.0444893 -0.0174025 -1.0059 
-0.0434863 -0.0234669 -1.00597 
-0.0419557 -0.0309586 -1.00603 
-0.0395257 -0.040622 -1.00604 
-0.0358903 -0.0538879 -1.00626 
-0.0380912 -0.069169 -1.00339 
-0.0353187 -0.0881866 -1.00353 
-0.0303388 -0.114572 -1.00157 
-0.0265882 -0.146931 -0.997547 
-0.0227272 -0.203892 -0.988062 
-0.0160169 -0.261174 -0.965185 
0.0117644 -0.263824 0.964368 
0.0174894 -0.208403 0.985888 
0.0175459 -0.164571 0.994698 
0.0237737 -0.128511 0.999674 
0.0237146 -0.0987099 1.00286 
0.023968 -0.0765719 1.00499 
0.0307439 -0.0606661 1.0057 
0.0304305 -0.0464739 1.00639 
0.0307372 -0.0352089 1.00653 
0.0315195 -0.0264211 1.0065 
0.0325936 -0.0194734 1.00642 
0.0333932 -0.0138136 1.00636 
0.0336616 -0.00909893 1.00632 
0.0340403 -0.00503914 1.00621 
0.0342782 -0.00135758 1.00617 
0.034261 0.00223689 1.00616 
0.0340377 0.00595074 1.00613 
0.0337556 0.00992968 1.00612 
0.0333835 0.0144497 1.0061 
0.0327873 0.0197775 1.00607 
0.0320622 0.0261722 1.00599 
0.0311944 0.033948 1.00585 
0.0300563 0.0435598 1.00561 
0.0286727 0.055497 1.00515 
0.0271597 0.0702989 1.00437 
0.0254209 0.0887505 1.0031 
0.0233233 0.11188 1.00101 
0.0209431 0.140688 0.997604 
0.0183759 0.176327 0.992151 
0.0156692 0.220193 0.983545 
0.0128873 0.273726 0.97014 
0.0100834 0.338376 0.949535 
0.0073176 0.415378 0.91826 
0.0047161 0.504813 0.871737 
0.00242478 0.60509 0.804271 
0.000585862 0.711849 0.709659 
-0.000720619 0.816971 0.582774 
-0.00150293 0.910166 0.418564 
-0.00175527 0.975678 0.221076 
-0.00162778 0.999863 0.00323306 
-0.00139136 0.977038 -0.214917 
-0.00134756 0.912438 -0.413557 
-0.00172542 0.819021 -0.579932 
-0.00263126 0.71177 -0.70984 
-0.00407265 0.603711 -0.805378 
-0.00600441 0.503067 -0.87278 
-0.00831467 0.413516 -0.919134 
-0.0108323 0.336411 -0.950275 
-0.0134695 0.271856 -0.970682 
-0.0161994 0.218629 -0.983896 
-0.0187953 0.174757 -0.992458 
-0.0211356 0.139182 -0.997847 
-0.023376 0.110722 -1.00116 
-0.0254679 0.0876951 -1.00327 
-0.0271603 0.0689492 -1.00464 
-0.0281956 0.0538111 -1.00593 
-0.0312682 0.0423314 -1.00477 
-0.0306889 0.0327774 -1.00663 
-0.0327131 0.0245911 -1.00602 
-0.0329489 0.0184195 -1.00618 
-0.0333394 0.0132145 -1.00623 
-0.0335875 0.00877401 -1.00625 
-0.0342702 0.00485954 -1.0062 
-0.0340454 0.00100069 -1.0063 
-0.0336307 -0.00263273 -1.00636 
-0.0336181 -0.00647678 -1.00632 
-0.0334248 -0.0106449 -1.00627 
-0.0334561 -0.0152135 -1.00611 
-0.0331716 -0.0203465 -1.00531 
-0.0320456 -0.0265828 -1.00612 
-0.0307834 -0.0345836 -1.00616 
-0.0288391 -0.0452042 -1.00603 
-0.0259783 -0.0592926 -1.00533 
-0.0290474 -0.0730648 -1.00445 
-0.0251538 -0.0967094 -1.0033 
-0.0206706 -0.127818 -1.00124 
-0.0193521 -0.170228 -0.99381 
-0.0154815 -0.213824 -0.98363 
-0.0114785 -0.263867 -0.964298 
0.0083114 -0.265693 0.963824 
0.0124266 -0.210397 0.98542 
0.0124245 -0.165184 0.994597 
0.0173653 -0.128149 0.999833 
0.0171188 -0.100075 1.00273 
0.0169408 -0.0786961 1.00445 
0.0221617 -0.0583814 1.00677 
0.022195 -0.0437853 1.0066 
0.022533 -0.0329323 1.00667 
0.0233058 -0.0245256 1.00661 
0.0242896 -0.0178328 1.0065 
0.0246815 -0.0124238 1.00648 
0.0247731 -0.00781154 1.00638 
0.0250441 -0.00389756 1.0063 
0.0252392 -0.000181094 1.00632 
0.0251328 0.0035697 1.00629 
0.0248268 0.00742662 1.00629 
0.0246786 0.01168 1.00627 
0.0243284 0.0165912 1.00625 
0.0238063 0.0224098 1.00619 
0.0231978 0.0293917 1.00607 
0.0224607 0.037919 1.00588 
0.021495 0.0484542 1.00553 
0.0203918 0.0614921 1.00493 
0.0191977 0.0776467 1.00396 
0.0177826 0.0978152 1.00238 
0.0160836 0.122979 0.999811 
0.0142149 0.154118 0.995696 