# vtk DataFile Version 3.0 
Exported using Morpho https://github.com/Morpho-lang/morpho 
ASCII 
DATASET UNSTRUCTURED_GRID 

POINTS 2054 float 
-8.48528 -2.82843 0 
-8.20636 -2.82843 0 
-7.94054 -2.82843 0 
-7.6904 -2.82843 0 
-7.45357 -2.82843 0 
-7.22694 -2.82843 0 
-7.00705 -2.82843 0 
-6.79111 -2.82843 0 
-6.57731 -2.82843 0 
-6.36453 -2.82843 0 
-6.15219 -2.82843 0 
-5.94 -2.82843 0 
-5.72786 -2.82843 0 
-5.51573 -2.82843 0 
-5.3036 -2.82843 0 
-5.09147 -2.82843 0 
-4.87933 -2.82843 0 
-4.6672 -2.82843 0 
-4.45507 -2.82843 0 
-4.24294 -2.82843 0 
-4.03081 -2.82843 0 
-3.81867 -2.82843 0 
-3.60654 -2.82843 0 
-3.39441 -2.82843 0 
-3.18228 -2.82843 0 
-2.97015 -2.82843 0 
-2.75801 -2.82843 0 
-2.54588 -2.82843 0 
-2.33375 -2.82843 0 
-2.12162 -2.82843 0 
-1.90949 -2.82843 0 
-1.69735 -2.82843 0 
-1.48522 -2.82843 0 
-1.27309 -2.82843 0 
-1.06096 -2.82843 0 
-0.848825 -2.82843 0 
-0.636693 -2.82843 0 
-0.424561 -2.82843 0 
-0.212429 -2.82843 0 
-0.000296761 -2.82843 0 
0.211835 -2.82843 0 
0.423967 -2.82843 0 
0.636099 -2.82843 0 
0.848231 -2.82843 0 
1.06036 -2.82843 0 
1.2725 -2.82843 0 
1.48463 -2.82843 0 
1.69676 -2.82843 0 
1.90889 -2.82843 0 
2.12102 -2.82843 0 
2.33316 -2.82843 0 
2.54529 -2.82843 0 
2.75742 -2.82843 0 
2.96955 -2.82843 0 
3.18168 -2.82843 0 
3.39382 -2.82843 0 
3.60595 -2.82843 0 
3.81808 -2.82843 0 
4.03021 -2.82843 0 
4.24234 -2.82843 0 
4.45448 -2.82843 0 
4.66661 -2.82843 0 
4.87874 -2.82843 0 
5.09087 -2.82843 0 
5.303 -2.82843 0 
5.51514 -2.82843 0 
5.72727 -2.82843 0 
5.93941 -2.82843 0 
6.15159 -2.82843 0 
6.36393 -2.82843 0 
6.57672 -2.82843 0 
6.79055 -2.82843 0 
7.00652 -2.82843 0 
7.22647 -2.82843 0 
7.45313 -2.82843 0 
7.69005 -2.82843 0 
7.9403 -2.82843 0 
8.20621 -2.82843 0 
8.48528 -2.82843 0 
-8.48528 -2.5495 0 
-8.30526 -2.64845 0 
-8.07062 -2.59995 0 
-7.83904 -2.59637 0 
-7.59595 -2.59733 0 
-7.36578 -2.59177 0 
-7.13796 -2.5933 0 
-6.90908 -2.59428 0 
-6.68421 -2.5916 0 
-6.46568 -2.58832 0 
-6.24926 -2.58859 0 
-6.03358 -2.58941 0 
-5.81848 -2.59013 0 
-5.60402 -2.59075 0 
-5.39005 -2.59135 0 
-5.17642 -2.59186 0 
-4.96311 -2.59223 0 
-4.75009 -2.59242 0 
-4.53736 -2.59244 0 
-4.32497 -2.59236 0 
-4.1128 -2.59242 0 
-3.90059 -2.59259 0 
-3.68835 -2.5926 0 
-3.47627 -2.59248 0 
-3.26428 -2.59251 0 
-3.05216 -2.59271 0 
-2.83986 -2.59283 0 
-2.62755 -2.59274 0 
-2.41539 -2.59253 0 
-2.20336 -2.59238 0 
-1.99135 -2.59238 0 
-1.77924 -2.59246 0 
-1.56704 -2.59244 0 
-1.35495 -2.59215 0 
-1.14319 -2.59183 0 
-0.931581 -2.59195 0 
-0.719663 -2.59256 0 
-0.507197 -2.59324 0 
-0.294425 -2.59354 0 
-0.0817689 -2.59344 0 
0.130587 -2.59325 0 
0.342804 -2.59322 0 
0.555051 -2.59322 0 
0.767233 -2.59303 0 
0.97919 -2.59278 0 
1.19107 -2.59278 0 
1.40311 -2.59289 0 
1.61524 -2.59286 0 
1.82732 -2.59279 0 
2.03943 -2.59281 0 
2.25163 -2.5928 0 
2.46381 -2.59266 0 
2.67591 -2.59254 0 
2.88801 -2.59237 0 
3.10001 -2.59226 0 
3.31203 -2.59216 0 
3.52402 -2.59207 0 
3.73601 -2.59208 0 
3.94815 -2.59221 0 
4.16052 -2.5923 0 
4.37309 -2.59232 0 
4.58593 -2.59227 0 
4.79921 -2.5922 0 
5.01319 -2.59212 0 
5.22833 -2.5921 0 
5.44534 -2.59239 0 
5.6657 -2.59346 0 
5.89185 -2.59569 0 
6.12685 -2.59429 0 
6.36853 -2.59189 0 
6.6108 -2.57787 0 
6.84491 -2.61411 0 
7.08804 -2.58476 0 
7.34858 -2.60369 0 
7.58803 -2.59327 0 
7.83059 -2.59326 0 
8.06387 -2.59199 0 
8.30038 -2.64348 0 
8.48528 -2.54936 0 
-8.48528 -2.28369 0 
-8.25701 -2.4138 0 
-8.01078 -2.35334 0 
-7.73666 -2.37963 0 
-7.49744 -2.35565 0 
-7.26898 -2.35831 0 
-7.03324 -2.36676 0 
-6.7997 -2.36275 0 
-6.5773 -2.35166 0 
-6.35808 -2.3495 0 
-6.14038 -2.35058 0 
-5.92336 -2.35185 0 
-5.70723 -2.35272 0 
-5.49199 -2.35362 0 
-5.27734 -2.35447 0 
-5.0632 -2.35505 0 
-4.84958 -2.35534 0 
-4.63641 -2.35533 0 
-4.42363 -2.35504 0 
-4.21126 -2.35485 0 
-3.99909 -2.35513 0 
-3.78684 -2.3554 0 
-3.57461 -2.35516 0 
-3.36263 -2.35498 0 
-3.15066 -2.35537 0 
-2.93843 -2.35586 0 
-2.72604 -2.35589 0 
-2.51374 -2.35551 0 
-2.30162 -2.35509 0 
-2.08964 -2.35496 0 
-1.87761 -2.35518 0 
-1.66544 -2.3554 0 
-1.45322 -2.35518 0 
-1.2412 -2.35438 0 
-1.02967 -2.35407 0 
-0.818162 -2.35505 0 
-0.606054 -2.35676 0 
-0.393243 -2.3579 0 
-0.180256 -2.35789 0 
0.0323765 -2.35727 0 
0.244686 -2.35692 0 
0.456926 -2.35692 0 
0.669206 -2.35667 0 
0.881318 -2.35598 0 
1.09315 -2.35559 0 
1.305 -2.35583 0 
1.51709 -2.35595 0 
1.72919 -2.35571 0 
1.9412 -2.35566 0 
2.15334 -2.3558 0 
2.36559 -2.3556 0 
2.57772 -2.35522 0 
2.78976 -2.35507 0 
3.0019 -2.35461 0 
3.21373 -2.35451 0 
3.42571 -2.35439 0 
3.63769 -2.35431 0 
3.84965 -2.35453 0 
4.06183 -2.35491 0 
4.27435 -2.35507 0 
4.48707 -2.35507 0 
4.70017 -2.35506 0 
4.91376 -2.35498 0 
5.12819 -2.35502 0 
5.34378 -2.35528 0 
5.56106 -2.35662 0 
5.78097 -2.35971 0 
6.00401 -2.36251 0 
6.2308 -2.3624 0 
6.45748 -2.35551 0 
6.68075 -2.33423 0 
6.88797 -2.39744 0 
7.05313 -2.27289 0 
7.24377 -2.40237 0 
7.48542 -2.36016 0 
7.73055 -2.36599 0 
7.99177 -2.33552 0 
8.24864 -2.40698 0 
8.48528 -2.28345 0 
-8.48528 -2.03355 0 
-8.25312 -2.18214 0 
-8.03669 -2.07913 0 
-7.83956 -2.18231 0 
-7.6106 -2.12852 0 
-7.38852 -2.10959 0 
-7.16268 -2.14097 0 
-6.9229 -2.1435 0 
-6.70119 -2.12055 0 
-6.48111 -2.11285 0 
-6.26282 -2.11284 0 
-6.045 -2.1151 0 
-5.82775 -2.11658 0 
-5.61153 -2.11776 0 
-5.3962 -2.1192 0 
-5.18144 -2.1203 0 
-4.96732 -2.12084 0 
-4.75387 -2.12105 0 
-4.54086 -2.12091 0 
-4.32822 -2.12045 0 
-4.11596 -2.12045 0 
-3.90382 -2.12107 0 
-3.69156 -2.12116 0 
-3.47938 -2.12058 0 
-3.26746 -2.12068 0 
-3.05542 -2.12154 0 
-2.84307 -2.12198 0 
-2.63064 -2.12162 0 
-2.41836 -2.12087 0 
-2.20626 -2.12031 0 
-1.99426 -2.12034 0 
-1.78217 -2.1207 0 
-1.56989 -2.12074 0 
-1.35755 -2.11993 0 
-1.14542 -2.11838 0 
-0.934012 -2.11859 0 
-0.722404 -2.12089 0 
-0.509943 -2.12344 0 
-0.296911 -2.12431 0 
-0.0840921 -2.12359 0 
0.128295 -2.12281 0 
0.340414 -2.12274 0 
0.552564 -2.12288 0 
0.76478 -2.12226 0 
0.976792 -2.1213 0 
1.18855 -2.12128 0 
1.40042 -2.12188 0 
1.61256 -2.12177 0 
1.82458 -2.12141 0 
2.03655 -2.12164 0 
2.24875 -2.12174 0 
2.46099 -2.12114 0 
2.67302 -2.12065 0 
2.88504 -2.12054 0 
3.09728 -2.1194 0 
3.30873 -2.11968 0 
3.52086 -2.1195 0 
3.7329 -2.11938 0 
3.94484 -2.11986 0 
4.15715 -2.12044 0 
4.36983 -2.12035 0 
4.58282 -2.1204 0 
4.79606 -2.12017 0 
5.01004 -2.12012 0 
5.22483 -2.12002 0 
5.44073 -2.12051 0 
5.6582 -2.123 0 
5.8782 -2.12696 0 
6.10217 -2.12971 0 
6.33095 -2.12707 0 
6.567 -2.11601 0 
6.82301 -2.12303 0 
7.06572 -2.04567 0 
7.29733 -2.17484 0 
7.54632 -2.11408 0 
7.79371 -2.13741 0 
8.02274 -2.07453 0 
8.25027 -2.1738 0 
8.48528 -2.0332 0 
-8.48528 -1.79671 0 
-8.25436 -1.93882 0 
-8.01299 -1.83977 0 
-7.78596 -1.953 0 
-7.5297 -1.87194 0 
-7.2756 -1.88722 0 
-7.05707 -1.93544 0 
-6.84369 -1.89677 0 
-6.62219 -1.88079 0 
-6.40169 -1.87606 0 
-6.18206 -1.87854 0 
-5.96274 -1.881 0 
-5.74458 -1.88208 0 
-5.52796 -1.88344 0 
-5.31232 -1.88506 0 
-5.09736 -1.88569 0 
-4.88338 -1.88564 0 
-4.67019 -1.88555 0 
-4.45737 -1.88507 0 
-4.24485 -1.88447 0 
-4.03271 -1.88482 0 
-3.82061 -1.88562 0 
-3.60832 -1.88529 0 
-3.39617 -1.88464 0 
-3.18427 -1.88547 0 
-2.97209 -1.88672 0 
-2.7596 -1.88684 0 
-2.54714 -1.88601 0 
-2.33483 -1.88505 0 
-2.12268 -1.8846 0 
-1.91058 -1.885 0 
-1.69824 -1.88561 0 
-1.48561 -1.88547 0 
-1.27286 -1.88413 0 
-1.06032 -1.88216 0 
-0.848858 -1.8839 0 
-0.636875 -1.88781 0 
-0.424169 -1.89034 0 
-0.211518 -1.89004 0 
0.000731944 -1.88866 0 
0.21257 -1.88788 0 
0.424308 -1.88807 0 
0.636257 -1.88793 0 
0.848362 -1.88664 0 
1.06025 -1.88556 0 
1.27191 -1.88605 0 
1.48381 -1.88664 0 
1.69595 -1.886 0 
1.90782 -1.88577 0 
2.11974 -1.88637 0 
2.33202 -1.88609 0 
2.54419 -1.88502 0 
2.75607 -1.88472 0 
2.96812 -1.88462 0 
3.18055 -1.88217 0 
3.39117 -1.88415 0 
3.60398 -1.8838 0 
3.81618 -1.88366 0 
4.02827 -1.88469 0 
4.24071 -1.88523 0 
4.4544 -1.88509 0 
4.66716 -1.88476 0 
4.88099 -1.88493 0 
5.09545 -1.88466 0 
5.31057 -1.88453 0 
5.52653 -1.88564 0 
5.7436 -1.88981 0 
5.96352 -1.89563 0 
6.18733 -1.89813 0 
6.41543 -1.89522 0 
6.65059 -1.89622 0 
6.87542 -1.86913 0 
7.11122 -1.81621 0 
7.31223 -1.94975 0 
7.53264 -1.87683 0 
7.77077 -1.89068 0 
8.01717 -1.8297 0 
8.25014 -1.93148 0 
8.48528 -1.79628 0 
-8.48528 -1.57009 0 
-8.24868 -1.70836 0 
-8.015 -1.61096 0 
-7.76734 -1.73071 0 
-7.54593 -1.61782 0 
-7.32306 -1.66278 0 
-7.05152 -1.7082 0 
-6.79786 -1.66675 0 
-6.56099 -1.64764 0 
-6.33267 -1.64541 0 
-6.10856 -1.64921 0 
-5.88638 -1.65073 0 
-5.66697 -1.65153 0 
-5.44986 -1.65353 0 
-5.23379 -1.65525 0 
-5.01882 -1.6551 0 
-4.80519 -1.6548 0 
-4.59235 -1.65478 0 
-4.37976 -1.65422 0 
-4.16737 -1.65386 0 
-3.95537 -1.65471 0 
-3.74326 -1.6554 0 
-3.5309 -1.65455 0 
-3.31876 -1.65426 0 
-3.10682 -1.65593 0 
-2.89443 -1.65705 0 
-2.68177 -1.65644 0 
-2.46924 -1.65516 0 
-2.25682 -1.65408 0 
-2.04447 -1.65386 0 
-1.83202 -1.65455 0 
-1.61911 -1.65506 0 
-1.40572 -1.65429 0 
-1.19212 -1.65207 0 
-0.97885 -1.64982 0 
-0.767325 -1.65372 0 
-0.555434 -1.6581 0 
-0.343588 -1.65935 0 
-0.132061 -1.65818 0 
0.0792288 -1.65687 0 
0.290417 -1.65682 0 
0.501823 -1.6575 0 
0.713729 -1.65709 0 
0.925861 -1.65545 0 
1.13768 -1.65488 0 
1.34929 -1.65604 0 
1.56128 -1.6563 0 
1.77337 -1.65516 0 
1.985 -1.65561 0 
2.19698 -1.65642 0 
2.40939 -1.65525 0 
2.62143 -1.65394 0 
2.83323 -1.65414 0 
3.04553 -1.65355 0 
3.25842 -1.64868 0 
3.46746 -1.65522 0 
3.68272 -1.65284 0 
3.89574 -1.65288 0 
4.10731 -1.65378 0 
4.32287 -1.65565 0 
4.53627 -1.65249 0 
4.74932 -1.65397 0 
4.96428 -1.65355 0 
5.17935 -1.65257 0 
5.3944 -1.65202 0 
5.60927 -1.65354 0 
5.82513 -1.66019 0 
6.04295 -1.66711 0 
6.26383 -1.66843 0 
6.48537 -1.66776 0 
6.70098 -1.65646 0 
6.91299 -1.6206 0 
7.11709 -1.6046 0 
7.3526 -1.69716 0 
7.60698 -1.65764 0 
7.8325 -1.64214 0 
8.05985 -1.58842 0 
8.2608 -1.69223 0 
8.48528 -1.56961 0 
-8.48528 -1.35019 0 
-8.24958 -1.48044 0 
-8.0219 -1.3751 0 
-7.79713 -1.50391 0 
-7.58956 -1.39834 0 
-7.36199 -1.38754 0 
-7.16079 -1.49923 0 
-6.93764 -1.46284 0 
[...]
POINT_DATA 2054 
VECTORS vectors float
0.14658 -0.219186 0.962592 
0.161284 -0.16219 0.974633 
0.172697 -0.11981 0.97921 
0.181445 -0.0895347 0.980685 
0.188122 -0.0678276 0.980881 
0.193088 -0.0519529 0.980706 
0.196846 -0.0400098 0.980356 
0.199761 -0.0308145 0.979965 
0.202024 -0.0236345 0.979602 
0.203777 -0.0179342 0.979288 
0.205115 -0.0133886 0.979007 
0.206111 -0.00964423 0.978779 
0.206832 -0.00650504 0.978603 
0.207296 -0.00377678 0.978483 
0.20754 -0.00130767 0.978416 
0.207533 0.0010866 0.978408 
0.207285 0.00359064 0.978459 
0.206791 0.00635121 0.978568 
0.206055 0.0095751 0.978728 
0.205078 0.0134073 0.978933 
0.203778 0.0180134 0.979188 
0.202068 0.0236779 0.979497 
0.199868 0.0307513 0.979848 
0.197058 0.0396562 0.980214 
0.193489 0.0509267 0.980546 
0.188979 0.0652373 0.980746 
0.183297 0.0834437 0.980641 
0.176151 0.106631 0.979925 
0.167186 0.13618 0.978072 
0.155997 0.173823 0.974185 
0.142171 0.22168 0.966762 
0.125394 0.282192 0.953347 
0.105672 0.357768 0.930081 
0.0836232 0.449972 0.891285 
0.0607208 0.558047 0.829468 
0.0392311 0.677057 0.73631 
0.0216337 0.796522 0.605033 
0.00958722 0.900966 0.433781 
0.00299059 0.973201 0.228487 
-0.00021215 0.999551 0.00331257 
-0.00333389 0.974667 -0.222206 
-0.00972523 0.903543 -0.428422 
-0.0215339 0.79966 -0.600897 
-0.0389516 0.680226 -0.733392 
-0.0603587 0.560894 -0.827555 
-0.0832612 0.452338 -0.890101 
-0.10535 0.359651 -0.929376 
-0.125124 0.283649 -0.952938 
-0.14195 0.222791 -0.966527 
-0.155822 0.174659 -0.974053 
-0.167049 0.136804 -0.978001 
-0.176046 0.107098 -0.97989 
-0.183216 0.0837937 -0.980626 
-0.188915 0.0654987 -0.980743 
-0.193439 0.0511201 -0.980549 
-0.197021 0.0398007 -0.98022 
-0.199842 0.03086 -0.979854 
-0.202054 0.0237615 -0.979503 
-0.20377 0.0180849 -0.979192 
-0.205075 0.0134708 -0.978935 
-0.206065 0.0096382 -0.978729 
-0.206811 0.00643307 -0.978569 
-0.207302 0.00369264 -0.978465 
-0.207545 0.00120801 -0.978419 
-0.207537 -0.00116802 -0.978435 
-0.207272 -0.00364559 -0.978516 
-0.206782 -0.00641045 -0.978652 
-0.206075 -0.00965694 -0.978862 
-0.205287 -0.0134864 -0.979045 
-0.204336 -0.0179106 -0.978074 
-0.202232 -0.0233733 -0.979828 
-0.199808 -0.0306243 -0.979905 
-0.196808 -0.0397832 -0.980438 
-0.192969 -0.0518608 -0.980957 
-0.188111 -0.0677419 -0.980912 
-0.181476 -0.0894116 -0.980773 
-0.172693 -0.119725 -0.979358 
-0.161271 -0.162173 -0.974775 
-0.146593 -0.219214 -0.962653 
0.0970361 -0.230003 0.967891 
0.123733 -0.187706 0.980732 
0.126525 -0.146047 0.990394 
0.134609 -0.112168 0.993902 
0.142381 -0.084674 0.995052 
0.147239 -0.0648205 0.99556 
0.152044 -0.0495862 0.995424 
0.155846 -0.0377588 0.99512 
0.158221 -0.0287442 0.994898 
0.159818 -0.0218467 0.994739 
0.161503 -0.0163822 0.994473 
0.162879 -0.0119696 0.994224 
0.163903 -0.00832051 0.994022 
0.164618 -0.00520893 0.993869 
0.16507 -0.00243724 0.993763 
0.165253 0.000181795 0.993709 
0.165153 0.0028281 0.99371 
0.164761 0.00566587 0.993766 
0.164078 0.00887331 0.993872 
0.163105 0.0126368 0.994022 
0.161837 0.0171527 0.994204 
0.160199 0.0226761 0.994414 
0.158072 0.0295394 0.994648 
0.15537 0.0381488 0.994874 
0.152019 0.049013 0.995027 
0.147879 0.0627859 0.995009 
0.142742 0.0802981 0.994654 
0.136396 0.102577 0.993671 
0.12865 0.130892 0.991561 
0.119325 0.16682 0.9875 
0.108262 0.212268 0.980155 
0.0953805 0.269402 0.967402 
0.0808101 0.340351 0.94598 
0.065048 0.426546 0.911169 
0.0490583 0.527685 0.856696 
0.0340902 0.640584 0.775081 
0.021353 0.757857 0.658865 
0.0116738 0.86699 0.503347 
0.0051213 0.951573 0.310414 
0.000833695 0.995856 0.0909776 
-0.00272895 0.990737 -0.136535 
-0.00729857 0.937436 -0.351514 
-0.0143227 0.846756 -0.537251 
-0.0245266 0.73477 -0.684877 
-0.0376949 0.617323 -0.793884 
-0.0528847 0.50607 -0.869605 
-0.0688216 0.407616 -0.919616 
-0.0842886 0.324511 -0.951263 
-0.0984566 0.256518 -0.970584 
-0.11093 0.201915 -0.982012 
-0.121591 0.158543 -0.988549 
-0.130502 0.124319 -0.992128 
-0.137865 0.097395 -0.993961 
-0.143885 0.0762279 -0.99479 
-0.148788 0.059589 -0.995055 
-0.152754 0.0464864 -0.995024 
-0.15594 0.0361448 -0.994852 
-0.158496 0.0279478 -0.994623 
-0.160541 0.0214039 -0.994385 
-0.162134 0.0161193 -0.994171 
-0.163347 0.0117843 -0.993995 
-0.164242 0.00816664 -0.993861 
-0.164859 0.00506871 -0.993772 
-0.165208 0.00229343 -0.993737 
-0.165303 -0.000338785 -0.993757 
-0.165186 -0.00301595 -0.99383 
-0.16494 -0.00595485 -0.993947 
-0.164606 -0.00940621 -0.994109 
-0.163323 -0.0136729 -0.994522 
-0.161421 -0.0190923 -0.99586 
-0.156768 -0.0262406 -0.996562 
-0.160252 -0.0347146 -0.993458 
-0.151367 -0.046745 -0.996825 
-0.149617 -0.0632604 -0.99526 
-0.141974 -0.0838646 -0.99541 
-0.134448 -0.111086 -0.994323 
-0.125561 -0.14519 -0.991016 
-0.123177 -0.186894 -0.981184 
-0.0970915 -0.229994 -0.968028 
0.0645456 -0.242032 0.968221 
0.0913846 -0.186039 0.987402 
0.093585 -0.14289 0.996451 
0.105944 -0.104154 0.998442 
0.109107 -0.0795257 1.00019 
0.114301 -0.0609405 1.00055 
0.119492 -0.0461535 1.00044 
0.122175 -0.0349723 1.00036 
0.123102 -0.0266815 1.00039 
0.124676 -0.0201377 1.00023 
0.126246 -0.0149033 1.00003 
0.127477 -0.0106333 0.99984 
0.128337 -0.007054 0.999694 
0.128923 -0.00393403 0.99958 
0.129247 -0.00106659 0.999508 
0.129284 0.001739 0.999481 
0.129027 0.0046546 0.999497 
0.12847 0.00785243 0.999554 
0.127605 0.0115277 0.999649 
0.126455 0.0158897 0.999769 
0.125021 0.0211776 0.999898 
0.123181 0.0277032 1.00003 
0.120796 0.0358579 1.00015 
0.11786 0.0461062 1.00018 
0.114334 0.0590432 1.00003 
0.110036 0.0754452 0.999553 
0.104771 0.096272 0.998495 
0.0984309 0.122677 0.996423 
0.0909603 0.156058 0.992637 
0.0823404 0.198089 0.986023 
0.0725926 0.250697 0.974836 
0.0618321 0.315867 0.95641 
0.0503783 0.395173 0.926849 
0.0388185 0.488988 0.880846 
0.0279734 0.595377 0.811867 
0.0185522 0.709364 0.712592 
0.0110046 0.82161 0.57654 
0.0054462 0.91788 0.401522 
0.00155219 0.981543 0.193679 
-0.00143278 0.999545 -0.0315347 
-0.00449323 0.968114 -0.253472 
-0.00859695 0.89416 -0.452857 
-0.0144578 0.792003 -0.617309 
-0.0223291 0.677828 -0.743116 
-0.031992 0.564868 -0.833601 
-0.0428966 0.461408 -0.895617 
-0.0542792 0.37149 -0.936466 
-0.0654077 0.296215 -0.96246 
-0.0758122 0.234711 -0.97854 
-0.0852082 0.185192 -0.988238 
-0.0934055 0.145732 -0.993928 
-0.100406 0.114494 -0.997153 
-0.106337 0.0898295 -0.99889 
-0.111251 0.0703761 -0.99976 
-0.115346 0.0550495 -1.00012 
-0.1187 0.0429357 -1.0002 
-0.121428 0.0333405 -1.00014 
-0.12366 0.0257034 -1.00002 
-0.125463 0.0195661 -0.999871 
-0.126851 0.0145673 -0.999739 
-0.127886 0.0104315 -0.999632 
-0.12863 0.00692626 -0.999556 
-0.129096 0.00383816 -0.999521 
-0.129316 0.000974402 -0.999529 
-0.129305 -0.00183977 -0.999582 
-0.12918 -0.00479542 -0.999668 
-0.129017 -0.0081048 -0.999781 
-0.128499 -0.0119984 -0.999957 
-0.127189 -0.0167894 -1.00024 
-0.124558 -0.0228428 -1.00053 
-0.119692 -0.0304101 -1.00006 
-0.125868 -0.0384106 -0.999919 
-0.106955 -0.0482227 -1.00191 
-0.120872 -0.0585488 -0.998831 
-0.109986 -0.0781556 -1.00041 
-0.104358 -0.103625 -0.999273 
-0.0921164 -0.140346 -0.997619 
-0.0909645 -0.184614 -0.988098 
-0.0645387 -0.241991 -0.968368 
0.0442554 -0.25145 0.966917 
0.0659492 -0.192937 0.988263 
0.0642109 -0.154584 0.995448 
0.0799201 -0.121677 0.997452 
0.0803606 -0.0948844 1.00143 
0.0831655 -0.073723 1.00289 
0.0903596 -0.056376 1.00276 
0.0940923 -0.042606 1.00288 
0.0941916 -0.0328154 1.00323 
0.0953745 -0.0249853 1.00323 
0.0969302 -0.0187334 1.0031 
0.0983653 -0.0136729 1.00295 
0.0993974 -0.00949402 1.00282 
0.10011 -0.00593031 1.00271 
0.100594 -0.00275158 1.00263 
0.100801 0.000253747 1.00258 
0.100713 0.0032739 1.00257 
0.10035 0.00647868 1.00259 
0.0996992 0.0100592 1.00264 
0.0987447 0.0142343 1.0027 
0.0975386 0.0192327 1.00278 
0.0960543 0.0253306 1.00284 
0.0941174 0.0328971 1.00288 
0.0916545 0.0423729 1.00284 
0.0887382 0.0542716 1.00264 
0.085292 0.0692786 1.00215 
0.0811108 0.0882784 1.00117 
0.076088 0.112318 0.999328 
0.0702157 0.142629 0.996073 
0.0635331 0.180682 0.990507 
0.0561133 0.228169 0.981247 
0.0480492 0.286944 0.966174 
0.0395254 0.358726 0.942146 
0.0308868 0.444501 0.904743 
0.0226331 0.543663 0.848211 
0.0153616 0.652754 0.765996 
0.00938157 0.765389 0.651018 
0.00480783 0.870517 0.498087 
0.00156032 0.952626 0.308163 
-0.000707068 0.996022 0.091698 
-0.00259049 0.991457 -0.132951 
-0.00479159 0.940169 -0.345017 
-0.00794005 0.852965 -0.528148 
-0.0124268 0.745393 -0.674216 
-0.018332 0.632326 -0.783176 
-0.0254877 0.524437 -0.860318 
-0.0335179 0.427657 -0.91281 
-0.0418873 0.344489 -0.947367 
-0.0501438 0.275211 -0.969465 
-0.0580066 0.2186 -0.983283 
-0.0652092 0.172917 -0.991749 
-0.0715661 0.136415 -0.996814 
-0.0771039 0.107418 -0.99976 
-0.0818862 0.0844315 -1.00141 
-0.0858371 0.0662406 -1.00231 
-0.0892562 0.0518744 -1.00271 
-0.0920526 0.0404566 -1.00288 
-0.0943435 0.031382 -1.0029 
-0.0962558 0.0241246 -1.00285 
-0.0977988 0.0182469 -1.00277 
-0.0989352 0.0134178 -1.0027 
-0.0997913 0.00937557 -1.00264 
-0.10035 0.00588926 -1.00261 
-0.10068 0.00273338 -1.00261 
-0.100758 -0.000273465 -1.00264 
-0.100652 -0.00331003 -1.0027 
-0.100508 -0.00657814 -1.00278 
-0.100249 -0.0103022 -1.00288 
-0.0995435 -0.0147729 -1.00304 
-0.0978875 -0.0203947 -1.00328 
-0.0948897 -0.0277205 -1.00355 
-0.0929566 -0.0378841 -1.00462 
-0.0819742 -0.0513753 -1.00398 
-0.0916409 -0.0653483 -1.0026 
-0.0801781 -0.0880996 -1.00345 
-0.0766561 -0.116479 -0.999324 
-0.0641758 -0.152327 -0.996416 
-0.0652597 -0.19264 -0.988645 
-0.0442002 -0.251451 -0.966997 
0.0312127 -0.258365 0.965404 
0.0466706 -0.200513 0.987385 
0.0470402 -0.156122 0.996028 
0.0607505 -0.119169 1.00023 
0.0597349 -0.0904652 1.00444 
0.0652936 -0.0674678 1.00432 
0.0724611 -0.0520143 1.00316 
0.0716538 -0.0408235 1.00459 
0.0723818 -0.0313322 1.00485 
0.0736291 -0.0237326 1.00484 
0.075123 -0.0176202 1.00473 
0.0763101 -0.0126413 1.00463 
0.0771016 -0.00848739 1.00454 
0.0776658 -0.00489176 1.00445 
0.0780223 -0.00161496 1.00439 
0.0780748 0.001561 1.00436 
0.077854 0.00481544 1.00435 
0.0774106 0.0083274 1.00437 
0.0767007 0.0123184 1.0044 
0.0757252 0.0170246 1.00443 
0.0745443 0.022687 1.00445 
0.0730764 0.0296256 1.00444 
0.0711464 0.0382641 1.00438 
0.0687781 0.0490738 1.00417 
0.0660673 0.062616 1.00372 
0.0628666 0.0796772 1.00286 
0.0590071 0.101223 1.00133 
0.0544797 0.128347 0.99866 
0.0493434 0.162339 0.994161 
0.043678 0.204701 0.986749 
0.0375866 0.257114 0.974778 
0.0311731 0.321346 0.955761 
0.0246223 0.398815 0.926099 
0.0182395 0.489914 0.880886 
0.0124108 0.593052 0.814003 
0.00755909 0.703221 0.719113 
0.00376769 0.81284 0.589466 
0.0010506 0.909113 0.421915 
-0.000703387 0.97604 0.221216 
-0.00182025 1.00023 0.00104809 
-0.00280777 0.976561 -0.218805 
-0.00421626 0.910388 -0.419047 
-0.00648039 0.814754 -0.586713 
-0.00981486 0.705078 -0.717201 
-0.0142272 0.594514 -0.812842 
-0.0195801 0.491594 -0.879858 
-0.0255705 0.400565 -0.925274 
-0.0318059 0.322953 -0.955176 
-0.038026 0.258512 -0.974375 
-0.0440328 0.20582 -0.986491 
-0.0495615 0.16321 -0.994007 
-0.0544859 0.129086 -0.99857 
-0.0588705 0.101884 -1.00128 
-0.0626969 0.0802333 -1.00285 
-0.0657943 0.0630433 -1.00374 
-0.0687041 0.0494464 -1.00416 
-0.0709943 0.038546 -1.00439 
-0.0728856 0.0298645 -1.00446 
-0.0745108 0.0228792 -1.00446 
-0.075773 0.0171778 -1.00445 
-0.0766957 0.0124322 -1.00442 
-0.0773362 0.00843627 -1.00439 
-0.0777858 0.00491112 -1.00439 
-0.077973 0.00164651 -1.00441 
-0.0779488 -0.00153738 -1.00444 
-0.0778021 -0.00482628 -1.0045 
-0.0776781 -0.00842728 -1.00455 
-0.077434 -0.0125899 -1.00462 
-0.0766 -0.0176458 -1.00474 
-0.0749384 -0.0240228 -1.00487 
-0.0731152 -0.0322888 -1.00504 
-0.0686347 -0.0426075 -1.00513 
-0.0617821 -0.0565745 -1.00458 
-0.0695339 -0.0695396 -1.00388 
-0.0598861 -0.0905739 -1.00214 
-0.0560487 -0.118155 -1.00202 
-0.0460965 -0.157063 -0.996132 
-0.0462428 -0.199829 -0.987776 
-0.0311869 -0.258296 -0.965447 
0.0224631 -0.263244 0.964222 
0.0338058 -0.204863 0.986791 
0.0343275 -0.16089 0.995463 
0.0456542 -0.120705 1.00079 
0.0428574 -0.095873 1.00327 
0.0487745 -0.074021 1.00479 
0.0552283 -0.0538203 1.0061 
0.0550236 -0.0402861 1.00585 
0.0555989 -0.0303379 1.00588 
0.056834 -0.0226573 1.00578 
0.0581427 -0.0165811 1.00567 
0.0590289 -0.0116361 1.00559 
0.0596257 -0.00748278 1.0055 
0.0600895 -0.00383786 1.00542 
0.0603335 -0.000441318 1.00537 
0.0602537 0.00291689 1.00536 
0.0599719 0.00640832 1.00535 
0.0595127 0.0102404 1.00535 
0.0588063 0.0146645 1.00536 
0.0578808 0.0199209 1.00536 
0.0567757 0.0262665 1.00532 
0.0553657 0.0340758 1.00525 
0.0535273 0.0438115 1.00506 
0.0513679 0.0559627 1.00468 
0.0489399 0.0711547 1.00397 
0.0460469 0.0902792 1.00273 
0.0426026 0.114349 1.00061 
0.0386752 0.144483 0.997063 
0.0343364 0.18203 0.991249 
0.0296762 0.228526 0.981889 
0.0247881 0.285643 0.967049 
0.0197649 0.355054 0.943843 
0.0147765 0.437855 0.908183 
0.0100823 0.533773 0.854668 
0.00598314 0.640059 0.776921 
0.00277534 0.74997 0.669205 
0.000428795 0.854671 0.525619 
-0.00105216 0.940007 0.346 
-0.00179688 0.990942 0.138227 
-0.00212855 0.99704 -0.0818365 
-0.00249687 0.95706 -0.294298 
-0.00334076 0.879434 -0.482046 
-0.00495797 0.778254 -0.635366 
-0.0074579 0.668198 -0.752352 
-0.0108124 0.560714 -0.836894 
-0.0148901 0.462539 -0.89566 
-0.0194268 0.376646 -0.935356 
-0.0241407 0.303896 -0.96147 
-0.028903 0.243661 -0.97828 
-0.0335255 0.194358 -0.988971 
-0.03776 0.154441 -0.995662 
-0.0415814 0.122423 -0.999758 
-0.0450546 0.0968142 -1.00223 
-0.0480651 0.0763571 -1.00371 
-0.0503991 0.0600642 -1.00457 
-0.052998 0.0471899 -1.00494 
-0.0547368 0.0367049 -1.00525 
-0.0562874 0.0283612 -1.00533 
-0.0575789 0.0216431 -1.0054 
-0.0586926 0.0160238 -1.0054 
-0.0592066 0.0113906 -1.00541 
-0.0598151 0.00741675 -1.00539 
-0.0600927 0.00383357 -1.00541 
-0.0601341 0.000441515 -1.00544 
-0.0600059 -0.00293525 -1.00547 
-0.0598128 -0.00648536 -1.0055 
-0.0597546 -0.0104272 -1.00551 
-0.0594748 -0.0150135 -1.00554 
-0.0585373 -0.0206015 -1.00559 
-0.0571635 -0.0275325 -1.00563 
-0.0548202 -0.0360132 -1.0056 
-0.0506788 -0.0466429 -1.00531 
-0.0476638 -0.0591159 -1.0037 
-0.0503019 -0.075978 -1.00496 
-0.0440811 -0.101782 -1.0026 
-0.0392452 -0.131223 -0.999603 
-0.0323169 -0.169432 -0.992966 
-0.0326529 -0.207832 -0.986125 
-0.0224063 -0.263014 -0.964511 
0.0162594 -0.266733 0.963277 
0.024424 -0.209355 0.985883 
0.0245988 -0.165797 0.994692 
0.033216 -0.128317 0.999745 
0.0315756 -0.103497 1.00139 
0.033778 -0.0804744 1.00534 
0.0414772 -0.0631375 1.00432 
0.0416796 -0.0491486 1.0059 
0.0416071 -0.0377166 1.00627 
0.042372 -0.0285345 1.0063 
0.0435641 -0.0212565 1.00622 
0.0446348 -0.0153946 1.00616 
0.0452176 -0.0105435 1.0061 
0.0456546 -0.00642674 1.00601 
0.0460216 -0.00273752 1.00594 
0.0461024 0.000776289 1.00592 
0.0459122 0.00431094 1.0059 
0.0456028 0.00803743 1.00588 
0.0451472 0.0122008 1.00588 
0.0444846 0.0170751 1.00587 
0.0436372 0.0228881 1.00583 
0.042636 0.0299314 1.00575 
0.0413313 0.0386311 1.0056 
0.0396758 0.0494709 1.00528 
0.0378085 0.0629551 1.00471 
0.0357061 0.0797928 1.00373 
0.0331782 0.100964 1.00209 
0.0302271 0.127499 0.999354 
0.0269503 0.160548 0.994874 
0.0234133 0.20152 0.987669 
0.0196981 0.251978 0.976244 
0.0158792 0.313559 0.958367 
0.01203 0.387782 0.930752 
0.00830395 0.475305 0.88886 
0.00491498 0.575007 0.826963 
0.00209758 0.682777 0.738853 
3.2307e-05 0.790359 0.619902 
-0.00133335 0.888292 0.465223 
-0.00198814 0.962206 0.276848 
-0.00208179 0.998347 0.064701 
-0.00192807 0.988783 -0.153705 
-0.00192028 0.935433 -0.358598 
-0.00239996 0.849012 -0.534954 
-0.00356114 0.744127 -0.675815 
-0.00544682 0.63463 -0.781359 
-0.00800924 0.53042 -0.856652 
-0.011118 0.436664 -0.908637 
-0.014545 0.355363 -0.943645 
-0.0181121 0.286887 -0.966639 
-0.0217646 0.230333 -0.98147 
-0.0252901 0.183973 -0.990974 
-0.0284957 0.146394 -0.996954 
-0.0314529 0.116237 -1.00063 
-0.0341833 0.0920399 -1.00288 
-0.0364946 0.0726119 -1.00428 
-0.0381695 0.0570639 -1.00513 
-0.0407298 0.0448978 -1.00535 
-0.041885 0.0345948 -1.00573 
-0.0429203 0.0267576 -1.00592 
-0.0443728 0.0200382 -1.00592 
-0.0447878 0.0146705 -1.00598 
-0.0452237 0.0101176 -1.00598 
-0.0458057 0.00617903 -1.00596 
-0.0458817 0.00250497 -1.00601 
-0.045776 -0.0010345 -1.00602 
-0.0455319 -0.00460702 -1.00606 
-0.0454472 -0.00846171 -1.00605 
-0.0454155 -0.0127592 -1.00601 
-0.0451537 -0.0178067 -1.00593 
-0.0441205 -0.0239553 -1.00599 
-0.042545 -0.031586 -1.00607 
-0.0400455 -0.0414515 -1.00606 
-0.0363143 -0.0549961 -1.00627 
-0.0385174 -0.0705783 -1.00337 
-0.0356626 -0.0899871 -1.00348 
-0.0305678 -0.11695 -1.00143 
-0.0267334 -0.15005 -0.997256 
-0.0227942 -0.208309 -0.987308 
-0.0159886 -0.266618 -0.963378 
0.011696 -0.269296 0.96253 
0.0174871 -0.212904 0.985062 
0.0175703 -0.168102 0.994263 
0.0239029 -0.131224 0.999455 
0.0238799 -0.100781 1.00278 
0.024166 -0.0781757 1.00497 
0.0310738 -0.0619217 1.00571 
0.0307825 -0.0474374 1.00643 
0.0311194 -0.0359309 1.00656 
0.0319396 -0.0269709 1.00654 
0.0330539 -0.0199134 1.00645 
0.0338842 -0.0141779 1.0064 
0.0341699 -0.00942623 1.00635 
0.0345651 -0.00535392 1.00624 
0.0348127 -0.00164139 1.0062 
0.0347978 0.00198449 1.00619 
0.0345727 0.00568283 1.00616 
0.0342863 0.00962893 1.00615 
0.0339079 0.0141398 1.00614 
0.0333015 0.0194559 1.00611 
0.032564 0.02581 1.00604 
0.0316805 0.0335411 1.00591 
0.0305194 0.0431159 1.00567 
0.029104 0.0550039 1.00523 
0.0275548 0.0697475 1.00447 
0.0257775 0.0881571 1.00323 
0.023634 0.111262 1.00117 
0.0211957 0.140045 0.997807 
0.0185586 0.175667 0.992405 
0.0157734 0.21955 0.983853 
0.0129071 0.273152 0.970501 
0.0100115 0.337915 0.949943 
0.00714633 0.415065 0.9187 
0.00444362 0.504678 0.872185 
0.0020617 0.605153 0.804688 
0.000158926 0.712112 0.71 
-0.00117003 0.817406 0.582998 
-0.0019221 0.910725 0.418639 
-0.00208741 0.97629 0.221002 
-0.00182895 1.00046 0.00303391 
-0.0014464 0.977571 -0.215217 
-0.00127517 0.912862 -0.413948 
-0.0015685 0.819295 -0.5804 
-0.00244011 0.711868 -0.710358 
-0.00389227 0.603624 -0.805911 
-0.00586903 0.502809 -0.873298 
-0.00824506 0.41311 -0.919615 
-0.0108344 0.335883 -0.950705 
-0.0135418 0.271235 -0.971055 
-0.0163417 0.217953 -0.984208 
-0.0190043 0.174074 -0.992712 
-0.0214026 0.138525 -0.998051 
-0.0236924 0.110094 -1.00132 
-0.0258266 0.0870958 -1.0034 
-0.0275552 0.0683963 -1.00475 
-0.0286153 0.0533173 -1.00602 
-0.0317515 0.0418854 -1.00483 
-0.0311632 0.0323763 -1.00668 
-0.0332282 0.0242369 -1.00607 
-0.0334664 0.0181036 -1.00622 
-0.0338601 0.0129075 -1.00627 
-0.0341135 0.00848212 -1.00629 
-0.0348086 0.00460017 -1.00623 
-0.0345765 0.000742663 -1.00633 
-0.0341501 -0.0029271 -1.0064 
-0.0341306 -0.0067965 -1.00635 
-0.0339254 -0.0109852 -1.00629 
-0.0339462 -0.0156004 -1.00615 
-0.0336418 -0.0208013 -1.00534 
-0.0324784 -0.027137 -1.00614 
-0.031173 -0.0352978 -1.00619 
-0.0291697 -0.0461484 -1.00607 
-0.0262323 -0.0605348 -1.00534 
-0.0293205 -0.074576 -1.00443 
-0.025335 -0.0987188 -1.00323 
-0.0207549 -0.130517 -1.00104 
-0.0193896 -0.173879 -0.993323 
-0.0154665 -0.218437 -0.982732 
-0.0114169 -0.269343 -0.962458 
0.00821695 -0.271155 0.961974 
0.0123773 -0.214933 0.984577 
0.0124036 -0.168736 0.994152 
0.0174245 -0.130873 0.999612 
0.0172088 -0.102193 1.00262 
0.0170532 -0.0803682 1.00441 
0.0223626 -0.0596188 1.00678 
0.0224223 -0.0447105 1.00663 
0.0227858 -0.0336193 1.00672 
0.0235862 -0.0250543 1.00665 
0.0246015 -0.0182557 1.00653 
0.025015 -0.0127787 1.00651 
0.025117 -0.00814041 1.00641 
0.0253944 -0.00420326 1.00634 
0.0255928 -0.000444716 1.00635 
0.0254862 0.00331878 1.00632 
0.0251772 0.00714591 1.00632 
0.025028 0.0113799 1.0063 
0.0246715 0.0162881 1.00629 
0.0241392 0.0220799 1.00623 
0.0235199 0.0290182 1.00612 
0.0227699 0.0375151 1.00594 
0.0217834 0.0480191 1.0056 
0.0206508 0.0610061 1.00502 
0.0194233 0.0771123 1.00407 
0.0179708 0.0972558 1.00252 
0.0162267 0.122407 0.999977 
0.0143047 0.153534 0.995901 
0.0122765 0.191905 0.989449 