# vtk DataFile Version 3.0 
Exported using Morpho https://github.com/Morpho-lang/morpho 
ASCII 
DATASET UNSTRUCTURED_GRID 

POINTS 2054 float 
-8.48528 -2.82843 0 
-8.20636 -2.82843 0 
-7.94054 -2.82843 0 
-7.6904 -2.82843 0 
-7.45357 -2.82843 0 
-7.22694 -2.82843 0 
-7.00705 -2.82843 0 
-6.79111 -2.82843 0 
-6.57731 -2.82843 0 
-6.36453 -2.82843 0 
-6.15219 -2.82843 0 
-5.94 -2.82843 0 
-5.72786 -2.82843 0 
-5.51573 -2.82843 0 
-5.3036 -2.82843 0 
-5.09147 -2.82843 0 
-4.87933 -2.82843 0 
-4.6672 -2.82843 0 
-4.45507 -2.82843 0 
-4.24294 -2.82843 0 
-4.03081 -2.82843 0 
-3.81867 -2.82843 0 
-3.60654 -2.82843 0 
-3.39441 -2.82843 0 
-3.18228 -2.82843 0 
-2.97015 -2.82843 0 
-2.75801 -2.82843 0 
-2.54588 -2.82843 0 
-2.33375 -2.82843 0 
-2.12162 -2.82843 0 
-1.90949 -2.82843 0 
-1.69735 -2.82843 0 
-1.48522 -2.82843 0 
-1.27309 -2.82843 0 
-1.06096 -2.82843 0 
-0.848825 -2.82843 0 
-0.636693 -2.82843 0 
-0.424561 -2.82843 0 
-0.212429 -2.82843 0 
-0.000296761 -2.82843 0 
0.211835 -2.82843 0 
0.423967 -2.82843 0 
0.636099 -2.82843 0 
0.848231 -2.82843 0 
1.06036 -2.82843 0 
1.2725 -2.82843 0 
1.48463 -2.82843 0 
1.69676 -2.82843 0 
1.90889 -2.82843 0 
2.12102 -2.82843 0 
2.33316 -2.82843 0 
2.54529 -2.82843 0 
2.75742 -2.82843 0 
2.96955 -2.82843 0 
3.18168 -2.82843 0 
3.39382 -2.82843 0 
3.60595 -2.82843 0 
3.81808 -2.82843 0 
4.03021 -2.82843 0 
4.24234 -2.82843 0 
4.45448 -2.82843 0 
4.66661 -2.82843 0 
4.87874 -2.82843 0 
5.09087 -2.82843 0 
5.303 -2.82843 0 
5.51514 -2.82843 0 
5.72727 -2.82843 0 
5.93941 -2.82843 0 
6.15159 -2.82843 0 
6.36393 -2.82843 0 
6.57672 -2.82843 0 
6.79055 -2.82843 0 
7.00652 -2.82843 0 
7.22647 -2.82843 0 
7.45313 -2.82843 0 
7.69005 -2.82843 0 
7.9403 -2.82843 0 
8.20621 -2.82843 0 
8.48528 -2.82843 0 
-8.48528 -2.5495 0 
-8.30526 -2.64845 0 
-8.07062 -2.59995 0 
-7.83904 -2.59637 0 
-7.59595 -2.59733 0 
-7.36578 -2.59177 0 
-7.13796 -2.5933 0 
-6.90908 -2.59428 0 
-6.68421 -2.5916 0 
-6.46568 -2.58832 0 
-6.24926 -2.58859 0 
-6.03358 -2.58941 0 
-5.81848 -2.59013 0 
-5.60402 -2.59075 0 
-5.39005 -2.59135 0 
-5.17642 -2.59186 0 
-4.96311 -2.59223 0 
-4.75009 -2.59242 0 
-4.53736 -2.59244 0 
-4.32497 -2.59236 0 
-4.1128 -2.59242 0 
-3.90059 -2.59259 0 
-3.68835 -2.5926 0 
-3.47627 -2.59248 0 
-3.26428 -2.59251 0 
-3.05216 -2.59271 0 
-2.83986 -2.59283 0 
-2.62755 -2.59274 0 
-2.41539 -2.59253 0 
-2.20336 -2.59238 0 
-1.99135 -2.59238 0 
-1.77924 -2.59246 0 
-1.56704 -2.59244 0 
-1.35495 -2.59215 0 
-1.14319 -2.59183 0 
-0.931581 -2.59195 0 
-0.719663 -2.59256 0 
-0.507197 -2.59324 0 
-0.294425 -2.59354 0 
-0.0817689 -2.59344 0 
0.130587 -2.59325 0 
0.342804 -2.59322 0 
0.555051 -2.59322 0 
0.767233 -2.59303 0 
0.97919 -2.59278 0 
1.19107 -2.59278 0 
1.40311 -2.59289 0 
1.61524 -2.59286 0 
1.82732 -2.59279 0 
2.03943 -2.59281 0 
2.25163 -2.5928 0 
2.46381 -2.59266 0 
2.67591 -2.59254 0 
2.88801 -2.59237 0 
3.10001 -2.59226 0 
3.31203 -2.59216 0 
3.52402 -2.59207 0 
3.73601 -2.59208 0 
3.94815 -2.59221 0 
4.16052 -2.5923 0 
4.37309 -2.59232 0 
4.58593 -2.59227 0 
4.79921 -2.5922 0 
5.01319 -2.59212 0 
5.22833 -2.5921 0 
5.44534 -2.59239 0 
5.6657 -2.59346 0 
5.89185 -2.59569 0 
6.12685 -2.59429 0 
6.36853 -2.59189 0 
6.6108 -2.57787 0 
6.84491 -2.61411 0 
7.08804 -2.58476 0 
7.34858 -2.60369 0 
7.58803 -2.59327 0 
7.83059 -2.59326 0 
8.06387 -2.59199 0 
8.30038 -2.64348 0 
8.48528 -2.54936 0 
-8.48528 -2.28369 0 
-8.25701 -2.4138 0 
-8.01078 -2.35334 0 
-7.73666 -2.37963 0 
-7.49744 -2.35565 0 
-7.26898 -2.35831 0 
-7.03324 -2.36676 0 
-6.7997 -2.36275 0 
-6.5773 -2.35166 0 
-6.35808 -2.3495 0 
-6.14038 -2.35058 0 
-5.92336 -2.35185 0 
-5.70723 -2.35272 0 
-5.49199 -2.35362 0 
-5.27734 -2.35447 0 
-5.0632 -2.35505 0 
-4.84958 -2.35534 0 
-4.63641 -2.35533 0 
-4.42363 -2.35504 0 
-4.21126 -2.35485 0 
-3.99909 -2.35513 0 
-3.78684 -2.3554 0 
-3.57461 -2.35516 0 
-3.36263 -2.35498 0 
-3.15066 -2.35537 0 
-2.93843 -2.35586 0 
-2.72604 -2.35589 0 
-2.51374 -2.35551 0 
-2.30162 -2.35509 0 
-2.08964 -2.35496 0 
-1.87761 -2.35518 0 
-1.66544 -2.3554 0 
-1.45322 -2.35518 0 
-1.2412 -2.35438 0 
-1.02967 -2.35407 0 
-0.818162 -2.35505 0 
-0.606054 -2.35676 0 
-0.393243 -2.3579 0 
-0.180256 -2.35789 0 
0.0323765 -2.35727 0 
0.244686 -2.35692 0 
0.456926 -2.35692 0 
0.669206 -2.35667 0 
0.881318 -2.35598 0 
1.09315 -2.35559 0 
1.305 -2.35583 0 
1.51709 -2.35595 0 
1.72919 -2.35571 0 
1.9412 -2.35566 0 
2.15334 -2.3558 0 
2.36559 -2.3556 0 
2.57772 -2.35522 0 
2.78976 -2.35507 0 
3.0019 -2.35461 0 
3.21373 -2.35451 0 
3.42571 -2.35439 0 
3.63769 -2.35431 0 
3.84965 -2.35453 0 
4.06183 -2.35491 0 
4.27435 -2.35507 0 
4.48707 -2.35507 0 
4.70017 -2.35506 0 
4.91376 -2.35498 0 
5.12819 -2.35502 0 
5.34378 -2.35528 0 
5.56106 -2.35662 0 
5.78097 -2.35971 0 
6.00401 -2.36251 0 
6.2308 -2.3624 0 
6.45748 -2.35551 0 
6.68075 -2.33423 0 
6.88797 -2.39744 0 
7.05313 -2.27289 0 
7.24377 -2.40237 0 
7.48542 -2.36016 0 
7.73055 -2.36599 0 
7.99177 -2.33552 0 
8.24864 -2.40698 0 
8.48528 -2.28345 0 
-8.48528 -2.03355 0 
-8.25312 -2.18214 0 
-8.03669 -2.07913 0 
-7.83956 -2.18231 0 
-7.6106 -2.12852 0 
-7.38852 -2.10959 0 
-7.16268 -2.14097 0 
-6.9229 -2.1435 0 
-6.70119 -2.12055 0 
-6.48111 -2.11285 0 
-6.26282 -2.11284 0 
-6.045 -2.1151 0 
-5.82775 -2.11658 0 
-5.61153 -2.11776 0 
-5.3962 -2.1192 0 
-5.18144 -2.1203 0 
-4.96732 -2.12084 0 
-4.75387 -2.12105 0 
-4.54086 -2.12091 0 
-4.32822 -2.12045 0 
-4.11596 -2.12045 0 
-3.90382 -2.12107 0 
-3.69156 -2.12116 0 
-3.47938 -2.12058 0 
-3.26746 -2.12068 0 
-3.05542 -2.12154 0 
-2.84307 -2.12198 0 
-2.63064 -2.12162 0 
-2.41836 -2.12087 0 
-2.20626 -2.12031 0 
-1.99426 -2.12034 0 
-1.78217 -2.1207 0 
-1.56989 -2.12074 0 
-1.35755 -2.11993 0 
-1.14542 -2.11838 0 
-0.934012 -2.11859 0 
-0.722404 -2.12089 0 
-0.509943 -2.12344 0 
-0.296911 -2.12431 0 
-0.0840921 -2.12359 0 
0.128295 -2.12281 0 
0.340414 -2.12274 0 
0.552564 -2.12288 0 
0.76478 -2.12226 0 
0.976792 -2.1213 0 
1.18855 -2.12128 0 
1.40042 -2.12188 0 
1.61256 -2.12177 0 
1.82458 -2.12141 0 
2.03655 -2.12164 0 
2.24875 -2.12174 0 
2.46099 -2.12114 0 
2.67302 -2.12065 0 
2.88504 -2.12054 0 
3.09728 -2.1194 0 
3.30873 -2.11968 0 
3.52086 -2.1195 0 
3.7329 -2.11938 0 
3.94484 -2.11986 0 
4.15715 -2.12044 0 
4.36983 -2.12035 0 
4.58282 -2.1204 0 
4.79606 -2.12017 0 
5.01004 -2.12012 0 
5.22483 -2.12002 0 
5.44073 -2.12051 0 
5.6582 -2.123 0 
5.8782 -2.12696 0 
6.10217 -2.12971 0 
6.33095 -2.12707 0 
6.567 -2.11601 0 
6.82301 -2.12303 0 
7.06572 -2.04567 0 
7.29733 -2.17484 0 
7.54632 -2.11408 0 
7.79371 -2.13741 0 
8.02274 -2.07453 0 
8.25027 -2.1738 0 
8.48528 -2.0332 0 
-8.48528 -1.79671 0 
-8.25436 -1.93882 0 
-8.01299 -1.83977 0 
-7.78596 -1.953 0 
-7.5297 -1.87194 0 
-7.2756 -1.88722 0 
-7.05707 -1.93544 0 
-6.84369 -1.89677 0 
-6.62219 -1.88079 0 
-6.40169 -1.87606 0 
-6.18206 -1.87854 0 
-5.96274 -1.881 0 
-5.74458 -1.88208 0 
-5.52796 -1.88344 0 
-5.31232 -1.88506 0 
-5.09736 -1.88569 0 
-4.88338 -1.88564 0 
-4.67019 -1.88555 0 
-4.45737 -1.88507 0 
-4.24485 -1.88447 0 
-4.03271 -1.88482 0 
-3.82061 -1.88562 0 
-3.60832 -1.88529 0 
-3.39617 -1.88464 0 
-3.18427 -1.88547 0 
-2.97209 -1.88672 0 
-2.7596 -1.88684 0 
-2.54714 -1.88601 0 
-2.33483 -1.88505 0 
-2.12268 -1.8846 0 
-1.91058 -1.885 0 
-1.69824 -1.88561 0 
-1.48561 -1.88547 0 
-1.27286 -1.88413 0 
-1.06032 -1.88216 0 
-0.848858 -1.8839 0 
-0.636875 -1.88781 0 
-0.424169 -1.89034 0 
-0.211518 -1.89004 0 
0.000731944 -1.88866 0 
0.21257 -1.88788 0 
0.424308 -1.88807 0 
0.636257 -1.88793 0 
0.848362 -1.88664 0 
1.06025 -1.88556 0 
1.27191 -1.88605 0 
1.48381 -1.88664 0 
1.69595 -1.886 0 
1.90782 -1.88577 0 
2.11974 -1.88637 0 
2.33202 -1.88609 0 
2.54419 -1.88502 0 
2.75607 -1.88472 0 
2.96812 -1.88462 0 
3.18055 -1.88217 0 
3.39117 -1.88415 0 
3.60398 -1.8838 0 
3.81618 -1.88366 0 
4.02827 -1.88469 0 
4.24071 -1.88523 0 
4.4544 -1.88509 0 
4.66716 -1.88476 0 
4.88099 -1.88493 0 
5.09545 -1.88466 0 
5.31057 -1.88453 0 
5.52653 -1.88564 0 
5.7436 -1.88981 0 
5.96352 -1.89563 0 
6.18733 -1.89813 0 
6.41543 -1.89522 0 
6.65059 -1.89622 0 
6.87542 -1.86913 0 
7.11122 -1.81621 0 
7.31223 -1.94975 0 
7.53264 -1.87683 0 
7.77077 -1.89068 0 
8.01717 -1.8297 0 
8.25014 -1.93148 0 
8.48528 -1.79628 0 
-8.48528 -1.57009 0 
-8.24868 -1.70836 0 
-8.015 -1.61096 0 
-7.76734 -1.73071 0 
-7.54593 -1.61782 0 
-7.32306 -1.66278 0 
-7.05152 -1.7082 0 
-6.79786 -1.66675 0 
-6.56099 -1.64764 0 
-6.33267 -1.64541 0 
-6.10856 -1.64921 0 
-5.88638 -1.65073 0 
-5.66697 -1.65153 0 
-5.44986 -1.65353 0 
-5.23379 -1.65525 0 
-5.01882 -1.6551 0 
-4.80519 -1.6548 0 
-4.59235 -1.65478 0 
-4.37976 -1.65422 0 
-4.16737 -1.65386 0 
-3.95537 -1.65471 0 
-3.74326 -1.6554 0 
-3.5309 -1.65455 0 
-3.31876 -1.65426 0 
-3.10682 -1.65593 0 
-2.89443 -1.65705 0 
-2.68177 -1.65644 0 
-2.46924 -1.65516 0 
-2.25682 -1.65408 0 
-2.04447 -1.65386 0 
-1.83202 -1.65455 0 
-1.61911 -1.65506 0 
-1.40572 -1.65429 0 
-1.19212 -1.65207 0 
-0.97885 -1.64982 0 
-0.767325 -1.65372 0 
-0.555434 -1.6581 0 
-0.343588 -1.65935 0 
-0.132061 -1.65818 0 
0.0792288 -1.65687 0 
0.290417 -1.65682 0 
0.501823 -1.6575 0 
0.713729 -1.65709 0 
0.925861 -1.65545 0 
1.13768 -1.65488 0 
1.34929 -1.65604 0 
1.56128 -1.6563 0 
1.77337 -1.65516 0 
1.985 -1.65561 0 
2.19698 -1.65642 0 
2.40939 -1.65525 0 
2.62143 -1.65394 0 
2.83323 -1.65414 0 
3.04553 -1.65355 0 
3.25842 -1.64868 0 
3.46746 -1.65522 0 
3.68272 -1.65284 0 
3.89574 -1.65288 0 
4.10731 -1.65378 0 
4.32287 -1.65565 0 
4.53627 -1.65249 0 
4.74932 -1.65397 0 
4.96428 -1.65355 0 
5.17935 -1.65257 0 
5.3944 -1.65202 0 
5.60927 -1.65354 0 
5.82513 -1.66019 0 
6.04295 -1.66711 0 
6.26383 -1.66843 0 
6.48537 -1.66776 0 
6.70098 -1.65646 0 
6.91299 -1.6206 0 
7.11709 -1.6046 0 
7.3526 -1.69716 0 
7.60698 -1.65764 0 
7.8325 -1.64214 0 
8.05985 -1.58842 0 
8.2608 -1.69223 0 
8.48528 -1.56961 0 
-8.48528 -1.35019 0 
-8.24958 -1.48044 0 
-8.0219 -1.3751 0 
-7.79713 -1.50391 0 
-7.58956 -1.39834 0 
-7.36199 -1.38754 0 
-7.16079 -1.49923 0 
-6.93764 -1.46284 0 
[...]
POINT_DATA 2054 
VECTORS vectors float
0.076416 -0.111376 0.990817 
0.0875834 -0.082652 0.992898 
0.0911212 -0.0642204 0.993987 
0.0930344 -0.0496407 0.994619 
0.0944843 -0.0383744 0.994969 
0.0956024 -0.0297159 0.995157 
0.0964493 -0.0230452 0.995249 
0.0970612 -0.0177331 0.995287 
0.0974623 -0.0133815 0.99531 
0.0976886 -0.00947534 0.995331 
0.0980112 -0.00591803 0.995322 
0.0984125 -0.00316215 0.99529 
0.0986498 -0.00107484 0.995267 
0.0987021 0.000759195 0.99526 
0.0986242 0.00262482 0.995264 
0.098435 0.00476198 0.995275 
0.0981361 0.0073812 0.99529 
0.0977389 0.0106571 0.995302 
0.0972634 0.0147396 0.9953 
0.096712 0.0197721 0.995271 
0.096058 0.025925 0.995198 
0.0952546 0.0334345 0.995057 
0.0942471 0.0426257 0.994809 
0.092974 0.0539294 0.994389 
0.0913646 0.0678939 0.993693 
0.0893344 0.0852036 0.992555 
0.08678 0.106704 0.990716 
0.0835749 0.133423 0.987765 
0.0795647 0.166607 0.983063 
0.0745659 0.20774 0.975612 
0.068381 0.258539 0.963869 
0.0608395 0.320854 0.945479 
0.0518807 0.396362 0.916941 
0.0416824 0.485958 0.873298 
0.0308081 0.588639 0.808099 
0.0202661 0.700017 0.714091 
0.0113244 0.811008 0.585123 
0.00500974 0.907954 0.419168 
0.00149759 0.975216 0.221297 
-0.000175327 0.999984 0.00453851 
-0.00178992 0.977133 -0.212673 
-0.00515465 0.911341 -0.411753 
-0.0112979 0.815173 -0.579308 
-0.0201063 0.704291 -0.70988 
-0.0305793 0.592561 -0.805234 
-0.0414417 0.489294 -0.871442 
-0.051661 0.39907 -0.915777 
-0.0606542 0.322984 -0.944764 
-0.0682321 0.260185 -0.963435 
-0.07445 0.208994 -0.975351 
-0.0794764 0.167553 -0.982908 
-0.0835082 0.134135 -0.987674 
-0.0867296 0.107238 -0.990663 
-0.0892962 0.0856037 -0.992524 
-0.0913352 0.0681927 -0.993675 
-0.0929514 0.0541516 -0.994379 
-0.0942307 0.0427912 -0.994804 
-0.0952441 0.0335581 -0.995054 
-0.0960526 0.0260189 -0.995196 
-0.0967123 0.0198465 -0.99527 
-0.097269 0.0148087 -0.995299 
-0.0977423 0.0107338 -0.995302 
-0.0981352 0.00746119 -0.995291 
-0.0984401 0.00485295 -0.995275 
-0.0986251 0.00273979 -0.995265 
-0.0986764 0.00087184 -0.995264 
-0.0985929 -0.00100799 -0.995275 
-0.098322 -0.00319417 -0.995304 
-0.0979677 -0.00611129 -0.995333 
-0.0979377 -0.00961758 -0.995177 
-0.0974716 -0.013363 -0.995334 
-0.0970283 -0.0177732 -0.995282 
-0.0964344 -0.0230596 -0.995253 
-0.0955428 -0.0297304 -0.995179 
-0.0944876 -0.0383757 -0.994967 
-0.0930634 -0.0496063 -0.994626 
-0.0911184 -0.0641745 -0.994004 
-0.0875496 -0.0826656 -0.992913 
-0.076441 -0.111443 -0.990815 
0.0429157 -0.119142 0.99202 
0.0627416 -0.0959354 0.994127 
0.0649219 -0.0752217 0.995937 
0.0686385 -0.0591837 0.996781 
0.0714413 -0.0456622 0.997249 
0.0727733 -0.035465 0.99754 
0.0742514 -0.0273442 0.997667 
0.0753028 -0.0208534 0.997728 
0.0757462 -0.0156629 0.997774 
0.0759366 -0.0114199 0.99781 
0.0763343 -0.00778218 0.997808 
0.0767546 -0.00471529 0.997787 
0.0770868 -0.00222216 0.997763 
0.0772672 -9.80627e-05 0.997747 
0.0773026 0.00191637 0.99774 
0.0772045 0.00407695 0.99774 
0.0769743 0.00661732 0.997745 
0.076613 0.00970208 0.99775 
0.0761389 0.0134697 0.997746 
0.0755733 0.0180887 0.997721 
0.0749267 0.0237647 0.997656 
0.0741602 0.0307417 0.99753 
0.0732013 0.0393165 0.997309 
0.0719984 0.0498664 0.996936 
0.0705151 0.0628915 0.996318 
0.0686859 0.0790399 0.99531 
0.0664145 0.0991133 0.993684 
0.0636072 0.124073 0.991082 
0.0601804 0.155071 0.986943 
0.0560518 0.193497 0.980399 
0.051139 0.240976 0.97011 
0.0453835 0.299291 0.954032 
0.0388069 0.370116 0.92914 
0.0315841 0.454477 0.891164 
0.0241067 0.551914 0.834494 
0.0169284 0.65951 0.752387 
0.0106401 0.770617 0.637988 
0.00571478 0.873832 0.486825 
0.00229153 0.953937 0.300458 
2.12527e-05 0.996075 0.0889742 
-0.00185067 0.991526 -0.130284 
-0.0042085 0.94138 -0.337804 
-0.00776103 0.855856 -0.517811 
-0.0128003 0.750052 -0.66205 
-0.0191373 0.638646 -0.770154 
-0.0262687 0.532284 -0.847102 
-0.0335936 0.43697 -0.899813 
-0.040584 0.355129 -0.934897 
-0.0469108 0.286787 -0.95779 
-0.0524379 0.230656 -0.972543 
-0.0571398 0.185015 -0.981968 
-0.0610609 0.148144 -0.987948 
-0.0643001 0.11846 -0.99172 
-0.0669489 0.0945861 -0.994087 
-0.0691064 0.0753942 -0.995562 
-0.0708522 0.0599379 -0.996475 
-0.0722589 0.0474625 -0.997033 
-0.0733974 0.0373583 -0.997369 
-0.0743263 0.0291441 -0.997565 
-0.0750854 0.0224561 -0.997674 
-0.0757174 0.0170186 -0.997728 
-0.0762501 0.012603 -0.997749 
-0.0766942 0.00900586 -0.997752 
-0.0770399 0.00606001 -0.997747 
-0.0772724 0.00361694 -0.997742 
-0.0773977 0.00147751 -0.997743 
-0.0774416 -0.000627516 -0.997748 
-0.077427 -0.00300228 -0.997761 
-0.0769488 -0.00600906 -0.997812 
-0.0763073 -0.00977815 -0.99796 
-0.0746638 -0.0142138 -0.998047 
-0.0773232 -0.0192983 -0.997474 
-0.0736733 -0.0258249 -0.997896 
-0.0739475 -0.0347455 -0.997488 
-0.0711508 -0.0452729 -0.997307 
-0.0684531 -0.0586663 -0.996847 
-0.0642747 -0.0747973 -0.996041 
-0.0624104 -0.0955467 -0.994205 
-0.0429863 -0.119096 -0.992037 
0.0282467 -0.1245 0.991953 
0.0444078 -0.0945998 0.995402 
0.0470046 -0.0731183 0.997248 
0.0533779 -0.0543619 0.997943 
0.0544144 -0.042059 0.99847 
0.056351 -0.0325396 0.998683 
0.058215 -0.0247007 0.99878 
0.0588919 -0.0185771 0.998861 
0.0588214 -0.0137868 0.998938 
0.0591585 -0.00982818 0.998956 
0.0596116 -0.00648374 0.998948 
0.0599909 -0.00366785 0.998933 
0.0602333 -0.00125473 0.998918 
0.0603531 0.000944143 0.998908 
0.0603395 0.00315132 0.998902 
0.0601795 0.00563062 0.9989 
0.0598788 0.00856331 0.998899 
0.0594504 0.0120534 0.998891 
0.0589145 0.0162594 0.998866 
0.0583017 0.021416 0.99881 
0.0576152 0.0277871 0.9987 
0.0567835 0.0356612 0.998505 
0.055727 0.0453772 0.99818 
0.0544335 0.0573636 0.997646 
0.0528825 0.0721993 0.99678 
0.0509881 0.0906299 0.995389 
0.0486594 0.113552 0.993171 
0.0458457 0.142026 0.989655 
0.04252 0.177321 0.984114 
0.0386651 0.220922 0.975432 
0.0342747 0.274512 0.961905 
0.0293786 0.33978 0.940999 
0.024096 0.418023 0.90908 
0.018672 0.509457 0.861248 
0.0134763 0.612241 0.791472 
0.00884918 0.721739 0.692947 
0.00503245 0.829211 0.559629 
0.00212917 0.921261 0.389493 
3.59271e-05 0.982183 0.18834 
-0.00157623 0.999606 -0.0292772 
-0.00317195 0.969896 -0.243929 
-0.00521825 0.899528 -0.437422 
-0.00805154 0.802014 -0.597996 
-0.0117753 0.69264 -0.722044 
-0.016268 0.583892 -0.812592 
-0.0212643 0.483568 -0.876003 
-0.0264143 0.395479 -0.919054 
-0.0313967 0.320754 -0.947589 
-0.0360175 0.258745 -0.966199 
-0.0401658 0.207946 -0.978214 
-0.0437694 0.166698 -0.985909 
-0.046839 0.133411 -0.990802 
-0.0494364 0.106611 -0.993897 
-0.0515834 0.085042 -0.995848 
-0.0533722 0.0677042 -0.997067 
-0.054838 0.0537175 -0.997825 
-0.0560347 0.0424155 -0.998292 
-0.0570259 0.0332629 -0.998573 
-0.0578502 0.0258416 -0.998737 
-0.0585284 0.0198353 -0.998829 
-0.0590958 0.0149785 -0.998876 
-0.0595752 0.0110082 -0.998896 
-0.0599572 0.00770291 -0.998903 
-0.0602337 0.0049204 -0.998905 
-0.060397 0.00253517 -0.998907 
-0.060496 0.00031958 -0.998911 
-0.0605674 -0.00199924 -0.998911 
-0.0604908 -0.00463823 -0.998919 
-0.0600947 -0.00780295 -0.998939 
-0.0592183 -0.0115739 -0.99896 
-0.0574964 -0.0159829 -0.998873 
-0.0607798 -0.020653 -0.998731 
-0.0523385 -0.0255291 -0.999091 
-0.0594999 -0.0314902 -0.998398 
-0.0548213 -0.0414275 -0.998487 
-0.0525199 -0.0540444 -0.998063 
-0.0462316 -0.0717672 -0.997444 
-0.0442531 -0.0938101 -0.995516 
-0.0282271 -0.124456 -0.991972 
0.0199443 -0.126822 0.991849 
0.0317173 -0.0970836 0.995667 
0.0319583 -0.0777021 0.997319 
0.0402876 -0.0622571 0.997911 
0.040338 -0.0488597 0.998817 
0.0414118 -0.0382685 0.999229 
0.0445363 -0.0294103 0.999333 
0.045856 -0.0221419 0.99945 
0.0454437 -0.0167461 0.999582 
0.0456155 -0.0122993 0.999633 
0.0460493 -0.00859872 0.999643 
0.0464958 -0.00545892 0.999636 
0.0467997 -0.00275299 0.999627 
0.0469893 -0.000329657 0.999617 
0.0470768 0.00196447 0.999607 
0.0470129 0.00438954 0.999602 
0.0467941 0.00718929 0.999596 
0.0464507 0.0104518 0.999584 
0.0459992 0.0142724 0.999561 
0.0454548 0.0188831 0.999513 
0.0448533 0.0245812 0.999422 
0.0441756 0.0316619 0.99926 
0.0433233 0.0404398 0.99899 
0.0422481 0.0512884 0.998549 
0.040977 0.0646876 0.997836 
0.0394703 0.0812958 0.996696 
0.0376285 0.101941 0.994885 
0.0353993 0.127594 0.992024 
0.0327758 0.159396 0.987524 
0.029769 0.198697 0.980489 
0.0263999 0.247034 0.969553 
0.0226951 0.30607 0.952669 
0.0187225 0.377326 0.926839 
0.014627 0.46165 0.887892 
0.0106334 0.558423 0.83042 
0.00702912 0.664375 0.748246 
0.00397522 0.773401 0.63469 
0.00155157 0.87491 0.484932 
-0.000243635 0.954087 0.300019 
-0.00153441 0.995997 0.0899332 
-0.00257312 0.991834 -0.127973 
-0.00368209 0.942715 -0.33409 
-0.00516683 0.858851 -0.512868 
-0.00722605 0.75504 -0.656439 
-0.0099086 0.64552 -0.764567 
-0.0131419 0.540554 -0.84214 
-0.0167528 0.445846 -0.895902 
-0.0204944 0.3638 -0.932195 
-0.0241634 0.294763 -0.95619 
-0.0276385 0.237676 -0.971852 
-0.0308054 0.190969 -0.981988 
-0.0335874 0.153078 -0.988492 
-0.0360034 0.1225 -0.99264 
-0.038084 0.0978558 -0.995276 
-0.0397934 0.0779974 -0.996946 
-0.0412736 0.0620444 -0.997989 
-0.0424816 0.0491297 -0.998646 
-0.0434744 0.0386932 -0.999051 
-0.0443159 0.030256 -0.999297 
-0.0450228 0.0234435 -0.999441 
-0.0455922 0.0179657 -0.999524 
-0.0460856 0.0135283 -0.999567 
-0.0464825 0.00983441 -0.999591 
-0.0467962 0.00666779 -0.999602 
-0.0469942 0.00395158 -0.999609 
-0.047098 0.00156313 -0.999614 
-0.0471782 -0.000776583 -0.999618 
-0.0472232 -0.00331291 -0.999618 
-0.0470956 -0.00620312 -0.999623 
-0.0465709 -0.0096689 -0.999634 
-0.0454999 -0.0139349 -0.999649 
-0.0450433 -0.0195572 -0.999716 
-0.0403126 -0.02652 -0.999624 
-0.0454645 -0.034206 -0.99918 
-0.0401712 -0.0454914 -0.999156 
-0.0385958 -0.0594641 -0.998241 
-0.0319746 -0.0765584 -0.997466 
-0.0314039 -0.0968406 -0.995724 
-0.0199081 -0.126839 -0.991855 
0.0143719 -0.128172 0.991756 
0.0225302 -0.0993531 0.995646 
0.0234529 -0.0773966 0.997564 
0.0305628 -0.0600917 0.998548 
0.0299603 -0.045812 0.999478 
0.032431 -0.0343836 0.999671 
0.0356501 -0.0265844 0.999613 
0.0348516 -0.0206025 0.999914 
0.0348379 -0.0154564 1.00001 
0.0351228 -0.0112097 1.00005 
0.0355826 -0.00764281 1.00005 
0.0359415 -0.00459603 1.00005 
0.0361548 -0.00190037 1.00005 
0.0362891 0.000558767 1.00004 
0.0363145 0.00297297 1.00003 
0.0361713 0.00565465 1.00002 
0.0358942 0.00875022 1.00001 
0.0355323 0.012275 0.999988 
0.0350854 0.0163893 0.999947 
0.0345704 0.0214139 0.999875 
0.0340189 0.0276775 0.999747 
0.0333801 0.0354857 0.99953 
0.0325546 0.0451762 0.999176 
0.0315424 0.0571539 0.998607 
0.0303819 0.0719507 0.9977 
0.0289978 0.0903077 0.996264 
0.0273052 0.113119 0.994 
0.0252955 0.141409 0.990446 
0.0229909 0.176394 0.984896 
0.0204187 0.219476 0.976277 
0.0176137 0.272213 0.962976 
0.0146101 0.336239 0.942587 
0.0114822 0.412856 0.911663 
0.00836618 0.502414 0.865524 
0.00544452 0.603387 0.798338 
0.00293218 0.710978 0.70405 
0.000883218 0.817794 0.576243 
-0.000669834 0.91142 0.412065 
-0.00174143 0.976446 0.216214 
-0.00244376 1.00004 0.0017802 
-0.00298902 0.977271 -0.212429 
-0.00363474 0.913218 -0.408036 
-0.00460624 0.820352 -0.572567 
-0.0060329 0.713532 -0.701433 
-0.00794173 0.605529 -0.796686 
-0.0102811 0.50467 -0.864182 
-0.0129119 0.415072 -0.910632 
-0.01565 0.338209 -0.941864 
-0.0183755 0.273908 -0.96248 
-0.0209981 0.220844 -0.975956 
-0.0233983 0.17745 -0.984697 
-0.0255237 0.14227 -0.990318 
-0.027409 0.113867 -0.993913 
-0.0290456 0.0909345 -0.996208 
-0.0303526 0.0724282 -0.99767 
-0.0315905 0.0575949 -0.99858 
-0.0325533 0.0454973 -0.999164 
-0.033353 0.0357465 -0.999523 
-0.0340598 0.0278847 -0.99974 
-0.034641 0.0215769 -0.999872 
-0.0351204 0.0165084 -0.999947 
-0.035519 0.0123881 -0.999989 
-0.0358641 0.00884631 -1.00001 
-0.0361025 0.00573798 -1.00003 
-0.036242 0.00305051 -1.00004 
-0.0363216 0.000629364 -1.00004 
-0.0364202 -0.00184743 -1.00004 
-0.0364948 -0.00457546 -1.00004 
-0.03633 -0.00768163 -1.00004 
-0.0358063 -0.0114138 -1.00003 
-0.0352843 -0.0160183 -1.00001 
-0.03351 -0.0214817 -0.999981 
-0.0305545 -0.0286384 -0.999854 
-0.0346723 -0.0356342 -0.999553 
-0.030169 -0.0460459 -0.99917 
-0.0282573 -0.0593369 -0.998831 
-0.023016 -0.0778062 -0.997554 
-0.0223598 -0.098916 -0.995713 
-0.0143593 -0.128171 -0.991757 
0.0103864 -0.129098 0.991682 
0.0164243 -0.100155 0.995662 
0.017169 -0.0787895 0.997554 
0.023037 -0.0600926 0.998746 
0.0215649 -0.0477901 0.999422 
0.0243001 -0.0371009 0.999801 
0.027116 -0.0269868 1.00012 
0.0266594 -0.0199186 1.0002 
0.0266136 -0.0145806 1.00027 
0.0269329 -0.010309 1.00029 
0.0273285 -0.00678673 1.0003 
0.0275548 -0.0037531 1.0003 
0.0276822 -0.00104297 1.0003 
0.0277626 0.00145036 1.00029 
0.0277202 0.00403723 1.00028 
0.0275108 0.00699538 1.00027 
0.0272215 0.0103281 1.00025 
0.0268851 0.0140625 1.00021 
0.0264817 0.0184776 1.00016 
0.0260328 0.0239578 1.00006 
0.0255532 0.0308273 0.999888 
0.0249692 0.0393967 0.999611 
0.024208 0.050028 0.999166 
0.0233109 0.0631574 0.998455 
0.0222953 0.0793768 0.997335 
0.0210611 0.099512 0.995573 
0.0195612 0.124507 0.992809 
0.0178228 0.155432 0.988495 
0.0158721 0.193575 0.981794 
0.0137404 0.240391 0.971445 
0.0114593 0.297459 0.95556 
0.00906154 0.366364 0.931345 
0.0066196 0.448156 0.89486 
0.00425357 0.542585 0.84091 
0.00211114 0.647013 0.763355 
0.000351387 0.754895 0.656643 
-0.00102547 0.857499 0.515163 
-0.00198443 0.941004 0.338924 
-0.00254296 0.990829 0.135611 
-0.00281412 0.996884 -0.0795297 
-0.00299163 0.957946 -0.287432 
-0.00329242 0.88213 -0.471632 
-0.00388704 0.78309 -0.622665 
-0.00486214 0.675139 -0.738533 
-0.00623124 0.569524 -0.822857 
-0.00794449 0.472864 -0.882022 
-0.00987776 0.388026 -0.922514 
-0.0118968 0.31584 -0.949637 
-0.0139404 0.255741 -0.967517 
-0.0159177 0.206179 -0.979229 
-0.0177138 0.165676 -0.986839 
-0.0193234 0.132868 -0.991737 
-0.0207803 0.106348 -0.994878 
-0.0220284 0.0848894 -0.996896 
-0.022965 0.0675454 -0.998186 
-0.0240494 0.053727 -0.998977 
-0.0247436 0.0422638 -0.999507 
-0.0253818 0.0331019 -0.999823 
-0.0259389 0.0257908 -1.00002 
-0.0264655 0.0198673 -1.00013 
-0.0267623 0.015197 -1.00021 
-0.0271534 0.0113107 -1.00024 
-0.0274197 0.00785191 -1.00027 
-0.0275916 0.00477521 -1.00029 
-0.027684 0.00211427 -1.00029 
-0.0277433 -0.000342753 -1.0003 
-0.0278822 -0.00294562 -1.00029 
-0.0279432 -0.00582713 -1.00028 
-0.0277166 -0.00912008 -1.00027 
-0.0273098 -0.0130246 -1.00025 
-0.0264548 -0.0175848 -1.00021 
-0.0247288 -0.0230864 -1.00013 
-0.0235476 -0.0294824 -0.99983 
-0.0251302 -0.0381834 -0.999812 
-0.0222239 -0.0508303 -0.999254 
-0.019803 -0.0648808 -0.998499 
-0.0161291 -0.0828079 -0.997107 
-0.015854 -0.101578 -0.99553 
-0.0104139 -0.129009 -0.991711 
0.00756754 -0.129795 0.991613 
0.011916 -0.10132 0.99559 
0.0123668 -0.0803625 0.997481 
0.0167898 -0.0631068 0.998632 
0.0159855 -0.0510524 0.999179 
0.0169648 -0.0397232 0.999925 
0.0205605 -0.0313667 0.99989 
0.0204127 -0.0242147 1.00023 
0.0201257 -0.01827 1.00036 
0.0202408 -0.0133331 1.00042 
0.0205771 -0.00928345 1.00044 
0.0208714 -0.00587894 1.00045 
0.0209599 -0.00286172 1.00045 
0.0210078 -0.000181831 1.00045 
0.0210198 0.00237456 1.00044 
0.0208818 0.00518989 1.00043 
0.020627 0.00839089 1.00041 
0.0203535 0.011881 1.00038 
0.0200596 0.0157977 1.00034 
0.0197219 0.0205499 1.00026 
0.0193497 0.026528 1.00014 
0.0189471 0.0340341 0.999925 
0.0184312 0.0433868 0.999583 
0.0177691 0.0549776 0.999036 
0.0170161 0.0692714 0.998172 
0.0161529 0.0869283 0.99682 
0.015084 0.108852 0.994701 
0.0138039 0.136023 0.991391 
0.0123513 0.169561 0.98625 
0.010748 0.210821 0.978302 
0.00902235 0.2613 0.96608 
0.00720061 0.322574 0.947407 
0.0053111 0.396117 0.919095 
0.00342316 0.482599 0.87675 
0.00163918 0.580969 0.81482 
7.94447e-05 0.687248 0.727263 
-0.00114996 0.793316 0.609558 
-0.00205476 0.889754 0.45706 
-0.00259076 0.962472 0.271867 
-0.00278781 0.998024 0.0636526 
-0.00276384 0.988663 -0.150636 
-0.00269867 0.936247 -0.351879 
-0.00277363 0.851224 -0.525479 
-0.00311561 0.747911 -0.664591 
-0.00378204 0.639956 -0.769274 
-0.00477463 0.537157 -0.844375 
-0.00603787 0.444579 -0.896632 
-0.00746157 0.364123 -0.932224 
-0.00895933 0.296144 -0.955981 
-0.0105006 0.239766 -0.971625 
-0.0119796 0.193252 -0.981901 
-0.0133086 0.155251 -0.988586 
-0.0145272 0.124517 -0.992884 
-0.0156455 0.0996277 -0.995654 
-0.0165691 0.0794031 -0.997445 
-0.0171969 0.0630058 -0.998591 
-0.0182559 0.050164 -0.99927 
-0.0186759 0.0390012 -0.999762 
-0.0190775 0.0306106 -1.00004 
-0.0197182 0.023559 -1.00021 
-0.0199237 0.0181668 -1.00031 
-0.0201903 0.0138307 -1.00037 
-0.0205671 0.0101383 -1.0004 
-0.0207432 0.00670933 -1.00043 
-0.0208561 0.00366989 -1.00045 
-0.0209018 0.00105539 -1.00045 
-0.0210107 -0.00147255 -1.00045 
-0.0211551 -0.00420216 -1.00044 
-0.021221 -0.00725246 -1.00042 
-0.0209371 -0.0107628 -1.0004 
-0.0204227 -0.0149214 -1.00038 
-0.0194891 -0.020102 -1.00033 
-0.0179388 -0.026962 -1.00028 
-0.0192039 -0.0350179 -0.999746 
-0.0179422 -0.0446425 -0.999584 
-0.0154675 -0.0574699 -0.999018 
-0.0134915 -0.0730945 -0.998027 
-0.0112094 -0.100525 -0.995825 
-0.00755355 -0.129749 -0.991622 
0.00552291 -0.130357 0.991549 
0.00862884 -0.102239 0.995514 
0.0089765 -0.0808946 0.997461 
0.01219 -0.0639511 0.998634 
0.0122368 -0.0493114 0.99945 
0.0123641 -0.038235 0.999946 
0.0155426 -0.0304079 1.00016 
0.0152603 -0.0230888 1.00037 
0.0152424 -0.0171091 1.00046 
0.0154357 -0.0122828 1.00051 
0.0157604 -0.00836303 1.00053 
0.0159516 -0.00498534 1.00053 
0.0159108 -0.00200091 1.00054 
0.0159232 0.000648909 1.00053 
0.0158526 0.00333359 1.00052 
0.0156616 0.00639111 1.00051 
0.0154078 0.00975146 1.00049 
0.0151758 0.0133245 1.00045 
0.0149534 0.0174514 1.00039 
0.0146784 0.0225867 1.0003 
0.0143845 0.0290906 1.00014 
0.014051 0.0372399 0.999887 
0.0136082 0.0473771 0.999474 
0.0130572 0.0599009 0.99882 
0.0124426 0.0753159 0.997797 
0.0117146 0.0943664 0.996202 
0.0108045 0.118013 0.993708 
0.00973677 0.147212 0.989836 
0.00854762 0.183098 0.983863 
0.00725322 0.227042 0.974691 
0.0058784 0.280453 0.960709 
0.00444428 0.344744 0.93957 
0.00297855 0.42114 0.90789 
0.00154505 0.509772 0.861207 
0.000223074 0.609132 0.793941 
-0.000902279 0.714951 0.699984 
-0.00176792 0.819137 0.574309 
-0.00234937 0.91141 0.412082 
-0.00260392 0.976195 0.217376 
-0.0025732 1.00005 0.00286879 
-0.00238054 0.977397 -0.211902 
-0.00219228 0.913407 -0.407636 
-0.00215612 0.82086 -0.571851 
-0.00236236 0.714582 -0.700372 
-0.00284743 0.607521 -0.795179 
-0.0036004 0.507847 -0.862342 
-0.00455965 0.41914 -0.908813 
-0.00563349 0.342664 -0.940329 
-0.00677356 0.278507 -0.961272 
-0.007958 0.225449 -0.975056 
-0.00907252 0.181494 -0.984159 
-0.0100627 0.145643 -0.990069 
-0.0110038 0.116786 -0.993853 
-0.0118697 0.0932353 -0.996314 
-0.0125417 0.0738616 -0.997921 
-0.0129064 0.0580756 -0.999031 
-0.0141954 0.046177 -0.999399 
-0.0138574 0.0359153 -1.00004 
-0.0147158 0.0274588 -1.00019 
-0.0147978 0.0212246 -1.00034 
-0.0149993 0.0162939 -1.00042 
-0.0151865 0.0122898 -1.00048 
-0.0156124 0.00875342 -1.0005 
-0.0156686 0.00526355 -1.00053 
-0.0156544 0.00234214 -1.00054 
-0.0158146 -0.000292996 -1.00054 
-0.0158628 -0.00293761 -1.00052 
-0.0160068 -0.00577552 -1.00051 
-0.0160299 -0.00881024 -1.00038 
-0.0156589 -0.0123042 -1.00047 
-0.0152534 -0.0166636 -1.00043 
-0.0145192 -0.0222853 -1.00036 
-0.0132882 -0.0295198 -1.00017 
-0.0148092 -0.0366646 -0.999904 
-0.0129465 -0.0484472 -0.999517 
-0.0106694 -0.0633078 -0.998861 
-0.00983201 -0.0836768 -0.997247 
-0.00770727 -0.104781 -0.995118 
-0.00551642 -0.130295 -0.991553 
0.00414997 -0.130752 0.991501 
0.00626288 -0.102622 0.99548 
0.006462 -0.080758 0.997486 
0.00903194 -0.0633787 0.998706 
0.00896354 -0.0496911 0.999452 
0.00889729 -0.0390723 0.999904 
0.0114374 -0.028976 1.00036 
0.0113541 -0.0214929 1.00045 
0.0114055 -0.0157073 1.00053 
0.0116574 -0.0111109 1.00057 
0.0119835 -0.00730809 1.00057 
0.0120292 -0.004012 1.00058 
0.0119292 -0.00108872 1.00058 
0.0118876 0.00154243 1.00057 
0.0117889 0.0044455 1.00057 