# vtk DataFile Version 3.0 
Exported using Morpho https://github.com/Morpho-lang/morpho 
ASCII 
DATASET UNSTRUCTURED_GRID 

POINTS 1978 float 
-8.48554 -2.82871 -6.6469e-09 
-8.25276 -2.82902 -9.2438e-09 
-8.01974 -2.8286 -2.07181e-09 
-7.78762 -2.82922 -3.58277e-09 
-7.48579 -2.82907 -9.65353e-09 
-7.1784 -2.82925 -5.50814e-09 
-6.98036 -2.82881 -3.82726e-09 
-6.74572 -2.82935 -9.13538e-09 
-6.55877 -2.82894 -1.48867e-09 
-6.37114 -2.82862 -9.42734e-09 
-6.16771 -2.82906 -1.19655e-08 
-5.96563 -2.82884 -3.73993e-09 
-5.74882 -2.82898 -1.61113e-08 
-5.53972 -2.82897 -2.33768e-08 
-5.31619 -2.82898 -1.89817e-08 
-5.09922 -2.82899 -2.3224e-08 
-4.88731 -2.82891 -2.98e-08 
-4.67851 -2.8289 -5.2102e-08 
-4.46953 -2.82904 -6.01776e-08 
-4.26327 -2.82892 -8.06558e-08 
-4.05426 -2.82902 -1.08249e-07 
-3.84944 -2.82883 -7.89685e-08 
-3.64557 -2.82898 -1.1469e-07 
-3.4396 -2.82895 -9.22881e-08 
-3.23612 -2.82914 -5.56987e-08 
-3.02488 -2.8287 1.27299e-07 
-2.83324 -2.82896 4.18667e-07 
-2.6177 -2.82909 9.10085e-07 
-2.37006 -2.82866 2.9591e-06 
-2.23697 -2.82849 3.77749e-06 
-2.10338 -2.82863 8.8277e-06 
-1.91555 -2.82855 2.37508e-05 
-1.71275 -2.8283 5.72191e-05 
-1.51356 -2.8277 0.000130332 
-1.32593 -2.82712 0.000249878 
-1.13998 -2.8259 0.000427223 
-0.978221 -2.82431 0.000685889 
-0.739507 -2.81661 0.00177969 
-0.240743 -2.80778 0.00319417 
0.0774338 -2.80427 -0.00242345 
0.694659 -2.84015 -0.00940068 
0.713993 -2.80152 0.00675837 
0.885756 -2.82425 -0.000648611 
1.06883 -2.82649 -0.000535052 
1.25438 -2.82602 -0.000298775 
1.41797 -2.8272 -0.000169944 
1.60627 -2.82779 -0.000108004 
1.8535 -2.82838 -3.52325e-05 
2.03731 -2.82884 -1.4883e-05 
2.25907 -2.82867 -6.20773e-06 
2.47352 -2.82913 -2.16374e-06 
2.67816 -2.82833 -7.16741e-07 
2.86978 -2.8296 -6.92864e-07 
3.06037 -2.82851 3.40702e-07 
3.26936 -2.82869 -9.17068e-08 
3.4516 -2.82944 1.29727e-08 
3.63331 -2.82891 2.92865e-07 
3.83067 -2.82884 9.83686e-08 
4.0433 -2.82895 9.50029e-08 
4.25471 -2.82896 2.36011e-08 
4.46417 -2.82901 1.13264e-07 
4.6733 -2.82896 1.60984e-08 
4.88324 -2.82896 5.97378e-08 
5.09121 -2.82883 2.06053e-08 
5.29506 -2.82898 1.75301e-08 
5.50805 -2.829 1.88693e-08 
5.723 -2.82896 1.67434e-08 
5.93805 -2.82893 1.27344e-08 
6.16584 -2.82887 9.94501e-09 
6.38017 -2.82908 6.00297e-09 
6.60667 -2.82889 4.16834e-09 
6.82951 -2.82897 4.67132e-09 
7.03986 -2.82912 5.2823e-09 
7.30446 -2.82879 5.24512e-09 
7.53637 -2.82919 8.25182e-09 
7.76048 -2.82907 1.83859e-09 
8.03265 -2.82879 5.41887e-09 
8.22638 -2.82938 8.75133e-09 
8.48535 -2.82852 1.42132e-09 
-8.4859 -2.59846 9.77671e-09 
-8.24767 -2.59293 -2.66231e-09 
-8.01726 -2.5861 3.57939e-09 
-7.78916 -2.5924 -4.47635e-09 
-7.5576 -2.64762 5.62772e-09 
-7.25369 -2.65269 5.29783e-09 
-6.98944 -2.55685 2.40228e-09 
-6.78957 -2.60246 3.18394e-09 
-6.56879 -2.54527 6.63743e-09 
-6.33536 -2.60628 8.86098e-09 
-6.09076 -2.56997 -5.44409e-09 
-5.87579 -2.59013 1.01803e-08 
-5.66027 -2.58453 1.4628e-08 
-5.43943 -2.6039 1.81475e-08 
-5.21467 -2.59995 1.13971e-08 
-4.9964 -2.59655 6.10218e-09 
-4.78091 -2.59628 1.0053e-08 
-4.56486 -2.59955 2.26411e-08 
-4.35101 -2.59607 3.63561e-08 
-4.13716 -2.59802 3.7509e-08 
-3.92483 -2.59319 4.1225e-08 
-3.71385 -2.59283 3.61585e-08 
-3.50421 -2.59776 4.90164e-08 
-3.29252 -2.59562 5.63469e-08 
-3.08213 -2.60273 -1.06836e-07 
-2.86998 -2.5775 -5.20655e-08 
-2.67075 -2.60527 2.92661e-07 
-2.44581 -2.6322 -1.24485e-06 
-2.25913 -2.45498 -1.73305e-07 
-2.08393 -2.55898 9.15544e-07 
-1.89016 -2.57512 1.51097e-06 
-1.69695 -2.56765 5.30899e-07 
-1.51562 -2.54641 -8.83028e-05 
-1.33743 -2.53677 -0.00010674 
-1.18518 -2.48421 -0.000157782 
-0.960687 -2.58938 -0.000233572 
-0.762231 -2.54855 -0.000139326 
-0.544152 -2.69809 -0.000999629 
-0.290235 -2.60199 0.00100735 
0.00878159 -2.62743 0.000112543 
0.332872 -2.65384 -0.000989484 
0.580767 -2.72083 0.00192666 
0.882033 -2.53951 0.000178541 
1.05844 -2.28021 0.000331433 
1.06511 -2.55847 6.48691e-06 
1.23848 -2.51282 0.00012884 
1.433 -2.55839 6.69142e-05 
1.67592 -2.63002 2.81561e-05 
1.8767 -2.56135 8.17454e-06 
2.09691 -2.61262 3.65349e-06 
2.32834 -2.60713 1.27545e-06 
2.5439 -2.59574 -5.31222e-10 
2.7532 -2.58022 6.04763e-08 
2.97615 -2.60211 2.90483e-07 
3.19645 -2.59823 1.0012e-07 
3.404 -2.56598 -2.56044e-07 
3.60873 -2.5843 -5.47843e-08 
3.82893 -2.60087 -2.3661e-08 
4.0466 -2.59887 -1.27189e-07 
4.26396 -2.5976 9.25246e-08 
4.48082 -2.59811 -1.09569e-07 
4.69762 -2.59843 7.07412e-08 
4.91211 -2.59503 -2.05916e-08 
5.12337 -2.58867 -9.00232e-09 
5.33978 -2.59756 -1.11127e-08 
5.55937 -2.59693 -1.7026e-08 
5.77902 -2.59343 -1.05928e-08 
6.00774 -2.60342 -3.6995e-09 
6.23116 -2.58664 -4.77105e-09 
6.45649 -2.59791 1.3293e-09 
6.68535 -2.59139 -1.39913e-09 
6.90268 -2.57519 -5.5996e-09 
7.14277 -2.62579 -4.38717e-09 
7.38981 -2.59554 -7.1093e-09 
7.61586 -2.58781 -8.91628e-10 
7.86656 -2.62921 -1.32828e-09 
8.07478 -2.54827 -3.10937e-10 
8.30018 -2.61726 2.3211e-09 
8.48644 -2.53461 -6.1065e-09 
-8.48563 -2.36849 8.97331e-09 
-8.24931 -2.35845 -6.66468e-09 
-8.02425 -2.33925 5.88916e-10 
-7.80047 -2.35213 -1.66897e-10 
-7.57146 -2.25617 -1.55937e-09 
-7.51503 -2.47089 1.71873e-09 
-7.24686 -2.44674 -3.95094e-10 
-6.99927 -2.34196 3.50779e-09 
-6.74806 -2.34726 -1.15147e-09 
-6.48285 -2.34161 -7.25022e-09 
-6.26047 -2.37605 1.0066e-08 
-6.02625 -2.3339 -6.42809e-09 
-5.81321 -2.34768 -6.13999e-10 
-5.58606 -2.35984 1.49131e-10 
-5.36467 -2.37865 -1.44642e-09 
-5.14281 -2.36929 -5.62485e-10 
-4.92487 -2.36693 -6.72898e-11 
-4.70566 -2.37143 8.97743e-11 
-4.49113 -2.36931 2.30309e-10 
-4.27469 -2.3685 -9.09774e-10 
-4.06167 -2.36451 -4.68514e-09 
-3.84714 -2.36114 -7.16003e-09 
-3.63429 -2.36137 -1.53864e-08 
-3.42225 -2.36949 -2.98402e-08 
-3.20674 -2.3686 -2.91791e-08 
-2.99864 -2.36511 -1.19241e-07 
-2.77853 -2.34655 -2.97743e-07 
-2.56783 -2.39904 -1.2616e-07 
-2.39144 -2.32389 -2.48989e-06 
-2.00939 -2.32297 -1.23857e-05 
-1.79259 -2.32383 -2.25509e-05 
-1.58061 -2.30012 -4.82505e-05 
-1.36407 -2.24424 1.03954e-05 
-1.19397 -2.14406 1.25449e-05 
-1.01895 -2.33868 -6.63495e-05 
-0.797504 -2.28402 -8.01976e-05 
-0.57234 -2.42682 -1.66779e-05 
-0.360737 -2.39926 -0.00103151 
-0.248364 -2.30844 0.000311663 
0.0414379 -2.44325 -3.17866e-05 
0.292592 -2.41966 0.000183727 
0.542462 -2.48036 0.000303234 
0.760739 -2.43124 5.2781e-05 
0.803018 -2.22744 -0.000136337 
0.985004 -2.05366 0.000140338 
1.26456 -2.24033 5.38774e-05 
1.4507 -2.29631 3.42216e-05 
1.64458 -2.41277 3.68823e-05 
1.86827 -2.31017 6.44031e-06 
2.07451 -2.37679 1.36867e-06 
2.28727 -2.39577 1.6844e-06 
2.51924 -2.3661 6.9e-07 
2.7336 -2.3525 6.75574e-07 
2.94388 -2.36518 -4.69043e-07 
3.15628 -2.37608 -2.82271e-07 
3.37499 -2.33624 4.59866e-07 
3.58947 -2.34282 5.90072e-08 
3.79829 -2.37479 -2.68533e-08 
4.01881 -2.37091 1.09828e-07 
4.23283 -2.36657 -9.32464e-08 
4.44907 -2.36957 5.57898e-08 
4.66055 -2.36554 -6.20439e-08 
4.87267 -2.36498 -9.78529e-09 
5.08623 -2.35556 5.00955e-10 
5.30229 -2.36447 1.39397e-09 
5.51736 -2.36712 1.67552e-09 
5.73697 -2.36141 4.69334e-10 
5.9609 -2.37518 6.24487e-11 
6.18449 -2.35603 2.41001e-10 
6.41308 -2.35968 6.68393e-10 
6.63384 -2.36098 1.49498e-10 
6.859 -2.33086 3.26478e-10 
7.08799 -2.38715 7.26834e-10 
7.31284 -2.38692 -2.63441e-09 
7.55866 -2.34673 4.44444e-10 
7.79196 -2.39848 -3.25724e-09 
8.00554 -2.31993 -5.8368e-11 
8.25087 -2.35601 4.81474e-09 
8.48569 -2.30482 -7.77569e-09 
-8.48612 -2.14338 6.87997e-09 
-8.24525 -2.12771 -1.86003e-09 
-8.00858 -2.09551 1.62862e-09 
-7.78175 -2.10812 2.65026e-09 
-7.51713 -2.03865 1.05939e-09 
-7.32269 -2.24952 2.32585e-09 
-7.08773 -2.15667 -4.11217e-09 
-6.8146 -2.12734 5.92237e-09 
-6.57462 -2.13949 -3.83566e-09 
-6.32361 -2.12673 -1.06415e-10 
-6.11354 -2.12187 -1.31039e-10 
-5.88231 -2.09866 -9.26477e-11 
-5.66758 -2.12778 3.20933e-11 
-5.44404 -2.14192 -1.132e-09 
-5.23206 -2.14483 -1.0637e-09 
-5.01462 -2.1385 -1.10312e-09 
-4.79807 -2.14553 -6.9186e-10 
-4.58376 -2.14138 -1.69074e-09 
-4.36868 -2.14163 -4.68319e-09 
-4.15546 -2.13577 -5.7789e-09 
-3.93948 -2.13365 -1.27555e-08 
-3.72325 -2.13047 -1.78794e-08 
-3.5068 -2.13604 -4.46137e-08 
-3.29424 -2.14342 -5.69834e-08 
-3.07889 -2.13388 -1.03284e-07 
-2.86528 -2.13262 -2.19261e-07 
-2.62479 -2.1515 -3.54395e-07 
-2.44097 -2.07062 -1.03877e-06 
-2.21689 -2.19213 -5.14816e-07 
-1.97926 -2.09113 -4.83816e-06 
-1.76828 -2.08031 -1.12082e-05 
-1.55589 -2.05511 -2.18992e-05 
-1.39478 -1.94798 -6.25714e-05 
-1.2243 -1.86941 5.07419e-06 
-0.990901 -2.07286 -8.33901e-05 
-0.781887 -2.04221 0.000121223 
-0.560783 -2.17135 -0.000211369 
-0.470311 -1.97214 0.000482496 
-0.201297 -2.11967 0.000311113 
0.0559912 -2.21106 -0.000371121 
0.310332 -2.18809 -5.49492e-05 
0.506088 -1.96073 -0.000301657 
0.534528 -2.22464 -0.000122172 
0.703715 -2.02842 -0.000131372 
0.894321 -1.8502 -0.000219378 
1.23264 -2.02874 -4.67593e-05 
1.48529 -2.02212 3.41771e-05 
1.65828 -2.1576 1.36369e-05 
1.86548 -2.08313 1.49e-05 
2.09584 -2.13953 5.16218e-06 
2.32023 -2.17716 1.54863e-06 
2.53944 -2.13115 9.19903e-07 
2.74782 -2.11389 -2.44733e-07 
2.95969 -2.13104 5.63425e-07 
3.18102 -2.15378 2.86827e-07 
3.40937 -2.10623 -3.39905e-07 
3.62465 -2.11233 1.49502e-08 
3.84054 -2.15065 7.23851e-08 
4.05435 -2.13724 -8.30444e-08 
4.27188 -2.13796 7.97326e-08 
4.48303 -2.13508 -5.57972e-08 
4.69503 -2.13376 2.4258e-08 
4.90604 -2.13247 -1.27226e-09 
5.12435 -2.12858 1.11424e-09 
5.33639 -2.13111 1.26562e-09 
5.55192 -2.13527 3.90807e-10 
5.77668 -2.13532 2.5455e-11 
5.99457 -2.14064 1.07096e-10 
6.22415 -2.12785 -1.89253e-10 
6.44263 -2.11924 -1.09628e-10 
6.66311 -2.12181 1.19085e-10 
6.90315 -2.10701 -1.32199e-10 
7.12013 -2.14612 4.72629e-09 
7.35525 -2.16177 -5.56137e-10 
7.56139 -2.08491 4.05881e-09 
7.76616 -2.15825 -2.49984e-10 
7.98551 -2.08268 -1.23368e-09 
8.21698 -2.13225 5.27178e-09 
8.48567 -2.10397 -6.95846e-09 
-8.48601 -1.83707 1.22551e-08 
-8.31087 -1.90854 -8.62483e-09 
-7.90865 -1.86649 -6.57617e-10 
-7.68329 -1.8756 -1.77165e-09 
[...]
POINT_DATA 1978 
VECTORS vectors float
9.68488e-06 -4.83888e-05 1.00023 
-6.92505e-05 4.69832e-05 1.00024 
-0.000118235 0.000156813 1.00046 
-0.000158562 0.000273727 1.00035 
-0.000206956 0.000445939 1.00035 
-0.000246547 0.000649563 1.00034 
-0.00027513 0.000795826 1.00034 
-0.000309123 0.000982935 1.00033 
-0.000334423 0.00115219 1.00023 
-0.000370775 0.00133291 1.00044 
-0.000431843 0.0015896 1.00023 
-0.000505714 0.00187534 1.00033 
-0.000615051 0.0022524 1.00032 
-0.000751605 0.00271413 1.00032 
-0.000920776 0.00333864 1.00031 
-0.00114738 0.00409068 1.00031 
-0.00149871 0.00501107 1.0003 
-0.00205325 0.0062398 1.00029 
-0.00281475 0.0079726 1.00027 
-0.00375774 0.0102663 1.00025 
-0.00503866 0.0133676 1.00021 
-0.00662628 0.0175473 1.00013 
-0.00844655 0.0228146 1.00001 
-0.0105359 0.0293586 0.999816 
-0.0130191 0.0374098 0.999518 
-0.0163719 0.0480028 0.999017 
-0.0198476 0.0608865 0.998251 
-0.0243222 0.0780339 0.996955 
-0.0335733 0.10251 0.994468 
-0.039224 0.120019 0.992195 
-0.04563 0.141765 0.989131 
-0.0571437 0.179947 0.982283 
-0.0720495 0.230513 0.970632 
-0.0888185 0.297579 0.950755 
-0.105144 0.375185 0.921109 
-0.118804 0.471262 0.874088 
-0.12373 0.563176 0.817114 
-0.122822 0.711325 0.692742 
-0.0626769 0.962646 0.26452 
0.0309127 0.994107 -0.110358 
0.116173 0.748134 -0.653216 
0.10073 0.735705 -0.671547 
0.117498 0.625806 -0.771202 
0.11951 0.516751 -0.847737 
0.110147 0.415284 -0.90312 
0.0979729 0.337523 -0.936346 
0.0808078 0.264215 -0.961286 
0.0611906 0.194164 -0.979297 
0.0497068 0.15407 -0.987077 
0.038196 0.117909 -0.992574 
0.0297213 0.0910709 -0.995695 
0.0231279 0.0725668 -0.997398 
0.0192158 0.058463 -0.998309 
0.0154493 0.0455018 -0.999247 
0.0119067 0.0362687 -0.999579 
0.0104232 0.0290169 -0.999731 
0.00858808 0.0227454 -1.00001 
0.00659075 0.0178874 -1.00013 
0.00497051 0.0139683 -1.0002 
0.00382688 0.0107711 -1.00025 
0.00286813 0.00830586 -1.00027 
0.00209546 0.00646217 -1.00029 
0.00151555 0.00512888 -1.0003 
0.00114497 0.00420801 -1.0003 
0.000936468 0.00350593 -1.00031 
0.000791693 0.00290007 -1.00031 
0.000664844 0.00237202 -1.00032 
0.00054551 0.00194541 -1.00032 
0.000446318 0.00159825 -1.00033 
0.000374682 0.00133895 -1.00033 
0.000326403 0.00111371 -1.00034 
0.00029254 0.000917655 -1.00034 
0.000266112 0.000751593 -1.00034 
0.000235382 0.000560448 -1.00034 
0.000200216 0.000408967 -1.00034 
0.000166113 0.000278422 -1.00034 
0.000117877 0.000134836 -1.00035 
7.16917e-05 4.5252e-05 -1.00034 
-1.05669e-05 -5.38861e-05 -1.00023 
6.90457e-05 5.47078e-05 1.00024 
-2.03945e-05 0.000127058 1.00078 
-8.55723e-05 0.000218617 1.00069 
-0.00013809 0.000320655 1.00057 
-0.000186358 0.000431806 1.00068 
-0.000235658 0.000619147 1.00067 
-0.000274994 0.000813334 1.00077 
-0.000305064 0.00096408 1.00056 
-0.000343095 0.00116888 1.00076 
-0.000381029 0.00142049 1.00056 
-0.00044199 0.00175182 1.00075 
-0.000511808 0.00210601 1.00065 
-0.000606568 0.00254212 1.00064 
-0.000746308 0.00310954 1.00063 
-0.000926264 0.00387628 1.00062 
-0.00118969 0.0048726 1.00061 
-0.0015849 0.00618555 1.00059 
-0.00216342 0.00794363 1.00058 
-0.00292825 0.0103099 1.00055 
-0.0039502 0.0134822 1.00051 
-0.00520314 0.0176349 1.00044 
-0.0067319 0.0227239 1.00033 
-0.00860022 0.0290628 1.00014 
-0.0108015 0.0373763 0.999843 
-0.0131658 0.0481176 0.999356 
-0.0157071 0.0626315 0.998516 
-0.0199695 0.0779426 0.997357 
-0.0259908 0.0993906 0.995304 
-0.02581 0.128215 0.992091 
-0.0353165 0.154234 0.987994 
-0.0438029 0.195246 0.980313 
-0.0516429 0.247473 0.968072 
-0.056944 0.310597 0.949122 
-0.063222 0.383008 0.922047 
-0.0604616 0.454279 0.888917 
-0.0813303 0.576959 0.812619 
-0.0702762 0.69577 0.714095 
-0.079943 0.827614 0.552508 
-0.0409938 0.944228 0.3224 
0.00293623 0.997866 -0.022872 
0.0471911 0.926273 -0.368399 
0.0799055 0.809189 -0.579352 
0.0683057 0.625718 -0.776723 
0.02965 0.516404 -0.85583 
0.0734055 0.519831 -0.851189 
0.0621626 0.429908 -0.900977 
0.0609484 0.343456 -0.937666 
0.0558449 0.253254 -0.966286 
0.0429171 0.200223 -0.979362 
0.0372329 0.151573 -0.988316 
0.0288692 0.114719 -0.993568 
0.0225185 0.089496 -0.996335 
0.0178464 0.0710489 -0.997912 
0.014518 0.0549173 -0.998999 
0.011259 0.0421904 -0.999658 
0.00894183 0.0329914 -1.00012 
0.00747529 0.0256527 -1.00026 
0.00584971 0.0196514 -1.00041 
0.00438917 0.0152681 -1.00039 
0.00326477 0.0117573 -1.00064 
0.00240433 0.00908211 -1.00048 
0.00174612 0.00698097 -1.00068 
0.00127673 0.0054585 -1.0006 
0.000986496 0.00435878 -1.00061 
0.000814467 0.00351516 -1.00062 
0.000684569 0.00286573 -1.00063 
0.00057371 0.00234596 -1.00064 
0.000482686 0.0019093 -1.00064 
0.000412374 0.00157216 -1.00065 
0.000357614 0.00129135 -1.00066 
0.000316162 0.00106344 -1.00066 
0.00028359 0.000879773 -1.00067 
0.000249751 0.000693654 -1.00067 
0.000212284 0.00053233 -1.00068 
0.000171253 0.000399639 -1.00067 
0.000126049 0.000262006 -1.00057 
6.59662e-05 0.000189882 -1.00078 
7.11943e-06 8.86581e-05 -1.00056 
-7.72885e-05 7.35961e-05 -1.00034 
9.77691e-05 0.000161012 1.00046 
6.34921e-06 0.000208842 1.00068 
-6.10998e-05 0.000281074 1.00058 
-0.000120626 0.000363948 1.00079 
-0.000171668 0.000489949 1.00057 
-0.000187523 0.000485181 1.00068 
-0.00023596 0.000646449 1.00068 
-0.000278598 0.000825116 1.00058 
-0.000318755 0.00101902 1.00077 
-0.000365142 0.00127844 1.00067 
-0.00040285 0.00154408 1.00066 
-0.000442464 0.00190157 1.00065 
-0.0005034 0.0022943 1.00064 
-0.000599162 0.00281286 1.00064 
-0.000730577 0.00346144 1.00062 
-0.000907491 0.0043713 1.00061 
-0.00117026 0.00561514 1.0006 
-0.00155252 0.00727889 1.00058 
-0.00206647 0.00943012 1.00057 
-0.00278448 0.0122928 1.00053 
-0.00365808 0.0159793 1.00048 
-0.00472294 0.0205669 1.00039 
-0.00609528 0.02618 1.00025 
-0.00790183 0.0335336 1.00001 
-0.00991704 0.0434081 0.999615 
-0.011675 0.0555214 0.998996 
-0.0137513 0.0715915 0.997945 
-0.0182685 0.0903453 0.996354 
-0.0192093 0.110918 0.994253 
-0.025647 0.172722 0.98521 
-0.0296945 0.22426 0.97463 
-0.0321773 0.28654 0.957972 
-0.0307872 0.36535 0.930813 
-0.019352 0.439673 0.898142 
-0.0423502 0.536849 0.842652 
-0.0308464 0.662399 0.747894 
-0.0441136 0.804835 0.590472 
-0.0290268 0.911895 0.405315 
-0.0143548 0.954454 0.293258 
0.00296626 0.996567 -0.0537816 
0.0194127 0.940289 -0.335814 
0.0423886 0.823648 -0.563748 
0.0469656 0.694332 -0.717304 
0.018834 0.659988 -0.750594 
0.000436029 0.537543 -0.843089 
0.0266844 0.410808 -0.911634 
0.0322444 0.334916 -0.942116 
0.0383801 0.268396 -0.963014 
0.0271247 0.205441 -0.978858 
0.0275751 0.159422 -0.987309 
0.0235053 0.123513 -0.992662 
0.0175596 0.0953446 -0.9959 
0.0143509 0.0753085 -0.997767 
0.0123081 0.0593191 -0.998683 
0.00990693 0.0460354 -0.999604 
0.00754582 0.0358595 -0.999845 
0.0061726 0.0276817 -1.00021 
0.00513909 0.0216421 -1.00037 
0.00384106 0.0167829 -1.00057 
0.00284016 0.0131025 -1.00044 
0.00209631 0.0100976 -1.00066 
0.00154068 0.00787263 -1.00049 
0.00115273 0.00610397 -1.00059 
0.000909472 0.00478644 -1.00061 
0.000766335 0.00379456 -1.00062 
0.000650175 0.00306859 -1.00062 
0.00054658 0.00250592 -1.00063 
0.000472787 0.00205142 -1.00064 
0.000417724 0.00168597 -1.00065 
0.000373469 0.00137604 -1.00066 
0.000333802 0.00113521 -1.00066 
0.00029747 0.000937986 -1.00067 
0.000258223 0.00075882 -1.00067 
0.000219158 0.000608208 -1.00067 
0.000169923 0.000470179 -1.00078 
0.00012281 0.000343876 -1.00067 
6.31021e-05 0.000276245 -1.00067 
-8.46474e-06 0.000194064 -1.00067 
-9.93247e-05 0.000173078 -1.00034 
0.000102765 0.000258659 1.00034 
1.59778e-05 0.000287513 1.00057 
-5.45068e-05 0.000348163 1.00079 
-0.000115846 0.000422963 1.00078 
-0.00017958 0.000547849 1.00067 
-0.000221082 0.000626369 1.00067 
-0.000264333 0.00078001 1.00077 
-0.000311321 0.000981684 1.00067 
-0.000353418 0.00119809 1.00066 
-0.00038389 0.00148486 1.00065 
-0.000404919 0.00178404 1.00065 
-0.000431789 0.00219826 1.00064 
-0.000496841 0.00266283 1.00063 
-0.000594497 0.00328281 1.00062 
-0.000717184 0.00409165 1.00061 
-0.00089707 0.00525691 1.0006 
-0.00115723 0.00683019 1.00058 
-0.00148602 0.00887162 1.00057 
-0.00195388 0.0115234 1.00054 
-0.00257768 0.014981 1.0005 
-0.00334691 0.0193344 1.00042 
-0.00425926 0.0245115 1.00031 
-0.00559584 0.0310171 1.00012 
-0.00732907 0.0397809 0.999792 
-0.00874841 0.0515391 0.999245 
-0.00983352 0.0656794 0.998406 
-0.012213 0.0853947 0.996886 
-0.0122015 0.105175 0.994988 
-0.0175997 0.136727 0.991045 
-0.0158621 0.178255 0.984425 
-0.0155023 0.226 0.974542 
-0.0137654 0.286988 0.958333 
-0.00331597 0.33404 0.942982 
0.00902615 0.399454 0.916879 
-0.00657336 0.532971 0.846136 
0.00198362 0.650378 0.759036 
-0.0083808 0.797594 0.601721 
0.0175307 0.835348 0.545946 
0.000342463 0.965743 0.250956 
-0.000425758 0.995458 -0.0706032 
0.00214291 0.927547 -0.369147 
-0.026042 0.810769 -0.582855 
0.0118694 0.818624 -0.572416 
-0.0110888 0.698634 -0.714584 
-0.028405 0.560164 -0.827788 
0.00443889 0.411602 -0.911764 
0.00849845 0.309864 -0.951185 
0.0194771 0.261207 -0.965601 
0.0140025 0.202348 -0.979763 
0.016935 0.154865 -0.988477 
0.01551 0.119678 -0.993297 
0.011777 0.0941079 -0.996108 
0.0101078 0.0751515 -0.99774 
0.00919665 0.0590603 -0.998832 
0.00770237 0.045687 -0.999447 
0.00559541 0.0349594 -1.00009 
0.00467448 0.0274213 -1.00023 
0.00388385 0.0213838 -1.00038 
0.00282681 0.0167703 -1.00047 
0.00207196 0.013076 -1.00053 
0.00154876 0.0102106 -1.00056 
0.00114751 0.00789434 -1.00058 
0.000884152 0.00610397 -1.00059 
0.000736458 0.00474008 -1.0006 
0.000638623 0.00376949 -1.00061 
0.00054956 0.00303545 -1.00062 
0.000469418 0.00245884 -1.00063 
0.000421506 0.00202515 -1.00064 
0.000391678 0.00165904 -1.00065 
0.000364699 0.0013715 -1.00065 
0.000332476 0.00113136 -1.00066 
0.000291182 0.000921232 -1.00067 
0.000252761 0.000760662 -1.00067 
0.000208263 0.000612902 -1.00056 
0.000161558 0.000511022 -1.00067 
0.000115655 0.000404627 -1.00067 
5.51357e-05 0.000343099 -1.00057 
-9.38612e-06 0.000273806 -1.00077 
-0.000103649 0.000254129 -1.00034 
8.46668e-05 0.000370522 1.00034 
3.39245e-05 0.000346616 1.00066 
-7.85887e-05 0.00042807 1.00056 
-0.00013748 0.000499298 1.00067 
-0.000190953 0.000608922 1.00077 
-0.000226245 0.00067052 1.00057 
-0.000247561 0.000750287 1.00066 
-0.000280954 0.000868484 1.00066 
-0.000325564 0.00107413 1.00066 
-0.000357983 0.00130035 1.00065 
-0.000374339 0.00157214 1.00064 
-0.000378867 0.00190284 1.00064 
-0.000393451 0.00233633 1.00063 
-0.000449139 0.0028601 1.00062 
-0.000515914 0.00351997 1.00061 
-0.000613967 0.00444619 1.0006 
-0.000761692 0.00579656 1.00059 
-0.000961906 0.00755737 1.00058 
-0.00119089 0.00984508 1.00056 
-0.00152101 0.0127324 1.00053 
-0.00204532 0.0165018 1.00047 
-0.00264882 0.0209935 1.00039 
-0.00333618 0.0263695 1.00026 
-0.00441518 0.0333072 1.00005 
-0.0059768 0.0431158 0.999669 
-0.00691025 0.0556524 0.999045 
-0.00741487 0.0718243 0.99801 
-0.00682021 0.0873413 0.996775 
-0.00854346 0.119213 0.993444 
-0.00937751 0.148234 0.989511 
-0.00463514 0.193328 0.981687 
-0.000216622 0.24143 0.970877 
0.0124565 0.276757 0.961504 
0.0264629 0.348266 0.937374 
0.022204 0.495457 0.868409 
0.0361939 0.613148 0.788813 
0.0443633 0.697037 0.714946 
0.0673678 0.761109 0.643108 
0.0258695 0.938232 0.339664 
-0.00332558 0.99734 -0.0259607 
-0.0213814 0.937483 -0.341008 
-0.0607032 0.820671 -0.56537 
-0.0578378 0.665434 -0.743232 
-0.0642632 0.545088 -0.835757 
-0.0237918 0.44043 -0.897485 
-0.0401741 0.358081 -0.933203 
-0.0107843 0.344526 -0.939026 
-0.00414639 0.259947 -0.966137 
0.00313175 0.222268 -0.975538 
0.00700191 0.164213 -0.986993 
0.00887469 0.127697 -0.992381 
0.00749179 0.10152 -0.995424 
0.00613636 0.0793649 -0.997451 
0.00626475 0.0628279 -0.99863 
0.00599051 0.0492815 -0.999391 
0.00475763 0.0388177 -0.999856 
0.00367541 0.0297666 -1.00017 
0.00298006 0.0232122 -1.00034 
0.00214907 0.0183891 -1.00045 
0.00156801 0.0143584 -1.00051 
0.00116136 0.0111998 -1.00055 
0.000890906 0.00871071 -1.00057 
0.000709552 0.00672098 -1.00058 
0.000610392 0.0051919 -1.00059 
0.000530309 0.00406685 -1.00061 
0.000466992 0.00326258 -1.00062 
0.000416265 0.00264367 -1.00062 
0.000385346 0.00215604 -1.00063 
0.000374109 0.00178604 -1.00064 
0.00035666 0.00147116 -1.00065 
0.000332669 0.00121666 -1.00065 
0.000301703 0.00100485 -1.00066 
0.000259698 0.00081495 -1.00077 
0.000218953 0.000678016 -1.00066 
0.000164918 0.00055461 -1.00066 
0.000101798 0.000443836 -1.00067 
3.83749e-05 0.000384855 -1.00077 
-2.81223e-05 0.000332481 -1.00056 
-9.23371e-05 0.000352306 -1.00034 
4.60481e-05 0.000452179 1.00034 
9.15081e-06 0.000431113 1.00066 
-1.87918e-05 0.000388644 1.00067 
-8.08453e-05 0.000473754 1.00066 
-0.000136155 0.000533675 1.00056 
-0.000222141 0.000702437 1.00066 
-0.000273167 0.000866531 1.00065 
-0.00030303 0.00100248 1.00065 
-0.000337444 0.00123815 1.00065 
-0.00034947 0.0014637 1.00064 
-0.000346086 0.00177247 1.00064 
-0.000340874 0.0021496 1.00063 
-0.00036278 0.0026867 1.00062 
-0.000401958 0.00329356 1.00061 
-0.000453875 0.00411697 1.0006 
-0.000535023 0.00526446 1.00059 
-0.000641033 0.00688054 1.00058 
-0.000766163 0.00895705 1.00056 
-0.000898782 0.0116184 1.00053 
-0.00118897 0.0149435 1.00049 
-0.00162881 0.0190074 1.00043 
-0.00213099 0.02393 1.00032 
-0.002641 0.0297673 1.00017 
-0.00361591 0.0377281 0.999902 
-0.00466681 0.0485391 0.999434 
-0.00511373 0.0630311 0.998627 
-0.00379452 0.0765664 0.997683 
-0.00386108 0.101285 0.995477 
-0.00132787 0.125939 0.992657 
-0.000216007 0.157328 0.988149 
0.00880152 0.200591 0.980303 
0.0238761 0.246595 0.969294 
0.0427348 0.308363 0.950745 
0.0711438 0.375694 0.924374 
0.0459222 0.425889 0.903771 
0.0689814 0.521786 0.850193 
0.117674 0.573605 0.809918 
0.119749 0.754141 0.643559 
0.0531916 0.923379 0.372966 
0.000210938 0.99702 -0.00102234 
-0.0497107 0.943244 -0.321773 
-0.141694 0.765755 -0.624711 
-0.112926 0.698067 -0.706071 
-0.12457 0.546502 -0.827728 
-0.0622525 0.441995 -0.895171 
-0.066083 0.338858 -0.938772 
-0.0215745 0.288077 -0.957946 
-0.0197316 0.229605 -0.973617 
-0.00399956 0.197087 -0.980959 
-0.00058049 0.151247 -0.989102 
0.00172999 0.120837 -0.993294 
0.00281625 0.0959043 -0.996008 
0.00284475 0.0755016 -0.997775 
0.00386557 0.0597513 -0.998837 
0.00390276 0.047585 -0.999489 
0.00327313 0.0365349 -0.999954 
0.00244262 0.0278858 -1.00023 
0.00173958 0.022203 -1.00037 
0.00118265 0.0174021 -1.00046 
0.000871912 0.0136493 -1.00052 
0.000668597 0.0106479 -1.00055 
0.000553106 0.00823681 -1.00057 
0.00048663 0.00629886 -1.00058 
0.000442993 0.00489015 -1.0006 
0.000392103 0.00386699 -1.00061 
0.00036209 0.00310588 -1.00062 
0.000348271 0.00251273 -1.00062 
0.000343356 0.00205031 -1.00063 
0.000342278 0.00169934 -1.00064 
0.000327828 0.00141016 -1.00064 
0.000306935 0.00117968 -1.00065 
0.000279899 0.000967938 -1.00055 
0.000243421 0.000798819 -1.00065 
0.000203669 0.00066688 -1.00066 
0.00015393 0.000569865 -1.00066 
0.000104971 0.00048697 -1.00066 
5.23649e-05 0.000440759 -1.00066 
-5.9798e-06 0.000401938 -1.00066 
-6.91995e-05 0.000419776 -1.00033 
1.61411e-05 0.000493485 1.00033 
-2.13642e-05 0.000481588 1.00065 
-3.78474e-05 0.000453609 1.00067 
-0.000109019 0.000529318 1.00076 
-0.000173279 0.00060629 1.00066 
-0.000203932 0.000693914 1.00065 
-0.000247274 0.000812484 1.00055 
-0.0002755 0.000974138 1.00075 
-0.000306642 0.00113153 1.00055 
-0.000314489 0.00134079 1.00064 
-0.000313536 0.00159405 1.00063 
-0.000295636 0.00193382 1.00062 
-0.00028933 0.00239214 1.00062 
-0.000291669 0.00294344 1.00061 
-0.000312665 0.0036319 1.0006 
-0.000345411 0.00456609 1.00059 
-0.00038991 0.00586247 1.00058 
-0.000428789 0.00764616 1.00057 
-0.000459312 0.0098646 1.00055 
-0.000502024 0.0127538 1.00051 
-0.000681874 0.0162386 1.00047 
-0.00108313 0.0206853 1.00039 
-0.00145504 0.0256923 1.00028 
-0.00187497 0.0317962 1.00011 
-0.00240897 0.0399412 0.999823 
-0.00311983 0.0525865 0.999243 
-0.00242574 0.0636518 0.9986 
-0.00121058 0.0843551 0.997071 
0.00113689 0.104054 0.99521 
0.0052771 0.129143 0.992235 
0.00918727 0.160124 0.987662 
0.0215628 0.196855 0.980762 
0.0424627 0.241732 0.969946 
0.0683737 0.289711 0.955033 
0.102777 0.428799 0.897628 
0.153015 0.427312 0.890842 
0.19692 0.599578 0.7748 
0.277672 0.590574 0.756235 
0.137176 0.870982 0.465533 
0.0190831 0.993331 0.0821123 
-0.087665 0.935913 -0.330106 
-0.239294 0.71009 -0.659657 
-0.202544 0.506589 -0.837439 
-0.147381 0.385261 -0.910901 
-0.100421 0.423994 -0.900239 
-0.0954408 0.306759 -0.947416 
-0.0402685 0.277479 -0.960348 
-0.0347531 0.213612 -0.976886 
-0.0143482 0.184688 -0.983302 
-0.00748743 0.153159 -0.988785 
-0.00382014 0.119513 -0.993455 
-0.000994333 0.0975068 -0.995763 
0.000144653 0.0771083 -0.997661 
0.00174136 0.0610988 -0.998765 
0.00218762 0.0483586 -0.999463 
0.00220136 0.0382925 -0.999896 
0.00174126 0.029928 -1.00018 
0.000887511 0.0230019 -1.00036 
0.000521696 0.0182264 -1.00045 
0.000337315 0.0143072 -1.00051 
0.00029638 0.0112121 -1.00054 
0.000296178 0.00859091 -1.00056 
0.000306138 0.00659047 -1.00058 
0.000293849 0.00511078 -1.00059 
0.000270955 0.00406502 -1.0006 
0.000266527 0.00324111 -1.00061 
0.000279177 0.00261597 -1.00061 
0.000291333 0.00213418 -1.00062 
0.00029834 0.00174976 -1.00063 
0.000295238 0.00146237 -1.00064 
0.000280051 0.00121509 -1.00065 
0.000263197 0.00101332 -1.00075 
0.000233624 0.000835254 -1.00065 
0.000197394 0.000688338 -1.00065 
0.000147659 0.000584251 -1.00065 
9.58666e-05 0.000507979 -1.00065 
4.76811e-05 0.000474887 -1.00065 
2.62621e-06 0.000449109 -1.00066 
-3.85128e-05 0.000474817 -1.00033 
-8.75771e-06 0.00052123 1.00033 
-2.82253e-05 0.000508286 1.00065 
-6.25315e-05 0.000498478 1.00066 
-0.000100562 0.000545199 1.00065 
-0.000150218 0.000593886 1.00065 
-0.000190456 0.000698576 1.00064 
-0.000234014 0.000838276 1.00074 
-0.000255331 0.000998456 1.00054 
-0.00028136 0.00117141 1.00064 
-0.00027974 0.00138552 1.00064 
-0.000269361 0.00166241 1.00062 
-0.000247769 0.00206796 1.00061 
-0.000235917 0.00252958 1.0007 
-0.000223783 0.00312907 1.00051 
-0.000222827 0.0038708 1.00059 
-0.000228729 0.00487402 1.00059 
-0.00024142 0.00625681 1.00057 
-0.000223114 0.0081255 1.00056 
-0.000175499 0.0105697 1.00054 
-0.00011362 0.0135391 1.00051 
-0.000226313 0.0173252 1.00046 
-0.000503455 0.021779 1.00038 
-0.000917007 0.0273715 1.00025 
-0.00121473 0.0338725 1.00005 
-0.00136468 0.0433769 0.999694 
-0.00073473 0.0530534 0.999231 
-0.000443898 0.0696346 0.998218 
0.00145732 0.0854033 0.996994 
0.00475304 0.105316 0.995076 
0.0104895 0.129497 0.992157 
0.0176507 0.158743 0.987776 
0.0355626 0.194849 0.98076 
0.0667958 0.226812 0.972135 
0.12055 0.253323 0.960382 
0.105109 0.303772 0.947347 
0.192855 0.352408 0.915882 
0.28877 0.371532 0.881931 
0.448383 0.513257 0.733119 
0.301762 0.824225 0.480305 
0.0340057 0.996981 0.0580129 
-0.229295 0.903631 -0.362704 
-0.42281 0.620775 -0.661578 
-0.300552 0.451483 -0.839414 
-0.201298 0.312123 -0.928551 
-0.127774 0.258527 -0.958039 
-0.076138 0.22139 -0.972621 
-0.0626291 0.255751 -0.965166 
-0.0481909 0.202503 -0.978647 
-0.0204027 0.168161 -0.986146 
-0.0116157 0.135301 -0.991361 
-0.00655275 0.110283 -0.994522 
-0.00310147 0.0884656 -0.996819 
-0.00109158 0.0690014 -0.998362 
0.000372607 0.0552663 -0.999014 
0.000940492 0.043723 -0.999678 
0.00100429 0.0349653 -1.00002 
0.000602172 0.0275404 -1.00034 
3.29619e-05 0.0215492 -1.00029 
-0.000133004 0.0169726 -1.00047 
-0.000124491 0.0133439 -1.00061 
1.23244e-05 0.0103579 -1.00045 
0.000119928 0.0078916 -1.00066 
0.000174729 0.00610051 -1.00057 
0.000172352 0.00481687 -1.00059 
0.000172627 0.00383822 -1.0006 
0.000194108 0.00308243 -1.00061 
0.000222896 0.00250745 -1.00062 
0.000242038 0.0020394 -1.00062 
0.000249332 0.00167997 -1.00063 
0.000255652 0.00139239 -1.00063 
0.000246347 0.00115941 -1.00064 
0.000236091 0.000977783 -1.00054 
0.000212069 0.000825332 -1.00064 
0.000188679 0.000703631 -1.00065 
0.000143731 0.000603597 -1.00065 
9.6662e-05 0.000531177 -1.00065 
5.30973e-05 0.000502935 -1.00065 