# vtk DataFile Version 3.0 
Exported using Morpho https://github.com/Morpho-lang/morpho 
ASCII 
DATASET UNSTRUCTURED_GRID 

POINTS 1978 float 
-8.48528 -2.82843 8.01238e-15 
-8.25466 -2.82843 7.78757e-15 
-8.02296 -2.82843 3.29055e-15 
-7.78434 -2.82843 4.56952e-15 
-7.47518 -2.82843 9.17022e-15 
-7.21747 -2.82843 -2.9486e-15 
-6.9637 -2.82843 8.93777e-15 
-6.76768 -2.82843 1.403e-14 
-6.56266 -2.82843 1.50432e-15 
-6.37273 -2.82843 7.81856e-15 
-6.16059 -2.82843 1.19358e-14 
-5.95298 -2.82843 2.25208e-15 
-5.74398 -2.82843 1.37915e-14 
-5.53797 -2.82843 1.79761e-14 
-5.31578 -2.82843 4.74672e-15 
-5.09879 -2.82843 -7.88023e-15 
-4.88814 -2.82843 -3.89276e-14 
-4.679 -2.82843 -1.00984e-13 
-4.46968 -2.82843 -2.81242e-13 
-4.26173 -2.82843 -6.64704e-13 
-4.05519 -2.82843 -1.46542e-12 
-3.85081 -2.82843 -3.1278e-12 
-3.6496 -2.82843 -6.39328e-12 
-3.44372 -2.82843 -1.26669e-11 
-3.23699 -2.82843 -2.37488e-11 
-3.03792 -2.82843 -5.06875e-11 
-2.83074 -2.82843 -9.24615e-11 
-2.64009 -2.82843 -1.82327e-10 
-2.44358 -2.82843 -3.28921e-10 
-2.24924 -2.82843 -5.89786e-10 
-2.05189 -2.82843 -1.10059e-09 
-1.87185 -2.82843 -1.86358e-09 
-1.69967 -2.82843 -3.46457e-09 
-1.51761 -2.82843 -5.59504e-09 
-1.33566 -2.82843 -7.73033e-09 
-1.15841 -2.82843 -1.45745e-08 
-0.935635 -2.82843 -2.66702e-08 
-0.716189 -2.82843 -1.41124e-07 
-0.245861 -2.82843 -6.69257e-08 
0.10485 -2.82843 2.67984e-08 
0.478637 -2.82843 1.41613e-07 
0.758005 -2.82843 2.50953e-08 
0.9602 -2.82843 1.47845e-08 
1.10712 -2.82843 1.18116e-08 
1.26799 -2.82843 1.04636e-08 
1.43348 -2.82843 6.46286e-09 
1.63311 -2.82843 3.44217e-09 
1.82867 -2.82843 2.1426e-09 
2.0405 -2.82843 1.20443e-09 
2.2577 -2.82843 6.49142e-10 
2.47239 -2.82843 3.21885e-10 
2.66869 -2.82843 1.58917e-10 
2.86457 -2.82843 8.43006e-11 
3.06289 -2.82843 4.44904e-11 
3.26467 -2.82843 2.3491e-11 
3.44775 -2.82843 1.164e-11 
3.64458 -2.82843 5.94708e-12 
3.84836 -2.82843 3.10716e-12 
4.05148 -2.82843 1.4191e-12 
4.25534 -2.82843 7.21251e-13 
4.45907 -2.82843 1.93896e-13 
4.67356 -2.82843 1.33029e-13 
4.88305 -2.82843 3.91502e-15 
5.09161 -2.82843 9.06911e-15 
5.29696 -2.82843 -3.44084e-15 
5.50922 -2.82843 -1.224e-14 
5.7239 -2.82843 -1.37602e-14 
5.93923 -2.82843 -1.13675e-14 
6.16663 -2.82843 -9.64134e-15 
6.38085 -2.82843 -5.86309e-15 
6.60684 -2.82843 -4.22733e-15 
6.83034 -2.82843 -4.91903e-15 
7.0442 -2.82843 -5.49897e-15 
7.30101 -2.82843 -5.74844e-15 
7.53807 -2.82843 -8.95224e-15 
7.76094 -2.82843 -2.24214e-15 
8.03313 -2.82843 -5.88926e-15 
8.22521 -2.82843 -1.00289e-14 
8.48528 -2.82843 -1.99442e-15 
-8.48528 -2.59928 -1.17129e-14 
-8.25552 -2.59971 3.20814e-15 
-8.02446 -2.59451 -1.09538e-15 
-7.78633 -2.59959 -1.05267e-15 
-7.52851 -2.64798 1.69549e-15 
-7.22396 -2.6291 5.64654e-15 
-6.9869 -2.58746 -2.02894e-15 
-6.76295 -2.58361 -3.8304e-15 
-6.55473 -2.56951 3.06614e-16 
-6.33095 -2.59616 1.26789e-15 
-6.10712 -2.58639 5.74864e-16 
-5.88711 -2.58815 1.01224e-15 
-5.67109 -2.58387 1.94647e-15 
-5.44693 -2.60332 4.29357e-15 
-5.21903 -2.60076 9.64899e-15 
-4.99858 -2.59671 2.26746e-14 
-4.78143 -2.5969 5.20692e-14 
-4.56437 -2.59878 1.17765e-13 
-4.34881 -2.5981 2.67415e-13 
-4.1331 -2.5969 5.98796e-13 
-3.91822 -2.59462 1.27189e-12 
-3.70417 -2.59236 2.55282e-12 
-3.49021 -2.59839 4.95691e-12 
-3.2678 -2.59661 9.89926e-12 
-3.04607 -2.59627 2.43263e-11 
-2.82813 -2.59035 4.42477e-11 
-2.61398 -2.60219 9.94912e-11 
-2.38714 -2.6011 2.41682e-10 
-2.22084 -2.39999 6.49488e-10 
-2.15443 -2.60651 3.88985e-10 
-1.9415 -2.57776 1.10339e-09 
-1.73615 -2.55569 2.6009e-09 
-1.54433 -2.5694 5.44e-09 
-1.36059 -2.53223 9.45873e-09 
-1.19733 -2.48117 1.73194e-08 
-1.01908 -2.58654 1.85157e-08 
-0.79977 -2.57097 3.53534e-08 
-0.522062 -2.69892 6.0861e-08 
-0.280876 -2.57826 5.71552e-08 
-0.0198804 -2.64842 2.80025e-08 
0.289416 -2.65285 -4.70259e-08 
0.574673 -2.63249 -4.06656e-08 
0.830383 -2.61347 -1.09968e-08 
1.05505 -2.28516 -2.57767e-08 
1.04103 -2.53234 -1.98637e-08 
1.22738 -2.56679 -1.54624e-08 
1.42824 -2.56256 -6.24864e-09 
1.6348 -2.59032 -2.38863e-09 
1.85916 -2.58411 -9.97159e-10 
2.09807 -2.60706 -5.30123e-10 
2.33616 -2.60756 -2.39562e-10 
2.5557 -2.58693 -1.23636e-10 
2.76559 -2.58963 -6.36527e-11 
2.97732 -2.59476 -3.01017e-11 
3.1944 -2.60035 -1.54259e-11 
3.40558 -2.57327 -7.95232e-12 
3.60585 -2.5904 -3.75428e-12 
3.8203 -2.59838 -1.76288e-12 
4.03785 -2.59358 -8.34559e-13 
4.25346 -2.58981 -4.18059e-13 
4.47232 -2.59886 -1.4355e-13 
4.68999 -2.59602 -6.58771e-14 
4.90615 -2.59572 -2.98984e-14 
5.11983 -2.59075 -1.3523e-14 
5.33699 -2.59696 -6.13445e-15 
5.55675 -2.59653 -2.90253e-15 
5.77727 -2.59397 -1.6092e-15 
6.00611 -2.60376 -7.90798e-16 
6.22875 -2.58663 -4.44088e-16 
6.45361 -2.59689 -2.77017e-16 
6.6823 -2.59149 -1.71552e-16 
6.90073 -2.57826 -7.31112e-17 
7.14046 -2.61832 -6.79881e-17 
7.38845 -2.60018 -3.48641e-17 
7.6151 -2.58575 -4.5189e-18 
7.86552 -2.62816 -1.1249e-17 
8.0726 -2.54592 -5.61363e-18 
8.29928 -2.61862 5.34931e-17 
8.48528 -2.5351 7.33333e-15 
-8.48528 -2.36813 -1.03445e-14 
-8.24639 -2.3711 3.18322e-17 
-8.01111 -2.3513 2.87437e-17 
-7.78546 -2.37858 1.33206e-17 
-7.58624 -2.23029 2.41963e-17 
-7.52349 -2.45172 6.56945e-17 
-7.23926 -2.43223 2.231e-16 
-6.99246 -2.35393 2.28753e-16 
-6.73767 -2.33987 1.88453e-16 
-6.49147 -2.34931 3.89777e-16 
-6.26654 -2.36257 6.90324e-16 
-6.03845 -2.3505 1.18249e-15 
-5.82093 -2.34659 2.40836e-15 
-5.59247 -2.36078 4.81656e-15 
-5.36968 -2.3795 1.01013e-14 
-5.14729 -2.3712 2.25393e-14 
-4.92804 -2.36817 5.15626e-14 
-4.70919 -2.3711 1.1832e-13 
-4.49398 -2.37022 2.66883e-13 
-4.27965 -2.37007 5.88636e-13 
-4.06608 -2.36627 1.27526e-12 
-3.85361 -2.3627 2.69537e-12 
-3.64046 -2.36222 5.55471e-12 
-3.4271 -2.37185 1.0967e-11 
-3.20913 -2.36793 2.21535e-11 
-2.99192 -2.36765 4.5802e-11 
-2.7799 -2.36134 9.80365e-11 
-2.56661 -2.38959 1.85447e-10 
-2.40196 -2.30995 3.16671e-10 
-1.997 -2.34513 1.43524e-09 
-1.78042 -2.32053 2.90446e-09 
-1.5597 -2.30447 3.8315e-09 
-1.37858 -2.22541 7.4012e-09 
-1.17088 -2.20911 1.33272e-08 
-0.973247 -2.32405 3.28988e-08 
-0.760161 -2.28893 3.94837e-08 
-0.582433 -2.46789 4.59374e-08 
-0.402619 -2.32667 4.4112e-08 
-0.167146 -2.3674 6.70593e-08 
0.0591768 -2.44369 -3.91872e-08 
0.311315 -2.43642 -7.15469e-08 
0.58993 -2.42559 -4.1142e-08 
0.832236 -2.39288 -3.49771e-08 
0.803493 -2.18312 -2.85563e-08 
1.01946 -2.05123 -1.95441e-08 
1.25878 -2.31129 -1.25444e-08 
1.44459 -2.27704 -7.27835e-09 
1.62904 -2.35221 -4.17866e-09 
1.83951 -2.34901 -2.02291e-09 
2.06514 -2.38217 -1.03289e-09 
2.28919 -2.3921 -4.93013e-10 
2.51634 -2.35951 -2.41347e-10 
2.73439 -2.3516 -1.13236e-10 
2.94279 -2.36192 -5.60067e-11 
3.15756 -2.37511 -2.76246e-11 
3.37282 -2.34604 -1.40325e-11 
3.59151 -2.34522 -6.74712e-12 
3.79681 -2.36973 -3.19452e-12 
4.01403 -2.36654 -1.55644e-12 
4.23041 -2.36219 -7.19793e-13 
4.44738 -2.36903 -3.23205e-13 
4.66124 -2.3666 -1.48293e-13 
4.87582 -2.36515 -6.6237e-14 
5.08899 -2.35886 -2.99077e-14 
5.30497 -2.36458 -1.34568e-14 
5.51946 -2.36638 -6.42915e-15 
5.73817 -2.36293 -3.25406e-15 
5.96183 -2.3759 -1.68014e-15 
6.1848 -2.35599 -9.31794e-16 
6.41265 -2.35943 -5.22188e-16 
6.6341 -2.36086 -3.10388e-16 
6.86024 -2.3338 -2.33809e-16 
7.08644 -2.38254 -8.76034e-17 
7.31696 -2.38773 -5.91386e-17 
7.55785 -2.34684 -6.12899e-17 
7.79237 -2.39639 -3.12623e-17 
8.00493 -2.31634 4.14596e-17 
8.25014 -2.35916 -1.05086e-17 
8.48528 -2.30703 9.00452e-15 
-8.48528 -2.13631 -8.12314e-15 
-8.25213 -2.14174 6.34549e-17 
-8.03696 -2.09321 -3.80821e-18 
-7.81896 -2.12601 -8.31523e-17 
-7.51066 -2.03211 1.27776e-17 
-7.32735 -2.25068 3.17832e-17 
-7.08649 -2.1575 7.23719e-17 
-6.81144 -2.13084 1.83795e-16 
-6.56341 -2.12805 2.10767e-16 
-6.32562 -2.12424 4.1178e-16 
-6.1088 -2.12264 6.96041e-16 
-5.88712 -2.10558 1.19709e-15 
-5.66759 -2.12884 2.43694e-15 
-5.44315 -2.14342 5.09344e-15 
-5.23018 -2.14623 1.04173e-14 
-5.01163 -2.14081 2.17147e-14 
-4.79411 -2.1446 4.90645e-14 
-4.57921 -2.14236 1.07782e-13 
-4.36561 -2.14151 2.34771e-13 
-4.15394 -2.13899 4.9999e-13 
-3.94066 -2.13295 1.04781e-12 
-3.72788 -2.13167 2.20331e-12 
-3.51229 -2.13735 4.68203e-12 
-3.30148 -2.14105 9.48158e-12 
-3.08291 -2.1409 1.94153e-11 
-2.87027 -2.1311 3.6399e-11 
-2.64709 -2.145 6.93069e-11 
-2.4324 -2.08834 1.05665e-10 
-2.19299 -2.15983 3.49061e-10 
-1.9788 -2.10085 4.83583e-10 
-1.76376 -2.0829 6.0907e-10 
-1.56328 -2.04539 1.96141e-09 
-1.41149 -1.90527 5.07867e-10 
-1.23745 -1.96869 2.9186e-09 
-0.972222 -2.05751 7.05681e-09 
-0.764619 -2.02012 6.1864e-08 
-0.554086 -2.15904 5.95362e-08 
-0.448014 -1.97194 8.4117e-08 
-0.219576 -2.13488 7.86552e-08 
0.0628521 -2.19403 -3.38083e-08 
0.301366 -2.20273 -3.70682e-08 
0.487739 -1.9809 -5.57679e-08 
0.535377 -2.23076 -5.88866e-08 
0.710782 -2.00555 -4.42574e-08 
0.892081 -1.84948 -3.86796e-09 
1.24207 -2.04788 -2.90901e-09 
1.45803 -2.01549 -2.00225e-09 
1.65668 -2.09873 -1.43742e-09 
1.88849 -2.12857 -9.98311e-10 
2.10666 -2.1548 -5.11131e-10 
2.32505 -2.16313 -2.50663e-10 
2.54523 -2.12564 -9.80116e-11 
2.75324 -2.11189 -4.5733e-11 
2.96915 -2.13359 -2.46395e-11 
3.18331 -2.1432 -1.26772e-11 
3.40907 -2.12107 -5.49154e-12 
3.6235 -2.11047 -2.59365e-12 
3.83696 -2.1434 -1.51016e-12 
4.05346 -2.13778 -6.69136e-13 
4.27065 -2.13663 -3.12837e-13 
4.48159 -2.13656 -1.41297e-13 
4.69494 -2.13627 -6.17573e-14 
4.90689 -2.13234 -2.71626e-14 
5.12494 -2.13153 -1.26354e-14 
5.33736 -2.13108 -6.31259e-15 
5.55329 -2.13492 -3.36634e-15 
5.77731 -2.13715 -1.82624e-15 
5.99522 -2.14119 -1.03014e-15 
6.22489 -2.12793 -5.44551e-16 
6.44434 -2.12047 -2.60756e-16 
6.66599 -2.12294 -1.65989e-16 
6.89876 -2.10127 -8.73402e-17 
7.11962 -2.15079 -1.23758e-16 
7.35178 -2.1586 -3.27423e-17 
7.55802 -2.08621 8.98437e-18 
7.76383 -2.1566 -1.00626e-16 
7.98633 -2.08245 -2.419e-17 
8.21998 -2.13499 4.02095e-17 
8.48528 -2.10347 8.417e-15 
-8.48528 -1.83345 -1.38407e-14 
-8.305 -1.90446 -1.89749e-16 
-7.89837 -1.86382 3.58823e-17 
-7.67831 -1.90021 -1.03036e-17 
[...]
POINT_DATA 1978 
VECTORS vectors float
2.25938e-06 2.40033e-05 1 
-4.84514e-06 0.000117862 1 
-5.11498e-06 0.000210408 1 
-4.0777e-06 0.000312073 1 
-5.1346e-06 0.000469938 1 
-9.86918e-06 0.000643073 1 
-1.58747e-05 0.000789089 1 
-2.08873e-05 0.000960753 1 
-2.16847e-05 0.00114224 0.999999 
-2.62066e-05 0.00134362 0.999999 
-3.15761e-05 0.00160281 0.999999 
-3.70397e-05 0.00191759 0.999998 
-4.42689e-05 0.00231393 0.999997 
-5.71678e-05 0.00280675 0.999996 
-7.42376e-05 0.00348467 0.999994 
-9.55738e-05 0.00434648 0.999991 
-0.000125333 0.00545738 0.999985 
-0.000166769 0.00692385 0.999976 
-0.000221645 0.00887157 0.999961 
-0.000290311 0.0114267 0.999935 
-0.000372779 0.0147534 0.999891 
-0.000467709 0.0189427 0.99982 
-0.000591428 0.0241863 0.999707 
-0.000738843 0.0308982 0.999522 
-0.000949794 0.039341 0.999225 
-0.00109473 0.0500028 0.998749 
-0.001531 0.0629769 0.998014 
-0.00171809 0.0804266 0.996759 
-0.00197183 0.100975 0.994887 
-0.00269374 0.1267 0.991937 
-0.0031651 0.157985 0.987436 
-0.00380449 0.196932 0.98041 
-0.00473879 0.247063 0.968988 
-0.00602593 0.312677 0.94984 
-0.00657628 0.390323 0.920655 
-0.00794542 0.473162 0.880939 
-0.00677817 0.591656 0.806161 
-0.00214576 0.719126 0.694872 
0.00198821 0.961842 0.273594 
-0.000176313 0.990243 -0.139345 
0.00237538 0.849395 -0.527749 
0.00571116 0.685388 -0.728153 
0.00585112 0.591912 -0.805981 
0.00525659 0.514357 -0.857561 
0.00607039 0.42885 -0.903355 
0.00614181 0.347342 -0.937718 
0.00591861 0.2759 -0.961168 
0.00501156 0.207218 -0.978282 
0.00328481 0.162145 -0.986761 
0.002845 0.125439 -0.992097 
0.00222287 0.0967744 -0.995304 
0.00161183 0.0767475 -0.997049 
0.00135744 0.0611818 -0.998126 
0.00113151 0.0487013 -0.998813 
0.000866979 0.0381817 -0.99927 
0.000674621 0.0307269 -0.999528 
0.000579291 0.0244276 -0.999701 
0.000461301 0.0191268 -0.999817 
0.000354354 0.0150105 -0.999887 
0.000288903 0.011751 -0.999931 
0.000226308 0.00912368 -0.999958 
0.000166133 0.00711294 -0.999975 
0.000126686 0.00561105 -0.999984 
9.59929e-05 0.00447798 -0.99999 
7.43798e-05 0.00363246 -0.999993 
5.93612e-05 0.00295654 -0.999996 
4.72314e-05 0.00241888 -0.999997 
3.9296e-05 0.0019884 -0.999998 
3.21246e-05 0.00162418 -0.999999 
2.65981e-05 0.00134713 -0.999999 
2.30361e-05 0.00110719 -0.999999 
1.84126e-05 0.000909147 -1 
1.61302e-05 0.00074468 -1 
1.36666e-05 0.000569888 -1 
1.03017e-05 0.0004308 -1 
9.27953e-06 0.000316109 -1 
6.62329e-06 0.000192676 -1 
3.97863e-06 0.00011642 -1 
-1.33773e-06 1.77358e-05 -1 
7.54885e-05 9.21862e-05 1 
1.67383e-05 0.000160333 1 
-1.99882e-05 0.000240995 1 
-4.85919e-05 0.000334287 1 
-5.87821e-05 0.000446986 1 
-8.35971e-05 0.000618203 1 
-0.000127416 0.000792194 1 
-0.000139136 0.000962668 1 
-0.000164409 0.00115408 0.999999 
-0.000171552 0.0014012 0.999999 
-0.000200702 0.00170114 0.999999 
-0.000230146 0.00207156 0.999998 
-0.000277491 0.00253586 0.999997 
-0.000323038 0.00314651 0.999995 
-0.000418285 0.00397107 0.999992 
-0.000551226 0.00503549 0.999987 
-0.000723039 0.00643347 0.999979 
-0.000947887 0.00829289 0.999965 
-0.00124925 0.0107345 0.999942 
-0.00163651 0.0139185 0.999902 
-0.00212994 0.0180155 0.999835 
-0.00272791 0.0232572 0.999726 
-0.00334288 0.02991 0.999547 
-0.00413713 0.0385742 0.999247 
-0.00520878 0.0498788 0.998742 
-0.00621193 0.0644467 0.997902 
-0.00749638 0.0837556 0.996458 
-0.00896329 0.109445 0.993952 
-0.0148339 0.133934 0.990879 
-0.0109286 0.144178 0.989491 
-0.0138593 0.187329 0.982199 
-0.0170926 0.243669 0.969708 
-0.0185538 0.309043 0.950867 
-0.0207215 0.383993 0.923103 
-0.0220753 0.454231 0.89061 
-0.0187167 0.546676 0.837135 
-0.0183293 0.670818 0.741395 
-0.0120516 0.83922 0.543659 
-0.00949478 0.945141 0.326525 
-0.000897511 0.999661 0.0259704 
0.00692739 0.943923 -0.330094 
0.0109644 0.803202 -0.595606 
0.013491 0.659801 -0.751318 
0.0153121 0.521801 -0.85293 
0.0180271 0.540477 -0.841165 
0.0177788 0.442275 -0.896703 
0.0172641 0.34643 -0.937917 
0.0152334 0.267093 -0.96355 
0.0136756 0.202704 -0.979145 
0.011044 0.153432 -0.988098 
0.00923023 0.115995 -0.993207 
0.00821011 0.0898854 -0.995918 
0.00677802 0.0704895 -0.99749 
0.00549474 0.0551409 -0.998464 
0.00439233 0.0427247 -0.999077 
0.00385148 0.0334465 -0.999433 
0.00294251 0.0263239 -0.999649 
0.00225175 0.0203684 -0.99979 
0.00176628 0.0157256 -0.999875 
0.00136929 0.0121384 -0.999925 
0.00101307 0.00935796 -0.999956 
0.000775749 0.00727093 -0.999973 
0.000593083 0.00568422 -0.999984 
0.000466721 0.00450405 -0.99999 
0.000360767 0.00358886 -0.999994 
0.000293225 0.00288478 -0.999996 
0.000247978 0.00233883 -0.999997 
0.000204853 0.00189382 -0.999998 
0.000188447 0.00155467 -0.999999 
0.000159812 0.00127593 -0.999999 
0.000143054 0.0010444 -1 
0.000130656 0.000859337 -1 
9.62882e-05 0.000682649 -1 
8.33374e-05 0.00052778 -1 
6.58353e-05 0.000406754 -1 
3.40709e-05 0.000285669 -1 
1.37184e-05 0.000218828 -1 
-2.26852e-05 0.000129487 -1 
-8.3384e-05 0.000102435 -1 
9.7274e-05 0.000179217 1 
2.06104e-05 0.000227651 1 
-3.66106e-05 0.000295171 1 
-7.85411e-05 0.000369139 1 
-0.000128887 0.000475559 1 
-0.000107794 0.00047368 1 
-0.000143634 0.000627203 1 
-0.000199067 0.000799267 1 
-0.000231567 0.00100036 1 
-0.000261291 0.00123681 0.999999 
-0.000288854 0.00150635 0.999999 
-0.000331589 0.00184797 0.999998 
-0.000381708 0.00225863 0.999997 
-0.0004497 0.00281064 0.999996 
-0.000544802 0.00351759 0.999994 
-0.00069759 0.00446831 0.99999 
-0.0009046 0.00571559 0.999983 
-0.0011852 0.00737057 0.999972 
-0.00156026 0.00952776 0.999953 
-0.00204841 0.0123086 0.999922 
-0.00268022 0.0158686 0.999871 
-0.00346745 0.0203978 0.999786 
-0.00440138 0.026197 0.999647 
-0.0054112 0.0334723 0.999425 
-0.00661598 0.0427757 0.999063 
-0.00808954 0.055045 0.998451 
-0.00967685 0.0700595 0.997496 
-0.0114361 0.0895414 0.995917 
-0.0133501 0.108709 0.993984 
-0.0171665 0.175197 0.984384 
-0.0191067 0.227579 0.973572 
-0.0202664 0.297139 0.954619 
-0.0173163 0.360263 0.93269 
-0.0144243 0.451386 0.892212 
-0.0182223 0.559253 0.828796 
-0.0139482 0.682353 0.73089 
-0.017064 0.799348 0.600625 
-0.00887726 0.892576 0.450809 
-0.00470491 0.982264 0.187443 
0.00111144 0.996941 -0.0781316 
0.00701375 0.930222 -0.366928 
0.0120435 0.795057 -0.606414 
0.0160496 0.658429 -0.752471 
0.00500886 0.656623 -0.754202 
-0.00234498 0.518916 -0.854822 
0.0187232 0.414857 -0.909694 
0.0186047 0.331301 -0.943342 
0.0196782 0.26929 -0.962858 
0.0182475 0.209966 -0.977538 
0.0160803 0.162204 -0.986626 
0.0137201 0.124696 -0.9921 
0.0118136 0.0958328 -0.995327 
0.00998518 0.0746038 -0.997163 
0.00829613 0.0587331 -0.998239 
0.00676964 0.0458514 -0.998925 
0.0056276 0.0358608 -0.999341 
0.0044798 0.0278043 -0.999603 
0.00350259 0.0217457 -0.999757 
0.0027173 0.0168454 -0.999854 
0.00208638 0.0130797 -0.999912 
0.00157181 0.0101349 -0.999947 
0.00119785 0.00790822 -0.999968 
0.000917808 0.00618015 -0.999981 
0.000718131 0.0048713 -0.999988 
0.000568794 0.00385313 -0.999992 
0.000468234 0.0030856 -0.999995 
0.000398533 0.00248831 -0.999997 
0.000339919 0.00201308 -0.999998 
0.000304757 0.00164772 -0.999999 
0.000268413 0.00134733 -0.999999 
0.000238736 0.00110934 -0.999999 
0.000216606 0.000909076 -1 
0.000176977 0.000737856 -1 
0.000145304 0.000589118 -1 
0.000116001 0.000463089 -1 
7.20403e-05 0.00035126 -1 
3.64939e-05 0.000290359 -1 
-2.36839e-05 0.000214832 -1 
-9.9934e-05 0.000187862 -1 
9.74768e-05 0.000261037 1 
2.06485e-05 0.000293967 1 
-3.78616e-05 0.00034717 1 
-8.77603e-05 0.00040213 1 
-0.000153611 0.000534786 1 
-0.000168815 0.000599433 1 
-0.000218805 0.00075353 1 
-0.000259338 0.00095533 1 
-0.000292305 0.00118011 0.999999 
-0.000324734 0.00145175 0.999999 
-0.000358241 0.0017604 0.999998 
-0.000401736 0.00216088 0.999998 
-0.000461641 0.00266543 0.999996 
-0.000551954 0.00334914 0.999994 
-0.00067513 0.00421412 0.999991 
-0.000850371 0.00539667 0.999985 
-0.0010964 0.00695682 0.999975 
-0.00142819 0.008994 0.999959 
-0.0018668 0.0115985 0.999931 
-0.00242992 0.0148694 0.999887 
-0.00315592 0.019062 0.999813 
-0.00405448 0.0244044 0.999694 
-0.00510383 0.0312835 0.999498 
-0.00620635 0.0396951 0.999193 
-0.00746615 0.0506423 0.998689 
-0.00877133 0.0644691 0.997881 
-0.0103011 0.0829037 0.996504 
-0.0113177 0.105414 0.994364 
-0.0138899 0.138326 0.990289 
-0.0136053 0.176474 0.984211 
-0.0131232 0.226159 0.974002 
-0.0104562 0.284102 0.958737 
0.00182034 0.328285 0.944577 
0.00240483 0.403502 0.914975 
0.000399297 0.541303 0.840828 
0.00951367 0.658443 0.75257 
-0.00114563 0.800025 0.599966 
0.018526 0.849529 0.527216 
0.00209323 0.96194 0.273251 
-0.00299089 0.996793 -0.0799686 
-0.00284585 0.932465 -0.361247 
-0.0240553 0.826166 -0.562913 
0.0026599 0.816337 -0.57757 
-0.01615 0.691309 -0.722379 
-0.0296981 0.563072 -0.825874 
0.00351358 0.406509 -0.91364 
0.0055858 0.316457 -0.94859 
0.0125845 0.25491 -0.966883 
0.0140985 0.196869 -0.980329 
0.0136637 0.154131 -0.987956 
0.0123935 0.119777 -0.992724 
0.0105921 0.0929636 -0.995613 
0.00908548 0.0734846 -0.997255 
0.00779431 0.057704 -0.998303 
0.00656778 0.0453709 -0.998949 
0.00532032 0.0351629 -0.999367 
0.00424559 0.0274856 -0.999613 
0.00338526 0.021395 -0.999765 
0.00261195 0.0166713 -0.999858 
0.00199003 0.0129881 -0.999914 
0.0015119 0.0101793 -0.999947 
0.00115031 0.00793961 -0.999968 
0.000890877 0.00621478 -0.99998 
0.000702681 0.00484989 -0.999988 
0.000575597 0.0038393 -0.999993 
0.000488378 0.00305974 -0.999995 
0.00042499 0.0024478 -0.999997 
0.000376832 0.00199099 -0.999998 
0.000337169 0.0016173 -0.999999 
0.000305059 0.00133397 -0.999999 
0.000275036 0.0011006 -0.999999 
0.000245558 0.000901216 -1 
0.000207817 0.000734254 -1 
0.000170864 0.000594218 -1 
0.000137161 0.000498772 -1 
9.38242e-05 0.000403966 -1 
4.66396e-05 0.000348507 -1 
-1.60155e-05 0.000284774 -1 
-0.000100971 0.000258093 -1 
7.89566e-05 0.000356118 1 
3.11629e-05 0.000352474 1 
-7.42133e-05 0.000426597 1 
-0.000121711 0.000487956 1 
-0.000167035 0.000594783 1 
-0.000195044 0.000648236 1 
-0.0002138 0.000726613 1 
-0.000243983 0.000838023 1 
-0.000278283 0.00103945 0.999999 
-0.000305495 0.00127235 0.999999 
-0.000327281 0.00154407 0.999999 
-0.000353387 0.00187587 0.999998 
-0.000387324 0.0023246 0.999997 
-0.000444506 0.00289392 0.999996 
-0.000516947 0.00362642 0.999993 
-0.000626268 0.00460344 0.999989 
-0.000775672 0.00593346 0.999982 
-0.000982854 0.00764925 0.99997 
-0.00126537 0.00988366 0.99995 
-0.00163454 0.0126823 0.999918 
-0.00212802 0.0162049 0.999866 
-0.00275861 0.0207043 0.999782 
-0.00358274 0.026545 0.999641 
-0.00442249 0.0337658 0.99942 
-0.0053433 0.0429622 0.999062 
-0.00611011 0.05432 0.998505 
-0.00715747 0.0702076 0.997507 
-0.00733275 0.087367 0.996149 
-0.00833683 0.117599 0.993026 
-0.0079655 0.146853 0.989126 
-0.00444569 0.189445 0.981881 
0.000319478 0.237973 0.971272 
0.0133662 0.27705 0.960763 
0.0268674 0.352198 0.93554 
0.0208855 0.464463 0.885346 
0.0381036 0.567129 0.822747 
0.0407627 0.713591 0.699375 
0.071234 0.77074 0.633155 
0.026624 0.934151 0.355884 
-0.000984165 0.999809 0.0195132 
-0.0215165 0.947266 -0.319724 
-0.0603772 0.8286 -0.556575 
-0.0519987 0.679147 -0.732158 
-0.0745515 0.544477 -0.835456 
-0.0239079 0.441132 -0.897124 
-0.038911 0.349342 -0.936187 
-0.0141689 0.351445 -0.936101 
-0.00548462 0.26346 -0.964655 
0.00458677 0.214275 -0.976763 
0.00678113 0.163959 -0.986444 
0.00791365 0.129034 -0.991609 
0.00750206 0.101159 -0.994842 
0.00638882 0.0784565 -0.996897 
0.00605992 0.062282 -0.99804 
0.005401 0.0491838 -0.998775 
0.00461827 0.0387263 -0.999239 
0.00360817 0.0299102 -0.999546 
0.00289257 0.023083 -0.999729 
0.00226957 0.0181894 -0.999832 
0.00171574 0.0142193 -0.999897 
0.00128234 0.0111295 -0.999937 
0.00098627 0.00870583 -0.999962 
0.000770551 0.00680721 -0.999977 
0.000625687 0.00531259 -0.999986 
0.000516907 0.00416774 -0.999991 
0.00045101 0.0033095 -0.999994 
0.000405421 0.00265014 -0.999996 
0.000366628 0.00213855 -0.999998 
0.000337115 0.00174816 -0.999998 
0.000308353 0.00143096 -0.999999 
0.000284107 0.00118187 -0.999999 
0.000257829 0.000980234 -1 
0.000223019 0.000792702 -1 
0.000188158 0.000655647 -1 
0.000144111 0.000540232 -1 
9.22701e-05 0.000439858 -1 
3.53247e-05 0.000383389 -1 
-2.80095e-05 0.000336968 -1 
-8.83888e-05 0.000339669 -1 
4.54219e-05 0.000423938 1 
9.91208e-06 0.000420288 1 
-2.19263e-05 0.000389426 1 
-7.75124e-05 0.000466197 1 
-0.000122886 0.000523254 1 
-0.000187226 0.000675901 1 
-0.000234254 0.00083766 1 
-0.000260265 0.000970801 1 
-0.000284145 0.00119747 0.999999 
-0.000297133 0.00144201 0.999999 
-0.000309999 0.00175765 0.999998 
-0.000328998 0.00214879 0.999998 
-0.000359152 0.00270371 0.999996 
-0.000398554 0.00337102 0.999994 
-0.000461954 0.00426632 0.999991 
-0.000550794 0.00544297 0.999985 
-0.000666243 0.00701904 0.999975 
-0.000833352 0.00901735 0.999959 
-0.00105647 0.0115618 0.999933 
-0.00136714 0.0147285 0.999891 
-0.00177577 0.0186454 0.999825 
-0.00234691 0.0237972 0.999714 
-0.0029389 0.0301659 0.999541 
-0.00355782 0.0382891 0.99926 
-0.00395987 0.0480961 0.998835 
-0.00447141 0.0617259 0.998083 
-0.00386289 0.0763226 0.997076 
-0.00428722 0.0998435 0.994994 
-0.00208856 0.125133 0.992138 
0.000292593 0.158565 0.987348 
0.00871754 0.202746 0.979193 
0.0244897 0.244904 0.969238 
0.0419725 0.308031 0.95045 
0.0683897 0.383544 0.920987 
0.047883 0.436282 0.898535 
0.0765894 0.556071 0.827598 
0.117559 0.581352 0.805115 
0.128846 0.753993 0.644122 
0.056025 0.928438 0.367238 
-0.00347611 0.999861 -0.0162634 
-0.0557751 0.936961 -0.344952 
-0.141275 0.7685 -0.624058 
-0.101609 0.675665 -0.730173 
-0.13881 0.538432 -0.831158 
-0.0557331 0.446217 -0.893188 
-0.0705561 0.34984 -0.934148 
-0.0204956 0.279447 -0.959942 
-0.021738 0.230306 -0.972875 
-0.0060435 0.199723 -0.979834 
-0.00066247 0.159163 -0.987252 
0.00205097 0.123134 -0.992388 
0.00328443 0.0960728 -0.995369 
0.00328246 0.0746861 -0.997202 
0.003564 0.0591418 -0.998243 
0.00347122 0.0469657 -0.998891 
0.00312179 0.0367186 -0.999321 
0.00244533 0.028045 -0.999604 
0.00190989 0.0220712 -0.999755 
0.00147983 0.0173533 -0.999848 
0.00109132 0.0136068 -0.999907 
0.000808676 0.0106205 -0.999943 
0.000636323 0.0083114 -0.999965 
0.000521331 0.00645427 -0.999979 
0.000445805 0.00505449 -0.999987 
0.000388101 0.00396532 -0.999992 
0.000356507 0.00314645 -0.999995 
0.000334352 0.00252746 -0.999997 
0.000313156 0.00204847 -0.999998 
0.000297654 0.0016767 -0.999999 
0.000279041 0.00137392 -0.999999 
0.000261329 0.00114049 -0.999999 
0.000238165 0.000931678 -1 
0.000207308 0.000775635 -1 
0.000174131 0.000647468 -1 
0.000134242 0.000557747 -1 
9.71178e-05 0.000479783 -1 
5.12222e-05 0.000435816 -1 
-5.94295e-06 0.000397681 -1 
-6.69728e-05 0.000395976 -1 
1.76261e-05 0.000458343 1 
-1.98077e-05 0.000463523 1 
-3.74244e-05 0.000442172 1 
-9.62229e-05 0.00051466 1 
-0.000146291 0.000587321 1 
-0.000171887 0.000679056 1 
-0.000210267 0.000787585 1 
-0.000233709 0.000936482 1 
-0.000258144 0.00109012 0.999999 
-0.000263794 0.00130965 0.999999 
-0.000268796 0.00157963 0.999999 
-0.000273067 0.00193438 0.999998 
-0.000287122 0.00239588 0.999997 
-0.000295692 0.00298182 0.999996 
-0.000321158 0.00374676 0.999993 
-0.000359892 0.00475115 0.999989 
-0.000413848 0.00606025 0.999982 
-0.000480326 0.00777454 0.99997 
-0.000589259 0.00991978 0.999951 
-0.000749455 0.0126538 0.99992 
-0.000971824 0.0159705 0.999872 
-0.00131633 0.020231 0.999795 
-0.0016906 0.0254496 0.999675 
-0.00211473 0.0322298 0.999478 
-0.00237331 0.0402501 0.999187 
-0.00254451 0.0513134 0.998679 
-0.00202574 0.062606 0.998036 
-0.00124105 0.0827631 0.996569 
0.000434283 0.102282 0.994755 
0.0041332 0.128928 0.991645 
0.00920893 0.162829 0.986611 
0.0216821 0.196168 0.980331 
0.0441734 0.244094 0.968745 
0.0702499 0.293357 0.953418 
0.101712 0.405769 0.908299 
0.148083 0.421222 0.894787 
0.196407 0.556339 0.80741 
0.272784 0.628119 0.728735 
0.14726 0.867093 0.475882 
0.0203724 0.995864 0.0885398 
-0.0948242 0.943359 -0.317934 
-0.237247 0.716114 -0.656425 
-0.200963 0.520304 -0.829998 
-0.145895 0.363032 -0.920284 
-0.103893 0.427365 -0.89809 
-0.0957512 0.300115 -0.949085 
-0.0432246 0.278577 -0.959441 
-0.0336269 0.213512 -0.976362 
-0.0146914 0.18073 -0.983423 
-0.00724938 0.148235 -0.988926 
-0.00288165 0.118103 -0.992997 
-0.000313386 0.0943185 -0.995542 
0.000511732 0.0753334 -0.997158 
0.0015286 0.0594789 -0.998228 
0.00191215 0.0475284 -0.998868 
0.00197906 0.0377262 -0.999286 
0.00169492 0.029618 -0.99956 
0.0012084 0.0229191 -0.999737 
0.000919775 0.0180796 -0.999836 
0.000661446 0.0142419 -0.999898 
0.000484373 0.0111386 -0.999938 
0.000379457 0.00866286 -0.999962 
0.000339519 0.00677389 -0.999977 
0.000306066 0.00527338 -0.999986 
0.000286522 0.00416013 -0.999991 
0.00027502 0.00328101 -0.999995 
0.000269201 0.00262834 -0.999997 
0.000262932 0.00213227 -0.999998 
0.000258102 0.00173595 -0.999999 
0.00025039 0.00142986 -0.999999 
0.000237645 0.00117492 -0.999999 
0.000225814 0.000974679 -1 
0.000197765 0.00080841 -1 
0.000167729 0.000676039 -1 
0.000128034 0.000578372 -1 
8.84779e-05 0.000501691 -1 
4.6074e-05 0.000462475 -1 
2.02592e-06 0.000436167 -1 
-3.66886e-05 0.000438674 -1 
-7.07641e-06 0.000478676 1 
-3.01532e-05 0.000485361 1 
-5.95137e-05 0.000482382 1 
-9.22031e-05 0.000536077 1 
-0.000129385 0.00058377 1 
-0.000156675 0.000681618 1 
-0.000195762 0.000806316 1 
-0.000213456 0.000958933 1 
-0.000232611 0.0011401 0.999999 
-0.000229878 0.00137135 0.999999 
-0.000229758 0.00166848 0.999999 
-0.000227749 0.00207109 0.999998 
-0.000226447 0.00254279 0.999997 
-0.000223086 0.003187 0.999995 
-0.000230427 0.0040142 0.999992 
-0.000243627 0.00509721 0.999987 
-0.000262647 0.0064957 0.999979 
-0.000286692 0.00830999 0.999965 
-0.000352786 0.0106172 0.999944 
-0.000454429 0.0134804 0.999909 
-0.000646991 0.0171608 0.999853 
-0.000872682 0.0215125 0.999768 
-0.00115399 0.0272278 0.999629 
-0.00132983 0.0340417 0.99942 
-0.00145263 0.0432835 0.999062 
-0.000980662 0.0526192 0.998614 
-0.000219175 0.0684417 0.997655 
0.00195283 0.0843551 0.996434 
0.00493342 0.105261 0.994432 
0.0107481 0.132889 0.991073 
0.0193667 0.159714 0.986973 
0.0373845 0.19714 0.979662 
0.0647875 0.225456 0.972097 
0.133398 0.267202 0.954363 
0.103788 0.295176 0.949789 
0.199789 0.352941 0.914066 
0.289599 0.377155 0.879708 
0.440828 0.519684 0.731847 
0.295071 0.827532 0.477623 
0.0359596 0.997162 0.0661443 
-0.225685 0.901091 -0.370271 
-0.416064 0.61852 -0.666576 
-0.301433 0.459003 -0.835736 
-0.206844 0.326202 -0.922392 
-0.126858 0.250619 -0.959738 
-0.0823231 0.221173 -0.971754 
-0.0610402 0.25423 -0.965216 
-0.050675 0.200448 -0.978393 
-0.0219628 0.168265 -0.985497 
-0.012422 0.13616 -0.990609 
-0.00669393 0.111591 -0.993732 
-0.00313973 0.0892476 -0.996005 
-0.000871861 0.0691685 -0.997605 
0.000253945 0.0552307 -0.998474 
0.000862915 0.0439586 -0.999033 
0.00102108 0.0349641 -0.999388 
0.000868322 0.0274893 -0.999622 
0.000539554 0.021468 -0.999769 
0.000367278 0.0169869 -0.999856 
0.000237973 0.0133138 -0.999911 
0.000180331 0.0104354 -0.999946 
0.000159256 0.00809497 -0.999967 
0.000173934 0.0063405 -0.99998 
0.000178976 0.00498788 -0.999988 
0.0001915 0.00392428 -0.999992 
0.000196702 0.00312036 -0.999995 
0.000202883 0.00251976 -0.999997 
0.00020971 0.00204236 -0.999998 
0.000212171 0.00167513 -0.999999 
0.000212387 0.00137351 -0.999999 
0.000205764 0.00112616 -0.999999 
0.000198208 0.000945208 -1 
0.000175135 0.000800624 -1 
0.000155066 0.000687669 -1 
0.000120358 0.000595669 -1 
8.62153e-05 0.000523393 -1 
4.99252e-05 0.000486856 -1 
1.36854e-05 0.000468222 -1 
-4.80601e-06 0.000467847 -1 
-2.1467e-05 0.000485008 1 
-3.60172e-05 0.000500762 1 
-5.9242e-05 0.000502779 1 
-8.40985e-05 0.000548804 1 
-0.000121388 0.000602489 1 
-0.000138641 0.000691379 1 
-0.00017251 0.00079752 1 
-0.000185991 0.00094967 1 
-0.000199794 0.00114723 0.999999 
-0.000192511 0.00138887 0.999999 
-0.000189895 0.00171474 0.999999 
-0.000177277 0.0020942 0.999998 
-0.000169337 0.00259326 0.999997 