# vtk DataFile Version 3.0 
Exported using Morpho https://github.com/Morpho-lang/morpho 
ASCII 
DATASET UNSTRUCTURED_GRID 

POINTS 1978 float 
-8.48528 -2.82843 -4.57178e-19 
-8.25466 -2.82843 -4.43318e-19 
-8.02296 -2.82843 -1.86788e-19 
-7.78434 -2.82843 -2.56986e-19 
-7.47519 -2.82843 -5.11852e-19 
-7.21744 -2.82843 1.86261e-19 
-6.96376 -2.82843 -4.83812e-19 
-6.76765 -2.82843 -7.60649e-19 
-6.56266 -2.82843 -3.06471e-20 
-6.37272 -2.82843 -3.55922e-19 
-6.16059 -2.82843 -5.29042e-19 
-5.95298 -2.82843 1.28008e-19 
-5.74398 -2.82843 -3.31263e-19 
-5.53797 -2.82843 -1.24753e-19 
-5.31578 -2.82843 1.58479e-18 
-5.09879 -2.82843 4.22583e-18 
-4.88814 -2.82843 1.01767e-17 
-4.679 -2.82843 2.30659e-17 
-4.46968 -2.82843 5.37542e-17 
-4.26173 -2.82843 1.18927e-16 
-4.05519 -2.82843 2.52925e-16 
-3.85081 -2.82843 5.20437e-16 
-3.6496 -2.82843 1.05633e-15 
-3.44372 -2.82843 2.10242e-15 
-3.23699 -2.82843 3.95064e-15 
-3.0379 -2.82843 7.96369e-15 
-2.83075 -2.82843 1.49326e-14 
-2.64008 -2.82843 2.92333e-14 
-2.44357 -2.82843 5.40328e-14 
-2.24924 -2.82843 9.50383e-14 
-2.05187 -2.82843 1.73921e-13 
-1.87184 -2.82843 2.90257e-13 
-1.69965 -2.82843 5.39145e-13 
-1.51756 -2.82843 8.88727e-13 
-1.33561 -2.82843 1.29198e-12 
-1.15845 -2.82843 2.38394e-12 
-0.935714 -2.82843 4.31359e-12 
-0.716223 -2.82843 2.19906e-11 
-0.245869 -2.82843 8.5039e-12 
0.104856 -2.82843 -6.34947e-12 
0.478694 -2.82843 -1.81046e-11 
0.758025 -2.82843 -5.81785e-12 
0.960199 -2.82843 -2.29776e-12 
1.10713 -2.82843 -1.77128e-12 
1.268 -2.82843 -1.61042e-12 
1.43349 -2.82843 -8.95487e-13 
1.63309 -2.82843 -5.76527e-13 
1.82866 -2.82843 -3.65475e-13 
2.04048 -2.82843 -2.0327e-13 
2.25769 -2.82843 -1.08583e-13 
2.47239 -2.82843 -5.30816e-14 
2.66869 -2.82843 -2.57678e-14 
2.86457 -2.82843 -1.36549e-14 
3.06289 -2.82843 -7.28697e-15 
3.26467 -2.82843 -3.78132e-15 
3.44776 -2.82843 -1.87684e-15 
3.64458 -2.82843 -1.00065e-15 
3.84836 -2.82843 -5.17319e-16 
4.05148 -2.82843 -2.45815e-16 
4.25533 -2.82843 -1.22774e-16 
4.45908 -2.82843 -4.57061e-17 
4.67355 -2.82843 -2.43551e-17 
4.88305 -2.82843 -7.86719e-18 
5.09161 -2.82843 -4.09743e-18 
5.29696 -2.82843 -1.60084e-18 
5.50922 -2.82843 -2.69525e-19 
5.7239 -2.82843 2.54033e-19 
5.93923 -2.82843 3.41211e-19 
6.16663 -2.82843 3.74137e-19 
6.38086 -2.82843 2.32499e-19 
6.60684 -2.82843 1.78176e-19 
6.83034 -2.82843 2.43273e-19 
7.0442 -2.82843 2.88948e-19 
7.30101 -2.82843 3.12568e-19 
7.53807 -2.82843 5.03167e-19 
7.76094 -2.82843 1.24717e-19 
8.03313 -2.82843 3.34695e-19 
8.22521 -2.82843 5.71832e-19 
8.48528 -2.82843 1.14095e-19 
-8.48528 -2.59928 6.66269e-19 
-8.25616 -2.59781 -1.83618e-19 
-8.02134 -2.59859 6.07035e-20 
-7.77835 -2.60065 5.84027e-20 
-7.53193 -2.64904 -9.99367e-20 
-7.25002 -2.61724 -3.29338e-19 
-6.98297 -2.60574 1.05329e-19 
-6.75153 -2.57324 2.02765e-19 
-6.53833 -2.5734 -3.99668e-20 
-6.3198 -2.59621 -1.11512e-19 
-6.10093 -2.58773 -1.04213e-19 
-5.88343 -2.58745 -1.86207e-19 
-5.66892 -2.58329 -3.70309e-19 
-5.44537 -2.60381 -8.01388e-19 
-5.21779 -2.60093 -1.77422e-18 
-4.99654 -2.59698 -4.05672e-18 
-4.77824 -2.59753 -6.29156e-18 
-4.55963 -2.59915 -1.42346e-17 
-4.34188 -2.59912 -3.20637e-17 
-4.12431 -2.59722 -7.05255e-17 
-3.90803 -2.59589 -1.48166e-16 
-3.69284 -2.59268 -3.01336e-16 
-3.47797 -2.59992 8.9892e-16 
-3.2559 -2.59937 1.85182e-15 
-3.03383 -2.58736 3.68113e-15 
-2.82068 -2.58843 8.11823e-15 
-2.60633 -2.59717 1.68094e-14 
-2.39213 -2.58955 4.05069e-14 
-2.18899 -2.39862 4.78002e-14 
-2.17056 -2.6161 9.28637e-14 
-1.96027 -2.5782 1.51031e-13 
-1.76448 -2.55922 3.71484e-13 
-1.5777 -2.56696 7.74269e-13 
-1.38431 -2.52356 1.32727e-12 
-1.20314 -2.4969 2.42302e-12 
-1.02192 -2.57644 2.81616e-12 
-0.802226 -2.57309 4.53233e-12 
-0.521404 -2.70378 7.03613e-12 
-0.303611 -2.57714 5.0326e-12 
-0.0494624 -2.65062 2.43942e-12 
0.300923 -2.66451 -6.19773e-12 
0.605883 -2.62221 -5.59349e-12 
0.863101 -2.61274 -2.44929e-12 
1.04786 -2.27933 -2.57755e-12 
1.07059 -2.52927 -2.56844e-12 
1.24445 -2.56151 -2.06253e-12 
1.43201 -2.54037 -8.26204e-13 
1.61851 -2.59209 -5.04739e-13 
1.84643 -2.58535 -2.20276e-13 
2.08303 -2.60729 -1.09967e-13 
2.32346 -2.60684 -4.15272e-14 
2.54295 -2.58548 -2.81666e-14 
2.75635 -2.59035 -1.06216e-14 
2.97145 -2.59482 -5.17451e-15 
3.18972 -2.59962 -2.58802e-15 
3.40142 -2.57587 -1.23815e-15 
3.60349 -2.5916 -6.06522e-16 
3.81816 -2.59738 2.01823e-16 
4.03666 -2.59451 9.67331e-17 
4.251 -2.59516 4.89085e-17 
4.46631 -2.59141 1.77255e-17 
4.6847 -2.59624 8.33999e-18 
4.90132 -2.59564 5.42704e-18 
5.11648 -2.59182 2.42573e-18 
5.33398 -2.59668 1.12373e-18 
5.55367 -2.59656 5.4425e-19 
5.77465 -2.59457 2.91044e-19 
6.00351 -2.60381 1.52843e-19 
6.22622 -2.5872 8.48854e-20 
6.45152 -2.59685 5.00402e-20 
6.67994 -2.59142 2.99751e-20 
6.89907 -2.5787 1.70852e-20 
7.13938 -2.6179 1.21697e-20 
7.38805 -2.60104 7.04086e-21 
7.61462 -2.58481 3.04319e-21 
7.86503 -2.62776 1.97998e-21 
8.07195 -2.54587 1.48233e-21 
8.29895 -2.61889 -2.88867e-21 
8.48528 -2.5351 -4.16437e-19 
-8.48528 -2.36813 5.88038e-19 
-8.2422 -2.37178 -1.92409e-21 
-8.00658 -2.35542 -2.23845e-21 
-7.78272 -2.38716 -2.59106e-21 
-7.58849 -2.22901 -3.65759e-21 
-7.50865 -2.44303 -8.15236e-21 
-7.2184 -2.41881 -1.89406e-20 
-6.97926 -2.36988 -2.43348e-20 
-6.73806 -2.34588 -3.02189e-20 
-6.49967 -2.34923 -5.63295e-20 
-6.27599 -2.36334 -9.72367e-20 
-6.04958 -2.35216 -1.71451e-19 
-5.83052 -2.34591 -3.38906e-19 
-5.60056 -2.36088 -6.77671e-19 
-5.37698 -2.38002 -1.42005e-18 
-5.15367 -2.37228 -3.16652e-18 
-4.93385 -2.36892 -4.29613e-18 
-4.71485 -2.37186 -9.83934e-18 
-4.49856 -2.37184 -2.21632e-17 
-4.28366 -2.37163 -4.89552e-17 
-4.06905 -2.368 -1.06053e-16 
-3.85708 -2.36448 -2.23074e-16 
-3.64372 -2.36269 5.52548e-16 
-3.42948 -2.37537 1.08788e-15 
-3.21524 -2.37031 2.17773e-15 
-3.00078 -2.35616 4.54098e-15 
-2.78805 -2.35955 9.76479e-15 
-2.57204 -2.37267 1.85956e-14 
-2.37601 -2.33073 3.68324e-14 
-1.99853 -2.33648 1.58363e-13 
-1.79135 -2.31814 2.83993e-13 
-1.57846 -2.30264 3.57311e-13 
-1.38694 -2.23179 9.12817e-13 
-1.14783 -2.26874 1.39254e-12 
-0.922892 -2.31555 3.05262e-12 
-0.718653 -2.27742 4.1772e-12 
-0.582721 -2.4718 4.71316e-12 
-0.396583 -2.3302 4.93922e-12 
-0.142251 -2.38233 6.48165e-12 
0.101058 -2.47591 -3.93702e-12 
0.361688 -2.45308 -6.93229e-12 
0.619669 -2.40619 -3.50078e-12 
0.850061 -2.39095 -3.40408e-12 
0.803303 -2.17298 -2.69047e-12 
1.01115 -2.04686 -2.19867e-12 
1.24634 -2.29097 -1.25633e-12 
1.43867 -2.27518 -7.94381e-13 
1.63471 -2.3306 -3.68549e-13 
1.83666 -2.36155 -2.6211e-13 
2.05994 -2.38535 -1.03384e-13 
2.28981 -2.39283 -5.63374e-14 
2.52097 -2.35278 -1.79369e-14 
2.736 -2.35293 -1.11923e-14 
2.94493 -2.36321 -5.60345e-15 
3.16011 -2.37347 -2.76785e-15 
3.37455 -2.34808 -1.40984e-15 
3.59117 -2.34833 -6.80044e-16 
3.79671 -2.36813 2.67508e-16 
4.01282 -2.36767 1.30703e-16 
4.22969 -2.36516 5.95273e-17 
4.44388 -2.36189 2.70263e-17 
4.65933 -2.36794 1.23592e-17 
4.87555 -2.36504 5.50132e-18 
5.08944 -2.3609 4.18397e-18 
5.30567 -2.36445 1.88333e-18 
5.52042 -2.36634 9.00151e-19 
5.73928 -2.36403 4.55469e-19 
5.96285 -2.37605 2.35097e-19 
6.18586 -2.35631 1.30395e-19 
6.41303 -2.36029 7.29842e-20 
6.63484 -2.36 4.2693e-20 
6.86052 -2.33509 2.93143e-20 
7.08705 -2.38301 1.43246e-20 
7.31841 -2.38832 9.20409e-21 
7.55846 -2.34534 7.45603e-21 
7.79215 -2.39514 3.70647e-21 
8.00427 -2.31581 -1.61221e-21 
8.2491 -2.35844 6.17244e-22 
8.48528 -2.30704 -5.11679e-19 
-8.48528 -2.13631 4.61712e-19 
-8.25112 -2.14299 -3.23991e-21 
-8.03485 -2.10045 3.4142e-22 
-7.81303 -2.12953 3.80446e-21 
-7.50028 -2.0267 -2.49202e-21 
-7.32791 -2.2391 -6.69378e-21 
-7.0731 -2.16358 -1.17787e-20 
-6.81424 -2.13405 -2.20629e-20 
-6.57109 -2.13173 -3.16151e-20 
-6.33106 -2.12649 -5.7428e-20 
-6.11275 -2.12307 -9.80957e-20 
-5.89011 -2.10744 -1.67149e-19 
-5.66825 -2.13076 -3.40675e-19 
-5.44308 -2.1446 -7.13034e-19 
-5.22943 -2.14737 -1.45822e-18 
-5.01098 -2.14175 -3.03829e-18 
-4.7938 -2.14474 -6.86225e-18 
-4.57891 -2.14382 -8.94983e-18 
-4.36542 -2.14261 -1.94607e-17 
-4.1535 -2.14121 -4.14826e-17 
-3.94045 -2.1339 -8.70585e-17 
-3.72877 -2.13275 -1.83635e-16 
-3.51227 -2.14021 -3.8668e-16 
-3.30029 -2.14371 9.757e-16 
-3.08319 -2.13367 2.00273e-15 
-2.86148 -2.12984 3.75395e-15 
-2.63728 -2.14344 8.29228e-15 
-2.43225 -2.09886 1.074e-14 
-2.19566 -2.14258 3.61791e-14 
-1.97289 -2.09681 4.79317e-14 
-1.74825 -2.08342 4.80372e-14 
-1.53987 -2.03396 5.17699e-14 
-1.39801 -1.86161 9.7375e-13 
-1.24959 -2.0462 -3.7263e-13 
-0.990309 -2.05749 1.85619e-12 
-0.781146 -2.02365 6.27143e-12 
-0.529294 -2.13602 5.24198e-12 
-0.451007 -1.95264 1.03073e-11 
-0.219607 -2.14888 6.55046e-12 
0.0570179 -2.21691 -4.3376e-12 
0.291835 -2.22738 -4.13367e-12 
0.449515 -1.97969 -6.37129e-12 
0.535639 -2.2114 -6.05774e-12 
0.689142 -1.99652 -4.6158e-12 
0.894935 -1.85835 -5.80905e-13 
1.22562 -2.03161 -3.48673e-13 
1.44624 -2.03603 -2.28562e-13 
1.66322 -2.08137 -2.0758e-13 
1.87303 -2.1298 -4.39078e-14 
2.099 -2.16455 -5.48501e-14 
2.32499 -2.16619 -2.57589e-14 
2.54828 -2.1164 -9.8638e-15 
2.75707 -2.11308 -4.69108e-15 
2.97307 -2.13399 -2.49191e-15 
3.18654 -2.14074 -1.27626e-15 
3.41071 -2.12317 -5.56978e-16 
3.6239 -2.1137 2.1607e-16 
3.83783 -2.14089 1.25392e-16 
4.05313 -2.13843 5.51557e-17 
4.26931 -2.13576 2.60351e-17 
4.48324 -2.13378 1.18759e-17 
4.69715 -2.13916 5.15702e-18 
4.90898 -2.13233 3.78684e-18 
5.12613 -2.13278 1.77505e-18 
5.33918 -2.13143 8.83012e-19 
5.55504 -2.13506 4.71587e-19 
5.77836 -2.13798 2.55646e-19 
5.99602 -2.14134 1.44269e-19 
6.22469 -2.12779 7.61358e-20 
6.44402 -2.12191 4.09914e-20 
6.66589 -2.12224 2.54707e-20 
6.89767 -2.1026 1.40914e-20 
7.11828 -2.15171 1.38672e-20 
7.34884 -2.15806 5.32873e-21 
7.55484 -2.08611 1.37332e-21 
7.76307 -2.1546 7.0672e-21 
7.98819 -2.08293 1.3558e-21 
8.22181 -2.13519 -2.61166e-21 
8.48528 -2.10347 -4.78645e-19 
-8.48528 -1.83345 7.87733e-19 
-8.30836 -1.90608 1.16912e-20 
-7.91125 -1.86918 -1.79012e-21 
[...]
POINT_DATA 1978 
VECTORS vectors float
1.67273e-06 2.01168e-05 1 
-7.10637e-07 0.000117879 1 
-2.29554e-08 0.000210421 1 
-1.39173e-07 0.000312082 1 
-1.84699e-07 0.000469943 1 
1.78993e-07 0.000643053 1 
5.69183e-08 0.000789104 1 
-7.41381e-07 0.000960737 1 
-3.87366e-08 0.00114223 0.999999 
-3.42241e-07 0.00134361 0.999999 
8.47722e-08 0.00160282 0.999999 
-9.20932e-08 0.0019176 0.999998 
-1.62263e-07 0.00231395 0.999997 
1.29343e-07 0.00280678 0.999996 
8.2826e-07 0.00348472 0.999994 
3.2826e-07 0.00434656 0.999991 
-1.89966e-09 0.0054575 0.999985 
1.56161e-07 0.00692401 0.999976 
9.40075e-08 0.00887178 0.999961 
-2.82271e-07 0.011427 0.999935 
-1.32821e-06 0.0147536 0.999891 
-3.09709e-06 0.0189429 0.999821 
-4.98602e-06 0.0241865 0.999707 
6.10906e-06 0.0308984 0.999523 
-2.22482e-05 0.0393413 0.999226 
2.77502e-05 0.0500028 0.998749 
-4.50699e-05 0.0629782 0.998015 
-3.64669e-05 0.0804265 0.996761 
1.14519e-05 0.100976 0.994889 
-5.7437e-05 0.126702 0.991941 
-5.37743e-05 0.15799 0.987441 
-0.000192726 0.19694 0.980416 
-0.00018559 0.247072 0.968997 
-0.000284456 0.312689 0.949856 
-0.000237542 0.390333 0.920674 
-0.000229535 0.473182 0.880965 
-8.02263e-05 0.591675 0.806176 
1.88194e-05 0.719136 0.694869 
8.68668e-05 0.961847 0.273589 
0.000246974 0.990244 -0.139342 
0.000177701 0.849412 -0.52773 
6.11444e-05 0.685423 -0.728145 
0.000473967 0.591922 -0.805995 
0.000469477 0.514361 -0.857573 
0.000594578 0.428859 -0.903371 
0.000215752 0.347352 -0.937735 
6.58867e-05 0.275898 -0.961187 
0.000121138 0.207226 -0.978293 
-0.000151776 0.162146 -0.986767 
1.83552e-05 0.12544 -0.992101 
1.93387e-05 0.0967756 -0.995306 
1.0779e-05 0.0767484 -0.99705 
2.39094e-05 0.0611826 -0.998127 
1.0556e-05 0.0487018 -0.998813 
1.45017e-05 0.0381822 -0.999271 
1.462e-05 0.0307274 -0.999528 
6.34158e-06 0.0244279 -0.999702 
1.34049e-06 0.0191271 -0.999817 
-4.5037e-07 0.0150107 -0.999887 
3.209e-06 0.0117512 -0.999931 
3.60549e-07 0.00912389 -0.999958 
-2.09883e-06 0.00711308 -0.999975 
5.16533e-07 0.00561115 -0.999984 
2.37539e-07 0.00447806 -0.99999 
6.31915e-08 0.00363251 -0.999993 
-2.01431e-07 0.00295657 -0.999996 
-1.92388e-07 0.00241889 -0.999997 
-2.65851e-07 0.0019884 -0.999998 
-2.14192e-07 0.00162418 -0.999999 
-1.04699e-07 0.00134713 -0.999999 
-1.21503e-07 0.00110719 -0.999999 
1.20205e-08 0.000909143 -1 
-8.62966e-08 0.000744677 -1 
-1.99371e-07 0.000569889 -1 
2.24363e-08 0.000430804 -1 
-3.75555e-08 0.000316118 -1 
-1.354e-07 0.00019269 -1 
5.52394e-07 0.000116439 -1 
-1.04562e-06 1.28441e-05 -1 
7.52139e-05 7.61778e-05 1 
1.67423e-05 0.000160344 1 
-1.99822e-05 0.000241001 1 
-4.85808e-05 0.000334299 1 
-5.87682e-05 0.000446995 1 
-8.35927e-05 0.000618195 1 
-0.000127379 0.000792177 1 
-0.000139127 0.000962676 1 
-0.000164389 0.00115409 0.999999 
-0.000171532 0.0014012 0.999999 
-0.000200677 0.00170115 0.999999 
-0.000230122 0.00207158 0.999998 
-0.00027746 0.00253587 0.999997 
-0.000323 0.00314654 0.999995 
-0.000418234 0.00397113 0.999992 
-0.000551155 0.00503557 0.999987 
-0.000722944 0.0064336 0.999979 
-0.000947764 0.00829307 0.999965 
-0.00124908 0.0107348 0.999942 
-0.00163631 0.0139188 0.999902 
-0.00212964 0.018016 0.999835 
-0.00272754 0.0232578 0.999726 
-0.00334243 0.0299108 0.999547 
-0.00413655 0.0385754 0.999247 
-0.00520801 0.0498805 0.998742 
-0.00621133 0.0644484 0.997902 
-0.00749502 0.0837573 0.996458 
-0.00896211 0.109445 0.993952 
-0.0148309 0.133939 0.990879 
-0.0109263 0.144178 0.989491 
-0.0138569 0.187329 0.982199 
-0.0170879 0.243664 0.969709 
-0.0185485 0.309034 0.95087 
-0.020716 0.383986 0.923107 
-0.0220661 0.454223 0.890615 
-0.018712 0.546663 0.837143 
-0.0183211 0.670809 0.741404 
-0.0120412 0.839224 0.543653 
-0.00948946 0.945134 0.326546 
-0.000898429 0.999661 0.0260241 
0.00692106 0.943922 -0.330095 
0.0109595 0.803192 -0.59562 
0.0134878 0.659782 -0.751336 
0.0153059 0.521809 -0.852925 
0.018021 0.540463 -0.841174 
0.0177734 0.442272 -0.896705 
0.0172609 0.346432 -0.937916 
0.0152299 0.267111 -0.963546 
0.0136729 0.20271 -0.979143 
0.011042 0.153436 -0.988097 
0.0092287 0.115998 -0.993207 
0.00820862 0.0898872 -0.995918 
0.00677684 0.0704903 -0.997489 
0.00549386 0.0551414 -0.998463 
0.00439169 0.0427252 -0.999077 
0.00385081 0.0334469 -0.999433 
0.00294208 0.0263242 -0.999649 
0.00225146 0.0203687 -0.99979 
0.00176603 0.0157258 -0.999875 
0.00136906 0.0121386 -0.999925 
0.00101298 0.00935818 -0.999956 
0.00077564 0.00727106 -0.999973 
0.000593008 0.00568434 -0.999984 
0.000466659 0.00450412 -0.99999 
0.000360724 0.0035889 -0.999993 
0.00029319 0.00288481 -0.999996 
0.000247946 0.00233885 -0.999997 
0.000204828 0.00189383 -0.999998 
0.000188422 0.00155467 -0.999999 
0.000159792 0.00127593 -0.999999 
0.000143035 0.00104439 -0.999999 
0.000130638 0.000859335 -1 
9.6276e-05 0.000682648 -1 
8.33246e-05 0.000527781 -1 
6.58249e-05 0.000406759 -1 
3.40649e-05 0.000285677 -1 
1.37122e-05 0.000218838 -1 
-2.26869e-05 0.000129498 -1 
-8.30601e-05 8.36269e-05 -1 
9.68922e-05 0.000149116 1 
2.06141e-05 0.000227655 1 
-3.66016e-05 0.000295177 1 
-7.85246e-05 0.000369134 1 
-0.000128868 0.000475549 1 
-0.000107777 0.000473687 1 
-0.000143627 0.000627226 1 
-0.000199039 0.000799271 1 
-0.000231536 0.00100034 0.999999 
-0.00026126 0.0012368 0.999999 
-0.000288816 0.00150633 0.999999 
-0.000331548 0.00184795 0.999998 
-0.000381662 0.00225862 0.999997 
-0.000449646 0.00281064 0.999996 
-0.000544735 0.0035176 0.999994 
-0.000697503 0.00446832 0.99999 
-0.000904486 0.00571562 0.999983 
-0.00118504 0.0073706 0.999972 
-0.00156005 0.00952778 0.999953 
-0.00204812 0.0123086 0.999922 
-0.00267984 0.0158686 0.99987 
-0.00346693 0.0203978 0.999786 
-0.00440068 0.0261969 0.999647 
-0.00541032 0.0334722 0.999425 
-0.00661491 0.0427756 0.999063 
-0.00808816 0.0550445 0.998451 
-0.00967517 0.0700596 0.997496 
-0.011434 0.0895409 0.995918 
-0.0133478 0.108711 0.993984 
-0.0171631 0.175199 0.984383 
-0.0191022 0.227581 0.973572 
-0.0202607 0.297137 0.95462 
-0.0173078 0.360254 0.932694 
-0.0144213 0.451406 0.892202 
-0.0182133 0.559287 0.828774 
-0.01394 0.682368 0.730876 
-0.0170567 0.799339 0.600639 
-0.00887272 0.892578 0.450806 
-0.00470266 0.982268 0.187423 
0.00111057 0.996938 -0.0781871 
0.00700957 0.930209 -0.366964 
0.012038 0.795048 -0.606428 
0.0160424 0.658423 -0.752477 
0.00500191 0.656618 -0.754207 
-0.0023488 0.518916 -0.854822 
0.0187159 0.414869 -0.909689 
0.0185985 0.331308 -0.943339 
0.0196722 0.269285 -0.962859 
0.0182431 0.209967 -0.977538 
0.0160764 0.162203 -0.986626 
0.013717 0.124695 -0.9921 
0.0118113 0.0958323 -0.995327 
0.00998336 0.0746039 -0.997163 
0.00829473 0.0587331 -0.998239 
0.00676853 0.0458515 -0.998925 
0.00562672 0.0358609 -0.999341 
0.00447912 0.0278045 -0.999603 
0.00350208 0.0217459 -0.999757 
0.0027169 0.0168455 -0.999854 
0.00208608 0.0130798 -0.999912 
0.00157162 0.010135 -0.999947 
0.00119769 0.00790827 -0.999968 
0.000917691 0.00618019 -0.99998 
0.000718043 0.00487132 -0.999988 
0.000568726 0.00385315 -0.999992 
0.000468177 0.00308561 -0.999995 
0.000398482 0.00248831 -0.999997 
0.000339874 0.00201308 -0.999998 
0.000304719 0.00164771 -0.999999 
0.000268379 0.00134732 -0.999999 
0.000238706 0.00110933 -0.999999 
0.000216579 0.000909069 -1 
0.000176953 0.000737851 -1 
0.000145283 0.000589114 -1 
0.000115985 0.000463089 -1 
7.20273e-05 0.000351264 -1 
3.64854e-05 0.000290364 -1 
-2.36881e-05 0.000214837 -1 
-9.95658e-05 0.00015892 -1 
9.7033e-05 0.000209013 1 
2.06535e-05 0.000293963 1 
-3.78564e-05 0.000347169 1 
-8.77529e-05 0.000402135 1 
-0.0001536 0.000534789 1 
-0.000168792 0.000599413 1 
-0.000218781 0.000753527 1 
-0.000259315 0.000955321 1 
-0.000292279 0.0011801 0.999999 
-0.000324706 0.00145174 0.999999 
-0.000358213 0.0017604 0.999998 
-0.000401706 0.00216089 0.999998 
-0.000461608 0.00266545 0.999996 
-0.000551916 0.00334917 0.999994 
-0.000675084 0.00421416 0.999991 
-0.000850316 0.00539673 0.999985 
-0.00109633 0.00695688 0.999975 
-0.00142809 0.00899404 0.999959 
-0.00186666 0.0115985 0.999931 
-0.00242974 0.0148694 0.999886 
-0.00315566 0.019062 0.999813 
-0.00405409 0.0244044 0.999694 
-0.00510331 0.0312834 0.999498 
-0.00620572 0.0396951 0.999193 
-0.00746527 0.050642 0.998689 
-0.00877033 0.0644692 0.997881 
-0.0102997 0.0829033 0.996504 
-0.0113164 0.105414 0.994364 
-0.0138872 0.138326 0.990289 
-0.0136028 0.176476 0.984211 
-0.0131208 0.226165 0.974001 
-0.0104519 0.28411 0.958735 
0.00182956 0.328284 0.944577 
0.00239746 0.403508 0.914973 
0.000407847 0.541293 0.840834 
0.00951779 0.658438 0.752575 
-0.00113958 0.800033 0.599954 
0.0185316 0.849526 0.527222 
0.00209417 0.961943 0.273242 
-0.00299157 0.996794 -0.0799597 
-0.00284823 0.932473 -0.361227 
-0.0240588 0.826182 -0.56289 
0.00265131 0.816334 -0.577574 
-0.016155 0.691318 -0.72237 
-0.0296988 0.563071 -0.825875 
0.00350867 0.406514 -0.913638 
0.00558439 0.316462 -0.948589 
0.01258 0.254907 -0.966884 
0.0140954 0.196872 -0.980328 
0.0136613 0.15413 -0.987956 
0.0123915 0.119776 -0.992724 
0.0105905 0.092963 -0.995613 
0.0090844 0.0734843 -0.997255 
0.00779345 0.0577038 -0.998303 
0.00656705 0.0453707 -0.998949 
0.00531975 0.0351628 -0.999367 
0.00424519 0.0274856 -0.999613 
0.00338493 0.021395 -0.999765 
0.00261173 0.0166713 -0.999858 
0.00198986 0.0129881 -0.999914 
0.00151177 0.0101792 -0.999947 
0.00115023 0.0079396 -0.999968 
0.000890817 0.0062148 -0.99998 
0.000702635 0.00484992 -0.999988 
0.000575558 0.00383932 -0.999992 
0.000488341 0.00305975 -0.999995 
0.000424953 0.0024478 -0.999997 
0.000376799 0.00199099 -0.999998 
0.00033714 0.0016173 -0.999999 
0.000305033 0.00133396 -0.999999 
0.000275011 0.00110059 -0.999999 
0.000245535 0.000901208 -1 
0.000207796 0.000734249 -1 
0.000170846 0.000594216 -1 
0.000137148 0.000498772 -1 
9.38131e-05 0.000403967 -1 
4.66316e-05 0.000348506 -1 
-1.60209e-05 0.000284774 -1 
-0.000100575 0.000214561 -1 
7.85636e-05 0.000282561 1 
3.11617e-05 0.000352461 1 
-7.42033e-05 0.000426589 1 
-0.000121699 0.000487946 1 
-0.000167026 0.000594778 1 
-0.000195033 0.000648246 1 
-0.000213786 0.000726603 1 
-0.000243963 0.000838007 1 
-0.000278265 0.00103944 0.999999 
-0.000305477 0.00127234 0.999999 
-0.000327266 0.00154407 0.999999 
-0.000353371 0.00187587 0.999998 
-0.000387312 0.0023246 0.999997 
-0.000444493 0.00289394 0.999996 
-0.000516935 0.00362644 0.999993 
-0.000626254 0.00460348 0.999989 
-0.000775659 0.0059335 0.999982 
-0.000982842 0.0076493 0.99997 
-0.00126535 0.00988367 0.99995 
-0.00163452 0.0126823 0.999918 
-0.002128 0.0162049 0.999866 
-0.00275854 0.0207043 0.999782 
-0.0035826 0.026545 0.999641 
-0.00442228 0.0337657 0.99942 
-0.005343 0.0429618 0.999062 
-0.00610988 0.0543201 0.998505 
-0.00715688 0.0702066 0.997507 
-0.00733236 0.0873667 0.996149 
-0.00833606 0.117597 0.993026 
-0.00796445 0.146851 0.989126 
-0.00444534 0.189444 0.981882 
0.000319098 0.237973 0.971272 
0.0133671 0.277035 0.960767 
0.0268664 0.352213 0.935534 
0.0208826 0.464436 0.88536 
0.0381033 0.567109 0.822761 
0.0407628 0.713577 0.69939 
0.0712344 0.770744 0.63315 
0.0266244 0.934155 0.355874 
-0.000983057 0.999809 0.0195423 
-0.0215133 0.947277 -0.319694 
-0.0603801 0.828597 -0.55658 
-0.0520009 0.679144 -0.732161 
-0.074548 0.544469 -0.835462 
-0.0239106 0.441131 -0.897124 
-0.0389081 0.34933 -0.936192 
-0.0141695 0.351443 -0.936102 
-0.00548377 0.263467 -0.964653 
0.00458428 0.214266 -0.976764 
0.00678098 0.163961 -0.986443 
0.00791292 0.129034 -0.991609 
0.00750137 0.10116 -0.994842 
0.00638841 0.0784561 -0.996897 
0.00605965 0.062282 -0.99804 
0.00540072 0.0491838 -0.998775 
0.00461803 0.0387262 -0.999239 
0.00360804 0.0299102 -0.999546 
0.00289248 0.0230831 -0.999729 
0.00226949 0.0181894 -0.999832 
0.00171571 0.0142193 -0.999897 
0.00128233 0.0111295 -0.999937 
0.000986266 0.00870581 -0.999962 
0.000770543 0.00680723 -0.999977 
0.000625677 0.0053126 -0.999986 
0.000516899 0.00416777 -0.999991 
0.000450996 0.00330952 -0.999994 
0.000405403 0.00265014 -0.999996 
0.00036661 0.00213855 -0.999998 
0.000337098 0.00174816 -0.999998 
0.000308337 0.00143095 -0.999999 
0.00028409 0.00118186 -0.999999 
0.000257813 0.000980224 -0.999999 
0.000223005 0.000792695 -1 
0.000188145 0.000655643 -1 
0.000144101 0.000540227 -1 
9.22629e-05 0.000439855 -1 
3.53212e-05 0.000383389 -1 
-2.80101e-05 0.00033696 -1 
-8.80344e-05 0.000284095 -1 
4.52168e-05 0.000350064 1 
9.91057e-06 0.000420275 1 
-2.19216e-05 0.000389425 1 
-7.75109e-05 0.000466197 1 
-0.000122882 0.00052325 1 
-0.000187215 0.00067589 1 
-0.000234243 0.000837655 1 
-0.000260251 0.000970791 0.999999 
-0.000284131 0.00119746 0.999999 
-0.000297121 0.001442 0.999999 
-0.000309989 0.00175765 0.999998 
-0.000328991 0.0021488 0.999998 
-0.000359148 0.00270372 0.999996 
-0.000398554 0.00337104 0.999994 
-0.000461955 0.00426635 0.999991 
-0.000550799 0.00544301 0.999985 
-0.000666258 0.00701908 0.999975 
-0.000833374 0.00901737 0.999959 
-0.00105651 0.0115618 0.999933 
-0.00136719 0.0147285 0.999891 
-0.00177583 0.0186454 0.999825 
-0.00234694 0.0237972 0.999714 
-0.00293886 0.0301659 0.999541 
-0.00355774 0.038289 0.99926 
-0.00395989 0.0480962 0.998835 
-0.00447119 0.0617254 0.998083 
-0.00386298 0.0763229 0.997076 
-0.00428706 0.0998434 0.994994 
-0.00208838 0.125134 0.992138 
0.000293359 0.158567 0.987348 
0.00871672 0.202745 0.979193 
0.0244914 0.244908 0.969237 
0.0419718 0.308034 0.950449 
0.0683907 0.383545 0.920987 
0.0478851 0.436292 0.89853 
0.0765913 0.556096 0.827581 
0.117562 0.581347 0.805118 
0.128846 0.753992 0.644124 
0.0560213 0.928443 0.367225 
-0.00348256 0.999861 -0.0162954 
-0.0557744 0.936955 -0.344972 
-0.141283 0.7685 -0.624057 
-0.101607 0.675655 -0.730182 
-0.13881 0.538454 -0.831143 
-0.0557315 0.446206 -0.893193 
-0.0705582 0.349852 -0.934144 
-0.0204946 0.279439 -0.959945 
-0.0217406 0.230306 -0.972875 
-0.00604496 0.199729 -0.979832 
-0.000662732 0.159163 -0.987252 
0.00205086 0.123137 -0.992388 
0.0032843 0.0960732 -0.995369 
0.00328244 0.0746863 -0.997202 
0.00356397 0.0591414 -0.998243 
0.00347116 0.0469655 -0.99889 
0.00312173 0.0367185 -0.999321 
0.00244534 0.0280451 -0.999604 
0.00190993 0.0220713 -0.999755 
0.00147986 0.0173533 -0.999848 
0.00109138 0.0136069 -0.999907 
0.000808725 0.0106205 -0.999943 
0.000636354 0.00831145 -0.999965 
0.000521343 0.00645431 -0.999979 
0.000445811 0.00505453 -0.999987 
0.000388102 0.00396536 -0.999992 
0.000356503 0.00314647 -0.999995 
0.000334345 0.00252747 -0.999997 
0.000313147 0.00204848 -0.999998 
0.000297643 0.0016767 -0.999999 
0.000279029 0.00137391 -0.999999 
0.000261316 0.00114048 -0.999999 
0.000238153 0.000931669 -1 
0.000207297 0.000775628 -1 
0.000174122 0.000647462 -1 
0.000134235 0.000557741 -1 
9.71128e-05 0.00047978 -1 
5.12197e-05 0.000435814 -1 
-5.94288e-06 0.000397674 -1 
-6.67233e-05 0.000334068 -1 
1.75565e-05 0.000386768 1 
-1.98078e-05 0.00046351 1 
-3.74241e-05 0.00044217 1 
-9.62193e-05 0.000514656 1 
-0.000146283 0.000587312 1 
-0.000171878 0.000679047 1 
-0.000210256 0.000787576 1 
-0.000233696 0.000936476 1 
-0.00025813 0.00109011 0.999999 
-0.000263782 0.00130964 0.999999 
-0.000268785 0.00157962 0.999999 
-0.00027306 0.00193438 0.999998 
-0.000287116 0.00239589 0.999997 
-0.000295691 0.00298184 0.999996 
-0.00032116 0.00374679 0.999993 
-0.000359897 0.00475118 0.999989 
-0.000413862 0.00606028 0.999982 
-0.000480354 0.00777456 0.99997 
-0.0005893 0.00991978 0.999951 
-0.00074951 0.0126537 0.99992 
-0.000971894 0.0159704 0.999872 
-0.00131641 0.020231 0.999794 
-0.00169064 0.0254496 0.999675 
-0.00211472 0.0322297 0.999478 
-0.0023733 0.0402501 0.999187 
-0.00254446 0.0513128 0.998679 
-0.00202577 0.0626063 0.998036 
-0.00124103 0.0827623 0.996569 
0.000434169 0.102281 0.994755 
0.00413331 0.128929 0.991645 
0.00920998 0.162829 0.986611 
0.021682 0.196169 0.98033 
0.044175 0.244094 0.968745 
0.0702489 0.293357 0.953418 
0.101712 0.405776 0.908295 
0.148084 0.421214 0.89479 
0.19641 0.556329 0.807416 
0.272781 0.628124 0.728733 
0.147259 0.867089 0.47589 
0.0203784 0.995862 0.0885643 
-0.094812 0.943369 -0.317909 
-0.237228 0.716124 -0.656421 
-0.20097 0.520272 -0.830017 
-0.145892 0.363032 -0.920284 
-0.103896 0.427375 -0.898085 
-0.0957496 0.300111 -0.949087 
-0.0432288 0.278583 -0.959439 
-0.0336259 0.21351 -0.976362 
-0.0146907 0.18073 -0.983423 
-0.00724944 0.148234 -0.988926 
-0.00288181 0.118102 -0.992997 
-0.000313326 0.0943187 -0.995542 
0.000511775 0.0753328 -0.997158 
0.00152864 0.0594787 -0.998228 
0.00191215 0.0475279 -0.998868 
0.00197904 0.0377259 -0.999286 
0.00169493 0.0296178 -0.99956 
0.00120846 0.022919 -0.999737 
0.000919843 0.0180795 -0.999836 
0.000661497 0.0142417 -0.999898 
0.00048444 0.0111386 -0.999938 
0.000379496 0.00866284 -0.999962 
0.000339538 0.0067739 -0.999977 
0.000306073 0.00527339 -0.999986 
0.000286524 0.00416014 -0.999991 
0.000275019 0.00328102 -0.999995 
0.000269197 0.00262834 -0.999997 
0.000262925 0.00213227 -0.999998 
0.000258092 0.00173594 -0.999998 
0.000250378 0.00142986 -0.999999 
0.000237633 0.00117491 -0.999999 
0.000225802 0.00097467 -0.999999 
0.000197754 0.000808402 -1 
0.00016772 0.000676033 -1 
0.000128028 0.000578369 -1 
8.84739e-05 0.000501688 -1 
4.60719e-05 0.000462471 -1 
2.02573e-06 0.000436155 -1 
-3.65376e-05 0.000363666 -1 
-7.05745e-06 0.000403471 1 
-3.01512e-05 0.000485346 1 
-5.95118e-05 0.000482379 1 
-9.21994e-05 0.000536073 1 
-0.000129379 0.000583766 1 
-0.000156666 0.000681613 1 
-0.000195752 0.000806308 1 
-0.000213443 0.000958925 1 
-0.000232599 0.00114009 0.999999 
-0.000229868 0.00137135 0.999999 
-0.00022975 0.00166849 0.999999 
-0.000227744 0.00207109 0.999998 
-0.000226446 0.00254281 0.999997 
-0.000223088 0.00318703 0.999995 
-0.000230433 0.00401424 0.999992 
-0.000243638 0.00509726 0.999987 
-0.000262669 0.00649575 0.999979 
-0.000286732 0.00831003 0.999965 
-0.00035284 0.0106172 0.999944 
-0.000454499 0.0134804 0.999909 
-0.000647067 0.0171607 0.999853 
-0.000872755 0.0215125 0.999768 
-0.00115404 0.0272278 0.999629 
-0.00132984 0.0340417 0.99942 
-0.00145254 0.0432831 0.999062 
-0.000980614 0.0526196 0.998614 
-0.000219032 0.0684418 0.997655 
0.00195299 0.0843553 0.996434 
0.00493339 0.105262 0.994432 
0.0107487 0.132888 0.991073 
0.0193675 0.159715 0.986973 
0.0373839 0.197139 0.979663 
0.0647865 0.225452 0.972098 
0.133398 0.267207 0.954361 
0.103784 0.295173 0.94979 
0.199794 0.35294 0.914066 
0.289606 0.377142 0.879712 
0.440825 0.51969 0.731844 
0.295069 0.827535 0.477619 
0.035956 0.997163 0.0661324 
-0.225693 0.901086 -0.37028 
-0.416062 0.618524 -0.666574 
-0.301444 0.45901 -0.835728 
-0.206845 0.326206 -0.922391 
-0.126858 0.250619 -0.959738 
-0.0823231 0.221167 -0.971755 
-0.0610413 0.25423 -0.965216 
-0.0506752 0.20045 -0.978392 
-0.0219625 0.168262 -0.985498 
-0.012422 0.13616 -0.990609 
-0.00669404 0.11159 -0.993732 
-0.00313969 0.0892474 -0.996005 
-0.000871997 0.0691683 -0.997605 
0.000253882 0.0552307 -0.998474 
0.000862852 0.0439588 -0.999033 
0.00102106 0.0349643 -0.999388 
0.000868371 0.0274894 -0.999622 
0.000539648 0.021468 -0.999769 
0.000367367 0.0169869 -0.999856 
0.00023805 0.0133138 -0.999911 
0.000180389 0.0104355 -0.999946 
0.00015929 0.00809514 -0.999967 
0.000173953 0.00634064 -0.99998 
0.000178982 0.00498793 -0.999988 
0.000191501 0.00392433 -0.999992 
0.000196703 0.00312039 -0.999995 
0.000202881 0.00251978 -0.999997 
0.000209705 0.00204237 -0.999998 
0.000212163 0.00167513 -0.999999 
0.000212377 0.0013735 -0.999999 
0.000205754 0.00112616 -0.999999 
0.000198197 0.000945202 -1 
0.000175125 0.000800618 -1 
0.000155057 0.000687662 -1 
0.000120351 0.000595664 -1 
8.62115e-05 0.000523389 -1 
4.99236e-05 0.000486852 -1 
1.36856e-05 0.000468206 -1 
-4.77364e-06 0.000392111 -1 
-2.13943e-05 0.000409329 1 
-3.60171e-05 0.000500746 1 
-5.92393e-05 0.000502773 1 
-8.40945e-05 0.000548798 1 
-0.000121382 0.000602485 1 
-0.000138634 0.000691376 1 
-0.0001725 0.000797514 1 
-0.00018598 0.000949662 1 
-0.000199783 0.00114722 0.999999 
-0.000192503 0.00138886 0.999999 
-0.000189888 0.00171474 0.999999 