# vtk DataFile Version 3.0 
Exported using Morpho https://github.com/Morpho-lang/morpho 
ASCII 
DATASET UNSTRUCTURED_GRID 

POINTS 1978 float 
-8.48528 -2.82843 -5.39384e-12 
-8.25239 -2.82843 -7.77573e-12 
-8.0219 -2.82843 -1.51515e-12 
-7.78979 -2.82842 -2.41048e-12 
-7.47814 -2.82845 -7.53177e-12 
-7.18388 -2.82843 -4.16985e-12 
-6.98247 -2.82843 -2.84825e-12 
-6.75855 -2.82844 -7.28284e-12 
-6.56667 -2.82844 -1.39579e-12 
-6.37453 -2.82843 -6.8447e-12 
-6.1598 -2.82843 -9.42329e-12 
-5.95487 -2.82843 -3.45406e-12 
-5.7454 -2.82843 -1.27671e-11 
-5.53814 -2.82843 -1.88044e-11 
-5.31555 -2.82843 -1.63111e-11 
-5.09869 -2.82843 -2.10267e-11 
-4.88809 -2.82843 -2.89731e-11 
-4.67917 -2.82843 -5.14913e-11 
-4.46948 -2.82843 -6.9987e-11 
-4.26165 -2.82843 -1.11277e-10 
-4.05428 -2.82843 -1.85521e-10 
-3.85017 -2.82843 -2.75462e-10 
-3.64832 -2.82843 -5.23284e-10 
-3.44308 -2.82843 -9.04534e-10 
-3.24124 -2.82843 -1.59821e-09 
-3.02949 -2.82842 -2.58097e-09 
-2.84098 -2.82843 -5.39794e-09 
-2.62854 -2.82844 -6.21897e-09 
-2.43982 -2.82846 -2.33709e-08 
-2.24971 -2.82841 -3.72105e-08 
-2.05842 -2.82846 -3.7416e-08 
-1.86858 -2.82841 -4.97973e-08 
-1.69625 -2.82844 -4.19772e-08 
-1.52395 -2.8284 -8.06933e-08 
-1.33203 -2.82842 -1.14784e-07 
-1.15475 -2.82838 -2.55894e-07 
-0.936137 -2.8284 5.32031e-07 
-0.720604 -2.82829 -7.93979e-06 
-0.239813 -2.8282 1.61643e-06 
0.111168 -2.82823 -3.09227e-07 
0.464134 -2.82825 -3.27106e-05 
0.776631 -2.82841 9.43687e-06 
0.964159 -2.82837 -1.18659e-06 
1.11373 -2.82844 -2.67609e-07 
1.26115 -2.82838 -7.15043e-07 
1.43234 -2.82843 -6.65066e-08 
1.608 -2.82842 -4.4065e-08 
1.84455 -2.82843 5.98066e-08 
2.03834 -2.82843 3.11544e-08 
2.25445 -2.82843 2.22365e-08 
2.47248 -2.82843 1.54521e-08 
2.66962 -2.82843 8.39457e-09 
2.86486 -2.82843 4.57494e-09 
3.0629 -2.82843 3.01844e-09 
3.26572 -2.82843 1.40792e-09 
3.44666 -2.82843 8.25706e-10 
3.64264 -2.82843 6.45303e-10 
3.84914 -2.82843 2.80305e-10 
4.04937 -2.82844 1.78571e-10 
4.25071 -2.82843 7.10659e-11 
4.46255 -2.82843 1.06378e-10 
4.67429 -2.82843 2.39646e-11 
4.8831 -2.82843 5.05071e-11 
5.09155 -2.82843 1.90761e-11 
5.29629 -2.82843 1.50883e-11 
5.50896 -2.82843 1.53177e-11 
5.72382 -2.82843 1.3332e-11 
5.93883 -2.82843 1.00694e-11 
6.16655 -2.82843 7.94752e-12 
6.3806 -2.82843 4.79647e-12 
6.60676 -2.82843 3.3924e-12 
6.83009 -2.82843 3.6896e-12 
7.04359 -2.82843 3.98793e-12 
7.30161 -2.82843 4.0892e-12 
7.53742 -2.82844 6.24387e-12 
7.76111 -2.82843 1.58624e-12 
8.03277 -2.82843 4.07653e-12 
8.22613 -2.82844 6.95978e-12 
8.48528 -2.82843 1.40451e-12 
-8.48529 -2.59941 8.01435e-12 
-8.25954 -2.59893 6.83207e-22 
-8.02704 -2.58859 1.63601e-22 
-7.78422 -2.60132 -6.02126e-22 
-7.5332 -2.65013 4.72197e-22 
-7.24771 -2.64391 -3.19266e-22 
-6.98088 -2.55807 9.72901e-22 
-6.7781 -2.59652 1.80093e-22 
-6.55398 -2.55731 -7.79186e-22 
-6.32808 -2.59798 -3.44437e-23 
-6.10433 -2.58523 2.04395e-22 
-5.88605 -2.58818 -4.96537e-16 
-5.66999 -2.58362 3.88354e-14 
-5.44628 -2.60294 -2.9199e-14 
-5.21844 -2.60092 2.89832e-22 
-4.99828 -2.59658 1.65161e-22 
-4.78163 -2.59679 1.00451e-22 
-4.56494 -2.59877 1.03787e-21 
-4.34978 -2.59786 2.66845e-21 
-4.1351 -2.59665 5.28235e-21 
-3.9225 -2.59421 1.07069e-20 
-3.70988 -2.59236 4.63855e-20 
-3.49504 -2.59835 1.71477e-19 
-3.27322 -2.59436 5.2726e-19 
-3.05284 -2.60478 8.64895e-19 
-2.82959 -2.58335 1.89042e-18 
-2.62776 -2.62187 5.25224e-18 
-2.38108 -2.58228 -7.4345e-19 
-2.22461 -2.39638 -9.46652e-17 
-2.15226 -2.5972 3.20496e-17 
-1.94091 -2.59218 5.19204e-17 
-1.73369 -2.53769 8.12803e-17 
-1.52665 -2.5751 -7.48665e-17 
-1.35921 -2.52703 -1.04332e-15 
-1.19741 -2.49026 -1.1588e-15 
-1.01844 -2.58984 -4.45988e-16 
-0.803101 -2.56499 -9.54635e-17 
-0.52385 -2.70595 -6.28605e-15 
-0.291808 -2.582 -6.11782e-15 
-0.0390879 -2.65877 -8.55818e-15 
0.285006 -2.62914 2.24624e-14 
0.55572 -2.65624 -4.80831e-14 
0.817894 -2.60991 -6.15568e-15 
1.06523 -2.27022 3.8828e-15 
1.01751 -2.53017 1.88787e-15 
1.21943 -2.57476 -1.09014e-15 
1.42175 -2.53632 -2.90887e-17 
1.65421 -2.61005 -2.34665e-16 
1.883 -2.58801 -9.13772e-17 
2.10623 -2.60554 -5.23876e-17 
2.33883 -2.60818 -2.2879e-17 
2.55659 -2.58726 -5.63273e-18 
2.76488 -2.59059 -1.34516e-18 
2.97727 -2.59558 -6.71855e-19 
3.19396 -2.60163 -6.57511e-19 
3.40481 -2.57156 4.20757e-19 
3.6043 -2.59015 2.44802e-20 
3.8191 -2.59993 -2.90852e-20 
4.03842 -2.58379 7.21044e-21 
4.25719 -2.59847 -6.95993e-21 
4.47506 -2.59866 -6.94538e-21 
4.69137 -2.59608 -5.53497e-22 
4.90738 -2.59567 -3.90448e-22 
5.12084 -2.59054 -1.9906e-22 
5.3379 -2.59707 -4.10316e-22 
5.55766 -2.59657 -1.39093e-22 
5.778 -2.59375 4.93697e-14 
6.00677 -2.60372 -5.56348e-23 
6.22948 -2.58654 1.0268e-22 
6.45421 -2.597 2.57736e-14 
6.68283 -2.59169 2.09012e-22 
6.90114 -2.57812 -3.14355e-22 
7.1407 -2.61826 2.41429e-22 
7.38894 -2.60012 3.39887e-22 
7.61505 -2.58622 -2.75837e-22 
7.86576 -2.62813 4.72562e-22 
8.07364 -2.54764 -3.1854e-22 
8.29923 -2.61705 -5.58331e-22 
8.48529 -2.53487 -5.12432e-12 
-8.48528 -2.36853 7.18392e-12 
-8.24869 -2.36922 1.87359e-22 
-8.01165 -2.34935 5.86591e-22 
-7.784 -2.3798 1.23819e-22 
-7.57926 -2.23298 -3.6132e-22 
-7.52358 -2.45021 -9.75711e-23 
-7.24571 -2.44391 1.34836e-22 
-6.99263 -2.34686 -9.70507e-22 
-6.73405 -2.349 -7.70903e-22 
-6.48503 -2.33966 1.05447e-21 
-6.26424 -2.36514 -7.88362e-22 
-6.03708 -2.34848 4.87009e-14 
-5.82069 -2.34658 -4.71306e-22 
-5.59237 -2.36029 -8.4784e-22 
-5.36854 -2.37956 -1.69165e-21 
-5.14579 -2.37119 -3.76745e-21 
-4.92639 -2.36799 -8.65125e-21 
-4.7076 -2.37098 -2.00333e-20 
-4.49261 -2.36975 -4.60438e-20 
-4.2782 -2.36961 -1.023e-19 
-4.06535 -2.36521 -2.25143e-19 
-3.85427 -2.36189 -4.88579e-19 
-3.64155 -2.36196 -1.01772e-18 
-3.42596 -2.37119 -2.04281e-18 
-3.20418 -2.36977 -4.05229e-18 
-2.99038 -2.37614 -8.42108e-18 
-2.77652 -2.34841 -1.71595e-17 
-2.57078 -2.40972 -2.36082e-17 
-2.41307 -2.30006 -6.82024e-17 
-1.99666 -2.34891 -2.83866e-16 
-1.79042 -2.31175 -5.2551e-16 
-1.55754 -2.32283 -8.95799e-16 
-1.36239 -2.20593 -1.26256e-15 
-1.17953 -2.19924 -2.12426e-15 
-0.983235 -2.3199 -4.0506e-15 
-0.760235 -2.29618 -7.90504e-15 
-0.572954 -2.47228 -4.47228e-16 
-0.391093 -2.32808 -7.9764e-15 
-0.147374 -2.35783 -4.35982e-15 
0.066362 -2.4373 -1.58328e-15 
0.309313 -2.43633 5.95992e-15 
0.587873 -2.44506 9.18233e-15 
0.821222 -2.39565 1.00615e-14 
0.811283 -2.20082 2.24022e-15 
1.02287 -2.04544 2.21721e-15 
1.25101 -2.30745 2.65106e-15 
1.44541 -2.28148 1.36185e-15 
1.6395 -2.37806 6.83039e-16 
1.84519 -2.34856 3.37678e-16 
2.06453 -2.37526 2.37103e-16 
2.28741 -2.39115 8.79104e-17 
2.51503 -2.361 4.52192e-17 
2.73376 -2.35227 2.10843e-17 
2.94202 -2.36322 1.00557e-17 
3.15713 -2.37489 5.16853e-18 
3.37407 -2.34669 2.19417e-18 
3.59338 -2.34403 1.25187e-18 
3.79732 -2.37113 5.64336e-19 
4.01278 -2.3605 2.62423e-19 
4.23328 -2.36864 1.28387e-19 
4.44802 -2.36893 6.00062e-20 
4.6611 -2.36636 2.30506e-20 
4.87541 -2.36518 1.15891e-20 
5.08867 -2.35845 4.99687e-21 
5.30449 -2.3645 2.31239e-21 
5.51898 -2.36645 1.08068e-21 
5.73764 -2.36268 5.50656e-22 
5.96145 -2.37574 2.75415e-22 
6.18458 -2.35607 1.60326e-22 
6.41268 -2.35932 1.01818e-22 
6.63396 -2.36106 2.54682e-22 
6.85995 -2.33378 6.57176e-22 
7.0863 -2.38203 -4.15532e-22 
7.31693 -2.38821 -1.73281e-22 
7.55786 -2.34631 3.63841e-22 
7.7914 -2.3971 1.71635e-22 
8.00504 -2.3193 1.9073e-22 
8.25013 -2.35608 -9.15788e-22 
8.48529 -2.30565 -6.27908e-12 
-8.48528 -2.13812 5.63785e-12 
-8.24677 -2.13929 7.8898e-22 
-8.03978 -2.08986 -4.7986e-22 
-7.81651 -2.12688 3.46607e-22 
-7.51349 -2.03317 -1.38682e-22 
-7.31916 -2.25422 -3.89744e-22 
-7.08788 -2.15354 8.86872e-22 
-6.81329 -2.13732 -3.44138e-22 
-6.57005 -2.12955 3.54996e-22 
-6.32385 -2.12153 -7.8459e-23 
-6.10967 -2.12325 -1.49042e-22 
-5.88665 -2.10493 -1.93644e-22 
-5.66787 -2.12881 -4.26707e-22 
-5.44292 -2.14344 -7.03901e-22 
-5.23002 -2.14602 -1.442e-21 
-5.01188 -2.14059 -2.81202e-21 
-4.7946 -2.14459 -6.39579e-21 
-4.57981 -2.14197 -1.40068e-20 
-4.36528 -2.14136 -3.05031e-20 
-4.15262 -2.13862 -6.36741e-20 
-3.93962 -2.13265 -1.33726e-19 
-3.72777 -2.1307 -2.85769e-19 
-3.5126 -2.13592 -6.15532e-19 
-3.30062 -2.14328 -1.27074e-18 
-3.08292 -2.14023 -2.55602e-18 
-2.87461 -2.13168 -4.78713e-18 
-2.64056 -2.14989 -1.35512e-17 
-2.42782 -2.08253 -3.24848e-18 
-2.19163 -2.16651 -6.39793e-17 
-1.97963 -2.09714 -2.82114e-17 
-1.7626 -2.08464 -7.74091e-17 
-1.56599 -2.06228 -1.69301e-16 
-1.42251 -1.90969 3.83596e-16 
-1.22378 -1.9439 -4.97216e-16 
-0.973433 -2.06104 -9.94624e-16 
-0.7668 -2.01692 -8.0015e-15 
-0.557268 -2.16206 -1.01646e-14 
-0.445379 -1.97377 -1.35162e-14 
-0.223705 -2.13325 -8.85247e-15 
0.061799 -2.18162 6.18916e-15 
0.299011 -2.19161 5.36315e-15 
0.486147 -1.97319 5.43271e-15 
0.527121 -2.22815 1.07643e-14 
0.719948 -2.01823 4.99998e-15 
0.888628 -1.84469 3.25056e-16 
1.25716 -2.04798 3.18931e-16 
1.46775 -2.00183 -8.64445e-17 
1.64606 -2.11265 3.18294e-16 
1.87946 -2.13042 1.57784e-16 
2.10254 -2.14867 2.90694e-17 
2.32436 -2.16391 3.88116e-17 
2.5461 -2.12876 1.28811e-17 
2.75341 -2.11132 5.03366e-18 
2.96843 -2.13352 3.03621e-18 
3.18314 -2.14431 1.76957e-18 
3.40846 -2.12105 6.362e-19 
3.62322 -2.10918 2.92819e-19 
3.83548 -2.14299 2.06282e-19 
4.055 -2.13769 9.12495e-20 
4.26984 -2.13906 3.8628e-20 
4.48113 -2.13586 1.91172e-20 
4.69461 -2.13608 7.25503e-21 
4.90667 -2.13244 3.49144e-21 
5.12484 -2.13086 1.6891e-21 
5.33717 -2.13098 8.80266e-22 
5.55286 -2.13487 4.91227e-22 
5.777 -2.13699 2.92661e-22 
5.99502 -2.14108 1.76669e-22 
6.22491 -2.12811 1.06943e-22 
6.44439 -2.12019 -3.77636e-14 
6.66609 -2.12308 -4.37161e-22 
6.89919 -2.10131 -3.62127e-22 
7.12 -2.15051 7.40993e-22 
7.35213 -2.15893 -2.75524e-22 
7.55913 -2.08635 -5.9736e-22 
7.76542 -2.15738 3.68976e-14 
7.98656 -2.08325 2.15137e-22 
8.21785 -2.13253 -1.01202e-21 
8.48529 -2.10437 -5.79874e-12 
-8.4853 -1.83272 9.60564e-12 
-8.31189 -1.90164 5.14224e-22 
-7.89565 -1.86285 -2.00654e-22 
[...]
POINT_DATA 1978 
VECTORS vectors float
1.64108e-05 1.2493e-05 1 
-1.62034e-05 0.00010556 1 
-2.22415e-05 0.000202615 1 
-2.5841e-05 0.000305001 1 
-2.8957e-05 0.000467686 1 
-3.77119e-05 0.000651119 1 
-5.56704e-05 0.000791022 1 
-6.18185e-05 0.000962029 1 
-6.75853e-05 0.0011451 1 
-8.16119e-05 0.00134825 1 
-9.521e-05 0.0015975 1 
-0.000115083 0.00191304 1 
-0.000139048 0.0023018 1 
-0.000173455 0.00278481 0.999999 
-0.00022585 0.00344811 0.999997 
-0.000296108 0.00428716 0.999994 
-0.000390782 0.00537238 0.999989 
-0.000513413 0.00680857 0.99998 
-0.000673299 0.00872022 0.999965 
-0.000894638 0.0112461 0.999939 
-0.00115146 0.0145766 0.999896 
-0.00144756 0.0187598 0.999826 
-0.00182201 0.0240079 0.999713 
-0.00227271 0.030742 0.999528 
-0.0029065 0.0391722 0.999231 
-0.00343179 0.0501245 0.99874 
-0.00429955 0.0623848 0.998046 
-0.00571574 0.0807397 0.996721 
-0.0059561 0.0994416 0.995029 
-0.00618931 0.12573 0.992051 
-0.0089966 0.156479 0.987644 
-0.0129263 0.192743 0.981169 
-0.0164219 0.242961 0.969903 
-0.0194166 0.309334 0.950766 
-0.0210876 0.387575 0.921614 
-0.022375 0.469395 0.882732 
-0.0267941 0.588392 0.808148 
-0.0194877 0.716246 0.697543 
-0.00858014 0.960327 0.278684 
0.0150796 0.991157 -0.131721 
0.0206812 0.840791 -0.540758 
0.0252364 0.671208 -0.740759 
0.0206615 0.594072 -0.804151 
0.025506 0.518796 -0.854538 
0.0243639 0.431317 -0.901891 
0.0190714 0.345542 -0.938226 
0.0171126 0.278354 -0.96033 
0.0144973 0.204621 -0.978736 
0.0104114 0.161198 -0.986872 
0.00874528 0.12423 -0.992218 
0.00659881 0.0956869 -0.995393 
0.00527706 0.0759529 -0.997101 
0.00406302 0.0605817 -0.998158 
0.00340379 0.0483734 -0.998827 
0.0028239 0.0377277 -0.999287 
0.00203989 0.0303962 -0.999539 
0.00165766 0.0242358 -0.999708 
0.00139362 0.0189315 -0.999823 
0.00113112 0.0148758 -0.999891 
0.000878413 0.0115838 -0.999936 
0.000672316 0.00899333 -0.999962 
0.000518162 0.0070179 -0.999978 
0.000396175 0.0055356 -0.999988 
0.000298522 0.00442284 -0.999993 
0.00022711 0.00360074 -0.999997 
0.000181188 0.00293936 -0.999999 
0.000146824 0.00241068 -1 
0.000121903 0.00198436 -1 
0.000101483 0.00162164 -1 
8.47833e-05 0.00134636 -1 
7.28302e-05 0.00110744 -1 
6.11808e-05 0.000910924 -1 
5.17153e-05 0.000746401 -1 
4.51426e-05 0.000568426 -1 
3.71441e-05 0.000427489 -1 
2.97627e-05 0.000310679 -1 
2.29823e-05 0.000183086 -1 
1.57107e-05 0.000103951 -1 
-1.25913e-05 6.35395e-06 -1 
7.60822e-05 8.84788e-05 1 
1.48497e-05 0.0001538 1.00001 
-2.36607e-05 0.000233804 1.00001 
-5.46144e-05 0.000330957 1.00001 
-7.14834e-05 0.000443995 1.00001 
-9.28623e-05 0.000607493 1.00001 
-0.00014317 0.000794876 1.00001 
-0.000147729 0.000959192 1.00001 
-0.000181506 0.00115871 1.00001 
-0.000190565 0.00140466 1.00001 
-0.000219013 0.00169632 1 
-0.000250919 0.00206644 1 
-0.000301526 0.00252856 1 
-0.000355423 0.00313182 1 
-0.000463019 0.00394592 0.999998 
-0.000610481 0.00499118 0.999993 
-0.000803096 0.00636499 0.999985 
-0.00105166 0.00819933 0.999972 
-0.00138864 0.0106125 0.999949 
-0.00181212 0.0137492 0.99991 
-0.00236194 0.0177788 0.999845 
-0.00301474 0.0229233 0.999738 
-0.00370774 0.0294634 0.999565 
-0.00459919 0.0379966 0.999273 
-0.00555509 0.0487264 0.998802 
-0.00720989 0.0632066 0.99798 
-0.00828846 0.0815955 0.996636 
-0.010203 0.111594 0.993707 
-0.0165498 0.13242 0.991059 
-0.0129391 0.144526 0.989419 
-0.0154667 0.185537 0.982516 
-0.0191432 0.243824 0.96963 
-0.0231551 0.31524 0.948727 
-0.0266057 0.38932 0.920712 
-0.026401 0.465304 0.884748 
-0.0234473 0.554415 0.83189 
-0.0240529 0.673656 0.738629 
-0.020783 0.838508 0.544459 
-0.0117114 0.947634 0.319072 
0.00171563 0.999935 -0.0084424 
0.0117962 0.94029 -0.340061 
0.00711993 0.805457 -0.592525 
0.0176898 0.67841 -0.734407 
0.0222616 0.516951 -0.855725 
0.0200096 0.551029 -0.834213 
0.0215916 0.4295 -0.902796 
0.021032 0.339765 -0.94027 
0.0172643 0.25955 -0.965573 
0.0161038 0.19998 -0.97967 
0.012674 0.152631 -0.988205 
0.0106617 0.115571 -0.993246 
0.00927209 0.0896681 -0.995933 
0.00767909 0.0702377 -0.997506 
0.00615545 0.0550248 -0.998471 
0.00498322 0.042601 -0.999084 
0.00425634 0.0331511 -0.999448 
0.00325056 0.0260727 -0.999661 
0.00249573 0.0202056 -0.999799 
0.0019772 0.0155398 -0.999884 
0.00149375 0.011976 -0.999933 
0.00112567 0.00924468 -0.999963 
0.000856937 0.00717505 -0.99998 
0.000659007 0.00561804 -0.99999 
0.000515935 0.00446366 -0.999996 
0.000396759 0.00356328 -1 
0.000321833 0.002869 -1 
0.000272491 0.00233052 -1 
0.000227079 0.00188938 -1 
0.000206402 0.00155387 -1 
0.000176537 0.0012775 -1.00001 
0.00015802 0.00104612 -1.00001 
0.000142237 0.000860831 -1.00001 
0.000106438 0.000683453 -1.00001 
9.2515e-05 0.000526963 -1.00001 
7.22063e-05 0.000403879 -1.00001 
4.03992e-05 0.000279778 -1.00001 
1.65247e-05 0.000211222 -1.00001 
-2.10697e-05 0.000121533 -1.00001 
-8.3369e-05 0.000100737 -1 
9.70262e-05 0.000182082 1 
1.82477e-05 0.0002241 1.00001 
-4.37876e-05 0.000292479 1.00001 
-8.94804e-05 0.000368884 1.00001 
-0.000142202 0.000479762 1.00001 
-0.000113647 0.000470497 1.00001 
-0.000153202 0.000627924 1.00001 
-0.000218814 0.000803916 1.00001 
-0.000249532 0.00100233 1.00001 
-0.000284692 0.00124148 1.00001 
-0.000315326 0.0015126 1.00001 
-0.000360748 0.00185274 1 
-0.000413872 0.00226179 1 
-0.000488277 0.00280913 1 
-0.000591174 0.00351103 1 
-0.000758565 0.004453 0.999996 
-0.00098247 0.0056814 0.999989 
-0.00129232 0.0073289 0.999978 
-0.00170902 0.00949196 0.999959 
-0.00225094 0.0122952 0.999928 
-0.00295398 0.0158567 0.999876 
-0.0038533 0.0204161 0.99979 
-0.00491957 0.0262369 0.999649 
-0.00606345 0.0335403 0.999425 
-0.0074244 0.0429491 0.999056 
-0.00899132 0.0544819 0.99848 
-0.0111114 0.0707789 0.997436 
-0.0124595 0.0895036 0.995913 
-0.0152999 0.106281 0.994224 
-0.0206917 0.175312 0.984301 
-0.0225498 0.224383 0.974245 
-0.0241845 0.290691 0.956515 
-0.0217577 0.36674 0.930073 
-0.0177954 0.436367 0.899595 
-0.0227782 0.544538 0.838423 
-0.020829 0.675534 0.737025 
-0.0200565 0.800055 0.599565 
-0.0121573 0.889352 0.457004 
-0.00686437 0.981703 0.190143 
-0.000147148 0.999175 -0.0400096 
0.0109897 0.935151 -0.354004 
0.0198166 0.794744 -0.606571 
0.0202771 0.661285 -0.749831 
0.00895826 0.656793 -0.75401 
-8.77688e-05 0.52293 -0.852373 
0.0229918 0.410207 -0.911704 
0.0233421 0.331782 -0.943071 
0.023208 0.26764 -0.963242 
0.022387 0.210859 -0.977265 
0.0187067 0.162328 -0.986564 
0.0157309 0.124278 -0.992128 
0.0136057 0.0955461 -0.995338 
0.0113368 0.0743531 -0.997173 
0.00926761 0.0585512 -0.998247 
0.00752097 0.0455955 -0.998938 
0.0063525 0.0358268 -0.999343 
0.0049875 0.0277495 -0.999609 
0.00386734 0.0216777 -0.999763 
0.00300584 0.0167731 -0.99986 
0.00230276 0.0130181 -0.999919 
0.00173163 0.0101208 -0.999953 
0.00130976 0.00788197 -0.999974 
0.00100059 0.00615647 -0.999986 
0.000781092 0.00485557 -0.999994 
0.000616119 0.00384188 -0.999998 
0.000508726 0.00307957 -1 
0.000435814 0.00248685 -1 
0.000370666 0.00201383 -1 
0.00033219 0.00165178 -1 
0.00029216 0.00135257 -1.00001 
0.000260123 0.00111431 -1.00001 
0.000237205 0.000912843 -1.00001 
0.000193558 0.000741395 -1 
0.000159948 0.000592041 -1.00001 
0.000128979 0.00046332 -1.00001 
8.03e-05 0.000349459 -1.00001 
4.40974e-05 0.000286759 -1.00001 
-2.01043e-05 0.00021102 -1.00001 
-9.92098e-05 0.000191708 -1 
9.89856e-05 0.000272712 1 
1.59195e-05 0.000294786 1.00001 
-4.22637e-05 0.000346434 1.00001 
-9.57503e-05 0.000404928 1.00001 
-0.000160142 0.000534547 1.00001 
-0.000186376 0.000606548 1.00001 
-0.000234978 0.000758416 1.00001 
-0.000276422 0.000962331 1.00001 
-0.000308743 0.0011819 1.00001 
-0.000341423 0.00145397 1.00001 
-0.000376641 0.001768 1 
-0.000420496 0.0021621 1 
-0.000482016 0.00265705 1 
-0.000575574 0.00333408 1 
-0.000703534 0.00419281 0.999997 
-0.000882988 0.00536868 0.999991 
-0.00113935 0.00692243 0.999981 
-0.00148766 0.00897082 0.999964 
-0.00195187 0.0116009 0.999937 
-0.00253555 0.0148731 0.999892 
-0.00330235 0.0190354 0.999819 
-0.00428891 0.0244177 0.999698 
-0.00543859 0.0313816 0.999498 
-0.00662724 0.0399599 0.999185 
-0.00794157 0.0508763 0.998679 
-0.00945818 0.0643575 0.997888 
-0.0111546 0.0839013 0.996419 
-0.0118765 0.10618 0.994281 
-0.0161478 0.138093 0.990294 
-0.0142313 0.177136 0.984089 
-0.0145653 0.225166 0.974217 
-0.0132397 0.285243 0.958368 
-0.000152569 0.325266 0.945628 
0.00428267 0.408955 0.912546 
-0.00324461 0.540391 0.841406 
0.00522173 0.663752 0.747926 
-0.00454279 0.80637 0.591371 
0.0178681 0.846001 0.532849 
0.00118812 0.960575 0.277937 
-0.00229626 0.99633 -0.0852767 
-0.00164943 0.929786 -0.368051 
-0.0247024 0.818212 -0.574363 
0.00950841 0.822316 -0.568929 
-0.0123994 0.691905 -0.721874 
-0.0308029 0.560311 -0.827707 
0.00485035 0.413633 -0.910433 
0.006197 0.307942 -0.95139 
0.0157448 0.25975 -0.965552 
0.0160882 0.198294 -0.980015 
0.0149732 0.153933 -0.987974 
0.01367 0.120059 -0.992679 
0.0115749 0.0930687 -0.995598 
0.00971087 0.073695 -0.997239 
0.00827537 0.0579485 -0.998291 
0.00702588 0.0455696 -0.998943 
0.00568451 0.0353241 -0.999365 
0.00446713 0.0275076 -0.999617 
0.00356154 0.0213056 -0.999773 
0.00276819 0.0166759 -0.999863 
0.00209577 0.0130071 -0.999919 
0.00157127 0.0101719 -0.999953 
0.00119633 0.00792876 -0.999974 
0.000926778 0.00620353 -0.999986 
0.000727932 0.00483386 -0.999994 
0.000597833 0.00382511 -0.999998 
0.0005118 0.00305375 -1 
0.000448714 0.00244727 -1 
0.000398771 0.00199427 -1 
0.000355369 0.00162203 -1 
0.000321554 0.00134072 -1.00001 
0.000290869 0.00110735 -1.00001 
0.000259601 0.000906526 -1 
0.000222002 0.000737529 -1.00001 
0.000182833 0.000595156 -1.00001 
0.000145136 0.000500031 -1.00001 
0.000101439 0.000403431 -1.00001 
5.07411e-05 0.000347343 -1.00001 
-1.24138e-05 0.000284377 -1.00001 
-0.000102427 0.000268498 -1 
8.07835e-05 0.000378419 1 
3.26367e-05 0.000354557 1.00001 
-7.67508e-05 0.000427832 1.00001 
-0.000126002 0.000492003 1.00001 
-0.000171894 0.00059735 1.00001 
-0.000202669 0.000647545 1.00001 
-0.000220636 0.000731128 1 
-0.000254295 0.000844341 1.00001 
-0.000288882 0.00104791 1.00001 
-0.000315602 0.00128059 1.00001 
-0.000335856 0.00154638 1 
-0.000361122 0.0018804 1 
-0.000393036 0.00232058 1 
-0.000449371 0.00288316 1 
-0.000521429 0.00361127 0.999999 
-0.000632088 0.00458211 0.999995 
-0.000779227 0.00591083 0.999988 
-0.000981876 0.00762311 0.999976 
-0.00126851 0.00988466 0.999956 
-0.0016384 0.0126949 0.999924 
-0.002121 0.0162125 0.999872 
-0.00276016 0.0206764 0.999788 
-0.00364719 0.0265423 0.999647 
-0.00454541 0.0338388 0.999423 
-0.00542087 0.0429523 0.999068 
-0.00619888 0.0544788 0.998502 
-0.00755672 0.0705738 0.997484 
-0.00727585 0.0869908 0.996188 
-0.00858559 0.118547 0.992917 
-0.00914931 0.146396 0.989189 
-0.00349356 0.189741 0.981834 
-0.00025514 0.239132 0.970992 
0.0131625 0.277969 0.960504 
0.0266238 0.349661 0.936502 
0.0219006 0.472456 0.881078 
0.036642 0.574854 0.817427 
0.040998 0.716159 0.696719 
0.0722346 0.76502 0.63992 
0.02424 0.9358 0.351632 
-0.00169918 0.999976 0.00226534 
-0.0218218 0.941884 -0.335156 
-0.0638185 0.832009 -0.551046 
-0.0493915 0.67997 -0.731567 
-0.0773023 0.544144 -0.835421 
-0.0237045 0.441131 -0.897132 
-0.0375204 0.355533 -0.933914 
-0.0119622 0.348794 -0.937127 
-0.00548926 0.259908 -0.965623 
0.00529884 0.212451 -0.977162 
0.00695004 0.164753 -0.986317 
0.00804355 0.129851 -0.991506 
0.00783828 0.101349 -0.994826 
0.00653693 0.078516 -0.996898 
0.00615525 0.0623408 -0.998042 
0.00552879 0.0492581 -0.998776 
0.00472489 0.0388193 -0.999241 
0.00365448 0.0298927 -0.999552 
0.00293302 0.0230449 -0.999736 
0.00228737 0.0182022 -0.999838 
0.0017278 0.0142622 -0.999903 
0.00127368 0.0111447 -0.999943 
0.000980521 0.00870146 -0.999967 
0.00077053 0.00679715 -0.999982 
0.00062613 0.00530151 -0.999992 
0.000519049 0.00415185 -0.999997 
0.000457183 0.00329971 -1 
0.00041488 0.00264805 -1 
0.000375983 0.00213968 -1 
0.000346082 0.00175053 -1 
0.00031714 0.00143581 -1.00001 
0.000293481 0.00118804 -1.00001 
0.000266916 0.000987134 -1.00001 
0.000231011 0.000797834 -1.00001 
0.000195154 0.000657993 -1.00001 
0.000148735 0.000542587 -1.00001 
9.58689e-05 0.000440841 -1.00001 
3.77582e-05 0.000384801 -1.00001 
-2.77878e-05 0.000336746 -1.00001 
-9.0261e-05 0.000356456 -1 
4.65354e-05 0.000448789 1 
1.07184e-05 0.000423851 1.00001 
-2.33897e-05 0.00038795 1.00001 
-7.95919e-05 0.000467968 1.00001 
-0.000125986 0.000526198 1.00001 
-0.000193429 0.000681717 1.00001 
-0.000241416 0.000843174 1.00001 
-0.00026889 0.000976189 1.00001 
-0.000292532 0.00120405 1.00001 
-0.000303667 0.00144704 1.00001 
-0.000316056 0.00175838 1 
-0.000332576 0.00214706 1 
-0.000360267 0.00269719 1 
-0.000397062 0.00335547 1 
-0.00046003 0.00424537 0.999997 
-0.000547879 0.00542027 0.999991 
-0.000654042 0.0069979 0.999981 
-0.00081462 0.00900459 0.999965 
-0.00103295 0.0115711 0.999938 
-0.00133488 0.0147471 0.999896 
-0.00171901 0.0186484 0.99983 
-0.00230733 0.0237518 0.999721 
-0.00297298 0.0301955 0.999545 
-0.00359762 0.0383272 0.999265 
-0.00396098 0.0481055 0.99884 
-0.0045299 0.0621588 0.998062 
-0.00377717 0.0759677 0.997109 
-0.00436734 0.100691 0.994914 
-0.00198267 0.125865 0.992051 
-0.000532066 0.157 0.987604 
0.00931486 0.203477 0.979042 
0.0243664 0.24528 0.969151 
0.0419176 0.307528 0.95062 
0.0673102 0.377933 0.923385 
0.048195 0.439478 0.89696 
0.0766397 0.541494 0.8372 
0.113843 0.584489 0.803369 
0.130867 0.758474 0.638405 
0.0557967 0.925516 0.374519 
-0.00110515 0.99996 -0.00520136 
-0.0540702 0.941431 -0.332769 
-0.144785 0.764209 -0.628478 
-0.0956388 0.675732 -0.730905 
-0.137282 0.542372 -0.828842 
-0.0570857 0.445028 -0.893697 
-0.0680464 0.343705 -0.936613 
-0.0225227 0.288213 -0.957305 
-0.0208386 0.228577 -0.973309 
-0.00610604 0.202963 -0.979174 
-0.000678435 0.157435 -0.987534 
0.00228112 0.121387 -0.99261 
0.0033388 0.0949326 -0.995484 
0.00326613 0.0746947 -0.997206 
0.00354244 0.059191 -0.998247 
0.0034913 0.046989 -0.998896 
0.00314668 0.0366087 -0.999331 
0.00242106 0.0279085 -0.999613 
0.00188977 0.0220699 -0.999761 
0.00144472 0.0173435 -0.999854 
0.00105309 0.0136004 -0.999913 
0.000772899 0.010601 -0.999949 
0.000616763 0.00828832 -0.999971 
0.000511531 0.00643744 -0.999985 
0.000439931 0.00503037 -0.999993 
0.000386199 0.00394444 -0.999998 
0.000358152 0.00313377 -1 
0.000338261 0.00252313 -1 
0.000317852 0.00204873 -1 
0.000303665 0.00168057 -1 
0.000286527 0.00137778 -1.00001 
0.000269505 0.00114506 -1.00001 
0.000245858 0.000937863 -1.00001 
0.000213512 0.000780151 -1.00001 
0.000179486 0.000651692 -1 
0.000138363 0.000560956 -1.00001 
0.000100245 0.000481818 -1.00001 
5.23832e-05 0.000436806 -1.00001 
-6.4471e-06 0.000398618 -1.00001 
-6.87305e-05 0.000416932 -1 
1.88774e-05 0.000483946 1 
-2.16052e-05 0.000467201 1.00001 
-3.73773e-05 0.000441801 1.00001 
-9.85786e-05 0.000517055 1.00001 
-0.000151746 0.000592609 1.00001 
-0.000177166 0.000683121 1.00001 
-0.000216727 0.000791771 1 
-0.000242315 0.000941812 1.00001 
-0.000267386 0.00109491 1 
-0.000271269 0.00131349 1.00001 
-0.000275605 0.00158468 1 
-0.000278302 0.00193386 1 
-0.000291295 0.00239231 1 
-0.000296624 0.00296929 1 
-0.000320032 0.00372536 0.999999 
-0.000357649 0.00472719 0.999995 
-0.000407428 0.00603207 0.999987 
-0.000463553 0.0077561 0.999976 
-0.000561843 0.00991181 0.999956 
-0.000716601 0.0126819 0.999925 
-0.000928261 0.0160038 0.999877 
-0.00125012 0.0202306 0.9998 
-0.00164772 0.0254397 0.999681 
-0.00212126 0.0322943 0.999482 
-0.00240206 0.0403925 0.999187 
-0.00255688 0.051526 0.998674 
-0.00196539 0.0623782 0.998057 
-0.00125133 0.0832094 0.996537 
0.000471504 0.102479 0.994741 
0.00429733 0.128824 0.991664 
0.00837426 0.162865 0.986619 
0.0216163 0.195576 0.980456 
0.0434705 0.243034 0.969048 
0.0694588 0.291146 0.954158 
0.101638 0.404478 0.908884 
0.149794 0.425133 0.892649 
0.190663 0.560701 0.80576 
0.277961 0.626479 0.728165 
0.148864 0.868341 0.473044 
0.0195605 0.995923 0.0877929 
-0.0960549 0.942752 -0.319293 
-0.242089 0.713099 -0.657905 
-0.200086 0.522925 -0.828557 
-0.147713 0.369683 -0.917343 
-0.103208 0.4238 -0.899858 
-0.0966776 0.304224 -0.947686 
-0.0428733 0.276384 -0.960095 
-0.0334071 0.214394 -0.976181 
-0.0143127 0.179124 -0.983727 
-0.00705959 0.147847 -0.98899 
-0.00282926 0.119036 -0.992892 
-0.000532045 0.0954349 -0.995441 
0.000503686 0.0758987 -0.997121 
0.00143675 0.0599775 -0.998205 
0.0019075 0.0479227 -0.998855 
0.00200286 0.0381027 -0.999278 
0.00168404 0.0297988 -0.99956 
0.00116641 0.0229907 -0.999741 
0.000879562 0.018174 -0.99984 
0.000612315 0.0142456 -0.999904 
0.00044241 0.0111362 -0.999944 
0.000356881 0.00865064 -0.999968 
0.000328991 0.00675755 -0.999983 
0.00030312 0.00525532 -0.999992 
0.000286496 0.00414114 -0.999997 
0.000276771 0.00327017 -1 
0.000272232 0.00262565 -1 
0.000267472 0.00213489 -1 
0.000264202 0.00174072 -1 
0.000258098 0.00143584 -1.00001 
0.000245914 0.00117927 -1.00001 
0.000233998 0.000979384 -1.00001 
0.000204962 0.000813499 -1.00001 
0.00017262 0.000679081 -1.00001 
0.000131329 0.000580048 -1.00001 
9.08361e-05 0.000503168 -1.00001 
4.7446e-05 0.000464379 -1.00001 
2.14145e-06 0.000439002 -1.00001 
-3.80099e-05 0.000464734 -1 
-6.56118e-06 0.00050641 1 
-3.01724e-05 0.000491291 1.00001 
-6.04931e-05 0.000484319 1.00001 
-9.46827e-05 0.000539031 1.00001 
-0.000132991 0.00058635 1.00001 
-0.000162146 0.000686856 1.00001 
-0.000203111 0.000811614 1.00001 
-0.000221388 0.000962144 1.00001 
-0.000240697 0.00114114 1.00001 
-0.000235555 0.00137602 1.00001 
-0.000234225 0.0016683 1 
-0.000230761 0.00207035 1 
-0.000227129 0.00253413 1 
-0.000220736 0.00316855 1 
-0.000227105 0.00399076 0.999998 
-0.00023792 0.00506642 0.999993 
-0.000250604 0.00646625 0.999985 
-0.000260755 0.00827883 0.999971 
-0.000316947 0.0106003 0.999949 
-0.000410929 0.0134815 0.999915 
-0.000601294 0.0171808 0.999858 
-0.000823223 0.0215226 0.999774 
-0.00111992 0.0271953 0.999635 
-0.00133062 0.0340827 0.999424 
-0.00151113 0.0434938 0.999059 
-0.00105205 0.0525105 0.998626 
-0.000227632 0.068477 0.997659 
0.00188792 0.0840799 0.996463 
0.00485796 0.104832 0.994484 
0.0106795 0.132196 0.991172 
0.0184767 0.159914 0.986964 
0.0377982 0.197424 0.979595 
0.0657767 0.227885 0.971469 
0.135847 0.271667 0.952756 
0.104841 0.298326 0.948692 
0.202337 0.350398 0.914484 
0.281577 0.381467 0.880446 
0.442982 0.514922 0.733922 
0.293966 0.826821 0.479547 
0.0362048 0.997246 0.064616 
-0.224214 0.901238 -0.370818 
-0.416732 0.618817 -0.665899 
-0.298074 0.457063 -0.83799 
-0.207481 0.318486 -0.924943 
-0.127327 0.25403 -0.958782 
-0.0823425 0.222431 -0.97147 
-0.0610697 0.253471 -0.965418 
-0.0504138 0.199248 -0.978657 
-0.0224397 0.170685 -0.985076 
-0.0123899 0.137153 -0.990479 
-0.00669943 0.111198 -0.993782 
-0.00310551 0.0891207 -0.996022 
-0.000778458 0.069 -0.997622 
0.000334756 0.054822 -0.998502 
0.000909653 0.0436692 -0.999052 
0.00103296 0.0347838 -0.9994 
0.000833031 0.0273965 -0.99963 
0.000473703 0.0214165 -0.999777 
0.000314435 0.0169567 -0.999862 
0.000189191 0.013309 -0.999918 
0.000141664 0.0104004 -0.999951 
0.0001372 0.00806571 -0.999974 
0.000162726 0.00631226 -0.999986 
0.0001752 0.004959 -0.999993 
0.00019069 0.00389993 -0.999998 
0.000195992 0.00310631 -1 
0.000203268 0.00251287 -1 
0.00021275 0.00203998 -1 
0.000217069 0.0016758 -1 
0.000218507 0.00137609 -1.00001 
0.000212299 0.00112943 -1.00001 
0.000205458 0.000949636 -1 
0.000181662 0.000805364 -1.00001 
0.000160522 0.000692229 -1.00001 
0.000124398 0.000598865 -1.00001 
8.87866e-05 0.00052591 -1.00001 
5.12428e-05 0.000489116 -1.00001 
1.37562e-05 0.000472544 -1.00001 
-5.27033e-06 0.000495356 -1 
-2.11389e-05 0.000513128 1 
-3.62598e-05 0.000505792 1.00001 
-6.12522e-05 0.000504726 1.00001 
-8.63588e-05 0.000552391 1.00001 
-0.000124972 0.000605413 1.00001 
-0.000143265 0.000692894 1.00001 
-0.00017887 0.000801665 1.00001 
-0.000193183 0.000956134 1.00001 
-0.000206664 0.00115302 1.00001 
-0.000197171 0.00138918 1.00001 
-0.000194003 0.0017149 1 
-0.000178478 0.0020886 1 