# vtk DataFile Version 3.0 
Exported using Morpho https://github.com/Morpho-lang/morpho 
ASCII 
DATASET UNSTRUCTURED_GRID 

POINTS 1978 float 
-8.48528 -2.82843 -2.52886e-20 
-8.25466 -2.82843 -2.45219e-20 
-8.02296 -2.82843 -1.03925e-20 
-7.78433 -2.82843 -1.42891e-20 
-7.47519 -2.82843 -2.85638e-20 
-7.21744 -2.82843 9.93497e-21 
-6.96376 -2.82843 -2.75842e-20 
-6.76765 -2.82843 -4.26694e-20 
-6.56266 -2.82843 -2.87641e-21 
-6.37272 -2.82843 -2.17127e-20 
-6.16059 -2.82843 -3.26685e-20 
-5.95298 -2.82843 1.40807e-21 
-5.74398 -2.82843 -2.82813e-20 
-5.53797 -2.82843 -2.66521e-20 
-5.31578 -2.82843 4.69026e-20 
-5.09879 -2.82843 1.50894e-19 
-4.88814 -2.82843 3.87627e-19 
-4.679 -2.82843 8.9411e-19 
-4.46968 -2.82843 2.14177e-18 
-4.26173 -2.82843 4.7897e-18 
-4.05519 -2.82843 1.02489e-17 
-3.85081 -2.82843 2.11942e-17 
-3.6496 -2.82843 4.30588e-17 
-3.44372 -2.82843 8.55458e-17 
-3.23699 -2.82843 1.60456e-16 
-3.0379 -2.82843 3.27696e-16 
-2.83075 -2.82843 5.99735e-16 
-2.64008 -2.82843 1.19498e-15 
-2.44357 -2.82843 2.17431e-15 
-2.24924 -2.82843 3.64431e-15 
-2.05187 -2.82843 6.74163e-15 
-1.87184 -2.82843 1.10075e-14 
-1.69965 -2.82843 2.02957e-14 
-1.51756 -2.82843 3.34659e-14 
-1.33561 -2.82843 5.07131e-14 
-1.15845 -2.82843 9.48252e-14 
-0.935714 -2.82843 1.77204e-13 
-0.716223 -2.82843 9.29475e-13 
-0.245869 -2.82843 3.63781e-13 
0.104856 -2.82843 -2.95098e-13 
0.478695 -2.82843 -8.15319e-13 
0.758025 -2.82843 -2.24618e-13 
0.960199 -2.82843 -9.04823e-14 
1.10713 -2.82843 -7.07655e-14 
1.268 -2.82843 -6.4318e-14 
1.43349 -2.82843 -3.32485e-14 
1.63309 -2.82843 -2.05163e-14 
1.82866 -2.82843 -1.56974e-14 
2.04048 -2.82843 -8.25573e-15 
2.25769 -2.82843 -4.39648e-15 
2.47239 -2.82843 -2.16664e-15 
2.66869 -2.82843 -1.05244e-15 
2.86457 -2.82843 -5.56541e-16 
3.06289 -2.82843 -2.95197e-16 
3.26467 -2.82843 -1.5386e-16 
3.44776 -2.82843 -7.61611e-17 
3.64458 -2.82843 -4.02854e-17 
3.84836 -2.82843 -2.09715e-17 
4.05148 -2.82843 -9.86242e-18 
4.25533 -2.82843 -4.75089e-18 
4.45908 -2.82843 -1.90111e-18 
4.67355 -2.82843 -9.79945e-19 
4.88305 -2.82843 -2.66191e-19 
5.09161 -2.82843 -1.47059e-19 
5.29696 -2.82843 -4.86938e-20 
5.50922 -2.82843 6.4684e-21 
5.7239 -2.82843 2.57158e-20 
5.93923 -2.82843 2.5608e-20 
6.16663 -2.82843 2.45251e-20 
6.38086 -2.82843 1.50781e-20 
6.60684 -2.82843 1.12227e-20 
6.83034 -2.82843 1.42651e-20 
7.0442 -2.82843 1.65185e-20 
7.30101 -2.82843 1.76213e-20 
7.53807 -2.82843 2.80028e-20 
7.76094 -2.82843 6.96869e-21 
8.03313 -2.82843 1.85485e-20 
8.22521 -2.82843 3.165e-20 
8.48528 -2.82843 6.30222e-21 
-8.48528 -2.59928 3.68969e-20 
-8.25651 -2.59829 -1.01816e-20 
-8.02169 -2.5978 3.43311e-21 
-7.77836 -2.60101 3.25531e-21 
-7.53126 -2.64846 -5.45888e-21 
-7.24958 -2.61738 -1.80772e-20 
-6.98211 -2.60555 6.32091e-21 
-6.74989 -2.57431 1.13255e-20 
-6.5366 -2.57448 -1.63309e-21 
-6.31812 -2.59672 -5.25664e-21 
-6.0991 -2.58813 -4.14358e-21 
-5.88188 -2.58725 -7.19635e-21 
-5.66713 -2.5836 -1.43692e-20 
-5.44356 -2.60397 -3.13272e-20 
-5.216 -2.60096 -6.93902e-20 
-4.99439 -2.59709 -1.5871e-19 
-4.77582 -2.5977 -1.96754e-19 
-4.55694 -2.59932 -4.41004e-19 
-4.33884 -2.59937 -9.83594e-19 
-4.12101 -2.59753 -2.15115e-18 
-3.90453 -2.59627 -4.48429e-18 
-3.68959 -2.59297 -9.17298e-18 
-3.47535 -2.60022 6.52012e-17 
-3.25414 -2.59881 1.34266e-16 
-3.03388 -2.58733 2.66056e-16 
-2.82228 -2.58607 5.85684e-16 
-2.60831 -2.59712 1.21561e-15 
-2.39481 -2.59073 2.93795e-15 
-2.1871 -2.39707 3.47195e-15 
-2.17434 -2.61486 -4.40932e-16 
-1.96457 -2.5788 -7.41412e-16 
-1.7719 -2.55772 -2.02587e-15 
-1.58833 -2.56856 -2.17666e-13 
-1.40083 -2.532 -3.72624e-13 
-1.21581 -2.50977 -7.28603e-13 
-1.01655 -2.57668 -7.37328e-13 
-0.790968 -2.56981 -1.27952e-12 
-0.519489 -2.70566 -1.97301e-12 
-0.298119 -2.58304 -1.40296e-12 
-0.0415924 -2.65286 -6.92101e-13 
0.307151 -2.66668 1.73128e-12 
0.613687 -2.62054 1.57395e-12 
0.871673 -2.60952 6.94657e-13 
1.0438 -2.28468 7.2439e-13 
1.07907 -2.52613 7.29866e-13 
1.24965 -2.54919 6.04521e-13 
1.42944 -2.54737 2.03706e-13 
1.61765 -2.58933 1.23188e-15 
1.84299 -2.58767 1.79467e-15 
2.07925 -2.60636 4.95982e-16 
2.3173 -2.60934 -3.04994e-15 
2.54343 -2.58636 -2.03096e-15 
2.75608 -2.58953 -7.71943e-16 
2.97077 -2.59448 -3.75354e-16 
3.18855 -2.59971 -1.87581e-16 
3.40009 -2.57642 -8.99502e-17 
3.60209 -2.59173 -4.40688e-17 
3.81633 -2.59734 6.07538e-18 
4.03411 -2.59469 2.94527e-18 
4.2491 -2.59439 1.31497e-18 
4.46445 -2.59167 6.84615e-19 
4.68329 -2.59618 2.58759e-19 
4.89997 -2.59574 2.09567e-19 
5.1151 -2.59202 9.35887e-20 
5.33257 -2.59653 4.32781e-20 
5.55245 -2.59663 2.09781e-20 
5.77365 -2.59474 1.13714e-20 
6.0025 -2.60378 5.9155e-21 
6.22527 -2.58743 3.3141e-21 
6.45071 -2.59692 1.97483e-21 
6.67914 -2.59148 1.19607e-21 
6.89858 -2.579 6.53442e-22 
7.13914 -2.61789 4.91933e-22 
7.38774 -2.601 2.81739e-22 
7.614 -2.58453 1.08179e-22 
7.86466 -2.62781 8.11125e-23 
8.07144 -2.5451 5.64672e-23 
8.29894 -2.61908 -1.45685e-22 
8.48528 -2.5351 -2.30922e-20 
-8.48528 -2.36813 3.26191e-20 
-8.2426 -2.37212 -1.53402e-22 
-8.00506 -2.35653 -1.11856e-22 
-7.77901 -2.38739 -1.04732e-22 
-7.58629 -2.22718 -1.52793e-22 
-7.50629 -2.442 -3.52388e-22 
-7.21537 -2.41944 -9.16227e-22 
-6.97657 -2.36984 -1.13327e-21 
-6.7368 -2.34677 -1.23264e-21 
-6.50001 -2.3498 -2.46843e-21 
-6.27678 -2.36423 -4.22152e-21 
-6.05178 -2.35204 -7.32483e-21 
-5.83285 -2.34608 -1.46603e-20 
-5.60328 -2.36073 -2.93417e-20 
-5.37975 -2.38007 -6.14753e-20 
-5.15636 -2.37268 -1.37031e-19 
-4.93642 -2.36916 -1.50596e-19 
-4.71729 -2.37212 -3.45027e-19 
-4.50085 -2.37229 -7.77e-19 
-4.28593 -2.3721 -1.71881e-18 
-4.07125 -2.36866 -3.72349e-18 
-3.85952 -2.36507 -7.81336e-18 
-3.64653 -2.36282 3.99931e-17 
-3.43207 -2.37519 7.87865e-17 
-3.21655 -2.36972 1.5772e-16 
-3.00238 -2.35496 3.2921e-16 
-2.7876 -2.35808 7.08525e-16 
-2.57269 -2.37083 1.34975e-15 
-2.37446 -2.33451 2.67785e-15 
-1.99665 -2.33399 -7.45231e-16 
-1.7916 -2.3188 -1.20432e-15 
-1.57715 -2.29749 -1.90168e-15 
-1.37947 -2.24658 -2.54826e-13 
-1.1395 -2.27299 -3.44938e-13 
-0.930965 -2.32449 -8.9149e-13 
-0.718897 -2.27435 -1.1717e-12 
-0.57248 -2.47212 -1.32269e-12 
-0.400318 -2.33009 -1.37497e-12 
-0.144288 -2.38808 -1.83155e-12 
0.105926 -2.47891 1.10167e-12 
0.368213 -2.45795 1.94517e-12 
0.627396 -2.40328 9.88523e-13 
0.849659 -2.3846 9.62665e-13 
0.802606 -2.15648 5.42e-13 
1.00898 -2.05164 8.31321e-13 
1.25 -2.27005 3.68022e-13 
1.44479 -2.28683 2.08372e-13 
1.64295 -2.33114 1.96749e-15 
1.84267 -2.36204 2.22745e-15 
2.06233 -2.38535 -5.772e-16 
2.29422 -2.39149 3.04283e-16 
2.51634 -2.35663 -1.30253e-15 
2.73435 -2.35168 -8.11831e-16 
2.94411 -2.36278 -4.06856e-16 
3.1601 -2.3732 -2.00919e-16 
3.37469 -2.34855 -1.02114e-16 
3.59144 -2.34918 -4.92911e-17 
3.79714 -2.36797 9.30584e-18 
4.01276 -2.3676 4.53216e-18 
4.22926 -2.36465 2.08465e-18 
4.44399 -2.36195 9.27119e-19 
4.65905 -2.36808 4.24878e-19 
4.87556 -2.36522 1.90126e-19 
5.0895 -2.36111 1.80111e-19 
5.30566 -2.36438 8.11054e-20 
5.52068 -2.36645 3.87266e-20 
5.73963 -2.36444 1.95923e-20 
5.96315 -2.37601 1.01202e-20 
6.18612 -2.3565 5.61234e-21 
6.41304 -2.36057 3.14049e-21 
6.63488 -2.35998 1.84333e-21 
6.86069 -2.33583 1.29039e-21 
7.08743 -2.38333 5.96594e-22 
7.31879 -2.38807 3.87393e-22 
7.55821 -2.34509 3.30388e-22 
7.7923 -2.39517 1.65444e-22 
8.00411 -2.31449 -1.04637e-22 
8.24896 -2.35936 5.65488e-23 
8.48528 -2.30704 -2.83625e-20 
-8.48528 -2.13631 2.56774e-20 
-8.25162 -2.14414 -2.70356e-22 
-8.03614 -2.10123 1.38978e-23 
-7.81432 -2.13175 2.27513e-22 
-7.49554 -2.02669 -1.03226e-22 
-7.32463 -2.2396 -2.69385e-22 
-7.07115 -2.1632 -5.03045e-22 
-6.81389 -2.13419 -9.80394e-22 
-6.57154 -2.13148 -1.32103e-21 
-6.33253 -2.12771 -2.45169e-21 
-6.11484 -2.12252 -4.2104e-21 
-5.89233 -2.10791 -7.16885e-21 
-5.67013 -2.13084 -1.45903e-20 
-5.44451 -2.14501 -3.05428e-20 
-5.23012 -2.14783 -6.25629e-20 
-5.0113 -2.14216 -1.30599e-19 
-4.79366 -2.14502 -2.95173e-19 
-4.57847 -2.14437 -3.08052e-19 
-4.36481 -2.14314 -6.6888e-19 
-4.15256 -2.14192 -1.42185e-18 
-3.93924 -2.13436 -2.99165e-18 
-3.7271 -2.13338 -6.29636e-18 
-3.5096 -2.14086 -1.3128e-17 
-3.29775 -2.14356 7.09362e-17 
-3.0808 -2.13135 1.45229e-16 
-2.85909 -2.12949 2.72311e-16 
-2.63509 -2.14103 6.02353e-16 
-2.42658 -2.10253 7.76878e-16 
-2.19258 -2.1408 2.63482e-15 
-1.97241 -2.09097 3.48519e-15 
-1.74924 -2.08395 3.45428e-15 
-1.53734 -2.03537 2.80866e-16 
-1.39624 -1.86128 -2.75646e-13 
-1.25458 -2.05583 4.14952e-15 
-0.993373 -2.05382 -5.15453e-13 
-0.783684 -2.0342 -1.91012e-12 
-0.51788 -2.13055 -1.30915e-12 
-0.453186 -1.94214 -3.03411e-12 
-0.217223 -2.15276 -1.89066e-12 
0.055475 -2.22261 1.21463e-12 
0.289156 -2.2334 1.15774e-12 
0.439785 -1.9842 1.8204e-12 
0.529904 -2.21837 1.70931e-12 
0.678628 -2.00047 1.48959e-12 
0.899136 -1.84845 -2.1475e-14 
1.22417 -2.03029 1.3467e-15 
1.44072 -2.03183 2.32147e-15 
1.65538 -2.08461 7.79738e-16 
1.86671 -2.1252 -3.91871e-15 
2.09577 -2.1665 1.27692e-15 
2.32194 -2.16147 -1.87483e-15 
2.54632 -2.12079 -7.18907e-16 
2.75596 -2.11182 -3.39952e-16 
2.97316 -2.13417 -1.81161e-16 
3.18715 -2.14057 -9.2601e-17 
3.4111 -2.12359 -4.03918e-17 
3.62427 -2.11454 7.45177e-18 
3.83786 -2.14044 4.35788e-18 
4.05324 -2.13858 1.90922e-18 
4.26916 -2.13561 8.98945e-19 
4.4834 -2.13352 4.055e-19 
4.69755 -2.13965 1.77208e-19 
4.90968 -2.13252 1.62806e-19 
5.1264 -2.13267 7.65298e-20 
5.33983 -2.13162 3.78328e-20 
5.55588 -2.13545 2.02456e-20 
5.77892 -2.13832 1.09895e-20 
5.99647 -2.14127 6.2019e-21 
6.22463 -2.12781 3.27223e-21 
6.4437 -2.12218 1.72015e-21 
6.6658 -2.12257 1.07114e-21 
6.89708 -2.10307 5.87684e-22 
7.11752 -2.15202 6.26696e-22 
7.34828 -2.15746 2.21536e-22 
7.55491 -2.08612 3.48091e-23 
7.7622 -2.15473 3.62859e-22 
7.98672 -2.08299 7.33533e-23 
8.22425 -2.13686 -1.02244e-22 
8.48528 -2.10347 -2.65487e-20 
-8.48528 -1.83345 4.37554e-20 
-8.3084 -1.90665 4.48825e-22 
-7.91162 -1.87035 -1.02774e-22 
-7.6869 -1.9148 2.57368e-23 
[...]
POINT_DATA 1978 
VECTORS vectors float
9.90425e-07 -3.54353e-06 1 
-6.42655e-07 0.00011788 1 
3.03825e-08 0.000210422 1 
-8.7709e-08 0.000312083 1 
-1.36099e-07 0.000469943 1 
1.38999e-07 0.000643052 1 
6.61414e-08 0.000789104 1 
-5.97352e-07 0.000960737 1 
1.95251e-08 0.00114223 0.999999 
-2.80356e-07 0.00134361 0.999999 
8.51581e-08 0.00160282 0.999999 
-7.4607e-08 0.0019176 0.999998 
-1.37502e-07 0.00231395 0.999997 
5.53793e-08 0.00280678 0.999996 
6.10825e-07 0.00348472 0.999994 
1.99011e-07 0.00434657 0.999991 
-4.60905e-08 0.0054575 0.999985 
9.349e-08 0.00692401 0.999976 
4.76521e-08 0.00887178 0.999961 
-2.04047e-07 0.011427 0.999935 
-9.40184e-07 0.0147537 0.999891 
-2.2248e-06 0.0189429 0.999821 
-4.22195e-06 0.0241865 0.999707 
6.14373e-06 0.0308984 0.999523 
-1.95825e-05 0.0393413 0.999226 
2.5399e-05 0.0500028 0.998749 
-3.60651e-05 0.0629782 0.998015 
-2.81303e-05 0.0804265 0.996761 
1.3469e-05 0.100976 0.994889 
-4.45564e-05 0.126702 0.991941 
-3.27084e-05 0.15799 0.987441 
-0.00014919 0.19694 0.980416 
-0.000132494 0.247073 0.968997 
-0.000214697 0.312689 0.949856 
-0.000173111 0.390333 0.920674 
-0.000170179 0.473182 0.880965 
-5.23371e-05 0.591676 0.806176 
4.40422e-06 0.719136 0.694869 
2.61128e-05 0.961847 0.273589 
0.000134544 0.990244 -0.139342 
9.45062e-05 0.849413 -0.527729 
1.18122e-05 0.685424 -0.728145 
0.00037247 0.591923 -0.805995 
0.000357481 0.514362 -0.857573 
0.000471414 0.428859 -0.903371 
0.00014977 0.347352 -0.937735 
3.71953e-05 0.275898 -0.961187 
0.000102101 0.207227 -0.978293 
-0.000126233 0.162146 -0.986767 
2.20117e-05 0.12544 -0.992101 
1.42113e-05 0.0967756 -0.995306 
6.81515e-06 0.0767485 -0.99705 
1.83755e-05 0.0611826 -0.998127 
6.71379e-06 0.0487018 -0.998813 
1.0661e-05 0.0381822 -0.999271 
1.09876e-05 0.0307274 -0.999528 
4.37984e-06 0.0244279 -0.999702 
8.39387e-07 0.0191271 -0.999817 
-5.35612e-07 0.0150107 -0.999887 
2.60556e-06 0.0117512 -0.999931 
2.68378e-07 0.0091239 -0.999958 
-1.67694e-06 0.00711308 -0.999975 
5.2538e-07 0.00561115 -0.999984 
1.73232e-07 0.00447806 -0.99999 
5.9913e-08 0.00363251 -0.999993 
-1.42558e-07 0.00295657 -0.999996 
-1.18817e-07 0.00241889 -0.999997 
-1.78651e-07 0.0019884 -0.999998 
-1.41369e-07 0.00162419 -0.999999 
-5.92539e-08 0.00134713 -0.999999 
-8.54044e-08 0.00110719 -0.999999 
2.3863e-08 0.000909143 -1 
-5.11017e-08 0.000744677 -1 
-1.4358e-07 0.000569889 -1 
3.31748e-08 0.000430804 -1 
-1.8649e-08 0.000316118 -1 
-1.26691e-07 0.00019269 -1 
5.02981e-07 0.00011644 -1 
-2.08831e-07 -1.55978e-05 -1 
7.24972e-05 -2.06897e-05 1 
1.67424e-05 0.000160345 1 
-1.9982e-05 0.000241001 1 
-4.85805e-05 0.000334299 1 
-5.87679e-05 0.000446996 1 
-8.35925e-05 0.000618194 1 
-0.000127378 0.000792177 1 
-0.000139126 0.000962676 1 
-0.000164389 0.00115409 0.999999 
-0.000171531 0.0014012 0.999999 
-0.000200676 0.00170115 0.999999 
-0.000230121 0.00207158 0.999998 
-0.000277459 0.00253587 0.999997 
-0.000322999 0.00314655 0.999995 
-0.000418232 0.00397113 0.999992 
-0.000551153 0.00503558 0.999987 
-0.000722941 0.00643361 0.999979 
-0.00094776 0.00829308 0.999965 
-0.00124907 0.0107348 0.999942 
-0.0016363 0.0139188 0.999902 
-0.00212964 0.018016 0.999835 
-0.00272753 0.0232579 0.999726 
-0.00334241 0.0299108 0.999547 
-0.00413654 0.0385754 0.999247 
-0.00520798 0.0498806 0.998742 
-0.00621131 0.0644484 0.997902 
-0.00749497 0.0837573 0.996458 
-0.00896207 0.109445 0.993952 
-0.0148309 0.133939 0.990879 
-0.0109262 0.144178 0.989492 
-0.0138569 0.187329 0.982199 
-0.0170878 0.243664 0.969709 
-0.0185483 0.309034 0.95087 
-0.0207159 0.383986 0.923107 
-0.0220659 0.454223 0.890615 
-0.0187118 0.546663 0.837143 
-0.0183209 0.670809 0.741404 
-0.0120409 0.839224 0.543653 
-0.00948936 0.945134 0.326546 
-0.000898455 0.999661 0.0260252 
0.00692091 0.943922 -0.330095 
0.0109593 0.803192 -0.59562 
0.0134876 0.659782 -0.751336 
0.0153057 0.521809 -0.852925 
0.0180209 0.540463 -0.841175 
0.0177733 0.442272 -0.896705 
0.0172608 0.346432 -0.937916 
0.0152298 0.267111 -0.963545 
0.0136728 0.20271 -0.979143 
0.0110419 0.153436 -0.988097 
0.00922864 0.115998 -0.993207 
0.00820857 0.0898872 -0.995918 
0.0067768 0.0704903 -0.997489 
0.00549383 0.0551414 -0.998463 
0.00439167 0.0427252 -0.999077 
0.00385079 0.0334469 -0.999433 
0.00294207 0.0263242 -0.999649 
0.00225145 0.0203687 -0.99979 
0.00176603 0.0157258 -0.999875 
0.00136906 0.0121386 -0.999925 
0.00101298 0.00935819 -0.999956 
0.000775636 0.00727107 -0.999973 
0.000593005 0.00568434 -0.999984 
0.000466657 0.00450413 -0.99999 
0.000360722 0.00358891 -0.999993 
0.000293188 0.00288481 -0.999996 
0.000247945 0.00233885 -0.999997 
0.000204827 0.00189383 -0.999998 
0.000188421 0.00155467 -0.999999 
0.000159791 0.00127593 -0.999999 
0.000143034 0.00104439 -0.999999 
0.000130637 0.000859335 -1 
9.62756e-05 0.000682648 -1 
8.33242e-05 0.000527781 -1 
6.58247e-05 0.000406759 -1 
3.40647e-05 0.000285677 -1 
1.37121e-05 0.000218839 -1 
-2.2687e-05 0.000129498 -1 
-7.98237e-05 -2.92138e-05 -1 
9.30662e-05 -3.19523e-05 1 
2.06142e-05 0.000227654 1 
-3.66015e-05 0.000295177 1 
-7.85243e-05 0.000369134 1 
-0.000128867 0.000475549 1 
-0.000107777 0.000473687 1 
-0.000143627 0.000627226 1 
-0.000199038 0.000799271 1 
-0.000231535 0.00100034 0.999999 
-0.000261259 0.0012368 0.999999 
-0.000288815 0.00150633 0.999999 
-0.000331547 0.00184795 0.999998 
-0.000381661 0.00225861 0.999997 
-0.000449645 0.00281064 0.999996 
-0.000544733 0.0035176 0.999994 
-0.000697501 0.00446832 0.99999 
-0.000904484 0.00571562 0.999983 
-0.00118504 0.0073706 0.999972 
-0.00156004 0.00952778 0.999953 
-0.00204812 0.0123086 0.999922 
-0.00267983 0.0158686 0.99987 
-0.00346691 0.0203978 0.999786 
-0.00440067 0.0261969 0.999647 
-0.0054103 0.0334722 0.999425 
-0.00661488 0.0427756 0.999063 
-0.00808813 0.0550444 0.998451 
-0.00967513 0.0700596 0.997496 
-0.0114339 0.0895408 0.995918 
-0.0133477 0.108712 0.993984 
-0.017163 0.175199 0.984383 
-0.0191021 0.227581 0.973572 
-0.0202606 0.297137 0.95462 
-0.0173076 0.360254 0.932694 
-0.0144213 0.451407 0.892202 
-0.018213 0.559288 0.828773 
-0.0139398 0.682369 0.730875 
-0.0170565 0.799339 0.600639 
-0.00887265 0.892578 0.450806 
-0.00470261 0.982268 0.187422 
0.00111056 0.996938 -0.0781886 
0.00700949 0.930208 -0.366965 
0.0120379 0.795047 -0.606428 
0.0160422 0.658423 -0.752477 
0.00500175 0.656618 -0.754207 
-0.00234887 0.518916 -0.854822 
0.0187157 0.414869 -0.909689 
0.0185984 0.331308 -0.943339 
0.0196721 0.269285 -0.962859 
0.018243 0.209967 -0.977538 
0.0160763 0.162203 -0.986626 
0.013717 0.124695 -0.9921 
0.0118113 0.0958323 -0.995327 
0.00998332 0.0746039 -0.997163 
0.0082947 0.0587331 -0.998239 
0.00676851 0.0458515 -0.998925 
0.0056267 0.0358609 -0.999341 
0.0044791 0.0278045 -0.999603 
0.00350207 0.0217459 -0.999757 
0.0027169 0.0168455 -0.999854 
0.00208608 0.0130798 -0.999912 
0.00157162 0.010135 -0.999947 
0.00119768 0.00790827 -0.999968 
0.000917689 0.00618019 -0.99998 
0.000718041 0.00487133 -0.999988 
0.000568725 0.00385315 -0.999992 
0.000468176 0.00308561 -0.999995 
0.000398481 0.00248831 -0.999997 
0.000339874 0.00201308 -0.999998 
0.000304718 0.00164771 -0.999999 
0.000268379 0.00134732 -0.999999 
0.000238705 0.00110933 -0.999999 
0.000216578 0.000909068 -1 
0.000176953 0.00073785 -1 
0.000145282 0.000589114 -1 
0.000115985 0.000463089 -1 
7.20271e-05 0.000351264 -1 
3.64852e-05 0.000290364 -1 
-2.36882e-05 0.000214837 -1 
-9.58647e-05 -1.84275e-05 -1 
9.26041e-05 -9.58087e-05 1 
2.06536e-05 0.000293962 1 
-3.78563e-05 0.000347169 1 
-8.77527e-05 0.000402135 1 
-0.0001536 0.000534789 1 
-0.000168791 0.000599412 1 
-0.000218781 0.000753527 1 
-0.000259314 0.000955321 1 
-0.000292278 0.0011801 0.999999 
-0.000324705 0.00145174 0.999999 
-0.000358212 0.0017604 0.999998 
-0.000401706 0.00216089 0.999998 
-0.000461608 0.00266545 0.999996 
-0.000551915 0.00334917 0.999994 
-0.000675083 0.00421416 0.999991 
-0.000850314 0.00539673 0.999985 
-0.00109633 0.00695688 0.999975 
-0.00142808 0.00899404 0.999959 
-0.00186666 0.0115985 0.999931 
-0.00242973 0.0148694 0.999886 
-0.00315566 0.019062 0.999813 
-0.00405408 0.0244044 0.999694 
-0.0051033 0.0312834 0.999498 
-0.0062057 0.0396951 0.999193 
-0.00746525 0.050642 0.998689 
-0.00877031 0.0644692 0.997881 
-0.0102997 0.0829033 0.996504 
-0.0113164 0.105414 0.994364 
-0.0138871 0.138326 0.990289 
-0.0136027 0.176476 0.984211 
-0.0131208 0.226165 0.974001 
-0.0104518 0.28411 0.958735 
0.00182976 0.328284 0.944577 
0.00239728 0.403508 0.914973 
0.000408031 0.541293 0.840834 
0.00951785 0.658438 0.752575 
-0.00113942 0.800034 0.599954 
0.0185318 0.849525 0.527222 
0.00209416 0.961943 0.273242 
-0.00299159 0.996794 -0.0799595 
-0.00284828 0.932474 -0.361227 
-0.0240588 0.826182 -0.562889 
0.00265112 0.816334 -0.577574 
-0.0161552 0.691319 -0.722369 
-0.0296988 0.563071 -0.825875 
0.00350852 0.406515 -0.913638 
0.00558438 0.316462 -0.948589 
0.0125799 0.254906 -0.966884 
0.0140954 0.196872 -0.980328 
0.0136612 0.15413 -0.987956 
0.0123915 0.119776 -0.992724 
0.0105904 0.092963 -0.995613 
0.00908438 0.0734843 -0.997255 
0.00779343 0.0577038 -0.998303 
0.00656704 0.0453707 -0.998949 
0.00531974 0.0351628 -0.999367 
0.00424518 0.0274856 -0.999613 
0.00338492 0.021395 -0.999765 
0.00261172 0.0166713 -0.999858 
0.00198985 0.0129881 -0.999914 
0.00151176 0.0101792 -0.999947 
0.00115023 0.0079396 -0.999968 
0.000890815 0.0062148 -0.99998 
0.000702634 0.00484992 -0.999988 
0.000575557 0.00383932 -0.999992 
0.00048834 0.00305975 -0.999995 
0.000424952 0.0024478 -0.999997 
0.000376798 0.00199099 -0.999998 
0.00033714 0.0016173 -0.999999 
0.000305032 0.00133396 -0.999999 
0.00027501 0.00110059 -0.999999 
0.000245535 0.000901208 -1 
0.000207796 0.000734249 -1 
0.000170846 0.000594216 -1 
0.000137148 0.000498772 -1 
9.38129e-05 0.000403967 -1 
4.66314e-05 0.000348506 -1 
-1.6021e-05 0.000284773 -1 
-9.6625e-05 -5.0405e-05 -1 
7.46553e-05 -0.000147696 1 
3.11616e-05 0.000352459 1 
-7.4203e-05 0.000426589 1 
-0.000121699 0.000487945 1 
-0.000167026 0.000594778 1 
-0.000195033 0.000648247 1 
-0.000213786 0.000726603 1 
-0.000243963 0.000838007 1 
-0.000278264 0.00103944 0.999999 
-0.000305477 0.00127234 0.999999 
-0.000327265 0.00154407 0.999999 
-0.000353371 0.00187587 0.999998 
-0.000387312 0.0023246 0.999997 
-0.000444493 0.00289394 0.999996 
-0.000516934 0.00362645 0.999993 
-0.000626254 0.00460348 0.999989 
-0.000775659 0.0059335 0.999982 
-0.000982841 0.0076493 0.99997 
-0.00126535 0.00988367 0.99995 
-0.00163452 0.0126823 0.999918 
-0.002128 0.0162049 0.999866 
-0.00275854 0.0207043 0.999782 
-0.00358259 0.0265449 0.999641 
-0.00442227 0.0337657 0.99942 
-0.00534299 0.0429618 0.999062 
-0.00610988 0.0543201 0.998505 
-0.00715687 0.0702066 0.997507 
-0.00733235 0.0873667 0.996149 
-0.00833604 0.117597 0.993026 
-0.00796442 0.146851 0.989126 
-0.00444534 0.189444 0.981882 
0.000319096 0.237973 0.971272 
0.0133671 0.277034 0.960767 
0.0268664 0.352214 0.935534 
0.0208825 0.464435 0.885361 
0.0381032 0.567108 0.822761 
0.0407628 0.713577 0.69939 
0.0712345 0.770744 0.63315 
0.0266244 0.934155 0.355874 
-0.00098302 0.999809 0.0195431 
-0.0215132 0.947277 -0.319693 
-0.0603802 0.828597 -0.55658 
-0.052001 0.679144 -0.732161 
-0.0745478 0.544469 -0.835462 
-0.0239107 0.441131 -0.897124 
-0.038908 0.349329 -0.936192 
-0.0141696 0.351443 -0.936102 
-0.00548372 0.263467 -0.964653 
0.00458422 0.214266 -0.976765 
0.00678098 0.163961 -0.986443 
0.0079129 0.129034 -0.991609 
0.00750135 0.10116 -0.994842 
0.0063884 0.0784561 -0.996897 
0.00605964 0.062282 -0.99804 
0.00540071 0.0491838 -0.998775 
0.00461802 0.0387262 -0.999239 
0.00360804 0.0299102 -0.999546 
0.00289248 0.0230831 -0.999729 
0.00226949 0.0181894 -0.999832 
0.00171571 0.0142193 -0.999897 
0.00128233 0.0111295 -0.999937 
0.000986266 0.00870581 -0.999962 
0.000770543 0.00680723 -0.999977 
0.000625677 0.0053126 -0.999986 
0.000516898 0.00416777 -0.999991 
0.000450996 0.00330952 -0.999994 
0.000405403 0.00265014 -0.999996 
0.00036661 0.00213855 -0.999998 
0.000337097 0.00174816 -0.999998 
0.000308337 0.00143095 -0.999999 
0.00028409 0.00118186 -0.999999 
0.000257813 0.000980224 -0.999999 
0.000223004 0.000792695 -1 
0.000188145 0.000655643 -1 
0.000144101 0.000540227 -1 
9.22628e-05 0.000439855 -1 
3.53212e-05 0.000383389 -1 
-2.80101e-05 0.000336959 -1 
-8.45058e-05 -5.52695e-05 -1 
4.31716e-05 -9.39748e-05 1 
9.91053e-06 0.000420274 1 
-2.19215e-05 0.000389425 1 
-7.75109e-05 0.000466197 1 
-0.000122881 0.00052325 1 
-0.000187214 0.000675889 1 
-0.000234242 0.000837655 1 
-0.000260251 0.00097079 0.999999 
-0.000284131 0.00119746 0.999999 
-0.00029712 0.001442 0.999999 
-0.000309989 0.00175765 0.999998 
-0.00032899 0.0021488 0.999998 
-0.000359148 0.00270372 0.999996 
-0.000398554 0.00337104 0.999994 
-0.000461955 0.00426635 0.999991 
-0.000550799 0.00544301 0.999985 
-0.000666259 0.00701908 0.999975 
-0.000833375 0.00901737 0.999959 
-0.00105651 0.0115618 0.999933 
-0.00136719 0.0147285 0.999891 
-0.00177583 0.0186454 0.999825 
-0.00234694 0.0237972 0.999714 
-0.00293886 0.0301659 0.999541 
-0.00355774 0.038289 0.99926 
-0.00395989 0.0480962 0.998835 
-0.00447118 0.0617254 0.998083 
-0.00386298 0.0763229 0.997076 
-0.00428705 0.0998434 0.994994 
-0.00208837 0.125134 0.992138 
0.000293372 0.158567 0.987348 
0.00871671 0.202745 0.979193 
0.0244914 0.244908 0.969237 
0.0419718 0.308034 0.950449 
0.0683907 0.383545 0.920987 
0.0478851 0.436292 0.89853 
0.0765913 0.556097 0.827581 
0.117563 0.581347 0.805118 
0.128846 0.753992 0.644123 
0.0560211 0.928444 0.367225 
-0.00348274 0.999861 -0.0162964 
-0.0557744 0.936954 -0.344972 
-0.141284 0.7685 -0.624057 
-0.101607 0.675655 -0.730183 
-0.13881 0.538455 -0.831143 
-0.0557315 0.446206 -0.893193 
-0.0705583 0.349853 -0.934144 
-0.0204945 0.279439 -0.959945 
-0.0217407 0.230306 -0.972875 
-0.00604501 0.199729 -0.979832 
-0.00066274 0.159163 -0.987252 
0.00205086 0.123137 -0.992388 
0.0032843 0.0960733 -0.995369 
0.00328244 0.0746863 -0.997202 
0.00356397 0.0591414 -0.998243 
0.00347116 0.0469654 -0.99889 
0.00312173 0.0367185 -0.999321 
0.00244534 0.0280452 -0.999604 
0.00190993 0.0220713 -0.999755 
0.00147986 0.0173533 -0.999848 
0.00109138 0.0136069 -0.999907 
0.000808726 0.0106205 -0.999943 
0.000636354 0.00831145 -0.999965 
0.000521344 0.00645431 -0.999979 
0.000445811 0.00505453 -0.999987 
0.000388102 0.00396536 -0.999992 
0.000356503 0.00314647 -0.999995 
0.000334345 0.00252747 -0.999997 
0.000313147 0.00204848 -0.999998 
0.000297643 0.0016767 -0.999999 
0.000279028 0.00137391 -0.999999 
0.000261315 0.00114048 -0.999999 
0.000238152 0.000931669 -1 
0.000207297 0.000775628 -1 
0.000174122 0.000647462 -1 
0.000134235 0.000557741 -1 
9.71127e-05 0.00047978 -1 
5.12196e-05 0.000435814 -1 
-5.94287e-06 0.000397673 -1 
-6.42502e-05 -4.51953e-05 -1 
1.68715e-05 -5.2247e-05 1 
-1.98078e-05 0.000463509 1 
-3.74241e-05 0.000442169 1 
-9.62192e-05 0.000514656 1 
-0.000146282 0.000587312 1 
-0.000171877 0.000679047 1 
-0.000210256 0.000787575 1 
-0.000233696 0.000936476 1 
-0.00025813 0.00109011 0.999999 
-0.000263782 0.00130964 0.999999 
-0.000268785 0.00157962 0.999999 
-0.00027306 0.00193438 0.999998 
-0.000287116 0.00239589 0.999997 
-0.000295691 0.00298184 0.999996 
-0.00032116 0.00374679 0.999993 
-0.000359897 0.00475118 0.999989 
-0.000413862 0.00606028 0.999982 
-0.000480354 0.00777456 0.99997 
-0.000589301 0.00991978 0.999951 
-0.000749511 0.0126537 0.99992 
-0.000971895 0.0159704 0.999872 
-0.00131641 0.020231 0.999794 
-0.00169064 0.0254496 0.999675 
-0.00211472 0.0322297 0.999478 
-0.0023733 0.0402501 0.999187 
-0.00254446 0.0513128 0.998679 
-0.00202577 0.0626064 0.998036 
-0.00124103 0.0827623 0.996569 
0.000434165 0.102281 0.994755 
0.00413332 0.128929 0.991645 
0.00920999 0.162829 0.986611 
0.0216819 0.196169 0.98033 
0.044175 0.244094 0.968745 
0.0702489 0.293357 0.953418 
0.101712 0.405776 0.908295 
0.148084 0.421214 0.894791 
0.19641 0.55633 0.807416 
0.272781 0.628123 0.728733 
0.147259 0.867089 0.47589 
0.0203786 0.995862 0.0885651 
-0.0948117 0.943369 -0.317908 
-0.237228 0.716124 -0.656421 
-0.20097 0.520271 -0.830017 
-0.145892 0.363032 -0.920285 
-0.103896 0.427376 -0.898084 
-0.0957496 0.300111 -0.949087 
-0.0432289 0.278583 -0.959439 
-0.0336259 0.213509 -0.976362 
-0.0146907 0.18073 -0.983423 
-0.00724943 0.148234 -0.988926 
-0.00288181 0.118102 -0.992997 
-0.000313323 0.0943187 -0.995542 
0.000511775 0.0753328 -0.997158 
0.00152864 0.0594787 -0.998228 
0.00191215 0.0475279 -0.998868 
0.00197904 0.0377259 -0.999286 
0.00169493 0.0296178 -0.99956 
0.00120846 0.022919 -0.999737 
0.000919844 0.0180795 -0.999836 
0.000661498 0.0142417 -0.999898 
0.000484441 0.0111386 -0.999938 
0.000379497 0.00866284 -0.999962 
0.000339539 0.0067739 -0.999977 
0.000306073 0.00527339 -0.999986 
0.000286524 0.00416014 -0.999991 
0.000275019 0.00328102 -0.999995 
0.000269197 0.00262834 -0.999997 
0.000262925 0.00213227 -0.999998 
0.000258092 0.00173594 -0.999998 
0.000250378 0.00142986 -0.999999 
0.000237633 0.00117491 -0.999999 
0.000225801 0.00097467 -0.999999 
0.000197754 0.000808402 -1 
0.00016772 0.000676033 -1 
0.000128028 0.000578368 -1 
8.84738e-05 0.000501688 -1 
4.60719e-05 0.000462471 -1 
2.02573e-06 0.000436154 -1 
-3.50462e-05 -9.21413e-05 -1 
-6.85358e-06 -5.90421e-05 1 
-3.01512e-05 0.000485345 1 
-5.95117e-05 0.000482379 1 
-9.21993e-05 0.000536073 1 
-0.000129379 0.000583766 1 
-0.000156666 0.000681613 1 
-0.000195752 0.000806308 1 
-0.000213443 0.000958925 1 
-0.000232599 0.00114009 0.999999 
-0.000229868 0.00137135 0.999999 
-0.00022975 0.00166849 0.999999 
-0.000227744 0.00207109 0.999998 
-0.000226446 0.00254281 0.999997 
-0.000223088 0.00318703 0.999995 
-0.000230433 0.00401424 0.999992 
-0.000243638 0.00509726 0.999987 
-0.000262669 0.00649575 0.999979 
-0.000286732 0.00831004 0.999965 
-0.000352841 0.0106172 0.999944 
-0.0004545 0.0134804 0.999909 
-0.000647069 0.0171607 0.999853 
-0.000872757 0.0215125 0.999768 
-0.00115404 0.0272278 0.999629 
-0.00132985 0.0340417 0.99942 
-0.00145254 0.0432831 0.999062 
-0.000980613 0.0526196 0.998614 
-0.000219028 0.0684418 0.997655 
0.00195299 0.0843554 0.996434 
0.00493339 0.105262 0.994432 
0.0107487 0.132888 0.991073 
0.0193675 0.159715 0.986973 
0.0373839 0.197139 0.979663 
0.0647865 0.225452 0.972098 
0.133398 0.267207 0.954361 
0.103784 0.295174 0.94979 
0.199794 0.35294 0.914065 
0.289606 0.377141 0.879712 
0.440825 0.51969 0.731844 
0.295069 0.827535 0.477619 
0.0359559 0.997163 0.0661321 
-0.225693 0.901086 -0.37028 
-0.416062 0.618524 -0.666573 
-0.301444 0.45901 -0.835728 
-0.206845 0.326206 -0.922391 
-0.126858 0.250619 -0.959738 
-0.0823231 0.221167 -0.971755 
-0.0610413 0.25423 -0.965216 
-0.0506752 0.200451 -0.978392 
-0.0219625 0.168262 -0.985498 
-0.012422 0.13616 -0.990609 
-0.00669404 0.11159 -0.993732 
-0.00313969 0.0892474 -0.996005 
-0.000872 0.0691683 -0.997605 
0.000253881 0.0552307 -0.998474 
0.00086285 0.0439588 -0.999033 
0.00102106 0.0349643 -0.999388 
0.000868372 0.0274894 -0.999622 
0.00053965 0.021468 -0.999769 
0.000367369 0.0169869 -0.999856 
0.000238052 0.0133138 -0.999911 
0.00018039 0.0104355 -0.999946 
0.00015929 0.00809515 -0.999967 
0.000173954 0.00634064 -0.99998 
0.000178983 0.00498794 -0.999988 
0.000191501 0.00392434 -0.999992 
0.000196703 0.00312039 -0.999995 
0.000202881 0.00251978 -0.999997 
0.000209705 0.00204237 -0.999998 
0.000212163 0.00167513 -0.999999 
0.000212377 0.0013735 -0.999999 
0.000205754 0.00112616 -0.999999 
0.000198197 0.000945202 -1 
0.000175125 0.000800618 -1 
0.000155057 0.000687662 -1 
0.000120351 0.000595664 -1 
8.62114e-05 0.000523389 -1 
4.99236e-05 0.000486852 -1 
1.36856e-05 0.000468204 -1 
-4.45631e-06 -7.04284e-05 -1 
-2.06565e-05 -5.65573e-05 1 
-3.60171e-05 0.000500745 1 
-5.92393e-05 0.000502773 1 
-8.40944e-05 0.000548798 1 
-0.000121382 0.000602485 1 
-0.000138633 0.000691376 1 
-0.0001725 0.000797514 1 
-0.00018598 0.000949662 1 
-0.000199783 0.00114722 0.999999 
-0.000192503 0.00138886 0.999999 