# vtk DataFile Version 3.0 
Exported using Morpho https://github.com/Morpho-lang/morpho 
ASCII 
DATASET UNSTRUCTURED_GRID 

POINTS 1978 float 
-8.48528 -2.82843 -1.7524e-19 
-8.25466 -2.82843 -1.69995e-19 
-8.02296 -2.82843 -7.165e-20 
-7.78434 -2.82843 -9.88395e-20 
-7.47519 -2.82843 -1.97068e-19 
-7.21744 -2.82843 7.00822e-20 
-6.96376 -2.82843 -1.8752e-19 
-6.76765 -2.82843 -2.94628e-19 
-6.56266 -2.82843 -1.60244e-20 
-6.37272 -2.82843 -1.43529e-19 
-6.16059 -2.82843 -2.14742e-19 
-5.95298 -2.82843 2.91198e-20 
-5.74398 -2.82843 -1.62327e-19 
-5.53797 -2.82843 -1.17804e-19 
-5.31578 -2.82843 4.63107e-19 
-5.09879 -2.82843 1.32563e-18 
-4.88814 -2.82843 3.27826e-18 
-4.679 -2.82843 7.48456e-18 
-4.46968 -2.82843 1.76472e-17 
-4.26173 -2.82843 3.92301e-17 
-4.05519 -2.82843 8.3679e-17 
-3.85081 -2.82843 1.72584e-16 
-3.6496 -2.82843 3.50415e-16 
-3.44372 -2.82843 6.96994e-16 
-3.23699 -2.82843 1.30906e-15 
-3.0379 -2.82843 2.65307e-15 
-2.83075 -2.82843 4.92513e-15 
-2.64008 -2.82843 9.71245e-15 
-2.44357 -2.82843 1.78458e-14 
-2.24924 -2.82843 3.07796e-14 
-2.05187 -2.82843 5.65744e-14 
-1.87184 -2.82843 9.38795e-14 
-1.69965 -2.82843 1.74538e-13 
-1.51756 -2.82843 2.89174e-13 
-1.33561 -2.82843 4.25944e-13 
-1.15845 -2.82843 7.81161e-13 
-0.935714 -2.82843 1.43023e-12 
-0.716223 -2.82843 7.41522e-12 
-0.245869 -2.82843 2.90411e-12 
0.104856 -2.82843 -2.23332e-12 
0.478694 -2.82843 -6.28583e-12 
0.758025 -2.82843 -1.8838e-12 
0.960199 -2.82843 -7.49676e-13 
1.10713 -2.82843 -5.81509e-13 
1.268 -2.82843 -5.33877e-13 
1.43349 -2.82843 -2.86024e-13 
1.63309 -2.82843 -1.88125e-13 
1.82866 -2.82843 -1.18087e-13 
2.04048 -2.82843 -6.68856e-14 
2.25769 -2.82843 -3.5881e-14 
2.47239 -2.82843 -1.76245e-14 
2.66869 -2.82843 -8.55651e-15 
2.86457 -2.82843 -4.53115e-15 
3.06289 -2.82843 -2.41006e-15 
3.26467 -2.82843 -1.25285e-15 
3.44776 -2.82843 -6.22113e-16 
3.64458 -2.82843 -3.30224e-16 
3.84836 -2.82843 -1.71089e-16 
4.05148 -2.82843 -8.11303e-17 
4.25533 -2.82843 -4.08639e-17 
4.45908 -2.82843 -1.45473e-17 
4.67355 -2.82843 -8.01347e-18 
4.88305 -2.82843 -2.41403e-18 
5.09161 -2.82843 -1.28756e-18 
5.29696 -2.82843 -4.7197e-19 
5.50922 -2.82843 -2.76656e-20 
5.7239 -2.82843 1.386e-19 
5.93923 -2.82843 1.54577e-19 
6.16663 -2.82843 1.56947e-19 
6.38086 -2.82843 9.69547e-20 
6.60684 -2.82843 7.31274e-20 
6.83034 -2.82843 9.61033e-20 
7.0442 -2.82843 1.12645e-19 
7.30101 -2.82843 1.20979e-19 
7.53807 -2.82843 1.93465e-19 
7.76094 -2.82843 4.80513e-20 
8.03313 -2.82843 1.28411e-19 
8.22521 -2.82843 2.19248e-19 
8.48528 -2.82843 4.37101e-20 
-8.48528 -2.59928 2.55518e-19 
-8.25887 -2.59865 -7.03652e-20 
-8.02495 -2.59142 2.33766e-20 
-7.77702 -2.60422 2.25571e-20 
-7.52567 -2.64734 -3.8065e-20 
-7.246 -2.61933 -1.25736e-19 
-6.97927 -2.5902 4.13212e-20 
-6.75409 -2.59072 7.90198e-20 
-6.54204 -2.57296 -1.32972e-20 
-6.32056 -2.59694 -3.94212e-20 
-6.09927 -2.58852 -3.40111e-20 
-5.88131 -2.58705 -6.05927e-20 
-5.66796 -2.58327 -1.20509e-19 
-5.44457 -2.60391 -2.6117e-19 
-5.21684 -2.60097 -5.78369e-19 
-4.99544 -2.59705 -1.3232e-18 
-4.77702 -2.59762 -1.87863e-18 
-4.5583 -2.59922 -4.23694e-18 
-4.34036 -2.59922 -9.51325e-18 
-4.12255 -2.59736 -2.08815e-17 
-3.90587 -2.59615 -4.3722e-17 
-3.69069 -2.59297 -8.90214e-17 
-3.47623 -2.60035 3.99337e-16 
-3.25473 -2.59894 8.223e-16 
-3.03419 -2.5875 1.63345e-15 
-2.82205 -2.58632 3.60053e-15 
-2.6074 -2.59807 7.47293e-15 
-2.3936 -2.59071 1.79993e-14 
-2.18815 -2.39768 2.12357e-14 
-2.1726 -2.6152 -8.35639e-15 
-1.96262 -2.5784 -1.36275e-14 
-1.76763 -2.55903 -3.34699e-14 
-1.58071 -2.56647 -6.95324e-14 
-1.3884 -2.52732 -1.18988e-13 
-1.20466 -2.5002 -2.31635e-13 
-1.02041 -2.57539 -2.38769e-13 
-0.799635 -2.57012 -4.09079e-13 
-0.521905 -2.70426 -6.3136e-13 
-0.300237 -2.57989 -4.49533e-13 
-0.0449353 -2.65147 -2.20522e-13 
0.304085 -2.66598 5.5414e-13 
0.610951 -2.62141 5.03044e-13 
0.868012 -2.61202 2.21822e-13 
1.05046 -2.28016 2.32583e-13 
1.07176 -2.52719 2.32948e-13 
1.23993 -2.54873 1.8914e-13 
1.42756 -2.55558 6.87483e-14 
1.62554 -2.57304 4.79944e-14 
1.84874 -2.60027 1.78612e-14 
2.08083 -2.60587 9.88547e-15 
2.31831 -2.60973 -1.85755e-14 
2.54464 -2.58545 -1.2451e-14 
2.75652 -2.58932 -4.71296e-15 
2.97146 -2.59484 -2.29786e-15 
3.18929 -2.60012 -1.14999e-15 
3.40046 -2.57623 -5.49984e-16 
3.60317 -2.59145 -2.69306e-16 
3.81694 -2.597 5.96442e-17 
4.03272 -2.59568 2.86112e-17 
4.24924 -2.58683 1.48174e-17 
4.46716 -2.59804 5.02247e-18 
4.68476 -2.59596 2.48252e-18 
4.90118 -2.59569 1.76181e-18 
5.116 -2.59201 7.86883e-19 
5.33299 -2.59659 3.64115e-19 
5.55285 -2.59662 1.76396e-19 
5.77409 -2.59467 9.48783e-20 
6.00302 -2.60371 4.96512e-20 
6.22574 -2.58731 2.76684e-20 
6.4511 -2.59684 1.63846e-20 
6.6795 -2.59147 9.85836e-21 
6.8988 -2.57884 5.52052e-21 
7.13926 -2.61787 4.02439e-21 
7.38796 -2.60104 2.31725e-21 
7.61425 -2.58468 9.53841e-22 
7.86487 -2.62769 6.59037e-22 
8.07208 -2.54611 4.7751e-22 
8.29885 -2.61829 -1.1195e-21 
8.48528 -2.5351 -1.59768e-19 
-8.48528 -2.36813 2.25569e-19 
-8.24524 -2.37159 -7.53087e-22 
-8.00586 -2.35298 -8.11499e-22 
-7.77926 -2.38912 -8.61372e-22 
-7.58679 -2.22807 -1.23582e-21 
-7.50715 -2.44275 -2.78205e-21 
-7.218 -2.42078 -6.79255e-21 
-6.97435 -2.3598 -8.52716e-21 
-6.74048 -2.35459 -1.01169e-20 
-6.50035 -2.34977 -1.92167e-20 
-6.27529 -2.36441 -3.31439e-20 
-6.04938 -2.35122 -5.82199e-20 
-5.83255 -2.34589 -1.15345e-19 
-5.60252 -2.3609 -2.30593e-19 
-5.3785 -2.38009 -4.83351e-19 
-5.15507 -2.37249 -1.07773e-18 
-4.93517 -2.36905 -1.33611e-18 
-4.71609 -2.37198 -3.05976e-18 
-4.49964 -2.3721 -6.89079e-18 
-4.2847 -2.3719 -1.52319e-17 
-4.07017 -2.36833 -3.30194e-17 
-3.85852 -2.36485 -6.94268e-17 
-3.64577 -2.36276 2.45195e-16 
-3.43149 -2.3753 4.82905e-16 
-3.21598 -2.36998 9.67202e-16 
-3.00146 -2.35588 2.01804e-15 
-2.78663 -2.35869 4.33678e-15 
-2.57221 -2.37144 8.24927e-15 
-2.37526 -2.33275 1.63563e-14 
-1.9972 -2.33566 -1.42268e-14 
-1.79273 -2.31842 -2.55307e-14 
-1.57982 -2.30106 -3.21292e-14 
-1.38751 -2.23875 -8.15956e-14 
-1.14716 -2.27269 -1.10828e-13 
-0.920214 -2.31595 -2.83275e-13 
-0.714766 -2.27474 -3.75973e-13 
-0.578149 -2.47313 -4.21659e-13 
-0.399489 -2.33072 -4.4053e-13 
-0.143636 -2.38453 -5.83994e-13 
0.103617 -2.4776 3.52556e-13 
0.365457 -2.45543 6.22374e-13 
0.624752 -2.40552 3.15593e-13 
0.85382 -2.38956 3.06841e-13 
0.802011 -2.17179 1.80543e-13 
1.00946 -2.04732 2.59549e-13 
1.24879 -2.2809 1.21379e-13 
1.43848 -2.27957 6.32427e-14 
1.63209 -2.3254 3.21965e-14 
1.84142 -2.36793 2.39774e-14 
2.05933 -2.38534 9.298e-15 
2.29404 -2.3916 5.12379e-15 
2.51639 -2.35576 -7.98015e-15 
2.73521 -2.3523 -4.97745e-15 
2.9449 -2.36298 -2.48833e-15 
3.15983 -2.37314 -1.22875e-15 
3.3745 -2.34856 -6.26075e-16 
3.59194 -2.34916 -3.01967e-16 
3.79746 -2.36793 8.30277e-17 
4.01274 -2.36759 4.06184e-17 
4.22764 -2.36105 1.84217e-17 
4.44615 -2.36599 8.3849e-18 
4.65856 -2.36764 3.82662e-18 
4.87524 -2.36517 1.70233e-18 
5.08924 -2.36096 1.4213e-18 
5.3056 -2.36445 6.39867e-19 
5.52067 -2.36643 3.05878e-19 
5.73962 -2.36418 1.54797e-19 
5.96307 -2.37603 7.99066e-20 
6.18598 -2.35635 4.4314e-20 
6.41295 -2.36044 2.47997e-20 
6.63487 -2.35994 1.45313e-20 
6.86062 -2.33549 1.00669e-20 
7.0873 -2.38318 4.79849e-21 
7.31868 -2.38827 3.09769e-21 
7.55833 -2.34491 2.56885e-21 
7.79183 -2.39533 1.28044e-21 
8.00385 -2.31621 -6.72579e-22 
8.24891 -2.3581 2.34261e-22 
8.48528 -2.30704 -1.9626e-19 
-8.48528 -2.13631 1.7708e-19 
-8.25262 -2.14438 -1.24498e-21 
-8.0359 -2.10065 1.14028e-22 
-7.81326 -2.13128 1.52548e-21 
-7.49694 -2.02657 -8.23618e-22 
-7.32593 -2.24033 -2.20846e-21 
-7.07389 -2.16331 -3.96891e-21 
-6.81217 -2.13299 -7.61923e-21 
-6.57257 -2.13212 -1.06541e-20 
-6.33204 -2.12659 -1.94787e-20 
-6.11253 -2.12204 -3.32812e-20 
-5.89182 -2.1079 -5.67111e-20 
-5.66956 -2.13109 -1.1556e-19 
-5.44372 -2.1448 -2.41931e-19 
-5.22971 -2.14762 -4.95092e-19 
-5.01103 -2.14194 -1.03202e-18 
-4.79373 -2.14487 -2.33194e-18 
-4.5788 -2.14413 -2.77181e-18 
-4.36527 -2.14289 -6.0238e-18 
-4.15312 -2.14159 -1.28287e-17 
-3.93992 -2.13412 -2.69365e-17 
-3.72763 -2.13311 -5.67841e-17 
-3.51016 -2.14068 -1.19188e-16 
-3.29859 -2.14352 4.33319e-16 
-3.08202 -2.13251 8.88777e-16 
-2.86108 -2.12981 1.66656e-15 
-2.63728 -2.1412 3.68398e-15 
-2.42869 -2.10144 4.76739e-15 
-2.19305 -2.14184 1.60786e-14 
-1.97242 -2.09331 2.12664e-14 
-1.74871 -2.08352 2.12091e-14 
-1.54034 -2.03406 -4.81003e-15 
-1.39602 -1.86173 -8.78598e-14 
-1.25351 -2.05181 3.32658e-14 
-0.994529 -2.05982 -1.65269e-13 
-0.781577 -2.02847 -5.58534e-13 
-0.521417 -2.13242 -4.80048e-13 
-0.451769 -1.94735 -9.04441e-13 
-0.218267 -2.15191 -6.01082e-13 
0.0562741 -2.22022 3.88218e-13 
0.289832 -2.23059 3.69761e-13 
0.443505 -1.98173 5.69252e-13 
0.533105 -2.21258 5.45515e-13 
0.683872 -1.9951 4.7064e-13 
0.895066 -1.85835 -1.19566e-14 
1.22361 -2.027 2.49353e-14 
1.44305 -2.03824 2.77218e-14 
1.66079 -2.0789 1.86548e-14 
1.87315 -2.13086 -1.97082e-14 
2.09962 -2.16687 4.97587e-15 
2.32294 -2.16141 -1.1434e-14 
2.54701 -2.11948 -4.3905e-15 
2.75638 -2.11155 -2.08429e-15 
2.97326 -2.13446 -1.10691e-15 
3.18693 -2.14054 -5.66744e-16 
3.41092 -2.12327 -2.47276e-16 
3.62461 -2.11445 6.70108e-17 
3.83787 -2.14094 3.89392e-17 
4.05274 -2.13818 1.70611e-17 
4.26981 -2.13645 8.07021e-18 
4.48238 -2.13304 3.675e-18 
4.69726 -2.13966 1.59277e-18 
4.90981 -2.1323 1.28584e-18 
5.12654 -2.13272 6.03594e-19 
5.33938 -2.13157 2.99774e-19 
5.55543 -2.13522 1.60157e-19 
5.77872 -2.13816 8.68213e-20 
5.99624 -2.14136 4.90054e-20 
6.22465 -2.12781 2.58592e-20 
6.44384 -2.12211 1.37802e-20 
6.66585 -2.12235 8.57171e-21 
6.89733 -2.10284 4.7234e-21 
7.11779 -2.15188 4.82017e-21 
7.34844 -2.15775 1.78408e-21 
7.55497 -2.08627 3.80549e-22 
7.76351 -2.15457 2.60992e-21 
7.98857 -2.08322 5.20548e-22 
8.22196 -2.13502 -1.01013e-21 
8.48528 -2.10347 -1.83587e-19 
-8.48528 -1.83345 3.0206e-19 
-8.30766 -1.90691 4.41258e-21 
-7.912 -1.86997 -6.99379e-22 
-7.68757 -1.91208 1.29823e-22 
[...]
POINT_DATA 1978 
VECTORS vectors float
1.67273e-06 2.01168e-05 1 
-7.10637e-07 0.000117879 1 
-2.29554e-08 0.000210421 1 
-1.39173e-07 0.000312082 1 
-1.84699e-07 0.000469943 1 
1.78993e-07 0.000643053 1 
5.69183e-08 0.000789104 1 
-7.41381e-07 0.000960737 1 
-3.87365e-08 0.00114223 0.999999 
-3.42241e-07 0.00134361 0.999999 
8.47721e-08 0.00160282 0.999999 
-9.20932e-08 0.0019176 0.999998 
-1.62263e-07 0.00231395 0.999997 
1.29343e-07 0.00280678 0.999996 
8.2826e-07 0.00348472 0.999994 
3.2826e-07 0.00434656 0.999991 
-1.89975e-09 0.0054575 0.999985 
1.56161e-07 0.00692401 0.999976 
9.40074e-08 0.00887178 0.999961 
-2.82271e-07 0.011427 0.999935 
-1.32821e-06 0.0147536 0.999891 
-3.09709e-06 0.0189429 0.999821 
-4.98602e-06 0.0241865 0.999707 
6.10906e-06 0.0308984 0.999523 
-2.22482e-05 0.0393413 0.999226 
2.77502e-05 0.0500028 0.998749 
-4.50699e-05 0.0629782 0.998015 
-3.64669e-05 0.0804265 0.996761 
1.14519e-05 0.100976 0.994889 
-5.7437e-05 0.126702 0.991941 
-5.37743e-05 0.15799 0.987441 
-0.000192726 0.19694 0.980416 
-0.00018559 0.247072 0.968997 
-0.000284456 0.312689 0.949856 
-0.000237542 0.390333 0.920674 
-0.000229535 0.473182 0.880965 
-8.02263e-05 0.591675 0.806176 
1.88194e-05 0.719136 0.694869 
8.68668e-05 0.961847 0.273589 
0.000246974 0.990244 -0.139342 
0.000177701 0.849412 -0.52773 
6.11444e-05 0.685423 -0.728145 
0.000473967 0.591922 -0.805995 
0.000469477 0.514361 -0.857573 
0.000594578 0.428859 -0.903371 
0.000215752 0.347352 -0.937735 
6.58867e-05 0.275898 -0.961187 
0.000121138 0.207226 -0.978293 
-0.000151776 0.162146 -0.986767 
1.83552e-05 0.12544 -0.992101 
1.93387e-05 0.0967756 -0.995306 
1.0779e-05 0.0767484 -0.99705 
2.39094e-05 0.0611826 -0.998127 
1.0556e-05 0.0487018 -0.998813 
1.45017e-05 0.0381822 -0.999271 
1.462e-05 0.0307274 -0.999528 
6.34158e-06 0.0244279 -0.999702 
1.34049e-06 0.0191271 -0.999817 
-4.5037e-07 0.0150107 -0.999887 
3.209e-06 0.0117512 -0.999931 
3.60549e-07 0.00912389 -0.999958 
-2.09883e-06 0.00711308 -0.999975 
5.16534e-07 0.00561115 -0.999984 
2.37539e-07 0.00447806 -0.99999 
6.31916e-08 0.00363251 -0.999993 
-2.01431e-07 0.00295657 -0.999996 
-1.92388e-07 0.00241889 -0.999997 
-2.6585e-07 0.0019884 -0.999998 
-2.14192e-07 0.00162418 -0.999999 
-1.04699e-07 0.00134713 -0.999999 
-1.21503e-07 0.00110719 -0.999999 
1.20205e-08 0.000909143 -1 
-8.62965e-08 0.000744677 -1 
-1.99371e-07 0.000569889 -1 
2.24364e-08 0.000430804 -1 
-3.75555e-08 0.000316118 -1 
-1.354e-07 0.00019269 -1 
5.52394e-07 0.000116439 -1 
-1.04562e-06 1.28441e-05 -1 
7.52139e-05 7.61777e-05 1 
1.67423e-05 0.000160344 1 
-1.99822e-05 0.000241001 1 
-4.85808e-05 0.000334299 1 
-5.87682e-05 0.000446995 1 
-8.35927e-05 0.000618195 1 
-0.000127379 0.000792177 1 
-0.000139127 0.000962676 1 
-0.000164389 0.00115409 0.999999 
-0.000171532 0.0014012 0.999999 
-0.000200677 0.00170115 0.999999 
-0.000230122 0.00207158 0.999998 
-0.00027746 0.00253587 0.999997 
-0.000323 0.00314654 0.999995 
-0.000418234 0.00397113 0.999992 
-0.000551155 0.00503557 0.999987 
-0.000722944 0.0064336 0.999979 
-0.000947764 0.00829307 0.999965 
-0.00124908 0.0107348 0.999942 
-0.00163631 0.0139188 0.999902 
-0.00212964 0.018016 0.999835 
-0.00272754 0.0232578 0.999726 
-0.00334243 0.0299108 0.999547 
-0.00413655 0.0385754 0.999247 
-0.00520801 0.0498805 0.998742 
-0.00621133 0.0644484 0.997902 
-0.00749502 0.0837573 0.996458 
-0.00896211 0.109445 0.993952 
-0.0148309 0.133939 0.990879 
-0.0109263 0.144178 0.989491 
-0.0138569 0.187329 0.982199 
-0.0170879 0.243664 0.969709 
-0.0185485 0.309034 0.95087 
-0.020716 0.383986 0.923107 
-0.0220661 0.454223 0.890615 
-0.018712 0.546663 0.837143 
-0.0183211 0.670809 0.741404 
-0.0120412 0.839224 0.543653 
-0.00948946 0.945134 0.326546 
-0.000898429 0.999661 0.0260241 
0.00692106 0.943922 -0.330095 
0.0109595 0.803192 -0.59562 
0.0134878 0.659782 -0.751336 
0.0153059 0.521809 -0.852925 
0.018021 0.540463 -0.841174 
0.0177734 0.442272 -0.896705 
0.0172609 0.346432 -0.937916 
0.0152299 0.267111 -0.963546 
0.0136729 0.20271 -0.979143 
0.011042 0.153436 -0.988097 
0.0092287 0.115998 -0.993207 
0.00820862 0.0898872 -0.995918 
0.00677684 0.0704903 -0.997489 
0.00549386 0.0551414 -0.998463 
0.00439169 0.0427252 -0.999077 
0.00385081 0.0334469 -0.999433 
0.00294208 0.0263242 -0.999649 
0.00225146 0.0203687 -0.99979 
0.00176603 0.0157258 -0.999875 
0.00136906 0.0121386 -0.999925 
0.00101298 0.00935818 -0.999956 
0.00077564 0.00727106 -0.999973 
0.000593008 0.00568434 -0.999984 
0.000466659 0.00450412 -0.99999 
0.000360724 0.0035889 -0.999993 
0.00029319 0.00288481 -0.999996 
0.000247946 0.00233885 -0.999997 
0.000204828 0.00189383 -0.999998 
0.000188422 0.00155467 -0.999999 
0.000159792 0.00127593 -0.999999 
0.000143035 0.00104439 -0.999999 
0.000130638 0.000859335 -1 
9.6276e-05 0.000682648 -1 
8.33246e-05 0.000527781 -1 
6.58249e-05 0.000406759 -1 
3.40649e-05 0.000285677 -1 
1.37122e-05 0.000218838 -1 
-2.26869e-05 0.000129498 -1 
-8.30601e-05 8.36269e-05 -1 
9.68922e-05 0.000149116 1 
2.06141e-05 0.000227655 1 
-3.66016e-05 0.000295177 1 
-7.85246e-05 0.000369134 1 
-0.000128868 0.000475549 1 
-0.000107777 0.000473687 1 
-0.000143627 0.000627226 1 
-0.000199039 0.000799271 1 
-0.000231536 0.00100034 0.999999 
-0.00026126 0.0012368 0.999999 
-0.000288816 0.00150633 0.999999 
-0.000331548 0.00184795 0.999998 
-0.000381662 0.00225862 0.999997 
-0.000449646 0.00281064 0.999996 
-0.000544735 0.0035176 0.999994 
-0.000697503 0.00446832 0.99999 
-0.000904486 0.00571562 0.999983 
-0.00118504 0.0073706 0.999972 
-0.00156005 0.00952778 0.999953 
-0.00204812 0.0123086 0.999922 
-0.00267984 0.0158686 0.99987 
-0.00346693 0.0203978 0.999786 
-0.00440068 0.0261969 0.999647 
-0.00541032 0.0334722 0.999425 
-0.00661491 0.0427756 0.999063 
-0.00808816 0.0550445 0.998451 
-0.00967517 0.0700596 0.997496 
-0.011434 0.0895409 0.995918 
-0.0133478 0.108711 0.993984 
-0.0171631 0.175199 0.984383 
-0.0191022 0.227581 0.973572 
-0.0202607 0.297137 0.95462 
-0.0173078 0.360254 0.932694 
-0.0144213 0.451406 0.892202 
-0.0182133 0.559287 0.828774 
-0.01394 0.682368 0.730876 
-0.0170567 0.799339 0.600639 
-0.00887272 0.892578 0.450806 
-0.00470266 0.982268 0.187423 
0.00111057 0.996938 -0.0781871 
0.00700957 0.930209 -0.366964 
0.012038 0.795048 -0.606428 
0.0160424 0.658423 -0.752477 
0.00500191 0.656618 -0.754207 
-0.0023488 0.518916 -0.854822 
0.0187159 0.414869 -0.909689 
0.0185985 0.331308 -0.943339 
0.0196722 0.269285 -0.962859 
0.0182431 0.209967 -0.977538 
0.0160764 0.162203 -0.986626 
0.013717 0.124695 -0.9921 
0.0118113 0.0958323 -0.995327 
0.00998336 0.0746039 -0.997163 
0.00829473 0.0587331 -0.998239 
0.00676853 0.0458515 -0.998925 
0.00562672 0.0358609 -0.999341 
0.00447912 0.0278045 -0.999603 
0.00350208 0.0217459 -0.999757 
0.0027169 0.0168455 -0.999854 
0.00208608 0.0130798 -0.999912 
0.00157162 0.010135 -0.999947 
0.00119769 0.00790827 -0.999968 
0.000917691 0.00618019 -0.99998 
0.000718043 0.00487132 -0.999988 
0.000568726 0.00385315 -0.999992 
0.000468177 0.00308561 -0.999995 
0.000398482 0.00248831 -0.999997 
0.000339874 0.00201308 -0.999998 
0.000304719 0.00164771 -0.999999 
0.000268379 0.00134732 -0.999999 
0.000238706 0.00110933 -0.999999 
0.000216579 0.000909069 -1 
0.000176953 0.000737851 -1 
0.000145283 0.000589114 -1 
0.000115985 0.000463089 -1 
7.20273e-05 0.000351264 -1 
3.64854e-05 0.000290364 -1 
-2.36881e-05 0.000214837 -1 
-9.95658e-05 0.00015892 -1 
9.7033e-05 0.000209012 1 
2.06535e-05 0.000293963 1 
-3.78564e-05 0.000347169 1 
-8.77529e-05 0.000402135 1 
-0.0001536 0.000534789 1 
-0.000168792 0.000599413 1 
-0.000218781 0.000753527 1 
-0.000259315 0.000955321 1 
-0.000292279 0.0011801 0.999999 
-0.000324706 0.00145174 0.999999 
-0.000358213 0.0017604 0.999998 
-0.000401706 0.00216089 0.999998 
-0.000461608 0.00266545 0.999996 
-0.000551916 0.00334917 0.999994 
-0.000675084 0.00421416 0.999991 
-0.000850316 0.00539673 0.999985 
-0.00109633 0.00695688 0.999975 
-0.00142809 0.00899404 0.999959 
-0.00186666 0.0115985 0.999931 
-0.00242974 0.0148694 0.999886 
-0.00315566 0.019062 0.999813 
-0.00405409 0.0244044 0.999694 
-0.00510331 0.0312834 0.999498 
-0.00620572 0.0396951 0.999193 
-0.00746527 0.050642 0.998689 
-0.00877033 0.0644692 0.997881 
-0.0102997 0.0829033 0.996504 
-0.0113164 0.105414 0.994364 
-0.0138872 0.138326 0.990289 
-0.0136028 0.176476 0.984211 
-0.0131208 0.226165 0.974001 
-0.0104519 0.28411 0.958735 
0.00182956 0.328284 0.944577 
0.00239746 0.403508 0.914973 
0.000407847 0.541293 0.840834 
0.00951779 0.658438 0.752575 
-0.00113958 0.800033 0.599954 
0.0185316 0.849526 0.527222 
0.00209417 0.961943 0.273242 
-0.00299157 0.996794 -0.0799597 
-0.00284823 0.932473 -0.361227 
-0.0240588 0.826182 -0.56289 
0.00265131 0.816334 -0.577574 
-0.016155 0.691318 -0.72237 
-0.0296988 0.563071 -0.825875 
0.00350867 0.406514 -0.913638 
0.00558439 0.316462 -0.948589 
0.01258 0.254907 -0.966884 
0.0140954 0.196872 -0.980328 
0.0136613 0.15413 -0.987956 
0.0123915 0.119776 -0.992724 
0.0105905 0.092963 -0.995613 
0.0090844 0.0734843 -0.997255 
0.00779345 0.0577038 -0.998303 
0.00656705 0.0453707 -0.998949 
0.00531975 0.0351628 -0.999367 
0.00424519 0.0274856 -0.999613 
0.00338493 0.021395 -0.999765 
0.00261173 0.0166713 -0.999858 
0.00198986 0.0129881 -0.999914 
0.00151177 0.0101792 -0.999947 
0.00115023 0.0079396 -0.999968 
0.000890817 0.0062148 -0.99998 
0.000702635 0.00484992 -0.999988 
0.000575558 0.00383932 -0.999992 
0.000488341 0.00305975 -0.999995 
0.000424953 0.0024478 -0.999997 
0.000376799 0.00199099 -0.999998 
0.00033714 0.0016173 -0.999999 
0.000305033 0.00133396 -0.999999 
0.000275011 0.00110059 -0.999999 
0.000245535 0.000901208 -1 
0.000207796 0.000734249 -1 
0.000170846 0.000594216 -1 
0.000137148 0.000498772 -1 
9.38131e-05 0.000403967 -1 
4.66316e-05 0.000348506 -1 
-1.60209e-05 0.000284774 -1 
-0.000100575 0.000214561 -1 
7.85636e-05 0.000282561 1 
3.11617e-05 0.000352461 1 
-7.42033e-05 0.000426589 1 
-0.000121699 0.000487946 1 
-0.000167026 0.000594778 1 
-0.000195033 0.000648246 1 
-0.000213786 0.000726603 1 
-0.000243963 0.000838007 1 
-0.000278265 0.00103944 0.999999 
-0.000305477 0.00127234 0.999999 
-0.000327266 0.00154407 0.999999 
-0.000353371 0.00187587 0.999998 
-0.000387312 0.0023246 0.999997 
-0.000444493 0.00289394 0.999996 
-0.000516935 0.00362644 0.999993 
-0.000626254 0.00460348 0.999989 
-0.000775659 0.0059335 0.999982 
-0.000982842 0.0076493 0.99997 
-0.00126535 0.00988367 0.99995 
-0.00163452 0.0126823 0.999918 
-0.002128 0.0162049 0.999866 
-0.00275854 0.0207043 0.999782 
-0.0035826 0.026545 0.999641 
-0.00442228 0.0337657 0.99942 
-0.005343 0.0429618 0.999062 
-0.00610988 0.0543201 0.998505 
-0.00715688 0.0702066 0.997507 
-0.00733236 0.0873667 0.996149 
-0.00833606 0.117597 0.993026 
-0.00796445 0.146851 0.989126 
-0.00444534 0.189444 0.981882 
0.000319098 0.237973 0.971272 
0.0133671 0.277035 0.960767 
0.0268664 0.352213 0.935534 
0.0208826 0.464436 0.88536 
0.0381033 0.567109 0.822761 
0.0407628 0.713577 0.69939 
0.0712344 0.770744 0.63315 
0.0266244 0.934155 0.355874 
-0.000983057 0.999809 0.0195423 
-0.0215133 0.947277 -0.319694 
-0.0603801 0.828597 -0.55658 
-0.0520009 0.679144 -0.732161 
-0.074548 0.544469 -0.835462 
-0.0239106 0.441131 -0.897124 
-0.0389081 0.34933 -0.936192 
-0.0141695 0.351443 -0.936102 
-0.00548377 0.263467 -0.964653 
0.00458428 0.214266 -0.976764 
0.00678098 0.163961 -0.986443 
0.00791292 0.129034 -0.991609 
0.00750137 0.10116 -0.994842 
0.00638841 0.0784561 -0.996897 
0.00605965 0.062282 -0.99804 
0.00540072 0.0491838 -0.998775 
0.00461803 0.0387262 -0.999239 
0.00360804 0.0299102 -0.999546 
0.00289248 0.0230831 -0.999729 
0.00226949 0.0181894 -0.999832 
0.00171571 0.0142193 -0.999897 
0.00128233 0.0111295 -0.999937 
0.000986266 0.00870581 -0.999962 
0.000770543 0.00680723 -0.999977 
0.000625677 0.0053126 -0.999986 
0.000516899 0.00416777 -0.999991 
0.000450996 0.00330952 -0.999994 
0.000405403 0.00265014 -0.999996 
0.00036661 0.00213855 -0.999998 
0.000337098 0.00174816 -0.999998 
0.000308337 0.00143095 -0.999999 
0.00028409 0.00118186 -0.999999 
0.000257813 0.000980224 -0.999999 
0.000223005 0.000792695 -1 
0.000188145 0.000655643 -1 
0.000144101 0.000540227 -1 
9.22629e-05 0.000439855 -1 
3.53212e-05 0.000383389 -1 
-2.80101e-05 0.00033696 -1 
-8.80344e-05 0.000284095 -1 
4.52168e-05 0.000350064 1 
9.91057e-06 0.000420275 1 
-2.19216e-05 0.000389425 1 
-7.75109e-05 0.000466197 1 
-0.000122882 0.00052325 1 
-0.000187215 0.00067589 1 
-0.000234243 0.000837655 1 
-0.000260251 0.000970791 0.999999 
-0.000284131 0.00119746 0.999999 
-0.000297121 0.001442 0.999999 
-0.000309989 0.00175765 0.999998 
-0.000328991 0.0021488 0.999998 
-0.000359148 0.00270372 0.999996 
-0.000398554 0.00337104 0.999994 
-0.000461955 0.00426635 0.999991 
-0.000550799 0.00544301 0.999985 
-0.000666258 0.00701908 0.999975 
-0.000833374 0.00901737 0.999959 
-0.00105651 0.0115618 0.999933 
-0.00136719 0.0147285 0.999891 
-0.00177583 0.0186454 0.999825 
-0.00234694 0.0237972 0.999714 
-0.00293886 0.0301659 0.999541 
-0.00355774 0.038289 0.99926 
-0.00395989 0.0480962 0.998835 
-0.00447119 0.0617254 0.998083 
-0.00386298 0.0763229 0.997076 
-0.00428706 0.0998434 0.994994 
-0.00208838 0.125134 0.992138 
0.000293359 0.158567 0.987348 
0.00871672 0.202745 0.979193 
0.0244914 0.244908 0.969237 
0.0419718 0.308034 0.950449 
0.0683907 0.383545 0.920987 
0.0478851 0.436292 0.89853 
0.0765913 0.556096 0.827581 
0.117562 0.581347 0.805118 
0.128846 0.753992 0.644124 
0.0560213 0.928443 0.367225 
-0.00348256 0.999861 -0.0162954 
-0.0557744 0.936955 -0.344972 
-0.141283 0.7685 -0.624057 
-0.101607 0.675655 -0.730182 
-0.13881 0.538454 -0.831143 
-0.0557315 0.446206 -0.893193 
-0.0705582 0.349852 -0.934144 
-0.0204946 0.279439 -0.959945 
-0.0217406 0.230306 -0.972875 
-0.00604496 0.199729 -0.979832 
-0.000662732 0.159163 -0.987252 
0.00205086 0.123137 -0.992388 
0.0032843 0.0960732 -0.995369 
0.00328244 0.0746863 -0.997202 
0.00356397 0.0591414 -0.998243 
0.00347116 0.0469655 -0.99889 
0.00312173 0.0367185 -0.999321 
0.00244534 0.0280451 -0.999604 
0.00190993 0.0220713 -0.999755 
0.00147986 0.0173533 -0.999848 
0.00109138 0.0136069 -0.999907 
0.000808725 0.0106205 -0.999943 
0.000636354 0.00831145 -0.999965 
0.000521343 0.00645431 -0.999979 
0.000445811 0.00505453 -0.999987 
0.000388102 0.00396536 -0.999992 
0.000356503 0.00314647 -0.999995 
0.000334345 0.00252747 -0.999997 
0.000313147 0.00204848 -0.999998 
0.000297643 0.0016767 -0.999999 
0.000279029 0.00137391 -0.999999 
0.000261316 0.00114048 -0.999999 
0.000238153 0.000931669 -1 
0.000207297 0.000775628 -1 
0.000174122 0.000647462 -1 
0.000134235 0.000557741 -1 
9.71128e-05 0.00047978 -1 
5.12197e-05 0.000435814 -1 
-5.94288e-06 0.000397674 -1 
-6.67233e-05 0.000334068 -1 
1.75565e-05 0.000386768 1 
-1.98078e-05 0.00046351 1 
-3.74241e-05 0.00044217 1 
-9.62193e-05 0.000514656 1 
-0.000146283 0.000587312 1 
-0.000171878 0.000679047 1 
-0.000210256 0.000787576 1 
-0.000233696 0.000936476 1 
-0.00025813 0.00109011 0.999999 
-0.000263782 0.00130964 0.999999 
-0.000268785 0.00157962 0.999999 
-0.00027306 0.00193438 0.999998 
-0.000287116 0.00239589 0.999997 
-0.000295691 0.00298184 0.999996 
-0.00032116 0.00374679 0.999993 
-0.000359897 0.00475118 0.999989 
-0.000413862 0.00606028 0.999982 
-0.000480354 0.00777456 0.99997 
-0.0005893 0.00991978 0.999951 
-0.00074951 0.0126537 0.99992 
-0.000971894 0.0159704 0.999872 
-0.00131641 0.020231 0.999794 
-0.00169064 0.0254496 0.999675 
-0.00211472 0.0322297 0.999478 
-0.0023733 0.0402501 0.999187 
-0.00254446 0.0513128 0.998679 
-0.00202577 0.0626063 0.998036 
-0.00124103 0.0827623 0.996569 
0.000434169 0.102281 0.994755 
0.00413331 0.128929 0.991645 
0.00920998 0.162829 0.986611 
0.021682 0.196169 0.98033 
0.044175 0.244094 0.968745 
0.0702489 0.293357 0.953418 
0.101712 0.405776 0.908295 
0.148084 0.421214 0.89479 
0.19641 0.556329 0.807416 
0.272781 0.628124 0.728733 
0.147259 0.867089 0.47589 
0.0203784 0.995862 0.0885643 
-0.094812 0.943369 -0.317909 
-0.237228 0.716124 -0.656421 
-0.20097 0.520272 -0.830017 
-0.145892 0.363032 -0.920284 
-0.103896 0.427375 -0.898085 
-0.0957496 0.300111 -0.949087 
-0.0432288 0.278583 -0.959439 
-0.0336259 0.21351 -0.976362 
-0.0146907 0.18073 -0.983423 
-0.00724944 0.148234 -0.988926 
-0.00288181 0.118102 -0.992997 
-0.000313326 0.0943187 -0.995542 
0.000511775 0.0753328 -0.997158 
0.00152864 0.0594787 -0.998228 
0.00191215 0.0475279 -0.998868 
0.00197904 0.0377259 -0.999286 
0.00169493 0.0296178 -0.99956 
0.00120846 0.022919 -0.999737 
0.000919843 0.0180795 -0.999836 
0.000661497 0.0142417 -0.999898 
0.00048444 0.0111386 -0.999938 
0.000379496 0.00866284 -0.999962 
0.000339538 0.0067739 -0.999977 
0.000306073 0.00527339 -0.999986 
0.000286524 0.00416014 -0.999991 
0.000275019 0.00328102 -0.999995 
0.000269197 0.00262834 -0.999997 
0.000262925 0.00213227 -0.999998 
0.000258092 0.00173594 -0.999998 
0.000250378 0.00142986 -0.999999 
0.000237633 0.00117491 -0.999999 
0.000225802 0.00097467 -0.999999 
0.000197754 0.000808402 -1 
0.00016772 0.000676033 -1 
0.000128028 0.000578369 -1 
8.84739e-05 0.000501688 -1 
4.60719e-05 0.000462471 -1 
2.02573e-06 0.000436155 -1 
-3.65376e-05 0.000363666 -1 
-7.05745e-06 0.000403471 1 
-3.01512e-05 0.000485346 1 
-5.95118e-05 0.000482379 1 
-9.21994e-05 0.000536073 1 
-0.000129379 0.000583766 1 
-0.000156666 0.000681613 1 
-0.000195752 0.000806308 1 
-0.000213443 0.000958925 1 
-0.000232599 0.00114009 0.999999 
-0.000229868 0.00137135 0.999999 
-0.00022975 0.00166849 0.999999 
-0.000227744 0.00207109 0.999998 
-0.000226446 0.00254281 0.999997 
-0.000223088 0.00318703 0.999995 
-0.000230433 0.00401424 0.999992 
-0.000243638 0.00509726 0.999987 
-0.000262669 0.00649575 0.999979 
-0.000286732 0.00831003 0.999965 
-0.00035284 0.0106172 0.999944 
-0.000454499 0.0134804 0.999909 
-0.000647067 0.0171607 0.999853 
-0.000872755 0.0215125 0.999768 
-0.00115404 0.0272278 0.999629 
-0.00132984 0.0340417 0.99942 
-0.00145254 0.0432831 0.999062 
-0.000980614 0.0526196 0.998614 
-0.000219032 0.0684418 0.997655 
0.00195299 0.0843553 0.996434 
0.00493339 0.105262 0.994432 
0.0107487 0.132888 0.991073 
0.0193675 0.159715 0.986973 
0.0373839 0.197139 0.979663 
0.0647865 0.225452 0.972098 
0.133398 0.267207 0.954361 
0.103784 0.295173 0.94979 
0.199794 0.35294 0.914066 
0.289606 0.377142 0.879712 
0.440825 0.51969 0.731844 
0.295069 0.827535 0.477619 
0.035956 0.997163 0.0661324 
-0.225693 0.901086 -0.37028 
-0.416062 0.618524 -0.666574 
-0.301444 0.45901 -0.835728 
-0.206845 0.326206 -0.922391 
-0.126858 0.250619 -0.959738 
-0.0823231 0.221167 -0.971755 
-0.0610413 0.25423 -0.965216 
-0.0506752 0.20045 -0.978392 
-0.0219625 0.168262 -0.985498 
-0.012422 0.13616 -0.990609 
-0.00669404 0.11159 -0.993732 
-0.00313969 0.0892474 -0.996005 
-0.000871997 0.0691683 -0.997605 
0.000253882 0.0552307 -0.998474 
0.000862852 0.0439588 -0.999033 
0.00102106 0.0349643 -0.999388 
0.000868371 0.0274894 -0.999622 
0.000539648 0.021468 -0.999769 
0.000367367 0.0169869 -0.999856 
0.00023805 0.0133138 -0.999911 
0.000180389 0.0104355 -0.999946 
0.00015929 0.00809514 -0.999967 
0.000173953 0.00634064 -0.99998 
0.000178982 0.00498793 -0.999988 
0.000191501 0.00392433 -0.999992 
0.000196703 0.00312039 -0.999995 
0.000202881 0.00251978 -0.999997 
0.000209705 0.00204237 -0.999998 
0.000212163 0.00167513 -0.999999 
0.000212377 0.0013735 -0.999999 
0.000205754 0.00112616 -0.999999 
0.000198197 0.000945202 -1 
0.000175125 0.000800618 -1 
0.000155057 0.000687662 -1 
0.000120351 0.000595664 -1 
8.62115e-05 0.000523389 -1 
4.99236e-05 0.000486852 -1 
1.36856e-05 0.000468206 -1 
-4.77364e-06 0.000392111 -1 
-2.13943e-05 0.000409328 1 
-3.60171e-05 0.000500746 1 
-5.92393e-05 0.000502773 1 
-8.40945e-05 0.000548798 1 
-0.000121382 0.000602485 1 
-0.000138634 0.000691376 1 
-0.0001725 0.000797514 1 
-0.00018598 0.000949662 1 
-0.000199783 0.00114722 0.999999 
-0.000192503 0.00138886 0.999999 
-0.000189888 0.00171474 0.999999 