# vtk DataFile Version 3.0 
Exported using Morpho https://github.com/Morpho-lang/morpho 
ASCII 
DATASET UNSTRUCTURED_GRID 

POINTS 1978 float 
-8.48528 -2.82843 -1.66873e-14 
-8.26642 -2.82843 2.15929e-13 
-8.04252 -2.82843 1.9674e-13 
-7.76236 -2.82843 1.4826e-13 
-7.47458 -2.82843 1.69099e-13 
-7.2317 -2.82843 1.46001e-13 
-6.99825 -2.82843 1.33914e-13 
-6.77708 -2.82843 8.76054e-14 
-6.56273 -2.82843 6.74476e-14 
-6.33954 -2.82843 5.69578e-14 
-6.14356 -2.82843 6.38251e-14 
-5.92204 -2.82843 4.90755e-14 
-5.71162 -2.82843 3.00545e-14 
-5.51067 -2.82843 3.00119e-14 
-5.29571 -2.82843 2.25886e-14 
-5.08679 -2.82843 1.95663e-14 
-4.87277 -2.82843 5.91291e-15 
-4.66451 -2.82843 3.08415e-15 
-4.44534 -2.82843 -2.9929e-15 
-4.22423 -2.82843 -1.17581e-14 
-4.00533 -2.82843 -2.0168e-14 
-3.79389 -2.82843 -3.40566e-14 
-3.57866 -2.82843 -4.97143e-14 
-3.36989 -2.82843 -6.87558e-14 
-3.15208 -2.82843 -9.16503e-14 
-2.94437 -2.82843 -1.19336e-13 
-2.74022 -2.82843 -1.40794e-13 
-2.54801 -2.82843 -1.71415e-13 
-2.32926 -2.82843 -1.95707e-13 
-2.12487 -2.82843 -1.84301e-13 
-1.90362 -2.82843 -1.82346e-13 
-1.69916 -2.82843 -1.57941e-13 
-1.5036 -2.82843 -1.17787e-13 
-1.28854 -2.82843 3.81047e-14 
-1.12018 -2.82843 2.25798e-14 
-0.861633 -2.82843 -1.39687e-13 
-0.637611 -2.82843 3.20054e-14 
-0.442652 -2.82843 -7.46709e-14 
-0.195135 -2.82843 1.94909e-13 
0.0321209 -2.82843 -1.50985e-13 
0.238709 -2.82843 2.27447e-13 
0.433538 -2.82843 -1.74576e-13 
0.653474 -2.82843 4.58983e-14 
0.876068 -2.82843 4.81491e-14 
1.07695 -2.82843 -8.55359e-15 
1.2671 -2.82843 6.81398e-14 
1.47529 -2.82843 5.42864e-14 
1.69997 -2.82843 1.84684e-13 
1.89529 -2.82843 1.81555e-13 
2.11405 -2.82843 1.94344e-13 
2.33921 -2.82843 1.75947e-13 
2.52852 -2.82843 1.87668e-13 
2.75314 -2.82843 1.51546e-13 
2.96996 -2.82843 1.13741e-13 
3.17501 -2.82843 8.71752e-14 
3.379 -2.82843 7.09539e-14 
3.60369 -2.82843 4.60893e-14 
3.80528 -2.82843 3.14634e-14 
4.02054 -2.82843 2.09168e-14 
4.24899 -2.82843 1.25068e-14 
4.44959 -2.82843 1.68455e-15 
4.66436 -2.82843 -2.63876e-15 
4.87105 -2.82843 -1.97542e-14 
5.07801 -2.82843 -1.69884e-14 
5.28952 -2.82843 -1.73613e-14 
5.50193 -2.82843 -2.74657e-14 
5.70475 -2.82843 -2.94705e-14 
5.92195 -2.82843 -4.94259e-14 
6.14472 -2.82843 -5.58668e-14 
6.34438 -2.82843 -6.6841e-14 
6.58126 -2.82843 -7.7553e-14 
6.79637 -2.82843 -9.0161e-14 
6.9963 -2.82843 -1.25748e-13 
7.25814 -2.82843 -1.47332e-13 
7.48995 -2.82843 -1.58678e-13 
7.73211 -2.82843 -1.4297e-13 
8.0058 -2.82843 -1.87019e-13 
8.19208 -2.82843 -2.4376e-13 
8.48528 -2.82843 -7.2378e-14 
-8.48528 -2.59792 2.99897e-14 
-8.2546 -2.58522 1.4464e-13 
-8.01651 -2.59164 1.68128e-13 
-7.77418 -2.62337 1.42247e-13 
-7.51341 -2.63735 1.40591e-13 
-7.22704 -2.60078 1.04217e-13 
-6.98477 -2.59808 9.53916e-14 
-6.77155 -2.58431 6.79432e-14 
-6.53432 -2.6057 6.514e-14 
-6.3296 -2.57031 4.39219e-14 
-6.10469 -2.60355 4.33197e-14 
-5.88892 -2.58864 3.31079e-14 
-5.68178 -2.57564 2.60097e-14 
-5.4641 -2.5947 2.31596e-14 
-5.24909 -2.58737 1.76768e-14 
-5.03201 -2.59235 1.25489e-14 
-4.81945 -2.58491 -7.93085e-15 
-4.60033 -2.5962 -1.6723e-15 
-4.37834 -2.59697 5.83799e-15 
-4.15859 -2.59419 -1.3519e-14 
-3.94648 -2.58548 -2.28812e-14 
-3.73334 -2.59193 -3.56822e-14 
-3.52259 -2.58908 -5.07701e-14 
-3.30748 -2.6021 -7.13046e-14 
-3.09553 -2.596 -9.12759e-14 
-2.88722 -2.59503 -1.09696e-13 
-2.68928 -2.58558 -1.28143e-13 
-2.47654 -2.61537 -1.71814e-13 
-2.25995 -2.59557 -1.68864e-13 
-2.04753 -2.60971 -1.77577e-13 
-1.83237 -2.58999 -1.39165e-13 
-1.62715 -2.57589 -9.86487e-14 
-1.42464 -2.59231 -6.38589e-14 
-1.24838 -2.5137 -3.47194e-14 
-1.0364 -2.6172 1.63064e-13 
-0.809325 -2.57942 5.68027e-14 
-0.608294 -2.50246 -8.65911e-14 
-0.391862 -2.5389 1.72418e-13 
-0.17054 -2.51888 2.27222e-13 
0.0234213 -2.44404 -4.23442e-13 
0.210354 -2.52567 2.33207e-13 
0.422469 -2.49303 -1.53417e-13 
0.622319 -2.55951 6.01481e-14 
0.84805 -2.56611 -2.25814e-14 
1.07078 -2.56674 -7.18618e-14 
1.27963 -2.57744 1.15215e-14 
1.49137 -2.61128 7.05874e-14 
1.70385 -2.58852 1.44912e-13 
1.93152 -2.61791 1.80189e-13 
2.16357 -2.61936 1.9006e-13 
2.36966 -2.58066 1.52202e-13 
2.58673 -2.61749 1.61138e-13 
2.80897 -2.60647 1.29623e-13 
3.01516 -2.58991 9.57833e-14 
3.22094 -2.58611 7.59453e-14 
3.44063 -2.60627 6.0879e-14 
3.64702 -2.57937 4.06452e-14 
3.85981 -2.59349 2.85566e-14 
4.08599 -2.6058 1.79502e-14 
4.29399 -2.57518 -9.57152e-15 
4.5095 -2.59344 -1.22531e-15 
4.72161 -2.58448 4.76828e-15 
4.9351 -2.58756 -1.03873e-14 
5.14937 -2.59261 -1.546e-14 
5.36802 -2.59451 -2.06072e-14 
5.58003 -2.58282 -2.47994e-14 
5.79602 -2.5969 -3.27804e-14 
6.02164 -2.60039 -3.96484e-14 
6.23576 -2.57134 -4.34798e-14 
6.45555 -2.60826 -6.07949e-14 
6.68351 -2.5841 -6.5377e-14 
6.89356 -2.56323 -7.36968e-14 
7.12104 -2.6249 -1.15469e-13 
7.37176 -2.59583 -1.16722e-13 
7.60957 -2.60347 -1.31408e-13 
7.86748 -2.62899 -1.65332e-13 
8.0786 -2.5332 -1.259e-13 
8.30289 -2.63734 -1.61908e-13 
8.48528 -2.52376 -7.70227e-15 
-8.48528 -2.35772 1.36832e-14 
-8.24125 -2.35589 3.78803e-14 
-8.00718 -2.34607 3.39497e-14 
-7.76798 -2.40166 4.12795e-14 
-7.57114 -2.24621 -4.85724e-15 
-7.46809 -2.44836 6.85382e-14 
-7.1802 -2.3908 4.10176e-14 
-6.95729 -2.34588 3.16674e-14 
-6.70434 -2.37744 2.5699e-14 
-6.49079 -2.35104 2.0744e-14 
-6.24225 -2.3583 1.68441e-14 
-6.02853 -2.36189 1.39874e-14 
-5.81292 -2.33924 1.06244e-14 
-5.58379 -2.35138 -1.0427e-14 
-5.36841 -2.35584 -8.22579e-15 
-5.1443 -2.35662 -5.84981e-15 
-4.92841 -2.34928 -3.10985e-15 
-4.70481 -2.35913 -2.86479e-16 
-4.48373 -2.36659 2.64275e-15 
-4.26237 -2.3628 6.05899e-15 
-4.04804 -2.34852 9.78092e-15 
-3.83238 -2.35083 -1.39014e-14 
-3.62208 -2.35278 -1.9631e-14 
-3.40594 -2.36584 -2.6586e-14 
-3.19594 -2.36876 -3.48369e-14 
-2.98238 -2.3656 -4.26772e-14 
-2.77761 -2.3482 -4.85429e-14 
-2.56567 -2.37841 -5.99297e-14 
-2.35782 -2.38809 -7.10257e-14 
-2.12599 -2.37301 -6.78226e-14 
-1.91607 -2.37319 -6.65029e-14 
-1.69019 -2.34308 -3.07978e-14 
-1.47221 -2.33028 -4.76356e-15 
-1.25852 -2.26324 9.43325e-14 
-1.0373 -2.36799 8.04253e-14 
-0.82869 -2.30317 9.96903e-14 
-0.611773 -2.21168 2.21199e-13 
-0.39457 -2.22988 2.19206e-13 
-0.169961 -2.20141 3.82205e-14 
0.0473866 -2.10756 -9.48216e-14 
0.256854 -2.19943 -3.57322e-13 
0.438796 -2.11139 -1.71258e-13 
0.608133 -2.24522 1.89949e-13 
0.808342 -2.29156 -2.67573e-13 
1.03332 -2.30788 -1.41544e-13 
1.25443 -2.31908 -8.18863e-14 
1.47096 -2.38215 -7.15983e-15 
1.66495 -2.33845 6.91209e-15 
1.87426 -2.39405 7.49011e-14 
2.09109 -2.40775 8.03869e-14 
2.30443 -2.36184 6.53571e-14 
2.53712 -2.38414 5.80097e-14 
2.74305 -2.39234 5.35619e-14 
2.95901 -2.35464 4.11813e-14 
3.16333 -2.34698 3.21142e-14 
3.3772 -2.37284 2.93787e-14 
3.58254 -2.34388 1.93904e-14 
3.79643 -2.35156 1.40219e-14 
4.01131 -2.37655 1.05194e-14 
4.22048 -2.33984 -6.26341e-15 
4.44064 -2.35176 -3.40107e-15 
4.65027 -2.34611 -5.77596e-16 
4.86518 -2.35013 2.49686e-15 
5.08055 -2.35357 4.7926e-15 
5.29532 -2.36359 7.38098e-15 
5.51083 -2.34823 8.54799e-15 
5.7303 -2.35713 1.11624e-14 
5.94797 -2.3722 -1.3772e-14 
6.16441 -2.34039 -1.42745e-14 
6.39634 -2.35976 -1.8753e-14 
6.60808 -2.36059 -2.36441e-14 
6.83092 -2.31616 -2.34286e-14 
7.06241 -2.37266 -3.38161e-14 
7.28129 -2.39249 -4.04096e-14 
7.54043 -2.37032 -2.77e-14 
7.78478 -2.40736 -4.09633e-14 
7.9968 -2.30893 -2.00219e-14 
8.25816 -2.36543 -3.76111e-14 
8.48528 -2.28102 -7.5442e-14 
-8.48528 -2.09875 6.58868e-14 
-8.2669 -2.11463 -8.34875e-15 
-8.05198 -2.09639 1.93281e-14 
-7.80956 -2.15241 1.08741e-14 
-7.51798 -2.03448 -9.86268e-15 
-7.31001 -2.22479 1.33371e-14 
-7.06863 -2.12218 1.8654e-14 
-6.80865 -2.1527 1.91445e-14 
-6.5937 -2.11849 1.60298e-14 
-6.35559 -2.14635 1.35e-14 
-6.12687 -2.11502 1.08204e-14 
-5.92087 -2.1097 -9.40545e-15 
-5.69022 -2.12225 -6.77386e-15 
-5.46862 -2.11469 -5.1277e-15 
-5.25149 -2.12739 -3.89054e-15 
-5.03453 -2.11566 -2.14945e-15 
-4.81172 -2.12518 -1.22379e-16 
-4.59186 -2.13162 2.25156e-15 
-4.37509 -2.1332 4.40711e-15 
-4.16341 -2.11723 7.20893e-15 
-3.94792 -2.11386 1.05328e-14 
-3.73757 -2.11301 -1.36066e-14 
-3.52445 -2.12803 -1.74672e-14 
-3.31595 -2.13241 -2.21937e-14 
-3.10617 -2.13904 -2.71497e-14 
-2.90062 -2.12326 -3.26091e-14 
-2.68163 -2.13089 -4.10247e-14 
-2.47685 -2.14907 -4.34599e-14 
-2.26139 -2.17105 -5.1924e-14 
-2.03543 -2.13225 -4.93393e-14 
-1.81984 -2.14124 -4.6138e-14 
-1.59138 -2.10196 2.61991e-14 
-1.38339 -2.05231 -9.02449e-15 
-1.17474 -1.94802 1.2646e-13 
-1.03874 -2.10452 4.67592e-14 
-0.812074 -2.02723 1.16952e-13 
-0.580721 -1.91839 1.13464e-13 
-0.334422 -1.95549 -8.88352e-13 
-0.107383 -1.86818 6.12245e-13 
0.0283924 -1.63548 -2.66225e-13 
0.198263 -1.8538 1.22773e-13 
0.278998 -1.55452 2.88993e-13 
0.45117 -1.84431 -1.17214e-13 
0.71455 -1.94945 -6.18365e-13 
0.929242 -2.03424 1.9531e-13 
1.1613 -2.05615 -4.75045e-14 
1.40974 -2.13414 7.69265e-14 
1.65512 -2.12155 1.50566e-14 
1.8911 -2.15976 -8.29371e-15 
2.10523 -2.17687 7.2403e-14 
2.36151 -2.16382 3.44095e-14 
2.57141 -2.14613 5.00208e-14 
2.78001 -2.16093 4.15622e-14 
2.98841 -2.11143 3.02787e-14 
3.20675 -2.12217 2.81717e-14 
3.40867 -2.12637 2.08419e-14 
3.62543 -2.1117 1.44708e-14 
3.84166 -2.12313 1.15246e-14 
4.04424 -2.12915 -8.17186e-15 
4.27101 -2.11274 -5.20903e-15 
4.48004 -2.10937 -3.01611e-15 
4.69698 -2.11143 -6.69598e-16 
4.91225 -2.11663 1.26092e-15 
5.12898 -2.12001 3.17443e-15 
5.34132 -2.12679 4.55849e-15 
5.56453 -2.11939 5.61608e-15 
5.78371 -2.12647 7.49116e-15 
5.99446 -2.1287 9.77798e-15 
6.23363 -2.1228 -1.08502e-14 
6.4466 -2.11169 -1.32951e-14 
6.65897 -2.11298 -1.6205e-14 
6.91431 -2.10583 -1.88081e-14 
7.13058 -2.13309 -2.07455e-14 
7.36257 -2.17665 -1.72784e-14 
7.55382 -2.0798 9.85528e-15 
7.73741 -2.17415 4.71403e-15 
7.95462 -2.07683 -1.05139e-14 
8.20447 -2.1419 9.04217e-15 
8.48528 -2.08409 -5.48358e-14 
-8.48528 -1.80614 3.10585e-14 
-8.29882 -1.85759 -4.70853e-15 
-7.88234 -1.9044 -7.77612e-15 
-7.6667 -1.89874 4.66635e-15 
[...]
POINT_DATA 1978 
VECTORS vectors float
-3.65653e-05 -0.000563942 1 
-0.000242767 -0.0813061 0.996689 
2.13958e-05 -0.0883205 0.996092 
-0.000195967 -0.0769887 0.997032 
-0.0002205 -0.061678 0.998096 
-0.000107073 -0.0485065 0.998823 
-0.000102828 -0.0396113 0.999215 
-0.000110908 -0.032837 0.999461 
-9.43391e-05 -0.0277081 0.999616 
-7.11715e-05 -0.0226566 0.999743 
-6.27236e-05 -0.0187394 0.999824 
-6.684e-05 -0.0154093 0.999881 
-4.40298e-05 -0.0123964 0.999923 
-4.63765e-05 -0.00988876 0.999951 
-5.91409e-05 -0.00783675 0.999969 
-6.63549e-05 -0.00624708 0.99998 
-8.17173e-05 -0.00457831 0.99999 
-0.000109546 -0.00268543 0.999996 
-0.000144407 -0.000304846 1 
-0.000147987 0.0026295 0.999997 
-0.000122032 0.00636157 0.99998 
-9.67888e-05 0.0110379 0.999939 
-8.21627e-05 0.0172549 0.999851 
-7.0648e-05 0.0253065 0.99968 
-5.01653e-05 0.0366177 0.999329 
-1.39289e-05 0.0506986 0.998714 
4.85634e-06 0.0686563 0.99764 
-1.54368e-06 0.090097 0.995933 
-2.20014e-05 0.120908 0.992664 
-3.11555e-05 0.158494 0.98736 
-2.53411e-05 0.209849 0.977734 
-4.88057e-06 0.268866 0.963178 
1.34893e-06 0.341617 0.939839 
-7.18199e-08 0.439265 0.898358 
2.38559e-05 0.528042 0.849218 
2.57388e-05 0.671486 0.741017 
7.35943e-06 0.793035 0.609176 
1.47395e-05 0.886245 0.463216 
8.84785e-06 0.978482 0.206331 
1.80289e-05 0.9995 -0.0316126 
8.64816e-06 0.965997 -0.258552 
7.96341e-06 0.897799 -0.440405 
1.43547e-06 0.788997 -0.614398 
7.3107e-06 0.661848 -0.749638 
9.57976e-06 0.540783 -0.841162 
3.05556e-06 0.445092 -0.895485 
7.72083e-06 0.360829 -0.932632 
2.73214e-05 0.267964 -0.963429 
2.22817e-05 0.211992 -0.977271 
5.11514e-05 0.161204 -0.986921 
4.62794e-05 0.12022 -0.992747 
5.08623e-05 0.0926236 -0.995701 
7.49376e-05 0.0676438 -0.99771 
5.865e-05 0.048847 -0.998806 
5.02254e-05 0.0349188 -0.99939 
6.34352e-05 0.024621 -0.999697 
7.66124e-05 0.016368 -0.999866 
9.0114e-05 0.0107227 -0.999943 
0.000121458 0.00620856 -0.999981 
0.00010245 0.00245555 -0.999997 
6.40514e-05 -0.000334328 -1 
5.01423e-05 -0.00265649 -0.999996 
3.94267e-05 -0.00447116 -0.99999 
4.54369e-05 -0.00628047 -0.99998 
5.1517e-05 -0.00803784 -0.999968 
5.49507e-05 -0.00986358 -0.999951 
7.65215e-05 -0.0120674 -0.999927 
0.000108006 -0.0149611 -0.999888 
0.000110375 -0.0188213 -0.999823 
0.00013458 -0.0227543 -0.999741 
0.000145533 -0.0280088 -0.999608 
0.000125124 -0.0337044 -0.999432 
0.000210169 -0.0400503 -0.999198 
0.000306372 -0.0501756 -0.99874 
0.000404067 -0.061966 -0.998078 
0.000437532 -0.0767498 -0.99705 
9.99215e-05 -0.0896746 -0.995971 
0.00039894 -0.0864366 -0.996257 
0.000319931 -0.000392175 -1 
-0.000182497 -6.05522e-05 1 
0.0368279 -0.0671075 0.997066 
0.0443268 -0.080116 0.995799 
0.0419064 -0.0761204 0.996218 
0.0420503 -0.0642604 0.997047 
0.0469289 -0.0499701 0.997648 
0.049799 -0.0400801 0.997955 
0.0513645 -0.0330246 0.998134 
0.0505527 -0.0270037 0.998356 
0.0543185 -0.0224361 0.998272 
0.0519325 -0.0183527 0.998482 
0.0542621 -0.0151154 0.998412 
0.0558463 -0.0122175 0.998365 
0.0543982 -0.00959278 0.998473 
0.0556315 -0.00751674 0.998423 
0.0551421 -0.00565178 0.998463 
0.0559009 -0.00375452 0.998429 
0.0545275 -0.00153444 0.998511 
0.0541849 0.00120446 0.99853 
0.0539409 0.00461388 0.998533 
0.0540178 0.00885301 0.998501 
0.0524954 0.0142571 0.998519 
0.0519051 0.0213529 0.998424 
0.0492052 0.030761 0.998315 
0.0480516 0.0432319 0.997909 
0.0454595 0.0590832 0.997217 
0.0433258 0.0785714 0.995967 
0.0371735 0.103934 0.993889 
0.0335966 0.138711 0.989763 
0.0268373 0.181703 0.982987 
0.0209281 0.237945 0.971053 
0.0142179 0.304412 0.952434 
0.00674713 0.386527 0.922253 
0.00118976 0.474489 0.88026 
-0.00388829 0.581736 0.813368 
-0.00740532 0.705975 0.708198 
-0.00894072 0.808053 0.589042 
-0.00818978 0.904869 0.425611 
-0.00460321 0.974104 0.226054 
-0.000862299 0.999967 -0.00808252 
0.00309197 0.971685 -0.236259 
0.00532733 0.903342 -0.428889 
0.00628803 0.814313 -0.580392 
0.00584503 0.689408 -0.72435 
0.00249542 0.561612 -0.827397 
-0.00310214 0.452233 -0.891894 
-0.00979003 0.347726 -0.937545 
-0.0174724 0.272489 -0.962 
-0.0235433 0.20819 -0.977805 
-0.0298201 0.155971 -0.987311 
-0.0372639 0.121478 -0.991894 
-0.038803 0.0899885 -0.995187 
-0.0434374 0.0660582 -0.99687 
-0.0473633 0.0488329 -0.997683 
-0.0498244 0.035392 -0.998131 
-0.0495569 0.0242564 -0.998477 
-0.0535561 0.0169232 -0.998421 
-0.0530054 0.0108225 -0.998536 
-0.0524787 0.00594194 -0.998604 
-0.0562032 0.00256899 -0.998416 
-0.0545195 -0.000452896 -0.998513 
-0.0557484 -0.00277939 -0.998441 
-0.0557692 -0.0048046 -0.998432 
-0.0552179 -0.00675881 -0.998451 
-0.0549713 -0.00875622 -0.99845 
-0.0558274 -0.0109295 -0.998381 
-0.0537578 -0.0134985 -0.998463 
-0.0527041 -0.0167794 -0.998469 
-0.0550093 -0.0206031 -0.998273 
-0.0503939 -0.0251468 -0.998413 
-0.0519232 -0.0307304 -0.998178 
-0.0528404 -0.0370299 -0.997916 
-0.0460514 -0.045094 -0.997921 
-0.047297 -0.0564555 -0.997284 
-0.044864 -0.0686622 -0.996631 
-0.0416718 -0.0800271 -0.995921 
-0.0477083 -0.079313 -0.995707 
-0.0330441 -0.0632559 -0.99745 
0.000266043 -0.000107625 -1 
-0.00040916 -0.000184808 1 
0.0421806 -0.0652677 0.996976 
0.0508704 -0.0761786 0.995796 
0.052736 -0.073568 0.995895 
0.0550108 -0.0672746 0.996217 
0.0550656 -0.0613538 0.996596 
0.0581719 -0.048325 0.997136 
0.060384 -0.0392507 0.997403 
0.0616318 -0.0313242 0.997607 
0.0630165 -0.0257557 0.99768 
0.0642104 -0.0206942 0.997722 
0.0650317 -0.0171484 0.997736 
0.0658548 -0.0140298 0.997731 
0.0664396 -0.0111391 0.997728 
0.0669968 -0.00879582 0.997714 
0.0673444 -0.00660669 0.997708 
0.0675021 -0.00455189 0.997709 
0.0671773 -0.00226162 0.997738 
0.0666885 0.000431629 0.997774 
0.0660824 0.00378791 0.997807 
0.0653603 0.00793493 0.99783 
0.0641887 0.0131558 0.997851 
0.0628088 0.0198127 0.997829 
0.0608732 0.0287116 0.997732 
0.0586431 0.0400984 0.997473 
0.055695 0.0552259 0.996919 
0.0521481 0.0740583 0.99589 
0.0472813 0.097878 0.994075 
0.0416902 0.127663 0.990941 
0.0342174 0.171254 0.984633 
0.0266724 0.220907 0.97493 
0.0175808 0.291765 0.956328 
0.00902585 0.37428 0.927272 
0.00146508 0.474165 0.880435 
-0.00445413 0.587525 0.809194 
-0.00764485 0.693865 0.720065 
-0.00881176 0.812565 0.582804 
-0.00771613 0.910228 0.414035 
-0.00528247 0.978005 0.208514 
-0.00177628 0.999823 -0.0187332 
0.00205026 0.969456 -0.245258 
0.00443604 0.892864 -0.450304 
0.00570584 0.797236 -0.603641 
0.00532136 0.695389 -0.718614 
0.00244888 0.575141 -0.818051 
-0.00302961 0.46354 -0.886071 
-0.0102685 0.366817 -0.930237 
-0.0168081 0.299828 -0.953845 
-0.0253531 0.230925 -0.972641 
-0.0332986 0.177642 -0.983532 
-0.0399003 0.138169 -0.989605 
-0.0460844 0.102382 -0.993677 
-0.0508184 0.0771642 -0.995722 
-0.0550501 0.0574049 -0.996832 
-0.0582538 0.0424003 -0.997401 
-0.0605854 0.0298474 -0.997717 
-0.0627614 0.021347 -0.9978 
-0.0641853 0.0142454 -0.997836 
-0.0650158 0.00865436 -0.997847 
-0.0663574 0.0046976 -0.997785 
-0.066848 0.00112713 -0.997763 
-0.067359 -0.00158145 -0.997728 
-0.0675801 -0.00392261 -0.997706 
-0.0675891 -0.00608098 -0.997695 
-0.0672922 -0.00819783 -0.9977 
-0.0670091 -0.010477 -0.997697 
-0.0661825 -0.0129996 -0.997723 
-0.0651848 -0.01588 -0.997747 
-0.064757 -0.0194032 -0.997712 
-0.063526 -0.0239607 -0.997693 
-0.0625222 -0.0289462 -0.997624 
-0.0616621 -0.0355003 -0.997466 
-0.0595896 -0.043678 -0.997267 
-0.0576385 -0.0531268 -0.996923 
-0.0551018 -0.0656891 -0.996318 
-0.0529629 -0.0751208 -0.995767 
-0.0512356 -0.0765514 -0.995748 
-0.0413984 -0.0624925 -0.997186 
0.000242717 -0.000227351 -1 
-0.000657499 -0.000156789 1 
0.0364901 -0.0611078 0.997464 
0.0469735 -0.0747065 0.996099 
0.0515458 -0.074204 0.99591 
0.0528608 -0.0666602 0.996375 
0.0574477 -0.0554853 0.996805 
0.0587838 -0.0449665 0.997257 
0.0611338 -0.0348661 0.99752 
0.0621794 -0.0286977 0.997652 
0.0636726 -0.0230292 0.997705 
0.0640488 -0.0188736 0.997768 
0.0646053 -0.0157798 0.997786 
0.0655045 -0.0128084 0.99777 
0.0660752 -0.0102619 0.997762 
0.0668832 -0.00790621 0.997729 
0.0669274 -0.00567064 0.997742 
0.0671159 -0.00327701 0.99774 
0.0670237 -0.000616958 0.997751 
0.0665012 0.00257906 0.997783 
0.0654033 0.00648601 0.997838 
0.0641427 0.0114512 0.997875 
0.0627118 0.0176494 0.997876 
0.0612109 0.025751 0.997793 
0.0591044 0.0360944 0.997599 
0.0564817 0.0494772 0.997177 
0.0527991 0.0664954 0.996389 
0.0484244 0.0890645 0.994848 
0.043487 0.11582 0.992318 
0.0374277 0.150671 0.987875 
0.029075 0.19966 0.979434 
0.0212704 0.25757 0.966025 
0.0113748 0.342636 0.939399 
0.00387385 0.427802 0.903864 
-0.00264777 0.533383 0.84587 
-0.00392669 0.572832 0.819664 
-0.00754398 0.702428 0.711715 
-0.00810618 0.823774 0.566861 
-0.00627852 0.93496 0.354697 
-0.00375367 0.99194 0.126654 
0.00037092 0.998042 -0.0625445 
0.00143183 0.972861 -0.231385 
0.00303646 0.949322 -0.314291 
0.00521347 0.875595 -0.483018 
0.00564837 0.749641 -0.661821 
0.00401258 0.629239 -0.777201 
0.00015197 0.511636 -0.859202 
-0.00767088 0.391607 -0.920101 
-0.0147329 0.311825 -0.950025 
-0.0234358 0.241105 -0.970216 
-0.0318333 0.182809 -0.982633 
-0.0399815 0.133931 -0.990184 
-0.0457094 0.102526 -0.99368 
-0.050804 0.0774017 -0.995705 
-0.0539328 0.0586399 -0.996821 
-0.0577192 0.0423171 -0.997436 
-0.0602256 0.0309469 -0.997705 
-0.0619809 0.0216907 -0.997842 
-0.0639594 0.0143458 -0.997849 
-0.0651491 0.00913114 -0.997834 
-0.0659042 0.00454325 -0.997816 
-0.0664171 0.00107978 -0.997791 
-0.0668313 -0.00186822 -0.997763 
-0.0671238 -0.00438121 -0.997735 
-0.0670466 -0.00669482 -0.997727 
-0.0668692 -0.00896324 -0.997721 
-0.0661243 -0.0114766 -0.997745 
-0.0654762 -0.0140845 -0.997755 
-0.0646852 -0.0169459 -0.997762 
-0.063761 -0.0209324 -0.997746 
-0.0625904 -0.0253318 -0.997718 
-0.061562 -0.0307361 -0.99763 
-0.0600001 -0.0390577 -0.997434 
-0.0588246 -0.0477738 -0.997125 
-0.0574051 -0.0586607 -0.996626 
-0.0540971 -0.068422 -0.996189 
-0.0532738 -0.0742804 -0.995813 
-0.04886 -0.0767045 -0.995856 
-0.0421202 -0.0670166 -0.996862 
0.000227443 -0.000216529 -1 
-0.000576468 -0.000146291 1 
0.0283554 -0.0577525 0.997928 
0.0450156 -0.0768166 0.996029 
0.0472788 -0.0733968 0.996182 
0.0454825 -0.0637871 0.996927 
0.0542719 -0.0556444 0.996975 
0.0497381 -0.0493858 0.997541 
0.0552573 -0.040211 0.997662 
0.0541075 -0.0326185 0.998002 
0.0569257 -0.0263141 0.998032 
0.0571341 -0.0216556 0.998132 
0.0554029 -0.0180782 0.9983 
0.0575493 -0.014984 0.99823 
0.0582937 -0.0122784 0.998224 
0.0587061 -0.00966936 0.998228 
0.0592064 -0.00730486 0.998219 
0.0596801 -0.00476688 0.998206 
0.0599285 -0.0021078 0.9982 
0.0598485 0.000916962 0.998207 
0.0587721 0.00450136 0.998261 
0.0575712 0.00902254 0.998301 
0.0560428 0.0146548 0.998321 
0.0549215 0.0218343 0.998252 
0.0532911 0.0307827 0.998104 
0.0512531 0.0423619 0.997787 
0.0483098 0.0567797 0.997217 
0.0447377 0.0761353 0.996093 
0.0401324 0.100278 0.99415 
0.035793 0.130217 0.990839 
0.030227 0.169118 0.985132 
0.0214597 0.227119 0.973631 
0.0147653 0.291522 0.95645 
0.0064525 0.370044 0.928992 
3.54123e-06 0.462793 0.886466 
-0.00685626 0.652834 0.75747 
-0.00791854 0.76787 0.640556 
-0.00627378 0.89657 0.442859 
-0.00375308 0.931636 0.363373 
-0.0028695 0.975711 0.219044 
-0.00053327 0.99993 -0.0117785 
5.29459e-05 0.976287 -0.216481 
0.00328436 0.893418 -0.449215 
0.00597993 0.819162 -0.573531 
0.00575981 0.699531 -0.714579 
0.0035219 0.586119 -0.810217 
0.000533563 0.493981 -0.869473 
-0.00403723 0.424519 -0.90541 
-0.00859161 0.352215 -0.93588 
-0.0163331 0.272869 -0.961912 
-0.0243181 0.212226 -0.976918 
-0.0323035 0.159379 -0.986689 
-0.0371136 0.119646 -0.992123 
-0.0424212 0.0903086 -0.99501 
-0.0455168 0.0697494 -0.996526 
-0.0494752 0.0504339 -0.997501 
-0.0516688 0.0368934 -0.997983 
-0.0540007 0.0266339 -0.998186 
-0.0561445 0.0179608 -0.998261 
-0.057055 0.0118006 -0.998301 
-0.0588545 0.00686608 -0.998243 
-0.0583375 0.00265419 -0.998293 
-0.0590571 -0.000715664 -0.998254 
-0.0593401 -0.00360442 -0.998231 
-0.0593224 -0.00611406 -0.99822 
-0.0591443 -0.00860073 -0.998212 
-0.0590827 -0.0110383 -0.998192 
-0.0580978 -0.0137435 -0.998216 
-0.0571363 -0.0165363 -0.998229 
-0.0575571 -0.0197906 -0.998146 
-0.0549467 -0.0242039 -0.998196 
-0.0539591 -0.0294672 -0.998108 
-0.054574 -0.036191 -0.997854 
-0.0520181 -0.0460952 -0.997582 
-0.052461 -0.0566011 -0.997018 
-0.0479987 -0.0685773 -0.99649 
-0.0466066 -0.0767852 -0.995958 
-0.0408386 -0.0767931 -0.99621 
-0.033791 -0.062184 -0.997493 
0.000265882 -0.000172836 -1 
-0.000304392 -0.000172757 1 
0.022386 -0.0612809 0.997869 
0.0374792 -0.0751884 0.996465 
0.0359175 -0.078659 0.996254 
0.0385009 -0.0745293 0.996475 
0.0397591 -0.0575728 0.997549 
0.0423458 -0.0440755 0.99813 
0.0443406 -0.0367914 0.998339 
0.0453842 -0.0288268 0.998554 
0.0461342 -0.0238948 0.998649 
0.0450306 -0.0201224 0.998783 
0.0456047 -0.0165771 0.998822 
0.0471585 -0.0138721 0.998791 
0.0479977 -0.0111986 0.998785 
0.0474998 -0.00860532 0.998834 
0.0489369 -0.00601677 0.998784 
0.049145 -0.00324888 0.998786 
0.0490153 -0.000172726 0.998798 
0.0480558 0.003341 0.998839 
0.047313 0.00769386 0.99885 
0.0460367 0.0131273 0.998853 
0.0450549 0.0200665 0.998783 
0.0435387 0.0287054 0.998639 
0.0420204 0.0396752 0.998329 
0.0393084 0.0536637 0.997785 
0.0367153 0.0716713 0.996752 
0.0324993 0.0952621 0.994922 
0.0282574 0.126243 0.991597 
0.0242285 0.163994 0.986164 
0.0183868 0.214378 0.976578 
0.0101282 0.294787 0.955509 
0.00270985 0.387714 0.921776 
-0.00235302 0.491431 0.870913 
-0.0051811 0.592014 0.805911 
-0.00523389 0.579125 0.815222 
-0.00689799 0.684536 0.728946 
-0.00589318 0.826835 0.562414 
-0.00446346 0.850252 0.526357 
-0.00260649 0.982175 0.18795 
-0.0016409 0.997155 -0.0753546 
-0.000925938 0.999786 -0.0206736 
-0.000963315 0.95056 -0.310538 
0.00198797 0.866307 -0.499508 
0.00548749 0.760898 -0.648848 
0.00559524 0.641763 -0.766883 
0.00345248 0.53028 -0.847816 
-0.00176139 0.414716 -0.909949 
-0.00715771 0.328007 -0.944648 
-0.0130246 0.25937 -0.96569 
-0.0212149 0.198312 -0.979909 
-0.0267113 0.151351 -0.988119 
-0.0304219 0.112951 -0.993135 
-0.0330731 0.0880293 -0.995569 
-0.038061 0.0648512 -0.997169 
-0.0402332 0.0479964 -0.998037 
-0.0418158 0.0351569 -0.998507 
-0.0449547 0.0246451 -0.998685 
-0.045753 0.0169911 -0.998808 
-0.0466909 0.0108305 -0.998851 
-0.0485207 0.00594702 -0.998804 
-0.0475587 0.00171723 -0.998867 
-0.048461 -0.0017019 -0.998824 
-0.0480613 -0.00457494 -0.998834 
-0.0483068 -0.00721426 -0.998806 
-0.0477384 -0.00979826 -0.998812 
-0.0481844 -0.0123661 -0.998762 
-0.0466572 -0.0150716 -0.998797 
-0.0462179 -0.0179909 -0.998769 
-0.0462663 -0.0212842 -0.998702 
-0.0433914 -0.025893 -0.998723 
-0.043229 -0.0318276 -0.998558 
-0.0447662 -0.0394046 -0.99822 
-0.0408077 -0.0483761 -0.997995 
-0.042979 -0.0581301 -0.997383 
-0.0385878 -0.0704329 -0.99677 
-0.0386186 -0.0783262 -0.99618 
-0.0331159 -0.0786314 -0.996354 
-0.0261215 -0.062041 -0.997732 
0.000195056 -0.000209168 -1 
-0.00014636 -0.000196476 1 
0.0178419 -0.0672524 0.997576 
0.0287555 -0.0779605 0.996542 
0.0280659 -0.0792268 0.996461 
0.0329201 -0.0695465 0.997035 
0.0287676 -0.0596909 0.997802 
0.0331774 -0.0489371 0.998251 
0.030758 -0.0391133 0.998761 
0.035423 -0.0325597 0.998842 
0.033832 -0.0265729 0.999074 
0.0338107 -0.0225781 0.999173 
0.035412 -0.0188788 0.999194 
0.0349318 -0.0159848 0.999262 
0.0367061 -0.0133417 0.999237 
0.0371022 -0.01072 0.999254 
0.0370744 -0.00794 0.999281 
0.0383901 -0.0052353 0.999249 
0.0383091 -0.00226758 0.999263 
0.0374194 0.00101326 0.999299 
0.0370046 0.00504435 0.999302 
0.036394 0.00993253 0.999288 
0.0356205 0.0161038 0.999236 
0.0344551 0.0236799 0.999126 
0.0331702 0.0333431 0.998893 
0.0314437 0.0454357 0.998472 
0.0291426 0.0616354 0.997673 
0.026386 0.082121 0.996273 
0.0227388 0.110402 0.993627 
0.0186834 0.147093 0.988946 
0.0149687 0.191779 0.981324 
0.0100387 0.257203 0.966305 
0.00317928 0.347623 0.937629 
-0.00161977 0.458941 0.888465 
-0.00384439 0.565284 0.824887 
-0.00610774 0.732887 0.680323 
-0.00383399 0.85136 0.524568 
-0.00120639 0.951946 0.306265 
0.000962678 0.930527 0.366222 
-0.00128575 0.957351 0.288924 
-0.00113336 0.994361 0.106041 
0.000518533 0.999424 0.0339306 
-0.0021895 0.97816 -0.20784 
-0.00106592 0.916299 -0.400493 
0.00283297 0.799239 -0.601006 
0.00424028 0.72464 -0.689115 
0.00531679 0.600775 -0.7994 
0.00125154 0.429036 -0.903287 
-0.00319365 0.337963 -0.941154 
-0.00779593 0.265871 -0.963977 
-0.0142983 0.205979 -0.978452 
-0.0160481 0.170228 -0.985274 
-0.0213142 0.134895 -0.990631 
-0.0224062 0.10426 -0.994298 
-0.0271268 0.0772371 -0.996644 
-0.0298646 0.0578857 -0.997876 
-0.0313609 0.0424788 -0.998605 
-0.0339152 0.0299265 -0.998977 
-0.0350608 0.0211397 -0.999162 
-0.0360429 0.0139739 -0.999253 
-0.037074 0.00813119 -0.999279 
-0.0378531 0.00364884 -0.999277 
-0.0375365 -0.000589852 -0.999295 
-0.03734 -0.00377453 -0.999295 
-0.0373725 -0.00670561 -0.999279 
-0.0368634 -0.00940578 -0.999276 
-0.0369831 -0.0121438 -0.999242 
-0.0362469 -0.0147661 -0.999234 
-0.0356083 -0.0176234 -0.99921 
-0.0347862 -0.0208333 -0.999178 
-0.0337022 -0.0246341 -0.999128 
-0.0327337 -0.0304722 -0.998999 
-0.0338913 -0.0381604 -0.998697 
-0.0315725 -0.048676 -0.998315 
-0.0322421 -0.061421 -0.997591 
-0.0284428 -0.0731359 -0.996916 
-0.0298226 -0.0798032 -0.996364 
-0.0250483 -0.08072 -0.996422 
-0.0218714 -0.0682321 -0.99743 
0.000144057 -0.000199907 -1 
-8.4902e-05 -0.000204157 1 
0.0129915 -0.0674795 0.997636 
0.0222108 -0.0806384 0.996496 
0.0199231 -0.0813258 0.996488 
0.0245429 -0.0738172 0.99697 
0.0216413 -0.0613854 0.997879 
0.0240572 -0.0476206 0.998576 
0.0222094 -0.0376601 0.999044 
0.0254666 -0.0309746 0.999196 
0.0232822 -0.0260542 0.999389 
0.0253991 -0.0218162 0.999439 
0.0262395 -0.0186697 0.999481 
0.0257286 -0.0159341 0.999542 
0.0273562 -0.0132816 0.999538 
0.0281998 -0.0104343 0.999548 
0.0278926 -0.00755217 0.999582 
0.029071 -0.00467465 0.999566 
0.0283018 -0.00152991 0.999598 
0.027999 0.00233625 0.999605 
0.0277322 0.00696035 0.999591 
0.0273799 0.0125724 0.999546 
0.0264676 0.0194393 0.999461 
0.0254822 0.0281002 0.99928 
0.0240652 0.0390118 0.998949 
0.0225912 0.053183 0.998329 
0.020288 0.0718264 0.997211 
0.0178952 0.096254 0.995196 
0.0146448 0.128954 0.991542 
0.0110953 0.171609 0.985103 
0.00838621 0.22437 0.974468 
0.00448494 0.291049 0.956698 
9.99044e-05 0.387667 0.9218 
-0.00214488 0.484798 0.874624 
-0.00374514 0.618091 0.786098 
-0.00537664 0.679775 0.733401 
-0.00198572 0.855896 0.517144 
0.00220617 0.964375 0.264531 
0.00515219 0.993461 0.114057 
0.00452104 0.998332 0.0575498 
0.00120494 0.999999 -0.000411837 
-0.00236771 0.999144 -0.0413041 
-0.00628138 0.993052 -0.117509 
-0.00297974 0.928659 -0.370923 
-0.000221284 0.815508 -0.578745 
0.00514857 0.656305 -0.754478 
0.00522951 0.555087 -0.831776 
0.00433198 0.50218 -0.864752 
0.00124356 0.384833 -0.922986 
-0.00191602 0.308998 -0.951061 
-0.00666163 0.234707 -0.972043 
-0.0107614 0.176478 -0.984246 
-0.0146179 0.130912 -0.991286 
-0.0175956 0.0940896 -0.995408 
-0.0203127 0.0709864 -0.99727 
-0.0225556 0.0528582 -0.998347 
-0.0245858 0.0375473 -0.998992 
-0.0255579 0.0269644 -0.99931 
-0.0267523 0.0185569 -0.99947 
-0.0277837 0.0117362 -0.999545 
-0.0279429 0.00638872 -0.999589 
-0.0293533 0.0018024 -0.999567 
-0.0280107 -0.00209875 -0.999605 
-0.0282928 -0.00537458 -0.999585 
-0.0275944 -0.00823708 -0.999585 
-0.0275744 -0.0110487 -0.999559 
-0.0269133 -0.0137468 -0.999543 
-0.0268278 -0.0164466 -0.999505 
-0.0259276 -0.0192473 -0.999479 
-0.0246145 -0.0223768 -0.999447 
-0.0248578 -0.0267285 -0.999334 
-0.0232758 -0.0325099 -0.9992 
-0.0252045 -0.0391247 -0.998916 
-0.022407 -0.0477599 -0.998607 
-0.0241718 -0.0588703 -0.997973 
-0.0214645 -0.0716761 -0.997197 
-0.0214541 -0.0811831 -0.996468 
-0.0183726 -0.0814815 -0.996506 
-0.0151566 -0.0645895 -0.997797 
0.000102149 -0.000196524 -1 
-5.52632e-05 -0.00019721 1 
0.00940159 -0.0680947 0.997635 
0.0156293 -0.0819888 0.996511 
0.0145848 -0.0826947 0.996468 