# vtk DataFile Version 3.0 
Exported using Morpho https://github.com/Morpho-lang/morpho 
ASCII 
DATASET UNSTRUCTURED_GRID 

POINTS 2054 float 
-8.48528 -2.82843 0 
-8.20636 -2.82843 0 
-7.94054 -2.82843 0 
-7.6904 -2.82843 0 
-7.45357 -2.82843 0 
-7.22694 -2.82843 0 
-7.00705 -2.82843 0 
-6.79111 -2.82843 0 
-6.57731 -2.82843 0 
-6.36453 -2.82843 0 
-6.15219 -2.82843 0 
-5.94 -2.82843 0 
-5.72786 -2.82843 0 
-5.51573 -2.82843 0 
-5.3036 -2.82843 0 
-5.09147 -2.82843 0 
-4.87933 -2.82843 0 
-4.6672 -2.82843 0 
-4.45507 -2.82843 0 
-4.24294 -2.82843 0 
-4.03081 -2.82843 0 
-3.81867 -2.82843 0 
-3.60654 -2.82843 0 
-3.39441 -2.82843 0 
-3.18228 -2.82843 0 
-2.97015 -2.82843 0 
-2.75801 -2.82843 0 
-2.54588 -2.82843 0 
-2.33375 -2.82843 0 
-2.12162 -2.82843 0 
-1.90949 -2.82843 0 
-1.69735 -2.82843 0 
-1.48522 -2.82843 0 
-1.27309 -2.82843 0 
-1.06096 -2.82843 0 
-0.848825 -2.82843 0 
-0.636693 -2.82843 0 
-0.424561 -2.82843 0 
-0.212429 -2.82843 0 
-0.000296761 -2.82843 0 
0.211835 -2.82843 0 
0.423967 -2.82843 0 
0.636099 -2.82843 0 
0.848231 -2.82843 0 
1.06036 -2.82843 0 
1.2725 -2.82843 0 
1.48463 -2.82843 0 
1.69676 -2.82843 0 
1.90889 -2.82843 0 
2.12102 -2.82843 0 
2.33316 -2.82843 0 
2.54529 -2.82843 0 
2.75742 -2.82843 0 
2.96955 -2.82843 0 
3.18168 -2.82843 0 
3.39382 -2.82843 0 
3.60595 -2.82843 0 
3.81808 -2.82843 0 
4.03021 -2.82843 0 
4.24234 -2.82843 0 
4.45448 -2.82843 0 
4.66661 -2.82843 0 
4.87874 -2.82843 0 
5.09087 -2.82843 0 
5.303 -2.82843 0 
5.51514 -2.82843 0 
5.72727 -2.82843 0 
5.93941 -2.82843 0 
6.15159 -2.82843 0 
6.36393 -2.82843 0 
6.57672 -2.82843 0 
6.79055 -2.82843 0 
7.00652 -2.82843 0 
7.22647 -2.82843 0 
7.45313 -2.82843 0 
7.69005 -2.82843 0 
7.9403 -2.82843 0 
8.20621 -2.82843 0 
8.48528 -2.82843 0 
-8.48528 -2.5495 0 
-8.30526 -2.64845 0 
-8.07062 -2.59995 0 
-7.83904 -2.59637 0 
-7.59595 -2.59733 0 
-7.36578 -2.59177 0 
-7.13796 -2.5933 0 
-6.90908 -2.59428 0 
-6.68421 -2.5916 0 
-6.46568 -2.58832 0 
-6.24926 -2.58859 0 
-6.03358 -2.58941 0 
-5.81848 -2.59013 0 
-5.60402 -2.59075 0 
-5.39005 -2.59135 0 
-5.17642 -2.59186 0 
-4.96311 -2.59223 0 
-4.75009 -2.59242 0 
-4.53736 -2.59244 0 
-4.32497 -2.59236 0 
-4.1128 -2.59242 0 
-3.90059 -2.59259 0 
-3.68835 -2.5926 0 
-3.47627 -2.59248 0 
-3.26428 -2.59251 0 
-3.05216 -2.59271 0 
-2.83986 -2.59283 0 
-2.62755 -2.59274 0 
-2.41539 -2.59253 0 
-2.20336 -2.59238 0 
-1.99135 -2.59238 0 
-1.77924 -2.59246 0 
-1.56704 -2.59244 0 
-1.35495 -2.59215 0 
-1.14319 -2.59183 0 
-0.931581 -2.59195 0 
-0.719663 -2.59256 0 
-0.507197 -2.59324 0 
-0.294425 -2.59354 0 
-0.0817689 -2.59344 0 
0.130587 -2.59325 0 
0.342804 -2.59322 0 
0.555051 -2.59322 0 
0.767233 -2.59303 0 
0.97919 -2.59278 0 
1.19107 -2.59278 0 
1.40311 -2.59289 0 
1.61524 -2.59286 0 
1.82732 -2.59279 0 
2.03943 -2.59281 0 
2.25163 -2.5928 0 
2.46381 -2.59266 0 
2.67591 -2.59254 0 
2.88801 -2.59237 0 
3.10001 -2.59226 0 
3.31203 -2.59216 0 
3.52402 -2.59207 0 
3.73601 -2.59208 0 
3.94815 -2.59221 0 
4.16052 -2.5923 0 
4.37309 -2.59232 0 
4.58593 -2.59227 0 
4.79921 -2.5922 0 
5.01319 -2.59212 0 
5.22833 -2.5921 0 
5.44534 -2.59239 0 
5.6657 -2.59346 0 
5.89185 -2.59569 0 
6.12685 -2.59429 0 
6.36853 -2.59189 0 
6.6108 -2.57787 0 
6.84491 -2.61411 0 
7.08804 -2.58476 0 
7.34858 -2.60369 0 
7.58803 -2.59327 0 
7.83059 -2.59326 0 
8.06387 -2.59199 0 
8.30038 -2.64348 0 
8.48528 -2.54936 0 
-8.48528 -2.28369 0 
-8.25701 -2.4138 0 
-8.01078 -2.35334 0 
-7.73666 -2.37963 0 
-7.49744 -2.35565 0 
-7.26898 -2.35831 0 
-7.03324 -2.36676 0 
-6.7997 -2.36275 0 
-6.5773 -2.35166 0 
-6.35808 -2.3495 0 
-6.14038 -2.35058 0 
-5.92336 -2.35185 0 
-5.70723 -2.35272 0 
-5.49199 -2.35362 0 
-5.27734 -2.35447 0 
-5.0632 -2.35505 0 
-4.84958 -2.35534 0 
-4.63641 -2.35533 0 
-4.42363 -2.35504 0 
-4.21126 -2.35485 0 
-3.99909 -2.35513 0 
-3.78684 -2.3554 0 
-3.57461 -2.35516 0 
-3.36263 -2.35498 0 
-3.15066 -2.35537 0 
-2.93843 -2.35586 0 
-2.72604 -2.35589 0 
-2.51374 -2.35551 0 
-2.30162 -2.35509 0 
-2.08964 -2.35496 0 
-1.87761 -2.35518 0 
-1.66544 -2.3554 0 
-1.45322 -2.35518 0 
-1.2412 -2.35438 0 
-1.02967 -2.35407 0 
-0.818162 -2.35505 0 
-0.606054 -2.35676 0 
-0.393243 -2.3579 0 
-0.180256 -2.35789 0 
0.0323765 -2.35727 0 
0.244686 -2.35692 0 
0.456926 -2.35692 0 
0.669206 -2.35667 0 
0.881318 -2.35598 0 
1.09315 -2.35559 0 
1.305 -2.35583 0 
1.51709 -2.35595 0 
1.72919 -2.35571 0 
1.9412 -2.35566 0 
2.15334 -2.3558 0 
2.36559 -2.3556 0 
2.57772 -2.35522 0 
2.78976 -2.35507 0 
3.0019 -2.35461 0 
3.21373 -2.35451 0 
3.42571 -2.35439 0 
3.63769 -2.35431 0 
3.84965 -2.35453 0 
4.06183 -2.35491 0 
4.27435 -2.35507 0 
4.48707 -2.35507 0 
4.70017 -2.35506 0 
4.91376 -2.35498 0 
5.12819 -2.35502 0 
5.34378 -2.35528 0 
5.56106 -2.35662 0 
5.78097 -2.35971 0 
6.00401 -2.36251 0 
6.2308 -2.3624 0 
6.45748 -2.35551 0 
6.68075 -2.33423 0 
6.88797 -2.39744 0 
7.05313 -2.27289 0 
7.24377 -2.40237 0 
7.48542 -2.36016 0 
7.73055 -2.36599 0 
7.99177 -2.33552 0 
8.24864 -2.40698 0 
8.48528 -2.28345 0 
-8.48528 -2.03355 0 
-8.25312 -2.18214 0 
-8.03669 -2.07913 0 
-7.83956 -2.18231 0 
-7.6106 -2.12852 0 
-7.38852 -2.10959 0 
-7.16268 -2.14097 0 
-6.9229 -2.1435 0 
-6.70119 -2.12055 0 
-6.48111 -2.11285 0 
-6.26282 -2.11284 0 
-6.045 -2.1151 0 
-5.82775 -2.11658 0 
-5.61153 -2.11776 0 
-5.3962 -2.1192 0 
-5.18144 -2.1203 0 
-4.96732 -2.12084 0 
-4.75387 -2.12105 0 
-4.54086 -2.12091 0 
-4.32822 -2.12045 0 
-4.11596 -2.12045 0 
-3.90382 -2.12107 0 
-3.69156 -2.12116 0 
-3.47938 -2.12058 0 
-3.26746 -2.12068 0 
-3.05542 -2.12154 0 
-2.84307 -2.12198 0 
-2.63064 -2.12162 0 
-2.41836 -2.12087 0 
-2.20626 -2.12031 0 
-1.99426 -2.12034 0 
-1.78217 -2.1207 0 
-1.56989 -2.12074 0 
-1.35755 -2.11993 0 
-1.14542 -2.11838 0 
-0.934012 -2.11859 0 
-0.722404 -2.12089 0 
-0.509943 -2.12344 0 
-0.296911 -2.12431 0 
-0.0840921 -2.12359 0 
0.128295 -2.12281 0 
0.340414 -2.12274 0 
0.552564 -2.12288 0 
0.76478 -2.12226 0 
0.976792 -2.1213 0 
1.18855 -2.12128 0 
1.40042 -2.12188 0 
1.61256 -2.12177 0 
1.82458 -2.12141 0 
2.03655 -2.12164 0 
2.24875 -2.12174 0 
2.46099 -2.12114 0 
2.67302 -2.12065 0 
2.88504 -2.12054 0 
3.09728 -2.1194 0 
3.30873 -2.11968 0 
3.52086 -2.1195 0 
3.7329 -2.11938 0 
3.94484 -2.11986 0 
4.15715 -2.12044 0 
4.36983 -2.12035 0 
4.58282 -2.1204 0 
4.79606 -2.12017 0 
5.01004 -2.12012 0 
5.22483 -2.12002 0 
5.44073 -2.12051 0 
5.6582 -2.123 0 
5.8782 -2.12696 0 
6.10217 -2.12971 0 
6.33095 -2.12707 0 
6.567 -2.11601 0 
6.82301 -2.12303 0 
7.06572 -2.04567 0 
7.29733 -2.17484 0 
7.54632 -2.11408 0 
7.79371 -2.13741 0 
8.02274 -2.07453 0 
8.25027 -2.1738 0 
8.48528 -2.0332 0 
-8.48528 -1.79671 0 
-8.25436 -1.93882 0 
-8.01299 -1.83977 0 
-7.78596 -1.953 0 
-7.5297 -1.87194 0 
-7.2756 -1.88722 0 
-7.05707 -1.93544 0 
-6.84369 -1.89677 0 
-6.62219 -1.88079 0 
-6.40169 -1.87606 0 
-6.18206 -1.87854 0 
-5.96274 -1.881 0 
-5.74458 -1.88208 0 
-5.52796 -1.88344 0 
-5.31232 -1.88506 0 
-5.09736 -1.88569 0 
-4.88338 -1.88564 0 
-4.67019 -1.88555 0 
-4.45737 -1.88507 0 
-4.24485 -1.88447 0 
-4.03271 -1.88482 0 
-3.82061 -1.88562 0 
-3.60832 -1.88529 0 
-3.39617 -1.88464 0 
-3.18427 -1.88547 0 
-2.97209 -1.88672 0 
-2.7596 -1.88684 0 
-2.54714 -1.88601 0 
-2.33483 -1.88505 0 
-2.12268 -1.8846 0 
-1.91058 -1.885 0 
-1.69824 -1.88561 0 
-1.48561 -1.88547 0 
-1.27286 -1.88413 0 
-1.06032 -1.88216 0 
-0.848858 -1.8839 0 
-0.636875 -1.88781 0 
-0.424169 -1.89034 0 
-0.211518 -1.89004 0 
0.000731944 -1.88866 0 
0.21257 -1.88788 0 
0.424308 -1.88807 0 
0.636257 -1.88793 0 
0.848362 -1.88664 0 
1.06025 -1.88556 0 
1.27191 -1.88605 0 
1.48381 -1.88664 0 
1.69595 -1.886 0 
1.90782 -1.88577 0 
2.11974 -1.88637 0 
2.33202 -1.88609 0 
2.54419 -1.88502 0 
2.75607 -1.88472 0 
2.96812 -1.88462 0 
3.18055 -1.88217 0 
3.39117 -1.88415 0 
3.60398 -1.8838 0 
3.81618 -1.88366 0 
4.02827 -1.88469 0 
4.24071 -1.88523 0 
4.4544 -1.88509 0 
4.66716 -1.88476 0 
4.88099 -1.88493 0 
5.09545 -1.88466 0 
5.31057 -1.88453 0 
5.52653 -1.88564 0 
5.7436 -1.88981 0 
5.96352 -1.89563 0 
6.18733 -1.89813 0 
6.41543 -1.89522 0 
6.65059 -1.89622 0 
6.87542 -1.86913 0 
7.11122 -1.81621 0 
7.31223 -1.94975 0 
7.53264 -1.87683 0 
7.77077 -1.89068 0 
8.01717 -1.8297 0 
8.25014 -1.93148 0 
8.48528 -1.79628 0 
-8.48528 -1.57009 0 
-8.24868 -1.70836 0 
-8.015 -1.61096 0 
-7.76734 -1.73071 0 
-7.54593 -1.61782 0 
-7.32306 -1.66278 0 
-7.05152 -1.7082 0 
-6.79786 -1.66675 0 
-6.56099 -1.64764 0 
-6.33267 -1.64541 0 
-6.10856 -1.64921 0 
-5.88638 -1.65073 0 
-5.66697 -1.65153 0 
-5.44986 -1.65353 0 
-5.23379 -1.65525 0 
-5.01882 -1.6551 0 
-4.80519 -1.6548 0 
-4.59235 -1.65478 0 
-4.37976 -1.65422 0 
-4.16737 -1.65386 0 
-3.95537 -1.65471 0 
-3.74326 -1.6554 0 
-3.5309 -1.65455 0 
-3.31876 -1.65426 0 
-3.10682 -1.65593 0 
-2.89443 -1.65705 0 
-2.68177 -1.65644 0 
-2.46924 -1.65516 0 
-2.25682 -1.65408 0 
-2.04447 -1.65386 0 
-1.83202 -1.65455 0 
-1.61911 -1.65506 0 
-1.40572 -1.65429 0 
-1.19212 -1.65207 0 
-0.97885 -1.64982 0 
-0.767325 -1.65372 0 
-0.555434 -1.6581 0 
-0.343588 -1.65935 0 
-0.132061 -1.65818 0 
0.0792288 -1.65687 0 
0.290417 -1.65682 0 
0.501823 -1.6575 0 
0.713729 -1.65709 0 
0.925861 -1.65545 0 
1.13768 -1.65488 0 
1.34929 -1.65604 0 
1.56128 -1.6563 0 
1.77337 -1.65516 0 
1.985 -1.65561 0 
2.19698 -1.65642 0 
2.40939 -1.65525 0 
2.62143 -1.65394 0 
2.83323 -1.65414 0 
3.04553 -1.65355 0 
3.25842 -1.64868 0 
3.46746 -1.65522 0 
3.68272 -1.65284 0 
3.89574 -1.65288 0 
4.10731 -1.65378 0 
4.32287 -1.65565 0 
4.53627 -1.65249 0 
4.74932 -1.65397 0 
4.96428 -1.65355 0 
5.17935 -1.65257 0 
5.3944 -1.65202 0 
5.60927 -1.65354 0 
5.82513 -1.66019 0 
6.04295 -1.66711 0 
6.26383 -1.66843 0 
6.48537 -1.66776 0 
6.70098 -1.65646 0 
6.91299 -1.6206 0 
7.11709 -1.6046 0 
7.3526 -1.69716 0 
7.60698 -1.65764 0 
7.8325 -1.64214 0 
8.05985 -1.58842 0 
8.2608 -1.69223 0 
8.48528 -1.56961 0 
-8.48528 -1.35019 0 
-8.24958 -1.48044 0 
-8.0219 -1.3751 0 
-7.79713 -1.50391 0 
-7.58956 -1.39834 0 
-7.36199 -1.38754 0 
-7.16079 -1.49923 0 
-6.93764 -1.46284 0 
[...]
POINT_DATA 2054 
VECTORS vectors float
0.0174125 -0.0258386 0.999515 
0.0204858 -0.0288538 0.99937 
0.0201545 -0.0302229 0.999337 
0.0201822 -0.0264721 0.999446 
0.0206718 -0.0231454 0.99952 
0.0209083 -0.0207387 0.999569 
0.0209542 -0.0186008 0.99961 
0.0209247 -0.0160755 0.999654 
0.0209065 -0.0131567 0.999698 
0.0209181 -0.0100955 0.999733 
0.0209471 -0.00711219 0.999758 
0.0209753 -0.00430238 0.999773 
0.0209932 -0.00164271 0.999781 
0.0209978 0.000956394 0.999782 
0.0209878 0.00360792 0.999776 
0.0209619 0.0064362 0.999762 
0.0209183 0.00957932 0.999738 
0.0208544 0.0131947 0.999698 
0.0207666 0.017468 0.999634 
0.0206505 0.0226202 0.999533 
0.0205007 0.0289146 0.999374 
0.02031 0.0366675 0.999124 
0.0200691 0.0462601 0.998731 
0.0197666 0.0581582 0.998115 
0.0193882 0.0729303 0.997152 
0.0189152 0.0912713 0.995649 
0.0183241 0.114029 0.993312 
0.0175867 0.14222 0.989682 
0.0166695 0.177058 0.984063 
0.0155339 0.219937 0.975394 
0.014139 0.272401 0.962084 
0.0124494 0.336015 0.941778 
0.0104516 0.412072 0.911095 
0.00818149 0.501062 0.865376 
0.0057604 0.601749 0.798668 
0.00342103 0.709926 0.704271 
0.00148658 0.817222 0.576323 
0.000259866 0.910935 0.412551 
-0.000163894 0.976082 0.217402 
-3.80738e-05 0.999994 0.00347391 
0.000100326 0.977529 -0.210801 
-0.000292447 0.913488 -0.406868 
-0.00148463 0.820365 -0.57184 
-0.00339338 0.713175 -0.700981 
-0.00571969 0.604773 -0.796381 
-0.00813803 0.503682 -0.863855 
-0.0104113 0.414243 -0.910111 
-0.0124149 0.33776 -0.941154 
-0.0141108 0.273779 -0.961693 
-0.0155115 0.221008 -0.975152 
-0.016652 0.177882 -0.983914 
-0.0175728 0.142852 -0.989591 
-0.0183129 0.114511 -0.993256 
-0.0189064 0.091641 -0.995616 
-0.0193814 0.0732135 -0.997131 
-0.0197613 0.0583758 -0.998102 
-0.0200645 0.0464292 -0.998723 
-0.0203061 0.0368005 -0.999119 
-0.0204974 0.0290213 -0.999371 
-0.0206475 0.022707 -0.999532 
-0.0207634 0.0175394 -0.999633 
-0.0208506 0.0132541 -0.999697 
-0.0209136 0.00962884 -0.999738 
-0.0209557 0.00647736 -0.999762 
-0.0209789 0.00364099 -0.999776 
-0.0209849 0.000981528 -0.999782 
-0.020976 -0.00162008 -0.999781 
-0.0209547 -0.00427505 -0.999774 
-0.0209212 -0.00707819 -0.999759 
-0.0209159 -0.0100654 -0.999732 
-0.020862 -0.0130276 -0.9997 
-0.0209256 -0.0158803 -0.999657 
-0.0209559 -0.0182966 -0.999616 
-0.0208905 -0.0203855 -0.999576 
-0.0206652 -0.0228252 -0.999528 
-0.0201647 -0.0262032 -0.999454 
-0.0201681 -0.0299136 -0.999347 
-0.0204878 -0.0285302 -0.99938 
-0.0174031 -0.0258293 -0.999516 
0.00421026 -0.0279545 0.999593 
0.0132938 -0.0274395 0.999542 
0.0155886 -0.0285225 0.999478 
0.0177117 -0.0279353 0.99946 
0.0188714 -0.0249086 0.999518 
0.019494 -0.0218785 0.999577 
0.0199353 -0.0193441 0.999621 
0.0202058 -0.0168506 0.99966 
0.0203945 -0.0141246 0.999698 
0.0205681 -0.0112579 0.999731 
0.0207215 -0.00834977 0.999757 
0.0208412 -0.00550368 0.999774 
0.0209263 -0.00277403 0.999783 
0.0209785 -0.000130401 0.999786 
0.0209976 0.00251941 0.999782 
0.020983 0.00529536 0.999772 
0.0209337 0.00833166 0.999752 
0.0208476 0.0117798 0.999719 
0.0207209 0.0158141 0.999666 
0.0205484 0.0206381 0.999582 
0.0203235 0.0264971 0.999448 
0.0200389 0.0336917 0.999238 
0.0196858 0.042579 0.998905 
0.0192534 0.0535828 0.998384 
0.0187286 0.0672309 0.997568 
0.0180959 0.084184 0.996293 
0.0173374 0.105243 0.994302 
0.0164337 0.131352 0.991207 
0.0153651 0.163625 0.986411 
0.0141125 0.203379 0.979006 
0.0126611 0.252112 0.967623 
0.0110071 0.311415 0.950219 
0.00916899 0.382712 0.923831 
0.00720282 0.466765 0.884361 
0.00521455 0.562948 0.826484 
0.00335093 0.668392 0.743809 
0.00177449 0.776784 0.629771 
0.000622357 0.877288 0.479969 
-6.00533e-05 0.955266 0.295748 
-0.000375015 0.99622 0.0868564 
-0.000556176 0.991562 -0.129625 
-0.000880948 0.942429 -0.334407 
-0.00156855 0.858951 -0.512059 
-0.00270762 0.755843 -0.654754 
-0.00424622 0.647143 -0.762364 
-0.00604698 0.542902 -0.839782 
-0.00795127 0.448793 -0.893609 
-0.00982062 0.367219 -0.930091 
-0.0115616 0.298395 -0.954381 
-0.0131266 0.241295 -0.970371 
-0.0144993 0.19444 -0.980815 
-0.0156826 0.156294 -0.987594 
-0.0166917 0.125394 -0.991974 
-0.0175454 0.100432 -0.994796 
-0.0182629 0.0803149 -0.996609 
-0.0188626 0.0641088 -0.997771 
-0.01936 0.0510594 -0.998514 
-0.019769 0.0405431 -0.998989 
-0.0201012 0.0320467 -0.99929 
-0.0203666 0.025155 -0.999482 
-0.0205736 0.0195292 -0.999604 
-0.0207288 0.014885 -0.99968 
-0.0208369 0.0109838 -0.999729 
-0.0209 0.00762366 -0.999758 
-0.0209169 0.00463029 -0.999777 
-0.0208818 0.00184822 -0.999786 
-0.0207901 -0.00087049 -0.99979 
-0.0206501 -0.00366965 -0.999786 
-0.0204971 -0.00667074 -0.999774 
-0.0203092 -0.00984203 -0.999753 
-0.0201811 -0.0129915 -0.99972 
-0.0201065 -0.0159748 -0.999675 
-0.0198856 -0.0184867 -0.999639 
-0.0195175 -0.0213913 -0.999587 
-0.0187478 -0.0245036 -0.999531 
-0.0175881 -0.0275072 -0.999474 
-0.015401 -0.0281623 -0.999491 
-0.0131858 -0.0273089 -0.999547 
-0.0041961 -0.0279305 -0.999594 
0.00420678 -0.0282503 0.999585 
0.00999846 -0.0271918 0.999586 
0.0141518 -0.0280757 0.999515 
0.0174696 -0.0268381 0.999494 
0.0188125 -0.0234978 0.999554 
0.0197414 -0.0204666 0.999603 
0.0203585 -0.0177786 0.999641 
0.0207827 -0.0151214 0.999676 
0.0211303 -0.012448 0.999706 
0.0214275 -0.00969331 0.99973 
0.0216599 -0.00688512 0.999748 
0.0218316 -0.00410977 0.99976 
0.0219504 -0.00141416 0.999765 
0.0220179 0.00124583 0.999763 
0.022035 0.00397494 0.999756 
0.0220021 0.00690161 0.999741 
0.0219177 0.0101698 0.999715 
0.0217786 0.013944 0.999672 
0.0215799 0.0184148 0.999604 
0.0213151 0.0238049 0.999496 
0.0209761 0.0303864 0.999325 
0.0205547 0.0384945 0.999054 
0.0200412 0.0485242 0.998628 
0.019424 0.0609446 0.997959 
0.018689 0.076355 0.996913 
0.0178212 0.0955033 0.995277 
0.0168058 0.119271 0.992727 
0.0156294 0.148688 0.988768 
0.0142814 0.184967 0.982649 
0.0127573 0.229512 0.97323 
0.0110625 0.283883 0.958804 
0.0092211 0.349608 0.936859 
0.00728649 0.427807 0.903849 
0.00534881 0.518563 0.855031 
0.00353127 0.620014 0.784591 
0.00195506 0.727656 0.685946 
0.000716085 0.833028 0.553235 
-0.000142602 0.923134 0.384482 
-0.00066161 0.982671 0.185353 
-0.000970571 0.999553 -0.0298673 
-0.00125394 0.970256 -0.242076 
-0.00170052 0.901186 -0.433433 
-0.00245159 0.805578 -0.59249 
-0.00356088 0.69829 -0.715813 
-0.00499244 0.591373 -0.806391 
-0.0066533 0.492331 -0.870391 
-0.0084263 0.40486 -0.914349 
-0.0101997 0.330134 -0.943887 
-0.0118923 0.267657 -0.963449 
-0.0134556 0.216091 -0.976289 
-0.0148637 0.173928 -0.984654 
-0.0161096 0.139697 -0.990071 
-0.0171985 0.112009 -0.993566 
-0.01814 0.089651 -0.995815 
-0.0189467 0.0716545 -0.997257 
-0.0196313 0.0571465 -0.99818 
-0.020206 0.0454563 -0.998769 
-0.0206816 0.0360242 -0.999144 
-0.021068 0.0283842 -0.999382 
-0.0213749 0.0221614 -0.999533 
-0.0216105 0.0170528 -0.999628 
-0.021781 0.0127979 -0.999687 
-0.0218906 0.00918087 -0.999725 
-0.0219408 0.00601504 -0.999748 
-0.0219292 0.00313984 -0.999761 
-0.021847 0.000410021 -0.999768 
-0.0216852 -0.00230599 -0.999769 
-0.0214561 -0.00509773 -0.999764 
-0.0212082 -0.00798337 -0.99975 
-0.0209938 -0.0108413 -0.999728 
-0.0207777 -0.0135389 -0.999698 
-0.0205057 -0.016006 -0.999668 
-0.0200373 -0.0176514 -0.999651 
-0.0197695 -0.020015 -0.999609 
-0.0186993 -0.0230692 -0.999566 
-0.0172048 -0.0263828 -0.999512 
-0.0140789 -0.0276563 -0.999528 
-0.00999679 -0.027001 -0.999592 
-0.00414702 -0.0282191 -0.999587 
0.00320478 -0.0280116 0.999599 
0.00860356 -0.0271869 0.9996 
0.0117085 -0.028293 0.999538 
0.0154454 -0.02804 0.999493 
0.0166566 -0.0252148 0.99955 
0.0175929 -0.0218563 0.999613 
0.0187946 -0.0189722 0.99965 
0.0194307 -0.0162373 0.999686 
0.0196449 -0.0137153 0.99972 
0.0199543 -0.0111522 0.999745 
0.0202721 -0.00846437 0.999765 
0.0205374 -0.00569156 0.99978 
0.0207248 -0.0029419 0.999787 
0.0208447 -0.000248847 0.999789 
0.0209071 0.00245353 0.999785 
0.0209087 0.00528306 0.999774 
0.0208477 0.00837535 0.999754 
0.0207235 0.0118829 0.999721 
0.0205318 0.015984 0.999668 
0.0202681 0.0208841 0.999583 
0.0199337 0.0268242 0.999448 
0.0195216 0.0341027 0.999234 
0.0190111 0.0430875 0.998897 
0.0183917 0.0542074 0.998367 
0.0176674 0.0679771 0.997537 
0.0168268 0.0850668 0.99624 
0.0158464 0.106296 0.994216 
0.0147143 0.132612 0.991066 
0.0134301 0.165118 0.98619 
0.0119992 0.20511 0.978673 
0.0104322 0.25405 0.967143 
0.00874449 0.3135 0.949556 
0.00696909 0.384865 0.922955 
0.00516926 0.468888 0.883251 
0.00343966 0.564897 0.825162 
0.00189912 0.669671 0.742663 
0.000627853 0.777223 0.629231 
-0.000322906 0.877169 0.480186 
-0.000945595 0.954998 0.296613 
-0.00129847 0.996087 0.0883628 
-0.00150533 0.991837 -0.127497 
-0.0017278 0.943385 -0.331698 
-0.00212232 0.860771 -0.508992 
-0.00279529 0.758492 -0.651683 
-0.00377805 0.650459 -0.75954 
-0.00503772 0.546691 -0.837327 
-0.00649844 0.452755 -0.89162 
-0.00806033 0.371019 -0.928599 
-0.00963474 0.30189 -0.953303 
-0.0111623 0.244416 -0.969614 
-0.0125963 0.197133 -0.980304 
-0.0139049 0.158574 -0.987257 
-0.0150832 0.127322 -0.991754 
-0.0161328 0.102049 -0.994656 
-0.0170442 0.0816399 -0.996523 
-0.0178451 0.065242 -0.997717 
-0.0185278 0.0519843 -0.998483 
-0.0191046 0.041297 -0.998971 
-0.0195885 0.0326625 -0.999281 
-0.0199835 0.0256454 -0.999478 
-0.0202902 0.019907 -0.999603 
-0.0205255 0.0151657 -0.999681 
-0.0206906 0.0111865 -0.99973 
-0.020796 0.00776141 -0.99976 
-0.0208425 0.0047199 -0.999778 
-0.0208373 0.0019087 -0.999788 
-0.0207889 -0.000809643 -0.99979 
-0.0206797 -0.00355143 -0.999787 
-0.0204815 -0.00637762 -0.999777 
-0.0201692 -0.00924032 -0.999761 
-0.0197216 -0.0120465 -0.99974 
-0.0192705 -0.014888 -0.999712 
-0.0179513 -0.0175853 -0.999691 
-0.0185993 -0.0204687 -0.999625 
-0.0166845 -0.0239446 -0.999583 
-0.0151577 -0.027232 -0.999521 
-0.0116954 -0.0279331 -0.999549 
-0.00848569 -0.0269619 -0.999607 
-0.00319424 -0.0279813 -0.9996 
0.00236134 -0.0279054 0.999606 
0.00680411 -0.0274046 0.999608 
0.00938641 -0.0286357 0.999553 
0.0131407 -0.0276681 0.999538 
0.0136832 -0.0238892 0.99963 
0.0150697 -0.0202011 0.999689 
0.0164972 -0.017604 0.999714 
0.0164856 -0.0151714 0.999756 
0.0167813 -0.0127443 0.999785 
0.0171487 -0.0102124 0.999807 
0.0175101 -0.00749806 0.999825 
0.01778 -0.00469955 0.999837 
0.0179531 -0.00193734 0.999843 
0.0180608 0.00078336 0.999843 
0.0181099 0.00355525 0.999836 
0.0180869 0.00650801 0.999822 
0.0179951 0.00978194 0.999797 
0.0178399 0.0135403 0.999756 
0.0176129 0.0179759 0.99969 
0.0173121 0.0233088 0.999585 
0.016945 0.0297961 0.999419 
0.0164976 0.037764 0.999157 
0.0159422 0.0476136 0.998745 
0.0152825 0.0598031 0.9981 
0.0145337 0.0748924 0.997093 
0.0136745 0.0936253 0.995521 
0.0126812 0.116879 0.993073 
0.0115571 0.145652 0.989276 
0.0103156 0.181124 0.983414 
0.00897198 0.224649 0.974406 
0.0075436 0.277725 0.960639 
0.00604762 0.341909 0.939722 
0.0045179 0.418424 0.908249 
0.0030147 0.507567 0.861615 
0.00162016 0.607806 0.794092 
0.000432415 0.714423 0.699721 
-0.000510717 0.820113 0.572206 
-0.00117991 0.912626 0.408798 
-0.00157638 0.976792 0.214185 
-0.00175567 0.999997 0.00129858 
-0.00182797 0.977415 -0.211318 
-0.00193161 0.914069 -0.405558 
-0.00219329 0.822245 -0.569135 
-0.00269153 0.716563 -0.697524 
-0.00344678 0.609588 -0.792718 
-0.00443511 0.509516 -0.860458 
-0.00559545 0.420395 -0.907333 
-0.00684817 0.343691 -0.939066 
-0.00813519 0.279288 -0.960181 
-0.00941262 0.225933 -0.974105 
-0.0106296 0.182123 -0.983226 
-0.0117579 0.146471 -0.989153 
-0.0127986 0.117599 -0.992986 
-0.0137403 0.0942378 -0.995462 
-0.0145506 0.075362 -0.997057 
-0.0153043 0.0602492 -0.998073 
-0.0159343 0.0479397 -0.99873 
-0.0164675 0.0380305 -0.999148 
-0.0169227 0.0300091 -0.999413 
-0.0172868 0.0234731 -0.999582 
-0.0175669 0.0180851 -0.999689 
-0.0177722 0.013633 -0.999756 
-0.0179198 0.00985026 -0.999797 
-0.0180021 0.00656004 -0.999823 
-0.0180288 0.00359823 -0.999837 
-0.0180155 0.000817448 -0.999844 
-0.017983 -0.00190982 -0.999843 
-0.0179026 -0.00468863 -0.999835 
-0.0176978 -0.00752867 -0.999822 
-0.0173292 -0.0103172 -0.999803 
-0.0168796 -0.012964 -0.99978 
-0.0160038 -0.0153937 -0.99976 
-0.0146872 -0.0180541 -0.999736 
-0.0158082 -0.0206038 -0.99967 
-0.0137602 -0.0239381 -0.999624 
-0.0123081 -0.0272164 -0.999563 
-0.00914832 -0.0283499 -0.999564 
-0.00675211 -0.0272096 -0.999613 
-0.0023547 -0.0279039 -0.999606 
0.00174023 -0.027876 0.999609 
0.00520601 -0.027592 0.999612 
0.0072555 -0.0289002 0.999563 
0.0105055 -0.0275794 0.999572 
0.0106274 -0.024232 0.999657 
0.0120865 -0.0207856 0.999718 
0.0135313 -0.0173657 0.999766 
0.0138005 -0.0146158 0.999805 
0.0141816 -0.0120963 0.999833 
0.0146038 -0.00945421 0.999855 
0.0149658 -0.00663833 0.999873 
0.0152074 -0.00378275 0.999884 
0.0153627 -0.000991364 0.999888 
0.0154625 0.00177425 0.999885 
0.0154965 0.00463522 0.999876 
0.0154499 0.00772671 0.999857 
0.0153403 0.0111955 0.999826 
0.0151696 0.0152176 0.999776 
0.0149254 0.0200002 0.999695 
0.0146107 0.025778 0.999567 
0.0142305 0.0328238 0.999366 
0.0137645 0.0414965 0.99905 
0.0131931 0.0522276 0.998555 
0.0125333 0.0655014 0.997781 
0.0117935 0.0819298 0.996575 
0.0109449 0.102332 0.994697 
0.0099789 0.127631 0.991779 
0.00891258 0.158874 0.987266 
0.00776255 0.197317 0.980317 
0.00654674 0.244377 0.969666 
0.00528248 0.301586 0.953433 
0.00398704 0.370474 0.928843 
0.00269381 0.452041 0.892002 
0.00145645 0.546019 0.83778 
0.000342653 0.649799 0.760113 
-0.000571974 0.756927 0.653506 
-0.00127205 0.858727 0.512436 
-0.00172951 0.941518 0.33696 
-0.00194864 0.990884 0.134703 
-0.00198608 0.996853 -0.0792449 
-0.00194554 0.958223 -0.286016 
-0.00194944 0.88303 -0.469316 
-0.00210125 0.78478 -0.619777 
-0.00245996 0.677628 -0.735408 
-0.00303917 0.572707 -0.819763 
-0.00381732 0.476563 -0.87914 
-0.00474233 0.392023 -0.919951 
-0.00575479 0.319923 -0.947435 
-0.00681841 0.259744 -0.965661 
-0.0078907 0.209979 -0.977682 
-0.00892165 0.169188 -0.985551 
-0.00989545 0.136062 -0.990658 
-0.0108104 0.109239 -0.993964 
-0.0116392 0.0875068 -0.996103 
-0.012343 0.0699357 -0.997482 
-0.0130554 0.0559732 -0.998354 
-0.013607 0.0443937 -0.998928 
-0.0140866 0.0351343 -0.99929 
-0.0144858 0.0276711 -0.999519 
-0.0148241 0.021471 -0.999666 
-0.0150337 0.0164252 -0.999759 
-0.0152236 0.0122126 -0.999816 
-0.0153326 0.00858884 -0.999852 
-0.015378 0.00540674 -0.999874 
-0.0153727 0.00250704 -0.999885 
-0.0153346 -0.000249908 -0.999889 
-0.0152933 -0.00299249 -0.999885 
-0.0151851 -0.00578919 -0.999874 
-0.0149252 -0.00860028 -0.999858 
-0.0145312 -0.0112404 -0.999838 
-0.0139243 -0.0135893 -0.999817 
-0.01298 -0.0158496 -0.999797 
-0.0122189 -0.0181786 -0.999765 
-0.012323 -0.0211538 -0.999708 
-0.0106735 -0.0252218 -0.999632 
-0.00905497 -0.028213 -0.999568 
-0.00656742 -0.0286352 -0.999573 
-0.00492377 -0.0274793 -0.999617 
-0.00174127 -0.0278794 -0.999609 
0.00138597 -0.0278675 0.99961 
0.00401172 -0.0277635 0.999612 
0.00570257 -0.0290776 0.999568 
0.00819899 -0.0280775 0.999579 
0.008554 -0.0250589 0.999655 
0.00939203 -0.0213267 0.999737 
0.0110762 -0.0186853 0.999769 
0.0114406 -0.0161287 0.999811 
0.0117735 -0.0137631 0.999843 
0.0121974 -0.0113097 0.999868 
0.012611 -0.00861155 0.99989 
0.0129364 -0.00573853 0.999906 
0.0131339 -0.00285518 0.999916 
0.0132676 -5.32329e-05 0.999918 
0.0133534 0.00275926 0.999913 
0.0133593 0.00571089 0.999901 
0.0132896 0.0089467 0.999878 
0.0131677 0.0126146 0.99984 
0.0129876 0.0169016 0.999779 
0.012738 0.0220408 0.999682 
0.0124218 0.0282694 0.99953 
0.0120429 0.0358819 0.99929 
0.0115768 0.0452689 0.998914 
0.0110164 0.056891 0.998326 
0.0103837 0.071254 0.997411 
0.00967444 0.0890294 0.995989 
0.00886087 0.111107 0.993776 
0.0079499 0.138448 0.990345 
0.00696401 0.172153 0.985053 
0.00591916 0.213555 0.976921 
0.00483301 0.264122 0.964485 
0.00372136 0.325396 0.945579 
0.00260026 0.398813 0.917037 
0.00150182 0.48502 0.87451 
0.000472664 0.582975 0.812498 
-0.000430627 0.688747 0.725009 
-0.00115253 0.794297 0.607534 
-0.00167839 0.890239 0.455495 
-0.00197786 0.962583 0.27098 
-0.00206343 0.997974 0.0635832 
-0.0019986 0.988703 -0.149873 
-0.001886 0.936603 -0.350389 
-0.00183478 0.852055 -0.523453 
-0.00192822 0.749281 -0.662256 
-0.00220947 0.641843 -0.76684 
-0.00268403 0.539484 -0.842 
-0.0033283 0.447232 -0.89442 
-0.00409704 0.366958 -0.930237 
-0.00494811 0.299029 -0.954239 
-0.00585564 0.24261 -0.970114 
-0.00677378 0.195971 -0.980594 
-0.00766013 0.157794 -0.98745 
-0.00851004 0.126878 -0.991889 
-0.0093142 0.101822 -0.994766 
-0.0100355 0.0814552 -0.996633 
-0.0106361 0.0649504 -0.997839 
-0.0113401 0.0520884 -0.998585 
-0.0117996 0.0408741 -0.999101 
-0.0121773 0.032428 -0.999406 
-0.0125963 0.0252019 -0.999609 
-0.0128093 0.0194675 -0.999735 
-0.0129907 0.0147156 -0.999814 
-0.0131616 0.0107406 -0.999862 
-0.0132217 0.00724112 -0.999893 
-0.013223 0.00415296 -0.99991 
-0.0131794 0.00132328 -0.999919 
-0.0131421 -0.00143713 -0.999919 
-0.0130887 -0.00418922 -0.999912 
-0.0129641 -0.00699521 -0.999898 
-0.0126498 -0.00975274 -0.999879 
-0.0121702 -0.0122568 -0.999857 
-0.0114557 -0.0146034 -0.999834 
-0.0104435 -0.0171237 -0.999807 
-0.0104345 -0.0199294 -0.999752 
-0.00949141 -0.0230882 -0.999695 
-0.00799258 -0.0269107 -0.999613 
-0.00647002 -0.0290247 -0.999565 
-0.00385632 -0.0276595 -0.999617 
-0.00136146 -0.0278825 -0.99961 
0.00116927 -0.0278551 0.999611 
0.00321589 -0.0278876 0.999612 
0.00465401 -0.0292223 0.999569 
0.00662413 -0.0281603 0.999588 
0.00729337 -0.024291 0.999685 
0.0078141 -0.0206682 0.999763 
0.00936769 -0.0181713 0.999798 
0.00970666 -0.0156117 0.999838 
0.0101128 -0.0132011 0.999868 
0.0105258 -0.0106332 0.999895 
0.0109168 -0.00781043 0.999916 
0.0111968 -0.00485324 0.999932 
0.0113343 -0.0019536 0.99994 
0.0114571 0.000857666 0.99994 
0.0115191 0.00370667 0.999933 
0.0115017 0.00675536 0.999917 
0.0114168 0.0101399 0.99989 
0.0112919 0.0139907 0.999845 
0.011119 0.0185558 0.999772 
0.0108733 0.0240541 0.999658 
0.010572 0.0307325 0.999478 
0.0102111 0.038907 0.999197 
0.00976633 0.0490049 0.998757 
0.00924331 0.0614887 0.998072 
0.00866278 0.076896 0.997008 
0.00800642 0.0959734 0.995359 
0.00725291 0.119665 0.992795 
0.00642215 0.148913 0.988837 
0.00553707 0.18484 0.982761 
0.00461136 0.228803 0.97347 
0.00366175 0.28219 0.959359 
0.00270214 0.346394 0.938093 
0.00174823 0.422616 0.906315 
0.000830577 0.510985 0.859597 
-1.41972e-05 0.610018 0.792395 
-0.000745242 0.715499 0.69862 
-0.00132397 0.819389 0.573242 
-0.00172318 0.911425 0.411465 
-0.00191429 0.9761 0.217311 
-0.00191694 0.999992 0.00337712 
-0.00180172 0.97751 -0.210881 
-0.00166931 0.913779 -0.406212 
-0.00161391 0.821538 -0.570157 
-0.00169926 0.715574 -0.698542 
-0.00195502 0.608805 -0.793325 
-0.00237849 0.509386 -0.860543 
-0.00294364 0.420869 -0.907125 
-0.00361136 0.344499 -0.938788 
-0.00435154 0.280382 -0.959887 
-0.0051428 0.227324 -0.973813 
-0.00593742 0.183315 -0.983044 
-0.00670017 0.147384 -0.989064 
-0.00743979 0.118461 -0.992938 
-0.00814118 0.0948605 -0.995464 
-0.00875823 0.0754528 -0.997118 
-0.00923808 0.0596642 -0.998184 
-0.0100627 0.0478607 -0.998808 
-0.010161 0.0375764 -0.99925 
-0.0107307 0.0290891 -0.999526 
-0.0109099 0.0226133 -0.999691 
-0.0110916 0.0172673 -0.999796 
-0.0112216 0.0128381 -0.999861 
-0.011408 0.00911102 -0.9999 
-0.0113899 0.00564682 -0.999925 
-0.0113011 0.0026983 -0.999939 
-0.0112796 -0.000133324 -0.999943 
-0.0112057 -0.00289302 -0.999939 
-0.0111509 -0.00559708 -0.999928 
-0.0110186 -0.00822129 -0.99991 
-0.0106536 -0.0107339 -0.999892 
-0.0102073 -0.0131129 -0.999868 
-0.00954594 -0.0154375 -0.999842 
-0.00863978 -0.017956 -0.999808 
-0.00879689 -0.0203202 -0.999761 
-0.00753637 -0.0240926 -0.999688 
-0.00603748 -0.0278546 -0.999602 
-0.00465223 -0.0289048 -0.999578 
-0.00282619 -0.0276456 -0.999619 
-0.00114904 -0.0278382 -0.999611 
0.000980251 -0.02784 0.999612 
0.00264555 -0.0279649 0.999611 
0.00380248 -0.029341 0.999569 
0.0055277 -0.0279931 0.9996 
0.00601689 -0.0243039 0.999693 