# vtk DataFile Version 3.0 
Exported using Morpho https://github.com/Morpho-lang/morpho 
ASCII 
DATASET UNSTRUCTURED_GRID 

POINTS 2054 float 
-8.48528 -2.82843 0 
-8.20636 -2.82843 0 
-7.94054 -2.82843 0 
-7.6904 -2.82843 0 
-7.45357 -2.82843 0 
-7.22694 -2.82843 0 
-7.00705 -2.82843 0 
-6.79111 -2.82843 0 
-6.57731 -2.82843 0 
-6.36453 -2.82843 0 
-6.15219 -2.82843 0 
-5.94 -2.82843 0 
-5.72786 -2.82843 0 
-5.51573 -2.82843 0 
-5.3036 -2.82843 0 
-5.09147 -2.82843 0 
-4.87933 -2.82843 0 
-4.6672 -2.82843 0 
-4.45507 -2.82843 0 
-4.24294 -2.82843 0 
-4.03081 -2.82843 0 
-3.81867 -2.82843 0 
-3.60654 -2.82843 0 
-3.39441 -2.82843 0 
-3.18228 -2.82843 0 
-2.97015 -2.82843 0 
-2.75801 -2.82843 0 
-2.54588 -2.82843 0 
-2.33375 -2.82843 0 
-2.12162 -2.82843 0 
-1.90949 -2.82843 0 
-1.69735 -2.82843 0 
-1.48522 -2.82843 0 
-1.27309 -2.82843 0 
-1.06096 -2.82843 0 
-0.848825 -2.82843 0 
-0.636693 -2.82843 0 
-0.424561 -2.82843 0 
-0.212429 -2.82843 0 
-0.000296761 -2.82843 0 
0.211835 -2.82843 0 
0.423967 -2.82843 0 
0.636099 -2.82843 0 
0.848231 -2.82843 0 
1.06036 -2.82843 0 
1.2725 -2.82843 0 
1.48463 -2.82843 0 
1.69676 -2.82843 0 
1.90889 -2.82843 0 
2.12102 -2.82843 0 
2.33316 -2.82843 0 
2.54529 -2.82843 0 
2.75742 -2.82843 0 
2.96955 -2.82843 0 
3.18168 -2.82843 0 
3.39382 -2.82843 0 
3.60595 -2.82843 0 
3.81808 -2.82843 0 
4.03021 -2.82843 0 
4.24234 -2.82843 0 
4.45448 -2.82843 0 
4.66661 -2.82843 0 
4.87874 -2.82843 0 
5.09087 -2.82843 0 
5.303 -2.82843 0 
5.51514 -2.82843 0 
5.72727 -2.82843 0 
5.93941 -2.82843 0 
6.15159 -2.82843 0 
6.36393 -2.82843 0 
6.57672 -2.82843 0 
6.79055 -2.82843 0 
7.00652 -2.82843 0 
7.22647 -2.82843 0 
7.45313 -2.82843 0 
7.69005 -2.82843 0 
7.9403 -2.82843 0 
8.20621 -2.82843 0 
8.48528 -2.82843 0 
-8.48528 -2.5495 0 
-8.30526 -2.64845 0 
-8.07062 -2.59995 0 
-7.83904 -2.59637 0 
-7.59595 -2.59733 0 
-7.36578 -2.59177 0 
-7.13796 -2.5933 0 
-6.90908 -2.59428 0 
-6.68421 -2.5916 0 
-6.46568 -2.58832 0 
-6.24926 -2.58859 0 
-6.03358 -2.58941 0 
-5.81848 -2.59013 0 
-5.60402 -2.59075 0 
-5.39005 -2.59135 0 
-5.17642 -2.59186 0 
-4.96311 -2.59223 0 
-4.75009 -2.59242 0 
-4.53736 -2.59244 0 
-4.32497 -2.59236 0 
-4.1128 -2.59242 0 
-3.90059 -2.59259 0 
-3.68835 -2.5926 0 
-3.47627 -2.59248 0 
-3.26428 -2.59251 0 
-3.05216 -2.59271 0 
-2.83986 -2.59283 0 
-2.62755 -2.59274 0 
-2.41539 -2.59253 0 
-2.20336 -2.59238 0 
-1.99135 -2.59238 0 
-1.77924 -2.59246 0 
-1.56704 -2.59244 0 
-1.35495 -2.59215 0 
-1.14319 -2.59183 0 
-0.931581 -2.59195 0 
-0.719663 -2.59256 0 
-0.507197 -2.59324 0 
-0.294425 -2.59354 0 
-0.0817689 -2.59344 0 
0.130587 -2.59325 0 
0.342804 -2.59322 0 
0.555051 -2.59322 0 
0.767233 -2.59303 0 
0.97919 -2.59278 0 
1.19107 -2.59278 0 
1.40311 -2.59289 0 
1.61524 -2.59286 0 
1.82732 -2.59279 0 
2.03943 -2.59281 0 
2.25163 -2.5928 0 
2.46381 -2.59266 0 
2.67591 -2.59254 0 
2.88801 -2.59237 0 
3.10001 -2.59226 0 
3.31203 -2.59216 0 
3.52402 -2.59207 0 
3.73601 -2.59208 0 
3.94815 -2.59221 0 
4.16052 -2.5923 0 
4.37309 -2.59232 0 
4.58593 -2.59227 0 
4.79921 -2.5922 0 
5.01319 -2.59212 0 
5.22833 -2.5921 0 
5.44534 -2.59239 0 
5.6657 -2.59346 0 
5.89185 -2.59569 0 
6.12685 -2.59429 0 
6.36853 -2.59189 0 
6.6108 -2.57787 0 
6.84491 -2.61411 0 
7.08804 -2.58476 0 
7.34858 -2.60369 0 
7.58803 -2.59327 0 
7.83059 -2.59326 0 
8.06387 -2.59199 0 
8.30038 -2.64348 0 
8.48528 -2.54936 0 
-8.48528 -2.28369 0 
-8.25701 -2.4138 0 
-8.01078 -2.35334 0 
-7.73666 -2.37963 0 
-7.49744 -2.35565 0 
-7.26898 -2.35831 0 
-7.03324 -2.36676 0 
-6.7997 -2.36275 0 
-6.5773 -2.35166 0 
-6.35808 -2.3495 0 
-6.14038 -2.35058 0 
-5.92336 -2.35185 0 
-5.70723 -2.35272 0 
-5.49199 -2.35362 0 
-5.27734 -2.35447 0 
-5.0632 -2.35505 0 
-4.84958 -2.35534 0 
-4.63641 -2.35533 0 
-4.42363 -2.35504 0 
-4.21126 -2.35485 0 
-3.99909 -2.35513 0 
-3.78684 -2.3554 0 
-3.57461 -2.35516 0 
-3.36263 -2.35498 0 
-3.15066 -2.35537 0 
-2.93843 -2.35586 0 
-2.72604 -2.35589 0 
-2.51374 -2.35551 0 
-2.30162 -2.35509 0 
-2.08964 -2.35496 0 
-1.87761 -2.35518 0 
-1.66544 -2.3554 0 
-1.45322 -2.35518 0 
-1.2412 -2.35438 0 
-1.02967 -2.35407 0 
-0.818162 -2.35505 0 
-0.606054 -2.35676 0 
-0.393243 -2.3579 0 
-0.180256 -2.35789 0 
0.0323765 -2.35727 0 
0.244686 -2.35692 0 
0.456926 -2.35692 0 
0.669206 -2.35667 0 
0.881318 -2.35598 0 
1.09315 -2.35559 0 
1.305 -2.35583 0 
1.51709 -2.35595 0 
1.72919 -2.35571 0 
1.9412 -2.35566 0 
2.15334 -2.3558 0 
2.36559 -2.3556 0 
2.57772 -2.35522 0 
2.78976 -2.35507 0 
3.0019 -2.35461 0 
3.21373 -2.35451 0 
3.42571 -2.35439 0 
3.63769 -2.35431 0 
3.84965 -2.35453 0 
4.06183 -2.35491 0 
4.27435 -2.35507 0 
4.48707 -2.35507 0 
4.70017 -2.35506 0 
4.91376 -2.35498 0 
5.12819 -2.35502 0 
5.34378 -2.35528 0 
5.56106 -2.35662 0 
5.78097 -2.35971 0 
6.00401 -2.36251 0 
6.2308 -2.3624 0 
6.45748 -2.35551 0 
6.68075 -2.33423 0 
6.88797 -2.39744 0 
7.05313 -2.27289 0 
7.24377 -2.40237 0 
7.48542 -2.36016 0 
7.73055 -2.36599 0 
7.99177 -2.33552 0 
8.24864 -2.40698 0 
8.48528 -2.28345 0 
-8.48528 -2.03355 0 
-8.25312 -2.18214 0 
-8.03669 -2.07913 0 
-7.83956 -2.18231 0 
-7.6106 -2.12852 0 
-7.38852 -2.10959 0 
-7.16268 -2.14097 0 
-6.9229 -2.1435 0 
-6.70119 -2.12055 0 
-6.48111 -2.11285 0 
-6.26282 -2.11284 0 
-6.045 -2.1151 0 
-5.82775 -2.11658 0 
-5.61153 -2.11776 0 
-5.3962 -2.1192 0 
-5.18144 -2.1203 0 
-4.96732 -2.12084 0 
-4.75387 -2.12105 0 
-4.54086 -2.12091 0 
-4.32822 -2.12045 0 
-4.11596 -2.12045 0 
-3.90382 -2.12107 0 
-3.69156 -2.12116 0 
-3.47938 -2.12058 0 
-3.26746 -2.12068 0 
-3.05542 -2.12154 0 
-2.84307 -2.12198 0 
-2.63064 -2.12162 0 
-2.41836 -2.12087 0 
-2.20626 -2.12031 0 
-1.99426 -2.12034 0 
-1.78217 -2.1207 0 
-1.56989 -2.12074 0 
-1.35755 -2.11993 0 
-1.14542 -2.11838 0 
-0.934012 -2.11859 0 
-0.722404 -2.12089 0 
-0.509943 -2.12344 0 
-0.296911 -2.12431 0 
-0.0840921 -2.12359 0 
0.128295 -2.12281 0 
0.340414 -2.12274 0 
0.552564 -2.12288 0 
0.76478 -2.12226 0 
0.976792 -2.1213 0 
1.18855 -2.12128 0 
1.40042 -2.12188 0 
1.61256 -2.12177 0 
1.82458 -2.12141 0 
2.03655 -2.12164 0 
2.24875 -2.12174 0 
2.46099 -2.12114 0 
2.67302 -2.12065 0 
2.88504 -2.12054 0 
3.09728 -2.1194 0 
3.30873 -2.11968 0 
3.52086 -2.1195 0 
3.7329 -2.11938 0 
3.94484 -2.11986 0 
4.15715 -2.12044 0 
4.36983 -2.12035 0 
4.58282 -2.1204 0 
4.79606 -2.12017 0 
5.01004 -2.12012 0 
5.22483 -2.12002 0 
5.44073 -2.12051 0 
5.6582 -2.123 0 
5.8782 -2.12696 0 
6.10217 -2.12971 0 
6.33095 -2.12707 0 
6.567 -2.11601 0 
6.82301 -2.12303 0 
7.06572 -2.04567 0 
7.29733 -2.17484 0 
7.54632 -2.11408 0 
7.79371 -2.13741 0 
8.02274 -2.07453 0 
8.25027 -2.1738 0 
8.48528 -2.0332 0 
-8.48528 -1.79671 0 
-8.25436 -1.93882 0 
-8.01299 -1.83977 0 
-7.78596 -1.953 0 
-7.5297 -1.87194 0 
-7.2756 -1.88722 0 
-7.05707 -1.93544 0 
-6.84369 -1.89677 0 
-6.62219 -1.88079 0 
-6.40169 -1.87606 0 
-6.18206 -1.87854 0 
-5.96274 -1.881 0 
-5.74458 -1.88208 0 
-5.52796 -1.88344 0 
-5.31232 -1.88506 0 
-5.09736 -1.88569 0 
-4.88338 -1.88564 0 
-4.67019 -1.88555 0 
-4.45737 -1.88507 0 
-4.24485 -1.88447 0 
-4.03271 -1.88482 0 
-3.82061 -1.88562 0 
-3.60832 -1.88529 0 
-3.39617 -1.88464 0 
-3.18427 -1.88547 0 
-2.97209 -1.88672 0 
-2.7596 -1.88684 0 
-2.54714 -1.88601 0 
-2.33483 -1.88505 0 
-2.12268 -1.8846 0 
-1.91058 -1.885 0 
-1.69824 -1.88561 0 
-1.48561 -1.88547 0 
-1.27286 -1.88413 0 
-1.06032 -1.88216 0 
-0.848858 -1.8839 0 
-0.636875 -1.88781 0 
-0.424169 -1.89034 0 
-0.211518 -1.89004 0 
0.000731944 -1.88866 0 
0.21257 -1.88788 0 
0.424308 -1.88807 0 
0.636257 -1.88793 0 
0.848362 -1.88664 0 
1.06025 -1.88556 0 
1.27191 -1.88605 0 
1.48381 -1.88664 0 
1.69595 -1.886 0 
1.90782 -1.88577 0 
2.11974 -1.88637 0 
2.33202 -1.88609 0 
2.54419 -1.88502 0 
2.75607 -1.88472 0 
2.96812 -1.88462 0 
3.18055 -1.88217 0 
3.39117 -1.88415 0 
3.60398 -1.8838 0 
3.81618 -1.88366 0 
4.02827 -1.88469 0 
4.24071 -1.88523 0 
4.4544 -1.88509 0 
4.66716 -1.88476 0 
4.88099 -1.88493 0 
5.09545 -1.88466 0 
5.31057 -1.88453 0 
5.52653 -1.88564 0 
5.7436 -1.88981 0 
5.96352 -1.89563 0 
6.18733 -1.89813 0 
6.41543 -1.89522 0 
6.65059 -1.89622 0 
6.87542 -1.86913 0 
7.11122 -1.81621 0 
7.31223 -1.94975 0 
7.53264 -1.87683 0 
7.77077 -1.89068 0 
8.01717 -1.8297 0 
8.25014 -1.93148 0 
8.48528 -1.79628 0 
-8.48528 -1.57009 0 
-8.24868 -1.70836 0 
-8.015 -1.61096 0 
-7.76734 -1.73071 0 
-7.54593 -1.61782 0 
-7.32306 -1.66278 0 
-7.05152 -1.7082 0 
-6.79786 -1.66675 0 
-6.56099 -1.64764 0 
-6.33267 -1.64541 0 
-6.10856 -1.64921 0 
-5.88638 -1.65073 0 
-5.66697 -1.65153 0 
-5.44986 -1.65353 0 
-5.23379 -1.65525 0 
-5.01882 -1.6551 0 
-4.80519 -1.6548 0 
-4.59235 -1.65478 0 
-4.37976 -1.65422 0 
-4.16737 -1.65386 0 
-3.95537 -1.65471 0 
-3.74326 -1.6554 0 
-3.5309 -1.65455 0 
-3.31876 -1.65426 0 
-3.10682 -1.65593 0 
-2.89443 -1.65705 0 
-2.68177 -1.65644 0 
-2.46924 -1.65516 0 
-2.25682 -1.65408 0 
-2.04447 -1.65386 0 
-1.83202 -1.65455 0 
-1.61911 -1.65506 0 
-1.40572 -1.65429 0 
-1.19212 -1.65207 0 
-0.97885 -1.64982 0 
-0.767325 -1.65372 0 
-0.555434 -1.6581 0 
-0.343588 -1.65935 0 
-0.132061 -1.65818 0 
0.0792288 -1.65687 0 
0.290417 -1.65682 0 
0.501823 -1.6575 0 
0.713729 -1.65709 0 
0.925861 -1.65545 0 
1.13768 -1.65488 0 
1.34929 -1.65604 0 
1.56128 -1.6563 0 
1.77337 -1.65516 0 
1.985 -1.65561 0 
2.19698 -1.65642 0 
2.40939 -1.65525 0 
2.62143 -1.65394 0 
2.83323 -1.65414 0 
3.04553 -1.65355 0 
3.25842 -1.64868 0 
3.46746 -1.65522 0 
3.68272 -1.65284 0 
3.89574 -1.65288 0 
4.10731 -1.65378 0 
4.32287 -1.65565 0 
4.53627 -1.65249 0 
4.74932 -1.65397 0 
4.96428 -1.65355 0 
5.17935 -1.65257 0 
5.3944 -1.65202 0 
5.60927 -1.65354 0 
5.82513 -1.66019 0 
6.04295 -1.66711 0 
6.26383 -1.66843 0 
6.48537 -1.66776 0 
6.70098 -1.65646 0 
6.91299 -1.6206 0 
7.11709 -1.6046 0 
7.3526 -1.69716 0 
7.60698 -1.65764 0 
7.8325 -1.64214 0 
8.05985 -1.58842 0 
8.2608 -1.69223 0 
8.48528 -1.56961 0 
-8.48528 -1.35019 0 
-8.24958 -1.48044 0 
-8.0219 -1.3751 0 
-7.79713 -1.50391 0 
-7.58956 -1.39834 0 
-7.36199 -1.38754 0 
-7.16079 -1.49923 0 
-6.93764 -1.46284 0 
[...]
POINT_DATA 2054 
VECTORS vectors float
0.0243499 -0.0470435 0.998795 
0.0278646 -0.0341367 0.999354 
0.0307371 -0.0250289 0.99957 
0.0327451 -0.0187182 0.999638 
0.0342877 -0.0140886 0.999648 
0.0353703 -0.0105265 0.999647 
0.0362073 -0.0077725 0.999636 
0.0368901 -0.00553316 0.999622 
0.0374656 -0.0037716 0.999608 
0.0378113 -0.00236988 0.999599 
0.0380391 -0.00118242 0.999591 
0.0380911 -0.000100103 0.999589 
0.0379479 0.00108643 0.999592 
0.037701 0.00239827 0.999598 
0.0373533 0.00386625 0.999606 
0.036874 0.00561412 0.999615 
0.0362316 0.00774552 0.999624 
0.0353992 0.0103583 0.99963 
0.0343555 0.013584 0.999628 
0.0330649 0.0175876 0.999609 
0.0314666 0.0225656 0.999561 
0.0294776 0.0287586 0.999463 
0.0269954 0.0364677 0.999281 
0.0238894 0.0460763 0.998963 
0.0199863 0.0580752 0.998423 
0.0150478 0.0731095 0.997519 
0.00875383 0.0920593 0.996021 
0.000720026 0.116139 0.993532 
-0.00943951 0.146984 0.989383 
-0.0220181 0.186653 0.982452 
-0.0370872 0.237587 0.970904 
-0.0542405 0.30241 0.951841 
-0.0721804 0.38331 0.920952 
-0.0883858 0.480796 0.872462 
-0.0992582 0.592042 0.7998 
-0.101001 0.709706 0.697186 
-0.0909972 0.822217 0.561764 
-0.0689618 0.915912 0.395265 
-0.0372046 0.978111 0.204456 
-5.47214e-05 0.999946 0.000284709 
0.0371059 0.978231 -0.20392 
0.0688922 0.91612 -0.394812 
0.0909659 0.822473 -0.561409 
0.101005 0.709973 -0.696924 
0.0992846 0.592299 -0.799613 
0.0884176 0.481023 -0.872337 
0.0722097 0.383515 -0.920866 
0.0542685 0.302596 -0.951782 
0.0371147 0.237756 -0.970862 
0.0220421 0.186804 -0.982423 
0.00945936 0.147116 -0.989364 
-0.000701972 0.116255 -0.993519 
-0.00873698 0.092157 -0.996012 
-0.0150324 0.0731909 -0.997514 
-0.0199732 0.0581416 -0.99842 
-0.0238789 0.04613 -0.998962 
-0.0269875 0.0365114 -0.999281 
-0.0294728 0.0287937 -0.999462 
-0.0314635 0.0225943 -0.999561 
-0.0330621 0.017608 -0.999609 
-0.0343558 0.0135953 -0.999628 
-0.0354004 0.0103682 -0.99963 
-0.036229 0.00775444 -0.999625 
-0.0368754 0.00562515 -0.999616 
-0.0373568 0.00388328 -0.999607 
-0.0376952 0.0024141 -0.999599 
-0.0379292 0.00109533 -0.999593 
-0.0380695 -9.07806e-05 -0.999592 
-0.0380326 -0.00119807 -0.999598 
-0.0379498 -0.00235021 -0.999487 
-0.0374572 -0.00369705 -0.99963 
-0.0368611 -0.00550482 -0.999619 
-0.0361597 -0.00776532 -0.99964 
-0.0353189 -0.0105534 -0.999663 
-0.0342669 -0.0141131 -0.999647 
-0.0327335 -0.0187328 -0.999643 
-0.0307278 -0.0250378 -0.99958 
-0.0278738 -0.0341801 -0.999363 
-0.0243882 -0.047095 -0.998797 
0.0166696 -0.050474 0.998907 
0.0213387 -0.040402 0.999471 
0.0224339 -0.0314056 0.99994 
0.0241955 -0.0240674 1.00013 
0.025814 -0.0181293 1.00019 
0.02684 -0.0137523 1.00022 
0.0277741 -0.0102401 1.00023 
0.0285186 -0.00742136 1.00022 
0.0290049 -0.00519842 1.00022 
0.0292884 -0.00341981 1.00021 
0.029531 -0.00192879 1.00021 
0.0296665 -0.000600148 1.0002 
0.0296527 0.000720702 1.0002 
0.0294964 0.00212291 1.0002 
0.0292333 0.00365813 1.0002 
0.0288616 0.00543591 1.0002 
0.0283515 0.00758352 1.0002 
0.0276732 0.0101999 1.0002 
0.0268099 0.0133972 1.00018 
0.0257426 0.0173381 1.00015 
0.0244347 0.0222303 1.00008 
0.0228179 0.028325 0.999969 
0.0208021 0.0359231 0.999769 
0.018291 0.0453953 0.999432 
0.0151673 0.0572251 0.998876 
0.0112685 0.0720572 0.997965 
0.0063902 0.0907389 0.99648 
0.000314859 0.11436 0.99406 
-0.00714973 0.144304 0.990118 
-0.0161196 0.182281 0.983708 
-0.0265533 0.230291 0.973323 
-0.0381182 0.290473 0.956638 
-0.0500015 0.364671 0.930228 
-0.0607627 0.453628 0.889428 
-0.0684371 0.555926 0.828527 
-0.0709142 0.667154 0.741357 
-0.0663989 0.779256 0.622533 
-0.0540084 0.880424 0.469669 
-0.034399 0.956692 0.285944 
-0.00992451 0.995626 0.0812137 
0.0159376 0.990429 -0.129585 
0.0394841 0.942172 -0.330213 
0.057556 0.859227 -0.507129 
0.068178 0.754496 -0.652227 
0.0709964 0.641621 -0.763623 
0.0671302 0.531728 -0.844416 
0.0585174 0.432134 -0.90025 
0.0473207 0.346548 -0.937292 
0.0354148 0.275712 -0.961114 
0.0240604 0.21847 -0.976118 
0.0139353 0.172889 -0.98544 
0.00531076 0.136899 -0.991184 
-0.00181194 0.108551 -0.994711 
-0.00758362 0.0861807 -0.996878 
-0.0122145 0.0684648 -0.998208 
-0.0159227 0.0543681 -0.999025 
-0.0188944 0.0431127 -0.999523 
-0.0212824 0.0340989 -0.999823 
-0.0232062 0.0268631 -1 
-0.024756 0.0210502 -1.0001 
-0.0260086 0.0163784 -1.00016 
-0.0270241 0.0126131 -1.00019 
-0.0278426 0.00955443 -1.0002 
-0.0284861 0.00704889 -1.0002 
-0.028977 0.00498557 -1.00021 
-0.02935 0.00325215 -1.00021 
-0.0296512 0.00171066 -1.00021 
-0.0298633 0.000267074 -1.00022 
-0.0297886 -0.00115201 -1.00023 
-0.0294721 -0.00269252 -1.00035 
-0.0286721 -0.00455736 -1.00037 
-0.0293319 -0.00668416 -1.00009 
-0.0276154 -0.00961002 -1.00037 
-0.0272403 -0.0134148 -1.00022 
-0.0257283 -0.0179973 -1.00021 
-0.0241639 -0.0238727 -1.00015 
-0.0222932 -0.0312617 -0.999974 
-0.021281 -0.040257 -0.999492 
-0.0167057 -0.0504698 -0.998917 
0.0115898 -0.0533427 0.998861 
0.0162971 -0.0404764 0.999734 
0.016995 -0.0310926 1.0002 
0.019378 -0.0226323 1.00025 
0.0200326 -0.0172681 1.00034 
0.020978 -0.0130523 1.00037 
0.0219262 -0.00955278 1.00038 
0.0224009 -0.00683123 1.00038 
0.0225259 -0.00471083 1.00039 
0.0227356 -0.00290911 1.00039 
0.0229102 -0.00134956 1.00039 
0.0229703 0.000117861 1.00038 
0.0228963 0.00162276 1.00038 
0.022715 0.00321854 1.00038 
0.0224382 0.00499362 1.00037 
0.0220476 0.0070986 1.00037 
0.0215176 0.0096523 1.00036 
0.0208319 0.0127466 1.00034 
0.0199787 0.0165252 1.0003 
0.0189405 0.0211957 1.00023 
0.0176772 0.0270079 1.00011 
0.0161128 0.0342592 0.999916 
0.0141639 0.0433066 0.999594 
0.0117601 0.0545876 0.999072 
0.00880587 0.0686887 0.998231 
0.00516832 0.0863906 0.996877 
0.000717256 0.108672 0.994703 
-0.00464129 0.136722 0.991216 
-0.0109438 0.17198 0.985644 
-0.0181291 0.216119 0.97678 
-0.0259773 0.270984 0.962777 
-0.0340101 0.338324 0.940897 
-0.0414093 0.419275 0.907298 
-0.0470424 0.51356 0.856994 
-0.0497006 0.618544 0.784169 
-0.0482808 0.728791 0.682651 
-0.0419244 0.835134 0.547456 
-0.0304509 0.924544 0.377716 
-0.0148525 0.98259 0.179715 
0.00279537 0.998403 -0.0328043 
0.0199938 0.969029 -0.242218 
0.0344385 0.90035 -0.432094 
0.0444483 0.804531 -0.591464 
0.049315 0.69573 -0.716352 
0.0493897 0.586113 -0.808793 
0.045659 0.483866 -0.874231 
0.0393173 0.3935 -0.918899 
0.0316084 0.316771 -0.948477 
0.0235724 0.253373 -0.967637 
0.0158844 0.201882 -0.97987 
0.00893887 0.160569 -0.987593 
0.00292605 0.12767 -0.992433 
-0.0021366 0.101528 -0.995457 
-0.00632085 0.0807463 -0.997346 
-0.00974011 0.0642153 -0.998521 
-0.0125215 0.0510114 -0.999253 
-0.0147756 0.0404466 -0.999706 
-0.0166036 0.0319763 -0.999984 
-0.0180862 0.0251749 -1.00015 
-0.0192851 0.0197144 -1.00025 
-0.0202584 0.0153249 -1.00031 
-0.0210532 0.0117643 -1.00034 
-0.0216884 0.00884163 -1.00036 
-0.0221809 0.00642961 -1.00037 
-0.0225562 0.00442896 -1.00038 
-0.0228565 0.00270016 -1.00038 
-0.0231117 0.00110579 -1.00039 
-0.0232216 -0.000412131 -1.0004 
-0.0231252 -0.00195023 -1.0004 
-0.0227311 -0.00367145 -1.00041 
-0.0219385 -0.00568897 -1.00031 
-0.023032 -0.00767961 -1.00038 
-0.0196723 -0.0100516 -1.00043 
-0.0221708 -0.0124923 -1.00023 
-0.0201795 -0.0169851 -1.00036 
-0.0190689 -0.0225411 -1.0003 
-0.0167661 -0.0305512 -1.00027 
-0.0162679 -0.0401631 -0.999774 
-0.0116075 -0.0533193 -0.998872 
0.00827569 -0.0554006 0.998775 
0.0121168 -0.0421068 0.99975 
0.012016 -0.0337661 1.00005 
0.0148448 -0.0265981 1.00008 
0.0149317 -0.0207248 1.00036 
0.0154374 -0.0160501 1.00044 
0.0167181 -0.0120204 1.00044 
0.0173438 -0.00869415 1.00046 
0.0172994 -0.00626439 1.00049 
0.0174223 -0.00416528 1.00049 
0.0175917 -0.00235682 1.00049 
0.0177148 -0.000737853 1.00049 
0.0177165 0.000866444 1.00048 
0.017609 0.00253296 1.00048 
0.017424 0.00430084 1.00047 
0.0171479 0.00631588 1.00047 
0.0167551 0.00874235 1.00045 
0.0162356 0.0116703 1.00043 
0.0155829 0.0152048 1.00039 
0.0147843 0.0195374 1.00033 
0.0138229 0.0249141 1.00022 
0.012653 0.0316163 1.00005 
0.0111992 0.0399816 0.999768 
0.00940304 0.0504118 0.999314 
0.007221 0.0634022 0.998591 
0.00457549 0.0796322 0.997441 
0.00137735 0.099977 0.995614 
-0.00242612 0.125478 0.992713 
-0.00684094 0.157364 0.988126 
-0.0118158 0.197075 0.980909 
-0.0172139 0.246218 0.969624 
-0.0227654 0.306479 0.952121 
-0.0280113 0.379298 0.925291 
-0.0322942 0.465278 0.884898 
-0.0348442 0.563384 0.825598 
-0.0350227 0.669885 0.741489 
-0.0322308 0.778365 0.626375 
-0.0260188 0.878242 0.476105 
-0.0165406 0.955229 0.292295 
-0.00484378 0.995322 0.084903 
0.0074689 0.990508 -0.129495 
0.0187406 0.942023 -0.332413 
0.0276013 0.859502 -0.509182 
0.0331969 0.756899 -0.652186 
0.035389 0.647869 -0.760845 
0.0346413 0.54256 -0.839482 
0.0316192 0.4469 -0.894373 
0.0270409 0.363667 -0.931593 
0.0216764 0.293538 -0.956227 
0.0161299 0.235637 -0.972276 
0.0107853 0.188469 -0.982615 
0.00590295 0.150455 -0.989211 
0.00161867 0.120009 -0.993392 
-0.00204944 0.0956624 -0.996038 
-0.00512491 0.0762074 -0.997708 
-0.00767621 0.0606895 -0.998757 
-0.00977698 0.04823 -0.999419 
-0.0114924 0.038244 -0.999833 
-0.0128949 0.0302303 -1.00009 
-0.0140387 0.0237933 -1.00025 
-0.014962 0.0186298 -1.00035 
-0.0157218 0.0144647 -1.0004 
-0.0163387 0.0110589 -1.00044 
-0.0168299 0.00823289 -1.00046 
-0.0172003 0.00589576 -1.00047 
-0.0174873 0.00393576 -1.00048 
-0.0177377 0.00217448 -1.00049 
-0.0179238 0.000496334 -1.00049 
-0.0179753 -0.00113448 -1.0005 
-0.0178084 -0.00286661 -1.00051 
-0.0173627 -0.00493389 -1.00052 
-0.0170891 -0.00753996 -1.00063 
-0.0151954 -0.0107829 -1.00051 
-0.0169391 -0.0141384 -1.00044 
-0.0149122 -0.019238 -1.00054 
-0.0142864 -0.0254416 -1.0002 
-0.0120075 -0.0332389 -1.00011 
-0.0120096 -0.0420266 -0.999774 
-0.00828513 -0.0553666 -0.998782 
0.00604975 -0.0569649 0.99869 
0.0088729 -0.0437522 0.99969 
0.00906453 -0.034047 1.00007 
0.0114827 -0.0260005 1.00028 
0.0113233 -0.019732 1.00057 
0.0122724 -0.0145656 1.0005 
0.0135117 -0.0109129 1.00038 
0.0133037 -0.00819164 1.00052 
0.0133438 -0.00576882 1.00055 
0.0134593 -0.00365568 1.00055 
0.0136092 -0.00183007 1.00055 
0.0136679 -0.000117768 1.00055 
0.0136118 0.00163189 1.00054 
0.0134884 0.00342925 1.00053 
0.0133052 0.00535872 1.00053 
0.0130258 0.00762424 1.00051 
0.0126403 0.010358 1.00049 
0.0121557 0.0136272 1.00046 
0.0115624 0.0175789 1.0004 
0.010847 0.0224535 1.00031 
0.0099915 0.0285203 1.00017 
0.00894577 0.0360854 0.999932 
0.00764639 0.0455225 0.999558 
0.00606315 0.0572661 0.998964 
0.00416886 0.0718631 0.998028 
0.00190178 0.0900784 0.996554 
-0.000780643 0.112844 0.99423 
-0.00387542 0.141226 0.990581 
-0.00734386 0.176479 0.984875 
-0.0111011 0.220033 0.976006 
-0.0149984 0.273446 0.962311 
-0.0187863 0.33831 0.941331 
-0.0220837 0.415809 0.909577 
-0.0244097 0.506087 0.862389 
-0.0252734 0.607363 0.794054 
-0.0243854 0.714664 0.698731 
-0.0213446 0.820546 0.57031 
-0.0159208 0.912748 0.406313 
-0.00847579 0.976307 0.211636 
6.00132e-05 0.99894 -0.000834175 
0.00854564 0.976052 -0.212814 
0.0159224 0.912654 -0.406526 
0.021382 0.820818 -0.569915 
0.0245184 0.714914 -0.698468 
0.0254274 0.607404 -0.794016 
0.0245041 0.506549 -0.862112 
0.0221571 0.416573 -0.909223 
0.0188433 0.339147 -0.941026 
0.0150675 0.274275 -0.962073 
0.0111767 0.22074 -0.975844 
0.00739806 0.177044 -0.984773 
0.00391864 0.141735 -0.990508 
0.000831491 0.113339 -0.994174 
-0.00184837 0.0905196 -0.996515 
-0.00411401 0.0722115 -0.998006 
-0.00602266 0.0576007 -0.998945 
-0.00760696 0.0457686 -0.999548 
-0.00890566 0.0362909 -0.999926 
-0.00997934 0.0286784 -1.00016 
-0.0108533 0.0225711 -1.00031 
-0.0115675 0.0176535 -1.0004 
-0.0121507 0.0136912 -1.00046 
-0.0126361 0.0104023 -1.00049 
-0.0130093 0.00765812 -1.00052 
-0.013288 0.00538863 -1.00053 
-0.0135092 0.00345222 -1.00054 
-0.0137183 0.00164438 -1.00054 
-0.0138759 -0.000116805 -1.00055 
-0.0138761 -0.00184923 -1.00055 
-0.0137042 -0.00375164 -1.00056 
-0.0134806 -0.00604008 -1.00056 
-0.0127703 -0.00861069 -1.00056 
-0.0116261 -0.0119461 -1.00051 
-0.0130525 -0.0150905 -1.00048 
-0.0113731 -0.0198179 -1.00031 
-0.0106595 -0.0257521 -1.00045 
-0.00889436 -0.0342367 -1.00008 
-0.00880493 -0.0435809 -0.999714 
-0.00604583 -0.0569029 -0.998691 
0.00446912 -0.058112 0.998625 
0.0066299 -0.0446699 0.999657 
0.00679639 -0.0350091 1.00004 
0.00885839 -0.0262793 1.00031 
0.00836431 -0.0208447 1.00043 
0.00936357 -0.0159584 1.00053 
0.0104214 -0.0112278 1.00066 
0.0102863 -0.00796451 1.00059 
0.0102758 -0.0053495 1.0006 
0.0103802 -0.00317086 1.00059 
0.0104795 -0.00128699 1.00059 
0.0104677 0.000554666 1.00058 
0.0103778 0.00242237 1.00057 
0.0102537 0.00431712 1.00056 
0.0100719 0.00642175 1.00055 
0.00979495 0.00894472 1.00053 
0.00943947 0.0119576 1.0005 
0.00901291 0.0155407 1.00046 
0.0084988 0.0199027 1.00038 
0.00788436 0.0253194 1.00027 
0.00714884 0.0320687 1.00008 
0.00624232 0.0404821 0.99978 
0.00512139 0.0509624 0.999307 
0.00377742 0.0639707 0.998563 
0.00218805 0.08011 0.9974 
0.000309909 0.100224 0.995579 
-0.00186074 0.125276 0.992731 
-0.00429272 0.156346 0.988295 
-0.00693299 0.19473 0.98142 
-0.00969379 0.241873 0.970821 
-0.0124389 0.299324 0.954591 
-0.0149539 0.368608 0.929919 
-0.0169392 0.450672 0.892877 
-0.0180583 0.545144 0.838331 
-0.0180203 0.649291 0.76025 
-0.016736 0.756589 0.653194 
-0.0138739 0.858355 0.511702 
-0.00941192 0.940935 0.335922 
-0.00378345 0.99001 0.133517 
0.00230478 0.995714 -0.080437 
0.0080872 0.956916 -0.287109 
0.0128971 0.881661 -0.470287 
0.0162573 0.783384 -0.6207 
0.0179988 0.676141 -0.736389 
0.0182903 0.571007 -0.820866 
0.0174117 0.474541 -0.88037 
0.0156054 0.389646 -0.92126 
0.0131887 0.317252 -0.948753 
0.0105033 0.256889 -0.966934 
0.007732 0.207078 -0.978874 
0.00502586 0.166394 -0.986645 
0.00252802 0.133485 -0.991656 
0.000293106 0.106934 -0.994881 
-0.00166434 0.0855102 -0.996955 
-0.00331832 0.0682689 -0.998284 
-0.00474571 0.0545613 -0.999115 
-0.00592235 0.0432654 -0.999669 
-0.00689528 0.03427 -1.00001 
-0.00769315 0.0270929 -1.00023 
-0.00837428 0.0212452 -1.00036 
-0.00887903 0.0166218 -1.00045 
-0.009346 0.0128477 -1.0005 
-0.00971587 0.00967317 -1.00053 
-0.00999647 0.00702188 -1.00055 
-0.0102073 0.00483119 -1.00057 
-0.0103836 0.00292071 -1.00057 
-0.0105715 0.0010751 -1.00058 
-0.0107019 -0.000738271 -1.00058 
-0.0106745 -0.00255217 -1.00058 
-0.0105368 -0.00456718 -1.00058 
-0.0102242 -0.0068497 -1.00057 
-0.00956659 -0.00945495 -1.00055 
-0.00910591 -0.0124301 -1.00038 
-0.00963003 -0.0164593 -1.00058 
-0.00857147 -0.022198 -1.00039 
-0.00770106 -0.0285453 -1.00024 
-0.00641383 -0.0369178 -0.999854 
-0.0064057 -0.0453211 -0.999634 
-0.00443199 -0.0579936 -0.998645 
0.00335509 -0.0589044 0.998577 
0.00493902 -0.045619 0.999614 
0.00502837 -0.0360054 1.00001 
0.00664016 -0.0278739 1.00024 
0.00630262 -0.0224485 1.00026 
0.00664005 -0.0172573 1.00061 
0.00798957 -0.0133318 1.00042 
0.00793048 -0.0100076 1.00058 
0.00781333 -0.00716368 1.00061 
0.00783653 -0.00467815 1.00061 
0.00792924 -0.00257466 1.00061 
0.0079795 -0.000646502 1.0006 
0.00791241 0.0013004 1.0006 
0.00780833 0.00322165 1.00059 
0.00768782 0.00520645 1.00058 
0.00749873 0.00750566 1.00056 
0.00723431 0.0102686 1.00054 
0.00692592 0.0135208 1.0005 
0.00657083 0.0173957 1.00044 
0.00614773 0.0221719 1.00035 
0.00564104 0.0281301 1.0002 
0.00503062 0.0355533 0.999968 
0.00427195 0.0447967 0.999601 
0.0033418 0.0562904 0.999022 
0.00224075 0.0705159 0.99812 
0.000947843 0.088139 0.996717 
-0.00055799 0.110068 0.994531 
-0.00225671 0.137283 0.991131 
-0.00410968 0.170893 0.985873 
-0.00606372 0.212242 0.977772 
-0.00804107 0.262802 0.96536 
-0.00992658 0.324113 0.946462 
-0.011543 0.397601 0.917906 
-0.0126687 0.483876 0.875343 
-0.0130823 0.581864 0.813289 
-0.0126395 0.687628 0.725763 
-0.0113253 0.793172 0.608234 
-0.00887341 0.889133 0.456082 
-0.00539915 0.961522 0.271342 
-0.00126553 0.996941 0.0635907 
0.00302119 0.987628 -0.15026 
0.00694294 0.935437 -0.35107 
0.0100701 0.850819 -0.524276 
0.0121229 0.748025 -0.663122 
0.0130644 0.640598 -0.767719 
0.0130687 0.538235 -0.842891 
0.0123113 0.44594 -0.895332 
0.0109394 0.365607 -0.93116 
0.00918896 0.297632 -0.955154 
0.00728152 0.241191 -0.971006 
0.00529773 0.194586 -0.981453 
0.00335402 0.156507 -0.988269 
0.00156076 0.12572 -0.99267 
-5.74174e-05 0.100805 -0.995517 
-0.00148354 0.080597 -0.997364 
-0.00268135 0.0642666 -0.998552 
-0.00376234 0.0514873 -0.999275 
-0.00462689 0.0404412 -0.99979 
-0.00529174 0.0321586 -1.00009 
-0.00595031 0.0251538 -1.00029 
-0.00637172 0.0197533 -1.00041 
-0.00674492 0.0154066 -1.00048 
-0.00710885 0.0118442 -1.00052 
-0.00737111 0.0087838 -1.00056 
-0.00756807 0.00625169 -1.00058 
-0.0077103 0.00416756 -1.00059 
-0.00787156 0.00226709 -1.00059 
-0.00803837 0.000399289 -1.00059 
-0.008155 -0.00145459 -1.00059 
-0.00810663 -0.0033579 -1.00059 
-0.00793 -0.0055073 -1.00059 
-0.00758285 -0.00807505 -1.00059 
-0.0069965 -0.0113039 -1.00065 
-0.0074862 -0.0150689 -1.00036 
-0.00701689 -0.0195132 -1.00043 
-0.00610752 -0.025372 -1.00034 
-0.00539398 -0.0325631 -1.00013 
-0.00461996 -0.0453319 -0.999755 
-0.00327038 -0.0588314 -0.998583 
0.0024734 -0.0595102 0.998539 
0.00364444 -0.0463626 0.999576 
0.00368457 -0.0364449 0.999987 
0.0048809 -0.0284159 1.00023 
0.00485042 -0.0217508 1.0004 
0.00488567 -0.016614 1.00054 
0.00608481 -0.0129209 1.00057 
0.00597935 -0.00947803 1.00062 
0.00596533 -0.00654142 1.00063 
0.0060118 -0.0040746 1.00062 
0.00609194 -0.00197895 1.00061 
0.00609817 3.91428e-05 1.00061 
0.00599527 0.00204473 1.0006 
0.00590695 0.00398829 1.00059 
0.00578526 0.00607848 1.00058 
0.00560187 0.00857468 1.00056 
0.0053696 0.0115356 1.00053 
0.00512004 0.0149761 1.00048 
0.00484105 0.0191459 1.00041 
0.00450009 0.0243381 1.0003 
0.00409182 0.0308264 1.00012 
0.00359247 0.0388975 0.999844 
0.0029678 0.0489378 0.999405 
0.00221005 0.0613767 0.998719 
0.00131912 0.0767281 0.997655 
0.000276205 0.0957334 0.996009 
-0.000920449 0.119345 0.993452 
-0.00223959 0.148502 0.989502 
-0.00364501 0.184321 0.983439 
-0.00508961 0.228152 0.974171 
-0.00650719 0.281379 0.960098 
-0.00780266 0.345385 0.938898 
-0.00884032 0.421371 0.907229 
-0.00947074 0.509464 0.860688 
-0.00956577 0.608219 0.79375 
-0.00906232 0.713511 0.700299 
-0.00790581 0.8174 0.575198 
-0.00589137 0.909665 0.413503 
-0.00317448 0.974725 0.219065 
-5.77473e-05 0.998952 0.00447686 
0.00305879 0.976591 -0.210569 
0.00579802 0.912797 -0.406525 
0.00787672 0.82046 -0.57081 
0.00914141 0.714476 -0.699309 
0.00963484 0.607781 -0.794089 
0.009508 0.508485 -0.861271 
0.00885796 0.420094 -0.907825 
0.00778842 0.343836 -0.939472 
0.00648863 0.279816 -0.960559 
0.00509257 0.226831 -0.974481 
0.00362179 0.1829 -0.983709 
0.00218544 0.147054 -0.989723 
0.00087196 0.118198 -0.993591 
-0.000326871 0.0946539 -0.99612 
-0.00139071 0.0753087 -0.997779 
-0.00226507 0.0595978 -0.99892 
-0.00315613 0.0477467 -0.99935 
-0.00360643 0.0375953 -0.999992 
-0.00426665 0.0291974 -1.00017 
-0.0046024 0.0229561 -1.00034 
-0.00491213 0.0179556 -1.00045 
-0.00517229 0.0139418 -1.00051 
-0.00548225 0.0106184 -1.00054 
-0.00564963 0.00763585 -1.00058 
-0.00575127 0.00530706 -1.00059 
-0.00589699 0.00328692 -1.0006 
-0.006 0.00139444 -1.0006 
-0.00613399 -0.000453738 -1.00059 
-0.00620412 -0.00222506 -1.00048 
-0.00610125 -0.00409544 -1.00059 
-0.00596477 -0.00633625 -1.00059 
-0.00568783 -0.0090986 -1.00059 
-0.0052186 -0.0125185 -1.00054 
-0.00580575 -0.0158844 -1.00049 
-0.00511707 -0.0213456 -1.00043 
-0.00427701 -0.0281983 -1.00039 
-0.00401116 -0.0377234 -0.999952 
-0.00322106 -0.0476298 -0.999404 
-0.00236007 -0.0595105 -0.998534 
0.00180852 -0.0599786 0.998511 
0.00265706 -0.0467933 0.999553 
0.00266202 -0.0365331 0.999985 
0.0036453 -0.0282757 1.00025 
0.00359639 -0.0220073 1.00039 
0.00355767 -0.0170488 1.00049 
0.00452901 -0.0122651 1.0007 
0.00447879 -0.00868033 1.00063 
0.00446997 -0.00577098 1.00064 
0.00452709 -0.00338049 1.00063 
0.00460263 -0.00125946 1.00061 
0.004557 0.000808714 1.00061 
0.00444991 0.00283075 1.0006 