# vtk DataFile Version 3.0 
Exported using Morpho https://github.com/Morpho-lang/morpho 
ASCII 
DATASET UNSTRUCTURED_GRID 

POINTS 2054 float 
-8.48528 -2.82843 0 
-8.20636 -2.82843 0 
-7.94054 -2.82843 0 
-7.6904 -2.82843 0 
-7.45357 -2.82843 0 
-7.22694 -2.82843 0 
-7.00705 -2.82843 0 
-6.79111 -2.82843 0 
-6.57731 -2.82843 0 
-6.36453 -2.82843 0 
-6.15219 -2.82843 0 
-5.94 -2.82843 0 
-5.72786 -2.82843 0 
-5.51573 -2.82843 0 
-5.3036 -2.82843 0 
-5.09147 -2.82843 0 
-4.87933 -2.82843 0 
-4.6672 -2.82843 0 
-4.45507 -2.82843 0 
-4.24294 -2.82843 0 
-4.03081 -2.82843 0 
-3.81867 -2.82843 0 
-3.60654 -2.82843 0 
-3.39441 -2.82843 0 
-3.18228 -2.82843 0 
-2.97015 -2.82843 0 
-2.75801 -2.82843 0 
-2.54588 -2.82843 0 
-2.33375 -2.82843 0 
-2.12162 -2.82843 0 
-1.90949 -2.82843 0 
-1.69735 -2.82843 0 
-1.48522 -2.82843 0 
-1.27309 -2.82843 0 
-1.06096 -2.82843 0 
-0.848825 -2.82843 0 
-0.636693 -2.82843 0 
-0.424561 -2.82843 0 
-0.212429 -2.82843 0 
-0.000296761 -2.82843 0 
0.211835 -2.82843 0 
0.423967 -2.82843 0 
0.636099 -2.82843 0 
0.848231 -2.82843 0 
1.06036 -2.82843 0 
1.2725 -2.82843 0 
1.48463 -2.82843 0 
1.69676 -2.82843 0 
1.90889 -2.82843 0 
2.12102 -2.82843 0 
2.33316 -2.82843 0 
2.54529 -2.82843 0 
2.75742 -2.82843 0 
2.96955 -2.82843 0 
3.18168 -2.82843 0 
3.39382 -2.82843 0 
3.60595 -2.82843 0 
3.81808 -2.82843 0 
4.03021 -2.82843 0 
4.24234 -2.82843 0 
4.45448 -2.82843 0 
4.66661 -2.82843 0 
4.87874 -2.82843 0 
5.09087 -2.82843 0 
5.303 -2.82843 0 
5.51514 -2.82843 0 
5.72727 -2.82843 0 
5.93941 -2.82843 0 
6.15159 -2.82843 0 
6.36393 -2.82843 0 
6.57672 -2.82843 0 
6.79055 -2.82843 0 
7.00652 -2.82843 0 
7.22647 -2.82843 0 
7.45313 -2.82843 0 
7.69005 -2.82843 0 
7.9403 -2.82843 0 
8.20621 -2.82843 0 
8.48528 -2.82843 0 
-8.48528 -2.5495 0 
-8.30526 -2.64845 0 
-8.07062 -2.59995 0 
-7.83904 -2.59637 0 
-7.59595 -2.59733 0 
-7.36578 -2.59177 0 
-7.13796 -2.5933 0 
-6.90908 -2.59428 0 
-6.68421 -2.5916 0 
-6.46568 -2.58832 0 
-6.24926 -2.58859 0 
-6.03358 -2.58941 0 
-5.81848 -2.59013 0 
-5.60402 -2.59075 0 
-5.39005 -2.59135 0 
-5.17642 -2.59186 0 
-4.96311 -2.59223 0 
-4.75009 -2.59242 0 
-4.53736 -2.59244 0 
-4.32497 -2.59236 0 
-4.1128 -2.59242 0 
-3.90059 -2.59259 0 
-3.68835 -2.5926 0 
-3.47627 -2.59248 0 
-3.26428 -2.59251 0 
-3.05216 -2.59271 0 
-2.83986 -2.59283 0 
-2.62755 -2.59274 0 
-2.41539 -2.59253 0 
-2.20336 -2.59238 0 
-1.99135 -2.59238 0 
-1.77924 -2.59246 0 
-1.56704 -2.59244 0 
-1.35495 -2.59215 0 
-1.14319 -2.59183 0 
-0.931581 -2.59195 0 
-0.719663 -2.59256 0 
-0.507197 -2.59324 0 
-0.294425 -2.59354 0 
-0.0817689 -2.59344 0 
0.130587 -2.59325 0 
0.342804 -2.59322 0 
0.555051 -2.59322 0 
0.767233 -2.59303 0 
0.97919 -2.59278 0 
1.19107 -2.59278 0 
1.40311 -2.59289 0 
1.61524 -2.59286 0 
1.82732 -2.59279 0 
2.03943 -2.59281 0 
2.25163 -2.5928 0 
2.46381 -2.59266 0 
2.67591 -2.59254 0 
2.88801 -2.59237 0 
3.10001 -2.59226 0 
3.31203 -2.59216 0 
3.52402 -2.59207 0 
3.73601 -2.59208 0 
3.94815 -2.59221 0 
4.16052 -2.5923 0 
4.37309 -2.59232 0 
4.58593 -2.59227 0 
4.79921 -2.5922 0 
5.01319 -2.59212 0 
5.22833 -2.5921 0 
5.44534 -2.59239 0 
5.6657 -2.59346 0 
5.89185 -2.59569 0 
6.12685 -2.59429 0 
6.36853 -2.59189 0 
6.6108 -2.57787 0 
6.84491 -2.61411 0 
7.08804 -2.58476 0 
7.34858 -2.60369 0 
7.58803 -2.59327 0 
7.83059 -2.59326 0 
8.06387 -2.59199 0 
8.30038 -2.64348 0 
8.48528 -2.54936 0 
-8.48528 -2.28369 0 
-8.25701 -2.4138 0 
-8.01078 -2.35334 0 
-7.73666 -2.37963 0 
-7.49744 -2.35565 0 
-7.26898 -2.35831 0 
-7.03324 -2.36676 0 
-6.7997 -2.36275 0 
-6.5773 -2.35166 0 
-6.35808 -2.3495 0 
-6.14038 -2.35058 0 
-5.92336 -2.35185 0 
-5.70723 -2.35272 0 
-5.49199 -2.35362 0 
-5.27734 -2.35447 0 
-5.0632 -2.35505 0 
-4.84958 -2.35534 0 
-4.63641 -2.35533 0 
-4.42363 -2.35504 0 
-4.21126 -2.35485 0 
-3.99909 -2.35513 0 
-3.78684 -2.3554 0 
-3.57461 -2.35516 0 
-3.36263 -2.35498 0 
-3.15066 -2.35537 0 
-2.93843 -2.35586 0 
-2.72604 -2.35589 0 
-2.51374 -2.35551 0 
-2.30162 -2.35509 0 
-2.08964 -2.35496 0 
-1.87761 -2.35518 0 
-1.66544 -2.3554 0 
-1.45322 -2.35518 0 
-1.2412 -2.35438 0 
-1.02967 -2.35407 0 
-0.818162 -2.35505 0 
-0.606054 -2.35676 0 
-0.393243 -2.3579 0 
-0.180256 -2.35789 0 
0.0323765 -2.35727 0 
0.244686 -2.35692 0 
0.456926 -2.35692 0 
0.669206 -2.35667 0 
0.881318 -2.35598 0 
1.09315 -2.35559 0 
1.305 -2.35583 0 
1.51709 -2.35595 0 
1.72919 -2.35571 0 
1.9412 -2.35566 0 
2.15334 -2.3558 0 
2.36559 -2.3556 0 
2.57772 -2.35522 0 
2.78976 -2.35507 0 
3.0019 -2.35461 0 
3.21373 -2.35451 0 
3.42571 -2.35439 0 
3.63769 -2.35431 0 
3.84965 -2.35453 0 
4.06183 -2.35491 0 
4.27435 -2.35507 0 
4.48707 -2.35507 0 
4.70017 -2.35506 0 
4.91376 -2.35498 0 
5.12819 -2.35502 0 
5.34378 -2.35528 0 
5.56106 -2.35662 0 
5.78097 -2.35971 0 
6.00401 -2.36251 0 
6.2308 -2.3624 0 
6.45748 -2.35551 0 
6.68075 -2.33423 0 
6.88797 -2.39744 0 
7.05313 -2.27289 0 
7.24377 -2.40237 0 
7.48542 -2.36016 0 
7.73055 -2.36599 0 
7.99177 -2.33552 0 
8.24864 -2.40698 0 
8.48528 -2.28345 0 
-8.48528 -2.03355 0 
-8.25312 -2.18214 0 
-8.03669 -2.07913 0 
-7.83956 -2.18231 0 
-7.6106 -2.12852 0 
-7.38852 -2.10959 0 
-7.16268 -2.14097 0 
-6.9229 -2.1435 0 
-6.70119 -2.12055 0 
-6.48111 -2.11285 0 
-6.26282 -2.11284 0 
-6.045 -2.1151 0 
-5.82775 -2.11658 0 
-5.61153 -2.11776 0 
-5.3962 -2.1192 0 
-5.18144 -2.1203 0 
-4.96732 -2.12084 0 
-4.75387 -2.12105 0 
-4.54086 -2.12091 0 
-4.32822 -2.12045 0 
-4.11596 -2.12045 0 
-3.90382 -2.12107 0 
-3.69156 -2.12116 0 
-3.47938 -2.12058 0 
-3.26746 -2.12068 0 
-3.05542 -2.12154 0 
-2.84307 -2.12198 0 
-2.63064 -2.12162 0 
-2.41836 -2.12087 0 
-2.20626 -2.12031 0 
-1.99426 -2.12034 0 
-1.78217 -2.1207 0 
-1.56989 -2.12074 0 
-1.35755 -2.11993 0 
-1.14542 -2.11838 0 
-0.934012 -2.11859 0 
-0.722404 -2.12089 0 
-0.509943 -2.12344 0 
-0.296911 -2.12431 0 
-0.0840921 -2.12359 0 
0.128295 -2.12281 0 
0.340414 -2.12274 0 
0.552564 -2.12288 0 
0.76478 -2.12226 0 
0.976792 -2.1213 0 
1.18855 -2.12128 0 
1.40042 -2.12188 0 
1.61256 -2.12177 0 
1.82458 -2.12141 0 
2.03655 -2.12164 0 
2.24875 -2.12174 0 
2.46099 -2.12114 0 
2.67302 -2.12065 0 
2.88504 -2.12054 0 
3.09728 -2.1194 0 
3.30873 -2.11968 0 
3.52086 -2.1195 0 
3.7329 -2.11938 0 
3.94484 -2.11986 0 
4.15715 -2.12044 0 
4.36983 -2.12035 0 
4.58282 -2.1204 0 
4.79606 -2.12017 0 
5.01004 -2.12012 0 
5.22483 -2.12002 0 
5.44073 -2.12051 0 
5.6582 -2.123 0 
5.8782 -2.12696 0 
6.10217 -2.12971 0 
6.33095 -2.12707 0 
6.567 -2.11601 0 
6.82301 -2.12303 0 
7.06572 -2.04567 0 
7.29733 -2.17484 0 
7.54632 -2.11408 0 
7.79371 -2.13741 0 
8.02274 -2.07453 0 
8.25027 -2.1738 0 
8.48528 -2.0332 0 
-8.48528 -1.79671 0 
-8.25436 -1.93882 0 
-8.01299 -1.83977 0 
-7.78596 -1.953 0 
-7.5297 -1.87194 0 
-7.2756 -1.88722 0 
-7.05707 -1.93544 0 
-6.84369 -1.89677 0 
-6.62219 -1.88079 0 
-6.40169 -1.87606 0 
-6.18206 -1.87854 0 
-5.96274 -1.881 0 
-5.74458 -1.88208 0 
-5.52796 -1.88344 0 
-5.31232 -1.88506 0 
-5.09736 -1.88569 0 
-4.88338 -1.88564 0 
-4.67019 -1.88555 0 
-4.45737 -1.88507 0 
-4.24485 -1.88447 0 
-4.03271 -1.88482 0 
-3.82061 -1.88562 0 
-3.60832 -1.88529 0 
-3.39617 -1.88464 0 
-3.18427 -1.88547 0 
-2.97209 -1.88672 0 
-2.7596 -1.88684 0 
-2.54714 -1.88601 0 
-2.33483 -1.88505 0 
-2.12268 -1.8846 0 
-1.91058 -1.885 0 
-1.69824 -1.88561 0 
-1.48561 -1.88547 0 
-1.27286 -1.88413 0 
-1.06032 -1.88216 0 
-0.848858 -1.8839 0 
-0.636875 -1.88781 0 
-0.424169 -1.89034 0 
-0.211518 -1.89004 0 
0.000731944 -1.88866 0 
0.21257 -1.88788 0 
0.424308 -1.88807 0 
0.636257 -1.88793 0 
0.848362 -1.88664 0 
1.06025 -1.88556 0 
1.27191 -1.88605 0 
1.48381 -1.88664 0 
1.69595 -1.886 0 
1.90782 -1.88577 0 
2.11974 -1.88637 0 
2.33202 -1.88609 0 
2.54419 -1.88502 0 
2.75607 -1.88472 0 
2.96812 -1.88462 0 
3.18055 -1.88217 0 
3.39117 -1.88415 0 
3.60398 -1.8838 0 
3.81618 -1.88366 0 
4.02827 -1.88469 0 
4.24071 -1.88523 0 
4.4544 -1.88509 0 
4.66716 -1.88476 0 
4.88099 -1.88493 0 
5.09545 -1.88466 0 
5.31057 -1.88453 0 
5.52653 -1.88564 0 
5.7436 -1.88981 0 
5.96352 -1.89563 0 
6.18733 -1.89813 0 
6.41543 -1.89522 0 
6.65059 -1.89622 0 
6.87542 -1.86913 0 
7.11122 -1.81621 0 
7.31223 -1.94975 0 
7.53264 -1.87683 0 
7.77077 -1.89068 0 
8.01717 -1.8297 0 
8.25014 -1.93148 0 
8.48528 -1.79628 0 
-8.48528 -1.57009 0 
-8.24868 -1.70836 0 
-8.015 -1.61096 0 
-7.76734 -1.73071 0 
-7.54593 -1.61782 0 
-7.32306 -1.66278 0 
-7.05152 -1.7082 0 
-6.79786 -1.66675 0 
-6.56099 -1.64764 0 
-6.33267 -1.64541 0 
-6.10856 -1.64921 0 
-5.88638 -1.65073 0 
-5.66697 -1.65153 0 
-5.44986 -1.65353 0 
-5.23379 -1.65525 0 
-5.01882 -1.6551 0 
-4.80519 -1.6548 0 
-4.59235 -1.65478 0 
-4.37976 -1.65422 0 
-4.16737 -1.65386 0 
-3.95537 -1.65471 0 
-3.74326 -1.6554 0 
-3.5309 -1.65455 0 
-3.31876 -1.65426 0 
-3.10682 -1.65593 0 
-2.89443 -1.65705 0 
-2.68177 -1.65644 0 
-2.46924 -1.65516 0 
-2.25682 -1.65408 0 
-2.04447 -1.65386 0 
-1.83202 -1.65455 0 
-1.61911 -1.65506 0 
-1.40572 -1.65429 0 
-1.19212 -1.65207 0 
-0.97885 -1.64982 0 
-0.767325 -1.65372 0 
-0.555434 -1.6581 0 
-0.343588 -1.65935 0 
-0.132061 -1.65818 0 
0.0792288 -1.65687 0 
0.290417 -1.65682 0 
0.501823 -1.6575 0 
0.713729 -1.65709 0 
0.925861 -1.65545 0 
1.13768 -1.65488 0 
1.34929 -1.65604 0 
1.56128 -1.6563 0 
1.77337 -1.65516 0 
1.985 -1.65561 0 
2.19698 -1.65642 0 
2.40939 -1.65525 0 
2.62143 -1.65394 0 
2.83323 -1.65414 0 
3.04553 -1.65355 0 
3.25842 -1.64868 0 
3.46746 -1.65522 0 
3.68272 -1.65284 0 
3.89574 -1.65288 0 
4.10731 -1.65378 0 
4.32287 -1.65565 0 
4.53627 -1.65249 0 
4.74932 -1.65397 0 
4.96428 -1.65355 0 
5.17935 -1.65257 0 
5.3944 -1.65202 0 
5.60927 -1.65354 0 
5.82513 -1.66019 0 
6.04295 -1.66711 0 
6.26383 -1.66843 0 
6.48537 -1.66776 0 
6.70098 -1.65646 0 
6.91299 -1.6206 0 
7.11709 -1.6046 0 
7.3526 -1.69716 0 
7.60698 -1.65764 0 
7.8325 -1.64214 0 
8.05985 -1.58842 0 
8.2608 -1.69223 0 
8.48528 -1.56961 0 
-8.48528 -1.35019 0 
-8.24958 -1.48044 0 
-8.0219 -1.3751 0 
-7.79713 -1.50391 0 
-7.58956 -1.39834 0 
-7.36199 -1.38754 0 
-7.16079 -1.49923 0 
-6.93764 -1.46284 0 
[...]
POINT_DATA 2054 
VECTORS vectors float
1.34899e-05 -0.000980449 1 
-9.5293e-05 -0.00976025 0.999952 
-4.07126e-05 -0.0111942 0.999937 
-5.20439e-05 -0.010698 0.999943 
-5.3637e-05 -0.00971264 0.999953 
-4.78694e-05 -0.00824907 0.999966 
-4.65025e-05 -0.00673192 0.999977 
-4.53733e-05 -0.00529638 0.999986 
-4.49896e-05 -0.00393727 0.999992 
-4.47487e-05 -0.00258587 0.999997 
-4.4591e-05 -0.00120419 0.999999 
-4.45023e-05 0.000237356 1 
-4.43172e-05 0.0017786 0.999998 
-4.40543e-05 0.00346676 0.999994 
-4.36611e-05 0.00536247 0.999986 
-4.31363e-05 0.00754731 0.999972 
-4.24109e-05 0.0101274 0.999949 
-4.14372e-05 0.013235 0.999912 
-4.01978e-05 0.017032 0.999855 
-3.85938e-05 0.0217179 0.999764 
-3.65774e-05 0.0275388 0.999621 
-3.40193e-05 0.0348006 0.999394 
-3.08007e-05 0.0438828 0.999037 
-2.67953e-05 0.0552574 0.998472 
-2.1792e-05 0.0695076 0.997581 
-1.55927e-05 0.0873521 0.996177 
-7.92975e-06 0.109672 0.993968 
1.48368e-06 0.137533 0.990497 
1.2944e-05 0.172213 0.98506 
2.67004e-05 0.215198 0.976571 
4.28627e-05 0.268129 0.963383 
6.11203e-05 0.332653 0.943049 
8.05569e-05 0.410065 0.912056 
9.91359e-05 0.500719 0.86561 
0.000113233 0.603061 0.797695 
0.000118185 0.712435 0.701739 
0.000109484 0.820053 0.572288 
8.48823e-05 0.913121 0.407689 
4.63852e-05 0.977083 0.21286 
4.56702e-08 1 0.000290999 
-4.62905e-05 0.977202 -0.212312 
-8.48215e-05 0.913326 -0.407229 
-0.000109498 0.8203 -0.571934 
-0.000118199 0.712689 -0.70148 
-0.000113305 0.603306 -0.797509 
-9.92269e-05 0.50094 -0.865482 
-8.06081e-05 0.410265 -0.911967 
-6.11701e-05 0.332831 -0.942986 
-4.28981e-05 0.268291 -0.963338 
-2.6746e-05 0.215341 -0.976539 
-1.2976e-05 0.172337 -0.985038 
-1.51007e-06 0.137642 -0.990482 
7.90417e-06 0.109766 -0.993957 
1.5565e-05 0.0874343 -0.99617 
2.17761e-05 0.0695777 -0.997577 
2.67767e-05 0.0553164 -0.998469 
3.07837e-05 0.0439329 -0.999034 
3.40001e-05 0.034843 -0.999393 
3.65495e-05 0.0275752 -0.99962 
3.85872e-05 0.0217496 -0.999763 
4.01841e-05 0.01706 -0.999854 
4.14156e-05 0.0132601 -0.999912 
4.23819e-05 0.0101503 -0.999948 
4.30918e-05 0.0075687 -0.999971 
4.36374e-05 0.00538399 -0.999986 
4.40136e-05 0.00349004 -0.999994 
4.4111e-05 0.00180594 -0.999998 
4.4764e-05 0.000270536 -1 
4.37636e-05 -0.00116567 -0.999999 
4.55574e-05 -0.00253868 -0.999997 
4.38106e-05 -0.00388758 -0.999992 
4.62461e-05 -0.00523855 -0.999986 
4.58316e-05 -0.00664033 -0.999978 
4.84989e-05 -0.00814607 -0.999967 
5.29002e-05 -0.00957919 -0.999954 
5.28126e-05 -0.0105115 -0.999945 
3.97102e-05 -0.0110004 -0.999939 
9.62366e-05 -0.00957466 -0.999954 
-1.5497e-05 -0.000973581 -1 
-4.18264e-05 0.000333342 1 
0.00275039 -0.00809384 0.999963 
0.00366703 -0.0099211 0.999944 
0.00404795 -0.0106263 0.999935 
0.00425442 -0.00994608 0.999941 
0.00434314 -0.00882876 0.999952 
0.00441641 -0.00748557 0.999962 
0.00448415 -0.00599152 0.999972 
0.00455309 -0.00453357 0.999979 
0.00461298 -0.00314846 0.999984 
0.00463842 -0.00176683 0.999988 
0.00464178 -0.0003376 0.999989 
0.00462977 0.0011761 0.999989 
0.00460374 0.00281902 0.999985 
0.00455971 0.0046523 0.999979 
0.004493 0.00675221 0.999967 
0.00439884 0.0092138 0.999948 
0.00427266 0.0121578 0.999917 
0.00410903 0.0157342 0.999868 
0.00390094 0.0201259 0.99979 
0.00363942 0.0255614 0.999667 
0.00331559 0.03233 0.999472 
0.00291994 0.0407848 0.999164 
0.00244015 0.0513534 0.998678 
0.00186179 0.0645731 0.997911 
0.00117012 0.0811221 0.996703 
0.000350275 0.101828 0.994802 
-0.00061125 0.127671 0.991816 
-0.00172304 0.159816 0.987145 
-0.00298367 0.199636 0.979866 
-0.00437439 0.248698 0.968571 
-0.00584943 0.308646 0.951159 
-0.00732272 0.380914 0.924581 
-0.00865227 0.466182 0.884646 
-0.00962608 0.563627 0.825973 
-0.00997116 0.670097 0.742207 
-0.00940478 0.77899 0.626966 
-0.00773476 0.879311 0.476185 
-0.00497984 0.956532 0.291585 
-0.00144079 0.996543 0.0830695 
0.00233625 0.991179 -0.132512 
0.00572739 0.941721 -0.336346 
0.00824095 0.858114 -0.513392 
0.00964404 0.754775 -0.655913 
0.0099742 0.645578 -0.763629 
0.00945584 0.540603 -0.841225 
0.00837775 0.445679 -0.895153 
0.00700016 0.363388 -0.931612 
0.00551555 0.294064 -0.95577 
0.00405131 0.236722 -0.971569 
0.00268555 0.189865 -0.981806 
0.00145836 0.151907 -0.988394 
0.000382316 0.121327 -0.992613 
-0.000544926 0.0967698 -0.995307 
-0.00133378 0.077104 -0.997022 
-0.00199833 0.061371 -0.998113 
-0.00255321 0.048798 -0.998805 
-0.00301259 0.0387493 -0.999244 
-0.00338964 0.0307068 -0.999523 
-0.00369658 0.0242569 -0.999699 
-0.00394354 0.0190686 -0.99981 
-0.00413899 0.0148716 -0.999881 
-0.00428944 0.0114463 -0.999925 
-0.00440022 0.00861421 -0.999953 
-0.00447539 0.00623012 -0.999971 
-0.00451588 0.00417606 -0.999981 
-0.00451835 0.00235296 -0.999987 
-0.00448834 0.000673618 -0.99999 
-0.00445955 -0.000930423 -0.99999 
-0.00444199 -0.00247918 -0.999987 
-0.00447471 -0.00400197 -0.999982 
-0.00428483 -0.00551949 -0.999976 
-0.00439243 -0.00705725 -0.999965 
-0.00423056 -0.00862259 -0.999954 
-0.00417884 -0.00973467 -0.999944 
-0.00398199 -0.0104105 -0.999938 
-0.00360359 -0.00971004 -0.999946 
-0.00273226 -0.00803174 -0.999964 
4.43965e-05 0.000330858 -1 
1.34119e-05 -6.641e-05 1 
0.00277181 -0.0079177 0.999965 
0.00422941 -0.00991607 0.999942 
0.00488123 -0.0102953 0.999935 
0.00530033 -0.00923394 0.999943 
0.00556102 -0.00818386 0.999951 
0.00570483 -0.00678301 0.999961 
0.00584157 -0.00524666 0.999969 
0.00596071 -0.00380684 0.999975 
0.00601614 -0.00241016 0.999979 
0.00603717 -0.000991191 0.999981 
0.00603745 0.000496434 0.999982 
0.00601756 0.00209245 0.99998 
0.00597155 0.00385641 0.999975 
0.0058936 0.00586273 0.999965 
0.00577771 0.00819638 0.99995 
0.00561719 0.0109635 0.999924 
0.00540528 0.0143003 0.999883 
0.00513449 0.0183767 0.999818 
0.0047949 0.0233987 0.999715 
0.00437479 0.0296261 0.999551 
0.00386283 0.0373883 0.999293 
0.00324626 0.0470818 0.998886 
0.00250978 0.0591806 0.998244 
0.00163739 0.074294 0.997235 
0.000614021 0.0931877 0.995648 
-0.000572608 0.11677 0.993159 
-0.00192766 0.146101 0.989268 
-0.00344414 0.18243 0.983213 
-0.00509589 0.227199 0.973835 
-0.00682931 0.281998 0.959391 
-0.00855037 0.348363 0.937321 
-0.0101117 0.427373 0.904019 
-0.0113062 0.518998 0.8547 
-0.0118718 0.62121 0.783554 
-0.0115304 0.729329 0.684066 
-0.0100483 0.834766 0.550513 
-0.00734197 0.924493 0.381129 
-0.00359714 0.983334 0.181774 
0.000698123 0.999448 -0.0332092 
0.00488002 0.969547 -0.244856 
0.00833037 0.900114 -0.435575 
0.0106616 0.804299 -0.59413 
0.011776 0.696808 -0.717161 
0.0118096 0.589598 -0.80761 
0.0110193 0.490167 -0.871559 
0.00968512 0.402278 -0.915466 
0.00805397 0.327197 -0.944922 
0.00631283 0.264487 -0.964369 
0.00459161 0.212832 -0.977078 
0.00297471 0.17072 -0.985315 
0.00150681 0.136653 -0.990618 
0.000204447 0.10921 -0.994019 
-0.000931079 0.0871533 -0.996194 
-0.00190638 0.0694915 -0.997581 
-0.00273628 0.0553378 -0.998464 
-0.00343523 0.0440104 -0.999025 
-0.00401773 0.0349425 -0.999381 
-0.00449842 0.0276675 -0.999607 
-0.00489124 0.0218157 -0.99975 
-0.00520729 0.0170923 -0.99984 
-0.00545605 0.0132512 -0.999897 
-0.00564568 0.0100955 -0.999933 
-0.00578314 0.0074631 -0.999955 
-0.00587546 0.00522695 -0.999969 
-0.00592632 0.00328543 -0.999977 
-0.00593411 0.00155303 -0.999981 
-0.00590901 -4.18524e-05 -0.999983 
-0.00586995 -0.00155404 -0.999982 
-0.00586149 -0.00300011 -0.999978 
-0.00590027 -0.00442407 -0.999973 
-0.00553694 -0.00576536 -0.999968 
-0.00585507 -0.0068284 -0.99996 
-0.00529105 -0.00796994 -0.999954 
-0.00519225 -0.00903206 -0.999946 
-0.00480747 -0.0100645 -0.999938 
-0.00418768 -0.00978518 -0.999943 
-0.00273409 -0.00783919 -0.999966 
-1.49328e-05 -6.56238e-05 -1 
8.12631e-06 -2.55851e-05 1 
0.00274288 -0.00785028 0.999965 
0.00405981 -0.00977801 0.999944 
0.00485433 -0.0104498 0.999934 
0.00516382 -0.00959445 0.999941 
0.00546694 -0.00866512 0.999948 
0.00577787 -0.00758032 0.999955 
0.00594587 -0.00605825 0.999964 
0.00599976 -0.0045833 0.999971 
0.00604737 -0.00316162 0.999977 
0.00608895 -0.00175046 0.99998 
0.00611161 -0.000289513 0.999981 
0.00610752 0.00125864 0.999981 
0.00607546 0.00294593 0.999977 
0.00601136 0.0048453 0.99997 
0.00590695 0.00703684 0.999958 
0.00575474 0.00961102 0.999937 
0.00554853 0.0126848 0.999904 
0.00528108 0.0164118 0.999851 
0.00494437 0.0209805 0.999768 
0.00453045 0.0266186 0.999635 
0.00402841 0.0336158 0.999427 
0.00342366 0.042338 0.999097 
0.00270407 0.0532169 0.998579 
0.00186088 0.0667702 0.997767 
0.00088162 0.0836765 0.996493 
-0.000245415 0.104772 0.994496 
-0.00152181 0.131021 0.991378 
-0.00293653 0.163548 0.986531 
-0.00446399 0.203666 0.97903 
-0.00605809 0.252853 0.967486 
-0.00764353 0.312677 0.949829 
-0.00910308 0.384526 0.923069 
-0.0102712 0.469089 0.883091 
-0.0109459 0.565604 0.824604 
-0.0109285 0.670751 0.741602 
-0.0100271 0.778472 0.6276 
-0.00809332 0.878332 0.477984 
-0.00515007 0.955808 0.293945 
-0.00149604 0.996341 0.0854588 
0.00236343 0.991468 -0.130332 
0.00588161 0.942489 -0.334186 
0.00862127 0.859542 -0.510992 
0.010348 0.7571 -0.653217 
0.0110577 0.64898 -0.760725 
0.0109068 0.545113 -0.838291 
0.0101009 0.451034 -0.89245 
0.00884833 0.369133 -0.929334 
0.00734679 0.299864 -0.953954 
0.00574845 0.242305 -0.970183 
0.0041575 0.19501 -0.980793 
0.00264733 0.156515 -0.987672 
0.00126137 0.125388 -0.992107 
1.75082e-05 0.10029 -0.994958 
-0.00107796 0.0800959 -0.996787 
-0.00202818 0.0639349 -0.997952 
-0.0028455 0.0509359 -0.998698 
-0.00353881 0.0405212 -0.999172 
-0.00412149 0.0321699 -0.999474 
-0.00460576 0.0254501 -0.999665 
-0.00500124 0.0200297 -0.999787 
-0.00531963 0.0156354 -0.999864 
-0.00556899 0.0120468 -0.999912 
-0.00575801 0.00907574 -0.999942 
-0.00589327 0.00657928 -0.999961 
-0.00598383 0.0044437 -0.999972 
-0.00604121 0.00257927 -0.999978 
-0.00607306 0.00090436 -0.999981 
-0.00607021 -0.00065927 -0.999981 
-0.00603453 -0.00216577 -0.999979 
-0.0059713 -0.0036734 -0.999975 
-0.00585902 -0.00532447 -0.999969 
-0.00562479 -0.00692432 -0.99996 
-0.00561648 -0.00817673 -0.999951 
-0.00516674 -0.00917147 -0.999945 
-0.00474985 -0.0101049 -0.999938 
-0.00399567 -0.00968802 -0.999945 
-0.00266385 -0.00771426 -0.999967 
-5.60505e-06 -2.45981e-05 -1 
2.28268e-05 -4.55238e-05 1 
0.00245569 -0.00778447 0.999967 
0.00362078 -0.00996546 0.999944 
0.00446729 -0.0101731 0.999938 
0.00475155 -0.00918385 0.999947 
0.00516671 -0.00819308 0.999953 
0.00549433 -0.00697028 0.999961 
0.00553757 -0.00553194 0.999969 
0.00560214 -0.00405928 0.999976 
0.00566151 -0.00262843 0.999981 
0.00570798 -0.00117816 0.999983 
0.00572738 0.000338126 0.999984 
0.00571756 0.00196062 0.999982 
0.00567771 0.00375701 0.999977 
0.00560026 0.00580799 0.999967 
0.0054757 0.00819604 0.999951 
0.00529899 0.0110162 0.999925 
0.00506534 0.014399 0.999883 
0.0047669 0.0185163 0.999817 
0.00439641 0.023574 0.999712 
0.00394742 0.029818 0.999548 
0.00340882 0.0375685 0.999288 
0.00276756 0.0472263 0.99888 
0.00201713 0.05925 0.998241 
0.00115263 0.0741989 0.997243 
0.000164066 0.0928233 0.995683 
-0.000951348 0.116012 0.993247 
-0.0021833 0.144769 0.989463 
-0.00351029 0.180283 0.983609 
-0.00489575 0.223911 0.974597 
-0.00628303 0.277153 0.960805 
-0.00758816 0.341563 0.939828 
-0.00869162 0.418346 0.908246 
-0.00944229 0.507763 0.861445 
-0.00967467 0.608238 0.793696 
-0.00925456 0.715019 0.699044 
-0.00804296 0.820786 0.571179 
-0.00597345 0.913248 0.407361 
-0.00316902 0.97719 0.212344 
4.78045e-05 1 -0.000835679 
0.00324987 0.976934 -0.213519 
0.00602981 0.913154 -0.407569 
0.00809435 0.821056 -0.57079 
0.00931634 0.715265 -0.698791 
0.00973597 0.60828 -0.793663 
0.00948999 0.508223 -0.861173 
0.00873231 0.419103 -0.907897 
0.0076225 0.342388 -0.939528 
0.00631633 0.277976 -0.960567 
0.00492694 0.224627 -0.974432 
0.00353521 0.180853 -0.983504 
0.00220578 0.145272 -0.989389 
0.000976165 0.116499 -0.99319 
-0.000138169 0.0932627 -0.995642 
-0.00112766 0.074543 -0.997217 
-0.0019921 0.0595952 -0.998221 
-0.00274417 0.0474778 -0.998869 
-0.00338437 0.037778 -0.99928 
-0.00392555 0.0299836 -0.999543 
-0.00437546 0.023699 -0.99971 
-0.00474445 0.0185951 -0.999816 
-0.00503846 0.0144662 -0.999883 
-0.00526892 0.0110633 -0.999925 
-0.00543981 0.00823064 -0.999951 
-0.00555805 0.00583605 -0.999968 
-0.00563222 0.00377813 -0.999977 
-0.0056735 0.00197585 -0.999982 
-0.00568911 0.000341272 -0.999984 
-0.00567046 -0.0012014 -0.999983 
-0.00561148 -0.0026998 -0.999981 
-0.00553191 -0.00421853 -0.999976 
-0.0053709 -0.00571393 -0.999969 
-0.00512643 -0.00728259 -0.99996 
-0.00518384 -0.00827047 -0.999952 
-0.00471121 -0.00912209 -0.999947 
-0.00426263 -0.0100085 -0.999941 
-0.00350794 -0.00975793 -0.999946 
-0.00239787 -0.00765953 -0.999968 
-2.03796e-05 -4.6753e-05 -1 
2.32594e-05 -6.60869e-05 1 
0.00222612 -0.00775051 0.999967 
0.00318641 -0.0100538 0.999944 
0.00403111 -0.0101042 0.999941 
0.00422492 -0.00936321 0.999947 
0.004643 -0.00848228 0.999953 
0.00499171 -0.00693151 0.999964 
0.00504921 -0.00522719 0.999974 
0.00509966 -0.00365812 0.99998 
0.00515914 -0.00216145 0.999984 
0.00520556 -0.000647455 0.999986 
0.00521934 0.000938581 0.999986 
0.00520351 0.0026523 0.999983 
0.00515649 0.00457497 0.999976 
0.00506703 0.00679158 0.999964 
0.00492591 0.0093843 0.999944 
0.00473358 0.012456 0.999911 
0.00448546 0.0161539 0.999859 
0.00417284 0.0206677 0.999778 
0.00379084 0.0262199 0.999649 
0.00333459 0.0330739 0.999447 
0.00279196 0.0415839 0.999131 
0.00215306 0.0521808 0.998635 
0.00141765 0.0653452 0.997862 
0.00058236 0.0816855 0.996658 
-0.000360471 0.102025 0.994782 
-0.00140471 0.12729 0.991864 
-0.00253273 0.158524 0.987352 
-0.00371926 0.196981 0.9804 
-0.00492544 0.24407 0.969745 
-0.00609373 0.301323 0.953503 
-0.00713959 0.370265 0.928899 
-0.00794814 0.451889 0.892039 
-0.0083858 0.545921 0.837795 
-0.00832266 0.649757 0.760096 
-0.00767983 0.756961 0.653415 
-0.0063338 0.858859 0.512172 
-0.00428496 0.941711 0.336396 
-0.00171051 0.991014 0.133745 
0.00107967 0.996748 -0.0805723 
0.00372832 0.957763 -0.287535 
0.00592493 0.882229 -0.470783 
0.00746744 0.783768 -0.621009 
0.00829632 0.676559 -0.736342 
0.00848326 0.571687 -0.820428 
0.00815114 0.475636 -0.879604 
0.00741835 0.391188 -0.920281 
0.00641697 0.319167 -0.947677 
0.00527588 0.259051 -0.965849 
0.00407185 0.209339 -0.977835 
0.00286764 0.168605 -0.985679 
0.00171992 0.135544 -0.99077 
0.000655419 0.108791 -0.994064 
-0.000315102 0.0871459 -0.996196 
-0.0011793 0.0696873 -0.997568 
-0.00193994 0.0558309 -0.998438 
-0.00260811 0.0443991 -0.99901 
-0.00317766 0.0353038 -0.999372 
-0.00365657 0.0280283 -0.9996 
-0.00406608 0.022051 -0.999749 
-0.00438567 0.0172699 -0.999841 
-0.00465083 0.0133677 -0.9999 
-0.00485331 0.0101256 -0.999937 
-0.00500106 0.00741653 -0.99996 
-0.00510212 0.00511841 -0.999974 
-0.00516665 0.00314126 -0.999982 
-0.00520947 0.00139924 -0.999985 
-0.00522352 -0.000190514 -0.999986 
-0.00519842 -0.00170294 -0.999985 
-0.0051437 -0.00316278 -0.999982 
-0.00504179 -0.00457995 -0.999977 
-0.00486604 -0.00603385 -0.99997 
-0.0047155 -0.0074357 -0.999961 
-0.00464072 -0.0085301 -0.999953 
-0.00415406 -0.00945849 -0.999947 
-0.00366083 -0.0102293 -0.999941 
-0.00294474 -0.00955136 -0.99995 
-0.00206011 -0.00753564 -0.999969 
-3.06087e-05 -6.4015e-05 -1 
2.1334e-05 -7.75162e-05 1 
0.0019282 -0.00776953 0.999968 
0.00264545 -0.0101006 0.999945 
0.00348397 -0.0102932 0.999941 
0.00357278 -0.00966771 0.999947 
0.00379982 -0.0087558 0.999954 
0.00435951 -0.00770583 0.999961 
0.00436358 -0.00621318 0.999971 
0.00433696 -0.00465432 0.99998 
0.00436743 -0.00314281 0.999986 
0.00442464 -0.00164304 0.999989 
0.00446715 -9.4054e-05 0.99999 
0.00446768 0.0015576 0.999989 
0.00444342 0.00336487 0.999984 
0.00439094 0.00542 0.999976 
0.00429069 0.00780102 0.99996 
0.00414037 0.0105975 0.999935 
0.00394646 0.0139187 0.999895 
0.00370242 0.0179272 0.999832 
0.00339907 0.022841 0.999733 
0.00303405 0.0288874 0.999578 
0.00260426 0.036352 0.999336 
0.00209686 0.0456216 0.998957 
0.00150744 0.0571535 0.998364 
0.000841313 0.0714458 0.997444 
9.49068e-05 0.0891645 0.996017 
-0.000734931 0.1112 0.993798 
-0.00163427 0.138506 0.99036 
-0.00258293 0.172173 0.985063 
-0.00355624 0.213523 0.976932 
-0.00451912 0.264014 0.964508 
-0.00541981 0.325185 0.945635 
-0.00617968 0.398474 0.917159 
-0.00669845 0.48454 0.874744 
-0.00687005 0.582371 0.812894 
-0.00661342 0.68809 0.725595 
-0.00589978 0.793713 0.608264 
-0.00461017 0.889853 0.456225 
-0.00279868 0.96244 0.27148 
-0.000643809 0.997973 0.0636327 
0.00159221 0.988633 -0.150338 
0.00363408 0.936287 -0.351217 
0.00525854 0.851464 -0.524386 
0.00633235 0.748521 -0.663081 
0.00684488 0.641063 -0.767458 
0.00688363 0.538797 -0.842408 
0.00654196 0.446688 -0.894666 
0.00590055 0.366563 -0.930374 
0.00506982 0.298765 -0.954313 
0.00414829 0.242446 -0.970156 
0.00317324 0.195883 -0.980622 
0.00219609 0.157768 -0.987474 
0.0012671 0.126902 -0.991914 
0.000399031 0.101891 -0.994795 
-0.000399907 0.0815807 -0.996667 
-0.00111065 0.065156 -0.997874 
-0.00175634 0.0523492 -0.998627 
-0.00232431 0.0412578 -0.999146 
-0.00277995 0.032945 -0.999453 
-0.00321966 0.025881 -0.99966 
-0.00353602 0.0203585 -0.999786 
-0.00380302 0.0158626 -0.999867 
-0.00403282 0.0121972 -0.999917 
-0.00419484 0.00909872 -0.99995 
-0.00430846 0.00651678 -0.999969 
-0.00438213 0.00433879 -0.999981 
-0.00444402 0.00243875 -0.999987 
-0.0044918 0.000769432 -0.99999 
-0.00451434 -0.000774492 -0.99999 
-0.00447652 -0.0022566 -0.999987 
-0.00439494 -0.00369179 -0.999984 
-0.00424817 -0.00518829 -0.999978 
-0.0040034 -0.00684133 -0.999969 
-0.00418671 -0.00829263 -0.999957 
-0.00389211 -0.00908257 -0.999951 
-0.00336364 -0.00996394 -0.999945 
-0.00289284 -0.010322 -0.999943 
-0.00184325 -0.00772055 -0.999968 
-1.05935e-05 -7.86595e-05 -1 
1.75861e-05 -8.53798e-05 1 
0.00156695 -0.00781289 0.999968 
0.00209311 -0.0102215 0.999946 
0.00282917 -0.0103797 0.999942 
0.00294277 -0.00958915 0.99995 
0.00298312 -0.00863413 0.999958 
0.00357752 -0.00746592 0.999966 
0.00351232 -0.0058438 0.999977 
0.00350606 -0.00423342 0.999985 
0.00354682 -0.00269588 0.99999 
0.00361341 -0.00115937 0.999993 
0.00365106 0.000449337 0.999993 
0.00363464 0.00217623 0.999991 
0.00361236 0.0040825 0.999985 
0.00355667 0.00625811 0.999974 
0.0034546 0.008799 0.999955 
0.00330868 0.0117933 0.999925 
0.00312884 0.0153399 0.999877 
0.00290649 0.0196626 0.999802 
0.00262909 0.0249708 0.999685 
0.0023009 0.0315013 0.999501 
0.00191755 0.0395619 0.999215 
0.00146856 0.0495752 0.998769 
0.000956529 0.0619968 0.998076 
0.000387173 0.0773539 0.997004 
-0.000243562 0.0963862 0.995344 
-0.000931668 0.120032 0.99277 
-0.00165833 0.149219 0.988803 
-0.00240523 0.185055 0.982725 
-0.0031511 0.228879 0.97345 
-0.00386649 0.28207 0.959386 
-0.00450799 0.346019 0.938217 
-0.00501171 0.421938 0.906611 
-0.00530451 0.509987 0.860166 
-0.00531915 0.60875 0.793344 
-0.00501582 0.714113 0.700012 
-0.00435851 0.818126 0.575023 
-0.00324097 0.91054 0.413408 
-0.00174175 0.975717 0.219026 
-2.35155e-05 0.99999 0.00448546 
0.00169356 0.977589 -0.210514 
0.0032014 0.913682 -0.406418 
0.00434779 0.821195 -0.570631 
0.00505609 0.715079 -0.699025 
0.00535313 0.608309 -0.793682 
0.00532128 0.509005 -0.860747 
0.00501651 0.420659 -0.907205 
0.00449496 0.344467 -0.938788 
0.00384986 0.280507 -0.959844 
0.00314408 0.227564 -0.973758 
0.00238376 0.183638 -0.982991 
0.0016203 0.147767 -0.989021 
0.000898341 0.11888 -0.992908 
0.000211136 0.0953054 -0.995448 
-0.000432785 0.0759343 -0.997113 
-0.00100004 0.0602066 -0.998185 
-0.00156893 0.0484152 -0.998826 
-0.00193699 0.0382586 -0.999266 
-0.00240572 0.0298755 -0.999551 
-0.00269298 0.0235675 -0.999719 
-0.00294777 0.0184302 -0.999826 
-0.00315269 0.0142648 -0.999893 
-0.00335535 0.010861 -0.999935 
-0.00346234 0.0078522 -0.999963 
-0.00351566 0.00546348 -0.999979 
-0.00358254 0.00338005 -0.999988 
-0.00361624 0.00159058 -0.999992 
-0.00365597 3.63213e-05 -0.999993 
-0.0036665 -0.00136629 -0.999992 
-0.00359678 -0.00273225 -0.99999 
-0.00352143 -0.00414309 -0.999985 