# vtk DataFile Version 3.0 
Exported using Morpho https://github.com/Morpho-lang/morpho 
ASCII 
DATASET UNSTRUCTURED_GRID 

POINTS 2054 float 
-8.48528 -2.82843 0 
-8.20636 -2.82843 0 
-7.94054 -2.82843 0 
-7.6904 -2.82843 0 
-7.45357 -2.82843 0 
-7.22694 -2.82843 0 
-7.00705 -2.82843 0 
-6.79111 -2.82843 0 
-6.57731 -2.82843 0 
-6.36453 -2.82843 0 
-6.15219 -2.82843 0 
-5.94 -2.82843 0 
-5.72786 -2.82843 0 
-5.51573 -2.82843 0 
-5.3036 -2.82843 0 
-5.09147 -2.82843 0 
-4.87933 -2.82843 0 
-4.6672 -2.82843 0 
-4.45507 -2.82843 0 
-4.24294 -2.82843 0 
-4.03081 -2.82843 0 
-3.81867 -2.82843 0 
-3.60654 -2.82843 0 
-3.39441 -2.82843 0 
-3.18228 -2.82843 0 
-2.97015 -2.82843 0 
-2.75801 -2.82843 0 
-2.54588 -2.82843 0 
-2.33375 -2.82843 0 
-2.12162 -2.82843 0 
-1.90949 -2.82843 0 
-1.69735 -2.82843 0 
-1.48522 -2.82843 0 
-1.27309 -2.82843 0 
-1.06096 -2.82843 0 
-0.848825 -2.82843 0 
-0.636693 -2.82843 0 
-0.424561 -2.82843 0 
-0.212429 -2.82843 0 
-0.000296761 -2.82843 0 
0.211835 -2.82843 0 
0.423967 -2.82843 0 
0.636099 -2.82843 0 
0.848231 -2.82843 0 
1.06036 -2.82843 0 
1.2725 -2.82843 0 
1.48463 -2.82843 0 
1.69676 -2.82843 0 
1.90889 -2.82843 0 
2.12102 -2.82843 0 
2.33316 -2.82843 0 
2.54529 -2.82843 0 
2.75742 -2.82843 0 
2.96955 -2.82843 0 
3.18168 -2.82843 0 
3.39382 -2.82843 0 
3.60595 -2.82843 0 
3.81808 -2.82843 0 
4.03021 -2.82843 0 
4.24234 -2.82843 0 
4.45448 -2.82843 0 
4.66661 -2.82843 0 
4.87874 -2.82843 0 
5.09087 -2.82843 0 
5.303 -2.82843 0 
5.51514 -2.82843 0 
5.72727 -2.82843 0 
5.93941 -2.82843 0 
6.15159 -2.82843 0 
6.36393 -2.82843 0 
6.57672 -2.82843 0 
6.79055 -2.82843 0 
7.00652 -2.82843 0 
7.22647 -2.82843 0 
7.45313 -2.82843 0 
7.69005 -2.82843 0 
7.9403 -2.82843 0 
8.20621 -2.82843 0 
8.48528 -2.82843 0 
-8.48528 -2.5495 0 
-8.30526 -2.64845 0 
-8.07062 -2.59995 0 
-7.83904 -2.59637 0 
-7.59595 -2.59733 0 
-7.36578 -2.59177 0 
-7.13796 -2.5933 0 
-6.90908 -2.59428 0 
-6.68421 -2.5916 0 
-6.46568 -2.58832 0 
-6.24926 -2.58859 0 
-6.03358 -2.58941 0 
-5.81848 -2.59013 0 
-5.60402 -2.59075 0 
-5.39005 -2.59135 0 
-5.17642 -2.59186 0 
-4.96311 -2.59223 0 
-4.75009 -2.59242 0 
-4.53736 -2.59244 0 
-4.32497 -2.59236 0 
-4.1128 -2.59242 0 
-3.90059 -2.59259 0 
-3.68835 -2.5926 0 
-3.47627 -2.59248 0 
-3.26428 -2.59251 0 
-3.05216 -2.59271 0 
-2.83986 -2.59283 0 
-2.62755 -2.59274 0 
-2.41539 -2.59253 0 
-2.20336 -2.59238 0 
-1.99135 -2.59238 0 
-1.77924 -2.59246 0 
-1.56704 -2.59244 0 
-1.35495 -2.59215 0 
-1.14319 -2.59183 0 
-0.931581 -2.59195 0 
-0.719663 -2.59256 0 
-0.507197 -2.59324 0 
-0.294425 -2.59354 0 
-0.0817689 -2.59344 0 
0.130587 -2.59325 0 
0.342804 -2.59322 0 
0.555051 -2.59322 0 
0.767233 -2.59303 0 
0.97919 -2.59278 0 
1.19107 -2.59278 0 
1.40311 -2.59289 0 
1.61524 -2.59286 0 
1.82732 -2.59279 0 
2.03943 -2.59281 0 
2.25163 -2.5928 0 
2.46381 -2.59266 0 
2.67591 -2.59254 0 
2.88801 -2.59237 0 
3.10001 -2.59226 0 
3.31203 -2.59216 0 
3.52402 -2.59207 0 
3.73601 -2.59208 0 
3.94815 -2.59221 0 
4.16052 -2.5923 0 
4.37309 -2.59232 0 
4.58593 -2.59227 0 
4.79921 -2.5922 0 
5.01319 -2.59212 0 
5.22833 -2.5921 0 
5.44534 -2.59239 0 
5.6657 -2.59346 0 
5.89185 -2.59569 0 
6.12685 -2.59429 0 
6.36853 -2.59189 0 
6.6108 -2.57787 0 
6.84491 -2.61411 0 
7.08804 -2.58476 0 
7.34858 -2.60369 0 
7.58803 -2.59327 0 
7.83059 -2.59326 0 
8.06387 -2.59199 0 
8.30038 -2.64348 0 
8.48528 -2.54936 0 
-8.48528 -2.28369 0 
-8.25701 -2.4138 0 
-8.01078 -2.35334 0 
-7.73666 -2.37963 0 
-7.49744 -2.35565 0 
-7.26898 -2.35831 0 
-7.03324 -2.36676 0 
-6.7997 -2.36275 0 
-6.5773 -2.35166 0 
-6.35808 -2.3495 0 
-6.14038 -2.35058 0 
-5.92336 -2.35185 0 
-5.70723 -2.35272 0 
-5.49199 -2.35362 0 
-5.27734 -2.35447 0 
-5.0632 -2.35505 0 
-4.84958 -2.35534 0 
-4.63641 -2.35533 0 
-4.42363 -2.35504 0 
-4.21126 -2.35485 0 
-3.99909 -2.35513 0 
-3.78684 -2.3554 0 
-3.57461 -2.35516 0 
-3.36263 -2.35498 0 
-3.15066 -2.35537 0 
-2.93843 -2.35586 0 
-2.72604 -2.35589 0 
-2.51374 -2.35551 0 
-2.30162 -2.35509 0 
-2.08964 -2.35496 0 
-1.87761 -2.35518 0 
-1.66544 -2.3554 0 
-1.45322 -2.35518 0 
-1.2412 -2.35438 0 
-1.02967 -2.35407 0 
-0.818162 -2.35505 0 
-0.606054 -2.35676 0 
-0.393243 -2.3579 0 
-0.180256 -2.35789 0 
0.0323765 -2.35727 0 
0.244686 -2.35692 0 
0.456926 -2.35692 0 
0.669206 -2.35667 0 
0.881318 -2.35598 0 
1.09315 -2.35559 0 
1.305 -2.35583 0 
1.51709 -2.35595 0 
1.72919 -2.35571 0 
1.9412 -2.35566 0 
2.15334 -2.3558 0 
2.36559 -2.3556 0 
2.57772 -2.35522 0 
2.78976 -2.35507 0 
3.0019 -2.35461 0 
3.21373 -2.35451 0 
3.42571 -2.35439 0 
3.63769 -2.35431 0 
3.84965 -2.35453 0 
4.06183 -2.35491 0 
4.27435 -2.35507 0 
4.48707 -2.35507 0 
4.70017 -2.35506 0 
4.91376 -2.35498 0 
5.12819 -2.35502 0 
5.34378 -2.35528 0 
5.56106 -2.35662 0 
5.78097 -2.35971 0 
6.00401 -2.36251 0 
6.2308 -2.3624 0 
6.45748 -2.35551 0 
6.68075 -2.33423 0 
6.88797 -2.39744 0 
7.05313 -2.27289 0 
7.24377 -2.40237 0 
7.48542 -2.36016 0 
7.73055 -2.36599 0 
7.99177 -2.33552 0 
8.24864 -2.40698 0 
8.48528 -2.28345 0 
-8.48528 -2.03355 0 
-8.25312 -2.18214 0 
-8.03669 -2.07913 0 
-7.83956 -2.18231 0 
-7.6106 -2.12852 0 
-7.38852 -2.10959 0 
-7.16268 -2.14097 0 
-6.9229 -2.1435 0 
-6.70119 -2.12055 0 
-6.48111 -2.11285 0 
-6.26282 -2.11284 0 
-6.045 -2.1151 0 
-5.82775 -2.11658 0 
-5.61153 -2.11776 0 
-5.3962 -2.1192 0 
-5.18144 -2.1203 0 
-4.96732 -2.12084 0 
-4.75387 -2.12105 0 
-4.54086 -2.12091 0 
-4.32822 -2.12045 0 
-4.11596 -2.12045 0 
-3.90382 -2.12107 0 
-3.69156 -2.12116 0 
-3.47938 -2.12058 0 
-3.26746 -2.12068 0 
-3.05542 -2.12154 0 
-2.84307 -2.12198 0 
-2.63064 -2.12162 0 
-2.41836 -2.12087 0 
-2.20626 -2.12031 0 
-1.99426 -2.12034 0 
-1.78217 -2.1207 0 
-1.56989 -2.12074 0 
-1.35755 -2.11993 0 
-1.14542 -2.11838 0 
-0.934012 -2.11859 0 
-0.722404 -2.12089 0 
-0.509943 -2.12344 0 
-0.296911 -2.12431 0 
-0.0840921 -2.12359 0 
0.128295 -2.12281 0 
0.340414 -2.12274 0 
0.552564 -2.12288 0 
0.76478 -2.12226 0 
0.976792 -2.1213 0 
1.18855 -2.12128 0 
1.40042 -2.12188 0 
1.61256 -2.12177 0 
1.82458 -2.12141 0 
2.03655 -2.12164 0 
2.24875 -2.12174 0 
2.46099 -2.12114 0 
2.67302 -2.12065 0 
2.88504 -2.12054 0 
3.09728 -2.1194 0 
3.30873 -2.11968 0 
3.52086 -2.1195 0 
3.7329 -2.11938 0 
3.94484 -2.11986 0 
4.15715 -2.12044 0 
4.36983 -2.12035 0 
4.58282 -2.1204 0 
4.79606 -2.12017 0 
5.01004 -2.12012 0 
5.22483 -2.12002 0 
5.44073 -2.12051 0 
5.6582 -2.123 0 
5.8782 -2.12696 0 
6.10217 -2.12971 0 
6.33095 -2.12707 0 
6.567 -2.11601 0 
6.82301 -2.12303 0 
7.06572 -2.04567 0 
7.29733 -2.17484 0 
7.54632 -2.11408 0 
7.79371 -2.13741 0 
8.02274 -2.07453 0 
8.25027 -2.1738 0 
8.48528 -2.0332 0 
-8.48528 -1.79671 0 
-8.25436 -1.93882 0 
-8.01299 -1.83977 0 
-7.78596 -1.953 0 
-7.5297 -1.87194 0 
-7.2756 -1.88722 0 
-7.05707 -1.93544 0 
-6.84369 -1.89677 0 
-6.62219 -1.88079 0 
-6.40169 -1.87606 0 
-6.18206 -1.87854 0 
-5.96274 -1.881 0 
-5.74458 -1.88208 0 
-5.52796 -1.88344 0 
-5.31232 -1.88506 0 
-5.09736 -1.88569 0 
-4.88338 -1.88564 0 
-4.67019 -1.88555 0 
-4.45737 -1.88507 0 
-4.24485 -1.88447 0 
-4.03271 -1.88482 0 
-3.82061 -1.88562 0 
-3.60832 -1.88529 0 
-3.39617 -1.88464 0 
-3.18427 -1.88547 0 
-2.97209 -1.88672 0 
-2.7596 -1.88684 0 
-2.54714 -1.88601 0 
-2.33483 -1.88505 0 
-2.12268 -1.8846 0 
-1.91058 -1.885 0 
-1.69824 -1.88561 0 
-1.48561 -1.88547 0 
-1.27286 -1.88413 0 
-1.06032 -1.88216 0 
-0.848858 -1.8839 0 
-0.636875 -1.88781 0 
-0.424169 -1.89034 0 
-0.211518 -1.89004 0 
0.000731944 -1.88866 0 
0.21257 -1.88788 0 
0.424308 -1.88807 0 
0.636257 -1.88793 0 
0.848362 -1.88664 0 
1.06025 -1.88556 0 
1.27191 -1.88605 0 
1.48381 -1.88664 0 
1.69595 -1.886 0 
1.90782 -1.88577 0 
2.11974 -1.88637 0 
2.33202 -1.88609 0 
2.54419 -1.88502 0 
2.75607 -1.88472 0 
2.96812 -1.88462 0 
3.18055 -1.88217 0 
3.39117 -1.88415 0 
3.60398 -1.8838 0 
3.81618 -1.88366 0 
4.02827 -1.88469 0 
4.24071 -1.88523 0 
4.4544 -1.88509 0 
4.66716 -1.88476 0 
4.88099 -1.88493 0 
5.09545 -1.88466 0 
5.31057 -1.88453 0 
5.52653 -1.88564 0 
5.7436 -1.88981 0 
5.96352 -1.89563 0 
6.18733 -1.89813 0 
6.41543 -1.89522 0 
6.65059 -1.89622 0 
6.87542 -1.86913 0 
7.11122 -1.81621 0 
7.31223 -1.94975 0 
7.53264 -1.87683 0 
7.77077 -1.89068 0 
8.01717 -1.8297 0 
8.25014 -1.93148 0 
8.48528 -1.79628 0 
-8.48528 -1.57009 0 
-8.24868 -1.70836 0 
-8.015 -1.61096 0 
-7.76734 -1.73071 0 
-7.54593 -1.61782 0 
-7.32306 -1.66278 0 
-7.05152 -1.7082 0 
-6.79786 -1.66675 0 
-6.56099 -1.64764 0 
-6.33267 -1.64541 0 
-6.10856 -1.64921 0 
-5.88638 -1.65073 0 
-5.66697 -1.65153 0 
-5.44986 -1.65353 0 
-5.23379 -1.65525 0 
-5.01882 -1.6551 0 
-4.80519 -1.6548 0 
-4.59235 -1.65478 0 
-4.37976 -1.65422 0 
-4.16737 -1.65386 0 
-3.95537 -1.65471 0 
-3.74326 -1.6554 0 
-3.5309 -1.65455 0 
-3.31876 -1.65426 0 
-3.10682 -1.65593 0 
-2.89443 -1.65705 0 
-2.68177 -1.65644 0 
-2.46924 -1.65516 0 
-2.25682 -1.65408 0 
-2.04447 -1.65386 0 
-1.83202 -1.65455 0 
-1.61911 -1.65506 0 
-1.40572 -1.65429 0 
-1.19212 -1.65207 0 
-0.97885 -1.64982 0 
-0.767325 -1.65372 0 
-0.555434 -1.6581 0 
-0.343588 -1.65935 0 
-0.132061 -1.65818 0 
0.0792288 -1.65687 0 
0.290417 -1.65682 0 
0.501823 -1.6575 0 
0.713729 -1.65709 0 
0.925861 -1.65545 0 
1.13768 -1.65488 0 
1.34929 -1.65604 0 
1.56128 -1.6563 0 
1.77337 -1.65516 0 
1.985 -1.65561 0 
2.19698 -1.65642 0 
2.40939 -1.65525 0 
2.62143 -1.65394 0 
2.83323 -1.65414 0 
3.04553 -1.65355 0 
3.25842 -1.64868 0 
3.46746 -1.65522 0 
3.68272 -1.65284 0 
3.89574 -1.65288 0 
4.10731 -1.65378 0 
4.32287 -1.65565 0 
4.53627 -1.65249 0 
4.74932 -1.65397 0 
4.96428 -1.65355 0 
5.17935 -1.65257 0 
5.3944 -1.65202 0 
5.60927 -1.65354 0 
5.82513 -1.66019 0 
6.04295 -1.66711 0 
6.26383 -1.66843 0 
6.48537 -1.66776 0 
6.70098 -1.65646 0 
6.91299 -1.6206 0 
7.11709 -1.6046 0 
7.3526 -1.69716 0 
7.60698 -1.65764 0 
7.8325 -1.64214 0 
8.05985 -1.58842 0 
8.2608 -1.69223 0 
8.48528 -1.56961 0 
-8.48528 -1.35019 0 
-8.24958 -1.48044 0 
-8.0219 -1.3751 0 
-7.79713 -1.50391 0 
-7.58956 -1.39834 0 
-7.36199 -1.38754 0 
-7.16079 -1.49923 0 
-6.93764 -1.46284 0 
[...]
POINT_DATA 2054 
VECTORS vectors float
0.030683 -0.066722 0.999457 
0.0397839 -0.0463162 1.0016 
0.0481839 -0.0320995 1.00216 
0.0548847 -0.0227956 1.00201 
0.0599349 -0.0166446 1.0017 
0.063609 -0.0124227 1.00145 
0.066291 -0.00938136 1.00123 
0.0682717 -0.00708377 1.00107 
0.0697205 -0.00528063 1.00097 
0.0707602 -0.00380668 1.0009 
0.0714714 -0.00257275 1.00083 
0.0719085 -0.00147178 1.00079 
0.0721033 -0.00045693 1.00076 
0.0720556 0.000540614 1.00075 
0.0717834 0.00158322 1.00076 
0.0712632 0.00273578 1.00079 
0.0704813 0.00405076 1.00084 
0.0693762 0.00556622 1.00091 
0.0678494 0.00740212 1.001 
0.0658135 0.00971703 1.00112 
0.0631887 0.0126753 1.00126 
0.0598776 0.0164232 1.00141 
0.0556709 0.021127 1.00156 
0.0502392 0.027077 1.00171 
0.0431698 0.0347099 1.0018 
0.0339215 0.0446518 1.00174 
0.021788 0.057847 1.00137 
0.0059216 0.0757094 1.00033 
-0.0145831 0.100316 0.997945 
-0.040428 0.134604 0.992977 
-0.0715788 0.182367 0.983237 
-0.106514 0.247725 0.9652 
-0.141541 0.333792 0.933796 
-0.170792 0.440666 0.882765 
-0.187419 0.563583 0.805855 
-0.185758 0.692555 0.698543 
-0.163289 0.813991 0.559602 
-0.121377 0.913547 0.391851 
-0.0647104 0.97888 0.202075 
-0.000143502 1.0017 0.000313748 
0.0644493 0.979059 -0.201483 
0.121189 0.913862 -0.391346 
0.163203 0.814379 -0.559202 
0.185773 0.692949 -0.698247 
0.187501 0.563933 -0.80565 
0.17089 0.44094 -0.88264 
0.141625 0.334011 -0.93372 
0.106581 0.247911 -0.965153 
0.0716349 0.182532 -0.983206 
0.040473 0.134752 -0.992956 
0.0146213 0.100448 -0.997932 
-0.00588297 0.0758246 -1.00032 
-0.021748 0.0579424 -1.00137 
-0.0338816 0.0447263 -1.00175 
-0.0431342 0.0347658 -1.0018 
-0.0502094 0.0271198 -1.00171 
-0.0556453 0.021159 -1.00157 
-0.0598587 0.0164464 -1.00141 
-0.0631741 0.012697 -1.00126 
-0.0657988 0.00973688 -1.00112 
-0.067838 0.00741853 -1.00101 
-0.0693674 0.00558367 -1.00091 
-0.0704688 0.00406743 -1.00085 
-0.0712467 0.00275017 -1.0008 
-0.0717563 0.00159285 -1.00078 
-0.0720189 0.000529991 -1.00077 
-0.0720652 -0.000501064 -1.00079 
-0.0719062 -0.00156547 -1.00084 
-0.0715993 -0.00267391 -1.00087 
-0.0711093 -0.00377502 -1.00008 
-0.0698324 -0.00510542 -1.00117 
-0.0682823 -0.00694342 -1.00102 
-0.0662156 -0.00926561 -1.00129 
-0.063495 -0.012395 -1.00161 
-0.0598692 -0.0166203 -1.00171 
-0.0548518 -0.0227912 -1.00208 
-0.048158 -0.0321248 -1.00226 
-0.039814 -0.0463744 -1.0017 
-0.0307887 -0.066783 -0.999508 
0.0202328 -0.0756673 1.0004 
0.02908 -0.0585631 1.00276 
0.0334392 -0.0448911 1.00497 
0.0386941 -0.0335735 1.00545 
0.0436125 -0.0246582 1.00531 
0.0469938 -0.0185118 1.00521 
0.0499247 -0.013875 1.00504 
0.0521741 -0.0103455 1.00488 
0.0536318 -0.00767601 1.00478 
0.0545834 -0.00559714 1.00473 
0.0553968 -0.00387752 1.00466 
0.0559618 -0.00240002 1.0046 
0.0562755 -0.0010689 1.00456 
0.0563557 0.000197808 1.00453 
0.0562174 0.00148049 1.00451 
0.0558491 0.0028578 1.00451 
0.0552256 0.00440562 1.00453 
0.0543071 0.00620172 1.00456 
0.0530356 0.00835443 1.00461 
0.0513417 0.0110098 1.00467 
0.0491565 0.0143384 1.00474 
0.0463761 0.0185384 1.0048 
0.0428367 0.0238559 1.00485 
0.0383236 0.0306204 1.00484 
0.0325634 0.0392928 1.00474 
0.0251933 0.050527 1.00443 
0.015768 0.0652465 1.00374 
0.00381735 0.0847175 1.00235 
-0.0110792 0.11063 0.999652 
-0.0291629 0.145183 0.994649 
-0.0502523 0.191054 0.985661 
-0.0733958 0.251124 0.970033 
-0.0965312 0.327739 0.943884 
-0.116424 0.421531 0.902136 
-0.129224 0.530167 0.838962 
-0.131441 0.64783 0.748561 
-0.120715 0.765184 0.626357 
-0.0965172 0.869764 0.470893 
-0.0607149 0.947727 0.285914 
-0.0174322 0.987233 0.0811168 
0.0279295 0.981968 -0.129362 
0.0697978 0.932941 -0.330278 
0.103193 0.847973 -0.508762 
0.124476 0.7394 -0.656702 
0.13219 0.620899 -0.771548 
0.127265 0.504438 -0.85544 
0.112417 0.398728 -0.913277 
0.0913992 0.308822 -0.950972 
0.068024 0.236173 -0.974314 
0.0452172 0.179563 -0.98815 
0.0247479 0.136488 -0.99605 
0.00739712 0.104128 -1.00041 
-0.00677072 0.0798775 -1.00275 
-0.0180788 0.061631 -1.00395 
-0.0269845 0.0477936 -1.00453 
-0.0339564 0.0371924 -1.00478 
-0.039402 0.0289904 -1.00486 
-0.043667 0.0225823 -1.00485 
-0.0470292 0.0175338 -1.0048 
-0.0496814 0.0135392 -1.00473 
-0.0517546 0.0103711 -1.00466 
-0.0533429 0.00783968 -1.00461 
-0.0545296 0.00577396 -1.00457 
-0.0553877 0.00403182 -1.00455 
-0.0559752 0.0025134 -1.00455 
-0.0563417 0.00113585 -1.00458 
-0.0565366 -0.000186505 -1.00463 
-0.056578 -0.00154423 -1.00472 
-0.05614 -0.00303514 -1.0049 
-0.0552644 -0.00473726 -1.00574 
-0.0532942 -0.00690788 -1.00584 
-0.0539104 -0.00928456 -1.00406 
-0.0499148 -0.0130675 -1.00593 
-0.0478625 -0.0179005 -1.00519 
-0.0435212 -0.0244609 -1.00549 
-0.0387274 -0.0332794 -1.00566 
-0.0332991 -0.0447336 -1.00523 
-0.0290846 -0.0583729 -1.00292 
-0.0203359 -0.0756491 -1.0005 
0.0131221 -0.0831694 1.00029 
0.022247 -0.0612153 1.0044 
0.0256216 -0.0468841 1.00637 
0.0315666 -0.0333714 1.0058 
0.0341691 -0.0252755 1.00598 
0.0369975 -0.0190814 1.00586 
0.039605 -0.0141694 1.00573 
0.0411254 -0.010508 1.00564 
0.041822 -0.00777584 1.00563 
0.0425825 -0.00553239 1.00558 
0.0432168 -0.00363958 1.00552 
0.0436235 -0.00197847 1.00547 
0.0437961 -0.000444524 1.00543 
0.043767 0.00106001 1.0054 
0.0435333 0.00262735 1.00538 
0.0430701 0.00434944 1.00538 
0.0423509 0.00632227 1.00539 
0.041337 0.00865755 1.0054 
0.0399753 0.0114979 1.00542 
0.0382159 0.0150151 1.00544 
0.0359927 0.0194151 1.00545 
0.0331748 0.0249675 1.00542 
0.0295976 0.0320239 1.00533 
0.0251027 0.0410254 1.00512 
0.0194789 0.0525704 1.0047 
0.0124426 0.0674957 1.00389 
0.00371722 0.0869051 1.00242 
-0.00689395 0.112184 0.999802 
-0.019455 0.145039 0.99524 
-0.0337942 0.187485 0.987461 
-0.0493581 0.241745 0.974471 
-0.0650185 0.309876 0.953309 
-0.0789888 0.393066 0.919876 
-0.0890108 0.490706 0.868988 
-0.0929351 0.599487 0.79482 
-0.089068 0.713278 0.691366 
-0.0763259 0.822423 0.553921 
-0.0548384 0.913701 0.381882 
-0.0265764 0.972734 0.181637 
0.00495987 0.988788 -0.0331052 
0.0357758 0.958949 -0.24475 
0.0621636 0.889031 -0.436883 
0.0812063 0.791072 -0.598547 
0.0913449 0.679203 -0.725633 
0.0927153 0.56588 -0.819881 
0.086657 0.459885 -0.886461 
0.0751079 0.366456 -0.931482 
0.060378 0.287924 -0.960708 
0.0446081 0.224171 -0.979037 
0.0293187 0.173643 -0.990219 
0.0154573 0.134295 -0.996869 
0.00349643 0.103964 -1.00074 
-0.00649872 0.0806495 -1.00295 
-0.0146685 0.0627241 -1.00419 
-0.0212521 0.0488976 -1.00486 
-0.026516 0.0381663 -1.00521 
-0.0307018 0.0297956 -1.00538 
-0.0340356 0.0232245 -1.00544 
-0.0366914 0.018031 -1.00546 
-0.0387839 0.0139045 -1.00545 
-0.0404095 0.0106047 -1.00543 
-0.041653 0.00792836 -1.00541 
-0.0425768 0.00570828 -1.00541 
-0.043238 0.00381084 -1.00542 
-0.0436753 0.00213001 -1.00544 
-0.043953 0.00056766 -1.00548 
-0.0441102 -0.000968333 -1.00555 
-0.0440348 -0.00256933 -1.00565 
-0.0435665 -0.00435344 -1.00576 
-0.0425101 -0.00645309 -1.00581 
-0.0405499 -0.00906067 -1.00516 
-0.0421573 -0.0114688 -1.00567 
-0.0354263 -0.0152531 -1.006 
-0.0392333 -0.0179908 -1.00499 
-0.0344861 -0.0248053 -1.00614 
-0.031131 -0.033332 -1.00626 
-0.0254288 -0.0461616 -1.00689 
-0.0222966 -0.0607575 -1.00469 
-0.013189 -0.083092 -1.00039 
0.0086219 -0.0890122 0.999776 
0.0161656 -0.0659882 1.00444 
0.0176467 -0.0532663 1.00527 
0.0233561 -0.041011 1.00475 
0.0248241 -0.0320084 1.006 
0.0266479 -0.024774 1.00624 
0.0297011 -0.0186247 1.00592 
0.0315102 -0.0138146 1.00587 
0.0318905 -0.0104245 1.00599 
0.0325037 -0.00761645 1.00597 
0.033137 -0.00526795 1.00592 
0.0336366 -0.00324444 1.00588 
0.0339102 -0.00142949 1.00584 
0.0339868 0.000291426 1.0058 
0.0338919 0.00202338 1.00577 
0.0335963 0.00386932 1.00575 
0.0330764 0.00593711 1.00575 
0.0323169 0.00834166 1.00574 
0.0312808 0.0112211 1.00574 
0.0299193 0.014747 1.00573 
0.0281994 0.0191191 1.0057 
0.0260495 0.0245883 1.00564 
0.0233331 0.0314975 1.00551 
0.0199307 0.0402727 1.00527 
0.0157473 0.0514265 1.00482 
0.0106199 0.0656677 1.00404 
0.00436327 0.0839514 1.00269 
-0.00313004 0.107442 1.00039 
-0.011864 0.137517 0.996511 
-0.021712 0.17579 0.990102 
-0.0323536 0.22406 0.979669 
-0.0431834 0.28419 0.962961 
-0.053222 0.357715 0.936737 
-0.0611459 0.445162 0.896614 
-0.0655146 0.545239 0.837143 
-0.065263 0.653868 0.752369 
-0.0594872 0.764408 0.63602 
-0.0475994 0.866122 0.483825 
-0.030064 0.94454 0.297281 
-0.00879113 0.985408 0.0864198 
0.0134998 0.9805 -0.131715 
0.0340563 0.931086 -0.337971 
0.0505413 0.847044 -0.517293 
0.0613591 0.742545 -0.66207 
0.0660543 0.631408 -0.771862 
0.0652306 0.523962 -0.851077 
0.0599251 0.42641 -0.906053 
0.0513824 0.341858 -0.942929 
0.04107 0.271195 -0.966912 
0.0302223 0.213571 -0.982148 
0.0196748 0.167407 -0.991641 
0.0100125 0.13095 -0.997443 
0.00154679 0.102388 -1.00094 
-0.00566749 0.0800717 -1.00302 
-0.0116695 0.0626751 -1.00424 
-0.0166032 0.0490982 -1.00494 
-0.0206161 0.0384431 -1.00534 
-0.0238504 0.0300757 -1.00555 
-0.0264626 0.0234678 -1.00566 
-0.028559 0.0182133 -1.00571 
-0.0301999 0.014015 -1.00574 
-0.0314829 0.010626 -1.00575 
-0.0324518 0.00784828 -1.00576 
-0.0331726 0.00551135 -1.00577 
-0.0336681 0.00348746 -1.0058 
-0.0339845 0.00165901 -1.00583 
-0.0341897 -8.1655e-05 -1.00587 
-0.0342654 -0.00183415 -1.00593 
-0.0340952 -0.00372224 -1.00602 
-0.0334966 -0.00590725 -1.00613 
-0.0323166 -0.00861575 -1.00622 
-0.0313359 -0.0122144 -1.00709 
-0.0272727 -0.0171694 -1.0063 
-0.0296807 -0.0215721 -1.00614 
-0.0251096 -0.0297611 -1.00715 
-0.0227317 -0.039489 -1.00559 
-0.0177524 -0.0524453 -1.00576 
-0.0160566 -0.065891 -1.00465 
-0.0086571 -0.0889103 -0.999845 
0.00583427 -0.093454 0.999245 
0.0114413 -0.0705452 1.004 
0.0131824 -0.0551455 1.00526 
0.0181984 -0.0414418 1.0058 
0.0189333 -0.0315983 1.00724 
0.02136 -0.0233953 1.00635 
0.0241262 -0.0177195 1.00524 
0.0241765 -0.0137363 1.00609 
0.0246375 -0.0102594 1.00618 
0.0251751 -0.00736848 1.00615 
0.0257154 -0.00491457 1.0061 
0.0260775 -0.00277022 1.00606 
0.0262329 -0.000808385 1.00602 
0.0262369 0.0010936 1.00598 
0.0260873 0.0030486 1.00595 
0.0257373 0.005174 1.00593 
0.0251829 0.007589 1.00591 
0.0244221 0.010424 1.00589 
0.0234115 0.0138446 1.00587 
0.0221151 0.0180493 1.00582 
0.0205113 0.023262 1.00575 
0.0185196 0.0297809 1.00562 
0.0160219 0.038011 1.00538 
0.0129575 0.0484193 1.00497 
0.00927265 0.0615677 1.00427 
0.0048439 0.0782617 1.00312 
-0.000414025 0.0995143 1.0012 
-0.00648976 0.126481 0.998046 
-0.0132938 0.160502 0.992925 
-0.020637 0.2031 0.984714 
-0.0281955 0.255923 0.971721 
-0.0354466 0.320637 0.951431 
-0.0416263 0.398443 0.920271 
-0.0458172 0.48942 0.873496 
-0.0471435 0.591675 0.805296 
-0.0451647 0.700146 0.709683 
-0.0392539 0.807411 0.580252 
-0.0291051 0.901109 0.414143 
-0.0154428 0.965924 0.216041 
8.20557e-05 0.989067 -0.000821031 
0.0155181 0.965678 -0.217186 
0.0290607 0.901036 -0.414313 
0.0392815 0.807709 -0.579806 
0.0453807 0.700412 -0.709381 
0.0474122 0.59171 -0.805236 
0.0459811 0.489875 -0.873201 
0.0417549 0.3992 -0.919907 
0.0355477 0.321471 -0.951122 
0.0283236 0.256735 -0.971484 
0.0207803 0.203767 -0.984557 
0.0133986 0.161036 -0.992829 
0.0065784 0.126988 -0.997978 
0.000522314 0.100016 -1.00115 
-0.00472788 0.0787041 -1.0031 
-0.00914981 0.0619291 -1.00428 
-0.012868 0.0487301 -1.00496 
-0.0159308 0.0382473 -1.00538 
-0.0184224 0.0299796 -1.00562 
-0.0204662 0.0234059 -1.00576 
-0.0221027 0.0181521 -1.00585 
-0.0233921 0.0139117 -1.00589 
-0.0243832 0.010483 -1.00591 
-0.0251518 0.00762945 -1.00594 
-0.0257003 0.00520258 -1.00596 
-0.0260661 0.00306924 -1.00599 
-0.0262969 0.00110403 -1.00602 
-0.0264564 -0.000803235 -1.00605 
-0.0265023 -0.00276714 -1.0061 
-0.0262708 -0.00493351 -1.00617 
-0.0256758 -0.00747683 -1.00623 
-0.0249386 -0.0106071 -1.00637 
-0.0232253 -0.014427 -1.00643 
-0.0206419 -0.0196245 -1.00609 
-0.0226742 -0.0239331 -1.00624 
-0.0190092 -0.0316673 -1.00548 
-0.0169349 -0.0413895 -1.0069 
-0.0129043 -0.0554849 -1.0054 
-0.0113745 -0.0702615 -1.00418 
-0.00582127 -0.0932834 -0.999268 
0.00408709 -0.0966862 0.998866 
0.00832058 -0.0734217 1.00374 
0.00971751 -0.0577924 1.00501 
0.0139205 -0.0428735 1.00589 
0.0137511 -0.0342389 1.00618 
0.0160439 -0.0262649 1.00648 
0.0185208 -0.018815 1.00703 
0.0187049 -0.0138526 1.00651 
0.0190312 -0.0100794 1.0064 
0.0195031 -0.00703021 1.00629 
0.0199365 -0.00446577 1.00621 
0.0201659 -0.00220794 1.00616 
0.0202369 -0.00010832 1.00611 
0.0201989 0.00196407 1.00606 
0.0200121 0.00413647 1.00602 
0.0196305 0.00653704 1.006 
0.019084 0.00928984 1.00597 
0.018363 0.0125439 1.00594 
0.0174195 0.0164943 1.00589 
0.0162348 0.0213599 1.00582 
0.0147883 0.0273855 1.00569 
0.0129973 0.0349201 1.00548 
0.0107804 0.0444117 1.00513 
0.00812402 0.0563447 1.00455 
0.00499001 0.071334 1.00359 
0.00129493 0.0902727 1.00205 
-0.00296534 0.114188 0.999546 
-0.00772127 0.144209 0.995526 
-0.0128582 0.181666 0.98914 
-0.0181912 0.228043 0.979101 
-0.0234404 0.284926 0.963485 
-0.0281802 0.353875 0.939453 
-0.0318367 0.43584 0.903028 
-0.0337922 0.530439 0.849006 
-0.0335446 0.634963 0.77123 
-0.0309848 0.742974 0.664 
-0.02556 0.845885 0.521387 
-0.01728 0.929839 0.343047 
-0.00694681 0.979969 0.136569 
0.00418809 0.985813 -0.0822429 
0.0147886 0.946153 -0.293284 
0.0236847 0.869543 -0.479419 
0.0300113 0.770027 -0.631285 
0.0334191 0.66195 -0.747356 
0.0341534 0.55636 -0.831625 
0.0326709 0.459707 -0.890654 
0.0293778 0.374851 -0.930953 
0.024849 0.302734 -0.957809 
0.0197334 0.242858 -0.975372 
0.0143935 0.193748 -0.98674 
0.00913987 0.153978 -0.994008 
0.00426573 0.122115 -0.998582 
-0.000112438 0.0966811 -1.00145 
-0.0039588 0.0764267 -1.00325 
-0.00721513 0.060374 -1.00436 
-0.0100446 0.0476974 -1.00497 
-0.0123665 0.0374524 -1.00543 
-0.0142828 0.0293699 -1.00566 
-0.0158474 0.0229512 -1.00583 
-0.0171601 0.0177021 -1.00591 
-0.0180882 0.0135289 -1.00598 
-0.0188929 0.0100984 -1.006 
-0.0194706 0.00720928 -1.00604 
-0.0198657 0.00472414 -1.00607 
-0.0201156 0.00250732 -1.00609 
-0.0202699 0.000431745 -1.00612 
-0.020409 -0.00162132 -1.00612 
-0.0204152 -0.00376942 -1.00613 
-0.0201363 -0.00617442 -1.00617 
-0.0196459 -0.00896783 -1.00621 
-0.0187667 -0.0122345 -1.00622 
-0.0172276 -0.0162516 -1.00608 
-0.0160269 -0.0209142 -1.00502 
-0.0165021 -0.0269339 -1.00674 
-0.0139611 -0.0363465 -1.00602 
-0.0118117 -0.0469651 -1.00563 
-0.00892349 -0.0609794 -1.00399 
-0.0079117 -0.0745396 -1.00366 
-0.00399506 -0.0964385 -0.999036 
0.00293285 -0.099033 0.998569 
0.0060307 -0.0760483 1.00346 
0.00703263 -0.0602835 1.00478 
0.0101869 -0.0462877 1.00542 
0.0101681 -0.0374353 1.00496 
0.0112072 -0.0290251 1.00691 
0.0139213 -0.0225284 1.00551 
0.0141801 -0.01735 1.0064 
0.0142734 -0.0130435 1.00647 
0.0145906 -0.00945207 1.00639 
0.0150033 -0.00645338 1.00628 
0.0153287 -0.00387065 1.00623 
0.0154392 -0.0015368 1.00618 
0.0154502 0.000672255 1.00611 
0.0153822 0.00289834 1.00606 
0.0151542 0.00527608 1.00603 
0.0147644 0.00794137 1.00601 
0.0142544 0.0110174 1.00597 
0.0135982 0.0146762 1.00592 
0.0127539 0.0191466 1.00586 
0.01171 0.0246516 1.00574 
0.0104497 0.0314614 1.00557 
0.00889658 0.0399724 1.00528 
0.00700997 0.0506574 1.00481 
0.00480048 0.0640085 1.00404 
0.00223319 0.0807062 1.00282 
-0.000732898 0.10171 1.00087 
-0.00405388 0.128035 0.997768 
-0.00764821 0.160804 0.992862 
-0.0114085 0.201364 0.985181 
-0.0151804 0.251193 0.97326 
-0.0187397 0.311849 0.954925 
-0.0217483 0.384776 0.926991 
-0.0237926 0.470612 0.885076 
-0.0244733 0.568339 0.823621 
-0.0235502 0.674161 0.736473 
-0.0210274 0.780248 0.618726 
-0.0164299 0.877287 0.465173 
-0.00998806 0.950951 0.277389 
-0.00236541 0.98716 0.065107 
0.00553026 0.977618 -0.153698 
0.0127754 0.924334 -0.358514 
0.0185997 0.838441 -0.534063 
0.0224853 0.734778 -0.67376 
0.0243409 0.627043 -0.778277 
0.024457 0.524794 -0.852958 
0.0231287 0.432845 -0.904776 
0.0206073 0.353009 -0.939973 
0.0173292 0.285635 -0.963372 
0.013713 0.229851 -0.978694 
0.00991288 0.183998 -0.98869 
0.0061621 0.146765 -0.995121 
0.00268123 0.116855 -0.999189 
-0.000481463 0.0928425 -1.00178 
-0.00329175 0.0735739 -1.00345 
-0.0056696 0.0581995 -1.00451 
-0.00786166 0.0461458 -1.00497 
-0.00961078 0.0359713 -1.00547 
-0.0109734 0.0283666 -1.00576 
-0.0123236 0.0218971 -1.00587 
-0.0131734 0.0168917 -1.00598 
-0.0138896 0.0128025 -1.00603 
-0.0145364 0.00942985 -1.00605 
-0.0149344 0.00652569 -1.00611 
-0.0151877 0.00401038 -1.00612 
-0.0153251 0.00174798 -1.00615 
-0.0154633 -0.000432761 -1.00614 
-0.0155709 -0.00260991 -1.00611 
-0.0155592 -0.00493476 -1.00606 
-0.0152329 -0.00757273 -1.00612 
-0.0146729 -0.0106463 -1.00623 
-0.0137538 -0.0144722 -1.00633 
-0.0123621 -0.0196066 -1.00677 
-0.0128688 -0.0253534 -1.00496 
-0.0116411 -0.0324984 -1.0059 
-0.00959338 -0.0423965 -1.00585 
-0.00785378 -0.0544598 -1.0052 
-0.00559161 -0.0757715 -1.00434 
-0.00268751 -0.0988823 -0.998624 
0.00213193 -0.100751 0.99835 
0.00435938 -0.0780847 1.00322 
0.00510943 -0.0616106 1.00463 
0.00743094 -0.0478284 1.00531 
0.00783695 -0.0367132 1.0058 
0.00818271 -0.0284055 1.0064 
0.0105541 -0.0222788 1.00643 
0.01059 -0.0168531 1.00661 
0.0107716 -0.0124238 1.0065 
0.0110682 -0.008831 1.00637 
0.0114295 -0.00583441 1.00627 
0.0116573 -0.00320896 1.0062 
0.01166 -0.000809321 1.00615 
0.0116592 0.0014913 1.00606 
0.0115631 0.0038446 1.00602 
0.0113273 0.00641403 1.00601 
0.0109653 0.00932388 1.00597 
0.0105199 0.0126861 1.00592 
0.00995952 0.0167374 1.00587 
0.00922777 0.0217019 1.00578 
0.00834112 0.0278043 1.00564 
0.00727544 0.0353465 1.00541 
0.00597295 0.0447684 1.00504 
0.00442802 0.0565325 1.00444 
0.00265267 0.0711534 1.00349 
0.000612927 0.0893936 1.00201 
-0.00169477 0.112246 0.999662 
-0.00420534 0.140661 0.995965 
-0.00684691 0.175742 0.990205 
-0.00953162 0.218828 0.981303 
-0.0121392 0.271296 0.967672 
-0.0144973 0.334539 0.946996 
-0.0163575 0.409778 0.915932 
-0.0174497 0.49719 0.870049 
-0.0175507 0.59544 0.803738 
-0.0165679 0.700602 0.710671 
-0.0144196 0.804928 0.585248 
-0.0107291 0.898224 0.421879 
-0.00579033 0.964463 0.223999 
-0.000145295 0.989249 0.00459846 
0.00550064 0.966395 -0.215291 
0.0104854 0.901439 -0.414764 
0.0143037 0.808042 -0.580795 
0.0166668 0.701585 -0.709663 
0.0176383 0.595028 -0.804077 
0.0174818 0.496241 -0.87063 
0.0163563 0.408533 -0.91653 
0.0144371 0.333033 -0.947575 
0.0120727 0.269769 -0.968131 
0.00950638 0.217511 -0.981617 
0.00676829 0.17434 -0.990492 
0.00407077 0.139275 -0.9962 
0.00158379 0.111167 -0.999811 
-0.000715996 0.08838 -1.00217 
-0.00278906 0.0698344 -1.00374 
-0.00451374 0.0549523 -1.00514 
-0.00636706 0.0435283 -1.00436 
-0.00728333 0.0341999 -1.0061 
-0.00870415 0.0262511 -1.0057 
-0.0094279 0.02039 -1.0059 
-0.0100778 0.0155906 -1.006 
-0.0105808 0.0116783 -1.00605 
-0.011142 0.00842077 -1.00604 
-0.0113489 0.00547447 -1.00613 
-0.0114099 0.00300544 -1.00619 
-0.0115633 0.000667071 -1.00615 
-0.011607 -0.00159393 -1.0061 
-0.0116857 -0.00384478 -1.00599 
-0.0116265 -0.00618995 -1.00529 
-0.011252 -0.0088735 -1.00605 
-0.010808 -0.0121502 -1.00618 
-0.0100895 -0.0163639 -1.00626 
-0.00901313 -0.0218478 -1.00603 
-0.00985606 -0.0270444 -1.00585 
-0.00829539 -0.0360232 -1.00606 
-0.00649364 -0.0477435 -1.00645 
-0.00542863 -0.0635963 -1.00454 
-0.00366396 -0.0803761 -1.00229 
-0.00182707 -0.100781 -0.998287 
0.0015464 -0.101987 0.998205 
0.00314964 -0.0793392 1.00307 
0.00369599 -0.0621556 1.00458 
0.00553051 -0.0479828 1.00536 
0.00574819 -0.0374386 1.00573 
0.0058773 -0.029359 1.006 
0.0077511 -0.0215219 1.00718 
0.00783068 -0.0158638 1.00664 
0.00797026 -0.0115196 1.00651 
0.00823493 -0.00800779 1.00636 
0.0085473 -0.00503174 1.00621 
0.00862485 -0.00241912 1.00617 
0.00856463 3.99781e-05 1.00608 
0.0085368 0.00237366 1.006 
0.00844457 0.00486338 1.006 
0.00820859 0.00765097 1.00597 
0.00786939 0.0107733 1.00594 
0.00752556 0.014462 1.0059 
0.00704743 0.0189471 1.00583 
0.00643784 0.024434 1.00572 
0.00571342 0.0311555 1.00553 
0.00484609 0.0394776 1.00524 
0.00380168 0.049835 1.00478 
0.00259619 0.0626903 1.00404 
0.00122562 0.0786309 1.00289 