# vtk DataFile Version 3.0 
Exported using Morpho https://github.com/Morpho-lang/morpho 
ASCII 
DATASET UNSTRUCTURED_GRID 

POINTS 1978 float 
-11.9995 -3.99851 -1.97473e-06 
-11.5994 -3.99945 0.00015589 
-11.2987 -3.9999 5.93926e-05 
-10.9551 -3.99979 5.43463e-05 
-10.6269 -4.0003 0.00010509 
-10.2792 -3.9999 3.55763e-05 
-9.95934 -4.00008 1.65626e-05 
-9.65062 -4.00002 -2.42141e-06 
-9.31608 -4.00035 1.99379e-05 
-8.99897 -4.00023 1.12159e-05 
-8.68242 -4.00002 1.17829e-05 
-8.36268 -4.00045 4.56851e-06 
-8.05159 -3.99996 1.35308e-05 
-7.74992 -4.00015 5.5277e-06 
-7.48292 -3.99868 -3.90744e-06 
-7.20344 -4.00158 6.66795e-06 
-6.90649 -3.99977 4.30375e-06 
-6.5918 -4.00001 7.35654e-07 
-6.29478 -4.0001 3.15018e-07 
-5.98892 -4.00019 -6.64727e-06 
-5.68922 -4.00016 -5.32025e-06 
-5.38558 -4.00031 -1.52963e-05 
-5.08415 -4.00038 -2.76506e-05 
-4.79087 -4.00061 -1.32532e-05 
-4.45461 -4.00018 -3.64303e-05 
-4.17061 -4.00036 -3.97507e-05 
-3.86274 -4.0001 -6.73453e-05 
-3.53927 -4.00003 -8.45837e-05 
-3.24137 -4.0001 -0.000120779 
-2.94341 -4.00018 -0.000110684 
-2.67252 -3.99959 -0.000150837 
-2.40909 -3.99972 -0.00013151 
-2.12739 -4.00003 -0.000149515 
-1.83383 -4.0002 -0.000102482 
-1.56514 -3.99998 -7.47693e-05 
-1.28065 -4.00006 4.84455e-05 
-0.998052 -3.99986 -0.000189746 
-0.720926 -4.00017 -0.000806557 
-0.385292 -4.00143 0.000127391 
-0.00247409 -4.00032 -2.9954e-05 
0.388263 -4.00206 -0.000162594 
0.740406 -3.99967 0.000829103 
0.99065 -3.99759 1.51671e-05 
1.23958 -4.00276 0.000233812 
1.50697 -4.00018 5.95778e-05 
1.77712 -3.9997 3.41607e-05 
2.04355 -4.00006 0.000159662 
2.3502 -4.00057 0.000187381 
2.6679 -4.00036 0.000140944 
2.98036 -3.99993 0.000134895 
3.29332 -4.00016 0.000107114 
3.58365 -4.00007 7.17989e-05 
3.88557 -4 5.97371e-05 
4.19771 -4.00002 4.74696e-05 
4.49873 -4.00013 2.70399e-05 
4.79525 -4.00022 2.36342e-05 
5.10998 -4.00032 1.82073e-05 
5.41232 -4.00031 1.40053e-05 
5.7223 -4.00031 4.16535e-06 
6.01465 -4.00031 7.82721e-06 
6.30504 -4.00026 6.55852e-06 
6.60141 -4.00018 -4.26047e-06 
6.89912 -4.00032 1.24517e-05 
7.17342 -4.00023 2.81061e-06 
7.47693 -4.00044 -6.18085e-06 
7.76842 -3.99973 4.58427e-06 
8.06174 -3.99984 -1.95971e-05 
8.35679 -4.00016 1.33174e-05 
8.65685 -3.99986 -2.7952e-06 
8.93159 -3.99998 -5.51418e-06 
9.2795 -4.00014 -2.79514e-05 
9.60558 -3.99999 -4.34127e-06 
9.89507 -4.00008 -3.11549e-05 
10.2655 -3.99991 -2.75285e-05 
10.5781 -3.99964 -0.000116414 
10.9788 -3.99983 -4.36656e-05 
11.2978 -3.99979 -5.86743e-05 
11.5897 -3.99946 -0.00014533 
11.9994 -3.99848 -1.62157e-05 
-11.9995 -3.59584 -0.000136623 
-11.7141 -3.70924 -4.22173e-05 
-11.3687 -3.62263 -5.98015e-05 
-11.057 -3.67011 -6.81769e-05 
-10.7139 -3.65368 -4.8926e-05 
-10.3889 -3.68183 -4.73285e-05 
-10.0452 -3.65636 -2.76852e-05 
-9.72904 -3.64673 -1.35316e-05 
-9.4083 -3.67487 -1.41422e-05 
-9.07932 -3.65959 -5.00162e-06 
-8.75752 -3.66271 -4.21211e-06 
-8.43564 -3.67185 -3.47812e-06 
-8.12082 -3.66291 -1.63523e-06 
-7.80548 -3.65783 5.42192e-06 
-7.50211 -3.62453 -6.8573e-06 
-7.20408 -3.65998 3.62293e-06 
-6.8824 -3.6748 5.30613e-06 
-6.57813 -3.65924 4.33573e-06 
-6.26815 -3.67086 5.3051e-06 
-5.96285 -3.66324 6.59378e-06 
-5.6558 -3.66259 8.40658e-06 
-5.35014 -3.65458 1.04287e-05 
-5.05396 -3.64204 1.08789e-05 
-4.72794 -3.68737 2.33243e-05 
-4.4351 -3.6284 2.01338e-05 
-4.13081 -3.66457 3.03337e-05 
-3.80991 -3.68749 4.7798e-05 
-3.50537 -3.67165 4.73554e-05 
-3.19938 -3.68667 6.40728e-05 
-2.90322 -3.67864 5.25881e-05 
-2.62335 -3.66611 4.34181e-05 
-2.34565 -3.68162 5.1337e-05 
-2.05739 -3.71669 8.70381e-05 
-1.77964 -3.69209 3.04546e-05 
-1.49048 -3.71029 -1.20806e-05 
-1.20135 -3.69464 -6.10286e-05 
-0.922638 -3.64202 -0.000227288 
-0.634184 -3.62277 -0.000235577 
-0.317045 -3.63946 -0.000419562 
0.00673072 -3.55768 -0.000147222 
0.328495 -3.62573 0.000398949 
0.643123 -3.62525 0.000471881 
0.942894 -3.61784 0.000239495 
1.22737 -3.70738 4.44593e-05 
1.52606 -3.70223 1.68275e-05 
1.81372 -3.69798 -1.34632e-05 
2.10228 -3.72382 -6.47218e-05 
2.41321 -3.73472 -0.000114111 
2.71326 -3.71444 -9.69914e-05 
3.02389 -3.6998 -7.72236e-05 
3.31064 -3.66011 -4.59585e-05 
3.60902 -3.66341 -5.08107e-05 
3.91958 -3.66843 -3.53088e-05 
4.22264 -3.65229 -2.90387e-05 
4.52333 -3.64723 -2.2263e-05 
4.83819 -3.66818 -1.81754e-05 
5.14916 -3.65803 -1.45255e-05 
5.46481 -3.66939 -9.45653e-06 
5.76749 -3.65296 -5.28849e-06 
6.06378 -3.65394 -7.72307e-06 
6.36312 -3.65977 -8.43016e-06 
6.66621 -3.66025 4.74797e-06 
6.94788 -3.62977 -4.16954e-07 
7.24896 -3.66432 4.66379e-06 
7.55541 -3.65447 -6.00669e-06 
7.85619 -3.65134 3.12717e-06 
8.15841 -3.65105 -3.05936e-06 
8.45001 -3.66021 1.14939e-05 
8.73394 -3.62504 7.95044e-06 
9.05371 -3.69986 9.86868e-06 
9.38692 -3.6758 1.21872e-05 
9.69082 -3.62655 8.14828e-06 
10.0246 -3.70381 3.37634e-05 
10.3489 -3.64534 3.09378e-05 
10.7165 -3.71898 8.40013e-05 
11.0503 -3.64663 6.6638e-05 
11.3534 -3.61559 6.2811e-05 
11.7046 -3.7203 5.19442e-05 
11.9995 -3.60561 0.000145855 
-11.9998 -3.29789 -4.11225e-05 
-11.6244 -3.35823 3.92238e-05 
-11.2752 -3.2814 2.80426e-06 
-10.9618 -3.33452 2.98191e-06 
-10.6534 -3.29832 3.60078e-06 
-10.3489 -3.35059 -8.20547e-06 
-10.0434 -3.312 -2.08496e-05 
-9.70964 -3.32189 -8.48807e-07 
-9.38618 -3.34956 3.10713e-06 
-9.0587 -3.33525 -1.09462e-05 
-8.76288 -3.3098 -1.26141e-05 
-8.47205 -3.3452 -7.96411e-06 
-8.16823 -3.32735 1.40867e-06 
-7.87076 -3.33371 -3.95644e-06 
-7.56632 -3.28918 -7.39407e-06 
-7.25531 -3.32785 -1.07583e-05 
-6.94949 -3.35287 -1.67523e-05 
-6.64232 -3.33319 -1.22671e-05 
-6.33249 -3.34623 -1.30942e-05 
-6.02721 -3.33864 -1.26329e-05 
-5.71897 -3.33582 -1.6159e-05 
-5.41114 -3.32529 -1.6912e-05 
-5.10477 -3.30135 -1.76127e-05 
-4.79671 -3.35953 -2.00696e-05 
-4.49669 -3.29675 -1.61903e-05 
-4.19278 -3.32848 -2.2877e-05 
-3.88947 -3.37322 -2.41855e-05 
-3.58415 -3.35726 -1.52686e-05 
-3.27365 -3.3697 -9.17867e-06 
-2.97167 -3.37208 -2.0351e-05 
-2.67656 -3.33982 1.26668e-06 
-2.38619 -3.3489 6.92023e-06 
-2.09317 -3.41092 -1.45896e-05 
-1.78423 -3.39025 -2.00763e-05 
-1.48521 -3.40568 -4.3063e-05 
-1.19151 -3.36426 -9.64288e-05 
-0.899694 -3.2931 -0.000186926 
-0.603911 -3.23098 -0.000254353 
-0.309012 -3.27923 -0.000456884 
0.01055 -3.14485 0.000105054 
0.31826 -3.23678 0.000616832 
0.616054 -3.22608 0.000196581 
0.911636 -3.27166 0.000218578 
1.21783 -3.39089 9.43511e-05 
1.51311 -3.39273 4.16979e-05 
1.80166 -3.39524 2.9698e-05 
2.08713 -3.41369 1.29996e-05 
2.36735 -3.45002 -8.88627e-06 
2.6612 -3.4133 2.10269e-05 
2.95533 -3.40591 1.74081e-05 
3.25889 -3.33458 1.95061e-05 
3.55855 -3.33454 2.07129e-05 
3.8626 -3.34559 2.06096e-05 
4.16886 -3.32113 2.65675e-05 
4.47228 -3.30989 1.61211e-05 
4.77545 -3.33625 1.21861e-05 
5.08306 -3.3342 1.92063e-05 
5.39504 -3.34494 1.65999e-05 
5.70214 -3.32538 1.51222e-05 
6.00896 -3.31706 1.27141e-05 
6.30431 -3.32621 1.49261e-05 
6.60361 -3.33362 8.11118e-06 
6.90006 -3.28167 1.64296e-05 
7.19459 -3.32527 8.71506e-06 
7.49581 -3.32859 1.41372e-05 
7.80632 -3.32151 2.47919e-07 
8.12149 -3.3252 4.47876e-07 
8.43616 -3.3128 2.69476e-06 
8.75777 -3.30643 1.42748e-05 
9.07342 -3.38561 1.29609e-05 
9.38183 -3.33735 -7.26739e-06 
9.68455 -3.2783 -4.136e-06 
9.99378 -3.37492 1.49132e-05 
10.3045 -3.30301 1.57767e-05 
10.6362 -3.40454 6.19798e-06 
10.9713 -3.32685 -8.92855e-06 
11.3015 -3.25683 -5.01035e-06 
11.6334 -3.37411 -3.56669e-05 
11.9997 -3.29279 6.57552e-05 
-11.9998 -2.97356 -1.22022e-05 
-11.6566 -3.0501 4.89821e-05 
-11.3181 -2.96368 1.73769e-06 
-10.9731 -2.98083 5.11051e-06 
-10.6355 -2.96636 3.27518e-07 
-10.301 -2.9986 -1.48941e-05 
-9.96284 -2.99518 -4.82359e-06 
-9.63789 -2.99502 1.00348e-05 
-9.32683 -3.02747 7.60415e-06 
-9.02578 -2.98694 -3.53439e-06 
-8.72617 -2.96682 -2.21837e-06 
-8.43186 -3.00223 2.72204e-06 
-8.14082 -2.9849 1.08748e-05 
-7.84421 -2.99726 5.27512e-06 
-7.54028 -2.96056 1.14901e-06 
-7.24038 -3.00635 -3.55892e-06 
-6.93594 -3.02689 4.42359e-06 
-6.62462 -3.01426 5.9576e-06 
-6.32287 -3.01898 8.94635e-06 
-6.01639 -3.01458 8.92667e-06 
-5.70873 -3.00952 7.31172e-06 
-5.40132 -2.99566 6.61397e-06 
-5.08933 -2.97574 8.94544e-06 
-4.79135 -3.03149 1.43143e-05 
-4.4836 -2.97189 8.36902e-06 
-4.18796 -3.00191 1.21285e-05 
-3.89778 -3.05086 1.52351e-05 
-3.60329 -3.04239 1.58577e-05 
-3.29872 -3.05862 1.75645e-05 
-2.9754 -3.05683 2.24822e-05 
-2.66682 -3.0118 1.51504e-05 
-2.35117 -3.01943 7.44975e-06 
-2.04847 -3.10019 1.27537e-05 
-1.75525 -3.04422 -2.8293e-05 
-1.46118 -3.0711 -1.83174e-05 
-1.16845 -2.99411 -9.63662e-05 
-0.88514 -2.90751 -0.000246836 
-0.585962 -2.79917 -0.000465998 
-0.271208 -2.86441 0.000345172 
0.00594372 -2.60646 -0.000482811 
0.29412 -2.77737 -6.80701e-05 
0.572726 -2.73776 0.000436383 
0.870387 -2.87677 -1.71391e-05 
1.17267 -3.018 7.18643e-05 
1.46677 -3.05118 -3.91103e-06 
1.77276 -3.07077 7.74312e-06 
2.07204 -3.0804 -1.07928e-06 
2.36809 -3.13232 -1.89681e-05 
2.66377 -3.08887 -1.34854e-05 
2.95933 -3.08634 -5.91732e-06 
3.25391 -3.00712 -2.09088e-05 
3.5518 -3.01203 -1.80254e-05 
3.85618 -3.02426 -1.24765e-05 
4.15749 -2.99609 -1.28223e-05 
4.4605 -2.98214 -9.99455e-06 
4.75952 -3.00592 -1.2187e-05 
5.06475 -3.01017 -1.26277e-05 
5.37302 -3.0209 -6.72102e-06 
5.67987 -3.00169 -9.48018e-06 
5.98822 -2.99792 -8.06206e-06 
6.30215 -2.98969 -9.29724e-06 
6.59533 -3.0034 -1.12514e-05 
6.91659 -2.97238 -4.45174e-06 
7.23374 -2.99404 -2.70168e-08 
7.53444 -2.99836 -9.00269e-07 
7.83754 -3 -4.44701e-06 
8.14338 -2.99771 -9.32734e-06 
8.44692 -2.99492 -3.59503e-06 
8.75135 -2.97218 4.69816e-06 
9.05674 -3.05714 2.77288e-06 
9.35482 -2.99907 -9.97105e-06 
9.66666 -2.94502 -1.05663e-05 
9.99062 -3.02953 9.40827e-06 
10.3218 -2.97399 1.46369e-05 
10.65 -3.07549 -3.76886e-06 
10.984 -2.98989 -1.13949e-05 
11.3326 -2.93479 -1.36492e-06 
11.6658 -3.05206 -5.30732e-05 
11.9999 -2.95086 2.23714e-05 
-11.9996 -2.65718 -7.50629e-05 
-11.6505 -2.722 3.22712e-05 
-11.3085 -2.64096 -5.76362e-06 
-10.9694 -2.65733 -8.44781e-06 
[...]
POINT_DATA 1978 
VECTORS vectors float
0.0616322 -0.0974764 0.993349 
0.0468639 -0.0890324 0.995158 
0.0516976 -0.0623032 0.99693 
0.0538011 -0.0411237 0.997775 
0.0555451 -0.0276363 0.998057 
0.0574583 -0.0165752 0.998143 
0.061131 -0.00818863 0.998064 
0.0616769 -0.00445739 0.997969 
0.062499 -0.00293223 0.997842 
0.0644311 -0.00347724 0.99774 
0.0642254 -0.00443045 0.997734 
0.0644195 -0.003616 0.997724 
0.0657206 -0.00317324 0.997687 
0.0689274 -0.00307715 0.997544 
0.0714282 -0.00313407 0.997289 
0.0688416 -0.00282838 0.997485 
0.0651027 -0.00190328 0.997713 
0.0653613 -0.00106732 0.997716 
0.065923 -0.000377824 0.997696 
0.0655864 0.000733382 0.997716 
0.0655978 0.00222693 0.997725 
0.065024 0.00441997 0.99777 
0.0654661 0.00721348 0.997768 
0.0628839 0.009826 0.997854 
0.0623326 0.0139212 0.997884 
0.0635319 0.0190792 0.997804 
0.0600414 0.0259459 0.997801 
0.0589608 0.0350753 0.997637 
0.0577417 0.0470469 0.997306 
0.0546167 0.0665109 0.996638 
0.0521976 0.0926232 0.994538 
0.0439686 0.126043 0.991575 
0.0352491 0.177927 0.983741 
0.0247937 0.24585 0.96953 
0.0122632 0.330342 0.944331 
-0.0026462 0.447483 0.894759 
-0.015904 0.589639 0.807789 
-0.022189 0.741947 0.669942 
-0.0173586 0.916121 0.398696 
-0.000173559 0.998766 0.00575843 
0.0169755 0.913372 -0.404709 
0.0216674 0.726132 -0.687137 
0.0164904 0.588794 -0.808256 
0.00529247 0.466952 -0.884789 
-0.0103684 0.348285 -0.937872 
-0.0232825 0.261589 -0.96531 
-0.0321387 0.192681 -0.981323 
-0.0401436 0.135679 -0.990141 
-0.0468436 0.0924914 -0.99482 
-0.0524039 0.0632627 -0.996741 
-0.057705 0.0447805 -0.997411 
-0.0609455 0.0338447 -0.997628 
-0.0610319 0.026151 -0.997784 
-0.0620016 0.0190009 -0.997861 
-0.0640916 0.0137974 -0.997822 
-0.0641029 0.0103179 -0.997805 
-0.064065 0.00725753 -0.997798 
-0.0649554 0.00434402 -0.997744 
-0.0656751 0.00229222 -0.997718 
-0.0673384 0.000857516 -0.99764 
-0.0673013 -0.000169185 -0.997623 
-0.0667038 -0.000861818 -0.997649 
-0.0683527 -0.0016506 -0.99759 
-0.0682472 -0.00225935 -0.997583 
-0.0668009 -0.00301294 -0.997771 
-0.0688819 -0.00400758 -0.997354 
-0.0671801 -0.003745 -0.997743 
-0.0675503 -0.00414035 -0.997404 
-0.0691012 -0.00478973 -0.997496 
-0.0663555 -0.00330228 -0.99757 
-0.0614829 -0.00345741 -0.997785 
-0.0642301 -0.00477346 -0.997826 
-0.06006 -0.00714725 -0.998027 
-0.0568506 -0.0169593 -0.998101 
-0.054523 -0.0265543 -0.998036 
-0.0512385 -0.0428166 -0.99771 
-0.05368 -0.0624053 -0.996863 
-0.0472238 -0.0883197 -0.995185 
-0.0609518 -0.0982145 -0.993315 
0.058286 -0.0762637 0.995488 
0.0684656 -0.100207 0.993906 
0.0694957 -0.0739031 0.99649 
0.0766337 -0.050946 0.997388 
0.0806663 -0.0343697 0.997847 
0.0847674 -0.0226253 0.997583 
0.0862145 -0.0138872 0.997717 
0.0878676 -0.00848691 0.997824 
0.0919713 -0.0056611 0.997009 
0.0927899 -0.00464339 0.997146 
0.0936055 -0.00407852 0.997261 
0.0946322 -0.0035205 0.996839 
0.0940391 -0.00328183 0.99709 
0.0938603 -0.00300952 0.997031 
0.0918761 -0.0021812 0.99731 
0.0936128 -0.00149096 0.997098 
0.09366 -0.00105079 0.997011 
0.0925562 -0.00072815 0.997112 
0.0930989 -0.00016299 0.997055 
0.0925931 0.00107585 0.997113 
0.0921028 0.00281746 0.997172 
0.0913547 0.00494783 0.997253 
0.089995 0.00780788 0.997371 
0.0905248 0.0116889 0.997179 
0.0860716 0.0163223 0.997721 
0.0861577 0.0222522 0.997475 
0.084765 0.0304876 0.997353 
0.080642 0.0418389 0.997278 
0.0763041 0.0575994 0.996713 
0.0687046 0.08023 0.995815 
0.0594439 0.11133 0.993398 
0.05002 0.151667 0.988491 
0.0395954 0.204231 0.979471 
0.0238284 0.277996 0.96182 
0.00796527 0.376424 0.927429 
-0.00777386 0.501613 0.866195 
-0.0174798 0.645403 0.764025 
-0.020388 0.801176 0.59722 
-0.0154346 0.938904 0.339192 
-0.000503144 0.997443 -0.00735566 
0.0141235 0.934448 -0.351153 
0.0191755 0.793318 -0.607651 
0.0152244 0.635409 -0.772525 
0.00520543 0.482118 -0.877242 
-0.0111161 0.359431 -0.934356 
-0.0267289 0.267216 -0.964555 
-0.0419061 0.193466 -0.981555 
-0.0555013 0.137648 -0.990248 
-0.0651403 0.0976536 -0.994543 
-0.0726035 0.0693229 -0.996349 
-0.0766281 0.0516716 -0.997163 
-0.0812166 0.0378866 -0.997431 
-0.0844957 0.0279235 -0.997489 
-0.0861767 0.0206709 -0.997534 
-0.0880227 0.015048 -0.997466 
-0.0906447 0.0104757 -0.997277 
-0.0910717 0.00694022 -0.997258 
-0.0923046 0.00427628 -0.997147 
-0.0918054 0.00235032 -0.997201 
-0.0920163 0.000780389 -0.997169 
-0.0924956 -0.000236691 -0.997113 
-0.0926117 -0.000688283 -0.997111 
-0.0914251 -0.00103698 -0.997237 
-0.0935864 -0.00177878 -0.997028 
-0.093762 -0.00263199 -0.99691 
-0.0937891 -0.00344525 -0.996995 
-0.0934343 -0.00367871 -0.99705 
-0.0944503 -0.00387247 -0.996832 
-0.0917722 -0.00420405 -0.997412 
-0.0955394 -0.004439 -0.996621 
-0.0924524 -0.00577272 -0.997149 
-0.0871987 -0.00849354 -0.997869 
-0.0891385 -0.0131513 -0.997217 
-0.0831013 -0.0219569 -0.998061 
-0.083373 -0.0339427 -0.997495 
-0.0758358 -0.0511712 -0.997433 
-0.0695785 -0.0727462 -0.996577 
-0.0691579 -0.0995573 -0.99392 
-0.0587841 -0.0757961 -0.995493 
0.0380164 -0.0835217 0.995957 
0.0498862 -0.0982777 0.995542 
0.0502225 -0.0714115 0.998122 
0.058268 -0.050324 0.998521 
0.0588485 -0.0348736 0.999459 
0.0651964 -0.0240559 0.999141 
0.064417 -0.0165085 0.999429 
0.0675972 -0.0107582 0.999167 
0.07108 -0.0075239 0.999142 
0.0714841 -0.00570235 0.999005 
0.0702235 -0.00436019 0.999077 
0.0733194 -0.00350351 0.99876 
0.0717808 -0.00322866 0.998946 
0.0725914 -0.00280686 0.998788 
0.0691212 -0.00172711 0.999336 
0.0716068 -0.000794835 0.998849 
0.0730534 -0.000457225 0.998751 
0.0709997 -0.000420913 0.99899 
0.0716364 -0.000226615 0.99894 
0.0710183 0.000865609 0.998989 
0.0707326 0.00268219 0.999021 
0.069882 0.00476367 0.999085 
0.0674029 0.00760275 0.999338 
0.0703631 0.0115897 0.998997 
0.0639709 0.0167911 0.999342 
0.0642345 0.0230865 0.999287 
0.0647615 0.0313914 0.998929 
0.0604489 0.0435194 0.998739 
0.0568818 0.0599966 0.998102 
0.0507487 0.0835296 0.996633 
0.0420516 0.114996 0.994011 
0.0342999 0.154838 0.989082 
0.027644 0.210118 0.978669 
0.0153709 0.290057 0.958384 
0.00438861 0.390449 0.921939 
-0.00570177 0.518415 0.856242 
-0.0108303 0.666325 0.746062 
-0.0111459 0.819183 0.572314 
-0.00888663 0.944324 0.323628 
-0.00106526 0.99726 -0.0136378 
0.00642763 0.940369 -0.334751 
0.00938627 0.811247 -0.583633 
0.008844 0.657366 -0.754074 
0.00383507 0.50307 -0.865404 
-0.00615396 0.377862 -0.927214 
-0.0168432 0.282914 -0.960422 
-0.0273518 0.210166 -0.978759 
-0.0390304 0.15491 -0.98852 
-0.045625 0.114591 -0.993857 
-0.0526075 0.0835394 -0.996508 
-0.0538141 0.0620576 -0.998339 
-0.0582267 0.0454432 -0.998803 
-0.0626406 0.0331086 -0.99883 
-0.0637844 0.0242906 -0.999303 
-0.0651778 0.0175877 -0.999259 
-0.0686797 0.0119734 -0.999107 
-0.0695384 0.00771004 -0.999091 
-0.0711423 0.00489716 -0.998985 
-0.0698454 0.0028027 -0.999085 
-0.0692202 0.000991238 -0.999217 
-0.0701076 -5.21305e-05 -0.999051 
-0.070853 -0.000271747 -0.998797 
-0.0673555 -0.00025719 -0.999431 
-0.0712327 -0.000795118 -0.998788 
-0.0719137 -0.00175481 -0.999038 
-0.0716368 -0.00285714 -0.998962 
-0.072119 -0.00337741 -0.998921 
-0.0708205 -0.00363216 -0.999114 
-0.0701636 -0.00444883 -0.999075 
-0.0751041 -0.00560471 -0.998718 
-0.0704325 -0.00764698 -0.99906 
-0.0645642 -0.0108205 -0.999467 
-0.0693296 -0.0151815 -0.999119 
-0.062052 -0.0233168 -0.99947 
-0.0666099 -0.0337806 -0.998673 
-0.0578066 -0.0506782 -0.99876 
-0.0486046 -0.0731637 -0.998089 
-0.0507694 -0.098509 -0.995484 
-0.0378666 -0.0811379 -0.996121 
0.0237296 -0.08649 0.996032 
0.0331352 -0.105547 0.99548 
0.0341886 -0.0792213 0.997872 
0.0384919 -0.0544863 0.999589 
0.0407231 -0.0368364 1.00007 
0.0446812 -0.0251718 1.00045 
0.0465236 -0.0170149 1.0004 
0.0484903 -0.0119628 1.00044 
0.0520841 -0.00879811 1.00008 
0.0509445 -0.0064384 1.00023 
0.0504893 -0.00452251 1.00016 
0.0525289 -0.00349869 1.00024 
0.0518878 -0.00308545 1.00016 
0.052902 -0.00234248 1.00011 
0.0505678 -0.00100819 1.00003 
0.0522133 -5.83833e-05 1.00024 
0.0526569 0.00016637 1.00021 
0.0516961 -0.000188985 1.00016 
0.0519126 -0.000187185 1.00015 
0.0517954 0.000870007 1.00017 
0.0515732 0.00271596 1.00019 
0.0506035 0.00498307 1.00024 
0.0489066 0.00823333 1.00019 
0.0502822 0.0125272 1.00026 
0.0458586 0.0187559 1.00016 
0.0453387 0.0256869 1.00002 
0.0453845 0.0346944 0.999846 
0.0418137 0.0474835 0.999498 
0.0389388 0.0644467 0.9988 
0.0340332 0.0893698 0.997096 
0.0263646 0.1246 0.993475 
0.0202972 0.170662 0.986839 
0.0159765 0.229122 0.974865 
0.00807209 0.310784 0.95197 
0.00197014 0.407477 0.91478 
-0.00334191 0.536655 0.84502 
-0.00568634 0.678403 0.735143 
-0.00517496 0.830335 0.555709 
-0.00387098 0.956863 0.283536 
-0.00115238 0.996846 -0.0120219 
0.00219829 0.947506 -0.312713 
0.00406116 0.833146 -0.551571 
0.00497779 0.682778 -0.731227 
0.00283536 0.532845 -0.847486 
-0.00241669 0.405673 -0.91554 
-0.00903861 0.301642 -0.954939 
-0.0160506 0.223241 -0.97625 
-0.0245176 0.163924 -0.987724 
-0.0292392 0.122118 -0.993674 
-0.0349089 0.090686 -0.996826 
-0.0357132 0.0689279 -0.998327 
-0.0395966 0.050709 -0.999453 
-0.0434373 0.036716 -1.00009 
-0.0448179 0.0271546 -1.00004 
-0.0462669 0.0196544 -1.00025 
-0.0489564 0.0132378 -1.00024 
-0.0505387 0.00826656 -1.00021 
-0.0517001 0.00513688 -1.00017 
-0.0509916 0.00293828 -1.0002 
-0.0509406 0.00107809 -1.0001 
-0.0504235 -6.62153e-05 -1.00023 
-0.0509721 -0.000180479 -1.00039 
-0.0499154 0.000209211 -1.00005 
-0.0516368 -7.69728e-05 -1.00036 
-0.0523512 -0.00114324 -1.00014 
-0.0526233 -0.00246968 -1.00013 
-0.0524507 -0.00321625 -1.00013 
-0.0520788 -0.00361215 -1.00016 
-0.0507846 -0.00465527 -1.00024 
-0.0546009 -0.00654061 -1.00004 
-0.0503498 -0.00918694 -1.00026 
-0.0459572 -0.0126139 -1.00046 
-0.0484301 -0.0175653 -1.00031 
-0.0437889 -0.0260383 -1.00036 
-0.0462873 -0.0364044 -0.999957 
-0.0393142 -0.0547681 -0.999443 
-0.0330856 -0.080559 -0.997926 
-0.0329806 -0.105982 -0.99544 
-0.0229841 -0.0834777 -0.996224 
0.0144539 -0.0844582 0.996147 
0.0212415 -0.109618 0.995545 
0.0231005 -0.0814512 0.998008 
0.0260519 -0.056202 0.999885 
0.0280888 -0.039322 1.00039 
0.0315914 -0.0270996 1.00089 
0.0328947 -0.0188602 1.00088 
0.0345301 -0.0137861 1.00068 
0.03637 -0.0100875 1.00106 
0.0358272 -0.00702753 1.00088 
0.0359222 -0.00468399 1.00078 
0.0372205 -0.00352012 1.00092 
0.0376469 -0.00270201 1.00071 
0.0373784 -0.00135914 1.0009 
0.0363306 0.000268741 1.00084 
0.0372184 0.000858518 1.0008 
0.0376622 0.00038027 1.00078 
0.0367823 -0.000386764 1.00082 
0.0370466 -0.00010731 1.00082 
0.0368958 0.00134824 1.00083 
0.0364851 0.00343968 1.00085 
0.035725 0.00616491 1.00085 
0.0342739 0.0101715 1.00086 
0.034933 0.0151065 1.00074 
0.0316417 0.022466 1.0007 
0.0311041 0.0310494 1.00047 
0.030221 0.0415336 1.00014 
0.0273299 0.0560198 0.999558 
0.0248604 0.0755917 0.99839 
0.0199706 0.101087 0.996215 
0.0147235 0.137501 0.992249 
0.00989702 0.184985 0.984281 
0.00883451 0.236619 0.973582 
0.00420719 0.328517 0.946078 
0.000220625 0.452638 0.893092 
-0.00251203 0.586615 0.81116 
-0.0038814 0.729753 0.684044 
-0.00454529 0.835472 0.548181 
-0.00401154 0.926228 0.371462 
-0.00275329 0.996313 0.0277954 
-0.000430168 0.94776 -0.310642 
0.000944414 0.818618 -0.572794 
0.0022031 0.669828 -0.743027 
0.00141689 0.53112 -0.848866 
-0.00117023 0.410185 -0.913683 
-0.00480564 0.309345 -0.952693 
-0.00874457 0.231164 -0.974636 
-0.014621 0.168679 -0.987248 
-0.0174544 0.125337 -0.99378 
-0.0216658 0.09367 -0.997087 
-0.0236901 0.069163 -0.998887 
-0.0274973 0.0508043 -0.999848 
-0.0299067 0.0377469 -1.00033 
-0.0312594 0.0274807 -1.00061 
-0.0320752 0.0196532 -1.00079 
-0.0347208 0.0129781 -1.00081 
-0.0358253 0.00792076 -1.00084 
-0.0367504 0.00467337 -1.00082 
-0.03656 0.00251938 -1.00083 
-0.0366102 0.000787536 -1.00082 
-0.0353756 -0.000244367 -1.00087 
-0.036926 -0.000177542 -1.0008 
-0.0360995 0.000647164 -1.00083 
-0.0366452 0.00066492 -1.00081 
-0.037136 -0.000435834 -1.0007 
-0.0377908 -0.00200467 -1.00078 
-0.0369573 -0.00303231 -1.00081 
-0.0372208 -0.00364822 -1.00071 
-0.0352112 -0.00483402 -1.00089 
-0.0385647 -0.00724423 -1.00078 
-0.0357575 -0.0105795 -1.00087 
-0.0326768 -0.0143161 -1.00094 
-0.0339863 -0.0193125 -1.00085 
-0.0303822 -0.0282154 -1.00077 
-0.0317762 -0.0392618 -1.0004 
-0.0260518 -0.0583846 -0.999647 
-0.0211808 -0.0844512 -0.99789 
-0.0207983 -0.111586 -0.995112 
-0.0127334 -0.0887663 -0.995921 
0.00762706 -0.0885204 0.995836 
0.012465 -0.119339 0.994052 
0.0144488 -0.0936277 0.997179 
0.0168121 -0.0651394 0.999417 
0.0181338 -0.0461355 1.00043 
0.0204668 -0.0320197 1.00091 
0.0221291 -0.0227811 1.0011 
0.0233833 -0.016933 1.00115 
0.0248478 -0.0128012 1.00117 
0.0252306 -0.00920438 1.00118 
0.0253072 -0.00584564 1.00119 
0.0259575 -0.00399307 1.00117 
0.0264744 -0.00295418 1.00116 
0.0265261 -0.00147931 1.00115 
0.0262737 0.000468712 1.00115 
0.0253102 0.00157143 1.00116 
0.0258374 0.000964696 1.00114 
0.02583 -0.000285692 1.00115 
0.0255729 -0.000701722 1.00116 
0.0258142 0.000428167 1.00117 
0.025743 0.00234843 1.00117 
0.0252728 0.00480682 1.00117 
0.0242688 0.00837063 1.00116 
0.023086 0.013487 1.0011 
0.0234278 0.0192713 1.00097 
0.0213245 0.0283402 1.00079 
0.0202136 0.0382181 1.00049 
0.0191494 0.0497442 1.00004 
0.0173647 0.066223 0.999174 
0.0139883 0.0863088 0.997811 
0.0104278 0.115694 0.994994 
0.00681774 0.158662 0.989175 
0.0045716 0.224134 0.976484 
0.00358531 0.287295 0.959748 
0.0013217 0.401943 0.917537 
-0.000662157 0.514887 0.858492 
-0.0025181 0.646827 0.763843 
-0.00266551 0.782986 0.621518 
-0.00327311 0.962946 0.261203 
0.0011653 0.996113 -0.0305962 
0.000978355 0.941244 -0.330314 
0.00355959 0.900431 -0.430993 
0.000957466 0.771401 -0.636237 
0.000779953 0.567626 -0.824423 
-0.000944085 0.426247 -0.906372 
-0.0025316 0.322994 -0.948279 
-0.00424667 0.244981 -0.971459 
-0.0072468 0.182242 -0.985026 
-0.008707 0.138422 -0.992021 
-0.0118612 0.103722 -0.996123 
-0.0146966 0.0783812 -0.998422 
-0.0175929 0.0569628 -0.999767 
-0.0193431 0.0423683 -1.00041 
-0.0208859 0.0312905 -1.00075 
-0.0214907 0.0225969 -1.00097 
-0.0231515 0.0152879 -1.00108 
-0.0242293 0.00969911 -1.00115 
-0.025233 0.00569817 -1.00117 
-0.0257462 0.0030756 -1.00117 
-0.0259615 0.0010154 -1.00116 
-0.0249348 -0.000379266 -1.00118 
-0.0257477 -0.000495355 -1.00115 
-0.0260762 0.000521748 -1.00113 
-0.0255694 0.00144968 -1.00114 
-0.0260497 0.000849649 -1.00114 
-0.0264724 -0.000990449 -1.00124 
-0.0262236 -0.00263768 -1.00116 
-0.0258179 -0.00366241 -1.00126 
-0.0249397 -0.00514117 -1.0012 
-0.0265925 -0.0081329 -1.00115 
-0.0248319 -0.012071 -1.00117 
-0.02262 -0.0162068 -1.00118 
-0.0236194 -0.0212711 -1.00109 
-0.0206484 -0.0304598 -1.00094 
-0.0217491 -0.0420539 -1.00053 
-0.0176619 -0.0611007 -0.999634 
-0.0139385 -0.0857259 -0.997884 
-0.0131516 -0.113615 -0.99499 
-0.00832272 -0.0916857 -0.995689 
0.00446531 -0.0928921 0.995589 
0.00785805 -0.114521 0.995042 
0.00994818 -0.0847995 0.998023 
0.0110926 -0.0605759 0.999766 
0.0129227 -0.0415538 1.00068 
0.0144798 -0.0300267 1.00115 
0.0161459 -0.0221655 1.0012 
0.0169728 -0.0164857 1.00127 
0.0173415 -0.0123999 1.00131 
0.0181078 -0.00849577 1.00132 
0.0184674 -0.00525535 1.00132 
0.018476 -0.00370885 1.00132 
0.0185911 -0.00226891 1.00132 
0.0184906 -5.59363e-05 1.00131 
0.0180222 0.00185834 1.0013 
0.0171011 0.00182951 1.00131 
0.0175104 0.000211878 1.00131 
0.0177789 -0.0012021 1.00132 
0.0176979 -0.00090434 1.00133 
0.0181208 0.000881942 1.00134 
0.01797 0.00323055 1.00133 
0.0171441 0.00625139 1.00131 
0.0161687 0.0107286 1.00126 
0.015069 0.01679 1.00118 
0.0157923 0.0237973 1.00101 
0.013695 0.0340659 1.00074 
0.012591 0.0452076 1.00035 
0.0122224 0.0592099 0.999577 
0.00962033 0.0767064 0.99872 
0.00722769 0.103313 0.99638 
0.0049799 0.145029 0.991328 
0.00373907 0.214334 0.978769 
0.00267111 0.316137 0.950684 
0.00127614 0.412754 0.912498 
-0.00115646 0.590669 0.808552 
-0.0016772 0.704964 0.709302 
-0.000833228 0.851232 0.523363 
0.00141691 0.943024 0.327264 
-0.00161734 0.897852 0.438041 
0.000516958 0.968242 0.239018 
0.00231456 0.994148 -0.0774592 
0.00151575 0.91731 -0.393809 
0.0034176 0.765156 -0.643497 
0.000611986 0.631696 -0.776041 
-0.000621307 0.506067 -0.864263 
-0.00185137 0.371779 -0.930172 
-0.00311765 0.266886 -0.965737 
-0.00439709 0.188343 -0.984151 
-0.00538153 0.136221 -0.992512 
-0.00729023 0.100082 -0.996766 
-0.0103335 0.0731445 -0.998676 
-0.0116676 0.0544468 -1.00017 
-0.0130078 0.040924 -1.00054 
-0.0141018 0.0304648 -1.00087 
-0.0146867 0.0215756 -1.00108 
-0.0155165 0.0146802 -1.00122 
-0.0165851 0.00908507 -1.0013 
-0.0174342 0.00509427 -1.00133 
-0.0182541 0.00236651 -1.00133 
-0.0179852 0.000361224 -1.00134 
-0.017817 -0.00103986 -1.00132 
-0.0175813 -0.000768084 -1.00132 
-0.0180664 0.00075921 -1.0013 
-0.0173581 0.00205563 -1.00131 
-0.0180896 0.00141333 -1.0013 
-0.018178 -0.000720107 -1.00122 
-0.0179836 -0.00288137 -1.00132 
-0.0180742 -0.00406768 -1.00123 
-0.0171484 -0.00562651 -1.00135 
-0.0189395 -0.00861218 -1.00132 
-0.0176746 -0.0127933 -1.0013 
-0.0159761 -0.0174031 -1.00128 
-0.0163899 -0.0233348 -1.00117 
-0.01398 -0.0325958 -1.00097 
-0.0142047 -0.0446593 -1.00053 
-0.0110892 -0.0631643 -0.999588 
-0.00854871 -0.0892393 -0.997623 
-0.00790629 -0.116718 -0.99466 
-0.00465097 -0.0914288 -0.995656 
0.00196616 -0.0918629 0.995594 
0.00465698 -0.119842 0.994321 
0.00640916 -0.0907299 0.997519 
0.00776192 -0.0642743 0.999648 
0.00928096 -0.0458428 1.00041 
0.010383 -0.0335976 1.00086 
0.0111563 -0.0249686 1.00108 
0.0116141 -0.0185071 1.0013 
0.0114509 -0.0138372 1.00136 
0.0117964 -0.00970071 1.00139 
0.0121973 -0.00613708 1.00139 
0.0116535 -0.00425852 1.00141 
0.0115857 -0.00260914 1.00141 
0.0112864 2.29703e-06 1.0014 
0.0108631 0.00220689 1.00139 
0.0103131 0.00225633 1.00139 
0.00989365 8.88032e-05 1.00139 
0.010449 -0.0016902 1.0014 
0.0106634 -0.00171968 1.00142 
0.0109335 7.1532e-05 1.00142 
0.0109865 0.00251688 1.00142 
0.0104543 0.00541887 1.00139 
0.00971431 0.00968716 1.00134 
0.00872916 0.0156691 1.00125 
0.00875638 0.0234182 1.00118 
0.00850446 0.0319603 1.00077 
0.00683155 0.0438564 1.00064 
0.00680327 0.0574792 0.999717 
0.00487923 0.0739692 0.998857 
0.00411414 0.0988296 0.996708 
0.00338237 0.138965 0.99217 
0.00345874 0.203973 0.980994 
0.00276402 0.307929 0.953697 
0.000721945 0.454222 0.892416 
-0.000472029 0.653384 0.757779 
0.000438098 0.829472 0.558024 
0.00504504 0.944805 0.323675 
0.00704917 0.990247 0.136231 
0.00476645 0.99599 0.0852438 
0.00258075 0.999241 0.0109278 
0.00072746 0.99867 -0.0515308 
-0.00171323 0.99529 -0.0951531 
0.000467062 0.833768 -0.550545 
0.00249825 0.666017 -0.746542 
0.000770578 0.549678 -0.836786 
-0.00116941 0.431923 -0.903535 
-0.00280189 0.306097 -0.953895 
-0.0036361 0.209572 -0.979767 
-0.0035168 0.145756 -0.991244 
-0.00367957 0.103353 -0.996413 
-0.00527039 0.0763821 -0.998805 
-0.00568306 0.0594763 -0.999548 
-0.00683649 0.0452618 -1.00042 
-0.00759755 0.0337984 -1.00082 
-0.00838467 0.0246541 -1.00106 
-0.00858471 0.0169707 -1.00122 
-0.00933968 0.0109745 -1.00124 
-0.0101074 0.0064483 -1.00149 
-0.0113346 0.00316038 -1.0013 
-0.011034 0.000603977 -1.00143 
-0.0115347 -0.00132406 -1.00141 
-0.0104653 -0.00171618 -1.00141 
-0.0105254 -0.000110854 -1.0014 
-0.0101452 0.00194666 -1.0014 
-0.010504 0.00252653 -1.0014 
-0.0105583 0.000623369 -1.00152 
-0.0112086 -0.00243968 -1.00141 
-0.0110027 -0.00415537 -1.00152 
-0.0110726 -0.00585626 -1.00142 
-0.0127076 -0.00944114 -1.0014 
-0.0121525 -0.0141681 -1.00136 
-0.0108623 -0.0187998 -1.0013 
-0.0118531 -0.024384 -1.0012 
-0.0102924 -0.0329463 -1.00098 
-0.0101355 -0.0448068 -1.00056 
-0.00799271 -0.0635906 -0.999578 
-0.00614399 -0.0902058 -0.997541 
-0.00477173 -0.119546 -0.994326 
-0.00190301 -0.094797 -0.995393 
0.000440797 -0.0952273 0.995312 
0.00301377 -0.120812 0.994075 
0.00464942 -0.0922582 0.997368 
0.00586204 -0.0661697 0.999309 
0.0068502 -0.0462996 1.00061 
0.00751382 -0.033723 1.00097 
0.00780772 -0.0247537 1.00131 