# vtk DataFile Version 3.0 
Exported using Morpho https://github.com/Morpho-lang/morpho 
ASCII 
DATASET UNSTRUCTURED_GRID 

POINTS 1978 float 
-8.48528 -2.82843 -1.04658e-13 
-8.26817 -2.82843 4.84271e-13 
-8.04734 -2.82843 5.73729e-13 
-7.76026 -2.82843 5.20847e-13 
-7.48461 -2.82843 3.84781e-13 
-7.21813 -2.82843 2.69645e-13 
-7.00305 -2.82843 1.56948e-13 
-6.77393 -2.82843 1.19234e-13 
-6.5558 -2.82843 9.19865e-14 
-6.34391 -2.82843 4.61914e-14 
-6.14601 -2.82843 2.61615e-14 
-5.92894 -2.82843 2.00455e-14 
-5.71537 -2.82843 -5.14394e-15 
-5.51174 -2.82843 -2.92362e-14 
-5.2934 -2.82843 -4.16686e-14 
-5.08277 -2.82843 -5.89756e-14 
-4.86487 -2.82843 -6.95038e-14 
-4.66282 -2.82843 -8.99929e-14 
-4.44342 -2.82843 -1.03419e-13 
-4.23232 -2.82843 -1.24443e-13 
-4.01362 -2.82843 -1.42258e-13 
-3.80552 -2.82843 -1.68446e-13 
-3.58871 -2.82843 -2.006e-13 
-3.37554 -2.82843 -2.437e-13 
-3.15259 -2.82843 -2.78097e-13 
-2.9402 -2.82843 -3.07869e-13 
-2.72734 -2.82843 -3.22256e-13 
-2.52645 -2.82843 -3.3173e-13 
-2.31899 -2.82843 -3.25048e-13 
-2.10967 -2.82843 -2.68605e-13 
-1.89327 -2.82843 -1.70991e-13 
-1.68847 -2.82843 -8.00763e-14 
-1.49025 -2.82843 -8.54278e-14 
-1.27984 -2.82843 -3.31383e-13 
-1.09942 -2.82843 -9.3601e-13 
-0.858375 -2.82843 -2.25652e-12 
-0.643312 -2.82843 -1.75339e-12 
-0.469531 -2.82843 -3.42544e-12 
-0.239781 -2.82843 -2.51722e-12 
0.0119554 -2.82843 7.92696e-13 
0.252207 -2.82843 5.29174e-12 
0.442237 -2.82843 -4.54522e-13 
0.662829 -2.82843 2.71648e-12 
0.888964 -2.82843 2.06485e-12 
1.09393 -2.82843 6.5331e-13 
1.26864 -2.82843 6.15889e-13 
1.43713 -2.82843 -4.94011e-15 
1.69719 -2.82843 9.48124e-14 
1.87877 -2.82843 1.37848e-13 
2.09886 -2.82843 2.96822e-13 
2.33069 -2.82843 3.03806e-13 
2.52123 -2.82843 3.47645e-13 
2.74613 -2.82843 3.55963e-13 
2.96573 -2.82843 3.09226e-13 
3.18024 -2.82843 2.59215e-13 
3.38901 -2.82843 2.43031e-13 
3.61502 -2.82843 1.988e-13 
3.81792 -2.82843 1.60136e-13 
4.03238 -2.82843 1.50135e-13 
4.25659 -2.82843 1.19366e-13 
4.45321 -2.82843 9.24009e-14 
4.66433 -2.82843 8.7156e-14 
4.87241 -2.82843 7.13785e-14 
5.07307 -2.82843 5.61868e-14 
5.29031 -2.82843 4.74712e-14 
5.50063 -2.82843 2.77734e-14 
5.70391 -2.82843 6.20881e-15 
5.92313 -2.82843 -7.60436e-15 
6.14181 -2.82843 -2.50062e-14 
6.3397 -2.82843 -6.21888e-14 
6.58099 -2.82843 -8.74261e-14 
6.78831 -2.82843 -1.065e-13 
6.99099 -2.82843 -1.88683e-13 
7.25145 -2.82843 -2.57162e-13 
7.48254 -2.82843 -3.03648e-13 
7.72957 -2.82843 -4.41106e-13 
7.99797 -2.82843 -5.12258e-13 
8.18283 -2.82843 -5.28431e-13 
8.48528 -2.82843 -6.45368e-14 
-8.48528 -2.6019 -1.18382e-15 
-8.25515 -2.58568 5.60447e-18 
-8.02554 -2.58281 3.53062e-18 
-7.79491 -2.63146 3.87131e-18 
-7.52931 -2.63153 4.64731e-18 
-7.23883 -2.61111 2.77202e-18 
-6.9977 -2.59957 1.96071e-18 
-6.77703 -2.59165 1.1916e-18 
-6.54435 -2.59821 1.47988e-18 
-6.33574 -2.57677 -3.73462e-14 
-6.11224 -2.60115 -2.21711e-14 
-5.89365 -2.59327 -1.53533e-14 
-5.68259 -2.57977 -1.02052e-14 
-5.46451 -2.59666 1.24916e-14 
-5.24864 -2.58921 2.17322e-14 
-5.02917 -2.59817 3.43568e-14 
-4.82039 -2.58221 3.68108e-14 
-4.60158 -2.6016 -1.04255e-18 
-4.38452 -2.59236 -1.08541e-18 
-4.16542 -2.59845 -1.43581e-18 
-3.95382 -2.58364 -1.44968e-18 
-3.74014 -2.59077 -1.98777e-18 
-3.52619 -2.58804 -2.29808e-18 
-3.30793 -2.60006 -3.05426e-18 
-3.09329 -2.59432 -3.26644e-18 
-2.88014 -2.59993 -4.07072e-18 
-2.67422 -2.59324 -3.94163e-18 
-2.46638 -2.60533 -4.8288e-18 
-2.25378 -2.60556 -4.37533e-18 
-2.04111 -2.61326 -3.92772e-18 
-1.8296 -2.60466 -2.82833e-18 
-1.62131 -2.5927 -2.04452e-18 
-1.41712 -2.60213 -3.65167e-18 
-1.22906 -2.55365 -2.55674e-18 
-1.00289 -2.6265 -4.9631e-14 
-0.784169 -2.58213 -2.53529e-17 
-0.593575 -2.48757 -2.30095e-17 
-0.393878 -2.53225 -8.24762e-18 
-0.167727 -2.55964 3.51313e-18 
0.0175135 -2.4484 -6.18026e-18 
0.192848 -2.56982 1.96044e-17 
0.417707 -2.51772 1.88525e-17 
0.622535 -2.57837 2.50768e-17 
0.850994 -2.58364 1.94578e-17 
1.06886 -2.57895 6.37576e-18 
1.2715 -2.55784 4.46629e-18 
1.51074 -2.65996 1.82298e-18 
1.71215 -2.58885 9.04481e-19 
1.92747 -2.62414 3.4922e-18 
2.15884 -2.62729 4.8571e-18 
2.36102 -2.58375 2.60648e-18 
2.57731 -2.61782 5.04471e-18 
2.79999 -2.60719 4.14824e-18 
3.01116 -2.59673 3.46726e-18 
3.22076 -2.58708 2.79917e-18 
3.44377 -2.60459 2.98629e-18 
3.65096 -2.5789 1.75285e-18 
3.86612 -2.59311 1.75908e-18 
4.09347 -2.60467 1.70174e-18 
4.30085 -2.57452 1.05583e-18 
4.51544 -2.59423 1.05033e-18 
4.72972 -2.59061 -4.93666e-14 
4.94098 -2.58365 -3.30826e-14 
5.15593 -2.60125 -2.76918e-14 
5.37547 -2.5933 -1.85383e-14 
5.58612 -2.58355 -1.96112e-15 
5.80256 -2.60001 1.22788e-14 
6.0269 -2.59792 2.41067e-14 
6.23968 -2.57107 3.44419e-14 
6.45902 -2.61542 -1.13411e-18 
6.68579 -2.57692 -1.11754e-18 
6.89449 -2.56699 -1.38475e-18 
7.12189 -2.62428 -2.97256e-18 
7.37253 -2.59503 -2.65689e-18 
7.61149 -2.609 -3.33732e-18 
7.86852 -2.62714 -4.21542e-18 
8.0803 -2.53363 -2.23485e-18 
8.30183 -2.6446 -6.20104e-18 
8.48528 -2.52864 1.11157e-14 
-8.48528 -2.36647 2.00279e-14 
-8.24035 -2.35361 2.95123e-18 
-7.99696 -2.34497 1.26403e-18 
-7.75855 -2.41085 2.17413e-14 
-7.5675 -2.25054 1.98055e-18 
-7.45668 -2.4474 -2.83555e-14 
-7.18117 -2.39722 1.70538e-18 
-6.94893 -2.34862 1.82592e-18 
-6.70665 -2.37691 -4.70227e-14 
-6.48502 -2.35335 8.50428e-19 
-6.24181 -2.36124 -4.58086e-14 
-6.02486 -2.36442 -2.54966e-14 
-5.80731 -2.34836 -1.81976e-14 
-5.5787 -2.35349 -3.13338e-15 
-5.3644 -2.35846 1.11443e-14 
-5.13912 -2.3637 1.92716e-14 
-4.92783 -2.3494 3.11617e-14 
-4.70269 -2.36441 3.89384e-14 
-4.48725 -2.36566 -8.45603e-19 
-4.26311 -2.36597 -1.00355e-18 
-4.05089 -2.35023 -1.26512e-18 
-3.8329 -2.34873 -1.46333e-18 
-3.61986 -2.35105 -1.76629e-18 
-3.40078 -2.36246 -1.99879e-18 
-3.18811 -2.36381 -2.52131e-18 
-2.97209 -2.36749 -2.87182e-18 
-2.7639 -2.36272 -3.25575e-18 
-2.55267 -2.37208 -3.52177e-18 
-2.34437 -2.38594 -3.21394e-18 
-2.12598 -2.3858 -2.5402e-18 
-1.91778 -2.38618 -1.43299e-18 
-1.70214 -2.37631 -1.84598e-15 
-1.47973 -2.35984 4.28033e-18 
-1.28454 -2.30236 -3.94157e-18 
-1.06321 -2.39096 -4.14414e-18 
-0.85883 -2.33921 1.0964e-17 
-0.640056 -2.23807 -3.34702e-18 
-0.406779 -2.20893 3.36897e-18 
-0.199973 -2.24354 -1.28969e-17 
0.0444581 -2.15549 -1.40171e-17 
0.263549 -2.2657 5.1894e-18 
0.453729 -2.17041 -1.06438e-17 
0.623205 -2.29777 3.37959e-17 
0.836227 -2.33072 -1.09479e-17 
1.05833 -2.32826 -5.32802e-18 
1.2685 -2.31584 -8.47627e-18 
1.4696 -2.44628 -8.74132e-19 
1.65557 -2.36209 -4.64419e-14 
1.87336 -2.39625 1.5253e-18 
2.0821 -2.42301 3.34532e-18 
2.29343 -2.36585 4.34894e-18 
2.52106 -2.38564 3.51719e-18 
2.72765 -2.39341 3.04197e-18 
2.94623 -2.36266 3.04504e-18 
3.15011 -2.35154 2.64413e-18 
3.36922 -2.37191 1.97409e-18 
3.57549 -2.34149 1.89188e-18 
3.78984 -2.35098 1.51661e-18 
4.00698 -2.37616 1.1365e-18 
4.21567 -2.34112 1.11978e-18 
4.43752 -2.35229 9.06983e-19 
4.64739 -2.3548 -4.2679e-14 
4.85962 -2.35005 -3.39289e-14 
5.0788 -2.35963 -2.34922e-14 
5.28907 -2.36866 -1.38771e-14 
5.50602 -2.34777 -4.10096e-15 
5.72473 -2.36014 8.60113e-15 
5.94082 -2.37169 1.94938e-14 
6.15689 -2.34149 3.3608e-14 
6.39158 -2.36466 4.29164e-14 
6.59874 -2.36181 -9.86416e-19 
6.8277 -2.31652 -1.38567e-18 
7.05745 -2.37255 -1.51755e-18 
7.27795 -2.39322 -1.69193e-18 
7.54177 -2.37664 -1.42848e-18 
7.78451 -2.40866 1.2681e-15 
8.00017 -2.31258 -1.60207e-18 
8.26306 -2.37329 -1.87969e-18 
8.48528 -2.28335 3.83074e-15 
-8.48528 -2.1017 1.23102e-14 
-8.26655 -2.11393 9.63991e-19 
-8.05136 -2.10309 1.83666e-18 
-7.79999 -2.15719 8.22162e-19 
-7.5147 -2.035 1.44069e-18 
-7.30894 -2.22145 2.1294e-18 
-7.06677 -2.1385 9.47257e-19 
-6.80295 -2.14312 1.05272e-18 
-6.5893 -2.13056 -4.35721e-14 
-6.34868 -2.14557 -3.47565e-14 
-6.12127 -2.11997 -1.7361e-14 
-5.91353 -2.11743 -1.19606e-14 
-5.68836 -2.1263 -4.75358e-15 
-5.46741 -2.11519 4.23424e-15 
-5.25134 -2.13399 1.19527e-14 
-5.03978 -2.11641 1.56136e-14 
-4.81624 -2.13128 2.46903e-14 
-4.60104 -2.13104 3.28195e-14 
-4.38262 -2.13919 4.28511e-14 
-4.1721 -2.11909 -8.14606e-19 
-3.95643 -2.1149 -9.43011e-19 
-3.74223 -2.11134 -1.0888e-18 
-3.52595 -2.12423 -1.39298e-18 
-3.31432 -2.12724 -1.62869e-18 
-3.10078 -2.13551 -2.01581e-18 
-2.89154 -2.13172 -2.23114e-18 
-2.67829 -2.13747 -2.4905e-18 
-2.46761 -2.14659 -2.63605e-18 
-2.25418 -2.16716 -3.20424e-18 
-2.03579 -2.15174 -3.32236e-18 
-1.82115 -2.15955 -2.35332e-18 
-1.59498 -2.15283 1.13284e-18 
-1.38266 -2.07682 7.37106e-18 
-1.17008 -1.9325 1.52143e-18 
-1.10471 -2.14521 1.47397e-17 
-0.858009 -2.09729 -2.06282e-17 
-0.603232 -1.97415 2.40985e-17 
-0.364534 -1.90478 -3.66849e-18 
-0.12766 -1.94772 -3.91818e-18 
0.0435814 -1.715 -1.55084e-18 
0.21486 -1.93905 -9.1908e-18 
0.343777 -1.69664 -2.30679e-18 
0.516009 -1.93627 -1.95071e-18 
0.759093 -2.03769 -1.69828e-17 
0.981234 -2.07547 -3.57287e-18 
1.20096 -2.07126 -3.44068e-18 
1.45145 -2.19246 -1.72222e-18 
1.67431 -2.13192 1.33643e-18 
1.88825 -2.17444 3.05427e-18 
2.10764 -2.19283 2.62536e-18 
2.35888 -2.16343 2.97588e-18 
2.56843 -2.14853 2.81765e-18 
2.7787 -2.16382 2.90898e-18 
2.98393 -2.11356 2.03553e-18 
3.20532 -2.1308 1.91728e-18 
3.40759 -2.12293 1.4454e-18 
3.62479 -2.10767 1.06641e-18 
3.84297 -2.12493 1.05365e-18 
4.04525 -2.12723 8.57989e-19 
4.27465 -2.11692 -4.20736e-14 
4.4855 -2.11252 -3.2367e-14 
4.69808 -2.11643 -2.50371e-14 
4.91798 -2.12398 -2.01149e-14 
5.1309 -2.12186 -1.24035e-14 
5.34131 -2.1328 -7.46212e-15 
5.56674 -2.12026 2.2031e-16 
5.78332 -2.12838 8.76611e-15 
5.99387 -2.12853 1.61086e-14 
6.23647 -2.12991 2.59323e-14 
6.4452 -2.11067 3.24446e-14 
6.65956 -2.12003 5.00517e-14 
6.91919 -2.10682 -9.1638e-19 
7.13686 -2.13639 -1.38086e-18 
7.37112 -2.18282 -2.00012e-18 
7.56545 -2.08694 -1.18302e-18 
7.74628 -2.1773 -9.18376e-19 
7.96029 -2.07758 -1.0313e-14 
8.20576 -2.15057 -2.49635e-18 
8.48528 -2.08719 -1.09751e-14 
-8.48528 -1.81323 1.20552e-14 
-8.30234 -1.86012 4.23065e-14 
-7.8926 -1.91254 -1.77389e-18 
[...]
POINT_DATA 1978 
VECTORS vectors float
0.000367789 -0.00233974 0.999997 
-5.32106e-05 -0.062561 0.998041 
-0.000338634 -0.0738 0.997273 
-0.000337318 -0.0612558 0.998122 
-0.000341608 -0.0457169 0.998954 
-0.000207888 -0.0331885 0.999449 
-0.000177167 -0.0242529 0.999706 
-0.000171006 -0.0161914 0.999869 
-0.000149555 -0.0117221 0.999931 
-0.000101936 -0.00681866 0.999977 
-0.000101219 -0.00367195 0.999993 
-0.000158917 -0.00202121 0.999998 
-0.000116099 0.00084125 1 
-0.000142848 0.00325059 0.999995 
-0.000146973 0.00508202 0.999987 
-0.000158941 0.00682224 0.999977 
-0.000127429 0.00865688 0.999963 
-0.000136189 0.0104153 0.999946 
-0.000156298 0.0124529 0.999922 
-0.000154809 0.0151156 0.999886 
-0.000143364 0.0186287 0.999826 
-0.000139632 0.0228348 0.999739 
-0.000145161 0.0284498 0.999595 
-0.00016043 0.035414 0.999373 
-0.000148016 0.0448632 0.998993 
-0.000116619 0.0571036 0.998368 
-8.2231e-05 0.0736859 0.997281 
-5.89916e-05 0.0947981 0.995497 
-6.45041e-05 0.123449 0.992351 
-5.87175e-05 0.161328 0.986901 
-3.60782e-05 0.211591 0.977358 
-1.51566e-05 0.27081 0.962633 
1.89921e-05 0.342809 0.939405 
-1.46274e-06 0.43801 0.89897 
4.52795e-05 0.531501 0.847058 
0.000132415 0.661553 0.749898 
-1.89327e-05 0.785817 0.61846 
1.39267e-05 0.874837 0.484417 
6.7283e-05 0.965863 0.259053 
2.4495e-06 0.999792 -0.0203973 
-1.29809e-05 0.962332 -0.271876 
-3.25357e-05 0.891736 -0.452556 
-0.000111135 0.781919 -0.623381 
-5.59897e-05 0.651063 -0.759024 
-2.49858e-05 0.531946 -0.846779 
4.51906e-05 0.442819 -0.896611 
-1.12745e-05 0.365381 -0.930858 
2.65795e-05 0.270533 -0.962711 
6.79935e-06 0.216623 -0.976255 
0.000102358 0.165064 -0.986283 
7.01537e-05 0.122163 -0.99251 
7.9531e-05 0.0949568 -0.995481 
0.000145917 0.071891 -0.997412 
0.000142528 0.0553814 -0.998465 
0.0001186 0.0432868 -0.999063 
0.000150061 0.0346924 -0.999398 
0.000155838 0.027854 -0.999612 
0.000103066 0.0223813 -0.99975 
0.000186107 0.0182088 -0.999834 
0.000127136 0.0148678 -0.999889 
8.17334e-05 0.0121544 -0.999926 
0.00013947 0.0103776 -0.999946 
8.42698e-05 0.00873125 -0.999962 
0.000122607 0.00694914 -0.999976 
0.000153101 0.00533037 -0.999986 
0.0001123 0.00334422 -0.999994 
0.00012565 0.00110902 -0.999999 
0.000191219 -0.00096199 -1 
0.000111051 -0.00372569 -0.999993 
0.0001655 -0.00716746 -0.999974 
0.00021855 -0.0117477 -0.999931 
6.54385e-05 -0.0172875 -0.999851 
0.00023385 -0.0242766 -0.999705 
0.000276052 -0.0341238 -0.999418 
0.000222897 -0.045287 -0.998974 
0.000330912 -0.0595638 -0.998224 
0.00016709 -0.0750588 -0.997179 
0.000347996 -0.0670023 -0.997753 
-0.000296204 -0.00095159 -1 
-0.000172664 0.000622313 1 
0.0304748 -0.0540479 0.998073 
0.0319192 -0.0633411 0.997481 
0.0307307 -0.0634634 0.997511 
0.0328753 -0.0499861 0.998209 
0.0342139 -0.0352609 0.998792 
0.038113 -0.0255315 0.998947 
0.0379165 -0.0181758 0.999116 
0.040254 -0.0119756 0.999118 
0.0421422 -0.00827487 0.999077 
0.0420429 -0.00509035 0.999103 
0.0428017 -0.0020045 0.999082 
0.0445551 0.000758081 0.999007 
0.0440238 0.00300038 0.999026 
0.044926 0.00500324 0.998978 
0.0445263 0.00716955 0.998982 
0.0457045 0.00914885 0.998913 
0.0438355 0.0112303 0.998976 
0.0438695 0.0137732 0.998942 
0.0426541 0.0170078 0.998945 
0.0426284 0.0209518 0.998871 
0.0409051 0.0257245 0.998832 
0.0397488 0.0319217 0.9987 
0.0372596 0.0400195 0.998504 
0.0355876 0.0508291 0.998073 
0.0328315 0.0650719 0.99734 
0.0300504 0.0837281 0.996035 
0.0257556 0.107887 0.993829 
0.0210065 0.140665 0.989834 
0.0153267 0.183652 0.982872 
0.00953891 0.238239 0.97116 
0.00314411 0.302589 0.953116 
-0.00370702 0.385343 0.922766 
-0.00981194 0.475887 0.879452 
-0.0139722 0.591748 0.806002 
-0.0160666 0.711069 0.702939 
-0.0168287 0.812414 0.582839 
-0.0130561 0.905955 0.423172 
-0.00647179 0.978868 0.204391 
0.000444946 1 -0.000271318 
0.00628241 0.9772 -0.212228 
0.0121409 0.901575 -0.432452 
0.0143238 0.806475 -0.591095 
0.0153064 0.680701 -0.732402 
0.012456 0.55593 -0.831136 
0.0078439 0.451999 -0.891984 
0.000298583 0.343763 -0.939056 
-0.00588972 0.277712 -0.960646 
-0.0119701 0.211997 -0.977197 
-0.0178687 0.159326 -0.987064 
-0.0239128 0.124623 -0.991916 
-0.0268055 0.0940551 -0.995206 
-0.0309549 0.0714466 -0.996964 
-0.0342475 0.0555116 -0.997871 
-0.0371918 0.0439322 -0.998342 
-0.0381664 0.0345478 -0.998674 
-0.0409691 0.0282015 -0.998762 
-0.0413558 0.0226957 -0.998887 
-0.041835 0.0180661 -0.998961 
-0.0448985 0.0148849 -0.998881 
-0.0442056 0.0121743 -0.998948 
-0.0449636 0.0100377 -0.998938 
-0.0457958 0.00807306 -0.998918 
-0.0443484 0.00605908 -0.998998 
-0.0448404 0.00386377 -0.998987 
-0.0449736 0.0017469 -0.998987 
-0.0430407 -0.000483983 -0.999073 
-0.0425201 -0.00331805 -0.99909 
-0.0432341 -0.00667288 -0.999043 
-0.0389787 -0.0104486 -0.999185 
-0.0406386 -0.0159069 -0.999047 
-0.0398549 -0.0218238 -0.998967 
-0.0351173 -0.0294776 -0.998948 
-0.0352519 -0.0406254 -0.998552 
-0.0327749 -0.0531675 -0.998048 
-0.0306797 -0.0652347 -0.997398 
-0.0328146 -0.0595492 -0.997686 
-0.0275688 -0.0517841 -0.998278 
2.26871e-05 6.36731e-05 -1 
0.000572922 -0.000674591 1 
0.0354235 -0.0478099 0.998228 
0.0438936 -0.0645303 0.99695 
0.0416043 -0.0614915 0.99724 
0.0502686 -0.0538546 0.997283 
0.0413465 -0.0453661 0.998114 
0.0493869 -0.0334094 0.998221 
0.0547001 -0.0251959 0.998185 
0.0533315 -0.0178295 0.998418 
0.0578436 -0.0128071 0.998244 
0.0604784 -0.00823205 0.998136 
0.06065 -0.00480499 0.998148 
0.0625107 -0.00179424 0.998043 
0.0637142 0.000967816 0.997968 
0.0641053 0.00331814 0.997938 
0.0643311 0.00581104 0.997912 
0.0653701 0.00815901 0.997828 
0.0641926 0.0106746 0.99788 
0.0635471 0.0132793 0.99789 
0.0622143 0.0164867 0.997927 
0.0615624 0.020327 0.997896 
0.0596316 0.025125 0.997904 
0.0573891 0.0309784 0.997871 
0.054316 0.038703 0.997773 
0.0516202 0.0486497 0.997481 
0.0480495 0.0622455 0.996904 
0.0442414 0.0800056 0.995812 
0.0390291 0.103468 0.993867 
0.0324705 0.13305 0.990577 
0.0247999 0.173531 0.984516 
0.0167343 0.22403 0.974438 
0.00777985 0.289384 0.957181 
-0.00173194 0.368383 0.929672 
-0.0100884 0.462149 0.886745 
-0.0164144 0.571376 0.820524 
-0.0201016 0.685899 0.727419 
-0.0204352 0.802291 0.596584 
-0.0162334 0.90776 0.419175 
-0.00984399 0.972893 0.231046 
-0.000908348 0.999831 -0.0183465 
0.00802568 0.969392 -0.245387 
0.014306 0.895238 -0.445359 
0.0183943 0.79144 -0.610971 
0.0183948 0.679253 -0.733674 
0.0158934 0.563216 -0.826157 
0.00992953 0.461229 -0.887225 
0.00165835 0.367755 -0.929921 
-0.00629262 0.30446 -0.952504 
-0.0148035 0.235344 -0.971799 
-0.0225895 0.180545 -0.983307 
-0.0315904 0.141848 -0.989384 
-0.0374673 0.106671 -0.993588 
-0.0421595 0.0822839 -0.995717 
-0.0477935 0.0637287 -0.996822 
-0.0517148 0.0506309 -0.997378 
-0.0536874 0.0398391 -0.997763 
-0.0575828 0.0325792 -0.997809 
-0.0591956 0.0262892 -0.9979 
-0.0595935 0.0210959 -0.998 
-0.0630804 0.0174131 -0.997857 
-0.0639636 0.0140374 -0.997854 
-0.0645978 0.0113788 -0.997847 
-0.0655224 0.0089732 -0.997811 
-0.0649769 0.00653051 -0.997865 
-0.0643005 0.00419811 -0.997922 
-0.0647368 0.00171542 -0.997901 
-0.0630818 -0.000758485 -0.998008 
-0.0612529 -0.00349256 -0.998116 
-0.0613151 -0.00694728 -0.998094 
-0.0582102 -0.0109089 -0.998245 
-0.0567919 -0.0153239 -0.998268 
-0.0565909 -0.021678 -0.998162 
-0.0522486 -0.0287675 -0.99822 
-0.0492193 -0.0377006 -0.998076 
-0.0465134 -0.0509796 -0.997616 
-0.0429035 -0.0627286 -0.997108 
-0.0437719 -0.0627097 -0.997071 
-0.0332732 -0.0460222 -0.998386 
-0.000497286 -0.000536945 -1 
0.00116149 6.05755e-05 0.999999 
0.031869 -0.0461996 0.998424 
0.0411302 -0.0603573 0.997329 
0.0470115 -0.0647119 0.996796 
0.0479619 -0.0528773 0.997449 
0.0535996 -0.041115 0.997716 
0.0542203 -0.0315706 0.99803 
0.0568082 -0.0223805 0.998134 
0.0586489 -0.0171057 0.998132 
0.0611444 -0.0119125 0.998058 
0.061653 -0.00812971 0.998065 
0.0628816 -0.00482982 0.998009 
0.0643535 -0.00154749 0.997926 
0.0648303 0.0012847 0.997895 
0.0660562 0.00409732 0.997807 
0.0657006 0.00681155 0.997816 
0.0662404 0.00968065 0.997757 
0.0657484 0.012501 0.997758 
0.0650615 0.0156171 0.997759 
0.0632162 0.0191993 0.997815 
0.0612745 0.0236117 0.997842 
0.0589878 0.0290454 0.997836 
0.0569548 0.0359328 0.99773 
0.054119 0.0447572 0.997531 
0.0510411 0.0565218 0.997096 
0.0470791 0.0721454 0.996282 
0.042434 0.0930078 0.994761 
0.0369973 0.119794 0.992109 
0.0307027 0.153671 0.987645 
0.0225912 0.19884 0.979771 
0.0135127 0.256563 0.966433 
0.00296919 0.335319 0.9421 
-0.00551751 0.421109 0.906993 
-0.0113219 0.526782 0.849925 
-0.0157676 0.561203 0.827528 
-0.0189882 0.690887 0.722714 
-0.0171641 0.820202 0.571817 
-0.0128302 0.920245 0.391133 
-0.00676845 0.98922 0.146277 
-0.000287953 0.998512 -0.0545312 
0.0051442 0.970766 -0.239972 
0.00699204 0.929684 -0.368293 
0.0136102 0.849959 -0.526673 
0.0173155 0.724912 -0.688624 
0.0163855 0.615125 -0.78826 
0.0117707 0.509704 -0.86027 
0.0028452 0.389462 -0.921038 
-0.00657868 0.308356 -0.951248 
-0.0165151 0.237358 -0.971282 
-0.0253515 0.183371 -0.982717 
-0.0339982 0.136296 -0.990085 
-0.0400325 0.105163 -0.993649 
-0.0455269 0.0811125 -0.995665 
-0.0487202 0.0642129 -0.996746 
-0.053008 0.0498964 -0.997347 
-0.0554913 0.040475 -0.997638 
-0.0576914 0.032758 -0.997797 
-0.0605603 0.0263848 -0.997816 
-0.0622079 0.0217615 -0.997826 
-0.0637347 0.0175448 -0.997813 
-0.0646099 0.0142631 -0.997809 
-0.0655002 0.011322 -0.997788 
-0.066244 0.00842688 -0.997768 
-0.0661146 0.00570755 -0.997796 
-0.066053 0.00301973 -0.997812 
-0.0649648 6.12251e-05 -0.997888 
-0.0641107 -0.00280343 -0.997939 
-0.062863 -0.00591531 -0.998005 
-0.0614462 -0.00994471 -0.998061 
-0.0590079 -0.0140489 -0.998159 
-0.0575664 -0.0187376 -0.998166 
-0.0549884 -0.0262287 -0.998142 
-0.053928 -0.0338856 -0.99797 
-0.0528545 -0.0441507 -0.997626 
-0.0489209 -0.0552365 -0.997274 
-0.0481645 -0.0633061 -0.996831 
-0.0429137 -0.0665096 -0.996863 
-0.0363907 -0.0484116 -0.998164 
-0.000304204 -0.000116948 -1 
0.00104324 -0.000212638 0.999999 
0.0235712 -0.0471302 0.998611 
0.0376275 -0.0691526 0.996896 
0.0400881 -0.0631872 0.997196 
0.0383378 -0.0504881 0.997989 
0.0482051 -0.0413284 0.997982 
0.0420069 -0.0363492 0.998456 
0.0488317 -0.0280957 0.998412 
0.0477815 -0.0218867 0.998618 
0.0516668 -0.0163266 0.998531 
0.0525761 -0.0120634 0.998544 
0.0514557 -0.00846718 0.998639 
0.0542414 -0.00470207 0.998517 
0.0552255 -0.00133456 0.998473 
0.0555513 0.00201841 0.998454 
0.0559057 0.00504918 0.998423 
0.0563991 0.00841504 0.998373 
0.0560952 0.0115099 0.998359 
0.0558864 0.014714 0.998329 
0.0541692 0.0181603 0.998367 
0.0526186 0.0222243 0.998367 
0.0506157 0.0271472 0.998349 
0.0491517 0.0332829 0.998237 
0.0470843 0.0408088 0.998057 
0.0447022 0.0508374 0.997706 
0.0417868 0.0639042 0.997081 
0.0382415 0.0815257 0.995937 
0.0339495 0.104471 0.993948 
0.0290379 0.134371 0.990506 
0.0234683 0.171827 0.984848 
0.0157478 0.224392 0.974372 
0.00766075 0.291473 0.956548 
-3.39683e-05 0.367595 0.929986 
-0.00608377 0.458858 0.888489 
-0.0151015 0.655467 0.755073 
-0.0140799 0.752271 0.658703 
-0.0113445 0.86882 0.494998 
-0.00689551 0.931197 0.364451 
-0.00643505 0.9723 0.233649 
-0.00243304 0.99857 0.0534006 
0.00220227 0.975074 -0.221869 
0.00518722 0.887096 -0.461556 
0.0102289 0.821407 -0.57025 
0.0126719 0.700988 -0.71306 
0.0113059 0.583487 -0.812044 
0.00743476 0.488599 -0.872477 
0.00428265 0.417536 -0.90865 
-0.00172988 0.348914 -0.937153 
-0.00984357 0.271257 -0.962457 
-0.0180799 0.21117 -0.977282 
-0.0260536 0.160799 -0.986643 
-0.0313432 0.120893 -0.992171 
-0.0367203 0.0926019 -0.995026 
-0.0394743 0.073527 -0.996512 
-0.0436597 0.0565164 -0.997447 
-0.0455878 0.0453558 -0.99793 
-0.0478552 0.0369186 -0.998172 
-0.050444 0.0297417 -0.998284 
-0.0515675 0.0245832 -0.998367 
-0.0541854 0.0201187 -0.998328 
-0.0540134 0.0163131 -0.998407 
-0.0549117 0.0129789 -0.998407 
-0.0562844 0.00975106 -0.998367 
-0.0560161 0.00663174 -0.998408 
-0.0561153 0.00342635 -0.998418 
-0.0561179 0.000378727 -0.998424 
-0.0546255 -0.00304236 -0.998502 
-0.053431 -0.00645043 -0.998551 
-0.0536263 -0.0100473 -0.998511 
-0.0496089 -0.0146067 -0.998662 
-0.0481754 -0.0191928 -0.998654 
-0.0481639 -0.0246192 -0.998536 
-0.0448797 -0.033437 -0.998433 
-0.0456971 -0.0428129 -0.998037 
-0.0405018 -0.0554513 -0.99764 
-0.0390026 -0.0673928 -0.996964 
-0.0326454 -0.064316 -0.997395 
-0.0282203 -0.0472768 -0.998483 
-0.000125136 -0.00033657 -1 
0.000537992 -0.000234211 1 
0.0175604 -0.0480718 0.99869 
0.0289231 -0.0564332 0.997987 
0.0289169 -0.0718632 0.996995 
0.0311573 -0.0638352 0.997474 
0.0332005 -0.0445938 0.998453 
0.035953 -0.0324398 0.998827 
0.0386977 -0.0263779 0.998903 
0.0403217 -0.0199041 0.998988 
0.0421389 -0.0155233 0.998991 
0.0423166 -0.0117205 0.999036 
0.0430496 -0.00736199 0.999046 
0.0449575 -0.00370665 0.998982 
0.04599 -3.1926e-05 0.998942 
0.0451701 0.00359402 0.998973 
0.0466024 0.00712113 0.998888 
0.0459994 0.0106102 0.998885 
0.0457865 0.0139607 0.998854 
0.0444591 0.0173344 0.998861 
0.0432197 0.0212101 0.99884 
0.0418488 0.0257332 0.998793 
0.0407099 0.0313835 0.998678 
0.0390294 0.0383252 0.998503 
0.0373125 0.0473653 0.99818 
0.0349155 0.0594809 0.997619 
0.0322457 0.0757292 0.996607 
0.028657 0.0973091 0.994842 
0.024519 0.125991 0.991728 
0.0196021 0.163287 0.986384 
0.0140574 0.210512 0.97749 
0.00668716 0.280137 0.959937 
-0.000572357 0.371233 0.92854 
-0.00663959 0.499203 0.866459 
-0.00869668 0.612951 0.790073 
-0.0108895 0.587094 0.809446 
-0.0108903 0.689941 0.723784 
-0.0103114 0.797706 0.602958 
-0.00692231 0.868809 0.495099 
-0.00319788 0.987308 0.158788 
-3.98639e-05 1 -0.000172395 
0.000290284 0.976951 -0.213465 
-0.000258781 0.978076 -0.208249 
0.00398669 0.854478 -0.519472 
0.00845284 0.741201 -0.67123 
0.00870914 0.616707 -0.787144 
0.00625358 0.510978 -0.859571 
0.0028382 0.414556 -0.910019 
-0.00230889 0.328352 -0.944553 
-0.00889751 0.256271 -0.966564 
-0.0162514 0.197448 -0.980179 
-0.0222947 0.150961 -0.988288 
-0.0266557 0.113049 -0.993232 
-0.0294992 0.0895318 -0.995547 
-0.0338429 0.0679689 -0.997113 
-0.0358814 0.0537544 -0.997909 
-0.0375389 0.0432328 -0.99836 
-0.0402356 0.0349201 -0.99858 
-0.0410146 0.0290106 -0.998737 
-0.0425001 0.0238972 -0.998811 
-0.0444789 0.0197039 -0.998816 
-0.0441484 0.0159383 -0.998898 
-0.0453334 0.0124167 -0.998895 
-0.0458231 0.00914278 -0.998908 
-0.0460373 0.00560226 -0.998924 
-0.045661 0.00208306 -0.998955 
-0.0461361 -0.00139142 -0.998934 
-0.0442673 -0.00511434 -0.999007 
-0.043698 -0.00895647 -0.999005 
-0.04279 -0.0127327 -0.999003 
-0.0395038 -0.0176147 -0.999064 
-0.0384602 -0.0225184 -0.999006 
-0.0388411 -0.0285241 -0.998838 
-0.0343942 -0.0362647 -0.99875 
-0.0360074 -0.0443706 -0.998366 
-0.0316363 -0.0573828 -0.997851 
-0.0308421 -0.0692776 -0.997121 
-0.0253614 -0.0677629 -0.997379 
-0.0201327 -0.0467908 -0.998702 
-0.000406808 -0.000270673 -1 
0.000199296 -0.000282752 1 
0.0138971 -0.0505031 0.998627 
0.0221318 -0.0659997 0.997574 
0.0225731 -0.0713219 0.997198 
0.0271457 -0.0567998 0.998016 
0.0249308 -0.0472449 0.998572 
0.0291025 -0.0376541 0.998867 
0.0285308 -0.0299315 0.999145 
0.0326791 -0.0241782 0.999173 
0.0327171 -0.0192952 0.999278 
0.0338699 -0.0152925 0.999309 
0.0355954 -0.0107632 0.999308 
0.0356907 -0.00655424 0.999341 
0.0374819 -0.00269095 0.999294 
0.0377689 0.0011323 0.999286 
0.0376069 0.00540294 0.999278 
0.038157 0.00898454 0.999231 
0.0376878 0.0125926 0.99921 
0.0365983 0.0158873 0.999204 
0.0357352 0.0194233 0.999173 
0.0346247 0.0234535 0.999125 
0.0339463 0.0282323 0.999025 
0.032845 0.0340084 0.998882 
0.0315687 0.0413975 0.998644 
0.030028 0.0511879 0.998238 
0.0279834 0.0647344 0.99751 
0.0254014 0.0826924 0.996251 
0.0220812 0.107277 0.993984 
0.0181291 0.139582 0.990045 
0.0135365 0.181835 0.983236 
0.0084384 0.23812 0.971199 
0.00218406 0.319471 0.947594 
-0.00308568 0.427083 0.904207 
-0.00553733 0.529787 0.848113 
-0.00708042 0.750143 0.661237 
-0.00345974 0.845644 0.533736 
-0.000886171 0.924654 0.380806 
-0.000993447 0.983147 0.182815 
-0.00293948 0.941899 0.335882 
-0.000681934 0.987523 0.157474 
-0.00191923 0.998686 -0.0512208 
-0.00176721 0.937172 -0.348864 
0.00221046 0.898804 -0.438346 
0.00484476 0.751747 -0.659434 
0.00661708 0.714124 -0.699988 
0.00675041 0.5958 -0.803104 
0.00301055 0.418052 -0.908418 
-0.000904291 0.334463 -0.942409 
-0.00634978 0.257012 -0.966387 
-0.0123936 0.198361 -0.980051 
-0.0143163 0.168057 -0.985673 
-0.0197052 0.134983 -0.990652 
-0.021717 0.105383 -0.994195 
-0.0261793 0.0792608 -0.99651 
-0.0284321 0.0617449 -0.997687 
-0.0300709 0.048771 -0.998357 
-0.0322311 0.0389281 -0.998722 
-0.0329945 0.0323176 -0.998933 
-0.0342606 0.0267392 -0.999055 
-0.0353465 0.0221208 -0.99913 
-0.0365128 0.0183416 -0.999165 
-0.03687 0.0143968 -0.999216 
-0.0371459 0.0109301 -0.99925 
-0.0378513 0.00720608 -0.999257 
-0.0375522 0.00331528 -0.999289 
-0.037838 -0.00075039 -0.999284 
-0.0371347 -0.00450046 -0.9993 
-0.0362663 -0.00878633 -0.999304 
-0.0346943 -0.0131122 -0.999312 
-0.0333818 -0.0172963 -0.999293 
-0.031255 -0.0227325 -0.999253 
-0.0310601 -0.0286523 -0.999107 
-0.0277687 -0.0373708 -0.998916 
-0.0273922 -0.0483326 -0.998456 
-0.0235875 -0.0611302 -0.997851 
-0.0237989 -0.0711785 -0.99718 
-0.0192745 -0.0721128 -0.99721 
-0.0165316 -0.0515867 -0.998532 
-0.000192713 -0.000279596 -1 
1.35167e-05 -0.000351055 1 
0.009713 -0.0517683 0.998612 
0.0173141 -0.0714329 0.997295 
0.0165889 -0.0736323 0.997147 
0.0207231 -0.0625211 0.997828 
0.0200072 -0.0495046 0.998573 
0.0232125 -0.0375258 0.999026 
0.0233222 -0.0301092 0.999274 
0.0266044 -0.0241367 0.999355 
0.0263465 -0.0198737 0.999455 
0.0285788 -0.0150252 0.999479 
0.0298401 -0.0104078 0.9995 
0.0298451 -0.00597718 0.999537 
0.0311866 -0.00186292 0.999512 
0.0319163 0.00267689 0.999487 
0.0310827 0.00708294 0.999492 
0.0316518 0.0108655 0.99944 
0.0304966 0.0143838 0.999431 
0.0297413 0.0178745 0.999398 
0.0289979 0.0216198 0.999346 
0.02828 0.0260293 0.999261 
0.0276077 0.0312034 0.999132 
0.0266592 0.0377616 0.998931 
0.0255173 0.0465275 0.998591 
0.0240519 0.0584679 0.998 
0.021926 0.0749608 0.996945 
0.0192955 0.0972365 0.995074 
0.0158634 0.127431 0.991721 
0.0119423 0.167299 0.985834 
0.00758627 0.221707 0.975084 
0.00298398 0.292936 0.956127 
-0.0014747 0.390115 0.920765 
-0.0035313 0.501982 0.864871 
-0.00237865 0.609055 0.793125 
-0.00569817 0.643616 0.765328 
-0.000837322 0.834001 0.551762 
0.000344934 0.921894 0.387442 
0.00166356 0.996932 0.0782495 
0.00159044 0.997385 0.0722606 
0.00200703 0.998747 0.0500019 
-0.00311863 0.994193 -0.107564 
-0.00318369 0.993056 -0.117603 
-0.00304444 0.964116 -0.265464 
0.00209793 0.831064 -0.556172 
0.005914 0.646419 -0.762959 
0.00581489 0.548372 -0.836214 
0.00504509 0.489161 -0.872179 
0.00237619 0.394098 -0.919066 
-0.00140067 0.306768 -0.951783 
-0.00606044 0.235557 -0.971842 
-0.0108366 0.176995 -0.984152 
-0.0156291 0.131203 -0.991232 
-0.0195423 0.0945023 -0.995333 
-0.0222061 0.0732151 -0.997069 
-0.0241404 0.0567967 -0.998094 
-0.0259506 0.0444 -0.998677 
-0.0267327 0.0365158 -0.998975 
-0.0277626 0.0302244 -0.999158 
-0.0286718 0.0252506 -0.99927 
-0.029164 0.0211624 -0.999351 
-0.0308382 0.0173821 -0.999373 
-0.03037 0.0138011 -0.999443 
-0.0310392 0.0100452 -0.999468 
-0.0312272 0.00616769 -0.999493 
-0.0314716 0.00174786 -0.999503 
-0.0310019 -0.00237028 -0.999517 
-0.0310118 -0.00663377 -0.999497 
-0.0296825 -0.0109916 -0.999499 
-0.0280424 -0.0154962 -0.999487 
-0.0274878 -0.0202785 -0.999416 
-0.0249392 -0.025551 -0.999362 
-0.0252288 -0.0303766 -0.99922 
-0.0219904 -0.0379168 -0.999039 
-0.0219861 -0.0471179 -0.998647 
-0.0188271 -0.0601661 -0.998011 
-0.0175604 -0.0731153 -0.997169 
-0.0140878 -0.071315 -0.997354 
-0.0116022 -0.0507493 -0.998644 
-2.0228e-05 -0.000328791 -1 
0.000102329 -0.00034992 1 
0.00669506 -0.0540368 0.998517 
0.012305 -0.0719506 0.997332 
0.012796 -0.0752722 0.997081 
0.0162292 -0.0618593 0.997953 
0.0156747 -0.0504289 0.998605 