# vtk DataFile Version 3.0 
Exported using Morpho https://github.com/Morpho-lang/morpho 
ASCII 
DATASET UNSTRUCTURED_GRID 

POINTS 1978 float 
-8.48528 -2.82843 -2.88066e-13 
-8.2611 -2.82843 1.80606e-12 
-8.03229 -2.82843 2.19733e-12 
-7.81571 -2.82843 3.92998e-12 
-7.41424 -2.82843 4.16104e-12 
-7.16038 -2.82843 2.07382e-12 
-6.96046 -2.82843 1.50822e-12 
-6.73948 -2.82843 1.30773e-12 
-6.53281 -2.82843 9.04339e-13 
-6.34083 -2.82843 6.17215e-13 
-6.14803 -2.82843 4.57795e-13 
-5.94297 -2.82843 3.29558e-13 
-5.71645 -2.82843 2.23402e-13 
-5.50733 -2.82843 1.38861e-13 
-5.2892 -2.82843 9.26732e-14 
-5.07635 -2.82843 4.09449e-14 
-4.85932 -2.82843 -1.61685e-14 
-4.6513 -2.82843 -1.00044e-13 
-4.43096 -2.82843 -1.98928e-13 
-4.21154 -2.82843 -3.15639e-13 
-3.99341 -2.82843 -4.37406e-13 
-3.78249 -2.82843 -5.95472e-13 
-3.56633 -2.82843 -7.82339e-13 
-3.35261 -2.82843 -1.05192e-12 
-3.12667 -2.82843 -1.32299e-12 
-2.91065 -2.82843 -1.60787e-12 
-2.6953 -2.82843 -1.88327e-12 
-2.4922 -2.82843 -2.28176e-12 
-2.28114 -2.82843 -2.78057e-12 
-2.06629 -2.82843 -3.00646e-12 
-1.86021 -2.82843 -3.10971e-12 
-1.65551 -2.82843 -3.04585e-12 
-1.45545 -2.82843 -2.80647e-12 
-1.25048 -2.82843 -2.3008e-12 
-1.06498 -2.82843 -2.00461e-12 
-0.820081 -2.82843 -1.49401e-12 
-0.606366 -2.82843 -5.91601e-13 
-0.420572 -2.82843 -7.30907e-13 
-0.209638 -2.82843 4.87207e-13 
0.0113754 -2.82843 5.1659e-13 
0.213024 -2.82843 -1.85151e-13 
0.410655 -2.82843 6.71369e-13 
0.623464 -2.82843 1.24306e-12 
0.827349 -2.82843 1.14451e-12 
1.02938 -2.82843 1.90636e-12 
1.23353 -2.82843 2.46104e-12 
1.42606 -2.82843 3.4793e-12 
1.65467 -2.82843 3.25886e-12 
1.84654 -2.82843 3.24558e-12 
2.06142 -2.82843 3.52326e-12 
2.29428 -2.82843 2.69922e-12 
2.48236 -2.82843 2.34849e-12 
2.71619 -2.82843 2.14929e-12 
2.93927 -2.82843 1.6294e-12 
3.15737 -2.82843 1.21388e-12 
3.36276 -2.82843 1.00883e-12 
3.5891 -2.82843 7.69289e-13 
3.79169 -2.82843 5.78036e-13 
4.01062 -2.82843 4.96016e-13 
4.24218 -2.82843 3.41487e-13 
4.44109 -2.82843 2.20596e-13 
4.65408 -2.82843 1.43258e-13 
4.86382 -2.82843 5.42335e-14 
5.0676 -2.82843 -2.59365e-14 
5.2862 -2.82843 -1.05273e-13 
5.49763 -2.82843 -1.80388e-13 
5.70106 -2.82843 -2.8592e-13 
5.92274 -2.82843 -4.357e-13 
6.1442 -2.82843 -5.4329e-13 
6.34602 -2.82843 -7.7602e-13 
6.58714 -2.82843 -1.00696e-12 
6.7949 -2.82843 -1.03447e-12 
6.99124 -2.82843 -1.67363e-12 
7.26244 -2.82843 -2.29595e-12 
7.49416 -2.82843 -2.53084e-12 
7.72578 -2.82843 -3.4459e-12 
7.9842 -2.82843 -3.34299e-12 
8.16556 -2.82843 -2.90832e-12 
8.48528 -2.82843 -3.71262e-13 
-8.48528 -2.61046 -1.29396e-13 
-8.24988 -2.59502 -1.38216e-12 
-8.03173 -2.55841 -1.35239e-12 
-7.82566 -2.57889 -1.67036e-12 
-7.5912 -2.68341 -3.11232e-12 
-7.25216 -2.6178 -1.99529e-12 
-7.00082 -2.56485 -1.10423e-12 
-6.79135 -2.59064 -1.02759e-12 
-6.56098 -2.58331 -8.85964e-13 
-6.34412 -2.56037 -5.25264e-13 
-6.13538 -2.57286 -4.76051e-13 
-5.90983 -2.59394 -3.53259e-13 
-5.69325 -2.57404 -2.2112e-13 
-5.47196 -2.58544 -1.42288e-13 
-5.25397 -2.57953 -7.22262e-14 
-5.0346 -2.58474 -1.35227e-14 
-4.82279 -2.57513 4.63051e-14 
-4.60318 -2.58944 1.2319e-13 
-4.38218 -2.5881 1.994e-13 
-4.16381 -2.58569 2.95313e-13 
-3.9531 -2.57588 3.93546e-13 
-3.74113 -2.58014 5.32429e-13 
-3.52923 -2.57989 6.92837e-13 
-3.3099 -2.59441 9.27521e-13 
-3.09507 -2.58903 1.13627e-12 
-2.88016 -2.59291 1.44162e-12 
-2.6752 -2.58574 1.65675e-12 
-2.46371 -2.59988 2.23006e-12 
-2.24316 -2.60282 2.55719e-12 
-2.03469 -2.59291 2.66891e-12 
-1.82244 -2.59361 3.12202e-12 
-1.61018 -2.58546 2.9825e-12 
-1.4048 -2.58087 2.57561e-12 
-1.21303 -2.5481 1.57262e-12 
-0.993287 -2.61343 2.73369e-12 
-0.780434 -2.57679 6.20323e-14 
-0.588093 -2.51383 -6.28227e-13 
-0.386862 -2.50798 -8.48635e-13 
-0.176598 -2.53449 -3.54642e-13 
0.0299568 -2.51046 -1.65012e-13 
0.21857 -2.46468 1.31914e-12 
0.40366 -2.5081 2.64472e-13 
0.613363 -2.55285 -4.99825e-13 
0.828484 -2.56225 -9.09904e-13 
1.04674 -2.57091 -1.47356e-12 
1.26144 -2.57815 -2.16566e-12 
1.49276 -2.62098 -3.71104e-12 
1.70682 -2.58096 -2.65095e-12 
1.92194 -2.61034 -3.1328e-12 
2.15505 -2.62389 -3.05998e-12 
2.36807 -2.57196 -1.87532e-12 
2.57789 -2.61143 -2.02323e-12 
2.80609 -2.59869 -1.57677e-12 
3.01864 -2.59052 -1.24814e-12 
3.22631 -2.57292 -9.01683e-13 
3.44432 -2.5969 -8.55917e-13 
3.65122 -2.56798 -5.65911e-13 
3.86443 -2.58655 -4.81222e-13 
4.09289 -2.6002 -3.83302e-13 
4.30167 -2.56385 -2.34615e-13 
4.51435 -2.58322 -1.67302e-13 
4.72817 -2.58003 -9.19984e-14 
4.93995 -2.57446 -2.05877e-14 
5.15527 -2.59146 5.15995e-14 
5.37467 -2.58357 1.17253e-13 
5.58531 -2.57277 1.93985e-13 
5.80236 -2.59139 3.05708e-13 
6.02781 -2.58875 4.10218e-13 
6.24164 -2.56328 4.79579e-13 
6.46276 -2.60503 7.66486e-13 
6.68691 -2.56832 8.24291e-13 
6.89115 -2.55211 9.15955e-13 
7.1168 -2.62829 1.57893e-12 
7.36943 -2.59399 1.53864e-12 
7.604 -2.5936 1.80498e-12 
7.85303 -2.61647 2.59442e-12 
8.059 -2.52004 1.47819e-12 
8.2874 -2.64633 2.12251e-12 
8.48528 -2.53393 1.32588e-13 
-8.48528 -2.3837 -6.90797e-15 
-8.21729 -2.3697 -2.9402e-13 
-7.95518 -2.30046 -3.40903e-13 
-7.69589 -2.4074 -6.29117e-13 
-7.53972 -2.24817 -5.22166e-13 
-7.43826 -2.49778 -5.10467e-13 
-7.15585 -2.379 -5.03493e-13 
-6.92415 -2.30829 -4.50616e-13 
-6.70388 -2.36107 -3.48407e-13 
-6.47771 -2.33743 -3.32533e-13 
-6.24625 -2.32015 -2.64371e-13 
-6.02547 -2.34766 -2.21793e-13 
-5.81031 -2.34062 -1.60646e-13 
-5.57965 -2.33902 -1.1103e-13 
-5.36233 -2.33926 -6.45826e-14 
-5.13881 -2.342 -2.12322e-14 
-4.92434 -2.33168 1.69065e-14 
-4.70186 -2.34492 5.13495e-14 
-4.48305 -2.35238 8.87438e-14 
-4.26208 -2.34723 1.33966e-13 
-4.04866 -2.33153 1.80856e-13 
-3.83495 -2.33055 2.33874e-13 
-3.62369 -2.33367 3.13793e-13 
-3.40676 -2.35108 3.96726e-13 
-3.19477 -2.35263 5.17773e-13 
-2.97877 -2.35713 6.49244e-13 
-2.76978 -2.34643 7.55173e-13 
-2.5584 -2.36114 9.78468e-13 
-2.34373 -2.38424 1.19854e-12 
-2.12439 -2.35905 1.25009e-12 
-1.91025 -2.36305 1.32571e-12 
-1.69082 -2.36011 1.20667e-12 
-1.46907 -2.33242 7.60051e-13 
-1.26688 -2.28789 5.69763e-13 
-1.03882 -2.36004 -5.31002e-13 
-0.817409 -2.32012 7.13193e-13 
-0.595216 -2.23481 7.69773e-13 
-0.395817 -2.19657 -1.9714e-12 
-0.185415 -2.22724 -6.58945e-13 
0.0129594 -2.17638 -1.39119e-13 
0.20687 -2.11635 -1.35199e-13 
0.406207 -2.15467 7.15615e-13 
0.600322 -2.26356 2.04464e-13 
0.821717 -2.27977 6.63303e-13 
1.02565 -2.32522 -2.60785e-13 
1.25253 -2.33458 -6.19843e-13 
1.46713 -2.39554 -1.05229e-12 
1.65553 -2.33007 -1.37738e-12 
1.86587 -2.37236 -1.57218e-12 
2.07756 -2.408 -1.41965e-12 
2.29035 -2.36589 -1.44037e-12 
2.53187 -2.36171 -9.98718e-13 
2.73747 -2.38339 -8.4865e-13 
2.96166 -2.3476 -6.6923e-13 
3.16267 -2.33124 -5.29727e-13 
3.3822 -2.35361 -4.09793e-13 
3.58609 -2.32392 -3.24271e-13 
3.79931 -2.33513 -2.52287e-13 
4.01414 -2.36521 -1.93861e-13 
4.22238 -2.32465 -1.36158e-13 
4.44298 -2.33132 -9.3417e-14 
4.6517 -2.33494 -5.41906e-14 
4.86333 -2.33184 -1.96332e-14 
5.08175 -2.34248 1.02893e-14 
5.29239 -2.35031 4.89736e-14 
5.50873 -2.32902 9.01127e-14 
5.72783 -2.34354 1.36693e-13 
5.94437 -2.35503 1.84665e-13 
6.16102 -2.32408 2.37389e-13 
6.39306 -2.34882 3.02213e-13 
6.60072 -2.3422 3.88193e-13 
6.82104 -2.29354 4.30517e-13 
7.04992 -2.36433 5.55157e-13 
7.2642 -2.39471 6.09777e-13 
7.52196 -2.35977 5.58235e-13 
7.76658 -2.38698 6.02161e-13 
7.98238 -2.29227 5.42096e-13 
8.25464 -2.37484 2.92863e-13 
8.48528 -2.28605 6.00785e-14 
-8.48528 -2.16033 6.49599e-15 
-8.23824 -2.16031 -9.50367e-14 
-8.0603 -2.04132 -9.29099e-15 
-7.79067 -2.13689 -1.95701e-13 
-7.51735 -2.02383 -1.44296e-13 
-7.30556 -2.24156 -4.19295e-13 
-7.06107 -2.11091 -2.33833e-13 
-6.79458 -2.09827 -2.73481e-13 
-6.58928 -2.11524 -2.12669e-13 
-6.35788 -2.1069 -2.03363e-13 
-6.12323 -2.0946 -1.56553e-13 
-5.91722 -2.0996 -1.17485e-13 
-5.6946 -2.11178 -9.54912e-14 
-5.47148 -2.09587 -6.08249e-14 
-5.25304 -2.10633 -2.59168e-14 
-5.03875 -2.09436 6.0387e-15 
-4.81619 -2.10435 3.02093e-14 
-4.59867 -2.11209 5.82504e-14 
-4.38311 -2.11616 8.2741e-14 
-4.17114 -2.09826 1.15017e-13 
-3.95766 -2.08918 1.37566e-13 
-3.74629 -2.08948 1.84666e-13 
-3.5318 -2.10497 2.31439e-13 
-3.32352 -2.11274 2.97905e-13 
-3.11105 -2.12139 3.79545e-13 
-2.90361 -2.11644 4.54983e-13 
-2.68923 -2.11644 5.57064e-13 
-2.47651 -2.13892 6.59355e-13 
-2.2668 -2.15308 7.83799e-13 
-2.03692 -2.12442 8.50514e-13 
-1.81713 -2.13517 7.91153e-13 
-1.59659 -2.1199 4.01464e-13 
-1.38771 -2.04543 -1.41371e-13 
-1.18745 -1.98512 -4.29931e-13 
-1.03933 -2.11394 1.21971e-13 
-0.802788 -2.06709 5.29035e-13 
-0.59176 -1.94009 -2.63078e-12 
-0.364392 -1.90971 5.14605e-13 
-0.151209 -1.91286 3.09417e-12 
0.0609126 -1.83301 -1.33546e-12 
0.200688 -1.53727 -1.92496e-13 
0.300763 -1.80086 2.2635e-12 
0.536178 -1.90862 3.10164e-13 
0.738236 -2.00045 -6.85654e-13 
0.96597 -2.02208 -3.94979e-15 
1.16926 -2.09903 -1.99382e-13 
1.41487 -2.13948 -8.09164e-13 
1.65435 -2.10997 -3.41305e-13 
1.89221 -2.13683 -5.08924e-13 
2.10338 -2.17318 -8.83552e-13 
2.35176 -2.16336 -8.33517e-13 
2.57391 -2.12308 -6.28862e-13 
2.7849 -2.15323 -6.52452e-13 
2.98489 -2.08976 -4.29791e-13 
3.20871 -2.10876 -3.55333e-13 
3.4105 -2.10215 -2.70638e-13 
3.62585 -2.08665 -2.03528e-13 
3.84309 -2.10416 -1.7163e-13 
4.04497 -2.11257 -1.29654e-13 
4.27244 -2.09355 -9.19193e-14 
4.48347 -2.0868 -6.34313e-14 
4.69579 -2.09209 -3.36087e-14 
4.91565 -2.10086 -1.184e-14 
5.12854 -2.10032 1.0891e-14 
5.33975 -2.10961 3.80361e-14 
5.56513 -2.09763 6.58481e-14 
5.78208 -2.1074 1.018e-13 
5.99328 -2.10756 1.35459e-13 
6.23349 -2.10538 1.59675e-13 
6.44137 -2.09216 2.10042e-13 
6.65193 -2.09039 2.58191e-13 
6.91118 -2.08823 2.52107e-13 
7.12409 -2.12444 2.92976e-13 
7.34838 -2.17426 3.20611e-13 
7.53392 -2.06163 1.52144e-13 
7.7142 -2.15581 3.06669e-13 
7.93802 -2.063 1.51822e-13 
8.19884 -2.14905 2.00295e-13 
8.48528 -2.08742 5.12884e-14 
-8.48528 -1.71968 -5.742e-14 
-8.34979 -1.92134 2.83245e-13 
-7.90787 -1.8792 1.84562e-13 
[...]
POINT_DATA 1978 
VECTORS vectors float
0.000638317 -0.00632244 0.99998 
-0.000148454 -0.0799187 0.996801 
-0.000227025 -0.0975819 0.995227 
-0.00126117 -0.097625 0.995222 
-0.00147072 -0.083841 0.996478 
-0.000270824 -0.0715025 0.99744 
-8.12891e-05 -0.0604001 0.998174 
-8.97822e-05 -0.0475382 0.998869 
5.36933e-05 -0.0354226 0.999372 
0.000161986 -0.0262916 0.999654 
4.834e-05 -0.01829 0.999833 
-9.87769e-05 -0.0116323 0.999932 
-0.000131447 -0.00740834 0.999973 
-7.03637e-05 -0.00474718 0.999989 
-0.000109946 -0.00293335 0.999996 
-9.27208e-05 -0.00127422 0.999999 
-7.68618e-05 0.000732929 1 
-7.9629e-05 0.00319688 0.999995 
-0.000155083 0.00643033 0.999979 
-0.000132306 0.010404 0.999946 
-9.04142e-05 0.0152557 0.999884 
-8.24892e-05 0.0209857 0.99978 
-9.30667e-05 0.0281075 0.999605 
-0.000138699 0.0367495 0.999325 
-0.000153412 0.0483937 0.998828 
-9.12633e-05 0.0630347 0.998011 
-4.0772e-05 0.0826697 0.996577 
6.01973e-06 0.106791 0.994281 
-7.14358e-05 0.13998 0.990154 
-3.09786e-05 0.18326 0.983064 
1.02583e-06 0.235918 0.971773 
3.97394e-05 0.300998 0.953625 
-4.08168e-06 0.377405 0.926048 
6.72398e-05 0.471845 0.881681 
-7.22268e-06 0.562858 0.826554 
-9.9547e-05 0.701089 0.713073 
2.33488e-05 0.817547 0.575861 
-2.95293e-06 0.900814 0.434204 
-2.55806e-05 0.97574 0.218931 
1.63108e-05 0.999867 -0.0163323 
1.17982e-06 0.973275 -0.229642 
1.155e-05 0.908856 -0.41711 
4.29023e-06 0.808357 -0.588693 
-8.28524e-06 0.697832 -0.716261 
2.07298e-05 0.580739 -0.81409 
-6.85646e-05 0.474939 -0.880018 
2.93788e-05 0.389314 -0.921105 
5.5144e-05 0.300299 -0.953845 
-7.92922e-05 0.239677 -0.970853 
0.000196364 0.185674 -0.982611 
1.33225e-05 0.138649 -0.990342 
2.72763e-05 0.109832 -0.99395 
0.000241252 0.082045 -0.996629 
0.000127403 0.0621021 -0.99807 
5.91592e-05 0.0474011 -0.998876 
9.84681e-05 0.0365071 -0.999333 
0.000110125 0.0272833 -0.999628 
1.40699e-05 0.0209201 -0.999781 
0.000229923 0.0156907 -0.999877 
9.36804e-05 0.0111718 -0.999938 
-2.21187e-05 0.00790731 -0.999969 
9.2716e-05 0.00475724 -0.999989 
-9.06203e-06 0.00184296 -0.999998 
5.43224e-05 -0.000695012 -1 
0.000115141 -0.00350315 -0.999994 
5.03927e-06 -0.00638179 -0.99998 
5.79344e-05 -0.00954928 -0.999954 
0.000195944 -0.0141439 -0.9999 
3.42887e-05 -0.0197217 -0.999806 
0.000148021 -0.0257386 -0.999669 
0.000239835 -0.0347528 -0.999396 
-9.68519e-05 -0.0439965 -0.999032 
0.000297135 -0.0547418 -0.9985 
0.000478632 -0.0738225 -0.997271 
0.00021071 -0.0932922 -0.995639 
0.000462295 -0.111977 -0.993711 
0.000164848 -0.121869 -0.992546 
0.000169389 -0.108547 -0.994091 
8.80868e-05 -0.00350776 -0.999994 
0.00145566 0.00173125 0.999997 
0.0340116 -0.0723378 0.9968 
0.0435268 -0.0898059 0.995008 
0.0464964 -0.0935649 0.994527 
0.038499 -0.0893086 0.99526 
0.0471027 -0.0740338 0.996143 
0.0539131 -0.0606497 0.996702 
0.05281 -0.0493522 0.997384 
0.0553797 -0.0369222 0.997782 
0.0578024 -0.0267257 0.99797 
0.0573702 -0.0183665 0.998184 
0.0556993 -0.0118634 0.998377 
0.0588188 -0.00790708 0.998237 
0.0583068 -0.0050126 0.998286 
0.0594612 -0.00285456 0.998227 
0.0591788 -0.000773953 0.998247 
0.060274 0.00148306 0.998181 
0.0582441 0.00428085 0.998293 
0.0579539 0.00776316 0.998289 
0.0578201 0.0119822 0.998255 
0.0582466 0.0169535 0.998158 
0.056863 0.023026 0.998116 
0.0559666 0.0304638 0.997968 
0.0531284 0.040029 0.997785 
0.0524492 0.0520912 0.997264 
0.0503207 0.0677115 0.996435 
0.0489461 0.0876079 0.994952 
0.0451106 0.113891 0.992469 
0.0410369 0.14981 0.987863 
0.0374622 0.193957 0.980294 
0.032851 0.250361 0.967595 
0.0278783 0.320881 0.946709 
0.0223913 0.403572 0.914674 
0.0179599 0.491507 0.870688 
0.0115696 0.611668 0.79103 
0.00763913 0.734312 0.678769 
0.00499723 0.831496 0.555508 
0.00238309 0.914776 0.403955 
0.000498538 0.97825 0.20743 
-0.00196951 0.99995 -0.00976023 
-0.00425182 0.975552 -0.219727 
-0.00597208 0.912685 -0.40862 
-0.00860448 0.815702 -0.578409 
-0.0117782 0.695244 -0.718677 
-0.0157778 0.572554 -0.819715 
-0.0204969 0.465674 -0.884719 
-0.0244762 0.363579 -0.931242 
-0.0310659 0.285698 -0.957816 
-0.0342939 0.222013 -0.97444 
-0.0378672 0.167762 -0.9851 
-0.045426 0.130556 -0.9904 
-0.0446196 0.100326 -0.993954 
-0.048756 0.0758085 -0.99593 
-0.0514174 0.0581839 -0.996981 
-0.0545833 0.0450849 -0.997491 
-0.0538536 0.0341343 -0.997965 
-0.0577107 0.0262778 -0.997987 
-0.0565991 0.0197964 -0.998201 
-0.0558558 0.0143659 -0.998335 
-0.0604755 0.0104088 -0.998115 
-0.0589057 0.00690956 -0.99824 
-0.0595795 0.00372499 -0.998217 
-0.0604974 0.000819786 -0.998168 
-0.0582862 -0.00199052 -0.998298 
-0.0591458 -0.00495812 -0.998237 
-0.0598839 -0.00806456 -0.998173 
-0.056974 -0.0118836 -0.998305 
-0.0566343 -0.0169247 -0.998252 
-0.0584134 -0.0227212 -0.998034 
-0.0529133 -0.0300203 -0.998148 
-0.0559335 -0.0392344 -0.997663 
-0.0560714 -0.049503 -0.997199 
-0.0466858 -0.0631072 -0.996914 
-0.0493886 -0.0808166 -0.995505 
-0.0489435 -0.0972878 -0.994052 
-0.0467974 -0.109876 -0.992843 
-0.0502147 -0.100239 -0.993695 
-0.033464 -0.078042 -0.996388 
-0.000343107 0.00144533 -0.999999 
0.00117083 -0.00081374 0.999999 
0.0403396 -0.0731418 0.996505 
0.0527526 -0.0897549 0.994566 
0.0571972 -0.0898461 0.994312 
0.0631649 -0.085031 0.994374 
0.0545521 -0.0815933 0.995172 
0.0644039 -0.0682009 0.995591 
0.0689085 -0.0554761 0.996079 
0.0686521 -0.0439676 0.996671 
0.0714329 -0.0327959 0.996906 
0.0730238 -0.0231675 0.997061 
0.0734187 -0.015984 0.997173 
0.0749161 -0.0109949 0.997129 
0.0759161 -0.00709536 0.997089 
0.0764876 -0.00433983 0.997061 
0.0768984 -0.00192823 0.997037 
0.0775186 0.000439546 0.996991 
0.0768299 0.00325534 0.997039 
0.0760658 0.00655247 0.997081 
0.0754246 0.0105609 0.997096 
0.0749547 0.015309 0.997069 
0.0735885 0.021017 0.997067 
0.0721301 0.0279109 0.997005 
0.0699319 0.0367144 0.996876 
0.0681515 0.0476599 0.996536 
0.0656968 0.0620014 0.995912 
0.0630211 0.080192 0.994785 
0.059207 0.10373 0.992842 
0.0540992 0.134753 0.989401 
0.0487742 0.176822 0.983034 
0.0423449 0.229482 0.972391 
0.0350751 0.297839 0.953971 
0.0273921 0.382105 0.923713 
0.0209893 0.47135 0.881696 
0.0147623 0.581801 0.813197 
0.00945008 0.696905 0.717102 
0.00451794 0.818825 0.574025 
0.000869435 0.922222 0.38666 
-0.00163444 0.980243 0.197791 
-0.00330482 0.99978 -0.0206988 
-0.00498766 0.975087 -0.221769 
-0.00763257 0.911535 -0.411151 
-0.0101926 0.818977 -0.573736 
-0.0133365 0.700097 -0.713923 
-0.0175974 0.583225 -0.81212 
-0.0233791 0.471171 -0.881732 
-0.0294002 0.375652 -0.926294 
-0.0357657 0.306363 -0.951243 
-0.0419137 0.239857 -0.969903 
-0.0470841 0.185404 -0.981534 
-0.0538078 0.143795 -0.988144 
-0.0582859 0.10778 -0.992465 
-0.0614567 0.0838118 -0.994585 
-0.0654674 0.0638848 -0.995808 
-0.0682709 0.0500621 -0.99641 
-0.0695909 0.0381973 -0.996844 
-0.0723409 0.0297634 -0.996936 
-0.0734654 0.0225959 -0.997042 
-0.0735008 0.0167701 -0.997154 
-0.0760809 0.0123638 -0.997025 
-0.0765689 0.0082827 -0.99703 
-0.0769325 0.00490993 -0.997024 
-0.07752 0.00179936 -0.996989 
-0.0771437 -0.00123699 -0.997019 
-0.0765776 -0.00409425 -0.997055 
-0.076874 -0.00723587 -0.997015 
-0.0755369 -0.0108355 -0.997084 
-0.0740517 -0.0151919 -0.997139 
-0.0740797 -0.0206189 -0.997039 
-0.0715976 -0.0276765 -0.99705 
-0.0705061 -0.0355323 -0.996878 
-0.0701643 -0.0460049 -0.996474 
-0.0666367 -0.0588532 -0.99604 
-0.0637994 -0.072519 -0.995324 
-0.0629333 -0.0882564 -0.994108 
-0.0607815 -0.0999452 -0.993135 
-0.0592186 -0.0975137 -0.993471 
-0.0428353 -0.0754707 -0.996228 
-0.00126501 -0.000806366 -0.999999 
0.000123738 0.00126707 0.999999 
0.0383099 -0.0710644 0.996736 
0.0474899 -0.0875054 0.995031 
0.0570746 -0.090867 0.994226 
0.0611732 -0.0850933 0.994493 
0.0660365 -0.0753679 0.994967 
0.0678516 -0.0625279 0.995734 
0.0705351 -0.0478877 0.996359 
0.0723284 -0.0378319 0.996663 
0.0737712 -0.0277328 0.99689 
0.0751477 -0.0198138 0.996976 
0.0765237 -0.0144082 0.996964 
0.0777017 -0.00980973 0.996928 
0.0782763 -0.0064137 0.996911 
0.0790505 -0.00362787 0.996864 
0.0792902 -0.00106842 0.996851 
0.0794741 0.00184367 0.996835 
0.0792186 0.00506483 0.996844 
0.0785241 0.00882411 0.996873 
0.0772755 0.0132499 0.996922 
0.0757015 0.01862 0.996957 
0.0740526 0.0249375 0.996942 
0.0724438 0.0328127 0.996833 
0.0705781 0.0423757 0.996606 
0.0683934 0.054737 0.996156 
0.0655276 0.0703626 0.995367 
0.0618118 0.0910273 0.993928 
0.0576372 0.117623 0.991384 
0.0525743 0.151569 0.987047 
0.0453646 0.200177 0.978709 
0.0380969 0.260505 0.964721 
0.0298814 0.338244 0.940584 
0.0213914 0.425795 0.904567 
0.0142767 0.517616 0.855494 
0.0128431 0.582907 0.812437 
0.00673886 0.708372 0.705808 
0.0025522 0.824357 0.566064 
0.000637619 0.926904 0.375298 
-0.000640987 0.986601 0.163151 
-0.00260592 0.998728 -0.0503528 
-0.00416809 0.973586 -0.228284 
-0.00397223 0.94182 -0.336093 
-0.00690588 0.840375 -0.541962 
-0.0104883 0.734536 -0.678488 
-0.0139433 0.61953 -0.784849 
-0.0188534 0.513441 -0.857918 
-0.0263517 0.399751 -0.916245 
-0.0332341 0.313926 -0.948866 
-0.04118 0.239875 -0.96993 
-0.0480882 0.184388 -0.981676 
-0.0548588 0.136038 -0.989184 
-0.0595043 0.1049 -0.992701 
-0.0640844 0.0806925 -0.994677 
-0.0660165 0.0640785 -0.995759 
-0.0693061 0.0488941 -0.996397 
-0.0713276 0.0384163 -0.996713 
-0.0731456 0.0295382 -0.996884 
-0.0752281 0.0222496 -0.996918 
-0.0766026 0.0168382 -0.99692 
-0.0776628 0.01181 -0.99691 
-0.0783402 0.00780142 -0.996896 
-0.0789943 0.00425582 -0.996866 
-0.0794716 0.00088484 -0.996837 
-0.0793825 -0.00220087 -0.996842 
-0.0790793 -0.00518857 -0.996855 
-0.0782466 -0.00860972 -0.996897 
-0.0774687 -0.0123499 -0.996918 
-0.0763616 -0.0167999 -0.996939 
-0.0748786 -0.0231025 -0.996925 
-0.0731063 -0.0298121 -0.996878 
-0.0714577 -0.0382466 -0.99671 
-0.0692942 -0.0513846 -0.996272 
-0.0679194 -0.063905 -0.995642 
-0.0665827 -0.0778219 -0.994741 
-0.0632202 -0.0873 -0.994174 
-0.0627925 -0.0943725 -0.993555 
-0.0574097 -0.0950128 -0.993819 
-0.0474335 -0.0792034 -0.995729 
-0.00182687 -0.000349756 -0.999998 
-0.000256387 0.00130035 0.999999 
0.0245032 -0.0559414 0.998133 
0.0498486 -0.0940906 0.994315 
0.0551589 -0.0911654 0.994307 
0.0556877 -0.0826517 0.995021 
0.0637525 -0.0752567 0.995124 
0.0609022 -0.067934 0.995829 
0.065416 -0.0554504 0.996316 
0.0655902 -0.0430257 0.996919 
0.0685766 -0.0331264 0.997096 
0.0695191 -0.0245881 0.997278 
0.0693141 -0.0182392 0.997428 
0.071595 -0.0131571 0.997347 
0.0724931 -0.00918408 0.997327 
0.072891 -0.00586512 0.997323 
0.0733694 -0.00303535 0.9973 
0.0739077 0.000103154 0.997265 
0.0739194 0.00344177 0.997258 
0.0736138 0.0071319 0.997261 
0.0723623 0.0113052 0.997314 
0.0707227 0.0162933 0.997363 
0.0688618 0.0222521 0.997378 
0.0675589 0.0293896 0.997282 
0.0658393 0.0378942 0.99711 
0.0641544 0.0484916 0.996761 
0.0617125 0.0617845 0.99618 
0.058749 0.0789879 0.995143 
0.0548946 0.102181 0.99325 
0.0507098 0.131157 0.990064 
0.0456527 0.169752 0.984429 
0.0374147 0.227095 0.973154 
0.0302801 0.294336 0.955222 
0.0217746 0.372362 0.927832 
0.0130428 0.467922 0.883674 
0.00566908 0.659364 0.751803 
0.000958959 0.776131 0.630571 
-0.00200844 0.895191 0.445678 
-0.00476441 0.95128 0.308292 
-0.00391849 0.975194 0.221317 
-0.00543773 0.999985 0.000498357 
-0.00428264 0.986687 -0.162576 
-0.00421049 0.921581 -0.388164 
-0.00301273 0.853733 -0.520702 
-0.00607956 0.719914 -0.694037 
-0.00957949 0.608705 -0.793339 
-0.0151038 0.500015 -0.865885 
-0.0219089 0.417147 -0.908575 
-0.0265432 0.341878 -0.939369 
-0.0342928 0.265521 -0.963495 
-0.0414389 0.204239 -0.978044 
-0.047986 0.158451 -0.9862 
-0.0523974 0.122246 -0.991116 
-0.0573653 0.0906417 -0.99423 
-0.0585861 0.0735762 -0.995567 
-0.0627592 0.0560728 -0.996452 
-0.0643832 0.0437798 -0.996964 
-0.0664315 0.0341756 -0.997206 
-0.0687536 0.0258118 -0.9973 
-0.070052 0.0195856 -0.997351 
-0.0720331 0.0143187 -0.997299 
-0.0719278 0.00958802 -0.997364 
-0.0727329 0.00554221 -0.997336 
-0.0736993 0.00185 -0.997279 
-0.0735423 -0.00153312 -0.997291 
-0.0733841 -0.00479257 -0.997292 
-0.0731683 -0.00793945 -0.997288 
-0.0719581 -0.0117679 -0.997338 
-0.0708316 -0.0160224 -0.99736 
-0.0705203 -0.0212911 -0.997283 
-0.0673087 -0.0281933 -0.997334 
-0.0656963 -0.0361778 -0.997184 
-0.0653876 -0.0465872 -0.996772 
-0.0621957 -0.0611205 -0.996191 
-0.0620462 -0.0744599 -0.995292 
-0.0569773 -0.086986 -0.994579 
-0.055565 -0.0941936 -0.994002 
-0.0476521 -0.0907937 -0.994729 
-0.0404031 -0.0733173 -0.99649 
-0.000291157 6.19943e-05 -1 
0.0010273 -0.000107861 0.999999 
0.0268204 -0.0688566 0.997266 
0.0370093 -0.0783643 0.996238 
0.0446264 -0.0955723 0.994422 
0.0489804 -0.0924298 0.994514 
0.0519176 -0.0758213 0.995769 
0.0548552 -0.0603984 0.996666 
0.05704 -0.0493678 0.997151 
0.0581199 -0.0367501 0.997633 
0.0600248 -0.0286057 0.997787 
0.0595599 -0.0219355 0.997984 
0.0602191 -0.0158847 0.998059 
0.0620074 -0.0116645 0.998008 
0.0631452 -0.00804982 0.997972 
0.0625848 -0.00484777 0.998028 
0.0639488 -0.00155214 0.997952 
0.0639794 0.00203902 0.997949 
0.0636819 0.00593666 0.997953 
0.0624603 0.010143 0.997996 
0.0610866 0.0149968 0.99802 
0.0595091 0.0207779 0.998011 
0.0582261 0.0277218 0.997918 
0.0566245 0.0358361 0.997752 
0.0552524 0.045785 0.997422 
0.0532226 0.0581053 0.996891 
0.0507013 0.0741026 0.995961 
0.047792 0.0951139 0.994318 
0.0434649 0.123928 0.991339 
0.0396042 0.160511 0.986239 
0.0339614 0.209189 0.977285 
0.0246139 0.284758 0.958283 
0.0161819 0.37359 0.927453 
0.00736599 0.491269 0.870977 
0.00193757 0.603511 0.797352 
0.00658656 0.585649 0.810538 
-0.000718804 0.713022 0.701142 
-0.00405188 0.845062 0.534653 
-0.00235871 0.873808 0.486266 
-0.00326303 0.996043 0.0888104 
-0.000625041 0.998788 0.0492203 
0.00218626 0.997898 -0.0647727 
-0.00234607 0.952348 -0.305003 
-0.00385237 0.857616 -0.514277 
-0.00304472 0.764275 -0.644883 
-0.00381531 0.631082 -0.775707 
-0.00848853 0.516383 -0.856316 
-0.0152407 0.409621 -0.912129 
-0.0228976 0.313068 -0.949455 
-0.0306709 0.241283 -0.96997 
-0.0370299 0.186496 -0.981758 
-0.0420093 0.147399 -0.988185 
-0.0480983 0.109687 -0.992802 
-0.0468746 0.087983 -0.995018 
-0.052032 0.067171 -0.996384 
-0.0538715 0.0530327 -0.997139 
-0.0549274 0.0417457 -0.997617 
-0.0579854 0.0321156 -0.997801 
-0.0589672 0.0248531 -0.99795 
-0.0603342 0.0185859 -0.998005 
-0.0624581 0.0133221 -0.997959 
-0.0617546 0.00847511 -0.998055 
-0.0629954 0.00418299 -0.998005 
-0.0632066 0.000445478 -0.998 
-0.0632899 -0.00316535 -0.99799 
-0.0627151 -0.0065296 -0.99801 
-0.0632303 -0.00986009 -0.99795 
-0.0611971 -0.0137781 -0.998031 
-0.0608609 -0.018493 -0.997975 
-0.0600335 -0.0238816 -0.997911 
-0.0562111 -0.031261 -0.997929 
-0.0558446 -0.0405076 -0.997617 
-0.0566227 -0.0519656 -0.997042 
-0.0516993 -0.0643318 -0.996588 
-0.0535128 -0.0756654 -0.995696 
-0.0481239 -0.0882892 -0.994932 
-0.0472842 -0.0949065 -0.994363 
-0.0394872 -0.0913147 -0.995039 
-0.0292887 -0.064964 -0.997458 
-0.000269631 -9.27436e-05 -1 
0.00085559 -0.000468951 1 
0.0248987 -0.0753577 0.996846 
0.036637 -0.0919055 0.995094 
0.0388475 -0.0961177 0.994612 
0.0450691 -0.0875917 0.995136 
0.0404428 -0.0791804 0.99604 
0.0451636 -0.0667474 0.996747 
0.0434516 -0.0531078 0.997643 
0.048098 -0.0426375 0.997932 
0.046618 -0.0328674 0.998372 
0.0474108 -0.0261315 0.998534 
0.0490215 -0.0197642 0.998602 
0.0483844 -0.0147979 0.998719 
0.0507904 -0.0108851 0.99865 
0.051327 -0.00747473 0.998654 
0.0510181 -0.00395079 0.99869 
0.0522504 -0.000395191 0.998634 
0.0520185 0.00353074 0.99864 
0.0508351 0.00766063 0.998678 
0.0497318 0.0122927 0.998687 
0.0488511 0.0176822 0.99865 
0.0477395 0.0239272 0.998573 
0.0463673 0.0311222 0.99844 
0.0451354 0.0397316 0.99819 
0.0437262 0.05011 0.997786 
0.0420294 0.0634346 0.997101 
0.0397008 0.0809079 0.995931 
0.037048 0.104323 0.993853 
0.0329088 0.136998 0.990025 
0.0292925 0.178861 0.983438 
0.024144 0.238839 0.970759 
0.0151382 0.326621 0.945034 
0.00785181 0.430562 0.902527 
0.0018676 0.545344 0.83821 
-0.00262952 0.763942 0.64528 
-0.00025104 0.840854 0.541262 
0.000542269 0.92448 0.381231 
0.00115896 0.973162 0.230118 
0.000303348 0.958898 0.283752 
-0.000283957 0.999659 0.0261132 
0.00231328 0.999929 -0.0116982 
-0.000133325 0.973132 -0.230249 
0.000694218 0.932019 -0.362408 
-0.00130546 0.813702 -0.58128 
-0.00198774 0.714783 -0.699344 
-0.00328044 0.548787 -0.835956 
-0.00749372 0.441288 -0.897334 
-0.0137924 0.346201 -0.938059 
-0.0209748 0.261139 -0.965073 
-0.0272149 0.201069 -0.979199 
-0.0315424 0.155376 -0.987352 
-0.0379775 0.121923 -0.991813 
-0.0354433 0.102492 -0.994102 
-0.0402213 0.0776316 -0.99617 
-0.0423035 0.0614752 -0.997212 
-0.0433753 0.0485428 -0.997879 
-0.0457582 0.0374702 -0.99825 
-0.0468375 0.0293607 -0.998471 
-0.0481763 0.0223126 -0.99859 
-0.0494834 0.0161916 -0.998644 
-0.0508066 0.0111435 -0.998646 
-0.0508247 0.00599405 -0.99869 
-0.0508517 0.00179196 -0.998705 
-0.0513963 -0.00216364 -0.998676 
-0.0507529 -0.00585015 -0.998694 
-0.0510077 -0.00941282 -0.998654 
-0.0501379 -0.0129413 -0.998658 
-0.0494796 -0.0175092 -0.998622 
-0.0479736 -0.0228781 -0.998587 
-0.0462338 -0.0291118 -0.998506 
-0.0448203 -0.0385532 -0.998251 
-0.0456211 -0.0501443 -0.997699 
-0.042078 -0.0649675 -0.997 
-0.0422916 -0.07998 -0.995899 
-0.0368066 -0.0911862 -0.995153 
-0.0381557 -0.0961197 -0.994638 
-0.0312757 -0.0950402 -0.994982 
-0.0263047 -0.0751513 -0.996825 
-0.000760073 -0.000386654 -1 
0.000671851 -0.000406298 1 
0.0201377 -0.0768287 0.996841 
0.0311816 -0.0963411 0.99486 
0.0293338 -0.098449 0.99471 
0.0352296 -0.0919884 0.995137 
0.0317225 -0.0802152 0.996273 
0.0346751 -0.0642504 0.997331 
0.0327126 -0.050735 0.998176 
0.0367715 -0.0406398 0.998497 
0.0339895 -0.0325994 0.99889 
0.0367099 -0.0251856 0.999009 
0.0379219 -0.0192569 0.999095 
0.0369628 -0.0145915 0.99921 
0.0394439 -0.0107914 0.999164 
0.0403554 -0.00706744 0.99916 
0.0394673 -0.00316574 0.999216 
0.0406583 0.000826261 0.999173 
0.0395911 0.00508797 0.999203 
0.0384374 0.00978689 0.999213 
0.0380431 0.0151503 0.999161 
0.0372814 0.0211698 0.999081 
0.0362402 0.0279874 0.998951 
0.0351632 0.0360626 0.998731 
0.033916 0.0457551 0.998377 
0.0327538 0.0579247 0.997784 
0.0310497 0.0738169 0.996788 
0.0289241 0.0953864 0.99502 
0.0260724 0.124476 0.99188 
0.0222726 0.166714 0.985754 
0.019229 0.220487 0.9752 
0.0138124 0.290837 0.956673 
0.00702562 0.394384 0.918919 
0.00233632 0.508658 0.860966 
9.76032e-05 0.637869 0.770145 
-0.000453035 0.649851 0.760061 
0.00203241 0.869511 0.493909 
0.00487439 0.954669 0.29763 
0.00737786 0.995646 0.0929203 
0.00769962 0.998602 0.0523013 
0.00682903 0.999706 -0.0232626 
0.00318473 0.996775 -0.0801879 
0.00422031 0.996932 -0.0781631 
-0.00233675 0.955495 -0.294998 
0.00036433 0.847817 -0.530289 
-0.00181304 0.610979 -0.791645 
-0.00158057 0.560441 -0.828193 
-0.00272331 0.482933 -0.875653 
-0.00599379 0.390661 -0.920515 
-0.0120436 0.301182 -0.953491 
-0.0174167 0.227573 -0.973605 
-0.0217756 0.174009 -0.984503 
-0.0265392 0.131347 -0.990981 
-0.0290016 0.0933065 -0.995215 
-0.0308594 0.0730616 -0.99685 
-0.0327681 0.0574482 -0.997811 
-0.034453 0.0444655 -0.998417 
-0.0351607 0.0351681 -0.998763 
-0.0364849 0.0272509 -0.998963 
-0.0377436 0.020422 -0.999079 
-0.0381232 0.0146021 -0.999166 
-0.0404282 0.00924304 -0.99914 
-0.0390104 0.00435446 -0.999229 
-0.0395885 -8.36367e-05 -0.999216 
-0.0393734 -0.00406457 -0.999216 
-0.0394296 -0.00794459 -0.999191 
-0.0384728 -0.0114641 -0.999194 
-0.0388821 -0.0153201 -0.999126 
-0.037408 -0.0199624 -0.999101 
-0.0354441 -0.0255202 -0.999046 
-0.0357284 -0.0330047 -0.998816 
-0.0333477 -0.0423397 -0.998547 
-0.0354596 -0.0522137 -0.998006 
-0.0310887 -0.0644863 -0.997434 
-0.0331501 -0.0777363 -0.996423 
-0.028346 -0.0899627 -0.995542 
-0.0276929 -0.0975781 -0.994843 
-0.0228337 -0.0950286 -0.995213 
-0.0190626 -0.0731891 -0.997136 
-0.000245433 -0.000124678 -1 
0.000554478 -0.000712214 1 
0.0143856 -0.0761031 0.996996 
0.0232581 -0.0964475 0.995066 
0.022013 -0.0994646 0.994798 
0.0265367 -0.0917912 0.995425 