# vtk DataFile Version 3.0 
Exported using Morpho https://github.com/Morpho-lang/morpho 
ASCII 
DATASET UNSTRUCTURED_GRID 

POINTS 1978 float 
-8.46374 -2.79921 -0.00046502 
-8.2752 -2.79362 -0.00428235 
-8.10844 -2.77232 -0.00548853 
-7.85905 -2.72608 -0.0058803 
-7.4155 -2.71888 -0.0020481 
-7.14414 -2.75077 -0.000698734 
-6.95315 -2.76781 0.000196206 
-6.72629 -2.76733 2.5566e-05 
-6.49094 -2.77811 -0.000103835 
-6.34751 -2.78866 -0.000682501 
-6.2031 -2.77388 -0.00153115 
-5.97622 -2.75664 -0.00128889 
-5.73217 -2.7495 -0.00073473 
-5.51467 -2.7532 -9.04809e-05 
-5.28734 -2.75632 0.000313287 
-5.07579 -2.75981 0.000103292 
-4.85728 -2.76127 -0.000129571 
-4.65325 -2.75951 -0.000113074 
-4.43062 -2.75858 -5.19312e-05 
-4.21315 -2.75918 0.000421936 
-3.99536 -2.76377 0.000531456 
-3.78907 -2.76377 0.00051421 
-3.57319 -2.76109 0.000234796 
-3.36068 -2.75676 0.000476501 
-3.12158 -2.75594 0.00127807 
-2.8983 -2.7601 0.00199226 
-2.6692 -2.7712 0.00267775 
-2.47042 -2.78311 0.00253709 
-2.26266 -2.7844 0.00302374 
-2.046 -2.78752 0.00378256 
-1.83981 -2.79282 0.00434885 
-1.63482 -2.79781 0.00450524 
-1.43947 -2.80837 0.00408268 
-1.23624 -2.80723 0.00334799 
-1.04611 -2.80205 0.00233948 
-0.807897 -2.80462 0.000178785 
-0.596705 -2.79798 1.72453e-05 
-0.427613 -2.78936 -0.00129823 
-0.194778 -2.78135 -0.000688601 
0.0462294 -2.76989 0.000382174 
0.214633 -2.79416 0.00136645 
0.378972 -2.79389 0.000623766 
0.580213 -2.79254 -0.000545112 
0.833274 -2.80772 -0.000263358 
1.04569 -2.80342 -0.00255479 
1.2148 -2.81878 -0.00292431 
1.38507 -2.80691 -0.00418549 
1.63346 -2.80471 -0.00450819 
1.80925 -2.79357 -0.00445277 
2.04291 -2.7831 -0.00395914 
2.27548 -2.78363 -0.00305124 
2.45907 -2.77597 -0.00261803 
2.70498 -2.76474 -0.00211531 
2.93342 -2.76491 -0.00147068 
3.1526 -2.76111 -0.000976405 
3.36597 -2.76048 -0.00055123 
3.5928 -2.76373 -0.00054525 
3.79266 -2.76106 -0.000907008 
4.01177 -2.75606 -0.000375388 
4.24713 -2.75906 -3.26795e-05 
4.44364 -2.7628 0.000168648 
4.65485 -2.76324 9.44362e-05 
4.8659 -2.76171 -0.000213943 
5.0661 -2.76205 -9.17847e-05 
5.28539 -2.75884 0.000183993 
5.49664 -2.76086 0.000495612 
5.69929 -2.76093 0.000433915 
5.92539 -2.75959 0.000111323 
6.14873 -2.76156 0.000363502 
6.34605 -2.76207 0.0010226 
6.58652 -2.76435 0.000955436 
6.79013 -2.76464 0.000218485 
6.98512 -2.7536 0.000372885 
7.28072 -2.7467 0.00267786 
7.51464 -2.76701 0.00346095 
7.73847 -2.78384 0.00321127 
7.96778 -2.78988 2.40146e-06 
8.12788 -2.77823 -0.0014638 
8.40302 -2.731 -0.00023351 
-8.45185 -2.61711 0.00389235 
-8.23606 -2.58309 -0.000218935 
-8.01274 -2.4993 -0.000669721 
-7.8508 -2.53813 -0.00216595 
-7.59307 -2.60911 -0.00132225 
-7.22615 -2.55924 -0.000524414 
-6.98249 -2.51368 0.000704281 
-6.7851 -2.55854 0.000180261 
-6.54499 -2.57714 -0.000415597 
-6.3371 -2.46655 7.27575e-05 
-6.13933 -2.55971 -6.80407e-05 
-5.90221 -2.55364 -7.6679e-05 
-5.67846 -2.52361 -0.000451295 
-5.45746 -2.53991 -2.51967e-05 
-5.23999 -2.53284 0.000241567 
-5.02267 -2.54508 3.8448e-05 
-4.81715 -2.53092 0.000126388 
-4.59888 -2.54821 2.173e-05 
-4.37951 -2.54517 0.000404008 
-4.16084 -2.5446 0.000407048 
-3.95383 -2.53412 0.00023461 
-3.74065 -2.53994 0.000143382 
-3.53003 -2.53006 0.000467013 
-3.30458 -2.54915 0.000583488 
-3.08666 -2.53729 0.000487395 
-2.86269 -2.55522 0.00052897 
-2.65926 -2.54652 0.000657941 
-2.45133 -2.57454 0.000645799 
-2.23249 -2.58585 0.000694095 
-2.02041 -2.57962 0.000600741 
-1.8102 -2.57977 0.000502089 
-1.60498 -2.57047 0.000281649 
-1.39852 -2.58405 -2.16861e-05 
-1.20204 -2.559 -0.000538181 
-0.973259 -2.60089 -0.000406513 
-0.758304 -2.56539 -0.00112799 
-0.58469 -2.4897 -0.000716324 
-0.398174 -2.49907 -0.00141793 
-0.208499 -2.54664 -0.00142018 
-0.00944205 -2.48196 0.000915982 
0.197941 -2.44252 0.000648509 
0.40359 -2.51609 0.00152386 
0.608786 -2.52197 0.00189169 
0.800049 -2.60762 0.000833641 
1.04161 -2.58379 0.000507169 
1.26342 -2.55853 0.000234878 
1.48585 -2.63636 -0.000705555 
1.67962 -2.55726 -0.000411307 
1.89521 -2.60473 -0.00138914 
2.14085 -2.59691 -0.000879085 
2.33976 -2.53892 -0.00088885 
2.55626 -2.58631 -0.0010157 
2.79282 -2.56023 -0.000835638 
3.00773 -2.54611 -0.000452421 
3.22093 -2.53488 -0.000624943 
3.44298 -2.54973 -0.000520333 
3.64846 -2.52474 -0.000271908 
3.86291 -2.54221 -0.000235604 
4.09781 -2.55592 -0.000454826 
4.30667 -2.52129 -0.000338682 
4.51831 -2.54233 4.10671e-05 
4.73204 -2.54228 0.000106559 
4.94207 -2.53074 -0.000104335 
5.15495 -2.55081 -0.000335644 
5.37575 -2.54016 -0.000278897 
5.58482 -2.52886 0.000291541 
5.80234 -2.54744 0.000384136 
6.03004 -2.54643 -0.000202819 
6.24205 -2.52001 -2.91333e-05 
6.46332 -2.56334 0.000531695 
6.68765 -2.5257 -0.000134959 
6.88881 -2.50889 -0.000214664 
7.1195 -2.58133 0.00105052 
7.38548 -2.54654 0.000692306 
7.61576 -2.56102 0.00126776 
7.8491 -2.58362 -0.000191676 
8.03437 -2.49316 -0.000678857 
8.23407 -2.59026 0.000737437 
8.42561 -2.47664 0.00154722 
-8.42555 -2.45517 0.00711755 
-8.15088 -2.36959 0.00173058 
-7.90762 -2.24661 0.00134443 
-7.71434 -2.38764 -0.00127147 
-7.55827 -2.26356 0.00162645 
-7.43024 -2.44862 -0.00202419 
-7.16272 -2.34657 -0.000303882 
-6.94198 -2.27235 -0.000350663 
-6.71698 -2.36256 0.000127797 
-6.51124 -2.32959 -6.04505e-05 
-6.21482 -2.28345 -2.18324e-05 
-6.02093 -2.34773 -0.000141579 
-5.80113 -2.31959 -0.000524272 
-5.56777 -2.30846 -0.000325373 
-5.35634 -2.31445 8.46806e-06 
-5.13156 -2.31881 9.50206e-06 
-4.92586 -2.30771 -1.06417e-05 
-4.70342 -2.32546 -0.000198396 
-4.48632 -2.33062 -0.00011948 
-4.26521 -2.32899 -0.000163405 
-4.0524 -2.30828 -0.000272272 
-3.83695 -2.31085 -0.000185624 
-3.62478 -2.30404 1.40302e-05 
-3.40134 -2.32253 -3.07899e-05 
-3.18931 -2.31845 -0.000131843 
-2.96674 -2.33358 -0.000302714 
-2.75906 -2.32395 -0.000154784 
-2.54629 -2.34399 -3.98562e-06 
-2.33821 -2.37837 0.000334909 
-2.11965 -2.37264 0.000562264 
-1.90041 -2.36603 0.000456096 
-1.68296 -2.34932 0.000505819 
-1.46121 -2.34806 0.000819459 
-1.25871 -2.31864 0.000328564 
-1.03485 -2.37598 -0.000244904 
-0.811799 -2.34374 0.000497806 
-0.603544 -2.19705 -0.00129371 
-0.402695 -2.2049 8.597e-05 
-0.201908 -2.25128 -0.000996043 
0.00948991 -2.16456 -0.000898326 
0.212454 -2.14493 0.0011714 
0.417752 -2.20661 0.001094 
0.615854 -2.23843 0.00314456 
0.828636 -2.37179 0.000651808 
1.05045 -2.36713 0.000849877 
1.24599 -2.31621 -0.000387799 
1.45298 -2.42144 -0.000823559 
1.65171 -2.33396 1.87543e-05 
1.86406 -2.38919 -0.000182033 
2.08083 -2.41407 -0.000126427 
2.29947 -2.3219 -0.000239682 
2.5183 -2.36366 0.000131468 
2.72551 -2.36717 0.000339962 
2.94966 -2.32367 0.000117014 
3.15311 -2.31198 -2.37663e-05 
3.37301 -2.32647 4.49465e-05 
3.57694 -2.29674 -1.61939e-05 
3.79003 -2.31016 6.47669e-05 
4.00958 -2.34333 0.000215702 
4.21938 -2.30514 0.00012815 
4.44373 -2.30917 0.00015225 
4.65211 -2.31785 0.000195847 
4.86147 -2.30963 0.000242363 
5.08121 -2.32189 6.68011e-05 
5.29022 -2.33052 -0.000150573 
5.50763 -2.30486 0.000167307 
5.72568 -2.31885 0.000690588 
5.94173 -2.33313 0.000126072 
6.15755 -2.3004 -0.000269589 
6.3918 -2.32846 0.000338294 
6.59914 -2.32075 0.000280038 
6.82026 -2.26859 -9.27191e-05 
7.04949 -2.33933 -0.000452764 
7.26726 -2.37304 -0.00022944 
7.53324 -2.34169 0.000758509 
7.76917 -2.37015 -0.000112573 
7.96308 -2.27504 0.000662534 
8.21391 -2.3488 -4.7983e-05 
8.44234 -2.27066 -0.000714122 
-8.36792 -2.20921 0.00595526 
-8.18094 -2.20454 0.00196724 
-8.04342 -2.0476 0.00125315 
-7.76218 -2.10104 -0.00126006 
-7.51769 -2.04481 -0.00130629 
-7.31759 -2.21401 0.000388996 
-7.08887 -2.09181 -0.000132553 
-6.79316 -2.11064 -7.45207e-05 
-6.59748 -2.10211 -5.28238e-05 
-6.36602 -2.14018 -0.000213202 
-6.11048 -2.06452 -6.84464e-05 
-5.92133 -2.10809 -3.95164e-05 
-5.69218 -2.10277 3.09116e-05 
-5.46702 -2.07949 0.000217079 
-5.25146 -2.10031 0.000378229 
-5.04163 -2.08078 0.000315751 
-4.8224 -2.10072 0.000219235 
-4.60657 -2.10774 0.000139892 
-4.39043 -2.11125 0.000197696 
-4.18075 -2.09421 0.000107505 
-3.96295 -2.08296 0.000361352 
-3.75222 -2.07832 0.000373264 
-3.52973 -2.09248 0.000219966 
-3.32126 -2.09089 0.000191205 
-3.10479 -2.10666 0.000452165 
-2.89801 -2.1045 0.00042269 
-2.68148 -2.11269 0.000501881 
-2.47047 -2.13423 0.000360191 
-2.26162 -2.16593 0.000565192 
-2.03684 -2.15461 0.000707917 
-1.81332 -2.13826 0.00016129 
-1.57679 -2.12078 -0.000208172 
-1.36309 -2.07756 2.44914e-05 
-1.18412 -1.975 -0.000283192 
-1.06235 -2.14013 -4.11583e-05 
-0.82104 -2.11825 0.000418466 
-0.577171 -1.91443 -0.00259229 
-0.36994 -1.8929 -0.00117859 
-0.161023 -1.94358 -0.000269883 
0.0261801 -1.75311 -0.00090959 
0.197017 -1.81057 -0.000453494 
0.359402 -1.77174 0.000695818 
0.5442 -1.91776 1.61993e-06 
0.744483 -2.03379 0.00186611 
0.940741 -2.12222 0.00123449 
1.16738 -2.09217 0.00139067 
1.43998 -2.1821 0.000265405 
1.67135 -2.11455 -8.1937e-05 
1.89441 -2.1765 -0.000711385 
2.10811 -2.18961 -0.000850691 
2.37141 -2.12298 -0.00043095 
2.57612 -2.13707 -0.000588444 
2.78501 -2.14379 -0.00035497 
2.98819 -2.08339 -0.000419991 
3.20867 -2.10007 -0.000168907 
3.40694 -2.08482 -0.000222148 
3.62119 -2.0719 -0.000341536 
3.84219 -2.09721 -0.00036952 
4.0445 -2.10627 -0.000182101 
4.27592 -2.09053 -0.000108719 
4.4886 -2.079 -0.000216836 
4.69775 -2.08789 -0.000315478 
4.91873 -2.09729 -0.000233554 
5.1275 -2.09391 -0.000133235 
5.33775 -2.10549 -0.000284043 
5.56322 -2.08746 -0.000239991 
5.77992 -2.09841 0.000145417 
5.98866 -2.09995 7.47777e-05 
6.23499 -2.10035 -0.000278828 
6.44151 -2.0858 -0.00029889 
6.65308 -2.08344 0.000167781 
6.92015 -2.07978 0.000494992 
7.13591 -2.12 -0.000450506 
7.36162 -2.1726 0.000671111 
7.53747 -2.0548 0.000553001 
7.70886 -2.15149 -6.38671e-05 
7.92397 -2.06511 -0.000377379 
8.17447 -2.14781 -0.000442285 
8.43734 -2.0944 -0.0019566 
-8.35334 -1.70259 0.00191573 
-8.2631 -1.94496 0.00181668 
-7.88906 -1.89527 0.000999897 
-7.65498 -1.8717 -0.000150011 
-7.4322 -1.78177 0.000432741 
-7.29846 -1.9752 9.46668e-05 
[...]
POINT_DATA 1978 
VECTORS vectors float
0.11176 -0.178548 0.975799 
0.145365 -0.13094 0.981875 
0.167284 -0.0970183 0.981931 
0.193912 -0.0792002 0.976963 
0.211552 -0.093953 0.971862 
0.210408 -0.0991855 0.972519 
0.204706 -0.084746 0.975129 
0.202187 -0.059781 0.977099 
0.200677 -0.0379144 0.979253 
0.202553 -0.0176191 0.978862 
0.20599 0.000521082 0.978503 
0.215073 0.00944977 0.975684 
0.220887 0.00347265 0.974285 
0.222069 -0.00499106 0.973976 
0.219871 -0.00864547 0.974568 
0.21883 -0.0061034 0.974827 
0.21785 -0.000416115 0.975068 
0.217552 0.00374446 0.975137 
0.218032 0.00514954 0.974979 
0.217275 0.00483329 0.975239 
0.215233 0.00885298 0.975778 
0.2124 0.0174 0.976465 
0.210954 0.0277074 0.976731 
0.209299 0.0354935 0.976805 
0.208002 0.040252 0.976776 
0.203809 0.0444979 0.97775 
0.195997 0.0577327 0.978961 
0.187247 0.0828989 0.97915 
0.177442 0.118369 0.977467 
0.167294 0.160155 0.973629 
0.154617 0.209562 0.966711 
0.135962 0.273102 0.954107 
0.117213 0.350124 0.931306 
0.0952183 0.449176 0.890708 
0.0747545 0.551396 0.833241 
0.0480931 0.691887 0.722509 
0.0298659 0.816047 0.579679 
0.0196582 0.899893 0.440294 
0.00818131 0.976272 0.210867 
-0.00174146 0.999534 -0.051215 
-0.00534193 0.971035 -0.235899 
-0.0125957 0.91794 -0.402938 
-0.0262736 0.820635 -0.572522 
-0.0502904 0.672281 -0.740564 
-0.0746842 0.549684 -0.834376 
-0.0934322 0.458066 -0.884723 
-0.110982 0.372038 -0.923145 
-0.136785 0.269338 -0.954739 
-0.152738 0.212511 -0.96658 
-0.167582 0.159961 -0.973522 
-0.179207 0.11445 -0.977696 
-0.187318 0.0859178 -0.97883 
-0.198064 0.0640924 -0.977853 
-0.203724 0.0520515 -0.977318 
-0.20568 0.041281 -0.977526 
-0.20746 0.0321419 -0.977382 
-0.211109 0.0202008 -0.976738 
-0.214939 0.0105219 -0.975962 
-0.218367 0.0109678 -0.974799 
-0.218766 0.0140773 -0.974795 
-0.216419 0.011411 -0.975608 
-0.216855 0.00548149 -0.97539 
-0.217819 -0.000752981 -0.975236 
-0.218864 -0.00350997 -0.974875 
-0.21899 -0.00244629 -0.97479 
-0.217285 -0.00145154 -0.975375 
-0.21502 -0.00627003 -0.975896 
-0.21424 -0.0127913 -0.975934 
-0.214293 -0.0171662 -0.976103 
-0.211247 -0.0219852 -0.97665 
-0.208642 -0.034605 -0.976915 
-0.208929 -0.0495767 -0.97666 
-0.210975 -0.0596468 -0.975114 
-0.206369 -0.0542687 -0.97681 
-0.192917 -0.0626534 -0.979764 
-0.17576 -0.105628 -0.978955 
-0.165408 -0.183639 -0.969944 
-0.171163 -0.241901 -0.95541 
-0.208184 -0.302071 -0.925354 
0.0565291 -0.209893 0.976677 
0.0948622 -0.162465 0.988316 
0.116561 -0.132124 0.992292 
0.144886 -0.106891 0.990883 
0.176631 -0.091918 0.987612 
0.172489 -0.084397 0.988989 
0.161264 -0.0699145 0.992859 
0.16728 -0.0571098 0.992245 
0.167831 -0.039247 0.992719 
0.153854 -0.0230833 0.997289 
0.17117 -0.008109 0.992679 
0.178379 -0.00156359 0.991329 
0.174749 -0.00129267 0.992089 
0.177687 -0.00367905 0.991215 
0.176683 -0.00501979 0.991433 
0.178478 -0.00309064 0.991052 
0.175366 0.000249146 0.991713 
0.177559 0.00386858 0.99123 
0.176568 0.00655336 0.991419 
0.175092 0.00927314 0.991731 
0.171902 0.014047 0.992455 
0.169831 0.0204867 0.992792 
0.165473 0.0282973 0.993554 
0.166393 0.0366208 0.993111 
0.161256 0.0456839 0.993596 
0.160091 0.0572501 0.993111 
0.150933 0.0741611 0.99363 
0.146834 0.0979214 0.992131 
0.13884 0.133304 0.989384 
0.126878 0.177877 0.984235 
0.113903 0.233061 0.97474 
0.09701 0.30216 0.957738 
0.0824673 0.385541 0.928771 
0.0644426 0.481135 0.884281 
0.0498017 0.604777 0.803027 
0.0324777 0.731443 0.692725 
0.0214516 0.82681 0.569729 
0.0128175 0.914187 0.414435 
0.00667676 0.976763 0.22621 
0.00172327 1.00177 0.0121012 
-0.0043408 0.978438 -0.214021 
-0.0105689 0.911097 -0.421068 
-0.0203167 0.811127 -0.592482 
-0.0349568 0.70223 -0.722608 
-0.053463 0.564915 -0.831943 
-0.0680734 0.448876 -0.903279 
-0.0961723 0.340987 -0.943862 
-0.101763 0.2736 -0.96559 
-0.124762 0.20546 -0.97927 
-0.1372 0.150209 -0.987376 
-0.136788 0.117249 -0.992084 
-0.154831 0.0866056 -0.991966 
-0.158986 0.0666733 -0.992901 
-0.160558 0.0517228 -0.993463 
-0.161413 0.0402522 -0.993851 
-0.166623 0.0291482 -0.993147 
-0.166437 0.0216865 -0.993498 
-0.173771 0.0156111 -0.99207 
-0.178893 0.0129108 -0.990934 
-0.172485 0.0110463 -0.992355 
-0.175972 0.00803055 -0.991515 
-0.176381 0.00376079 -0.991498 
-0.175141 -0.000620075 -0.991817 
-0.178891 -0.0032715 -0.990871 
-0.174892 -0.00377634 -0.991657 
-0.171715 -0.00490183 -0.992436 
-0.175334 -0.00902028 -0.991896 
-0.172955 -0.0156086 -0.992281 
-0.167184 -0.0215139 -0.993441 
-0.173202 -0.0283511 -0.992051 
-0.165137 -0.0390513 -0.993436 
-0.161557 -0.0492651 -0.993839 
-0.175947 -0.058359 -0.990516 
-0.158864 -0.0711317 -0.993239 
-0.15127 -0.0975176 -0.992472 
-0.146541 -0.143138 -0.986867 
-0.137397 -0.182168 -0.982283 
-0.165814 -0.23736 -0.963669 
-0.176188 -0.253152 -0.949308 
0.019399 -0.236821 0.970937 
0.0723562 -0.179095 0.989556 
0.0898671 -0.146352 0.995639 
0.123755 -0.107442 0.994785 
0.113896 -0.100393 0.997619 
0.149269 -0.0887893 0.992611 
0.134956 -0.0747406 0.996779 
0.125043 -0.0602014 0.99935 
0.136413 -0.0472268 0.997941 
0.131643 -0.0338601 0.999 
0.12937 -0.0189047 0.99972 
0.141706 -0.0101265 0.997807 
0.139284 -0.00520494 0.998195 
0.139301 -0.00402562 0.998048 
0.140881 -0.00472578 0.997763 
0.142412 -0.00414917 0.997516 
0.141122 -0.00154627 0.997696 
0.142708 0.002217 0.997456 
0.142256 0.00599454 0.997638 
0.141523 0.0101366 0.997634 
0.137637 0.0146665 0.998301 
0.135245 0.0199437 0.998734 
0.130346 0.0262203 0.999303 
0.129078 0.0345632 0.999348 
0.126079 0.0446561 0.999326 
0.125241 0.0575907 0.998757 
0.119072 0.0739042 0.998505 
0.114948 0.0958978 0.997249 
0.111799 0.124116 0.994766 
0.102412 0.164945 0.990375 
0.0910096 0.218041 0.98159 
0.0768809 0.286277 0.965609 
0.0627978 0.371556 0.937428 
0.0478166 0.465357 0.896603 
0.0389453 0.577369 0.826671 
0.0257162 0.703598 0.722567 
0.0109531 0.819738 0.582699 
0.00623845 0.913789 0.416955 
0.00150059 0.978412 0.219146 
-0.00426389 1.00199 -0.0103019 
-0.00577374 0.976011 -0.230587 
-0.00945362 0.907127 -0.431683 
-0.0137562 0.81222 -0.593176 
-0.0268651 0.692275 -0.733218 
-0.0387817 0.567523 -0.833607 
-0.046679 0.46798 -0.894101 
-0.0692891 0.368138 -0.936279 
-0.0731913 0.296343 -0.962587 
-0.0915097 0.225385 -0.979681 
-0.106458 0.170675 -0.988766 
-0.103852 0.13303 -0.994614 
-0.117378 0.0997817 -0.99666 
-0.124342 0.0775482 -0.997646 
-0.123454 0.0604517 -0.998917 
-0.12414 0.0470925 -0.999456 
-0.129651 0.0355106 -0.999091 
-0.128423 0.0272673 -0.99949 
-0.134097 0.0206154 -0.998816 
-0.14292 0.0158312 -0.997486 
-0.138346 0.0126043 -0.998199 
-0.138615 0.00887355 -0.99818 
-0.141476 0.00518415 -0.99773 
-0.141327 0.00105852 -0.997725 
-0.141806 -0.00279694 -0.997649 
-0.142149 -0.00482965 -0.997447 
-0.136772 -0.00572621 -0.998199 
-0.138593 -0.00768174 -0.998217 
-0.14088 -0.013137 -0.997895 
-0.134211 -0.0200553 -0.998826 
-0.136527 -0.0273292 -0.998414 
-0.13363 -0.034988 -0.998643 
-0.125477 -0.0447171 -0.999633 
-0.132395 -0.0573636 -0.998352 
-0.132498 -0.0696324 -0.997533 
-0.121756 -0.0938415 -0.998301 
-0.119916 -0.127332 -0.993208 
-0.107611 -0.163171 -0.991351 
-0.124197 -0.210334 -0.978202 
-0.113703 -0.241934 -0.963501 
0.0151368 -0.270508 0.960148 
0.0520331 -0.211068 0.983876 
0.0627767 -0.186632 0.989751 
0.0836177 -0.129496 0.998447 
0.0875813 -0.101381 0.999951 
0.112654 -0.0827917 0.998944 
0.102101 -0.0675047 1.00234 
0.104705 -0.0487788 1.00218 
0.104367 -0.0382826 1.00239 
0.110528 -0.0268965 1.00188 
0.10386 -0.017193 1.00272 
0.110949 -0.010642 1.00211 
0.110881 -0.00661851 1.002 
0.107928 -0.00627749 1.00193 
0.111792 -0.00596626 1.00157 
0.111252 -0.00395396 1.0017 
0.113257 -4.88344e-05 1.0015 
0.113321 0.00457269 1.00152 
0.113209 0.00900349 1.00152 
0.110449 0.0136794 1.0017 
0.10638 0.0186032 1.0023 
0.102402 0.0243517 1.00263 
0.10035 0.0319504 1.00265 
0.0974221 0.0410571 1.00264 
0.0968849 0.0526296 1.00221 
0.0943119 0.0671176 1.0017 
0.0909796 0.0868789 1.0007 
0.0878432 0.112429 0.998684 
0.0846364 0.145258 0.99515 
0.0753343 0.192756 0.988515 
0.0640216 0.254246 0.975996 
0.0508077 0.336485 0.952086 
0.0371275 0.426087 0.914939 
0.0222943 0.513614 0.87062 
0.026111 0.570506 0.833581 
0.0145789 0.702636 0.724763 
-0.00121503 0.838214 0.555064 
-0.00490955 0.930315 0.377574 
-0.00590297 0.988328 0.170794 
-0.00938091 1.00193 -0.0386738 
-0.0085922 0.980068 -0.21873 
-0.0069074 0.931408 -0.379155 
-0.00887137 0.850825 -0.53993 
-0.0138058 0.745075 -0.679046 
-0.022012 0.634621 -0.785387 
-0.0296424 0.517283 -0.868108 
-0.0481046 0.387903 -0.932203 
-0.0538659 0.301264 -0.964644 
-0.0711617 0.228443 -0.981611 
-0.0816619 0.17564 -0.990948 
-0.0842071 0.128267 -0.997413 
-0.091143 0.09964 -0.999722 
-0.0966486 0.0773951 -1.00089 
-0.0933595 0.0614827 -1.00216 
-0.0973572 0.046774 -1.00241 
-0.0979052 0.0370692 -1.00268 
-0.0997738 0.0287291 -1.00268 
-0.106328 0.0216961 -1.00222 
-0.110539 0.0170958 -1.00177 
-0.110367 0.0126259 -1.00183 
-0.109394 0.00801411 -1.00205 
-0.110628 0.003445 -1.00183 
-0.112599 -0.000993724 -1.00149 
-0.112159 -0.00448951 -1.00159 
-0.111275 -0.0064338 -1.00158 
-0.107567 -0.0074549 -1.00198 
-0.109064 -0.00970074 -1.00212 
-0.109565 -0.0151765 -1.00206 
-0.107982 -0.0231019 -1.00224 
-0.104831 -0.0298393 -1.00255 
-0.103333 -0.0378615 -1.00256 
-0.100995 -0.0510215 -1.00263 
-0.1027 -0.0649805 -1.00152 
-0.103093 -0.080276 -0.999275 
-0.0878082 -0.101003 -0.99997 
-0.0948015 -0.123071 -0.99733 
-0.0819815 -0.158141 -0.993681 
-0.0877258 -0.200488 -0.985156 
-0.0642115 -0.250532 -0.966198 
0.0711412 -0.292957 0.949799 
0.0507193 -0.254796 0.971492 
0.065682 -0.16185 0.99309 
0.0704808 -0.123135 0.998939 
0.0669288 -0.0966743 1.00214 
0.0857006 -0.0830627 1.00083 
0.0732896 -0.0697469 1.00352 
0.084447 -0.0553862 1.00372 
0.0782881 -0.0430528 1.00436 
0.0842583 -0.0326731 1.00407 
0.0863989 -0.0240537 1.00417 
0.0806276 -0.0160909 1.00441 
0.086817 -0.0102813 1.00406 
0.0861414 -0.00772232 1.00375 
0.0857075 -0.00756298 1.00357 
0.0879749 -0.00664613 1.00354 
0.089093 -0.00299231 1.00356 
0.0895936 0.00224987 1.00348 
0.0900687 0.00758307 1.0035 
0.0881355 0.0125486 1.00355 
0.0853767 0.0176147 1.00379 
0.0805562 0.0237621 1.00418 
0.0787337 0.0305833 1.00408 
0.0756636 0.0388594 1.00404 
0.0749802 0.048642 1.00372 
0.0735277 0.0614285 1.0032 
0.0718044 0.0780405 1.00239 
0.0686189 0.0999408 1.00111 
0.0660936 0.127766 0.998579 
0.0634949 0.162725 0.994263 
0.0544904 0.2124 0.986367 
0.0443612 0.281747 0.970619 
0.0314411 0.36607 0.944382 
0.016331 0.490189 0.88518 
0.00733553 0.66237 0.762119 
-0.00383916 0.777993 0.637919 
-0.0103348 0.883107 0.484483 
-0.00995147 0.94878 0.331987 
-0.00960834 0.985731 0.188402 
-0.00329386 1.00287 -0.000191984 
6.73081e-05 0.981082 -0.208322 
-0.000714133 0.916109 -0.417657 
-0.00329189 0.82414 -0.578579 
-0.00916783 0.719407 -0.710574 
-0.0153491 0.605229 -0.809657 
-0.0199217 0.503009 -0.878112 
-0.0326619 0.41612 -0.921396 
-0.0344292 0.349294 -0.947283 
-0.0478107 0.263294 -0.974747 
-0.0578531 0.202304 -0.987791 
-0.0664097 0.154174 -0.995367 
-0.0673542 0.114187 -1.00018 
-0.0725824 0.0886544 -1.00185 
-0.071498 0.0711557 -1.003 
-0.0746888 0.0543989 -1.00356 
-0.0739599 0.0435186 -1.00397 
-0.0763439 0.0347489 -1.00405 
-0.0813936 0.0268828 -1.00395 
-0.0838091 0.021143 -1.00395 
-0.0885729 0.0157906 -1.00358 
-0.0865332 0.0105306 -1.00387 
-0.0867761 0.00524179 -1.0039 
-0.0893067 -0.00025105 -1.00353 
-0.0880025 -0.00512694 -1.00358 
-0.0875618 -0.00770561 -1.00353 
-0.086879 -0.00826815 -1.00346 
-0.0844624 -0.00945487 -1.0039 
-0.0845692 -0.0138786 -1.00398 
-0.0881723 -0.0208677 -1.0039 
-0.0806952 -0.0281514 -1.00423 
-0.0789871 -0.0359817 -1.00433 
-0.0816816 -0.0462548 -1.00412 
-0.0767646 -0.0631833 -1.00483 
-0.079253 -0.0794939 -1.0024 
-0.0671797 -0.103073 -1.00125 
-0.0681276 -0.134149 -0.998078 
-0.0585043 -0.177019 -0.992122 
-0.0611025 -0.210394 -0.984897 
-0.0356436 -0.264049 -0.962578 
0.0988708 -0.28336 0.952047 
0.0676949 -0.241244 0.975415 
0.0603263 -0.214581 0.984033 
0.0573604 -0.160172 0.9945 
0.0561929 -0.124679 0.998321 
0.0569029 -0.0821617 1.00302 
0.0609207 -0.0625032 1.00451 
0.0644385 -0.050851 1.00493 
0.0646974 -0.036674 1.00514 
0.0670305 -0.0282741 1.00525 
0.066784 -0.0209308 1.00532 
0.0641404 -0.0126314 1.00533 
0.0673199 -0.00928552 1.00501 
0.0682224 -0.00890865 1.00474 
0.0674108 -0.00891882 1.00495 
0.0705985 -0.00554992 1.00489 
0.0704685 0.000144607 1.00486 
0.0707696 0.00603534 1.00488 
0.0693425 0.0113751 1.00501 
0.0671842 0.0169637 1.00509 
0.0639929 0.0230662 1.00521 
0.0612805 0.0304763 1.00512 
0.0587892 0.0380837 1.00487 
0.0575817 0.0469752 1.00457 
0.0562942 0.0580726 1.00418 
0.055556 0.0728574 1.00348 
0.0535033 0.0930592 1.00238 
0.0511475 0.121471 1.00015 
0.0485345 0.158287 0.995854 
0.0435339 0.204759 0.988372 
0.0343834 0.277476 0.971972 
0.020862 0.375237 0.93975 
0.00961343 0.491052 0.884525 
-0.00295701 0.631949 0.785549 
0.00268332 0.606708 0.807945 
-0.00429598 0.718359 0.711571 
-0.00769548 0.80882 0.595252 
-0.00375291 0.897874 0.45503 
-0.00389086 0.9885 0.17878 
-0.0012668 1.00112 0.0622893 
-0.00198809 1.00011 -0.103925 
0.00293693 0.972182 -0.255032 
0.00420102 0.883373 -0.48571 
0.000225643 0.75354 -0.669214 
-0.00428505 0.631207 -0.789546 
-0.00659687 0.536691 -0.858339 
-0.0188026 0.428038 -0.917251 
-0.0280568 0.323736 -0.959556 
-0.0375184 0.247676 -0.979134 
-0.0462279 0.189626 -0.989669 
-0.0531098 0.143866 -0.998444 
-0.0521336 0.107726 -1.00145 
-0.0534417 0.0863933 -1.00306 
-0.0568085 0.0661087 -1.00399 
-0.0564848 0.0529955 -1.00447 
-0.0567955 0.0430942 -1.00481 
-0.0607671 0.0343663 -1.00487 
-0.062534 0.0276722 -1.00516 
-0.0656732 0.0213133 -1.00516 
-0.0693162 0.0154609 -1.00492 
-0.0681784 0.00967511 -1.00516 
-0.068951 0.00347216 -1.00517 
-0.0692653 -0.0025488 -1.00507 
-0.0688093 -0.00774716 -1.00496 
-0.0677973 -0.00983256 -1.00482 
-0.0682941 -0.00967535 -1.00468 
-0.0655832 -0.0109965 -1.00516 
-0.0665409 -0.0163028 -1.00526 
-0.0672188 -0.0233838 -1.00519 
-0.0614659 -0.0313262 -1.00553 
-0.0620809 -0.0405159 -1.00537 
-0.0636827 -0.0530564 -1.00398 
-0.0568178 -0.0682841 -1.00444 
-0.0604293 -0.0828443 -1.00303 
-0.0515945 -0.107657 -1.00109 
-0.0530633 -0.139689 -0.997796 
-0.0441984 -0.179551 -0.991937 
-0.040361 -0.231343 -0.980398 
-0.0308265 -0.279001 -0.9581 
0.0792703 -0.267677 0.959347 
0.0605689 -0.221384 0.982125 
0.0558626 -0.187218 0.989906 
0.0453177 -0.140952 0.998738 
0.0486079 -0.104832 1.00149 
0.0429969 -0.086667 1.00335 
0.0487524 -0.0705252 1.00387 
0.0455371 -0.0544151 1.00681 
0.0514537 -0.0426217 1.00525 
0.0489934 -0.032836 1.00613 
0.0491807 -0.0255897 1.00645 
0.0517243 -0.0174322 1.00628 
0.0487029 -0.0118042 1.00628 
0.0531654 -0.0105698 1.00589 
0.0534006 -0.0114037 1.00571 
0.0537934 -0.00945928 1.00601 
0.0557581 -0.00391855 1.00595 
0.0555947 0.00276571 1.00598 
0.0549725 0.00872359 1.00605 
0.0541955 0.0144098 1.00598 
0.0513762 0.0204758 1.00599 
0.0496767 0.0272736 1.00589 
0.0472312 0.0343772 1.00562 
0.0459358 0.04162 1.00527 
0.04503 0.05004 1.00493 
0.0443849 0.0618365 1.0046 
0.0433689 0.077556 1.00397 
0.0416808 0.0999862 1.00267 
0.0393552 0.130368 1.00014 
0.0362018 0.169727 0.995326 
0.031359 0.227267 0.984985 
0.0206088 0.309501 0.963782 
0.00782308 0.430123 0.916714 
-0.00101975 0.549528 0.850492 
-0.006248 0.75113 0.671124 
-0.0016938 0.870633 0.500985 
0.000381647 0.918469 0.407517 
0.00420399 0.973173 0.225909 
-0.00158472 0.955257 0.313931 
-4.35144e-05 0.984598 0.161626 
0.00392118 0.999618 -0.0576932 
0.00339842 0.951426 -0.312142 
0.00815797 0.868018 -0.50879 
0.00752608 0.809765 -0.602261 
0.00455509 0.70969 -0.718599 
-0.000646833 0.550661 -0.848198 
-0.0110628 0.417323 -0.922104 
-0.0193197 0.318972 -0.961067 
-0.0281062 0.242022 -0.981554 
-0.0359281 0.185879 -0.992232 
-0.0347568 0.160504 -0.996307 
-0.0417905 0.130192 -0.998872 
-0.0397373 0.101014 -1.00267 
-0.0443108 0.076232 -1.00419 
-0.0441121 0.060155 -1.0049 
-0.0442441 0.0487727 -1.00521 
-0.0465549 0.0397025 -1.00536 
-0.0478042 0.0327483 -1.00565 
-0.0502392 0.0256903 -1.00595 
-0.0527147 0.0189467 -1.00602 
-0.0552037 0.0130872 -1.00593 
-0.0546906 0.00640246 -1.00618 
-0.0538202 -0.000463756 -1.00627 
-0.0548492 -0.00708879 -1.00604 
-0.0535841 -0.0114509 -1.00591 
-0.052967 -0.011819 -1.00577 
-0.0514415 -0.0114567 -1.0059 
-0.0511416 -0.0146384 -1.00611 
-0.0502397 -0.0219256 -1.00649 
-0.0487922 -0.0289944 -1.00632 
-0.0469092 -0.038572 -1.00736 
-0.049197 -0.0512556 -1.00606 
-0.0448523 -0.0682241 -1.00517 
-0.0443721 -0.089165 -1.00314 
-0.0375094 -0.113964 -1.001 
-0.0397955 -0.140091 -0.998091 
-0.0336165 -0.173187 -0.993406 
-0.0338513 -0.218913 -0.984175 
-0.0320989 -0.280599 -0.957859 
0.0479805 -0.263114 0.962584 
0.0461844 -0.218773 0.98336 
0.0456158 -0.174521 0.992702 
0.0341873 -0.141013 0.998131 
0.0379828 -0.113293 1.0011 
0.0332784 -0.0871627 1.00378 
0.0368458 -0.0670067 1.00566 
0.0336123 -0.0513526 1.00675 
0.0385381 -0.0406541 1.00649 
0.0355569 -0.0323023 1.00682 
0.0377331 -0.0234653 1.00695 
0.0397934 -0.0157064 1.00668 
0.0374286 -0.0126015 1.00656 
0.0416182 -0.0128599 1.00677 
0.0431483 -0.0129993 1.00543 
0.0426631 -0.00838251 1.00722 
0.0441336 -0.00150535 1.0058 
0.0425842 0.00571728 1.00725 
0.0421092 0.0123475 1.00584 
0.0407262 0.0186219 1.00636 
0.0389734 0.0258226 1.00626 
0.0372153 0.0330809 1.00603 
0.0357669 0.040177 1.00568 
0.0349459 0.0477814 1.00524 
0.0345154 0.0575796 1.00494 
0.0333073 0.0719742 1.00455 
0.0321903 0.0927123 1.00342 
0.0298296 0.121798 1.00121 
0.0268738 0.161423 0.996766 
0.0236632 0.215408 0.987829 
0.0156721 0.289482 0.970055 
0.00531428 0.401538 0.929593 
-0.00216893 0.530489 0.861219 
-0.00292632 0.642842 0.77863 
-0.00368456 0.705838 0.721118 
-0.00012862 0.866582 0.504476 
0.00894451 0.963509 0.256605 
0.00747968 0.999638 0.0790929 
0.00925561 1.00049 0.0358737 
0.00750793 1.00226 0.00433223 
0.00472677 1.00187 -0.0381215 
0.00081406 0.998562 -0.0862441 
-0.00144838 0.961357 -0.265826 
0.00620682 0.844685 -0.538438 
0.00569129 0.654918 -0.771081 
0.00746554 0.583852 -0.825074 
0.000470021 0.487376 -0.887454 
-0.00448216 0.404254 -0.92764 
-0.0134804 0.30709 -0.963765 
-0.0204917 0.235438 -0.982776 
-0.0258737 0.172634 -0.99483 
-0.0305917 0.125554 -1.00085 
-0.0318219 0.0883529 -1.00401 
-0.0333918 0.0701367 -1.00475 
-0.0337301 0.0561325 -1.0051 
-0.0355012 0.0457208 -1.00542 
-0.03603 0.0387139 -1.00568 
-0.0377814 0.0319396 -1.00595 
-0.0399511 0.0247453 -1.00626 
-0.0413033 0.0180424 -1.00717 
-0.044311 0.0115719 -1.00574 
-0.0427114 0.00487809 -1.00739 
-0.0425237 -0.00287556 -1.00669 
-0.0427122 -0.00965533 -1.00645 
-0.0421247 -0.0135736 -1.00622 
-0.0405452 -0.0136673 -1.00618 
-0.0399902 -0.012966 -1.00558 
-0.0387509 -0.0166557 -1.00667 
-0.0367113 -0.0239764 -1.00762 
-0.0378751 -0.0327166 -1.00583 
-0.0341914 -0.0414379 -1.00674 
-0.0378604 -0.0529221 -1.00665 
-0.0330155 -0.0682194 -1.00594 
-0.0351907 -0.0846735 -1.00406 
-0.0291562 -0.105866 -1.00206 
-0.0284664 -0.139967 -0.998419 
-0.0251629 -0.180853 -0.992068 
-0.0282167 -0.225369 -0.982431 
-0.0256782 -0.280169 -0.957892 
0.0144836 -0.264156 0.964221 
0.0244427 -0.221307 0.983309 
0.0339594 -0.177894 0.99221 
0.0233869 -0.135282 0.999034 
0.0279955 -0.106714 1.00197 
0.0208871 -0.0884868 1.00395 
0.0262203 -0.0718784 1.00573 
0.0230929 -0.0539524 1.00679 
0.0253078 -0.0406227 1.00701 
0.0233454 -0.0306082 1.00793 
0.0256388 -0.0217917 1.00697 
0.0271793 -0.0155834 1.00664 
0.0254208 -0.0147569 1.00647 
0.0291842 -0.0150925 1.00558 
0.0319154 -0.0143022 1.00628 
0.0306478 -0.00980057 1.00681 
0.0317366 -0.00198831 1.00684 
0.0306832 0.00582614 1.00687 
0.0296159 0.0129979 1.00762 
0.0290261 0.019994 1.00665 
0.0275572 0.0269286 1.00637 
0.0263532 0.0337654 1.00605 
0.0256033 0.0403157 1.00564 
0.0252715 0.0474445 1.00532 
0.0248992 0.0566718 1.00519 
0.0240085 0.0702661 1.0049 
0.0232386 0.0904051 1.00395 
0.0214006 0.11895 1.00199 