# vtk DataFile Version 3.0 
Exported using Morpho https://github.com/Morpho-lang/morpho 
ASCII 
DATASET UNSTRUCTURED_GRID 

POINTS 2146 float 
-8.32618 -2.88146 0 
-8.11405 -2.88146 0 
-7.90192 -2.88146 0 
-7.68979 -2.88146 0 
-7.47765 -2.88146 0 
-7.26552 -2.88146 0 
-7.05339 -2.88146 0 
-6.84126 -2.88146 0 
-6.62913 -2.88146 0 
-6.41699 -2.88146 0 
-6.20486 -2.88146 0 
-5.99273 -2.88146 0 
-5.7806 -2.88146 0 
-5.56847 -2.88146 0 
-5.35633 -2.88146 0 
-5.1442 -2.88146 0 
-4.93207 -2.88146 0 
-4.71994 -2.88146 0 
-4.50781 -2.88146 0 
-4.29567 -2.88146 0 
-4.08354 -2.88146 0 
-3.87141 -2.88146 0 
-3.65928 -2.88146 0 
-3.44715 -2.88146 0 
-3.23501 -2.88146 0 
-3.02288 -2.88146 0 
-2.81075 -2.88146 0 
-2.59862 -2.88146 0 
-2.38649 -2.88146 0 
-2.17435 -2.88146 0 
-1.96222 -2.88146 0 
-1.75009 -2.88146 0 
-1.53796 -2.88146 0 
-1.32583 -2.88146 0 
-1.11369 -2.88146 0 
-0.901561 -2.88146 0 
-0.689429 -2.88146 0 
-0.477297 -2.88146 0 
-0.265165 -2.88146 0 
-0.053033 -2.88146 0 
0.159099 -2.88146 0 
0.371231 -2.88146 0 
0.583363 -2.88146 0 
0.795495 -2.88146 0 
1.00763 -2.88146 0 
1.21976 -2.88146 0 
1.43189 -2.88146 0 
1.64402 -2.88146 0 
1.85616 -2.88146 0 
2.06829 -2.88146 0 
2.28042 -2.88146 0 
2.49255 -2.88146 0 
2.70468 -2.88146 0 
2.91682 -2.88146 0 
3.12895 -2.88146 0 
3.34108 -2.88146 0 
3.55321 -2.88146 0 
3.76534 -2.88146 0 
3.97748 -2.88146 0 
4.18961 -2.88146 0 
4.40174 -2.88146 0 
4.61387 -2.88146 0 
4.826 -2.88146 0 
5.03814 -2.88146 0 
5.25027 -2.88146 0 
5.4624 -2.88146 0 
5.67453 -2.88146 0 
5.88666 -2.88146 0 
6.0988 -2.88146 0 
6.31093 -2.88146 0 
6.52306 -2.88146 0 
6.73519 -2.88146 0 
6.94732 -2.88146 0 
7.15946 -2.88146 0 
7.37159 -2.88146 0 
7.58372 -2.88146 0 
7.79585 -2.88146 0 
8.00798 -2.88146 0 
8.22012 -2.88146 0 
8.53831 -2.88146 0 
-8.53831 -2.71894 0 
-8.31086 -2.65503 0 
-8.08557 -2.65995 0 
-7.85842 -2.66359 0 
-7.63632 -2.66329 0 
-7.41293 -2.667 0 
-7.18565 -2.67023 0 
-6.96469 -2.66845 0 
-6.7409 -2.67194 0 
-6.52124 -2.6696 0 
-6.30166 -2.66832 0 
-6.08491 -2.66948 0 
-5.86796 -2.66908 0 
-5.65076 -2.67058 0 
-5.43325 -2.66986 0 
-5.21752 -2.67008 0 
-5.00117 -2.67012 0 
-4.78547 -2.67017 0 
-4.57008 -2.67006 0 
-4.35347 -2.67036 0 
-4.13704 -2.67043 0 
-3.92159 -2.67018 0 
-3.70527 -2.67037 0 
-3.48926 -2.67149 0 
-3.27239 -2.67057 0 
-3.05629 -2.66968 0 
-2.84141 -2.66927 0 
-2.62605 -2.66899 0 
-2.41224 -2.67021 0 
-2.19685 -2.66925 0 
-1.98075 -2.66763 0 
-1.76784 -2.66902 0 
-1.55254 -2.66313 0 
-1.34197 -2.66461 0 
-1.12426 -2.66328 0 
-0.910739 -2.66086 0 
-0.695544 -2.66418 0 
-0.474293 -2.65776 0 
-0.273791 -2.6312 0 
-0.0752909 -2.65173 0 
0.140056 -2.64272 0 
0.34994 -2.66578 0 
0.567252 -2.65893 0 
0.779945 -2.65742 0 
0.990368 -2.66314 0 
1.20575 -2.66854 0 
1.42481 -2.66821 0 
1.64159 -2.66577 0 
1.85324 -2.66932 0 
2.07094 -2.66926 0 
2.28522 -2.66887 0 
2.49706 -2.66651 0 
2.71187 -2.66967 0 
2.92722 -2.67062 0 
3.14101 -2.67099 0 
3.35475 -2.67106 0 
3.56886 -2.6717 0 
3.78226 -2.67064 0 
3.99261 -2.66806 0 
4.20643 -2.66957 0 
4.42008 -2.67003 0 
4.63139 -2.66821 0 
4.84495 -2.66989 0 
5.06042 -2.6723 0 
5.2718 -2.66988 0 
5.4843 -2.66868 0 
5.69852 -2.6712 0 
5.9098 -2.66971 0 
6.12129 -2.66892 0 
6.33459 -2.6707 0 
6.54755 -2.66935 0 
6.76177 -2.67 0 
6.97606 -2.66896 0 
7.19097 -2.6666 0 
7.40504 -2.66296 0 
7.61958 -2.65832 0 
7.83018 -2.65137 0 
8.04172 -2.64325 0 
8.29636 -2.70968 0 
8.53831 -2.66933 0 
-8.42776 -2.46661 0 
-8.18228 -2.43994 0 
-7.95425 -2.45025 0 
-7.72863 -2.44595 0 
-7.50595 -2.45215 0 
-7.27904 -2.46468 0 
-7.05436 -2.45632 0 
-6.83088 -2.46485 0 
-6.61195 -2.45896 0 
-6.39481 -2.45882 0 
-6.17805 -2.45507 0 
-5.9669 -2.45691 0 
-5.75256 -2.45882 0 
-5.53913 -2.46029 0 
-5.32594 -2.45754 0 
-5.11402 -2.45924 0 
-4.90199 -2.45838 0 
-4.69145 -2.45772 0 
-4.4787 -2.4599 0 
-4.26527 -2.45977 0 
-4.0543 -2.45793 0 
-3.84187 -2.45952 0 
-3.62889 -2.45971 0 
-3.41676 -2.46122 0 
-3.20402 -2.45905 0 
-2.99327 -2.45636 0 
-2.78111 -2.45724 0 
-2.5705 -2.45545 0 
-2.36008 -2.45812 0 
-2.14544 -2.45796 0 
-1.93447 -2.45206 0 
-1.72665 -2.45364 0 
-1.52008 -2.44062 0 
-1.30071 -2.45319 0 
-1.09125 -2.44163 0 
-0.87287 -2.4433 0 
-0.652833 -2.45043 0 
-0.445516 -2.42 0 
-0.231184 -2.38766 0 
-0.0288811 -2.41995 0 
0.158574 -2.37571 0 
0.344157 -2.44184 0 
0.552668 -2.44064 0 
0.768439 -2.43399 0 
0.981134 -2.43826 0 
1.19039 -2.45417 0 
1.40771 -2.46014 0 
1.62955 -2.45401 0 
1.84688 -2.45094 0 
2.05588 -2.46247 0 
2.275 -2.45665 0 
2.4884 -2.451 0 
2.69985 -2.4582 0 
2.91284 -2.46141 0 
3.12886 -2.45987 0 
3.34063 -2.46083 0 
3.55371 -2.46206 0 
3.76656 -2.46035 0 
3.9792 -2.4527 0 
4.1875 -2.45873 0 
4.40125 -2.45878 0 
4.61335 -2.45392 0 
4.82353 -2.45864 0 
5.03696 -2.46421 0 
5.25116 -2.45673 0 
5.46048 -2.45744 0 
5.67518 -2.4612 0 
5.88769 -2.4565 0 
6.09687 -2.45625 0 
6.30856 -2.45979 0 
6.52063 -2.45859 0 
6.73561 -2.45959 0 
6.95081 -2.45777 0 
7.16686 -2.45454 0 
7.3853 -2.44619 0 
7.60226 -2.43887 0 
7.82112 -2.41993 0 
8.05846 -2.43486 0 
8.29512 -2.49965 0 
8.53831 -2.4572 0 
-8.53831 -2.26637 0 
-8.29619 -2.24999 0 
-8.04493 -2.23322 0 
-7.81838 -2.23401 0 
-7.58723 -2.23406 0 
-7.35797 -2.2536 0 
-7.13405 -2.2515 0 
-6.89934 -2.25576 0 
-6.67881 -2.24943 0 
-6.45764 -2.24671 0 
-6.24036 -2.24526 0 
-6.0224 -2.23878 0 
-5.81138 -2.24686 0 
-5.59571 -2.24812 0 
-5.3823 -2.24664 0 
-5.16678 -2.24605 0 
-4.95458 -2.24634 0 
-4.74202 -2.24331 0 
-4.52971 -2.24815 0 
-4.31523 -2.24943 0 
-4.10106 -2.24396 0 
-3.88866 -2.24711 0 
-3.6748 -2.24836 0 
-3.46003 -2.24827 0 
-3.24739 -2.24778 0 
-3.03296 -2.24217 0 
-2.81958 -2.24483 0 
-2.60481 -2.24142 0 
-2.39126 -2.24297 0 
-2.1779 -2.24932 0 
-1.95733 -2.23803 0 
-1.74138 -2.23249 0 
-1.50842 -2.23568 0 
-1.29951 -2.22983 0 
-1.07114 -2.23067 0 
-0.843142 -2.23157 0 
-0.629493 -2.22295 0 
-0.396893 -2.20194 0 
-0.223222 -2.09185 0 
-0.0597519 -2.171 0 
0.149528 -2.1488 0 
0.37019 -2.21069 0 
0.578659 -2.21877 0 
0.792114 -2.21193 0 
1.00333 -2.21578 0 
1.21838 -2.24257 0 
1.43681 -2.25224 0 
1.65318 -2.24145 0 
1.86293 -2.23178 0 
2.07535 -2.25397 0 
2.28559 -2.24215 0 
2.49461 -2.23241 0 
2.70178 -2.24355 0 
2.91107 -2.24823 0 
3.12206 -2.25225 0 
3.33914 -2.24799 0 
3.54957 -2.25193 0 
3.7628 -2.24963 0 
3.9722 -2.23796 0 
4.18192 -2.24217 0 
4.38956 -2.24923 0 
4.60437 -2.2416 0 
4.81712 -2.2443 0 
5.02755 -2.2543 0 
5.24081 -2.24762 0 
5.45514 -2.24186 0 
5.66376 -2.25381 0 
5.88056 -2.24513 0 
6.09194 -2.2408 0 
6.29956 -2.24808 0 
6.51095 -2.24607 0 
6.72244 -2.25069 0 
6.93894 -2.24717 0 
7.15444 -2.24276 0 
7.37136 -2.2346 0 
7.5929 -2.22073 0 
7.8279 -2.21426 0 
8.06671 -2.22524 0 
8.30125 -2.28344 0 
8.53831 -2.24506 0 
-8.42578 -2.04879 0 
-8.18786 -2.04143 0 
-7.95845 -2.01421 0 
-7.7357 -2.02151 0 
-7.50365 -2.02981 0 
-7.29055 -2.03779 0 
-7.06026 -2.05197 0 
-6.8452 -2.03979 0 
-6.6286 -2.03648 0 
-6.4151 -2.03153 0 
-6.20222 -2.03178 0 
-5.99271 -2.02075 0 
-5.78164 -2.03528 0 
-5.57192 -2.0341 0 
-5.35818 -2.0361 0 
-5.14817 -2.03206 0 
-4.93866 -2.03258 0 
-4.72734 -2.02997 0 
-4.51401 -2.03745 0 
-4.3018 -2.0375 0 
-4.08988 -2.03008 0 
-3.87666 -2.03517 0 
-3.6621 -2.03729 0 
-3.45018 -2.03425 0 
-3.23551 -2.03552 0 
-3.02074 -2.02871 0 
-2.80473 -2.03283 0 
-2.59053 -2.02744 0 
-2.3772 -2.0284 0 
-2.155 -2.04182 0 
-1.93673 -2.02333 0 
-1.69563 -2.03813 0 
-1.48575 -2.00836 0 
-1.25364 -2.02588 0 
-1.01826 -2.02486 0 
-0.79609 -2.00827 0 
-0.557467 -2.02041 0 
-0.370728 -1.92667 0 
0.318515 -1.9986 0 
0.539121 -1.99306 0 
0.748784 -1.99693 0 
0.971831 -1.99719 0 
1.19436 -2.02686 0 
1.41273 -2.04307 0 
1.633 -2.03323 0 
1.8554 -2.01659 0 
2.07329 -2.03979 0 
2.28905 -2.02823 0 
2.49991 -2.01662 0 
2.71181 -2.02707 0 
2.92397 -2.03462 0 
3.14198 -2.04558 0 
3.35424 -2.03468 0 
3.56701 -2.04138 0 
3.777 -2.03477 0 
3.98846 -2.02369 0 
4.19649 -2.02574 0 
4.40944 -2.03939 0 
4.6242 -2.03035 0 
4.8364 -2.0317 0 
5.04659 -2.04284 0 
5.25937 -2.03699 0 
5.47009 -2.02737 0 
5.68493 -2.04741 0 
5.89538 -2.03224 0 
6.10285 -2.02487 0 
6.3116 -2.03554 0 
6.52242 -2.03334 0 
6.73751 -2.04221 0 
6.95037 -2.03484 0 
7.16405 -2.02875 0 
7.38272 -2.02128 0 
7.61277 -2.01427 0 
7.84957 -2.00891 0 
8.08121 -2.01099 0 
8.30824 -2.06629 0 
8.53831 -2.03293 0 
-8.53831 -1.82848 0 
-8.301 -1.83945 0 
-8.06434 -1.81348 0 
-7.82274 -1.80246 0 
-7.58616 -1.8247 0 
-7.35081 -1.81174 0 
-7.1274 -1.84817 0 
-6.89874 -1.82576 0 
-6.6798 -1.82425 0 
-6.45869 -1.81728 0 
-6.24054 -1.81716 0 
-6.02711 -1.80583 0 
-5.81009 -1.81917 0 
-5.59909 -1.81921 0 
-5.38658 -1.82638 0 
-5.17055 -1.81856 0 
-4.95846 -1.81767 0 
-4.74825 -1.81779 0 
-4.53323 -1.82606 0 
-4.31883 -1.82476 0 
-4.1068 -1.81754 0 
-3.89166 -1.82233 0 
-3.67792 -1.82582 0 
-3.46323 -1.81952 0 
-3.25098 -1.82312 0 
-3.03632 -1.8162 0 
-2.82061 -1.82005 0 
-2.60669 -1.81195 0 
-2.39596 -1.81019 0 
-2.18633 -1.83126 0 
-1.97266 -1.81086 0 
-1.7512 -1.84049 0 
-1.53439 -1.78632 0 
-1.31789 -1.81338 0 
-1.09757 -1.81941 0 
-0.87801 -1.79626 0 
-0.644691 -1.81578 0 
-0.46569 -1.71506 0 
0.422106 -1.7896 0 
0.645196 -1.77152 0 
0.865056 -1.79062 0 
1.10628 -1.80895 0 
1.32911 -1.82562 0 
1.54336 -1.82809 0 
1.76609 -1.81836 0 
2.00634 -1.82566 0 
2.21987 -1.82246 0 
2.43547 -1.80289 0 
2.65256 -1.81046 0 
2.86478 -1.81897 0 
3.08017 -1.83548 0 
3.29219 -1.82557 0 
3.50886 -1.82768 0 
3.71801 -1.82287 0 
3.92842 -1.81455 0 
4.14337 -1.80887 0 
4.35547 -1.82462 0 
4.565 -1.82428 0 
4.78379 -1.82016 0 
4.99899 -1.8259 0 
5.20559 -1.82739 0 
5.41786 -1.81836 0 
5.63896 -1.83603 0 
5.84827 -1.82378 0 
6.06101 -1.81187 0 
6.27402 -1.81965 0 
6.48235 -1.82266 0 
6.69969 -1.83304 0 
6.9156 -1.8237 0 
7.13155 -1.81563 0 
7.34957 -1.81047 0 
7.57523 -1.80908 0 
7.81138 -1.80563 0 
8.05444 -1.79911 0 
8.29663 -1.84091 0 
8.53831 -1.8208 0 
-8.53831 -1.61337 0 
-8.30342 -1.62739 0 
-8.06628 -1.60394 0 
-7.82472 -1.59695 0 
-7.5816 -1.61812 0 
-7.33535 -1.61261 0 
-7.0915 -1.63849 0 
-6.86965 -1.6077 0 
-6.64509 -1.61256 0 
-6.4209 -1.60514 0 
[...]
POINT_DATA 2146 
VECTORS vectors float
-8.77705e-05 -0.000880679 1 
6.50363e-05 -0.0117356 0.999931 
-0.000101318 -0.0146501 0.999893 
-4.83601e-05 -0.015335 0.999882 
-5.46561e-05 -0.0147317 0.999891 
-5.63434e-05 -0.0132514 0.999912 
-5.44987e-05 -0.0115794 0.999933 
-5.51563e-05 -0.00993238 0.999951 
-5.5496e-05 -0.00831887 0.999965 
-5.50193e-05 -0.00670412 0.999978 
-5.54626e-05 -0.00511069 0.999987 
-5.55247e-05 -0.00356613 0.999994 
-5.51685e-05 -0.00207113 0.999998 
-5.5753e-05 -0.000609295 1 
-5.52026e-05 0.000866035 1 
-5.55089e-05 0.00242393 0.999997 
-5.51205e-05 0.00414479 0.999991 
-5.50808e-05 0.00612543 0.999981 
-5.46704e-05 0.00847888 0.999964 
-5.43342e-05 0.0113413 0.999936 
-5.38094e-05 0.014879 0.999889 
-5.31747e-05 0.0193049 0.999814 
-5.20867e-05 0.0248868 0.99969 
-5.13741e-05 0.0319629 0.999489 
-4.95643e-05 0.0409786 0.99916 
-4.79328e-05 0.0525011 0.998621 
-4.57274e-05 0.0672567 0.997736 
-4.24798e-05 0.0861855 0.996279 
-3.88855e-05 0.110481 0.993878 
-3.47412e-05 0.141685 0.989912 
-2.70601e-05 0.181709 0.983352 
-2.27232e-05 0.232809 0.972523 
-1.06925e-05 0.297629 0.954681 
-3.12683e-06 0.378768 0.925492 
7.00078e-06 0.478189 0.878257 
1.78877e-05 0.595135 0.803625 
1.42669e-05 0.723702 0.690112 
2.35346e-05 0.849973 0.526827 
1.66004e-06 0.949259 0.314495 
1.53398e-05 0.998043 0.0625352 
-2.14054e-05 0.980166 -0.198177 
-3.78013e-06 0.901207 -0.433389 
-2.40075e-05 0.783753 -0.621073 
-1.59381e-05 0.653917 -0.756566 
-1.20658e-05 0.530237 -0.847849 
-2.0768e-06 0.422149 -0.906526 
6.96245e-06 0.332555 -0.943084 
1.86215e-05 0.260545 -0.965462 
2.4106e-05 0.203586 -0.979057 
3.09584e-05 0.159263 -0.987236 
3.90131e-05 0.123894 -0.992295 
3.8961e-05 0.0965435 -0.995329 
4.54715e-05 0.0753037 -0.997161 
4.63585e-05 0.0587795 -0.998271 
4.92809e-05 0.045891 -0.998946 
5.04171e-05 0.035815 -0.999358 
5.17928e-05 0.0279154 -0.99961 
5.29015e-05 0.0217027 -0.999764 
5.3461e-05 0.0167793 -0.999859 
5.40452e-05 0.0128532 -0.999917 
5.47285e-05 0.00970279 -0.999953 
5.48331e-05 0.00713347 -0.999975 
5.50646e-05 0.00498911 -0.999988 
5.54352e-05 0.00316086 -0.999995 
5.56406e-05 0.00154385 -0.999999 
5.50312e-05 3.49979e-05 -1 
5.5902e-05 -0.0014281 -0.999999 
5.54749e-05 -0.00290334 -0.999996 
5.50355e-05 -0.00444147 -0.99999 
5.59758e-05 -0.00603961 -0.999982 
5.47509e-05 -0.00768905 -0.99997 
5.56067e-05 -0.00937212 -0.999956 
5.46759e-05 -0.0110746 -0.999939 
5.51193e-05 -0.0128354 -0.999918 
5.68098e-05 -0.0146161 -0.999893 
4.85611e-05 -0.0161199 -0.99987 
6.76847e-05 -0.0165055 -0.999864 
3.304e-05 -0.0162321 -0.999868 
0.000112062 -0.013529 -0.999908 
-4.37683e-05 -0.00154074 -0.999999 
-4.84581e-05 0.000188311 1 
0.00485096 -0.00771244 0.999958 
0.0066334 -0.012638 0.999898 
0.00743739 -0.0148138 0.999863 
0.00780975 -0.0147193 0.999861 
0.00804795 -0.0139348 0.999871 
0.00819064 -0.0124425 0.999889 
0.0083386 -0.0107474 0.999907 
0.00841914 -0.00903594 0.999924 
0.00852378 -0.00738683 0.999936 
0.00861898 -0.00576137 0.999946 
0.00864935 -0.00419565 0.999954 
0.00870505 -0.00267049 0.999959 
0.0087251 -0.00117194 0.999961 
0.00875307 0.000334443 0.999962 
0.00875947 0.00189223 0.99996 
0.00875703 0.00359588 0.999955 
0.00873363 0.00553038 0.999947 
0.00871025 0.00780959 0.999932 
0.00866858 0.0105875 0.999906 
0.00861217 0.0140177 0.999865 
0.00856797 0.0182919 0.999796 
0.00851073 0.0237123 0.999683 
0.00844681 0.0305937 0.999496 
0.00842992 0.0394246 0.999187 
0.00844844 0.0507072 0.998678 
0.00853477 0.0651066 0.997842 
0.00871246 0.0836555 0.996457 
0.00902956 0.10733 0.994182 
0.00964607 0.138001 0.990385 
0.0106454 0.177575 0.98405 
0.012087 0.227473 0.973709 
0.0145893 0.291335 0.95651 
0.0176278 0.369651 0.929004 
0.0217725 0.469248 0.882798 
0.0265268 0.584863 0.810698 
0.029477 0.714614 0.698898 
0.0296911 0.846567 0.531453 
0.0253477 0.943698 0.329836 
0.00652286 0.995814 0.0911692 
-0.0138996 0.983725 -0.179144 
-0.0254106 0.908487 -0.417141 
-0.0310425 0.788575 -0.614154 
-0.0294557 0.658338 -0.752146 
-0.0244719 0.535956 -0.843891 
-0.0195207 0.426279 -0.904381 
-0.0159224 0.333774 -0.942519 
-0.0133551 0.260412 -0.965405 
-0.0113228 0.20385 -0.978937 
-0.01009 0.158001 -0.987387 
-0.00933125 0.123136 -0.992346 
-0.00890627 0.0961578 -0.995326 
-0.00862084 0.0748934 -0.997154 
-0.0084889 0.0583013 -0.998263 
-0.00844648 0.0454665 -0.99893 
-0.00846899 0.0354408 -0.999336 
-0.00851426 0.0275746 -0.999583 
-0.0085812 0.0214116 -0.999734 
-0.00864349 0.0165868 -0.999825 
-0.0087011 0.0126794 -0.999882 
-0.00873091 0.00954172 -0.999916 
-0.00877618 0.00700625 -0.999937 
-0.00880294 0.0048658 -0.999949 
-0.00879732 0.00301702 -0.999957 
-0.00881758 0.00140353 -0.99996 
-0.00884919 -0.000108406 -0.999961 
-0.00880655 -0.00158775 -0.99996 
-0.00877961 -0.00305709 -0.999957 
-0.00875755 -0.00457201 -0.999951 
-0.0086917 -0.00615213 -0.999943 
-0.00862942 -0.00777957 -0.999933 
-0.0085311 -0.00945742 -0.999919 
-0.00841185 -0.0111698 -0.999902 
-0.00827096 -0.0129075 -0.999882 
-0.00809717 -0.0144906 -0.999862 
-0.00786244 -0.0156099 -0.999847 
-0.00737016 -0.0160369 -0.999844 
-0.00650529 -0.0150531 -0.999866 
-0.00494544 -0.0116113 -0.99992 
0.000221827 0.000230812 -1 
0.00344911 -0.00769267 0.999964 
0.00728453 -0.0120801 0.9999 
0.00919657 -0.014846 0.999847 
0.0100565 -0.0146415 0.999842 
0.0105646 -0.0141508 0.999844 
0.010835 -0.0130199 0.999857 
0.0112337 -0.0113765 0.999872 
0.0113512 -0.00964712 0.999889 
0.0115956 -0.00799836 0.999901 
0.0117207 -0.00640292 0.999911 
0.0118785 -0.00484621 0.999918 
0.0119494 -0.00336636 0.999923 
0.0119965 -0.00188559 0.999926 
0.0120322 -0.000410445 0.999928 
0.0121009 0.00110164 0.999926 
0.0120897 0.00270306 0.999923 
0.0120959 0.00448295 0.999917 
0.0120791 0.00652151 0.999906 
0.01201 0.0089696 0.999888 
0.0119723 0.01196 0.999857 
0.0119534 0.0156136 0.999807 
0.0118944 0.0202049 0.999725 
0.0118808 0.0260033 0.999591 
0.0118849 0.0333167 0.999374 
0.0120133 0.0426333 0.999019 
0.0122667 0.0543802 0.998445 
0.0126578 0.0694595 0.997504 
0.0133826 0.0885535 0.995982 
0.0144167 0.112916 0.9935 
0.0161399 0.144661 0.98935 
0.0189244 0.184414 0.982666 
0.0226171 0.234354 0.971888 
0.0286 0.295218 0.955002 
0.0354565 0.377673 0.92526 
0.0459657 0.472446 0.88016 
0.0569055 0.590609 0.804949 
0.0648618 0.724256 0.686474 
0.0705209 0.84671 0.52736 
0.0547592 0.951637 0.302307 
0.00771595 0.999266 0.0375283 
-0.0463574 0.974397 -0.220003 
-0.0613286 0.900597 -0.430307 
-0.0684493 0.780916 -0.620875 
-0.0632533 0.647265 -0.759636 
-0.051758 0.525509 -0.849212 
-0.039736 0.422432 -0.905523 
-0.0307677 0.332662 -0.942544 
-0.0246711 0.258669 -0.965651 
-0.020257 0.201686 -0.979241 
-0.0168477 0.158764 -0.987173 
-0.0149509 0.123201 -0.992269 
-0.0137534 0.096105 -0.995276 
-0.0128335 0.0754652 -0.997066 
-0.0123047 0.0590557 -0.998179 
-0.0120796 0.0460164 -0.998868 
-0.0119496 0.0360193 -0.99928 
-0.0118901 0.0281083 -0.999534 
-0.0119308 0.0218987 -0.999689 
-0.0120266 0.0169122 -0.999785 
-0.0119947 0.0130571 -0.999843 
-0.0120376 0.00985313 -0.999879 
-0.0121543 0.00725665 -0.9999 
-0.0121272 0.00510661 -0.999913 
-0.0120742 0.00323331 -0.999922 
-0.0121942 0.00156619 -0.999924 
-0.0121693 5.71608e-05 -0.999926 
-0.0120817 -0.00143726 -0.999926 
-0.0121108 -0.00291394 -0.999922 
-0.0120496 -0.00439128 -0.999918 
-0.0119097 -0.00592886 -0.999911 
-0.0118045 -0.00752158 -0.999902 
-0.0116231 -0.00918363 -0.99989 
-0.0114174 -0.0108925 -0.999875 
-0.0111338 -0.0126259 -0.999858 
-0.0107927 -0.0141641 -0.999841 
-0.0103112 -0.0151811 -0.999832 
-0.00957027 -0.0157327 -0.99983 
-0.00801505 -0.0150071 -0.999855 
-0.00488401 -0.0109154 -0.999928 
-0.000316772 -0.000145751 -1 
-0.000239959 -0.000110592 1 
0.00603695 -0.0104995 0.999927 
0.00892533 -0.0147591 0.999851 
0.010053 -0.0148731 0.999839 
0.0108646 -0.0143855 0.999837 
0.0115155 -0.0135184 0.999842 
0.0118996 -0.0119969 0.999857 
0.0121982 -0.0101584 0.999874 
0.0123929 -0.00847674 0.999887 
0.0125543 -0.00685001 0.999898 
0.0126886 -0.00529663 0.999905 
0.0127942 -0.00377757 0.999911 
0.0129004 -0.0023205 0.999914 
0.0129761 -0.00082751 0.999915 
0.0130214 0.000682494 0.999915 
0.0130415 0.00229173 0.999912 
0.013043 0.00403144 0.999907 
0.0130284 0.00602027 0.999897 
0.0130129 0.00836011 0.99988 
0.0129886 0.0112183 0.999853 
0.0129637 0.0147312 0.999807 
0.0129671 0.0190634 0.999734 
0.013016 0.0245368 0.999614 
0.0131353 0.0314812 0.999418 
0.0133746 0.0401855 0.999103 
0.0138191 0.0513236 0.998586 
0.014534 0.0654453 0.99775 
0.0157168 0.0835292 0.996381 
0.0174984 0.106468 0.994162 
0.0201203 0.135692 0.990547 
0.0244868 0.173854 0.984467 
0.0306804 0.221149 0.974757 
0.0400123 0.287272 0.957013 
0.0521915 0.360452 0.931317 
0.0692436 0.459502 0.885473 
0.0899854 0.578448 0.810741 
0.111299 0.703267 0.702159 
0.126262 0.842208 0.52416 
0.153775 0.916087 0.370323 
0.0400946 0.994077 0.101013 
-0.100819 0.963424 -0.248293 
-0.124088 0.855282 -0.503086 
-0.115861 0.728722 -0.674938 
-0.0973827 0.598988 -0.794814 
-0.0760824 0.486195 -0.870532 
-0.056254 0.390604 -0.918839 
-0.0423256 0.308682 -0.950223 
-0.0331361 0.242248 -0.969648 
-0.0266841 0.19125 -0.981179 
-0.0215662 0.151176 -0.988272 
-0.0185672 0.118802 -0.992744 
-0.016539 0.0936156 -0.995471 
-0.0150781 0.0741882 -0.99713 
-0.01415 0.0584245 -0.998192 
-0.0135893 0.0459265 -0.998852 
-0.0132713 0.0358139 -0.99927 
-0.0130901 0.0280945 -0.99952 
-0.0129957 0.021874 -0.999676 
-0.0130129 0.0170799 -0.999769 
-0.0129995 0.0131712 -0.999829 
-0.0130247 0.0100372 -0.999865 
-0.0130572 0.00738302 -0.999887 
-0.0130809 0.00518888 -0.999901 
-0.0131001 0.00332385 -0.999909 
-0.0131075 0.001644 -0.999913 
-0.0130818 8.11163e-05 -0.999914 
-0.0130497 -0.00138335 -0.999914 
-0.0129874 -0.00289464 -0.999911 
-0.0128883 -0.00437984 -0.999907 
-0.0127793 -0.00586921 -0.999901 
-0.0126417 -0.00743934 -0.999892 
-0.0124537 -0.0090631 -0.999881 
-0.0121882 -0.0107806 -0.999868 
-0.0118318 -0.0125192 -0.999852 
-0.011341 -0.0140321 -0.999837 
-0.0106238 -0.0149402 -0.999832 
-0.0097272 -0.0156377 -0.99983 
-0.00840754 -0.0150366 -0.999852 
-0.00571561 -0.011043 -0.999923 
8.41695e-05 -0.000108277 -1 
0.00353275 -0.00908498 0.999952 
0.00693167 -0.0127825 0.999894 
0.00867391 -0.0153123 0.999845 
0.00971711 -0.0148127 0.999843 
0.0105646 -0.0142892 0.999842 
0.0111097 -0.0132172 0.999851 
0.0115466 -0.0114758 0.999867 
0.0117999 -0.00976307 0.999883 
0.012024 -0.00812191 0.999895 
0.0122035 -0.00656712 0.999904 
0.0123647 -0.00506392 0.999911 
0.0124728 -0.00361811 0.999916 
0.0126089 -0.00215834 0.999918 
0.0126852 -0.000695529 0.999919 
0.0127448 0.000835929 0.999918 
0.0127683 0.00242601 0.999916 
0.0127815 0.00416654 0.99991 
0.0127749 0.0061653 0.999899 
0.0127827 0.00853984 0.999882 
0.0127815 0.0113861 0.999853 
0.0127872 0.0148624 0.999808 
0.0128533 0.0192037 0.999733 
0.0129843 0.024665 0.999611 
0.0132219 0.0314358 0.999418 
0.0136419 0.0400914 0.999103 
0.0143435 0.051003 0.998595 
0.0154399 0.0649904 0.997766 
0.0171529 0.0824619 0.996447 
0.0196868 0.104562 0.994323 
0.0234465 0.13416 0.990682 
0.0294248 0.16992 0.985018 
0.0383908 0.222148 0.974257 
0.0511519 0.276031 0.959787 
0.068732 0.355097 0.932299 
0.0946599 0.451523 0.887224 
0.129198 0.556047 0.821048 
0.169075 0.69287 0.70096 
0.239526 0.761538 0.602235 
-0.218863 0.818589 -0.531047 
-0.179543 0.687521 -0.703618 
-0.138035 0.57276 -0.808018 
-0.102451 0.462586 -0.880635 
-0.0735772 0.373637 -0.924652 
-0.0540868 0.298587 -0.952849 
-0.0410327 0.23484 -0.971167 
-0.0318659 0.183415 -0.982519 
-0.0249947 0.144954 -0.989123 
-0.0208332 0.114062 -0.993255 
-0.0180422 0.0902802 -0.995753 
-0.015993 0.071231 -0.997332 
-0.0147119 0.0562981 -0.998306 
-0.0138735 0.0441292 -0.998929 
-0.0133834 0.0346982 -0.999308 
-0.0130952 0.0272387 -0.999543 
-0.012931 0.0213573 -0.999688 
-0.0128417 0.0166293 -0.999779 
-0.0128102 0.0128789 -0.999835 
-0.0128231 0.00975324 -0.99987 
-0.0128122 0.00715697 -0.999892 
-0.0128255 0.00500525 -0.999905 
-0.0128522 0.00316255 -0.999912 
-0.0128319 0.00149054 -0.999917 
-0.0127906 -5.32749e-05 -0.999918 
-0.0127855 -0.00156889 -0.999917 
-0.0126815 -0.0030455 -0.999915 
-0.012563 -0.00450333 -0.999911 
-0.0124519 -0.0059917 -0.999905 
-0.0122709 -0.00755004 -0.999896 
-0.0120617 -0.00919957 -0.999885 
-0.0117497 -0.0108968 -0.999872 
-0.0113497 -0.0126312 -0.999856 
-0.0108138 -0.0141455 -0.999841 
-0.0100404 -0.0150356 -0.999837 
-0.00897094 -0.0155684 -0.999839 
-0.00766837 -0.0148431 -0.99986 
-0.00543116 -0.0111266 -0.999923 
-3.70001e-06 -0.000104195 -1 
-0.000226028 3.94215e-05 1 
0.00518347 -0.0108294 0.999928 
0.00745912 -0.0148271 0.999862 
0.00874728 -0.0151953 0.999846 
0.00976887 -0.0147026 0.999844 
0.010316 -0.0136635 0.999853 
0.0109138 -0.0120774 0.999868 
0.0111424 -0.010233 0.999886 
0.0113906 -0.00854896 0.999899 
0.0115747 -0.00692769 0.999909 
0.011753 -0.00538639 0.999916 
0.011856 -0.00391524 0.999922 
0.0120292 -0.00241081 0.999925 
0.0121208 -0.000932465 0.999926 
0.0122123 0.000595013 0.999925 
0.0122229 0.0022242 0.999923 
0.0122438 0.00396923 0.999917 
0.0122579 0.00592426 0.999907 
0.0122979 0.00826383 0.99989 
0.0123158 0.0110592 0.999863 
0.0123428 0.0144224 0.99982 
0.0124625 0.018643 0.999749 
0.0126643 0.0238614 0.999635 
0.0129783 0.0303962 0.999454 
0.013523 0.0385192 0.999166 
0.0143684 0.0487826 0.998706 
0.0157004 0.061839 0.997963 
0.0176908 0.0779851 0.996798 
0.0205904 0.0979732 0.994976 
0.0246809 0.123413 0.992048 
0.0309264 0.154311 0.987538 
0.0398177 0.197227 0.979549 
0.0534664 0.242291 0.968729 
0.0713836 0.305891 0.949387 
0.0973213 0.380535 0.919631 
0.135211 0.462006 0.876509 
0.189036 0.570366 0.799342 
0.264951 0.606041 0.75001 
-0.267919 0.654581 -0.706926 
-0.191895 0.548649 -0.813732 
-0.136732 0.460592 -0.877017 
-0.0951799 0.371265 -0.923636 
-0.0688361 0.300133 -0.951411 
-0.0513248 0.241299 -0.969093 
-0.0387164 0.190544 -0.980915 
-0.0292324 0.147973 -0.988559 
-0.0236137 0.117621 -0.992778 
-0.0197506 0.0928619 -0.995483 
-0.0170338 0.0734872 -0.997151 
-0.0152737 0.0583663 -0.998178 
-0.0141259 0.0461785 -0.998833 
-0.0133771 0.0364735 -0.999245 
-0.0129086 0.0286365 -0.999507 
-0.0126214 0.022577 -0.999665 
-0.0124328 0.0176785 -0.999766 
-0.0123201 0.0136498 -0.999831 
-0.0123362 0.0104283 -0.99987 
-0.0123206 0.00779329 -0.999894 
-0.0122978 0.00548866 -0.999909 
-0.0123167 0.00354382 -0.999918 
-0.0123139 0.00187836 -0.999922 
-0.0122517 0.000291048 -0.999925 
-0.0122679 -0.00129152 -0.999924 
-0.0121495 -0.00277232 -0.999922 
-0.0119928 -0.00427106 -0.999919 
-0.0118836 -0.00577849 -0.999913 
-0.0117235 -0.0072999 -0.999905 
-0.0115332 -0.00894932 -0.999893 
-0.0112084 -0.010663 -0.99988 
-0.0108135 -0.0124442 -0.999864 
-0.0103195 -0.0140499 -0.999848 
-0.00964529 -0.0149956 -0.999841 
-0.00865863 -0.0155525 -0.999842 
-0.0073118 -0.0151477 -0.999859 
-0.0052421 -0.0110655 -0.999925 
4.57256e-06 -0.000119127 -1 
5.66798e-05 -0.000258181 1 
0.00475637 -0.0111286 0.999927 
0.00673196 -0.0147457 0.999869 
0.00787462 -0.0153109 0.999852 
0.00881492 -0.0148076 0.999852 
0.00935494 -0.0136703 0.999863 
0.00990646 -0.0118264 0.999881 
0.0100179 -0.0100692 0.999899 
0.0102937 -0.00835358 0.999912 
0.0104515 -0.00672229 0.999923 
0.0105841 -0.00521237 0.99993 
0.0107295 -0.0036578 0.999936 
0.0108642 -0.00218095 0.999939 
0.0109762 -0.00065587 0.99994 
0.0110951 0.000913022 0.999938 
0.0110665 0.00257026 0.999935 
0.0110744 0.00434664 0.999929 
0.0111532 0.00642597 0.999917 
0.0112129 0.00883178 0.999898 
0.0112251 0.0116641 0.999869 
0.0113259 0.0152502 0.99982 
0.0115082 0.0195964 0.999742 
0.0118035 0.0249496 0.999619 
0.0122371 0.0316696 0.999423 
0.0129837 0.0400309 0.999114 
0.0141325 0.0508106 0.998608 
0.0158194 0.0639043 0.997831 
0.018287 0.0800294 0.996625 
0.0219838 0.100539 0.99469 
0.0269926 0.124939 0.991797 
0.0329312 0.147137 0.988568 
0.0403426 0.179035 0.983015 
0.0544592 0.221071 0.973736 
0.0750629 0.277886 0.957677 
0.102773 0.340953 0.934446 
0.148586 0.42015 0.895208 
0.196627 0.472557 0.859085 
-0.259852 0.526545 -0.809461 
-0.178185 0.449286 -0.875438 
-0.124235 0.38236 -0.915623 
-0.0881353 0.311147 -0.946266 
-0.0650782 0.254819 -0.964796 
-0.0484118 0.206675 -0.977211 
-0.0355088 0.162321 -0.986099 
-0.0275156 0.128311 -0.991352 
-0.0222504 0.102992 -0.994433 
-0.0183229 0.0811001 -0.996538 
-0.0158145 0.064693 -0.99778 
-0.0141692 0.0514735 -0.998574 
-0.0130919 0.0412029 -0.999065 
-0.012341 0.0325151 -0.999395 
-0.0118293 0.0257799 -0.999598 
-0.0115145 0.0203964 -0.999726 
-0.0113202 0.015916 -0.999809 
-0.0112065 0.0122167 -0.999863 
-0.0111936 0.00936274 -0.999894 
-0.0112237 0.00688124 -0.999913 
-0.0111756 0.0047245 -0.999926 
-0.0111136 0.0029508 -0.999934 
-0.0111296 0.00133987 -0.999937 
-0.0111664 -0.000311916 -0.999938 
-0.0110713 -0.00177956 -0.999937 
-0.0109311 -0.00326677 -0.999935 
-0.0107732 -0.00478644 -0.999931 
-0.0106263 -0.00624961 -0.999924 
-0.0105432 -0.00782095 -0.999914 
-0.0103251 -0.00942597 -0.999902 
-0.00996876 -0.0111227 -0.999888 
-0.00957716 -0.0128736 -0.999871 
-0.009137 -0.0144023 -0.999855 
-0.00853183 -0.0152591 -0.999847 
-0.00762947 -0.0157014 -0.999848 
-0.00639177 -0.0147194 -0.999871 
-0.00460883 -0.0111234 -0.999928 
4.4927e-07 -9.62751e-05 -1 
-2.55723e-05 -4.20733e-05 1 
0.0041888 -0.0111689 0.999929 
0.00585071 -0.0149627 0.999871 
0.00677515 -0.0154383 0.999858 
0.00762179 -0.0148675 0.99986 
0.00788787 -0.0138764 0.999873 
0.00853863 -0.0122936 0.999888 
0.00852876 -0.0104925 0.999909 
0.00879111 -0.00877804 0.999923 
0.00897174 -0.00717521 0.999934 
0.00905547 -0.00563868 0.999943 
0.0092701 -0.0041486 0.999948 
0.00931971 -0.00262253 0.999953 
0.0094655 -0.00113678 0.999955 
0.00959562 0.000413919 0.999954 
0.00961562 0.00198861 0.999952 
0.00957718 0.00372083 0.999947 
0.00969286 0.00565837 0.999937 
0.00975228 0.00790011 0.999921 
0.00976011 0.0104782 0.999897 
0.00991128 0.0136608 0.999858 
0.0100566 0.0176106 0.999794 
0.0103317 0.0223755 0.999696 
0.010756 0.0282006 0.999544 
0.0114288 0.0356268 0.9993 
0.0125036 0.0448573 0.998915 
0.0140176 0.0564163 0.998309 
0.0161982 0.0702448 0.997398 
0.0195231 0.0879036 0.995938 
0.0241124 0.108849 0.993766 
0.0322744 0.140141 0.989605 
0.0450809 0.182531 0.982166 
0.0630209 0.229247 0.971326 
0.0855217 0.27771 0.956851 
0.1201 0.341097 0.932325 
0.153914 0.372511 0.915176 
0.234686 0.457834 0.857502 
-0.225347 0.441039 -0.868736 
-0.161848 0.385354 -0.908464 
-0.12307 0.345346 -0.930371 
-0.0883565 0.286761 -0.953919 
-0.0638292 0.232676 -0.970458 
-0.0483891 0.193012 -0.980003 
-0.0371551 0.159976 -0.986421 
-0.0279795 0.125921 -0.991646 
-0.0219693 0.100502 -0.994694 
-0.0181773 0.0818513 -0.996479 
-0.015164 0.0649033 -0.997776 
-0.0133596 0.0522006 -0.998547 
-0.0120537 0.0418592 -0.999051 
-0.0112799 0.0336948 -0.999369 
-0.0106098 0.0267774 -0.999585 
-0.0101873 0.0212688 -0.999722 
-0.00999047 0.0168185 -0.999809 
-0.0098544 0.0130374 -0.999866 
-0.00969765 0.00991952 -0.999904 
-0.00977681 0.00744457 -0.999924 
-0.0097791 0.005275 -0.999938 
-0.0095988 0.00335858 -0.999948 
-0.00958129 0.00169043 -0.999953 
-0.00979054 0.000113312 -0.999952 
-0.00957184 -0.00146319 -0.999953 
-0.00948583 -0.00294573 -0.999951 
-0.00937942 -0.0044623 -0.999946 
-0.00913979 -0.00599686 -0.99994 
-0.00914772 -0.00756137 -0.99993 
-0.00891789 -0.00918046 -0.999918 
-0.00860144 -0.010856 -0.999904 
-0.00823049 -0.0126407 -0.999886 
-0.00786885 -0.0142663 -0.999867 
-0.00741462 -0.0152247 -0.999857 
-0.0067034 -0.0157399 -0.999854 
-0.00563396 -0.0152581 -0.999868 
-0.00406895 -0.0112196 -0.999929 
1.20316e-05 -0.000116338 -1 
-1.00425e-05 -0.000122406 1 
0.00346951 -0.0111832 0.999931 
0.00481031 -0.0149832 0.999876 
0.00557499 -0.0154961 0.999864 
0.00629688 -0.0149412 0.999869 
0.00654119 -0.0139175 0.999882 
0.00710613 -0.0122371 0.9999 
0.00711773 -0.0103968 0.999921 
0.00736464 -0.00868069 0.999935 
0.00754526 -0.00705196 0.999947 