# vtk DataFile Version 3.0 
Exported using Morpho https://github.com/Morpho-lang/morpho 
ASCII 
DATASET UNSTRUCTURED_GRID 

POINTS 2233 float 
-8.32618 -2.88146 0 
-8.11405 -2.88146 0 
-7.90192 -2.88146 0 
-7.68979 -2.88146 0 
-7.47765 -2.88146 0 
-7.26552 -2.88146 0 
-7.05339 -2.88146 0 
-6.84126 -2.88146 0 
-6.62913 -2.88146 0 
-6.41699 -2.88146 0 
-6.20486 -2.88146 0 
-5.99273 -2.88146 0 
-5.7806 -2.88146 0 
-5.56847 -2.88146 0 
-5.35633 -2.88146 0 
-5.1442 -2.88146 0 
-4.93207 -2.88146 0 
-4.71994 -2.88146 0 
-4.50781 -2.88146 0 
-4.29567 -2.88146 0 
-4.08354 -2.88146 0 
-3.87141 -2.88146 0 
-3.65928 -2.88146 0 
-3.44715 -2.88146 0 
-3.23501 -2.88146 0 
-3.02288 -2.88146 0 
-2.81075 -2.88146 0 
-2.59862 -2.88146 0 
-2.38649 -2.88146 0 
-2.17435 -2.88146 0 
-1.96222 -2.88146 0 
-1.75009 -2.88146 0 
-1.53796 -2.88146 0 
-1.32583 -2.88146 0 
-1.11369 -2.88146 0 
-0.901561 -2.88146 0 
-0.689429 -2.88146 0 
-0.477297 -2.88146 0 
-0.265165 -2.88146 0 
-0.053033 -2.88146 0 
0.159099 -2.88146 0 
0.371231 -2.88146 0 
0.583363 -2.88146 0 
0.795495 -2.88146 0 
1.00763 -2.88146 0 
1.21976 -2.88146 0 
1.43189 -2.88146 0 
1.64402 -2.88146 0 
1.85616 -2.88146 0 
2.06829 -2.88146 0 
2.28042 -2.88146 0 
2.49255 -2.88146 0 
2.70468 -2.88146 0 
2.91682 -2.88146 0 
3.12895 -2.88146 0 
3.34108 -2.88146 0 
3.55321 -2.88146 0 
3.76534 -2.88146 0 
3.97748 -2.88146 0 
4.18961 -2.88146 0 
4.40174 -2.88146 0 
4.61387 -2.88146 0 
4.826 -2.88146 0 
5.03814 -2.88146 0 
5.25027 -2.88146 0 
5.4624 -2.88146 0 
5.67453 -2.88146 0 
5.88666 -2.88146 0 
6.0988 -2.88146 0 
6.31093 -2.88146 0 
6.52306 -2.88146 0 
6.73519 -2.88146 0 
6.94732 -2.88146 0 
7.15946 -2.88146 0 
7.37159 -2.88146 0 
7.58372 -2.88146 0 
7.79585 -2.88146 0 
8.00798 -2.88146 0 
8.22012 -2.88146 0 
8.53831 -2.88146 0 
-8.53831 -2.74124 0 
-8.26388 -2.67411 0 
-8.03506 -2.65485 0 
-7.81036 -2.66533 0 
-7.58032 -2.67503 0 
-7.33955 -2.67616 0 
-7.12 -2.67188 0 
-6.89011 -2.66999 0 
-6.66836 -2.66577 0 
-6.44821 -2.66684 0 
-6.22656 -2.6666 0 
-6.00681 -2.66732 0 
-5.78754 -2.66704 0 
-5.56989 -2.66504 0 
-5.3524 -2.66865 0 
-5.13643 -2.66903 0 
-4.92222 -2.66961 0 
-4.70891 -2.66936 0 
-4.49692 -2.66919 0 
-4.28374 -2.67097 0 
-4.07159 -2.66921 0 
-3.85996 -2.67021 0 
-3.65008 -2.66819 0 
-3.43822 -2.67019 0 
-3.22682 -2.67058 0 
-3.01415 -2.67257 0 
-2.80198 -2.67178 0 
-2.5889 -2.67176 0 
-2.37867 -2.67037 0 
-2.16986 -2.66891 0 
-1.95466 -2.67167 0 
-1.74604 -2.6688 0 
-1.53278 -2.67324 0 
-1.31976 -2.67489 0 
-1.10161 -2.68107 0 
-0.890775 -2.67513 0 
-0.674046 -2.67822 0 
-0.466015 -2.67065 0 
-0.248524 -2.677 0 
-0.0406509 -2.66875 0 
0.179842 -2.68011 0 
0.390188 -2.67382 0 
0.602468 -2.67428 0 
0.817543 -2.67443 0 
1.02547 -2.66862 0 
1.24191 -2.6767 0 
1.45526 -2.67394 0 
1.66492 -2.67042 0 
1.88198 -2.67639 0 
2.0917 -2.67109 0 
2.30671 -2.6735 0 
2.51885 -2.67022 0 
2.72914 -2.6675 0 
2.94199 -2.66907 0 
3.15552 -2.67039 0 
3.37068 -2.67213 0 
3.58157 -2.66923 0 
3.79794 -2.67407 0 
4.00973 -2.67135 0 
4.22222 -2.66867 0 
4.43474 -2.66994 0 
4.64848 -2.6703 0 
4.86292 -2.66921 0 
5.07521 -2.66908 0 
5.28758 -2.66678 0 
5.49995 -2.6686 0 
5.71266 -2.6677 0 
5.92484 -2.66995 0 
6.13892 -2.66939 0 
6.35027 -2.66982 0 
6.56026 -2.66813 0 
6.77899 -2.67618 0 
6.98994 -2.66971 0 
7.20382 -2.66978 0 
7.41968 -2.66743 0 
7.63566 -2.66273 0 
7.85405 -2.66024 0 
8.0706 -2.65048 0 
8.31604 -2.72443 0 
8.53831 -2.66933 0 
-8.43268 -2.52938 0 
-8.19758 -2.4508 0 
-7.96769 -2.43597 0 
-7.74818 -2.45697 0 
-7.50489 -2.48731 0 
-7.29699 -2.455 0 
-7.06828 -2.47101 0 
-6.85197 -2.45504 0 
-6.63517 -2.45059 0 
-6.41563 -2.45492 0 
-6.19716 -2.45371 0 
-5.97932 -2.45528 0 
-5.7634 -2.45414 0 
-5.5471 -2.45396 0 
-5.33236 -2.45733 0 
-5.11954 -2.45634 0 
-4.908 -2.45729 0 
-4.69776 -2.45585 0 
-4.48516 -2.45823 0 
-4.27329 -2.46012 0 
-4.06113 -2.45688 0 
-3.85258 -2.45642 0 
-3.64344 -2.45218 0 
-3.43663 -2.45904 0 
-3.22599 -2.45846 0 
-3.01586 -2.46357 0 
-2.8007 -2.46371 0 
-2.5938 -2.45722 0 
-2.38474 -2.45743 0 
-2.17616 -2.45363 0 
-1.96963 -2.46543 0 
-1.75197 -2.45236 0 
-1.54674 -2.46387 0 
-1.33655 -2.46736 0 
-1.12399 -2.4812 0 
-0.909239 -2.46736 0 
-0.695812 -2.4765 0 
-0.479968 -2.45622 0 
-0.270807 -2.47292 0 
-0.0564356 -2.45301 0 
0.154652 -2.47983 0 
0.371589 -2.46283 0 
0.581255 -2.4645 0 
0.792208 -2.46924 0 
1.00757 -2.45333 0 
1.21623 -2.47177 0 
1.429 -2.46764 0 
1.64226 -2.45793 0 
1.85252 -2.47275 0 
2.06609 -2.4586 0 
2.27469 -2.46666 0 
2.48794 -2.45945 0 
2.69862 -2.45237 0 
2.90765 -2.45608 0 
3.11856 -2.45881 0 
3.33065 -2.46355 0 
3.5429 -2.45563 0 
3.75426 -2.46721 0 
3.96683 -2.45956 0 
4.17577 -2.458 0 
4.39008 -2.45682 0 
4.60015 -2.45941 0 
4.81365 -2.45984 0 
5.02946 -2.45511 0 
5.23902 -2.45416 0 
5.45365 -2.45415 0 
5.6639 -2.45581 0 
5.87875 -2.45627 0 
6.08955 -2.46137 0 
6.30714 -2.45691 0 
6.51643 -2.45461 0 
6.73272 -2.47391 0 
6.9509 -2.45844 0 
7.16556 -2.4597 0 
7.38388 -2.45817 0 
7.60733 -2.44986 0 
7.83407 -2.44625 0 
8.06348 -2.4318 0 
8.29688 -2.51255 0 
8.53831 -2.4572 0 
-8.53831 -2.27441 0 
-8.33382 -2.28711 0 
-8.07142 -2.23822 0 
-7.81724 -2.23043 0 
-7.57878 -2.29712 0 
-7.35179 -2.23379 0 
-7.13038 -2.26645 0 
-6.90852 -2.24206 0 
-6.68995 -2.2353 0 
-6.4686 -2.24145 0 
-6.24822 -2.24152 0 
-6.02738 -2.243 0 
-5.80894 -2.2416 0 
-5.59181 -2.2427 0 
-5.37461 -2.24533 0 
-5.15967 -2.24411 0 
-4.94517 -2.24358 0 
-4.73442 -2.2421 0 
-4.52209 -2.24719 0 
-4.30812 -2.24884 0 
-4.09626 -2.24794 0 
-3.87993 -2.2412 0 
-3.67227 -2.24053 0 
-3.45733 -2.24189 0 
-3.25055 -2.24713 0 
-3.03738 -2.25145 0 
-2.82631 -2.25823 0 
-2.60915 -2.24154 0 
-2.40132 -2.24533 0 
-2.18962 -2.23907 0 
-1.98047 -2.24812 0 
-1.77416 -2.25129 0 
-1.54751 -2.24676 0 
-1.3413 -2.25704 0 
-1.12727 -2.27646 0 
-0.905092 -2.26239 0 
-0.691501 -2.26912 0 
-0.474111 -2.24494 0 
-0.25746 -2.26082 0 
-0.046116 -2.23401 0 
0.163644 -2.27216 0 
0.37475 -2.2474 0 
0.587167 -2.25127 0 
0.805289 -2.26247 0 
1.02083 -2.24302 0 
1.23413 -2.26293 0 
1.44911 -2.26036 0 
1.65557 -2.24279 0 
1.86358 -2.265 0 
2.07418 -2.24646 0 
2.28705 -2.25864 0 
2.49863 -2.24761 0 
2.70948 -2.23785 0 
2.91593 -2.23747 0 
3.12161 -2.24585 0 
3.33261 -2.25268 0 
3.54279 -2.24368 0 
3.75712 -2.25723 0 
3.96448 -2.24461 0 
4.1837 -2.25084 0 
4.39339 -2.2423 0 
4.60752 -2.24891 0 
4.82619 -2.25207 0 
5.03346 -2.23771 0 
5.25113 -2.24467 0 
5.45994 -2.23793 0 
5.67737 -2.24716 0 
5.88717 -2.24188 0 
6.10769 -2.25723 0 
6.31544 -2.24121 0 
6.52134 -2.23705 0 
6.72914 -2.26911 0 
6.93676 -2.24399 0 
7.14923 -2.24842 0 
7.36525 -2.24823 0 
7.58607 -2.24229 0 
7.81704 -2.2378 0 
8.05154 -2.22127 0 
8.29458 -2.29814 0 
8.53831 -2.24506 0 
-8.42548 -2.03821 0 
-8.21382 -2.07097 0 
-7.94631 -2.04274 0 
-7.73896 -1.95672 0 
-7.5927 -2.09617 0 
-7.35897 -2.02713 0 
-7.12388 -2.05498 0 
-6.90234 -2.02551 0 
-6.67409 -2.02425 0 
-6.4487 -2.0302 0 
-6.22275 -2.03214 0 
-5.99993 -2.03219 0 
-5.77862 -2.03094 0 
-5.55864 -2.03323 0 
-5.34139 -2.03421 0 
-5.12379 -2.0337 0 
-4.9126 -2.02828 0 
-4.69863 -2.03087 0 
-4.48465 -2.03769 0 
-4.27476 -2.03587 0 
-4.05764 -2.04104 0 
-3.85051 -2.02325 0 
-3.63462 -2.03366 0 
-3.42802 -2.02461 0 
-3.21677 -2.03759 0 
-3.00819 -2.03924 0 
-2.79549 -2.05018 0 
-2.58624 -2.02535 0 
-2.37729 -2.03294 0 
-2.16894 -2.02424 0 
-1.96451 -2.02977 0 
-1.73756 -2.05498 0 
-1.5296 -2.0285 0 
-1.31446 -2.05016 0 
-1.0992 -2.07396 0 
-0.890742 -2.04467 0 
-0.683421 -2.053 0 
-0.480116 -2.01301 0 
-0.273632 -2.04349 0 
-0.0595491 -2.012 0 
0.160125 -2.05383 0 
0.36944 -2.01998 0 
0.575659 -2.03215 0 
0.787469 -2.05364 0 
1.02109 -2.04714 0 
1.25379 -2.05581 0 
1.45657 -2.0419 0 
1.66281 -2.02475 0 
1.86763 -2.05404 0 
2.0708 -2.02939 0 
2.27758 -2.04923 0 
2.48705 -2.03655 0 
2.69903 -2.0267 0 
2.91313 -2.01916 0 
3.11965 -2.02577 0 
3.32325 -2.03787 0 
3.52966 -2.02747 0 
3.73712 -2.04808 0 
3.94835 -2.0278 0 
4.15516 -2.04736 0 
4.37476 -2.02775 0 
4.58515 -2.03757 0 
4.79965 -2.04656 0 
5.01698 -2.01896 0 
5.22478 -2.03708 0 
5.44186 -2.0206 0 
5.65093 -2.03975 0 
5.86732 -2.02725 0 
6.07944 -2.05399 0 
6.29675 -2.02633 0 
6.50457 -2.01933 0 
6.71507 -2.05455 0 
6.93253 -2.03614 0 
7.14951 -2.03572 0 
7.36435 -2.03534 0 
7.5866 -2.02951 0 
7.81104 -2.03026 0 
8.05206 -2.01628 0 
8.29484 -2.08826 0 
8.53831 -2.03293 0 
-8.53831 -1.8324 0 
-8.30242 -1.82082 0 
-8.08077 -1.87137 0 
-7.86248 -1.77927 0 
-7.5131 -1.864 0 
-7.32656 -1.74706 0 
-7.16226 -1.84336 0 
-6.9469 -1.81378 0 
-6.72062 -1.81529 0 
-6.49138 -1.81828 0 
-6.26769 -1.82306 0 
-6.0437 -1.82249 0 
-5.82202 -1.82175 0 
-5.60094 -1.82314 0 
-5.38265 -1.82323 0 
-5.16571 -1.82505 0 
-4.95001 -1.81357 0 
-4.73799 -1.8191 0 
-4.52315 -1.82614 0 
-4.31159 -1.82099 0 
-4.10043 -1.83546 0 
-3.88758 -1.80937 0 
-3.67446 -1.82597 0 
-3.46158 -1.80918 0 
-3.25104 -1.82407 0 
-3.04114 -1.82367 0 
-2.83182 -1.83908 0 
-2.62366 -1.81677 0 
-2.40732 -1.81784 0 
-2.19994 -1.81057 0 
-1.98919 -1.80935 0 
-1.77803 -1.85586 0 
-1.55658 -1.81413 0 
-1.34034 -1.83849 0 
-1.12168 -1.86067 0 
-0.901514 -1.83015 0 
-0.685065 -1.82314 0 
-0.46787 -1.78059 0 
-0.256296 -1.81199 0 
-0.0580916 -1.75523 0 
0.137633 -1.82921 0 
0.342032 -1.78153 0 
0.550083 -1.79436 0 
0.75753 -1.82853 0 
0.968422 -1.85199 0 
1.21054 -1.86111 0 
1.43428 -1.81993 0 
1.63545 -1.81082 0 
1.85171 -1.83689 0 
2.06129 -1.8174 0 
2.27287 -1.83562 0 
2.48571 -1.82668 0 
2.69592 -1.81391 0 
2.9073 -1.812 0 
3.12666 -1.80936 0 
3.33571 -1.81844 0 
3.54683 -1.8145 0 
3.75875 -1.83483 0 
3.96962 -1.81274 0 
4.18609 -1.84304 0 
4.40195 -1.81487 0 
4.61627 -1.82852 0 
4.82945 -1.83533 0 
5.04264 -1.80221 0 
5.25506 -1.82732 0 
5.46925 -1.80659 0 
5.68134 -1.83099 0 
5.89504 -1.81457 0 
6.10233 -1.84614 0 
6.31186 -1.80999 0 
6.52727 -1.81102 0 
6.73854 -1.84763 0 
6.95457 -1.82631 0 
7.1627 -1.81852 0 
7.38049 -1.82253 0 
7.60042 -1.81414 0 
7.83216 -1.82364 0 
8.06732 -1.80549 0 
8.29969 -1.87882 0 
8.53831 -1.8208 0 
-8.53831 -1.61586 0 
-8.30939 -1.59584 0 
[...]
POINT_DATA 2233 
VECTORS vectors float
-7.06035e-06 -0.000620742 1 
0.000207548 -0.0122316 0.999925 
7.56736e-05 -0.0149482 0.999888 
0.000123865 -0.0150743 0.999886 
0.000106613 -0.0138508 0.999904 
0.000113042 -0.0121497 0.999926 
0.000111993 -0.0104479 0.999945 
0.000111719 -0.0088085 0.999961 
0.000112193 -0.00713367 0.999975 
0.000111762 -0.00537193 0.999986 
0.000111863 -0.00353703 0.999994 
0.0001118 -0.00163407 0.999999 
0.000111899 0.000331525 1 
0.000111481 0.00239829 0.999997 
0.000111675 0.00460284 0.999989 
0.000111127 0.00705564 0.999975 
0.000110719 0.00987936 0.999951 
0.000109885 0.0132099 0.999913 
0.000108781 0.0172212 0.999852 
0.000107504 0.0221103 0.999756 
0.000105507 0.0281346 0.999604 
0.000103867 0.0355942 0.999366 
0.000100015 0.0448746 0.998993 
9.76023e-05 0.0564894 0.998403 
9.23323e-05 0.0708718 0.997485 
8.71046e-05 0.0888973 0.996041 
8.11312e-05 0.111184 0.9938 
7.17458e-05 0.138894 0.990307 
6.10262e-05 0.173482 0.984837 
4.93206e-05 0.216155 0.976359 
3.26931e-05 0.268406 0.963306 
1.54239e-05 0.332041 0.943265 
-6.84837e-06 0.408156 0.912912 
-2.88616e-05 0.497384 0.86753 
-5.33316e-05 0.598308 0.801267 
-7.09304e-05 0.706818 0.707395 
-7.95897e-05 0.814399 0.580305 
-7.28257e-05 0.90877 0.417297 
-4.28997e-05 0.974843 0.222891 
-4.11252e-06 0.999955 0.00948821 
4.07046e-05 0.97878 -0.204913 
6.78108e-05 0.915854 -0.401512 
7.96366e-05 0.823308 -0.567596 
7.13393e-05 0.716048 -0.698051 
5.38062e-05 0.607161 -0.794579 
3.09217e-05 0.505236 -0.862981 
7.50013e-06 0.414911 -0.909862 
-1.31241e-05 0.33765 -0.941272 
-3.29982e-05 0.273102 -0.961985 
-4.74324e-05 0.220003 -0.975499 
-6.08422e-05 0.176634 -0.984277 
-7.13392e-05 0.141522 -0.989935 
-7.96653e-05 0.113189 -0.993573 
-8.68141e-05 0.0903964 -0.995906 
-9.21698e-05 0.0721336 -0.997395 
-9.71391e-05 0.0574935 -0.998346 
-0.000100171 0.045738 -0.998953 
-0.000103407 0.0362988 -0.999341 
-0.000105584 0.0287186 -0.999588 
-0.000107327 0.0225916 -0.999745 
-0.000108747 0.0176234 -0.999845 
-0.000109828 0.0135705 -0.999908 
-0.000110652 0.0102181 -0.999948 
-0.000111369 0.00739586 -0.999973 
-0.000111652 0.00495655 -0.999988 
-0.000112039 0.00278185 -0.999996 
-0.000112117 0.000771826 -1 
-0.000112338 -0.0011517 -0.999999 
-0.000111913 -0.00303329 -0.999995 
-0.000112715 -0.00488786 -0.999988 
-0.000111806 -0.00671204 -0.999977 
-0.000112542 -0.00846874 -0.999964 
-0.000112583 -0.0101614 -0.999948 
-0.000111008 -0.0118901 -0.999929 
-0.000114919 -0.0137233 -0.999906 
-0.000100739 -0.0155789 -0.999879 
-0.00013204 -0.0168405 -0.999858 
-8.34949e-05 -0.0168109 -0.999859 
-0.000109192 -0.0151044 -0.999886 
-3.93898e-05 -0.00105852 -0.999999 
-0.00010562 0.000329765 1 
0.00543792 -0.00936717 0.999941 
0.00770863 -0.014121 0.999871 
0.0080721 -0.0147236 0.999859 
0.00821235 -0.0141834 0.999866 
0.00844933 -0.0125936 0.999885 
0.00880455 -0.0108439 0.999902 
0.00888524 -0.00902176 0.99992 
0.00909746 -0.00727432 0.999932 
0.00911573 -0.00549467 0.999943 
0.00915162 -0.00362586 0.999952 
0.00917062 -0.00169898 0.999957 
0.00920132 0.000309249 0.999958 
0.00925868 0.00241297 0.999954 
0.00918611 0.00469545 0.999947 
0.0091758 0.00723233 0.999932 
0.00912588 0.0101323 0.999907 
0.00905245 0.0135479 0.999867 
0.00893613 0.0176368 0.999805 
0.00871798 0.022656 0.999705 
0.0085557 0.0288168 0.999548 
0.00826845 0.0364155 0.999303 
0.00797188 0.045748 0.998921 
0.00755278 0.0576262 0.99831 
0.00703924 0.0721051 0.997372 
0.00645397 0.0905887 0.995867 
0.00577511 0.113164 0.99356 
0.00494724 0.14134 0.989949 
0.00405897 0.176208 0.984345 
0.00300558 0.218679 0.975792 
0.00178287 0.272131 0.962259 
0.00052493 0.335187 0.942152 
-0.00078553 0.412024 0.911173 
-0.00202033 0.501873 0.864939 
-0.00303899 0.605767 0.795636 
-0.00370805 0.713308 0.70084 
-0.00376614 0.822325 0.569005 
-0.0032649 0.913323 0.407224 
-0.00204483 0.978526 0.206115 
-0.000584373 0.999993 -0.00367839 
0.00104121 0.974225 -0.225574 
0.00226193 0.908457 -0.417973 
0.00289702 0.814147 -0.580651 
0.00292993 0.705102 -0.7091 
0.00243847 0.599167 -0.800621 
0.0014626 0.496623 -0.867965 
0.000315909 0.407246 -0.913319 
-0.000898529 0.332274 -0.943183 
-0.00210576 0.267556 -0.96354 
-0.00325287 0.216118 -0.976362 
-0.00423572 0.173035 -0.984907 
-0.00516921 0.13867 -0.990325 
-0.00596151 0.111169 -0.993784 
-0.00657462 0.0887395 -0.996033 
-0.00710859 0.0707418 -0.997469 
-0.00756451 0.0562092 -0.99839 
-0.00801616 0.0447758 -0.998965 
-0.0082213 0.035369 -0.999341 
-0.00855731 0.0279718 -0.999572 
-0.00883411 0.0219817 -0.999719 
-0.00894118 0.0171184 -0.999813 
-0.00905254 0.0131172 -0.999873 
-0.00919398 0.00979603 -0.99991 
-0.00926601 0.00701976 -0.999932 
-0.00938616 0.00461126 -0.999945 
-0.00935604 0.00245374 -0.999953 
-0.00941127 0.00045277 -0.999956 
-0.0093382 -0.0014507 -0.999955 
-0.00936709 -0.00331662 -0.999951 
-0.00933931 -0.00511945 -0.999943 
-0.00932585 -0.00687112 -0.999933 
-0.00903473 -0.00866369 -0.999922 
-0.00912447 -0.010361 -0.999905 
-0.00891529 -0.0121407 -0.999887 
-0.00869616 -0.0139457 -0.999865 
-0.0084452 -0.0154614 -0.999845 
-0.00793065 -0.0162956 -0.999836 
-0.00710027 -0.0160256 -0.999846 
-0.00369372 -0.0111192 -0.999931 
0.00023769 0.000326689 -1 
0.00397714 -0.00623641 0.999973 
0.00872483 -0.0132835 0.999874 
0.0104404 -0.0147855 0.999836 
0.0112746 -0.0145186 0.999831 
0.0118598 -0.0137794 0.999835 
0.0123417 -0.0122406 0.999849 
0.0124818 -0.0103694 0.999868 
0.0126605 -0.00860333 0.999883 
0.0127689 -0.00688532 0.999895 
0.0128199 -0.00512259 0.999905 
0.0128956 -0.00329991 0.999911 
0.0129354 -0.00140786 0.999915 
0.0129687 0.000570906 0.999916 
0.0129849 0.00269187 0.999912 
0.0129455 0.00499277 0.999904 
0.0129049 0.00755454 0.999888 
0.012798 0.010492 0.999863 
0.0126603 0.0139454 0.999823 
0.0124549 0.0181443 0.999758 
0.0121798 0.023254 0.999655 
0.0118666 0.0295637 0.999492 
0.0114507 0.0372377 0.999241 
0.0109918 0.0468074 0.998843 
0.0103577 0.0583123 0.998245 
0.00969337 0.0731685 0.997272 
0.00882732 0.0911943 0.995794 
0.00784235 0.11455 0.993387 
0.00674099 0.142513 0.98977 
0.00543512 0.176797 0.984232 
0.00399918 0.219053 0.975705 
0.00243864 0.269951 0.962871 
0.000695261 0.335189 0.942151 
-0.000961 0.40852 0.912749 
-0.00255992 0.496106 0.868258 
-0.00390874 0.596488 0.802613 
-0.00478373 0.704777 0.709413 
-0.00495574 0.812238 0.583305 
-0.00433198 0.90794 0.419078 
-0.00301083 0.973797 0.227397 
-0.00123942 0.999923 0.0123226 
0.00070059 0.979672 -0.200607 
0.00221403 0.91573 -0.401788 
0.00312545 0.824854 -0.565337 
0.00334357 0.719128 -0.69487 
0.00277778 0.608956 -0.7932 
0.00179975 0.510349 -0.859966 
0.000412272 0.419491 -0.90776 
-0.00115642 0.341369 -0.939929 
-0.0027105 0.277742 -0.960652 
-0.00424003 0.223626 -0.974666 
-0.00558566 0.180426 -0.983573 
-0.00683294 0.144565 -0.989472 
-0.00792044 0.115962 -0.993222 
-0.00884401 0.0929143 -0.995635 
-0.00968749 0.0744167 -0.99718 
-0.0103945 0.0594396 -0.998178 
-0.0109949 0.0472339 -0.998823 
-0.011472 0.03761 -0.999227 
-0.011897 0.0297469 -0.999487 
-0.0122157 0.0234998 -0.999649 
-0.0124848 0.0183159 -0.999754 
-0.0126861 0.0141532 -0.999819 
-0.0128471 0.0106589 -0.999861 
-0.0129822 0.00769875 -0.999886 
-0.0130692 0.00521517 -0.999901 
-0.0131194 0.0029589 -0.99991 
-0.0131486 0.000931719 -0.999913 
-0.0131525 -0.00101592 -0.999913 
-0.0131104 -0.00284782 -0.99991 
-0.0130776 -0.00467997 -0.999904 
-0.013021 -0.00640028 -0.999895 
-0.0128483 -0.00818502 -0.999884 
-0.0127328 -0.00992559 -0.99987 
-0.0124687 -0.0117614 -0.999853 
-0.0120848 -0.013594 -0.999835 
-0.0115377 -0.0150896 -0.99982 
-0.0106876 -0.0159355 -0.999816 
-0.00941789 -0.0160806 -0.999826 
-0.00643125 -0.0118692 -0.999909 
-0.000456814 -8.90612e-06 -1 
-0.000149515 0.000223993 1 
0.00644752 -0.0109583 0.999919 
0.00927614 -0.0152112 0.999841 
0.0105766 -0.0147756 0.999835 
0.0117389 -0.0143099 0.999829 
0.0119847 -0.0127337 0.999847 
0.0124598 -0.0108951 0.999863 
0.0126054 -0.00900226 0.99988 
0.0127484 -0.00724041 0.999893 
0.01288 -0.00548217 0.999902 
0.0129706 -0.0036809 0.999909 
0.0130462 -0.00180161 0.999913 
0.0130954 0.000170692 0.999914 
0.0131208 0.00228238 0.999911 
0.0131128 0.00459372 0.999903 
0.0130563 0.00715622 0.999889 
0.0129506 0.0100999 0.999865 
0.0127928 0.0135079 0.999827 
0.012586 0.0176219 0.999766 
0.0123017 0.0226798 0.999667 
0.0119452 0.0288409 0.999513 
0.0114818 0.0366594 0.999262 
0.0109617 0.0459429 0.998884 
0.0103109 0.0578503 0.998272 
0.0095898 0.072089 0.997352 
0.00871395 0.0902826 0.995878 
0.00772734 0.112692 0.9936 
0.00650285 0.14152 0.989914 
0.00523881 0.175344 0.984493 
0.00379203 0.217791 0.975988 
0.00229224 0.268901 0.963165 
0.000737701 0.329704 0.944084 
-0.000938882 0.410113 0.912034 
-0.00234514 0.495366 0.868681 
-0.0035677 0.595194 0.803574 
-0.0043166 0.707903 0.706296 
-0.00452601 0.815265 0.57907 
-0.00401526 0.910896 0.412618 
-0.00298044 0.976835 0.213972 
-0.00163307 0.999998 0.00120961 
-6.47873e-05 0.977671 -0.210141 
0.00108836 0.914151 -0.405372 
0.00193242 0.8221 -0.569339 
0.00225533 0.713467 -0.700685 
0.00183602 0.603927 -0.797037 
0.00108751 0.50306 -0.864251 
-8.45317e-05 0.413092 -0.910689 
-0.00139347 0.339078 -0.940757 
-0.00277949 0.275931 -0.961173 
-0.00413832 0.222963 -0.974818 
-0.00550965 0.17972 -0.983702 
-0.00668013 0.144093 -0.989542 
-0.00775597 0.11579 -0.993243 
-0.00871951 0.0934305 -0.995588 
-0.00955545 0.0750882 -0.997131 
-0.0102972 0.0599105 -0.998151 
-0.0109234 0.0479477 -0.99879 
-0.0114828 0.0379052 -0.999215 
-0.0118997 0.0302318 -0.999472 
-0.0122996 0.0236176 -0.999645 
-0.0125732 0.0185197 -0.999749 
-0.0128252 0.0142388 -0.999816 
-0.0130229 0.010635 -0.999859 
-0.0131263 0.00777262 -0.999884 
-0.0132451 0.00516341 -0.999899 
-0.0132897 0.00294736 -0.999907 
-0.013332 0.000832435 -0.999911 
-0.013313 -0.00107492 -0.999911 
-0.0133208 -0.0029809 -0.999907 
-0.0132211 -0.00470719 -0.999902 
-0.0131292 -0.00639336 -0.999893 
-0.0130467 -0.00807498 -0.999882 
-0.0127752 -0.00977121 -0.999871 
-0.0124958 -0.0116325 -0.999854 
-0.0120399 -0.0134764 -0.999837 
-0.0113701 -0.0149591 -0.999823 
-0.0104309 -0.0157778 -0.999821 
-0.00897128 -0.015924 -0.999833 
-0.00690927 -0.0120773 -0.999903 
-0.000141615 5.40133e-05 -1 
0.00409804 -0.00750325 0.999963 
0.00753514 -0.0138969 0.999875 
0.00947189 -0.0154024 0.999837 
0.0101978 -0.015051 0.999835 
0.0111352 -0.0145288 0.999832 
0.0115015 -0.0129213 0.99985 
0.0119483 -0.0108374 0.99987 
0.012108 -0.00891807 0.999887 
0.0122905 -0.00706991 0.999899 
0.0124487 -0.00528362 0.999909 
0.0125695 -0.00344401 0.999915 
0.0126605 -0.00154457 0.999919 
0.012719 0.00047895 0.999919 
0.0127489 0.00266847 0.999915 
0.0127318 0.0050531 0.999906 
0.0126629 0.00774471 0.99989 
0.0125268 0.0107696 0.999864 
0.0123591 0.0143826 0.99982 
0.0121399 0.0187301 0.999751 
0.0118265 0.0239424 0.999643 
0.011448 0.0305538 0.999468 
0.0109247 0.0384201 0.999202 
0.0103894 0.0484858 0.99877 
0.0097034 0.0604862 0.998122 
0.00897378 0.0756242 0.997096 
0.00810237 0.0942189 0.995519 
0.0071129 0.117636 0.993031 
0.00591851 0.146284 0.989225 
0.00469166 0.181259 0.983424 
0.00333369 0.224085 0.974564 
0.00195526 0.275131 0.961405 
0.000386659 0.343529 0.939142 
-0.000997888 0.418907 0.908029 
-0.00231777 0.509183 0.860655 
-0.00339808 0.611435 0.791288 
-0.0039825 0.716106 0.69798 
-0.00417133 0.82036 0.571832 
-0.00384066 0.909201 0.416339 
-0.00315101 0.973507 0.228635 
-0.00211173 0.999899 0.0140356 
-0.000780875 0.978319 -0.2071 
0.000171105 0.9164 -0.400264 
0.000936253 0.827729 -0.561128 
0.00132804 0.722103 -0.691784 
0.00112072 0.605079 -0.796164 
0.000454192 0.494793 -0.869011 
-0.000486186 0.411532 -0.911395 
-0.00160426 0.338619 -0.940922 
-0.00278485 0.276291 -0.96107 
-0.00396338 0.225403 -0.974258 
-0.00517919 0.182637 -0.983167 
-0.00628652 0.147441 -0.989051 
-0.00728741 0.118123 -0.992972 
-0.00823226 0.0946083 -0.995481 
-0.00907122 0.076142 -0.997056 
-0.0098357 0.0614056 -0.998064 
-0.0104044 0.049169 -0.998736 
-0.0110428 0.0393492 -0.999164 
-0.0114262 0.0312303 -0.999447 
-0.0118747 0.0247459 -0.999623 
-0.0121333 0.0192293 -0.999741 
-0.0124176 0.014877 -0.999812 
-0.0126451 0.011214 -0.999857 
-0.0127105 0.00812372 -0.999886 
-0.0128786 0.00555015 -0.999902 
-0.0128876 0.00318686 -0.999912 
-0.0129803 0.00110447 -0.999915 
-0.0129096 -0.000891866 -0.999916 
-0.0129935 -0.00273971 -0.999912 
-0.0128088 -0.00453363 -0.999908 
-0.0126462 -0.00620532 -0.999901 
-0.0126256 -0.00791298 -0.999889 
-0.0123506 -0.00971738 -0.999877 
-0.011986 -0.0116114 -0.999861 
-0.0115455 -0.0135244 -0.999842 
-0.0108985 -0.0150749 -0.999827 
-0.00995787 -0.0157736 -0.999826 
-0.00849073 -0.0159473 -0.999837 
-0.00647103 -0.0120721 -0.999906 
-0.000218749 4.06212e-05 -1 
-6.19899e-05 0.00023126 1 
0.00570772 -0.0119412 0.999912 
0.00813289 -0.0158114 0.999842 
0.0088221 -0.0155602 0.99984 
0.0104744 -0.0142288 0.999844 
0.0101055 -0.0127886 0.999867 
0.0109663 -0.0112625 0.999876 
0.0110151 -0.00930723 0.999896 
0.0112215 -0.00743234 0.999909 
0.0114011 -0.00561541 0.999919 
0.011561 -0.00381326 0.999926 
0.0116592 -0.0019276 0.99993 
0.0117234 7.99515e-05 0.999931 
0.0117591 0.00226847 0.999928 
0.0117429 0.00465223 0.99992 
0.0116899 0.00731116 0.999905 
0.0115025 0.010363 0.99988 
0.0113702 0.0138826 0.999839 
0.0111821 0.018161 0.999773 
0.0108582 0.0232992 0.99967 
0.0105792 0.0295468 0.999507 
0.00995854 0.0373689 0.999252 
0.00955575 0.0471029 0.998844 
0.00880635 0.0590195 0.998218 
0.00818466 0.0737547 0.997243 
0.00737509 0.0919815 0.995733 
0.00654273 0.114473 0.993405 
0.00542379 0.141905 0.989865 
0.0042752 0.177125 0.984179 
0.00307259 0.218544 0.975822 
0.00181266 0.269563 0.962981 
0.000588292 0.332146 0.943228 
-0.00074805 0.409858 0.912149 
-0.00193057 0.49854 0.866864 
-0.00293987 0.601336 0.79899 
-0.00354714 0.712595 0.701567 
-0.00379371 0.819632 0.572877 
-0.0036126 0.914359 0.404888 
-0.00313505 0.977524 0.210801 
-0.00247549 0.99993 0.0115598 
-0.00151005 0.982619 -0.185628 
-0.000824788 0.926502 -0.376288 
-0.000124222 0.839854 -0.542813 
0.00039503 0.738033 -0.674765 
0.000495772 0.63126 -0.775571 
8.60645e-05 0.515647 -0.856801 
-0.000746531 0.421481 -0.906837 
-0.0015821 0.348369 -0.937356 
-0.00258743 0.281657 -0.959512 
-0.00361283 0.228875 -0.973449 
-0.00468632 0.18466 -0.982791 
-0.00566729 0.148468 -0.988901 
-0.00656088 0.119842 -0.992771 
-0.00739624 0.096112 -0.995343 
-0.00817533 0.0763634 -0.997047 
-0.00889865 0.0612179 -0.998085 
-0.00947778 0.0489057 -0.998758 
-0.0101115 0.0388718 -0.999193 
-0.0104119 0.0308601 -0.999469 
-0.0110044 0.0242401 -0.999646 
-0.0111171 0.0188687 -0.99976 
-0.011466 0.0145169 -0.999829 
-0.0117181 0.0109364 -0.999872 
-0.0116268 0.00790033 -0.999901 
-0.0119112 0.00528982 -0.999915 
-0.0118159 0.00294531 -0.999926 
-0.0120177 0.000830882 -0.999927 
-0.0118845 -0.00114602 -0.999929 
-0.0120169 -0.00293857 -0.999923 
-0.0116912 -0.00466469 -0.999921 
-0.0115618 -0.00639277 -0.999913 
-0.0116136 -0.00808356 -0.9999 
-0.0112423 -0.00987544 -0.999888 
-0.0108843 -0.0117543 -0.999872 
-0.0104952 -0.013721 -0.999851 
-0.00986978 -0.0152124 -0.999836 
-0.00905475 -0.0159336 -0.999832 
-0.00771567 -0.0160366 -0.999842 
-0.00598587 -0.0119315 -0.999911 
-0.000191543 4.50838e-05 -1 
0.000212972 -2.6213e-05 1 
0.00496956 -0.0114297 0.999922 
0.00694971 -0.0157467 0.999852 
0.00751623 -0.0157104 0.999848 
0.00903891 -0.014942 0.999848 
0.00881749 -0.0133113 0.999873 
0.00934889 -0.0105924 0.9999 
0.00958371 -0.00863058 0.999917 
0.00983383 -0.00680281 0.999929 
0.00997864 -0.00502923 0.999938 
0.0101388 -0.00323 0.999943 
0.0102277 -0.00132735 0.999947 
0.0102872 0.000738011 0.999947 
0.0102911 0.002978 0.999943 
0.010266 0.00545455 0.999932 
0.0101741 0.00818512 0.999915 
0.00997319 0.0114009 0.999885 
0.00987099 0.0151597 0.999836 
0.00964971 0.0195686 0.999762 
0.00935815 0.0250907 0.999641 
0.00908354 0.0315218 0.999462 
0.00837212 0.0390001 0.999204 
0.00822642 0.0475712 0.998834 
0.00755106 0.0592407 0.998215 
0.00699285 0.0740174 0.997232 
0.00625413 0.0922789 0.995714 
0.00549946 0.114838 0.993369 
0.00451002 0.1443 0.989524 
0.00352815 0.178344 0.983962 
0.0025069 0.2204 0.975406 
0.00140378 0.275799 0.961214 
0.000310001 0.342038 0.939686 
-0.000814982 0.423969 0.905676 
-0.00176048 0.514085 0.857737 
-0.00256571 0.609548 0.792745 
-0.0030334 0.713584 0.700563 
-0.00335397 0.820559 0.571552 
-0.003287 0.907046 0.421018 
-0.00314606 0.971947 0.235177 
-0.00274613 0.999774 0.02108 
-0.00206025 0.97862 -0.205666 
-0.00153499 0.913201 -0.407507 
-0.000895776 0.818069 -0.575119 
-0.000429865 0.713826 -0.700323 
-0.000220153 0.595942 -0.803028 
-0.000583729 0.494373 -0.86925 
-0.00114076 0.408156 -0.912911 
-0.0018341 0.329366 -0.944201 
-0.00258392 0.270303 -0.962772 
-0.00325765 0.222143 -0.975009 
-0.00410765 0.183762 -0.982962 
-0.00481389 0.150582 -0.988586 
-0.0055516 0.122287 -0.992479 
-0.00628028 0.0980955 -0.995157 
-0.00699116 0.0784267 -0.996895 
-0.00760404 0.0619032 -0.998053 
-0.00808302 0.0500499 -0.998714 
-0.00871803 0.0399635 -0.999163 
-0.00903154 0.0317404 -0.999455 
-0.00959882 0.024736 -0.999648 
-0.00971476 0.0194551 -0.999764 
-0.0100155 0.0147934 -0.99984 
-0.0102273 0.0110855 -0.999886 
-0.0101854 0.00795132 -0.999917 
-0.0104158 0.00523015 -0.999932 
-0.0103555 0.00284209 -0.999942 
-0.0105218 0.000701881 -0.999944 
-0.0103518 -0.00126218 -0.999946 
-0.0105092 -0.0030179 -0.99994 
-0.0102014 -0.00484167 -0.999936 
-0.0100283 -0.00651761 -0.999928 
-0.0101372 -0.00816989 -0.999915 
-0.00964122 -0.00984413 -0.999905 
-0.00936504 -0.0118192 -0.999886 
-0.00903139 -0.0138004 -0.999864 
-0.00852308 -0.0153535 -0.999846 
-0.00783472 -0.0160864 -0.99984 
-0.00664717 -0.0161235 -0.999848 
-0.00525059 -0.0117771 -0.999917 
-0.000163566 4.33867e-05 -1 
0.000119107 7.4959e-05 1 
0.00429522 -0.011841 0.999921 
0.00586779 -0.0159462 0.999856 
0.00635461 -0.0157261 0.999856 
0.0077054 -0.0149723 0.999858 
0.00726907 -0.0135654 0.999882 
0.00800638 -0.0114675 0.999902 
0.00795698 -0.00917149 0.999926 
0.00825529 -0.00732697 0.999939 
0.00840554 -0.00552787 0.999949 
0.00854717 -0.00370142 0.999957 
0.00867473 -0.00182321 0.999961 
0.00874553 0.000226083 0.999962 
0.00875218 0.00245993 0.999959 
0.00874544 0.00492306 0.99995 
0.00864281 0.00765948 0.999933 
0.0085208 0.01074 0.999906 
0.0083983 0.0145319 0.999859 
0.00817754 0.0189159 0.999788 
0.00798739 0.0241456 0.999677 
0.00762889 0.0307632 0.999498 
0.00709867 0.0395939 0.999191 
0.00670521 0.0500809 0.998723 
0.00618722 0.0633961 0.997969 
0.00564127 0.0789058 0.996866 
0.00499609 0.0986635 0.995108 
0.00433182 0.122745 0.992429 
0.00346572 0.152107 0.988358 
0.00264768 0.187787 0.982206 
0.00179316 0.234615 0.972087 
0.000931344 0.288778 0.957396 
0.000124004 0.349851 0.936805 
-0.000662477 0.421385 0.906882 
-0.00143164 0.510151 0.860084 
-0.00215527 0.612971 0.790102 
-0.00263785 0.727304 0.686311 
-0.00289748 0.830145 0.557541 
-0.00294205 0.921165 0.389162 
-0.00300678 0.973803 0.227373 
-0.00286637 0.999712 0.023818 
-0.00250096 0.982115 -0.188267 
-0.00224569 0.932755 -0.360503 
-0.00169214 0.84322 -0.537566 
-0.00123881 0.732472 -0.680796 
-0.000825134 0.622694 -0.782465 
-0.000937657 0.515443 -0.856923 
-0.00124123 0.431494 -0.902115 
-0.00164541 0.34886 -0.937174 
-0.0021917 0.280255 -0.959923 
-0.00279293 0.225572 -0.974223 
-0.00349856 0.179725 -0.983711 
-0.00409452 0.146185 -0.989249 
-0.00476429 0.11762 -0.993047 
-0.00538324 0.0941526 -0.995543 
-0.00603641 0.0748066 -0.99718 
-0.00638716 0.06042 -0.998153 
-0.00686875 0.048233 -0.998812 
-0.00741075 0.0390205 -0.999211 
-0.00746004 0.0319344 -0.999462 
-0.00815123 0.0260135 -0.999628 
-0.008182 0.0205168 -0.999756 
-0.00853547 0.0159122 -0.999837 
-0.00868065 0.0119127 -0.999891 
-0.00870787 0.00879524 -0.999923 
-0.00885824 0.0058326 -0.999944 
-0.00886532 0.00346428 -0.999955 
-0.00894247 0.00112672 -0.999959 
-0.00885505 -0.000812465 -0.99996 