# vtk DataFile Version 3.0 
Exported using Morpho https://github.com/Morpho-lang/morpho 
ASCII 
DATASET UNSTRUCTURED_GRID 

POINTS 2124 float 
-8.32618 -2.88146 0 
-8.11405 -2.88146 0 
-7.90192 -2.88146 0 
-7.68979 -2.88146 0 
-7.47765 -2.88146 0 
-7.26552 -2.88146 0 
-7.05339 -2.88146 0 
-6.84126 -2.88146 0 
-6.62913 -2.88146 0 
-6.41699 -2.88146 0 
-6.20486 -2.88146 0 
-5.99273 -2.88146 0 
-5.7806 -2.88146 0 
-5.56847 -2.88146 0 
-5.35633 -2.88146 0 
-5.1442 -2.88146 0 
-4.93207 -2.88146 0 
-4.71994 -2.88146 0 
-4.50781 -2.88146 0 
-4.29567 -2.88146 0 
-4.08354 -2.88146 0 
-3.87141 -2.88146 0 
-3.65928 -2.88146 0 
-3.44715 -2.88146 0 
-3.23501 -2.88146 0 
-3.02288 -2.88146 0 
-2.81075 -2.88146 0 
-2.59862 -2.88146 0 
-2.38649 -2.88146 0 
-2.17435 -2.88146 0 
-1.96222 -2.88146 0 
-1.75009 -2.88146 0 
-1.53796 -2.88146 0 
-1.32583 -2.88146 0 
-1.11369 -2.88146 0 
-0.901561 -2.88146 0 
-0.689429 -2.88146 0 
-0.477297 -2.88146 0 
-0.265165 -2.88146 0 
-0.053033 -2.88146 0 
0.159099 -2.88146 0 
0.371231 -2.88146 0 
0.583363 -2.88146 0 
0.795495 -2.88146 0 
1.00763 -2.88146 0 
1.21976 -2.88146 0 
1.43189 -2.88146 0 
1.64402 -2.88146 0 
1.85616 -2.88146 0 
2.06829 -2.88146 0 
2.28042 -2.88146 0 
2.49255 -2.88146 0 
2.70468 -2.88146 0 
2.91682 -2.88146 0 
3.12895 -2.88146 0 
3.34108 -2.88146 0 
3.55321 -2.88146 0 
3.76534 -2.88146 0 
3.97748 -2.88146 0 
4.18961 -2.88146 0 
4.40174 -2.88146 0 
4.61387 -2.88146 0 
4.826 -2.88146 0 
5.03814 -2.88146 0 
5.25027 -2.88146 0 
5.4624 -2.88146 0 
5.67453 -2.88146 0 
5.88666 -2.88146 0 
6.0988 -2.88146 0 
6.31093 -2.88146 0 
6.52306 -2.88146 0 
6.73519 -2.88146 0 
6.94732 -2.88146 0 
7.15946 -2.88146 0 
7.37159 -2.88146 0 
7.58372 -2.88146 0 
7.79585 -2.88146 0 
8.00798 -2.88146 0 
8.22012 -2.88146 0 
8.53831 -2.88146 0 
-8.53831 -2.72827 0 
-8.28823 -2.66424 0 
-8.05896 -2.66121 0 
-7.82746 -2.6664 0 
-7.59706 -2.66594 0 
-7.36825 -2.66825 0 
-7.1399 -2.66823 0 
-6.91241 -2.66995 0 
-6.68567 -2.66653 0 
-6.46493 -2.66739 0 
-6.24242 -2.66669 0 
-6.02349 -2.67061 0 
-5.80134 -2.67037 0 
-5.58299 -2.67747 0 
-5.35719 -2.66807 0 
-5.13313 -2.6733 0 
-4.91752 -2.66872 0 
-4.69973 -2.67087 0 
-4.48417 -2.67031 0 
-4.26987 -2.67012 0 
-4.05569 -2.6706 0 
-3.84106 -2.67121 0 
-3.62467 -2.67448 0 
-3.40615 -2.67764 0 
-3.1938 -2.6722 0 
-2.97966 -2.67313 0 
-2.76467 -2.67172 0 
-2.55348 -2.66628 0 
-2.34325 -2.66148 0 
-2.12777 -2.66507 0 
-1.91421 -2.66287 0 
-1.69509 -2.66319 0 
-1.48053 -2.6626 0 
-1.26653 -2.65783 0 
-1.05127 -2.65634 0 
-0.831356 -2.66387 0 
-0.608137 -2.66949 0 
-0.384384 -2.65601 0 
-0.15248 -2.70833 0 
0.0841112 -2.70787 0 
0.0987719 -2.53888 0 
0.326148 -2.68224 0 
0.547662 -2.67705 0 
0.77026 -2.67768 0 
0.994162 -2.66657 0 
1.21159 -2.66035 0 
1.42446 -2.66569 0 
1.63944 -2.66936 0 
1.85802 -2.6692 0 
2.07142 -2.66498 0 
2.29419 -2.67429 0 
2.51328 -2.67518 0 
2.73158 -2.67479 0 
2.94285 -2.66892 0 
3.16252 -2.67562 0 
3.37594 -2.66918 0 
3.58697 -2.66711 0 
3.79865 -2.66662 0 
4.01503 -2.67294 0 
4.22797 -2.66972 0 
4.4445 -2.67547 0 
4.65539 -2.67104 0 
4.86686 -2.67041 0 
5.07607 -2.66804 0 
5.28706 -2.66854 0 
5.49757 -2.66911 0 
5.70885 -2.67023 0 
5.91976 -2.67068 0 
6.12891 -2.66892 0 
6.33989 -2.67051 0 
6.55268 -2.67157 0 
6.76619 -2.67164 0 
6.98245 -2.67359 0 
7.19483 -2.6669 0 
7.40844 -2.66466 0 
7.62376 -2.66205 0 
7.83523 -2.65609 0 
8.04673 -2.64576 0 
8.30167 -2.71758 0 
8.53831 -2.66933 0 
-8.43092 -2.49581 0 
-8.189 -2.4448 0 
-7.96132 -2.45069 0 
-7.73809 -2.4542 0 
-7.51352 -2.45418 0 
-7.29282 -2.45708 0 
-7.07054 -2.45826 0 
-6.85149 -2.45917 0 
-6.63796 -2.44971 0 
-6.42324 -2.455 0 
-6.21152 -2.45161 0 
-5.99758 -2.46123 0 
-5.78514 -2.45863 0 
-5.57075 -2.47396 0 
-5.36162 -2.45356 0 
-5.14973 -2.46956 0 
-4.92875 -2.45504 0 
-4.71743 -2.46097 0 
-4.50359 -2.45914 0 
-4.29158 -2.45789 0 
-4.08082 -2.45889 0 
-3.86974 -2.46118 0 
-3.65557 -2.46759 0 
-3.43928 -2.47575 0 
-3.22244 -2.46352 0 
-3.00819 -2.4651 0 
-2.79334 -2.46482 0 
-2.57705 -2.45174 0 
-2.36501 -2.44239 0 
-2.15036 -2.45072 0 
-1.93243 -2.44476 0 
-1.71512 -2.45303 0 
-1.48564 -2.4422 0 
-1.26457 -2.43737 0 
-1.0333 -2.44271 0 
-0.802076 -2.45471 0 
-0.563298 -2.46528 0 
-0.340186 -2.4212 0 
-0.155295 -2.53082 0 
-0.0546716 -2.35987 0 
0.162284 -2.33354 0 
0.324972 -2.48328 0 
0.555746 -2.4779 0 
0.777648 -2.47517 0 
0.992828 -2.45224 0 
1.20264 -2.43687 0 
1.41477 -2.44573 0 
1.62523 -2.45381 0 
1.83788 -2.4611 0 
2.05348 -2.44994 0 
2.27073 -2.46979 0 
2.4919 -2.46925 0 
2.70883 -2.47005 0 
2.92508 -2.45468 0 
3.13614 -2.4717 0 
3.35278 -2.45863 0 
3.56665 -2.45086 0 
3.77457 -2.45164 0 
3.98695 -2.46448 0 
4.20016 -2.46004 0 
4.41692 -2.4698 0 
4.63098 -2.46014 0 
4.84118 -2.45893 0 
5.05214 -2.45355 0 
5.26033 -2.45526 0 
5.47183 -2.45608 0 
5.68132 -2.45798 0 
5.89228 -2.45924 0 
6.1014 -2.45452 0 
6.31049 -2.45867 0 
6.5209 -2.46197 0 
6.73504 -2.4634 0 
6.95186 -2.46725 0 
7.1685 -2.45485 0 
7.38561 -2.44936 0 
7.60266 -2.44628 0 
7.82192 -2.42896 0 
8.05832 -2.43852 0 
8.2954 -2.51173 0 
8.53831 -2.4572 0 
-8.53831 -2.26866 0 
-8.31428 -2.26962 0 
-8.05123 -2.2396 0 
-7.81418 -2.23939 0 
-7.58213 -2.24437 0 
-7.34768 -2.24269 0 
-7.11962 -2.24892 0 
-6.889 -2.2471 0 
-6.66628 -2.23382 0 
-6.44554 -2.24093 0 
-6.22608 -2.2361 0 
-6.00821 -2.24913 0 
-5.79077 -2.24768 0 
-5.57063 -2.26232 0 
-5.34994 -2.24476 0 
-5.12852 -2.26505 0 
-4.91173 -2.24164 0 
-4.69718 -2.25014 0 
-4.4842 -2.24675 0 
-4.27266 -2.24437 0 
-4.0617 -2.24582 0 
-3.85663 -2.24082 0 
-3.65421 -2.2596 0 
-3.43803 -2.27099 0 
-3.2307 -2.25337 0 
-3.01334 -2.25807 0 
-2.79443 -2.25658 0 
-2.58587 -2.23516 0 
-2.36608 -2.23252 0 
-2.14237 -2.23541 0 
-1.92678 -2.22704 0 
-1.69592 -2.24775 0 
-1.47463 -2.2253 0 
-1.24037 -2.23043 0 
-1.01195 -2.23204 0 
-0.776548 -2.2531 0 
-0.547695 -2.25316 0 
-0.290266 -2.23063 0 
0.323111 -2.20042 0 
0.491366 -2.289 0 
0.736105 -2.26999 0 
0.955505 -2.24436 0 
1.18112 -2.21885 0 
1.40548 -2.22997 0 
1.62884 -2.23509 0 
1.84359 -2.24818 0 
2.0761 -2.24566 0 
2.29933 -2.2659 0 
2.50146 -2.24298 0 
2.70068 -2.26322 0 
2.89335 -2.22621 0 
3.09717 -2.25756 0 
3.30558 -2.25422 0 
3.52481 -2.24301 0 
3.74258 -2.23335 0 
3.9544 -2.25282 0 
4.16693 -2.25011 0 
4.38504 -2.26605 0 
4.60325 -2.25232 0 
4.8181 -2.24756 0 
5.02865 -2.24142 0 
5.24199 -2.24078 0 
5.4514 -2.24433 0 
5.66548 -2.24543 0 
5.87588 -2.24731 0 
6.08699 -2.24159 0 
6.29714 -2.24432 0 
6.50689 -2.24979 0 
6.71743 -2.25451 0 
6.93394 -2.26163 0 
7.15156 -2.2459 0 
7.37037 -2.23909 0 
7.5931 -2.23067 0 
7.82778 -2.22363 0 
8.06363 -2.23016 0 
8.30001 -2.29997 0 
8.53831 -2.24506 0 
-8.53831 -2.04913 0 
-8.28471 -2.07687 0 
-8.04201 -2.03352 0 
-7.80646 -2.0288 0 
-7.56908 -2.03785 0 
-7.33885 -2.03096 0 
-7.10673 -2.04218 0 
-6.88261 -2.03354 0 
-6.65953 -2.0189 0 
-6.4424 -2.0283 0 
-6.2267 -2.02044 0 
-6.0104 -2.03717 0 
-5.79349 -2.03649 0 
-5.5762 -2.05755 0 
-5.36308 -2.03254 0 
-5.14859 -2.05834 0 
-4.93787 -2.02952 0 
-4.72266 -2.03709 0 
-4.51192 -2.03408 0 
-4.30192 -2.03072 0 
-4.09196 -2.03067 0 
-3.88491 -2.02221 0 
-3.67798 -2.03476 0 
-3.47628 -2.06273 0 
-3.26879 -2.03532 0 
-3.0654 -2.05231 0 
-2.84824 -2.05013 0 
-2.64098 -2.01976 0 
-2.43182 -2.02078 0 
-2.21274 -2.02643 0 
-1.9976 -2.00966 0 
-1.77475 -2.03573 0 
-1.56159 -2.01658 0 
-1.33231 -2.02318 0 
-1.10591 -2.01732 0 
-0.875429 -2.03643 0 
-0.652365 -2.04557 0 
-0.426144 -2.05038 0 
0.438544 -1.99448 0 
0.618714 -2.09401 0 
0.852656 -2.03878 0 
1.07659 -2.02328 0 
1.32509 -2.01949 0 
1.55829 -2.02586 0 
1.78856 -2.02847 0 
2.00708 -2.05261 0 
2.2543 -2.05689 0 
2.4685 -2.02026 0 
2.67682 -2.03298 0 
2.89126 -2.01318 0 
3.1064 -2.04 0 
3.32658 -2.04792 0 
3.54788 -2.03561 0 
3.769 -2.02368 0 
3.97833 -2.04072 0 
4.18352 -2.02921 0 
4.38511 -2.06202 0 
4.59418 -2.04098 0 
4.80795 -2.03795 0 
5.02128 -2.02882 0 
5.23257 -2.02967 0 
5.44709 -2.03081 0 
5.65763 -2.0362 0 
5.87337 -2.03522 0 
6.08392 -2.0287 0 
6.29509 -2.03202 0 
6.50626 -2.03591 0 
6.7166 -2.04149 0 
6.9281 -2.05445 0 
7.14574 -2.03623 0 
7.36369 -2.02971 0 
7.58699 -2.02303 0 
7.81807 -2.02124 0 
8.06009 -2.02161 0 
8.29903 -2.08649 0 
8.53831 -2.03293 0 
-8.53831 -1.82919 0 
-8.31192 -1.87666 0 
-8.08134 -1.82743 0 
-7.84181 -1.82058 0 
-7.60071 -1.83041 0 
-7.36473 -1.82052 0 
-7.12972 -1.83388 0 
-6.89868 -1.82236 0 
-6.67052 -1.81016 0 
-6.44033 -1.81127 0 
-6.2221 -1.80507 0 
-6.00647 -1.82446 0 
-5.79884 -1.81564 0 
-5.59008 -1.84784 0 
-5.37728 -1.82168 0 
-5.15916 -1.84572 0 
-4.94516 -1.818 0 
-4.72978 -1.82733 0 
-4.51293 -1.81936 0 
-4.29872 -1.81767 0 
-4.08382 -1.81609 0 
-3.86512 -1.81098 0 
-3.65023 -1.82157 0 
-3.44391 -1.84628 0 
-3.22789 -1.81873 0 
-3.01013 -1.85134 0 
-2.80108 -1.82666 0 
-2.58293 -1.80284 0 
-2.35745 -1.81665 0 
-2.13904 -1.80774 0 
-1.89773 -1.8146 0 
-1.68576 -1.80833 0 
-1.44838 -1.8161 0 
-1.21687 -1.81159 0 
-0.972064 -1.82291 0 
-0.73737 -1.8309 0 
-0.513245 -1.83718 0 
0.510753 -1.75559 0 
0.681108 -1.87334 0 
0.911563 -1.81522 0 
1.1541 -1.82986 0 
1.39536 -1.81737 0 
1.6257 -1.82095 0 
1.84776 -1.81801 0 
2.0773 -1.86709 0 
2.28923 -1.83308 0 
2.50205 -1.79987 0 
2.70459 -1.81366 0 
2.90369 -1.78197 0 
3.09976 -1.82525 0 
3.30736 -1.84064 0 
3.52428 -1.83214 0 
3.74541 -1.8228 0 
3.97362 -1.82365 0 
4.18681 -1.81877 0 
4.4022 -1.84498 0 
4.62138 -1.83288 0 
4.83269 -1.82491 0 
5.04585 -1.81576 0 
5.26061 -1.82016 0 
5.47274 -1.81797 0 
5.68717 -1.82852 0 
5.89612 -1.82078 0 
6.10675 -1.81607 0 
6.31588 -1.81922 0 
6.52284 -1.8213 0 
6.73167 -1.82749 0 
6.9423 -1.84333 0 
7.15353 -1.82183 0 
7.37093 -1.81846 0 
7.59758 -1.81572 0 
7.83298 -1.8187 0 
8.06867 -1.81249 0 
8.30232 -1.87531 0 
8.53831 -1.8208 0 
-8.53831 -1.61336 0 
-8.29938 -1.65617 0 
-8.05581 -1.61881 0 
-7.80733 -1.61782 0 
-7.57049 -1.62042 0 
-7.3275 -1.61516 0 
-7.09798 -1.62201 0 
-6.86497 -1.6117 0 
-6.62861 -1.60598 0 
-6.40749 -1.59511 0 
-6.18481 -1.5934 0 
-5.97763 -1.60256 0 
-5.75768 -1.60583 0 
-5.55496 -1.63008 0 
[...]
POINT_DATA 2124 
VECTORS vectors float
5.1125e-05 -0.000663233 1 
0.000197622 -0.0127991 0.999918 
7.96744e-05 -0.0155792 0.999879 
0.000129174 -0.0162227 0.999868 
0.000108039 -0.0154379 0.999881 
0.000114143 -0.0137408 0.999906 
0.000114265 -0.0119315 0.999929 
0.000113463 -0.0102185 0.999948 
0.000115353 -0.00856876 0.999963 
0.00011333 -0.00694645 0.999976 
0.000115973 -0.0053552 0.999986 
0.00011266 -0.00382069 0.999993 
0.000118516 -0.00234128 0.999997 
0.000111012 -0.000927571 1 
0.000119093 0.000489905 1 
0.000111781 0.0019708 0.999998 
0.000117146 0.00357847 0.999994 
0.00011326 0.00542655 0.999985 
0.000114484 0.00759494 0.999971 
0.000113377 0.0102241 0.999948 
0.000112193 0.0134607 0.999909 
0.000111437 0.0175004 0.999847 
0.000110403 0.0225921 0.999745 
0.000106815 0.0290322 0.999578 
0.000106893 0.0372349 0.999307 
0.00010157 0.0477242 0.998861 
9.84438e-05 0.0611603 0.998128 
9.28668e-05 0.0783985 0.996922 
8.68952e-05 0.100569 0.99493 
7.75952e-05 0.129115 0.99163 
6.79725e-05 0.165871 0.986147 
5.40141e-05 0.213183 0.977012 
3.74649e-05 0.273862 0.961769 
1.84366e-05 0.350633 0.936513 
-6.96569e-06 0.446443 0.894812 
-3.0561e-05 0.562365 0.826889 
-5.72872e-05 0.694552 0.719442 
-5.24426e-05 0.829508 0.558495 
-5.5596e-05 0.941485 0.337056 
-3.38477e-06 0.99762 0.0689518 
3.23908e-05 0.977466 -0.211094 
4.82649e-05 0.887861 -0.460111 
6.48994e-05 0.759053 -0.651029 
4.16105e-05 0.622294 -0.782784 
1.85051e-05 0.497235 -0.867616 
-5.61489e-06 0.391523 -0.920168 
-2.88537e-05 0.306124 -0.951992 
-4.99396e-05 0.238672 -0.9711 
-6.09592e-05 0.186356 -0.982482 
-7.35454e-05 0.144727 -0.989472 
-8.16833e-05 0.112549 -0.993646 
-9.21687e-05 0.0876845 -0.996148 
-9.41408e-05 0.0684046 -0.997658 
-0.000103359 0.0533909 -0.998574 
-0.00010112 0.0416688 -0.999131 
-0.000109044 0.0325244 -0.999471 
-0.000107302 0.0253405 -0.999679 
-0.00011256 0.0196718 -0.999806 
-0.000109093 0.0151797 -0.999885 
-0.000116074 0.0115935 -0.999933 
-0.000111444 0.00869639 -0.999962 
-0.000116086 0.00633388 -0.99998 
-0.000114016 0.00434968 -0.999991 
-0.000115544 0.0026426 -0.999997 
-0.000114972 0.00110952 -0.999999 
-0.000115444 -0.000327566 -1 
-0.000115467 -0.00174402 -0.999998 
-0.000114743 -0.00319574 -0.999995 
-0.000115519 -0.00472526 -0.999989 
-0.00011463 -0.00633991 -0.99998 
-0.00011419 -0.00801475 -0.999968 
-0.000115843 -0.00974029 -0.999953 
-0.000113094 -0.0115054 -0.999934 
-0.000114676 -0.0133682 -0.999911 
-0.00011381 -0.0153312 -0.999882 
-0.000109477 -0.0171261 -0.999853 
-0.000118645 -0.0176751 -0.999844 
-0.00012407 -0.0171481 -0.999853 
-5.87856e-05 -0.0149888 -0.999888 
-0.000110188 -0.000997071 -0.999999 
-0.000184449 0.000428239 1 
0.006025 -0.0100813 0.999931 
0.0081721 -0.0143132 0.999864 
0.00856506 -0.0155965 0.999842 
0.00890613 -0.0153592 0.999842 
0.00914387 -0.014312 0.999856 
0.00934897 -0.0125437 0.999878 
0.0094854 -0.0106719 0.999898 
0.00963613 -0.00888286 0.999914 
0.009755 -0.00720896 0.999926 
0.00982428 -0.00557235 0.999936 
0.00986529 -0.00401802 0.999943 
0.0098736 -0.00248576 0.999948 
0.00985563 -0.00101781 0.999951 
0.00988164 0.000496867 0.999951 
0.00996526 0.00207318 0.999948 
0.00999561 0.00374446 0.999943 
0.0099914 0.00567988 0.999934 
0.00996085 0.00794703 0.999919 
0.00992233 0.010688 0.999894 
0.0098629 0.0140705 0.999852 
0.00978147 0.0183133 0.999784 
0.00966939 0.0237282 0.999672 
0.00958428 0.0306879 0.999483 
0.00956449 0.0393272 0.999181 
0.00954024 0.0504888 0.998679 
0.00959987 0.0648648 0.997848 
0.009821 0.0829513 0.996505 
0.0102415 0.106036 0.99431 
0.0108021 0.136541 0.990576 
0.0119742 0.175382 0.984428 
0.0138609 0.226805 0.973842 
0.0168346 0.291653 0.956376 
0.0216288 0.372351 0.92784 
0.0280164 0.473478 0.88036 
0.0345524 0.597929 0.800804 
0.039971 0.739396 0.672083 
0.0416855 0.876408 0.479761 
0.0170118 0.978915 0.203559 
-0.0109662 0.992995 -0.117646 
-0.0267171 0.989178 -0.144269 
-0.0342923 0.906911 -0.419925 
-0.0395881 0.775126 -0.630565 
-0.0342549 0.632156 -0.774084 
-0.0286518 0.499817 -0.865657 
-0.0227624 0.391661 -0.919828 
-0.0175521 0.307013 -0.951543 
-0.0141358 0.239068 -0.9709 
-0.0120975 0.184884 -0.982686 
-0.0109557 0.144032 -0.989512 
-0.0100237 0.110913 -0.99378 
-0.00963765 0.0858257 -0.996264 
-0.009517 0.0665644 -0.997737 
-0.00952022 0.052053 -0.998599 
-0.00952833 0.0403061 -0.999142 
-0.00964932 0.0314295 -0.999459 
-0.00976249 0.0245293 -0.999651 
-0.00983614 0.0190581 -0.99977 
-0.00984432 0.0146163 -0.999845 
-0.00992969 0.0111328 -0.999889 
-0.00996443 0.00826838 -0.999916 
-0.0100455 0.00598223 -0.999932 
-0.0101199 0.00404939 -0.999941 
-0.0101587 0.0023892 -0.999946 
-0.0101664 0.000873938 -0.999948 
-0.0101439 -0.000555817 -0.999948 
-0.0101166 -0.00197493 -0.999947 
-0.0100894 -0.00342343 -0.999943 
-0.0100514 -0.00491824 -0.999937 
-0.00998055 -0.00649419 -0.999929 
-0.00988497 -0.00815001 -0.999918 
-0.00978101 -0.00987733 -0.999903 
-0.00964649 -0.0116984 -0.999885 
-0.00950765 -0.013554 -0.999863 
-0.00930133 -0.015318 -0.999839 
-0.0090394 -0.0165777 -0.999822 
-0.0085194 -0.0170929 -0.999818 
-0.00754488 -0.0163948 -0.999837 
-0.00562358 -0.0129279 -0.999901 
0.000306344 0.00034209 -1 
0.00472411 -0.00794217 0.999957 
0.00870773 -0.0141265 0.999862 
0.0103539 -0.0155574 0.999825 
0.0109829 -0.0152379 0.999824 
0.0115743 -0.0149143 0.999822 
0.0119955 -0.0137411 0.999834 
0.0122958 -0.0119588 0.999853 
0.012508 -0.010139 0.99987 
0.0127741 -0.00845466 0.999883 
0.01286 -0.00685075 0.999894 
0.0130173 -0.0053279 0.999901 
0.0130485 -0.00384177 0.999907 
0.013204 -0.0023968 0.99991 
0.0131043 -0.000949795 0.999914 
0.0133546 0.000469486 0.999911 
0.0131466 0.0019704 0.999912 
0.0133119 0.00368874 0.999905 
0.013234 0.00555882 0.999897 
0.0132176 0.00779012 0.999882 
0.0132028 0.010461 0.999858 
0.013153 0.0137172 0.999819 
0.0130743 0.0177567 0.999757 
0.0129803 0.0229556 0.999652 
0.0128811 0.0296124 0.999478 
0.0130287 0.0380024 0.999193 
0.0131164 0.0487486 0.998725 
0.0133832 0.0625485 0.997952 
0.0140867 0.0801104 0.996686 
0.0151956 0.102103 0.994658 
0.016726 0.131236 0.99121 
0.0195898 0.168476 0.985511 
0.0235843 0.21643 0.976013 
0.0309355 0.280924 0.959231 
0.0413499 0.360657 0.931782 
0.0553959 0.465633 0.883243 
0.0718419 0.593865 0.801351 
0.0867882 0.744645 0.661795 
0.100597 0.876561 0.47066 
0.0392209 0.974681 0.220134 
0.0398139 0.994249 0.0994193 
-0.102977 0.955856 -0.2752 
-0.0802783 0.89268 -0.443484 
-0.085209 0.747104 -0.659223 
-0.070645 0.605838 -0.792445 
-0.0570702 0.482017 -0.874301 
-0.0446225 0.382524 -0.922867 
-0.03334 0.301549 -0.952867 
-0.0256458 0.237444 -0.971063 
-0.0205424 0.186276 -0.982283 
-0.0177179 0.14486 -0.989294 
-0.0152426 0.112862 -0.993494 
-0.0141039 0.0873192 -0.996081 
-0.013475 0.0681526 -0.997584 
-0.0132934 0.0529698 -0.998508 
-0.0128745 0.0415767 -0.999052 
-0.0129712 0.0323537 -0.999392 
-0.0130585 0.025212 -0.999597 
-0.0130938 0.0197158 -0.99972 
-0.0130216 0.0152306 -0.999799 
-0.0131814 0.0116319 -0.999845 
-0.0131315 0.00867901 -0.999876 
-0.0133092 0.00628863 -0.999892 
-0.0133409 0.00431722 -0.999902 
-0.0134074 0.00260166 -0.999907 
-0.0133922 0.00107403 -0.99991 
-0.0133796 -0.000386309 -0.99991 
-0.0133414 -0.00180508 -0.999909 
-0.013281 -0.00325016 -0.999907 
-0.0132625 -0.00471906 -0.999901 
-0.0131356 -0.00624195 -0.999894 
-0.0129981 -0.00784698 -0.999885 
-0.0128279 -0.00956561 -0.999872 
-0.0125495 -0.011397 -0.999856 
-0.0123266 -0.0132887 -0.999836 
-0.0118862 -0.0150056 -0.999817 
-0.0113138 -0.0160677 -0.999807 
-0.010564 -0.0166487 -0.999806 
-0.00911421 -0.0165841 -0.999821 
-0.00600788 -0.0126092 -0.999902 
-0.000491293 1.14072e-05 -1 
3.08419e-05 0.000164156 1 
0.0072331 -0.0121002 0.999901 
0.00941906 -0.0156725 0.999833 
0.0104958 -0.0153643 0.999827 
0.0113688 -0.0151266 0.999821 
0.0120036 -0.0141975 0.999827 
0.0124429 -0.012423 0.999845 
0.0127315 -0.0104604 0.999864 
0.0129045 -0.00866132 0.999879 
0.013135 -0.0070181 0.999889 
0.0132449 -0.00543671 0.999898 
0.013407 -0.00394357 0.999902 
0.0135507 -0.0024668 0.999905 
0.0136421 -0.000973446 0.999906 
0.0136826 0.000541149 0.999906 
0.0137445 0.0021401 0.999903 
0.0136821 0.00384775 0.999899 
0.0136783 0.00579002 0.99989 
0.0136705 0.0080604 0.999874 
0.0136385 0.0107744 0.999849 
0.0136143 0.0140956 0.999808 
0.0136143 0.0181058 0.999743 
0.0136546 0.0229627 0.999643 
0.013706 0.0294865 0.999471 
0.0139071 0.0374879 0.9992 
0.0142211 0.0479904 0.998747 
0.014812 0.0614851 0.997998 
0.0159349 0.0778703 0.996836 
0.0177501 0.099958 0.994833 
0.0205373 0.128433 0.991505 
0.0250797 0.163665 0.986197 
0.0316044 0.213037 0.976533 
0.0428093 0.270841 0.961672 
0.0589173 0.350514 0.934702 
0.0817853 0.446905 0.890835 
0.110187 0.571679 0.813045 
0.144433 0.707557 0.691739 
0.176782 0.861906 0.475253 
-0.201834 0.818292 -0.538202 
-0.144776 0.745795 -0.650254 
-0.113385 0.591399 -0.798368 
-0.0863938 0.470257 -0.87829 
-0.0642099 0.367823 -0.927676 
-0.0460761 0.289389 -0.956102 
-0.0342176 0.226193 -0.973481 
-0.0264066 0.178092 -0.983659 
-0.0213073 0.137136 -0.990323 
-0.0179593 0.106836 -0.994114 
-0.016333 0.0849067 -0.996255 
-0.0150572 0.0677695 -0.997587 
-0.0144591 0.0542977 -0.99842 
-0.013986 0.0432244 -0.998967 
-0.0137418 0.0340216 -0.999327 
-0.013597 0.0264172 -0.999559 
-0.0135581 0.0204787 -0.999698 
-0.0135934 0.0158908 -0.999781 
-0.0136331 0.0121761 -0.999833 
-0.013745 0.00913797 -0.999864 
-0.0137338 0.00661565 -0.999884 
-0.013747 0.00455523 -0.999895 
-0.0137644 0.00280465 -0.999901 
-0.0137676 0.00120897 -0.999904 
-0.0137645 -0.000259964 -0.999905 
-0.0137321 -0.00172655 -0.999904 
-0.0136763 -0.00317572 -0.999901 
-0.0135401 -0.00464047 -0.999898 
-0.01344 -0.00615102 -0.999891 
-0.0133163 -0.00772956 -0.999881 
-0.0131551 -0.00941739 -0.999869 
-0.0129124 -0.0112668 -0.999853 
-0.0124695 -0.013166 -0.999836 
-0.0119429 -0.0149241 -0.999817 
-0.0111774 -0.0158656 -0.999812 
-0.0101611 -0.0164049 -0.999814 
-0.00901089 -0.0165694 -0.999822 
-0.00695501 -0.0130216 -0.999891 
-8.74684e-05 8.39811e-05 -1 
0.000163193 5.62732e-05 1 
0.00704216 -0.0132792 0.999887 
0.00856016 -0.0157168 0.99984 
0.009784 -0.0156182 0.99983 
0.0108331 -0.0152926 0.999824 
0.0114923 -0.0143028 0.999832 
0.0119778 -0.0124176 0.999851 
0.0123159 -0.0104721 0.999869 
0.0125838 -0.00867073 0.999883 
0.012809 -0.00701768 0.999893 
0.0129706 -0.00549419 0.999901 
0.0131661 -0.00401649 0.999905 
0.0132301 -0.00253106 0.999909 
0.0133914 -0.00104415 0.99991 
0.013412 0.00042948 0.99991 
0.0135068 0.00198467 0.999907 
0.0134839 0.00364301 0.999902 
0.0135198 0.00556043 0.999893 
0.0135359 0.00776485 0.999878 
0.0135199 0.0103689 0.999855 
0.0135354 0.0135497 0.999817 
0.0135636 0.01741 0.999756 
0.0136387 0.0221882 0.999661 
0.0137785 0.0279951 0.999513 
0.0140419 0.0353994 0.999275 
0.0144867 0.0445439 0.998902 
0.0152693 0.0567886 0.998269 
0.016599 0.0713048 0.997316 
0.0185596 0.0898995 0.995778 
0.0216653 0.114515 0.993185 
0.0265798 0.144447 0.989155 
0.0336223 0.185197 0.982126 
0.0445576 0.231574 0.971796 
0.0612675 0.295479 0.953383 
0.0862176 0.371597 0.924382 
0.121468 0.469856 0.874346 
0.169944 0.579164 0.797301 
0.238255 0.699038 0.674226 
-0.247743 0.651991 -0.716611 
-0.169459 0.603978 -0.778778 
-0.123691 0.473585 -0.872019 
-0.0882119 0.378745 -0.921288 
-0.0608439 0.293784 -0.953933 
-0.0437025 0.230355 -0.972125 
-0.032614 0.179972 -0.983131 
-0.0254088 0.142733 -0.989435 
-0.0204192 0.108861 -0.993847 
-0.0179191 0.0853505 -0.99619 
-0.0160984 0.0678296 -0.997567 
-0.0149872 0.0533775 -0.998462 
-0.0142377 0.0420447 -0.999014 
-0.0138238 0.032849 -0.999365 
-0.0136116 0.0255187 -0.999582 
-0.0135238 0.0197461 -0.999714 
-0.0135377 0.0154185 -0.999789 
-0.0135117 0.0119352 -0.999837 
-0.0135753 0.0091468 -0.999866 
-0.0135906 0.00674933 -0.999885 
-0.0135978 0.0046666 -0.999897 
-0.0135983 0.0028714 -0.999903 
-0.0135972 0.00127171 -0.999907 
-0.0135706 -0.000251383 -0.999908 
-0.013528 -0.00170892 -0.999907 
-0.013438 -0.00320126 -0.999905 
-0.0133644 -0.00468376 -0.9999 
-0.0132224 -0.00617673 -0.999894 
-0.0130441 -0.00774877 -0.999885 
-0.0128182 -0.00943327 -0.999873 
-0.012538 -0.0112405 -0.999858 
-0.012112 -0.013244 -0.999839 
-0.0115467 -0.0149985 -0.999821 
-0.0107673 -0.0159343 -0.999815 
-0.0096093 -0.0162881 -0.999821 
-0.00820414 -0.0164288 -0.999831 
-0.00666807 -0.0129419 -0.999894 
-0.000168185 5.9631e-05 -1 
0.000147217 8.90289e-05 1 
0.00631077 -0.0125214 0.999902 
0.00799841 -0.0157335 0.999844 
0.00925971 -0.0159326 0.99983 
0.0103349 -0.0155819 0.999825 
0.0109957 -0.0146302 0.999833 
0.0115061 -0.0127244 0.999853 
0.0118193 -0.0106849 0.999873 
0.0120567 -0.00880379 0.999889 
0.0122704 -0.00704525 0.9999 
0.0124892 -0.00553417 0.999907 
0.0127065 -0.00404723 0.999911 
0.0128276 -0.00263732 0.999914 
0.0130181 -0.00118226 0.999915 
0.0130309 0.000300444 0.999915 
0.0131197 0.00188999 0.999912 
0.0130866 0.00358148 0.999908 
0.0131087 0.005485 0.999899 
0.0130588 0.00771551 0.999885 
0.0130839 0.0103752 0.999861 
0.0131149 0.0136144 0.999821 
0.0131788 0.0176784 0.999757 
0.0133636 0.0226697 0.999654 
0.0136719 0.0286702 0.999495 
0.0139991 0.0363582 0.999241 
0.0147898 0.0464433 0.998811 
0.0158132 0.0582132 0.998179 
0.0175313 0.0734729 0.997143 
0.0203134 0.0938935 0.995375 
0.0244251 0.11828 0.99268 
0.0313499 0.152766 0.987765 
0.0404997 0.189951 0.980958 
0.0556488 0.242179 0.968634 
0.0779227 0.303034 0.949789 
0.113486 0.382272 0.917055 
0.165455 0.468519 0.867822 
0.241807 0.552558 0.797627 
-0.236081 0.509581 -0.827401 
-0.175858 0.496482 -0.850047 
-0.121506 0.395108 -0.910563 
-0.083574 0.321067 -0.943362 
-0.0585315 0.252318 -0.965873 
-0.042714 0.200467 -0.978769 
-0.0324876 0.159379 -0.986683 
-0.0252867 0.126838 -0.991601 
-0.0210314 0.100262 -0.994739 
-0.0180892 0.0791659 -0.996697 
-0.0162794 0.0639251 -0.997822 
-0.0149817 0.0512429 -0.998574 
-0.0142941 0.0416092 -0.999032 
-0.0137756 0.0330714 -0.999358 
-0.0134285 0.0259061 -0.999574 
-0.0132188 0.0201156 -0.99971 
-0.0131125 0.0153709 -0.999796 
-0.0131039 0.011843 -0.999844 
-0.0132055 0.00892359 -0.999873 
-0.0131593 0.00645046 -0.999893 
-0.0131531 0.00444456 -0.999904 
-0.0131108 0.00267189 -0.99991 
-0.0131157 0.00105186 -0.999913 
-0.0130715 -0.000462426 -0.999914 
-0.0130633 -0.00196152 -0.999913 
-0.0129478 -0.00342762 -0.99991 
-0.0128226 -0.004908 -0.999906 
-0.0126876 -0.00638784 -0.999899 
-0.0125097 -0.00792838 -0.99989 
-0.0123035 -0.00961377 -0.999878 
-0.0120946 -0.0114645 -0.999861 
-0.0116086 -0.0133969 -0.999843 
-0.0110486 -0.0151592 -0.999824 
-0.0103036 -0.0161162 -0.999817 
-0.00921514 -0.0164233 -0.999823 
-0.00781929 -0.0163821 -0.999835 
-0.00622499 -0.0128568 -0.999898 
-0.000163888 7.11142e-05 -1 
0.000128523 7.24829e-05 1 
0.00584034 -0.0125543 0.999904 
0.00732503 -0.0162969 0.99984 
0.0085218 -0.0160665 0.999835 
0.00941922 -0.0156588 0.999833 
0.00996912 -0.014533 0.999845 
0.010396 -0.0125657 0.999867 
0.0106361 -0.0104899 0.999888 
0.0108582 -0.00854625 0.999905 
0.0109822 -0.00689475 0.999916 
0.0111654 -0.00535169 0.999923 
0.0113723 -0.00393358 0.999928 
0.0115334 -0.00241443 0.999931 
0.0117884 -0.000989649 0.99993 
0.0118021 0.000643962 0.99993 
0.0118856 0.00217583 0.999927 
0.0117734 0.00395707 0.999923 
0.0118321 0.0058803 0.999913 
0.0117733 0.00813414 0.999898 
0.0118145 0.0108451 0.999871 
0.0118899 0.014194 0.999829 
0.0119875 0.0183383 0.99976 
0.0122105 0.0232191 0.999656 
0.01271 0.0291893 0.999493 
0.012764 0.0353394 0.999294 
0.0138637 0.0435926 0.998953 
0.0148 0.0540422 0.998429 
0.0163948 0.067378 0.997593 
0.0191962 0.0856149 0.996143 
0.02313 0.107398 0.993947 
0.0292835 0.136026 0.990272 
0.0381862 0.169551 0.984781 
0.0509476 0.211358 0.97608 
0.0703059 0.261255 0.962706 
0.100302 0.324247 0.94064 
0.1458 0.391881 0.908389 
0.208687 0.448476 0.869091 
-0.193345 0.420887 -0.886269 
-0.151711 0.403025 -0.902527 
-0.104595 0.328455 -0.938711 
-0.0802668 0.287398 -0.954442 
-0.0589092 0.233973 -0.970457 
-0.0446822 0.193711 -0.980041 
-0.0334888 0.154155 -0.987479 
-0.026213 0.124427 -0.991882 
-0.021181 0.0984672 -0.994915 
-0.01764 0.0772699 -0.996854 
-0.0153194 0.0609591 -0.998023 
-0.013828 0.0482736 -0.998738 
-0.0130945 0.0385412 -0.999171 
-0.0126914 0.0307694 -0.999446 
-0.0123091 0.0240915 -0.999634 
-0.0121188 0.0184927 -0.999756 
-0.0118721 0.0143719 -0.999826 
-0.0117674 0.0111484 -0.999869 
-0.0120397 0.00861655 -0.99989 
-0.0118023 0.00646074 -0.999909 
-0.0118218 0.00455582 -0.99992 
-0.0117566 0.00278777 -0.999927 
-0.0117785 0.00115338 -0.99993 
-0.0117106 -0.000397474 -0.999931 
-0.0117501 -0.00190864 -0.999929 
-0.0115719 -0.00342078 -0.999927 
-0.0114461 -0.00489734 -0.999922 
-0.011299 -0.00639859 -0.999916 
-0.0111075 -0.00794975 -0.999907 
-0.0109306 -0.0096153 -0.999894 
-0.0107809 -0.0114863 -0.999876 
-0.0103072 -0.013507 -0.999856 
-0.00986992 -0.0153453 -0.999834 
-0.0092521 -0.0162546 -0.999825 
-0.00832308 -0.0165087 -0.999829 
-0.00707383 -0.01656 -0.999838 
-0.00567732 -0.0128556 -0.999901 
-0.000134163 6.60575e-05 -1 
0.000100497 7.69475e-05 1 
0.00485737 -0.0127189 0.999907 
0.00601864 -0.0161044 0.999852 
0.00706185 -0.0163934 0.999841 
0.00782183 -0.0159375 0.999842 
0.00837334 -0.015053 0.999852 
0.0086926 -0.0131538 0.999876 
0.00898566 -0.0111427 0.999898 
0.00922597 -0.00917753 0.999915 
0.0092808 -0.00744655 0.999929 
0.00947097 -0.00587715 0.999938 
0.00956659 -0.00437223 0.999945 
0.00986202 -0.0029227 0.999947 
0.00994597 -0.0013726 0.99995 
0.0102595 6.41188e-05 0.999947 
0.0101246 0.00173966 0.999947 
0.0101983 0.00334346 0.999942 
0.0101294 0.0053157 0.999935 
0.0101325 0.00739794 0.999921 
0.0101711 0.00995284 0.999899 
0.010287 0.0130328 0.999862 
0.0104016 0.016847 0.999804 
0.0105293 0.0215022 0.999713 
0.0109524 0.0270732 0.999573 
0.0112611 0.0341299 0.999354 
0.0124454 0.0434163 0.99898 
0.0135755 0.0539227 0.998453 
0.0155976 0.0682912 0.997543 
0.0184253 0.0851846 0.996195 
0.0227819 0.107343 0.993961 
0.0288552 0.13333 0.990652 
0.0371783 0.164023 0.985756 
0.0499354 0.203091 0.977886 
0.0641211 0.239646 0.968741 
0.0871052 0.288144 0.953617 
0.120898 0.342879 0.931567 
0.162797 0.386608 0.907762 
-0.137901 0.368471 -0.919354 
-0.125223 0.349406 -0.928566 
-0.0867891 0.290442 -0.952949 
-0.0670758 0.249117 -0.966148 
-0.0495964 0.204725 -0.977562 
-0.0385793 0.170816 -0.984547 
-0.0296981 0.139216 -0.989817 
-0.0251372 0.119148 -0.992558 
-0.0202513 0.0967417 -0.995103 
-0.0171071 0.0789507 -0.996732 
-0.0143211 0.0618155 -0.997985 
-0.0126814 0.0493371 -0.998702 
-0.0116914 0.0388062 -0.999178 
-0.0112221 0.0310949 -0.999453 
-0.0108946 0.024793 -0.999633 
-0.0107665 0.0192961 -0.999756 
-0.0102935 0.0147366 -0.999838 
-0.0100842 0.0113104 -0.999885 
-0.0102271 0.00852208 -0.999911 
-0.0100118 0.00630782 -0.99993 
-0.010109 0.00434064 -0.999939 
-0.010083 0.00254045 -0.999946 
-0.0100974 0.000909386 -0.999949 
-0.0100381 -0.000668974 -0.999949 
-0.0100473 -0.00216943 -0.999947 
-0.00984482 -0.00368211 -0.999945 
-0.00974971 -0.00519562 -0.999939 
-0.00958354 -0.00669085 -0.999932 
-0.00938877 -0.00824757 -0.999922 
-0.00920289 -0.00991109 -0.999909 
-0.00912907 -0.0116677 -0.99989 
-0.00861866 -0.013573 -0.999871 
-0.00829518 -0.0154713 -0.999846 
-0.00780725 -0.016408 -0.999835 
-0.00706008 -0.0167231 -0.999835 
-0.00597012 -0.0166009 -0.999844 
-0.00485112 -0.0128976 -0.999905 
-0.000108683 6.74356e-05 -1 
9.70244e-05 6.34133e-05 1 
0.00401758 -0.0127739 0.99991 
0.00498531 -0.0164725 0.999852 
0.00595445 -0.0163929 0.999848 
0.00647943 -0.015934 0.999852 
0.00698215 -0.0149395 0.999864 
0.00713805 -0.0130105 0.99989 
0.00749844 -0.0108871 0.999913 
0.00766654 -0.00898602 0.99993 
0.00774711 -0.00723965 0.999944 
0.00791054 -0.00566695 0.999953 
0.00795652 -0.00416013 0.99996 
0.00830807 -0.00265196 0.999962 
0.00824063 -0.00115361 0.999965 
0.00871159 0.000393372 0.999962 
0.00840446 0.0019645 0.999963 
0.00863908 0.00371834 0.999956 