# vtk DataFile Version 3.0 
Exported using Morpho https://github.com/Morpho-lang/morpho 
ASCII 
DATASET UNSTRUCTURED_GRID 

POINTS 2201 float 
-8.32618 -2.88146 0 
-8.11405 -2.88146 0 
-7.90192 -2.88146 0 
-7.68979 -2.88146 0 
-7.47765 -2.88146 0 
-7.26552 -2.88146 0 
-7.05339 -2.88146 0 
-6.84126 -2.88146 0 
-6.62913 -2.88146 0 
-6.41699 -2.88146 0 
-6.20486 -2.88146 0 
-5.99273 -2.88146 0 
-5.7806 -2.88146 0 
-5.56847 -2.88146 0 
-5.35633 -2.88146 0 
-5.1442 -2.88146 0 
-4.93207 -2.88146 0 
-4.71994 -2.88146 0 
-4.50781 -2.88146 0 
-4.29567 -2.88146 0 
-4.08354 -2.88146 0 
-3.87141 -2.88146 0 
-3.65928 -2.88146 0 
-3.44715 -2.88146 0 
-3.23501 -2.88146 0 
-3.02288 -2.88146 0 
-2.81075 -2.88146 0 
-2.59862 -2.88146 0 
-2.38649 -2.88146 0 
-2.17435 -2.88146 0 
-1.96222 -2.88146 0 
-1.75009 -2.88146 0 
-1.53796 -2.88146 0 
-1.32583 -2.88146 0 
-1.11369 -2.88146 0 
-0.901561 -2.88146 0 
-0.689429 -2.88146 0 
-0.477297 -2.88146 0 
-0.265165 -2.88146 0 
-0.053033 -2.88146 0 
0.159099 -2.88146 0 
0.371231 -2.88146 0 
0.583363 -2.88146 0 
0.795495 -2.88146 0 
1.00763 -2.88146 0 
1.21976 -2.88146 0 
1.43189 -2.88146 0 
1.64402 -2.88146 0 
1.85616 -2.88146 0 
2.06829 -2.88146 0 
2.28042 -2.88146 0 
2.49255 -2.88146 0 
2.70468 -2.88146 0 
2.91682 -2.88146 0 
3.12895 -2.88146 0 
3.34108 -2.88146 0 
3.55321 -2.88146 0 
3.76534 -2.88146 0 
3.97748 -2.88146 0 
4.18961 -2.88146 0 
4.40174 -2.88146 0 
4.61387 -2.88146 0 
4.826 -2.88146 0 
5.03814 -2.88146 0 
5.25027 -2.88146 0 
5.4624 -2.88146 0 
5.67453 -2.88146 0 
5.88666 -2.88146 0 
6.0988 -2.88146 0 
6.31093 -2.88146 0 
6.52306 -2.88146 0 
6.73519 -2.88146 0 
6.94732 -2.88146 0 
7.15946 -2.88146 0 
7.37159 -2.88146 0 
7.58372 -2.88146 0 
7.79585 -2.88146 0 
8.00798 -2.88146 0 
8.22012 -2.88146 0 
8.53831 -2.88146 0 
-8.53831 -2.72754 0 
-8.25401 -2.65693 0 
-8.03061 -2.64846 0 
-7.79651 -2.66093 0 
-7.56354 -2.66614 0 
-7.3326 -2.66841 0 
-7.1067 -2.66939 0 
-6.88358 -2.66973 0 
-6.6633 -2.67036 0 
-6.44434 -2.67063 0 
-6.22687 -2.67046 0 
-6.01064 -2.67035 0 
-5.79512 -2.67011 0 
-5.58009 -2.66966 0 
-5.36596 -2.66956 0 
-5.15193 -2.6693 0 
-4.9387 -2.66951 0 
-4.72538 -2.66973 0 
-4.51201 -2.66967 0 
-4.29893 -2.66967 0 
-4.08619 -2.66993 0 
-3.8732 -2.66961 0 
-3.6604 -2.66934 0 
-3.44792 -2.66928 0 
-3.23553 -2.66936 0 
-3.02318 -2.66953 0 
-2.81093 -2.66971 0 
-2.59897 -2.66995 0 
-2.38726 -2.67016 0 
-2.17594 -2.67072 0 
-1.96449 -2.67129 0 
-1.75274 -2.67141 0 
-1.54098 -2.67137 0 
-1.32863 -2.67081 0 
-1.11646 -2.67068 0 
-0.903183 -2.67124 0 
-0.689398 -2.66946 0 
-0.473842 -2.6668 0 
-0.262333 -2.65415 0 
-0.0523547 -2.66084 0 
0.158032 -2.65628 0 
0.370395 -2.6686 0 
0.585249 -2.6704 0 
0.798836 -2.66922 0 
1.01174 -2.67096 0 
1.22493 -2.67151 0 
1.437 -2.67143 0 
1.64842 -2.67132 0 
1.85972 -2.67104 0 
2.07111 -2.67081 0 
2.28255 -2.67041 0 
2.49396 -2.66989 0 
2.70557 -2.66957 0 
2.91742 -2.66939 0 
3.12963 -2.66945 0 
3.34183 -2.66949 0 
3.55394 -2.66951 0 
3.76607 -2.6696 0 
3.97817 -2.6698 0 
4.19052 -2.67014 0 
4.40274 -2.66987 0 
4.61472 -2.66946 0 
4.82702 -2.66968 0 
5.03931 -2.6694 0 
5.25144 -2.66923 0 
5.46363 -2.66922 0 
5.67594 -2.66956 0 
5.88793 -2.66968 0 
6.09978 -2.66997 0 
6.31085 -2.6696 0 
6.52193 -2.6707 0 
6.7346 -2.67036 0 
6.94745 -2.66993 0 
7.16197 -2.66945 0 
7.37715 -2.66763 0 
7.59199 -2.66506 0 
7.80812 -2.65941 0 
8.02326 -2.64768 0 
8.28537 -2.7059 0 
8.53831 -2.66933 0 
-8.42199 -2.51058 0 
-8.1842 -2.40942 0 
-7.95073 -2.43604 0 
-7.71725 -2.44966 0 
-7.48543 -2.458 0 
-7.26042 -2.45781 0 
-7.0404 -2.45919 0 
-6.8239 -2.45885 0 
-6.60934 -2.4601 0 
-6.39659 -2.45991 0 
-6.18511 -2.45924 0 
-5.97428 -2.45889 0 
-5.76344 -2.4585 0 
-5.55331 -2.45721 0 
-5.34269 -2.45737 0 
-5.13268 -2.4564 0 
-4.92199 -2.45722 0 
-4.71079 -2.45782 0 
-4.49956 -2.45763 0 
-4.28857 -2.45742 0 
-4.07718 -2.45814 0 
-3.86558 -2.45763 0 
-3.6542 -2.45693 0 
-3.44268 -2.45687 0 
-3.23093 -2.45718 0 
-3.0191 -2.45759 0 
-2.80759 -2.45785 0 
-2.59641 -2.45821 0 
-2.38569 -2.45839 0 
-2.17484 -2.45945 0 
-1.96422 -2.45961 0 
-1.75362 -2.46048 0 
-1.54261 -2.46029 0 
-1.3313 -2.4598 0 
-1.1186 -2.45821 0 
-0.905764 -2.46031 0 
-0.688591 -2.45717 0 
-0.472615 -2.44717 0 
-0.261187 -2.42013 0 
-0.0528009 -2.43369 0 
0.156401 -2.42643 0 
0.370014 -2.4525 0 
0.586228 -2.45889 0 
0.801032 -2.45635 0 
1.01581 -2.46123 0 
1.22864 -2.4609 0 
1.4398 -2.46018 0 
1.65045 -2.46012 0 
1.86124 -2.45989 0 
2.07207 -2.45949 0 
2.28285 -2.45866 0 
2.49393 -2.4579 0 
2.70541 -2.4575 0 
2.91765 -2.45757 0 
3.12994 -2.45752 0 
3.34208 -2.45748 0 
3.55433 -2.45764 0 
3.76649 -2.45777 0 
3.97866 -2.45816 0 
4.19083 -2.45879 0 
4.40292 -2.45799 0 
4.61486 -2.45735 0 
4.82706 -2.4579 0 
5.03909 -2.45703 0 
5.25117 -2.45693 0 
5.46325 -2.45696 0 
5.67527 -2.45759 0 
5.88701 -2.45762 0 
6.0982 -2.45808 0 
6.30898 -2.45748 0 
6.51891 -2.45871 0 
6.72941 -2.45961 0 
6.94179 -2.45832 0 
7.1546 -2.45852 0 
7.37061 -2.45532 0 
7.58869 -2.44828 0 
7.80382 -2.43519 0 
8.04666 -2.44343 0 
8.28881 -2.49956 0 
8.53831 -2.4572 0 
-8.53831 -2.2675 0 
-8.3286 -2.24765 0 
-8.02879 -2.20625 0 
-7.79268 -2.2326 0 
-7.55138 -2.2474 0 
-7.31673 -2.24704 0 
-7.08842 -2.24708 0 
-6.86687 -2.24686 0 
-6.64787 -2.24852 0 
-6.43139 -2.24835 0 
-6.2166 -2.24745 0 
-6.00279 -2.24687 0 
-5.78953 -2.24679 0 
-5.57615 -2.2446 0 
-5.36339 -2.24516 0 
-5.15025 -2.24328 0 
-4.93787 -2.2448 0 
-4.7249 -2.24597 0 
-4.51154 -2.24581 0 
-4.2982 -2.24509 0 
-4.08551 -2.24606 0 
-3.87298 -2.24582 0 
-3.65993 -2.2446 0 
-3.44725 -2.2445 0 
-3.23477 -2.24509 0 
-3.02228 -2.24576 0 
-2.81002 -2.24594 0 
-2.59844 -2.24634 0 
-2.38737 -2.24639 0 
-2.17678 -2.24784 0 
-1.96588 -2.24809 0 
-1.75434 -2.2485 0 
-1.54257 -2.24789 0 
-1.32951 -2.24726 0 
-1.11416 -2.24453 0 
-0.894901 -2.24986 0 
-0.675011 -2.24111 0 
-0.457283 -2.22108 0 
-0.257238 -2.16376 0 
-0.0614755 -2.19671 0 
0.146654 -2.19255 0 
0.361727 -2.23444 0 
0.582703 -2.24508 0 
0.801161 -2.24363 0 
1.01749 -2.25001 0 
1.23038 -2.24848 0 
1.44169 -2.2478 0 
1.6526 -2.24839 0 
1.86319 -2.24812 0 
2.07348 -2.24747 0 
2.28394 -2.24662 0 
2.49478 -2.24581 0 
2.70578 -2.24512 0 
2.91723 -2.24583 0 
3.12949 -2.24561 0 
3.34173 -2.24537 0 
3.55367 -2.24578 0 
3.76585 -2.24591 0 
3.97802 -2.24636 0 
4.19004 -2.24714 0 
4.40192 -2.24577 0 
4.6137 -2.24514 0 
4.82578 -2.24602 0 
5.03814 -2.24474 0 
5.25049 -2.24451 0 
5.4626 -2.2446 0 
5.67471 -2.24551 0 
5.88662 -2.24555 0 
6.0979 -2.24602 0 
6.3083 -2.24547 0 
6.51818 -2.24616 0 
6.72768 -2.24756 0 
6.9386 -2.24692 0 
7.15148 -2.24534 0 
7.36463 -2.24337 0 
7.57875 -2.23034 0 
7.81456 -2.23229 0 
8.05363 -2.23447 0 
8.29413 -2.28451 0 
8.53831 -2.24506 0 
-8.45675 -1.99179 0 
-8.2195 -2.05095 0 
-7.9565 -1.99021 0 
-7.72093 -2.02761 0 
-7.48962 -2.03687 0 
-7.26257 -2.0356 0 
-7.04383 -2.03321 0 
-6.82773 -2.03476 0 
-6.61493 -2.03625 0 
-6.40389 -2.03597 0 
-6.19366 -2.03519 0 
-5.98377 -2.03464 0 
-5.77357 -2.03483 0 
-5.56341 -2.03212 0 
-5.35265 -2.03305 0 
-5.14208 -2.03046 0 
-4.93093 -2.03269 0 
-4.71911 -2.03439 0 
-4.50694 -2.03436 0 
-4.29515 -2.03304 0 
-4.08429 -2.03358 0 
-3.87349 -2.03291 0 
-3.66169 -2.03277 0 
-3.44937 -2.03243 0 
-3.23724 -2.03292 0 
-3.02543 -2.03392 0 
-2.81365 -2.03428 0 
-2.60216 -2.03442 0 
-2.39146 -2.0344 0 
-2.18113 -2.03559 0 
-1.97099 -2.03609 0 
-1.75999 -2.03669 0 
-1.54744 -2.0349 0 
-1.33393 -2.03354 0 
-1.11812 -2.03122 0 
-0.897101 -2.03708 0 
-0.678038 -2.02128 0 
-0.470735 -1.9821 0 
-0.266485 -1.91343 0 
-0.0609461 -1.93877 0 
0.135779 -1.95016 0 
0.34845 -2.00972 0 
0.567547 -2.03241 0 
0.790891 -2.02942 0 
1.01155 -2.03698 0 
1.2274 -2.03511 0 
1.44113 -2.03454 0 
1.65265 -2.03587 0 
1.86328 -2.0356 0 
2.07354 -2.0352 0 
2.28391 -2.03449 0 
2.49443 -2.03349 0 
2.70511 -2.03259 0 
2.91615 -2.03362 0 
3.12786 -2.03375 0 
3.34005 -2.03343 0 
3.55225 -2.03352 0 
3.76405 -2.03406 0 
3.97636 -2.03462 0 
4.18872 -2.03514 0 
4.40066 -2.03369 0 
4.61283 -2.03259 0 
4.82449 -2.03387 0 
5.03642 -2.03254 0 
5.24867 -2.03233 0 
5.46107 -2.03203 0 
5.6729 -2.03328 0 
5.88459 -2.03349 0 
6.09584 -2.03402 0 
6.30617 -2.03355 0 
6.51559 -2.03396 0 
6.72481 -2.03485 0 
6.93427 -2.03483 0 
7.14594 -2.03299 0 
7.35975 -2.02772 0 
7.587 -2.02655 0 
7.81976 -2.02501 0 
8.05725 -2.02389 0 
8.29633 -2.06793 0 
8.53831 -2.03293 0 
-8.60397 -1.81864 0 
-8.29865 -1.79951 0 
-8.07451 -1.81868 0 
-7.772 -1.80435 0 
-7.53677 -1.82203 0 
-7.30365 -1.8245 0 
-7.07459 -1.81828 0 
-6.85412 -1.82137 0 
-6.6364 -1.82256 0 
-6.4225 -1.82278 0 
-6.21002 -1.82242 0 
-5.99814 -1.822 0 
-5.78645 -1.82263 0 
-5.57452 -1.8198 0 
-5.36224 -1.82094 0 
-5.14965 -1.81795 0 
-4.93701 -1.8202 0 
-4.72452 -1.82252 0 
-4.51152 -1.82299 0 
-4.29808 -1.82139 0 
-4.08466 -1.82013 0 
-3.87113 -1.82121 0 
-3.65799 -1.82088 0 
-3.44483 -1.82053 0 
-3.23192 -1.82096 0 
-3.01908 -1.8223 0 
-2.80657 -1.8228 0 
-2.59501 -1.82252 0 
-2.38403 -1.82234 0 
-2.17343 -1.82309 0 
-1.96208 -1.8236 0 
-1.74948 -1.82399 0 
-1.53557 -1.82057 0 
-1.31969 -1.81813 0 
-1.09454 -1.81965 0 
-0.877757 -1.81702 0 
-0.665915 -1.78566 0 
-0.454341 -1.7381 0 
-0.0871725 -1.69245 0 
-0.0978928 -1.43192 0 
0.118979 -1.69061 0 
0.325221 -1.77323 0 
0.539977 -1.81034 0 
0.757992 -1.81595 0 
0.985349 -1.82373 0 
1.20623 -1.82047 0 
1.42283 -1.8218 0 
1.63837 -1.82272 0 
1.85141 -1.82286 0 
2.0631 -1.82289 0 
2.27412 -1.82257 0 
2.48536 -1.82156 0 
2.69694 -1.82042 0 
2.90869 -1.82146 0 
3.12084 -1.82187 0 
3.3336 -1.82171 0 
3.54657 -1.82175 0 
3.75953 -1.82191 0 
3.97208 -1.82323 0 
4.18538 -1.82376 0 
4.39865 -1.82166 0 
4.61122 -1.82079 0 
4.82429 -1.82137 0 
5.0369 -1.82031 0 
5.24972 -1.82028 0 
5.46197 -1.81964 0 
5.6741 -1.82093 0 
5.88572 -1.82147 0 
6.09634 -1.82204 0 
6.30612 -1.82163 0 
6.51526 -1.82168 0 
6.72384 -1.82246 0 
6.93302 -1.82185 0 
7.1434 -1.82035 0 
7.36283 -1.82051 0 
7.58829 -1.81897 0 
7.82013 -1.81587 0 
8.05734 -1.81297 0 
8.29668 -1.85064 0 
8.53831 -1.8208 0 
-8.50862 -1.6305 0 
-8.26632 -1.55776 0 
[...]
POINT_DATA 2201 
VECTORS vectors float
-0.00015235 -0.000649458 1 
0.000183132 -0.0171042 0.999854 
-1.56794e-06 -0.0216943 0.999765 
6.51976e-05 -0.0218713 0.999761 
4.54145e-05 -0.0202346 0.999795 
5.10177e-05 -0.0179422 0.999839 
4.99667e-05 -0.0154177 0.999881 
5.01739e-05 -0.0128299 0.999918 
5.05134e-05 -0.0103298 0.999947 
5.07205e-05 -0.00802288 0.999968 
5.09503e-05 -0.00594271 0.999982 
5.10974e-05 -0.00405977 0.999992 
5.11854e-05 -0.00230516 0.999997 
5.11252e-05 -0.000594068 1 
5.11464e-05 0.00116517 0.999999 
5.09674e-05 0.00306951 0.999995 
5.08389e-05 0.00522351 0.999986 
5.05742e-05 0.0077447 0.99997 
5.02087e-05 0.0107718 0.999942 
4.9718e-05 0.0144719 0.999895 
4.92269e-05 0.0190498 0.999819 
4.83649e-05 0.0247659 0.999693 
4.74376e-05 0.0319484 0.99949 
4.61852e-05 0.0410084 0.999159 
4.46135e-05 0.0524726 0.998622 
4.26425e-05 0.06701 0.997752 
4.00708e-05 0.0854684 0.996341 
3.69494e-05 0.108905 0.994052 
3.25742e-05 0.13862 0.990346 
2.81573e-05 0.176171 0.98436 
2.11532e-05 0.223409 0.974725 
1.30064e-05 0.282641 0.959226 
3.34871e-06 0.355386 0.93472 
-4.76034e-06 0.442845 0.896598 
-2.27899e-05 0.544984 0.838446 
-2.94988e-05 0.658887 0.752242 
-3.31483e-05 0.773635 0.633631 
-4.00436e-05 0.87989 0.475178 
-2.48572e-05 0.960068 0.279766 
-7.33373e-06 0.998365 0.0571667 
1.92375e-05 0.985384 -0.170346 
2.99412e-05 0.924791 -0.380476 
3.82668e-05 0.830233 -0.557416 
3.67452e-05 0.716104 -0.697994 
2.33351e-05 0.599913 -0.800065 
1.34887e-05 0.491782 -0.870719 
1.19497e-06 0.397022 -0.917809 
-8.84582e-06 0.3172 -0.948359 
-1.74974e-05 0.251655 -0.967817 
-2.46128e-05 0.19874 -0.980052 
-3.03572e-05 0.156488 -0.98768 
-3.48628e-05 0.12298 -0.992409 
-3.85071e-05 0.0965232 -0.995331 
-4.1474e-05 0.0757219 -0.997129 
-4.36819e-05 0.0593573 -0.998237 
-4.54679e-05 0.0464624 -0.99892 
-4.68383e-05 0.036279 -0.999342 
-4.80063e-05 0.0282127 -0.999602 
-4.85882e-05 0.021799 -0.999762 
-4.98122e-05 0.0167074 -0.99986 
-4.98797e-05 0.0125825 -0.999921 
-5.02115e-05 0.00922894 -0.999957 
-5.10581e-05 0.00648236 -0.999979 
-5.06223e-05 0.00416511 -0.999991 
-5.12599e-05 0.0021662 -0.999998 
-5.10981e-05 0.00037538 -1 
-5.13049e-05 -0.00130741 -0.999999 
-5.10994e-05 -0.00297457 -0.999996 
-5.12781e-05 -0.00470999 -0.999989 
-5.09226e-05 -0.00658584 -0.999978 
-5.07831e-05 -0.00871244 -0.999962 
-5.04821e-05 -0.0110529 -0.999939 
-5.04405e-05 -0.013473 -0.999909 
-5.00304e-05 -0.0159298 -0.999873 
-5.28996e-05 -0.0182741 -0.999833 
-4.05254e-05 -0.0204126 -0.999792 
-7.15195e-05 -0.0218869 -0.99976 
-2.05193e-05 -0.021617 -0.999766 
-6.03703e-05 -0.0180113 -0.999838 
-5.86489e-08 -0.00114996 -0.999999 
0.000121838 0.000206936 1 
0.00496582 -0.0143964 0.999884 
0.00763881 -0.0201644 0.999767 
0.00890467 -0.0218141 0.999722 
0.00975287 -0.0208082 0.999736 
0.0102957 -0.0185417 0.999775 
0.0106977 -0.0159423 0.999816 
0.0110045 -0.0132751 0.999851 
0.0112248 -0.0107126 0.99988 
0.0113969 -0.00833518 0.9999 
0.0115364 -0.00618113 0.999914 
0.0116291 -0.00423038 0.999923 
0.0116884 -0.00241791 0.999929 
0.0117263 -0.000658517 0.999931 
0.0117263 0.00113758 0.999931 
0.0117101 0.00307617 0.999927 
0.0116567 0.00525675 0.999918 
0.0115762 0.00780789 0.999903 
0.0114799 0.0108709 0.999875 
0.0113537 0.0146096 0.999829 
0.0111834 0.0192286 0.999753 
0.0109933 0.0250049 0.999627 
0.0107647 0.0322615 0.999421 
0.0104859 0.0414021 0.999088 
0.0101535 0.0529602 0.998545 
0.00976477 0.0676088 0.997664 
0.00931906 0.0861882 0.996235 
0.00881328 0.109724 0.993923 
0.00825094 0.139488 0.990189 
0.0076251 0.176947 0.984191 
0.00694346 0.223844 0.9746 
0.00627165 0.28299 0.959102 
0.00559586 0.355331 0.934724 
0.00494879 0.442272 0.896867 
0.00432658 0.543569 0.839353 
0.00370914 0.656636 0.754199 
0.00309106 0.773234 0.634114 
0.0023191 0.881265 0.472616 
0.00151818 0.960955 0.276701 
0.000238089 0.998391 0.0566965 
-0.00107553 0.985584 -0.169186 
-0.00197803 0.924767 -0.380528 
-0.002795 0.827914 -0.560849 
-0.0034824 0.713564 -0.700581 
-0.00401334 0.597776 -0.801653 
-0.00459833 0.489854 -0.871792 
-0.00524067 0.395825 -0.918311 
-0.00591345 0.316802 -0.948473 
-0.00659956 0.251818 -0.967752 
-0.00727005 0.199225 -0.979927 
-0.00791083 0.157134 -0.987546 
-0.00850607 0.123686 -0.992285 
-0.00904098 0.0971898 -0.995225 
-0.00952792 0.0763382 -0.997036 
-0.00994992 0.0598791 -0.998156 
-0.0103159 0.0468963 -0.998846 
-0.0106287 0.0366409 -0.999272 
-0.0108895 0.0285125 -0.999534 
-0.0110934 0.0220341 -0.999696 
-0.0112965 0.0169274 -0.999793 
-0.0114216 0.0127461 -0.999854 
-0.0115355 0.00936106 -0.99989 
-0.0116475 0.00659966 -0.99991 
-0.0116934 0.00424948 -0.999923 
-0.0117584 0.00223236 -0.999928 
-0.0117886 0.000418479 -0.99993 
-0.0117912 -0.00128921 -0.99993 
-0.0117839 -0.00297839 -0.999926 
-0.0117515 -0.00473568 -0.99992 
-0.0117168 -0.00662722 -0.999909 
-0.0115521 -0.00868558 -0.999896 
-0.0114093 -0.0109241 -0.999875 
-0.0112775 -0.0133047 -0.999848 
-0.0110713 -0.0157211 -0.999815 
-0.0108139 -0.0180176 -0.999779 
-0.0104661 -0.019973 -0.999746 
-0.00997786 -0.0210427 -0.999729 
-0.0090144 -0.0203637 -0.999752 
-0.0049568 -0.0152216 -0.999872 
0.000150211 0.000320083 -1 
0.00225817 -0.00908431 0.999956 
0.00634482 -0.0211459 0.999756 
0.00983208 -0.0229609 0.999688 
0.0120243 -0.0225698 0.999673 
0.0133356 -0.0204822 0.999701 
0.0141947 -0.0179161 0.999739 
0.0147837 -0.0152586 0.999774 
0.0152321 -0.0126623 0.999804 
0.0155662 -0.0102097 0.999827 
0.0158278 -0.00793893 0.999843 
0.0160195 -0.00586067 0.999855 
0.0161453 -0.00395477 0.999862 
0.0162201 -0.00216267 0.999866 
0.0162598 -0.000412035 0.999868 
0.01625 0.00139558 0.999867 
0.0162163 0.00334657 0.999863 
0.0161347 0.00555595 0.999854 
0.0160223 0.00814331 0.999838 
0.0158808 0.011244 0.999811 
0.0157006 0.0150206 0.999764 
0.0154701 0.0196897 0.999686 
0.0152024 0.0255101 0.999559 
0.0149013 0.0328181 0.99935 
0.0145476 0.0420182 0.999011 
0.0141452 0.053644 0.99846 
0.013701 0.0683587 0.997567 
0.0132282 0.0869665 0.996123 
0.0127407 0.110486 0.993796 
0.0122676 0.140153 0.990054 
0.0118264 0.177587 0.984034 
0.0114918 0.224641 0.974374 
0.0112236 0.282521 0.959195 
0.0111386 0.354168 0.935115 
0.0111573 0.439545 0.898151 
0.0112259 0.54017 0.841481 
0.0109104 0.652185 0.757982 
0.0101306 0.771599 0.636029 
0.00848111 0.880553 0.473871 
0.00583417 0.960785 0.277232 
0.00107984 0.998341 0.0575627 
-0.00382973 0.985662 -0.168687 
-0.00713708 0.923824 -0.382751 
-0.00945668 0.825107 -0.564898 
-0.0108287 0.709327 -0.704796 
-0.0110556 0.59364 -0.804655 
-0.011098 0.486333 -0.873703 
-0.0110639 0.393506 -0.919255 
-0.0110942 0.315548 -0.948845 
-0.0112633 0.251204 -0.967869 
-0.011568 0.199094 -0.979912 
-0.0119768 0.15735 -0.98747 
-0.0124406 0.124051 -0.992198 
-0.0129113 0.0975015 -0.995152 
-0.0134269 0.0767366 -0.996961 
-0.0139047 0.0602765 -0.998085 
-0.0143404 0.0472692 -0.998779 
-0.01473 0.0369716 -0.999208 
-0.0150758 0.0288156 -0.999471 
-0.0153877 0.0223507 -0.999632 
-0.0156009 0.0171275 -0.999732 
-0.0157764 0.0129163 -0.999792 
-0.0159898 0.00954489 -0.999827 
-0.0160807 0.00672013 -0.999848 
-0.0162256 0.00436907 -0.999859 
-0.0162708 0.00231604 -0.999865 
-0.0163035 0.000472481 -0.999867 
-0.0163122 -0.0012627 -0.999866 
-0.0162986 -0.00297952 -0.999863 
-0.0162561 -0.00476208 -0.999857 
-0.0161185 -0.00665207 -0.999848 
-0.0159595 -0.00870302 -0.999835 
-0.0157393 -0.0108836 -0.999817 
-0.0154886 -0.0131871 -0.999793 
-0.0151427 -0.0155432 -0.999765 
-0.0146911 -0.0178415 -0.999733 
-0.0139817 -0.0196891 -0.999708 
-0.0130721 -0.020694 -0.9997 
-0.0112758 -0.0198402 -0.99974 
-0.00782134 -0.0150863 -0.999856 
-0.000384013 -7.91983e-05 -1 
-7.4528e-05 -2.30092e-05 1 
0.00267626 -0.0206947 0.999782 
0.00854942 -0.0264543 0.999613 
0.0116241 -0.0247123 0.999627 
0.0135551 -0.0220153 0.999666 
0.0147724 -0.0190525 0.999709 
0.0155924 -0.0161249 0.999748 
0.0161843 -0.0133794 0.99978 
0.0166339 -0.010818 0.999803 
0.0169727 -0.00844614 0.99982 
0.0172145 -0.00626618 0.999832 
0.0173735 -0.00426894 0.99984 
0.0174666 -0.002406 0.999845 
0.01751 -0.000593394 0.999847 
0.0175066 0.00125561 0.999846 
0.0174668 0.00324866 0.999842 
0.0173874 0.00548011 0.999834 
0.0172713 0.00808553 0.999818 
0.01712 0.011207 0.999791 
0.0169317 0.0150106 0.999744 
0.016704 0.019688 0.999667 
0.0164106 0.0254689 0.999541 
0.0161345 0.0328112 0.999331 
0.0158145 0.0420006 0.998992 
0.0154753 0.0535761 0.998444 
0.0151397 0.068205 0.997556 
0.0148403 0.0866894 0.996125 
0.0146175 0.109985 0.993826 
0.0145303 0.139314 0.990142 
0.01463 0.176139 0.984257 
0.0150141 0.222288 0.974865 
0.0157172 0.279604 0.959987 
0.0167894 0.349848 0.936656 
0.0181831 0.436006 0.89976 
0.0196431 0.537705 0.842904 
0.0200951 0.65427 0.755994 
0.0196206 0.774701 0.632023 
0.016938 0.884612 0.466019 
0.0124904 0.960542 0.277855 
0.00279427 0.997689 0.0678895 
-0.0072452 0.986875 -0.161322 
-0.0140768 0.924932 -0.379871 
-0.0184392 0.822684 -0.568199 
-0.0202912 0.704981 -0.708936 
-0.0197664 0.586537 -0.809681 
-0.0186671 0.480488 -0.876803 
-0.0173038 0.38883 -0.921147 
-0.016094 0.312237 -0.949868 
-0.0152044 0.248683 -0.968466 
-0.0146792 0.197473 -0.980199 
-0.0144615 0.156403 -0.987587 
-0.0144776 0.123622 -0.992224 
-0.0146567 0.0975811 -0.99512 
-0.0149319 0.0769078 -0.996926 
-0.0152672 0.0604899 -0.998052 
-0.0156203 0.0475019 -0.998749 
-0.015964 0.0372246 -0.999179 
-0.0162858 0.0290534 -0.999445 
-0.0165748 0.0225437 -0.999608 
-0.0168149 0.0173222 -0.999709 
-0.0170333 0.0131244 -0.999769 
-0.0172181 0.00970733 -0.999805 
-0.017354 0.0068707 -0.999826 
-0.0174606 0.00447531 -0.999838 
-0.0175223 0.0023939 -0.999844 
-0.0175553 0.000520585 -0.999846 
-0.0175717 -0.00124628 -0.999845 
-0.0175377 -0.00299476 -0.999842 
-0.0174461 -0.00480201 -0.999836 
-0.0173669 -0.00674623 -0.999826 
-0.0171606 -0.0087972 -0.999814 
-0.016895 -0.0109468 -0.999797 
-0.0165628 -0.0131898 -0.999776 
-0.0161326 -0.0155139 -0.999749 
-0.0155488 -0.0177555 -0.999721 
-0.0147589 -0.0196411 -0.999698 
-0.0135401 -0.0207274 -0.999693 
-0.0115668 -0.0197339 -0.999738 
-0.00822454 -0.0148303 -0.999856 
-0.000232794 2.31864e-06 -1 
-0.000354166 -0.0417825 0.999127 
0.00495752 -0.0315464 0.99949 
0.00928246 -0.0290605 0.999535 
0.011855 -0.0255859 0.999602 
0.01345 -0.0221315 0.999665 
0.0145083 -0.0188785 0.999717 
0.0152337 -0.0159082 0.999757 
0.0158059 -0.0131766 0.999788 
0.0162498 -0.0106666 0.999811 
0.0165758 -0.00832769 0.999828 
0.016804 -0.00616255 0.99984 
0.0169547 -0.00416931 0.999848 
0.0170466 -0.00230019 0.999852 
0.0170735 -0.000480664 0.999854 
0.017074 0.00138657 0.999853 
0.0170209 0.00339197 0.999849 
0.0169561 0.00564571 0.99984 
0.0168557 0.00827066 0.999824 
0.0167142 0.0114043 0.999795 
0.0165366 0.0152048 0.999748 
0.0163715 0.0198912 0.999668 
0.0161479 0.0256599 0.99954 
0.0158837 0.0328404 0.999334 
0.0156418 0.0419088 0.998999 
0.0154356 0.0533142 0.998458 
0.0152951 0.0676634 0.997591 
0.0152677 0.0857522 0.9962 
0.0154267 0.108525 0.993974 
0.0158642 0.137079 0.990433 
0.0166821 0.172867 0.984804 
0.0180033 0.217532 0.975887 
0.0199316 0.273189 0.961754 
0.0225753 0.342118 0.939386 
0.0257907 0.426237 0.904244 
0.0291689 0.526546 0.849646 
0.0312586 0.643251 0.765017 
0.0319868 0.765132 0.643078 
0.0299057 0.872505 0.487688 
0.0229074 0.95492 0.295977 
0.00529833 0.997584 0.0692637 
-0.0118051 0.987945 -0.154356 
-0.0233332 0.926586 -0.375359 
-0.0296695 0.824601 -0.564936 
-0.0320244 0.701852 -0.711603 
-0.0301282 0.581237 -0.813177 
-0.0272026 0.473776 -0.880225 
-0.0239356 0.382032 -0.923839 
-0.02099 0.305899 -0.951833 
-0.0187613 0.244395 -0.969494 
-0.017161 0.194534 -0.980746 
-0.0161202 0.154464 -0.987867 
-0.015529 0.12248 -0.992349 
-0.0152837 0.0971304 -0.995154 
-0.0152109 0.0766726 -0.99694 
-0.0153067 0.0604528 -0.998054 
-0.0154942 0.0475723 -0.998748 
-0.0157262 0.037345 -0.999179 
-0.0159702 0.0292152 -0.999446 
-0.0162025 0.0226979 -0.999611 
-0.0164091 0.0174612 -0.999713 
-0.0166478 0.0132965 -0.999773 
-0.0167972 0.00984534 -0.99981 
-0.016953 0.00700223 -0.999832 
-0.0170208 0.00457801 -0.999845 
-0.0170747 0.00247053 -0.999851 
-0.017088 0.000565685 -0.999854 
-0.0171455 -0.00123036 -0.999852 
-0.0170929 -0.0030092 -0.999849 
-0.0170061 -0.00485454 -0.999844 
-0.0168575 -0.00681412 -0.999835 
-0.0166755 -0.0088989 -0.999821 
-0.0164024 -0.0110481 -0.999804 
-0.0160473 -0.013253 -0.999783 
-0.0155863 -0.0155513 -0.999758 
-0.0149113 -0.0177638 -0.999731 
-0.0141163 -0.0197919 -0.999704 
-0.0129928 -0.0208419 -0.999698 
-0.0111895 -0.0198244 -0.999741 
-0.0080586 -0.0148069 -0.999858 
-0.000279353 -1.50939e-05 -1 
-0.00410255 -0.0709111 0.997474 
0.00454562 -0.0367178 0.999315 
0.00771057 -0.0327084 0.999435 
0.0106095 -0.0276682 0.999561 
0.0120892 -0.0236478 0.999647 
0.0131144 -0.0199713 0.999715 
0.0138098 -0.0166751 0.999766 
0.0143896 -0.0137856 0.999801 
0.0148348 -0.0111472 0.999828 
0.0151616 -0.00870723 0.999847 
0.0153899 -0.00645157 0.999861 
0.0155411 -0.00438111 0.99987 
0.0156394 -0.00245286 0.999875 
0.015661 -0.000584642 0.999877 
0.0156713 0.00132058 0.999876 
0.0156139 0.00336105 0.999872 
0.0155664 0.00564041 0.999863 
0.0154922 0.00827546 0.999846 
0.0153748 0.0114103 0.999817 
0.0151911 0.0151893 0.999769 
0.0150266 0.0198598 0.99969 
0.0149029 0.0256929 0.999559 
0.0147503 0.0329027 0.99935 
0.0146328 0.0419249 0.999014 
0.0145956 0.0532373 0.998475 
0.0146912 0.0674549 0.997614 
0.0149877 0.085305 0.996242 
0.0155898 0.107638 0.994068 
0.0166332 0.13559 0.990625 
0.0182725 0.170558 0.985178 
0.0207013 0.214374 0.976532 
0.0241057 0.269184 0.962787 
0.0287097 0.337078 0.941039 
0.0343763 0.420662 0.906566 
0.0404866 0.525116 0.850067 
0.0455653 0.640446 0.76665 
0.0495277 0.757562 0.650881 
0.0482407 0.869448 0.491664 
0.0134313 0.994399 0.104837 
0.0292657 0.990903 0.131356 
-0.0186506 0.989372 -0.144209 
-0.0368107 0.929408 -0.367214 
-0.0452014 0.828457 -0.558226 
-0.0468729 0.706568 -0.706091 
-0.0427197 0.581253 -0.812601 
-0.0371188 0.470942 -0.881383 
-0.0311895 0.37891 -0.924908 
-0.0260924 0.302711 -0.952725 
-0.0221512 0.241426 -0.970166 
-0.0192651 0.192293 -0.981148 
-0.0172659 0.15299 -0.988077 
-0.0159609 0.121545 -0.992458 
-0.0151727 0.0964526 -0.995222 
-0.0147435 0.0764038 -0.996968 
-0.0145692 0.060407 -0.998067 
-0.0145586 0.0476427 -0.998758 
-0.0146477 0.037469 -0.99919 
-0.0147868 0.029347 -0.99946 
-0.014941 0.0228337 -0.999628 
-0.0151479 0.0176471 -0.99973 
-0.0152643 0.0133893 -0.999794 
-0.0154079 0.0099462 -0.999832 
-0.0155079 0.00706033 -0.999855 
-0.0156069 0.00463268 -0.999867 
-0.0156735 0.002506 -0.999874 
-0.0157145 0.000582687 -0.999876 
-0.0156842 -0.00124174 -0.999876 
-0.0156724 -0.00305715 -0.999873 
-0.0156084 -0.00493908 -0.999866 
-0.0154967 -0.00694834 -0.999856 
-0.0152709 -0.00904539 -0.999842 
-0.0149877 -0.0111983 -0.999825 
-0.014625 -0.0133956 -0.999803 
-0.0141139 -0.0156147 -0.999778 
-0.013541 -0.0179532 -0.999747 
-0.012786 -0.0199579 -0.999719 
-0.0117378 -0.0209881 -0.999711 
-0.0101381 -0.0199566 -0.999749 
-0.00741589 -0.0148465 -0.999862 
-0.000235281 -9.89969e-06 -1 
0.00245095 -0.0229557 0.999733 
0.00680202 -0.0356251 0.999342 
0.0086524 -0.0322021 0.999444 
0.00998973 -0.0279707 0.999559 
0.011023 -0.0237373 0.999657 
0.0117708 -0.0199609 0.999731 
0.0122704 -0.0166883 0.999785 
0.0127691 -0.0137906 0.999823 
0.0131317 -0.0111643 0.999851 
0.0134124 -0.00870682 0.999872 
0.0136101 -0.00643163 0.999887 
0.0137419 -0.00434372 0.999896 
0.0138294 -0.00240022 0.999901 
0.0138455 -0.000514004 0.999904 
0.0138569 0.00140379 0.999903 
0.013802 0.00345239 0.999899 
0.0137643 0.00572544 0.999889 
0.0137199 0.00835219 0.999871 
0.0136606 0.0114756 0.999841 
0.013534 0.0152126 0.999793 
0.0133994 0.0197604 0.999715 
0.0133171 0.0254095 0.999588 
0.0132497 0.032408 0.999387 
0.0132527 0.0410878 0.999068 
0.0133724 0.0519106 0.998562 
0.0136779 0.0654075 0.997765 
0.0142476 0.0822328 0.996511 
0.0152079 0.103196 0.994545 
0.0167297 0.129248 0.991471 
0.0190211 0.161672 0.986661 
0.0223361 0.202065 0.979117 
0.0269955 0.252575 0.967201 
0.0333594 0.315264 0.948417 
0.0416434 0.393309 0.918463 
0.0510731 0.490367 0.870018 
0.0623425 0.606227 0.792844 
0.072211 0.731282 0.678242 
0.0794548 0.843995 0.530432 
0.042904 0.946664 0.319352 
0.0297454 0.997581 0.0628342 
-0.0258064 0.992387 -0.120422 
-0.0604502 0.91896 -0.389689 
-0.0686969 0.804643 -0.589772 
-0.0646865 0.672104 -0.737626 
-0.0559809 0.550007 -0.833282 
-0.0462059 0.444055 -0.894807 
-0.0372208 0.357525 -0.933162 
-0.0299943 0.286064 -0.957741 
-0.0245071 0.228836 -0.973156 
-0.0205285 0.18315 -0.982871 
-0.0177345 0.146499 -0.989052 
-0.0158412 0.117026 -0.993002 
-0.0146111 0.0933736 -0.995524 
-0.013864 0.0743909 -0.997133 
-0.0134496 0.0591056 -0.998161 
-0.0132557 0.0468395 -0.998814 
-0.0132087 0.0369973 -0.999228 
-0.0132502 0.0291041 -0.999489 
-0.0133566 0.022789 -0.999651 
-0.01345 0.017612 -0.999754 
-0.0135659 0.0134777 -0.999817 
-0.0136524 0.0100307 -0.999856 
-0.0137484 0.00715382 -0.99988 
-0.0138007 0.00469738 -0.999894 
-0.0138575 0.00255527 -0.999901 
-0.0138661 0.000605521 -0.999904 
-0.0138729 -0.00124329 -0.999903 
-0.0138517 -0.00308759 -0.999899 
-0.0137911 -0.00500516 -0.999892 
-0.0136751 -0.00704424 -0.999882 
-0.0134683 -0.00918257 -0.999867 
-0.013185 -0.0113537 -0.999849 
-0.012799 -0.0135138 -0.999827 
-0.0123865 -0.0158168 -0.999798 
-0.0118584 -0.0181347 -0.999765 
-0.0112047 -0.0201415 -0.999734 
-0.010278 -0.0211586 -0.999723 
-0.00886927 -0.0201118 -0.999758 
-0.00651778 -0.0149528 -0.999867 
-0.000196909 -1.18465e-05 -1 
0.0104372 -0.0920342 0.995701 
0.00745796 -0.0451767 0.998951 
0.0084513 -0.0337183 0.999396 
0.00908958 -0.0297289 0.999517 
0.00964488 -0.0248749 0.999644 
0.0101811 -0.0210039 0.999728 
0.0105602 -0.0175358 0.99979 
0.0109637 -0.0144386 0.999836 
0.0112656 -0.0116761 0.999868 
0.0115098 -0.00910598 0.999892 
0.0116856 -0.00673198 0.999909 
0.0118041 -0.0045618 0.99992 
0.0118819 -0.00255226 0.999926 
0.0119 -0.000623188 0.999929 
0.0119099 0.00133526 0.999928 
0.0118614 0.00340957 0.999924 
0.0118223 0.00571243 0.999914 
0.0117927 0.00834647 0.999896 
0.0117236 0.0114389 0.999866 
0.0116677 0.0152012 0.999816 
0.011602 0.0197451 0.999738 
0.011582 0.0253288 0.999612 
0.0115932 0.0322101 0.999414 
0.0117053 0.0407432 0.999101 
0.0119688 0.0513372 0.99861 
0.0124683 0.0645068 0.997839 
0.0132986 0.080873 0.996636 
0.0146082 0.101143 0.994765 
0.0166199 0.126318 0.991851 
0.0196186 0.157734 0.987287 
0.0239893 0.197183 0.980073 
0.0302159 0.246503 0.968671 
0.0390169 0.308889 0.950297 
0.0510891 0.38836 0.920091 
0.0659294 0.489234 0.869657 
0.0855918 0.608972 0.78856 
0.108996 0.730764 0.673872 
0.0877308 0.92738 0.36369 
0.13834 0.950629 0.277789 
-0.104497 0.971109 -0.214539 
-0.0938726 0.922692 -0.373935 
-0.100955 0.792588 -0.601342 
-0.087326 0.655078 -0.750498 
-0.0710372 0.52595 -0.847544 
-0.0554876 0.421179 -0.905279 
-0.0426633 0.336682 -0.940651 
-0.033115 0.270399 -0.962179 
-0.0261619 0.217342 -0.975745 
-0.0211856 0.174741 -0.984386 
-0.0176987 0.140376 -0.98994 
-0.0153117 0.112634 -0.993519 
-0.0137213 0.090252 -0.995824 
-0.0127166 0.0721789 -0.997311 
-0.0121062 0.0575927 -0.998267 
-0.0117634 0.045812 -0.998881 
-0.0116018 0.0363135 -0.999273 
-0.0115499 0.0286663 -0.999522 
-0.011575 0.0224928 -0.99968 
-0.0116394 0.0174661 -0.99978 
-0.0116831 0.0133634 -0.999842 
-0.0117563 0.00996219 -0.999881 
-0.0118542 0.00712274 -0.999904 
-0.0118512 0.00466867 -0.999919 
-0.0119187 0.0025351 -0.999926 
-0.0118851 0.000576337 -0.999929 
-0.0119149 -0.00129043 -0.999928 
-0.0118979 -0.00315516 -0.999924 
-0.0118435 -0.00509447 -0.999917 
-0.0117561 -0.00717215 -0.999905 
-0.0115553 -0.00933312 -0.99989 
-0.0112898 -0.0115238 -0.99987 
-0.0109478 -0.0137168 -0.999846 
-0.0105875 -0.0160452 -0.999815 
-0.0100812 -0.0183073 -0.999782 
-0.00954748 -0.0203588 -0.999747 
-0.00874196 -0.0213214 -0.999734 
-0.00755105 -0.020252 -0.999766 