# vtk DataFile Version 3.0 
Exported using Morpho https://github.com/Morpho-lang/morpho 
ASCII 
DATASET UNSTRUCTURED_GRID 

POINTS 2154 float 
-8.32618 -2.88146 0 
-8.11405 -2.88146 0 
-7.90192 -2.88146 0 
-7.68979 -2.88146 0 
-7.47765 -2.88146 0 
-7.26552 -2.88146 0 
-7.05339 -2.88146 0 
-6.84126 -2.88146 0 
-6.62913 -2.88146 0 
-6.41699 -2.88146 0 
-6.20486 -2.88146 0 
-5.99273 -2.88146 0 
-5.7806 -2.88146 0 
-5.56847 -2.88146 0 
-5.35633 -2.88146 0 
-5.1442 -2.88146 0 
-4.93207 -2.88146 0 
-4.71994 -2.88146 0 
-4.50781 -2.88146 0 
-4.29567 -2.88146 0 
-4.08354 -2.88146 0 
-3.87141 -2.88146 0 
-3.65928 -2.88146 0 
-3.44715 -2.88146 0 
-3.23501 -2.88146 0 
-3.02288 -2.88146 0 
-2.81075 -2.88146 0 
-2.59862 -2.88146 0 
-2.38649 -2.88146 0 
-2.17435 -2.88146 0 
-1.96222 -2.88146 0 
-1.75009 -2.88146 0 
-1.53796 -2.88146 0 
-1.32583 -2.88146 0 
-1.11369 -2.88146 0 
-0.901561 -2.88146 0 
-0.689429 -2.88146 0 
-0.477297 -2.88146 0 
-0.265165 -2.88146 0 
-0.053033 -2.88146 0 
0.159099 -2.88146 0 
0.371231 -2.88146 0 
0.583363 -2.88146 0 
0.795495 -2.88146 0 
1.00763 -2.88146 0 
1.21976 -2.88146 0 
1.43189 -2.88146 0 
1.64402 -2.88146 0 
1.85616 -2.88146 0 
2.06829 -2.88146 0 
2.28042 -2.88146 0 
2.49255 -2.88146 0 
2.70468 -2.88146 0 
2.91682 -2.88146 0 
3.12895 -2.88146 0 
3.34108 -2.88146 0 
3.55321 -2.88146 0 
3.76534 -2.88146 0 
3.97748 -2.88146 0 
4.18961 -2.88146 0 
4.40174 -2.88146 0 
4.61387 -2.88146 0 
4.826 -2.88146 0 
5.03814 -2.88146 0 
5.25027 -2.88146 0 
5.4624 -2.88146 0 
5.67453 -2.88146 0 
5.88666 -2.88146 0 
6.0988 -2.88146 0 
6.31093 -2.88146 0 
6.52306 -2.88146 0 
6.73519 -2.88146 0 
6.94732 -2.88146 0 
7.15946 -2.88146 0 
7.37159 -2.88146 0 
7.58372 -2.88146 0 
7.79585 -2.88146 0 
8.00798 -2.88146 0 
8.22012 -2.88146 0 
8.53831 -2.88146 0 
-8.53831 -2.74112 0 
-8.32873 -2.64555 0 
-8.09454 -2.66232 0 
-7.87057 -2.66423 0 
-7.63831 -2.66846 0 
-7.41209 -2.66873 0 
-7.18365 -2.67659 0 
-6.95275 -2.67367 0 
-6.72959 -2.66718 0 
-6.51113 -2.66349 0 
-6.29415 -2.66521 0 
-6.07565 -2.66804 0 
-5.8567 -2.66776 0 
-5.63966 -2.67198 0 
-5.42064 -2.66957 0 
-5.20534 -2.67088 0 
-4.98944 -2.67167 0 
-4.77202 -2.67449 0 
-4.55085 -2.67071 0 
-4.33641 -2.66953 0 
-4.1201 -2.67165 0 
-3.90224 -2.67295 0 
-3.68285 -2.67078 0 
-3.46705 -2.67273 0 
-3.24712 -2.67069 0 
-3.03045 -2.6698 0 
-2.81449 -2.66853 0 
-2.59986 -2.66752 0 
-2.37882 -2.67433 0 
-2.15167 -2.68443 0 
-1.93346 -2.66329 0 
-1.71226 -2.66743 0 
-1.49238 -2.66443 0 
-1.27082 -2.66158 0 
-1.0479 -2.65459 0 
-0.829917 -2.64802 0 
-0.604435 -2.65151 0 
-0.391727 -2.64284 0 
-0.204811 -2.4492 0 
-0.167379 -2.6656 0 
0.0542705 -2.67506 0 
0.303536 -2.69378 0 
0.534276 -2.66126 0 
0.75288 -2.65977 0 
0.974325 -2.66228 0 
1.19512 -2.66208 0 
1.41545 -2.66469 0 
1.63203 -2.67437 0 
1.86023 -2.66858 0 
2.07565 -2.66833 0 
2.29012 -2.66917 0 
2.51448 -2.67929 0 
2.72781 -2.6731 0 
2.94273 -2.67119 0 
3.15426 -2.66828 0 
3.36876 -2.66991 0 
3.57978 -2.66851 0 
3.7962 -2.67154 0 
4.01034 -2.67235 0 
4.2223 -2.66951 0 
4.43425 -2.67274 0 
4.65113 -2.67516 0 
4.85843 -2.66753 0 
5.07876 -2.67855 0 
5.28742 -2.66974 0 
5.50126 -2.67391 0 
5.71198 -2.67089 0 
5.92337 -2.67075 0 
6.1353 -2.67201 0 
6.3435 -2.66718 0 
6.55486 -2.66782 0 
6.76375 -2.66438 0 
6.97816 -2.66704 0 
7.1923 -2.66612 0 
7.40836 -2.66499 0 
7.62367 -2.66164 0 
7.84018 -2.65815 0 
8.0586 -2.6506 0 
8.3096 -2.72168 0 
8.53831 -2.66933 0 
-8.53831 -2.49976 0 
-8.26626 -2.44544 0 
-8.03768 -2.44412 0 
-7.7983 -2.4648 0 
-7.56172 -2.45984 0 
-7.32487 -2.46858 0 
-7.09107 -2.4795 0 
-6.86033 -2.46277 0 
-6.63896 -2.4501 0 
-6.42099 -2.44696 0 
-6.20409 -2.45309 0 
-5.98737 -2.45687 0 
-5.76978 -2.45687 0 
-5.55709 -2.4628 0 
-5.34336 -2.45679 0 
-5.13388 -2.45952 0 
-4.92093 -2.46352 0 
-4.70494 -2.46972 0 
-4.49541 -2.45548 0 
-4.28355 -2.45875 0 
-4.07062 -2.46275 0 
-3.85636 -2.4653 0 
-3.64544 -2.45865 0 
-3.4307 -2.46578 0 
-3.21955 -2.45889 0 
-3.01034 -2.45687 0 
-2.80209 -2.45405 0 
-2.60257 -2.44205 0 
-2.39978 -2.46865 0 
-2.17813 -2.4862 0 
-1.96857 -2.44364 0 
-1.75392 -2.4566 0 
-1.53165 -2.44865 0 
-1.31198 -2.4451 0 
-1.09014 -2.43715 0 
-0.863876 -2.41657 0 
-0.643168 -2.43117 0 
-0.419811 -2.40327 0 
-0.168523 -2.23792 0 
0.0171075 -2.45771 0 
0.263787 -2.34392 0 
0.248176 -2.52489 0 
0.498826 -2.46077 0 
0.730013 -2.43947 0 
0.947313 -2.4451 0 
1.16643 -2.44348 0 
1.38539 -2.449 0 
1.60511 -2.45674 0 
1.81782 -2.4728 0 
2.0482 -2.45482 0 
2.2602 -2.45591 0 
2.47446 -2.4798 0 
2.69275 -2.46311 0 
2.90326 -2.46274 0 
3.117 -2.45376 0 
3.32698 -2.45892 0 
3.53868 -2.45293 0 
3.74862 -2.4643 0 
3.96613 -2.46261 0 
4.17741 -2.45891 0 
4.39151 -2.46041 0 
4.60174 -2.47252 0 
4.81659 -2.45237 0 
5.03114 -2.47877 0 
5.24771 -2.4575 0 
5.46 -2.46659 0 
5.67223 -2.46048 0 
5.88479 -2.46127 0 
6.09788 -2.46141 0 
6.3081 -2.45304 0 
6.51805 -2.454 0 
6.73072 -2.44822 0 
6.94324 -2.45466 0 
7.16308 -2.45407 0 
7.38276 -2.45214 0 
7.60629 -2.44586 0 
7.82867 -2.43967 0 
8.05393 -2.43329 0 
8.29042 -2.51182 0 
8.53831 -2.4572 0 
-8.53831 -2.26741 0 
-8.32659 -2.27423 0 
-8.05606 -2.22754 0 
-7.8221 -2.2598 0 
-7.58697 -2.25876 0 
-7.34049 -2.26784 0 
-7.10035 -2.27899 0 
-6.88679 -2.24536 0 
-6.6703 -2.23913 0 
-6.44711 -2.23153 0 
-6.2277 -2.23714 0 
-6.01196 -2.24317 0 
-5.79607 -2.24681 0 
-5.57713 -2.24686 0 
-5.36944 -2.24586 0 
-5.15508 -2.24219 0 
-4.94872 -2.25199 0 
-4.73528 -2.26232 0 
-4.52336 -2.24162 0 
-4.3123 -2.24589 0 
-4.09965 -2.2508 0 
-3.88676 -2.25544 0 
-3.6741 -2.24607 0 
-3.46041 -2.25637 0 
-3.24665 -2.24678 0 
-3.03432 -2.24127 0 
-2.82546 -2.23753 0 
-2.61816 -2.21794 0 
-2.41277 -2.24729 0 
-2.20182 -2.28089 0 
-1.98738 -2.22686 0 
-1.76885 -2.23824 0 
-1.55251 -2.23752 0 
-1.32319 -2.22651 0 
-1.0943 -2.22018 0 
-0.862038 -2.19932 0 
-0.626717 -2.20619 0 
-0.387666 -2.1876 0 
-0.144214 -2.02911 0 
0.0483105 -2.24283 0 
0.0630134 -2.02481 0 
0.500127 -2.2585 0 
0.495037 -2.04512 0 
0.722322 -2.22969 0 
0.954847 -2.2261 0 
1.17884 -2.2265 0 
1.40477 -2.23688 0 
1.62336 -2.24125 0 
1.8497 -2.27516 0 
2.06827 -2.24088 0 
2.27762 -2.24206 0 
2.48962 -2.27448 0 
2.70003 -2.24944 0 
2.91542 -2.25311 0 
3.1278 -2.23954 0 
3.33924 -2.24605 0 
3.55135 -2.23888 0 
3.77144 -2.26037 0 
3.98274 -2.24965 0 
4.20196 -2.25202 0 
4.41404 -2.24905 0 
4.62505 -2.26447 0 
4.82887 -2.22902 0 
5.02811 -2.27453 0 
5.23355 -2.24252 0 
5.44341 -2.25718 0 
5.65556 -2.25128 0 
5.86815 -2.25194 0 
6.08236 -2.25437 0 
6.2957 -2.23822 0 
6.50616 -2.2415 0 
6.71686 -2.23318 0 
6.93207 -2.24165 0 
7.14675 -2.24431 0 
7.3707 -2.2418 0 
7.5936 -2.23478 0 
7.82037 -2.22383 0 
8.05908 -2.22732 0 
8.29836 -2.3016 0 
8.53831 -2.24506 0 
-8.42299 -2.03078 0 
-8.21191 -2.06587 0 
-7.93828 -2.0333 0 
-7.72225 -2.04667 0 
-7.4816 -2.06732 0 
-7.32137 -1.95965 0 
-7.16921 -2.07977 0 
-6.94699 -2.03356 0 
-6.72321 -2.02193 0 
-6.50208 -2.0231 0 
-6.27191 -2.02392 0 
-6.04904 -2.02756 0 
-5.83103 -2.03406 0 
-5.61145 -2.04055 0 
-5.3901 -2.02582 0 
-5.18308 -2.03337 0 
-4.9647 -2.03228 0 
-4.75807 -2.05266 0 
-4.53892 -2.03426 0 
-4.32411 -2.03301 0 
-4.11149 -2.0397 0 
-3.89677 -2.04408 0 
-3.6791 -2.03712 0 
-3.46479 -2.04605 0 
-3.25251 -2.03435 0 
-3.04454 -2.02366 0 
-2.83743 -2.0203 0 
-2.62366 -2.0061 0 
-2.40796 -2.02783 0 
-2.19941 -2.06965 0 
-1.97343 -2.01115 0 
-1.76157 -2.01622 0 
-1.52842 -2.02826 0 
-1.29342 -2.01348 0 
-1.05982 -2.00201 0 
-0.807494 -1.98908 0 
-0.561015 -1.99923 0 
-0.323915 -1.95687 0 
-0.0928069 -1.78516 0 
0.0508654 -1.80384 0 
0.27733 -2.15236 0 
0.267283 -1.9571 0 
0.735774 -2.02649 0 
0.963844 -2.01262 0 
1.19683 -2.0168 0 
1.4205 -2.02261 0 
1.63189 -2.01929 0 
1.84067 -2.07021 0 
2.04491 -2.02089 0 
2.25495 -2.02259 0 
2.46617 -2.06282 0 
2.67684 -2.03695 0 
2.88977 -2.04353 0 
3.10323 -2.0288 0 
3.31886 -2.03116 0 
3.52763 -2.0271 0 
3.74557 -2.05483 0 
3.96289 -2.03691 0 
4.176 -2.04874 0 
4.39805 -2.03739 0 
4.61163 -2.05052 0 
4.82654 -2.01789 0 
5.04022 -2.05657 0 
5.24516 -2.02058 0 
5.44545 -2.04644 0 
5.64865 -2.0335 0 
5.85609 -2.04288 0 
6.06961 -2.04675 0 
6.28294 -2.02776 0 
6.49427 -2.02663 0 
6.70529 -2.02119 0 
6.92035 -2.02857 0 
7.13789 -2.03235 0 
7.35647 -2.03438 0 
7.58478 -2.02434 0 
7.81892 -2.01941 0 
8.05947 -2.02074 0 
8.29896 -2.08984 0 
8.53831 -2.03293 0 
-8.53831 -1.83101 0 
-8.30769 -1.80376 0 
-8.09264 -1.87333 0 
-7.85321 -1.8091 0 
-7.61798 -1.85822 0 
-7.37364 -1.78042 0 
-7.08571 -1.84155 0 
-6.86285 -1.81241 0 
-6.64384 -1.80385 0 
-6.42204 -1.81591 0 
-6.20126 -1.8124 0 
-5.98644 -1.81372 0 
-5.77092 -1.82462 0 
-5.55867 -1.82887 0 
-5.35078 -1.80406 0 
-5.14054 -1.82454 0 
-4.93335 -1.81478 0 
-4.72275 -1.84589 0 
-4.51053 -1.82075 0 
-4.29901 -1.82155 0 
-4.08523 -1.83052 0 
-3.86711 -1.83791 0 
-3.65288 -1.82626 0 
-3.44344 -1.83247 0 
-3.23417 -1.81663 0 
-3.02861 -1.80347 0 
-2.81737 -1.80541 0 
-2.5984 -1.79667 0 
-2.37849 -1.82323 0 
-2.15775 -1.85948 0 
-1.93103 -1.78334 0 
-1.69823 -1.81488 0 
-1.46407 -1.81657 0 
-1.22584 -1.79659 0 
-0.969206 -1.8005 0 
-0.699876 -1.78955 0 
-0.458054 -1.78047 0 
-0.234503 -1.68957 0 
0.183064 -1.74331 0 
0.420511 -1.81949 0 
0.646533 -1.84148 0 
0.900391 -1.80531 0 
1.14153 -1.81098 0 
1.38279 -1.80867 0 
1.60747 -1.79657 0 
1.82636 -1.847 0 
2.03862 -1.80616 0 
2.26132 -1.80385 0 
2.47237 -1.84988 0 
2.69062 -1.82522 0 
2.90402 -1.83122 0 
3.12404 -1.82061 0 
3.3305 -1.81305 0 
3.55401 -1.82438 0 
3.76568 -1.84518 0 
3.98084 -1.82516 0 
4.20086 -1.84552 0 
4.41776 -1.82734 0 
4.62921 -1.83971 0 
4.82573 -1.78729 0 
5.0232 -1.84405 0 
5.23481 -1.80969 0 
5.44976 -1.82522 0 
5.66253 -1.82093 0 
5.87492 -1.83378 0 
6.08715 -1.83734 0 
6.29743 -1.81343 0 
6.50502 -1.81146 0 
6.71365 -1.80509 0 
6.92525 -1.81797 0 
7.14154 -1.81985 0 
7.3676 -1.82853 0 
7.59357 -1.81636 0 
7.83184 -1.81624 0 
8.06602 -1.81088 0 
8.30033 -1.87883 0 
8.53831 -1.8208 0 
-8.53831 -1.61347 0 
-8.30101 -1.59104 0 
-8.06017 -1.65721 0 
-7.82758 -1.58726 0 
-7.6131 -1.65566 0 
-7.38641 -1.57177 0 
[...]
POINT_DATA 2154 
VECTORS vectors float
-0.00016921 -0.000343826 1 
0.000127762 -0.0103175 0.999947 
-0.000102612 -0.0147817 0.999891 
-3.58317e-05 -0.0159219 0.999873 
-3.60237e-05 -0.0151607 0.999885 
-4.39694e-05 -0.0136338 0.999907 
-3.95525e-05 -0.0118912 0.999929 
-4.0947e-05 -0.0101189 0.999949 
-4.09172e-05 -0.00835492 0.999965 
-4.06654e-05 -0.00661045 0.999978 
-4.08173e-05 -0.00490439 0.999988 
-4.11302e-05 -0.00325718 0.999995 
-4.04382e-05 -0.00166954 0.999999 
-4.17362e-05 -0.000104575 1 
-4.00661e-05 0.00149035 0.999999 
-4.17834e-05 0.00318762 0.999995 
-4.00797e-05 0.00508396 0.999987 
-4.11406e-05 0.00729142 0.999973 
-3.99013e-05 0.00993051 0.999951 
-4.05159e-05 0.0131487 0.999914 
-3.91764e-05 0.0171466 0.999853 
-3.94425e-05 0.022165 0.999754 
-3.79036e-05 0.0284963 0.999594 
-3.78411e-05 0.0365266 0.999333 
-3.62394e-05 0.046766 0.998906 
-3.40557e-05 0.0598381 0.998208 
-3.35762e-05 0.0765854 0.997063 
-3.03817e-05 0.0981664 0.99517 
-2.69359e-05 0.125211 0.99213 
-2.41977e-05 0.159983 0.98712 
-1.87743e-05 0.204068 0.978957 
-1.26725e-05 0.259832 0.965654 
-6.49688e-06 0.329595 0.944122 
2.13739e-06 0.415004 0.909819 
9.66161e-06 0.516531 0.856269 
1.7291e-05 0.631851 0.77509 
1.82538e-05 0.753808 0.657094 
2.25379e-05 0.868434 0.495805 
8.17475e-06 0.956461 0.29186 
6.94218e-06 0.998298 0.0583274 
-1.30621e-05 0.983384 -0.181539 
-1.1155e-05 0.915394 -0.402558 
-2.43164e-05 0.810495 -0.585746 
-1.76771e-05 0.689613 -0.724178 
-1.28488e-05 0.569705 -0.821849 
-7.71235e-06 0.460985 -0.887408 
5.6666e-06 0.367899 -0.929866 
7.40094e-06 0.291024 -0.956716 
1.5911e-05 0.229643 -0.973275 
2.43749e-05 0.17969 -0.983723 
2.21166e-05 0.140583 -0.990069 
3.1885e-05 0.109928 -0.99394 
2.9867e-05 0.085965 -0.996298 
3.5413e-05 0.0672138 -0.997739 
3.44324e-05 0.0525506 -0.998618 
3.76295e-05 0.0410602 -0.999157 
3.76034e-05 0.0320497 -0.999486 
3.8612e-05 0.024955 -0.999689 
3.94695e-05 0.0193455 -0.999813 
4.02961e-05 0.0148972 -0.999889 
3.87486e-05 0.0113308 -0.999936 
4.30494e-05 0.00842466 -0.999965 
3.76116e-05 0.00603887 -0.999982 
4.39815e-05 0.00400639 -0.999992 
3.85185e-05 0.00221811 -0.999998 
4.25126e-05 0.000588918 -1 
4.05703e-05 -0.000982984 -1 
4.05395e-05 -0.00255507 -0.999997 
4.18915e-05 -0.0041867 -0.999991 
3.9659e-05 -0.00589366 -0.999983 
4.18756e-05 -0.00767221 -0.999971 
3.98776e-05 -0.00950151 -0.999955 
4.13584e-05 -0.0113592 -0.999935 
3.85535e-05 -0.0132499 -0.999912 
4.7423e-05 -0.0151218 -0.999886 
2.39733e-05 -0.0167712 -0.999859 
6.84807e-05 -0.017505 -0.999847 
3.4812e-06 -0.0166686 -0.999861 
8.7068e-05 -0.0106737 -0.999943 
-5.70317e-05 -0.000816815 -1 
0.000114799 0.000267072 1 
0.0037481 -0.00841201 0.999958 
0.00503658 -0.00966257 0.999941 
0.00617768 -0.0144297 0.999877 
0.00673203 -0.0153238 0.99986 
0.00692524 -0.0143849 0.999873 
0.00724278 -0.0127769 0.999892 
0.00730752 -0.0109062 0.999914 
0.00730908 -0.00906007 0.999932 
0.00735782 -0.007282 0.999946 
0.00744583 -0.00555639 0.999957 
0.0075341 -0.00386967 0.999964 
0.00752959 -0.00222921 0.999969 
0.00761884 -0.000630095 0.999971 
0.00759672 0.00100464 0.999971 
0.00759842 0.00270331 0.999967 
0.00759497 0.00458487 0.999961 
0.00766994 0.00676597 0.999948 
0.00757629 0.00941881 0.999927 
0.0074876 0.0125674 0.999893 
0.007484 0.0165078 0.999836 
0.00745846 0.0214963 0.999741 
0.00734628 0.0278783 0.999584 
0.00733114 0.0358788 0.999329 
0.007296 0.0463248 0.9989 
0.00727047 0.0595353 0.9982 
0.00729592 0.0764078 0.99705 
0.00745122 0.097753 0.995183 
0.00774923 0.126555 0.991929 
0.00805586 0.16461 0.986326 
0.0091368 0.21059 0.977532 
0.0101853 0.270928 0.962546 
0.0118176 0.345873 0.938207 
0.0138339 0.438498 0.898626 
0.0163333 0.548804 0.835792 
0.0183026 0.670066 0.742075 
0.0174958 0.799203 0.600807 
0.0148278 0.906712 0.421489 
0.0186128 0.971876 0.234756 
0.00633425 0.982084 0.188336 
-0.00234024 0.997919 -0.0644444 
-0.00888843 0.94127 -0.337538 
-0.0160888 0.834866 -0.550217 
-0.017401 0.711848 -0.702118 
-0.0162239 0.586032 -0.810125 
-0.0144489 0.471414 -0.881794 
-0.0123663 0.373607 -0.927505 
-0.0103931 0.294536 -0.955584 
-0.00937199 0.227437 -0.973748 
-0.00848482 0.177989 -0.983996 
-0.00795043 0.139112 -0.990245 
-0.00755748 0.107418 -0.994185 
-0.00730619 0.0839285 -0.996445 
-0.00726261 0.0654461 -0.99783 
-0.0072474 0.0512389 -0.99866 
-0.00728558 0.0399485 -0.999175 
-0.0073186 0.0312352 -0.999485 
-0.00742772 0.0241985 -0.99968 
-0.00745092 0.0187153 -0.999797 
-0.0074536 0.0143977 -0.999869 
-0.00758567 0.010925 -0.999912 
-0.0076286 0.00804151 -0.999939 
-0.00757973 0.00575145 -0.999955 
-0.00777413 0.00367807 -0.999963 
-0.00756462 0.00194656 -0.999969 
-0.00768352 0.000303184 -0.99997 
-0.00761136 -0.00125664 -0.99997 
-0.00760269 -0.0028296 -0.999967 
-0.00756086 -0.00444902 -0.999962 
-0.00745445 -0.00610295 -0.999954 
-0.00743383 -0.00784671 -0.999942 
-0.00731534 -0.00961977 -0.999927 
-0.00725947 -0.011482 -0.999908 
-0.00706698 -0.0133382 -0.999886 
-0.00684628 -0.0150759 -0.999863 
-0.00650434 -0.0163524 -0.999845 
-0.00604445 -0.0164374 -0.999847 
-0.00505341 -0.0135715 -0.999895 
-0.00477927 -0.0113905 -0.999924 
0.00013201 0.000629443 -1 
-0.000125357 -1.1224e-05 1 
0.00181917 -0.00732757 0.999971 
0.00554358 -0.0118895 0.999914 
0.00698075 -0.0151613 0.999861 
0.00789397 -0.0149591 0.999857 
0.00820705 -0.0137285 0.999872 
0.00833493 -0.011994 0.999893 
0.00888359 -0.010054 0.99991 
0.0093979 -0.00825432 0.999922 
0.00961375 -0.00652832 0.999932 
0.00960602 -0.00485122 0.999942 
0.00964836 -0.00321705 0.999948 
0.00977713 -0.00160698 0.999951 
0.00972961 -3.16867e-05 0.999953 
0.00995059 0.00160049 0.999949 
0.00991658 0.0033166 0.999945 
0.00981746 0.00526516 0.999938 
0.00966924 0.00755957 0.999925 
0.00995417 0.0102228 0.999898 
0.00983913 0.0135087 0.99986 
0.00969438 0.0176015 0.999798 
0.0096131 0.0227611 0.999695 
0.00973725 0.0291554 0.999527 
0.00961128 0.0374233 0.999253 
0.00985393 0.0477256 0.998812 
0.0101039 0.0607016 0.998105 
0.0105727 0.0771357 0.996965 
0.0114427 0.0970017 0.995218 
0.0115297 0.122473 0.992405 
0.0123693 0.158024 0.987358 
0.0156784 0.20005 0.97966 
0.0180111 0.255022 0.966768 
0.0222117 0.326109 0.945071 
0.027209 0.413436 0.910127 
0.0331506 0.517827 0.854843 
0.0396598 0.639789 0.767526 
0.0396006 0.769367 0.637578 
0.0368132 0.887561 0.459217 
0.0288077 0.978374 0.204829 
-0.00223255 0.999742 -0.0225996 
-0.031793 0.950355 -0.30954 
-0.0181434 0.958563 -0.284304 
-0.0341993 0.847881 -0.529083 
-0.0389294 0.715961 -0.697054 
-0.0355276 0.59266 -0.804669 
-0.0307187 0.477686 -0.877994 
-0.0251791 0.379841 -0.924709 
-0.0203425 0.299032 -0.954026 
-0.0163525 0.236095 -0.971592 
-0.0144515 0.18156 -0.983274 
-0.0126846 0.142415 -0.989726 
-0.0109187 0.111901 -0.993659 
-0.0105835 0.0869201 -0.996159 
-0.0101614 0.0682259 -0.997618 
-0.0100722 0.0533538 -0.998525 
-0.00982506 0.0418912 -0.999074 
-0.00989297 0.0327838 -0.999414 
-0.00965954 0.0256447 -0.999624 
-0.00972143 0.0198061 -0.999757 
-0.00989303 0.015296 -0.999834 
-0.00990615 0.0116298 -0.999883 
-0.00969674 0.00869762 -0.999915 
-0.0101406 0.00621888 -0.999929 
-0.00962774 0.00413096 -0.999945 
-0.0100652 0.00227182 -0.999947 
-0.00992196 0.000611008 -0.999951 
-0.0100108 -0.000978613 -0.999949 
-0.00994282 -0.00255854 -0.999947 
-0.00987322 -0.0041701 -0.999943 
-0.00991307 -0.00580761 -0.999934 
-0.00975638 -0.00750244 -0.999924 
-0.0096586 -0.0092761 -0.99991 
-0.00927536 -0.0111094 -0.999895 
-0.008935 -0.0130095 -0.999875 
-0.00852562 -0.0147241 -0.999855 
-0.00802377 -0.0159876 -0.99984 
-0.00718269 -0.0161245 -0.999844 
-0.00533011 -0.0128574 -0.999903 
-0.0013757 -0.00947823 -0.999954 
-0.000241439 -8.83135e-05 -1 
1.59126e-06 8.88875e-06 1 
0.00203178 -0.00792265 0.999967 
0.00768583 -0.0120326 0.999898 
0.00969781 -0.0151646 0.999838 
0.0107279 -0.0150994 0.999828 
0.0112975 -0.0138234 0.999841 
0.0116415 -0.0120387 0.99986 
0.0122116 -0.0102968 0.999872 
0.0124051 -0.0085062 0.999887 
0.0126309 -0.00674531 0.999897 
0.0127669 -0.00506081 0.999906 
0.0128871 -0.00343895 0.999911 
0.0130037 -0.00183823 0.999914 
0.0131012 -0.000210199 0.999914 
0.0131887 0.00138119 0.999912 
0.0132531 0.00313346 0.999907 
0.0132132 0.00500689 0.9999 
0.0131218 0.00724084 0.999888 
0.0132187 0.00984556 0.999864 
0.0131401 0.013032 0.999829 
0.0130723 0.0169827 0.99977 
0.0130241 0.0219346 0.999675 
0.0130855 0.028052 0.999521 
0.013084 0.0359902 0.999266 
0.0133285 0.0458808 0.998858 
0.0136884 0.0583465 0.998203 
0.0143276 0.07412 0.997146 
0.0154882 0.0933891 0.995509 
0.0165021 0.11834 0.992836 
0.0178534 0.15095 0.98838 
0.022169 0.191336 0.981274 
0.0262075 0.244118 0.969391 
0.0320941 0.309519 0.950352 
0.0406317 0.395179 0.917705 
0.050573 0.50069 0.864148 
0.0620657 0.624186 0.778806 
0.0659476 0.761752 0.644503 
0.0600541 0.892508 0.447015 
0.0447471 0.980365 0.192048 
-0.00973196 0.998022 -0.0621013 
-0.0212683 0.99597 -0.0871275 
-0.0569029 0.836211 -0.545448 
-0.0912036 0.817258 -0.569009 
-0.0621935 0.705389 -0.706087 
-0.0556062 0.570987 -0.819074 
-0.0462619 0.457194 -0.888163 
-0.0368013 0.361115 -0.931795 
-0.0296124 0.284735 -0.958149 
-0.0231854 0.22293 -0.974559 
-0.0203615 0.173257 -0.984666 
-0.0178102 0.137184 -0.990385 
-0.015492 0.108131 -0.994016 
-0.0146891 0.0848217 -0.996288 
-0.0138745 0.0664773 -0.997691 
-0.0135503 0.0521762 -0.998546 
-0.0132147 0.0410077 -0.999071 
-0.0131738 0.0321409 -0.999397 
-0.0129641 0.0248998 -0.999606 
-0.0130782 0.0193964 -0.999726 
-0.01313 0.0148442 -0.999804 
-0.013225 0.0113123 -0.999849 
-0.0131554 0.00844619 -0.999878 
-0.0134881 0.00611856 -0.99989 
-0.0131225 0.00416727 -0.999905 
-0.0134466 0.00238963 -0.999907 
-0.0132987 0.000724553 -0.999911 
-0.013276 -0.000882808 -0.999911 
-0.0132153 -0.00247346 -0.99991 
-0.0130898 -0.00409347 -0.999906 
-0.0130223 -0.00573321 -0.999899 
-0.0128038 -0.00741606 -0.999891 
-0.0126393 -0.00915426 -0.999878 
-0.0122939 -0.0110055 -0.999864 
-0.0119091 -0.0128664 -0.999846 
-0.0113911 -0.0146125 -0.999828 
-0.0106948 -0.0158327 -0.999817 
-0.00959999 -0.015901 -0.999827 
-0.00748842 -0.0127173 -0.999891 
-0.00259927 -0.00938085 -0.999953 
-0.000107454 0.000125587 -1 
0.00117768 -0.0109421 0.999939 
0.00465763 -0.00833759 0.999954 
0.00917685 -0.0146295 0.999851 
0.0105191 -0.0155299 0.999824 
0.0114647 -0.014833 0.999824 
0.0115954 -0.0139468 0.999836 
0.0121751 -0.0127114 0.999845 
0.012387 -0.0108451 0.999864 
0.0126214 -0.00897727 0.99988 
0.012846 -0.00722085 0.999891 
0.013045 -0.00545415 0.9999 
0.0132217 -0.00377667 0.999905 
0.0133779 -0.00215254 0.999908 
0.0135055 -0.000509876 0.999909 
0.0135526 0.00118834 0.999907 
0.0136203 0.00287876 0.999903 
0.0136287 0.00484189 0.999895 
0.0136598 0.00696713 0.999882 
0.0136508 0.00965365 0.99986 
0.0136069 0.0128064 0.999825 
0.0136007 0.0166554 0.999769 
0.0136065 0.0214803 0.999677 
0.0137166 0.0276996 0.999522 
0.0138645 0.0353036 0.99928 
0.0142218 0.0449139 0.99889 
0.0148166 0.0567623 0.998278 
0.0156842 0.0713768 0.997326 
0.0172074 0.0906553 0.995734 
0.0191835 0.115358 0.993139 
0.0216992 0.146821 0.988925 
0.0273014 0.186747 0.982029 
0.0334489 0.235934 0.971193 
0.0422802 0.304819 0.951471 
0.0554273 0.389961 0.919162 
0.0716892 0.49421 0.866382 
0.0909068 0.627597 0.773213 
0.0997841 0.775135 0.623866 
0.0968344 0.903414 0.417691 
0.0781211 0.983507 0.163129 
-0.0370947 0.995706 -0.0848131 
-0.0546362 0.938546 -0.340801 
-0.0903864 0.928511 -0.360135 
-0.0898582 0.671243 -0.73577 
-0.0770116 0.540957 -0.837517 
-0.060828 0.42844 -0.901521 
-0.0475014 0.339299 -0.939479 
-0.0379352 0.270519 -0.961967 
-0.0293256 0.21733 -0.975658 
-0.0252424 0.171677 -0.98483 
-0.0212731 0.136101 -0.990467 
-0.0182022 0.108243 -0.993958 
-0.0166256 0.0853049 -0.996216 
-0.0153325 0.0671846 -0.997623 
-0.0145785 0.0527712 -0.9985 
-0.0140732 0.0414094 -0.999043 
-0.0138006 0.0326662 -0.999371 
-0.0136689 0.0254917 -0.999582 
-0.0136066 0.0197549 -0.999712 
-0.013632 0.0152914 -0.99979 
-0.0136382 0.0115361 -0.99984 
-0.0136817 0.0085935 -0.999869 
-0.0136794 0.00614394 -0.999888 
-0.0137819 0.00405724 -0.999897 
-0.0137313 0.00227912 -0.999903 
-0.0137602 0.000679826 -0.999905 
-0.0137074 -0.000877968 -0.999906 
-0.0136296 -0.00243761 -0.999904 
-0.013494 -0.0040473 -0.999901 
-0.013333 -0.00571001 -0.999895 
-0.0131145 -0.00737664 -0.999887 
-0.0128404 -0.00909146 -0.999876 
-0.0125806 -0.0109562 -0.999861 
-0.0121795 -0.0128436 -0.999843 
-0.0116606 -0.0145572 -0.999826 
-0.0108777 -0.0157878 -0.999816 
-0.00973752 -0.0159842 -0.999825 
-0.00754902 -0.0126501 -0.999891 
-0.00326287 -0.00928477 -0.999952 
-9.20885e-05 8.97901e-05 -1 
-8.16191e-05 -2.32913e-05 1 
0.00303363 -0.0084012 0.99996 
0.0069264 -0.0114405 0.999911 
0.00901764 -0.0154752 0.99984 
0.0103415 -0.0155104 0.999826 
0.010716 -0.0143975 0.999839 
0.0115168 -0.0120884 0.999861 
0.0116972 -0.0102027 0.99988 
0.0119113 -0.00841451 0.999894 
0.0121953 -0.00667854 0.999903 
0.0123695 -0.00499909 0.999911 
0.0125361 -0.00338549 0.999916 
0.0127281 -0.00176841 0.999917 
0.0128686 -0.000160506 0.999917 
0.0127749 0.00145999 0.999917 
0.0129598 0.00322121 0.999911 
0.0129038 0.00511585 0.999904 
0.0130989 0.007356 0.999887 
0.0129763 0.00997647 0.999866 
0.0129841 0.0131304 0.999829 
0.0130503 0.0170452 0.99977 
0.0131732 0.022027 0.999671 
0.0133086 0.0281036 0.999516 
0.0136352 0.0355742 0.999274 
0.014118 0.0448527 0.998894 
0.0149129 0.0562003 0.998308 
0.0161961 0.0708939 0.997352 
0.0182353 0.0900047 0.995774 
0.0211178 0.115041 0.993136 
0.0250567 0.147469 0.988749 
0.0324325 0.185013 0.982201 
0.0413302 0.239961 0.969902 
0.0543847 0.307928 0.949854 
0.0735783 0.391698 0.917147 
0.0988285 0.507024 0.856247 
0.131343 0.649339 0.749071 
0.155542 0.790826 0.591947 
0.189959 0.893982 0.405846 
-0.15171 0.934841 -0.321024 
-0.146013 0.819223 -0.554575 
-0.12734 0.68833 -0.714133 
-0.105573 0.538803 -0.83579 
-0.0797366 0.425677 -0.901355 
-0.0598005 0.331856 -0.941433 
-0.046046 0.260954 -0.964252 
-0.0348782 0.209594 -0.977166 
-0.0284927 0.165071 -0.98587 
-0.0231447 0.129118 -0.991359 
-0.0194808 0.103629 -0.994425 
-0.0171467 0.0812028 -0.99655 
-0.0155538 0.0642779 -0.997811 
-0.0144602 0.0503534 -0.998627 
-0.0137919 0.0400237 -0.999104 
-0.0133979 0.0312127 -0.999423 
-0.0132439 0.0246006 -0.99961 
-0.0130283 0.0191298 -0.999732 
-0.0131139 0.014745 -0.999805 
-0.0129891 0.0111722 -0.999853 
-0.0130981 0.00836205 -0.999879 
-0.0128501 0.00612392 -0.999899 
-0.0131353 0.00419453 -0.999905 
-0.012978 0.00234138 -0.999913 
-0.0129809 0.000606571 -0.999916 
-0.0129122 -0.00103586 -0.999916 
-0.0129303 -0.0026512 -0.999913 
-0.0128061 -0.0042631 -0.999909 
-0.0125112 -0.00589452 -0.999904 
-0.0123348 -0.00755557 -0.999895 
-0.0120485 -0.00925989 -0.999885 
-0.0117698 -0.0110362 -0.99987 
-0.0114016 -0.0129511 -0.999851 
-0.0109145 -0.0147207 -0.999832 
-0.0101494 -0.0159269 -0.999822 
-0.00906468 -0.016017 -0.999831 
-0.00699988 -0.0125684 -0.999897 
-0.00310256 -0.00924128 -0.999952 
-0.000104771 9.22088e-05 -1 
5.69421e-05 9.54971e-05 1 
0.00274969 -0.00926116 0.999953 
0.00661812 -0.0126403 0.999898 
0.00810456 -0.015711 0.999844 
0.00936215 -0.015686 0.999833 
0.00946671 -0.0146159 0.999848 
0.0104771 -0.0127514 0.999864 
0.0104106 -0.0106487 0.999889 
0.0105958 -0.00880973 0.999905 
0.0109146 -0.00704049 0.999916 
0.0110992 -0.00534833 0.999924 
0.0112332 -0.00367806 0.99993 
0.0114526 -0.00204049 0.999932 
0.011569 -0.000396411 0.999933 
0.0115041 0.00128125 0.999933 
0.0116591 0.00308978 0.999927 
0.0116777 0.00506927 0.999919 
0.0119047 0.00733527 0.999902 
0.0117561 0.00998259 0.999881 
0.0118341 0.013213 0.999843 
0.0120019 0.017318 0.999778 
0.0121874 0.022265 0.999678 
0.0123338 0.0282132 0.999526 
0.0128194 0.0357068 0.99928 
0.0134105 0.0446846 0.998911 
0.0145017 0.0563331 0.998307 
0.0162451 0.0713987 0.997316 
0.0189471 0.0910993 0.995662 
0.022547 0.114034 0.993221 
0.0269743 0.142167 0.989475 
0.0322901 0.159121 0.986731 
0.040323 0.201344 0.97869 
0.0530564 0.255415 0.965375 
0.0716847 0.321328 0.944251 
0.099729 0.415043 0.904319 
0.138717 0.531839 0.835407 
0.195556 0.657829 0.727337 
0.268681 0.750925 0.60326 
-0.248349 0.807552 -0.53496 
-0.188334 0.682834 -0.705881 
-0.142571 0.557146 -0.818084 
-0.10248 0.423749 -0.899964 
-0.07392 0.332933 -0.940049 
-0.0542033 0.256576 -0.965003 
-0.0394461 0.202463 -0.978495 
-0.0302084 0.156017 -0.987292 
-0.023838 0.122002 -0.992244 
-0.0195721 0.0966265 -0.995128 
-0.0167313 0.0757975 -0.996983 
-0.0149351 0.0599953 -0.998087 
-0.0136452 0.0477912 -0.998764 
-0.0128885 0.0374001 -0.999217 
-0.0123887 0.0295498 -0.999487 
-0.0122366 0.0234534 -0.99965 
-0.0118182 0.0185956 -0.999757 
-0.0120218 0.0148512 -0.999817 
-0.0117686 0.0116072 -0.999863 
-0.0118366 0.00877382 -0.999891 
-0.0116267 0.00615747 -0.999913 
-0.0118661 0.00391856 -0.999922 
-0.0116746 0.00197013 -0.99993 
-0.0117396 0.000264688 -0.999931 
-0.0115774 -0.00130905 -0.999932 
-0.0116484 -0.00280715 -0.999928 
-0.0115428 -0.0044109 -0.999924 
-0.0111965 -0.00603168 -0.999919 
-0.0109715 -0.00764036 -0.999911 
-0.0107302 -0.00942267 -0.999898 
-0.0104977 -0.0112599 -0.999882 
-0.0101888 -0.0132566 -0.99986 
-0.00971262 -0.0149489 -0.999841 
-0.0090213 -0.0161431 -0.999829 
-0.00800024 -0.0160014 -0.99984 
-0.0061351 -0.012348 -0.999905 
-0.00275225 -0.0095084 -0.999951 
-8.71605e-05 9.31674e-05 -1 
8.0317e-05 0.000133036 1 
0.00218684 -0.00940607 0.999953 
0.00556624 -0.0120956 0.999911 
0.00690275 -0.0157868 0.999852 
0.00807137 -0.0157698 0.999843 
0.00809118 -0.0145069 0.999862 
0.00914542 -0.0128094 0.999876 
0.00895477 -0.010947 0.9999 
0.00908478 -0.00905772 0.999918 
0.00940347 -0.00727164 0.999929 
0.00957394 -0.00554936 0.999939 
0.00970841 -0.0038679 0.999945 
0.00990034 -0.00217716 0.999949 
0.010011 -0.000521753 0.99995 
0.00999761 0.00120961 0.999949 
0.0101307 0.00302875 0.999944 
0.0102156 0.00506473 0.999935 
0.0104376 0.00739706 0.999918 
0.0102908 0.0101272 0.999896 
0.0105049 0.0135649 0.999853 
0.0105081 0.0171708 0.999797 
0.0108082 0.0214098 0.999712 
0.0107353 0.0259526 0.999606 
0.0113751 0.032224 0.999416 
0.0119168 0.0399126 0.999132 
0.0129436 0.0500048 0.998665 
0.0146165 0.0629955 0.997907 
0.0170927 0.0793363 0.996701 
0.0206295 0.0994633 0.994827 
0.0257229 0.124697 0.991861 
0.0365214 0.165598 0.985517 
0.0478869 0.209066 0.976728 
0.0647325 0.261303 0.963084 
0.0920423 0.337708 0.93674 
0.133408 0.433379 0.891283 
0.195436 0.540262 0.818487 
0.294322 0.606388 0.738694 
-0.293194 0.670342 -0.681674 
-0.207667 0.565536 -0.79815 
-0.146284 0.467936 -0.871572 
-0.104284 0.364913 -0.925183 
-0.0748426 0.292272 -0.953402 
-0.0540668 0.228879 -0.971952 
-0.0399504 0.185345 -0.981861 
-0.0299909 0.143993 -0.989124 
-0.0235077 0.114408 -0.993156 
-0.0192928 0.092745 -0.995503 
-0.0162005 0.0741947 -0.997112 
-0.0142981 0.0601326 -0.998088 
-0.012636 0.0476304 -0.998785 
-0.0118797 0.0381804 -0.9992 
-0.0111232 0.0299404 -0.99949 
-0.0108315 0.0236964 -0.999661 
-0.0104036 0.0185232 -0.999774 
-0.0104249 0.0143807 -0.999842 
-0.0102089 0.0109892 -0.999888 
-0.0104249 0.00821925 -0.999912 
-0.0100106 0.00587253 -0.999933 
-0.0104468 0.00396162 -0.999938 
-0.0100944 0.00220858 -0.999947 
-0.0102248 0.000511583 -0.999948 
-0.0099608 -0.00112539 -0.99995 
-0.0100038 -0.00273334 -0.999946 
-0.0100155 -0.00427102 -0.999941 
-0.00967732 -0.00586279 -0.999936 
-0.00942351 -0.00755965 -0.999927 
-0.00930283 -0.00926109 -0.999914 
-0.00905342 -0.0111753 -0.999897 
-0.00885888 -0.0131359 -0.999874 
-0.00833077 -0.0149686 -0.999853 
-0.00789693 -0.0161637 -0.999838 
-0.00694984 -0.0162544 -0.999844 
-0.00539579 -0.0128069 -0.999903 
-0.00246613 -0.00933003 -0.999953 
-6.60041e-05 9.16543e-05 -1 
5.96116e-05 6.51057e-05 1 
0.00190069 -0.00929454 0.999955 
0.00476113 -0.0125268 0.99991 
0.00568699 -0.0159709 0.999856 
0.00674751 -0.0159403 0.99985 
0.00671506 -0.0147782 0.999868 
0.0076137 -0.0127682 0.999889 