# vtk DataFile Version 3.0 
Exported using Morpho https://github.com/Morpho-lang/morpho 
ASCII 
DATASET UNSTRUCTURED_GRID 

POINTS 2193 float 
-8.32618 -2.88146 0 
-8.11405 -2.88146 0 
-7.90192 -2.88146 0 
-7.68979 -2.88146 0 
-7.47765 -2.88146 0 
-7.26552 -2.88146 0 
-7.05339 -2.88146 0 
-6.84126 -2.88146 0 
-6.62913 -2.88146 0 
-6.41699 -2.88146 0 
-6.20486 -2.88146 0 
-5.99273 -2.88146 0 
-5.7806 -2.88146 0 
-5.56847 -2.88146 0 
-5.35633 -2.88146 0 
-5.1442 -2.88146 0 
-4.93207 -2.88146 0 
-4.71994 -2.88146 0 
-4.50781 -2.88146 0 
-4.29567 -2.88146 0 
-4.08354 -2.88146 0 
-3.87141 -2.88146 0 
-3.65928 -2.88146 0 
-3.44715 -2.88146 0 
-3.23501 -2.88146 0 
-3.02288 -2.88146 0 
-2.81075 -2.88146 0 
-2.59862 -2.88146 0 
-2.38649 -2.88146 0 
-2.17435 -2.88146 0 
-1.96222 -2.88146 0 
-1.75009 -2.88146 0 
-1.53796 -2.88146 0 
-1.32583 -2.88146 0 
-1.11369 -2.88146 0 
-0.901561 -2.88146 0 
-0.689429 -2.88146 0 
-0.477297 -2.88146 0 
-0.265165 -2.88146 0 
-0.053033 -2.88146 0 
0.159099 -2.88146 0 
0.371231 -2.88146 0 
0.583363 -2.88146 0 
0.795495 -2.88146 0 
1.00763 -2.88146 0 
1.21976 -2.88146 0 
1.43189 -2.88146 0 
1.64402 -2.88146 0 
1.85616 -2.88146 0 
2.06829 -2.88146 0 
2.28042 -2.88146 0 
2.49255 -2.88146 0 
2.70468 -2.88146 0 
2.91682 -2.88146 0 
3.12895 -2.88146 0 
3.34108 -2.88146 0 
3.55321 -2.88146 0 
3.76534 -2.88146 0 
3.97748 -2.88146 0 
4.18961 -2.88146 0 
4.40174 -2.88146 0 
4.61387 -2.88146 0 
4.826 -2.88146 0 
5.03814 -2.88146 0 
5.25027 -2.88146 0 
5.4624 -2.88146 0 
5.67453 -2.88146 0 
5.88666 -2.88146 0 
6.0988 -2.88146 0 
6.31093 -2.88146 0 
6.52306 -2.88146 0 
6.73519 -2.88146 0 
6.94732 -2.88146 0 
7.15946 -2.88146 0 
7.37159 -2.88146 0 
7.58372 -2.88146 0 
7.79585 -2.88146 0 
8.00798 -2.88146 0 
8.22012 -2.88146 0 
8.53831 -2.88146 0 
-8.53831 -2.72563 0 
-8.26024 -2.65842 0 
-8.03737 -2.65302 0 
-7.79793 -2.66728 0 
-7.56713 -2.66448 0 
-7.33809 -2.66698 0 
-7.11134 -2.66842 0 
-6.88729 -2.66883 0 
-6.6658 -2.6696 0 
-6.44625 -2.66993 0 
-6.22824 -2.67002 0 
-6.01165 -2.67008 0 
-5.79585 -2.67005 0 
-5.58067 -2.66968 0 
-5.36629 -2.66945 0 
-5.15252 -2.66958 0 
-4.93879 -2.66962 0 
-4.72514 -2.66957 0 
-4.51167 -2.6693 0 
-4.29875 -2.66943 0 
-4.08583 -2.66957 0 
-3.87281 -2.66947 0 
-3.66004 -2.66938 0 
-3.44747 -2.66929 0 
-3.23487 -2.66949 0 
-3.02253 -2.66955 0 
-2.81018 -2.6698 0 
-2.59805 -2.67024 0 
-2.38629 -2.67051 0 
-2.17499 -2.67108 0 
-1.96354 -2.6715 0 
-1.75216 -2.67157 0 
-1.54086 -2.67165 0 
-1.32894 -2.6718 0 
-1.11608 -2.67161 0 
-0.901736 -2.67171 0 
-0.685846 -2.67424 0 
-0.470043 -2.66941 0 
-0.257046 -2.65662 0 
-0.0520423 -2.64551 0 
0.156856 -2.66149 0 
0.370508 -2.66089 0 
0.582945 -2.66306 0 
0.796304 -2.66818 0 
1.00983 -2.66854 0 
1.22397 -2.67084 0 
1.43708 -2.67114 0 
1.64967 -2.6715 0 
1.86151 -2.67149 0 
2.07289 -2.67117 0 
2.284 -2.67068 0 
2.49536 -2.6703 0 
2.70671 -2.66979 0 
2.91847 -2.6696 0 
3.13028 -2.66941 0 
3.34234 -2.66941 0 
3.5544 -2.66947 0 
3.76634 -2.66957 0 
3.97776 -2.66906 0 
4.18913 -2.66995 0 
4.4013 -2.66972 0 
4.61328 -2.66966 0 
4.82549 -2.66928 0 
5.03742 -2.66912 0 
5.24929 -2.66947 0 
5.46181 -2.66922 0 
5.67402 -2.66941 0 
5.88621 -2.6695 0 
6.09821 -2.66983 0 
6.30998 -2.67048 0 
6.52159 -2.67054 0 
6.7339 -2.67069 0 
6.94739 -2.66975 0 
7.16166 -2.66923 0 
7.37668 -2.6672 0 
7.59152 -2.66456 0 
7.8078 -2.65944 0 
8.02308 -2.64738 0 
8.28521 -2.70566 0 
8.53831 -2.66933 0 
-8.42517 -2.51104 0 
-8.1861 -2.41552 0 
-7.94715 -2.45396 0 
-7.71973 -2.45115 0 
-7.49074 -2.45368 0 
-7.26561 -2.45671 0 
-7.0445 -2.45776 0 
-6.82614 -2.45809 0 
-6.61082 -2.4587 0 
-6.39727 -2.45891 0 
-6.18536 -2.45854 0 
-5.97408 -2.45858 0 
-5.76325 -2.45836 0 
-5.55288 -2.45742 0 
-5.34278 -2.45685 0 
-5.13229 -2.45728 0 
-4.92129 -2.45754 0 
-4.71015 -2.45743 0 
-4.49928 -2.45672 0 
-4.28808 -2.45711 0 
-4.07638 -2.4576 0 
-3.86478 -2.45731 0 
-3.65319 -2.45712 0 
-3.44124 -2.45734 0 
-3.22957 -2.45733 0 
-3.01759 -2.4578 0 
-2.80585 -2.45817 0 
-2.59431 -2.45894 0 
-2.38331 -2.45938 0 
-2.17298 -2.45925 0 
-1.96303 -2.46118 0 
-1.75211 -2.46079 0 
-1.53999 -2.46112 0 
-1.32721 -2.46111 0 
-1.11857 -2.45606 0 
-0.906479 -2.46245 0 
-0.688941 -2.46571 0 
-0.472336 -2.4531 0 
-0.264753 -2.42092 0 
-0.0505526 -2.41253 0 
0.160347 -2.43782 0 
0.374177 -2.43949 0 
0.585986 -2.44154 0 
0.798149 -2.45424 0 
1.01227 -2.45544 0 
1.22602 -2.46038 0 
1.43965 -2.46074 0 
1.65182 -2.46084 0 
1.86307 -2.46068 0 
2.07372 -2.45996 0 
2.28472 -2.45947 0 
2.49564 -2.45853 0 
2.70727 -2.45804 0 
2.91898 -2.45752 0 
3.13122 -2.45748 0 
3.34355 -2.45745 0 
3.55561 -2.45738 0 
3.76736 -2.45723 0 
3.97915 -2.45685 0 
4.19143 -2.4585 0 
4.40339 -2.45787 0 
4.61556 -2.45789 0 
4.82721 -2.45687 0 
5.03891 -2.45652 0 
5.25149 -2.45766 0 
5.46379 -2.45707 0 
5.67583 -2.45739 0 
5.8877 -2.4576 0 
6.09931 -2.45818 0 
6.30971 -2.4581 0 
6.5195 -2.4586 0 
6.72976 -2.45941 0 
6.94147 -2.45892 0 
7.15463 -2.45802 0 
7.37033 -2.45448 0 
7.58818 -2.44744 0 
7.8035 -2.43538 0 
8.04687 -2.44312 0 
8.28894 -2.49922 0 
8.53831 -2.4572 0 
-8.53831 -2.26702 0 
-8.33147 -2.25903 0 
-8.01365 -2.23592 0 
-7.78422 -2.23488 0 
-7.55065 -2.2423 0 
-7.31796 -2.24536 0 
-7.09053 -2.24588 0 
-6.86771 -2.24681 0 
-6.64747 -2.24649 0 
-6.43086 -2.24697 0 
-6.21585 -2.24621 0 
-6.00222 -2.24646 0 
-5.78897 -2.24616 0 
-5.57624 -2.24493 0 
-5.36374 -2.24391 0 
-5.15154 -2.24459 0 
-4.93905 -2.24538 0 
-4.72601 -2.24525 0 
-4.5131 -2.2441 0 
-4.30055 -2.24464 0 
-4.08797 -2.24563 0 
-3.87503 -2.24511 0 
-3.66245 -2.24481 0 
-3.45008 -2.24533 0 
-3.23765 -2.24498 0 
-3.02582 -2.24589 0 
-2.814 -2.24619 0 
-2.60278 -2.24712 0 
-2.39228 -2.24747 0 
-2.18259 -2.24742 0 
-1.97277 -2.24872 0 
-1.76356 -2.24897 0 
-1.55272 -2.24985 0 
-1.33963 -2.24862 0 
-1.12657 -2.23612 0 
-0.917201 -2.2467 0 
-0.701351 -2.25363 0 
-0.485556 -2.22941 0 
-0.280013 -2.17587 0 
-0.080869 -2.18799 0 
0.15096 -2.20998 0 
0.362716 -2.21711 0 
0.577503 -2.21892 0 
0.792982 -2.23717 0 
1.00815 -2.24001 0 
1.22215 -2.24798 0 
1.43591 -2.24933 0 
1.64955 -2.24913 0 
1.86132 -2.24906 0 
2.07193 -2.24825 0 
2.28207 -2.24819 0 
2.49287 -2.24672 0 
2.70365 -2.24647 0 
2.91535 -2.24549 0 
3.12708 -2.2457 0 
3.33946 -2.24566 0 
3.55201 -2.24525 0 
3.76413 -2.24504 0 
3.97611 -2.24495 0 
4.18842 -2.24703 0 
4.40087 -2.24611 0 
4.61321 -2.2462 0 
4.82571 -2.24431 0 
5.03749 -2.24385 0 
5.24941 -2.24583 0 
5.46201 -2.24509 0 
5.6745 -2.24518 0 
5.88604 -2.24577 0 
6.09757 -2.24668 0 
6.30884 -2.24623 0 
6.51894 -2.24597 0 
6.72843 -2.2469 0 
6.9387 -2.24702 0 
7.15077 -2.24531 0 
7.36424 -2.24227 0 
7.57861 -2.22941 0 
7.81525 -2.2332 0 
8.05402 -2.23373 0 
8.29423 -2.28391 0 
8.53831 -2.24506 0 
-8.43201 -2.00343 0 
-8.19967 -2.08622 0 
-7.96171 -2.01192 0 
-7.72928 -2.02359 0 
-7.49865 -2.03304 0 
-7.27277 -2.03442 0 
-7.05156 -2.03396 0 
-6.83347 -2.0355 0 
-6.61905 -2.03398 0 
-6.40671 -2.03467 0 
-6.19549 -2.03385 0 
-5.98456 -2.03449 0 
-5.77416 -2.03388 0 
-5.56361 -2.03258 0 
-5.35315 -2.03131 0 
-5.14223 -2.03227 0 
-4.93047 -2.03363 0 
-4.71861 -2.03329 0 
-4.50676 -2.03187 0 
-4.29483 -2.03249 0 
-4.08227 -2.03395 0 
-3.86981 -2.03317 0 
-3.65732 -2.03281 0 
-3.44451 -2.03362 0 
-3.23204 -2.03296 0 
-3.01949 -2.03424 0 
-2.80719 -2.03447 0 
-2.59572 -2.03518 0 
-2.38486 -2.03525 0 
-2.17334 -2.03589 0 
-1.96249 -2.03593 0 
-1.74929 -2.03693 0 
-1.53344 -2.03829 0 
-1.3193 -2.03243 0 
-1.10375 -2.01467 0 
-0.884607 -2.03111 0 
-0.663974 -2.03314 0 
-0.440629 -1.99155 0 
-0.211594 -1.92837 0 
-0.0363856 -1.87969 0 
0.106534 -2.00896 0 
0.354473 -1.98858 0 
0.567597 -1.99666 0 
0.788507 -2.021 0 
1.01009 -2.02401 0 
1.22955 -2.03336 0 
1.44551 -2.03683 0 
1.65897 -2.03661 0 
1.86981 -2.03652 0 
2.07932 -2.03584 0 
2.28882 -2.03635 0 
2.49801 -2.03439 0 
2.70814 -2.03452 0 
2.91844 -2.03304 0 
3.12975 -2.03363 0 
3.34167 -2.03373 0 
3.55335 -2.03292 0 
3.76522 -2.03282 0 
3.97671 -2.03246 0 
4.18837 -2.03542 0 
4.40017 -2.03383 0 
4.61186 -2.03455 0 
4.82385 -2.03229 0 
5.03647 -2.03104 0 
5.24816 -2.03316 0 
5.45993 -2.03302 0 
5.67213 -2.03339 0 
5.88426 -2.03326 0 
6.09476 -2.0351 0 
6.30567 -2.03519 0 
6.51632 -2.03399 0 
6.72573 -2.03429 0 
6.9352 -2.0344 0 
7.14602 -2.0323 0 
7.35891 -2.02712 0 
7.58744 -2.02652 0 
7.81959 -2.02574 0 
8.05643 -2.02261 0 
8.29577 -2.0668 0 
8.53831 -2.03293 0 
-8.55754 -1.8275 0 
-8.24058 -1.85067 0 
-8.02662 -1.81714 0 
-7.77134 -1.80827 0 
-7.53631 -1.8204 0 
-7.3056 -1.82242 0 
-7.07966 -1.82164 0 
-6.85753 -1.8234 0 
-6.63923 -1.82128 0 
-6.42389 -1.82179 0 
-6.21077 -1.82145 0 
-5.99809 -1.82256 0 
-5.78553 -1.82166 0 
-5.57355 -1.82056 0 
-5.36122 -1.81889 0 
-5.14918 -1.81992 0 
-4.93688 -1.82187 0 
-4.72402 -1.82138 0 
-4.51128 -1.81975 0 
-4.29869 -1.82014 0 
-4.08649 -1.82214 0 
-3.87386 -1.82119 0 
-3.66148 -1.82075 0 
-3.44929 -1.82189 0 
-3.23703 -1.82097 0 
-3.02535 -1.82235 0 
-2.81409 -1.82264 0 
-2.60316 -1.82264 0 
-2.39364 -1.82254 0 
-2.18438 -1.82399 0 
-1.97398 -1.82272 0 
-1.76295 -1.82474 0 
-1.54825 -1.82647 0 
-1.33085 -1.81477 0 
-1.10391 -1.80419 0 
-0.868459 -1.81009 0 
-0.635935 -1.81425 0 
-0.397003 -1.76551 0 
-0.206814 -1.64374 0 
0.0347891 -1.69221 0 
0.0936227 -1.48562 0 
0.261479 -1.81001 0 
0.52173 -1.76572 0 
0.743563 -1.80052 0 
0.967224 -1.80961 0 
1.19763 -1.82108 0 
1.42244 -1.82298 0 
1.64007 -1.82405 0 
1.85559 -1.82359 0 
2.06757 -1.82322 0 
2.27826 -1.82434 0 
2.48881 -1.82201 0 
2.69921 -1.82254 0 
2.91045 -1.82058 0 
3.12192 -1.82159 0 
3.33434 -1.822 0 
3.54733 -1.82075 0 
3.75997 -1.82082 0 
3.97278 -1.82006 0 
4.18509 -1.82332 0 
4.39768 -1.82179 0 
4.61024 -1.82217 0 
4.82354 -1.82074 0 
5.03644 -1.81916 0 
5.24918 -1.82031 0 
5.46151 -1.82076 0 
5.67399 -1.82161 0 
5.88497 -1.82051 0 
6.09541 -1.82253 0 
6.30505 -1.82409 0 
6.5141 -1.82163 0 
6.72283 -1.82217 0 
6.932 -1.8218 0 
7.14234 -1.81906 0 
7.36345 -1.8217 0 
7.58817 -1.81845 0 
7.81857 -1.81592 0 
8.05532 -1.8114 0 
8.2955 -1.84925 0 
8.53831 -1.8208 0 
-8.44563 -1.67004 0 
[...]
POINT_DATA 2193 
VECTORS vectors float
-6.17439e-05 -0.000588549 1 
0.000216887 -0.0156224 0.999878 
5.68063e-05 -0.0201978 0.999796 
0.000112648 -0.0205275 0.999789 
9.37967e-05 -0.0189835 0.99982 
0.000100625 -0.0168447 0.999858 
9.88655e-05 -0.0145308 0.999894 
9.92128e-05 -0.0121261 0.999926 
9.97e-05 -0.00975638 0.999952 
0.000100008 -0.00753763 0.999972 
0.000100492 -0.00552303 0.999985 
0.000100746 -0.00369699 0.999993 
0.000100915 -0.00199535 0.999998 
0.000100902 -0.000335159 1 
0.000100799 0.00137465 0.999999 
0.000100624 0.00323064 0.999995 
0.000100196 0.0053381 0.999986 
9.97396e-05 0.00781476 0.999969 
9.89491e-05 0.0107985 0.999942 
9.8096e-05 0.0144552 0.999896 
9.6885e-05 0.0189893 0.99982 
9.54444e-05 0.0246608 0.999696 
9.33659e-05 0.0318118 0.999494 
9.04991e-05 0.0409101 0.999163 
8.86129e-05 0.0521854 0.998637 
8.36685e-05 0.0666032 0.99778 
7.83254e-05 0.0849379 0.996386 
7.34339e-05 0.108179 0.994131 
6.52082e-05 0.137446 0.990509 
5.17505e-05 0.175313 0.984513 
4.21053e-05 0.222858 0.974851 
2.66578e-05 0.281689 0.959506 
6.57905e-06 0.354091 0.935211 
-1.03517e-05 0.441399 0.897311 
-4.00139e-05 0.543517 0.839398 
-5.66272e-05 0.658097 0.752934 
-6.42556e-05 0.773964 0.63323 
-6.91787e-05 0.880557 0.47394 
-4.50077e-05 0.960823 0.277163 
-1.0867e-05 0.998498 0.0547894 
2.99541e-05 0.984841 -0.173457 
6.31723e-05 0.922929 -0.384969 
6.44374e-05 0.82631 -0.563215 
6.35232e-05 0.713593 -0.70056 
4.91117e-05 0.596433 -0.802663 
2.08155e-05 0.488674 -0.872467 
3.9727e-06 0.39407 -0.91908 
-1.81484e-05 0.314469 -0.949268 
-3.43453e-05 0.24924 -0.968442 
-4.85026e-05 0.196677 -0.980468 
-5.97038e-05 0.154768 -0.987951 
-6.88257e-05 0.12158 -0.992582 
-7.59047e-05 0.0954028 -0.995439 
-8.1645e-05 0.0747963 -0.997199 
-8.60979e-05 0.0585858 -0.998282 
-8.9543e-05 0.0458222 -0.99895 
-9.26117e-05 0.0357528 -0.999361 
-9.41102e-05 0.0277787 -0.999614 
-9.65336e-05 0.021403 -0.999771 
-9.76795e-05 0.0164196 -0.999865 
-9.85495e-05 0.0123893 -0.999923 
-9.94907e-05 0.00911113 -0.999958 
-9.99939e-05 0.00641168 -0.999979 
-0.000100403 0.00414353 -0.999991 
-0.000100851 0.00218355 -0.999998 
-0.000100851 0.00042306 -1 
-0.000101076 -0.00123758 -0.999999 
-0.00010089 -0.00289098 -0.999996 
-0.000100794 -0.00462409 -0.999989 
-0.000100531 -0.00651071 -0.999979 
-9.99204e-05 -0.00860957 -0.999963 
-0.000100158 -0.0109054 -0.999941 
-9.86804e-05 -0.0133303 -0.999911 
-9.98921e-05 -0.0156494 -0.999878 
-0.000102555 -0.017869 -0.99984 
-8.57201e-05 -0.0199533 -0.999801 
-0.000126771 -0.0213266 -0.999773 
-7.06681e-05 -0.0207269 -0.999785 
-0.000103747 -0.0171127 -0.999854 
-1.55234e-05 -0.00106461 -0.999999 
9.75215e-05 0.000107868 1 
0.0051583 -0.0125866 0.999907 
0.00759241 -0.0184198 0.999802 
0.00842786 -0.0201995 0.99976 
0.00921268 -0.0193847 0.99977 
0.00952303 -0.0173443 0.999804 
0.00980103 -0.0149677 0.99984 
0.0100387 -0.0125066 0.999871 
0.0102068 -0.0100995 0.999897 
0.0103523 -0.00783514 0.999916 
0.0104729 -0.00575959 0.999929 
0.0105595 -0.00387066 0.999937 
0.0106141 -0.0021131 0.999941 
0.0106539 -0.000406223 0.999943 
0.0106652 0.00134058 0.999942 
0.0106389 0.00322674 0.999938 
0.0105927 0.00536405 0.99993 
0.0105268 0.0078727 0.999914 
0.0104483 0.0108914 0.999886 
0.0103306 0.0145804 0.99984 
0.0101827 0.0191547 0.999765 
0.0100125 0.0248779 0.99964 
0.0098059 0.0320641 0.999438 
0.00955142 0.0410951 0.99911 
0.00929259 0.0526222 0.998571 
0.00898734 0.0671864 0.9977 
0.0086353 0.0856797 0.996285 
0.00824618 0.109146 0.993991 
0.00784184 0.138936 0.99027 
0.00736321 0.176092 0.984346 
0.00693281 0.223647 0.974645 
0.00649555 0.28195 0.959407 
0.00608787 0.353744 0.935322 
0.00570957 0.440422 0.897773 
0.00535952 0.541788 0.840498 
0.00495738 0.656213 0.75456 
0.00426069 0.775686 0.631104 
0.00339705 0.883493 0.468431 
0.00219271 0.96298 0.269565 
0.000378035 0.998555 0.053743 
-0.0014363 0.985249 -0.171121 
-0.00311646 0.922966 -0.38487 
-0.00428109 0.825691 -0.564107 
-0.00489752 0.711423 -0.702747 
-0.00533326 0.594487 -0.804088 
-0.00562358 0.487176 -0.873285 
-0.00595744 0.392572 -0.919702 
-0.00632337 0.313373 -0.949609 
-0.00673609 0.248674 -0.968564 
-0.00717892 0.19657 -0.980463 
-0.00762784 0.154996 -0.987886 
-0.0080601 0.121966 -0.992502 
-0.00847247 0.0958636 -0.995358 
-0.00884367 0.0752435 -0.997126 
-0.00918135 0.058995 -0.998216 
-0.00947655 0.0461745 -0.998888 
-0.0097354 0.0360559 -0.999302 
-0.00996074 0.0280555 -0.999557 
-0.0101925 0.0217352 -0.999712 
-0.0102937 0.0166537 -0.999808 
-0.01042 0.0125698 -0.999867 
-0.0105176 0.00926039 -0.999902 
-0.0106014 0.00653107 -0.999922 
-0.0106634 0.00424007 -0.999934 
-0.0106868 0.00225854 -0.99994 
-0.0107175 0.000471541 -0.999942 
-0.0107166 -0.00121241 -0.999942 
-0.0107021 -0.00288689 -0.999939 
-0.0106601 -0.00463277 -0.999932 
-0.0105663 -0.00650967 -0.999923 
-0.0104901 -0.00857141 -0.999908 
-0.0103562 -0.0107837 -0.999888 
-0.0102111 -0.0130889 -0.999862 
-0.0100238 -0.0154275 -0.999831 
-0.00977298 -0.0176236 -0.999797 
-0.00944053 -0.0194603 -0.999766 
-0.00899574 -0.0203515 -0.999752 
-0.00811418 -0.0194894 -0.999777 
-0.00399428 -0.0138801 -0.999896 
0.000134569 0.000110869 -1 
0.0032177 -0.00714441 0.999969 
0.00799658 -0.0187079 0.999793 
0.0107298 -0.0205121 0.999732 
0.0122911 -0.0205343 0.999714 
0.0132038 -0.0188685 0.999735 
0.0137852 -0.0165936 0.999767 
0.0142154 -0.0141952 0.999798 
0.0145521 -0.0118229 0.999824 
0.0148212 -0.00955884 0.999844 
0.0150414 -0.00741879 0.999859 
0.0152139 -0.00543142 0.99987 
0.0153325 -0.00359219 0.999876 
0.0154071 -0.00186035 0.99988 
0.0154472 -0.000162668 0.999881 
0.0154473 0.00158933 0.999879 
0.0154054 0.0034945 0.999875 
0.0153341 0.00565903 0.999866 
0.0152338 0.00819868 0.99985 
0.0151063 0.0112461 0.999823 
0.0149357 0.0149745 0.999776 
0.0147293 0.0195975 0.999699 
0.0144918 0.0253639 0.999573 
0.0142158 0.0325974 0.999367 
0.0139032 0.0417254 0.999032 
0.0135724 0.0532724 0.998488 
0.0132165 0.067912 0.997604 
0.0128554 0.0864514 0.996173 
0.0125052 0.109935 0.99386 
0.0122023 0.1396 0.990133 
0.0119921 0.17691 0.984154 
0.0118206 0.222916 0.974766 
0.0119069 0.281228 0.959567 
0.012139 0.353035 0.935531 
0.0125091 0.439826 0.897996 
0.0130851 0.539404 0.841946 
0.0128079 0.651317 0.758697 
0.0117988 0.77109 0.636617 
0.0100008 0.880796 0.473391 
0.00698376 0.960036 0.279791 
0.00127148 0.998631 0.0522948 
-0.00442244 0.984191 -0.177052 
-0.00915001 0.92023 -0.39127 
-0.0121254 0.822547 -0.568567 
-0.0129659 0.70728 -0.706815 
-0.0132072 0.591455 -0.80623 
-0.0127339 0.483207 -0.875414 
-0.0123328 0.389747 -0.920839 
-0.0120156 0.311586 -0.950142 
-0.011873 0.247695 -0.968765 
-0.0119137 0.196198 -0.980492 
-0.0120927 0.15492 -0.987853 
-0.0123762 0.12213 -0.992437 
-0.0127158 0.096087 -0.995292 
-0.0130825 0.075521 -0.997058 
-0.0134491 0.0592569 -0.998152 
-0.0138014 0.0464212 -0.998827 
-0.0141281 0.0362926 -0.999241 
-0.0144211 0.0282796 -0.999496 
-0.0146819 0.021908 -0.999652 
-0.0148882 0.0168094 -0.999748 
-0.0150646 0.0127067 -0.999806 
-0.0152113 0.00937701 -0.99984 
-0.0153176 0.00662952 -0.999861 
-0.0154032 0.00431774 -0.999872 
-0.0154529 0.00230559 -0.999878 
-0.0154902 0.000494531 -0.99988 
-0.0154905 -0.00121607 -0.999879 
-0.0154662 -0.00291714 -0.999876 
-0.0154128 -0.00468987 -0.99987 
-0.0153366 -0.00658651 -0.999861 
-0.0151542 -0.008596 -0.999848 
-0.0149365 -0.0107275 -0.999831 
-0.0146833 -0.0129564 -0.999808 
-0.0143548 -0.0152492 -0.999781 
-0.0139072 -0.0174567 -0.999751 
-0.0132189 -0.0191436 -0.999729 
-0.0123503 -0.0199059 -0.999726 
-0.0106063 -0.0189351 -0.999764 
-0.00707714 -0.0137814 -0.99988 
-0.000241184 -0.000151043 -1 
-0.000151015 -1.2953e-05 1 
0.00508698 -0.0172278 0.999839 
0.0103265 -0.0224115 0.999695 
0.0124491 -0.0216315 0.999688 
0.0137469 -0.0197538 0.99971 
0.0145871 -0.0173098 0.999744 
0.0151781 -0.0147686 0.999776 
0.0156289 -0.0123347 0.999802 
0.0159937 -0.0100328 0.999822 
0.0162824 -0.00785187 0.999837 
0.0165029 -0.0057962 0.999847 
0.016655 -0.00388755 0.999854 
0.0167502 -0.00209358 0.999858 
0.0167986 -0.000345909 0.999859 
0.0168031 0.00144629 0.999858 
0.0167648 0.00337677 0.999854 
0.0166899 0.00555605 0.999845 
0.0165827 0.00810836 0.99983 
0.0164446 0.0111653 0.999802 
0.0162701 0.0148864 0.999757 
0.0160626 0.019483 0.999681 
0.0158286 0.0252235 0.999557 
0.0155713 0.0324077 0.999353 
0.0152994 0.0414409 0.999024 
0.0150356 0.0528566 0.998489 
0.0147991 0.0672573 0.997626 
0.0146259 0.0854768 0.996233 
0.0145593 0.108455 0.993995 
0.0146663 0.13736 0.990413 
0.0150197 0.173547 0.984711 
0.0156689 0.218762 0.975652 
0.0167328 0.274924 0.96132 
0.0182068 0.344496 0.938611 
0.0200883 0.429419 0.902882 
0.0224695 0.528697 0.848513 
0.023193 0.63932 0.768591 
0.022243 0.758794 0.650951 
0.0199264 0.871256 0.490424 
0.0149859 0.953946 0.299603 
0.00418542 0.996202 0.0869761 
-0.00815668 0.985496 -0.169504 
-0.0172245 0.922352 -0.385968 
-0.0227798 0.822034 -0.568982 
-0.0237437 0.704914 -0.708895 
-0.0231347 0.587468 -0.808917 
-0.0211463 0.480674 -0.876644 
-0.019198 0.38714 -0.921821 
-0.0175021 0.30912 -0.950862 
-0.0162013 0.245849 -0.969173 
-0.0153366 0.195011 -0.980681 
-0.0148257 0.154389 -0.987899 
-0.0146171 0.121939 -0.99243 
-0.0146045 0.0962069 -0.995254 
-0.0147373 0.0757559 -0.997017 
-0.0149496 0.0595861 -0.998111 
-0.0152082 0.0467626 -0.99879 
-0.0154824 0.0366057 -0.99921 
-0.0157473 0.0285592 -0.999468 
-0.0159759 0.0221362 -0.999627 
-0.0162308 0.017055 -0.999723 
-0.016382 0.012892 -0.999783 
-0.0165749 0.00955525 -0.999817 
-0.0166479 0.00675232 -0.999839 
-0.0167499 0.00441667 -0.99985 
-0.016819 0.00238433 -0.999856 
-0.0168496 0.000540961 -0.999858 
-0.0168478 -0.00120391 -0.999857 
-0.0168105 -0.002933 -0.999854 
-0.0167478 -0.00473609 -0.999849 
-0.0166385 -0.00666004 -0.999839 
-0.0164344 -0.00867889 -0.999827 
-0.0161763 -0.0107739 -0.999811 
-0.015852 -0.0129414 -0.999791 
-0.0154367 -0.0151986 -0.999765 
-0.0148612 -0.0173752 -0.999739 
-0.0140834 -0.0190953 -0.999718 
-0.0128696 -0.0198557 -0.99972 
-0.010918 -0.0187438 -0.999765 
-0.00745617 -0.0135111 -0.999881 
-0.00016055 -0.000110527 -1 
0.00141446 -0.0351027 0.999383 
0.00758174 -0.0247309 0.999665 
0.0106705 -0.0235429 0.999666 
0.0125134 -0.0218922 0.999682 
0.0136621 -0.0195547 0.999715 
0.0144345 -0.0169976 0.999751 
0.0149983 -0.0144622 0.999783 
0.015457 -0.0120963 0.999807 
0.0158177 -0.0098815 0.999826 
0.0161096 -0.00774462 0.99984 
0.0163236 -0.00570909 0.99985 
0.0164773 -0.00380055 0.999857 
0.0165683 -0.0020026 0.999861 
0.0166084 -0.000241255 0.999862 
0.0166056 0.0015678 0.999861 
0.0165733 0.00352148 0.999856 
0.016508 0.00572811 0.999847 
0.0164037 0.00830015 0.999831 
0.0162663 0.0113719 0.999803 
0.0161096 0.015107 0.999756 
0.0159337 0.0197215 0.999679 
0.0157361 0.0254565 0.999552 
0.0155371 0.0326278 0.999347 
0.0153569 0.0416448 0.999014 
0.0152207 0.0529816 0.998479 
0.0151859 0.0673303 0.997615 
0.0152974 0.0854121 0.996228 
0.0156338 0.108139 0.994013 
0.0163006 0.136678 0.990481 
0.0174175 0.172649 0.984829 
0.0191215 0.21751 0.975871 
0.0215407 0.274085 0.961464 
0.0247305 0.344914 0.938308 
0.0288035 0.429936 0.9024 
0.0337391 0.528959 0.847976 
0.0359005 0.647578 0.761153 
0.0356349 0.771069 0.635754 
0.0324658 0.885906 0.462727 
0.0205915 0.971387 0.236608 
0.00338547 0.999244 0.0387174 
-0.00981755 0.992213 -0.124162 
-0.0285794 0.921155 -0.388146 
-0.0365951 0.818941 -0.57271 
-0.0369425 0.697684 -0.715453 
-0.034667 0.57592 -0.816771 
-0.0303538 0.466755 -0.883865 
-0.02624 0.375365 -0.926505 
-0.022771 0.299919 -0.953693 
-0.0200558 0.239054 -0.970799 
-0.0180881 0.19018 -0.981583 
-0.0167421 0.150994 -0.988393 
-0.0159127 0.119742 -0.992678 
-0.0154482 0.0947732 -0.995379 
-0.0152522 0.0749251 -0.997073 
-0.0152368 0.0591056 -0.998135 
-0.015336 0.0465198 -0.9988 
-0.0154969 0.036538 -0.999212 
-0.0156924 0.0285901 -0.999468 
-0.0159056 0.0222752 -0.999625 
-0.0160612 0.0171303 -0.999724 
-0.0162619 0.0130453 -0.999783 
-0.0163907 0.00967011 -0.999819 
-0.0165081 0.00688372 -0.99984 
-0.0165463 0.00449816 -0.999853 
-0.0166521 0.00244765 -0.999858 
-0.0166603 0.000580992 -0.999861 
-0.0166484 -0.00119168 -0.999861 
-0.016585 -0.0029542 -0.999858 
-0.0165388 -0.00478452 -0.999852 
-0.0164378 -0.00674379 -0.999842 
-0.0161765 -0.00877002 -0.999831 
-0.0159129 -0.0108627 -0.999814 
-0.0155618 -0.0129901 -0.999795 
-0.0151178 -0.0152255 -0.99977 
-0.0144635 -0.017375 -0.999744 
-0.0136642 -0.0192353 -0.999722 
-0.0125307 -0.0199316 -0.999723 
-0.0106997 -0.018785 -0.999766 
-0.0074066 -0.0134547 -0.999882 
-0.000262163 -0.000117389 -1 
-0.00227337 -0.0581747 0.998304 
0.00724111 -0.0247437 0.999668 
0.00959978 -0.0236978 0.999673 
0.0113052 -0.0222602 0.999688 
0.0124 -0.0200974 0.999721 
0.0131508 -0.0175157 0.99976 
0.0137141 -0.0149171 0.999795 
0.0141903 -0.0125059 0.999821 
0.0145525 -0.0102466 0.999842 
0.014851 -0.00805571 0.999857 
0.0150678 -0.00596222 0.999869 
0.0152291 -0.00399405 0.999876 
0.0153194 -0.00213972 0.99988 
0.0153605 -0.00033624 0.999882 
0.0153559 0.0015117 0.999881 
0.0153351 0.00349138 0.999876 
0.0152895 0.00571099 0.999867 
0.0151984 0.00829303 0.99985 
0.0150766 0.011364 0.999822 
0.0149522 0.0150831 0.999774 
0.0148299 0.0196407 0.999697 
0.01469 0.0253002 0.999572 
0.0145752 0.0323438 0.999371 
0.0145162 0.0411395 0.999048 
0.0145221 0.0521268 0.998535 
0.0147317 0.0660565 0.997707 
0.0151531 0.0834536 0.996396 
0.0159131 0.105264 0.994317 
0.0171536 0.132448 0.991042 
0.0190402 0.166462 0.985864 
0.021806 0.20899 0.977675 
0.025609 0.262248 0.964661 
0.0306892 0.329488 0.943661 
0.0374392 0.410695 0.911004 
0.0455825 0.513759 0.856723 
0.0519466 0.638786 0.767629 
0.0534785 0.772621 0.632611 
0.0491976 0.896219 0.440876 
0.0390791 0.967375 0.250317 
-0.00762163 0.998853 -0.0472703 
-0.0314701 0.990688 -0.132461 
-0.033942 0.9514 -0.306082 
-0.0557812 0.828727 -0.556866 
-0.0544308 0.7071 -0.705016 
-0.0491539 0.582735 -0.811175 
-0.0413027 0.46816 -0.882678 
-0.0342071 0.372989 -0.927205 
-0.0283178 0.297112 -0.954423 
-0.0237653 0.236077 -0.971444 
-0.0204382 0.187772 -0.982 
-0.0180926 0.149333 -0.988621 
-0.0165332 0.118582 -0.992807 
-0.0155376 0.0941258 -0.995439 
-0.0149527 0.074555 -0.997105 
-0.0146618 0.0589865 -0.998151 
-0.0145623 0.0465397 -0.99881 
-0.0145756 0.0366009 -0.999224 
-0.0146664 0.0286897 -0.999481 
-0.0147873 0.0223547 -0.999641 
-0.0149328 0.0172575 -0.99974 
-0.0150535 0.0131327 -0.9998 
-0.0151467 0.0097389 -0.999838 
-0.0152668 0.00694146 -0.999859 
-0.0153476 0.00456289 -0.999872 
-0.0153631 0.00246817 -0.999879 
-0.0154064 0.000577837 -0.999881 
-0.015413 -0.00122501 -0.99988 
-0.0153811 -0.00301584 -0.999877 
-0.0152738 -0.00486556 -0.999872 
-0.0151727 -0.00684685 -0.999861 
-0.0149628 -0.00891964 -0.999848 
-0.0146668 -0.0109949 -0.999832 
-0.0142868 -0.0130869 -0.999812 
-0.0137947 -0.0152597 -0.999788 
-0.0132524 -0.0175649 -0.999758 
-0.0124927 -0.0193901 -0.999734 
-0.0114435 -0.0200714 -0.999733 
-0.00979159 -0.0189084 -0.999773 
-0.00688423 -0.0134819 -0.999885 
-0.000210212 -0.000113481 -1 
0.0046705 -0.00770743 0.999959 
0.00776226 -0.0183734 0.999801 
0.00922592 -0.0221426 0.999712 
0.010258 -0.021692 0.999712 
0.0110571 -0.0197754 0.999743 
0.0116429 -0.0173212 0.999782 
0.0121352 -0.0148077 0.999817 
0.012557 -0.0124708 0.999843 
0.0128771 -0.0102413 0.999865 
0.0131409 -0.00806096 0.999881 
0.0133434 -0.0059528 0.999893 
0.0134958 -0.00396665 0.999901 
0.013572 -0.00209986 0.999906 
0.0136117 -0.000274506 0.999907 
0.0136026 0.00158865 0.999906 
0.0135909 0.00358645 0.999901 
0.0135629 0.00582126 0.999891 
0.0134886 0.00840568 0.999874 
0.0133908 0.0114686 0.999845 
0.0133006 0.0151552 0.999797 
0.0132347 0.0196732 0.999719 
0.0131616 0.0252423 0.999595 
0.0131396 0.0321498 0.999397 
0.013215 0.0407722 0.999081 
0.0134166 0.0515261 0.998582 
0.0138093 0.0648076 0.997802 
0.0145149 0.081467 0.99657 
0.0156704 0.102249 0.994635 
0.017461 0.128181 0.991597 
0.0201069 0.160411 0.986846 
0.023836 0.199963 0.979513 
0.0290782 0.249862 0.967845 
0.0361171 0.31224 0.949317 
0.0459773 0.391783 0.918908 
0.0584326 0.489918 0.869808 
0.0697125 0.610005 0.789325 
0.0775958 0.750144 0.656707 
0.0847133 0.864248 0.495882 
0.0400322 0.986884 0.156388 
0.0436036 0.995506 0.0840579 
-0.0790987 0.984101 -0.159022 
-0.0561108 0.931848 -0.358484 
-0.0824239 0.813546 -0.575629 
-0.0761066 0.676345 -0.732643 
-0.0632546 0.547197 -0.83461 
-0.0507884 0.437807 -0.897633 
-0.0405359 0.349071 -0.936219 
-0.0322271 0.278108 -0.960009 
-0.0261134 0.221871 -0.974726 
-0.021674 0.177237 -0.983929 
-0.0185512 0.141647 -0.989743 
-0.0164133 0.113073 -0.993451 
-0.0150032 0.0902099 -0.99581 
-0.0141012 0.0718335 -0.997317 
-0.0135829 0.057096 -0.998276 
-0.0133099 0.0452579 -0.998887 
-0.0131835 0.0357678 -0.999273 
-0.0131735 0.0281498 -0.999517 
-0.0132103 0.0220231 -0.99967 
-0.0133125 0.0170644 -0.999766 
-0.0133842 0.0130241 -0.999826 
-0.013475 0.00968613 -0.999862 
-0.0135409 0.00691039 -0.999884 
-0.0135878 0.00454007 -0.999897 
-0.0136267 0.00245336 -0.999904 
-0.0136558 0.000544386 -0.999907 
-0.0136506 -0.00127116 -0.999906 
-0.0136105 -0.00308964 -0.999903 
-0.0135529 -0.00497996 -0.999896 
-0.0134147 -0.00697212 -0.999886 
-0.0131832 -0.0090585 -0.999872 
-0.0129475 -0.0111839 -0.999854 
-0.0125717 -0.0132665 -0.999833 
-0.0121422 -0.0154898 -0.999806 
-0.0116271 -0.0177434 -0.999775 
-0.0109586 -0.0195541 -0.999749 
-0.010048 -0.0202385 -0.999745 
-0.0085946 -0.0190574 -0.999781 
-0.00606486 -0.0135789 -0.999889 
-0.000161722 -0.000115959 -1 
0.002869 -0.00547321 0.999981 
0.0061338 -0.0159981 0.999853 
0.00797503 -0.0208032 0.999752 
0.00879188 -0.0214204 0.999732 
0.00939455 -0.0200228 0.999755 
0.00989353 -0.0177482 0.999794 
0.0103462 -0.0152719 0.99983 
0.0107268 -0.0128881 0.999859 
0.0110259 -0.0106209 0.999883 
0.0112625 -0.0083825 0.999901 
0.0114608 -0.00622817 0.999915 
0.011612 -0.00419167 0.999924 
0.0116815 -0.00227459 0.999929 
0.0117258 -0.000417062 0.999931 
0.0117148 0.0014755 0.99993 
0.0117121 0.00348615 0.999925 
0.0116986 0.0057221 0.999915 
0.0116449 0.00829144 0.999898 
0.011573 0.0113238 0.999869 
0.0115104 0.0149708 0.999822 
0.0114948 0.0193984 0.999746 
0.0114798 0.0248436 0.999625 
0.011534 0.0315684 0.999435 
0.0117107 0.0399085 0.999135 
0.012026 0.0502506 0.998664 
0.0126091 0.0630601 0.99793 
0.0135477 0.078974 0.996785 
0.0150164 0.0987105 0.995003 
0.0172302 0.12313 0.992241 
0.0204907 0.153385 0.987954 
0.0252511 0.191498 0.981168 
0.0319982 0.239295 0.97042 
0.0414315 0.300334 0.952934 
0.0550584 0.376958 0.924592 
0.0737612 0.475896 0.876403 
0.0931647 0.602688 0.79252 
0.114852 0.724239 0.679917 
0.116715 0.895511 0.429462 
0.164646 0.932133 0.32252 
-0.183884 0.914868 -0.359447 
-0.0938627 0.917936 -0.385466 
-0.109266 0.705687 -0.700048 
-0.0861886 0.562099 -0.822567 
-0.0657672 0.444821 -0.893202 
-0.0500661 0.352565 -0.934447 
-0.0379201 0.278963 -0.959553 
-0.0293462 0.221532 -0.974711 
-0.0233022 0.176541 -0.984017 
-0.0191215 0.141026 -0.989821 
-0.0162734 0.11269 -0.993497 
-0.0143615 0.0899588 -0.995842 
-0.0131106 0.0717351 -0.997338 
-0.0123462 0.0571188 -0.998291 
-0.0118978 0.0453648 -0.9989 
-0.0116331 0.0358756 -0.999289 
-0.0115278 0.0282773 -0.999534 
-0.0114862 0.0221354 -0.999689 
-0.0115406 0.0171848 -0.999786 
-0.0115711 0.0131367 -0.999847 
-0.0116445 0.00980543 -0.999884 
-0.0116783 0.00700646 -0.999907 
-0.0117023 0.00461196 -0.999921 
-0.0117361 0.00250331 -0.999928 
-0.011764 0.000576037 -0.999931 
-0.0117473 -0.00127387 -0.99993 
-0.0117073 -0.00311947 -0.999927 
-0.0116403 -0.00504509 -0.99992 
-0.0115191 -0.00707627 -0.999909 
-0.0113446 -0.00921717 -0.999893 
-0.0110796 -0.0113247 -0.999874 
-0.0107891 -0.0134836 -0.999851 
-0.0103826 -0.0156879 -0.999823 
-0.00989766 -0.0179075 -0.999791 
-0.00930934 -0.0196987 -0.999763 
-0.00855292 -0.0203931 -0.999755 
-0.00732295 -0.0191778 -0.999789 
-0.00517437 -0.013649 -0.999893 