# vtk DataFile Version 3.0 
Exported using Morpho https://github.com/Morpho-lang/morpho 
ASCII 
DATASET UNSTRUCTURED_GRID 

POINTS 2159 float 
-8.32618 -2.88146 0 
-8.11405 -2.88146 0 
-7.90192 -2.88146 0 
-7.68979 -2.88146 0 
-7.47765 -2.88146 0 
-7.26552 -2.88146 0 
-7.05339 -2.88146 0 
-6.84126 -2.88146 0 
-6.62913 -2.88146 0 
-6.41699 -2.88146 0 
-6.20486 -2.88146 0 
-5.99273 -2.88146 0 
-5.7806 -2.88146 0 
-5.56847 -2.88146 0 
-5.35633 -2.88146 0 
-5.1442 -2.88146 0 
-4.93207 -2.88146 0 
-4.71994 -2.88146 0 
-4.50781 -2.88146 0 
-4.29567 -2.88146 0 
-4.08354 -2.88146 0 
-3.87141 -2.88146 0 
-3.65928 -2.88146 0 
-3.44715 -2.88146 0 
-3.23501 -2.88146 0 
-3.02288 -2.88146 0 
-2.81075 -2.88146 0 
-2.59862 -2.88146 0 
-2.38649 -2.88146 0 
-2.17435 -2.88146 0 
-1.96222 -2.88146 0 
-1.75009 -2.88146 0 
-1.53796 -2.88146 0 
-1.32583 -2.88146 0 
-1.11369 -2.88146 0 
-0.901561 -2.88146 0 
-0.689429 -2.88146 0 
-0.477297 -2.88146 0 
-0.265165 -2.88146 0 
-0.053033 -2.88146 0 
0.159099 -2.88146 0 
0.371231 -2.88146 0 
0.583363 -2.88146 0 
0.795495 -2.88146 0 
1.00763 -2.88146 0 
1.21976 -2.88146 0 
1.43189 -2.88146 0 
1.64402 -2.88146 0 
1.85616 -2.88146 0 
2.06829 -2.88146 0 
2.28042 -2.88146 0 
2.49255 -2.88146 0 
2.70468 -2.88146 0 
2.91682 -2.88146 0 
3.12895 -2.88146 0 
3.34108 -2.88146 0 
3.55321 -2.88146 0 
3.76534 -2.88146 0 
3.97748 -2.88146 0 
4.18961 -2.88146 0 
4.40174 -2.88146 0 
4.61387 -2.88146 0 
4.826 -2.88146 0 
5.03814 -2.88146 0 
5.25027 -2.88146 0 
5.4624 -2.88146 0 
5.67453 -2.88146 0 
5.88666 -2.88146 0 
6.0988 -2.88146 0 
6.31093 -2.88146 0 
6.52306 -2.88146 0 
6.73519 -2.88146 0 
6.94732 -2.88146 0 
7.15946 -2.88146 0 
7.37159 -2.88146 0 
7.58372 -2.88146 0 
7.79585 -2.88146 0 
8.00798 -2.88146 0 
8.22012 -2.88146 0 
8.53831 -2.88146 0 
-8.53831 -2.74114 0 
-8.31832 -2.65933 0 
-8.08786 -2.65637 0 
-7.85795 -2.66408 0 
-7.62148 -2.668 0 
-7.39362 -2.66414 0 
-7.16998 -2.68034 0 
-6.92982 -2.67023 0 
-6.71271 -2.67043 0 
-6.4857 -2.67182 0 
-6.26794 -2.66707 0 
-6.05062 -2.66732 0 
-5.83355 -2.66703 0 
-5.61775 -2.6693 0 
-5.39997 -2.66844 0 
-5.18517 -2.66869 0 
-4.97008 -2.66882 0 
-4.75644 -2.67043 0 
-4.54048 -2.66893 0 
-4.32754 -2.66801 0 
-4.11693 -2.67138 0 
-3.90292 -2.67182 0 
-3.68993 -2.67475 0 
-3.47223 -2.66925 0 
-3.26212 -2.66875 0 
-3.05234 -2.66995 0 
-2.83974 -2.66912 0 
-2.62931 -2.66973 0 
-2.4175 -2.67206 0 
-2.20116 -2.6715 0 
-1.98257 -2.66274 0 
-1.77378 -2.6656 0 
-1.56092 -2.66855 0 
-1.34321 -2.66423 0 
-1.12966 -2.66598 0 
-0.908803 -2.66109 0 
-0.690607 -2.65223 0 
-0.471268 -2.64561 0 
-0.264714 -2.63321 0 
-0.0400391 -2.63628 0 
0.143521 -2.59494 0 
0.337695 -2.63941 0 
0.562964 -2.64533 0 
0.779324 -2.64988 0 
1.0023 -2.6481 0 
1.21856 -2.65433 0 
1.44274 -2.66547 0 
1.66111 -2.66891 0 
1.88018 -2.67142 0 
2.09263 -2.66933 0 
2.30745 -2.67126 0 
2.51667 -2.66868 0 
2.72806 -2.66954 0 
2.94015 -2.67114 0 
3.15086 -2.67085 0 
3.36372 -2.67194 0 
3.57467 -2.67148 0 
3.78728 -2.67193 0 
3.99936 -2.67097 0 
4.21452 -2.67293 0 
4.42325 -2.66776 0 
4.63607 -2.66981 0 
4.8469 -2.66876 0 
5.0581 -2.6688 0 
5.27094 -2.6698 0 
5.48092 -2.66847 0 
5.69218 -2.66988 0 
5.9041 -2.67063 0 
6.11562 -2.671 0 
6.32509 -2.6685 0 
6.53794 -2.67057 0 
6.75099 -2.67004 0 
6.96348 -2.6687 0 
7.17791 -2.66534 0 
7.3918 -2.66339 0 
7.60568 -2.6616 0 
7.8198 -2.6542 0 
8.03412 -2.6474 0 
8.29177 -2.70805 0 
8.53831 -2.66933 0 
-8.53831 -2.4997 0 
-8.30014 -2.44582 0 
-8.05469 -2.44303 0 
-7.80404 -2.46736 0 
-7.56265 -2.45902 0 
-7.33051 -2.45363 0 
-7.0902 -2.49679 0 
-6.85724 -2.45163 0 
-6.6277 -2.47305 0 
-6.40965 -2.4561 0 
-6.1923 -2.45452 0 
-5.97687 -2.45402 0 
-5.76108 -2.4544 0 
-5.5466 -2.45871 0 
-5.33223 -2.45535 0 
-5.12047 -2.45598 0 
-4.90858 -2.45609 0 
-4.69618 -2.46031 0 
-4.4847 -2.45527 0 
-4.2763 -2.45309 0 
-4.06544 -2.46232 0 
-3.85308 -2.4625 0 
-3.63743 -2.47022 0 
-3.42698 -2.4542 0 
-3.22017 -2.4537 0 
-3.00861 -2.45924 0 
-2.79909 -2.45497 0 
-2.58749 -2.45787 0 
-2.36999 -2.46532 0 
-2.14952 -2.46358 0 
-1.93583 -2.441 0 
-1.72288 -2.45021 0 
-1.50479 -2.45722 0 
-1.28645 -2.44643 0 
-1.06315 -2.45515 0 
-0.836287 -2.44517 0 
-0.598226 -2.4288 0 
-0.380257 -2.38781 0 
-0.151771 -2.40994 0 
0.0474383 -2.32103 0 
0.0366535 -2.10465 0 
0.25784 -2.34989 0 
0.467131 -2.41866 0 
0.694708 -2.40987 0 
0.916881 -2.42742 0 
1.15333 -2.42907 0 
1.38011 -2.45354 0 
1.60811 -2.45665 0 
1.82982 -2.46579 0 
2.05265 -2.4568 0 
2.26809 -2.46345 0 
2.48446 -2.45358 0 
2.69369 -2.45792 0 
2.90722 -2.46079 0 
3.11961 -2.45914 0 
3.33123 -2.4636 0 
3.546 -2.46029 0 
3.75737 -2.46329 0 
3.97197 -2.46144 0 
4.18769 -2.46713 0 
4.40447 -2.4526 0 
4.61449 -2.45929 0 
4.82847 -2.4553 0 
5.03932 -2.45588 0 
5.25113 -2.4595 0 
5.4651 -2.4541 0 
5.67438 -2.45755 0 
5.88478 -2.46005 0 
6.09693 -2.45984 0 
6.30695 -2.45468 0 
6.51705 -2.46021 0 
6.73016 -2.45969 0 
6.94461 -2.4556 0 
7.1574 -2.45369 0 
7.37852 -2.44595 0 
7.59469 -2.44067 0 
7.81037 -2.42704 0 
8.05282 -2.44344 0 
8.29327 -2.49987 0 
8.53831 -2.4572 0 
-8.53831 -2.26777 0 
-8.29642 -2.24044 0 
-8.0557 -2.22744 0 
-7.82578 -2.26792 0 
-7.58468 -2.26143 0 
-7.33519 -2.24544 0 
-7.09689 -2.30383 0 
-6.88338 -2.23528 0 
-6.65611 -2.27208 0 
-6.42906 -2.24489 0 
-6.21023 -2.24191 0 
-5.99248 -2.2409 0 
-5.77725 -2.24126 0 
-5.56 -2.24648 0 
-5.34766 -2.24214 0 
-5.13252 -2.2423 0 
-4.92262 -2.24129 0 
-4.71141 -2.24811 0 
-4.50103 -2.24232 0 
-4.29045 -2.23656 0 
-4.08299 -2.24881 0 
-3.8751 -2.25265 0 
-3.66196 -2.26394 0 
-3.45014 -2.24388 0 
-3.23821 -2.23558 0 
-3.03343 -2.24704 0 
-2.82437 -2.24034 0 
-2.61576 -2.244 0 
-2.40415 -2.25633 0 
-2.18847 -2.25769 0 
-1.97383 -2.22822 0 
-1.754 -2.22762 0 
-1.54584 -2.24035 0 
-1.3358 -2.23193 0 
-1.11503 -2.24057 0 
-0.898805 -2.236 0 
-0.672173 -2.23559 0 
-0.438385 -2.16776 0 
-0.201741 -2.17406 0 
-0.225052 -1.96605 0 
-0.00802613 -1.89983 0 
0.282278 -2.10339 0 
0.495054 -2.18493 0 
0.719156 -2.17798 0 
0.959185 -2.22 0 
1.19507 -2.21846 0 
1.42098 -2.24634 0 
1.64425 -2.24726 0 
1.86449 -2.25936 0 
2.08274 -2.24575 0 
2.2953 -2.25319 0 
2.50308 -2.23671 0 
2.71557 -2.24787 0 
2.92499 -2.24887 0 
3.13488 -2.247 0 
3.3485 -2.25528 0 
3.5583 -2.24786 0 
3.77179 -2.25469 0 
3.98178 -2.2473 0 
4.1905 -2.26037 0 
4.39598 -2.23456 0 
4.60357 -2.24445 0 
4.81268 -2.24534 0 
5.02732 -2.24181 0 
5.23781 -2.24711 0 
5.44928 -2.24531 0 
5.66516 -2.243 0 
5.87369 -2.24741 0 
6.08348 -2.25027 0 
6.29555 -2.24175 0 
6.50578 -2.24761 0 
6.71646 -2.24942 0 
6.92991 -2.24567 0 
7.14539 -2.23785 0 
7.35872 -2.23925 0 
7.58622 -2.22131 0 
7.82071 -2.21981 0 
8.05788 -2.23795 0 
8.29791 -2.28453 0 
8.53831 -2.24506 0 
-8.42102 -2.03866 0 
-8.18228 -2.03192 0 
-7.91642 -2.03435 0 
-7.69831 -2.06002 0 
-7.44927 -2.0648 0 
-7.25302 -1.93144 0 
-7.14559 -2.10002 0 
-6.91083 -2.03398 0 
-6.66702 -2.06807 0 
-6.45213 -2.03171 0 
-6.23187 -2.03065 0 
-6.01273 -2.02846 0 
-5.79351 -2.02945 0 
-5.57612 -2.03531 0 
-5.35768 -2.02935 0 
-5.14474 -2.03044 0 
-4.92828 -2.02719 0 
-4.71759 -2.03419 0 
-4.50528 -2.0294 0 
-4.29075 -2.02679 0 
-4.07617 -2.03401 0 
-3.87655 -2.02775 0 
-3.67925 -2.05606 0 
-3.48231 -2.02458 0 
-3.27589 -2.02825 0 
-3.05772 -2.02794 0 
-2.85368 -2.02824 0 
-2.64065 -2.02944 0 
-2.42775 -2.04337 0 
-2.21268 -2.04804 0 
-1.98805 -2.02223 0 
-1.76056 -2.01925 0 
-1.52969 -2.01595 0 
-1.29812 -2.02343 0 
-1.0779 -2.02207 0 
-0.844667 -2.02934 0 
-0.605029 -2.02831 0 
-0.387387 -1.90765 0 
-0.205333 -1.65142 0 
-0.114871 -1.71264 0 
0.132419 -1.7125 0 
0.244814 -1.89577 0 
0.509935 -1.95445 0 
0.765562 -1.9803 0 
0.99945 -2.01293 0 
1.23557 -2.01093 0 
1.45696 -2.03619 0 
1.66838 -2.02328 0 
1.87102 -2.05074 0 
2.06818 -2.01701 0 
2.26989 -2.03869 0 
2.47725 -2.02172 0 
2.68915 -2.03597 0 
2.90145 -2.03415 0 
3.10903 -2.03375 0 
3.32098 -2.0454 0 
3.53353 -2.03509 0 
3.74527 -2.04436 0 
3.95738 -2.03561 0 
4.17183 -2.04472 0 
4.38806 -2.02728 0 
4.60698 -2.02837 0 
4.82182 -2.03541 0 
5.03301 -2.02792 0 
5.24442 -2.03455 0 
5.46238 -2.03848 0 
5.67149 -2.0285 0 
5.8815 -2.03494 0 
6.09218 -2.03978 0 
6.30126 -2.02842 0 
6.51105 -2.03553 0 
6.7228 -2.03834 0 
6.9347 -2.03376 0 
7.14619 -2.02092 0 
7.3722 -2.0337 0 
7.60276 -2.01624 0 
7.83394 -2.01005 0 
8.06859 -2.02962 0 
8.30286 -2.06933 0 
8.53831 -2.03293 0 
-8.53831 -1.83063 0 
-8.30194 -1.81895 0 
-8.05084 -1.85032 0 
-7.80319 -1.81325 0 
-7.5811 -1.86574 0 
-7.38827 -1.77762 0 
-7.01604 -1.86136 0 
-6.84643 -1.70446 0 
-6.72567 -1.86732 0 
-6.50756 -1.82262 0 
-6.28296 -1.81896 0 
-6.06129 -1.81708 0 
-5.84125 -1.81822 0 
-5.61945 -1.82495 0 
-5.40245 -1.82067 0 
-5.18175 -1.81795 0 
-4.96767 -1.81817 0 
-4.74834 -1.81978 0 
-4.53746 -1.81864 0 
-4.32187 -1.81807 0 
-4.10297 -1.82518 0 
-3.88879 -1.80603 0 
-3.68281 -1.82999 0 
-3.46793 -1.81136 0 
-3.24392 -1.82642 0 
-3.03633 -1.80842 0 
-2.82035 -1.819 0 
-2.60162 -1.82118 0 
-2.3847 -1.83389 0 
-2.16471 -1.83747 0 
-1.92766 -1.81395 0 
-1.69084 -1.81481 0 
-1.44721 -1.81384 0 
-1.22238 -1.80229 0 
-0.989461 -1.81799 0 
-0.735953 -1.84196 0 
-0.501476 -1.79237 0 
-0.289789 -1.55199 0 
0.258007 -1.59418 0 
0.433484 -1.75419 0 
0.691974 -1.78182 0 
0.949002 -1.79616 0 
1.17802 -1.80802 0 
1.42071 -1.81741 0 
1.63576 -1.80664 0 
1.85526 -1.82088 0 
2.07248 -1.80458 0 
2.28808 -1.81672 0 
2.49821 -1.80305 0 
2.70131 -1.82434 0 
2.90535 -1.81556 0 
3.11921 -1.82244 0 
3.33099 -1.83391 0 
3.54242 -1.82121 0 
3.75198 -1.8325 0 
3.96085 -1.8192 0 
4.16805 -1.83625 0 
4.37574 -1.8104 0 
4.58451 -1.82298 0 
4.80511 -1.82483 0 
5.01893 -1.81497 0 
5.23142 -1.82114 0 
5.44304 -1.83343 0 
5.66126 -1.81498 0 
5.87162 -1.82239 0 
6.08242 -1.82794 0 
6.29076 -1.81367 0 
6.4981 -1.824 0 
6.71062 -1.82669 0 
6.92305 -1.81971 0 
7.14116 -1.81095 0 
7.3642 -1.82903 0 
7.59434 -1.81135 0 
7.82733 -1.80046 0 
8.06293 -1.82034 0 
8.30018 -1.85008 0 
8.53831 -1.8208 0 
-8.53831 -1.61349 0 
-8.2928 -1.6085 0 
-8.04963 -1.65032 0 
-7.82988 -1.58525 0 
-7.60865 -1.63084 0 
-7.3729 -1.5677 0 
[...]
POINT_DATA 2159 
VECTORS vectors float
-7.23636e-05 -0.000582716 1 
0.000182412 -0.0126979 0.999919 
8.46846e-05 -0.015845 0.999874 
0.000108994 -0.0158114 0.999875 
0.000102599 -0.014649 0.999893 
0.000105557 -0.0130782 0.999914 
0.000104609 -0.0114624 0.999934 
0.000105213 -0.00982377 0.999952 
0.000105059 -0.008156 0.999967 
0.000104921 -0.00648415 0.999979 
0.000105479 -0.00481856 0.999988 
0.000105198 -0.00318723 0.999995 
0.000105603 -0.00159667 0.999999 
0.000105471 -2.10979e-05 1 
0.000105526 0.0015929 0.999999 
0.000105364 0.0033217 0.999994 
0.000105125 0.00525377 0.999986 
0.000104695 0.00749465 0.999972 
0.000103979 0.0101767 0.999948 
0.00010332 0.0134639 0.999909 
0.00010222 0.0175371 0.999846 
0.000100949 0.0226445 0.999744 
9.90603e-05 0.0290873 0.999577 
9.66669e-05 0.0372761 0.999305 
9.38993e-05 0.0477068 0.998861 
9.01051e-05 0.0609994 0.998138 
8.53281e-05 0.0779766 0.996955 
7.93801e-05 0.0996531 0.995022 
7.19904e-05 0.127301 0.991864 
6.16921e-05 0.162508 0.986707 
4.98725e-05 0.207215 0.978295 
3.55845e-05 0.263497 0.96466 
1.53594e-05 0.333632 0.942703 
-2.27091e-06 0.419524 0.907744 
-3.27362e-05 0.521605 0.853187 
-5.09671e-05 0.637849 0.770161 
-6.12749e-05 0.757874 0.652401 
-7.1135e-05 0.87084 0.491567 
-4.59381e-05 0.957229 0.289332 
-1.03446e-05 0.998306 0.0581871 
2.88916e-05 0.983784 -0.179359 
6.11754e-05 0.917589 -0.397531 
6.80383e-05 0.814805 -0.579735 
6.20322e-05 0.695208 -0.718809 
3.47613e-05 0.575953 -0.817483 
1.58519e-05 0.468047 -0.883703 
-1.62456e-06 0.373278 -0.92772 
-2.90985e-05 0.295401 -0.955374 
-4.23914e-05 0.232598 -0.972573 
-5.68365e-05 0.182606 -0.983186 
-6.73676e-05 0.143097 -0.989709 
-7.60763e-05 0.112054 -0.993702 
-8.25611e-05 0.0876927 -0.996148 
-8.80674e-05 0.0686091 -0.997644 
-9.21296e-05 0.0536673 -0.998559 
-9.55575e-05 0.0419546 -0.99912 
-9.79976e-05 0.0327639 -0.999463 
-0.000100136 0.0255291 -0.999674 
-0.000101434 0.0198119 -0.999804 
-0.000103094 0.015276 -0.999883 
-0.000103614 0.0116372 -0.999932 
-0.000104485 0.00867698 -0.999962 
-0.000105018 0.00623777 -0.999981 
-0.000105242 0.00416571 -0.999991 
-0.000105702 0.002351 -0.999997 
-0.000105696 0.000689825 -1 
-0.000105743 -0.000902084 -1 
-0.000105687 -0.00248777 -0.999997 
-0.000105612 -0.00411181 -0.999992 
-0.000105407 -0.00579834 -0.999983 
-0.000105223 -0.00753303 -0.999972 
-0.00010528 -0.00928111 -0.999957 
-0.000105181 -0.0110233 -0.999939 
-0.000104107 -0.0127772 -0.999918 
-0.000106758 -0.0145753 -0.999894 
-9.78902e-05 -0.01634 -0.999866 
-0.000117477 -0.0175433 -0.999846 
-8.58481e-05 -0.0178163 -0.999841 
-8.79299e-05 -0.0155917 -0.999878 
-6.25183e-05 -0.000810525 -1 
-7.81045e-05 0.000370315 1 
0.00446013 -0.00749817 0.999962 
0.00688497 -0.0139785 0.999879 
0.00766224 -0.0157404 0.999847 
0.00804137 -0.0151877 0.999852 
0.00848096 -0.013833 0.999868 
0.00825776 -0.0121917 0.999892 
0.0086929 -0.010336 0.999909 
0.00881107 -0.00866464 0.999924 
0.00883067 -0.0069172 0.999937 
0.00906544 -0.00524385 0.999945 
0.00911442 -0.00359999 0.999952 
0.00917352 -0.00198511 0.999956 
0.00914093 -0.000386097 0.999958 
0.0091989 0.00126537 0.999957 
0.0092162 0.00299928 0.999953 
0.00921711 0.00492878 0.999945 
0.00914917 0.007143 0.999933 
0.00916476 0.00981379 0.99991 
0.00916738 0.0130284 0.999873 
0.00902367 0.0169612 0.999815 
0.00892584 0.0219657 0.999719 
0.00874032 0.0282531 0.999563 
0.00880237 0.0364366 0.999297 
0.00874004 0.0464888 0.998881 
0.00862127 0.0592448 0.998206 
0.00857728 0.0757247 0.997092 
0.00855256 0.0965105 0.995295 
0.00852625 0.123159 0.99235 
0.00869735 0.157891 0.987418 
0.00937437 0.202622 0.979212 
0.00988117 0.256519 0.966489 
0.0105974 0.325001 0.945654 
0.0119176 0.411006 0.911555 
0.0130157 0.511747 0.859037 
0.0142327 0.630304 0.776218 
0.014678 0.755166 0.65537 
0.0129158 0.87238 0.488657 
0.0087341 0.956756 0.29076 
0.00145079 0.999037 0.0438418 
-0.0067633 0.986518 -0.163512 
-0.0113279 0.930055 -0.367246 
-0.0148287 0.823979 -0.566427 
-0.0155756 0.702583 -0.711431 
-0.0150776 0.57684 -0.816718 
-0.0133551 0.465699 -0.884843 
-0.011405 0.368027 -0.929745 
-0.0101849 0.289613 -0.95709 
-0.00935525 0.226438 -0.973981 
-0.00896572 0.177815 -0.984023 
-0.00865479 0.139012 -0.990253 
-0.00861065 0.109306 -0.993971 
-0.00856132 0.0856863 -0.996285 
-0.00855564 0.0670913 -0.99771 
-0.00863796 0.0526009 -0.998578 
-0.00870825 0.0411084 -0.999117 
-0.00881128 0.0321615 -0.999444 
-0.00888904 0.0250494 -0.999647 
-0.00898913 0.0194414 -0.999771 
-0.00903421 0.0149261 -0.999848 
-0.0092214 0.0114022 -0.999892 
-0.00921845 0.00847648 -0.999922 
-0.00928079 0.00607442 -0.999938 
-0.00930572 0.0040246 -0.999949 
-0.00930754 0.00220552 -0.999954 
-0.00934846 0.000558743 -0.999956 
-0.00929879 -0.00102801 -0.999956 
-0.00925973 -0.00260921 -0.999954 
-0.00922204 -0.00421574 -0.999949 
-0.00922996 -0.00584917 -0.99994 
-0.00909243 -0.0075486 -0.99993 
-0.00900745 -0.00926846 -0.999916 
-0.00889953 -0.0109964 -0.9999 
-0.00880979 -0.0127637 -0.99988 
-0.00858927 -0.0145234 -0.999858 
-0.00828846 -0.0161163 -0.999836 
-0.00783054 -0.0171277 -0.999823 
-0.00683924 -0.0168438 -0.999835 
-0.00379155 -0.0119761 -0.999921 
0.000246515 0.000220814 -1 
0.00011149 -0.000104957 1 
0.00723594 -0.0105569 0.999918 
0.010249 -0.01542 0.999829 
0.0114004 -0.0158117 0.99981 
0.0122092 -0.0148707 0.999815 
0.0127266 -0.0133395 0.99983 
0.0126656 -0.0115142 0.999853 
0.0132295 -0.00965637 0.999866 
0.0132574 -0.00793341 0.999881 
0.0135213 -0.00628303 0.999889 
0.0136344 -0.00465518 0.999896 
0.0137225 -0.00305749 0.999901 
0.0137992 -0.00146432 0.999904 
0.013819 0.000137813 0.999905 
0.0138873 0.00180279 0.999902 
0.0138986 0.00357802 0.999897 
0.0138959 0.00557307 0.999888 
0.0138297 0.00789878 0.999873 
0.0138223 0.010668 0.999848 
0.0137818 0.0139984 0.999807 
0.0136299 0.0181682 0.999742 
0.0135505 0.0234165 0.999634 
0.0133726 0.0301549 0.999456 
0.0134484 0.0384675 0.999169 
0.0134057 0.0488297 0.998717 
0.0133608 0.0622658 0.99797 
0.0135543 0.0791675 0.996769 
0.0138103 0.100888 0.994802 
0.0142107 0.129417 0.991488 
0.0151246 0.166362 0.985949 
0.0171433 0.211464 0.977235 
0.0188961 0.268711 0.963035 
0.0213159 0.341741 0.939553 
0.0252657 0.430613 0.902183 
0.0281772 0.539727 0.841369 
0.0315397 0.664473 0.746646 
0.03213 0.799984 0.59916 
0.0288263 0.909061 0.415664 
0.0120148 0.98482 0.173161 
-0.00572037 0.998336 -0.0573887 
-0.008375 0.998853 -0.0471371 
-0.0255488 0.954926 -0.295744 
-0.0310659 0.86784 -0.495872 
-0.0358992 0.742476 -0.668911 
-0.0327883 0.615918 -0.787127 
-0.0289324 0.490616 -0.870895 
-0.0234114 0.388665 -0.921082 
-0.0200414 0.303602 -0.952588 
-0.0172963 0.237551 -0.971221 
-0.0158842 0.184596 -0.982686 
-0.0146079 0.144553 -0.989389 
-0.0141077 0.112882 -0.993508 
-0.0136303 0.0888737 -0.99595 
-0.0133907 0.0695957 -0.997485 
-0.0133543 0.0545377 -0.998422 
-0.0133206 0.0427545 -0.998997 
-0.0134268 0.0333555 -0.999353 
-0.013483 0.026059 -0.999569 
-0.0135803 0.0201834 -0.999704 
-0.0136393 0.0155539 -0.999786 
-0.013826 0.0117654 -0.999835 
-0.0138347 0.00881783 -0.999865 
-0.0139322 0.00632122 -0.999883 
-0.013968 0.00422982 -0.999893 
-0.0139482 0.00238289 -0.9999 
-0.0140131 0.000678785 -0.999902 
-0.0139677 -0.000907837 -0.999902 
-0.0139086 -0.0024792 -0.9999 
-0.0138429 -0.00407574 -0.999896 
-0.0138024 -0.00568483 -0.999889 
-0.0136337 -0.0073292 -0.99988 
-0.0134814 -0.00901618 -0.999868 
-0.0132978 -0.0107433 -0.999854 
-0.0130046 -0.0125038 -0.999837 
-0.0126351 -0.0143251 -0.999818 
-0.0120554 -0.015859 -0.999802 
-0.0112675 -0.0169197 -0.999793 
-0.00974095 -0.0169211 -0.999809 
-0.00622858 -0.0116979 -0.999912 
-0.000411782 3.71922e-05 -1 
-0.00016453 0.000253285 1 
0.00741201 -0.011602 0.999905 
0.0101732 -0.0162114 0.999817 
0.0115796 -0.0160901 0.999803 
0.0123979 -0.0151018 0.999809 
0.0129075 -0.0134298 0.999827 
0.0134799 -0.0115208 0.999843 
0.013506 -0.00983839 0.99986 
0.0138416 -0.00812851 0.999871 
0.0138866 -0.00641659 0.999883 
0.0140313 -0.00480528 0.99989 
0.0141487 -0.00320417 0.999895 
0.0142447 -0.00161744 0.999897 
0.014329 1.13926e-05 0.999897 
0.0143646 0.00166756 0.999895 
0.0143895 0.00347518 0.99989 
0.0143955 0.00544932 0.999882 
0.0144144 0.00775495 0.999866 
0.0143451 0.0104642 0.999842 
0.0142722 0.0137593 0.999803 
0.0142863 0.0178165 0.999739 
0.0142269 0.0227827 0.999639 
0.0142631 0.029282 0.999469 
0.0142415 0.0372456 0.999205 
0.0143914 0.0474737 0.998769 
0.0146469 0.0599778 0.998092 
0.0151463 0.0760052 0.996992 
0.0159139 0.0963073 0.995224 
0.0170224 0.122529 0.992319 
0.0188288 0.156473 0.987503 
0.0220134 0.197904 0.979974 
0.0260528 0.253059 0.9671 
0.0306089 0.318887 0.947298 
0.0371203 0.398177 0.916557 
0.0438026 0.500155 0.864827 
0.0506835 0.615044 0.786862 
0.0537376 0.746117 0.663643 
0.0555625 0.871459 0.487311 
0.0308887 0.97004 0.240975 
0.057746 0.956141 0.287157 
0.00160254 0.999947 0.0101769 
-0.0516545 0.938718 -0.340794 
-0.0580481 0.84045 -0.538771 
-0.0613188 0.710961 -0.700553 
-0.0509568 0.577755 -0.814618 
-0.0429294 0.457552 -0.888146 
-0.0338066 0.362681 -0.9313 
-0.02785 0.284463 -0.958282 
-0.0230885 0.223903 -0.974338 
-0.0201396 0.17469 -0.984417 
-0.0178677 0.137739 -0.990307 
-0.0165258 0.108773 -0.993929 
-0.0154631 0.0856269 -0.996207 
-0.0148358 0.0675143 -0.997608 
-0.0144714 0.0531651 -0.998481 
-0.0142876 0.0417005 -0.999028 
-0.0142093 0.0327711 -0.999362 
-0.0142223 0.0256073 -0.999571 
-0.0142658 0.0200125 -0.999698 
-0.0143235 0.0155209 -0.999777 
-0.0143252 0.0119498 -0.999826 
-0.0144095 0.00901061 -0.999856 
-0.0144398 0.00652242 -0.999874 
-0.0144555 0.00435915 -0.999886 
-0.0144829 0.00249598 -0.999892 
-0.0144784 0.000787269 -0.999895 
-0.0144404 -0.000867266 -0.999895 
-0.0144027 -0.00243195 -0.999893 
-0.0143235 -0.00400463 -0.999889 
-0.0141623 -0.0056057 -0.999884 
-0.0140703 -0.00723993 -0.999875 
-0.0138765 -0.00887792 -0.999864 
-0.0136146 -0.0105873 -0.999851 
-0.0132483 -0.0123818 -0.999836 
-0.0128124 -0.0141816 -0.999817 
-0.0120634 -0.0157978 -0.999802 
-0.0110961 -0.0169897 -0.999794 
-0.00975235 -0.0170074 -0.999808 
-0.00702669 -0.0117641 -0.999906 
-0.000121736 4.57831e-05 -1 
0.00388865 -0.00726501 0.999966 
0.00831107 -0.014847 0.999855 
0.0101557 -0.0166826 0.999809 
0.0111966 -0.0158863 0.999811 
0.0119197 -0.0143759 0.999826 
0.0117048 -0.012928 0.999848 
0.0126557 -0.0119272 0.999849 
0.0127253 -0.0100824 0.999868 
0.0131071 -0.0081997 0.99988 
0.0131697 -0.0066357 0.999891 
0.0133108 -0.00501199 0.999899 
0.0134325 -0.00340515 0.999904 
0.0135466 -0.00178727 0.999907 
0.0136559 -0.000150223 0.999907 
0.0136903 0.00155995 0.999905 
0.0137299 0.00335172 0.9999 
0.0137284 0.00537982 0.999891 
0.0137398 0.00765321 0.999876 
0.0137344 0.0103941 0.999852 
0.0137373 0.0137545 0.999811 
0.0137404 0.0178484 0.999746 
0.013786 0.0226427 0.999649 
0.0139428 0.0284503 0.999498 
0.0140209 0.0355939 0.999268 
0.014305 0.0448755 0.99889 
0.0148315 0.0573462 0.998244 
0.0156368 0.0720405 0.997279 
0.0169125 0.0914183 0.995669 
0.0187394 0.116106 0.99306 
0.021434 0.147476 0.988833 
0.0260566 0.188805 0.981669 
0.0322061 0.241962 0.969751 
0.0406898 0.310355 0.94975 
0.0512981 0.397798 0.916038 
0.0636321 0.498021 0.864827 
0.0754751 0.623784 0.777944 
0.0822876 0.764366 0.63951 
0.0971986 0.873702 0.476652 
0.16244 0.921831 0.35191 
0.0867933 0.977 0.194775 
-0.102642 0.968586 -0.226507 
-0.0800467 0.941558 -0.327202 
-0.0962765 0.806589 -0.583219 
-0.0862794 0.658871 -0.747292 
-0.0693319 0.533628 -0.842873 
-0.05547 0.420687 -0.905509 
-0.0430348 0.335272 -0.941138 
-0.0350907 0.266732 -0.963132 
-0.0282291 0.214594 -0.976295 
-0.0243579 0.171577 -0.98487 
-0.0206821 0.137937 -0.990225 
-0.01832 0.108967 -0.993877 
-0.0165456 0.0864509 -0.996119 
-0.0153746 0.0680616 -0.997563 
-0.0146198 0.0538189 -0.998444 
-0.0142268 0.0425682 -0.998992 
-0.013912 0.0333527 -0.999347 
-0.0138498 0.0262602 -0.999559 
-0.0137265 0.0204527 -0.999697 
-0.0137739 0.0158352 -0.99978 
-0.0137191 0.0120625 -0.999833 
-0.0137323 0.00893941 -0.999866 
-0.013805 0.00642015 -0.999884 
-0.0137934 0.00429949 -0.999896 
-0.0138268 0.00242564 -0.999901 
-0.0138341 0.000656754 -0.999904 
-0.0137534 -0.000959102 -0.999905 
-0.0137192 -0.00254412 -0.999903 
-0.0136628 -0.0041297 -0.999898 
-0.0134491 -0.00570099 -0.999893 
-0.0132905 -0.0072859 -0.999885 
-0.0131053 -0.00893378 -0.999874 
-0.0128266 -0.0106381 -0.999861 
-0.0123797 -0.0123939 -0.999847 
-0.0119931 -0.0143731 -0.999825 
-0.0111885 -0.0160153 -0.999809 
-0.0102479 -0.0171618 -0.9998 
-0.00893925 -0.0170029 -0.999815 
-0.00654604 -0.0117008 -0.99991 
-0.000174412 4.63663e-05 -1 
-9.27686e-05 0.000204932 1 
0.00572544 -0.0118957 0.999913 
0.00854706 -0.0168209 0.999822 
0.00952096 -0.0165636 0.999817 
0.0106086 -0.0154848 0.999824 
0.0105076 -0.0141205 0.999845 
0.0116372 -0.0109504 0.999872 
0.0107936 -0.009664 0.999895 
0.0120117 -0.00868991 0.99989 
0.0119467 -0.00709124 0.999903 
0.0120972 -0.00545024 0.999912 
0.0122304 -0.00382893 0.999918 
0.0123581 -0.00220444 0.999921 
0.0124973 -0.000532795 0.999922 
0.0125388 0.00115982 0.999921 
0.0125671 0.00299519 0.999917 
0.0125946 0.00496156 0.999908 
0.0126155 0.00727016 0.999894 
0.0126275 0.00989165 0.999871 
0.012652 0.013121 0.999834 
0.0127338 0.0171463 0.999772 
0.0127191 0.0220181 0.999677 
0.0129964 0.0278739 0.999527 
0.0132429 0.0354961 0.999282 
0.0138422 0.0456114 0.998863 
0.0145787 0.0572395 0.998254 
0.015871 0.0726992 0.997228 
0.0178007 0.0924476 0.995558 
0.0205567 0.117503 0.99286 
0.0245874 0.149524 0.988452 
0.031194 0.192288 0.980843 
0.0403332 0.248329 0.967836 
0.0533418 0.321586 0.945377 
0.0700323 0.404508 0.911849 
0.0890722 0.513361 0.853538 
0.107856 0.656023 0.746995 
0.131558 0.784828 0.605588 
0.230533 0.834521 0.500429 
-0.213723 0.863167 -0.457455 
-0.145239 0.813057 -0.563777 
-0.12238 0.664791 -0.736937 
-0.0949888 0.526589 -0.844797 
-0.0730474 0.42122 -0.904012 
-0.054734 0.328964 -0.942755 
-0.0429863 0.26122 -0.964322 
-0.0333998 0.20708 -0.977754 
-0.0270321 0.16348 -0.986176 
-0.0221671 0.129356 -0.99135 
-0.0189943 0.102824 -0.994518 
-0.0167717 0.0825333 -0.996447 
-0.0152431 0.0658573 -0.997713 
-0.0142045 0.0520677 -0.998543 
-0.0135892 0.0412492 -0.999056 
-0.0131204 0.0325241 -0.999385 
-0.0129412 0.0256958 -0.999586 
-0.0127344 0.0201726 -0.999715 
-0.0127725 0.015791 -0.999794 
-0.0126175 0.0121974 -0.999846 
-0.0126681 0.00920504 -0.999877 
-0.0126836 0.00658254 -0.999898 
-0.0126197 0.00440918 -0.999911 
-0.0126555 0.0025069 -0.999917 
-0.0127191 0.000772009 -0.999919 
-0.0125462 -0.000932955 -0.999921 
-0.0125228 -0.00253206 -0.999918 
-0.0124412 -0.00411532 -0.999914 
-0.0122381 -0.00569897 -0.999909 
-0.0121083 -0.00725343 -0.9999 
-0.0118961 -0.00887663 -0.99989 
-0.0115586 -0.0105475 -0.999878 
-0.0111759 -0.012408 -0.999861 
-0.0108695 -0.0143689 -0.999838 
-0.010176 -0.0161256 -0.999818 
-0.00923445 -0.0172211 -0.999809 
-0.00813047 -0.0171776 -0.999819 
-0.0059975 -0.0118522 -0.999912 
-0.000161813 4.81136e-05 -1 
0.000182249 -2.2952e-05 1 
0.00519563 -0.0119215 0.999915 
0.00748175 -0.0168781 0.99983 
0.00804571 -0.0169108 0.999825 
0.00899447 -0.0157906 0.999835 
0.00905931 -0.0140933 0.99986 
0.0103304 -0.0121006 0.999873 
0.00956354 -0.0104035 0.9999 
0.0104297 -0.00798546 0.999914 
0.0105318 -0.00634467 0.999924 
0.0106602 -0.00474954 0.999932 
0.0107946 -0.00315165 0.999937 
0.0109571 -0.00151947 0.999939 
0.0110308 0.000107097 0.999939 
0.0110954 0.0018324 0.999937 
0.0110878 0.00366863 0.999932 
0.0111662 0.00571258 0.999921 
0.0111398 0.00800239 0.999906 
0.0112087 0.010723 0.99988 
0.011307 0.0141121 0.999836 
0.0113739 0.0180454 0.999772 
0.011448 0.0230179 0.99967 
0.0118669 0.0289676 0.99951 
0.0123785 0.037295 0.999228 
0.0130072 0.0463405 0.998841 
0.0141279 0.0584378 0.998191 
0.0158241 0.0734743 0.997172 
0.0182814 0.0923711 0.995557 
0.0217627 0.116047 0.993005 
0.0270023 0.147983 0.988621 
0.0343284 0.181836 0.982729 
0.0438006 0.228801 0.972487 
0.0586662 0.292494 0.954466 
0.0809138 0.367982 0.926306 
0.105955 0.461385 0.88085 
0.133068 0.584717 0.800249 
0.176091 0.708295 0.683601 
0.284633 0.710197 0.643898 
-0.275507 0.746865 -0.605218 
-0.176473 0.679018 -0.712596 
-0.128143 0.538753 -0.832661 
-0.0938279 0.416739 -0.904171 
-0.0680281 0.332042 -0.940808 
-0.050879 0.256224 -0.965278 
-0.0383599 0.204456 -0.978124 
-0.0298106 0.160804 -0.986536 
-0.0235299 0.126725 -0.991659 
-0.0193628 0.0999799 -0.994801 
-0.016457 0.079225 -0.996721 
-0.0145503 0.0628085 -0.99792 
-0.0133038 0.0500758 -0.998657 
-0.0125501 0.03999 -0.999121 
-0.0119262 0.0317065 -0.999426 
-0.0116606 0.0251444 -0.999616 
-0.0113844 0.0197448 -0.99974 
-0.0113566 0.0153974 -0.999817 
-0.0111171 0.0118055 -0.999869 
-0.011279 0.00881413 -0.999898 
-0.0112313 0.00634414 -0.999917 
-0.0111173 0.00419188 -0.999929 
-0.0111571 0.00231521 -0.999935 
-0.0112757 0.000553917 -0.999936 
-0.0110141 -0.00111934 -0.999939 
-0.0110139 -0.00273548 -0.999936 
-0.0109367 -0.00431595 -0.999931 
-0.0106504 -0.00587585 -0.999926 
-0.0105972 -0.00747731 -0.999916 
-0.0103613 -0.00907907 -0.999905 
-0.0100495 -0.0107802 -0.999891 
-0.00967507 -0.0126471 -0.999873 
-0.00942938 -0.0145525 -0.99985 
-0.00877683 -0.0162453 -0.99983 
-0.00801187 -0.0174117 -0.999816 
-0.00705027 -0.0171805 -0.999828 
-0.00519313 -0.0117505 -0.999917 
-0.000139546 4.69771e-05 -1 
8.60316e-05 7.35093e-05 1 
0.00431876 -0.0116184 0.999923 
0.00618895 -0.0167994 0.99984 
0.00681796 -0.0170213 0.999832 
0.00762911 -0.0157253 0.999847 
0.00761506 -0.0139494 0.999874 
0.00878365 -0.0122004 0.999887 
0.0081092 -0.0103962 0.999913 
0.00903625 -0.00864079 0.999922 
0.00898633 -0.00689977 0.999936 
0.00909629 -0.00531559 0.999944 
0.0092314 -0.00372656 0.99995 
0.00940826 -0.00209937 0.999954 
0.00947104 -0.000472647 0.999955 
0.00958002 0.00121217 0.999953 
0.0095878 0.00300389 0.99995 
0.00965057 0.00499977 0.999941 
0.00963059 0.00716707 0.999928 
0.00969919 0.00972253 0.999906 
0.00986347 0.0128002 0.999869 
0.00989575 0.0165073 0.999815 
0.0100567 0.0208898 0.999731 
0.0103702 0.0266724 0.99959 
0.0110731 0.0336045 0.999374 
0.0115815 0.0421759 0.999043 
0.012735 0.0526371 0.998532 
0.0144661 0.0663662 0.99769 
0.0169272 0.0828822 0.996416 
0.0205068 0.103723 0.994395 
0.025774 0.130975 0.991051 
0.0329034 0.160131 0.986547 
0.0439661 0.203128 0.978165 
0.0590102 0.256754 0.964674 
0.0808862 0.317024 0.944962 
0.114018 0.397027 0.910697 
0.151639 0.50062 0.852283 
0.201178 0.601313 0.773272 
0.299925 0.583791 0.754476 
-0.301639 0.63215 -0.713723 
-0.196386 0.585295 -0.786678 
-0.138289 0.470047 -0.871741 
-0.100568 0.369931 -0.9236 
-0.072717 0.301437 -0.950709 
-0.0533222 0.235623 -0.970381 
-0.0393761 0.187857 -0.981407 
-0.0296332 0.147819 -0.98857 
-0.0232051 0.118045 -0.992737 
-0.0185742 0.0932728 -0.995467 
-0.0155665 0.0745281 -0.997097 
-0.0135244 0.0597234 -0.998123 
-0.0121714 0.0479253 -0.998777 
-0.0112988 0.0383097 -0.999202 
-0.0105881 0.030488 -0.999479 
-0.0102836 0.0243085 -0.999652 
-0.00994131 0.0192359 -0.999766 
-0.00991924 0.0151554 -0.999836 
-0.00964759 0.0117068 -0.999885 
-0.00983068 0.00886746 -0.999912 
-0.00971405 0.00635713 -0.999933 
-0.00964367 0.00423664 -0.999945 
-0.00961887 0.00232393 -0.999951 
-0.0097586 0.00059114 -0.999952 
-0.00952544 -0.00108573 -0.999954 
-0.00951693 -0.0027226 -0.999951 
-0.00939427 -0.00431719 -0.999947 
-0.00915951 -0.00591364 -0.999941 
-0.00913102 -0.00751116 -0.99993 
-0.00887131 -0.00911023 -0.999919 
-0.00858804 -0.0107671 -0.999905 
-0.00820453 -0.0125773 -0.999887 
-0.00802682 -0.0145457 -0.999862 
-0.00748258 -0.0163067 -0.999839 
-0.00680974 -0.0173989 -0.999825 
-0.00603578 -0.0173303 -0.999832 
-0.00443677 -0.0118863 -0.99992 
-0.000108065 4.73912e-05 -1 
9.61258e-05 4.51891e-05 1 
0.00367933 -0.0119674 0.999922 
0.00525485 -0.0171526 0.999839 
0.0056236 -0.0170871 0.999838 
0.00636674 -0.0159369 0.999853 
0.00631497 -0.0142698 0.999878 
0.00728907 -0.0120826 0.9999 