# vtk DataFile Version 3.0 
Exported using Morpho https://github.com/Morpho-lang/morpho 
ASCII 
DATASET UNSTRUCTURED_GRID 

POINTS 2213 float 
-8.32618 -2.88146 0 
-8.11405 -2.88146 0 
-7.90192 -2.88146 0 
-7.68979 -2.88146 0 
-7.47765 -2.88146 0 
-7.26552 -2.88146 0 
-7.05339 -2.88146 0 
-6.84126 -2.88146 0 
-6.62913 -2.88146 0 
-6.41699 -2.88146 0 
-6.20486 -2.88146 0 
-5.99273 -2.88146 0 
-5.7806 -2.88146 0 
-5.56847 -2.88146 0 
-5.35633 -2.88146 0 
-5.1442 -2.88146 0 
-4.93207 -2.88146 0 
-4.71994 -2.88146 0 
-4.50781 -2.88146 0 
-4.29567 -2.88146 0 
-4.08354 -2.88146 0 
-3.87141 -2.88146 0 
-3.65928 -2.88146 0 
-3.44715 -2.88146 0 
-3.23501 -2.88146 0 
-3.02288 -2.88146 0 
-2.81075 -2.88146 0 
-2.59862 -2.88146 0 
-2.38649 -2.88146 0 
-2.17435 -2.88146 0 
-1.96222 -2.88146 0 
-1.75009 -2.88146 0 
-1.53796 -2.88146 0 
-1.32583 -2.88146 0 
-1.11369 -2.88146 0 
-0.901561 -2.88146 0 
-0.689429 -2.88146 0 
-0.477297 -2.88146 0 
-0.265165 -2.88146 0 
-0.053033 -2.88146 0 
0.159099 -2.88146 0 
0.371231 -2.88146 0 
0.583363 -2.88146 0 
0.795495 -2.88146 0 
1.00763 -2.88146 0 
1.21976 -2.88146 0 
1.43189 -2.88146 0 
1.64402 -2.88146 0 
1.85616 -2.88146 0 
2.06829 -2.88146 0 
2.28042 -2.88146 0 
2.49255 -2.88146 0 
2.70468 -2.88146 0 
2.91682 -2.88146 0 
3.12895 -2.88146 0 
3.34108 -2.88146 0 
3.55321 -2.88146 0 
3.76534 -2.88146 0 
3.97748 -2.88146 0 
4.18961 -2.88146 0 
4.40174 -2.88146 0 
4.61387 -2.88146 0 
4.826 -2.88146 0 
5.03814 -2.88146 0 
5.25027 -2.88146 0 
5.4624 -2.88146 0 
5.67453 -2.88146 0 
5.88666 -2.88146 0 
6.0988 -2.88146 0 
6.31093 -2.88146 0 
6.52306 -2.88146 0 
6.73519 -2.88146 0 
6.94732 -2.88146 0 
7.15946 -2.88146 0 
7.37159 -2.88146 0 
7.58372 -2.88146 0 
7.79585 -2.88146 0 
8.00798 -2.88146 0 
8.22012 -2.88146 0 
8.53831 -2.88146 0 
-8.53831 -2.74068 0 
-8.31469 -2.65457 0 
-8.08502 -2.65586 0 
-7.85164 -2.66916 0 
-7.61051 -2.67686 0 
-7.37945 -2.6623 0 
-7.15707 -2.67716 0 
-6.92073 -2.67548 0 
-6.69445 -2.67106 0 
-6.47383 -2.66702 0 
-6.2573 -2.66808 0 
-6.03897 -2.66926 0 
-5.82061 -2.66604 0 
-5.60688 -2.66483 0 
-5.39441 -2.66899 0 
-5.17842 -2.66715 0 
-4.96625 -2.6677 0 
-4.75388 -2.6701 0 
-4.53893 -2.66777 0 
-4.32864 -2.66966 0 
-4.11473 -2.66922 0 
-3.90365 -2.66871 0 
-3.69198 -2.66916 0 
-3.48219 -2.66882 0 
-3.27048 -2.66949 0 
-3.05922 -2.66941 0 
-2.84914 -2.668 0 
-2.63912 -2.67103 0 
-2.42834 -2.67249 0 
-2.21615 -2.67331 0 
-2.00124 -2.67078 0 
-1.79068 -2.67277 0 
-1.576 -2.6684 0 
-1.36696 -2.67842 0 
-1.14508 -2.67251 0 
-0.930639 -2.67494 0 
-0.709945 -2.66401 0 
-0.500792 -2.67749 0 
-0.270774 -2.65925 0 
-0.0601086 -2.66335 0 
0.150491 -2.64782 0 
0.359979 -2.656 0 
0.572436 -2.67213 0 
0.78714 -2.67647 0 
1.00864 -2.6729 0 
1.22464 -2.67559 0 
1.44167 -2.6757 0 
1.65258 -2.66877 0 
1.87257 -2.67621 0 
2.08735 -2.67295 0 
2.30129 -2.67205 0 
2.5164 -2.67041 0 
2.73167 -2.67153 0 
2.94504 -2.66963 0 
3.16293 -2.67254 0 
3.37852 -2.67292 0 
3.59404 -2.67159 0 
3.81107 -2.67297 0 
4.0262 -2.67257 0 
4.23957 -2.66854 0 
4.45334 -2.67015 0 
4.66638 -2.66828 0 
4.88026 -2.66962 0 
5.09416 -2.66998 0 
5.30749 -2.66994 0 
5.51999 -2.66921 0 
5.73257 -2.66963 0 
5.94613 -2.66928 0 
6.15788 -2.66956 0 
6.37208 -2.67046 0 
6.58494 -2.66929 0 
6.79778 -2.67038 0 
7.01028 -2.66622 0 
7.22353 -2.66643 0 
7.43678 -2.66316 0 
7.65227 -2.66199 0 
7.86887 -2.66057 0 
8.08396 -2.654 0 
8.32332 -2.72865 0 
8.53831 -2.66933 0 
-8.53831 -2.49931 0 
-8.30842 -2.43641 0 
-8.06785 -2.44468 0 
-7.81671 -2.47592 0 
-7.58054 -2.472 0 
-7.34968 -2.44816 0 
-7.10754 -2.48848 0 
-6.87109 -2.47231 0 
-6.6474 -2.46097 0 
-6.42948 -2.45283 0 
-6.21004 -2.45817 0 
-5.99136 -2.45898 0 
-5.77766 -2.44961 0 
-5.5644 -2.44925 0 
-5.34958 -2.45869 0 
-5.13724 -2.452 0 
-4.92473 -2.45465 0 
-4.71026 -2.46027 0 
-4.49949 -2.45249 0 
-4.28565 -2.45974 0 
-4.07456 -2.45579 0 
-3.8633 -2.45588 0 
-3.65512 -2.45466 0 
-3.44459 -2.4562 0 
-3.23177 -2.45848 0 
-3.02666 -2.45334 0 
-2.81363 -2.45638 0 
-2.60685 -2.45807 0 
-2.39529 -2.46359 0 
-2.18132 -2.46597 0 
-1.9712 -2.45797 0 
-1.75948 -2.46408 0 
-1.54933 -2.45355 0 
-1.32962 -2.47967 0 
-1.11292 -2.46229 0 
-0.895831 -2.46864 0 
-0.682029 -2.44422 0 
-0.457218 -2.4791 0 
-0.237302 -2.4359 0 
-0.0237577 -2.44232 0 
0.181743 -2.39663 0 
0.374216 -2.42964 0 
0.590683 -2.45894 0 
0.813407 -2.47633 0 
1.01919 -2.4446 0 
1.21924 -2.46675 0 
1.42743 -2.47014 0 
1.64093 -2.45466 0 
1.85142 -2.47157 0 
2.06565 -2.46337 0 
2.2764 -2.46027 0 
2.48449 -2.46068 0 
2.6984 -2.46009 0 
2.90746 -2.45656 0 
3.11867 -2.46531 0 
3.33424 -2.46281 0 
3.54484 -2.46302 0 
3.76033 -2.46587 0 
3.97535 -2.46297 0 
4.18575 -2.45785 0 
4.40009 -2.45729 0 
4.60972 -2.45592 0 
4.82305 -2.45751 0 
5.03578 -2.45883 0 
5.24907 -2.45864 0 
5.46156 -2.45728 0 
5.6745 -2.45778 0 
5.88793 -2.45996 0 
6.10396 -2.45678 0 
6.31739 -2.46234 0 
6.53501 -2.45929 0 
6.7518 -2.45896 0 
6.96528 -2.45505 0 
7.18476 -2.45282 0 
7.40175 -2.44819 0 
7.62266 -2.4478 0 
7.84807 -2.44567 0 
8.07461 -2.43709 0 
8.30417 -2.51636 0 
8.53831 -2.4572 0 
-8.53831 -2.26711 0 
-8.30097 -2.22824 0 
-8.07032 -2.22901 0 
-7.8367 -2.27881 0 
-7.59483 -2.26752 0 
-7.35057 -2.24532 0 
-7.11491 -2.29495 0 
-6.88914 -2.26515 0 
-6.66748 -2.25397 0 
-6.44475 -2.2398 0 
-6.22658 -2.24738 0 
-6.00805 -2.24873 0 
-5.7919 -2.23475 0 
-5.57834 -2.23443 0 
-5.36414 -2.24556 0 
-5.15233 -2.23834 0 
-4.93946 -2.24082 0 
-4.72634 -2.24981 0 
-4.51356 -2.23798 0 
-4.30091 -2.24999 0 
-4.08767 -2.24136 0 
-3.87621 -2.24469 0 
-3.66531 -2.23617 0 
-3.45858 -2.24542 0 
-3.24759 -2.24704 0 
-3.03313 -2.23541 0 
-2.83144 -2.24644 0 
-2.61345 -2.24226 0 
-2.4101 -2.25137 0 
-2.19759 -2.26005 0 
-1.98294 -2.24457 0 
-1.77062 -2.25249 0 
-1.5593 -2.23997 0 
-1.34456 -2.27478 0 
-1.12608 -2.25305 0 
-0.908071 -2.25702 0 
-0.686753 -2.23178 0 
-0.46432 -2.272 0 
-0.249402 -2.21445 0 
-0.0339571 -2.21811 0 
0.166341 -2.14972 0 
0.369867 -2.17556 0 
0.567203 -2.24492 0 
0.791034 -2.26534 0 
1.01563 -2.23816 0 
1.24251 -2.24904 0 
1.45243 -2.25871 0 
1.65601 -2.22926 0 
1.85379 -2.26217 0 
2.05462 -2.24286 0 
2.25894 -2.24772 0 
2.46852 -2.2435 0 
2.67442 -2.25152 0 
2.88862 -2.23986 0 
3.09574 -2.25156 0 
3.3048 -2.25568 0 
3.5197 -2.24837 0 
3.72791 -2.25855 0 
3.94289 -2.25532 0 
4.15561 -2.2434 0 
4.36459 -2.24832 0 
4.57855 -2.23915 0 
4.78628 -2.24589 0 
4.9995 -2.24619 0 
5.21107 -2.24715 0 
5.42331 -2.24515 0 
5.63568 -2.24599 0 
5.84917 -2.24885 0 
6.06268 -2.25034 0 
6.28317 -2.25079 0 
6.49669 -2.25431 0 
6.71886 -2.25167 0 
6.93712 -2.24146 0 
7.15281 -2.24595 0 
7.37717 -2.23422 0 
7.59838 -2.23596 0 
7.82616 -2.23663 0 
8.05966 -2.22673 0 
8.29926 -2.30151 0 
8.53831 -2.24506 0 
-8.4228 -2.0303 0 
-8.19049 -2.01205 0 
-7.93882 -2.04972 0 
-7.72195 -2.06844 0 
-7.48371 -2.06419 0 
-7.27582 -1.9777 0 
-7.12424 -2.09309 0 
-6.93947 -2.0286 0 
-6.73565 -2.04603 0 
-6.51339 -2.03638 0 
-6.2825 -2.03472 0 
-6.06183 -2.03901 0 
-5.84497 -2.02599 0 
-5.62463 -2.02109 0 
-5.40533 -2.0325 0 
-5.192 -2.02422 0 
-4.97758 -2.02854 0 
-4.76072 -2.03666 0 
-4.54846 -2.02822 0 
-4.33032 -2.03644 0 
-4.11783 -2.03309 0 
-3.9014 -2.02966 0 
-3.69034 -2.0266 0 
-3.47628 -2.02407 0 
-3.27105 -2.03849 0 
-3.05853 -2.02578 0 
-2.84102 -2.02566 0 
-2.6394 -2.03796 0 
-2.4158 -2.03201 0 
-2.21337 -2.0473 0 
-2.00215 -2.03873 0 
-1.7818 -2.03925 0 
-1.55375 -2.03694 0 
-1.32916 -2.06615 0 
-1.11072 -2.03908 0 
-0.890123 -2.045 0 
-0.680418 -2.00108 0 
-0.475023 -2.05867 0 
-0.268984 -1.98421 0 
-0.0602938 -1.99383 0 
0.147393 -1.91397 0 
0.363179 -1.93447 0 
0.576716 -2.01181 0 
0.782987 -2.05798 0 
0.992955 -2.01738 0 
1.2131 -2.04791 0 
1.44031 -2.04042 0 
1.65097 -2.01176 0 
1.86212 -2.03736 0 
2.07178 -2.02512 0 
2.28069 -2.03274 0 
2.4891 -2.02583 0 
2.70201 -2.04175 0 
2.91422 -2.0243 0 
3.12293 -2.03815 0 
3.33673 -2.04715 0 
3.5489 -2.03464 0 
3.76247 -2.05162 0 
3.97387 -2.04327 0 
4.18594 -2.02915 0 
4.39753 -2.03769 0 
4.60743 -2.02234 0 
4.81902 -2.03508 0 
5.03015 -2.0329 0 
5.24016 -2.03402 0 
5.45132 -2.03232 0 
5.66337 -2.03484 0 
5.87454 -2.03731 0 
6.09426 -2.04745 0 
6.30608 -2.03893 0 
6.52563 -2.05086 0 
6.73937 -2.04091 0 
6.95278 -2.02713 0 
7.17114 -2.03715 0 
7.38875 -2.01907 0 
7.61313 -2.02471 0 
7.84256 -2.02735 0 
8.07421 -2.017 0 
8.3037 -2.09247 0 
8.53831 -2.03293 0 
-8.53831 -1.83086 0 
-8.30236 -1.80087 0 
-8.04417 -1.84213 0 
-7.81649 -1.8322 0 
-7.59581 -1.86418 0 
-7.38616 -1.80343 0 
-7.08764 -1.82291 0 
-6.87141 -1.80272 0 
-6.6617 -1.8303 0 
-6.43044 -1.83434 0 
-6.20232 -1.82675 0 
-5.98896 -1.82099 0 
-5.76707 -1.81551 0 
-5.54112 -1.81746 0 
-5.33076 -1.8152 0 
-5.11342 -1.8125 0 
-4.89568 -1.82267 0 
-4.68628 -1.81912 0 
-4.46463 -1.82423 0 
-4.25381 -1.8215 0 
-4.03796 -1.82354 0 
-3.82581 -1.81324 0 
-3.61181 -1.81587 0 
-3.40102 -1.80822 0 
-3.19624 -1.82445 0 
-2.97644 -1.81935 0 
-2.76354 -1.80833 0 
-2.55193 -1.83713 0 
-2.33337 -1.81541 0 
-2.13279 -1.82915 0 
-1.91051 -1.83417 0 
-1.68214 -1.83915 0 
-1.43993 -1.8457 0 
-1.2333 -1.84167 0 
-1.06434 -1.72351 0 
-0.929662 -1.82832 0 
-0.704024 -1.79161 0 
-0.467708 -1.8289 0 
-0.257803 -1.74801 0 
-0.0508197 -1.76286 0 
0.136347 -1.64483 0 
0.327721 -1.70266 0 
0.5632 -1.78533 0 
0.787753 -1.82924 0 
1.02242 -1.80522 0 
1.23952 -1.84259 0 
1.4488 -1.82033 0 
1.65689 -1.78819 0 
1.86414 -1.82157 0 
2.07219 -1.80773 0 
2.28226 -1.81568 0 
2.49294 -1.81042 0 
2.70332 -1.82997 0 
2.91182 -1.80664 0 
3.11915 -1.82181 0 
3.32628 -1.83687 0 
3.53307 -1.81842 0 
3.74228 -1.84079 0 
3.9527 -1.83215 0 
4.16279 -1.82007 0 
4.37951 -1.82506 0 
4.58873 -1.80993 0 
4.80328 -1.82191 0 
5.0145 -1.82 0 
5.22631 -1.81955 0 
5.43598 -1.81914 0 
5.64743 -1.82312 0 
5.86031 -1.8238 0 
6.07191 -1.84445 0 
6.29054 -1.82783 0 
6.50529 -1.84615 0 
6.72503 -1.82915 0 
6.93819 -1.81355 0 
7.15569 -1.82453 0 
7.37794 -1.8083 0 
7.60473 -1.81247 0 
7.83384 -1.81689 0 
8.06684 -1.80732 0 
8.30364 -1.8766 0 
8.53831 -1.8208 0 
-8.53831 -1.61476 0 
-8.3095 -1.58111 0 
[...]
POINT_DATA 2213 
VECTORS vectors float
-3.9952e-05 -0.000667573 1 
0.000229117 -0.0116781 0.999932 
8.14075e-05 -0.0142738 0.999898 
0.000127746 -0.0147362 0.999891 
0.000113257 -0.0140226 0.999902 
0.000116889 -0.0125118 0.999922 
0.000117256 -0.0107886 0.999942 
0.000116982 -0.00907281 0.999959 
0.000116876 -0.00736056 0.999973 
0.000116877 -0.0056209 0.999984 
0.000117038 -0.00384582 0.999993 
0.0001171 -0.00204405 0.999998 
0.00011686 -0.000212213 1 
0.000116806 0.00167613 0.999999 
0.000116997 0.00367578 0.999993 
0.000116312 0.00588002 0.999983 
0.000115907 0.00839801 0.999965 
0.000115428 0.0113551 0.999936 
0.000114048 0.0149167 0.999889 
0.000113106 0.0192641 0.999814 
0.000111342 0.0246306 0.999697 
0.000109246 0.0313023 0.99951 
0.000106684 0.0396268 0.999215 
0.000103278 0.0500435 0.998747 
9.92378e-05 0.0630969 0.998007 
9.38749e-05 0.0794605 0.996838 
8.73988e-05 0.0999672 0.994991 
7.9307e-05 0.125623 0.992078 
6.93269e-05 0.157661 0.987493 
5.65538e-05 0.197536 0.980296 
4.13738e-05 0.246883 0.969045 
2.29858e-05 0.307337 0.951601 
1.72989e-06 0.380484 0.924788 
-2.30649e-05 0.467181 0.884162 
-4.74089e-05 0.566858 0.823816 
-7.04733e-05 0.67602 0.736883 
-8.25043e-05 0.787258 0.616624 
-7.91665e-05 0.888079 0.459691 
-5.52627e-05 0.963435 0.267944 
-9.80992e-06 0.998574 0.0533836 
3.33967e-05 0.986062 -0.16638 
7.32728e-05 0.928964 -0.370171 
7.34566e-05 0.839001 -0.54413 
8.8295e-05 0.731802 -0.681518 
5.88028e-05 0.618361 -0.785895 
2.57473e-05 0.515384 -0.85696 
1.9973e-05 0.421386 -0.906881 
-1.73828e-05 0.341468 -0.939894 
-3.12289e-05 0.27486 -0.961484 
-5.01279e-05 0.220306 -0.975431 
-6.32446e-05 0.176059 -0.98438 
-7.4687e-05 0.140419 -0.990092 
-8.36587e-05 0.111821 -0.993728 
-9.07969e-05 0.0889501 -0.996036 
-9.68468e-05 0.0706688 -0.9975 
-0.000101475 0.0560891 -0.998426 
-0.000105098 0.0444536 -0.999011 
-0.00010818 0.0351549 -0.999382 
-0.000110471 0.027718 -0.999616 
-0.000112257 0.0217455 -0.999764 
-0.000113634 0.0169198 -0.999857 
-0.000114839 0.0129923 -0.999916 
-0.000115574 0.00975028 -0.999952 
-0.000116347 0.00702766 -0.999975 
-0.000116767 0.00468055 -0.999989 
-0.00011702 0.00258808 -0.999997 
-0.000117162 0.000648664 -1 
-0.000117199 -0.00121609 -0.999999 
-0.000117058 -0.00305621 -0.999995 
-0.000117172 -0.00488689 -0.999988 
-0.000117075 -0.00670814 -0.999977 
-0.00011704 -0.00851235 -0.999964 
-0.000116866 -0.0103126 -0.999947 
-0.000116424 -0.0121645 -0.999926 
-0.000116883 -0.0140373 -0.999901 
-0.000111186 -0.0156696 -0.999877 
-0.000128144 -0.0163267 -0.999867 
-0.000106269 -0.0162987 -0.999867 
-9.25769e-05 -0.0142978 -0.999898 
-7.42994e-05 -0.0011203 -0.999999 
-0.000124756 0.000441743 1 
0.00567521 -0.00871844 0.999946 
0.00743965 -0.0126655 0.999892 
0.00809333 -0.0142255 0.999866 
0.00841984 -0.0141179 0.999865 
0.00884146 -0.0130372 0.999876 
0.00889608 -0.011483 0.999894 
0.00901576 -0.00958273 0.999913 
0.00917162 -0.00775754 0.999928 
0.00931615 -0.00597288 0.999939 
0.00935899 -0.00420134 0.999947 
0.00937369 -0.0023889 0.999953 
0.00944574 -0.000534006 0.999955 
0.00948296 0.00135094 0.999954 
0.00942625 0.0033399 0.99995 
0.0094239 0.00556227 0.99994 
0.00936994 0.00804622 0.999924 
0.00926871 0.0109556 0.999897 
0.00919516 0.014495 0.999853 
0.00904192 0.0187102 0.999784 
0.00887497 0.0239977 0.999673 
0.00867384 0.0304746 0.999498 
0.0084107 0.0385661 0.999221 
0.00810499 0.0485773 0.998787 
0.00772124 0.0612068 0.998095 
0.00727037 0.0769948 0.997005 
0.00676731 0.0966179 0.995299 
0.00612564 0.121099 0.992622 
0.00539673 0.151719 0.988409 
0.00456621 0.190068 0.98176 
0.00364681 0.238259 0.971195 
0.00262749 0.296175 0.95513 
0.00157702 0.367634 0.929969 
0.000435974 0.450471 0.892791 
-0.000536459 0.55224 0.833685 
-0.00133366 0.661241 0.750172 
-0.00163938 0.776725 0.629838 
-0.00172441 0.877757 0.479103 
-0.00101515 0.961747 0.273936 
-0.000226235 0.998126 0.0611842 
0.000605524 0.987562 -0.157231 
0.00126701 0.932933 -0.360048 
0.00170458 0.844339 -0.535806 
0.0016546 0.735303 -0.677737 
0.00103488 0.619412 -0.785065 
0.000180295 0.512842 -0.858483 
-0.000835651 0.418348 -0.908287 
-0.00196328 0.339764 -0.940509 
-0.00300193 0.271547 -0.962421 
-0.00400891 0.217072 -0.976147 
-0.00490168 0.173235 -0.984868 
-0.00569897 0.137791 -0.990445 
-0.00636443 0.109397 -0.993978 
-0.0069657 0.0869413 -0.996189 
-0.0074403 0.068658 -0.997613 
-0.00785238 0.0542954 -0.998494 
-0.00822804 0.0428749 -0.999047 
-0.00850181 0.0337142 -0.999395 
-0.00874394 0.026475 -0.999611 
-0.00899561 0.0207176 -0.999745 
-0.00912031 0.0160499 -0.99983 
-0.00926961 0.0122583 -0.999882 
-0.00934334 0.00910538 -0.999915 
-0.00940946 0.00644431 -0.999935 
-0.00945982 0.00414029 -0.999947 
-0.0094986 0.00207778 -0.999953 
-0.00950161 0.000154978 -0.999955 
-0.00949923 -0.0017012 -0.999953 
-0.00946766 -0.00350707 -0.999949 
-0.00942313 -0.00531959 -0.999941 
-0.00937758 -0.007114 -0.999931 
-0.00927573 -0.00890998 -0.999917 
-0.00921355 -0.0107242 -0.9999 
-0.00902626 -0.01255 -0.999881 
-0.00883204 -0.0141747 -0.999861 
-0.00854248 -0.0153506 -0.999846 
-0.00801602 -0.0159382 -0.999841 
-0.00710751 -0.0152325 -0.999859 
-0.00476009 -0.011594 -0.999921 
0.000272867 0.000378781 -1 
0.000284316 -0.000110835 1 
0.00659929 -0.0107341 0.999921 
0.00899146 -0.0138405 0.999864 
0.0100215 -0.0143576 0.999847 
0.0107227 -0.0138039 0.999847 
0.0112989 -0.0127354 0.999855 
0.0113775 -0.0110707 0.999874 
0.0116924 -0.00910004 0.99989 
0.01198 -0.00729618 0.999902 
0.0121563 -0.00554153 0.999911 
0.0121914 -0.00376416 0.999919 
0.0122461 -0.0019638 0.999923 
0.0123593 -0.000145236 0.999924 
0.0123792 0.00176323 0.999922 
0.0122974 0.00382793 0.999917 
0.0123115 0.00609497 0.999906 
0.0122161 0.00868679 0.999888 
0.0120649 0.0117627 0.999858 
0.0119677 0.0154136 0.99981 
0.0117169 0.0199131 0.999733 
0.0114952 0.0254122 0.999611 
0.0111961 0.032226 0.999418 
0.0108373 0.0405865 0.999117 
0.0103889 0.0511041 0.998639 
0.00986487 0.0643951 0.997876 
0.00931272 0.0804245 0.996717 
0.00861516 0.101119 0.994837 
0.00785959 0.1262 0.991974 
0.00696782 0.158065 0.987404 
0.00600269 0.19813 0.980157 
0.00505388 0.246869 0.969036 
0.00397423 0.307039 0.951689 
0.00301621 0.377949 0.925822 
0.00176802 0.467727 0.883871 
0.00105841 0.567952 0.823061 
0.000321309 0.679849 0.733352 
0.00017301 0.790327 0.612685 
-0.000331244 0.896431 0.443183 
-7.47961e-06 0.970245 0.242124 
-4.15874e-05 0.999727 0.0233736 
-0.000169589 0.981963 -0.189075 
-7.39324e-05 0.927634 -0.37349 
6.00163e-05 0.834548 -0.550936 
-4.90628e-05 0.721957 -0.691938 
-0.000934385 0.614386 -0.789005 
-0.00142132 0.516691 -0.856171 
-0.00229582 0.425043 -0.90517 
-0.00344218 0.344318 -0.938847 
-0.00438242 0.27878 -0.960345 
-0.00545617 0.222892 -0.974828 
-0.00645797 0.178793 -0.983865 
-0.00733818 0.143438 -0.989632 
-0.00817213 0.114163 -0.993428 
-0.00891833 0.0912421 -0.995789 
-0.00951029 0.0726356 -0.997313 
-0.0101054 0.0575083 -0.998294 
-0.0105838 0.045703 -0.998899 
-0.0109718 0.0360406 -0.99929 
-0.0113413 0.0283543 -0.999534 
-0.0116505 0.0223147 -0.999683 
-0.0118784 0.0173328 -0.999779 
-0.012067 0.0133633 -0.999838 
-0.012196 0.0100219 -0.999875 
-0.0122952 0.00722344 -0.999898 
-0.0123735 0.00480618 -0.999912 
-0.0124272 0.00266441 -0.999919 
-0.0124339 0.000689347 -0.999922 
-0.0123975 -0.00118512 -0.999922 
-0.0123844 -0.00301919 -0.999919 
-0.0122732 -0.00480344 -0.999913 
-0.0121945 -0.00661869 -0.999904 
-0.012056 -0.00843972 -0.999892 
-0.0118745 -0.0102675 -0.999877 
-0.0115901 -0.0121502 -0.999859 
-0.0112103 -0.0137379 -0.999843 
-0.0106552 -0.0148516 -0.999833 
-0.00986582 -0.0156652 -0.999829 
-0.00859647 -0.0153213 -0.999846 
-0.00577018 -0.0118306 -0.999913 
-0.000480832 1.27721e-05 -1 
-0.000126405 0.000296491 1 
0.00665764 -0.0114791 0.999912 
0.00897969 -0.0144916 0.999855 
0.0102322 -0.0145019 0.999842 
0.0109867 -0.013782 0.999845 
0.0115939 -0.0127905 0.999851 
0.0120921 -0.0111393 0.999865 
0.0123099 -0.00925727 0.999881 
0.0124459 -0.0074319 0.999895 
0.0125505 -0.00563647 0.999905 
0.0126678 -0.00388084 0.999912 
0.012744 -0.00209666 0.999917 
0.0127748 -0.000264423 0.999918 
0.0127955 0.00165294 0.999917 
0.0127945 0.00372582 0.999911 
0.012747 0.00599851 0.999901 
0.0126646 0.00860189 0.999883 
0.0125475 0.011657 0.999853 
0.0123669 0.0153324 0.999806 
0.0121573 0.0197869 0.99973 
0.0118706 0.025312 0.999609 
0.0115425 0.0320893 0.999418 
0.011137 0.0405103 0.999117 
0.0107136 0.0507494 0.998654 
0.0101949 0.0637724 0.997912 
0.00958511 0.0803592 0.99672 
0.00898069 0.099732 0.994974 
0.0082541 0.125808 0.99202 
0.00754349 0.156073 0.987717 
0.00675768 0.195146 0.980751 
0.00602579 0.243946 0.96977 
0.00527108 0.303154 0.952927 
0.00471995 0.374255 0.927314 
0.00384826 0.460357 0.887725 
0.00358834 0.561587 0.82741 
0.00311002 0.671684 0.740831 
0.00299289 0.787273 0.616597 
0.00181228 0.892668 0.45071 
0.00148953 0.967006 0.254749 
0.000163348 0.999416 0.0341743 
-0.00144787 0.984642 -0.174582 
-0.00262313 0.928472 -0.371393 
-0.00252792 0.845084 -0.534628 
-0.00277971 0.732287 -0.68099 
-0.00359635 0.615156 -0.788397 
-0.00388556 0.504328 -0.863503 
-0.00427271 0.414902 -0.909856 
-0.00504145 0.339355 -0.940645 
-0.00548272 0.278049 -0.960551 
-0.00626693 0.226374 -0.97402 
-0.00697794 0.182756 -0.983133 
-0.0077309 0.146472 -0.989185 
-0.00844898 0.117713 -0.993012 
-0.00914578 0.0936596 -0.995562 
-0.00978532 0.0749818 -0.997137 
-0.0103734 0.0598604 -0.998153 
-0.0108769 0.0474093 -0.998816 
-0.0113311 0.0377204 -0.999224 
-0.0117118 0.0297249 -0.99949 
-0.0120073 0.0233784 -0.999655 
-0.0122671 0.0183067 -0.999757 
-0.0124669 0.0140907 -0.999823 
-0.0126421 0.0106944 -0.999863 
-0.0127729 0.00777398 -0.999888 
-0.0128628 0.00528471 -0.999903 
-0.012912 0.00307576 -0.999912 
-0.012931 0.00105602 -0.999916 
-0.0129193 -0.000847572 -0.999916 
-0.0128773 -0.00266611 -0.999914 
-0.0127914 -0.0044954 -0.999908 
-0.0126798 -0.00626398 -0.9999 
-0.0124941 -0.00812698 -0.999889 
-0.0122233 -0.0100001 -0.999875 
-0.0119079 -0.0118857 -0.999858 
-0.0114033 -0.0135303 -0.999843 
-0.0107556 -0.0145608 -0.999836 
-0.00986499 -0.0154136 -0.999833 
-0.00858764 -0.0154125 -0.999844 
-0.00643859 -0.0120744 -0.999906 
-0.000132041 7.67412e-05 -1 
0.00412224 -0.00967904 0.999945 
0.00719842 -0.0133815 0.999885 
0.00886659 -0.0149578 0.999849 
0.0098351 -0.0142759 0.99985 
0.0106558 -0.0135529 0.999851 
0.0109429 -0.0125403 0.999861 
0.0115629 -0.011309 0.999869 
0.0116067 -0.00974905 0.999885 
0.0118526 -0.00799916 0.999898 
0.0120059 -0.00618924 0.999909 
0.0121498 -0.00433653 0.999917 
0.0122663 -0.00255106 0.999922 
0.0123072 -0.000731923 0.999924 
0.0123399 0.00123349 0.999923 
0.0123685 0.00334677 0.999918 
0.0123098 0.00561714 0.999908 
0.012243 0.00820405 0.999891 
0.0121382 0.0112614 0.999863 
0.0119504 0.0148483 0.999818 
0.0117493 0.019325 0.999744 
0.0114738 0.0246999 0.999629 
0.0111398 0.0314905 0.999442 
0.0107594 0.039722 0.999153 
0.0103258 0.0501333 0.998689 
0.00989329 0.0625205 0.997995 
0.00934585 0.0785256 0.996868 
0.00878108 0.0990133 0.995047 
0.00825259 0.122578 0.992425 
0.00766703 0.155178 0.987857 
0.00716766 0.191768 0.981414 
0.00675639 0.238552 0.971106 
0.00645591 0.298419 0.954413 
0.00635852 0.375401 0.926841 
0.00609161 0.464835 0.885376 
0.00649933 0.566509 0.82403 
0.00633112 0.679987 0.733197 
0.00663628 0.788345 0.615198 
0.00467661 0.88692 0.4619 
0.00369137 0.961175 0.275915 
0.000775518 0.998071 0.0620794 
-0.00254476 0.987652 -0.156644 
-0.00534054 0.929701 -0.368278 
-0.00600998 0.838661 -0.54462 
-0.00600761 0.734165 -0.678945 
-0.00683274 0.624169 -0.781259 
-0.00629761 0.516947 -0.855994 
-0.00628894 0.417406 -0.908698 
-0.00651363 0.339729 -0.940501 
-0.00652068 0.274932 -0.961442 
-0.00687563 0.221434 -0.975151 
-0.00731592 0.178698 -0.983877 
-0.00780804 0.143266 -0.989653 
-0.00840726 0.114688 -0.993366 
-0.00892807 0.091319 -0.995782 
-0.00951556 0.0731751 -0.997274 
-0.0100805 0.0582656 -0.99825 
-0.0104905 0.0462122 -0.998877 
-0.0109772 0.0366227 -0.999269 
-0.0113236 0.0289903 -0.999516 
-0.0115989 0.0228149 -0.999672 
-0.0118773 0.0177983 -0.999771 
-0.0120471 0.0137454 -0.999833 
-0.0122439 0.0103399 -0.999872 
-0.0123628 0.00748449 -0.999896 
-0.0124497 0.00502858 -0.99991 
-0.0124931 0.00283092 -0.999918 
-0.0125089 0.000808184 -0.999921 
-0.0124866 -0.00107798 -0.999921 
-0.0124445 -0.00294171 -0.999918 
-0.0123134 -0.00468703 -0.999913 
-0.0121967 -0.00649984 -0.999904 
-0.0119739 -0.00830651 -0.999894 
-0.0116275 -0.0101388 -0.999881 
-0.011322 -0.012086 -0.999863 
-0.0107249 -0.0136221 -0.99985 
-0.0100281 -0.0145956 -0.999843 
-0.00906818 -0.0153755 -0.999841 
-0.00780148 -0.0152636 -0.999853 
-0.00605925 -0.01202 -0.999909 
-0.000175096 6.10592e-05 -1 
-0.000109275 0.000243448 1 
0.00540305 -0.0117226 0.999917 
0.00768547 -0.0150236 0.999858 
0.00875276 -0.0148205 0.999852 
0.0097404 -0.0141288 0.999853 
0.010123 -0.0133052 0.99986 
0.0107742 -0.0110742 0.999881 
0.0109945 -0.00918847 0.999897 
0.0113111 -0.00741708 0.999909 
0.0115076 -0.00554507 0.999918 
0.011626 -0.00371707 0.999926 
0.0117018 -0.00197443 0.99993 
0.0117485 -6.43715e-05 0.999931 
0.0117916 0.00202973 0.999928 
0.0117712 0.00415475 0.999922 
0.0117067 0.00659832 0.99991 
0.0116523 0.00940386 0.999888 
0.0115026 0.012586 0.999855 
0.0113322 0.0166305 0.999797 
0.0110952 0.0213389 0.999711 
0.0108212 0.0272639 0.99957 
0.0104613 0.0344932 0.99935 
0.0101012 0.0435369 0.999001 
0.00967602 0.0546359 0.998459 
0.00930229 0.0679874 0.997643 
0.0088215 0.0858656 0.996268 
0.00836348 0.107519 0.994168 
0.00799511 0.134313 0.990907 
0.00766494 0.168668 0.985643 
0.0074818 0.207688 0.978167 
0.00745878 0.260761 0.965375 
0.00768941 0.328255 0.944558 
0.00819 0.416033 0.909313 
0.00888544 0.504772 0.863207 
0.0111661 0.582903 0.812465 
0.00982895 0.654899 0.755653 
0.0103474 0.773105 0.634194 
0.00803197 0.887949 0.459872 
0.00598755 0.963233 0.268602 
0.00116849 0.9986 0.0528864 
-0.00415925 0.988923 -0.14837 
-0.00798272 0.940363 -0.34008 
-0.00963936 0.842123 -0.5392 
-0.00981464 0.727539 -0.685996 
-0.00999966 0.605532 -0.795758 
-0.00881559 0.500824 -0.865504 
-0.00834472 0.411245 -0.911486 
-0.00800314 0.335283 -0.942084 
-0.00750503 0.272757 -0.962054 
-0.00746459 0.220518 -0.975354 
-0.00757814 0.177582 -0.984077 
-0.00784908 0.142557 -0.989755 
-0.00825609 0.114393 -0.993401 
-0.00864256 0.0917717 -0.995743 
-0.00912949 0.0736881 -0.99724 
-0.00962344 0.0590997 -0.998206 
-0.00998564 0.0473494 -0.998828 
-0.0104722 0.0377807 -0.999231 
-0.0107757 0.0299441 -0.999493 
-0.0110276 0.0236466 -0.99966 
-0.0113017 0.0183795 -0.999767 
-0.0114509 0.014234 -0.999833 
-0.0116639 0.0106984 -0.999875 
-0.0117836 0.00777424 -0.9999 
-0.0118705 0.00524255 -0.999916 
-0.01192 0.0030136 -0.999924 
-0.0119457 0.000957134 -0.999928 
-0.0119175 -0.000973221 -0.999929 
-0.0119243 -0.00278079 -0.999925 
-0.0117375 -0.00458176 -0.999921 
-0.0116515 -0.00634468 -0.999912 
-0.0113487 -0.00817956 -0.999902 
-0.0110313 -0.0100552 -0.999889 
-0.0107281 -0.0120015 -0.99987 
-0.010164 -0.0136588 -0.999855 
-0.00947188 -0.0146279 -0.999848 
-0.00851885 -0.0153348 -0.999846 
-0.00729732 -0.0152754 -0.999857 
-0.00562521 -0.0119479 -0.999913 
-0.000179561 6.80926e-05 -1 
0.00023875 -2.21017e-05 1 
0.00484877 -0.0116489 0.99992 
0.00684336 -0.0149686 0.999865 
0.00782031 -0.0150164 0.999857 
0.00877581 -0.0143654 0.999858 
0.00897829 -0.0135799 0.999867 
0.0098745 -0.0120589 0.999879 
0.00976992 -0.00996562 0.999903 
0.0100392 -0.00803071 0.999917 
0.010441 -0.00629054 0.999926 
0.0105678 -0.00446726 0.999934 
0.0105363 -0.00267579 0.999941 
0.0106507 -0.000851575 0.999943 
0.0107264 0.00120894 0.999942 
0.0106159 0.00336209 0.999938 
0.0106214 0.00566472 0.999928 
0.0105823 0.00840264 0.999909 
0.010424 0.0114354 0.99988 
0.0103646 0.0151221 0.999832 
0.0100938 0.0196082 0.999757 
0.00989018 0.0250169 0.999638 
0.00956594 0.0316445 0.999453 
0.00924222 0.0400424 0.999155 
0.0088823 0.0501637 0.998702 
0.00853087 0.0630085 0.997977 
0.00830057 0.0782388 0.9969 
0.00790764 0.0983362 0.995122 
0.0077046 0.124653 0.99217 
0.00758847 0.154175 0.988014 
0.00764719 0.193956 0.98098 
0.00795546 0.239183 0.970942 
0.00859901 0.300723 0.953673 
0.00957458 0.380112 0.924891 
0.0114179 0.469916 0.882637 
0.0146379 0.60041 0.799558 
0.0146714 0.728182 0.685227 
0.0183396 0.826938 0.561994 
0.0126624 0.860511 0.509275 
0.0103027 0.948685 0.316056 
0.00283527 0.996779 0.0801469 
-0.00434739 0.995998 -0.0892708 
-0.0118381 0.95454 -0.297848 
-0.0136617 0.873654 -0.486355 
-0.0141527 0.754122 -0.656581 
-0.0135667 0.633762 -0.773409 
-0.0117664 0.50546 -0.86277 
-0.0105116 0.414378 -0.910044 
-0.00946028 0.337583 -0.941248 
-0.00833867 0.273889 -0.961725 
-0.00781638 0.220735 -0.975302 
-0.00754523 0.176401 -0.984289 
-0.00754202 0.142348 -0.989788 
-0.00775635 0.114522 -0.99339 
-0.00797066 0.0914907 -0.995774 
-0.0083424 0.0729334 -0.997302 
-0.00876522 0.0586058 -0.998243 
-0.00900341 0.0470534 -0.998852 
-0.00949195 0.037784 -0.999241 
-0.00974744 0.030054 -0.999501 
-0.0100191 0.0234412 -0.999675 
-0.0102037 0.0184276 -0.999778 
-0.0103621 0.014076 -0.999847 
-0.010548 0.0106093 -0.999888 
-0.0106612 0.00765665 -0.999914 
-0.0107164 0.00513909 -0.999929 
-0.0107803 0.00286785 -0.999938 
-0.0108168 0.000776473 -0.999941 
-0.0108039 -0.00118267 -0.999941 
-0.0108682 -0.00299236 -0.999936 
-0.0106259 -0.00477867 -0.999932 
-0.0106099 -0.00657259 -0.999922 
-0.0102121 -0.00835749 -0.999913 
-0.00987149 -0.010254 -0.999899 
-0.00964462 -0.0121412 -0.99988 
-0.0090912 -0.0137544 -0.999864 
-0.00857547 -0.0146956 -0.999855 
-0.00772483 -0.0153803 -0.999852 
-0.00660004 -0.0153382 -0.999861 
-0.00513414 -0.0119844 -0.999915 
-0.000152534 6.54281e-05 -1 
9.82867e-05 0.000117263 1 
0.00411911 -0.0117721 0.999922 
0.00588421 -0.0150212 0.99987 
0.00658084 -0.0153173 0.999861 
0.00737241 -0.0145571 0.999867 
0.00770146 -0.0135512 0.999879 
0.00855838 -0.0117814 0.999894 
0.00835166 -0.00963737 0.999919 
0.00857265 -0.00774168 0.999933 
0.00908082 -0.0059303 0.999941 
0.00911287 -0.00413016 0.99995 
0.0090425 -0.00227721 0.999957 
0.00926941 -0.000295173 0.999957 
0.00922877 0.00175828 0.999956 
0.00909734 0.00402093 0.999951 
0.00919004 0.00655361 0.999936 
0.00903683 0.00934147 0.999916 
0.00896659 0.012745 0.999879 
0.00885978 0.0166293 0.999822 
0.00860699 0.0215407 0.999731 
0.00839108 0.0272916 0.999592 
0.00814063 0.0346759 0.999365 
0.00781586 0.043581 0.999019 
0.00755991 0.0547842 0.99847 
0.00729397 0.0686687 0.997613 
0.00719432 0.0851642 0.996341 
0.0070631 0.109075 0.994008 
0.00700708 0.13565 0.990732 
0.00724865 0.168615 0.985655 
0.00780259 0.212943 0.977033 
0.0086889 0.263519 0.964615 
0.0100221 0.30934 0.950899 
0.0106463 0.355845 0.934484 
0.0130469 0.437334 0.899204 
0.0160815 0.539647 0.841738 
0.0196943 0.700922 0.712966 
0.0257217 0.789591 0.613094 
0.0180517 0.916044 0.400671 
0.0251908 0.985042 0.170464 
8.34008e-05 0.999982 0.00591608 
-0.0130276 0.99398 -0.108782 
-0.0164239 0.96938 -0.245014 
-0.0204669 0.890207 -0.455097 
-0.0195012 0.788181 -0.615134 
-0.0183251 0.658874 -0.75203 
-0.0149445 0.533666 -0.845564 
-0.012806 0.421119 -0.906915 
-0.0106101 0.337238 -0.94136 
-0.00881284 0.267448 -0.963532 
-0.00779928 0.214343 -0.976727 
-0.00722488 0.173195 -0.984861 
-0.00697051 0.139101 -0.990254 
-0.00700197 0.111901 -0.993695 
-0.00698081 0.090475 -0.995874 
-0.00727887 0.0732674 -0.997286 
-0.00756615 0.0583498 -0.998268 
-0.00778308 0.046355 -0.998895 
-0.0081834 0.0367138 -0.999292 
-0.00851935 0.028765 -0.99955 
-0.00860337 0.0227779 -0.999704 
-0.00886811 0.0176184 -0.999805 
-0.00892588 0.0134721 -0.999869 
-0.0091039 0.0100686 -0.999908 
-0.00915855 0.00722721 -0.999932 
-0.00922971 0.0047157 -0.999946 
-0.00928165 0.00247262 -0.999954 
-0.00933221 0.000402847 -0.999956 
-0.00927898 -0.00148942 -0.999956 
-0.00941181 -0.00325681 -0.99995 
-0.00903615 -0.00488108 -0.999947 