# vtk DataFile Version 3.0 
Exported using Morpho https://github.com/Morpho-lang/morpho 
ASCII 
DATASET UNSTRUCTURED_GRID 

POINTS 2222 float 
-8.32618 -2.88146 0 
-8.11405 -2.88146 0 
-7.90192 -2.88146 0 
-7.68979 -2.88146 0 
-7.47765 -2.88146 0 
-7.26552 -2.88146 0 
-7.05339 -2.88146 0 
-6.84126 -2.88146 0 
-6.62913 -2.88146 0 
-6.41699 -2.88146 0 
-6.20486 -2.88146 0 
-5.99273 -2.88146 0 
-5.7806 -2.88146 0 
-5.56847 -2.88146 0 
-5.35633 -2.88146 0 
-5.1442 -2.88146 0 
-4.93207 -2.88146 0 
-4.71994 -2.88146 0 
-4.50781 -2.88146 0 
-4.29567 -2.88146 0 
-4.08354 -2.88146 0 
-3.87141 -2.88146 0 
-3.65928 -2.88146 0 
-3.44715 -2.88146 0 
-3.23501 -2.88146 0 
-3.02288 -2.88146 0 
-2.81075 -2.88146 0 
-2.59862 -2.88146 0 
-2.38649 -2.88146 0 
-2.17435 -2.88146 0 
-1.96222 -2.88146 0 
-1.75009 -2.88146 0 
-1.53796 -2.88146 0 
-1.32583 -2.88146 0 
-1.11369 -2.88146 0 
-0.901561 -2.88146 0 
-0.689429 -2.88146 0 
-0.477297 -2.88146 0 
-0.265165 -2.88146 0 
-0.053033 -2.88146 0 
0.159099 -2.88146 0 
0.371231 -2.88146 0 
0.583363 -2.88146 0 
0.795495 -2.88146 0 
1.00763 -2.88146 0 
1.21976 -2.88146 0 
1.43189 -2.88146 0 
1.64402 -2.88146 0 
1.85616 -2.88146 0 
2.06829 -2.88146 0 
2.28042 -2.88146 0 
2.49255 -2.88146 0 
2.70468 -2.88146 0 
2.91682 -2.88146 0 
3.12895 -2.88146 0 
3.34108 -2.88146 0 
3.55321 -2.88146 0 
3.76534 -2.88146 0 
3.97748 -2.88146 0 
4.18961 -2.88146 0 
4.40174 -2.88146 0 
4.61387 -2.88146 0 
4.826 -2.88146 0 
5.03814 -2.88146 0 
5.25027 -2.88146 0 
5.4624 -2.88146 0 
5.67453 -2.88146 0 
5.88666 -2.88146 0 
6.0988 -2.88146 0 
6.31093 -2.88146 0 
6.52306 -2.88146 0 
6.73519 -2.88146 0 
6.94732 -2.88146 0 
7.15946 -2.88146 0 
7.37159 -2.88146 0 
7.58372 -2.88146 0 
7.79585 -2.88146 0 
8.00798 -2.88146 0 
8.22012 -2.88146 0 
8.53831 -2.88146 0 
-8.53831 -2.74106 0 
-8.31153 -2.65291 0 
-8.08106 -2.65572 0 
-7.84658 -2.66351 0 
-7.61406 -2.67394 0 
-7.37976 -2.6685 0 
-7.15295 -2.67208 0 
-6.92073 -2.67145 0 
-6.69115 -2.66821 0 
-6.4743 -2.66647 0 
-6.25341 -2.66567 0 
-6.03647 -2.66777 0 
-5.81901 -2.66785 0 
-5.60388 -2.66969 0 
-5.38727 -2.66917 0 
-5.17499 -2.67286 0 
-4.96063 -2.67211 0 
-4.74554 -2.67032 0 
-4.53336 -2.66969 0 
-4.32014 -2.66827 0 
-4.10863 -2.66905 0 
-3.89554 -2.66864 0 
-3.68302 -2.66898 0 
-3.47022 -2.67023 0 
-3.25619 -2.66866 0 
-3.04463 -2.67241 0 
-2.82942 -2.66981 0 
-2.61713 -2.6697 0 
-2.4054 -2.67127 0 
-2.19159 -2.66938 0 
-1.98058 -2.67265 0 
-1.76503 -2.67156 0 
-1.54909 -2.66836 0 
-1.33866 -2.67442 0 
-1.11971 -2.66952 0 
-0.903427 -2.67363 0 
-0.685264 -2.67594 0 
-0.470195 -2.66977 0 
-0.256848 -2.66382 0 
-0.0435761 -2.66043 0 
0.182191 -2.67368 0 
0.387628 -2.65953 0 
0.607771 -2.67298 0 
0.82999 -2.67897 0 
1.04496 -2.6767 0 
1.26235 -2.67694 0 
1.47973 -2.67374 0 
1.68945 -2.66761 0 
1.90455 -2.67203 0 
2.11727 -2.66955 0 
2.33138 -2.6703 0 
2.54311 -2.6693 0 
2.75698 -2.67153 0 
2.96983 -2.66984 0 
3.18042 -2.66811 0 
3.3955 -2.67138 0 
3.60645 -2.66857 0 
3.81907 -2.67032 0 
4.03114 -2.67035 0 
4.24247 -2.67019 0 
4.45384 -2.67078 0 
4.66559 -2.67129 0 
4.87898 -2.67175 0 
5.08833 -2.66913 0 
5.29946 -2.67072 0 
5.51486 -2.67404 0 
5.72398 -2.66934 0 
5.93281 -2.66779 0 
6.14632 -2.67275 0 
6.3558 -2.66866 0 
6.57093 -2.67409 0 
6.78179 -2.6691 0 
6.99569 -2.67026 0 
7.20942 -2.66713 0 
7.42354 -2.66307 0 
7.63777 -2.65947 0 
7.85427 -2.65729 0 
8.06904 -2.64559 0 
8.31462 -2.72204 0 
8.53831 -2.66933 0 
-8.53831 -2.503 0 
-8.30886 -2.43398 0 
-8.06362 -2.44679 0 
-7.82701 -2.45421 0 
-7.58932 -2.47298 0 
-7.35884 -2.45761 0 
-7.12016 -2.47234 0 
-6.87866 -2.47103 0 
-6.66624 -2.44836 0 
-6.44266 -2.45643 0 
-6.22362 -2.45155 0 
-6.00544 -2.45651 0 
-5.78987 -2.45506 0 
-5.57128 -2.46133 0 
-5.35813 -2.45694 0 
-5.14734 -2.46329 0 
-4.93194 -2.46418 0 
-4.72205 -2.45743 0 
-4.50992 -2.45814 0 
-4.29982 -2.45403 0 
-4.08755 -2.45699 0 
-3.87552 -2.45577 0 
-3.66262 -2.45695 0 
-3.44913 -2.45965 0 
-3.23645 -2.45603 0 
-3.02294 -2.4641 0 
-2.81125 -2.4576 0 
-2.60103 -2.45705 0 
-2.38919 -2.46103 0 
-2.17996 -2.45551 0 
-1.96623 -2.46431 0 
-1.75047 -2.46287 0 
-1.54153 -2.45254 0 
-1.32486 -2.46886 0 
-1.1135 -2.45368 0 
-0.901437 -2.46838 0 
-0.687943 -2.46693 0 
-0.47574 -2.45416 0 
-0.262486 -2.44426 0 
-0.0664787 -2.42092 0 
0.136521 -2.46816 0 
0.351781 -2.43239 0 
0.561274 -2.46279 0 
0.779572 -2.4778 0 
0.998101 -2.46915 0 
1.21064 -2.47329 0 
1.42796 -2.47092 0 
1.64431 -2.45172 0 
1.854 -2.46147 0 
2.06444 -2.45738 0 
2.27651 -2.45973 0 
2.48816 -2.45562 0 
2.69855 -2.4608 0 
2.90942 -2.45922 0 
3.12022 -2.45348 0 
3.33223 -2.46261 0 
3.54473 -2.45519 0 
3.75611 -2.45858 0 
3.96763 -2.45876 0 
4.17877 -2.45793 0 
4.38961 -2.45882 0 
4.60059 -2.46047 0 
4.81387 -2.46421 0 
5.02705 -2.45583 0 
5.23774 -2.45921 0 
5.45294 -2.46951 0 
5.66763 -2.45706 0 
5.87723 -2.45403 0 
6.09109 -2.46422 0 
6.30321 -2.4569 0 
6.51993 -2.46804 0 
6.73533 -2.45872 0 
6.95242 -2.46129 0 
7.17047 -2.45641 0 
7.39048 -2.44941 0 
7.61279 -2.44133 0 
7.83519 -2.43911 0 
8.06002 -2.42331 0 
8.29362 -2.5078 0 
8.53831 -2.4572 0 
-8.53831 -2.27399 0 
-8.28251 -2.23378 0 
-8.04262 -2.23759 0 
-7.80155 -2.24993 0 
-7.57485 -2.26356 0 
-7.32522 -2.26049 0 
-7.07625 -2.28171 0 
-6.86858 -2.24419 0 
-6.63949 -2.23998 0 
-6.41954 -2.24328 0 
-6.198 -2.23987 0 
-5.98256 -2.24334 0 
-5.75994 -2.24895 0 
-5.54629 -2.24914 0 
-5.33661 -2.24274 0 
-5.1223 -2.25662 0 
-4.91486 -2.24928 0 
-4.70313 -2.24573 0 
-4.49506 -2.24303 0 
-4.2835 -2.24144 0 
-4.0732 -2.24367 0 
-3.86109 -2.24363 0 
-3.64899 -2.24525 0 
-3.43713 -2.24797 0 
-3.22462 -2.2449 0 
-3.01584 -2.2517 0 
-2.81085 -2.23894 0 
-2.60595 -2.24283 0 
-2.39776 -2.24845 0 
-2.18886 -2.2407 0 
-1.97943 -2.25295 0 
-1.76785 -2.25473 0 
-1.55169 -2.23585 0 
-1.34015 -2.25791 0 
-1.12626 -2.23896 0 
-0.910036 -2.25838 0 
-0.691811 -2.25408 0 
-0.472845 -2.23806 0 
-0.269003 -2.20715 0 
-0.05635 -2.19295 0 
0.153058 -2.24622 0 
0.368731 -2.20858 0 
0.579594 -2.24585 0 
0.792031 -2.27194 0 
1.00502 -2.25703 0 
1.22447 -2.26859 0 
1.4427 -2.26403 0 
1.64469 -2.2278 0 
1.84967 -2.24739 0 
2.05876 -2.24089 0 
2.26782 -2.24866 0 
2.48164 -2.2442 0 
2.69574 -2.24794 0 
2.90622 -2.24678 0 
3.11958 -2.24149 0 
3.33162 -2.25185 0 
3.54552 -2.2446 0 
3.75946 -2.24639 0 
3.97016 -2.24605 0 
4.17979 -2.24414 0 
4.39033 -2.24587 0 
4.60061 -2.24789 0 
4.81104 -2.25512 0 
5.02085 -2.24222 0 
5.23115 -2.2466 0 
5.44239 -2.26317 0 
5.65308 -2.24526 0 
5.86323 -2.24023 0 
6.07421 -2.25595 0 
6.28776 -2.24598 0 
6.50217 -2.26262 0 
6.71919 -2.25037 0 
6.93607 -2.25372 0 
7.15423 -2.24733 0 
7.37327 -2.23928 0 
7.59706 -2.22976 0 
7.82558 -2.22293 0 
8.06035 -2.21334 0 
8.29867 -2.29456 0 
8.53831 -2.24506 0 
-8.42542 -2.05315 0 
-8.18239 -2.02608 0 
-7.94394 -2.03584 0 
-7.72088 -2.03327 0 
-7.49364 -2.06979 0 
-7.32332 -1.98073 0 
-7.14789 -2.08752 0 
-6.92695 -2.023 0 
-6.70761 -2.03538 0 
-6.47723 -2.0288 0 
-6.25689 -2.03145 0 
-6.0322 -2.0279 0 
-5.81396 -2.04445 0 
-5.5899 -2.03778 0 
-5.37606 -2.02864 0 
-5.16118 -2.04576 0 
-4.95068 -2.03548 0 
-4.73962 -2.03627 0 
-4.52508 -2.02855 0 
-4.31403 -2.03051 0 
-4.09873 -2.03012 0 
-3.8863 -2.03243 0 
-3.67138 -2.03344 0 
-3.45705 -2.03622 0 
-3.24424 -2.03463 0 
-3.02873 -2.03592 0 
-2.81894 -2.02555 0 
-2.60865 -2.02593 0 
-2.40047 -2.03366 0 
-2.18982 -2.02778 0 
-1.97707 -2.03912 0 
-1.76154 -2.04453 0 
-1.54588 -2.0232 0 
-1.32895 -2.04344 0 
-1.11132 -2.02377 0 
-0.893407 -2.04829 0 
-0.672483 -2.0423 0 
-0.460619 -2.00716 0 
-0.24364 -1.97771 0 
-0.0338753 -1.95588 0 
0.170817 -2.02217 0 
0.374133 -1.96347 0 
0.571522 -2.02149 0 
0.786254 -2.0556 0 
1.00641 -2.04717 0 
1.22701 -2.06152 0 
1.42782 -2.04078 0 
1.6537 -2.01872 0 
1.86823 -2.02901 0 
2.07826 -2.02429 0 
2.28968 -2.03733 0 
2.50595 -2.0352 0 
2.7141 -2.03357 0 
2.92695 -2.03625 0 
3.14082 -2.02999 0 
3.35159 -2.0413 0 
3.56713 -2.03456 0 
3.77674 -2.0324 0 
3.98474 -2.03071 0 
4.19582 -2.0309 0 
4.40521 -2.0318 0 
4.61579 -2.03487 0 
4.824 -2.04094 0 
5.02972 -2.02264 0 
5.23376 -2.03364 0 
5.44445 -2.05253 0 
5.6545 -2.03187 0 
5.87302 -2.03343 0 
6.08762 -2.0465 0 
6.2995 -2.03334 0 
6.50924 -2.0561 0 
6.72016 -2.03748 0 
6.93328 -2.04589 0 
7.14955 -2.03686 0 
7.36742 -2.02677 0 
7.58901 -2.01968 0 
7.81916 -2.01336 0 
8.05894 -2.0053 0 
8.29881 -2.08125 0 
8.53831 -2.03293 0 
-8.53831 -1.83232 0 
-8.30814 -1.83303 0 
-8.05607 -1.82863 0 
-7.824 -1.81518 0 
-7.58614 -1.84067 0 
-7.35263 -1.78002 0 
-7.10356 -1.85361 0 
-6.87439 -1.80493 0 
-6.65795 -1.82541 0 
-6.44177 -1.81256 0 
-6.22278 -1.82175 0 
-6.00637 -1.81566 0 
-5.78816 -1.83911 0 
-5.57706 -1.82302 0 
-5.37587 -1.80342 0 
-5.17482 -1.83332 0 
-4.96613 -1.82074 0 
-4.758 -1.82304 0 
-4.54802 -1.8199 0 
-4.3325 -1.81671 0 
-4.12127 -1.82116 0 
-3.9048 -1.81964 0 
-3.69228 -1.82341 0 
-3.4763 -1.82572 0 
-3.26208 -1.82267 0 
-3.0485 -1.82841 0 
-2.83314 -1.81166 0 
-2.6227 -1.8125 0 
-2.41199 -1.81884 0 
-2.20176 -1.81352 0 
-1.98994 -1.82669 0 
-1.77428 -1.83299 0 
-1.55737 -1.80948 0 
-1.33755 -1.83019 0 
-1.11573 -1.80839 0 
-0.894384 -1.83566 0 
-0.676216 -1.82278 0 
-0.454658 -1.78482 0 
-0.244113 -1.74016 0 
-0.0370624 -1.71027 0 
0.168346 -1.78257 0 
0.386756 -1.73273 0 
0.603121 -1.78346 0 
0.800251 -1.83929 0 
0.981714 -1.7943 0 
1.17579 -1.84839 0 
1.38542 -1.81354 0 
1.59054 -1.82751 0 
1.83307 -1.81151 0 
2.04213 -1.81031 0 
2.25956 -1.8224 0 
2.47131 -1.82993 0 
2.69057 -1.81783 0 
2.89982 -1.82618 0 
3.11388 -1.82233 0 
3.33349 -1.82679 0 
3.54192 -1.8286 0 
3.76167 -1.81783 0 
3.97168 -1.81422 0 
4.18005 -1.81847 0 
4.39296 -1.81678 0 
4.60299 -1.82142 0 
4.81479 -1.82457 0 
5.02507 -1.80726 0 
5.23269 -1.81395 0 
5.43796 -1.84085 0 
5.66224 -1.82919 0 
5.87248 -1.82029 0 
6.08327 -1.8375 0 
6.29582 -1.82147 0 
6.5078 -1.84379 0 
6.71847 -1.82291 0 
6.92957 -1.83441 0 
7.14328 -1.82342 0 
7.36184 -1.81347 0 
7.59061 -1.81029 0 
7.82717 -1.80773 0 
8.06443 -1.79489 0 
8.30026 -1.8689 0 
8.53831 -1.8208 0 
-8.53831 -1.61566 0 
-8.309 -1.61381 0 
[...]
POINT_DATA 2222 
VECTORS vectors float
-8.8405e-05 -0.000667955 1 
0.000229839 -0.0119298 0.999929 
9.31292e-05 -0.0148995 0.999889 
0.000116876 -0.015528 0.999879 
0.000115098 -0.0147442 0.999891 
0.000115617 -0.0130354 0.999915 
0.000114702 -0.0111579 0.999938 
0.000115733 -0.00935818 0.999956 
0.000115701 -0.00757793 0.999971 
0.00011577 -0.00576631 0.999983 
0.000116023 -0.0039224 0.999992 
0.00011541 -0.00206679 0.999998 
0.000116629 -0.000198992 1 
0.000115023 0.00171512 0.999999 
0.000117008 0.00375038 0.999993 
0.000114492 0.00599193 0.999982 
0.000115188 0.00855594 0.999963 
0.000114383 0.0115906 0.999933 
0.000112681 0.0152413 0.999884 
0.000112299 0.0197032 0.999806 
0.00010975 0.0252026 0.999682 
0.000108089 0.0320263 0.999487 
0.00010583 0.0405297 0.999178 
0.000100844 0.0511425 0.998691 
9.94235e-05 0.0644301 0.997922 
9.11159e-05 0.0810339 0.996711 
8.65648e-05 0.101834 0.994801 
7.79782e-05 0.127868 0.991791 
6.66655e-05 0.160295 0.987069 
5.59301e-05 0.200578 0.979678 
3.96973e-05 0.250262 0.968178 
2.12417e-05 0.311106 0.950375 
-1.18557e-06 0.384656 0.92306 
-1.87389e-05 0.471498 0.881867 
-5.53496e-05 0.571307 0.820737 
-7.12865e-05 0.681406 0.731906 
-7.28546e-05 0.790417 0.612569 
-8.39937e-05 0.88992 0.456116 
-5.2928e-05 0.964063 0.265675 
-8.5331e-06 0.998634 0.0522433 
2.97085e-05 0.986081 -0.166267 
7.52644e-05 0.929238 -0.36948 
7.99542e-05 0.839541 -0.543297 
7.75774e-05 0.732459 -0.680812 
5.99729e-05 0.621749 -0.783216 
3.54325e-05 0.517118 -0.855914 
1.16094e-05 0.423937 -0.905692 
-1.24865e-05 0.344134 -0.938921 
-3.0796e-05 0.2775 -0.960726 
-4.86812e-05 0.222749 -0.974876 
-6.14825e-05 0.178254 -0.983985 
-7.39177e-05 0.142363 -0.989814 
-8.18412e-05 0.113526 -0.993535 
-8.92296e-05 0.0904203 -0.995904 
-9.6563e-05 0.0719102 -0.997411 
-9.86977e-05 0.0571176 -0.998367 
-0.000104871 0.0452974 -0.998974 
-0.000106465 0.0358352 -0.999358 
-0.000109129 0.0282492 -0.999601 
-0.000111241 0.0221456 -0.999755 
-0.000112457 0.0172169 -0.999852 
-0.000114157 0.0132041 -0.999913 
-0.000113874 0.00989856 -0.999951 
-0.000115628 0.00712013 -0.999975 
-0.000116586 0.00472169 -0.999989 
-0.00011471 0.00260382 -0.999997 
-0.000116314 0.000649559 -1 
-0.000118093 -0.00125598 -0.999999 
-0.000112986 -0.00313374 -0.999995 
-0.000119379 -0.00502164 -0.999987 
-0.000113105 -0.00690696 -0.999976 
-0.000117766 -0.00877177 -0.999962 
-0.00011548 -0.0106449 -0.999943 
-0.000113764 -0.0125796 -0.999921 
-0.000118117 -0.0146186 -0.999893 
-0.000111551 -0.0164188 -0.999865 
-0.000110242 -0.0170992 -0.999854 
-0.000139902 -0.0167389 -0.99986 
-6.31312e-05 -0.0145774 -0.999894 
-9.62208e-05 -0.00114831 -0.999999 
-6.59505e-05 0.000444708 1 
0.00474871 -0.00787811 0.999958 
0.00664013 -0.0130089 0.999893 
0.00744062 -0.0149858 0.99986 
0.00780998 -0.0148632 0.999859 
0.00810268 -0.0136671 0.999874 
0.00825838 -0.011874 0.999895 
0.00840861 -0.00990563 0.999916 
0.00854909 -0.00796818 0.999932 
0.00874111 -0.00613606 0.999943 
0.00881938 -0.00426593 0.999952 
0.00884044 -0.00241175 0.999958 
0.00887868 -0.000518622 0.99996 
0.00889568 0.00141386 0.999959 
0.00890246 0.0034798 0.999954 
0.00881586 0.00570916 0.999945 
0.00878384 0.00828077 0.999927 
0.00872422 0.0113194 0.999898 
0.00863832 0.0149217 0.999851 
0.00851122 0.0193391 0.999777 
0.00832006 0.0247326 0.999659 
0.00809502 0.0314738 0.999472 
0.00781313 0.0398471 0.999175 
0.007471 0.0503158 0.998705 
0.00708658 0.0635047 0.997956 
0.0065785 0.0797883 0.99679 
0.00604019 0.100558 0.994913 
0.00540508 0.12625 0.991984 
0.00465819 0.158144 0.987405 
0.00381973 0.19815 0.980164 
0.00287028 0.246826 0.969056 
0.00184571 0.307787 0.951453 
0.000807541 0.381804 0.924243 
-0.000219817 0.467011 0.884252 
-0.00105719 0.568489 0.82269 
-0.00166164 0.679654 0.733531 
-0.00191383 0.792702 0.609607 
-0.00168817 0.893001 0.450052 
-0.00106396 0.966289 0.257458 
-0.000147254 0.999111 0.0421671 
0.000922424 0.981807 -0.18988 
0.0016087 0.923109 -0.384536 
0.00205102 0.827895 -0.56088 
0.00198179 0.714853 -0.699272 
0.00146306 0.603465 -0.797388 
0.000639862 0.498476 -0.866903 
-0.000382877 0.405994 -0.913876 
-0.00145084 0.330139 -0.943931 
-0.00247606 0.265373 -0.964143 
-0.00347375 0.212812 -0.977087 
-0.00436817 0.169977 -0.985438 
-0.00515736 0.135848 -0.990716 
-0.00582162 0.108148 -0.994118 
-0.00643708 0.0860855 -0.996267 
-0.00695406 0.0685788 -0.997621 
-0.00733261 0.0543003 -0.998498 
-0.00772933 0.0431082 -0.999041 
-0.00800335 0.0340801 -0.999387 
-0.00824189 0.0268376 -0.999606 
-0.00844782 0.0210257 -0.999743 
-0.00859709 0.0163253 -0.99983 
-0.00871689 0.0124758 -0.999884 
-0.00882158 0.00926206 -0.999918 
-0.00893869 0.00659681 -0.999938 
-0.00895588 0.00426882 -0.999951 
-0.00892531 0.00214142 -0.999958 
-0.00903171 0.00021646 -0.999959 
-0.00905634 -0.00163698 -0.999958 
-0.00891672 -0.00350489 -0.999954 
-0.00895313 -0.00533067 -0.999946 
-0.00879179 -0.00721436 -0.999935 
-0.00877476 -0.00906514 -0.99992 
-0.0086113 -0.0109632 -0.999903 
-0.00847416 -0.0128844 -0.999881 
-0.00831177 -0.0147088 -0.999857 
-0.00802726 -0.0160041 -0.99984 
-0.00751387 -0.0165301 -0.999835 
-0.006526 -0.0156493 -0.999856 
-0.00412282 -0.0110674 -0.99993 
0.000293884 0.000369588 -1 
0.000260746 -0.000145428 1 
0.00627372 -0.0101275 0.999929 
0.00920795 -0.014399 0.999854 
0.0104416 -0.014965 0.999833 
0.0110684 -0.0146005 0.999832 
0.0116675 -0.0134265 0.999842 
0.0117995 -0.0115459 0.999864 
0.0120949 -0.00949791 0.999882 
0.0124873 -0.0076837 0.999893 
0.012507 -0.00580023 0.999905 
0.0126699 -0.00397039 0.999912 
0.0127115 -0.00212562 0.999917 
0.0128012 -0.000245817 0.999918 
0.0127764 0.00174656 0.999917 
0.0128541 0.00383037 0.99991 
0.0127392 0.00610867 0.9999 
0.0126472 0.0087795 0.999881 
0.0125761 0.0118502 0.999851 
0.0123666 0.0155737 0.999802 
0.0121708 0.0200732 0.999724 
0.0118457 0.0256574 0.999601 
0.0115126 0.0325786 0.999403 
0.011086 0.0412258 0.999088 
0.0105646 0.0520509 0.998589 
0.0100228 0.0655582 0.997798 
0.00926612 0.0824556 0.996552 
0.00850681 0.103315 0.994612 
0.0076193 0.129479 0.991553 
0.00657465 0.162066 0.986758 
0.00549945 0.201852 0.979401 
0.00422871 0.251912 0.967741 
0.00294834 0.313662 0.94953 
0.00176452 0.38595 0.922518 
0.000478 0.474762 0.880114 
-0.000419487 0.572743 0.819735 
-0.00117775 0.680344 0.732892 
-0.00144828 0.791655 0.610967 
-0.00124587 0.890681 0.454627 
-0.000714866 0.964857 0.262774 
-4.31699e-05 0.997843 0.0656427 
0.000687093 0.989607 -0.143796 
0.00126287 0.935567 -0.353148 
0.00170719 0.849877 -0.526979 
0.0017366 0.741862 -0.67055 
0.00116278 0.627967 -0.778239 
0.000310051 0.523461 -0.85205 
-0.000859252 0.42799 -0.903783 
-0.00223612 0.346433 -0.938072 
-0.00348723 0.281206 -0.959641 
-0.00474669 0.226032 -0.974108 
-0.00594038 0.181309 -0.983408 
-0.00705927 0.145133 -0.989387 
-0.00800953 0.116096 -0.993206 
-0.00889033 0.0928113 -0.995644 
-0.00964484 0.0738505 -0.997223 
-0.0102504 0.0588312 -0.998215 
-0.0108377 0.0466034 -0.998855 
-0.0113066 0.0370242 -0.99925 
-0.0116804 0.029206 -0.999505 
-0.0119956 0.022918 -0.999665 
-0.0122752 0.0178932 -0.999765 
-0.0124819 0.0137731 -0.999827 
-0.0126233 0.0103411 -0.999867 
-0.0127929 0.00743868 -0.99989 
-0.0128793 0.00499837 -0.999905 
-0.0128509 0.00278502 -0.999914 
-0.0129582 0.000750319 -0.999916 
-0.0129756 -0.0011349 -0.999915 
-0.0128281 -0.00300395 -0.999913 
-0.0128508 -0.00482548 -0.999906 
-0.0126279 -0.00669825 -0.999898 
-0.0125733 -0.00858642 -0.999884 
-0.0123043 -0.0105243 -0.999869 
-0.0120227 -0.0124589 -0.99985 
-0.011643 -0.0142782 -0.99983 
-0.0110985 -0.015537 -0.999818 
-0.010232 -0.0161889 -0.999817 
-0.00892646 -0.0158106 -0.999835 
-0.00557467 -0.0112164 -0.999922 
-0.000522913 1.44409e-05 -1 
-0.000163494 0.000289686 1 
0.00679597 -0.0114022 0.999912 
0.00929578 -0.0151426 0.999842 
0.0105855 -0.0149896 0.999832 
0.0114865 -0.0145885 0.999828 
0.0120537 -0.0132474 0.99984 
0.0125092 -0.0112085 0.999859 
0.0126597 -0.00941016 0.999876 
0.0128613 -0.0074326 0.99989 
0.0130223 -0.00557697 0.9999 
0.0131484 -0.00374308 0.999907 
0.0132564 -0.0019279 0.99991 
0.0133419 2.90934e-05 0.999911 
0.0133611 0.00201446 0.999909 
0.0133403 0.00411729 0.999903 
0.0133126 0.00649764 0.99989 
0.0132027 0.00915168 0.999871 
0.0130406 0.0123356 0.999839 
0.0128268 0.0160955 0.999788 
0.0125594 0.0207446 0.999706 
0.0122366 0.0264236 0.999576 
0.0118453 0.0335144 0.999368 
0.0113851 0.0423287 0.999039 
0.0108477 0.0533021 0.99852 
0.01022 0.067067 0.997696 
0.00953651 0.0839776 0.996422 
0.00872924 0.104409 0.994496 
0.00787155 0.129724 0.991519 
0.0069356 0.161655 0.986823 
0.0059133 0.200638 0.979648 
0.00488063 0.249556 0.968348 
0.00383511 0.308849 0.951103 
0.00291873 0.381882 0.924206 
0.00197239 0.467693 0.883889 
0.00145201 0.566544 0.82403 
0.000774662 0.676437 0.7365 
0.000542368 0.788344 0.615235 
0.000527816 0.891431 0.453156 
0.0006111 0.96293 0.26975 
0.000382491 0.998469 0.0553095 
0.000205007 0.986948 -0.161036 
-0.000172642 0.929593 -0.368589 
-5.68419e-05 0.840929 -0.541146 
-5.69493e-05 0.73441 -0.678706 
-0.000644984 0.62345 -0.781863 
-0.00120329 0.517445 -0.855716 
-0.00209067 0.422601 -0.906314 
-0.00316083 0.347349 -0.937731 
-0.00409088 0.283027 -0.959103 
-0.00518098 0.22893 -0.973429 
-0.00621919 0.184058 -0.982896 
-0.00725306 0.14707 -0.989099 
-0.00821462 0.117264 -0.993067 
-0.00906292 0.093629 -0.995566 
-0.00986028 0.0747299 -0.997155 
-0.0105381 0.0593332 -0.998183 
-0.0111486 0.0471743 -0.998824 
-0.0116326 0.0372323 -0.999239 
-0.0120776 0.0294926 -0.999492 
-0.0124536 0.0232806 -0.999651 
-0.0127366 0.018152 -0.999754 
-0.0129767 0.0139791 -0.999818 
-0.0131596 0.0105155 -0.999858 
-0.0132924 0.00764866 -0.999882 
-0.0134177 0.00515694 -0.999897 
-0.0135203 0.00293456 -0.999904 
-0.0135211 0.000909527 -0.999908 
-0.0134563 -0.00100669 -0.999909 
-0.0134606 -0.00286072 -0.999905 
-0.0133227 -0.00467124 -0.9999 
-0.0132547 -0.00651627 -0.999891 
-0.0130156 -0.00840785 -0.99988 
-0.0127948 -0.0103931 -0.999864 
-0.0123983 -0.0123261 -0.999847 
-0.0118733 -0.0141169 -0.99983 
-0.0111812 -0.0153537 -0.99982 
-0.0101554 -0.0158836 -0.999822 
-0.00870862 -0.0157646 -0.999838 
-0.00625927 -0.0113952 -0.999915 
-9.6974e-05 6.28739e-05 -1 
0.00310108 -0.0083767 0.99996 
0.0075248 -0.0138251 0.999876 
0.00927466 -0.0154455 0.999838 
0.0103959 -0.0150694 0.999832 
0.0113304 -0.0145047 0.999831 
0.0115723 -0.0134708 0.999842 
0.0120764 -0.0119325 0.999856 
0.0122589 -0.00996599 0.999875 
0.0125358 -0.0080267 0.999889 
0.0127285 -0.0060584 0.999901 
0.0128952 -0.00424171 0.999908 
0.0130227 -0.00236895 0.999912 
0.0131485 -0.00045859 0.999913 
0.0131852 0.00162106 0.999912 
0.0131491 0.00375883 0.999906 
0.0131737 0.00613656 0.999894 
0.0130618 0.00879807 0.999876 
0.0129061 0.011917 0.999846 
0.0126791 0.0157272 0.999796 
0.0124086 0.0202787 0.999717 
0.0120724 0.0259886 0.999589 
0.0116782 0.032963 0.999388 
0.0112116 0.041737 0.999066 
0.0106784 0.0526503 0.998556 
0.0100616 0.0661777 0.997757 
0.0093714 0.0832307 0.996486 
0.00864755 0.104298 0.994508 
0.00783928 0.129952 0.991489 
0.00700169 0.161381 0.986867 
0.00617817 0.201294 0.979511 
0.00532793 0.249885 0.968261 
0.00456028 0.31125 0.950317 
0.00404266 0.384215 0.923235 
0.00346356 0.471905 0.881643 
0.00334678 0.572709 0.819752 
0.00288834 0.683506 0.729939 
0.00266765 0.797287 0.603595 
0.00250907 0.895743 0.444565 
0.00180971 0.9692 0.246267 
0.000594897 0.999483 0.0321613 
-0.000505812 0.983728 -0.179664 
-0.00179717 0.926993 -0.375074 
-0.00202819 0.843786 -0.536676 
-0.00212994 0.736345 -0.676603 
-0.00253466 0.622435 -0.782667 
-0.00277098 0.514674 -0.857382 
-0.00334893 0.428219 -0.903669 
-0.00408737 0.344726 -0.938695 
-0.00476877 0.277644 -0.960672 
-0.00559275 0.224444 -0.974471 
-0.00645052 0.180423 -0.983568 
-0.00734895 0.143941 -0.989559 
-0.00817996 0.115655 -0.993256 
-0.00898314 0.0923009 -0.995691 
-0.00971515 0.0735518 -0.997244 
-0.010385 0.0586523 -0.998224 
-0.0109688 0.0464918 -0.998858 
-0.0114651 0.0369779 -0.99925 
-0.0118952 0.0293765 -0.999498 
-0.0122703 0.0231283 -0.999657 
-0.0125728 0.0180789 -0.999758 
-0.0128297 0.0139168 -0.999821 
-0.0130587 0.010516 -0.999859 
-0.0131601 0.00767101 -0.999884 
-0.0132723 0.00521571 -0.999898 
-0.0133684 0.0029626 -0.999906 
-0.0133523 0.000911602 -0.99991 
-0.0133167 -0.00110241 -0.999911 
-0.0132863 -0.00298862 -0.999907 
-0.0131396 -0.00478374 -0.999902 
-0.0130407 -0.00656305 -0.999893 
-0.0127883 -0.00842874 -0.999883 
-0.0125315 -0.0103827 -0.999868 
-0.0121143 -0.0123395 -0.99985 
-0.0115795 -0.0141774 -0.999832 
-0.0108179 -0.0153722 -0.999823 
-0.0097193 -0.0157962 -0.999828 
-0.00821589 -0.0157136 -0.999843 
-0.00591606 -0.01138 -0.999918 
-0.000213311 5.58091e-05 -1 
-3.76625e-05 0.000242253 1 
0.00528669 -0.0112357 0.999923 
0.00807646 -0.0155521 0.999846 
0.0093421 -0.0154609 0.999837 
0.0104092 -0.0150173 0.999833 
0.0107659 -0.0137676 0.999847 
0.0115344 -0.0116144 0.999866 
0.0115965 -0.00954137 0.999887 
0.0119709 -0.00763107 0.999899 
0.0120761 -0.0057886 0.99991 
0.0122782 -0.00399251 0.999917 
0.0123753 -0.0021764 0.999921 
0.0125769 -0.000232152 0.999921 
0.0125379 0.00176902 0.99992 
0.0124352 0.00382504 0.999915 
0.0125596 0.00607624 0.999903 
0.0123818 0.00871526 0.999885 
0.0122373 0.0117855 0.999856 
0.012018 0.015482 0.999808 
0.0117348 0.0200906 0.999729 
0.0114437 0.0256179 0.999606 
0.0110531 0.0326332 0.999406 
0.0106369 0.0411725 0.999095 
0.0101406 0.0519873 0.998596 
0.00956432 0.065377 0.997815 
0.0089701 0.0820067 0.996591 
0.00825771 0.103028 0.994644 
0.00759295 0.128391 0.991695 
0.00693924 0.159828 0.987121 
0.00631294 0.198615 0.980057 
0.00576454 0.246433 0.969143 
0.00531858 0.305867 0.952059 
0.00517965 0.378862 0.925439 
0.00504485 0.466483 0.884516 
0.00533744 0.568493 0.82267 
0.00512069 0.680778 0.732472 
0.00503818 0.793654 0.608348 
0.00460298 0.896993 0.442021 
0.00331138 0.968598 0.24861 
0.000981973 0.999362 0.0357074 
-0.00135653 0.983947 -0.178456 
-0.00373465 0.92135 -0.388716 
-0.00446947 0.826811 -0.562463 
-0.00431785 0.727038 -0.686584 
-0.00490748 0.632422 -0.774608 
-0.00438404 0.53805 -0.842902 
-0.00471724 0.444243 -0.895894 
-0.00478398 0.365507 -0.930796 
-0.00523106 0.28761 -0.957733 
-0.00571075 0.232789 -0.97251 
-0.00633952 0.18635 -0.982463 
-0.00703623 0.149632 -0.988717 
-0.00774278 0.119047 -0.992858 
-0.00845182 0.0955181 -0.995392 
-0.00910825 0.076175 -0.997053 
-0.00975399 0.0602983 -0.998133 
-0.0103056 0.0481982 -0.998785 
-0.0107576 0.038 -0.99922 
-0.0111606 0.0301546 -0.999483 
-0.011539 0.0238352 -0.999649 
-0.0118347 0.0185912 -0.999757 
-0.0121038 0.014344 -0.999824 
-0.012307 0.0107901 -0.999866 
-0.0124122 0.00785996 -0.999892 
-0.0125273 0.00531509 -0.999907 
-0.0127012 0.00307266 -0.999915 
-0.0126935 0.000850146 -0.999919 
-0.0126215 -0.00111276 -0.99992 
-0.012634 -0.00298044 -0.999916 
-0.0124355 -0.00478409 -0.999911 
-0.0123834 -0.00656901 -0.999902 
-0.012073 -0.00844022 -0.999891 
-0.0118557 -0.0103906 -0.999876 
-0.0114284 -0.0123425 -0.999859 
-0.010877 -0.0141752 -0.99984 
-0.0101854 -0.0154784 -0.999828 
-0.00916192 -0.0159439 -0.999831 
-0.00769138 -0.0156883 -0.999847 
-0.00563765 -0.0113317 -0.99992 
-0.000235842 5.9867e-05 -1 
0.000250365 -4.88422e-05 1 
0.00492779 -0.0110828 0.999926 
0.00709328 -0.0153197 0.999857 
0.00819526 -0.0156753 0.999844 
0.00924907 -0.0152247 0.999841 
0.00944377 -0.013953 0.999858 
0.0103676 -0.0118579 0.999876 
0.0103149 -0.0097017 0.9999 
0.0105674 -0.0075705 0.999916 
0.0107314 -0.00568196 0.999926 
0.0109373 -0.00389661 0.999933 
0.0110708 -0.00199263 0.999937 
0.0112549 -8.80022e-05 0.999937 
0.0110974 0.00190446 0.999937 
0.0109835 0.0040817 0.999931 
0.0111386 0.00641014 0.999917 
0.0109636 0.00913392 0.999898 
0.0108488 0.0123126 0.999865 
0.0106692 0.0162247 0.999811 
0.0103743 0.0209297 0.999727 
0.0101376 0.0267621 0.99959 
0.00975338 0.0338869 0.999378 
0.00940028 0.0428366 0.999038 
0.00895152 0.0538114 0.998511 
0.00845089 0.0676514 0.997673 
0.00796525 0.0845267 0.996389 
0.00735731 0.1056 0.994381 
0.00687569 0.131327 0.991315 
0.00645522 0.163017 0.986602 
0.0061107 0.202632 0.979236 
0.0059209 0.251793 0.967763 
0.00592508 0.311719 0.950156 
0.00633235 0.386552 0.922246 
0.00669346 0.471177 0.882013 
0.0077125 0.570133 0.821516 
0.00777044 0.674746 0.738009 
0.00786516 0.792417 0.609929 
0.00748665 0.893486 0.449029 
0.00530683 0.968515 0.248899 
0.0011383 0.999768 0.0214947 
-0.00286264 0.979067 -0.203516 
-0.00651227 0.934804 -0.355106 
-0.00712373 0.857072 -0.515147 
-0.00741779 0.745524 -0.666438 
-0.00724743 0.626098 -0.779711 
-0.0064084 0.517781 -0.855489 
-0.00609409 0.425534 -0.904922 
-0.00558244 0.342606 -0.939463 
-0.00562783 0.275345 -0.961329 
-0.00579711 0.220487 -0.975373 
-0.00614701 0.177461 -0.984109 
-0.00665292 0.142246 -0.989809 
-0.00710391 0.113923 -0.993464 
-0.00769126 0.0915361 -0.995772 
-0.00828101 0.07248 -0.997335 
-0.00870956 0.0582985 -0.998261 
-0.00927947 0.0462568 -0.998886 
-0.00956692 0.0368048 -0.999277 
-0.00990157 0.0292804 -0.999522 
-0.0102814 0.023062 -0.999681 
-0.0105217 0.0180163 -0.999782 
-0.0107953 0.0138439 -0.999846 
-0.0109824 0.0104309 -0.999885 
-0.010953 0.00751337 -0.999912 
-0.011135 0.0049875 -0.999926 
-0.0115015 0.00265862 -0.99993 
-0.0113037 0.000538638 -0.999936 
-0.01115 -0.00138028 -0.999937 
-0.0112761 -0.00315202 -0.999931 
-0.0109683 -0.00488165 -0.999928 
-0.0110359 -0.00658651 -0.999917 
-0.010669 -0.00845994 -0.999907 
-0.0104859 -0.0104496 -0.99989 
-0.0100888 -0.0124599 -0.999871 
-0.0095946 -0.0143356 -0.999851 
-0.00902056 -0.0155487 -0.999838 
-0.00815392 -0.0160042 -0.999839 
-0.00683856 -0.0158112 -0.999852 
-0.0051197 -0.0113868 -0.999922 
-0.000196349 5.89254e-05 -1 
0.000131518 0.00012677 1 
0.00429462 -0.0112816 0.999927 
0.00610792 -0.015656 0.999859 
0.0069274 -0.015835 0.999851 
0.00788382 -0.0153572 0.999851 
0.00801571 -0.0140853 0.999869 
0.00894064 -0.0119928 0.999888 
0.00879048 -0.00991144 0.999912 
0.00907524 -0.00782053 0.999928 
0.00920012 -0.00588184 0.99994 
0.00936822 -0.00403197 0.999948 
0.00954413 -0.00217281 0.999952 
0.00960719 -0.000121564 0.999954 
0.00948941 0.00194546 0.999953 
0.00947594 0.00430215 0.999946 
0.00951369 0.00687187 0.999931 
0.00936823 0.00974366 0.999909 
0.00931047 0.0131342 0.99987 
0.00911621 0.0171608 0.999811 
0.00887705 0.0222012 0.999714 
0.00863144 0.0281475 0.999567 
0.00832094 0.0357388 0.999327 
0.00798993 0.0448547 0.998962 
0.00762947 0.0563797 0.99838 
0.00720047 0.0704583 0.997489 
0.00682988 0.0876146 0.996131 
0.00636645 0.10922 0.993997 
0.00607378 0.135552 0.990752 
0.00588838 0.168157 0.985743 
0.00584554 0.209561 0.977778 
0.00603331 0.259286 0.965782 
0.00651864 0.322095 0.946685 
0.00753649 0.399468 0.916716 
0.00860427 0.486182 0.873815 
0.0104656 0.595475 0.803306 
0.0108987 0.705747 0.70838 
0.0115771 0.815896 0.578082 
0.0104511 0.919228 0.393587 
0.0056288 0.987006 0.160584 
0.00252242 0.999411 0.0342175 
-0.00248083 0.993215 -0.11627 
-0.00884025 0.953879 -0.300061 
-0.0111804 0.862175 -0.506488 
-0.0106029 0.762339 -0.647091 
-0.00984951 0.640914 -0.767549 
-0.00837368 0.522793 -0.852419 
-0.00734824 0.426509 -0.904454 
-0.00625679 0.347016 -0.937838 
-0.00588727 0.283565 -0.958935 
-0.00563347 0.227 -0.973878 
-0.00567292 0.181284 -0.983414 
-0.00593392 0.145462 -0.989346 
-0.00620664 0.11697 -0.993116 
-0.00661884 0.0932889 -0.995617 
-0.00712613 0.0749842 -0.997159 
-0.00738351 0.0595047 -0.998201 
-0.00792931 0.0478419 -0.998823 
-0.00815814 0.0380911 -0.999241 
-0.00840974 0.0301357 -0.99951 
-0.00876963 0.0238286 -0.999678 
-0.00898475 0.0186352 -0.999786 
-0.00924054 0.0143238 -0.999855 
-0.00938069 0.0107399 -0.999898 
-0.00942765 0.00770632 -0.999926 
-0.00954726 0.00505696 -0.999942 
-0.00995015 0.00274093 -0.999947 
-0.00967624 0.000678284 -0.999953 
-0.00958643 -0.00137259 -0.999953 
-0.00963292 -0.00328696 -0.999948 
-0.00934915 -0.00507163 -0.999943 