# vtk DataFile Version 3.0 
Exported using Morpho https://github.com/Morpho-lang/morpho 
ASCII 
DATASET UNSTRUCTURED_GRID 

POINTS 2132 float 
-8.32618 -2.88146 0 
-8.11405 -2.88146 0 
-7.90192 -2.88146 0 
-7.68979 -2.88146 0 
-7.47765 -2.88146 0 
-7.26552 -2.88146 0 
-7.05339 -2.88146 0 
-6.84126 -2.88146 0 
-6.62913 -2.88146 0 
-6.41699 -2.88146 0 
-6.20486 -2.88146 0 
-5.99273 -2.88146 0 
-5.7806 -2.88146 0 
-5.56847 -2.88146 0 
-5.35633 -2.88146 0 
-5.1442 -2.88146 0 
-4.93207 -2.88146 0 
-4.71994 -2.88146 0 
-4.50781 -2.88146 0 
-4.29567 -2.88146 0 
-4.08354 -2.88146 0 
-3.87141 -2.88146 0 
-3.65928 -2.88146 0 
-3.44715 -2.88146 0 
-3.23501 -2.88146 0 
-3.02288 -2.88146 0 
-2.81075 -2.88146 0 
-2.59862 -2.88146 0 
-2.38649 -2.88146 0 
-2.17435 -2.88146 0 
-1.96222 -2.88146 0 
-1.75009 -2.88146 0 
-1.53796 -2.88146 0 
-1.32583 -2.88146 0 
-1.11369 -2.88146 0 
-0.901561 -2.88146 0 
-0.689429 -2.88146 0 
-0.477297 -2.88146 0 
-0.265165 -2.88146 0 
-0.053033 -2.88146 0 
0.159099 -2.88146 0 
0.371231 -2.88146 0 
0.583363 -2.88146 0 
0.795495 -2.88146 0 
1.00763 -2.88146 0 
1.21976 -2.88146 0 
1.43189 -2.88146 0 
1.64402 -2.88146 0 
1.85616 -2.88146 0 
2.06829 -2.88146 0 
2.28042 -2.88146 0 
2.49255 -2.88146 0 
2.70468 -2.88146 0 
2.91682 -2.88146 0 
3.12895 -2.88146 0 
3.34108 -2.88146 0 
3.55321 -2.88146 0 
3.76534 -2.88146 0 
3.97748 -2.88146 0 
4.18961 -2.88146 0 
4.40174 -2.88146 0 
4.61387 -2.88146 0 
4.826 -2.88146 0 
5.03814 -2.88146 0 
5.25027 -2.88146 0 
5.4624 -2.88146 0 
5.67453 -2.88146 0 
5.88666 -2.88146 0 
6.0988 -2.88146 0 
6.31093 -2.88146 0 
6.52306 -2.88146 0 
6.73519 -2.88146 0 
6.94732 -2.88146 0 
7.15946 -2.88146 0 
7.37159 -2.88146 0 
7.58372 -2.88146 0 
7.79585 -2.88146 0 
8.00798 -2.88146 0 
8.22012 -2.88146 0 
8.53831 -2.88146 0 
-8.53831 -2.72646 0 
-8.29368 -2.66208 0 
-8.06171 -2.66367 0 
-7.82934 -2.66748 0 
-7.60034 -2.66479 0 
-7.37293 -2.66471 0 
-7.14334 -2.66958 0 
-6.91667 -2.66659 0 
-6.69536 -2.6722 0 
-6.4723 -2.6721 0 
-6.24792 -2.66577 0 
-6.0267 -2.67946 0 
-5.80198 -2.67347 0 
-5.58415 -2.6698 0 
-5.36714 -2.67067 0 
-5.15081 -2.66947 0 
-4.93563 -2.66943 0 
-4.7201 -2.66811 0 
-4.50525 -2.66944 0 
-4.29148 -2.66931 0 
-4.07766 -2.67017 0 
-3.86377 -2.6725 0 
-3.65071 -2.67422 0 
-3.43941 -2.66971 0 
-3.22694 -2.67347 0 
-3.01641 -2.66886 0 
-2.80898 -2.667 0 
-2.59553 -2.66913 0 
-2.38313 -2.66909 0 
-2.17063 -2.66881 0 
-1.95719 -2.66835 0 
-1.74589 -2.66545 0 
-1.53208 -2.66361 0 
-1.3204 -2.66127 0 
-1.10667 -2.66059 0 
-0.895478 -2.65852 0 
-0.681243 -2.66288 0 
-0.47047 -2.65761 0 
-0.254657 -2.66854 0 
-0.0434144 -2.66181 0 
0.1904 -2.68346 0 
0.397695 -2.65804 0 
0.618873 -2.66685 0 
0.832112 -2.65914 0 
1.04399 -2.65927 0 
1.26115 -2.66503 0 
1.47622 -2.66613 0 
1.69043 -2.66521 0 
1.90421 -2.66968 0 
2.11587 -2.66973 0 
2.32614 -2.66704 0 
2.53419 -2.66605 0 
2.7431 -2.66672 0 
2.95174 -2.66802 0 
3.16025 -2.66817 0 
3.37112 -2.66997 0 
3.58367 -2.67375 0 
3.79337 -2.66867 0 
4.0101 -2.67682 0 
4.21916 -2.66903 0 
4.42868 -2.6689 0 
4.64187 -2.67178 0 
4.85316 -2.66972 0 
5.06493 -2.67069 0 
5.27375 -2.66744 0 
5.48677 -2.67141 0 
5.69596 -2.66831 0 
5.90712 -2.66983 0 
6.11808 -2.66945 0 
6.33184 -2.67261 0 
6.546 -2.67241 0 
6.75913 -2.67066 0 
6.97694 -2.674 0 
7.19222 -2.67033 0 
7.41254 -2.67235 0 
7.62725 -2.66403 0 
7.83977 -2.6587 0 
8.0524 -2.64945 0 
8.30536 -2.72033 0 
8.53831 -2.66933 0 
-8.42952 -2.48834 0 
-8.18012 -2.4492 0 
-7.94988 -2.45485 0 
-7.72692 -2.45242 0 
-7.50368 -2.44965 0 
-7.27575 -2.45769 0 
-7.05487 -2.45776 0 
-6.834 -2.45445 0 
-6.62042 -2.46333 0 
-6.39827 -2.46568 0 
-6.18884 -2.43064 0 
-6.00483 -2.47933 0 
-5.8065 -2.44977 0 
-5.60157 -2.46092 0 
-5.38243 -2.46219 0 
-5.16412 -2.45962 0 
-4.94708 -2.45886 0 
-4.7306 -2.4588 0 
-4.5126 -2.45946 0 
-4.29533 -2.45856 0 
-4.07917 -2.4602 0 
-3.8629 -2.46342 0 
-3.64855 -2.46548 0 
-3.44211 -2.45492 0 
-3.22824 -2.46353 0 
-3.02025 -2.45091 0 
-2.80116 -2.45851 0 
-2.58349 -2.45867 0 
-2.36599 -2.45833 0 
-2.14708 -2.45856 0 
-1.93238 -2.45275 0 
-1.71284 -2.45221 0 
-1.4961 -2.44403 0 
-1.27702 -2.44407 0 
-1.06094 -2.43828 0 
-0.841308 -2.44142 0 
-0.628863 -2.44174 0 
-0.403246 -2.44519 0 
-0.194438 -2.451 0 
-0.0079505 -2.30448 0 
0.0612782 -2.48555 0 
0.270978 -2.45277 0 
0.513503 -2.45664 0 
0.736915 -2.44417 0 
0.96062 -2.43744 0 
1.18388 -2.45194 0 
1.40866 -2.45358 0 
1.63085 -2.45461 0 
1.85635 -2.45818 0 
2.07284 -2.45788 0 
2.28715 -2.45545 0 
2.50191 -2.44886 0 
2.71189 -2.45212 0 
2.92239 -2.45175 0 
3.13056 -2.45397 0 
3.33994 -2.45863 0 
3.55395 -2.46511 0 
3.76421 -2.45821 0 
3.98231 -2.4734 0 
4.19722 -2.45716 0 
4.40977 -2.45491 0 
4.6197 -2.46264 0 
4.83306 -2.45861 0 
5.0462 -2.45903 0 
5.25616 -2.45224 0 
5.46559 -2.46103 0 
5.67616 -2.4536 0 
5.88463 -2.45701 0 
6.09375 -2.45697 0 
6.30502 -2.46336 0 
6.51754 -2.46452 0 
6.7326 -2.46062 0 
6.94882 -2.46892 0 
7.16783 -2.46146 0 
7.38819 -2.46786 0 
7.61162 -2.44907 0 
7.83 -2.43444 0 
8.0646 -2.44271 0 
8.29871 -2.51522 0 
8.53831 -2.4572 0 
-8.53831 -2.26785 0 
-8.30794 -2.27091 0 
-8.05179 -2.24311 0 
-7.82373 -2.2357 0 
-7.59877 -2.2352 0 
-7.36324 -2.24825 0 
-7.13229 -2.24456 0 
-6.90523 -2.24656 0 
-6.67465 -2.24463 0 
-6.45411 -2.26414 0 
-6.22633 -2.22814 0 
-5.98409 -2.24616 0 
-5.77206 -2.23056 0 
-5.55493 -2.25312 0 
-5.33894 -2.25227 0 
-5.12403 -2.24861 0 
-4.91073 -2.24768 0 
-4.69712 -2.24923 0 
-4.48464 -2.24886 0 
-4.27357 -2.24714 0 
-4.06321 -2.24943 0 
-3.86778 -2.23499 0 
-3.67246 -2.25229 0 
-3.47216 -2.23301 0 
-3.27013 -2.25211 0 
-3.06518 -2.23408 0 
-2.85481 -2.24842 0 
-2.64221 -2.24966 0 
-2.42628 -2.2488 0 
-2.20946 -2.24986 0 
-1.9936 -2.23965 0 
-1.77581 -2.24195 0 
-1.55671 -2.23156 0 
-1.33277 -2.2298 0 
-1.11242 -2.22164 0 
-0.889024 -2.22653 0 
-0.668083 -2.21815 0 
-0.453017 -2.24036 0 
-0.221158 -2.22215 0 
0.224839 -2.23085 0 
0.44523 -2.26426 0 
0.686495 -2.23101 0 
0.911602 -2.22416 0 
1.14259 -2.2358 0 
1.36359 -2.24459 0 
1.58981 -2.24507 0 
1.81558 -2.2558 0 
2.04357 -2.24618 0 
2.25718 -2.24252 0 
2.47054 -2.24081 0 
2.6885 -2.23505 0 
2.89816 -2.23903 0 
3.10914 -2.2359 0 
3.3161 -2.24532 0 
3.52713 -2.25707 0 
3.74016 -2.2457 0 
3.95464 -2.27171 0 
4.17364 -2.25036 0 
4.39002 -2.24595 0 
4.60717 -2.24919 0 
4.8169 -2.24938 0 
5.03252 -2.25042 0 
5.24787 -2.23838 0 
5.45889 -2.24844 0 
5.67158 -2.24326 0 
5.88524 -2.24288 0 
6.09589 -2.24448 0 
6.30658 -2.25292 0 
6.52199 -2.25655 0 
6.7366 -2.25291 0 
6.9566 -2.26222 0 
7.17147 -2.24953 0 
7.38837 -2.26163 0 
7.60342 -2.23298 0 
7.83471 -2.22737 0 
8.06885 -2.23438 0 
8.30338 -2.30316 0 
8.53831 -2.24506 0 
-8.42646 -2.05458 0 
-8.19428 -2.06332 0 
-7.95866 -2.02415 0 
-7.73466 -2.01609 0 
-7.50098 -2.03485 0 
-7.27597 -2.03715 0 
-7.05003 -2.03219 0 
-6.82878 -2.03748 0 
-6.61009 -2.03204 0 
-6.40134 -2.05054 0 
-6.21515 -1.98067 0 
-6.0292 -2.05369 0 
-5.80531 -2.01291 0 
-5.5936 -2.03722 0 
-5.383 -2.03912 0 
-5.1725 -2.03746 0 
-4.95868 -2.03554 0 
-4.74503 -2.03772 0 
-4.53099 -2.03745 0 
-4.31699 -2.03512 0 
-4.10289 -2.0367 0 
-3.89444 -2.01292 0 
-3.68825 -2.02763 0 
-3.47327 -2.0207 0 
-3.26172 -2.03333 0 
-3.04288 -2.02428 0 
-2.83168 -2.03621 0 
-2.61414 -2.04108 0 
-2.39573 -2.03964 0 
-2.18098 -2.03604 0 
-1.96021 -2.0278 0 
-1.74255 -2.02728 0 
-1.51356 -2.02276 0 
-1.29104 -2.01303 0 
-1.06156 -2.01089 0 
-0.840807 -2.00899 0 
-0.618976 -2.00034 0 
-0.390065 -2.03965 0 
0.383518 -2.03629 0 
0.596527 -2.04706 0 
0.849239 -2.01057 0 
1.08507 -2.02722 0 
1.31863 -2.02722 0 
1.54053 -2.0387 0 
1.77508 -2.05122 0 
2.00319 -2.04881 0 
2.23608 -2.02877 0 
2.45082 -2.02789 0 
2.6667 -2.03133 0 
2.89143 -2.02339 0 
3.1032 -2.02442 0 
3.31819 -2.02746 0 
3.52531 -2.04709 0 
3.74679 -2.04207 0 
3.96882 -2.0676 0 
4.18869 -2.04289 0 
4.41008 -2.04114 0 
4.61844 -2.03405 0 
4.82331 -2.02803 0 
5.02527 -2.04237 0 
5.22299 -2.0145 0 
5.42729 -2.03436 0 
5.63583 -2.03279 0 
5.84941 -2.03381 0 
6.06385 -2.03197 0 
6.27656 -2.04 0 
6.48854 -2.0488 0 
6.70495 -2.04194 0 
6.9224 -2.05857 0 
7.14333 -2.03819 0 
7.36373 -2.0483 0 
7.59281 -2.02685 0 
7.82316 -2.02022 0 
8.05941 -2.02517 0 
8.29908 -2.08849 0 
8.53831 -2.03293 0 
-8.53831 -1.82886 0 
-8.30677 -1.85051 0 
-8.07841 -1.83547 0 
-7.83752 -1.80391 0 
-7.5918 -1.82432 0 
-7.35722 -1.82419 0 
-7.12774 -1.82513 0 
-6.89408 -1.82235 0 
-6.6741 -1.81878 0 
-6.45161 -1.82286 0 
-6.21482 -1.78555 0 
-5.98083 -1.83572 0 
-5.76022 -1.80033 0 
-5.55571 -1.82061 0 
-5.35048 -1.82063 0 
-5.13999 -1.82439 0 
-4.9282 -1.82316 0 
-4.7163 -1.82572 0 
-4.50372 -1.82546 0 
-4.2901 -1.82385 0 
-4.08192 -1.81877 0 
-3.86974 -1.7983 0 
-3.65674 -1.81908 0 
-3.44114 -1.80787 0 
-3.22252 -1.82948 0 
-3.00428 -1.81263 0 
-2.78554 -1.83035 0 
-2.56457 -1.83355 0 
-2.34628 -1.82598 0 
-2.12263 -1.82633 0 
-1.89733 -1.81392 0 
-1.66501 -1.82346 0 
-1.43408 -1.8081 0 
-1.19587 -1.80639 0 
-0.965877 -1.79291 0 
-0.742895 -1.78804 0 
-0.490055 -1.82014 0 
0.473457 -1.80503 0 
0.690086 -1.8396 0 
0.951126 -1.8095 0 
1.17692 -1.81906 0 
1.40172 -1.81354 0 
1.62973 -1.84334 0 
1.8536 -1.84591 0 
2.07747 -1.84384 0 
2.29909 -1.81285 0 
2.51209 -1.81577 0 
2.7314 -1.82781 0 
2.94635 -1.80836 0 
3.16074 -1.81489 0 
3.37228 -1.81415 0 
3.58143 -1.84181 0 
3.77738 -1.80549 0 
3.9616 -1.86599 0 
4.1619 -1.8234 0 
4.37039 -1.83985 0 
4.59096 -1.81775 0 
4.7981 -1.81037 0 
5.00781 -1.81772 0 
5.22728 -1.8083 0 
5.44545 -1.81764 0 
5.65874 -1.82251 0 
5.87234 -1.82452 0 
6.08622 -1.82207 0 
6.29634 -1.8286 0 
6.50835 -1.8388 0 
6.72685 -1.83433 0 
6.93732 -1.84887 0 
7.15459 -1.82687 0 
7.37601 -1.8409 0 
7.59903 -1.81575 0 
7.83031 -1.81172 0 
8.06601 -1.81595 0 
8.3013 -1.87751 0 
8.53831 -1.8208 0 
-8.53831 -1.61308 0 
-8.30446 -1.63507 0 
-8.06613 -1.62601 0 
-7.80909 -1.60743 0 
-7.57211 -1.61742 0 
-7.33934 -1.61322 0 
-7.10233 -1.6207 0 
-6.88132 -1.60488 0 
-6.65756 -1.60725 0 
-6.42783 -1.62049 0 
-6.21197 -1.57005 0 
-5.99884 -1.63365 0 
-5.77824 -1.59587 0 
-5.55565 -1.59957 0 
[...]
POINT_DATA 2132 
VECTORS vectors float
-6.71533e-05 -0.000862855 1 
4.12031e-05 -0.0123577 0.999924 
-9.61158e-05 -0.0149101 0.999889 
-3.87976e-05 -0.0152251 0.999884 
-5.6377e-05 -0.0143011 0.999898 
-5.11605e-05 -0.0127195 0.999919 
-5.21829e-05 -0.0110892 0.999939 
-5.22662e-05 -0.00955212 0.999954 
-5.2296e-05 -0.00805594 0.999968 
-5.19007e-05 -0.00654929 0.999979 
-5.37707e-05 -0.00503471 0.999987 
-5.08725e-05 -0.00355344 0.999994 
-5.36339e-05 -0.00210085 0.999998 
-5.21152e-05 -0.000669653 1 
-5.25476e-05 0.000767138 1 
-5.24411e-05 0.00227909 0.999997 
-5.22422e-05 0.00394588 0.999992 
-5.22245e-05 0.00586292 0.999983 
-5.17147e-05 0.00809622 0.999967 
-5.16174e-05 0.0108238 0.999941 
-5.0951e-05 0.0141946 0.999899 
-5.08263e-05 0.0184108 0.999831 
-4.8946e-05 0.0237254 0.999719 
-4.96247e-05 0.0304355 0.999537 
-4.67061e-05 0.0390208 0.999238 
-4.6144e-05 0.0499286 0.998753 
-4.36065e-05 0.0638881 0.997957 
-4.10565e-05 0.0817861 0.99665 
-3.77265e-05 0.10479 0.994494 
-3.34474e-05 0.134361 0.990933 
-2.80256e-05 0.172372 0.985032 
-2.15548e-05 0.22117 0.975235 
-1.32972e-05 0.283478 0.958979 
-4.52305e-06 0.362245 0.932083 
5.23064e-06 0.459822 0.888011 
1.27336e-05 0.57646 0.817125 
1.36782e-05 0.707215 0.706998 
1.78278e-05 0.838442 0.544991 
1.16042e-06 0.945287 0.326241 
1.64671e-05 0.997965 0.0637567 
-2.34938e-05 0.977962 -0.208782 
1.59345e-06 0.892853 -0.450348 
-2.17051e-05 0.768912 -0.639355 
-1.22789e-05 0.635142 -0.772396 
-9.51548e-06 0.51055 -0.859848 
4.69675e-07 0.403776 -0.914858 
8.96657e-06 0.31651 -0.948589 
1.80862e-05 0.247065 -0.968999 
2.53865e-05 0.192535 -0.98129 
3.10531e-05 0.150034 -0.988681 
3.59188e-05 0.11699 -0.993133 
3.97008e-05 0.0912912 -0.995824 
4.258e-05 0.0712839 -0.997456 
4.48833e-05 0.0556873 -0.998448 
4.66269e-05 0.0435124 -0.999053 
4.84912e-05 0.0339801 -0.999423 
4.86157e-05 0.0265024 -0.999649 
5.10361e-05 0.0206129 -0.999788 
5.01297e-05 0.0159423 -0.999873 
5.16325e-05 0.0122283 -0.999925 
5.19285e-05 0.00922564 -0.999957 
5.17489e-05 0.0067738 -0.999977 
5.26186e-05 0.00472671 -0.999989 
5.20198e-05 0.00296874 -0.999996 
5.30311e-05 0.00140025 -0.999999 
5.20649e-05 -6.2375e-05 -1 
5.29321e-05 -0.00148926 -0.999999 
5.22771e-05 -0.00293798 -0.999996 
5.27655e-05 -0.0044361 -0.99999 
5.23916e-05 -0.00598702 -0.999982 
5.22651e-05 -0.00756473 -0.999971 
5.27684e-05 -0.00915472 -0.999958 
5.1652e-05 -0.0107584 -0.999942 
5.29957e-05 -0.0124389 -0.999923 
4.94184e-05 -0.0142383 -0.999899 
6.07396e-05 -0.0159438 -0.999873 
3.30095e-05 -0.0168298 -0.999858 
7.26859e-05 -0.0166209 -0.999862 
6.35369e-05 -0.014782 -0.999891 
-5.29273e-06 -0.00141628 -0.999999 
-1.89004e-05 0.000173617 1 
0.00642285 -0.0101091 0.999928 
0.00825325 -0.0138587 0.99987 
0.00877636 -0.0147918 0.999852 
0.00916196 -0.0144407 0.999854 
0.00940353 -0.0132993 0.999867 
0.00951211 -0.0116597 0.999887 
0.00974541 -0.00997312 0.999903 
0.00977072 -0.0083894 0.999917 
0.00983826 -0.00682668 0.999928 
0.00997705 -0.00525871 0.999936 
0.00984896 -0.00375924 0.999944 
0.00996489 -0.00223089 0.999948 
0.0101159 -0.000769917 0.999949 
0.0101259 0.000705369 0.999948 
0.0101491 0.00225472 0.999946 
0.0101263 0.00395145 0.999941 
0.0101151 0.0058932 0.999931 
0.0100812 0.00819954 0.999916 
0.0100548 0.0109829 0.999889 
0.00999672 0.0144218 0.999846 
0.00990458 0.018727 0.999776 
0.00982535 0.0241616 0.99966 
0.0098214 0.0308974 0.999474 
0.0097143 0.0396574 0.999166 
0.00977574 0.0505682 0.998673 
0.00984246 0.0642841 0.997883 
0.00989825 0.0823539 0.996554 
0.0101883 0.105429 0.994375 
0.0107443 0.135067 0.990778 
0.0117071 0.1733 0.984799 
0.0133876 0.221732 0.975016 
0.0159183 0.284218 0.958628 
0.0196683 0.362187 0.931898 
0.0246207 0.459649 0.887759 
0.030692 0.574634 0.817835 
0.035171 0.706255 0.707083 
0.0368306 0.836644 0.546507 
0.0253838 0.946909 0.320498 
0.00450013 0.998569 0.0532912 
-0.018973 0.967852 -0.250804 
-0.0363191 0.87357 -0.485341 
-0.0360975 0.739897 -0.671752 
-0.0325412 0.60606 -0.794753 
-0.0263081 0.486024 -0.873549 
-0.0203536 0.382286 -0.92382 
-0.0163393 0.298965 -0.954124 
-0.0137243 0.233152 -0.972343 
-0.0118235 0.181686 -0.983286 
-0.0107997 0.141898 -0.989822 
-0.0102867 0.111047 -0.993762 
-0.0099822 0.0871911 -0.996142 
-0.00982294 0.0684208 -0.997608 
-0.00975746 0.0537263 -0.998508 
-0.00978145 0.0421936 -0.999062 
-0.00980621 0.0330225 -0.999406 
-0.00981076 0.0257488 -0.99962 
-0.00998822 0.0200882 -0.999748 
-0.00990485 0.015441 -0.999832 
-0.0101264 0.0118738 -0.999878 
-0.0101555 0.0089717 -0.999908 
-0.0101367 0.00654736 -0.999927 
-0.0102132 0.00453525 -0.999938 
-0.0102159 0.00279323 -0.999944 
-0.0102844 0.00125225 -0.999946 
-0.0102059 -0.000219156 -0.999948 
-0.0102506 -0.00162919 -0.999946 
-0.0101928 -0.00306394 -0.999943 
-0.0101569 -0.00452933 -0.999938 
-0.0100524 -0.00605773 -0.999931 
-0.00999861 -0.00761562 -0.999921 
-0.00993973 -0.00919712 -0.999908 
-0.00975956 -0.01087 -0.999893 
-0.0096443 -0.0125831 -0.999874 
-0.00938399 -0.0143106 -0.999854 
-0.00920494 -0.0156035 -0.999836 
-0.00877446 -0.0162827 -0.999829 
-0.00793082 -0.0159804 -0.999841 
-0.00501569 -0.0126707 -0.999907 
0.000200933 0.000191076 -1 
0.00491303 -0.00815123 0.999955 
0.00875471 -0.0139881 0.999864 
0.0101625 -0.0148595 0.999838 
0.010871 -0.0145605 0.999835 
0.0113877 -0.0139246 0.999838 
0.0117563 -0.0126175 0.999851 
0.0120349 -0.0109693 0.999867 
0.0122653 -0.00930546 0.999881 
0.0123813 -0.00778028 0.999893 
0.0124797 -0.00624954 0.999903 
0.0127562 -0.00483532 0.999907 
0.0126226 -0.0035982 0.999914 
0.0128389 -0.00227468 0.999915 
0.0128036 -0.000897888 0.999918 
0.0128131 0.000597722 0.999918 
0.0128358 0.00216777 0.999915 
0.0128303 0.00388232 0.99991 
0.0128067 0.00583632 0.999901 
0.0127785 0.00816925 0.999885 
0.0127554 0.0109936 0.999858 
0.0127142 0.0144624 0.999815 
0.0126462 0.0187892 0.999743 
0.0126246 0.0242217 0.999627 
0.0127196 0.0308795 0.999442 
0.0126854 0.0394602 0.999141 
0.0129549 0.050174 0.998656 
0.013234 0.064564 0.997826 
0.0138515 0.0829245 0.99646 
0.0149108 0.106507 0.9942 
0.0166282 0.137055 0.990424 
0.019455 0.175399 0.984305 
0.0236729 0.225705 0.973908 
0.030319 0.288654 0.956953 
0.0393631 0.369215 0.92851 
0.052025 0.466827 0.882817 
0.0663415 0.586431 0.807278 
0.0797587 0.716362 0.693156 
0.0813518 0.856845 0.509116 
0.0539286 0.961504 0.269448 
0.000251515 0.999968 0.00796251 
-0.0160396 0.995921 -0.0887878 
-0.072611 0.924347 -0.37458 
-0.0823154 0.784393 -0.614778 
-0.0734306 0.641976 -0.763201 
-0.0583622 0.512169 -0.8569 
-0.0428574 0.404148 -0.913689 
-0.0323617 0.314621 -0.948666 
-0.0251248 0.244438 -0.969339 
-0.0201641 0.188765 -0.981815 
-0.0171523 0.147148 -0.988966 
-0.0152757 0.114971 -0.993251 
-0.0141584 0.0897728 -0.995862 
-0.0134027 0.0705517 -0.997418 
-0.013 0.0554026 -0.998379 
-0.0127812 0.043623 -0.998966 
-0.012671 0.0342738 -0.999332 
-0.0126332 0.0267366 -0.999563 
-0.0126973 0.0208775 -0.999701 
-0.0126655 0.0160654 -0.999791 
-0.0127963 0.0122927 -0.999843 
-0.0128482 0.00927857 -0.999874 
-0.0128449 0.0068337 -0.999894 
-0.0128927 0.00475309 -0.999906 
-0.0129186 0.00296528 -0.999912 
-0.0129507 0.0013887 -0.999915 
-0.0129196 -7.72234e-05 -0.999917 
-0.0128992 -0.0015046 -0.999916 
-0.0128737 -0.00291795 -0.999913 
-0.0127858 -0.00433861 -0.999909 
-0.0127175 -0.0058227 -0.999902 
-0.0125991 -0.00733002 -0.999894 
-0.0124628 -0.00890073 -0.999883 
-0.0122756 -0.0105939 -0.999869 
-0.0119938 -0.0123273 -0.999852 
-0.011611 -0.0140235 -0.999834 
-0.0110854 -0.0152025 -0.999823 
-0.010296 -0.0158762 -0.999821 
-0.00906309 -0.0160003 -0.999831 
-0.00663987 -0.0129636 -0.999894 
-0.000256685 -0.000189209 -1 
-0.00013927 -8.28246e-05 1 
0.00699912 -0.0127316 0.999894 
0.00912668 -0.015162 0.999843 
0.0101346 -0.0148747 0.999838 
0.0109059 -0.0143455 0.999838 
0.011536 -0.013271 0.999845 
0.011912 -0.0116031 0.999862 
0.012194 -0.00982516 0.999877 
0.0124121 -0.00812484 0.99989 
0.0126094 -0.00660227 0.999899 
0.012681 -0.00506911 0.999907 
0.0128158 -0.00346874 0.999912 
0.0129087 -0.0020685 0.999915 
0.0129996 -0.000604444 0.999915 
0.0130426 0.000892815 0.999915 
0.0130588 0.00247433 0.999912 
0.0130597 0.00420629 0.999906 
0.0130549 0.00619316 0.999896 
0.0130431 0.00852978 0.999879 
0.0130336 0.0113349 0.999851 
0.0130356 0.0147681 0.999806 
0.01306 0.0187158 0.99974 
0.0131013 0.0235385 0.999637 
0.0131777 0.0295866 0.999475 
0.013391 0.037393 0.999211 
0.0137602 0.0471265 0.998794 
0.0143442 0.0598854 0.998102 
0.0153379 0.0762074 0.996974 
0.0169496 0.0973056 0.99511 
0.0194455 0.12435 0.992048 
0.0234321 0.158387 0.987099 
0.0292242 0.202333 0.978881 
0.0382888 0.25769 0.965469 
0.0514107 0.329407 0.942787 
0.0701313 0.416134 0.906595 
0.0941937 0.524564 0.846144 
0.124695 0.647183 0.752067 
0.14485 0.78512 0.602167 
0.143158 0.919724 0.365533 
-0.144108 0.914704 -0.377557 
-0.138284 0.789251 -0.598299 
-0.119901 0.631369 -0.766157 
-0.0909349 0.505781 -0.857856 
-0.0651657 0.399421 -0.914449 
-0.0475909 0.315497 -0.947732 
-0.0354983 0.245815 -0.968667 
-0.0270573 0.191406 -0.981138 
-0.0218801 0.147838 -0.988769 
-0.0185797 0.116156 -0.993057 
-0.0163987 0.0912731 -0.995691 
-0.0149917 0.071295 -0.997343 
-0.0141046 0.0562623 -0.998316 
-0.0135815 0.0442813 -0.998927 
-0.0132778 0.0350086 -0.999299 
-0.0131361 0.0275174 -0.999535 
-0.0130404 0.0214161 -0.999686 
-0.0130773 0.0166491 -0.999776 
-0.0130576 0.0126949 -0.999834 
-0.0130721 0.00956533 -0.999869 
-0.0130969 0.0069999 -0.99989 
-0.0131101 0.00491916 -0.999902 
-0.0131578 0.00309079 -0.999909 
-0.0131015 0.00144694 -0.999913 
-0.013096 -4.55663e-05 -0.999914 
-0.0130926 -0.00150043 -0.999913 
-0.0129981 -0.00293874 -0.999911 
-0.01295 -0.00437145 -0.999907 
-0.0128285 -0.00580081 -0.999901 
-0.0127209 -0.00732527 -0.999892 
-0.0125613 -0.00891279 -0.999881 
-0.0123018 -0.0106078 -0.999868 
-0.0119783 -0.0123932 -0.999851 
-0.0115208 -0.0139834 -0.999836 
-0.0107992 -0.0150363 -0.999829 
-0.00989698 -0.0157677 -0.999827 
-0.00867858 -0.0159517 -0.999835 
-0.00678087 -0.0130296 -0.999892 
6.26577e-05 -0.000109817 -1 
0.00491419 -0.00941261 0.999944 
0.00751941 -0.0148184 0.999862 
0.0088519 -0.0154085 0.999842 
0.00980911 -0.0148885 0.999841 
0.0106371 -0.0141659 0.999843 
0.0111592 -0.0128107 0.999856 
0.0115113 -0.0110156 0.999873 
0.0117989 -0.00926022 0.999888 
0.0120155 -0.00767107 0.999898 
0.0122693 -0.00626041 0.999905 
0.0122062 -0.00503591 0.999913 
0.0125173 -0.0038097 0.999914 
0.0124944 -0.00233407 0.999919 
0.0126413 -0.000902642 0.99992 
0.0127019 0.000557156 0.999919 
0.0127318 0.00209255 0.999917 
0.0127445 0.00379323 0.999912 
0.0127575 0.0057186 0.999902 
0.0127618 0.00797729 0.999887 
0.0127688 0.0106891 0.999861 
0.0128044 0.0140069 0.99982 
0.0128223 0.0179812 0.999756 
0.0129551 0.0228573 0.999655 
0.0131743 0.0292695 0.999485 
0.0135178 0.0371169 0.999219 
0.0141401 0.0474331 0.998774 
0.0150859 0.0601322 0.998076 
0.0165874 0.0766423 0.996921 
0.018934 0.0975978 0.995046 
0.0224496 0.123596 0.992079 
0.0279429 0.157149 0.98718 
0.0358719 0.199076 0.979327 
0.0483161 0.254147 0.965958 
0.0663215 0.31998 0.9451 
0.0928143 0.40376 0.910145 
0.128915 0.49956 0.856633 
0.180456 0.606647 0.774219 
0.232689 0.748158 0.621381 
-0.237604 0.737486 -0.632185 
-0.174696 0.627018 -0.759164 
-0.12504 0.488989 -0.863282 
-0.0867708 0.391696 -0.915994 
-0.0617216 0.30826 -0.949298 
-0.0450524 0.244821 -0.968521 
-0.033205 0.190853 -0.981057 
-0.0258492 0.14872 -0.988542 
-0.0210634 0.114704 -0.993176 
-0.0180073 0.0905118 -0.995733 
-0.0159717 0.0713176 -0.997326 
-0.0146369 0.0555174 -0.99835 
-0.0138313 0.0438318 -0.998943 
-0.0133309 0.0344368 -0.999318 
-0.013053 0.0272394 -0.999544 
-0.0128871 0.0211346 -0.999694 
-0.0128767 0.0162811 -0.999785 
-0.0127767 0.0124101 -0.999841 
-0.0128068 0.00929767 -0.999875 
-0.0128147 0.00688419 -0.999894 
-0.0128326 0.00487892 -0.999906 
-0.0128553 0.00314485 -0.999912 
-0.0127811 0.00161879 -0.999917 
-0.0128156 0.000152183 -0.999918 
-0.0127516 -0.00128978 -0.999918 
-0.0126762 -0.00273852 -0.999916 
-0.0125787 -0.00418253 -0.999912 
-0.012474 -0.00561345 -0.999906 
-0.0123477 -0.00707842 -0.999899 
-0.0121363 -0.00865121 -0.999889 
-0.0119205 -0.0103446 -0.999875 
-0.0115049 -0.0121822 -0.99986 
-0.011052 -0.0138621 -0.999843 
-0.0103176 -0.0150608 -0.999833 
-0.00932902 -0.0156686 -0.999834 
-0.00810795 -0.0158561 -0.999841 
-0.00652993 -0.0131003 -0.999893 
2.51964e-05 -0.000131848 -1 
-0.000219373 2.04783e-05 1 
0.0060171 -0.0129881 0.999898 
0.00763524 -0.0155658 0.99985 
0.00870281 -0.0153594 0.999844 
0.00967165 -0.0147067 0.999845 
0.0102559 -0.0135044 0.999856 
0.0106617 -0.0117199 0.999874 
0.0109537 -0.00980383 0.999892 
0.011173 -0.00814874 0.999904 
0.0113774 -0.00660822 0.999913 
0.0114005 -0.00507358 0.999922 
0.0117886 -0.00353785 0.999924 
0.0117167 -0.00208052 0.999929 
0.0119332 -0.000686891 0.999929 
0.0119773 0.000756385 0.999928 
0.0120314 0.00231831 0.999925 
0.0120502 0.00403429 0.999919 
0.0120792 0.00597993 0.999909 
0.0120963 0.00826172 0.999893 
0.0121212 0.0110077 0.999866 
0.0121556 0.0142564 0.999824 
0.0121625 0.0182929 0.999759 
0.0124738 0.0234443 0.999647 
0.0127173 0.0297824 0.999476 
0.0133546 0.0381112 0.999184 
0.014123 0.0482235 0.998737 
0.0155041 0.0615043 0.997986 
0.0175434 0.0782202 0.996782 
0.0205842 0.0988172 0.994893 
0.0252242 0.125507 0.991772 
0.0322641 0.158674 0.986804 
0.0429115 0.202822 0.978275 
0.0588521 0.254821 0.965196 
0.0831875 0.32186 0.943126 
0.118122 0.395536 0.910823 
0.167611 0.476263 0.86318 
0.252637 0.587045 0.769125 
-0.25377 0.576469 -0.776714 
-0.176042 0.507272 -0.843614 
-0.11704 0.398756 -0.909558 
-0.0829488 0.325197 -0.942001 
-0.0597849 0.260166 -0.963711 
-0.0434647 0.208773 -0.976998 
-0.0328455 0.165606 -0.985645 
-0.0256996 0.130667 -0.991093 
-0.0209537 0.102415 -0.994521 
-0.017815 0.0815187 -0.996513 
-0.0156825 0.0644332 -0.997799 
-0.0142489 0.0508482 -0.998605 
-0.0133657 0.0402167 -0.999102 
-0.0128046 0.0318252 -0.999411 
-0.0125996 0.0252719 -0.999601 
-0.0122521 0.0201455 -0.999722 
-0.0123952 0.0162947 -0.99979 
-0.0121724 0.012785 -0.999844 
-0.0121964 0.00978046 -0.999878 
-0.0120804 0.0071609 -0.999901 
-0.0120397 0.00509079 -0.999915 
-0.0120441 0.00326724 -0.999922 
-0.0120242 0.00156814 -0.999926 
-0.0119986 -7.04429e-06 -0.999928 
-0.0119864 -0.00148917 -0.999927 
-0.0119234 -0.00294387 -0.999925 
-0.0118078 -0.00438042 -0.999921 
-0.0117067 -0.00578496 -0.999915 
-0.0115926 -0.00723884 -0.999907 
-0.0113648 -0.00882864 -0.999896 
-0.0111805 -0.0104893 -0.999882 
-0.0107131 -0.0123089 -0.999867 
-0.0103532 -0.0140582 -0.999848 
-0.00957956 -0.0151351 -0.99984 
-0.00866215 -0.0157311 -0.999839 
-0.00749709 -0.0158782 -0.999846 
-0.00604178 -0.0130063 -0.999897 
1.96309e-05 -0.000124299 -1 
7.20513e-05 -0.000226191 1 
0.00538908 -0.0129451 0.999902 
0.00685329 -0.0156723 0.999854 
0.00786397 -0.0154513 0.99985 
0.00865219 -0.0147791 0.999853 
0.00911801 -0.0134956 0.999867 
0.00952682 -0.0115841 0.999888 
0.00968101 -0.00976 0.999906 
0.00992124 -0.00808078 0.999918 
0.0102246 -0.00651594 0.999926 
0.0100295 -0.00512037 0.999937 
0.0105758 -0.00370815 0.999937 
0.0104578 -0.00226345 0.999943 
0.0105381 -0.000735035 0.999944 
0.0106601 0.000765911 0.999943 
0.0107458 0.00235357 0.999939 
0.0107747 0.00408769 0.999934 
0.0108243 0.00605103 0.999923 
0.0108605 0.00834716 0.999906 
0.0108713 0.0110376 0.99988 
0.0109496 0.0143326 0.999837 
0.011022 0.0184956 0.999768 
0.0113832 0.0234933 0.999659 
0.0116263 0.0293872 0.9995 
0.0124309 0.0369372 0.99924 
0.0132284 0.0462209 0.998844 
0.0148014 0.0585676 0.998174 
0.0169732 0.0738973 0.997121 
0.020161 0.0929644 0.995465 
0.0248704 0.116728 0.992852 
0.0318143 0.146129 0.988754 
0.0424271 0.185032 0.981816 
0.0575445 0.229144 0.97169 
0.0801985 0.284713 0.955252 
0.112862 0.343873 0.932209 
0.157824 0.403669 0.90119 
0.230609 0.48136 0.845643 
-0.225094 0.465593 -0.855895 
-0.159166 0.423601 -0.891756 
-0.110057 0.343689 -0.932612 
-0.0798282 0.2862 -0.954839 
-0.0592343 0.234728 -0.970255 
-0.0453514 0.197442 -0.979265 
-0.0343527 0.159019 -0.986678 
-0.0268095 0.127855 -0.991431 
-0.0214873 0.101688 -0.994584 
-0.0176749 0.0802653 -0.996617 
-0.0154051 0.0646822 -0.997787 
-0.013678 0.0514965 -0.99858 
-0.0125506 0.0407519 -0.99909 
-0.0118112 0.0323214 -0.999408 
-0.0114944 0.0256417 -0.999605 
-0.0110945 0.0200485 -0.999737 
-0.0111497 0.015552 -0.999817 
-0.0108905 0.0118812 -0.99987 
-0.0109857 0.00906275 -0.999899 
-0.0107283 0.00667682 -0.99992 
-0.0107151 0.00463836 -0.999932 
-0.0107778 0.00284118 -0.999938 
-0.0107137 0.00115749 -0.999942 
-0.010697 -0.000363657 -0.999943 
-0.0106731 -0.00183472 -0.999941 
-0.0106069 -0.00327852 -0.999938 
-0.0104569 -0.00468234 -0.999934 
-0.010373 -0.00606785 -0.999928 
-0.01031 -0.0075323 -0.999918 
-0.0100006 -0.00903828 -0.999909 
-0.00991183 -0.0107239 -0.999893 
-0.00938768 -0.0124636 -0.999878 
-0.00918795 -0.0141057 -0.999858 
-0.00848001 -0.0152397 -0.999848 
-0.00772997 -0.015801 -0.999845 
-0.00668958 -0.0159322 -0.999851 
-0.0054202 -0.0130964 -0.9999 
2.68279e-05 -0.000125845 -1 
-3.77331e-05 -9.49715e-05 1 
0.00452474 -0.0127934 0.999908 
0.0057039 -0.015743 0.99986 
0.00660078 -0.0156821 0.999855 
0.0072448 -0.0150044 0.999861 
0.00765379 -0.013805 0.999875 
0.00805826 -0.0119618 0.999896 
0.00812873 -0.0100649 0.999916 
0.00837004 -0.00838034 0.99993 
0.00868183 -0.00683192 0.999939 
0.00850023 -0.00550551 0.999949 
0.00896518 -0.00396682 0.999952 
0.00897583 -0.00262578 0.999956 
0.00904361 -0.00107526 0.999959 
0.00909821 0.000467979 0.999959 
0.00919558 0.00204106 0.999956 
0.00924566 0.00373263 0.99995 
0.00930404 0.00564865 0.999941 
0.009359 0.00785631 0.999925 
0.009369 0.0104648 0.999901 
0.00946898 0.0136105 0.999863 
0.00959331 0.0174441 0.999802 
0.0099011 0.0224446 0.999699 
0.0102433 0.028457 0.999543 
0.0110846 0.0358375 0.999296 
0.0120311 0.0451772 0.998907 
0.0136877 0.0569324 0.998284 
0.0159772 0.0714908 0.997313 
0.0191216 0.0889428 0.995853 
0.0239399 0.111398 0.993487 
0.0303316 0.137068 0.990097 
0.0398958 0.169938 0.984647 
0.0521944 0.205291 0.977308 
0.0709427 0.251071 0.965365 
0.0957853 0.298533 0.949581 
0.128661 0.345545 0.92954 
0.18419 0.402235 0.896817 
-0.163173 0.382052 -0.909621 
-0.149454 0.377345 -0.913933 
-0.108764 0.322805 -0.940195 
-0.0762606 0.264606 -0.961337 
-0.056662 0.219198 -0.974034 
-0.0429757 0.181902 -0.982377 
-0.0336211 0.151373 -0.987905 
-0.0259744 0.122084 -0.99218 
-0.0203417 0.0968859 -0.995088 
-0.0166823 0.0780548 -0.996809 
-0.0142058 0.0624419 -0.997947 
-0.0124019 0.0495582 -0.998694 
-0.0112312 0.0395781 -0.999153 
-0.0104904 0.0313546 -0.999453 
-0.0101027 0.0247666 -0.999642 
-0.00963991 0.0194213 -0.999765 
-0.00976647 0.0153321 -0.999835 
-0.00929247 0.0122057 -0.999882 
-0.0094585 0.00952272 -0.99991 
-0.00926233 0.0071815 -0.999931 
-0.00918847 0.00501355 -0.999945 
-0.00924385 0.00316958 -0.999952 
-0.00924817 0.00150983 -0.999956 
-0.00916208 -0.000106256 -0.999958 
-0.00914385 -0.00160058 -0.999957 
-0.00909314 -0.00306449 -0.999954 
-0.0089431 -0.00448887 -0.99995 
-0.0088255 -0.00589741 -0.999944 
-0.00883994 -0.00734527 -0.999934 
-0.00845214 -0.00885511 -0.999925 
-0.00836541 -0.0105516 -0.999909 
-0.00791872 -0.0124084 -0.999892 
-0.00771615 -0.0141501 -0.99987 
-0.00709181 -0.0152748 -0.999858 
-0.00650818 -0.0158978 -0.999852 
-0.00565182 -0.0160179 -0.999856 
-0.00461481 -0.0130642 -0.999904 
2.44963e-05 -0.000126481 -1 
-2.34858e-05 -0.000128742 1 
0.00377043 -0.0130626 0.999908 
0.00472895 -0.0158676 0.999863 
0.00563743 -0.0156559 0.999862 
0.00597727 -0.0149471 0.99987 
0.00639252 -0.0135891 0.999887 
0.00667239 -0.0117325 0.999909 
0.00673 -0.00981906 0.999929 
0.00699499 -0.00811947 0.999943 
0.00712933 -0.00670976 0.999952 
0.00730767 -0.00503875 0.999961 
0.00740053 -0.00370561 0.999966 
0.00758871 -0.0022172 0.999969 
0.0076056 -0.000697122 0.999971 