# vtk DataFile Version 3.0 
Exported using Morpho https://github.com/Morpho-lang/morpho 
ASCII 
DATASET UNSTRUCTURED_GRID 

POINTS 2170 float 
-8.32618 -2.88146 0 
-8.11405 -2.88146 0 
-7.90192 -2.88146 0 
-7.68979 -2.88146 0 
-7.47765 -2.88146 0 
-7.26552 -2.88146 0 
-7.05339 -2.88146 0 
-6.84126 -2.88146 0 
-6.62913 -2.88146 0 
-6.41699 -2.88146 0 
-6.20486 -2.88146 0 
-5.99273 -2.88146 0 
-5.7806 -2.88146 0 
-5.56847 -2.88146 0 
-5.35633 -2.88146 0 
-5.1442 -2.88146 0 
-4.93207 -2.88146 0 
-4.71994 -2.88146 0 
-4.50781 -2.88146 0 
-4.29567 -2.88146 0 
-4.08354 -2.88146 0 
-3.87141 -2.88146 0 
-3.65928 -2.88146 0 
-3.44715 -2.88146 0 
-3.23501 -2.88146 0 
-3.02288 -2.88146 0 
-2.81075 -2.88146 0 
-2.59862 -2.88146 0 
-2.38649 -2.88146 0 
-2.17435 -2.88146 0 
-1.96222 -2.88146 0 
-1.75009 -2.88146 0 
-1.53796 -2.88146 0 
-1.32583 -2.88146 0 
-1.11369 -2.88146 0 
-0.901561 -2.88146 0 
-0.689429 -2.88146 0 
-0.477297 -2.88146 0 
-0.265165 -2.88146 0 
-0.053033 -2.88146 0 
0.159099 -2.88146 0 
0.371231 -2.88146 0 
0.583363 -2.88146 0 
0.795495 -2.88146 0 
1.00763 -2.88146 0 
1.21976 -2.88146 0 
1.43189 -2.88146 0 
1.64402 -2.88146 0 
1.85616 -2.88146 0 
2.06829 -2.88146 0 
2.28042 -2.88146 0 
2.49255 -2.88146 0 
2.70468 -2.88146 0 
2.91682 -2.88146 0 
3.12895 -2.88146 0 
3.34108 -2.88146 0 
3.55321 -2.88146 0 
3.76534 -2.88146 0 
3.97748 -2.88146 0 
4.18961 -2.88146 0 
4.40174 -2.88146 0 
4.61387 -2.88146 0 
4.826 -2.88146 0 
5.03814 -2.88146 0 
5.25027 -2.88146 0 
5.4624 -2.88146 0 
5.67453 -2.88146 0 
5.88666 -2.88146 0 
6.0988 -2.88146 0 
6.31093 -2.88146 0 
6.52306 -2.88146 0 
6.73519 -2.88146 0 
6.94732 -2.88146 0 
7.15946 -2.88146 0 
7.37159 -2.88146 0 
7.58372 -2.88146 0 
7.79585 -2.88146 0 
8.00798 -2.88146 0 
8.22012 -2.88146 0 
8.53831 -2.88146 0 
-8.53831 -2.74009 0 
-8.31342 -2.65583 0 
-8.08031 -2.65814 0 
-7.84429 -2.66624 0 
-7.6104 -2.66506 0 
-7.38094 -2.66722 0 
-7.15215 -2.6768 0 
-6.91823 -2.66873 0 
-6.69629 -2.6706 0 
-6.4725 -2.66753 0 
-6.25351 -2.66804 0 
-6.03599 -2.6674 0 
-5.81958 -2.66916 0 
-5.60286 -2.6719 0 
-5.3857 -2.67234 0 
-5.16993 -2.67126 0 
-4.95498 -2.6696 0 
-4.74211 -2.66999 0 
-4.52826 -2.66803 0 
-4.3181 -2.67198 0 
-4.10282 -2.66821 0 
-3.89304 -2.67188 0 
-3.67889 -2.67045 0 
-3.467 -2.66866 0 
-3.2581 -2.67219 0 
-3.04546 -2.67126 0 
-2.83474 -2.66931 0 
-2.62471 -2.66943 0 
-2.4148 -2.66974 0 
-2.20428 -2.66668 0 
-1.99646 -2.66941 0 
-1.78447 -2.66575 0 
-1.57579 -2.66946 0 
-1.36036 -2.66607 0 
-1.14515 -2.66008 0 
-0.929472 -2.65548 0 
-0.715903 -2.65272 0 
-0.501141 -2.65166 0 
-0.291106 -2.6649 0 
-0.0711238 -2.66229 0 
0.15236 -2.65836 0 
0.372963 -2.65139 0 
0.577526 -2.65138 0 
0.795708 -2.65771 0 
1.01034 -2.6568 0 
1.23136 -2.6646 0 
1.45279 -2.66925 0 
1.66374 -2.66477 0 
1.88335 -2.67441 0 
2.09071 -2.6664 0 
2.30224 -2.6699 0 
2.51293 -2.66975 0 
2.72642 -2.67237 0 
2.93577 -2.66783 0 
3.14711 -2.66921 0 
3.36051 -2.67196 0 
3.57178 -2.67002 0 
3.78712 -2.67398 0 
3.99676 -2.66927 0 
4.20678 -2.66774 0 
4.41733 -2.66744 0 
4.62899 -2.66845 0 
4.83979 -2.66801 0 
5.05296 -2.67032 0 
5.26486 -2.6703 0 
5.47652 -2.66972 0 
5.68726 -2.66943 0 
5.89871 -2.66998 0 
6.10949 -2.66951 0 
6.32089 -2.66926 0 
6.53421 -2.6709 0 
6.74602 -2.66857 0 
6.95818 -2.66645 0 
7.17289 -2.66622 0 
7.38877 -2.66485 0 
7.60256 -2.66124 0 
7.81734 -2.65518 0 
8.03294 -2.6469 0 
8.2919 -2.70967 0 
8.53831 -2.66933 0 
-8.53831 -2.49894 0 
-8.30055 -2.44062 0 
-8.05243 -2.44987 0 
-7.80972 -2.4599 0 
-7.56992 -2.45646 0 
-7.33419 -2.46212 0 
-7.09674 -2.4804 0 
-6.86517 -2.45775 0 
-6.64131 -2.46352 0 
-6.41949 -2.45538 0 
-6.20425 -2.45483 0 
-5.98834 -2.45497 0 
-5.77169 -2.45961 0 
-5.556 -2.46388 0 
-5.34311 -2.46265 0 
-5.13082 -2.46061 0 
-4.92031 -2.45655 0 
-4.70899 -2.45838 0 
-4.49997 -2.45303 0 
-4.28692 -2.46382 0 
-4.076 -2.45403 0 
-3.8621 -2.46389 0 
-3.64958 -2.45923 0 
-3.43933 -2.45489 0 
-3.22604 -2.46406 0 
-3.01529 -2.45956 0 
-2.80299 -2.45709 0 
-2.59139 -2.45689 0 
-2.38045 -2.45686 0 
-2.16983 -2.45041 0 
-1.9571 -2.45753 0 
-1.74385 -2.44898 0 
-1.52651 -2.45957 0 
-1.30701 -2.45019 0 
-1.0831 -2.44135 0 
-0.862278 -2.42977 0 
-0.637404 -2.43021 0 
-0.410993 -2.43159 0 
-0.19541 -2.45125 0 
0.0413021 -2.45525 0 
0.280591 -2.44848 0 
0.317038 -2.23266 0 
0.509983 -2.40194 0 
0.723656 -2.44181 0 
0.948862 -2.43536 0 
1.17598 -2.45231 0 
1.40681 -2.46269 0 
1.63255 -2.44841 0 
1.85094 -2.47149 0 
2.07101 -2.44832 0 
2.28093 -2.45749 0 
2.49198 -2.45792 0 
2.70477 -2.46445 0 
2.91887 -2.4547 0 
3.13147 -2.45725 0 
3.34435 -2.46311 0 
3.55802 -2.45926 0 
3.77222 -2.46806 0 
3.98808 -2.45582 0 
4.19752 -2.4528 0 
4.40794 -2.45333 0 
4.61788 -2.45436 0 
4.82901 -2.45444 0 
5.03916 -2.4588 0 
5.2523 -2.45912 0 
5.46286 -2.4574 0 
5.67501 -2.45703 0 
5.8842 -2.45735 0 
6.09497 -2.45745 0 
6.30463 -2.45662 0 
6.51697 -2.46118 0 
6.72963 -2.45553 0 
6.9426 -2.45262 0 
7.15722 -2.45283 0 
7.37501 -2.45105 0 
7.59471 -2.44026 0 
7.81295 -2.43017 0 
8.05345 -2.44065 0 
8.29269 -2.5029 0 
8.53831 -2.4572 0 
-8.53831 -2.26718 0 
-8.29431 -2.23528 0 
-8.05031 -2.24253 0 
-7.80945 -2.25112 0 
-7.57778 -2.25124 0 
-7.33913 -2.25614 0 
-7.10561 -2.28079 0 
-6.87036 -2.25496 0 
-6.63848 -2.25492 0 
-6.4251 -2.23785 0 
-6.21024 -2.23893 0 
-5.99768 -2.24281 0 
-5.78061 -2.24995 0 
-5.56301 -2.25401 0 
-5.3486 -2.25038 0 
-5.13844 -2.24882 0 
-4.92742 -2.24279 0 
-4.71712 -2.24542 0 
-4.50683 -2.2381 0 
-4.29706 -2.25312 0 
-4.08678 -2.24157 0 
-3.87374 -2.25485 0 
-3.65972 -2.24934 0 
-3.44609 -2.24246 0 
-3.23381 -2.25462 0 
-3.02106 -2.24741 0 
-2.81066 -2.24731 0 
-2.59513 -2.24494 0 
-2.38196 -2.24301 0 
-2.16846 -2.23846 0 
-1.9519 -2.244 0 
-1.7398 -2.23306 0 
-1.52298 -2.24769 0 
-1.29504 -2.23939 0 
-1.07258 -2.22144 0 
-0.839965 -2.21409 0 
-0.605087 -2.21819 0 
-0.390706 -2.20745 0 
-0.152774 -2.25509 0 
-0.0447821 -1.86228 0 
0.0893687 -2.25747 0 
0.240634 -2.02434 0 
0.512298 -2.13842 0 
0.709458 -2.21201 0 
0.922811 -2.21925 0 
1.15471 -2.24013 0 
1.38766 -2.25812 0 
1.62117 -2.24306 0 
1.85292 -2.2652 0 
2.0721 -2.23531 0 
2.28691 -2.24328 0 
2.49835 -2.24628 0 
2.71128 -2.25515 0 
2.9212 -2.23914 0 
3.12924 -2.24785 0 
3.34557 -2.25354 0 
3.55409 -2.24528 0 
3.76532 -2.26092 0 
3.97634 -2.2444 0 
4.18934 -2.23841 0 
4.39857 -2.23789 0 
4.60942 -2.24049 0 
4.81884 -2.23933 0 
5.02981 -2.2459 0 
5.23986 -2.24722 0 
5.45277 -2.24554 0 
5.66273 -2.24531 0 
5.87566 -2.2446 0 
6.08419 -2.24425 0 
6.29475 -2.24446 0 
6.50539 -2.24995 0 
6.71843 -2.24475 0 
6.93152 -2.23924 0 
7.14642 -2.23989 0 
7.36372 -2.23795 0 
7.58215 -2.22312 0 
7.81747 -2.22484 0 
8.05834 -2.23243 0 
8.2976 -2.28783 0 
8.53831 -2.24506 0 
-8.42403 -2.04041 0 
-8.18548 -2.03136 0 
-7.94612 -2.03763 0 
-7.72324 -2.0338 0 
-7.48868 -2.04952 0 
-7.27822 -2.02103 0 
-7.08615 -2.07972 0 
-6.8951 -2.01733 0 
-6.68613 -2.05267 0 
-6.46098 -2.02198 0 
-6.24164 -2.02411 0 
-6.02288 -2.02475 0 
-5.8085 -2.0408 0 
-5.58715 -2.04686 0 
-5.36651 -2.04068 0 
-5.15106 -2.03435 0 
-4.94112 -2.03091 0 
-4.72753 -2.03263 0 
-4.51487 -2.02511 0 
-4.30191 -2.04002 0 
-4.08921 -2.02909 0 
-3.87772 -2.04502 0 
-3.66503 -2.03913 0 
-3.45393 -2.02943 0 
-3.24387 -2.0429 0 
-3.0341 -2.03563 0 
-2.82486 -2.03243 0 
-2.61764 -2.03656 0 
-2.40244 -2.03015 0 
-2.19191 -2.02365 0 
-1.98015 -2.03211 0 
-1.7678 -2.01364 0 
-1.55567 -2.03064 0 
-1.34072 -2.03363 0 
-1.11293 -2.00608 0 
-0.884915 -2.00595 0 
-0.644446 -2.01075 0 
-0.415376 -1.97931 0 
-0.205048 -2.04975 0 
-0.0204638 -1.61749 0 
0.0222796 -2.06088 0 
0.154836 -1.81616 0 
0.458498 -1.93365 0 
0.722328 -1.97563 0 
0.954245 -2.00904 0 
1.18342 -2.02444 0 
1.40244 -2.05179 0 
1.61154 -2.01721 0 
1.82539 -2.0628 0 
2.04803 -2.02392 0 
2.26299 -2.03119 0 
2.47807 -2.03148 0 
2.68823 -2.04438 0 
2.89938 -2.0279 0 
3.11501 -2.03098 0 
3.32343 -2.04805 0 
3.54069 -2.03007 0 
3.7508 -2.0498 0 
3.96256 -2.03334 0 
4.17472 -2.02693 0 
4.38915 -2.02309 0 
4.59867 -2.02536 0 
4.80929 -2.02472 0 
5.0193 -2.03112 0 
5.22993 -2.03447 0 
5.44129 -2.03384 0 
5.65433 -2.03329 0 
5.865 -2.03429 0 
6.07878 -2.03122 0 
6.28781 -2.03155 0 
6.4993 -2.03934 0 
6.71132 -2.03377 0 
6.92515 -2.02732 0 
7.1394 -2.02682 0 
7.35589 -2.02407 0 
7.58569 -2.01769 0 
7.82429 -2.02024 0 
8.0613 -2.02153 0 
8.29879 -2.07224 0 
8.53831 -2.03293 0 
-8.53831 -1.8309 0 
-8.29908 -1.82571 0 
-8.04732 -1.83628 0 
-7.80413 -1.81457 0 
-7.56421 -1.84253 0 
-7.33796 -1.80182 0 
-7.10405 -1.83396 0 
-6.87603 -1.80236 0 
-6.65771 -1.83478 0 
-6.43652 -1.80682 0 
-6.21956 -1.81 0 
-6.00354 -1.80974 0 
-5.79412 -1.82371 0 
-5.58478 -1.8407 0 
-5.37596 -1.82331 0 
-5.16908 -1.82335 0 
-4.95701 -1.81429 0 
-4.74981 -1.82087 0 
-4.53849 -1.81382 0 
-4.32339 -1.82717 0 
-4.1143 -1.81894 0 
-3.89799 -1.8302 0 
-3.69024 -1.82844 0 
-3.47861 -1.81965 0 
-3.26246 -1.82897 0 
-3.05403 -1.82324 0 
-2.84336 -1.81829 0 
-2.63334 -1.82005 0 
-2.42473 -1.8233 0 
-2.20556 -1.80852 0 
-1.99074 -1.81671 0 
-1.76517 -1.8073 0 
-1.5364 -1.81244 0 
-1.30781 -1.82225 0 
-1.0637 -1.7951 0 
-0.80957 -1.80942 0 
-0.574629 -1.79199 0 
-0.226582 -1.81886 0 
-0.150969 -1.56456 0 
0.100436 -1.60107 0 
0.354271 -1.75273 0 
0.650478 -1.78099 0 
0.911642 -1.78928 0 
1.14483 -1.81057 0 
1.37951 -1.8249 0 
1.62284 -1.81893 0 
1.86104 -1.85355 0 
2.08566 -1.8064 0 
2.29976 -1.82065 0 
2.51241 -1.81804 0 
2.71845 -1.82895 0 
2.94032 -1.82193 0 
3.15418 -1.81896 0 
3.36448 -1.83943 0 
3.56409 -1.80119 0 
3.75814 -1.83793 0 
3.96218 -1.81405 0 
4.16912 -1.81543 0 
4.38275 -1.81264 0 
4.59902 -1.81053 0 
4.81235 -1.81172 0 
5.02448 -1.81699 0 
5.2381 -1.82222 0 
5.45209 -1.82343 0 
5.66407 -1.82088 0 
5.87832 -1.82565 0 
6.08807 -1.81758 0 
6.29491 -1.8153 0 
6.50058 -1.82836 0 
6.71285 -1.823 0 
6.92551 -1.81462 0 
7.1393 -1.8133 0 
7.36285 -1.81701 0 
7.58979 -1.80758 0 
7.81942 -1.81592 0 
8.06046 -1.81079 0 
8.29851 -1.85602 0 
8.53831 -1.8208 0 
-8.53831 -1.61486 0 
-8.29857 -1.61097 0 
-8.06012 -1.63461 0 
-7.82704 -1.59842 0 
[...]
POINT_DATA 2170 
VECTORS vectors float
-1.17723e-05 -0.000732378 1 
0.000226261 -0.0125952 0.999921 
7.93515e-05 -0.0154598 0.99988 
0.00012999 -0.0158296 0.999875 
0.000113445 -0.0148452 0.99989 
0.000118566 -0.013232 0.999912 
0.000117877 -0.0115419 0.999933 
0.000118271 -0.0098821 0.999951 
0.000118197 -0.00822333 0.999966 
0.00011815 -0.00654835 0.999979 
0.000118413 -0.00487565 0.999988 
0.000118486 -0.00323311 0.999995 
0.000118767 -0.00162206 0.999999 
0.000118857 -2.18595e-05 1 
0.000118823 0.00162381 0.999999 
0.000118574 0.0033926 0.999994 
0.000118207 0.00537953 0.999986 
0.000117636 0.00769116 0.99997 
0.000116891 0.0104641 0.999945 
0.000116232 0.0138466 0.999904 
0.000114468 0.0180475 0.999837 
0.000113533 0.0233163 0.999728 
0.000110755 0.0299678 0.999551 
0.000108452 0.0384094 0.999262 
0.000105168 0.0491366 0.998792 
0.00010052 0.0628142 0.998025 
9.52052e-05 0.0802607 0.996774 
8.81348e-05 0.102497 0.994733 
7.93225e-05 0.130796 0.991409 
6.82594e-05 0.16674 0.986001 
5.42437e-05 0.212217 0.977223 
3.69288e-05 0.26936 0.96304 
1.61664e-05 0.34029 0.94032 
-8.36873e-06 0.426611 0.904435 
-3.45155e-05 0.528518 0.848922 
-5.96761e-05 0.643181 0.765714 
-7.52204e-05 0.762942 0.646467 
-7.78585e-05 0.87416 0.485638 
-5.24209e-05 0.958453 0.285249 
-1.3552e-05 0.998362 0.0572112 
3.56314e-05 0.98428 -0.176613 
7.27096e-05 0.91896 -0.394352 
7.15139e-05 0.818576 -0.574398 
6.92371e-05 0.701933 -0.712243 
5.09373e-05 0.582595 -0.812762 
1.93619e-05 0.473522 -0.880782 
-4.8477e-06 0.379495 -0.925194 
-2.7472e-05 0.301409 -0.953495 
-4.63098e-05 0.237893 -0.971291 
-6.22035e-05 0.18713 -0.982335 
-7.41399e-05 0.146858 -0.989158 
-8.41222e-05 0.115107 -0.993353 
-9.22366e-05 0.0901656 -0.995927 
-9.81522e-05 0.0706026 -0.997505 
-0.000102804 0.055257 -0.998472 
-0.0001072 0.0432238 -0.999065 
-0.00010953 0.0337605 -0.99943 
-0.000112566 0.0263029 -0.999654 
-0.000113959 0.0204093 -0.999792 
-0.000115357 0.0157201 -0.999876 
-0.000116411 0.0119621 -0.999928 
-0.000117366 0.00891244 -0.99996 
-0.000117884 0.00639354 -0.99998 
-0.000118402 0.00426067 -0.999991 
-0.000118825 0.00239728 -0.999997 
-0.000118857 0.000697847 -1 
-0.000118944 -0.00092355 -1 
-0.000118765 -0.00253581 -0.999997 
-0.000118784 -0.00418345 -0.999991 
-0.000118393 -0.00588271 -0.999983 
-0.000118546 -0.00761823 -0.999971 
-0.000118355 -0.00936435 -0.999956 
-0.000118211 -0.0111137 -0.999938 
-0.000117181 -0.0129066 -0.999917 
-0.00011968 -0.0147762 -0.999891 
-0.000107952 -0.016542 -0.999863 
-0.000136989 -0.0174313 -0.999848 
-9.50291e-05 -0.0171481 -0.999853 
-0.000108769 -0.0150157 -0.999887 
-5.33527e-05 -0.00114634 -0.999999 
-0.00015675 0.000473171 1 
0.00614514 -0.00954646 0.999936 
0.00810796 -0.0138382 0.999871 
0.00879651 -0.0153401 0.999844 
0.00926652 -0.0150918 0.999843 
0.00951546 -0.0138843 0.999858 
0.0095691 -0.0121907 0.99988 
0.0098606 -0.0103356 0.999898 
0.00995774 -0.00860808 0.999913 
0.0101046 -0.00687322 0.999925 
0.0101774 -0.00518904 0.999935 
0.0102673 -0.00353573 0.999941 
0.0102974 -0.0019087 0.999945 
0.0102867 -0.000276419 0.999947 
0.0103011 0.00140883 0.999946 
0.0103305 0.00320432 0.999942 
0.0103499 0.00520623 0.999933 
0.0103147 0.00750692 0.999919 
0.010303 0.0102729 0.999894 
0.0101704 0.0135829 0.999856 
0.0101381 0.0177812 0.999791 
0.00997304 0.0229096 0.999688 
0.00986896 0.0295153 0.999516 
0.00977249 0.0377985 0.999238 
0.00956675 0.0481488 0.998794 
0.00941881 0.0615603 0.998059 
0.00931037 0.0784777 0.996872 
0.00917818 0.0999131 0.994954 
0.00907956 0.12711 0.991847 
0.00912001 0.161587 0.986816 
0.00912857 0.20459 0.978805 
0.00943216 0.259491 0.965699 
0.00965925 0.326681 0.945085 
0.0102905 0.411229 0.911474 
0.0111564 0.511668 0.859111 
0.0117772 0.626212 0.779564 
0.0115859 0.74652 0.665262 
0.00996966 0.861319 0.507966 
0.00599138 0.949697 0.313114 
0.00136908 0.996984 0.0775942 
-0.00379022 0.985296 -0.170816 
-0.00829146 0.918025 -0.396436 
-0.0110379 0.820319 -0.571799 
-0.0117449 0.698746 -0.715273 
-0.0117674 0.579495 -0.814891 
-0.0108003 0.467325 -0.88402 
-0.009988 0.370986 -0.928585 
-0.00966943 0.295112 -0.955414 
-0.00908046 0.231145 -0.972877 
-0.00915102 0.182828 -0.983102 
-0.00904127 0.143721 -0.989577 
-0.00909644 0.112891 -0.993566 
-0.00917427 0.0883712 -0.996045 
-0.00939725 0.0694474 -0.997541 
-0.0095197 0.0544543 -0.998471 
-0.0096282 0.0425614 -0.999047 
-0.00980237 0.0332839 -0.999398 
-0.00988294 0.0258429 -0.999617 
-0.0100736 0.0201027 -0.999747 
-0.0101943 0.0155244 -0.999828 
-0.0102761 0.0118319 -0.999877 
-0.0103214 0.00880886 -0.999908 
-0.0103814 0.0063147 -0.999926 
-0.010379 0.00417301 -0.999937 
-0.0104116 0.00230686 -0.999943 
-0.0104351 0.000604092 -0.999945 
-0.0104336 -0.00101186 -0.999945 
-0.0103981 -0.00261519 -0.999943 
-0.010368 -0.00423343 -0.999937 
-0.0103127 -0.00589186 -0.999929 
-0.0102171 -0.00759941 -0.999919 
-0.0101605 -0.00931681 -0.999905 
-0.0100532 -0.0110662 -0.999888 
-0.00986115 -0.0128798 -0.999868 
-0.00963923 -0.0146652 -0.999846 
-0.00935684 -0.0161017 -0.999827 
-0.00887315 -0.0168058 -0.999819 
-0.00795311 -0.016443 -0.999833 
-0.005357 -0.0129915 -0.999901 
0.000245049 0.00039915 -1 
0.000329332 -0.000125113 1 
0.00745574 -0.0119222 0.999901 
0.00984654 -0.0150695 0.999838 
0.0109423 -0.0153246 0.999823 
0.0116696 -0.0147977 0.999822 
0.0121211 -0.0135255 0.999835 
0.0123797 -0.0117296 0.999855 
0.0127024 -0.00982871 0.999871 
0.0128864 -0.00811148 0.999884 
0.0130346 -0.00640165 0.999895 
0.0131655 -0.0047894 0.999902 
0.0132656 -0.00317842 0.999907 
0.0133288 -0.00155939 0.99991 
0.0133736 7.78501e-05 0.999911 
0.0134159 0.00176272 0.999908 
0.0134306 0.00357906 0.999903 
0.0134316 0.00560437 0.999894 
0.0133748 0.0079684 0.999879 
0.0133557 0.0107692 0.999853 
0.0132173 0.0142531 0.999811 
0.013152 0.0184671 0.999743 
0.0129913 0.0238946 0.99963 
0.0129153 0.0306628 0.999446 
0.0128506 0.0391237 0.999152 
0.0127083 0.0500329 0.998667 
0.0127351 0.0637322 0.997886 
0.0128333 0.0812624 0.99661 
0.0130549 0.103501 0.994544 
0.0134948 0.131732 0.991193 
0.0142989 0.16683 0.985882 
0.0152837 0.212524 0.977036 
0.0170995 0.268791 0.963047 
0.0188654 0.341754 0.9396 
0.0218852 0.4301 0.902516 
0.0251691 0.537611 0.842817 
0.0279327 0.657247 0.753157 
0.0272716 0.7845 0.619529 
0.0219828 0.899972 0.435393 
0.0108778 0.976107 0.21702 
-0.00287746 0.998803 -0.048839 
-0.0161767 0.950374 -0.310689 
-0.0327929 0.933523 -0.357014 
-0.0278058 0.849667 -0.526585 
-0.0275115 0.734008 -0.678583 
-0.0272446 0.606505 -0.794613 
-0.0235305 0.488741 -0.872112 
-0.0201067 0.385874 -0.922332 
-0.0181777 0.302387 -0.953012 
-0.0155759 0.238286 -0.97107 
-0.0148186 0.185437 -0.982544 
-0.0137638 0.146607 -0.989099 
-0.0131819 0.115086 -0.993268 
-0.0128255 0.0905008 -0.995814 
-0.0127727 0.0706841 -0.997417 
-0.0127397 0.0554718 -0.998379 
-0.0127656 0.0435001 -0.998972 
-0.0128598 0.0339068 -0.999342 
-0.0129254 0.0264564 -0.999566 
-0.0130734 0.0204098 -0.999706 
-0.0131993 0.0158097 -0.999788 
-0.0132829 0.0120741 -0.999839 
-0.0133575 0.00903113 -0.99987 
-0.0134285 0.00649195 -0.999889 
-0.0134491 0.00434432 -0.9999 
-0.0134793 0.00243516 -0.999906 
-0.0134975 0.000716744 -0.999909 
-0.0134813 -0.000925789 -0.999909 
-0.0134391 -0.00251462 -0.999907 
-0.013375 -0.00411795 -0.999902 
-0.0132927 -0.00573315 -0.999895 
-0.0131458 -0.00740115 -0.999886 
-0.0130211 -0.00910623 -0.999874 
-0.0128129 -0.0108673 -0.999859 
-0.0125009 -0.0126979 -0.999841 
-0.0120927 -0.0144636 -0.999822 
-0.0115058 -0.0157201 -0.99981 
-0.010708 -0.0164587 -0.999807 
-0.00932359 -0.0164474 -0.999821 
-0.00663317 -0.0130328 -0.999893 
-0.000440397 -1.14628e-06 -1 
-0.000138267 0.000302832 1 
0.00744062 -0.0129707 0.999888 
0.00958497 -0.0156112 0.999832 
0.0107666 -0.0154341 0.999823 
0.0116128 -0.0149258 0.999821 
0.0122187 -0.0136199 0.999833 
0.0127054 -0.0118029 0.99985 
0.0129391 -0.00987083 0.999868 
0.0131508 -0.00804626 0.999881 
0.0133273 -0.00645213 0.99989 
0.0134537 -0.00484819 0.999898 
0.0135792 -0.00327377 0.999902 
0.0136944 -0.00165318 0.999905 
0.0137825 5.43726e-06 0.999905 
0.0138157 0.00171312 0.999903 
0.0138333 0.00352166 0.999898 
0.0138237 0.00555537 0.999889 
0.013792 0.00790371 0.999874 
0.0137437 0.0107013 0.999848 
0.0136886 0.0140912 0.999807 
0.0136317 0.0182858 0.99974 
0.0135914 0.023607 0.999629 
0.0135337 0.0302492 0.999451 
0.0135322 0.0386189 0.999162 
0.0136303 0.0493058 0.998691 
0.0138839 0.0627937 0.99793 
0.0143128 0.0797121 0.996715 
0.015058 0.101681 0.994703 
0.0162054 0.129204 0.991486 
0.0180577 0.16456 0.986202 
0.0203978 0.209318 0.977635 
0.0241656 0.264673 0.964035 
0.0280105 0.33504 0.941787 
0.0340183 0.42602 0.904074 
0.0411607 0.531366 0.846142 
0.0466278 0.657783 0.751763 
0.0460878 0.792469 0.608169 
0.0386734 0.902774 0.428372 
0.0158091 0.984301 0.175786 
0.0131609 0.998205 0.058432 
-0.00989357 0.994381 -0.105395 
-0.0451601 0.955241 -0.292363 
-0.0540664 0.835951 -0.546135 
-0.0487962 0.730113 -0.681582 
-0.0452727 0.608509 -0.792254 
-0.0378173 0.488244 -0.871887 
-0.0306851 0.386223 -0.921895 
-0.0260578 0.299475 -0.953748 
-0.0212859 0.233098 -0.97222 
-0.0190311 0.182009 -0.983113 
-0.0168391 0.142967 -0.989584 
-0.0154915 0.112966 -0.993478 
-0.0145172 0.0886684 -0.995955 
-0.0140783 0.0700127 -0.997447 
-0.0137184 0.0552578 -0.998378 
-0.0135389 0.0431241 -0.998978 
-0.0135352 0.0340314 -0.999329 
-0.0135337 0.0266336 -0.999554 
-0.0135735 0.02075 -0.999693 
-0.0136291 0.0160211 -0.999779 
-0.0136986 0.0122765 -0.999831 
-0.0137673 0.00919243 -0.999863 
-0.0138161 0.00664209 -0.999882 
-0.013867 0.00446002 -0.999894 
-0.0138898 0.0025514 -0.9999 
-0.0138867 0.000789548 -0.999903 
-0.0138607 -0.0008544 -0.999904 
-0.0138052 -0.00247991 -0.999902 
-0.0137184 -0.00406 -0.999898 
-0.0136052 -0.00566279 -0.999891 
-0.0134725 -0.00729677 -0.999883 
-0.0132662 -0.00899073 -0.999872 
-0.0129872 -0.0107593 -0.999858 
-0.0126284 -0.0126176 -0.999841 
-0.0121241 -0.0143816 -0.999823 
-0.0113958 -0.0156296 -0.999813 
-0.0104313 -0.0163594 -0.999812 
-0.00909856 -0.0163976 -0.999824 
-0.00697987 -0.0131475 -0.999889 
-0.000145605 8.07192e-05 -1 
0.00490173 -0.00938874 0.999944 
0.00799166 -0.0151844 0.999853 
0.00946664 -0.0159209 0.999828 
0.0105203 -0.0154983 0.999825 
0.011404 -0.0147448 0.999826 
0.0118589 -0.0133721 0.99984 
0.0123532 -0.0117194 0.999855 
0.0124458 -0.0101136 0.999871 
0.0127993 -0.00844879 0.999882 
0.0129139 -0.00673824 0.999894 
0.0130934 -0.00511727 0.999901 
0.013238 -0.00350793 0.999906 
0.0133813 -0.00190409 0.999909 
0.0135293 -0.000214252 0.999908 
0.0135385 0.00154583 0.999907 
0.0135798 0.0034015 0.999902 
0.0135806 0.00541704 0.999893 
0.0135692 0.00778209 0.999878 
0.0135154 0.010576 0.999853 
0.0134982 0.013965 0.999811 
0.013494 0.0181889 0.999744 
0.0134896 0.0233183 0.999637 
0.0135537 0.0298566 0.999462 
0.0137084 0.0380081 0.999183 
0.0139649 0.0481608 0.998742 
0.0144346 0.0609082 0.998039 
0.0152072 0.0769555 0.996919 
0.0163554 0.097034 0.995147 
0.0182077 0.123217 0.992213 
0.0208908 0.155617 0.987597 
0.0244417 0.197027 0.980093 
0.029845 0.24733 0.968472 
0.0360537 0.312673 0.949176 
0.0441697 0.392351 0.918754 
0.0561023 0.492609 0.868441 
0.0662953 0.612746 0.787494 
0.0711239 0.752638 0.654582 
0.0681196 0.877636 0.474462 
0.034977 0.968781 0.245439 
0.0152399 0.999346 0.0327933 
-0.00462175 0.999573 -0.028844 
-0.0573093 0.974851 -0.215363 
-0.080425 0.847683 -0.524371 
-0.0758485 0.698772 -0.711312 
-0.0635455 0.571558 -0.818097 
-0.0516776 0.458552 -0.887164 
-0.0407508 0.367143 -0.929271 
-0.0345067 0.291615 -0.955913 
-0.0270114 0.233343 -0.972019 
-0.0232489 0.181729 -0.983074 
-0.0197425 0.143247 -0.98949 
-0.0174274 0.112792 -0.993466 
-0.0158107 0.0893582 -0.995874 
-0.0148627 0.0704576 -0.997404 
-0.0141868 0.0553461 -0.998366 
-0.0137939 0.0438136 -0.998944 
-0.0135501 0.0341708 -0.999324 
-0.0135062 0.0269147 -0.999546 
-0.0134639 0.0210242 -0.999688 
-0.0134648 0.0162874 -0.999777 
-0.0134951 0.0124285 -0.999832 
-0.0135543 0.00935682 -0.999864 
-0.0135562 0.00675455 -0.999885 
-0.0136357 0.00457274 -0.999897 
-0.0136433 0.00263291 -0.999903 
-0.0136317 0.00086161 -0.999907 
-0.0135979 -0.000825489 -0.999907 
-0.0135389 -0.00244569 -0.999905 
-0.0134266 -0.00406634 -0.999902 
-0.0132793 -0.00564135 -0.999896 
-0.0131695 -0.00727846 -0.999887 
-0.0129157 -0.00894837 -0.999877 
-0.0125983 -0.0107284 -0.999863 
-0.0122064 -0.0126059 -0.999846 
-0.011665 -0.0143862 -0.999828 
-0.0108954 -0.0157094 -0.999817 
-0.00983887 -0.0163467 -0.999818 
-0.00849231 -0.0163865 -0.99983 
-0.00669614 -0.0131547 -0.999891 
-0.000191834 6.16767e-05 -1 
-0.000109731 0.000234818 1 
0.00619528 -0.0130669 0.999895 
0.00829145 -0.0161677 0.999835 
0.00940823 -0.0159012 0.999829 
0.0104838 -0.0152922 0.999828 
0.0108292 -0.0139213 0.999844 
0.0114326 -0.0119592 0.999863 
0.0115959 -0.0100076 0.999883 
0.0120105 -0.00825961 0.999894 
0.0120757 -0.00660441 0.999905 
0.012275 -0.00501502 0.999912 
0.0124306 -0.00343027 0.999917 
0.0126417 -0.00186015 0.999918 
0.0127928 -0.000238665 0.999918 
0.0127956 0.00143967 0.999917 
0.012814 0.00321752 0.999913 
0.0127729 0.00523566 0.999905 
0.0128052 0.00749342 0.99989 
0.0127562 0.0102004 0.999867 
0.0128159 0.0135336 0.999826 
0.0128032 0.0174951 0.999765 
0.012907 0.0225725 0.999662 
0.013033 0.0286403 0.999505 
0.0132525 0.0363397 0.999252 
0.0137121 0.046266 0.998835 
0.0143754 0.0582206 0.9982 
0.0154376 0.0733805 0.997185 
0.0170413 0.0924311 0.995573 
0.0193551 0.116202 0.993037 
0.0229709 0.147215 0.988838 
0.0277887 0.186046 0.982148 
0.0352062 0.23734 0.970788 
0.0448633 0.302752 0.952013 
0.0572569 0.386248 0.920616 
0.0760414 0.491109 0.867773 
0.0929836 0.62793 0.772696 
0.106653 0.763541 0.636891 
0.0714523 0.951655 0.298744 
0.132002 0.954048 0.269014 
-0.0895516 0.978818 -0.18411 
-0.110776 0.879911 -0.462045 
-0.10734 0.711308 -0.694636 
-0.088241 0.564376 -0.820788 
-0.0687015 0.452211 -0.889261 
-0.0526066 0.356398 -0.932852 
-0.0405403 0.275482 -0.960451 
-0.0308221 0.214995 -0.976129 
-0.0253694 0.166756 -0.985672 
-0.0210945 0.13255 -0.990952 
-0.0181957 0.105044 -0.994301 
-0.0162299 0.0839497 -0.996338 
-0.0148272 0.0656881 -0.99773 
-0.0139439 0.0518585 -0.998557 
-0.0134931 0.0412016 -0.99906 
-0.0130159 0.0327944 -0.999377 
-0.0129897 0.0263934 -0.999567 
-0.0128162 0.0208714 -0.9997 
-0.0127612 0.0162969 -0.999786 
-0.0127286 0.0124708 -0.999841 
-0.0127115 0.00929583 -0.999876 
-0.0127713 0.00671705 -0.999896 
-0.0127838 0.00449576 -0.999908 
-0.0128318 0.00253845 -0.999914 
-0.0128287 0.000740684 -0.999917 
-0.0127759 -0.000949777 -0.999918 
-0.0127306 -0.00260797 -0.999916 
-0.0125846 -0.00420702 -0.999912 
-0.0124444 -0.00577317 -0.999906 
-0.0123039 -0.00731812 -0.999898 
-0.0120568 -0.0090005 -0.999887 
-0.0117255 -0.0107825 -0.999873 
-0.0113508 -0.0126869 -0.999855 
-0.0108772 -0.0145818 -0.999835 
-0.0101836 -0.0159206 -0.999821 
-0.00924689 -0.0164618 -0.999822 
-0.00787337 -0.0164292 -0.999834 
-0.00621578 -0.0131668 -0.999894 
-0.000173645 6.81604e-05 -1 
0.000239268 -6.08276e-06 1 
0.00555102 -0.0131673 0.999898 
0.00729073 -0.016119 0.999843 
0.00818231 -0.0161645 0.999836 
0.00919956 -0.0155641 0.999837 
0.00950061 -0.0142047 0.999854 
0.0101194 -0.0121554 0.999875 
0.0102625 -0.0100875 0.999896 
0.0106277 -0.0081655 0.99991 
0.0106546 -0.00652335 0.999922 
0.0108783 -0.0049123 0.999929 
0.0109831 -0.00333655 0.999934 
0.0112291 -0.00173098 0.999935 
0.0114202 -8.29997e-05 0.999935 
0.0113409 0.00163133 0.999934 
0.0114028 0.00348758 0.999929 
0.0113358 0.00553754 0.99992 
0.0114165 0.00788908 0.999904 
0.0114489 0.0108252 0.999876 
0.011482 0.0141318 0.999834 
0.0115938 0.0184687 0.999762 
0.0117052 0.0234948 0.999655 
0.0119565 0.029812 0.999484 
0.0123995 0.0381646 0.999195 
0.0130192 0.0479753 0.998764 
0.0140168 0.060359 0.998078 
0.0155486 0.0759917 0.996987 
0.01781 0.0954384 0.995276 
0.0211074 0.120273 0.992516 
0.0261918 0.152631 0.987936 
0.0329908 0.192486 0.980745 
0.0433326 0.24575 0.968364 
0.0572889 0.313316 0.947919 
0.0760523 0.398925 0.913824 
0.105232 0.524576 0.844835 
0.137473 0.649389 0.747927 
0.123406 0.861396 0.492714 
0.230462 0.848643 0.476122 
-0.205174 0.882752 -0.422673 
-0.156582 0.777975 -0.608471 
-0.131265 0.622469 -0.771558 
-0.102015 0.493163 -0.863935 
-0.0759706 0.395486 -0.915325 
-0.0561526 0.311643 -0.948539 
-0.0446154 0.248011 -0.967729 
-0.0347982 0.208848 -0.977329 
-0.0292277 0.169177 -0.985152 
-0.0233011 0.135185 -0.990546 
-0.0193577 0.107967 -0.993966 
-0.0165415 0.0854656 -0.996204 
-0.014761 0.0685041 -0.997542 
-0.0133652 0.0533701 -0.998485 
-0.0126056 0.0420022 -0.999038 
-0.0119861 0.0326515 -0.999395 
-0.0117159 0.025247 -0.999613 
-0.0114708 0.0198371 -0.999737 
-0.0114311 0.0154197 -0.999816 
-0.0113916 0.0117441 -0.999866 
-0.011344 0.00874547 -0.999897 
-0.0113482 0.00625984 -0.999916 
-0.0114042 0.00409589 -0.999927 
-0.0114377 0.00217068 -0.999932 
-0.0114001 0.000409811 -0.999935 
-0.0113704 -0.00130122 -0.999935 
-0.0112754 -0.00291349 -0.999932 
-0.0111009 -0.00450076 -0.999928 
-0.0109368 -0.00605864 -0.999922 
-0.0108677 -0.00762075 -0.999912 
-0.0105879 -0.00928195 -0.999901 
-0.0102475 -0.0110674 -0.999886 
-0.00993774 -0.0130228 -0.999866 
-0.00952603 -0.0148889 -0.999844 
-0.00887737 -0.0161479 -0.99983 
-0.00808086 -0.0166488 -0.999829 
-0.00687137 -0.0164544 -0.999841 
-0.00544118 -0.0130064 -0.999901 
-0.0001489 6.48766e-05 -1 
0.000101156 0.000103078 1 
0.00462697 -0.0130802 0.999904 
0.00617339 -0.016272 0.999849 
0.00690428 -0.0163276 0.999843 
0.00781185 -0.0156458 0.999847 
0.0079936 -0.0142575 0.999866 
0.00865774 -0.0123082 0.999887 
0.00866135 -0.010378 0.999909 
0.00912071 -0.00854197 0.999922 
0.00905503 -0.00682489 0.999936 
0.00928505 -0.00520733 0.999943 
0.00932991 -0.00358557 0.99995 
0.00955872 -0.00196133 0.999952 
0.00979254 -0.000332528 0.999952 
0.00971038 0.00135052 0.999952 
0.00977552 0.00317132 0.999947 
0.00972983 0.00514563 0.999939 
0.00980435 0.00742564 0.999924 
0.00995719 0.0100698 0.9999 
0.00988882 0.0133316 0.999862 
0.0101287 0.017121 0.999802 
0.0101785 0.0218861 0.999709 
0.0104693 0.027556 0.999565 
0.0110038 0.0347862 0.999334 
0.0115918 0.0437441 0.998976 
0.0126074 0.054599 0.998429 
0.0141334 0.0681422 0.997576 
0.0164045 0.0851889 0.99623 
0.0197388 0.106577 0.994109 
0.0244653 0.133094 0.990801 
0.0316768 0.167647 0.985338 
0.0413346 0.210033 0.97682 
0.0559685 0.265751 0.962416 
0.0760009 0.335076 0.939121 
0.104752 0.435956 0.893851 
0.150176 0.538654 0.829035 
0.18171 0.742108 0.64518 
0.294825 0.702643 0.647589 
-0.277874 0.758818 -0.589051 
-0.193037 0.663084 -0.723226 
-0.141125 0.518639 -0.843266 
-0.0989515 0.40158 -0.910462 
-0.069987 0.320021 -0.944822 
-0.0523894 0.248961 -0.967095 
-0.0377965 0.196121 -0.979851 
-0.0281738 0.151268 -0.988091 
-0.0223718 0.122122 -0.992263 
-0.0182338 0.0978732 -0.995032 
-0.0152836 0.0778332 -0.996849 
-0.0135066 0.0623503 -0.997963 
-0.0119988 0.0496742 -0.998693 
-0.0114122 0.0405467 -0.999112 
-0.0105734 0.0328809 -0.999403 
-0.0104917 0.026547 -0.999593 
-0.0100508 0.0207345 -0.999734 
-0.00992184 0.0161237 -0.999821 
-0.00988639 0.0124068 -0.999874 
-0.00980174 0.00929547 -0.999909 
-0.00975551 0.00669959 -0.99993 
-0.00980798 0.00447331 -0.999942 
-0.00984129 0.00250604 -0.999948 
-0.00979335 0.000696594 -0.999952 
-0.00979557 -0.00102709 -0.999951 
-0.00966107 -0.00270929 -0.99995 
-0.00951996 -0.00430965 -0.999945 
-0.00934877 -0.00590735 -0.999939 
-0.00926569 -0.0075079 -0.999929 
-0.00904661 -0.00912196 -0.999917 
-0.00872253 -0.0109047 -0.999902 
-0.00845063 -0.0128599 -0.999882 
-0.0081115 -0.0147821 -0.999858 
-0.00760918 -0.0161267 -0.999841 
-0.00694722 -0.0167172 -0.999836 
-0.00597304 -0.0167202 -0.999842 
-0.0046422 -0.0130656 -0.999904 
-0.000119212 6.77047e-05 -1 
0.000100191 6.16846e-05 1 
0.0038337 -0.0131677 0.999906 
0.0050928 -0.0164071 0.999852 
0.00565188 -0.0164149 0.999849 