# vtk DataFile Version 3.0 
Exported using Morpho https://github.com/Morpho-lang/morpho 
ASCII 
DATASET UNSTRUCTURED_GRID 

POINTS 2224 float 
-8.32618 -2.88146 0 
-8.11405 -2.88146 0 
-7.90192 -2.88146 0 
-7.68979 -2.88146 0 
-7.47765 -2.88146 0 
-7.26552 -2.88146 0 
-7.05339 -2.88146 0 
-6.84126 -2.88146 0 
-6.62913 -2.88146 0 
-6.41699 -2.88146 0 
-6.20486 -2.88146 0 
-5.99273 -2.88146 0 
-5.7806 -2.88146 0 
-5.56847 -2.88146 0 
-5.35633 -2.88146 0 
-5.1442 -2.88146 0 
-4.93207 -2.88146 0 
-4.71994 -2.88146 0 
-4.50781 -2.88146 0 
-4.29567 -2.88146 0 
-4.08354 -2.88146 0 
-3.87141 -2.88146 0 
-3.65928 -2.88146 0 
-3.44715 -2.88146 0 
-3.23501 -2.88146 0 
-3.02288 -2.88146 0 
-2.81075 -2.88146 0 
-2.59862 -2.88146 0 
-2.38649 -2.88146 0 
-2.17435 -2.88146 0 
-1.96222 -2.88146 0 
-1.75009 -2.88146 0 
-1.53796 -2.88146 0 
-1.32583 -2.88146 0 
-1.11369 -2.88146 0 
-0.901561 -2.88146 0 
-0.689429 -2.88146 0 
-0.477297 -2.88146 0 
-0.265165 -2.88146 0 
-0.053033 -2.88146 0 
0.159099 -2.88146 0 
0.371231 -2.88146 0 
0.583363 -2.88146 0 
0.795495 -2.88146 0 
1.00763 -2.88146 0 
1.21976 -2.88146 0 
1.43189 -2.88146 0 
1.64402 -2.88146 0 
1.85616 -2.88146 0 
2.06829 -2.88146 0 
2.28042 -2.88146 0 
2.49255 -2.88146 0 
2.70468 -2.88146 0 
2.91682 -2.88146 0 
3.12895 -2.88146 0 
3.34108 -2.88146 0 
3.55321 -2.88146 0 
3.76534 -2.88146 0 
3.97748 -2.88146 0 
4.18961 -2.88146 0 
4.40174 -2.88146 0 
4.61387 -2.88146 0 
4.826 -2.88146 0 
5.03814 -2.88146 0 
5.25027 -2.88146 0 
5.4624 -2.88146 0 
5.67453 -2.88146 0 
5.88666 -2.88146 0 
6.0988 -2.88146 0 
6.31093 -2.88146 0 
6.52306 -2.88146 0 
6.73519 -2.88146 0 
6.94732 -2.88146 0 
7.15946 -2.88146 0 
7.37159 -2.88146 0 
7.58372 -2.88146 0 
7.79585 -2.88146 0 
8.00798 -2.88146 0 
8.22012 -2.88146 0 
8.53831 -2.88146 0 
-8.53831 -2.73859 0 
-8.28629 -2.66961 0 
-8.05589 -2.66327 0 
-7.83016 -2.67056 0 
-7.5921 -2.67943 0 
-7.34637 -2.68507 0 
-7.10973 -2.67567 0 
-6.87982 -2.67272 0 
-6.65554 -2.6653 0 
-6.43498 -2.66486 0 
-6.21427 -2.66564 0 
-5.99295 -2.6626 0 
-5.77218 -2.66902 0 
-5.55475 -2.66957 0 
-5.34213 -2.66956 0 
-5.12584 -2.67392 0 
-4.91676 -2.66782 0 
-4.69878 -2.67543 0 
-4.49339 -2.66464 0 
-4.27977 -2.66846 0 
-4.07047 -2.66354 0 
-3.85566 -2.66686 0 
-3.64669 -2.66342 0 
-3.43809 -2.66471 0 
-3.23227 -2.65947 0 
-3.02579 -2.66876 0 
-2.81557 -2.6697 0 
-2.60161 -2.66848 0 
-2.3912 -2.67165 0 
-2.1789 -2.6729 0 
-1.96597 -2.67231 0 
-1.76033 -2.68345 0 
-1.53883 -2.67105 0 
-1.31042 -2.68348 0 
-1.10889 -2.66404 0 
-0.897856 -2.67501 0 
-0.681012 -2.67208 0 
-0.478216 -2.65814 0 
-0.246334 -2.67591 0 
-0.0380117 -2.66105 0 
0.182491 -2.66875 0 
0.394844 -2.66293 0 
0.611985 -2.66913 0 
0.829643 -2.67216 0 
1.05182 -2.67403 0 
1.26065 -2.66595 0 
1.47947 -2.67412 0 
1.69116 -2.67008 0 
1.90147 -2.66789 0 
2.11234 -2.66793 0 
2.3257 -2.67045 0 
2.5383 -2.67128 0 
2.74969 -2.6697 0 
2.96087 -2.67035 0 
3.17381 -2.67016 0 
3.38334 -2.66791 0 
3.59431 -2.6699 0 
3.80261 -2.66699 0 
4.015 -2.67172 0 
4.22661 -2.67112 0 
4.43814 -2.67111 0 
4.65183 -2.67342 0 
4.86366 -2.67255 0 
5.07251 -2.66907 0 
5.28233 -2.66945 0 
5.49191 -2.66913 0 
5.70099 -2.6684 0 
5.91104 -2.6692 0 
6.11922 -2.66662 0 
6.32598 -2.66454 0 
6.53603 -2.6667 0 
6.74627 -2.66607 0 
6.96054 -2.66891 0 
7.17434 -2.66774 0 
7.3887 -2.66496 0 
7.60255 -2.65955 0 
7.81457 -2.65407 0 
8.0278 -2.64491 0 
8.28987 -2.71074 0 
8.53831 -2.66933 0 
-8.43046 -2.51163 0 
-8.17163 -2.45782 0 
-7.93402 -2.45108 0 
-7.69952 -2.48163 0 
-7.43905 -2.5031 0 
-7.33548 -2.31173 0 
-7.18503 -2.48487 0 
-6.94007 -2.47328 0 
-6.71036 -2.45709 0 
-6.48397 -2.4512 0 
-6.26065 -2.45337 0 
-6.03659 -2.45412 0 
-5.80962 -2.4595 0 
-5.58815 -2.45981 0 
-5.36995 -2.45516 0 
-5.15869 -2.46677 0 
-4.94542 -2.45378 0 
-4.73076 -2.47182 0 
-4.5152 -2.44595 0 
-4.30539 -2.45844 0 
-4.08877 -2.44764 0 
-3.87262 -2.45738 0 
-3.65163 -2.44495 0 
-3.44035 -2.44482 0 
-3.22757 -2.44546 0 
-3.01239 -2.45251 0 
-2.79463 -2.46067 0 
-2.57975 -2.45617 0 
-2.36459 -2.46301 0 
-2.14702 -2.4667 0 
-1.9386 -2.45933 0 
-1.72614 -2.48512 0 
-1.54354 -2.42389 0 
-1.36288 -2.4919 0 
-1.14587 -2.44105 0 
-0.938313 -2.46518 0 
-0.725186 -2.46427 0 
-0.514917 -2.42792 0 
-0.303656 -2.47841 0 
-0.0795855 -2.43641 0 
0.132248 -2.45606 0 
0.347684 -2.44276 0 
0.562368 -2.45441 0 
0.777594 -2.46158 0 
0.997969 -2.47414 0 
1.22052 -2.44749 0 
1.43275 -2.46898 0 
1.64953 -2.45747 0 
1.85857 -2.45321 0 
2.06776 -2.45341 0 
2.27887 -2.45971 0 
2.49178 -2.4603 0 
2.70228 -2.45808 0 
2.91376 -2.45747 0 
3.124 -2.46097 0 
3.33712 -2.45339 0 
3.54703 -2.45682 0 
3.7547 -2.4515 0 
3.96572 -2.46066 0 
4.17688 -2.4613 0 
4.39046 -2.4613 0 
4.60577 -2.46668 0 
4.82166 -2.46399 0 
5.03399 -2.45649 0 
5.24545 -2.45694 0 
5.45656 -2.4565 0 
5.66754 -2.4551 0 
5.87894 -2.45685 0 
6.08968 -2.45191 0 
6.29954 -2.44629 0 
6.50793 -2.45168 0 
6.71857 -2.45125 0 
6.93256 -2.4581 0 
7.14944 -2.45554 0 
7.36629 -2.45132 0 
7.58478 -2.44106 0 
7.80416 -2.4253 0 
8.04655 -2.44046 0 
8.28923 -2.50607 0 
8.53831 -2.4572 0 
-8.53831 -2.27337 0 
-8.32487 -2.29293 0 
-8.07578 -2.24808 0 
-7.8287 -2.25461 0 
-7.58215 -2.31412 0 
-7.32235 -2.12845 0 
-7.08193 -2.28772 0 
-6.85667 -2.25778 0 
-6.63245 -2.24299 0 
-6.41019 -2.23815 0 
-6.1891 -2.24302 0 
-5.96538 -2.24958 0 
-5.74732 -2.24968 0 
-5.53276 -2.24775 0 
-5.32221 -2.24063 0 
-5.12285 -2.24988 0 
-4.93588 -2.2114 0 
-4.75262 -2.26081 0 
-4.54704 -2.23826 0 
-4.33049 -2.24073 0 
-4.12528 -2.23872 0 
-3.90542 -2.24592 0 
-3.69041 -2.24127 0 
-3.46697 -2.22806 0 
-3.25802 -2.22852 0 
-3.0469 -2.24065 0 
-2.83172 -2.25107 0 
-2.61769 -2.24601 0 
-2.4022 -2.25145 0 
-2.19 -2.26056 0 
-1.97753 -2.24541 0 
-1.76788 -2.2668 0 
-1.53148 -2.23057 0 
-1.30273 -2.27379 0 
-1.09951 -2.19648 0 
-0.921901 -2.25353 0 
-0.72026 -2.24155 0 
-0.49575 -2.21611 0 
-0.272444 -2.26739 0 
-0.0480487 -2.20679 0 
0.151636 -2.23552 0 
0.358598 -2.21339 0 
0.568792 -2.23684 0 
0.794381 -2.2546 0 
1.01888 -2.27037 0 
1.24622 -2.23745 0 
1.4603 -2.26087 0 
1.67035 -2.24056 0 
1.88069 -2.23779 0 
2.09471 -2.24204 0 
2.30836 -2.25021 0 
2.5178 -2.24682 0 
2.72978 -2.24654 0 
2.93996 -2.24428 0 
3.15146 -2.25057 0 
3.36406 -2.24036 0 
3.56691 -2.23865 0 
3.78024 -2.24062 0 
3.98766 -2.24786 0 
4.20006 -2.25199 0 
4.40536 -2.24452 0 
4.61188 -2.25998 0 
4.81812 -2.24841 0 
5.02536 -2.24509 0 
5.23697 -2.24488 0 
5.44829 -2.24379 0 
5.65854 -2.24255 0 
5.86979 -2.24517 0 
6.08134 -2.23897 0 
6.29185 -2.23268 0 
6.50384 -2.23552 0 
6.71276 -2.23617 0 
6.92476 -2.24659 0 
7.14092 -2.24521 0 
7.35937 -2.23844 0 
7.5769 -2.2243 0 
7.81375 -2.22131 0 
8.05412 -2.23432 0 
8.29552 -2.2943 0 
8.53831 -2.24506 0 
-8.4261 -2.0452 0 
-8.21797 -2.07048 0 
-7.96076 -2.05435 0 
-7.74802 -2.00844 0 
-7.58383 -2.12359 0 
-7.41101 -1.9506 0 
-7.10521 -2.07807 0 
-6.89295 -2.04014 0 
-6.67486 -2.03335 0 
-6.44984 -2.02635 0 
-6.22547 -2.03065 0 
-6.00289 -2.04073 0 
-5.78153 -2.03837 0 
-5.56429 -2.0356 0 
-5.35074 -2.0262 0 
-5.14122 -2.01911 0 
-4.92009 -2.00689 0 
-4.70484 -2.03556 0 
-4.4842 -2.03244 0 
-4.27956 -2.01934 0 
-4.05862 -2.03717 0 
-3.84275 -2.03486 0 
-3.61994 -2.03618 0 
-3.40535 -2.00933 0 
-3.19274 -2.01715 0 
-2.9802 -2.03377 0 
-2.77105 -2.0378 0 
-2.55485 -2.03804 0 
-2.34353 -2.04076 0 
-2.13905 -2.04523 0 
-1.9256 -2.03549 0 
-1.71596 -2.06662 0 
-1.52253 -1.99504 0 
-1.32971 -2.06767 0 
-1.10251 -1.9928 0 
-0.871235 -2.0175 0 
-0.659967 -2.0238 0 
-0.40586 -2.02403 0 
-0.204425 -2.03846 0 
-0.0417589 -1.89822 0 
0.116661 -1.97718 0 
0.29736 -1.9815 0 
0.511872 -2.00362 0 
0.726569 -2.03863 0 
0.949439 -2.05777 0 
1.16187 -2.05195 0 
1.40969 -2.04137 0 
1.61256 -2.02989 0 
1.82764 -2.02341 0 
2.04221 -2.03163 0 
2.26004 -2.0389 0 
2.47194 -2.03315 0 
2.6832 -2.03615 0 
2.89691 -2.03222 0 
3.11157 -2.03863 0 
3.32301 -2.03464 0 
3.54022 -2.01679 0 
3.74394 -2.03306 0 
3.96227 -2.03076 0 
4.16972 -2.04214 0 
4.38221 -2.02788 0 
4.59198 -2.04538 0 
4.80169 -2.03292 0 
5.00919 -2.02984 0 
5.21987 -2.03322 0 
5.43292 -2.03219 0 
5.64587 -2.02942 0 
5.85763 -2.03379 0 
6.07022 -2.02782 0 
6.2832 -2.01992 0 
6.4949 -2.02488 0 
6.70902 -2.02023 0 
6.92019 -2.03307 0 
7.13464 -2.03417 0 
7.35095 -2.02401 0 
7.58251 -2.02042 0 
7.81828 -2.01589 0 
8.05734 -2.02718 0 
8.29741 -2.08129 0 
8.53831 -2.03293 0 
-8.53831 -1.83187 0 
-8.30671 -1.8199 0 
-8.08596 -1.87283 0 
-7.85722 -1.80985 0 
-7.5837 -1.84427 0 
-7.33684 -1.72301 0 
-7.17834 -1.87321 0 
-6.96282 -1.82722 0 
-6.74159 -1.81659 0 
-6.52072 -1.8168 0 
-6.29308 -1.81944 0 
-6.06718 -1.82797 0 
-5.84734 -1.82931 0 
-5.6271 -1.82518 0 
-5.41166 -1.81587 0 
-5.19804 -1.80506 0 
-4.98617 -1.80746 0 
-4.75663 -1.819 0 
-4.54658 -1.83336 0 
-4.32846 -1.80174 0 
-4.11346 -1.83238 0 
-3.89188 -1.82782 0 
-3.66984 -1.83617 0 
-3.4503 -1.80395 0 
-3.22881 -1.80345 0 
-3.01391 -1.8193 0 
-2.80302 -1.82181 0 
-2.59242 -1.8309 0 
-2.37443 -1.82785 0 
-2.16256 -1.82453 0 
-1.95938 -1.82712 0 
-1.73993 -1.84516 0 
-1.51257 -1.78942 0 
-1.29423 -1.8494 0 
-1.11491 -1.7384 0 
-0.923622 -1.80612 0 
-0.706415 -1.79334 0 
-0.491876 -1.83779 0 
-0.251771 -1.79095 0 
-0.0431709 -1.65853 0 
0.16244 -1.69273 0 
0.365096 -1.76054 0 
0.585888 -1.79304 0 
0.805939 -1.83247 0 
1.01424 -1.83493 0 
1.24904 -1.86722 0 
1.46008 -1.80872 0 
1.67152 -1.81522 0 
1.88954 -1.8137 0 
2.10554 -1.82626 0 
2.31385 -1.82336 0 
2.52441 -1.81937 0 
2.73407 -1.82413 0 
2.95021 -1.8242 0 
3.15905 -1.82448 0 
3.37181 -1.82505 0 
3.58099 -1.79726 0 
3.79185 -1.8278 0 
4.00065 -1.81421 0 
4.20637 -1.82764 0 
4.40776 -1.8021 0 
4.60413 -1.83223 0 
4.8086 -1.81462 0 
5.02048 -1.8166 0 
5.23272 -1.82134 0 
5.44475 -1.82029 0 
5.65686 -1.81713 0 
5.86767 -1.822 0 
6.0795 -1.81632 0 
6.29004 -1.80753 0 
6.50072 -1.81428 0 
6.71097 -1.8061 0 
6.92202 -1.81878 0 
7.13454 -1.82059 0 
7.36016 -1.81891 0 
7.59075 -1.81466 0 
7.82369 -1.80785 0 
8.0597 -1.81951 0 
8.29836 -1.86831 0 
8.53831 -1.8208 0 
-8.53831 -1.61567 0 
-8.30455 -1.60181 0 
[...]
POINT_DATA 2224 
VECTORS vectors float
1.3938e-05 -0.000693248 1 
0.000214005 -0.0135762 0.999908 
6.73734e-05 -0.0164673 0.999864 
0.000130158 -0.0163323 0.999867 
0.000105772 -0.0149711 0.999888 
0.000115728 -0.013249 0.999912 
0.000111909 -0.0114752 0.999934 
0.000113904 -0.00966043 0.999953 
0.000112378 -0.00777662 0.99997 
0.000112734 -0.00584773 0.999983 
0.000114144 -0.00392829 0.999992 
0.00011146 -0.00202968 0.999998 
0.000114316 -0.00013472 1 
0.000113688 0.00178244 0.999998 
0.000112122 0.00381795 0.999993 
0.000115212 0.00605096 0.999982 
0.000109846 0.00862129 0.999963 
0.000114416 0.0116428 0.999932 
0.000108719 0.0152947 0.999883 
0.00011083 0.0197575 0.999805 
0.000106413 0.0252659 0.999681 
0.00010663 0.032095 0.999485 
0.000101546 0.0406172 0.999175 
0.000101661 0.0512178 0.998688 
9.43463e-05 0.0643098 0.99793 
9.04648e-05 0.0811557 0.996701 
8.46127e-05 0.10191 0.994794 
7.55045e-05 0.127847 0.991794 
6.67262e-05 0.160144 0.987094 
5.35772e-05 0.200269 0.979741 
4.01452e-05 0.249883 0.968276 
1.91537e-05 0.310563 0.950553 
-1.24503e-06 0.384612 0.923078 
-1.572e-05 0.470249 0.882534 
-5.28901e-05 0.569132 0.822246 
-7.10738e-05 0.679643 0.733543 
-7.22867e-05 0.788923 0.614492 
-8.05032e-05 0.888679 0.45853 
-4.63373e-05 0.963131 0.269034 
-1.52759e-05 0.998392 0.0566871 
3.69208e-05 0.986992 -0.16077 
6.406e-05 0.931455 -0.363856 
8.21788e-05 0.842871 -0.538116 
7.66109e-05 0.736289 -0.676667 
5.87907e-05 0.625636 -0.780115 
3.75587e-05 0.520923 -0.853604 
1.14331e-05 0.427409 -0.904059 
-9.52913e-06 0.347269 -0.937766 
-3.00092e-05 0.280266 -0.959922 
-4.59328e-05 0.225166 -0.97432 
-5.98052e-05 0.180332 -0.983606 
-7.10533e-05 0.144117 -0.989561 
-7.99126e-05 0.114994 -0.993366 
-8.70034e-05 0.091632 -0.995793 
-9.34677e-05 0.0729348 -0.997337 
-9.69516e-05 0.0579776 -0.998318 
-0.00010232 0.0460089 -0.998941 
-0.000103518 0.036427 -0.999336 
-0.000107194 0.0287342 -0.999587 
-0.000108649 0.0225545 -0.999746 
-0.000109992 0.017556 -0.999846 
-0.000111332 0.0134907 -0.999909 
-0.000112501 0.0101445 -0.999949 
-0.000112608 0.00733559 -0.999973 
-0.000113299 0.00491848 -0.999988 
-0.000113715 0.00277304 -0.999996 
-0.000113485 0.000786847 -1 
-0.000113778 -0.00112664 -0.999999 
-0.000113776 -0.0030372 -0.999995 
-0.000112922 -0.00498712 -0.999988 
-0.000113734 -0.00696417 -0.999976 
-0.000112696 -0.00893883 -0.99996 
-0.000113626 -0.0108667 -0.999941 
-0.000112043 -0.0127443 -0.999919 
-0.000117642 -0.0146301 -0.999893 
-9.6335e-05 -0.0165144 -0.999864 
-0.000144014 -0.0179175 -0.999839 
-7.21144e-05 -0.0180713 -0.999837 
-0.000119176 -0.0162956 -0.999867 
-2.95145e-05 -0.00101694 -0.999999 
-9.78189e-05 0.000374175 1 
0.00641123 -0.010203 0.999927 
0.00875328 -0.0155145 0.999841 
0.00918285 -0.0161231 0.999828 
0.0093359 -0.0154666 0.999837 
0.00945531 -0.0137373 0.999861 
0.00994029 -0.0117571 0.999881 
0.010121 -0.00979582 0.999901 
0.0104208 -0.00784968 0.999915 
0.0104841 -0.00591175 0.999928 
0.0104912 -0.00395792 0.999937 
0.0106253 -0.00200459 0.999942 
0.0105414 -4.96314e-05 0.999944 
0.0106387 0.00193899 0.999942 
0.0106633 0.00400696 0.999935 
0.0105233 0.00633687 0.999925 
0.0106321 0.00893193 0.999904 
0.0103288 0.0121208 0.999873 
0.0105005 0.0157699 0.999821 
0.0101702 0.0203693 0.999741 
0.0100498 0.0259493 0.999613 
0.0096922 0.03303 0.999407 
0.00946811 0.0416476 0.999087 
0.00907081 0.0523708 0.998587 
0.00874834 0.065397 0.997821 
0.00796634 0.0817671 0.99662 
0.00726064 0.102295 0.994728 
0.00649132 0.1285 0.991688 
0.00554517 0.160558 0.987011 
0.00448171 0.200689 0.979645 
0.00332264 0.250379 0.968142 
0.0019866 0.308728 0.951148 
0.000673325 0.384498 0.923126 
-0.000753699 0.47873 0.877962 
-0.00181491 0.574057 0.818813 
-0.00245718 0.680988 0.732291 
-0.002651 0.793336 0.608779 
-0.00221003 0.888369 0.459124 
-0.00100904 0.968085 0.250621 
0.000415185 0.999158 0.0410265 
0.00195568 0.982836 -0.184474 
0.00317778 0.922889 -0.385054 
0.00372206 0.829409 -0.55863 
0.00358736 0.719046 -0.694954 
0.00285622 0.604139 -0.796874 
0.0017697 0.503481 -0.864005 
0.000329139 0.409935 -0.912115 
-0.00112129 0.333024 -0.942918 
-0.00252888 0.269229 -0.963073 
-0.00382403 0.216596 -0.976254 
-0.00496861 0.173259 -0.984864 
-0.00598644 0.138418 -0.990356 
-0.00689579 0.110565 -0.993845 
-0.00761247 0.0882142 -0.996072 
-0.00825667 0.070161 -0.997502 
-0.00884034 0.055944 -0.998395 
-0.00922863 0.0444451 -0.998969 
-0.00967036 0.0353387 -0.999329 
-0.00982499 0.0278526 -0.999564 
-0.0101023 0.0218526 -0.99971 
-0.0102953 0.016999 -0.999803 
-0.0103883 0.0130028 -0.999861 
-0.0105511 0.00972405 -0.999897 
-0.010746 0.00700644 -0.999918 
-0.0107768 0.0046406 -0.999931 
-0.0108198 0.00252591 -0.999938 
-0.0108473 0.000566343 -0.999941 
-0.0108076 -0.00133234 -0.999941 
-0.0108618 -0.00319882 -0.999936 
-0.0108528 -0.00506203 -0.999928 
-0.0107003 -0.00697036 -0.999918 
-0.0106219 -0.00887626 -0.999904 
-0.0104167 -0.0108005 -0.999887 
-0.010276 -0.0127059 -0.999866 
-0.0100764 -0.0145912 -0.999843 
-0.00983094 -0.0162667 -0.999819 
-0.00934846 -0.0174021 -0.999805 
-0.00832507 -0.0174383 -0.999813 
-0.00497069 -0.0132131 -0.9999 
0.000230377 0.000317797 -1 
0.00498141 -0.00792179 0.999956 
0.0102645 -0.015194 0.999832 
0.0118619 -0.0162697 0.999797 
0.0127399 -0.015855 0.999793 
0.0133115 -0.0144203 0.999807 
0.013555 -0.0136339 0.999815 
0.0136911 -0.0123123 0.99983 
0.0139022 -0.0101948 0.999851 
0.0140757 -0.0082234 0.999867 
0.0141897 -0.0062786 0.99988 
0.0142755 -0.00434481 0.999889 
0.0143764 -0.00238873 0.999894 
0.014429 -0.000377383 0.999896 
0.0144856 0.00165176 0.999894 
0.0145234 0.00378079 0.999887 
0.0144248 0.00605239 0.999878 
0.0143999 0.00867674 0.999859 
0.0141593 0.0117862 0.99983 
0.0140903 0.0155825 0.999779 
0.0137354 0.0200471 0.999705 
0.0134596 0.0257686 0.999577 
0.0130013 0.0328344 0.999376 
0.0125468 0.0419272 0.999042 
0.0119465 0.052751 0.998536 
0.0113424 0.0665667 0.997718 
0.010487 0.0836251 0.996442 
0.00956618 0.105605 0.994362 
0.00851626 0.132742 0.991114 
0.00728268 0.16653 0.986009 
0.00589349 0.209014 0.977895 
0.00447841 0.25928 0.965792 
0.00282842 0.321522 0.946898 
0.00174405 0.385048 0.922895 
0.000190127 0.457566 0.889176 
-0.000759403 0.5563 0.830981 
-0.00174316 0.661302 0.750118 
-0.00198975 0.771062 0.636757 
-0.00126518 0.872069 0.489381 
-0.000782065 0.952251 0.305316 
0.000929365 0.996459 0.0840804 
0.00222707 0.991031 -0.133611 
0.00335982 0.939361 -0.342914 
0.00398773 0.853314 -0.521383 
0.00397707 0.746712 -0.665136 
0.00332274 0.632606 -0.774467 
0.00189635 0.523657 -0.851927 
0.00041309 0.430493 -0.902594 
-0.00137456 0.349075 -0.937094 
-0.00308185 0.28317 -0.959065 
-0.00471506 0.228602 -0.973509 
-0.00623749 0.183553 -0.98299 
-0.00762183 0.146802 -0.989137 
-0.00882867 0.117505 -0.993033 
-0.00988248 0.0938267 -0.995539 
-0.0107759 0.0748979 -0.997133 
-0.0115681 0.0595725 -0.998157 
-0.0121992 0.0474298 -0.9988 
-0.0127622 0.0377857 -0.999204 
-0.0131951 0.029866 -0.999467 
-0.0135787 0.0234917 -0.999632 
-0.013876 0.018266 -0.999737 
-0.0141395 0.0140306 -0.999802 
-0.0142984 0.0104894 -0.999843 
-0.014475 0.00760596 -0.999866 
-0.0145594 0.00512436 -0.999881 
-0.0146198 0.00292385 -0.999889 
-0.014647 0.000898404 -0.999892 
-0.0146141 -0.00103802 -0.999893 
-0.0145768 -0.00292903 -0.999889 
-0.0145117 -0.00479931 -0.999883 
-0.0143812 -0.00665564 -0.999874 
-0.0142616 -0.00852992 -0.999862 
-0.0140574 -0.0104386 -0.999847 
-0.0138141 -0.0123977 -0.999828 
-0.0134234 -0.0143541 -0.999807 
-0.0128071 -0.0159961 -0.99979 
-0.0119352 -0.0170413 -0.999784 
-0.0106057 -0.0176282 -0.999788 
-0.00744112 -0.0135728 -0.99988 
-0.000468503 -4.56786e-08 -1 
-9.95361e-05 0.000246479 1 
0.00770227 -0.0127427 0.999889 
0.0103887 -0.0168147 0.999805 
0.0117696 -0.0163385 0.999797 
0.0130244 -0.0155228 0.999795 
0.0129877 -0.0136075 0.999823 
0.0137802 -0.0113849 0.99984 
0.0138701 -0.00940734 0.99986 
0.0140365 -0.00751855 0.999873 
0.0141786 -0.00563198 0.999884 
0.0143144 -0.003734 0.999891 
0.014435 -0.00177617 0.999894 
0.0145173 0.000188048 0.999895 
0.0145604 0.00220952 0.999892 
0.0145575 0.00434476 0.999885 
0.0145722 0.00658437 0.999872 
0.0143959 0.00897836 0.999856 
0.0143761 0.0116413 0.999829 
0.0140674 0.0152012 0.999785 
0.0137838 0.0197587 0.99971 
0.0134448 0.0250567 0.999596 
0.0130288 0.0320773 0.9994 
0.0125194 0.0406664 0.999094 
0.0118788 0.0518964 0.998582 
0.0112243 0.0650283 0.99782 
0.0104816 0.0814528 0.996622 
0.00961047 0.10241 0.994696 
0.00859858 0.128496 0.991673 
0.00750028 0.161159 0.9869 
0.00632293 0.201008 0.979569 
0.005084 0.250216 0.968177 
0.00380646 0.30906 0.951035 
0.002661 0.390588 0.920562 
0.00129738 0.484077 0.875024 
0.00128539 0.579121 0.815241 
0.000403395 0.669093 0.743179 
0.000445698 0.773338 0.633994 
0.000967197 0.880638 0.473789 
0.00101622 0.960864 0.27702 
0.00199635 0.998634 0.0522105 
0.0023988 0.988199 -0.153154 
0.00262723 0.935961 -0.352094 
0.00276216 0.849648 -0.527343 
0.0025936 0.738002 -0.674793 
0.00199242 0.622457 -0.782651 
0.00071378 0.512425 -0.858732 
-0.000488594 0.42046 -0.907311 
-0.00195276 0.343159 -0.939275 
-0.0034129 0.278205 -0.960516 
-0.00487984 0.223647 -0.974658 
-0.00629009 0.179245 -0.983784 
-0.00755335 0.144017 -0.989546 
-0.00871758 0.115188 -0.993305 
-0.0097409 0.0921883 -0.995694 
-0.010672 0.0735495 -0.997234 
-0.01144 0.0585672 -0.998218 
-0.0120855 0.0470409 -0.99882 
-0.0126746 0.0372426 -0.999226 
-0.0131735 0.0295759 -0.999476 
-0.0135956 0.023234 -0.999638 
-0.0139123 0.0182907 -0.999736 
-0.0141882 0.0141275 -0.9998 
-0.0143927 0.0107604 -0.999839 
-0.014515 0.00786088 -0.999864 
-0.0146222 0.00531604 -0.999879 
-0.0146819 0.00306465 -0.999888 
-0.0146972 0.00100633 -0.999891 
-0.014686 -0.00095779 -0.999892 
-0.0146094 -0.00286878 -0.999889 
-0.0144926 -0.00473835 -0.999884 
-0.0143621 -0.00660222 -0.999875 
-0.0141751 -0.0084349 -0.999864 
-0.0139754 -0.0103176 -0.999849 
-0.0136668 -0.0123007 -0.999831 
-0.0131462 -0.0142743 -0.999812 
-0.0124542 -0.0160058 -0.999794 
-0.0113914 -0.0171037 -0.999789 
-0.0100225 -0.0175802 -0.999795 
-0.00786429 -0.0136146 -0.999876 
-0.000190011 5.86834e-05 -1 
0.004936 -0.00904339 0.999947 
0.00856352 -0.015647 0.999841 
0.0104299 -0.01711 0.999799 
0.011353 -0.0165807 0.999798 
0.012323 -0.0156779 0.999801 
0.0120922 -0.0145325 0.999821 
0.0131531 -0.0116201 0.999846 
0.013268 -0.00975483 0.999864 
0.0134071 -0.00788986 0.999879 
0.0135438 -0.00599324 0.99989 
0.013709 -0.00408059 0.999898 
0.0138702 -0.0021348 0.999902 
0.0139548 -0.000131878 0.999903 
0.0139956 0.00192916 0.9999 
0.0139587 0.0041036 0.999894 
0.0138646 0.00646375 0.999883 
0.0137581 0.00934718 0.999862 
0.0136516 0.0125848 0.999828 
0.013415 0.0166659 0.999771 
0.0130727 0.021294 0.999688 
0.0127601 0.0273766 0.999544 
0.0123046 0.034822 0.999318 
0.0117787 0.0444246 0.998943 
0.0110728 0.056067 0.998366 
0.0104357 0.0703943 0.997465 
0.00974025 0.0882018 0.996055 
0.00892976 0.110056 0.993885 
0.00801364 0.13814 0.99038 
0.00707204 0.172224 0.985032 
0.00613433 0.212799 0.977077 
0.00518867 0.264621 0.964338 
0.00421761 0.326674 0.945128 
0.00384595 0.394041 0.919085 
0.00288635 0.47229 0.881439 
0.00314381 0.577197 0.816599 
0.00282302 0.694066 0.719905 
0.00282179 0.802765 0.596289 
0.00288549 0.916482 0.400066 
0.00272014 0.97743 0.211244 
0.00315076 0.99891 0.0465697 
0.00251222 0.993121 -0.117064 
0.00202898 0.955206 -0.295933 
0.00162272 0.875352 -0.483483 
0.00136364 0.772519 -0.63499 
0.000906019 0.657877 -0.753125 
0.000146271 0.552182 -0.833724 
-0.00101141 0.441671 -0.897176 
-0.00207887 0.363855 -0.931453 
-0.00326903 0.294361 -0.955689 
-0.00448916 0.237025 -0.971493 
-0.00573975 0.189557 -0.981853 
-0.00689266 0.152164 -0.988331 
-0.00798392 0.121972 -0.992501 
-0.00897521 0.0973995 -0.995205 
-0.00990522 0.0775655 -0.996938 
-0.0106827 0.0619176 -0.998024 
-0.0113113 0.0490603 -0.998732 
-0.0119559 0.0392666 -0.999157 
-0.0124692 0.0308855 -0.999445 
-0.0129396 0.0244303 -0.999618 
-0.0132152 0.0190793 -0.999731 
-0.0136144 0.0147754 -0.999798 
-0.0137703 0.0112023 -0.999842 
-0.0139112 0.00821826 -0.999869 
-0.0140355 0.00561079 -0.999886 
-0.0140977 0.00328163 -0.999895 
-0.0141083 0.00115008 -0.9999 
-0.0141059 -0.000855606 -0.9999 
-0.0140118 -0.00279864 -0.999898 
-0.0138626 -0.0046953 -0.999893 
-0.0137242 -0.00654305 -0.999884 
-0.0134726 -0.00839404 -0.999874 
-0.0132919 -0.0102613 -0.999859 
-0.0129539 -0.012227 -0.999841 
-0.0124402 -0.0142704 -0.999821 
-0.0117564 -0.0161707 -0.9998 
-0.0107423 -0.0172598 -0.999793 
-0.00933289 -0.0176309 -0.999801 
-0.00735161 -0.0136217 -0.99988 
-0.000237057 4.64326e-05 -1 
-5.50561e-05 0.00025255 1 
0.00643671 -0.0135203 0.999888 
0.00891584 -0.0174822 0.999807 
0.00974909 -0.0171109 0.999806 
0.0109959 -0.0159426 0.999812 
0.0106471 -0.0139241 0.999846 
0.0119895 -0.0123533 0.999852 
0.0119489 -0.0103928 0.999875 
0.0121003 -0.00849577 0.999891 
0.0122925 -0.00664087 0.999902 
0.0124767 -0.00471303 0.999911 
0.0126684 -0.0027453 0.999916 
0.0127707 -0.000755992 0.999918 
0.0127929 0.00133195 0.999917 
0.0127336 0.00351036 0.999913 
0.0126131 0.00588298 0.999903 
0.0125568 0.00854776 0.999885 
0.0124715 0.0119268 0.999851 
0.0123696 0.0156363 0.999801 
0.0118799 0.0203774 0.999722 
0.0117606 0.0260432 0.999592 
0.0113009 0.0333248 0.999381 
0.0109068 0.042534 0.999035 
0.0101339 0.053828 0.998499 
0.00952985 0.0682463 0.997623 
0.00896252 0.0856657 0.996284 
0.00828353 0.106968 0.994228 
0.0076 0.133332 0.991042 
0.00683834 0.167237 0.985893 
0.00614026 0.207986 0.978112 
0.00555427 0.255676 0.966747 
0.00498985 0.318271 0.947987 
0.00492147 0.397397 0.917634 
0.00444984 0.486848 0.873476 
0.00554085 0.568913 0.822379 
0.00510838 0.666121 0.745826 
0.00545429 0.777672 0.628647 
0.0048195 0.880493 0.474034 
0.0046647 0.96559 0.260029 
0.0040508 0.998779 0.0492443 
0.00211638 0.986377 -0.164485 
0.000921008 0.933032 -0.359792 
8.02492e-05 0.84086 -0.541253 
-0.000297987 0.730889 -0.682497 
-0.000780945 0.624088 -0.781353 
-0.00120213 0.511601 -0.859222 
-0.00210465 0.420459 -0.907309 
-0.00281346 0.343509 -0.939145 
-0.00367249 0.276951 -0.960877 
-0.00462105 0.222702 -0.974876 
-0.00555087 0.179976 -0.983655 
-0.00647613 0.144781 -0.989443 
-0.0073984 0.116359 -0.99318 
-0.00827348 0.0927412 -0.995656 
-0.00905066 0.0744118 -0.997187 
-0.0097762 0.0594155 -0.998185 
-0.0101776 0.0474094 -0.998824 
-0.0109369 0.0376987 -0.999229 
-0.0113141 0.0299944 -0.999486 
-0.011809 0.0238021 -0.999647 
-0.0119329 0.018825 -0.999752 
-0.0123881 0.0147596 -0.999814 
-0.0124722 0.0112709 -0.999859 
-0.0126472 0.00820396 -0.999886 
-0.0127923 0.00555704 -0.999903 
-0.0128524 0.00321324 -0.999912 
-0.012853 0.00106028 -0.999917 
-0.0128617 -0.000965113 -0.999917 
-0.0127516 -0.00292464 -0.999914 
-0.0125724 -0.00481145 -0.999909 
-0.0124555 -0.00665062 -0.9999 
-0.0122001 -0.00848164 -0.99989 
-0.0120006 -0.0103079 -0.999875 
-0.011659 -0.0122386 -0.999857 
-0.0112251 -0.0144316 -0.999833 
-0.0106012 -0.016351 -0.99981 
-0.00972173 -0.0174499 -0.9998 
-0.00849922 -0.0177759 -0.999806 
-0.00675271 -0.0137002 -0.999883 
-0.000200771 5.14582e-05 -1 
0.000238118 -2.38338e-05 1 
0.00568864 -0.0133465 0.999895 
0.00772784 -0.0175741 0.999816 
0.00838623 -0.0172859 0.999815 
0.00960847 -0.0162933 0.999821 
0.00915921 -0.014626 0.999851 
0.0102822 -0.0117663 0.999878 
0.0103653 -0.0097676 0.999899 
0.0105482 -0.00788168 0.999913 
0.0108061 -0.00598316 0.999924 
0.0110033 -0.00403062 0.999931 
0.0111274 -0.00207281 0.999936 
0.0112134 -3.20406e-05 0.999937 
0.011178 0.00208841 0.999935 
0.0110903 0.00434957 0.999929 
0.0109844 0.00687546 0.999916 
0.0110524 0.0098593 0.99989 
0.0108523 0.0132944 0.999853 
0.0107388 0.0171893 0.999795 
0.0103508 0.022735 0.999688 
0.0102314 0.028849 0.999531 
0.00948296 0.0353725 0.999329 
0.0096064 0.0421125 0.999067 
0.00884926 0.0515464 0.998631 
0.00851547 0.0639581 0.997916 
0.00798934 0.0809565 0.996686 
0.00745834 0.100916 0.994867 
0.00695026 0.125891 0.99202 
0.00646963 0.156527 0.987652 
0.00600005 0.195671 0.980651 
0.00569855 0.242139 0.970225 
0.00556033 0.297821 0.954606 
0.00570199 0.364098 0.931343 
0.00606607 0.46594 0.884795 
0.00755669 0.573555 0.819132 
0.00782465 0.686164 0.727405 
0.00818006 0.8004 0.59941 
0.00709937 0.901255 0.43323 
0.00667465 0.969113 0.246525 
0.00566862 0.996764 0.0801882 
0.00234979 0.992721 -0.12041 
-0.00021779 0.943377 -0.331722 
-0.0014297 0.862441 -0.506156 
-0.00201102 0.749313 -0.662213 
-0.0024372 0.634709 -0.772747 
-0.0022617 0.531821 -0.846853 
-0.00283471 0.440872 -0.897566 
-0.00311476 0.357494 -0.93391 
-0.00353804 0.289999 -0.95702 
-0.00415507 0.231903 -0.97273 
-0.00481762 0.186663 -0.982412 
-0.0055244 0.150559 -0.988586 
-0.00627562 0.120686 -0.992671 
-0.0070391 0.0967604 -0.995283 
-0.00770012 0.0769023 -0.997009 
-0.00834592 0.061399 -0.998078 
-0.00872275 0.0491349 -0.998754 
-0.00940787 0.0390128 -0.999194 
-0.00974478 0.0311492 -0.999467 
-0.0101524 0.0245226 -0.999648 
-0.0104123 0.0190804 -0.999764 
-0.0107316 0.0145616 -0.999836 
-0.010901 0.0109379 -0.999881 
-0.0110645 0.00788649 -0.999908 
-0.0111922 0.00526875 -0.999923 
-0.0112502 0.00291939 -0.999932 
-0.0112379 0.000754166 -0.999937 
-0.0112498 -0.00128406 -0.999936 
-0.0111182 -0.00324875 -0.999933 
-0.0109383 -0.00514357 -0.999927 
-0.0108127 -0.00695563 -0.999917 
-0.0105435 -0.00880511 -0.999906 
-0.0103387 -0.0106281 -0.99989 
-0.0100634 -0.0126369 -0.99987 
-0.0096485 -0.0147991 -0.999844 
-0.00908529 -0.0166333 -0.99982 
-0.00829977 -0.0176664 -0.999809 
-0.00727886 -0.0178984 -0.999813 
-0.00584799 -0.0134129 -0.999893 
-0.000175341 4.63226e-05 -1 
0.000126939 8.05303e-05 1 
0.00488603 -0.0135323 0.999896 
0.00650901 -0.0177733 0.999821 
0.00696801 -0.0174378 0.999824 
0.00805032 -0.0164136 0.999833 
0.00765317 -0.0146841 0.999863 
0.00878701 -0.0126265 0.999882 
0.00876876 -0.0104839 0.999907 
0.00891714 -0.00854418 0.999924 
0.0091758 -0.00664303 0.999936 
0.00940392 -0.00472123 0.999945 
0.0095057 -0.00275013 0.999951 
0.00961123 -0.00071687 0.999954 
0.00960857 0.00138694 0.999953 
0.00954754 0.00361934 0.999948 
0.00948005 0.00607195 0.999937 
0.0095411 0.00896131 0.999914 
0.00941312 0.0121759 0.999882 
0.0092048 0.0160776 0.999828 
0.00919349 0.0205802 0.999746 
0.00879943 0.0271093 0.999594 
0.00825756 0.0348401 0.999359 
0.00789512 0.0444751 0.998979 
0.00743849 0.0562236 0.99839 
0.00723171 0.0704737 0.997487 
0.0067412 0.0879988 0.996098 
0.00637141 0.110031 0.993908 
0.00603441 0.137089 0.99054 
0.00578085 0.170614 0.985321 
0.00562593 0.212153 0.97722 
0.00573016 0.263919 0.964528 
0.00606091 0.320456 0.947244 
0.00679869 0.384949 0.922913 
0.00709974 0.446869 0.894571 
0.00891527 0.543372 0.839445 
0.0103454 0.670242 0.74207 
0.0111173 0.780955 0.624488 
0.0101375 0.890947 0.453993 
0.00999173 0.954894 0.296778 
0.0082643 0.992411 0.122688 
0.00238573 0.995434 -0.0954275 
-0.00146622 0.953272 -0.30211 
-0.00357841 0.868688 -0.495346 
-0.00385573 0.767451 -0.641095 
-0.00403205 0.647109 -0.762387 
-0.00352417 0.529318 -0.848416 
-0.00353741 0.426724 -0.904375 
-0.00343744 0.345815 -0.938296 
-0.00358026 0.276955 -0.960876 
-0.00390287 0.223425 -0.974713 
-0.00432291 0.180282 -0.983605 
-0.00487783 0.144793 -0.98945 
-0.00546009 0.116306 -0.993198 
-0.00612136 0.0930565 -0.995642 
-0.00663006 0.0743956 -0.997207 
-0.00716164 0.0600425 -0.99817 
-0.00727766 0.0491075 -0.998767 
-0.00796412 0.0402128 -0.999159 
-0.00822917 0.0323277 -0.999443 
-0.00863103 0.025718 -0.999632 
-0.00889965 0.0202359 -0.999756 
-0.00918203 0.015487 -0.999838 
-0.00934568 0.0117528 -0.999887 
-0.00948473 0.00854028 -0.999919 
-0.00959156 0.00578936 -0.999937 
-0.00967027 0.00337524 -0.999948 
-0.00967434 0.00114897 -0.999953 
-0.00967408 -0.000979804 -0.999953 
-0.00958751 -0.00297484 -0.99995 
-0.00942003 -0.00492588 -0.999943 
-0.0092696 -0.0068054 -0.999934 
-0.00908334 -0.00860911 -0.999922 
-0.00880853 -0.0105393 -0.999906 