# vtk DataFile Version 3.0 
Exported using Morpho https://github.com/Morpho-lang/morpho 
ASCII 
DATASET UNSTRUCTURED_GRID 

POINTS 2154 float 
-8.32618 -2.88146 0 
-8.11405 -2.88146 0 
-7.90192 -2.88146 0 
-7.68979 -2.88146 0 
-7.47765 -2.88146 0 
-7.26552 -2.88146 0 
-7.05339 -2.88146 0 
-6.84126 -2.88146 0 
-6.62913 -2.88146 0 
-6.41699 -2.88146 0 
-6.20486 -2.88146 0 
-5.99273 -2.88146 0 
-5.7806 -2.88146 0 
-5.56847 -2.88146 0 
-5.35633 -2.88146 0 
-5.1442 -2.88146 0 
-4.93207 -2.88146 0 
-4.71994 -2.88146 0 
-4.50781 -2.88146 0 
-4.29567 -2.88146 0 
-4.08354 -2.88146 0 
-3.87141 -2.88146 0 
-3.65928 -2.88146 0 
-3.44715 -2.88146 0 
-3.23501 -2.88146 0 
-3.02288 -2.88146 0 
-2.81075 -2.88146 0 
-2.59862 -2.88146 0 
-2.38649 -2.88146 0 
-2.17435 -2.88146 0 
-1.96222 -2.88146 0 
-1.75009 -2.88146 0 
-1.53796 -2.88146 0 
-1.32583 -2.88146 0 
-1.11369 -2.88146 0 
-0.901561 -2.88146 0 
-0.689429 -2.88146 0 
-0.477297 -2.88146 0 
-0.265165 -2.88146 0 
-0.053033 -2.88146 0 
0.159099 -2.88146 0 
0.371231 -2.88146 0 
0.583363 -2.88146 0 
0.795495 -2.88146 0 
1.00763 -2.88146 0 
1.21976 -2.88146 0 
1.43189 -2.88146 0 
1.64402 -2.88146 0 
1.85616 -2.88146 0 
2.06829 -2.88146 0 
2.28042 -2.88146 0 
2.49255 -2.88146 0 
2.70468 -2.88146 0 
2.91682 -2.88146 0 
3.12895 -2.88146 0 
3.34108 -2.88146 0 
3.55321 -2.88146 0 
3.76534 -2.88146 0 
3.97748 -2.88146 0 
4.18961 -2.88146 0 
4.40174 -2.88146 0 
4.61387 -2.88146 0 
4.826 -2.88146 0 
5.03814 -2.88146 0 
5.25027 -2.88146 0 
5.4624 -2.88146 0 
5.67453 -2.88146 0 
5.88666 -2.88146 0 
6.0988 -2.88146 0 
6.31093 -2.88146 0 
6.52306 -2.88146 0 
6.73519 -2.88146 0 
6.94732 -2.88146 0 
7.15946 -2.88146 0 
7.37159 -2.88146 0 
7.58372 -2.88146 0 
7.79585 -2.88146 0 
8.00798 -2.88146 0 
8.22012 -2.88146 0 
8.53831 -2.88146 0 
-8.53831 -2.74086 0 
-8.32279 -2.65847 0 
-8.09822 -2.65304 0 
-7.87084 -2.6615 0 
-7.6326 -2.67122 0 
-7.40341 -2.66918 0 
-7.18073 -2.66946 0 
-6.95175 -2.67448 0 
-6.7326 -2.66667 0 
-6.51593 -2.66575 0 
-6.29821 -2.66464 0 
-6.08066 -2.66846 0 
-5.86333 -2.66638 0 
-5.64786 -2.67002 0 
-5.43101 -2.66656 0 
-5.2186 -2.66838 0 
-5.00445 -2.67042 0 
-4.78912 -2.66803 0 
-4.57667 -2.67125 0 
-4.36241 -2.66823 0 
-4.14927 -2.67227 0 
-3.93489 -2.67119 0 
-3.72226 -2.67116 0 
-3.51045 -2.67084 0 
-3.29823 -2.67159 0 
-3.08376 -2.67184 0 
-2.87042 -2.66879 0 
-2.66056 -2.66907 0 
-2.45023 -2.67467 0 
-2.22935 -2.66641 0 
-2.01667 -2.66788 0 
-1.80781 -2.66703 0 
-1.58776 -2.66462 0 
-1.37385 -2.66326 0 
-1.15457 -2.65706 0 
-0.940942 -2.65833 0 
-0.727511 -2.66505 0 
-0.503212 -2.65353 0 
-0.294327 -2.66648 0 
-0.0755282 -2.66831 0 
0.141883 -2.67954 0 
0.370942 -2.66773 0 
0.586248 -2.67038 0 
0.797551 -2.66343 0 
1.01095 -2.66567 0 
1.22496 -2.66365 0 
1.44103 -2.66709 0 
1.65495 -2.67033 0 
1.88019 -2.67619 0 
2.09181 -2.67082 0 
2.30347 -2.66878 0 
2.52346 -2.67363 0 
2.73803 -2.67043 0 
2.95003 -2.66778 0 
3.16339 -2.66897 0 
3.37646 -2.66938 0 
3.5901 -2.66989 0 
3.80491 -2.67181 0 
4.01836 -2.67078 0 
4.23034 -2.67143 0 
4.44385 -2.67224 0 
4.65611 -2.67133 0 
4.86585 -2.66856 0 
5.08098 -2.67272 0 
5.29046 -2.66851 0 
5.50459 -2.67357 0 
5.71382 -2.66833 0 
5.92344 -2.66794 0 
6.13455 -2.66994 0 
6.34621 -2.66802 0 
6.55987 -2.67211 0 
6.76887 -2.66615 0 
6.98454 -2.66981 0 
7.19877 -2.66773 0 
7.41245 -2.66339 0 
7.62989 -2.66001 0 
7.8434 -2.6583 0 
8.05505 -2.64483 0 
8.30657 -2.71978 0 
8.53831 -2.66933 0 
-8.53831 -2.49965 0 
-8.3056 -2.44062 0 
-8.06064 -2.43913 0 
-7.80121 -2.47233 0 
-7.5529 -2.46784 0 
-7.318 -2.45882 0 
-7.07761 -2.47526 0 
-6.85282 -2.45888 0 
-6.63203 -2.45126 0 
-6.41268 -2.45262 0 
-6.18883 -2.4547 0 
-5.97113 -2.45647 0 
-5.74999 -2.45588 0 
-5.53496 -2.45919 0 
-5.31693 -2.452 0 
-5.10424 -2.458 0 
-4.88997 -2.46007 0 
-4.67239 -2.45666 0 
-4.4621 -2.45988 0 
-4.24331 -2.46035 0 
-4.03064 -2.46348 0 
-3.81619 -2.46039 0 
-3.60541 -2.4588 0 
-3.39446 -2.45989 0 
-3.18066 -2.46427 0 
-2.96704 -2.46 0 
-2.75557 -2.45293 0 
-2.5476 -2.45632 0 
-2.33543 -2.47063 0 
-2.10737 -2.45327 0 
-1.90313 -2.44347 0 
-1.68805 -2.46074 0 
-1.46607 -2.44367 0 
-1.24878 -2.44682 0 
-1.02357 -2.43445 0 
-0.808004 -2.43854 0 
-0.592766 -2.45062 0 
-0.356759 -2.43451 0 
-0.148845 -2.45789 0 
-0.0460732 -2.26273 0 
0.079014 -2.46953 0 
0.297733 -2.47854 0 
0.537863 -2.46003 0 
0.748484 -2.44877 0 
0.96548 -2.4477 0 
1.17504 -2.44884 0 
1.39404 -2.45337 0 
1.60945 -2.4549 0 
1.82341 -2.47997 0 
2.05023 -2.45656 0 
2.2563 -2.45438 0 
2.46985 -2.46964 0 
2.68917 -2.46043 0 
2.90175 -2.45362 0 
3.11292 -2.45569 0 
3.32399 -2.45632 0 
3.53533 -2.45842 0 
3.74939 -2.46237 0 
3.96299 -2.46118 0 
4.17668 -2.45936 0 
4.38732 -2.46346 0 
4.60051 -2.46132 0 
4.81084 -2.4549 0 
5.02438 -2.46557 0 
5.2377 -2.45545 0 
5.45132 -2.46528 0 
5.66187 -2.45604 0 
5.87307 -2.45396 0 
6.08419 -2.45714 0 
6.29471 -2.45797 0 
6.51307 -2.46188 0 
6.7234 -2.4517 0 
6.93897 -2.46143 0 
7.15865 -2.45632 0 
7.37619 -2.44883 0 
7.59703 -2.44783 0 
7.82569 -2.43273 0 
8.06058 -2.43483 0 
8.29723 -2.51191 0 
8.53831 -2.4572 0 
-8.53831 -2.26737 0 
-8.29253 -2.23611 0 
-8.0618 -2.21235 0 
-7.84511 -2.27694 0 
-7.5998 -2.27412 0 
-7.35378 -2.25282 0 
-7.11717 -2.27563 0 
-6.89131 -2.24981 0 
-6.67156 -2.23696 0 
-6.45581 -2.23712 0 
-6.23934 -2.24667 0 
-6.01803 -2.24165 0 
-5.80395 -2.24817 0 
-5.58488 -2.24383 0 
-5.37567 -2.24477 0 
-5.15676 -2.24115 0 
-4.9484 -2.24731 0 
-4.73651 -2.25036 0 
-4.52029 -2.24206 0 
-4.31165 -2.25639 0 
-4.09378 -2.25049 0 
-3.88522 -2.2518 0 
-3.67432 -2.24443 0 
-3.46706 -2.24504 0 
-3.2575 -2.25266 0 
-3.04936 -2.25088 0 
-2.84117 -2.24116 0 
-2.63329 -2.23431 0 
-2.42538 -2.25028 0 
-2.21586 -2.26699 0 
-2.00158 -2.2167 0 
-1.78924 -2.23785 0 
-1.58381 -2.2423 0 
-1.35841 -2.22638 0 
-1.14274 -2.23052 0 
-0.919562 -2.21126 0 
-0.707056 -2.21882 0 
-0.488753 -2.24538 0 
-0.25739 -2.21514 0 
-0.018022 -2.05415 0 
0.170703 -2.26324 0 
0.392402 -2.2866 0 
0.60347 -2.23529 0 
0.817099 -2.23716 0 
1.02095 -2.22272 0 
1.23542 -2.23958 0 
1.44826 -2.23872 0 
1.66125 -2.24583 0 
1.87478 -2.27937 0 
2.07915 -2.23285 0 
2.29225 -2.24529 0 
2.50581 -2.26361 0 
2.71669 -2.24589 0 
2.92696 -2.23868 0 
3.13507 -2.24042 0 
3.34393 -2.24197 0 
3.55781 -2.24865 0 
3.76988 -2.25174 0 
3.98405 -2.25146 0 
4.19379 -2.24612 0 
4.40562 -2.25357 0 
4.61298 -2.24691 0 
4.81648 -2.23199 0 
5.01677 -2.25651 0 
5.21789 -2.23474 0 
5.42437 -2.25643 0 
5.63634 -2.24407 0 
5.8474 -2.24295 0 
6.06205 -2.24529 0 
6.27456 -2.24455 0 
6.48781 -2.25943 0 
6.70968 -2.23616 0 
6.92136 -2.25237 0 
7.14045 -2.25035 0 
7.36415 -2.23661 0 
7.58575 -2.23647 0 
7.81309 -2.22825 0 
8.05458 -2.22426 0 
8.29554 -2.29847 0 
8.53831 -2.24506 0 
-8.42104 -2.04244 0 
-8.18099 -2.01725 0 
-7.90797 -2.02868 0 
-7.70101 -2.0772 0 
-7.45547 -2.07053 0 
-7.28288 -1.89617 0 
-7.18309 -2.07183 0 
-6.95845 -2.04659 0 
-6.73303 -2.02616 0 
-6.51101 -2.01939 0 
-6.29299 -2.03048 0 
-6.07606 -2.0364 0 
-5.84958 -2.03282 0 
-5.63482 -2.03844 0 
-5.41356 -2.02663 0 
-5.20266 -2.0376 0 
-4.97904 -2.02955 0 
-4.76963 -2.03836 0 
-4.55555 -2.03737 0 
-4.33143 -2.04084 0 
-4.1233 -2.04857 0 
-3.90041 -2.03722 0 
-3.6914 -2.03322 0 
-3.47714 -2.02848 0 
-3.26804 -2.03968 0 
-3.05728 -2.03619 0 
-2.84907 -2.0244 0 
-2.63038 -2.02522 0 
-2.41257 -2.03444 0 
-2.20197 -2.05435 0 
-1.9711 -2.00444 0 
-1.77075 -2.01015 0 
-1.54485 -2.0364 0 
-1.31784 -2.00966 0 
-1.09483 -2.01645 0 
-0.870694 -1.98771 0 
-0.642501 -2.01127 0 
-0.419243 -2.03885 0 
-0.199594 -1.98026 0 
0.158894 -2.01671 0 
0.347582 -2.08639 0 
0.535597 -2.02369 0 
0.758475 -2.0279 0 
0.971792 -2.00112 0 
1.18852 -2.02509 0 
1.40651 -2.02626 0 
1.62714 -2.0318 0 
1.84708 -2.06712 0 
2.06067 -2.02072 0 
2.27237 -2.03445 0 
2.48929 -2.05252 0 
2.69819 -2.03409 0 
2.91302 -2.02531 0 
3.12592 -2.02315 0 
3.33376 -2.02592 0 
3.54289 -2.03891 0 
3.7584 -2.03961 0 
3.97024 -2.04284 0 
4.18543 -2.03168 0 
4.39488 -2.04104 0 
4.60425 -2.02909 0 
4.81365 -2.01651 0 
5.02316 -2.03371 0 
5.23362 -2.02 0 
5.44223 -2.04366 0 
5.65341 -2.03073 0 
5.8704 -2.03521 0 
6.08193 -2.03351 0 
6.29862 -2.03587 0 
6.51445 -2.05459 0 
6.73027 -2.02262 0 
6.94456 -2.04383 0 
7.16266 -2.04173 0 
7.38135 -2.02353 0 
7.6056 -2.02571 0 
7.84023 -2.02548 0 
8.07386 -2.01252 0 
8.30246 -2.08909 0 
8.53831 -2.03293 0 
-8.53831 -1.831 0 
-8.30724 -1.81795 0 
-8.04405 -1.84458 0 
-7.79887 -1.8085 0 
-7.59387 -1.87711 0 
-7.42232 -1.76416 0 
-7.04852 -1.84019 0 
-6.83137 -1.82029 0 
-6.61265 -1.80718 0 
-6.39408 -1.80791 0 
-6.18414 -1.81779 0 
-5.96921 -1.8308 0 
-5.75045 -1.82006 0 
-5.5414 -1.82618 0 
-5.32368 -1.8138 0 
-5.11404 -1.83177 0 
-4.89849 -1.81517 0 
-4.69146 -1.82634 0 
-4.47052 -1.83843 0 
-4.26111 -1.82484 0 
-4.05173 -1.84318 0 
-3.84189 -1.81829 0 
-3.63157 -1.82046 0 
-3.41919 -1.81473 0 
-3.21562 -1.82339 0 
-3.01227 -1.81464 0 
-2.79551 -1.81529 0 
-2.57759 -1.81586 0 
-2.36467 -1.82138 0 
-2.14797 -1.84926 0 
-1.93748 -1.76806 0 
-1.7124 -1.81148 0 
-1.49187 -1.82457 0 
-1.256 -1.79816 0 
-1.03799 -1.79586 0 
-0.789713 -1.78677 0 
-0.559453 -1.80893 0 
-0.354242 -1.80893 0 
0.320745 -1.85331 0 
0.553844 -1.82429 0 
0.763898 -1.81035 0 
0.987152 -1.78989 0 
1.20554 -1.81351 0 
1.42949 -1.81896 0 
1.63801 -1.81023 0 
1.84271 -1.85947 0 
2.03088 -1.79181 0 
2.23745 -1.81684 0 
2.45051 -1.8452 0 
2.66634 -1.81978 0 
2.87762 -1.81988 0 
3.10064 -1.81262 0 
3.31742 -1.80861 0 
3.52719 -1.82266 0 
3.73715 -1.83194 0 
3.95538 -1.8302 0 
4.16721 -1.82477 0 
4.38665 -1.82634 0 
4.5983 -1.81522 0 
4.81388 -1.80498 0 
5.02723 -1.81964 0 
5.23975 -1.80611 0 
5.45041 -1.83057 0 
5.67158 -1.82555 0 
5.88255 -1.8224 0 
6.10195 -1.82829 0 
6.31238 -1.82209 0 
6.52187 -1.84674 0 
6.72914 -1.80485 0 
6.93955 -1.83125 0 
7.1541 -1.83101 0 
7.37669 -1.81373 0 
7.60129 -1.81595 0 
7.83109 -1.81942 0 
8.06636 -1.80267 0 
8.30342 -1.87258 0 
8.53831 -1.8208 0 
-8.53831 -1.61345 0 
-8.30551 -1.59993 0 
-8.07788 -1.65148 0 
-7.86178 -1.59222 0 
-7.62612 -1.62355 0 
[...]
POINT_DATA 2154 
VECTORS vectors float
-4.6918e-05 -0.000693478 1 
0.000222077 -0.0117776 0.999931 
8.23071e-05 -0.0144915 0.999895 
0.000123755 -0.0148677 0.999889 
0.000111733 -0.0139798 0.999902 
0.000115576 -0.0124457 0.999923 
0.000114601 -0.0108205 0.999941 
0.000115387 -0.0092841 0.999957 
0.000115484 -0.00779437 0.99997 
0.0001152 -0.00630236 0.99998 
0.000115453 -0.00480344 0.999988 
0.000115389 -0.00330314 0.999995 
0.000115811 -0.00180801 0.999998 
0.000115387 -0.00031721 1 
0.000115887 0.00120837 0.999999 
0.00011546 0.00282958 0.999996 
0.000115191 0.00462081 0.999989 
0.000115078 0.00669258 0.999978 
0.000114025 0.00915366 0.999958 
0.000113757 0.0121548 0.999926 
0.000112284 0.0158683 0.999874 
0.000111257 0.0205167 0.99979 
0.000109338 0.0263894 0.999652 
0.00010715 0.0338411 0.999427 
0.000104289 0.0433317 0.999061 
0.000100476 0.055442 0.998462 
9.59855e-05 0.0709384 0.997481 
9.03291e-05 0.0907945 0.99587 
8.18177e-05 0.11624 0.993221 
7.33321e-05 0.14881 0.988866 
6.07304e-05 0.190406 0.981705 
4.53055e-05 0.243396 0.969927 
2.71977e-05 0.310252 0.950654 
3.61538e-06 0.393399 0.919368 
-2.08727e-05 0.494086 0.869413 
-4.655e-05 0.610794 0.79179 
-6.44375e-05 0.736824 0.676085 
-7.22692e-05 0.858007 0.513638 
-4.40207e-05 0.9526 0.304225 
-1.99075e-05 0.998169 0.0604845 
4.43287e-05 0.981612 -0.190887 
5.39244e-05 0.907569 -0.419904 
7.16221e-05 0.796333 -0.604858 
5.91821e-05 0.669472 -0.742837 
3.23067e-05 0.546686 -0.837338 
7.55176e-06 0.437925 -0.899012 
-1.64542e-05 0.346578 -0.938021 
-3.73572e-05 0.272392 -0.962186 
-5.36954e-05 0.213264 -0.976995 
-6.84199e-05 0.166733 -0.986002 
-7.80603e-05 0.130261 -0.99148 
-8.64896e-05 0.101749 -0.99481 
-9.36214e-05 0.0795083 -0.996834 
-9.8445e-05 0.0621352 -0.998068 
-0.000102519 0.0485564 -0.99882 
-0.000105808 0.0379334 -0.99928 
-0.000108398 0.0295996 -0.999562 
-0.000110199 0.0230439 -0.999734 
-0.000111988 0.0178648 -0.99984 
-0.000113111 0.013743 -0.999906 
-0.000113982 0.0104345 -0.999946 
-0.000114741 0.00774412 -0.99997 
-0.000115313 0.00550255 -0.999985 
-0.000115234 0.00359402 -0.999994 
-0.000116184 0.00190487 -0.999998 
-0.000115529 0.000345076 -1 
-0.000116125 -0.00115272 -0.999999 
-0.000115751 -0.00266074 -0.999996 
-0.000115398 -0.00418503 -0.999991 
-0.000115912 -0.00573582 -0.999984 
-0.000115161 -0.00729032 -0.999973 
-0.000115853 -0.00884926 -0.999961 
-0.000115127 -0.010444 -0.999945 
-0.000114126 -0.0121331 -0.999926 
-0.000117028 -0.0139218 -0.999903 
-0.000105978 -0.015609 -0.999878 
-0.000129378 -0.0165089 -0.999864 
-0.000101224 -0.0163897 -0.999866 
-9.52224e-05 -0.0144433 -0.999896 
-6.44459e-05 -0.00110218 -0.999999 
-0.000120647 0.000448446 1 
0.00505835 -0.00794044 0.999956 
0.00701359 -0.0127347 0.999894 
0.00775165 -0.0144652 0.999865 
0.00800126 -0.0142955 0.999866 
0.00832801 -0.0132076 0.999878 
0.00854407 -0.0116563 0.999896 
0.00855223 -0.00995834 0.999914 
0.00883841 -0.00838718 0.999926 
0.00893275 -0.00687773 0.999936 
0.0090088 -0.00536929 0.999945 
0.00897156 -0.00386733 0.999952 
0.00907764 -0.00236571 0.999956 
0.00903216 -0.000868308 0.999959 
0.00915755 0.00067207 0.999958 
0.00913139 0.002261 0.999956 
0.00908828 0.00401492 0.999951 
0.00914094 0.00602755 0.99994 
0.00904194 0.0083683 0.999924 
0.00909027 0.011228 0.999896 
0.00894897 0.014733 0.999851 
0.00892908 0.0191427 0.999777 
0.00887656 0.0246553 0.999657 
0.00882833 0.0316093 0.999461 
0.00875813 0.0404653 0.999143 
0.00872517 0.0518867 0.998615 
0.00883599 0.0664208 0.997753 
0.00893064 0.0846918 0.996367 
0.00899035 0.108098 0.9941 
0.00968189 0.139673 0.99015 
0.0103517 0.178647 0.983859 
0.011528 0.22728 0.973761 
0.0133639 0.292217 0.956259 
0.0158341 0.371321 0.92837 
0.0193731 0.4705 0.882188 
0.0224787 0.584402 0.811153 
0.0239018 0.710212 0.703582 
0.024305 0.840714 0.540934 
0.0165817 0.940618 0.339061 
0.0045397 0.996097 0.0881455 
-0.0087337 0.984887 -0.172981 
-0.0196542 0.905554 -0.423775 
-0.0232866 0.790143 -0.61248 
-0.0235839 0.66394 -0.747414 
-0.020668 0.541509 -0.840441 
-0.017714 0.433088 -0.901177 
-0.0146996 0.341656 -0.93971 
-0.0124127 0.268347 -0.963242 
-0.0107071 0.207196 -0.978241 
-0.00994829 0.162205 -0.986707 
-0.00939489 0.126933 -0.991867 
-0.00890749 0.0983577 -0.995111 
-0.00881121 0.0767004 -0.997015 
-0.00879779 0.0600071 -0.998159 
-0.00875789 0.0468681 -0.998863 
-0.00878114 0.0365974 -0.999292 
-0.00883035 0.0285186 -0.999554 
-0.00886459 0.0221309 -0.999716 
-0.00896565 0.0171189 -0.999813 
-0.00901161 0.0131528 -0.999873 
-0.00904993 0.00993613 -0.99991 
-0.00911243 0.00732354 -0.999932 
-0.00919267 0.00516647 -0.999944 
-0.00912842 0.00326716 -0.999953 
-0.00922168 0.00161749 -0.999956 
-0.00912021 5.13531e-05 -0.999958 
-0.00922195 -0.00142574 -0.999956 
-0.00919565 -0.00289566 -0.999954 
-0.00910492 -0.0043866 -0.999949 
-0.00910129 -0.00589944 -0.999941 
-0.00895381 -0.00744773 -0.999932 
-0.0089794 -0.00897926 -0.999919 
-0.00877524 -0.0106164 -0.999905 
-0.00862979 -0.012321 -0.999887 
-0.0084686 -0.0139846 -0.999866 
-0.00822095 -0.0153285 -0.999849 
-0.00771564 -0.0160349 -0.999842 
-0.0068922 -0.0155124 -0.999856 
-0.00432107 -0.0114826 -0.999925 
0.000264049 0.000357333 -1 
0.000303518 -0.000125056 1 
0.00674324 -0.0104848 0.999922 
0.00920947 -0.0141847 0.999857 
0.0102513 -0.0144487 0.999843 
0.0109782 -0.0138861 0.999843 
0.0114658 -0.0126158 0.999855 
0.0116554 -0.010848 0.999873 
0.0119592 -0.00917301 0.999886 
0.0121431 -0.0076083 0.999897 
0.0122306 -0.00609396 0.999907 
0.0123144 -0.00456874 0.999914 
0.0123939 -0.00309619 0.999918 
0.0124708 -0.00158633 0.999921 
0.0125046 -8.15942e-05 0.999922 
0.0125913 0.00151147 0.99992 
0.0125765 0.00318668 0.999916 
0.0125628 0.00507451 0.999908 
0.0125752 0.00730286 0.999894 
0.0125298 0.00987726 0.999873 
0.012489 0.0131521 0.999836 
0.0124333 0.0171107 0.999776 
0.0124185 0.0221175 0.999678 
0.0124164 0.0283243 0.999522 
0.0124309 0.0361828 0.999268 
0.012479 0.0463112 0.998849 
0.0127192 0.0591929 0.998166 
0.0131818 0.0754103 0.997065 
0.0137888 0.0957823 0.995307 
0.0145611 0.122395 0.992375 
0.0166542 0.158865 0.98716 
0.019389 0.200413 0.97952 
0.0223455 0.256332 0.96633 
0.0284083 0.328129 0.944206 
0.0349887 0.416251 0.908576 
0.0444826 0.52576 0.849469 
0.0518373 0.647777 0.760064 
0.0536877 0.778014 0.625949 
0.0481112 0.906493 0.419472 
0.0218361 0.98301 0.182249 
0.0136287 0.998068 0.0606201 
-0.0126585 0.994608 -0.102931 
-0.0377988 0.932368 -0.35953 
-0.0520082 0.807217 -0.58796 
-0.0520361 0.679928 -0.73143 
-0.0451892 0.554154 -0.831187 
-0.0371946 0.44687 -0.893825 
-0.0297092 0.352792 -0.93523 
-0.0241403 0.277495 -0.960424 
-0.0191602 0.218384 -0.975675 
-0.0171455 0.168034 -0.985632 
-0.0153641 0.132612 -0.991049 
-0.0138427 0.103911 -0.99449 
-0.0132172 0.080697 -0.996651 
-0.0128355 0.0631906 -0.997919 
-0.0125469 0.0495817 -0.998691 
-0.0124251 0.0388815 -0.999167 
-0.0123786 0.0304397 -0.99946 
-0.0123686 0.0236993 -0.999643 
-0.0124315 0.01838 -0.999754 
-0.0125058 0.0141475 -0.999822 
-0.0125313 0.0107876 -0.999863 
-0.0125906 0.00801521 -0.999889 
-0.0126498 0.00573158 -0.999904 
-0.0126224 0.00377076 -0.999913 
-0.012678 0.00202645 -0.999918 
-0.012609 0.000430986 -0.99992 
-0.0126497 -0.00106994 -0.999919 
-0.0126031 -0.0025427 -0.999917 
-0.0125172 -0.00400679 -0.999914 
-0.0124375 -0.00547852 -0.999908 
-0.0122998 -0.00703629 -0.9999 
-0.0122439 -0.00856879 -0.999888 
-0.0119726 -0.0102005 -0.999876 
-0.0117336 -0.0119457 -0.99986 
-0.0113885 -0.0136214 -0.999842 
-0.0108335 -0.0149089 -0.99983 
-0.0100467 -0.0156667 -0.999827 
-0.00877482 -0.0156094 -0.99984 
-0.00581793 -0.01155 -0.999916 
-0.000490681 1.24152e-05 -1 
-0.000143881 0.000291422 1 
0.00683615 -0.0115047 0.99991 
0.00891364 -0.0148359 0.99985 
0.0102104 -0.0146436 0.999841 
0.0110496 -0.0141151 0.999839 
0.0115417 -0.0129223 0.99985 
0.0119726 -0.0111728 0.999866 
0.0121492 -0.00944612 0.999882 
0.012307 -0.00785669 0.999893 
0.0124605 -0.00635859 0.999902 
0.012607 -0.00489383 0.999909 
0.0127042 -0.00341924 0.999913 
0.0128042 -0.00197877 0.999916 
0.0128706 -0.000460854 0.999917 
0.0129245 0.00105529 0.999916 
0.0129566 0.00275149 0.999912 
0.0129812 0.00453846 0.999905 
0.0129897 0.00661726 0.999894 
0.0129725 0.00912754 0.999874 
0.0129802 0.0120599 0.999843 
0.0129693 0.0158295 0.999791 
0.0129793 0.0203311 0.999709 
0.01303 0.0260187 0.999577 
0.0131589 0.0330523 0.999367 
0.0133974 0.042035 0.999026 
0.0138188 0.0533326 0.998481 
0.0144868 0.0673811 0.997622 
0.0155587 0.0850949 0.996251 
0.0170505 0.108086 0.993995 
0.0191953 0.137503 0.990315 
0.0236036 0.173722 0.984512 
0.0282758 0.221135 0.974833 
0.0349711 0.278021 0.959938 
0.0459812 0.354832 0.933799 
0.0584742 0.44663 0.892806 
0.0761015 0.557507 0.826677 
0.0897006 0.681071 0.726702 
0.0904891 0.817213 0.569188 
0.0774446 0.936598 0.34174 
0.0143719 0.999412 0.0311196 
-0.050792 0.971137 -0.233052 
-0.0783253 0.874031 -0.479515 
-0.0916822 0.741742 -0.664389 
-0.0798372 0.614053 -0.785217 
-0.0670044 0.501174 -0.862748 
-0.0516041 0.402496 -0.913966 
-0.0404852 0.319718 -0.946647 
-0.0317025 0.253103 -0.96692 
-0.0247754 0.200601 -0.97936 
-0.0216141 0.157758 -0.987241 
-0.0183947 0.124356 -0.992067 
-0.0162208 0.0979841 -0.995056 
-0.0149566 0.0768315 -0.996932 
-0.014115 0.0605448 -0.998066 
-0.0135617 0.0478154 -0.998764 
-0.0132348 0.0376924 -0.999202 
-0.0130569 0.0294911 -0.99948 
-0.0129805 0.0230578 -0.99965 
-0.0129616 0.0178925 -0.999756 
-0.0129703 0.0138502 -0.99982 
-0.0130141 0.010548 -0.99986 
-0.013042 0.00789899 -0.999884 
-0.0130225 0.0056978 -0.999899 
-0.0130658 0.00383851 -0.999907 
-0.0130391 0.00217794 -0.999913 
-0.0130745 0.000613548 -0.999914 
-0.0129968 -0.000913325 -0.999915 
-0.0129266 -0.00238598 -0.999914 
-0.012847 -0.00385786 -0.99991 
-0.0127474 -0.00531747 -0.999905 
-0.0126534 -0.00682342 -0.999897 
-0.0124257 -0.00843456 -0.999887 
-0.0122358 -0.010048 -0.999875 
-0.0119269 -0.0118109 -0.999859 
-0.0114382 -0.0135509 -0.999843 
-0.010816 -0.0147951 -0.999832 
-0.00991245 -0.0154972 -0.999831 
-0.00860511 -0.0156025 -0.999841 
-0.00648564 -0.0118328 -0.999909 
-0.00014981 6.57442e-05 -1 
0.00405269 -0.00846259 0.999956 
0.00741777 -0.0138648 0.999876 
0.00909543 -0.0150632 0.999845 
0.0101012 -0.0145513 0.999843 
0.0107987 -0.0136376 0.999849 
0.0106735 -0.012679 0.999863 
0.0113679 -0.0117696 0.999866 
0.0115978 -0.00998809 0.999883 
0.0117893 -0.00830182 0.999896 
0.011962 -0.006737 0.999906 
0.0121432 -0.00526076 0.999912 
0.0122868 -0.00382923 0.999917 
0.0123967 -0.00232691 0.99992 
0.0125034 -0.000850152 0.999921 
0.012551 0.000741082 0.999921 
0.0126273 0.00236066 0.999917 
0.0126426 0.00424459 0.999911 
0.0126829 0.00625455 0.9999 
0.0126955 0.0086616 0.999882 
0.0127182 0.0117114 0.999851 
0.012766 0.0151889 0.999803 
0.0128185 0.0198147 0.999721 
0.0129492 0.0252437 0.999597 
0.0131933 0.0322264 0.999394 
0.0136045 0.0408404 0.999073 
0.014231 0.0516545 0.998564 
0.0152759 0.0651974 0.997755 
0.0169069 0.0833068 0.996381 
0.0192195 0.106118 0.994168 
0.022347 0.134439 0.99067 
0.0286261 0.171911 0.984696 
0.0354732 0.214338 0.976115 
0.0453601 0.275953 0.9601 
0.0616321 0.348845 0.935152 
0.0810662 0.440563 0.894054 
0.109654 0.544367 0.831649 
0.134606 0.677665 0.722946 
0.144839 0.819809 0.554017 
0.146807 0.930882 0.334524 
-0.116699 0.955917 -0.269451 
-0.128544 0.868901 -0.478003 
-0.143475 0.740098 -0.657016 
-0.117233 0.609314 -0.784215 
-0.095061 0.490715 -0.866119 
-0.0708079 0.398141 -0.914587 
-0.0537373 0.316233 -0.947158 
-0.0407583 0.24942 -0.967537 
-0.0309137 0.198031 -0.979708 
-0.0256845 0.154799 -0.987612 
-0.0211771 0.122863 -0.992198 
-0.0180251 0.0967743 -0.995143 
-0.0162 0.07667 -0.996925 
-0.0148386 0.0601982 -0.998076 
-0.0139461 0.0474158 -0.998778 
-0.0133898 0.0375472 -0.999205 
-0.013061 0.0296583 -0.999475 
-0.0128723 0.0231628 -0.999649 
-0.0127832 0.0180791 -0.999755 
-0.0127267 0.0139302 -0.999822 
-0.0127557 0.010679 -0.999862 
-0.0126972 0.00796332 -0.999888 
-0.0126838 0.0057132 -0.999903 
-0.0127277 0.0037714 -0.999912 
-0.0126731 0.00203384 -0.999918 
-0.012714 0.000452594 -0.999919 
-0.0126256 -0.00107262 -0.99992 
-0.0125592 -0.0025825 -0.999918 
-0.0124564 -0.00402038 -0.999914 
-0.0123175 -0.00548726 -0.999909 
-0.0122562 -0.00701722 -0.9999 
-0.0119212 -0.00857767 -0.999892 
-0.0117525 -0.0102465 -0.999878 
-0.0114118 -0.0120414 -0.999862 
-0.0108531 -0.0137198 -0.999847 
-0.0102072 -0.0149439 -0.999836 
-0.00923708 -0.0155883 -0.999836 
-0.00789212 -0.0154841 -0.999849 
-0.00607574 -0.0116916 -0.999913 
-0.000212168 5.69566e-05 -1 
-8.84855e-05 0.000236655 1 
0.00538136 -0.0115576 0.999919 
0.00785031 -0.0153605 0.999851 
0.00882649 -0.015048 0.999848 
0.00986361 -0.0144958 0.999846 
0.00979333 -0.0137273 0.999858 
0.0107538 -0.0107667 0.999884 
0.0109022 -0.00906178 0.9999 
0.0110371 -0.00747027 0.999911 
0.0112127 -0.00596634 0.999919 
0.0114095 -0.00457896 0.999924 
0.011606 -0.00317254 0.999928 
0.0116612 -0.00170642 0.999931 
0.011776 -0.00023459 0.999931 
0.0117779 0.00137734 0.99993 
0.0119177 0.00305079 0.999924 
0.011866 0.00494952 0.999917 
0.0119514 0.00704532 0.999904 
0.012053 0.00968758 0.99988 
0.0120281 0.0126985 0.999847 
0.0121961 0.0164037 0.999791 
0.0122258 0.0209279 0.999706 
0.0124796 0.0265975 0.999568 
0.0128676 0.033726 0.999348 
0.0135195 0.042359 0.999011 
0.0143933 0.0528433 0.998499 
0.0158734 0.0670195 0.997625 
0.0180928 0.084995 0.996217 
0.0212325 0.107086 0.994023 
0.0257266 0.136567 0.990297 
0.0329769 0.167034 0.985399 
0.0424637 0.215165 0.975654 
0.0558958 0.272507 0.960529 
0.0777051 0.343447 0.935952 
0.104705 0.425779 0.898749 
0.147742 0.535128 0.831751 
0.194512 0.661299 0.724465 
0.245676 0.773187 0.584659 
-0.233886 0.805503 -0.544483 
-0.191906 0.662531 -0.724034 
-0.148654 0.548646 -0.822733 
-0.111511 0.441653 -0.890229 
-0.0814483 0.35945 -0.929603 
-0.0600939 0.286831 -0.956095 
-0.0460837 0.230382 -0.972008 
-0.0351606 0.188111 -0.981518 
-0.0291294 0.150819 -0.988132 
-0.0235525 0.121766 -0.992279 
-0.0196032 0.0975127 -0.995041 
-0.0169587 0.076591 -0.996918 
-0.015148 0.0608113 -0.998034 
-0.0138537 0.0475398 -0.998773 
-0.0130412 0.0373935 -0.999216 
-0.0126047 0.0296513 -0.999481 
-0.0123476 0.0234091 -0.99965 
-0.0121601 0.0181947 -0.999761 
-0.01204 0.014114 -0.999828 
-0.0119728 0.0106865 -0.999871 
-0.011915 0.00798859 -0.999897 
-0.0118749 0.00568634 -0.999913 
-0.0118984 0.00370411 -0.999922 
-0.0118176 0.00195259 -0.999928 
-0.0118914 0.000351697 -0.999929 
-0.0118309 -0.00124944 -0.999929 
-0.0117344 -0.00271922 -0.999927 
-0.0116615 -0.00420241 -0.999923 
-0.0115115 -0.0056274 -0.999918 
-0.0114686 -0.00708036 -0.999909 
-0.0110461 -0.00860466 -0.999902 
-0.0109512 -0.0102467 -0.999888 
-0.0105975 -0.0119912 -0.999872 
-0.0101007 -0.013809 -0.999854 
-0.00949685 -0.0150241 -0.999842 
-0.00861892 -0.0156046 -0.999841 
-0.00734541 -0.0155976 -0.999851 
-0.00564036 -0.011641 -0.999916 
-0.000204293 6.04133e-05 -1 
0.000249994 -2.70273e-05 1 
0.00485885 -0.0114616 0.999923 
0.00681295 -0.015225 0.999861 
0.00749751 -0.0154105 0.999853 
0.00843428 -0.01478 0.999855 
0.00857227 -0.0135016 0.999872 
0.00959537 -0.0117903 0.999884 
0.00949006 -0.00985058 0.999906 
0.00961623 -0.00817822 0.99992 
0.00979106 -0.00659727 0.99993 
0.00994511 -0.00512671 0.999937 
0.0102276 -0.0037279 0.999941 
0.010368 -0.00230082 0.999944 
0.0103864 -0.000739954 0.999946 
0.0104925 0.000809586 0.999945 
0.0105599 0.00260319 0.999941 
0.0105974 0.00439132 0.999934 
0.010604 0.00658541 0.999922 
0.010874 0.00908295 0.9999 
0.0107474 0.0120935 0.999869 
0.0109731 0.0157402 0.999816 
0.0110302 0.0199614 0.99974 
0.0113318 0.0254695 0.999611 
0.011798 0.0322689 0.99941 
0.0125305 0.0408739 0.999086 
0.0137718 0.0519813 0.998553 
0.015599 0.0660256 0.997696 
0.018224 0.0832007 0.996366 
0.0217474 0.102884 0.994456 
0.026304 0.12714 0.991536 
0.031543 0.144747 0.988966 
0.0404145 0.182341 0.982404 
0.0530767 0.227695 0.972285 
0.0710044 0.282323 0.956688 
0.0990916 0.346332 0.932864 
0.136708 0.43069 0.892086 
0.199282 0.527187 0.826051 
0.276564 0.600685 0.750126 
-0.27826 0.653269 -0.704138 
-0.200639 0.532687 -0.822185 
-0.143635 0.442518 -0.885182 
-0.100098 0.353181 -0.930185 
-0.0724467 0.287601 -0.955006 
-0.0532926 0.227664 -0.97228 
-0.0393496 0.18281 -0.982361 
-0.0297936 0.141517 -0.989487 
-0.0233613 0.111973 -0.993437 
-0.0192703 0.0902168 -0.995736 
-0.0162435 0.071148 -0.997333 
-0.0142813 0.0562529 -0.998314 
-0.0128134 0.0440591 -0.998947 
-0.0119097 0.0349039 -0.99932 
-0.0114502 0.0278246 -0.999547 
-0.011201 0.0219501 -0.999696 
-0.010922 0.0172449 -0.999792 
-0.0108133 0.0133026 -0.999853 
-0.0106798 0.0102103 -0.999891 
-0.0105949 0.00758524 -0.999915 
-0.0104985 0.00536959 -0.99993 
-0.0105666 0.00350301 -0.999938 
-0.0103537 0.00185879 -0.999945 
-0.0105664 0.000351276 -0.999944 
-0.0105648 -0.00114434 -0.999944 
-0.0103733 -0.00268731 -0.999943 
-0.0103764 -0.00410252 -0.999938 
-0.0101222 -0.00554811 -0.999933 
-0.010128 -0.0070266 -0.999924 
-0.00966886 -0.00860458 -0.999916 
-0.00957475 -0.0102636 -0.999901 
-0.00931573 -0.012102 -0.999883 
-0.00881877 -0.0139083 -0.999864 
-0.0083251 -0.0151714 -0.99985 
-0.00758505 -0.0157735 -0.999847 
-0.00642012 -0.0156286 -0.999857 
-0.00504425 -0.0116693 -0.999919 
-0.000176991 5.88167e-05 -1 
0.000123954 0.000102009 1 
0.00407632 -0.0114624 0.999926 
0.00569738 -0.015331 0.999866 
0.00634539 -0.0155134 0.99986 
0.0072048 -0.0148343 0.999864 
0.00725312 -0.0134586 0.999883 
0.00821535 -0.0115137 0.9999 
0.0080031 -0.0096085 0.999922 
0.0081807 -0.00791492 0.999935 
0.00834946 -0.00635236 0.999945 
0.00849592 -0.00489217 0.999952 
0.00876973 -0.00350009 0.999955 
0.00896306 -0.00201035 0.999958 
0.0088809 -0.0004612 0.99996 
0.00912712 0.00122439 0.999958 
0.00904216 0.00291763 0.999955 
0.00921458 0.00487121 0.999946 
0.00909285 0.00693768 0.999935 
0.00945904 0.00918631 0.999913 
0.00916253 0.0117002 0.99989 
0.0095397 0.0148556 0.999844 
0.00956041 0.0187361 0.999779 
0.00991127 0.0235805 0.999673 
0.0103718 0.0297337 0.999504 
0.0111095 0.0373742 0.99924 
0.0122862 0.0471618 0.998812 
0.0140104 0.059298 0.998142 
0.0164674 0.0742967 0.9971 
0.0198369 0.0918838 0.995572 
0.0249319 0.114604 0.993098 
0.0345138 0.149137 0.988214 
0.0458113 0.186762 0.981336 
0.0615607 0.230902 0.971028 
0.0840977 0.283552 0.955262 
0.123349 0.35526 0.926594 
0.176875 0.434489 0.883139 
0.254987 0.481223 0.838693 
-0.270037 0.523371 -0.808185 
-0.185193 0.437115 -0.880133 
-0.130919 0.371464 -0.91917 
-0.0928052 0.301589 -0.94891 
-0.0683522 0.249942 -0.965845 
-0.0504063 0.20096 -0.978302 
-0.0386382 0.167513 -0.985112 
-0.0292433 0.1324 -0.990765 
-0.0229028 0.106609 -0.994037 
-0.0184927 0.0855468 -0.996163 
-0.0152427 0.0678078 -0.997582 
-0.0133126 0.0546385 -0.998417 
-0.0117613 0.0435202 -0.998983 
-0.0106992 0.0345336 -0.999346 
-0.0101194 0.0275024 -0.999571 
-0.00987476 0.0220103 -0.999709 
-0.00951726 0.0173277 -0.999805 
-0.00942074 0.0135488 -0.999864 
-0.00920616 0.0103663 -0.999904 
-0.00913593 0.00780484 -0.999928 
-0.0090134 0.00556495 -0.999944 
-0.00898401 0.00359886 -0.999953 
-0.00891512 0.00180463 -0.999959 
-0.00897088 0.000113442 -0.99996 
-0.00910062 -0.00143933 -0.999958 
-0.00885077 -0.00293934 -0.999957 
-0.0088983 -0.00436341 -0.999951 
-0.00856721 -0.00572389 -0.999947 
-0.00865102 -0.00709648 -0.999937 
-0.00814002 -0.00857971 -0.99993 
-0.00814457 -0.0102206 -0.999915 
-0.0079331 -0.01201 -0.999896 
-0.00746812 -0.0138303 -0.999876 
-0.00708394 -0.0152044 -0.999859 
-0.0064389 -0.0157762 -0.999855 
-0.00544942 -0.0157386 -0.999861 
-0.00430641 -0.0117436 -0.999922 
-0.00014404 5.95229e-05 -1 
0.000126307 5.37176e-05 1 
0.00342114 -0.0117332 0.999925 
0.00475839 -0.0155701 0.999867 
0.0052396 -0.0155334 0.999866 
0.00600303 -0.0148588 0.999872 
0.00598204 -0.0135125 0.999891 
0.00685715 -0.0115709 0.99991 
0.006622 -0.00976029 0.99993 
0.00680831 -0.00807658 0.999944 