# vtk DataFile Version 3.0 
Exported using Morpho https://github.com/Morpho-lang/morpho 
ASCII 
DATASET UNSTRUCTURED_GRID 

POINTS 1978 float 
-8.45021 -2.78354 5.87134e-06 
-8.21699 -2.79629 -0.00102263 
-8.03815 -2.79406 -0.00280627 
-7.79144 -2.78018 -0.00314139 
-7.46279 -2.77121 -0.00196909 
-7.19357 -2.78056 -0.00134106 
-6.99505 -2.78624 -0.000466563 
-6.75886 -2.78153 -0.000301581 
-6.50686 -2.78932 -0.00038878 
-6.3436 -2.79814 -0.000226361 
-6.18044 -2.7891 -0.000801844 
-5.95188 -2.78311 -0.000364256 
-5.72488 -2.78018 -0.00034374 
-5.51724 -2.78209 -0.000198659 
-5.29466 -2.78123 0.000152935 
-5.08343 -2.78191 -6.01376e-05 
-4.86435 -2.78258 6.79132e-05 
-4.65838 -2.78112 7.91827e-05 
-4.4382 -2.78324 0.000172775 
-4.21985 -2.78235 0.000405418 
-4.00358 -2.78501 0.000513263 
-3.79362 -2.78345 0.000528415 
-3.57456 -2.78164 0.000458001 
-3.36169 -2.78046 0.000903972 
-3.12849 -2.78366 0.00148194 
-2.91468 -2.78758 0.00176795 
-2.6954 -2.79465 0.00185824 
-2.50381 -2.80158 0.0019068 
-2.29486 -2.80279 0.00241847 
-2.08218 -2.80686 0.00311255 
-1.87447 -2.80664 0.00358214 
-1.66715 -2.81012 0.00354365 
-1.47301 -2.81822 0.00294431 
-1.26238 -2.81777 0.0018389 
-1.06921 -2.80706 0.00143267 
-0.826424 -2.80752 -0.00049397 
-0.614867 -2.80151 -0.000800676 
-0.440942 -2.78954 -0.00123151 
-0.195788 -2.77963 -0.000399933 
0.0572169 -2.77051 -0.000441197 
0.224444 -2.79806 0.00171511 
0.386787 -2.7904 0.000736348 
0.589791 -2.79812 7.05066e-05 
0.842864 -2.81155 0.000583463 
1.06229 -2.81025 -0.000846366 
1.24052 -2.82643 -0.00167011 
1.41672 -2.81796 -0.00320739 
1.67363 -2.81717 -0.00299612 
1.8473 -2.8097 -0.00366828 
2.07554 -2.80203 -0.00297658 
2.3061 -2.80142 -0.00220367 
2.48745 -2.7989 -0.00196837 
2.72053 -2.79155 -0.00175992 
2.9439 -2.79145 -0.00166728 
3.15678 -2.78462 -0.00130999 
3.36893 -2.7821 -0.000717209 
3.60024 -2.78394 -0.000632822 
3.80191 -2.7828 -0.000684153 
4.01813 -2.78093 -0.000520168 
4.24885 -2.78324 -0.00026677 
4.44699 -2.78407 -0.000122885 
4.65865 -2.78475 -0.000119964 
4.86957 -2.78331 -0.000345705 
5.07142 -2.78502 -3.46645e-05 
5.28681 -2.78227 0.000233946 
5.49892 -2.78409 0.000159419 
5.70119 -2.78375 0.000195946 
5.92454 -2.78263 7.35183e-05 
6.14928 -2.78379 0.000226108 
6.34598 -2.7843 0.000670588 
6.58697 -2.7855 0.00061689 
6.79597 -2.78658 0.000457805 
6.99202 -2.78313 0.000522124 
7.25887 -2.7796 0.00141109 
7.4878 -2.78797 0.00229147 
7.7256 -2.79324 0.00180698 
7.97196 -2.79828 0.00144753 
8.14405 -2.79458 -2.64154e-05 
8.42884 -2.76281 -0.000270129 
-8.44975 -2.53955 0.000393123 
-8.24938 -2.58672 0.000899631 
-8.01833 -2.51652 -0.000195559 
-7.83752 -2.5806 -0.00114578 
-7.57017 -2.61973 -0.000330962 
-7.25001 -2.58884 -0.000393286 
-6.99837 -2.53197 0.000124105 
-6.8003 -2.57236 -0.000135626 
-6.55703 -2.59261 -5.81572e-05 
-6.32903 -2.50157 -8.40771e-05 
-6.11986 -2.57529 -0.000257099 
-5.89334 -2.56649 2.44458e-05 
-5.67895 -2.54376 -0.000444633 
-5.46108 -2.5625 -0.000468971 
-5.24456 -2.55389 -0.0002789 
-5.02684 -2.56388 -0.000212958 
-4.8196 -2.55092 -0.000315402 
-4.60027 -2.56505 -0.000251029 
-4.38017 -2.56514 -5.27817e-05 
-4.16054 -2.56105 -0.000133388 
-3.9513 -2.55231 -0.000338169 
-3.73552 -2.55745 -0.000334943 
-3.52237 -2.54789 -0.000201842 
-3.29862 -2.56895 -0.000272231 
-3.0844 -2.55735 -0.000388437 
-2.86589 -2.57522 -0.000287891 
-2.66733 -2.56428 0.000183435 
-2.46288 -2.59455 0.000126702 
-2.24543 -2.59987 0.000126651 
-2.0345 -2.59546 3.93981e-05 
-1.82198 -2.59147 -0.000161294 
-1.61849 -2.57471 -0.000253891 
-1.41059 -2.59288 -0.000656796 
-1.21211 -2.56157 -0.000616611 
-0.97977 -2.60111 -0.000456028 
-0.763386 -2.55872 -0.00109397 
-0.5878 -2.48313 -0.00155226 
-0.400319 -2.4868 -0.00195027 
-0.210185 -2.54305 -0.00133077 
-0.007657 -2.47758 0.00134291 
0.201457 -2.42682 0.000106308 
0.407662 -2.49166 0.00120233 
0.611415 -2.51495 0.00177964 
0.806498 -2.60016 0.00116646 
1.0504 -2.5856 0.000628271 
1.27594 -2.56694 0.00111004 
1.51011 -2.64887 -0.000308686 
1.69789 -2.56444 0.000112266 
1.91357 -2.61708 -0.000737217 
2.15454 -2.61209 -0.000472223 
2.35005 -2.55705 -0.000374884 
2.56341 -2.60246 -4.6634e-05 
2.79241 -2.58301 0.000287779 
3.00238 -2.56576 0.000388402 
3.21439 -2.55402 0.000210061 
3.43934 -2.57021 0.00014438 
3.646 -2.54304 0.000292363 
3.86066 -2.55832 0.000445999 
4.09207 -2.57309 0.000189468 
4.3016 -2.54095 0.000147033 
4.51542 -2.55993 0.00038066 
4.73091 -2.55945 0.000476021 
4.94159 -2.55063 0.000294278 
5.15383 -2.56678 -7.35858e-06 
5.3737 -2.56076 0.000149679 
5.58343 -2.54922 0.000420952 
5.80057 -2.56537 0.000374401 
6.02815 -2.56683 2.31712e-06 
6.23997 -2.53725 0.000156165 
6.46077 -2.58125 0.000696448 
6.68832 -2.5487 0.000159303 
6.89284 -2.53119 4.14353e-05 
7.11959 -2.59189 0.000722458 
7.37254 -2.56248 0.000487899 
7.6055 -2.57713 0.000959275 
7.85222 -2.5933 -0.000318663 
8.05261 -2.50764 9.00142e-05 
8.2594 -2.60446 0.000383512 
8.44309 -2.48181 -0.000476602 
-8.44689 -2.35787 0.00378177 
-8.16632 -2.35081 -0.000525332 
-7.91908 -2.2716 0.000652387 
-7.71536 -2.4054 -0.000353105 
-7.567 -2.26275 0.000593892 
-7.4236 -2.44245 -0.001282 
-7.16147 -2.36514 0.000156642 
-6.93415 -2.28679 -0.00023551 
-6.71142 -2.37532 -0.000157417 
-6.49712 -2.35061 -0.00023945 
-6.2153 -2.30808 0.000118306 
-6.01581 -2.35115 0.000271557 
-5.79992 -2.32723 -0.00022861 
-5.56985 -2.32637 -0.000213556 
-5.35935 -2.33264 0.000214529 
-5.13539 -2.33717 0.000374154 
-4.92675 -2.32602 0.000218924 
-4.70445 -2.34005 0.000137435 
-4.48551 -2.34512 0.00021442 
-4.26561 -2.34291 0.000327623 
-4.05003 -2.32278 0.000164175 
-3.83384 -2.32667 0.000235077 
-3.62083 -2.3196 0.00040855 
-3.39665 -2.33845 0.000410916 
-3.18627 -2.33501 0.000377079 
-2.96541 -2.35003 0.000292509 
-2.76168 -2.33842 0.000252271 
-2.55275 -2.36277 0.000115392 
-2.34769 -2.39549 0.000128968 
-2.1279 -2.38449 0.000382067 
-1.90868 -2.37869 0.00034184 
-1.69112 -2.35018 0.000454817 
-1.46905 -2.35054 0.000449006 
-1.26704 -2.31602 0.000885325 
-1.04444 -2.37342 0.000152987 
-0.817357 -2.33656 0.00112317 
-0.605062 -2.18078 -0.00158132 
-0.403914 -2.18262 -0.000630615 
-0.200874 -2.23421 -0.000861566 
0.0113649 -2.14665 5.07609e-05 
0.214798 -2.11709 0.00106105 
0.418901 -2.16828 0.000469241 
0.617442 -2.2209 0.00238388 
0.833333 -2.35649 0.000276187 
1.05725 -2.36314 0.000290948 
1.2513 -2.31706 -0.000463697 
1.46182 -2.43125 -0.000940222 
1.6554 -2.33823 1.34118e-06 
1.87155 -2.39597 -9.25958e-05 
2.08735 -2.42545 -0.000346407 
2.30404 -2.33685 -0.000288869 
2.52201 -2.37802 -0.00030609 
2.72718 -2.3834 -0.000242478 
2.94616 -2.3392 -0.000529475 
3.14966 -2.32753 -0.000393096 
3.36972 -2.34603 -0.000292219 
3.57585 -2.31345 -0.000314073 
3.79014 -2.32427 -0.000415064 
4.00874 -2.35538 -0.000299078 
4.21893 -2.31815 -0.000302901 
4.44312 -2.3267 -0.000286298 
4.6532 -2.33239 -0.000124364 
4.86408 -2.32616 2.93503e-05 
5.08202 -2.33537 -0.000252845 
5.292 -2.34556 -0.000362683 
5.50882 -2.32275 -5.89741e-05 
5.72823 -2.33373 0.00040178 
5.94498 -2.34918 -6.22066e-06 
6.15897 -2.31516 -0.000448563 
6.3939 -2.34181 -4.3315e-05 
6.60351 -2.34042 0.000213479 
6.82689 -2.2895 -9.37469e-05 
7.05429 -2.34959 -0.000534044 
7.27234 -2.37299 -0.000725897 
7.53471 -2.35224 0.00132505 
7.77217 -2.38205 -0.000482898 
7.9798 -2.28692 0.000511546 
8.23082 -2.34816 -0.000245429 
8.45171 -2.255 -0.00117286 
-8.43339 -2.11703 0.00329065 
-8.22689 -2.16741 0.000600365 
-8.05159 -2.05671 0.00105468 
-7.77391 -2.11299 8.03038e-05 
-7.5181 -2.04323 -0.0004606 
-7.31748 -2.21434 0.000760262 
-7.08401 -2.10784 6.37648e-05 
-6.78706 -2.11667 0.000249796 
-6.5898 -2.12236 0.000106232 
-6.35788 -2.14951 8.01904e-05 
-6.11187 -2.07845 3.40742e-05 
-5.91759 -2.10689 -0.000107526 
-5.68965 -2.10948 -7.42275e-05 
-5.46746 -2.09311 0.000197258 
-5.25309 -2.11397 9.59894e-05 
-5.04248 -2.09661 0.000139659 
-4.82335 -2.11247 -0.000164178 
-4.60603 -2.11864 -6.67361e-05 
-4.38876 -2.11906 -0.000229 
-4.17766 -2.10483 -0.000202538 
-3.95799 -2.09326 -6.87423e-05 
-3.74667 -2.0892 -6.29174e-05 
-3.5234 -2.10483 -0.000361512 
-3.31376 -2.10403 -0.000388511 
-3.09681 -2.11979 -9.61087e-05 
-2.89124 -2.11662 -5.28293e-05 
-2.67582 -2.12532 0.000120246 
-2.46834 -2.14938 0.000247135 
-2.26262 -2.17956 0.000304024 
-2.03673 -2.16107 0.000458963 
-1.81496 -2.14139 0.000389773 
-1.57657 -2.12047 -6.61325e-05 
-1.36413 -2.07126 0.000370852 
-1.18291 -1.97006 -0.000430429 
-1.06186 -2.13231 0.000198145 
-0.819124 -2.10682 -6.21173e-05 
-0.570377 -1.8895 -0.00227669 
-0.362139 -1.86085 -0.00153415 
-0.159365 -1.9177 -0.000209324 
0.0248257 -1.73268 -0.000478418 
0.194807 -1.77372 -0.000124917 
0.353287 -1.72752 0.00128171 
0.539609 -1.89047 6.11079e-07 
0.742778 -2.00373 0.00186881 
0.936997 -2.10885 0.000149824 
1.16607 -2.09059 0.00101297 
1.44075 -2.18562 -0.00012793 
1.67341 -2.11928 0.000229863 
1.89503 -2.17829 -0.000647693 
2.10974 -2.19921 -0.000444813 
2.37125 -2.13521 -0.000152684 
2.57513 -2.14923 -0.000257263 
2.78052 -2.15519 0.000115765 
2.98454 -2.0951 -2.4567e-06 
3.20553 -2.11197 0.000281792 
3.40545 -2.10126 0.000289415 
3.62023 -2.08297 0.000146103 
3.84068 -2.10641 0.000240649 
4.04301 -2.1138 0.00014965 
4.27405 -2.09978 0.000138677 
4.48623 -2.0922 0.000240715 
4.69754 -2.09955 -4.49627e-05 
4.91717 -2.10771 2.21755e-06 
5.12706 -2.10442 0.000144463 
5.33733 -2.11596 -5.37185e-05 
5.56228 -2.10001 -0.000186649 
5.78072 -2.10901 0.00023788 
5.98914 -2.11046 0.000105525 
6.23465 -2.11076 -0.000186009 
6.44401 -2.098 -0.000322292 
6.65527 -2.10102 -1.58793e-05 
6.91489 -2.0875 0.000488096 
7.13061 -2.12126 -0.00033573 
7.36116 -2.16928 8.64702e-05 
7.5491 -2.07163 7.52018e-06 
7.72795 -2.15939 -0.000216524 
7.93949 -2.06526 -0.000624017 
8.18326 -2.13591 7.01294e-05 
8.45172 -2.06917 -0.00212558 
-8.42561 -1.78477 0.00175454 
-8.27609 -1.90808 0.000308756 
-7.88554 -1.90101 2.68065e-05 
-7.65769 -1.87814 -0.000638014 
-7.42657 -1.78463 6.00137e-05 
-7.29071 -1.97779 0.000186248 
[...]
POINT_DATA 1978 
VECTORS vectors float
0.149693 -0.222403 0.961372 
0.154132 -0.173411 0.973683 
0.164414 -0.134126 0.978195 
0.177566 -0.0969539 0.980497 
0.188635 -0.0766453 0.979512 
0.194392 -0.0681629 0.978893 
0.195996 -0.0606673 0.979333 
0.195181 -0.0487248 0.979949 
0.193496 -0.0384036 0.980979 
0.194457 -0.0267324 0.980372 
0.196211 -0.0153335 0.980857 
0.200889 -0.00973377 0.97977 
0.2025 -0.00692251 0.979534 
0.204066 -0.00575155 0.979116 
0.205001 -0.00564874 0.978841 
0.205834 -0.00437173 0.978587 
0.205863 -0.00311856 0.978602 
0.20491 -0.00248517 0.97882 
0.203829 -0.000959979 0.979081 
0.202415 0.00153051 0.979418 
0.201264 0.00680772 0.979664 
0.199455 0.0133593 0.980082 
0.198214 0.019707 0.980364 
0.1957 0.0252242 0.980819 
0.191497 0.0319479 0.981472 
0.185212 0.0420079 0.982508 
0.178556 0.0608947 0.982882 
0.171308 0.0865397 0.9823 
0.162544 0.119768 0.980467 
0.152907 0.158733 0.976727 
0.139665 0.205576 0.970219 
0.120632 0.266691 0.958079 
0.100611 0.340011 0.936847 
0.079163 0.438785 0.896941 
0.0581892 0.541408 0.840578 
0.0321927 0.681902 0.731671 
0.0156677 0.806046 0.592556 
0.00808942 0.892098 0.453529 
0.00202691 0.975336 0.212674 
-0.000399114 0.997402 -0.0660938 
0.000628007 0.968076 -0.245139 
-0.00244722 0.914744 -0.407127 
-0.0116498 0.816499 -0.577583 
-0.0318639 0.668814 -0.743883 
-0.056942 0.542826 -0.839625 
-0.0766767 0.449163 -0.890646 
-0.0949553 0.364635 -0.927892 
-0.121092 0.263314 -0.958569 
-0.13681 0.20962 -0.969805 
-0.152988 0.158317 -0.976758 
-0.164097 0.1174 -0.980596 
-0.170924 0.0900534 -0.982136 
-0.179347 0.0625594 -0.982463 
-0.186285 0.0435242 -0.982124 
-0.190813 0.0311275 -0.981746 
-0.194829 0.0245185 -0.980939 
-0.198318 0.0172545 -0.98026 
-0.200623 0.0100858 -0.979933 
-0.202915 0.00714654 -0.979245 
-0.203925 0.00561885 -0.979095 
-0.202945 0.00259076 -0.979403 
-0.20405 -0.000738479 -0.979016 
-0.204853 -0.00399184 -0.978945 
-0.204859 -0.00477276 -0.978848 
-0.204418 -0.00499742 -0.978925 
-0.202065 -0.00672376 -0.97955 
-0.201032 -0.0114979 -0.97971 
-0.201378 -0.0173258 -0.979525 
-0.200701 -0.0193603 -0.97988 
-0.198179 -0.0244756 -0.980262 
-0.196255 -0.0341208 -0.980331 
-0.195273 -0.0450895 -0.980375 
-0.195404 -0.0555857 -0.979645 
-0.190821 -0.0605959 -0.980235 
-0.182442 -0.0737725 -0.981144 
-0.170469 -0.103424 -0.981125 
-0.161854 -0.156102 -0.975718 
-0.163532 -0.199891 -0.966751 
-0.178292 -0.25902 -0.946313 
0.105269 -0.223541 0.969355 
0.12305 -0.182392 0.981342 
0.119996 -0.142365 0.990816 
0.138947 -0.112657 0.991567 
0.154437 -0.0861452 0.991998 
0.157386 -0.0686619 0.992009 
0.149934 -0.0570403 0.994489 
0.157329 -0.0484471 0.993522 
0.159869 -0.0376685 0.992961 
0.146816 -0.0267691 0.997193 
0.160311 -0.0177861 0.993542 
0.161728 -0.011869 0.99352 
0.15953 -0.00848165 0.994086 
0.162726 -0.0064817 0.993236 
0.162658 -0.00592959 0.993225 
0.16557 -0.00484291 0.992661 
0.163156 -0.00314366 0.993132 
0.16488 -0.000911335 0.992806 
0.163264 0.00174039 0.99323 
0.161511 0.00496661 0.993437 
0.159049 0.00966869 0.99406 
0.157869 0.0157134 0.994173 
0.15334 0.0229002 0.994935 
0.153242 0.0302893 0.994606 
0.147157 0.0403024 0.995232 
0.145227 0.0547098 0.994839 
0.136906 0.0749279 0.994643 
0.134322 0.100535 0.99269 
0.126516 0.135914 0.989691 
0.115405 0.179248 0.984473 
0.101842 0.23404 0.974641 
0.0844847 0.301698 0.957717 
0.0704979 0.383956 0.928919 
0.0526243 0.478057 0.885076 
0.0384224 0.600367 0.80469 
0.0219934 0.72629 0.695502 
0.0122631 0.823004 0.571576 
0.00607622 0.911179 0.414578 
0.00249894 0.973104 0.229823 
0.000800116 0.998756 0.00979576 
-0.00276741 0.974628 -0.218202 
-0.00535973 0.908047 -0.421094 
-0.0125626 0.809078 -0.591259 
-0.0231364 0.699873 -0.722458 
-0.0406068 0.562309 -0.83244 
-0.0571092 0.446587 -0.903341 
-0.0835104 0.337426 -0.945087 
-0.0888896 0.273537 -0.965658 
-0.111259 0.206655 -0.979535 
-0.124206 0.152203 -0.987798 
-0.124101 0.119642 -0.99235 
-0.139523 0.0870138 -0.993343 
-0.144493 0.0631287 -0.994544 
-0.146733 0.0462037 -0.995031 
-0.148812 0.0346862 -0.995282 
-0.155435 0.0248217 -0.994329 
-0.154267 0.018021 -0.994832 
-0.159862 0.0117917 -0.993771 
-0.164244 0.00756026 -0.993017 
-0.159918 0.0049536 -0.993949 
-0.163449 0.00198846 -0.993049 
-0.163908 -0.00147631 -0.993064 
-0.162637 -0.0046421 -0.993321 
-0.164567 -0.00617144 -0.992688 
-0.161749 -0.00731749 -0.993357 
-0.158958 -0.00958885 -0.993924 
-0.16157 -0.0136846 -0.993397 
-0.160872 -0.0187064 -0.993559 
-0.154645 -0.0235234 -0.994831 
-0.159737 -0.0297705 -0.993363 
-0.153216 -0.0387231 -0.994768 
-0.149993 -0.0487787 -0.995006 
-0.157632 -0.0589874 -0.992428 
-0.14715 -0.0733582 -0.993943 
-0.142794 -0.0957102 -0.992536 
-0.14059 -0.131537 -0.988947 
-0.127866 -0.165647 -0.986275 
-0.146462 -0.20914 -0.972371 
-0.141043 -0.234443 -0.961162 
0.0765474 -0.231974 0.969957 
0.0904948 -0.175114 0.988738 
0.0947381 -0.137164 0.996458 
0.114929 -0.104481 0.995603 
0.103563 -0.0945495 0.99906 
0.128988 -0.0814169 0.995742 
0.122355 -0.0645489 0.998448 
0.115788 -0.0534207 1.00003 
0.127452 -0.0425386 0.998819 
0.125037 -0.0331376 0.999498 
0.121454 -0.0231152 1.00014 
0.128396 -0.0165189 0.999206 
0.126186 -0.011711 0.999515 
0.127245 -0.00840706 0.999262 
0.129007 -0.00712225 0.99896 
0.130356 -0.00623965 0.998766 
0.129421 -0.00421994 0.998926 
0.131385 -0.00121615 0.998654 
0.130832 0.00220915 0.9988 
0.129923 0.0058485 0.99889 
0.126056 0.0105318 0.999514 
0.124325 0.0160787 0.999776 
0.11996 0.0225299 1.00024 
0.118854 0.0308211 1.00011 
0.115486 0.0408644 1.00013 
0.113756 0.0547137 0.999653 
0.10797 0.072513 0.999124 
0.104545 0.0962301 0.997543 
0.101418 0.126009 0.994797 
0.091954 0.167487 0.989852 
0.081454 0.218892 0.981078 
0.0665275 0.286622 0.96499 
0.0534327 0.371148 0.936516 
0.0379672 0.463708 0.89592 
0.0297073 0.571685 0.828779 
0.0170988 0.699506 0.72335 
0.0039048 0.817983 0.580028 
-0.000367666 0.911969 0.413804 
-0.00233743 0.976025 0.215052 
-0.00531452 0.997914 -0.0158411 
-0.00501351 0.971628 -0.234675 
-0.00678414 0.903621 -0.431953 
-0.0097077 0.8097 -0.592261 
-0.0192284 0.690383 -0.732415 
-0.0301205 0.566227 -0.832112 
-0.0388302 0.468492 -0.892301 
-0.0596403 0.369454 -0.93497 
-0.0632288 0.300069 -0.960691 
-0.0807027 0.228613 -0.978708 
-0.0952064 0.173807 -0.988487 
-0.0936278 0.135502 -0.994517 
-0.105832 0.100369 -0.997119 
-0.112747 0.0759057 -0.998457 
-0.112393 0.0572305 -0.99979 
-0.113841 0.0432497 -1.00025 
-0.11988 0.0316012 -0.999903 
-0.118388 0.0241567 -1.0003 
-0.123261 0.0171253 -0.999824 
-0.130404 0.0114409 -0.998875 
-0.126523 0.00788793 -0.999419 
-0.128012 0.0043046 -0.999252 
-0.130004 0.000887102 -0.998955 
-0.130005 -0.00285482 -0.998859 
-0.129669 -0.00622481 -0.998879 
-0.130362 -0.00779273 -0.998699 
-0.125914 -0.00913188 -0.999289 
-0.127444 -0.0119311 -0.999296 
-0.129047 -0.0165248 -0.999015 
-0.123263 -0.0219824 -0.999694 
-0.125996 -0.0286764 -0.999428 
-0.12417 -0.0355771 -0.999441 
-0.115622 -0.045022 -1.00018 
-0.121545 -0.057611 -0.999133 
-0.120208 -0.0700022 -0.998382 
-0.114146 -0.0927304 -0.999008 
-0.111823 -0.118194 -0.994526 
-0.101077 -0.150018 -0.993478 
-0.111649 -0.194464 -0.982167 
-0.0986361 -0.23196 -0.967678 
0.0541811 -0.245415 0.96776 
0.0710952 -0.195644 0.985881 
0.0673975 -0.162086 0.993217 
0.0813062 -0.118662 0.998933 
0.0801589 -0.0942561 1.00114 
0.101837 -0.0754644 1.00015 
0.0941888 -0.0617341 1.00312 
0.0969612 -0.0448897 1.00257 
0.0982872 -0.0365836 1.00291 
0.102161 -0.0281167 1.00245 
0.0965033 -0.0206954 1.00324 
0.100506 -0.0151654 1.00296 
0.100812 -0.0108119 1.00279 
0.0992179 -0.00957782 1.00281 
0.102116 -0.00887163 1.00244 
0.102352 -0.00725209 1.00258 
0.104136 -0.00331971 1.00234 
0.104167 0.00082323 1.00244 
0.103461 0.00489458 1.00248 
0.10146 0.00909765 1.0027 
0.0981475 0.0144056 1.00306 
0.094754 0.0203652 1.0033 
0.0933069 0.0278864 1.00322 
0.090637 0.0368353 1.00315 
0.0894969 0.0488597 1.00279 
0.0867956 0.064368 1.00221 
0.0834548 0.085901 1.00094 
0.0805759 0.112827 0.998809 
0.0768195 0.146245 0.99511 
0.0670923 0.194372 0.987896 
0.0560494 0.254963 0.975245 
0.0425669 0.338603 0.950081 
0.0286851 0.429462 0.911536 
0.014304 0.518163 0.865402 
0.0175374 0.57222 0.829557 
0.00630174 0.706443 0.716979 
-0.00599211 0.842739 0.542477 
-0.0094002 0.933108 0.36225 
-0.00772688 0.986253 0.163685 
-0.00680913 0.998206 -0.0382045 
-0.00536821 0.976067 -0.218559 
-0.00262618 0.930044 -0.372897 
-0.00435594 0.850117 -0.535296 
-0.00807168 0.745111 -0.674559 
-0.0157816 0.637234 -0.780171 
-0.0235732 0.51908 -0.864588 
-0.0407311 0.390149 -0.929732 
-0.046528 0.303315 -0.962786 
-0.0623647 0.230816 -0.980425 
-0.0726923 0.177601 -0.990348 
-0.076204 0.12919 -0.997238 
-0.08317 0.098243 -1.00014 
-0.0887389 0.0742926 -1.00148 
-0.0864121 0.0574741 -1.00268 
-0.0907903 0.0421384 -1.00297 
-0.0915239 0.032589 -1.00329 
-0.0927032 0.0246564 -1.00328 
-0.0979261 0.0175509 -1.00296 
-0.101219 0.0124513 -1.00269 
-0.101206 0.00773032 -1.00272 
-0.100717 0.0035532 -1.00287 
-0.102052 -0.000385312 -1.00266 
-0.103144 -0.00464048 -1.00238 
-0.102906 -0.00807468 -1.00241 
-0.102088 -0.00961813 -1.00246 
-0.0991583 -0.0106123 -1.0028 
-0.100511 -0.013173 -1.00288 
-0.100566 -0.0181025 -1.0028 
-0.0985706 -0.024794 -1.00292 
-0.0968436 -0.030863 -1.00322 
-0.0962326 -0.0384008 -1.00294 
-0.0932421 -0.0510971 -1.0029 
-0.0948032 -0.0640391 -1.00187 
-0.0941602 -0.078336 -0.999756 
-0.0845328 -0.0974763 -1.00052 
-0.0902842 -0.117069 -0.997796 
-0.0781817 -0.144793 -0.994905 
-0.0833126 -0.184585 -0.987569 
-0.0702643 -0.236899 -0.969741 
0.0487404 -0.254698 0.96549 
0.0558936 -0.213511 0.982493 
0.0643249 -0.141124 0.995956 
0.0663315 -0.109777 1.00108 
0.0630243 -0.0879827 1.00384 
0.0791305 -0.0763706 1.00189 
0.0684636 -0.0651823 1.00396 
0.0788643 -0.0528435 1.00385 
0.0740423 -0.0414337 1.00442 
0.0797502 -0.0327007 1.00453 
0.0804253 -0.0257205 1.00444 
0.075257 -0.0190837 1.00468 
0.0794747 -0.0139485 1.00446 
0.0797881 -0.0112464 1.00422 
0.079444 -0.0106457 1.00406 
0.0816271 -0.00962994 1.00404 
0.0829459 -0.00635023 1.00404 
0.0837006 -0.00143182 1.00397 
0.0833871 0.0036945 1.00407 
0.0819185 0.00844139 1.00411 
0.0799802 0.0135249 1.00423 
0.0760285 0.0196955 1.00445 
0.074643 0.0263424 1.00438 
0.0720476 0.0341892 1.00429 
0.0713101 0.0441002 1.00395 
0.0695834 0.0569168 1.00352 
0.0678643 0.073968 1.00271 
0.0641677 0.0970134 1.00131 
0.0606973 0.125678 0.998777 
0.0574828 0.161285 0.994337 
0.0477722 0.212097 0.985811 
0.0374031 0.281622 0.969381 
0.0239462 0.366988 0.941925 
0.00945454 0.491737 0.88219 
0.000144351 0.666402 0.755346 
-0.00700366 0.779897 0.631062 
-0.0110548 0.881521 0.480347 
-0.00925678 0.943916 0.334597 
-0.00824089 0.982955 0.18533 
-0.00249938 0.999251 0.00173716 
0.00123793 0.979062 -0.196267 
0.00113865 0.913413 -0.413759 
0.00107146 0.817658 -0.581215 
-0.00349616 0.713901 -0.711998 
-0.00942692 0.601213 -0.80929 
-0.013634 0.502798 -0.87542 
-0.026294 0.419914 -0.917589 
-0.0288517 0.351876 -0.944947 
-0.0411915 0.265604 -0.97316 
-0.0515885 0.203619 -0.987092 
-0.060022 0.154861 -0.99517 
-0.0625397 0.113353 -1.00014 
-0.067568 0.0861843 -1.00212 
-0.0675621 0.0674778 -1.00328 
-0.0705944 0.0498919 -1.00393 
-0.0709817 0.038823 -1.00424 
-0.0728487 0.0303023 -1.00432 
-0.0766434 0.0225454 -1.00427 
-0.078466 0.0168211 -1.00431 
-0.0822835 0.011284 -1.00411 
-0.0805456 0.00619837 -1.0043 
-0.081131 0.00123316 -1.00429 
-0.08308 -0.00385166 -1.00404 
-0.0817203 -0.00837241 -1.00402 
-0.0814509 -0.0106506 -1.004 
-0.0806118 -0.0112042 -1.00402 
-0.0787976 -0.0126395 -1.00422 
-0.0788297 -0.0168631 -1.00439 
-0.0812573 -0.0228242 -1.00436 
-0.0758406 -0.0291654 -1.00453 
-0.0747918 -0.0364353 -1.0045 
-0.0762433 -0.0458493 -1.00413 
-0.0727946 -0.062049 -1.00505 
-0.0742689 -0.076844 -1.00283 
-0.0657198 -0.095916 -1.00251 
-0.0669246 -0.122887 -0.999318 
-0.0603587 -0.159646 -0.994318 
-0.0621406 -0.194909 -0.987007 
-0.0478975 -0.243561 -0.968791 
0.0449821 -0.255513 0.965652 
0.0458928 -0.209859 0.984074 
0.0538501 -0.178773 0.991351 
0.0501275 -0.138076 0.997745 
0.051576 -0.109832 1.00045 
0.0537691 -0.0770938 1.00371 
0.0574743 -0.0585657 1.00416 
0.0611888 -0.0478093 1.00449 
0.0615672 -0.0359323 1.00498 
0.0634695 -0.0284443 1.0051 
0.0624147 -0.0223125 1.00513 
0.0612158 -0.0155553 1.0051 
0.0631266 -0.0124141 1.00494 
0.0640366 -0.0118185 1.00472 
0.0635073 -0.0116126 1.0048 
0.066512 -0.00869842 1.00477 
0.0665943 -0.00340506 1.00481 
0.0667571 0.00213758 1.00485 
0.0653944 0.00739187 1.00493 
0.0637511 0.0128167 1.00494 
0.0612403 0.0188036 1.00502 
0.0591464 0.0258679 1.00492 
0.0570819 0.0328785 1.00474 
0.0564282 0.0415796 1.00447 
0.0548218 0.0530196 1.00413 
0.0534009 0.0689591 1.00353 
0.0506672 0.0907968 1.00223 
0.0474267 0.120947 0.99974 
0.0441314 0.158449 0.995347 
0.0379822 0.205367 0.987593 
0.0274097 0.282707 0.969369 
0.0135221 0.383496 0.934381 
0.00351653 0.494582 0.879731 
-0.00440761 0.630255 0.784055 
-0.000854817 0.604653 0.806711 
-0.00609566 0.714534 0.710929 
-0.00847732 0.805034 0.59531 
-0.00419708 0.889379 0.463572 
-0.00374106 0.986008 0.172477 
-0.000970251 0.997777 0.0556258 
0.00109358 0.994588 -0.106905 
0.00351184 0.966457 -0.257889 
0.00469731 0.882402 -0.479679 
0.00347181 0.756116 -0.661581 
-0.000284319 0.63251 -0.784953 
-0.00220195 0.537133 -0.855044 
-0.0132427 0.428278 -0.914799 
-0.0220943 0.327094 -0.95713 
-0.0319688 0.249148 -0.977828 
-0.0411356 0.190343 -0.988909 
-0.0483402 0.144382 -0.998197 
-0.049064 0.106525 -1.00115 
-0.0510302 0.0828795 -1.00303 
-0.0548843 0.0617594 -1.00399 
-0.0555108 0.0476243 -1.00439 
-0.0555636 0.0377033 -1.00459 
-0.0589505 0.0293055 -1.00476 
-0.0602158 0.0228088 -1.005 
-0.0625701 0.0167634 -1.00494 
-0.0655308 0.011229 -1.00487 
-0.0641504 0.00549641 -1.00511 
-0.0653706 -0.000524174 -1.00502 
-0.0654941 -0.00615655 -1.00493 
-0.0646968 -0.0105395 -1.00483 
-0.0637421 -0.0123018 -1.00473 
-0.0643066 -0.0124578 -1.00464 
-0.0618763 -0.0140231 -1.00493 
-0.0626937 -0.0186305 -1.00507 
-0.0637233 -0.0244379 -1.00505 
-0.0588121 -0.0312227 -1.00532 
-0.0592452 -0.0397347 -1.00489 
-0.060473 -0.0513228 -1.00344 
-0.0547128 -0.0653292 -1.00416 
-0.0588172 -0.0794011 -1.00341 
-0.0509149 -0.100091 -1.00224 
-0.0524178 -0.125144 -0.999616 
-0.0446681 -0.157609 -0.99505 
-0.0443179 -0.20291 -0.985701 
-0.0328789 -0.250369 -0.967688 
0.0349315 -0.255017 0.966394 
0.0354696 -0.202066 0.98666 
0.0425948 -0.164919 0.994037 
0.039095 -0.127441 1.00093 
0.0447901 -0.0970109 1.0028 
0.0394008 -0.0810466 1.00369 
0.0455299 -0.0659451 1.0033 
0.0425537 -0.0515467 1.00589 
0.0489808 -0.0410507 1.0044 
0.046052 -0.0321307 1.00573 
0.0461888 -0.0261158 1.00585 
0.0485851 -0.0196381 1.00564 
0.0457498 -0.0146458 1.00549 
0.0490735 -0.0133573 1.00542 
0.0494825 -0.0139087 1.00518 
0.0502478 -0.0125528 1.00538 
0.0523406 -0.00776975 1.00531 
0.0520643 -0.00143746 1.00549 
0.0512847 0.00434417 1.0055 
0.0509756 0.00983742 1.0054 
0.048674 0.015592 1.00545 
0.0477571 0.0219967 1.00525 
0.0458205 0.0286252 1.00505 
0.0448158 0.0353654 1.00486 
0.044022 0.0438698 1.00458 
0.0430322 0.0564089 1.00426 
0.0411873 0.0735783 1.00364 
0.0385472 0.0982206 1.00219 
0.0352062 0.130949 0.999395 
0.0313066 0.171556 0.994231 
0.0258914 0.231362 0.983048 
0.0142085 0.319024 0.959177 
0.00203213 0.44395 0.907334 
-0.00383437 0.558239 0.841211 
-0.00581678 0.746482 0.672085 
-0.0026014 0.867632 0.498261 
-0.00143914 0.910436 0.416448 
0.00374677 0.966314 0.24254 
0.000317236 0.949277 0.321229 
0.000786 0.97994 0.171927 
0.00229448 0.99731 -0.0532924 
0.00160316 0.95049 -0.311324 
0.00546561 0.861399 -0.513083 
0.00564036 0.806524 -0.599752 
0.00472397 0.70944 -0.715467 
0.00242222 0.555886 -0.841921 
-0.00609842 0.423259 -0.917039 
-0.0140311 0.325049 -0.957324 
-0.0232055 0.245803 -0.979346 
-0.0314471 0.18746 -0.991161 
-0.0302779 0.16055 -0.995577 
-0.0382205 0.129886 -0.998211 
-0.0368665 0.0994826 -1.00214 
-0.0421984 0.0724561 -1.00394 
-0.0429565 0.0548821 -1.00454 
-0.0432104 0.0426861 -1.00479 
-0.045408 0.0334444 -1.00495 
-0.0462231 0.0269587 -1.00521 
-0.0480544 0.0204249 -1.00529 
-0.0499838 0.014073 -1.00542 
-0.051732 0.0085268 -1.00538 
-0.0512151 0.00210062 -1.00557 
-0.0506265 -0.00454144 -1.00566 
-0.0511833 -0.0106508 -1.00543 
-0.0498006 -0.0141473 -1.00527 
-0.0492586 -0.0141487 -1.00529 
-0.0480545 -0.0142063 -1.00546 
-0.0481123 -0.0173432 -1.00549 
-0.0471073 -0.0234558 -1.00575 
-0.0459886 -0.0291359 -1.00563 
-0.0447789 -0.0378837 -1.00672 
-0.0468899 -0.0496138 -1.00503 
-0.0426046 -0.0649527 -1.00449 
-0.0438287 -0.0838745 -1.00359 
-0.0375774 -0.104891 -1.00242 
-0.0397913 -0.126242 -0.999948 
-0.0329986 -0.157194 -0.995532 
-0.0337179 -0.197553 -0.987781 
-0.0244868 -0.254229 -0.967061 
0.0253961 -0.256527 0.966149 
0.0268542 -0.20428 0.986414 
0.0332093 -0.157312 0.995504 
0.0268174 -0.129788 0.999784 
0.0337429 -0.105894 1.00242 
0.028547 -0.0825432 1.00375 
0.0331307 -0.0638596 1.00459 
0.0304685 -0.048975 1.00559 
0.0356185 -0.0391666 1.00577 
0.0326101 -0.0316888 1.00611 
0.03473 -0.0244624 1.00594 
0.0368248 -0.0180114 1.00582 
0.0343592 -0.015163 1.00585 
0.0379539 -0.0153213 1.00625 
0.0396419 -0.0156556 1.0048 
0.039377 -0.0118339 1.00656 
0.0410006 -0.00554346 1.00512 
0.0396802 0.0013244 1.0067 
0.0394358 0.00771569 1.00522 
0.0384658 0.0136529 1.00576 
0.0372844 0.0204569 1.00573 
0.0361525 0.0269058 1.00546 
0.0351053 0.0333555 1.00526 
0.0340653 0.0412204 1.00493 
0.0332545 0.0520263 1.00461 
0.0313015 0.0682094 1.00418 
0.0293481 0.090837 1.00295 
0.0259322 0.121568 1.00057 
0.022009 0.162879 0.995748 
0.0182156 0.219547 0.985691 
0.0103175 0.296023 0.966298 
0.000904075 0.407962 0.924352 
-0.00398695 0.528255 0.859678 
-0.00464719 0.638354 0.77897 
-0.00416977 0.715803 0.706794 
-0.00256877 0.869827 0.491167 
0.00692235 0.965913 0.242817 
-0.00502513 1.00043 0.0883516 
0.00591637 1.0001 0.0410659 
0.00654603 1.00203 0.011376 
0.00492371 1.00309 -0.0381694 
0.00265572 0.996816 -0.0872961 
0.0011211 0.955909 -0.290075 
0.0054813 0.840076 -0.540722 
0.00516843 0.661426 -0.761989 
0.00703769 0.592008 -0.816114 
0.00381081 0.490229 -0.883373 
-0.000235007 0.402447 -0.926501 
-0.00815446 0.308453 -0.961765 
-0.015529 0.236432 -0.981412 
-0.02105 0.172283 -0.993891 
-0.0268664 0.124074 -1.00024 
-0.029431 0.0856843 -1.00353 
-0.031706 0.0656241 -1.00437 
-0.0326353 0.0504387 -1.00483 
-0.0347421 0.0391196 -1.00504 
-0.0350821 0.0318966 -1.00523 
-0.0365432 0.0258649 -1.0054 
-0.0381164 0.0193558 -1.00562 
-0.0389783 0.0130617 -1.0066 
-0.0413771 0.00685753 -1.00514 
-0.0396726 0.000363553 -1.00683 
-0.039645 -0.00696094 -1.00601 
-0.0394997 -0.0129436 -1.00576 
-0.03885 -0.0160306 -1.00558 
-0.0372122 -0.0159224 -1.00557 
-0.0365387 -0.0156149 -1.0049 
-0.0359993 -0.0190433 -1.0059 
-0.033909 -0.0250887 -1.0068 
-0.0349267 -0.0320276 -1.00504 
-0.0316384 -0.0401394 -1.00585 
-0.0354997 -0.0510773 -1.00538 
-0.0304273 -0.0650716 -1.0047 
-0.032355 -0.0798173 -1.00387 
-0.0275213 -0.0999209 -1.00284 
-0.0273178 -0.129611 -0.999907 
-0.0232601 -0.165493 -0.994274 
-0.0240823 -0.207493 -0.985755 
-0.016991 -0.25768 -0.966037 
0.0165569 -0.257231 0.966287 
0.0178089 -0.212909 0.984048 
0.0228531 -0.164839 0.994419 
0.0190164 -0.127937 1.0004 
0.0233092 -0.100981 1.00284 
0.0189609 -0.0834249 1.00406 
0.0237361 -0.0685063 1.00472 
0.0207648 -0.0519846 1.00574 
0.022782 -0.0393405 1.00624 
0.021079 -0.0306588 1.00728 
0.0235818 -0.0235346 1.00638 
0.0246844 -0.0181494 1.00626 
0.023182 -0.0170434 1.00597 
0.0264406 -0.0176242 1.0052 
0.0291771 -0.0172522 1.00577 
0.0281741 -0.0135434 1.00638 
0.0292943 -0.00642047 1.00636 
0.028481 0.000972193 1.00654 
0.0274964 0.0076934 1.00716 
0.0275023 0.0140789 1.00628 
0.0265009 0.0203931 1.00596 
0.0258824 0.0265789 1.00575 
0.0252997 0.032699 1.00545 
0.024885 0.0398751 1.00524 
0.0239766 0.0500409 1.00512 
0.0223896 0.0650984 1.00479 
0.0206016 0.0871308 1.0037 