# vtk DataFile Version 3.0 
Exported using Morpho https://github.com/Morpho-lang/morpho 
ASCII 
DATASET UNSTRUCTURED_GRID 

POINTS 1978 float 
-8.48528 -2.82843 -9.05914e-16 
-8.25626 -2.82843 1.24162e-15 
-8.0297 -2.82843 4.9482e-15 
-7.75925 -2.82843 6.20778e-15 
-7.46827 -2.82843 4.76677e-15 
-7.22993 -2.82843 4.37793e-15 
-6.99079 -2.82843 2.84839e-15 
-6.77037 -2.82843 2.1521e-15 
-6.56102 -2.82843 1.87836e-15 
-6.33861 -2.82843 1.39192e-15 
-6.14682 -2.82843 1.06117e-15 
-5.92893 -2.82843 8.79133e-16 
-5.71766 -2.82843 6.15618e-16 
-5.51222 -2.82843 4.51147e-16 
-5.29449 -2.82843 3.45489e-16 
-5.08279 -2.82843 2.57466e-16 
-4.8659 -2.82843 1.59286e-16 
-4.65822 -2.82843 1.71288e-17 
-4.43843 -2.82843 -1.33687e-16 
-4.21805 -2.82843 -3.33516e-16 
-3.99981 -2.82843 -5.63813e-16 
-3.78782 -2.82843 -8.58281e-16 
-3.57165 -2.82843 -1.19062e-15 
-3.35865 -2.82843 -1.656e-15 
-3.13694 -2.82843 -2.12569e-15 
-2.92618 -2.82843 -2.62268e-15 
-2.71607 -2.82843 -2.99653e-15 
-2.52162 -2.82843 -3.71742e-15 
-2.30765 -2.82843 -4.44367e-15 
-2.09689 -2.82843 -4.63279e-15 
-1.88877 -2.82843 -4.57766e-15 
-1.68411 -2.82843 -4.15484e-15 
-1.48274 -2.82843 -3.73933e-15 
-1.27432 -2.82843 -2.56784e-15 
-1.08738 -2.82843 -2.23876e-15 
-0.83773 -2.82843 -3.61156e-15 
-0.615997 -2.82843 -9.34245e-16 
-0.440556 -2.82843 -1.23631e-15 
-0.213253 -2.82843 2.02616e-15 
0.0146778 -2.82843 9.75807e-16 
0.218865 -2.82843 1.83374e-14 
0.427147 -2.82843 -3.00484e-16 
0.627651 -2.82843 2.41555e-15 
0.85584 -2.82843 3.44837e-15 
1.05503 -2.82843 2.72162e-15 
1.25156 -2.82843 4.85895e-15 
1.44466 -2.82843 2.12968e-15 
1.68709 -2.82843 4.78632e-15 
1.8773 -2.82843 4.75443e-15 
2.09509 -2.82843 5.30064e-15 
2.3143 -2.82843 4.10339e-15 
2.50308 -2.82843 3.64439e-15 
2.73362 -2.82843 3.61468e-15 
2.95006 -2.82843 2.7724e-15 
3.16528 -2.82843 1.90635e-15 
3.37031 -2.82843 1.52105e-15 
3.59596 -2.82843 1.15914e-15 
3.79918 -2.82843 7.98917e-16 
4.01609 -2.82843 6.23862e-16 
4.2454 -2.82843 3.89948e-16 
4.44528 -2.82843 1.45352e-16 
4.65853 -2.82843 1.07682e-17 
4.86745 -2.82843 -1.15355e-16 
5.0722 -2.82843 -2.70427e-16 
5.28775 -2.82843 -3.92421e-16 
5.49978 -2.82843 -5.07118e-16 
5.70388 -2.82843 -7.13927e-16 
5.92358 -2.82843 -9.45508e-16 
6.14568 -2.82843 -1.09666e-15 
6.34624 -2.82843 -1.54102e-15 
6.58512 -2.82843 -1.896e-15 
6.796 -2.82843 -1.93527e-15 
6.9943 -2.82843 -2.89758e-15 
7.25258 -2.82843 -3.73004e-15 
7.48089 -2.82843 -4.34385e-15 
7.71762 -2.82843 -6.01e-15 
7.98062 -2.82843 -5.817e-15 
8.16599 -2.82843 -2.59256e-15 
8.48528 -2.82843 1.72581e-16 
-8.48528 -2.59408 7.53352e-16 
-8.25029 -2.5791 -5.92342e-16 
-8.00577 -2.60005 5.82838e-15 
-7.73341 -2.60452 1.27834e-15 
-7.47677 -2.6363 2.76874e-15 
-7.22796 -2.61561 -6.67785e-16 
-6.98135 -2.59612 2.22269e-15 
-6.76541 -2.57761 8.96448e-16 
-6.5321 -2.60136 1.58209e-15 
-6.33218 -2.56142 9.76011e-16 
-6.10975 -2.59759 9.0682e-16 
-5.89383 -2.58522 6.31576e-16 
-5.68442 -2.57421 5.21432e-16 
-5.4659 -2.59014 3.55328e-16 
-5.25011 -2.58321 2.58717e-16 
-5.03175 -2.58903 -1.017e-16 
-4.82019 -2.57856 -2.41796e-17 
-4.60126 -2.59216 7.51059e-17 
-4.38002 -2.59174 -2.28805e-16 
-4.16148 -2.58859 -3.96285e-16 
-3.95011 -2.57996 -5.93418e-16 
-3.73731 -2.58545 -8.36547e-16 
-3.52521 -2.58539 -1.16674e-15 
-3.30801 -2.59755 -1.43158e-15 
-3.09576 -2.59146 -1.91687e-15 
-2.88422 -2.59528 -2.36546e-15 
-2.68491 -2.58315 -2.90868e-15 
-2.47375 -2.60826 -3.47663e-15 
-2.25498 -2.60161 -3.7198e-15 
-2.04678 -2.5958 -3.86423e-15 
-1.83544 -2.59303 -4.96006e-15 
-1.6237 -2.5846 -4.09321e-15 
-1.41741 -2.58031 -2.55906e-15 
-1.22221 -2.55195 -3.223e-15 
-0.990687 -2.60537 1.3294e-15 
-0.762547 -2.57273 -3.09057e-15 
-0.564716 -2.48418 2.7378e-15 
-0.364663 -2.52809 2.74651e-15 
-0.134732 -2.54176 -3.96896e-15 
0.0873646 -2.52055 5.06233e-15 
0.293151 -2.31662 -3.01298e-14 
0.336942 -2.55834 2.46431e-14 
0.57913 -2.54461 -1.80524e-14 
0.808221 -2.56853 3.74365e-15 
1.0262 -2.5758 4.71658e-15 
1.24461 -2.56754 -1.57779e-15 
1.49786 -2.6301 5.64447e-15 
1.71751 -2.58041 4.85137e-15 
1.9382 -2.615 4.02373e-15 
2.16976 -2.61684 4.03883e-15 
2.37577 -2.57396 3.59258e-15 
2.58346 -2.6104 2.35818e-15 
2.81196 -2.60704 2.78213e-15 
3.02265 -2.59492 2.0565e-15 
3.22778 -2.57885 1.50084e-15 
3.44418 -2.59978 1.26466e-15 
3.65093 -2.57312 9.79673e-16 
3.86375 -2.58912 6.79965e-16 
4.09001 -2.60159 4.73429e-16 
4.29759 -2.56881 3.41897e-16 
4.5118 -2.58744 -1.05134e-16 
4.72482 -2.58262 -2.94572e-17 
4.93734 -2.57972 6.58058e-17 
5.15248 -2.59208 -2.10057e-16 
5.37153 -2.58814 -3.17725e-16 
5.58339 -2.57793 -4.7539e-16 
5.80031 -2.59354 -5.93457e-16 
6.02585 -2.59402 -7.42855e-16 
6.2397 -2.56672 -1.0014e-15 
6.45991 -2.60665 -1.10907e-15 
6.68592 -2.5765 -1.51203e-15 
6.89307 -2.55897 -1.85236e-15 
7.11826 -2.62189 -1.83496e-15 
7.36708 -2.59208 -2.26831e-15 
7.60227 -2.5981 -2.52719e-15 
7.85591 -2.619 -3.1258e-15 
8.07061 -2.52673 -4.06509e-15 
8.29672 -2.64534 1.77781e-16 
8.48528 -2.51925 -1.21051e-16 
-8.48528 -2.35587 5.44996e-16 
-8.22886 -2.35066 -2.17751e-18 
-7.98946 -2.35058 3.85864e-15 
-7.75531 -2.39724 9.54473e-16 
-7.55796 -2.23226 1.83233e-15 
-7.45324 -2.42715 4.39433e-15 
-7.1774 -2.40032 2.28223e-15 
-6.95168 -2.33665 2.55245e-15 
-6.70076 -2.36606 1.58486e-15 
-6.49221 -2.34063 1.27367e-15 
-6.24307 -2.34691 9.28694e-16 
-6.02959 -2.35396 8.01567e-16 
-5.81263 -2.33469 5.96586e-16 
-5.5844 -2.34446 4.83826e-16 
-5.368 -2.34705 3.47771e-16 
-5.14346 -2.34942 2.12097e-16 
-4.92852 -2.33928 -5.91849e-17 
-4.70435 -2.35038 3.30925e-17 
-4.48415 -2.35816 -1.89178e-16 
-4.26281 -2.35289 -3.58125e-16 
-4.04858 -2.33815 -5.3385e-16 
-3.83337 -2.33962 -7.45487e-16 
-3.6217 -2.34362 -1.04042e-15 
-3.40522 -2.35831 -1.37843e-15 
-3.19407 -2.35879 -1.8264e-15 
-2.97899 -2.3621 -2.25992e-15 
-2.77383 -2.34558 -2.71528e-15 
-2.56149 -2.36938 -3.5401e-15 
-2.35106 -2.3895 -4.35032e-15 
-2.12755 -2.36121 -4.48992e-15 
-1.9153 -2.36426 -5.06531e-15 
-1.69474 -2.35843 -4.76332e-15 
-1.47306 -2.33062 -2.86452e-15 
-1.27145 -2.2857 -1.14839e-15 
-1.05395 -2.35845 -1.21063e-15 
-0.830518 -2.31866 4.16969e-15 
-0.607101 -2.22349 5.85771e-16 
-0.38195 -2.19427 -1.5821e-15 
-0.180381 -2.24736 1.09765e-14 
0.0430331 -2.22827 -4.66914e-15 
0.149614 -2.01062 -2.13598e-16 
0.413461 -2.08781 -3.5182e-15 
0.563211 -2.28677 1.90892e-14 
0.816072 -2.30814 -2.75202e-15 
1.036 -2.30446 -5.50245e-15 
1.25431 -2.3263 2.96132e-15 
1.46422 -2.41188 3.3834e-15 
1.65105 -2.3383 5.41471e-15 
1.87621 -2.38103 4.66488e-15 
2.09195 -2.4084 5.04682e-15 
2.307 -2.35586 4.51248e-15 
2.53503 -2.35895 3.35898e-15 
2.74091 -2.39816 3.01144e-15 
2.96218 -2.36042 2.35733e-15 
3.16566 -2.33912 1.82743e-15 
3.38109 -2.35872 1.34448e-15 
3.58496 -2.33285 1.10539e-15 
3.79958 -2.34213 7.99874e-16 
4.01427 -2.36835 5.7263e-16 
4.22266 -2.32941 3.73419e-16 
4.44243 -2.34122 2.19208e-16 
4.65253 -2.33962 -4.93475e-17 
4.86467 -2.33972 3.99952e-17 
5.08255 -2.34756 1.20407e-16 
5.29479 -2.35546 -2.94601e-16 
5.51136 -2.3381 -4.29759e-16 
5.73048 -2.34952 -5.77514e-16 
5.94776 -2.3624 -7.33776e-16 
6.1642 -2.33114 -9.45282e-16 
6.396 -2.35385 -1.15172e-15 
6.60553 -2.35185 -1.44546e-15 
6.82735 -2.30639 -1.65186e-15 
7.05597 -2.36538 -2.13113e-15 
7.27269 -2.38818 -2.46276e-15 
7.53033 -2.36202 -2.47224e-15 
7.77339 -2.394 -2.69784e-15 
7.98904 -2.29979 -3.13951e-15 
8.25735 -2.36761 8.3296e-16 
8.48528 -2.27003 -1.03972e-16 
-8.48528 -2.09142 3.36301e-17 
-8.2641 -2.11663 -6.74399e-16 
-8.03083 -2.0968 8.32057e-16 
-7.78981 -2.14242 1.65379e-15 
-7.51033 -2.02294 4.37101e-16 
-7.29468 -2.21436 1.10832e-15 
-7.06124 -2.11473 7.57377e-16 
-6.8033 -2.14037 9.85417e-16 
-6.59278 -2.10378 8.38621e-16 
-6.35689 -2.13533 6.68742e-16 
-6.12687 -2.10325 5.48526e-16 
-5.92131 -2.10304 4.51375e-16 
-5.6924 -2.11294 3.15712e-16 
-5.47103 -2.10461 2.18479e-16 
-5.25276 -2.11652 -1.0051e-16 
-5.0376 -2.1034 -2.76941e-17 
-4.81437 -2.11394 2.72906e-17 
-4.59498 -2.12003 8.85379e-17 
-4.37894 -2.12227 -2.01304e-16 
-4.16705 -2.10494 -2.93117e-16 
-3.95207 -2.09978 -3.92397e-16 
-3.74078 -2.10077 -5.39262e-16 
-3.52752 -2.11593 -6.99441e-16 
-3.31967 -2.12167 -9.11309e-16 
-3.10771 -2.12965 -1.16947e-15 
-2.90325 -2.11833 -1.40322e-15 
-2.68632 -2.1236 -1.72571e-15 
-2.47758 -2.14425 -2.05423e-15 
-2.26822 -2.16201 -2.50163e-15 
-2.03796 -2.12427 -2.46362e-15 
-1.81988 -2.13619 -2.29022e-15 
-1.59885 -2.11694 -7.67254e-16 
-1.38946 -2.04376 -3.97034e-16 
-1.18453 -1.996 2.99369e-15 
-1.03061 -2.10799 -1.40431e-15 
-0.80259 -2.05501 5.28399e-15 
-0.570175 -1.93857 -6.90674e-17 
-0.336069 -1.89554 6.1872e-15 
-0.132041 -1.93684 -5.08347e-15 
0.0326865 -1.74232 2.95925e-15 
0.224536 -1.5834 1.78417e-15 
0.323213 -1.82521 3.5829e-15 
0.573582 -1.86489 -3.22311e-16 
0.734593 -2.06126 -4.16323e-15 
0.975392 -2.02241 -1.96212e-15 
1.19211 -2.0735 1.80269e-15 
1.42928 -2.1456 2.1192e-15 
1.65286 -2.10122 1.18522e-15 
1.87105 -2.16033 2.92998e-15 
2.10678 -2.17874 2.76734e-15 
2.34615 -2.1421 3.41044e-15 
2.56091 -2.12488 1.74867e-15 
2.77645 -2.17004 2.39149e-15 
2.98051 -2.11259 1.3314e-15 
3.20054 -2.11224 1.1443e-15 
3.40354 -2.11003 9.22815e-16 
3.62158 -2.09941 5.78416e-16 
3.83883 -2.11105 4.97544e-16 
4.04198 -2.11838 3.53577e-16 
4.26982 -2.09988 2.30198e-16 
4.48067 -2.09886 -1.00739e-16 
4.6947 -2.09864 -3.61647e-17 
4.91347 -2.10861 1.09801e-17 
5.12759 -2.10809 6.32547e-17 
5.34033 -2.11715 -1.73303e-16 
5.56421 -2.10685 -2.40107e-16 
5.78216 -2.11537 -3.4141e-16 
5.99328 -2.11676 -4.51422e-16 
6.23276 -2.11261 -5.1845e-16 
6.44302 -2.10171 -6.62145e-16 
6.65453 -2.10337 -8.31421e-16 
6.90786 -2.09438 -8.32665e-16 
7.12189 -2.1251 -1.04586e-15 
7.35088 -2.17064 -1.2441e-15 
7.54138 -2.07229 -4.82447e-16 
7.72781 -2.15995 -1.37833e-15 
7.9481 -2.06663 -8.85545e-16 
8.20148 -2.14193 -4.52485e-16 
8.48528 -2.07098 -4.57625e-16 
-8.48528 -1.7942 -1.83611e-16 
-8.29298 -1.86365 -9.45473e-16 
-7.8861 -1.88846 -1.95243e-16 
-7.66512 -1.88514 2.3538e-16 
[...]
POINT_DATA 1978 
VECTORS vectors float
0.000754278 -0.00161326 0.999998 
-0.000367211 -0.0732101 0.997316 
4.62999e-05 -0.103683 0.99461 
-9.83803e-06 -0.100091 0.994978 
-3.38047e-05 -0.082811 0.996565 
4.69447e-05 -0.0683109 0.997664 
-1.83833e-05 -0.0540956 0.998536 
6.24329e-05 -0.0440882 0.999028 
-1.57315e-05 -0.0349483 0.999389 
7.39218e-05 -0.0272184 0.99963 
0.00010562 -0.0209774 0.99978 
-6.08092e-05 -0.0157992 0.999875 
0.00011161 -0.0116024 0.999933 
1.74977e-05 -0.00847226 0.999964 
2.97005e-05 -0.0061498 0.999981 
2.08516e-05 -0.00431564 0.999991 
4.71254e-05 -0.00244707 0.999997 
4.94439e-05 -0.000255105 1 
1.78046e-07 0.00255218 0.999997 
1.75701e-05 0.00610628 0.999981 
4.55557e-05 0.0106238 0.999944 
2.09623e-05 0.0160962 0.99987 
4.791e-05 0.0230601 0.999734 
8.58285e-06 0.0317686 0.999495 
3.1197e-05 0.0436556 0.999047 
1.04294e-05 0.0586014 0.998281 
9.23469e-05 0.0783039 0.99693 
5.90979e-05 0.10172 0.994813 
-2.39551e-06 0.134552 0.990907 
3.76602e-05 0.175825 0.984421 
3.38607e-05 0.227268 0.973832 
5.50806e-05 0.289918 0.957052 
-1.24743e-05 0.365324 0.93088 
7.27565e-05 0.459458 0.888199 
3.9464e-06 0.551483 0.834186 
-2.33858e-05 0.689604 0.724187 
1.63148e-05 0.810616 0.585578 
5.28231e-06 0.893809 0.448448 
-2.77872e-05 0.975725 0.218999 
3.74067e-05 0.999759 -0.0219308 
-5.42249e-06 0.971189 -0.238311 
-2.85529e-05 0.903896 -0.427753 
2.99917e-05 0.805974 -0.591951 
-1.73005e-05 0.681428 -0.731885 
7.43024e-06 0.569555 -0.821953 
-0.000113583 0.466645 -0.884445 
6.46685e-05 0.378475 -0.925611 
-2.63021e-05 0.288552 -0.957464 
-0.000134413 0.230941 -0.972968 
0.00011293 0.178085 -0.984015 
-0.000138594 0.134639 -0.990895 
-6.18021e-05 0.104816 -0.994492 
5.33928e-05 0.0774522 -0.996996 
-4.10229e-05 0.0574153 -0.99835 
-8.60731e-05 0.0422758 -0.999106 
1.17962e-05 0.0312784 -0.999511 
-1.33481e-05 0.0222918 -0.999752 
-0.000131153 0.0159007 -0.999874 
7.8213e-05 0.0108443 -0.999941 
-5.44183e-05 0.00656051 -0.999978 
-0.000101087 0.00322981 -0.999995 
2.61426e-05 0.000331285 -1 
-9.16589e-05 -0.00221069 -0.999998 
-4.47715e-05 -0.00447279 -0.99999 
1.72158e-05 -0.00680004 -0.999977 
-8.81217e-05 -0.00946209 -0.999955 
-6.7145e-05 -0.0124975 -0.999922 
7.63269e-05 -0.0164217 -0.999865 
-0.000131407 -0.0214184 -0.999771 
-3.07665e-05 -0.0270109 -0.999635 
0.000119479 -0.0347501 -0.999396 
-0.000251808 -0.0434008 -0.999058 
4.90582e-05 -0.0535038 -0.998568 
6.37905e-05 -0.0694695 -0.997584 
-0.000158984 -0.0870246 -0.996206 
0.000249646 -0.105063 -0.994466 
-0.000403257 -0.116505 -0.99319 
0.000620518 -0.0982938 -0.995157 
-0.000252426 -0.00095541 -1 
-0.000331717 0.000471614 1 
0.0162939 -0.0650824 0.997747 
0.0344197 -0.0923699 0.99513 
0.0342793 -0.0964485 0.994748 
0.0326352 -0.0841262 0.995921 
0.0393863 -0.0660433 0.997039 
0.0433438 -0.0539398 0.997603 
0.044882 -0.043857 0.998029 
0.044693 -0.0344378 0.998407 
0.0507053 -0.0271158 0.998345 
0.0465885 -0.0202803 0.998708 
0.0481456 -0.0151758 0.998725 
0.0507698 -0.0114524 0.998645 
0.048867 -0.00838087 0.99877 
0.050237 -0.00594363 0.99872 
0.0495782 -0.00380269 0.998763 
0.0512896 -0.00167634 0.998682 
0.0488379 0.00084533 0.998806 
0.0484789 0.00402694 0.998816 
0.0487303 0.00797465 0.99878 
0.0493642 0.0127619 0.998699 
0.0479359 0.0187199 0.998675 
0.0472795 0.0261965 0.998538 
0.0442169 0.0359474 0.998375 
0.0441104 0.0485269 0.997847 
0.0420161 0.0647863 0.997014 
0.0416599 0.0848332 0.995524 
0.0358633 0.111261 0.993144 
0.0329049 0.147082 0.988577 
0.0294089 0.191236 0.981103 
0.0257365 0.247029 0.968666 
0.0212025 0.316611 0.948319 
0.0160978 0.398512 0.917022 
0.0126373 0.487992 0.872757 
0.00632278 0.607117 0.794587 
0.00342723 0.732084 0.681206 
0.0018431 0.830292 0.557325 
0.000557111 0.915499 0.402321 
-1.47346e-05 0.977291 0.2119 
-0.00154494 0.999815 -0.0191584 
-0.00426205 0.975034 -0.222017 
-0.00430014 0.916768 -0.399396 
-0.00619926 0.814872 -0.579607 
-0.00721399 0.697735 -0.716319 
-0.010944 0.567813 -0.823085 
-0.0144032 0.463575 -0.885941 
-0.0164659 0.356251 -0.934245 
-0.0246481 0.281378 -0.95928 
-0.0259662 0.217809 -0.975646 
-0.0301963 0.165211 -0.985796 
-0.03793 0.128277 -0.991013 
-0.0354061 0.0976087 -0.994595 
-0.0402605 0.0728677 -0.996529 
-0.042895 0.0545085 -0.997592 
-0.0460131 0.041064 -0.998096 
-0.0444457 0.0297626 -0.998568 
-0.0492136 0.0218664 -0.998549 
-0.0476499 0.0153958 -0.998745 
-0.046303 0.00998564 -0.998878 
-0.0518817 0.00610325 -0.998635 
-0.0495506 0.00268484 -0.998768 
-0.0504383 -0.000274732 -0.998727 
-0.0513339 -0.00288599 -0.998677 
-0.0489922 -0.00536995 -0.998785 
-0.0497317 -0.00802082 -0.99873 
-0.0509861 -0.0108536 -0.99864 
-0.0476149 -0.0143017 -0.998763 
-0.0470832 -0.0188126 -0.998714 
-0.050408 -0.0240155 -0.99844 
-0.0431294 -0.0305708 -0.998602 
-0.047301 -0.0389465 -0.998121 
-0.0483765 -0.0483421 -0.997659 
-0.0376905 -0.0607453 -0.997441 
-0.0413926 -0.0769612 -0.996174 
-0.0396145 -0.0928082 -0.994896 
-0.0359268 -0.105633 -0.993756 
-0.0384544 -0.0925833 -0.994962 
-0.00971829 -0.0578562 -0.998278 
0.000286601 0.000477448 -1 
0.000223156 -6.72461e-05 1 
0.0285606 -0.0645124 0.997508 
0.0527848 -0.0906425 0.994484 
0.0550109 -0.0914303 0.994291 
0.064301 -0.0840865 0.994382 
0.0542764 -0.0791436 0.995385 
0.0629845 -0.0633933 0.995999 
0.0678134 -0.051503 0.996368 
0.0669958 -0.0405272 0.99693 
0.070332 -0.0320542 0.997008 
0.0713436 -0.024141 0.99716 
0.0719622 -0.0185178 0.997235 
0.0736429 -0.0140693 0.997185 
0.0741922 -0.0103163 0.997191 
0.0745865 -0.00746667 0.997187 
0.074932 -0.00497786 0.997176 
0.0757518 -0.00267033 0.997123 
0.0750315 -1.1677e-05 0.997181 
0.0741329 0.00306804 0.997244 
0.0736253 0.00685337 0.997262 
0.0733419 0.0114461 0.997241 
0.0720104 0.0170746 0.997258 
0.0706869 0.0240111 0.99721 
0.0684654 0.0329589 0.997109 
0.0667612 0.0442932 0.996785 
0.0641903 0.0592448 0.996178 
0.0620303 0.0779151 0.995028 
0.0575947 0.102228 0.993092 
0.0520594 0.133066 0.989739 
0.0467932 0.176046 0.983269 
0.0402289 0.227901 0.972853 
0.0325327 0.296834 0.954375 
0.0242794 0.381729 0.923955 
0.0181038 0.470839 0.882033 
0.0110231 0.579605 0.814823 
0.00590242 0.697513 0.716548 
0.00152473 0.817525 0.57589 
-0.00115757 0.919824 0.39233 
-0.00287945 0.981302 0.192454 
-0.00445682 0.998518 -0.0542307 
-0.00423132 0.981239 -0.19275 
-0.00650979 0.909837 -0.414914 
-0.00838175 0.818864 -0.573926 
-0.0110274 0.703361 -0.710747 
-0.01448 0.589517 -0.807626 
-0.0203582 0.47173 -0.881508 
-0.0254397 0.376919 -0.925897 
-0.0335785 0.307199 -0.951053 
-0.0396224 0.238697 -0.970285 
-0.0448483 0.183373 -0.98202 
-0.052508 0.14109 -0.988603 
-0.0566044 0.106019 -0.992752 
-0.0595952 0.0819614 -0.994852 
-0.063905 0.0608838 -0.996097 
-0.0671651 0.0465093 -0.996657 
-0.0677993 0.0343442 -0.997108 
-0.0711687 0.0257201 -0.997133 
-0.0720487 0.0184822 -0.99723 
-0.0715077 0.0126028 -0.99736 
-0.0747277 0.00826959 -0.99717 
-0.0748388 0.0042886 -0.997186 
-0.0752542 0.00106265 -0.997164 
-0.0757887 -0.0018292 -0.997122 
-0.0753781 -0.00457728 -0.997145 
-0.0746521 -0.00717551 -0.997184 
-0.0751997 -0.0100235 -0.997118 
-0.0738238 -0.0133085 -0.997182 
-0.072031 -0.0172461 -0.997253 
-0.0728966 -0.0221189 -0.997094 
-0.0701416 -0.0285237 -0.997129 
-0.0689814 -0.0356904 -0.996979 
-0.0695263 -0.0452691 -0.996552 
-0.0655075 -0.0571101 -0.996216 
-0.062736 -0.0701983 -0.995558 
-0.0617563 -0.0856111 -0.994413 
-0.0580675 -0.0970044 -0.993589 
-0.0562449 -0.0932165 -0.994056 
-0.024544 -0.060312 -0.997878 
-0.000153023 -8.32754e-05 -1 
-0.000199748 -4.83532e-05 1 
0.0237441 -0.0545496 0.998229 
0.0479248 -0.0846631 0.995256 
0.0587839 -0.0901697 0.99419 
0.0616774 -0.082737 0.994661 
0.066771 -0.0716909 0.995189 
0.0678357 -0.0581775 0.995999 
0.0704521 -0.0446259 0.996516 
0.0720737 -0.0357942 0.996757 
0.0736314 -0.0275221 0.996906 
0.0745196 -0.0211612 0.996995 
0.0756458 -0.0165896 0.996997 
0.076616 -0.0125187 0.996982 
0.0771652 -0.00932073 0.996975 
0.0780308 -0.00657966 0.996929 
0.0781773 -0.0040793 0.996931 
0.0784011 -0.00128001 0.996921 
0.0781988 0.00182013 0.996936 
0.0775392 0.00541672 0.996975 
0.0762769 0.00972047 0.997039 
0.0748564 0.0150134 0.997081 
0.0733496 0.0213566 0.997078 
0.0718484 0.0293429 0.996984 
0.0700063 0.0392324 0.996775 
0.0678185 0.0521322 0.996335 
0.0648426 0.0682491 0.995559 
0.0611301 0.0900138 0.994063 
0.0569205 0.116993 0.9915 
0.0517595 0.151524 0.987097 
0.0440409 0.20098 0.978605 
0.0365147 0.261576 0.964492 
0.0277622 0.340035 0.940003 
0.0192163 0.426645 0.904215 
0.0116919 0.521994 0.852869 
0.0101659 0.585076 0.810914 
0.00403168 0.709289 0.704907 
-0.000132602 0.827472 0.561507 
-0.00185361 0.930554 0.366149 
-0.00272932 0.988725 0.149715 
-0.00313206 0.999556 -0.0296326 
-0.00349917 0.971918 -0.235292 
-0.00348889 0.929184 -0.369602 
-0.00498403 0.833208 -0.552937 
-0.00875831 0.728088 -0.685428 
-0.0124201 0.614327 -0.788954 
-0.0175235 0.509601 -0.860232 
-0.0251848 0.394362 -0.91861 
-0.0314991 0.314496 -0.948736 
-0.0394849 0.24333 -0.969139 
-0.0473354 0.18445 -0.981701 
-0.0539417 0.135014 -0.989374 
-0.0582535 0.105221 -0.992741 
-0.0635858 0.0788553 -0.994856 
-0.0654086 0.0612928 -0.995974 
-0.0686533 0.0458406 -0.996587 
-0.0708602 0.0348264 -0.996878 
-0.0724924 0.025791 -0.997035 
-0.0745047 0.0183941 -0.997051 
-0.0758034 0.0129538 -0.997039 
-0.0767515 0.00797786 -0.997018 
-0.0774146 0.00407092 -0.996991 
-0.077998 0.000648864 -0.996953 
-0.0783944 -0.00249306 -0.996919 
-0.0782737 -0.00534004 -0.996918 
-0.0780193 -0.00808073 -0.996919 
-0.0772062 -0.0111757 -0.996953 
-0.0765003 -0.0145772 -0.996963 
-0.0755188 -0.0185515 -0.996972 
-0.0742716 -0.0242135 -0.996944 
-0.072731 -0.030352 -0.99689 
-0.0713666 -0.0380065 -0.996726 
-0.0693674 -0.0497145 -0.996352 
-0.0681233 -0.0614828 -0.995781 
-0.0669804 -0.0753577 -0.994904 
-0.0636127 -0.0855995 -0.994297 
-0.0629625 -0.0926269 -0.993708 
-0.0561413 -0.0922586 -0.994151 
-0.0363456 -0.0675304 -0.997055 
0.000176645 -0.000223996 -1 
-0.000359647 5.05728e-05 1 
0.0178489 -0.0481719 0.99868 
0.0512534 -0.0928221 0.994363 
0.055412 -0.0888746 0.9945 
0.0542648 -0.0790088 0.995396 
0.063144 -0.0712166 0.99546 
0.0595632 -0.0631031 0.996228 
0.0647613 -0.0513126 0.996581 
0.0641933 -0.0407832 0.997104 
0.0674336 -0.032032 0.997209 
0.0682162 -0.0251896 0.997353 
0.0673072 -0.0199198 0.997533 
0.0695523 -0.0154994 0.997458 
0.0701894 -0.0118758 0.997463 
0.0707408 -0.00874457 0.997456 
0.0712263 -0.00604676 0.997442 
0.071828 -0.0030416 0.997412 
0.0719663 0.000157732 0.997407 
0.0716245 0.00369584 0.997425 
0.0704017 0.00773122 0.997489 
0.0689942 0.0126334 0.997537 
0.0673115 0.01851 0.99756 
0.0660973 0.0256243 0.997484 
0.0644987 0.0342143 0.997331 
0.0628749 0.0451421 0.997 
0.0602776 0.0587612 0.996451 
0.0574082 0.0768374 0.99539 
0.0534725 0.100356 0.993514 
0.0494299 0.12966 0.990326 
0.0444353 0.168385 0.984719 
0.0357661 0.226387 0.97338 
0.0286417 0.293221 0.955616 
0.0196895 0.37259 0.927787 
0.0110406 0.469027 0.883115 
0.00352757 0.660367 0.750935 
-0.000716737 0.776831 0.629709 
-0.00275431 0.894747 0.446565 
-0.00429038 0.949942 0.312396 
-0.00378298 0.976388 0.215992 
-0.00413662 0.999989 0.0019868 
-0.00244824 0.985781 -0.168017 
-0.00365473 0.936002 -0.351976 
-0.0034892 0.860067 -0.510169 
-0.00477949 0.720661 -0.693272 
-0.00793538 0.614811 -0.788635 
-0.0132747 0.506371 -0.862214 
-0.0200232 0.422581 -0.906104 
-0.0243667 0.343892 -0.938693 
-0.0321719 0.266157 -0.963393 
-0.0402834 0.207604 -0.977383 
-0.0469068 0.157419 -0.986417 
-0.0495529 0.121055 -0.991408 
-0.0565917 0.0885767 -0.99446 
-0.0576658 0.0707439 -0.995826 
-0.061097 0.0531797 -0.996714 
-0.0630306 0.0402634 -0.997199 
-0.0650827 0.0305046 -0.997414 
-0.0672532 0.0220418 -0.997492 
-0.0683382 0.0157988 -0.997537 
-0.0702979 0.0105496 -0.99747 
-0.0700561 0.00588123 -0.997526 
-0.0708216 0.00197839 -0.997487 
-0.0715458 -0.00154936 -0.997436 
-0.0714118 -0.00468891 -0.997436 
-0.0712582 -0.0076946 -0.997428 
-0.0710393 -0.0105933 -0.997417 
-0.0699677 -0.014036 -0.997451 
-0.06888 -0.0178652 -0.997465 
-0.0689225 -0.0225497 -0.997367 
-0.0659376 -0.0287999 -0.997408 
-0.0646561 -0.0361271 -0.997253 
-0.0645938 -0.0454949 -0.996874 
-0.0616045 -0.0588526 -0.996364 
-0.0618633 -0.0719566 -0.995487 
-0.0571533 -0.0848969 -0.994749 
-0.0554916 -0.0927866 -0.994138 
-0.0456033 -0.0871152 -0.995154 
-0.0286036 -0.0601895 -0.997777 
0.000194853 0.000182384 -1 
-0.000203718 -4.66374e-05 1 
0.0173584 -0.0536855 0.998407 
0.0369802 -0.0786964 0.996212 
0.0431869 -0.093827 0.994651 
0.0471593 -0.0896253 0.994858 
0.0489964 -0.0721832 0.996187 
0.0525019 -0.0564247 0.997025 
0.0546806 -0.0467531 0.997409 
0.0559608 -0.0354799 0.997802 
0.057453 -0.0285395 0.99794 
0.0566288 -0.0229853 0.998131 
0.0572848 -0.0177497 0.9982 
0.0590604 -0.0140221 0.998156 
0.059945 -0.0106703 0.998145 
0.0593446 -0.00767692 0.998208 
0.0609415 -0.00457667 0.998131 
0.0611008 -0.00117351 0.998131 
0.0607336 0.00255433 0.998151 
0.0595246 0.00664001 0.998205 
0.0585103 0.0114197 0.998221 
0.057059 0.0171195 0.998224 
0.055903 0.0240234 0.998147 
0.0543881 0.0322427 0.997999 
0.0531849 0.0424591 0.997682 
0.0508481 0.0552564 0.997177 
0.0485851 0.071975 0.996222 
0.0452881 0.0938683 0.994554 
0.0410518 0.123493 0.991496 
0.0374263 0.1607 0.986293 
0.0317031 0.210182 0.977148 
0.0221335 0.288529 0.957215 
0.0137531 0.37785 0.925765 
0.00562929 0.491369 0.870933 
0.000835022 0.599953 0.800035 
0.00440106 0.586912 0.809639 
-0.00163278 0.711104 0.703085 
-0.00360904 0.840835 0.541279 
-0.00333154 0.873772 0.486325 
-0.0035339 0.996127 0.0878585 
0.00405416 0.996354 0.0852157 
0.00467478 0.997179 -0.0749082 
0.00205416 0.946449 -0.322846 
-4.00459e-05 0.861445 -0.50785 
-0.00197126 0.764653 -0.644439 
-0.00237512 0.627912 -0.778281 
-0.00673175 0.523678 -0.85189 
-0.0129381 0.41487 -0.909789 
-0.0206113 0.318606 -0.947663 
-0.0281106 0.244398 -0.969267 
-0.0355633 0.192376 -0.980677 
-0.0390485 0.151215 -0.987729 
-0.0454523 0.105235 -0.993408 
-0.0459275 0.0847817 -0.995341 
-0.0495673 0.064305 -0.996699 
-0.051592 0.0492524 -0.997453 
-0.0528673 0.0375585 -0.997895 
-0.0558515 0.028023 -0.998046 
-0.0565564 0.0208487 -0.998182 
-0.0577935 0.0146738 -0.998221 
-0.0598852 0.00950545 -0.99816 
-0.0589199 0.00481746 -0.998251 
-0.060143 0.000715641 -0.99819 
-0.060057 -0.00283151 -0.998191 
-0.0602484 -0.00615752 -0.998164 
-0.0596609 -0.00923426 -0.998176 
-0.060095 -0.0122872 -0.998117 
-0.0583191 -0.0157894 -0.998173 
-0.0579702 -0.019953 -0.998119 
-0.0576207 -0.0247454 -0.998032 
-0.0541157 -0.0313631 -0.998042 
-0.0537604 -0.0396161 -0.997768 
-0.054937 -0.0500676 -0.997234 
-0.0502106 -0.0617063 -0.996831 
-0.0523492 -0.0732223 -0.995941 
-0.047328 -0.0862246 -0.995151 
-0.0469269 -0.0935568 -0.994507 
-0.0381808 -0.0893533 -0.995268 
-0.0213853 -0.0553772 -0.998236 
0.000268598 -7.81908e-05 -1 
-0.000138736 -8.48129e-05 1 
0.0168024 -0.0625799 0.997899 
0.0323808 -0.0869837 0.995683 
0.0353504 -0.0939844 0.994946 
0.0413934 -0.0849785 0.995523 
0.0369616 -0.074966 0.996501 
0.0422153 -0.0621847 0.997171 
0.0398939 -0.0497994 0.997962 
0.0454841 -0.0408509 0.998129 
0.0436041 -0.0324131 0.998523 
0.0440911 -0.026617 0.998673 
0.0458615 -0.0210571 0.998726 
0.0451492 -0.0168016 0.998839 
0.047478 -0.0133461 0.998783 
0.0477378 -0.010251 0.998807 
0.0476093 -0.00696654 0.998842 
0.0490085 -0.00362111 0.998792 
0.0487808 8.38675e-05 0.99881 
0.0476607 0.00403518 0.998855 
0.0468891 0.00858227 0.998863 
0.0461364 0.0137991 0.99884 
0.0452097 0.0199714 0.998778 
0.0439304 0.0271311 0.998666 
0.0428115 0.0358965 0.998438 
0.04142 0.0465747 0.998056 
0.0395542 0.0606982 0.997372 
0.0372236 0.0789238 0.996185 
0.0342236 0.103751 0.994014 
0.0301381 0.138022 0.98997 
0.0266177 0.180957 0.983131 
0.0214677 0.244079 0.969518 
0.0122272 0.336075 0.941756 
0.00549283 0.440397 0.897786 
0.000215691 0.554298 0.832318 
-0.00315737 0.766631 0.64208 
-0.000842092 0.840165 0.54233 
0.00314642 0.920671 0.390326 
0.00627087 0.970124 0.242528 
-0.00063956 0.955126 0.296198 
0.00284171 0.999159 0.0408957 
0.00201449 0.998611 -0.052644 
-0.000184748 0.976158 -0.217059 
0.000428479 0.92766 -0.373426 
0.00162354 0.808758 -0.58814 
0.00129305 0.707898 -0.706313 
-0.0013346 0.540632 -0.841258 
-0.00597452 0.44339 -0.896309 
-0.0128979 0.339378 -0.940561 
-0.0199218 0.2569 -0.966233 
-0.0262754 0.192125 -0.981019 
-0.0257976 0.158545 -0.987015 
-0.0356865 0.130654 -0.990785 
-0.0334058 0.103991 -0.994017 
-0.0371511 0.0783943 -0.99623 
-0.0396001 0.0602674 -0.997396 
-0.0411066 0.0459051 -0.9981 
-0.043195 0.0340608 -0.998486 
-0.0443449 0.0256963 -0.998686 
-0.0455637 0.0184933 -0.99879 
-0.04676 0.0123702 -0.99883 
-0.0478532 0.00739728 -0.998827 
-0.0477718 0.00235702 -0.998855 
-0.0476657 -0.00165411 -0.998862 
-0.0480349 -0.00537639 -0.998831 
-0.0474221 -0.00873082 -0.998837 
-0.0476376 -0.0119556 -0.998793 
-0.0467819 -0.0151803 -0.99879 
-0.0461678 -0.0191786 -0.99875 
-0.0450411 -0.0239064 -0.998699 
-0.0436282 -0.0294372 -0.998614 
-0.0421889 -0.0378196 -0.998394 
-0.043287 -0.0483274 -0.997893 
-0.0400659 -0.0620458 -0.997269 
-0.0405138 -0.0769915 -0.996208 
-0.0356338 -0.0890007 -0.995394 
-0.0369106 -0.094874 -0.994805 
-0.0296993 -0.0926774 -0.995253 
-0.0207195 -0.0644683 -0.997705 
0.00024374 -9.70184e-05 -1 
-6.49283e-05 1.85507e-05 1 
0.0130183 -0.0629468 0.997932 
0.0266916 -0.0928319 0.995324 
0.0256233 -0.0963541 0.995017 
0.0315681 -0.0894389 0.995492 
0.0283824 -0.0772932 0.996604 
0.0316144 -0.0609376 0.997641 
0.0296977 -0.0480794 0.998402 
0.0339535 -0.03885 0.998668 
0.0311187 -0.0318627 0.999008 
0.0339565 -0.0254994 0.999098 
0.0349362 -0.0205756 0.999178 
0.0341167 -0.0166028 0.99928 
0.03631 -0.0132709 0.999252 
0.0371607 -0.00989108 0.99926 
0.0366107 -0.00630293 0.99931 
0.0377585 -0.00259304 0.999284 
0.0366085 0.00142274 0.999329 
0.0360995 0.00602508 0.99933 
0.0356256 0.0112164 0.999302 
0.0351328 0.0170876 0.999237 
0.0341037 0.0238452 0.999134 
0.0331675 0.0319757 0.998938 
0.0319162 0.0418966 0.998612 
0.0307723 0.0545465 0.998037 
0.0288142 0.0712991 0.997039 
0.0265845 0.0937331 0.995242 
0.0235661 0.124527 0.991936 
0.0196907 0.167834 0.985619 
0.0169289 0.222322 0.974826 
0.0115138 0.294614 0.955547 
0.00486546 0.402064 0.915599 
0.000803659 0.508793 0.860889 
-0.00114452 0.634698 0.772759 
-0.00192487 0.656027 0.754735 
0.00518523 0.883994 0.467469 
0.0052725 0.976572 0.215125 
0.00627749 0.996505 0.0832979 
0.00490944 0.998867 0.047345 
0.00462977 0.999973 0.00563624 
0.00277901 0.997156 -0.0753187 
0.00238099 0.993769 -0.111435 
-0.00193624 0.970587 -0.240743 
0.000202434 0.833932 -0.551867 
0.00188981 0.626327 -0.779558 
0.00155433 0.585399 -0.810744 
-0.000231995 0.487074 -0.873361 
-0.00549125 0.385222 -0.922807 
-0.0109473 0.292326 -0.956256 
-0.0164581 0.224142 -0.974417 
-0.0182603 0.17047 -0.985194 
-0.0249397 0.123549 -0.992025 
-0.0266588 0.0902996 -0.995558 
-0.0288873 0.069096 -0.997192 
-0.0308611 0.0531953 -0.998107 
-0.0326437 0.0400459 -0.998664 
-0.033122 0.0305693 -0.998984 
-0.0345388 0.0227318 -0.999145 
-0.035576 0.0160798 -0.999238 
-0.0357917 0.0104534 -0.999305 
-0.0377863 0.00530311 -0.999272 
-0.0362873 0.000633734 -0.999341 
-0.0368118 -0.0035531 -0.999316 
-0.0363491 -0.00722848 -0.999313 
-0.0363701 -0.010703 -0.999281 
-0.0356095 -0.0138668 -0.99927 
-0.0357113 -0.0172913 -0.999213 
-0.0345357 -0.0213241 -0.999176 
-0.0329222 -0.026123 -0.999116 
-0.0331762 -0.0326257 -0.998917 
-0.0309169 -0.0409386 -0.998683 
-0.033166 -0.0498398 -0.998206 
-0.0292462 -0.0611263 -0.997701 
-0.0311548 -0.0744093 -0.996741 
-0.0272296 -0.0879309 -0.995754 
-0.0265984 -0.0964115 -0.994986 
-0.021223 -0.0911339 -0.995612 
-0.0136586 -0.0590992 -0.998159 
0.000147277 0.000128446 -1 
-0.000121114 -2.04024e-05 1 
0.00923199 -0.0623752 0.99801 
0.0190654 -0.0925574 0.995525 
0.0187419 -0.0977582 0.995034 
0.0230821 -0.0892089 0.995745 