# vtk DataFile Version 3.0 
Exported using Morpho https://github.com/Morpho-lang/morpho 
ASCII 
DATASET UNSTRUCTURED_GRID 

POINTS 1978 float 
-8.48528 -2.82843 -1.95698e-09 
-8.25625 -2.82843 -2.83181e-09 
-8.0297 -2.82843 3.42165e-09 
-7.75925 -2.82843 4.00663e-09 
-7.46827 -2.82843 3.30419e-09 
-7.22993 -2.82843 1.49535e-09 
-6.99079 -2.82843 7.33355e-10 
-6.77038 -2.82843 1.16351e-09 
-6.56102 -2.82843 7.58594e-10 
-6.33861 -2.82843 5.47715e-10 
-6.14682 -2.82843 4.33277e-10 
-5.92893 -2.82843 3.43271e-10 
-5.71766 -2.82843 2.33606e-10 
-5.51222 -2.82843 1.36765e-10 
-5.29449 -2.82843 8.3594e-11 
-5.08279 -2.82843 1.56548e-10 
-4.8659 -2.82843 1.06119e-10 
-4.65822 -2.82843 5.22716e-11 
-4.43843 -2.82843 8.35873e-12 
-4.21805 -2.82843 -8.07237e-11 
-3.99981 -2.82843 -1.78655e-10 
-3.78782 -2.82843 -2.86047e-10 
-3.57165 -2.82843 -3.53859e-10 
-3.35865 -2.82843 -5.64233e-10 
-3.13694 -2.82843 -7.15554e-10 
-2.92619 -2.82843 -7.91061e-10 
-2.71607 -2.82843 -7.44916e-10 
-2.52162 -2.82843 -9.24159e-10 
-2.30765 -2.82843 -1.03015e-09 
-2.09689 -2.82843 -1.01055e-09 
-1.88877 -2.82843 -4.65859e-10 
-1.68411 -2.82843 -8.33588e-11 
-1.48274 -2.82843 1.79268e-10 
-1.27432 -2.82843 5.39675e-10 
-1.08738 -2.82843 -1.80957e-09 
-0.837729 -2.82843 -8.20874e-10 
-0.615996 -2.82843 -2.15042e-09 
-0.440557 -2.82843 2.47457e-09 
-0.213254 -2.82843 -3.35164e-09 
0.0146762 -2.82843 1.92411e-09 
0.218867 -2.82843 -9.34546e-10 
0.427146 -2.82843 1.25521e-09 
0.627651 -2.82843 2.51086e-09 
0.855841 -2.82843 2.84081e-09 
1.05503 -2.82843 -2.27536e-10 
1.25156 -2.82843 -2.02108e-10 
1.44466 -2.82843 2.20979e-10 
1.68708 -2.82843 3.84151e-10 
1.8773 -2.82843 5.17798e-10 
2.09508 -2.82843 1.14321e-09 
2.3143 -2.82843 1.02582e-09 
2.50308 -2.82843 9.07175e-10 
2.73362 -2.82843 1.19394e-09 
2.95006 -2.82843 8.89652e-10 
3.16528 -2.82843 5.69517e-10 
3.37031 -2.82843 4.59825e-10 
3.59596 -2.82843 3.81758e-10 
3.79918 -2.82843 2.37668e-10 
4.01609 -2.82843 2.15315e-10 
4.2454 -2.82843 1.54241e-10 
4.44528 -2.82843 -7.73792e-12 
4.65853 -2.82843 -4.5917e-11 
4.86745 -2.82843 -2.32511e-11 
5.0722 -2.82843 -1.4811e-10 
5.28775 -2.82843 -1.85067e-10 
5.49978 -2.82843 -1.87674e-10 
5.70388 -2.82843 -3.34397e-10 
5.92358 -2.82843 -3.43713e-10 
6.14568 -2.82843 -4.14275e-10 
6.34624 -2.82843 -7.83024e-10 
6.58512 -2.82843 -7.82878e-10 
6.796 -2.82843 -6.63693e-10 
6.9943 -2.82843 -1.30151e-09 
7.25258 -2.82843 -1.61836e-09 
7.48089 -2.82843 -2.24465e-09 
7.71762 -2.82843 -3.29239e-09 
7.98062 -2.82843 -4.43044e-09 
8.16599 -2.82843 8.30806e-10 
8.48528 -2.82843 2.30279e-09 
-8.48528 -2.59407 3.06118e-09 
-8.24554 -2.57966 -3.23004e-18 
-8.00325 -2.58783 2.15297e-17 
-7.76167 -2.61633 1.06456e-17 
-7.50627 -2.63912 9.60278e-18 
-7.21682 -2.59892 8.74405e-18 
-6.97812 -2.59104 8.7698e-18 
-6.76732 -2.57836 6.84371e-18 
-6.53405 -2.59986 5.48766e-18 
-6.3328 -2.56055 5.16364e-18 
-6.11069 -2.59673 4.41339e-18 
-5.8947 -2.58447 3.12878e-18 
-5.68455 -2.57371 2.55858e-18 
-5.46615 -2.58916 1.70782e-18 
-5.25023 -2.58245 1.25489e-18 
-5.03166 -2.58859 6.94381e-19 
-4.8203 -2.5779 1.51714e-19 
-4.60131 -2.59147 -5.24519e-19 
-4.37993 -2.59103 -1.12326e-18 
-4.16114 -2.58744 -1.93103e-18 
-3.94947 -2.57855 -2.89976e-18 
-3.73642 -2.58355 -4.05132e-18 
-3.52423 -2.5833 -5.62003e-18 
-3.30694 -2.5959 -6.8848e-18 
-3.09476 -2.59045 -9.25036e-18 
-2.88308 -2.595 -1.14083e-17 
-2.68381 -2.58358 -1.42327e-17 
-2.47302 -2.60884 -1.6682e-17 
-2.25427 -2.60306 -1.82692e-17 
-2.04532 -2.59764 -1.91737e-17 
-1.83362 -2.59397 -2.35847e-17 
-1.62214 -2.58533 -2.0666e-17 
-1.41695 -2.58265 -1.40384e-17 
-1.22393 -2.54985 -1.50448e-17 
-0.998262 -2.60863 5.55697e-18 
-0.781089 -2.57663 -1.65489e-17 
-0.592916 -2.48784 1.36067e-17 
-0.3752 -2.52554 2.13061e-17 
-0.146364 -2.53952 -7.81163e-18 
0.0763634 -2.52405 1.01519e-17 
0.283141 -2.33547 -1.18097e-16 
0.340524 -2.56545 5.26913e-17 
0.586886 -2.53917 2.68737e-18 
0.809848 -2.58587 4.11812e-19 
1.04673 -2.56801 6.08809e-18 
1.2595 -2.57505 7.82886e-18 
1.50389 -2.63185 1.75092e-17 
1.71942 -2.57992 2.28571e-17 
1.93834 -2.61599 1.93461e-17 
2.16839 -2.61784 1.93389e-17 
2.37396 -2.57356 1.74821e-17 
2.58163 -2.60974 1.20805e-17 
2.80859 -2.60559 1.24622e-17 
3.02015 -2.59429 1.05317e-17 
3.22468 -2.57853 7.59959e-18 
3.44195 -2.59941 6.12859e-18 
3.64818 -2.5724 4.8672e-18 
3.8615 -2.58762 3.27028e-18 
4.08896 -2.60072 2.28674e-18 
4.29753 -2.56787 1.65392e-18 
4.5121 -2.58645 6.87456e-19 
4.72565 -2.58208 1.72285e-19 
4.93828 -2.57903 -4.63002e-19 
5.15327 -2.59154 -1.01365e-18 
5.37218 -2.58735 -1.53516e-18 
5.58376 -2.57691 -2.29666e-18 
5.80049 -2.59277 -2.85964e-18 
6.02598 -2.59306 -3.57261e-18 
6.23982 -2.56541 -4.84461e-18 
6.46006 -2.60601 -5.3219e-18 
6.68618 -2.57528 -7.27351e-18 
6.89302 -2.55779 -8.99046e-18 
7.11779 -2.62129 -8.58307e-18 
7.36597 -2.59165 -1.08097e-17 
7.60074 -2.59782 -1.19242e-17 
7.85419 -2.61881 -1.45109e-17 
8.06817 -2.5258 -2.01129e-17 
8.29527 -2.64421 2.21872e-18 
8.48528 -2.51924 -1.32586e-09 
-8.48528 -2.35586 1.63373e-09 
-8.22734 -2.34987 1.41626e-18 
-7.98796 -2.33988 1.74601e-17 
-7.75107 -2.39095 1.13704e-17 
-7.55348 -2.24296 1.1033e-17 
-7.45391 -2.45056 1.22002e-17 
-7.17051 -2.38276 1.22573e-17 
-6.94758 -2.33413 1.09146e-17 
-6.70112 -2.36566 7.49706e-18 
-6.48982 -2.33888 6.57453e-18 
-6.24138 -2.34527 4.8971e-18 
-6.02856 -2.3526 4.00274e-18 
-5.81081 -2.33442 2.97926e-18 
-5.58248 -2.34282 2.41782e-18 
-5.36629 -2.34549 1.74994e-18 
-5.14201 -2.34853 1.05923e-18 
-4.92785 -2.33786 3.69074e-19 
-4.70424 -2.34942 -2.4796e-19 
-4.48402 -2.35701 -9.7415e-19 
-4.2627 -2.35146 -1.82455e-18 
-4.04801 -2.33601 -2.7287e-18 
-3.8325 -2.33687 -3.79714e-18 
-3.6203 -2.34016 -5.28508e-18 
-3.40348 -2.35535 -7.03506e-18 
-3.19234 -2.35634 -9.29347e-18 
-2.9777 -2.36154 -1.15334e-17 
-2.77264 -2.3458 -1.39014e-17 
-2.56119 -2.36999 -1.78148e-17 
-2.35133 -2.39116 -2.16628e-17 
-2.12852 -2.36501 -2.27876e-17 
-1.91616 -2.36626 -2.54509e-17 
-1.69575 -2.35894 -2.24139e-17 
-1.4741 -2.33336 -9.96321e-18 
-1.273 -2.28878 -8.96366e-18 
-1.04943 -2.36285 -3.96319e-18 
-0.824536 -2.30986 1.81917e-17 
-0.586509 -2.21979 1.13469e-18 
-0.38588 -2.18545 -1.64184e-17 
-0.182253 -2.23896 4.16264e-17 
0.0412453 -2.21909 -1.96841e-17 
0.14814 -2.00055 -1.81895e-18 
0.400691 -2.10805 2.06316e-17 
0.569668 -2.27498 9.29864e-18 
0.815549 -2.30232 -1.00514e-17 
1.02333 -2.32481 -3.54497e-18 
1.25496 -2.32894 9.63907e-18 
1.46331 -2.41299 1.71993e-17 
1.65236 -2.34142 2.74225e-17 
1.8781 -2.38162 2.31929e-17 
2.09163 -2.40988 2.54367e-17 
2.30549 -2.35628 2.35359e-17 
2.53521 -2.35859 1.73701e-17 
2.74115 -2.39564 1.48393e-17 
2.96366 -2.36081 1.2008e-17 
3.16523 -2.33607 9.11885e-18 
3.38059 -2.35841 6.96927e-18 
3.58501 -2.3302 5.59405e-18 
3.79745 -2.33995 4.16328e-18 
4.01246 -2.36701 2.96193e-18 
4.22123 -2.32858 1.95656e-18 
4.44172 -2.33923 1.12908e-18 
4.65201 -2.33887 4.01596e-19 
4.86439 -2.33874 -2.46054e-19 
5.08229 -2.34637 -8.21729e-19 
5.2942 -2.35443 -1.48483e-18 
5.51059 -2.33651 -2.16333e-18 
5.72966 -2.34801 -2.91671e-18 
5.94677 -2.361 -3.70742e-18 
6.16329 -2.32945 -4.75428e-18 
6.39582 -2.35237 -5.84902e-18 
6.60529 -2.35059 -7.33551e-18 
6.82748 -2.3042 -8.3462e-18 
7.05565 -2.36398 -1.07677e-17 
7.27183 -2.38726 -1.24373e-17 
7.52881 -2.36151 -1.24593e-17 
7.77137 -2.39348 -1.3618e-17 
7.98744 -2.29885 -1.59692e-17 
8.25616 -2.36677 4.04741e-18 
8.48528 -2.27003 -1.25848e-09 
-8.48528 -2.09142 7.69868e-10 
-8.26388 -2.11776 -3.76171e-18 
-8.03079 -2.09189 4.77151e-18 
-7.78676 -2.13801 6.11161e-18 
-7.51333 -2.02477 2.15427e-18 
-7.30223 -2.21876 7.39221e-18 
-7.06192 -2.1139 4.49577e-18 
-6.80351 -2.13404 5.1071e-18 
-6.59343 -2.10533 4.39794e-18 
-6.35484 -2.13388 3.36654e-18 
-6.12497 -2.10138 2.6759e-18 
-5.9191 -2.10254 2.19403e-18 
-5.69089 -2.11145 1.61197e-18 
-5.46981 -2.10245 1.11733e-18 
-5.25198 -2.11524 7.14205e-19 
-5.03788 -2.10165 2.31557e-19 
-4.81516 -2.11238 -1.43105e-19 
-4.59607 -2.1192 -5.42554e-19 
-4.37987 -2.12075 -9.93637e-19 
-4.16772 -2.10337 -1.44303e-18 
-3.9521 -2.09687 -1.96103e-18 
-3.7402 -2.09756 -2.68636e-18 
-3.52592 -2.11246 -3.55682e-18 
-3.31775 -2.11875 -4.64055e-18 
-3.10557 -2.12772 -6.0095e-18 
-2.90135 -2.11886 -7.20769e-18 
-2.68471 -2.12391 -8.97773e-18 
-2.47609 -2.14599 -1.08899e-17 
-2.26698 -2.16433 -1.35438e-17 
-2.03679 -2.12842 -1.3361e-17 
-1.81809 -2.1375 -1.29695e-17 
-1.59615 -2.11762 -7.75752e-18 
-1.38802 -2.04548 -3.15853e-18 
-1.18676 -1.99059 9.23393e-18 
-1.03949 -2.1163 -1.06268e-18 
-0.799342 -2.05616 -1.19234e-17 
-0.582783 -1.92884 4.35089e-17 
-0.351151 -1.89075 3.12542e-17 
-0.140446 -1.92388 -1.79263e-17 
0.0319451 -1.74213 1.18217e-17 
0.231742 -1.59398 6.10236e-19 
0.336509 -1.83062 2.14941e-17 
0.577605 -1.87581 2.36713e-18 
0.749887 -2.03866 -3.78514e-17 
0.987787 -2.02151 -5.98356e-18 
1.19422 -2.09267 3.3827e-19 
1.436 -2.14995 1.01537e-17 
1.65405 -2.10177 6.55033e-18 
1.8695 -2.1628 1.53183e-17 
2.10616 -2.17999 1.48103e-17 
2.34819 -2.14424 1.53061e-17 
2.56264 -2.12491 1.07137e-17 
2.78059 -2.16963 1.14145e-17 
2.98128 -2.10874 5.91927e-18 
3.20211 -2.11023 5.41513e-18 
3.40593 -2.10943 4.3464e-18 
3.62302 -2.09404 2.90119e-18 
3.8404 -2.10973 2.4176e-18 
4.04292 -2.1162 1.77679e-18 
4.2708 -2.09897 1.14325e-18 
4.48194 -2.09669 6.96872e-19 
4.69569 -2.09788 2.57061e-19 
4.91426 -2.1076 -9.7871e-20 
5.12795 -2.10664 -4.49499e-19 
5.34021 -2.11599 -8.72931e-19 
5.56422 -2.10544 -1.23008e-18 
5.78183 -2.11366 -1.73447e-18 
5.99283 -2.11517 -2.28441e-18 
6.23324 -2.11155 -2.67859e-18 
6.44342 -2.0997 -3.38195e-18 
6.65507 -2.10223 -4.23915e-18 
6.90912 -2.09245 -4.34575e-18 
7.12273 -2.12395 -5.35941e-18 
7.35102 -2.16993 -6.36012e-18 
7.54135 -2.07192 -2.47697e-18 
7.72694 -2.1596 -7.00522e-18 
7.94723 -2.06581 -4.53243e-18 
8.2008 -2.1411 -2.45874e-18 
8.48528 -2.07098 -2.04031e-09 
-8.48528 -1.7942 1.28587e-10 
-8.29183 -1.86658 -5.85595e-18 
-7.88396 -1.89172 1.96121e-14 
[...]
POINT_DATA 1978 
VECTORS vectors float
0.00299114 -0.00226422 0.999993 
0.000807445 -0.0732113 0.997316 
0.000687456 -0.103684 0.99461 
0.000617214 -0.100092 0.994978 
0.000581593 -0.082811 0.996565 
0.000912877 -0.068311 0.997664 
0.00087851 -0.0540955 0.998535 
0.00101317 -0.0440882 0.999027 
0.00095786 -0.0349483 0.999389 
0.00121518 -0.0272184 0.999629 
0.00124442 -0.0209773 0.999779 
0.000895305 -0.0157991 0.999875 
0.00124184 -0.0116024 0.999932 
0.00108859 -0.00847221 0.999964 
0.00105636 -0.00614978 0.999981 
0.00105315 -0.00431564 0.99999 
0.00113764 -0.0024471 0.999996 
0.00111655 -0.000255128 0.999999 
0.000966094 0.00255215 0.999996 
0.00099884 0.00610622 0.999981 
0.00108537 0.0106237 0.999943 
0.00104576 0.0160961 0.99987 
0.00107481 0.0230601 0.999734 
0.000964875 0.0317685 0.999495 
0.000984551 0.0436554 0.999046 
0.000989978 0.0586012 0.998281 
0.00118041 0.0783037 0.996929 
0.00105417 0.101719 0.994813 
0.00083133 0.134552 0.990906 
0.000843367 0.175825 0.984421 
0.00081809 0.227268 0.973832 
0.000753133 0.289917 0.957051 
0.00053127 0.365324 0.93088 
0.000584234 0.459458 0.888199 
0.000295956 0.551483 0.834186 
7.26308e-05 0.689603 0.724187 
7.67995e-05 0.810616 0.585578 
1.28407e-05 0.893809 0.448448 
-4.77329e-05 0.975726 0.218997 
0.000134043 0.999759 -0.021933 
-1.07928e-05 0.971189 -0.238311 
-0.000115001 0.903897 -0.427751 
-1.07945e-05 0.805974 -0.591951 
-0.000190487 0.681429 -0.731884 
-0.000328218 0.569555 -0.821953 
-0.000637769 0.466645 -0.884445 
-0.000347427 0.378475 -0.925612 
-0.000687836 0.288552 -0.957464 
-0.000976135 0.230941 -0.972967 
-0.000557859 0.178085 -0.984015 
-0.00113314 0.134638 -0.990894 
-0.00102867 0.104816 -0.994491 
-0.000726521 0.0774519 -0.996996 
-0.00100538 0.0574151 -0.99835 
-0.00116828 0.0422756 -0.999105 
-0.000927326 0.0312783 -0.99951 
-0.00103281 0.0222917 -0.999751 
-0.00126013 0.0159006 -0.999873 
-0.000795443 0.0108442 -0.999941 
-0.00109808 0.00656049 -0.999978 
-0.00126123 0.00322977 -0.999994 
-0.00101263 0.000331267 -1 
-0.00123591 -0.0022107 -0.999997 
-0.00112826 -0.0044728 -0.999989 
-0.000988098 -0.00680002 -0.999977 
-0.00124049 -0.00946207 -0.999955 
-0.00113688 -0.0124975 -0.999921 
-0.000826019 -0.0164217 -0.999865 
-0.00127202 -0.0214184 -0.99977 
-0.000977598 -0.0270109 -0.999635 
-0.000709434 -0.0347501 -0.999396 
-0.00152084 -0.0434008 -0.999057 
-0.000794299 -0.0535038 -0.998567 
-0.000645744 -0.0694694 -0.997584 
-0.00106549 -0.0870247 -0.996206 
-0.000385424 -0.105064 -0.994465 
-0.00152295 -0.116506 -0.993189 
0.000347441 -0.0982954 -0.995157 
-0.00233316 -0.00137057 -0.999997 
-0.0013307 0.000468837 0.999999 
0.0162941 -0.0650839 0.997747 
0.0344211 -0.0923707 0.99513 
0.0342801 -0.0964492 0.994747 
0.0326359 -0.0841265 0.99592 
0.039387 -0.0660433 0.997039 
0.0433448 -0.0539399 0.997603 
0.0448826 -0.043857 0.998029 
0.0446941 -0.0344378 0.998407 
0.0507062 -0.0271158 0.998345 
0.0465895 -0.0202803 0.998708 
0.0481465 -0.0151758 0.998725 
0.0507707 -0.0114524 0.998645 
0.048868 -0.00838086 0.99877 
0.050238 -0.00594362 0.99872 
0.0495791 -0.0038027 0.998763 
0.0512906 -0.00167636 0.998682 
0.0488389 0.000845302 0.998806 
0.0484799 0.00402691 0.998816 
0.0487313 0.00797461 0.99878 
0.0493651 0.0127618 0.998699 
0.0479368 0.0187198 0.998675 
0.0472804 0.0261964 0.998538 
0.0442178 0.0359473 0.998375 
0.0441113 0.0485268 0.997847 
0.042017 0.0647861 0.997014 
0.0416607 0.0848331 0.995524 
0.0358641 0.111261 0.993144 
0.0329056 0.147081 0.988577 
0.0294095 0.191235 0.981104 
0.0257371 0.247029 0.968666 
0.021203 0.316611 0.948319 
0.0160981 0.398512 0.917022 
0.0126376 0.487992 0.872757 
0.00632292 0.607118 0.794587 
0.00342728 0.732085 0.681205 
0.00184313 0.830293 0.557325 
0.000557134 0.915499 0.402321 
-1.46306e-05 0.97729 0.211905 
-0.00154526 0.999815 -0.0191506 
-0.00426181 0.975036 -0.222004 
-0.00430092 0.916764 -0.399407 
-0.00619948 0.814873 -0.579607 
-0.00721412 0.697734 -0.71632 
-0.0109442 0.567812 -0.823086 
-0.0144035 0.463575 -0.885941 
-0.0164663 0.356251 -0.934245 
-0.0246487 0.281378 -0.959281 
-0.0259668 0.217809 -0.975646 
-0.030197 0.165211 -0.985796 
-0.0379308 0.128277 -0.991013 
-0.0354067 0.0976085 -0.994595 
-0.0402615 0.0728677 -0.996529 
-0.0428959 0.0545084 -0.997591 
-0.0460139 0.0410639 -0.998096 
-0.0444466 0.0297625 -0.998568 
-0.0492146 0.0218663 -0.998549 
-0.0476509 0.0153957 -0.998745 
-0.046304 0.0099856 -0.998877 
-0.0518827 0.00610321 -0.998635 
-0.0495516 0.00268482 -0.998768 
-0.0504393 -0.000274751 -0.998727 
-0.0513349 -0.002886 -0.998677 
-0.0489931 -0.00536995 -0.998785 
-0.0497327 -0.00802082 -0.99873 
-0.0509871 -0.0108536 -0.99864 
-0.0476159 -0.0143017 -0.998763 
-0.0470842 -0.0188126 -0.998714 
-0.050409 -0.0240155 -0.99844 
-0.0431303 -0.0305708 -0.998602 
-0.047302 -0.0389465 -0.998121 
-0.0483774 -0.0483421 -0.997659 
-0.0376913 -0.0607453 -0.997441 
-0.0413935 -0.0769613 -0.996174 
-0.0396154 -0.0928085 -0.994896 
-0.0359278 -0.105634 -0.993756 
-0.0384558 -0.0925846 -0.994962 
-0.00971825 -0.0578574 -0.998278 
0.000470594 0.000780062 -0.999999 
-0.000388695 0.000315787 1 
0.0285612 -0.0645139 0.997508 
0.0527865 -0.0906438 0.994483 
0.0550118 -0.0914307 0.994291 
0.064302 -0.0840869 0.994382 
0.0542773 -0.0791437 0.995384 
0.0629856 -0.0633933 0.995999 
0.0678145 -0.0515029 0.996368 
0.0669968 -0.0405272 0.99693 
0.070333 -0.0320541 0.997008 
0.0713446 -0.024141 0.99716 
0.0719632 -0.0185178 0.997235 
0.0736439 -0.0140693 0.997185 
0.0741932 -0.0103163 0.997191 
0.0745875 -0.00746665 0.997187 
0.0749331 -0.00497786 0.997176 
0.0757528 -0.00267034 0.997123 
0.0750325 -1.16923e-05 0.997181 
0.0741339 0.00306802 0.997244 
0.0736263 0.00685335 0.997262 
0.0733429 0.0114461 0.997241 
0.0720114 0.0170746 0.997258 
0.0706878 0.0240111 0.997209 
0.0684663 0.0329588 0.997109 
0.0667622 0.0442931 0.996785 
0.0641912 0.0592447 0.996177 
0.0620312 0.077915 0.995028 
0.0575956 0.102228 0.993092 
0.0520603 0.133066 0.989739 
0.0467939 0.176046 0.983269 
0.0402296 0.227901 0.972853 
0.0325332 0.296834 0.954375 
0.0242798 0.381729 0.923955 
0.0181042 0.470839 0.882033 
0.0110233 0.579605 0.814823 
0.00590243 0.697513 0.716548 
0.00152465 0.817525 0.57589 
-0.00115759 0.919824 0.39233 
-0.00287922 0.981302 0.192453 
-0.00445611 0.998518 -0.0542352 
-0.00423091 0.981238 -0.192755 
-0.00650955 0.909838 -0.414913 
-0.00838185 0.818861 -0.573931 
-0.0110276 0.703363 -0.710745 
-0.0144803 0.589517 -0.807626 
-0.0203585 0.47173 -0.881508 
-0.0254401 0.376919 -0.925897 
-0.0335791 0.307199 -0.951053 
-0.0396231 0.238697 -0.970285 
-0.0448491 0.183372 -0.98202 
-0.0525089 0.14109 -0.988603 
-0.0566053 0.106019 -0.992752 
-0.0595962 0.0819614 -0.994852 
-0.0639059 0.0608837 -0.996097 
-0.067166 0.0465092 -0.996657 
-0.0678002 0.0343441 -0.997108 
-0.0711697 0.02572 -0.997133 
-0.0720497 0.0184822 -0.99723 
-0.0715087 0.0126028 -0.99736 
-0.0747287 0.00826957 -0.99717 
-0.0748398 0.00428858 -0.997186 
-0.0752552 0.00106264 -0.997164 
-0.0757897 -0.00182921 -0.997122 
-0.0753791 -0.00457729 -0.997144 
-0.0746531 -0.00717551 -0.997184 
-0.0752007 -0.0100235 -0.997118 
-0.0738248 -0.0133085 -0.997182 
-0.072032 -0.0172461 -0.997253 
-0.0728976 -0.0221189 -0.997094 
-0.0701426 -0.0285237 -0.997129 
-0.0689823 -0.0356903 -0.996979 
-0.0695272 -0.0452691 -0.996552 
-0.0655085 -0.0571101 -0.996216 
-0.062737 -0.0701984 -0.995558 
-0.0617573 -0.0856114 -0.994413 
-0.0580685 -0.097005 -0.993588 
-0.0562465 -0.0932177 -0.994056 
-0.0245442 -0.0603134 -0.997878 
0.00012306 -2.57857e-05 -1 
0.000556272 0.000551224 1 
0.0237442 -0.0545508 0.998229 
0.0479257 -0.0846642 0.995256 
0.0587846 -0.0901703 0.99419 
0.0616778 -0.0827373 0.994661 
0.0667717 -0.0716912 0.995189 
0.0678362 -0.0581776 0.995999 
0.0704526 -0.0446258 0.996516 
0.0720743 -0.0357941 0.996757 
0.0736319 -0.0275221 0.996906 
0.0745201 -0.0211612 0.996995 
0.0756464 -0.0165896 0.996997 
0.0766165 -0.0125187 0.996982 
0.0771658 -0.00932073 0.996975 
0.0780314 -0.00657966 0.996929 
0.0781778 -0.00407931 0.996931 
0.0784016 -0.00128003 0.996921 
0.0781994 0.00182011 0.996936 
0.0775398 0.00541669 0.996975 
0.0762774 0.00972044 0.997039 
0.0748569 0.0150134 0.997081 
0.0733501 0.0213566 0.997078 
0.0718489 0.0293429 0.996984 
0.0700068 0.0392324 0.996775 
0.067819 0.0521321 0.996335 
0.0648431 0.068249 0.995559 
0.0611306 0.0900137 0.994063 
0.056921 0.116992 0.9915 
0.05176 0.151524 0.987097 
0.0440413 0.20098 0.978605 
0.036515 0.261576 0.964492 
0.0277624 0.340035 0.940003 
0.0192164 0.426645 0.904215 
0.011692 0.521995 0.852869 
0.0101661 0.585075 0.810915 
0.0040317 0.709288 0.704907 
-0.000132643 0.827471 0.561508 
-0.00185377 0.930554 0.36615 
-0.00272952 0.988725 0.149715 
-0.00313251 0.999556 -0.0296317 
-0.00349923 0.971919 -0.23529 
-0.0034889 0.929182 -0.369605 
-0.00498382 0.83321 -0.552935 
-0.00875839 0.728085 -0.68543 
-0.0124201 0.614328 -0.788953 
-0.0175236 0.509602 -0.860232 
-0.0251851 0.394362 -0.91861 
-0.0314993 0.314496 -0.948736 
-0.0394852 0.24333 -0.96914 
-0.0473359 0.18445 -0.981701 
-0.0539422 0.135014 -0.989374 
-0.0582539 0.105221 -0.992741 
-0.0635865 0.0788552 -0.994856 
-0.0654091 0.0612927 -0.995974 
-0.0686538 0.0458405 -0.996587 
-0.0708607 0.0348263 -0.996878 
-0.0724929 0.025791 -0.997035 
-0.0745052 0.0183941 -0.997051 
-0.0758039 0.0129538 -0.997039 
-0.076752 0.00797784 -0.997018 
-0.0774151 0.00407091 -0.996991 
-0.0779985 0.000648853 -0.996953 
-0.0783949 -0.00249307 -0.996919 
-0.0782743 -0.00534005 -0.996918 
-0.0780199 -0.00808074 -0.996919 
-0.0772067 -0.0111757 -0.996952 
-0.0765008 -0.0145772 -0.996963 
-0.0755193 -0.0185515 -0.996972 
-0.0742721 -0.0242135 -0.996944 
-0.0727315 -0.030352 -0.99689 
-0.0713671 -0.0380065 -0.996726 
-0.0693678 -0.0497145 -0.996352 
-0.0681238 -0.0614829 -0.995781 
-0.0669811 -0.0753579 -0.994904 
-0.0636132 -0.0855998 -0.994297 
-0.0629632 -0.0926274 -0.993708 
-0.0561422 -0.0922597 -0.994151 
-0.0363464 -0.0675316 -0.997055 
9.00805e-05 -0.000443484 -1 
0.000669354 0.000695806 1 
0.0178487 -0.048173 0.99868 
0.051254 -0.0928232 0.994363 
0.0554123 -0.088875 0.9945 
0.0542651 -0.0790091 0.995396 
0.0631443 -0.0712168 0.99546 
0.0595635 -0.0631032 0.996228 
0.0647616 -0.0513127 0.996581 
0.0641936 -0.0407831 0.997104 
0.0674339 -0.032032 0.997209 
0.0682166 -0.0251896 0.997352 
0.0673075 -0.0199198 0.997533 
0.0695526 -0.0154994 0.997458 
0.0701897 -0.0118758 0.997463 
0.0707411 -0.00874457 0.997456 
0.0712266 -0.00604678 0.997442 
0.0718284 -0.00304161 0.997412 
0.0719667 0.000157721 0.997407 
0.0716249 0.00369583 0.997425 
0.070402 0.00773122 0.997489 
0.0689945 0.0126334 0.997537 
0.0673118 0.01851 0.99756 
0.0660976 0.0256243 0.997484 
0.064499 0.0342143 0.997331 
0.0628752 0.0451421 0.997 
0.0602779 0.0587611 0.996451 
0.0574085 0.0768373 0.99539 
0.0534728 0.100356 0.993514 
0.0494302 0.12966 0.990326 
0.0444356 0.168385 0.984719 
0.0357664 0.226387 0.973381 
0.0286419 0.293221 0.955616 
0.0196896 0.37259 0.927787 
0.0110407 0.469026 0.883115 
0.00352775 0.660367 0.750935 
-0.000716636 0.776831 0.629708 
-0.00275414 0.894746 0.446567 
-0.00428979 0.949942 0.312397 
-0.00378307 0.976387 0.215994 
-0.00413607 0.999989 0.00199126 
-0.00244902 0.98578 -0.168022 
-0.00365503 0.936 -0.35198 
-0.00348932 0.860066 -0.510171 
-0.00477954 0.72066 -0.693272 
-0.00793541 0.614809 -0.788636 
-0.0132748 0.506371 -0.862214 
-0.0200234 0.422581 -0.906104 
-0.0243669 0.343892 -0.938693 
-0.032172 0.266157 -0.963393 
-0.0402836 0.207604 -0.977383 
-0.0469072 0.157419 -0.986417 
-0.0495531 0.121055 -0.991408 
-0.0565921 0.0885765 -0.99446 
-0.057666 0.0707439 -0.995826 
-0.0610973 0.0531797 -0.996714 
-0.0630309 0.0402634 -0.997199 
-0.065083 0.0305046 -0.997413 
-0.0672535 0.0220418 -0.997492 
-0.0683385 0.0157988 -0.997537 
-0.0702982 0.0105496 -0.99747 
-0.0700565 0.00588122 -0.997526 
-0.070822 0.00197837 -0.997487 
-0.0715462 -0.00154937 -0.997436 
-0.0714121 -0.00468892 -0.997436 
-0.0712585 -0.00769461 -0.997428 
-0.0710397 -0.0105933 -0.997417 
-0.069968 -0.014036 -0.99745 
-0.0688803 -0.0178652 -0.997465 
-0.0689229 -0.0225497 -0.997367 
-0.0659379 -0.0287999 -0.997408 
-0.0646564 -0.0361271 -0.997253 
-0.0645942 -0.0454949 -0.996874 
-0.0616048 -0.0588527 -0.996364 
-0.0618637 -0.0719568 -0.995487 
-0.0571536 -0.0848973 -0.994749 
-0.0554921 -0.0927873 -0.994138 
-0.045604 -0.0871164 -0.995154 
-0.028604 -0.0601909 -0.997777 
-0.000868993 0.000252939 -1 
0.000325846 0.000128096 1 
0.0173584 -0.0536867 0.998407 
0.0369809 -0.0786977 0.996212 
0.0431873 -0.0938279 0.994651 
0.0471595 -0.0896258 0.994858 
0.0489965 -0.0721834 0.996187 
0.052502 -0.0564248 0.997025 
0.0546808 -0.0467531 0.997409 
0.0559609 -0.0354798 0.997802 
0.0574532 -0.0285395 0.99794 
0.056629 -0.0229853 0.998131 
0.057285 -0.0177497 0.9982 
0.0590606 -0.0140221 0.998156 
0.0599452 -0.0106703 0.998145 
0.0593447 -0.00767694 0.998208 
0.0609417 -0.00457669 0.998131 
0.0611011 -0.00117353 0.998131 
0.0607338 0.00255432 0.998151 
0.0595248 0.00664001 0.998205 
0.0585104 0.0114197 0.998221 
0.0570591 0.0171195 0.998224 
0.0559032 0.0240234 0.998147 
0.0543883 0.0322427 0.997999 
0.053185 0.0424591 0.997682 
0.0508483 0.0552564 0.997177 
0.0485853 0.071975 0.996222 
0.0452883 0.0938683 0.994554 
0.0410519 0.123493 0.991496 
0.0374265 0.1607 0.986293 
0.0317032 0.210182 0.977148 
0.0221337 0.288529 0.957215 
0.0137532 0.377849 0.925765 
0.00562944 0.491369 0.870933 
0.000835111 0.599952 0.800036 
0.00440104 0.586913 0.809638 
-0.00163263 0.711104 0.703085 
-0.00360882 0.840835 0.541279 
-0.00333187 0.873772 0.486324 
-0.00353399 0.996127 0.0878545 
0.00405353 0.996355 0.0852129 
0.00467602 0.997181 -0.074894 
0.00205455 0.946451 -0.32284 
-3.99684e-05 0.861447 -0.507847 
-0.00197136 0.764654 -0.644438 
-0.00237519 0.627912 -0.77828 
-0.0067318 0.523677 -0.85189 
-0.0129382 0.41487 -0.909789 
-0.0206114 0.318605 -0.947663 
-0.0281108 0.244398 -0.969267 
-0.0355635 0.192376 -0.980677 
-0.0390487 0.151215 -0.987729 
-0.0454525 0.105235 -0.993408 
-0.0459277 0.0847818 -0.99534 
-0.0495674 0.064305 -0.996699 
-0.0515922 0.0492523 -0.997453 
-0.0528674 0.0375585 -0.997895 
-0.0558516 0.028023 -0.998046 
-0.0565566 0.0208487 -0.998182 
-0.0577936 0.0146738 -0.998221 
-0.0598854 0.00950546 -0.99816 
-0.05892 0.00481746 -0.998251 
-0.0601432 0.000715634 -0.998189 
-0.0600572 -0.00283152 -0.998191 
-0.0602486 -0.00615753 -0.998164 
-0.0596611 -0.00923428 -0.998176 
-0.0600952 -0.0122873 -0.998117 
-0.0583193 -0.0157894 -0.998173 
-0.0579704 -0.019953 -0.998119 
-0.0576209 -0.0247454 -0.998032 
-0.0541158 -0.0313631 -0.998042 
-0.0537606 -0.0396161 -0.997768 
-0.0549372 -0.0500676 -0.997234 
-0.0502108 -0.0617064 -0.996831 
-0.0523494 -0.0732225 -0.995941 
-0.0473282 -0.086225 -0.995151 
-0.0469272 -0.0935575 -0.994507 
-0.0381813 -0.0893546 -0.995268 
-0.0213855 -0.0553785 -0.998236 
-0.000801554 -0.000173715 -1 
0.000157232 -0.000181715 1 
0.0168026 -0.0625812 0.997898 
0.0323813 -0.0869851 0.995683 
0.0353506 -0.0939851 0.994946 
0.0413935 -0.0849789 0.995523 
0.0369617 -0.0749663 0.996501 
0.0422154 -0.0621848 0.997171 
0.039894 -0.0497995 0.997962 
0.0454842 -0.0408509 0.998129 
0.0436041 -0.0324131 0.998523 
0.0440912 -0.026617 0.998673 
0.0458616 -0.0210571 0.998726 
0.0451493 -0.0168016 0.998839 
0.0474781 -0.0133461 0.998783 
0.0477379 -0.010251 0.998807 
0.0476094 -0.00696657 0.998842 
0.0490086 -0.00362113 0.998792 
0.0487809 8.38519e-05 0.998809 
0.0476608 0.00403517 0.998855 
0.0468892 0.00858226 0.998863 
0.0461365 0.0137991 0.99884 
0.0452097 0.0199714 0.998778 
0.0439304 0.0271311 0.998666 
0.0428116 0.0358965 0.998438 
0.0414201 0.0465746 0.998056 
0.0395542 0.0606981 0.997372 
0.0372236 0.0789237 0.996185 
0.0342237 0.103751 0.994014 
0.0301382 0.138022 0.989971 
0.0266177 0.180957 0.983131 
0.0214677 0.244079 0.969518 
0.0122272 0.336075 0.941756 
0.00549282 0.440398 0.897786 
0.000215524 0.554301 0.832316 
-0.00315753 0.766633 0.642078 
-0.000842568 0.840161 0.542336 
0.00314649 0.920664 0.390344 
0.0062705 0.970128 0.242512 
-0.000640549 0.955129 0.296191 
0.0028415 0.99916 0.0408927 
0.00201495 0.99861 -0.0526673 
-0.00018344 0.976156 -0.217069 
0.00042892 0.927657 -0.373434 
0.00162403 0.808755 -0.588144 
0.00129329 0.707896 -0.706315 
-0.0013346 0.540633 -0.841258 
-0.00597447 0.44339 -0.896309 
-0.0128979 0.339379 -0.940561 
-0.0199219 0.2569 -0.966233 
-0.0262753 0.192125 -0.981019 
-0.0257977 0.158545 -0.987015 
-0.0356867 0.130654 -0.990786 
-0.0334057 0.103991 -0.994017 
-0.0371512 0.0783942 -0.99623 
-0.0396002 0.0602674 -0.997396 
-0.0411066 0.0459052 -0.9981 
-0.0431951 0.0340607 -0.998486 
-0.0443449 0.0256963 -0.998686 
-0.0455638 0.0184933 -0.99879 
-0.0467601 0.0123702 -0.99883 
-0.0478533 0.00739727 -0.998827 
-0.0477719 0.00235701 -0.998855 
-0.0476658 -0.00165414 -0.998862 
-0.048035 -0.00537641 -0.998831 
-0.0474221 -0.00873085 -0.998837 
-0.0476377 -0.0119556 -0.998793 
-0.046782 -0.0151803 -0.99879 
-0.0461679 -0.0191787 -0.99875 
-0.0450411 -0.0239064 -0.998699 
-0.0436283 -0.0294372 -0.998614 
-0.042189 -0.0378196 -0.998394 
-0.0432871 -0.0483274 -0.997893 
-0.0400659 -0.0620459 -0.997269 
-0.0405138 -0.0769917 -0.996208 
-0.0356339 -0.0890012 -0.995394 
-0.0369107 -0.0948747 -0.994805 
-0.0296995 -0.0926786 -0.995253 
-0.0207198 -0.0644696 -0.997705 
-0.000352252 -0.000246214 -1 
0.000377523 -7.23889e-05 1 
0.0130185 -0.0629482 0.997932 
0.0266918 -0.0928332 0.995324 
0.0256234 -0.0963548 0.995017 
0.0315682 -0.0894394 0.995492 
0.0283824 -0.0772934 0.996604 
0.0316144 -0.0609377 0.997641 
0.0296976 -0.0480794 0.998402 
0.0339536 -0.03885 0.998668 
0.0311187 -0.0318627 0.999008 
0.0339565 -0.0254994 0.999098 
0.0349363 -0.0205756 0.999178 
0.0341167 -0.0166028 0.99928 
0.0363101 -0.013271 0.999252 
0.0371607 -0.00989111 0.99926 
0.0366107 -0.00630295 0.99931 
0.0377586 -0.00259305 0.999284 
0.0366086 0.00142273 0.999329 
0.0360995 0.00602508 0.99933 
0.0356256 0.0112164 0.999302 
0.0351329 0.0170876 0.999237 
0.0341037 0.0238452 0.999134 
0.0331676 0.0319757 0.998938 
0.0319162 0.0418966 0.998612 
0.0307723 0.0545465 0.998037 
0.0288143 0.0712991 0.997039 
0.0265845 0.0937331 0.995242 
0.0235661 0.124527 0.991936 
0.0196908 0.167833 0.985619 
0.016929 0.222321 0.974826 
0.0115138 0.294614 0.955547 
0.00486543 0.402064 0.915599 
0.000803519 0.508791 0.860889 
-0.00114461 0.634698 0.77276 
-0.00192505 0.656029 0.754733 
0.00518607 0.883998 0.467462 
0.00527285 0.976572 0.215125 
0.00627704 0.996505 0.0832996 
0.0049093 0.998867 0.0473456 
0.00462983 0.999973 0.00563726 
0.00277854 0.997156 -0.075314 
0.00238104 0.993769 -0.111436 
-0.00193729 0.970584 -0.240756 
0.000202707 0.833932 -0.551867 
0.00188986 0.626328 -0.779557 
0.00155437 0.5854 -0.810743 
-0.000231954 0.487074 -0.87336 
-0.00549124 0.385222 -0.922808 
-0.0109474 0.292325 -0.956256 
-0.016458 0.224143 -0.974417 
-0.0182605 0.170469 -0.985194 
-0.0249397 0.123549 -0.992025 
-0.0266588 0.0902993 -0.995558 
-0.0288874 0.0690959 -0.997192 
-0.0308611 0.0531953 -0.998107 
-0.0326438 0.0400459 -0.998664 
-0.033122 0.0305693 -0.998984 
-0.0345388 0.0227318 -0.999145 
-0.035576 0.0160798 -0.999238 
-0.0357917 0.0104534 -0.999305 
-0.0377863 0.0053031 -0.999272 
-0.0362873 0.000633723 -0.999341 
-0.0368118 -0.00355312 -0.999316 
-0.0363492 -0.00722851 -0.999313 
-0.0363701 -0.010703 -0.999281 
-0.0356095 -0.0138669 -0.99927 
-0.0357113 -0.0172913 -0.999213 
-0.0345357 -0.0213241 -0.999176 
-0.0329222 -0.026123 -0.999116 
-0.0331762 -0.0326257 -0.998917 
-0.0309169 -0.0409386 -0.998683 
-0.033166 -0.0498398 -0.998206 
-0.0292462 -0.0611263 -0.997701 
-0.0311548 -0.0744095 -0.996741 
-0.0272296 -0.0879313 -0.995754 
-0.0265985 -0.0964122 -0.994986 
-0.0212232 -0.0911351 -0.995612 
-0.0136587 -0.0591005 -0.998159 
-0.000419347 0.000120385 -1 
0.000235671 -0.000177812 1 
0.00923207 -0.0623762 0.99801 
0.0190656 -0.0925587 0.995525 
0.0187419 -0.097759 0.995034 
0.0230821 -0.0892093 0.995745 
0.0199936 -0.0767918 0.996847 