# vtk DataFile Version 3.0 
Exported using Morpho https://github.com/Morpho-lang/morpho 
ASCII 
DATASET UNSTRUCTURED_GRID 

POINTS 1978 float 
-8.48531 -2.82845 -1.00862e-08 
-8.27209 -2.82842 -1.67563e-08 
-7.97787 -2.82851 -9.42274e-09 
-7.71419 -2.82849 -4.9207e-09 
-7.5036 -2.82846 4.74905e-09 
-7.2832 -2.82853 -4.70179e-09 
-7.06345 -2.82846 3.82956e-09 
-6.74779 -2.8285 5.20301e-09 
-6.54634 -2.82848 3.61486e-09 
-6.34378 -2.82848 2.14525e-09 
-6.12206 -2.82849 2.25434e-09 
-5.91025 -2.82849 3.19282e-09 
-5.69929 -2.82849 2.11685e-09 
-5.48573 -2.8285 7.85058e-10 
-5.27558 -2.82849 9.17603e-10 
-5.06488 -2.82848 4.26065e-11 
-4.85414 -2.82849 -9.30963e-10 
-4.64618 -2.82848 2.1805e-09 
-4.43536 -2.82849 1.81149e-08 
-4.2258 -2.82849 1.25818e-08 
-4.01716 -2.8285 2.23923e-08 
-3.8063 -2.82849 2.88375e-08 
-3.5947 -2.82849 4.76458e-08 
-3.38489 -2.8285 6.20694e-08 
-3.17288 -2.82849 9.53449e-08 
-2.96265 -2.82845 1.25564e-07 
-2.76344 -2.82861 1.27912e-07 
-2.56194 -2.82844 3.0937e-07 
-2.33359 -2.82846 3.32544e-07 
-2.1097 -2.82844 7.86974e-07 
-1.88401 -2.82847 1.15957e-06 
-1.65213 -2.82832 2.59355e-06 
-1.43479 -2.82844 3.64092e-06 
-1.25537 -2.82841 1.36209e-05 
-1.09167 -2.82825 2.96869e-05 
-0.916662 -2.82839 7.47767e-05 
-0.762754 -2.82811 0.000121537 
-0.669242 -2.82802 0.000229829 
-0.442354 -2.82927 0.000815957 
-0.188432 -2.82627 7.25812e-05 
0.466558 -2.82927 -0.000922535 
0.593286 -2.82811 -0.000783886 
0.826 -2.82807 -0.000196907 
0.899571 -2.82842 -8.76711e-05 
1.07493 -2.82828 -4.37149e-05 
1.24979 -2.82832 -1.67039e-05 
1.4473 -2.82838 -6.31383e-06 
1.67032 -2.82837 -2.00346e-06 
1.88985 -2.82839 -8.70533e-07 
2.13309 -2.82846 -7.29738e-07 
2.36533 -2.8285 -4.97576e-07 
2.5878 -2.82842 -2.27721e-07 
2.78023 -2.82855 -1.27362e-07 
2.97021 -2.82849 -1.164e-07 
3.18474 -2.82849 -1.03091e-07 
3.398 -2.82849 -7.50292e-08 
3.61368 -2.82849 -5.06359e-08 
3.82674 -2.82849 -3.11378e-08 
4.03724 -2.82849 -1.96265e-08 
4.24566 -2.82848 -6.80238e-09 
4.45369 -2.82848 -1.13029e-08 
4.66268 -2.82849 -4.15381e-09 
4.87327 -2.82848 -2.83403e-09 
5.08352 -2.82849 -2.14695e-09 
5.29514 -2.82849 -2.07707e-09 
5.50702 -2.82849 -1.66009e-09 
5.7197 -2.82849 -2.42549e-09 
5.93357 -2.82849 -2.45407e-09 
6.15017 -2.8285 -2.05646e-09 
6.36729 -2.82849 -1.50472e-09 
6.58654 -2.82849 -3.49807e-09 
6.81025 -2.82849 -6.6584e-09 
7.03816 -2.82849 -1.58595e-09 
7.26761 -2.82849 5.25471e-10 
7.50283 -2.82848 -1.68726e-09 
7.74278 -2.82849 6.73776e-09 
7.99118 -2.82848 7.25953e-09 
8.22992 -2.82848 1.32667e-08 
8.48529 -2.82847 1.04194e-08 
-8.48534 -2.59975 1.05891e-08 
-8.24388 -2.56947 2.8753e-19 
-8.03193 -2.64574 -2.11739e-19 
-7.74172 -2.62827 -2.92063e-19 
-7.48237 -2.57997 3.03339e-19 
-7.26892 -2.59427 2.09783e-19 
-7.0657 -2.56444 -1.91157e-19 
-6.86778 -2.66586 -2.49669e-19 
-6.61564 -2.57406 3.85947e-19 
-6.41147 -2.57808 -1.12443e-19 
-6.19934 -2.60288 1.91237e-19 
-5.97817 -2.59497 2.27309e-19 
-5.76296 -2.59666 2.57066e-19 
-5.5475 -2.60156 2.08278e-19 
-5.33165 -2.59901 1.76897e-19 
-5.11721 -2.59996 2.19897e-19 
-4.90146 -2.59995 6.3945e-19 
-4.68653 -2.59736 5.21037e-19 
-4.47338 -2.60191 9.49772e-19 
-4.25714 -2.60122 1.04734e-18 
-4.04075 -2.60024 1.19214e-18 
-3.82394 -2.60163 1.22963e-18 
-3.60334 -2.60119 3.49166e-18 
-3.3805 -2.59739 4.76569e-18 
-3.15765 -2.59682 8.18488e-18 
-2.92814 -2.58922 8.39668e-18 
-2.69873 -2.57456 9.21041e-18 
-2.46322 -2.59267 1.1773e-17 
-2.21969 -2.57425 7.50337e-18 
-1.97665 -2.57079 1.38514e-17 
-1.73614 -2.58482 2.1313e-17 
-1.49126 -2.58783 3.86573e-17 
-1.29088 -2.57394 1.83348e-16 
-1.07586 -2.64287 3.58871e-16 
-0.897023 -2.66489 1.01572e-15 
-0.777892 -2.62735 1.54686e-15 
-0.65618 -2.69666 -2.68884e-16 
-0.542093 -2.76223 2.26658e-15 
-0.357028 -2.78326 -1.74408e-15 
0.101901 -2.79564 2.63395e-14 
0.337719 -2.81046 -4.35721e-14 
0.666993 -2.72024 -6.73137e-15 
0.76663 -2.76182 -3.82573e-15 
0.837748 -2.55178 -1.59691e-15 
0.95166 -2.66733 -1.40399e-15 
1.1177 -2.61007 -6.64585e-16 
1.31041 -2.59072 -7.45806e-17 
1.52928 -2.58692 -1.62443e-17 
1.76256 -2.56471 7.0564e-18 
2.01454 -2.59063 -3.2789e-18 
2.27 -2.59012 -1.00891e-17 
2.51021 -2.59026 -8.1134e-18 
2.73736 -2.56201 -9.25024e-18 
2.96122 -2.59481 -8.59791e-18 
3.18312 -2.59665 -7.18682e-18 
3.40808 -2.60219 -5.10433e-18 
3.62816 -2.60073 -3.23115e-18 
3.84509 -2.60021 -1.94316e-18 
4.05882 -2.59919 -5.49056e-19 
4.27029 -2.59804 -8.33038e-19 
4.48116 -2.59806 -8.83961e-19 
4.69282 -2.5992 -5.512e-19 
4.90456 -2.59827 -4.39914e-19 
5.11694 -2.5993 -3.08737e-19 
5.32906 -2.59871 -2.3302e-19 
5.54209 -2.59865 -2.06414e-19 
5.75567 -2.59848 -2.52262e-19 
5.97074 -2.59889 -2.66794e-19 
6.18623 -2.59662 -2.98826e-19 
6.40359 -2.59531 -2.36897e-19 
6.62426 -2.59605 -1.7218e-19 
6.8482 -2.59653 -1.51649e-19 
7.07421 -2.59533 -2.08724e-19 
7.30517 -2.59919 -3.63839e-19 
7.54087 -2.60192 2.72489e-19 
7.78281 -2.60826 3.46218e-19 
8.01834 -2.59931 2.27161e-19 
8.26714 -2.61447 -4.57025e-19 
8.48534 -2.58322 -1.27027e-08 
-8.4853 -2.37043 1.02322e-08 
-8.26815 -2.3145 5.21446e-19 
-8.04141 -2.39175 2.59536e-21 
-7.82487 -2.44414 -4.68368e-20 
-7.60651 -2.18609 -1.76788e-20 
-7.56413 -2.38764 -9.77109e-20 
-7.3061 -2.34507 -1.19115e-19 
-7.0502 -2.35763 1.69931e-20 
-6.79649 -2.43668 8.52509e-19 
-6.56009 -2.3235 1.06586e-19 
-6.33956 -2.34843 -1.14976e-19 
-6.12358 -2.37286 1.96207e-20 
-5.89874 -2.36516 1.12006e-20 
-5.67756 -2.37058 -2.29906e-20 
-5.45995 -2.37361 -4.44532e-20 
-5.24069 -2.372 -4.50288e-20 
-5.02209 -2.37428 -4.14095e-20 
-4.80435 -2.37132 -4.23239e-19 
-4.58747 -2.36986 3.71127e-19 
-4.37395 -2.37526 -3.28391e-20 
-4.15781 -2.37469 -8.51902e-20 
-3.94093 -2.37359 -7.49593e-20 
-3.72273 -2.37588 2.46055e-19 
-3.50257 -2.37311 -6.40176e-19 
-3.28016 -2.36661 -1.32411e-18 
-3.05454 -2.36551 -2.23956e-18 
-2.82145 -2.35083 -2.30164e-18 
-2.58 -2.35384 -4.28344e-18 
-2.33987 -2.34572 -3.50921e-18 
-2.08591 -2.32634 -1.8152e-17 
-1.83677 -2.32672 -4.35247e-17 
-1.59211 -2.36656 -1.08446e-16 
-1.36553 -2.33297 -2.2855e-16 
-1.15611 -2.43558 -3.10738e-16 
-0.970731 -2.4732 -6.18783e-17 
-0.839846 -2.46943 -4.76139e-16 
-0.586921 -2.59725 1.66578e-15 
-0.474438 -2.6632 -1.01704e-14 
-0.141763 -2.73579 4.47638e-16 
-0.0192154 -2.76868 -3.71822e-15 
0.303519 -2.75518 -4.63441e-15 
0.532922 -2.73444 4.91884e-16 
0.738671 -2.60673 -7.44554e-16 
0.802803 -2.38702 -1.64749e-15 
0.954845 -2.45629 -6.6465e-18 
1.09616 -2.41163 -1.42299e-16 
1.29368 -2.36105 6.8383e-17 
1.51954 -2.35484 1.05911e-16 
1.75665 -2.3179 3.44372e-17 
2.00132 -2.35312 1.36049e-17 
2.25965 -2.35579 7.15113e-18 
2.50398 -2.35189 4.26411e-18 
2.73543 -2.33256 1.62292e-18 
2.97041 -2.36327 1.35584e-18 
3.20179 -2.37308 7.63783e-19 
3.42673 -2.37602 2.38826e-19 
3.6475 -2.37376 8.6838e-20 
3.86355 -2.37173 -3.13132e-20 
4.07656 -2.36941 -3.98567e-19 
4.28845 -2.36777 5.49474e-19 
4.50013 -2.36807 -3.19082e-19 
4.71211 -2.36911 -2.14877e-20 
4.92524 -2.36865 5.08727e-20 
5.13753 -2.36874 3.93256e-22 
5.35172 -2.36899 3.48627e-20 
5.56595 -2.3681 2.08997e-20 
5.78052 -2.36755 -2.25006e-20 
5.99502 -2.36579 -3.66992e-20 
6.21152 -2.36306 1.44905e-21 
6.43049 -2.36167 5.50616e-20 
6.65114 -2.36186 8.28916e-20 
6.87421 -2.3615 3.94981e-20 
7.10291 -2.36377 7.35507e-19 
7.3359 -2.37081 2.61972e-19 
7.57408 -2.37797 -6.50471e-19 
7.80641 -2.37629 -6.91691e-20 
8.05431 -2.38295 1.81746e-19 
8.27003 -2.36445 -6.28167e-19 
8.48534 -2.33413 -9.50928e-09 
-8.48537 -2.11857 8.04533e-09 
-8.27352 -2.05574 4.77144e-19 
-8.05122 -2.15074 -1.3066e-19 
-7.82557 -2.19471 9.40429e-20 
-7.59324 -1.9658 -3.31484e-19 
-7.35279 -2.14583 -7.90268e-21 
-7.08857 -2.14724 1.81867e-19 
-6.81646 -2.22346 -6.8942e-19 
-6.57113 -2.10974 -3.59298e-19 
-6.32949 -2.11331 3.97867e-19 
-6.11208 -2.13452 -7.5744e-21 
-5.89849 -2.13758 -3.22251e-20 
-5.67714 -2.14186 -1.06539e-19 
-5.4592 -2.14281 -1.42179e-19 
-5.24426 -2.14473 -1.75047e-19 
-5.02638 -2.14779 -1.87163e-19 
-4.81138 -2.14116 -2.69248e-19 
-4.59614 -2.14254 -4.04704e-19 
-4.37845 -2.1446 -4.75971e-19 
-4.16394 -2.1469 -6.40748e-19 
-3.94667 -2.14549 -7.77996e-19 
-3.72766 -2.14773 -9.74422e-19 
-3.50587 -2.14424 -4.32353e-19 
-3.28144 -2.13625 -8.96783e-19 
-3.05293 -2.13399 -1.93981e-18 
-2.81879 -2.12303 -4.65287e-18 
-2.57369 -2.12182 -6.00771e-18 
-2.32097 -2.11066 -8.24348e-18 
-2.06859 -2.08525 3.6756e-18 
-1.80092 -2.10015 6.00098e-19 
-1.5622 -2.13872 -4.92048e-17 
-1.31527 -2.12774 -9.96617e-17 
-1.12091 -2.24597 1.17065e-16 
-1.19467 -1.96977 -1.46734e-16 
-1.00264 -2.17434 1.25296e-16 
-0.883129 -2.26058 -2.65263e-16 
-0.690893 -2.51845 8.38263e-16 
-0.508689 -2.50374 -9.71495e-15 
-0.200358 -2.61846 -1.62425e-14 
0.22746 -2.83735 1.22913e-14 
0.501175 -2.68712 9.52723e-15 
0.45291 -2.64566 -3.93483e-15 
0.699606 -2.45261 -6.5863e-16 
0.694801 -2.26692 1.46217e-17 
0.896887 -2.27081 -5.10754e-18 
1.0306 -2.20148 -8.91631e-17 
1.20314 -2.17751 -9.63378e-17 
1.43616 -2.13594 8.49843e-17 
1.6638 -2.09064 2.84791e-18 
1.91751 -2.10004 1.22829e-17 
2.16297 -2.12923 1.50947e-17 
2.4171 -2.11245 2.39739e-18 
2.65093 -2.10058 7.5071e-18 
2.89397 -2.12734 2.86461e-18 
3.12542 -2.1432 3.32209e-18 
3.35269 -2.1473 1.05456e-18 
3.57533 -2.14669 1.09473e-18 
3.79557 -2.14274 1.50538e-18 
4.01148 -2.13988 -7.79326e-20 
4.22615 -2.13819 1.09451e-18 
4.44094 -2.13749 3.42601e-20 
4.65564 -2.13859 1.23919e-18 
4.87093 -2.13949 -6.88914e-19 
5.08755 -2.13767 9.71699e-19 
5.30383 -2.13991 -6.46814e-19 
5.52226 -2.13804 4.38546e-19 
5.74067 -2.13586 1.72674e-19 
5.95836 -2.13268 8.07e-20 
6.17658 -2.13024 1.04061e-19 
6.39731 -2.12842 1.13542e-19 
6.62049 -2.12643 1.13504e-19 
6.84428 -2.12613 5.70315e-19 
7.0717 -2.13133 -5.00463e-19 
7.30467 -2.13981 -2.76069e-19 
7.54062 -2.14989 -2.14262e-21 
7.77802 -2.14347 1.71792e-19 
8.01402 -2.1628 -2.38851e-19 
8.25206 -2.11403 -4.0854e-19 
8.48532 -2.10171 -8.96583e-09 
-8.4853 -1.86313 2.39009e-09 
-8.26948 -1.79327 -9.61363e-21 
-8.06114 -1.90975 1.74619e-19 
[...]
POINT_DATA 1978 
VECTORS vectors float
-0.000193099 0.00103249 1.00002 
0.000263787 0.00064154 1.00004 
0.000445166 -0.000215204 1.00003 
0.000713077 -0.00129426 1.00003 
0.000865264 -0.00227887 1.00003 
0.000963515 -0.00347551 1.00002 
0.000978678 -0.0047569 1.00003 
0.000967658 -0.00691339 1.00001 
0.00109004 -0.00838501 0.999997 
0.00107417 -0.00984176 0.999983 
0.0010446 -0.0115512 0.999965 
0.00100547 -0.0131545 0.999945 
0.000956906 -0.0147869 0.999922 
0.000876851 -0.0164528 0.999895 
0.000723279 -0.0180744 0.999868 
0.000471738 -0.0195244 0.99984 
0.000137516 -0.0207987 0.999815 
-0.000302993 -0.0217968 0.999793 
-0.00083204 -0.0225365 0.999777 
-0.00141122 -0.0229295 0.999767 
-0.0020515 -0.0229416 0.999766 
-0.0027852 -0.022411 0.999776 
-0.00358628 -0.0210881 0.999803 
-0.00444588 -0.0188606 0.999844 
-0.00581648 -0.0150323 0.999903 
-0.00715804 -0.00860547 0.99997 
-0.00827975 -0.000501132 0.999987 
-0.0101947 0.0107153 0.999923 
-0.0118989 0.0272431 0.999589 
-0.0145791 0.0476181 0.998787 
-0.0179198 0.0750938 0.997035 
-0.0249185 0.113879 0.993197 
-0.0325183 0.166817 0.98546 
-0.0385155 0.231036 0.972174 
-0.0431639 0.30156 0.952472 
-0.0505866 0.399609 0.915275 
-0.0580527 0.514821 0.85531 
-0.0623362 0.589924 0.805062 
-0.0457948 0.794974 0.605009 
0.00743781 0.975104 0.223625 
0.000673654 0.843672 -0.538099 
0.0430356 0.712462 -0.700373 
0.0511463 0.49533 -0.867216 
0.0635461 0.441469 -0.895009 
0.0549543 0.320983 -0.945486 
0.04674 0.232492 -0.971477 
0.0350141 0.162816 -0.986046 
0.0240234 0.108517 -0.993819 
0.0175947 0.0732376 -0.997181 
0.0142384 0.0447703 -0.998921 
0.0119829 0.024591 -0.999655 
0.00980822 0.00911807 -0.999942 
0.00820392 -0.00147015 -0.999986 
0.00682722 -0.00938963 -0.999965 
0.00544503 -0.0156063 -0.999896 
0.00429921 -0.0192044 -0.999839 
0.00349759 -0.021366 -0.999797 
0.00270672 -0.0225739 -0.999773 
0.00197829 -0.0230085 -0.999765 
0.00133323 -0.0229219 -0.999767 
0.000757451 -0.0224644 -0.999778 
0.000250791 -0.0216918 -0.999796 
-0.00017488 -0.0206155 -0.999819 
-0.000497223 -0.0193051 -0.999845 
-0.000712309 -0.0178254 -0.999872 
-0.0008499 -0.0162521 -0.999899 
-0.000938472 -0.0146344 -0.999924 
-0.0010007 -0.0129976 -0.999947 
-0.00105273 -0.0113407 -0.999967 
-0.00108538 -0.00968703 -0.999985 
-0.00109493 -0.00804874 -1 
-0.00108111 -0.00645918 -1.00001 
-0.00103947 -0.00494835 -1.00002 
-0.000981382 -0.00355095 -1.00003 
-0.000903246 -0.00226222 -1.00003 
-0.000777545 -0.00111192 -1.00003 
-0.000546814 -0.00011874 -1.00003 
-0.000300345 0.000551218 -1.00003 
0.000193689 0.00106926 -1.00002 
-0.000471528 0.000570628 1.00002 
-0.000125553 0.000168185 1.00008 
0.000273926 -0.000233715 1.00007 
0.000327117 -0.00126031 1.00007 
0.000264801 -0.00243873 1.00006 
0.000281543 -0.00355944 1.00006 
0.00025493 -0.00475819 1.00005 
0.000737433 -0.00601874 1.00004 
0.000285323 -0.0076233 1.00004 
0.000247078 -0.00906372 1.00002 
0.000277894 -0.0106396 1.00001 
0.000157393 -0.0122491 0.999988 
5.02354e-05 -0.0138352 0.999967 
-7.17562e-05 -0.015416 0.999943 
-0.000298429 -0.0169165 0.999919 
-0.000600195 -0.0182773 0.999894 
-0.000989521 -0.0194424 0.999872 
-0.0015349 -0.0203572 0.999853 
-0.00214682 -0.021078 0.999837 
-0.00288543 -0.021452 0.999827 
-0.00361365 -0.0214121 0.999826 
-0.00422209 -0.0208417 0.999836 
-0.00464417 -0.0195257 0.999862 
-0.00475154 -0.0171454 0.999906 
-0.0045754 -0.01309 0.999969 
-0.00426995 -0.00614956 1.00004 
-0.00404239 0.00373817 1.00006 
-0.00388858 0.0177318 0.999908 
-0.00185501 0.0367158 0.999401 
0.000797868 0.0618497 0.998164 
0.00380796 0.0984303 0.995212 
0.0063549 0.150805 0.988607 
0.0149025 0.212068 0.977199 
0.00714364 0.308666 0.951169 
0.01091 0.409388 0.912302 
0.0365346 0.493725 0.868835 
0.00511748 0.598064 0.801399 
-0.0163078 0.700916 0.712979 
-0.00698191 0.860242 0.509595 
-0.000620384 0.990667 -0.130706 
-0.00587694 0.910679 -0.411783 
-0.0252315 0.622121 -0.782459 
0.0122935 0.543133 -0.839507 
-0.0766382 0.444421 -0.892557 
-0.00980223 0.391136 -0.920297 
-0.0112486 0.295907 -0.955183 
-0.0091986 0.21052 -0.977586 
-0.00533843 0.142304 -0.989885 
-0.00374681 0.0920023 -0.995828 
0.000981358 0.0564173 -0.998485 
0.002524 0.0320381 -0.999559 
0.00354504 0.0147341 -0.999957 
0.00377634 0.00161663 -1.00007 
0.00446357 -0.00788349 -1.00001 
0.00458298 -0.0140389 -0.999956 
0.00462937 -0.0177532 -0.999895 
0.00453428 -0.0198607 -0.999855 
0.0041601 -0.0210096 -0.999833 
0.00356522 -0.0214682 -0.999825 
0.00285637 -0.0214296 -0.999828 
0.00215339 -0.0210241 -0.999838 
0.00151499 -0.0203243 -0.999854 
0.00100371 -0.0193676 -0.999873 
0.000600339 -0.0182026 -0.999896 
0.000314461 -0.0168687 -0.999919 
0.000110085 -0.0154106 -0.999943 
-3.68589e-05 -0.0138791 -0.999966 
-0.000154021 -0.0123116 -0.999987 
-0.00023162 -0.0107347 -1.00001 
-0.000289706 -0.00916156 -1.00002 
-0.000332687 -0.00760383 -1.00004 
-0.000340211 -0.0060959 -1.00005 
-0.000319247 -0.00467039 -1.00006 
-0.000306555 -0.00334091 -1.00006 
-0.000276794 -0.0021395 -1.00007 
-0.000190591 -0.00108066 -1.00007 
-3.92153e-05 -0.000277922 -1.00007 
0.000112081 0.00030666 -1.00007 
0.000475663 0.000571115 -1.00003 
-0.000403966 0.000141477 1.00004 
-0.000202989 -6.10112e-05 1.00007 
-9.28155e-05 -0.000420975 1.00007 
-1.58327e-06 -0.0010314 1.00007 
-1.95054e-05 -0.00188575 1.00007 
5.93931e-05 -0.00205998 1.00007 
8.66393e-05 -0.00329574 1.00007 
6.58785e-05 -0.00472873 1.00004 
1.10247e-05 -0.00632122 1.00005 
-0.000149939 -0.0077386 1.00005 
-0.000191757 -0.009275 1.00002 
-0.000274578 -0.0108163 1.00001 
-0.000462379 -0.0123787 0.999987 
-0.000640043 -0.0139306 0.999966 
-0.000879906 -0.0153953 0.999944 
-0.00121917 -0.0167278 0.999922 
-0.00165086 -0.0178856 0.999891 
-0.00220957 -0.0187194 0.999895 
-0.00291838 -0.01943 0.999869 
-0.00371983 -0.0199107 0.999857 
-0.0046171 -0.0200135 0.999851 
-0.00543053 -0.019642 0.999855 
-0.00596232 -0.018731 0.99987 
-0.00608869 -0.0171256 0.999899 
-0.00571643 -0.0144475 0.999945 
-0.00479148 -0.00990394 1.00001 
-0.00331428 -0.00258389 1.00006 
-0.00159426 0.00875209 1.00002 
0.000817938 0.0238329 0.999789 
0.00608034 0.0446503 0.999058 
0.0144676 0.0737122 0.997247 
0.0242688 0.115584 0.993066 
0.0423938 0.165972 0.985279 
0.0454859 0.252473 0.96656 
0.0628015 0.346362 0.936018 
0.0831139 0.418711 0.904319 
0.0704603 0.62617 0.776464 
0.0486812 0.737601 0.673353 
0.0297347 0.982375 0.18397 
0.0147478 0.998782 0.044076 
-0.0281538 0.928643 -0.369589 
-0.0473835 0.747848 -0.662114 
-0.0774099 0.517457 -0.852238 
-0.143033 0.407234 -0.902062 
-0.0776056 0.356142 -0.93121 
-0.0612182 0.27799 -0.958663 
-0.0474885 0.19318 -0.980066 
-0.0290922 0.129253 -0.991234 
-0.0185864 0.0825999 -0.996479 
-0.0081416 0.0531937 -0.998625 
-0.00234656 0.0299758 -0.999622 
0.000960537 0.0132033 -0.999984 
0.00277276 0.000844321 -1.00006 
0.0041964 -0.00792626 -1.00004 
0.00512728 -0.0136367 -0.999959 
0.00576666 -0.0167896 -0.999906 
0.00596943 -0.0185282 -0.999873 
0.00566696 -0.019489 -0.999856 
0.00497384 -0.0199443 -0.99985 
0.00412588 -0.0199653 -0.999854 
0.0032726 -0.0196455 -0.999863 
0.00252655 -0.0190442 -0.999877 
0.00191793 -0.0182173 -0.999894 
0.00144588 -0.0172007 -0.999913 
0.00107634 -0.0160038 -0.999934 
0.000792796 -0.0146524 -0.999955 
0.000572933 -0.0132044 -0.999976 
0.000401319 -0.0117124 -0.999995 
0.000256309 -0.0101997 -1.00001 
0.000132469 -0.00868633 -1.00003 
3.33348e-05 -0.00720325 -1.00004 
-4.20159e-05 -0.00577471 -1.00005 
-9.22864e-05 -0.00441356 -1.00006 
-0.000111247 -0.00315442 -1.00006 
-0.000107538 -0.00202481 -1.00007 
-6.209e-05 -0.00109994 -1.00007 
7.48898e-05 -0.000349731 -1.00007 
0.000204512 2.14486e-05 -1.00006 
0.000385978 0.0001177 -1.00003 
-0.000210404 -2.23134e-05 1.00003 
-0.000147246 -0.000121443 1.00007 
-7.47356e-05 -0.000495837 1.00007 
-1.75466e-05 -0.00109654 1.00006 
-0.000264526 -0.00187192 1.00007 
-0.000137924 -0.00300438 1.00007 
-0.000199615 -0.00435911 1.00006 
-0.000205698 -0.00602787 1.00005 
-0.000544017 -0.00744796 1.00004 
-0.000717346 -0.00902657 1.00002 
-0.000863826 -0.0105023 1.00001 
-0.00106581 -0.0119252 0.999992 
-0.00132091 -0.0133796 0.999973 
-0.00163428 -0.0147255 0.999953 
-0.00201741 -0.0159075 0.999934 
-0.00251228 -0.0168787 0.999927 
-0.00317443 -0.0176504 0.999892 
-0.00393063 -0.0182043 0.999889 
-0.00484591 -0.0185695 0.999878 
-0.00581762 -0.0186229 0.999872 
-0.00669474 -0.0182472 0.999874 
-0.00715256 -0.0174867 0.999885 
-0.00701812 -0.0162137 0.999908 
-0.00618114 -0.0140597 0.999948 
-0.00463306 -0.0102894 1 
-0.00234047 -0.00428108 1.00006 
0.00105716 0.00528433 1.00007 
0.0065164 0.0190947 0.99987 
0.0149369 0.036334 0.999301 
0.0279691 0.0628479 0.997699 
0.0430449 0.100439 0.994068 
0.0699155 0.149902 0.986264 
0.0841086 0.228254 0.969997 
0.102197 0.145291 0.984136 
0.119691 0.246721 0.961696 
0.131249 0.326443 0.936064 
0.0969871 0.529864 0.842513 
0.131907 0.664823 0.73518 
0.0446092 0.976116 0.212546 
0.00101994 0.963812 -0.266297 
-0.0767668 0.749349 -0.657613 
-0.109848 0.771624 -0.626434 
-0.155964 0.487463 -0.859077 
-0.202137 0.394682 -0.896292 
-0.133909 0.315758 -0.939353 
-0.112363 0.240745 -0.964089 
-0.0832 0.18543 -0.979167 
-0.0578423 0.124676 -0.990564 
-0.0391305 0.0806014 -0.996054 
-0.0215003 0.0507344 -0.99855 
-0.0105137 0.0307392 -0.999531 
-0.0045551 0.0134161 -0.999971 
-0.000348703 0.00164925 -1.00007 
0.00300886 -0.00665118 -1.00004 
0.004981 -0.012156 -0.99998 
0.00633988 -0.0153261 -0.999928 
0.00702921 -0.0169882 -0.999895 
0.00703891 -0.0178975 -0.999878 
0.00647813 -0.0184052 -0.999872 
0.0055797 -0.0185996 -0.999874 
0.00462193 -0.018461 -0.999881 
0.00374223 -0.0180402 -0.999893 
0.00301309 -0.0173972 -0.999907 
0.00242776 -0.0165418 -0.999923 
0.00195065 -0.0155284 -0.99994 
0.00157358 -0.0143061 -0.99996 
0.00127397 -0.0129582 -0.999979 
0.00103707 -0.0115319 -0.999997 
0.00083458 -0.0100739 -1.00001 
0.000659337 -0.00861453 -1.00003 
0.000511701 -0.00717014 -1.00004 
0.000381166 -0.0057716 -1.00005 
0.000259033 -0.00444906 -1.00006 
0.000160915 -0.00322342 -1.00006 
9.01432e-05 -0.0021404 -1.00007 
5.863e-05 -0.00122738 -1.00007 
6.64929e-05 -0.00053857 -1.00007 
0.000149415 -0.000126696 -1.00008 
0.00022823 -4.32183e-05 -1.00003 
-3.92514e-05 5.02295e-05 1.00003 
-6.35732e-05 -7.3475e-05 1.00007 
-0.000152639 -0.000431178 1.00007 
-0.000197183 -0.0010439 1.00007 
-0.00037583 -0.00293607 1.00005 
-0.000489255 -0.00416827 1.00007 
-0.000455955 -0.00383471 1.00006 
-0.000515978 -0.00570734 1.00005 
-0.000768352 -0.00669971 1.00004 
-0.000943297 -0.0081829 1.00003 
-0.00116913 -0.00963996 1.00002 
-0.00140743 -0.0109984 1 
-0.00168258 -0.0123785 0.999986 
-0.00203391 -0.0136616 0.999968 
-0.00245488 -0.0147799 0.999951 
-0.00296309 -0.0157195 0.999935 
-0.00361769 -0.0163952 0.999922 
-0.00439775 -0.0169009 0.99991 
-0.00529961 -0.0172543 0.9999 
-0.00634106 -0.0173346 0.999892 
-0.00735448 -0.0171085 0.99989 
-0.0080983 -0.0165697 0.999894 
-0.00824958 -0.0157388 0.999907 
-0.00764182 -0.0144425 0.999932 
-0.00615953 -0.0121747 0.999974 
-0.00370881 -0.00835979 1.00003 
0.000174561 -0.00225652 1.00007 
0.00578428 0.00651749 1.00004 
0.0141848 0.0174449 0.999822 
0.0275698 0.0360848 0.99904 
0.0473593 0.0620653 0.997016 
0.0668273 0.0922614 0.993546 
0.0964189 0.0903291 0.991285 
0.134032 0.12028 0.983685 
0.15081 0.209154 0.966226 
0.156712 0.410217 0.898426 
0.151414 0.501645 0.851677 
0.0566157 0.875558 0.479744 
0.0265141 0.861821 0.506337 
0.0396391 0.990018 0.132662 
-0.00354756 0.980205 -0.197977 
-0.143354 0.767776 -0.624344 
-0.22917 0.507569 -0.830546 
-0.198495 0.300462 -0.932926 
-0.168852 0.23644 -0.956886 
-0.133695 0.174152 -0.97564 
-0.0954083 0.134768 -0.986323 
-0.0666644 0.0881001 -0.99394 
-0.0431631 0.0535593 -0.9977 
-0.0255057 0.0332238 -0.999194 
-0.0135294 0.0182091 -0.999816 
-0.00577036 0.00539114 -1.00005 
5.17799e-05 -0.00321067 -1.00005 
0.00376596 -0.0089962 -1.00002 
0.00607944 -0.0128659 -0.999966 
0.0075135 -0.0150019 -0.999925 
0.00815237 -0.0161203 -0.999901 
0.00804134 -0.0167236 -0.999891 
0.00731044 -0.0171201 -0.99989 
0.00630861 -0.0172983 -0.999893 
0.00529805 -0.0172054 -0.9999 
0.00439371 -0.0168699 -0.99991 
0.00362327 -0.0163296 -0.999923 
0.00299318 -0.0155622 -0.999948 
0.00246856 -0.0146774 -0.999953 
0.00204736 -0.0135665 -0.999969 
0.00170357 -0.0123231 -0.999976 
0.001412 -0.0109562 -1 
0.00116259 -0.00956213 -1.00002 
0.000948879 -0.00815658 -1.00003 
0.000769213 -0.00676452 -1.00004 
0.000611816 -0.00540732 -1.00006 
0.000477431 -0.00414082 -1.00006 
0.000371216 -0.00298195 -1.00006 
0.000282022 -0.0019634 -1.00005 
0.00021055 -0.00111002 -1.00008 
0.000152678 -0.00048691 -1.00006 
9.21407e-05 -9.0179e-05 -1.00007 
2.96503e-05 4.05642e-05 -1.00003 
7.87047e-05 9.46472e-05 1.00003 
3.65097e-05 -4.84552e-05 1.00007 
-7.11994e-05 -0.000445351 1.00007 
-0.000154222 -0.00100517 1.00008 
-0.000252721 -0.00186407 1.00005 
-0.000354132 -0.00289681 1.00006 
-0.000627081 -0.00488118 1.00005 
-0.000611335 -0.00508288 1.00005 
-0.000789244 -0.006239 1.00004 
-0.00101759 -0.00766777 1.00004 
-0.00129053 -0.00908288 1.00002 
-0.00159339 -0.010423 1.00002 
-0.00190483 -0.0117558 0.999983 
-0.00227403 -0.0129391 0.999977 
-0.0027252 -0.0139826 0.999962 
-0.00325923 -0.0148344 0.999948 
-0.00391206 -0.0154166 0.999936 
-0.00466748 -0.0158474 0.999926 
-0.00554609 -0.0161149 0.999917 
-0.00653904 -0.0161814 0.99991 
-0.00758347 -0.0159869 0.999906 
-0.00845993 -0.0156107 0.999906 
-0.00891645 -0.014977 0.999913 
-0.0087092 -0.0140792 0.999929 
-0.00764918 -0.0126914 0.999957 
-0.00554231 -0.0103453 1 
-0.00194476 -0.00655634 1.00005 
0.0037247 -0.000989596 1.00007 
0.0124406 0.00615603 0.999978 
0.0266937 0.0194634 0.999539 
0.0458488 0.0372469 0.998309 
0.0715161 0.0550596 0.995988 
0.117379 0.0566989 0.991526 
0.169867 0.0837846 0.981934 
0.199256 0.284418 0.937773 
0.235554 0.364752 0.90085 
0.181404 0.610439 0.771063 
0.210356 0.49869 0.840756 
0.084366 0.902303 0.42227 
-0.00928662 0.962727 -0.270145 
-0.0060577 0.99798 -0.0596123 
-0.175425 0.741826 -0.646794 
-0.275985 0.42107 -0.863765 
-0.238641 0.204767 -0.949253 
-0.188298 0.16607 -0.967999 
-0.136395 0.112949 -0.984239 
-0.0958085 0.0838529 -0.991915 
-0.0636204 0.0499743 -0.996783 
-0.0435523 0.0267867 -0.998759 
-0.0276863 0.0192874 -0.999502 
-0.0140875 0.00884407 -0.999934 
-0.00457638 -0.000699094 -1.00006 
0.00178711 -0.0069427 -1.00006 
0.00544024 -0.0107681 -0.999996 
0.00746695 -0.0131633 -0.999953 
0.00853858 -0.0145263 -0.999923 
0.00883834 -0.0152364 -0.999909 
0.00846393 -0.0156709 -0.999905 
0.00763634 -0.0159988 -0.999905 
0.00663487 -0.0161726 -0.99991 
0.00566785 -0.0161538 -0.999905 
0.00477535 -0.0158626 -0.999936 
0.00402202 -0.015477 -0.999924 
0.00336705 -0.0148248 -0.999948 
0.00281174 -0.0140397 -0.99995 
0.00234437 -0.0129979 -0.999976 
0.00195306 -0.011781 -1 
0.00162078 -0.0105122 -1.00001 
0.00132713 -0.00918005 -1.00002 
0.00107023 -0.00782488 -1.00003 
0.000845376 -0.00647237 -1.00004 
0.000646508 -0.00516726 -1.00005 
0.000476267 -0.00394223 -1.00006 
0.000338113 -0.00282911 -1.00006 
0.000226229 -0.00185618 -1.00007 
0.000133722 -0.0010378 -1.00007 
6.56129e-05 -0.000436234 -1.00007 
-1.75715e-05 -4.77319e-05 -1.00007 
-8.64739e-05 9.50484e-05 -1.00003 
0.000155803 0.000171275 1.00003 
7.22665e-05 1.40334e-05 1.00007 
-2.18353e-05 -0.000446851 1.00007 
-0.000112873 -0.00106149 1.00007 
-0.000202048 -0.00178636 1.00007 
-0.000319009 -0.00256047 1.00006 
-0.000470397 -0.0035851 1.00006 
-0.000720975 -0.00480052 1.00005 
-0.000903606 -0.00620626 1.00005 
-0.00116313 -0.0075791 1.00004 
-0.0014566 -0.0088999 1.00002 
-0.00177132 -0.0101642 1.00001 
-0.00209676 -0.0113852 1.00001 
-0.00248382 -0.012532 0.999981 
-0.0029434 -0.0134936 0.999967 
-0.00348251 -0.0142461 0.999945 
-0.00410327 -0.0147093 0.999956 
-0.00483174 -0.0150884 0.999926 
-0.00560854 -0.0152456 0.99994 
-0.0064817 -0.0153236 0.999914 
-0.00731526 -0.0151436 0.999931 
-0.00808651 -0.0148946 0.99992 
-0.00850237 -0.014483 0.999924 
-0.00835403 -0.0139579 0.999934 
-0.00741863 -0.0131788 0.999953 
-0.00536231 -0.0118526 0.999985 
-0.00184714 -0.00975412 1.00001 
0.00396009 -0.00707111 1.00004 
0.0142915 -0.00253699 0.999967 
0.0290399 0.00563151 0.999632 
0.0492837 0.0169014 0.998718 
0.0780484 0.0276094 0.996617 
0.108726 0.0116025 0.99406 
0.151031 0.0205552 0.988365 
0.187486 0.173056 0.966929 
0.259229 0.253036 0.932098 
0.292251 0.20361 0.934398 
0.276922 0.430774 0.858834 
0.224947 0.670601 0.706624 
0.146843 0.786645 0.599656 
-0.0421924 0.947254 -0.317148 
-0.141617 0.579543 -0.80246 
-0.26227 0.300094 -0.917187 
-0.278581 0.128397 -0.951813 
-0.201708 0.105571 -0.973777 
-0.152858 0.0637879 -0.986236 
-0.10406 0.0460043 -0.993563 
-0.0747341 0.0198845 -0.997069 
-0.0476201 0.00510461 -0.998921 
-0.0281006 0.00225357 -0.999671 
-0.0148692 -0.00078276 -0.99996 
-0.00501341 -0.00668414 -1.00003 
0.00150196 -0.0102552 -1.00003 
0.00525467 -0.0123481 -0.999968 
0.00726376 -0.0135642 -0.99995 
0.00825463 -0.0143167 -0.99993 
0.00843255 -0.0147649 -0.99992 
0.00806229 -0.0149928 -0.999919 
0.00736601 -0.0151792 -0.99992 
0.00652974 -0.0153142 -0.999923 
0.00566625 -0.0152793 -0.999939 
0.0048911 -0.0151153 -0.999936 
0.00417358 -0.0147307 -0.999955 
0.00355356 -0.01422 -0.999945 
0.0029933 -0.0134489 -0.999979 
0.00252568 -0.0125162 -0.999982 
0.00212498 -0.0113866 -0.999997 
0.00177603 -0.0101559 -1.00001 
0.00146755 -0.008869 -1.00002 
0.00119044 -0.00754499 -1.00004 
0.000944215 -0.00623404 -1.00005 
0.000716662 -0.00496134 -1.00004 
0.000514994 -0.00374394 -1.00006 
0.000344902 -0.00266489 -1.00006 
0.000201988 -0.00172828 -1.00008 
8.84944e-05 -0.000963781 -1.00006 
2.47258e-06 -0.000393399 -1.00007 
-8.31341e-05 -7.44757e-06 -1.00008 
-0.000171289 0.000151197 -1.00002 
0.00019419 0.000271559 1.00003 
0.000103274 0.000159328 1.00007 
-1.38303e-05 -0.000290413 1.00007 
-0.000124553 -0.000885938 1.00007 
-0.000245781 -0.00165409 1.00007 
-0.000394306 -0.00254619 1.00006 
-0.000572617 -0.00363374 1.00006 
-0.0007917 -0.00482854 1.00005 
-0.000987933 -0.00605503 1.00005 
-0.00123719 -0.00734405 1.00004 
-0.00151403 -0.00862631 1.00002 
-0.00182396 -0.00992292 1 
-0.00215415 -0.0111183 0.999998 
-0.00252276 -0.0121834 0.999985 
-0.0029503 -0.0130757 0.999972 
-0.00345197 -0.0137406 0.999972 
-0.0040407 -0.0142369 0.999942 
-0.00467492 -0.0144952 0.999956 
-0.00536011 -0.0146868 0.999929 
-0.00603285 -0.0147044 0.999945 
-0.0066664 -0.0147056 0.999921 
-0.00717355 -0.0146263 0.99993 
-0.00738339 -0.0145306 0.999931 
-0.00712369 -0.0144503 0.999935 
-0.00615921 -0.0143637 0.999944 
-0.00424067 -0.0141051 0.99996 
-0.000733302 -0.0137518 0.999988 
0.00523173 -0.0132528 0.99997 
0.0150124 -0.0128568 0.999875 
0.0277151 -0.0113425 0.999609 
0.0442755 -0.00595867 0.999068 
0.0682561 -0.0031343 0.997735 
0.100284 -0.0206112 0.994794 
0.146376 -0.0309633 0.98881 
0.22009 0.128354 0.967034 
0.203911 0.0385506 0.978274 
0.261086 0.0687065 0.962881 
0.343519 0.386879 0.856035 
0.184504 0.802304 0.568473 
-0.0335591 0.984562 -0.175735 
-0.244775 0.629247 -0.738273 
-0.329899 0.21222 -0.920128 
-0.160869 0.291755 -0.942888 
-0.234688 0.0518862 -0.970719 
-0.182892 0.0252345 -0.982856 
-0.126851 0.0113423 -0.991909 
-0.0936368 -0.0100278 -0.995617 
-0.064459 -0.0125737 -0.997906 
-0.0440292 -0.0198955 -0.998899 
-0.0299167 -0.0128144 -0.99954 
-0.0159081 -0.0114024 -0.99989 
-0.00624372 -0.0132304 -0.999965 
0.000199322 -0.0141142 -0.99996 
0.00394475 -0.0144839 -0.999969 
0.00601198 -0.0146589 -0.999942 
0.00707532 -0.0147484 -0.999931 
0.00732255 -0.0147704 -0.999928 
0.00712008 -0.0147621 -0.999928 
0.00665228 -0.014772 -0.99993 
0.00604404 -0.0147938 -0.999933 
0.00538183 -0.01474 -0.999938 
0.00473413 -0.0146099 -0.999933 
0.00409507 -0.0142668 -0.999951 
0.00350724 -0.0137583 -0.999961 
0.00299491 -0.0130571 -0.999973 
0.00255512 -0.0121784 -0.999975 
0.00216687 -0.0110794 -1.00001 
0.00183564 -0.00991414 -1.00001 