# vtk DataFile Version 3.0 
Exported using Morpho https://github.com/Morpho-lang/morpho 
ASCII 
DATASET UNSTRUCTURED_GRID 

POINTS 1978 float 
-8.48528 -2.82843 -2.80515e-13 
-8.27215 -2.82843 -4.66668e-13 
-7.97581 -2.82843 -2.627e-13 
-7.7237 -2.82843 -1.35906e-13 
-7.49704 -2.82843 1.35292e-13 
-7.28327 -2.82843 -1.28265e-13 
-7.06345 -2.82843 1.21626e-13 
-6.74786 -2.82843 1.67132e-13 
-6.54652 -2.82843 1.07138e-13 
-6.34377 -2.82843 6.88863e-14 
-6.1221 -2.82843 6.88903e-14 
-5.91025 -2.82843 8.40687e-14 
-5.69929 -2.82843 3.86854e-14 
-5.48575 -2.82843 -2.41944e-14 
-5.27563 -2.82843 -5.742e-14 
-5.06486 -2.82843 -1.23633e-13 
-4.85415 -2.82843 -1.9481e-13 
-4.64633 -2.82843 -1.40142e-13 
-4.4355 -2.82843 3.09605e-13 
-4.22595 -2.82843 2.37731e-13 
-4.01723 -2.82843 7.01902e-13 
-3.8059 -2.82843 1.21099e-12 
-3.59537 -2.82843 2.19344e-12 
-3.3848 -2.82843 2.92702e-12 
-3.17408 -2.82843 4.03435e-12 
-2.96494 -2.82843 4.33691e-12 
-2.7623 -2.82843 3.05904e-12 
-2.5605 -2.82843 5.43238e-12 
-2.33301 -2.82843 4.3915e-12 
-2.10898 -2.82843 2.52282e-11 
-1.88356 -2.82843 7.93238e-11 
-1.65065 -2.82843 2.72578e-10 
-1.4365 -2.82843 8.08919e-10 
-1.25738 -2.82843 2.69169e-09 
-1.08196 -2.82843 4.42235e-09 
-0.919522 -2.82843 1.06216e-08 
-0.775045 -2.82843 2.55405e-08 
-0.642873 -2.82843 2.65476e-08 
-0.469127 -2.82843 8.91072e-08 
-0.201469 -2.82843 -5.1191e-08 
0.454871 -2.82843 -2.95395e-07 
0.632735 -2.82843 -1.35092e-07 
0.785527 -2.82843 -1.3177e-08 
0.932653 -2.82843 -1.86805e-08 
1.07375 -2.82843 -5.57795e-09 
1.2468 -2.82843 -2.40719e-09 
1.44484 -2.82843 -7.89892e-10 
1.66952 -2.82843 -2.27794e-10 
1.88908 -2.82843 -6.08419e-11 
2.13255 -2.82843 -1.76771e-11 
2.36483 -2.82843 -9.15239e-12 
2.58645 -2.82843 -3.91373e-12 
2.77711 -2.82843 -3.2282e-12 
2.97642 -2.82843 -4.2058e-12 
3.1847 -2.82843 -4.2733e-12 
3.39754 -2.82843 -3.2995e-12 
3.614 -2.82843 -2.18835e-12 
3.82676 -2.82843 -1.22073e-12 
4.03729 -2.82843 -5.86274e-13 
4.2459 -2.82843 -5.42595e-14 
4.45389 -2.82843 -1.13569e-13 
4.66273 -2.82843 8.8709e-14 
4.87329 -2.82843 9.03642e-14 
5.08355 -2.82843 6.22078e-14 
5.29519 -2.82843 1.9994e-14 
5.50701 -2.82843 -2.31459e-15 
5.71974 -2.82843 -4.74568e-14 
5.93367 -2.82843 -6.42584e-14 
6.15018 -2.82843 -6.26782e-14 
6.36735 -2.82843 -5.21236e-14 
6.58666 -2.82843 -1.09762e-13 
6.81038 -2.82843 -1.97122e-13 
7.03819 -2.82843 -5.25772e-14 
7.26759 -2.82843 9.143e-15 
7.5029 -2.82843 -5.03339e-14 
7.74293 -2.82843 1.87134e-13 
7.99109 -2.82843 2.0243e-13 
8.23003 -2.82843 3.70106e-13 
8.48528 -2.82843 2.89976e-13 
-8.48528 -2.59975 2.93382e-13 
-8.24454 -2.5703 -2.12219e-17 
-8.02666 -2.64432 -7.20653e-16 
-7.73456 -2.61951 -1.1764e-15 
-7.49164 -2.59493 -1.90995e-15 
-7.26953 -2.59274 -3.21767e-15 
-7.06406 -2.56361 -3.95251e-15 
-6.8673 -2.66588 -1.71248e-14 
-6.61568 -2.5739 -1.2615e-14 
-6.41155 -2.57832 -1.34991e-14 
-6.19878 -2.60132 -1.89752e-14 
-5.97855 -2.59606 -2.107e-14 
-5.76278 -2.5966 -2.21532e-14 
-5.5473 -2.60127 -2.15678e-14 
-5.3313 -2.59871 -1.63743e-14 
-5.11673 -2.60008 -8.61878e-15 
-4.90081 -2.60009 1.01088e-15 
-4.6862 -2.59698 6.50417e-15 
-4.47302 -2.60154 7.44336e-15 
-4.25686 -2.60109 -2.24251e-15 
-4.04032 -2.60009 -2.63638e-14 
-3.82324 -2.60164 -8.10155e-14 
-3.60211 -2.59913 -1.84084e-13 
-3.37956 -2.59641 -2.93634e-13 
-3.15515 -2.59578 -4.22341e-13 
-2.92757 -2.58933 -3.13149e-13 
-2.70194 -2.5796 4.51406e-13 
-2.46311 -2.59172 3.27187e-12 
-2.21821 -2.57489 9.57525e-12 
-1.97547 -2.5699 2.84077e-11 
-1.73556 -2.58707 9.58648e-11 
-1.48751 -2.58526 2.63268e-10 
-1.28684 -2.59657 5.32612e-10 
-1.08195 -2.6346 1.84986e-09 
-0.909353 -2.65122 2.9603e-09 
-0.780914 -2.63805 4.6431e-09 
-0.674389 -2.71029 6.8734e-09 
-0.544836 -2.73725 2.30068e-08 
-0.395366 -2.77271 1.93968e-08 
0.103966 -2.81249 2.17602e-07 
0.382414 -2.79332 -1.28108e-08 
0.658079 -2.69171 -2.00336e-08 
0.790278 -2.7133 -1.53782e-08 
0.854335 -2.55895 3.22493e-09 
0.951945 -2.67311 -3.75661e-09 
1.10839 -2.62547 -1.71308e-09 
1.29926 -2.59302 -8.38206e-10 
1.526 -2.59084 -3.18025e-10 
1.76286 -2.56638 -8.90234e-11 
2.01349 -2.59067 -3.20578e-11 
2.26848 -2.58974 -9.69847e-12 
2.51085 -2.58954 -2.86729e-12 
2.74087 -2.56723 -1.88529e-13 
2.95685 -2.5935 2.61555e-13 
3.1798 -2.59564 4.21559e-13 
3.40595 -2.60126 2.87504e-13 
3.62796 -2.60068 1.56723e-13 
3.84506 -2.60014 6.80416e-14 
4.05865 -2.59898 2.00366e-14 
4.27012 -2.59787 -1.28102e-15 
4.48108 -2.59794 -8.14433e-15 
4.69268 -2.59902 -6.85823e-15 
4.90432 -2.59814 2.78582e-16 
5.11669 -2.59918 8.96627e-15 
5.32886 -2.59849 1.61775e-14 
5.54204 -2.59852 2.01798e-14 
5.75568 -2.59831 2.13279e-14 
5.97072 -2.59861 2.06717e-14 
6.18634 -2.59641 1.83901e-14 
6.40378 -2.59517 1.54206e-14 
6.62438 -2.59597 1.21601e-14 
6.84815 -2.59636 8.58288e-15 
7.07408 -2.59521 5.4076e-15 
7.30511 -2.59911 3.23137e-15 
7.54091 -2.60194 1.61688e-15 
7.78262 -2.60765 1.07081e-15 
8.0179 -2.6026 -6.6427e-17 
8.26687 -2.6117 -4.83138e-17 
8.48528 -2.58312 -3.5296e-13 
-8.48528 -2.37067 2.85019e-13 
-8.26864 -2.31428 4.75018e-16 
-8.04452 -2.39383 7.41108e-16 
-7.81775 -2.43178 2.54047e-16 
-7.59942 -2.17566 -4.59879e-16 
-7.56793 -2.39306 3.06626e-16 
-7.31065 -2.34729 -3.17852e-16 
-7.05064 -2.35699 -1.00324e-15 
-6.79613 -2.43638 2.6362e-15 
-6.56014 -2.32359 -1.24576e-15 
-6.34012 -2.3487 -1.58628e-15 
-6.12199 -2.37016 -3.17993e-15 
-5.90012 -2.36647 -1.73434e-16 
-5.67821 -2.37029 -7.16017e-16 
-5.46027 -2.37328 8.30789e-16 
-5.24058 -2.37171 2.63191e-15 
-5.02229 -2.37443 2.74816e-15 
-4.80535 -2.3708 5.65636e-15 
-4.58832 -2.36968 5.26844e-15 
-4.37427 -2.37492 4.99004e-15 
-4.15798 -2.3745 6.5006e-15 
-3.94109 -2.3734 5.52422e-15 
-3.72304 -2.3755 -8.83402e-15 
-3.50207 -2.37239 -3.4094e-14 
-3.27936 -2.36716 -7.97107e-14 
-3.05309 -2.36482 -7.178e-14 
-2.82275 -2.34998 1.21076e-13 
-2.57999 -2.35444 6.67824e-13 
-2.33749 -2.34541 3.1839e-12 
-2.08443 -2.32624 1.30438e-11 
-1.8349 -2.32819 2.18136e-11 
-1.59507 -2.36709 6.13063e-11 
-1.36603 -2.33481 8.19732e-11 
-1.16817 -2.43688 4.75067e-10 
-0.975752 -2.44938 7.11778e-10 
-0.828536 -2.46834 1.10778e-10 
-0.598315 -2.60984 9.39222e-10 
-0.454147 -2.6648 7.33112e-09 
-0.156993 -2.73267 2.20488e-08 
-0.0268477 -2.77815 -2.43352e-08 
0.302979 -2.75824 2.04988e-08 
0.55032 -2.75973 1.80291e-08 
0.737895 -2.58166 3.8764e-09 
0.80455 -2.39293 2.76198e-09 
0.967484 -2.4677 8.08606e-10 
1.10738 -2.40767 1.53435e-10 
1.29936 -2.36771 -9.20433e-11 
1.52107 -2.353 -8.27056e-11 
1.75385 -2.3221 -3.8487e-11 
1.99989 -2.35312 -7.54771e-12 
2.25774 -2.35512 -2.26749e-12 
2.50219 -2.35083 -3.15615e-13 
2.73641 -2.33445 -6.04401e-14 
2.9708 -2.35934 1.88027e-13 
3.20191 -2.37249 9.42736e-14 
3.42633 -2.37591 5.28507e-14 
3.6471 -2.37349 1.92204e-14 
3.86321 -2.37157 8.68454e-16 
4.07637 -2.36925 -5.54298e-15 
4.28839 -2.36767 -6.38347e-15 
4.50008 -2.36788 -6.64523e-15 
4.71208 -2.36885 -6.73134e-15 
4.92516 -2.3685 -5.41668e-15 
5.13749 -2.36852 -3.65392e-15 
5.35171 -2.36874 -1.5176e-15 
5.56597 -2.36784 3.76549e-16 
5.78045 -2.36717 1.13099e-15 
5.99502 -2.36555 1.67372e-15 
6.21155 -2.36281 2.05096e-15 
6.4305 -2.36145 2.22181e-15 
6.6511 -2.36165 2.18155e-15 
6.8743 -2.36141 1.92566e-15 
7.10299 -2.36375 1.37856e-15 
7.3359 -2.37064 7.24588e-16 
7.57411 -2.37775 7.71907e-16 
7.80705 -2.37546 1.98035e-16 
8.04942 -2.38824 -4.28036e-16 
8.27029 -2.36141 -7.77711e-16 
8.48528 -2.33336 -2.65018e-13 
-8.48528 -2.11876 2.24857e-13 
-8.27369 -2.05599 -5.06909e-17 
-8.05228 -2.15074 2.47175e-16 
-7.82815 -2.20007 -3.51981e-16 
-7.58966 -1.96195 1.44584e-15 
-7.35251 -2.14638 1.60338e-16 
-7.08846 -2.14698 1.12195e-15 
-6.81636 -2.2233 -4.29679e-16 
-6.57145 -2.10994 3.14748e-15 
-6.32973 -2.11293 4.7219e-15 
-6.11334 -2.13642 7.20405e-15 
-5.89666 -2.13433 4.81415e-15 
-5.67765 -2.14211 7.92196e-15 
-5.45922 -2.1425 8.90876e-15 
-5.24419 -2.14443 9.52389e-15 
-5.02636 -2.14712 1.03252e-14 
-4.81098 -2.14119 8.10768e-15 
-4.59578 -2.14249 8.52449e-15 
-4.37833 -2.14459 7.39348e-15 
-4.16367 -2.14671 6.1378e-15 
-3.94648 -2.1452 5.39458e-15 
-3.72753 -2.14741 3.51273e-15 
-3.50609 -2.14395 -9.64076e-15 
-3.28202 -2.13658 -1.89119e-14 
-3.05355 -2.13366 -6.05312e-14 
-2.81652 -2.12251 -2.31545e-13 
-2.57221 -2.12174 -3.3664e-13 
-2.31939 -2.11002 -5.83564e-13 
-2.06784 -2.08642 -6.92603e-13 
-1.80259 -2.10137 1.18901e-11 
-1.55926 -2.13893 1.77645e-11 
-1.3085 -2.13336 1.01549e-10 
-1.1156 -2.26034 -4.68566e-10 
-1.19144 -1.98235 2.96147e-10 
-1.00221 -2.14829 5.51084e-10 
-0.895674 -2.28564 5.43238e-10 
-0.69194 -2.52542 -8.25151e-10 
-0.533105 -2.51817 -1.27765e-10 
-0.198316 -2.61895 -7.05488e-09 
0.237267 -2.84565 -2.2179e-08 
0.489235 -2.68033 6.27456e-09 
0.504227 -2.57603 -2.6061e-08 
0.689275 -2.44494 2.36039e-09 
0.683838 -2.26391 -7.22835e-10 
0.899152 -2.27596 3.92931e-10 
1.03265 -2.19713 7.67239e-11 
1.20893 -2.17631 1.17639e-10 
1.43566 -2.1358 1.51963e-11 
1.66567 -2.09019 -6.24318e-12 
1.914 -2.10254 -7.43172e-12 
2.16178 -2.12923 -1.41606e-12 
2.41658 -2.1128 1.17371e-13 
2.65099 -2.10064 1.54152e-13 
2.8935 -2.12524 5.34872e-14 
3.12574 -2.14247 1.66956e-14 
3.35227 -2.14697 7.50167e-15 
3.57524 -2.14636 1.58466e-15 
3.79567 -2.14263 -4.98617e-15 
4.01175 -2.13985 -7.12731e-15 
4.22651 -2.1382 -6.84736e-15 
4.44137 -2.13733 -7.62211e-15 
4.65602 -2.13838 -8.43529e-15 
4.87119 -2.13926 -9.38839e-15 
5.08765 -2.13747 -9.0957e-15 
5.30389 -2.13949 -9.89439e-15 
5.52209 -2.13789 -8.70691e-15 
5.74053 -2.1354 -7.77352e-15 
5.95822 -2.13247 -6.68668e-15 
6.17645 -2.13012 -5.76043e-15 
6.39728 -2.12828 -4.7017e-15 
6.6206 -2.12614 -3.57714e-15 
6.84443 -2.12614 -2.4002e-15 
7.07183 -2.13121 -1.37591e-15 
7.30463 -2.13956 -5.9777e-16 
7.54083 -2.14974 -1.01222e-15 
7.77957 -2.1437 6.64431e-16 
8.01792 -2.15886 -2.21093e-16 
8.24883 -2.11801 1.98055e-17 
8.48528 -2.1021 -2.50475e-13 
-8.48528 -1.86339 6.69851e-14 
-8.26994 -1.79311 -1.18284e-16 
-8.06203 -1.90858 8.50532e-17 
-7.83546 -1.95378 6.44559e-16 
[...]
POINT_DATA 1978 
VECTORS vectors float
-0.000131536 0.00100604 0.999999 
5.20716e-05 0.000591219 1 
4.6738e-05 -0.000257155 1 
7.26416e-05 -0.00129615 0.999999 
7.09048e-05 -0.00229038 0.999997 
8.45068e-05 -0.00347495 0.999994 
8.5229e-05 -0.00475227 0.999989 
0.000119258 -0.00687062 0.999976 
0.000132653 -0.00832582 0.999965 
9.94411e-05 -0.00979235 0.999952 
9.85478e-05 -0.0114772 0.999934 
0.000100575 -0.0130741 0.999915 
9.42886e-05 -0.0146926 0.999892 
8.87711e-05 -0.0163397 0.999866 
7.18357e-05 -0.0179311 0.999839 
4.17625e-05 -0.019361 0.999813 
9.29501e-06 -0.0206101 0.999788 
-3.58257e-05 -0.0215917 0.999767 
-8.90533e-05 -0.0223153 0.999751 
-0.000149382 -0.0226964 0.999742 
-0.000209113 -0.0226876 0.999743 
-0.000273253 -0.0221351 0.999755 
-0.000345788 -0.0208263 0.999783 
-0.000379645 -0.0185505 0.999828 
-0.000500571 -0.0146951 0.999892 
-0.000686632 -0.00835198 0.999965 
-0.000846516 -0.000186726 1 
-0.000959565 0.0109932 0.999939 
-0.00089971 0.0274112 0.999624 
-0.00117064 0.0478518 0.998854 
-0.00113015 0.0753992 0.997153 
-0.00167559 0.114418 0.993431 
-0.00376528 0.167521 0.985861 
-0.00631698 0.231016 0.97293 
-0.00784348 0.303448 0.952816 
-0.0103476 0.40095 0.916042 
-0.0178394 0.514091 0.857551 
-0.0187943 0.5934 0.804689 
-0.0151028 0.791295 0.611246 
0.00438741 0.973852 0.227138 
-0.00120634 0.857904 -0.513814 
0.0104137 0.708817 -0.705316 
0.0172156 0.50332 -0.863929 
0.019256 0.43859 -0.898482 
0.00877021 0.322294 -0.946599 
0.00621574 0.233815 -0.972261 
0.00298126 0.163734 -0.9865 
0.00164686 0.109299 -0.994007 
0.00123593 0.0734928 -0.997295 
0.000953762 0.0449516 -0.998988 
0.000920197 0.0247782 -0.999692 
0.000946966 0.00938635 -0.999955 
0.000976657 -0.00117198 -0.999999 
0.000709455 -0.00914831 -0.999958 
0.000456481 -0.0152873 -0.999883 
0.000368616 -0.0188996 -0.999821 
0.000319423 -0.0210816 -0.999778 
0.000262836 -0.0222986 -0.999751 
0.000201462 -0.0227566 -0.999741 
0.000141279 -0.0226906 -0.999743 
8.35062e-05 -0.0222477 -0.999752 
3.08083e-05 -0.0214882 -0.999769 
-1.38533e-05 -0.0204328 -0.999791 
-4.7612e-05 -0.0191471 -0.999817 
-6.95426e-05 -0.0176915 -0.999843 
-8.39915e-05 -0.0161393 -0.99987 
-9.24727e-05 -0.0145377 -0.999894 
-9.66396e-05 -0.0129141 -0.999917 
-9.96084e-05 -0.01127 -0.999936 
-0.000100808 -0.00963004 -0.999954 
-9.64588e-05 -0.00800679 -0.999968 
-8.73706e-05 -0.00643021 -0.999979 
-7.74397e-05 -0.00493106 -0.999988 
-6.79685e-05 -0.00354518 -0.999994 
-5.73379e-05 -0.00226884 -0.999997 
-4.69309e-05 -0.0011322 -0.999999 
-2.47561e-05 -0.000161095 -1 
-4.88629e-05 0.000509569 -1 
0.000121664 0.00103794 -0.999999 
-0.000458155 0.000544322 1 
-0.000117852 0.000153454 1 
0.000163129 -0.000252778 1 
0.000240148 -0.00128292 0.999999 
0.000230836 -0.00242422 0.999997 
0.000245199 -0.00355918 0.999994 
0.000253366 -0.00472311 0.999989 
0.000493809 -0.00599066 0.999982 
0.000240187 -0.00758736 0.999971 
0.000204911 -0.00901226 0.999959 
0.000202975 -0.0105731 0.999944 
0.000100375 -0.0121718 0.999926 
-4.02879e-06 -0.0137464 0.999905 
-0.000128117 -0.0153134 0.999883 
-0.000340407 -0.0168002 0.999859 
-0.000622049 -0.0181477 0.999835 
-0.000991279 -0.0193021 0.999813 
-0.00149465 -0.0202107 0.999795 
-0.00205679 -0.0209151 0.999779 
-0.00273001 -0.0212758 0.99977 
-0.00339545 -0.02122 0.999769 
-0.00393743 -0.0206354 0.999779 
-0.00430117 -0.0192791 0.999805 
-0.00439806 -0.0168788 0.999848 
-0.00422521 -0.0127673 0.99991 
-0.00393246 -0.00589272 0.999975 
-0.00360198 0.00389446 0.999986 
-0.00310555 0.0178489 0.999836 
-0.00120158 0.0367753 0.999323 
0.00156847 0.0621667 0.998064 
0.00471647 0.0983505 0.995141 
0.00821117 0.150889 0.988517 
0.0153361 0.213783 0.976761 
0.0107658 0.306939 0.951668 
0.0147158 0.409681 0.91211 
0.0343993 0.495389 0.86799 
0.0125866 0.59212 0.805752 
-0.00585091 0.704649 0.709532 
0.00123723 0.852306 0.523041 
-0.00418122 0.985767 -0.168077 
-0.0162776 0.899632 -0.43634 
-0.033574 0.623132 -0.781395 
0.00272629 0.532229 -0.846596 
-0.0719205 0.443026 -0.893619 
-0.0141644 0.394006 -0.918999 
-0.0146182 0.296073 -0.955053 
-0.0116645 0.210303 -0.977567 
-0.00683692 0.142275 -0.989803 
-0.00463396 0.0921073 -0.995738 
-0.000173773 0.056808 -0.998385 
0.001796 0.0321408 -0.999482 
0.00298285 0.0147781 -0.999886 
0.00350878 0.00179213 -0.999992 
0.00403711 -0.00750627 -0.999964 
0.00421255 -0.0137159 -0.999897 
0.00427026 -0.0175136 -0.999837 
0.00421095 -0.0196465 -0.999798 
0.00388536 -0.0208082 -0.999776 
0.00335249 -0.0212813 -0.999768 
0.0027123 -0.0212569 -0.99977 
0.00206557 -0.0208647 -0.99978 
0.00147729 -0.0201759 -0.999795 
0.00100314 -0.0192275 -0.999815 
0.000627224 -0.0180743 -0.999836 
0.000357053 -0.0167527 -0.99986 
0.000160824 -0.0153088 -0.999883 
1.80433e-05 -0.0137914 -0.999905 
-9.31194e-05 -0.0122357 -0.999925 
-0.000170999 -0.0106691 -0.999943 
-0.000229492 -0.00910612 -0.999958 
-0.000270619 -0.0075604 -0.999971 
-0.000283241 -0.00606394 -0.999982 
-0.000272957 -0.00465099 -0.999989 
-0.000260365 -0.00333331 -0.999994 
-0.000230706 -0.0021407 -0.999998 
-0.000156042 -0.00109283 -0.999999 
-2.87021e-05 -0.00029666 -1 
0.000125272 0.000291015 -1 
0.000464775 0.000541933 -1 
-0.000405181 0.000120009 1 
-0.000198697 -7.55827e-05 1 
-6.81868e-05 -0.000433377 1 
3.62676e-05 -0.00105202 0.999999 
-4.5862e-05 -0.00189803 0.999998 
7.29062e-05 -0.0020566 0.999998 
6.7061e-05 -0.00328758 0.999995 
4.71963e-05 -0.00471077 0.999989 
5.8507e-05 -0.00628948 0.99998 
-0.000159063 -0.00769558 0.99997 
-0.000204337 -0.00922017 0.999957 
-0.000283801 -0.0107632 0.999942 
-0.000463815 -0.0122892 0.999924 
-0.000647412 -0.0138378 0.999904 
-0.000886491 -0.0152861 0.999883 
-0.0012249 -0.0166042 0.999861 
-0.00165099 -0.017744 0.999841 
-0.00221186 -0.0186012 0.999824 
-0.00290899 -0.0192918 0.99981 
-0.00368841 -0.0197584 0.999798 
-0.00455513 -0.0198489 0.999793 
-0.00533461 -0.019477 0.999796 
-0.00583319 -0.0185757 0.99981 
-0.0059439 -0.0169675 0.999838 
-0.00556001 -0.0142133 0.999883 
-0.00465453 -0.00961995 0.999943 
-0.0032607 -0.00231697 0.999992 
-0.00147999 0.00888266 0.999959 
0.00120544 0.023875 0.999714 
0.00658667 0.0446652 0.99898 
0.0148857 0.0735186 0.997183 
0.0242363 0.115667 0.992992 
0.0425113 0.16617 0.98518 
0.0461265 0.251009 0.966885 
0.0641637 0.343049 0.937123 
0.0839086 0.419244 0.903987 
0.0674814 0.629925 0.773719 
0.0530741 0.740841 0.669581 
0.0286076 0.980814 0.192838 
0.0111993 0.998965 0.0440795 
-0.0306765 0.930625 -0.364689 
-0.0391662 0.7438 -0.667254 
-0.0783592 0.521152 -0.849859 
-0.140427 0.404881 -0.903521 
-0.0779151 0.353817 -0.932064 
-0.0620875 0.274912 -0.959463 
-0.046971 0.193541 -0.979967 
-0.0296394 0.129774 -0.9911 
-0.018982 0.0832732 -0.996346 
-0.00841982 0.0532668 -0.998545 
-0.00266965 0.0299154 -0.999549 
0.000657858 0.013265 -0.999912 
0.00259047 0.00103957 -0.999996 
0.00410027 -0.00764407 -0.999962 
0.00503563 -0.0133496 -0.999898 
0.00563956 -0.0165759 -0.999847 
0.00583031 -0.0183596 -0.999814 
0.0055458 -0.0193342 -0.999798 
0.00489702 -0.0197839 -0.999792 
0.00408226 -0.0198115 -0.999795 
0.00325516 -0.0195007 -0.999804 
0.00252131 -0.0189107 -0.999818 
0.0019202 -0.0180889 -0.999834 
0.00144892 -0.0170783 -0.999853 
0.00108026 -0.0158891 -0.999873 
0.000798061 -0.0145518 -0.999894 
0.000578355 -0.0131195 -0.999914 
0.000406446 -0.0116407 -0.999932 
0.000264221 -0.0101387 -0.999949 
0.000143488 -0.00863704 -0.999963 
4.60011e-05 -0.00716566 -0.999974 
-2.62644e-05 -0.00574695 -0.999983 
-7.54946e-05 -0.00439457 -0.99999 
-9.9829e-05 -0.00314515 -0.999995 
-9.86327e-05 -0.00202455 -0.999998 
-5.22397e-05 -0.00110919 -0.999999 
6.56214e-05 -0.00037207 -1 
0.000200999 4.60121e-06 -1 
0.000389944 9.87804e-05 -1 
-0.000209093 -4.68684e-05 1 
-0.000142747 -0.000144479 1 
-8.91284e-05 -0.000506029 1 
-3.66721e-05 -0.00109912 0.999999 
-0.000233387 -0.00188493 0.999998 
-0.000133636 -0.00299371 0.999995 
-0.000205677 -0.00434864 0.99999 
-0.000216855 -0.00599527 0.999982 
-0.000527511 -0.00740619 0.999972 
-0.000695758 -0.00897226 0.999959 
-0.000838091 -0.0104254 0.999945 
-0.00104847 -0.0118627 0.999929 
-0.00129685 -0.0132904 0.999911 
-0.00161106 -0.0146208 0.999892 
-0.00199529 -0.0157887 0.999873 
-0.00248991 -0.0167674 0.999856 
-0.00314066 -0.0175173 0.999842 
-0.00389323 -0.0180772 0.999829 
-0.0047891 -0.018429 0.999819 
-0.00572744 -0.0184736 0.999813 
-0.00656877 -0.0181043 0.999814 
-0.00701611 -0.0173384 0.999825 
-0.00689974 -0.0160091 0.999848 
-0.00612091 -0.0138033 0.999886 
-0.00462444 -0.0100024 0.999939 
-0.00233588 -0.00394115 0.999989 
0.00103032 0.00559515 0.999984 
0.00637502 0.0192036 0.999795 
0.0148943 0.0363628 0.999228 
0.0278635 0.0633434 0.997603 
0.0428854 0.100852 0.993977 
0.069906 0.149722 0.986254 
0.0837225 0.230441 0.969478 
0.102008 0.145871 0.984031 
0.121751 0.24537 0.961754 
0.128127 0.328199 0.935879 
0.0972054 0.529138 0.84295 
0.129144 0.661234 0.73898 
0.0453975 0.975724 0.214249 
0.00155563 0.964222 -0.265094 
-0.0762482 0.756055 -0.650052 
-0.121136 0.745721 -0.65515 
-0.155837 0.485176 -0.860418 
-0.204122 0.395187 -0.895635 
-0.134551 0.315121 -0.939465 
-0.112554 0.242205 -0.963674 
-0.0833157 0.185677 -0.979072 
-0.0573553 0.124886 -0.990512 
-0.0387447 0.0806395 -0.99599 
-0.0215344 0.050958 -0.998469 
-0.010578 0.0307342 -0.999472 
-0.00442446 0.0135549 -0.999898 
-0.000241136 0.00191592 -0.999998 
0.00302871 -0.0063437 -0.999975 
0.00497247 -0.0118338 -0.999918 
0.00625908 -0.0150721 -0.999867 
0.00690459 -0.0168099 -0.999835 
0.00690459 -0.0177561 -0.999818 
0.00636079 -0.0182699 -0.999813 
0.00550012 -0.0184579 -0.999814 
0.00456881 -0.0183236 -0.999822 
0.00370741 -0.0179133 -0.999833 
0.00298356 -0.0172761 -0.999846 
0.00240114 -0.0164244 -0.999862 
0.00192537 -0.015416 -0.999879 
0.00155041 -0.0142068 -0.999898 
0.00125182 -0.0128713 -0.999916 
0.00101367 -0.011458 -0.999934 
0.000811741 -0.0100137 -0.999949 
0.000637723 -0.00856387 -0.999963 
0.000490873 -0.00712831 -0.999974 
0.000363194 -0.00574279 -0.999983 
0.000247998 -0.00443291 -0.99999 
0.000156515 -0.00321803 -0.999995 
9.10004e-05 -0.00214218 -0.999998 
6.66999e-05 -0.00123586 -0.999999 
7.89764e-05 -0.000550085 -1 
0.000149869 -0.000148967 -1 
0.000221296 -6.08806e-05 -1 
-4.01975e-05 1.35168e-05 1 
-5.99987e-05 -0.000102346 1 
-0.000136798 -0.000455849 1 
-0.000175483 -0.00105207 0.999999 
-0.000342598 -0.00293213 0.999996 
-0.000447322 -0.00415387 0.999991 
-0.000461674 -0.00382333 0.999993 
-0.000491204 -0.00567863 0.999984 
-0.000740208 -0.006665 0.999977 
-0.000920272 -0.00813434 0.999966 
-0.00114809 -0.00958338 0.999953 
-0.00138397 -0.0109295 0.999939 
-0.00165689 -0.0122974 0.999923 
-0.00200662 -0.0135652 0.999906 
-0.00242707 -0.0146739 0.999889 
-0.00293201 -0.0156077 0.999874 
-0.00357983 -0.016285 0.999861 
-0.00435107 -0.0167915 0.999849 
-0.00523854 -0.0171354 0.999839 
-0.00624942 -0.0172074 0.999832 
-0.00721422 -0.0169852 0.99983 
-0.00791376 -0.0164539 0.999833 
-0.00805571 -0.0155999 0.999846 
-0.00747901 -0.014236 0.999871 
-0.00604561 -0.0119015 0.999911 
-0.00366153 -0.00806598 0.999961 
0.000117076 -0.00193837 0.999998 
0.00566598 0.00682081 0.999961 
0.0141149 0.0178214 0.999741 
0.0273963 0.036491 0.998958 
0.0466362 0.0620416 0.996983 
0.0664997 0.0922842 0.99351 
0.0965849 0.0906712 0.991186 
0.135867 0.120975 0.983313 
0.149323 0.206361 0.967015 
0.158625 0.407232 0.899444 
0.148342 0.501127 0.852564 
0.0620102 0.871315 0.48679 
0.0257426 0.871768 0.489243 
0.0405492 0.98834 0.14677 
-0.000128769 0.980246 -0.197775 
-0.126743 0.793966 -0.59461 
-0.225227 0.512628 -0.828544 
-0.197793 0.300847 -0.932936 
-0.169833 0.235266 -0.956978 
-0.133583 0.174101 -0.975625 
-0.0945117 0.134014 -0.986462 
-0.0662571 0.0875505 -0.993954 
-0.0429302 0.0538312 -0.997627 
-0.0253019 0.033448 -0.99912 
-0.0133425 0.018508 -0.99974 
-0.00564431 0.00568653 -0.999968 
5.05521e-05 -0.00287619 -0.999996 
0.00370082 -0.0086901 -0.999955 
0.00597432 -0.0125718 -0.999903 
0.00735733 -0.0147858 -0.999864 
0.00796301 -0.0159747 -0.999841 
0.0078557 -0.0166141 -0.999831 
0.00717328 -0.017011 -0.99983 
0.00621753 -0.0171821 -0.999833 
0.00523705 -0.0170903 -0.99984 
0.0043473 -0.0167575 -0.99985 
0.00358763 -0.0162215 -0.999862 
0.00296099 -0.0154545 -0.999876 
0.0024427 -0.0145865 -0.999891 
0.00202092 -0.0134726 -0.999907 
0.00167817 -0.01223 -0.999924 
0.00138918 -0.010886 -0.99994 
0.00114076 -0.00950425 -0.999954 
0.00092708 -0.00810769 -0.999967 
0.000747277 -0.00672694 -0.999977 
0.000588348 -0.00538216 -0.999985 
0.000452125 -0.00412681 -0.999991 
0.000342829 -0.00297626 -0.999995 
0.000254421 -0.00196996 -0.999998 
0.000185618 -0.00112403 -0.999999 
0.000136634 -0.000509631 -1 
8.63649e-05 -0.000119729 -1 
3.20021e-05 4.85043e-06 -1 
7.59831e-05 6.60906e-05 1 
2.89637e-05 -7.28733e-05 1 
-7.42423e-05 -0.000466237 1 
-0.000153896 -0.00102566 0.999999 
-0.000247152 -0.00186468 0.999998 
-0.000354836 -0.00289344 0.999996 
-0.000633122 -0.00486097 0.999988 
-0.000597636 -0.0050618 0.999987 
-0.0007911 -0.00620922 0.99998 
-0.00101543 -0.00762393 0.99997 
-0.00128349 -0.00903005 0.999958 
-0.00158262 -0.010361 0.999945 
-0.00189134 -0.0116822 0.99993 
-0.00225689 -0.0128526 0.999915 
-0.0027043 -0.0138852 0.9999 
-0.00323443 -0.0147345 0.999886 
-0.0038785 -0.0153213 0.999875 
-0.00462566 -0.0157544 0.999865 
-0.00548932 -0.0160213 0.999857 
-0.00645534 -0.016089 0.99985 
-0.00744226 -0.0158864 0.999846 
-0.00827253 -0.0155394 0.999845 
-0.00866463 -0.0148997 0.999851 
-0.00841415 -0.0139853 0.999867 
-0.00732353 -0.0125448 0.999894 
-0.00518473 -0.0101514 0.999935 
-0.00155634 -0.00629583 0.999979 
0.0041548 -0.000717294 0.999991 
0.0128775 0.00640453 0.999897 
0.0269231 0.0196195 0.999445 
0.0461521 0.0371648 0.998243 
0.0721079 0.0553319 0.995861 
0.11807 0.0569573 0.99137 
0.168716 0.0831534 0.982151 
0.198669 0.283049 0.938304 
0.234209 0.363007 0.901871 
0.181234 0.613124 0.768916 
0.213328 0.489349 0.845594 
0.0888857 0.909111 0.406962 
-0.0106474 0.967396 -0.253043 
-0.00653216 0.997483 -0.0705854 
-0.180263 0.745744 -0.64138 
-0.274333 0.424236 -0.862998 
-0.240929 0.203514 -0.948965 
-0.187052 0.164636 -0.968456 
-0.136665 0.11285 -0.984168 
-0.09629 0.0837214 -0.991826 
-0.0644083 0.0500206 -0.996669 
-0.0441758 0.0270429 -0.998658 
-0.0280168 0.0195233 -0.999417 
-0.0144298 0.00907829 -0.999855 
-0.00496395 -0.000478785 -0.999988 
0.00134653 -0.00669114 -0.999977 
0.00504279 -0.0105232 -0.999932 
0.00713738 -0.0129717 -0.99989 
0.008262 -0.0144153 -0.999862 
0.00858525 -0.0151594 -0.999848 
0.00826496 -0.0156043 -0.999844 
0.00750048 -0.0159186 -0.999845 
0.00654804 -0.0160821 -0.999849 
0.0055972 -0.0160314 -0.999856 
0.00473257 -0.0157804 -0.999864 
0.00398548 -0.0153788 -0.999874 
0.00333924 -0.0147283 -0.999886 
0.00278704 -0.0139338 -0.999899 
0.00232631 -0.0129078 -0.999914 
0.00193966 -0.0117147 -0.999929 
0.0016087 -0.0104416 -0.999944 
0.00132062 -0.00913449 -0.999958 
0.0010668 -0.0077823 -0.999969 
0.000844432 -0.00643542 -0.999979 
0.000649229 -0.00514922 -0.999986 
0.000480437 -0.00393156 -0.999992 
0.0003424 -0.0028272 -0.999996 
0.00022997 -0.00186008 -0.999998 
0.000137702 -0.001053 -0.999999 
6.80733e-05 -0.000456229 -1 
-1.36661e-05 -7.54645e-05 -1 
-8.38373e-05 6.59547e-05 -1 
0.000153633 0.000145813 1 
6.94518e-05 -7.34674e-06 1 
-2.99674e-05 -0.000462215 1 
-0.000121639 -0.00107395 0.999999 
-0.000213629 -0.00179208 0.999998 
-0.000326175 -0.00256233 0.999997 
-0.000476335 -0.00357765 0.999993 
-0.000714638 -0.00478527 0.999988 
-0.000900695 -0.0061768 0.99998 
-0.00115529 -0.00754129 0.999971 
-0.00144283 -0.00884994 0.99996 
-0.00175295 -0.0101027 0.999947 
-0.0020764 -0.0113128 0.999934 
-0.00246329 -0.012458 0.999919 
-0.00291452 -0.0133897 0.999906 
-0.00345028 -0.014152 0.999894 
-0.00406276 -0.0146195 0.999885 
-0.00477807 -0.0149932 0.999876 
-0.0055537 -0.015177 0.999869 
-0.00640629 -0.0152459 0.999863 
-0.00721645 -0.0150827 0.99986 
-0.00792811 -0.0148235 0.999859 
-0.00830079 -0.014438 0.999861 
-0.008103 -0.0139057 0.99987 
-0.00711287 -0.0130995 0.999889 
-0.00499877 -0.0117525 0.999918 
-0.001395 -0.00961682 0.999953 
0.00449292 -0.00689602 0.999966 
0.0148366 -0.00230155 0.999887 
0.0294238 0.00569896 0.999551 
0.0497439 0.0169265 0.998618 
0.0788248 0.0279143 0.996498 
0.108832 0.0115536 0.993993 
0.15089 0.020834 0.988331 
0.187885 0.173367 0.966769 
0.259883 0.257572 0.930654 
0.292873 0.201702 0.934635 
0.275423 0.449344 0.849843 
0.225558 0.666843 0.710243 
0.138884 0.781209 0.608624 
-0.0512202 0.944616 -0.32416 
-0.132792 0.595887 -0.792013 
-0.262948 0.300216 -0.916913 
-0.277468 0.129189 -0.952009 
-0.202251 0.104623 -0.973729 
-0.152265 0.0641493 -0.986256 
-0.104451 0.0455254 -0.993487 
-0.0754989 0.0204251 -0.996937 
-0.048102 0.0054936 -0.998827 
-0.0284723 0.00239872 -0.999592 
-0.0152694 -0.000646919 -0.999883 
-0.00551238 -0.00653515 -0.999963 
0.00104679 -0.0100909 -0.999948 
0.00487639 -0.0121982 -0.999914 
0.00696608 -0.0134849 -0.999885 
0.00800448 -0.0142557 -0.999866 
0.00823431 -0.014706 -0.999858 
0.00790952 -0.0149457 -0.999857 
0.00725505 -0.015126 -0.999859 
0.00644831 -0.0152412 -0.999863 
0.00561693 -0.0152189 -0.999868 
0.0048421 -0.0150263 -0.999875 
0.00413359 -0.0146446 -0.999884 
0.00351659 -0.0141196 -0.999894 
0.00296714 -0.0133696 -0.999906 
0.00250194 -0.0124324 -0.99992 
0.00210362 -0.011307 -0.999934 
0.00176029 -0.0101053 -0.999947 
0.00145285 -0.00881303 -0.99996 
0.00118145 -0.0075128 -0.999971 
0.000937114 -0.00620195 -0.99998 
0.000714457 -0.00493861 -0.999988 
0.000517419 -0.00373796 -0.999993 
0.000350346 -0.00266534 -0.999996 
0.000210327 -0.00173605 -0.999998 
9.73672e-05 -0.000973767 -0.999999 
1.00017e-05 -0.000413647 -1 
-8.00965e-05 -2.82364e-05 -1 
-0.000169683 0.000125885 -1 
0.000195703 0.000245212 1 
0.000105679 0.000136742 1 
-1.36892e-05 -0.000308328 1 
-0.000123923 -0.000899201 1 
-0.000244183 -0.00166262 0.999999 
-0.000389488 -0.00254878 0.999997 
-0.000564562 -0.00362873 0.999993 
-0.000777694 -0.00480924 0.999988 
-0.000973851 -0.00602775 0.999981 
-0.00122039 -0.00730736 0.999973 
-0.00149341 -0.00857664 0.999962 
-0.00179975 -0.00986109 0.99995 
-0.00212779 -0.0110441 0.999937 
-0.00249273 -0.0120907 0.999924 
-0.00292202 -0.0129945 0.999911 
-0.00341607 -0.0136481 0.999901 
-0.00399768 -0.0141493 0.999892 
-0.00462646 -0.0144234 0.999885 
-0.00529666 -0.014596 0.999879 
-0.00596254 -0.0146312 0.999875 
-0.00658342 -0.014641 0.999871 
-0.00706774 -0.0145676 0.999869 
-0.00725124 -0.0144798 0.999869 
-0.00696143 -0.0144012 0.999872 
-0.00596973 -0.014299 0.99988 
-0.0040103 -0.0140447 0.999893 
-0.000470979 -0.0136878 0.999906 
0.00556564 -0.0131341 0.999898 
0.0152395 -0.012668 0.999804 
0.0278527 -0.0110879 0.999551 
0.0444902 -0.00594746 0.998992 
0.0685426 -0.00270914 0.997644 
0.100107 -0.0202521 0.99477 
0.146062 -0.0308653 0.988794 
0.220927 0.128049 0.966848 
0.204218 0.0388769 0.978153 
0.260105 0.0690684 0.963107 
0.345832 0.379406 0.858167 
0.187751 0.801659 0.56753 
-0.0288259 0.983934 -0.176181 
-0.248006 0.616269 -0.747467 
-0.331994 0.209447 -0.919734 
-0.161118 0.291002 -0.943058 
-0.234445 0.0519583 -0.97074 
-0.182047 0.0254301 -0.982961 
-0.126772 0.0111588 -0.991869 
-0.0937225 -0.00982171 -0.99555 
-0.0643868 -0.0121849 -0.997851 
-0.043889 -0.0196857 -0.998842 
-0.0300178 -0.0126031 -0.99947 
-0.0161225 -0.0112728 -0.999806 
-0.0065718 -0.0131382 -0.999892 
-9.45225e-05 -0.013986 -0.999902 
0.00372767 -0.0144112 -0.999889 
0.00582717 -0.0146015 -0.999876 
0.00690724 -0.014676 -0.999868 
0.00718791 -0.0147179 -0.999866 
0.00701276 -0.0147056 -0.999867 
0.00656838 -0.0147086 -0.99987 
0.00597566 -0.0147198 -0.999874 
0.00532062 -0.0146619 -0.999878 
0.00467669 -0.0145121 -0.999884 
0.00404904 -0.0141767 -0.999891 
0.00347313 -0.0136781 -0.9999 
0.0029604 -0.0129583 -0.999912 
0.00252514 -0.0120874 -0.999924 
0.00214424 -0.0110244 -0.999937 
0.00181263 -0.00985413 -0.99995 