# vtk DataFile Version 3.0 
Exported using Morpho https://github.com/Morpho-lang/morpho 
ASCII 
DATASET UNSTRUCTURED_GRID 

POINTS 1978 float 
-8.48528 -2.82843 6.53793e-13 
-8.27215 -2.82843 1.08765e-12 
-7.97581 -2.82843 6.12271e-13 
-7.7237 -2.82843 3.16746e-13 
-7.49704 -2.82843 -3.15342e-13 
-7.28327 -2.82843 2.98922e-13 
-7.06345 -2.82843 -2.83572e-13 
-6.74786 -2.82843 -3.89682e-13 
-6.54652 -2.82843 -2.49748e-13 
-6.34377 -2.82843 -1.60612e-13 
-6.1221 -2.82843 -1.60604e-13 
-5.91025 -2.82843 -1.95901e-13 
-5.69929 -2.82843 -9.00205e-14 
-5.48575 -2.82843 5.671e-14 
-5.27563 -2.82843 1.34405e-13 
-5.06486 -2.82843 2.89017e-13 
-4.85415 -2.82843 4.55213e-13 
-4.64633 -2.82843 3.28025e-13 
-4.4355 -2.82843 -7.20227e-13 
-4.22595 -2.82843 -5.53287e-13 
-4.01723 -2.82843 -1.63645e-12 
-3.8059 -2.82843 -2.82525e-12 
-3.59537 -2.82843 -5.11794e-12 
-3.3848 -2.82843 -6.83052e-12 
-3.17408 -2.82843 -9.41234e-12 
-2.96494 -2.82843 -1.01139e-11 
-2.7623 -2.82843 -7.12581e-12 
-2.5605 -2.82843 -1.26389e-11 
-2.33301 -2.82843 -1.01989e-11 
-2.10898 -2.82843 -5.88162e-11 
-1.88356 -2.82843 -1.8517e-10 
-1.65065 -2.82843 -6.36352e-10 
-1.4365 -2.82843 -1.88718e-09 
-1.25738 -2.82843 -6.28791e-09 
-1.08195 -2.82843 -1.03053e-08 
-0.919513 -2.82843 -2.46855e-08 
-0.775035 -2.82843 -5.98293e-08 
-0.642876 -2.82843 -6.08815e-08 
-0.469144 -2.82843 -2.09768e-07 
-0.201472 -2.82843 1.20708e-07 
0.454873 -2.82843 6.59621e-07 
0.632747 -2.82843 3.16523e-07 
0.785537 -2.82843 2.9652e-08 
0.932644 -2.82843 4.38834e-08 
1.07374 -2.82843 1.28934e-08 
1.2468 -2.82843 5.61434e-09 
1.44484 -2.82843 1.84274e-09 
1.66951 -2.82843 5.31825e-10 
1.88908 -2.82843 1.42027e-10 
2.13255 -2.82843 4.11764e-11 
2.36483 -2.82843 2.12979e-11 
2.58645 -2.82843 9.10407e-12 
2.77711 -2.82843 7.52153e-12 
2.97642 -2.82843 9.80911e-12 
3.1847 -2.82843 9.96953e-12 
3.39754 -2.82843 7.69842e-12 
3.614 -2.82843 5.1057e-12 
3.82676 -2.82843 2.84758e-12 
4.03729 -2.82843 1.36669e-12 
4.2459 -2.82843 1.25519e-13 
4.45389 -2.82843 2.63287e-13 
4.66273 -2.82843 -2.08176e-13 
4.87329 -2.82843 -2.11789e-13 
5.08355 -2.82843 -1.45836e-13 
5.29519 -2.82843 -4.71423e-14 
5.50701 -2.82843 5.08802e-15 
5.71974 -2.82843 1.10466e-13 
5.93367 -2.82843 1.49736e-13 
6.15018 -2.82843 1.46119e-13 
6.36735 -2.82843 1.21554e-13 
6.58666 -2.82843 2.55903e-13 
6.81038 -2.82843 4.59505e-13 
7.03819 -2.82843 1.22597e-13 
7.26759 -2.82843 -2.1272e-14 
7.5029 -2.82843 1.17334e-13 
7.74293 -2.82843 -4.36144e-13 
7.99109 -2.82843 -4.71801e-13 
8.23003 -2.82843 -8.62601e-13 
8.48528 -2.82843 -6.75842e-13 
-8.48528 -2.59975 -6.8378e-13 
-8.24397 -2.57504 5.05165e-17 
-8.01826 -2.63806 1.68413e-15 
-7.73968 -2.61506 2.76345e-15 
-7.49294 -2.59828 4.48852e-15 
-7.27351 -2.59564 7.55873e-15 
-7.06625 -2.5648 9.28604e-15 
-6.86681 -2.66482 -1.96663e-14 
-6.61523 -2.57282 -1.44872e-14 
-6.4108 -2.5791 -1.55022e-14 
-6.19787 -2.59955 -2.17911e-14 
-5.97788 -2.59561 -2.41964e-14 
-5.76228 -2.59636 -2.5441e-14 
-5.54607 -2.59995 -2.47686e-14 
-5.33014 -2.59834 -1.88044e-14 
-5.11519 -2.59981 2.02481e-14 
-4.89931 -2.59962 -2.37273e-15 
-4.68441 -2.59686 -1.52814e-14 
-4.47113 -2.6008 -1.74864e-14 
-4.25498 -2.60063 5.26895e-15 
-4.03824 -2.59951 -3.02761e-14 
-3.82072 -2.60112 1.5195e-15 
-3.59815 -2.594 3.28492e-15 
-3.37549 -2.59722 5.67623e-15 
-3.15138 -2.59564 7.86807e-15 
-2.92672 -2.58851 5.86791e-15 
-2.70174 -2.58138 -8.46517e-15 
-2.46134 -2.59124 2.99014e-14 
-2.2145 -2.57661 -1.44348e-14 
-1.97019 -2.57135 1.73691e-14 
-1.72969 -2.58873 -4.53708e-14 
-1.4918 -2.58807 4.14881e-13 
-1.29833 -2.60636 8.63563e-13 
-1.10847 -2.63282 3.6356e-12 
-0.943923 -2.63804 5.86407e-12 
-0.806891 -2.67292 5.94057e-12 
-0.670306 -2.70042 1.4999e-11 
-0.535715 -2.74302 2.97026e-11 
-0.366407 -2.77914 2.04891e-11 
0.0875255 -2.8114 3.01592e-10 
0.379751 -2.79429 -3.38089e-11 
0.691973 -2.71331 -4.00257e-11 
0.838025 -2.69358 -3.00329e-11 
0.863977 -2.52752 8.07467e-12 
0.978047 -2.65706 -6.35666e-12 
1.13043 -2.63019 -3.30264e-12 
1.3016 -2.6049 -1.6996e-12 
1.51718 -2.59843 -5.06176e-13 
1.75021 -2.57848 4.24892e-14 
2.0057 -2.5913 -1.96235e-14 
2.26415 -2.58835 1.45943e-14 
2.50899 -2.58844 -2.62163e-14 
2.73986 -2.5694 3.49601e-15 
2.95421 -2.58988 -4.87075e-15 
3.17264 -2.59667 -7.94026e-15 
3.39833 -2.5957 -5.30929e-15 
3.62323 -2.60048 -2.93693e-15 
3.84217 -2.59993 -1.27443e-15 
4.05686 -2.59859 2.30102e-14 
4.269 -2.59756 3.00911e-15 
4.48038 -2.59767 1.91338e-14 
4.69197 -2.59853 1.61123e-14 
4.90356 -2.5977 -6.52258e-16 
5.11599 -2.59865 -2.10655e-14 
5.32828 -2.59785 1.85783e-14 
5.54165 -2.59792 2.31745e-14 
5.75558 -2.59764 2.4493e-14 
5.9707 -2.5978 2.37393e-14 
6.18653 -2.59587 2.11191e-14 
6.40404 -2.59464 1.7709e-14 
6.62465 -2.59556 1.39646e-14 
6.84806 -2.59591 -2.01647e-14 
7.07395 -2.595 -1.27047e-14 
7.30489 -2.59878 -7.59186e-15 
7.54028 -2.60145 -3.79877e-15 
7.7812 -2.60699 -2.50544e-15 
8.0178 -2.60564 1.54185e-16 
8.26416 -2.60999 1.12564e-16 
8.48528 -2.58312 8.22637e-13 
-8.48528 -2.37067 -6.6429e-13 
-8.27169 -2.31666 -1.10742e-15 
-8.04731 -2.39498 -1.72994e-15 
-7.81209 -2.41859 -5.95335e-16 
-7.59107 -2.17156 1.07988e-15 
-7.56026 -2.39135 -7.20475e-16 
-7.31443 -2.35378 7.4641e-16 
-7.05495 -2.35789 2.35731e-15 
-6.79777 -2.43477 -6.19275e-15 
-6.56005 -2.32324 2.91191e-15 
-6.34099 -2.34836 3.72636e-15 
-6.12224 -2.3688 7.47109e-15 
-5.90088 -2.36503 3.98029e-16 
-5.67967 -2.36983 1.68222e-15 
-5.46101 -2.37117 -1.95187e-15 
-5.24236 -2.37122 -6.18242e-15 
-5.02431 -2.37354 -6.4538e-15 
-4.80705 -2.37088 -1.32922e-14 
-4.58999 -2.36915 -1.23774e-14 
-4.37547 -2.37399 -1.17234e-14 
-4.15931 -2.37366 -1.52725e-14 
-3.94204 -2.37262 -1.29795e-14 
-3.72369 -2.37391 2.07544e-14 
-3.49929 -2.36847 -3.91535e-14 
-3.27659 -2.36745 1.47837e-15 
-3.05142 -2.36235 1.34489e-15 
-2.82144 -2.34925 -2.26404e-15 
-2.57908 -2.35553 -1.23022e-14 
-2.33522 -2.34582 2.91957e-14 
-2.08383 -2.32841 -1.97273e-14 
-1.83289 -2.33237 7.05589e-15 
-1.59242 -2.36411 3.92873e-14 
-1.36772 -2.35466 -4.36486e-14 
-1.17673 -2.43526 7.4592e-13 
-0.991808 -2.43904 1.68917e-12 
-0.830614 -2.48384 -6.58748e-14 
-0.556019 -2.61849 -1.90697e-12 
-0.424393 -2.67053 3.43522e-11 
-0.149821 -2.72217 3.75521e-11 
-0.0594902 -2.77813 -5.37848e-11 
0.301342 -2.76222 2.26195e-11 
0.562566 -2.7472 4.52662e-11 
0.73536 -2.58289 2.67581e-12 
0.795246 -2.36849 5.89576e-12 
0.991249 -2.4672 1.76483e-12 
1.12901 -2.40261 -6.86744e-13 
1.31933 -2.3841 4.68677e-14 
1.53119 -2.35825 -4.95463e-14 
1.75633 -2.33061 -2.3756e-14 
1.99312 -2.35772 1.17593e-14 
2.25344 -2.35458 -2.06836e-14 
2.5003 -2.3501 5.88751e-15 
2.73628 -2.33763 1.15174e-15 
2.97032 -2.35167 -3.52597e-15 
3.19899 -2.37178 -1.76586e-15 
3.42617 -2.37248 -9.90388e-16 
3.64666 -2.37307 2.20703e-14 
3.86265 -2.37076 -2.02918e-15 
4.07601 -2.36853 1.30231e-14 
4.28841 -2.36743 1.49974e-14 
4.50007 -2.36735 1.56121e-14 
4.71196 -2.36805 1.58143e-14 
4.92495 -2.36782 1.27257e-14 
5.13726 -2.36764 8.58428e-15 
5.35139 -2.36764 3.56525e-15 
5.56579 -2.36699 -8.80477e-16 
5.78026 -2.36599 -2.65737e-15 
5.99498 -2.36449 -3.9323e-15 
6.21157 -2.36201 -4.81859e-15 
6.4308 -2.36077 -5.21995e-15 
6.65112 -2.3606 -5.12536e-15 
6.87437 -2.36087 -4.52416e-15 
7.10303 -2.3634 -3.2388e-15 
7.3357 -2.3698 -1.70233e-15 
7.57376 -2.37681 -1.8043e-15 
7.80694 -2.3762 -4.62096e-16 
8.04507 -2.38734 9.98663e-16 
8.26756 -2.36155 1.81296e-15 
8.48528 -2.33336 6.17673e-13 
-8.48528 -2.11876 -5.24071e-13 
-8.27441 -2.05626 1.18016e-16 
-8.05579 -2.15415 -5.75737e-16 
-7.82576 -2.19527 8.22051e-16 
-7.59737 -1.94908 -3.38474e-15 
-7.34974 -2.14416 -3.76892e-16 
-7.09213 -2.14919 -2.62052e-15 
-6.81777 -2.22254 1.00878e-15 
-6.57167 -2.10987 -7.39502e-15 
-6.32946 -2.11209 -1.10931e-14 
-6.11333 -2.13592 -1.69249e-14 
-5.89619 -2.13207 -1.13105e-14 
-5.67841 -2.14154 -1.86122e-14 
-5.45947 -2.14267 -2.09303e-14 
-5.24271 -2.14211 -2.23759e-14 
-5.02546 -2.14638 -2.42604e-14 
-4.81069 -2.14055 -1.90456e-14 
-4.5959 -2.14209 -2.00271e-14 
-4.37825 -2.14431 -1.73706e-14 
-4.16296 -2.14532 -1.44201e-14 
-3.94636 -2.14452 -1.2674e-14 
-3.72754 -2.14556 -8.25397e-15 
-3.5067 -2.14234 2.26516e-14 
-3.28101 -2.13613 -2.17201e-14 
-3.05166 -2.13124 1.12609e-15 
-2.81197 -2.12122 4.34481e-15 
-2.56729 -2.12105 6.23922e-15 
-2.31446 -2.10875 1.06442e-14 
-2.05824 -2.09175 1.3761e-14 
-1.79459 -2.10373 -1.18082e-14 
-1.5569 -2.13969 -2.59987e-14 
-1.32612 -2.15019 -4.87157e-14 
-1.13161 -2.24566 -7.59106e-13 
-1.20383 -1.99859 4.60306e-13 
-1.00535 -2.13227 9.36159e-13 
-0.91504 -2.29096 7.89707e-13 
-0.700099 -2.56365 1.95469e-12 
-0.578223 -2.48848 3.01082e-13 
-0.168276 -2.57172 -1.27253e-11 
0.193892 -2.8387 -4.9456e-11 
0.480794 -2.69805 2.33181e-11 
0.511905 -2.5764 -5.41881e-11 
0.695702 -2.45381 2.97972e-12 
0.664655 -2.26174 -7.796e-13 
0.905453 -2.28437 1.73817e-12 
1.03794 -2.19885 4.3278e-14 
1.22437 -2.18278 -6.02145e-14 
1.43685 -2.14084 8.26412e-15 
1.66532 -2.09471 9.59388e-15 
1.90751 -2.10327 1.13353e-14 
2.15403 -2.13216 -1.34075e-14 
2.41321 -2.11373 -2.07154e-15 
2.65027 -2.10336 -2.88191e-15 
2.89093 -2.11906 -1.00257e-15 
3.12555 -2.13863 1.91737e-14 
3.35085 -2.14696 -1.76237e-14 
3.57582 -2.14491 -3.72315e-15 
3.79606 -2.14128 1.17148e-14 
4.01265 -2.13877 1.67454e-14 
4.22792 -2.13798 1.60875e-14 
4.44271 -2.13688 1.79073e-14 
4.65714 -2.13767 1.98176e-14 
4.87208 -2.13844 2.2057e-14 
5.08806 -2.13652 2.13699e-14 
5.30397 -2.1381 2.32458e-14 
5.52193 -2.13694 2.04558e-14 
5.74017 -2.1343 1.82621e-14 
5.95787 -2.13155 1.57103e-14 
6.17631 -2.12928 1.35336e-14 
6.39726 -2.12808 1.10462e-14 
6.62114 -2.12488 8.40411e-15 
6.84517 -2.12548 5.63949e-15 
7.07268 -2.13084 3.2322e-15 
7.30562 -2.1388 1.40442e-15 
7.54241 -2.14947 2.3628e-15 
7.78224 -2.14439 -1.54776e-15 
8.01987 -2.1549 5.14669e-16 
8.24924 -2.11771 -4.58947e-17 
8.48528 -2.1021 5.83779e-13 
-8.48528 -1.86339 -1.56121e-13 
-8.26861 -1.79378 2.75623e-16 
-8.06064 -1.91005 -1.99154e-16 
[...]
POINT_DATA 1978 
VECTORS vectors float
-0.000130405 0.00100591 0.999999 
5.11098e-05 0.000591219 1 
4.4636e-05 -0.000257155 1 
7.02314e-05 -0.00129615 0.999999 
6.85043e-05 -0.00229038 0.999997 
8.18544e-05 -0.00347495 0.999994 
8.1584e-05 -0.00475227 0.999989 
0.000114883 -0.00687062 0.999976 
0.000128904 -0.00832582 0.999965 
9.61448e-05 -0.00979235 0.999952 
9.53595e-05 -0.0114772 0.999934 
9.74594e-05 -0.0130741 0.999915 
9.13118e-05 -0.0146926 0.999892 
8.60362e-05 -0.0163397 0.999866 
6.96583e-05 -0.0179311 0.999839 
4.04672e-05 -0.019361 0.999813 
9.06849e-06 -0.0206101 0.999788 
-3.46662e-05 -0.0215917 0.999767 
-8.62374e-05 -0.0223153 0.999751 
-0.000144745 -0.0226964 0.999742 
-0.000202561 -0.0226876 0.999743 
-0.000264648 -0.0221351 0.999755 
-0.000335173 -0.0208263 0.999783 
-0.000367312 -0.0185505 0.999828 
-0.000484627 -0.0146951 0.999892 
-0.000665787 -0.00835198 0.999965 
-0.000821316 -0.000186726 1 
-0.000929869 0.0109932 0.999939 
-0.000867712 0.0274112 0.999624 
-0.0011333 0.0478518 0.998854 
-0.00108834 0.0753992 0.997153 
-0.00161206 0.114418 0.993431 
-0.00365499 0.167521 0.985862 
-0.00615513 0.231016 0.97293 
-0.00764296 0.303449 0.952817 
-0.0100946 0.400951 0.916044 
-0.0174958 0.514094 0.857555 
-0.0183856 0.593404 0.804695 
-0.0147205 0.791301 0.61125 
0.0043063 0.973853 0.227138 
-0.00127295 0.857899 -0.513812 
0.0101831 0.708818 -0.705317 
0.0168497 0.503323 -0.863934 
0.0188872 0.438593 -0.898487 
0.00853956 0.322295 -0.946601 
0.00604919 0.233815 -0.972262 
0.00287923 0.163735 -0.9865 
0.00158738 0.109299 -0.994008 
0.00119292 0.0734929 -0.997295 
0.000918582 0.0449516 -0.998989 
0.000888849 0.0247782 -0.999693 
0.000917969 0.00938635 -0.999956 
0.000949807 -0.00117198 -0.999999 
0.000687955 -0.00914831 -0.999958 
0.000441363 -0.0152873 -0.999883 
0.000356665 -0.0188996 -0.999821 
0.000309275 -0.0210816 -0.999778 
0.000254593 -0.0222986 -0.999751 
0.00019518 -0.0227566 -0.999741 
0.000136894 -0.0226906 -0.999743 
8.08955e-05 -0.0222477 -0.999752 
2.9809e-05 -0.0214882 -0.999769 
-1.3477e-05 -0.0204328 -0.999791 
-4.61803e-05 -0.0191471 -0.999817 
-6.7394e-05 -0.0176915 -0.999843 
-8.13737e-05 -0.0161393 -0.99987 
-8.95647e-05 -0.0145377 -0.999894 
-9.35562e-05 -0.0129141 -0.999917 
-9.64096e-05 -0.01127 -0.999936 
-9.75703e-05 -0.00963004 -0.999954 
-9.33121e-05 -0.00800679 -0.999968 
-8.44471e-05 -0.00643021 -0.999979 
-7.4809e-05 -0.00493106 -0.999988 
-6.5632e-05 -0.00354518 -0.999994 
-5.53148e-05 -0.00226884 -0.999997 
-4.53051e-05 -0.0011322 -0.999999 
-2.35826e-05 -0.000161095 -1 
-4.82885e-05 0.000509569 -1 
0.000120416 0.0010378 -0.999999 
-0.000458115 0.000544162 1 
-0.000117852 0.000153454 1 
0.000163129 -0.000252778 1 
0.000240148 -0.00128292 0.999999 
0.000230836 -0.00242422 0.999997 
0.000245199 -0.00355918 0.999994 
0.000253366 -0.00472311 0.999989 
0.000493809 -0.00599066 0.999982 
0.000240187 -0.00758736 0.999971 
0.000204911 -0.00901226 0.999959 
0.000202975 -0.0105731 0.999944 
0.000100375 -0.0121718 0.999926 
-4.02879e-06 -0.0137464 0.999906 
-0.000128117 -0.0153134 0.999883 
-0.000340407 -0.0168002 0.999859 
-0.000622049 -0.0181477 0.999835 
-0.000991279 -0.0193021 0.999813 
-0.00149465 -0.0202107 0.999795 
-0.00205679 -0.0209151 0.999779 
-0.00273001 -0.0212758 0.99977 
-0.00339545 -0.02122 0.999769 
-0.00393743 -0.0206354 0.999779 
-0.00430117 -0.0192791 0.999805 
-0.00439806 -0.0168788 0.999848 
-0.00422521 -0.0127673 0.99991 
-0.00393246 -0.00589272 0.999975 
-0.00360198 0.00389446 0.999986 
-0.00310555 0.0178489 0.999836 
-0.00120158 0.0367753 0.999323 
0.00156847 0.0621667 0.998065 
0.00471647 0.0983506 0.995141 
0.00821117 0.150889 0.988517 
0.0153361 0.213783 0.976761 
0.0107658 0.306939 0.951668 
0.0147158 0.409681 0.91211 
0.0343993 0.495389 0.86799 
0.0125866 0.59212 0.805752 
-0.00585091 0.704649 0.709532 
0.00123723 0.852306 0.523041 
-0.0041812 0.985764 -0.168076 
-0.0162776 0.899634 -0.436341 
-0.033574 0.623132 -0.781396 
0.00272629 0.532229 -0.846596 
-0.0719205 0.443026 -0.893619 
-0.0141644 0.394006 -0.918999 
-0.0146182 0.296073 -0.955053 
-0.0116645 0.210303 -0.977567 
-0.00683692 0.142275 -0.989804 
-0.00463396 0.0921073 -0.995738 
-0.000173773 0.056808 -0.998385 
0.001796 0.0321408 -0.999482 
0.00298285 0.0147781 -0.999886 
0.00350878 0.00179213 -0.999992 
0.00403711 -0.00750627 -0.999964 
0.00421255 -0.0137159 -0.999897 
0.00427026 -0.0175136 -0.999838 
0.00421095 -0.0196465 -0.999798 
0.00388536 -0.0208082 -0.999776 
0.00335249 -0.0212813 -0.999768 
0.0027123 -0.0212569 -0.99977 
0.00206557 -0.0208647 -0.99978 
0.00147729 -0.0201759 -0.999795 
0.00100314 -0.0192275 -0.999815 
0.000627224 -0.0180743 -0.999836 
0.000357053 -0.0167527 -0.99986 
0.000160824 -0.0153088 -0.999883 
1.80433e-05 -0.0137914 -0.999905 
-9.31194e-05 -0.0122357 -0.999925 
-0.000170999 -0.0106691 -0.999943 
-0.000229492 -0.00910612 -0.999959 
-0.000270619 -0.0075604 -0.999971 
-0.000283241 -0.00606394 -0.999982 
-0.000272957 -0.00465099 -0.999989 
-0.000260365 -0.00333331 -0.999994 
-0.000230706 -0.0021407 -0.999998 
-0.000156042 -0.00109283 -0.999999 
-2.87021e-05 -0.00029666 -1 
0.000125272 0.000291015 -1 
0.000464731 0.00054176 -1 
-0.00040514 0.00011996 1 
-0.000198697 -7.55827e-05 1 
-6.81868e-05 -0.000433377 1 
3.62676e-05 -0.00105202 0.999999 
-4.5862e-05 -0.00189803 0.999998 
7.29062e-05 -0.0020566 0.999998 
6.7061e-05 -0.00328758 0.999995 
4.71963e-05 -0.00471077 0.999989 
5.8507e-05 -0.00628948 0.99998 
-0.000159063 -0.00769558 0.99997 
-0.000204337 -0.00922017 0.999957 
-0.000283801 -0.0107632 0.999942 
-0.000463815 -0.0122892 0.999924 
-0.000647412 -0.0138378 0.999904 
-0.000886491 -0.0152861 0.999883 
-0.0012249 -0.0166042 0.999861 
-0.00165099 -0.017744 0.999841 
-0.00221186 -0.0186012 0.999825 
-0.00290899 -0.0192918 0.99981 
-0.00368841 -0.0197584 0.999798 
-0.00455513 -0.0198489 0.999793 
-0.00533461 -0.019477 0.999796 
-0.00583319 -0.0185757 0.99981 
-0.0059439 -0.0169675 0.999838 
-0.00556001 -0.0142133 0.999884 
-0.00465453 -0.00961995 0.999943 
-0.0032607 -0.00231697 0.999992 
-0.00147999 0.00888266 0.999959 
0.00120544 0.023875 0.999714 
0.00658667 0.0446652 0.99898 
0.0148857 0.0735186 0.997183 
0.0242363 0.115667 0.992992 
0.0425113 0.16617 0.98518 
0.0461265 0.251009 0.966885 
0.0641637 0.343049 0.937123 
0.0839086 0.419245 0.903987 
0.0674814 0.629925 0.773719 
0.0530741 0.740841 0.669581 
0.0286076 0.980813 0.192838 
0.0111993 0.998965 0.0440794 
-0.0306765 0.930624 -0.364689 
-0.0391662 0.7438 -0.667254 
-0.0783592 0.521152 -0.849859 
-0.140427 0.404882 -0.903522 
-0.0779152 0.353817 -0.932064 
-0.0620875 0.274912 -0.959463 
-0.046971 0.193541 -0.979967 
-0.0296394 0.129774 -0.9911 
-0.018982 0.0832732 -0.996346 
-0.00841982 0.0532668 -0.998545 
-0.00266965 0.0299154 -0.999549 
0.000657858 0.013265 -0.999912 
0.00259047 0.00103957 -0.999996 
0.00410027 -0.00764407 -0.999962 
0.00503564 -0.0133496 -0.999898 
0.00563956 -0.0165759 -0.999847 
0.00583031 -0.0183596 -0.999814 
0.0055458 -0.0193342 -0.999798 
0.00489702 -0.0197839 -0.999792 
0.00408226 -0.0198115 -0.999795 
0.00325516 -0.0195007 -0.999805 
0.00252131 -0.0189107 -0.999818 
0.0019202 -0.0180889 -0.999835 
0.00144892 -0.0170783 -0.999853 
0.00108026 -0.0158891 -0.999873 
0.000798061 -0.0145518 -0.999894 
0.000578355 -0.0131195 -0.999914 
0.000406446 -0.0116407 -0.999932 
0.000264221 -0.0101387 -0.999949 
0.000143488 -0.00863704 -0.999963 
4.60012e-05 -0.00716566 -0.999974 
-2.62644e-05 -0.00574695 -0.999983 
-7.54946e-05 -0.00439457 -0.99999 
-9.9829e-05 -0.00314515 -0.999995 
-9.86327e-05 -0.00202455 -0.999998 
-5.22397e-05 -0.00110919 -0.999999 
6.56214e-05 -0.00037207 -1 
0.000200999 4.60121e-06 -1 
0.000389904 9.87346e-05 -1 
-0.000209069 -4.68655e-05 1 
-0.000142747 -0.000144479 1 
-8.91284e-05 -0.000506029 1 
-3.66721e-05 -0.00109912 0.999999 
-0.000233387 -0.00188493 0.999998 
-0.000133636 -0.00299371 0.999996 
-0.000205677 -0.00434864 0.999991 
-0.000216855 -0.00599527 0.999982 
-0.000527511 -0.00740619 0.999972 
-0.000695758 -0.00897226 0.99996 
-0.000838091 -0.0104254 0.999945 
-0.00104847 -0.0118627 0.999929 
-0.00129685 -0.0132904 0.999911 
-0.00161106 -0.0146208 0.999892 
-0.00199529 -0.0157887 0.999873 
-0.00248991 -0.0167674 0.999856 
-0.00314066 -0.0175173 0.999842 
-0.00389323 -0.0180772 0.999829 
-0.0047891 -0.018429 0.999819 
-0.00572744 -0.0184736 0.999813 
-0.00656877 -0.0181044 0.999815 
-0.00701611 -0.0173384 0.999825 
-0.00689974 -0.0160091 0.999848 
-0.00612091 -0.0138033 0.999886 
-0.00462444 -0.0100024 0.999939 
-0.00233588 -0.00394115 0.99999 
0.00103032 0.00559515 0.999984 
0.00637502 0.0192036 0.999795 
0.0148943 0.0363628 0.999228 
0.0278635 0.0633434 0.997603 
0.0428854 0.100852 0.993977 
0.069906 0.149722 0.986254 
0.0837225 0.230441 0.969478 
0.102008 0.145871 0.984031 
0.121751 0.24537 0.961754 
0.128127 0.328199 0.935879 
0.0972054 0.529137 0.84295 
0.129144 0.661234 0.73898 
0.0453975 0.975724 0.214249 
0.00155563 0.964221 -0.265094 
-0.0762482 0.756055 -0.650052 
-0.121136 0.745723 -0.655152 
-0.155837 0.485176 -0.860418 
-0.204122 0.395187 -0.895635 
-0.134551 0.315121 -0.939465 
-0.112554 0.242205 -0.963674 
-0.0833157 0.185677 -0.979072 
-0.0573553 0.124886 -0.990512 
-0.0387447 0.0806395 -0.99599 
-0.0215344 0.050958 -0.998469 
-0.010578 0.0307342 -0.999472 
-0.00442446 0.0135549 -0.999898 
-0.000241136 0.00191592 -0.999998 
0.00302871 -0.0063437 -0.999975 
0.00497247 -0.0118338 -0.999918 
0.00625908 -0.0150721 -0.999867 
0.00690459 -0.0168099 -0.999835 
0.00690459 -0.0177561 -0.999819 
0.00636079 -0.0182699 -0.999813 
0.00550012 -0.0184579 -0.999815 
0.00456881 -0.0183236 -0.999822 
0.00370741 -0.0179133 -0.999833 
0.00298356 -0.0172761 -0.999846 
0.00240114 -0.0164244 -0.999862 
0.00192537 -0.015416 -0.999879 
0.00155041 -0.0142068 -0.999898 
0.00125182 -0.0128713 -0.999916 
0.00101367 -0.011458 -0.999934 
0.000811741 -0.0100137 -0.99995 
0.000637723 -0.00856387 -0.999963 
0.000490874 -0.00712831 -0.999974 
0.000363194 -0.00574279 -0.999983 
0.000247998 -0.00443291 -0.99999 
0.000156515 -0.00321803 -0.999995 
9.10004e-05 -0.00214218 -0.999998 
6.66999e-05 -0.00123586 -0.999999 
7.89764e-05 -0.000550085 -1 
0.000149869 -0.000148967 -1 
0.000221273 -6.08734e-05 -1 
-4.01919e-05 1.35129e-05 1 
-5.99987e-05 -0.000102346 1 
-0.000136798 -0.000455849 1 
-0.000175483 -0.00105207 0.999999 
-0.000342598 -0.00293213 0.999996 
-0.000447322 -0.00415387 0.999991 
-0.000461674 -0.00382333 0.999993 
-0.000491204 -0.00567863 0.999984 
-0.000740209 -0.006665 0.999978 
-0.000920272 -0.00813434 0.999966 
-0.00114809 -0.00958338 0.999953 
-0.00138397 -0.0109295 0.999939 
-0.00165689 -0.0122974 0.999923 
-0.00200662 -0.0135652 0.999906 
-0.00242707 -0.0146739 0.999889 
-0.00293201 -0.0156077 0.999874 
-0.00357983 -0.016285 0.999861 
-0.00435107 -0.0167915 0.99985 
-0.00523854 -0.0171354 0.999839 
-0.00624943 -0.0172074 0.999832 
-0.00721422 -0.0169852 0.99983 
-0.00791376 -0.0164539 0.999833 
-0.00805571 -0.0155999 0.999846 
-0.00747901 -0.014236 0.999871 
-0.00604561 -0.0119015 0.999911 
-0.00366153 -0.00806598 0.999961 
0.000117076 -0.00193837 0.999998 
0.00566598 0.00682081 0.999961 
0.0141149 0.0178214 0.999742 
0.0273963 0.036491 0.998958 
0.0466362 0.0620416 0.996983 
0.0664997 0.0922842 0.99351 
0.0965849 0.0906712 0.991186 
0.135867 0.120975 0.983313 
0.149323 0.206361 0.967015 
0.158625 0.407232 0.899444 
0.148342 0.501127 0.852564 
0.0620102 0.871315 0.48679 
0.0257426 0.871768 0.489243 
0.0405492 0.988339 0.14677 
-0.000128769 0.980247 -0.197776 
-0.126742 0.793961 -0.594606 
-0.225227 0.512628 -0.828544 
-0.197793 0.300847 -0.932936 
-0.169833 0.235266 -0.956978 
-0.133583 0.174101 -0.975625 
-0.0945117 0.134014 -0.986462 
-0.0662571 0.0875506 -0.993954 
-0.0429302 0.0538312 -0.997627 
-0.0253019 0.033448 -0.99912 
-0.0133425 0.018508 -0.99974 
-0.00564431 0.00568653 -0.999968 
5.05521e-05 -0.00287619 -0.999996 
0.00370082 -0.0086901 -0.999955 
0.00597432 -0.0125718 -0.999903 
0.00735733 -0.0147858 -0.999864 
0.00796301 -0.0159747 -0.999841 
0.0078557 -0.0166141 -0.999831 
0.00717328 -0.017011 -0.99983 
0.00621753 -0.0171821 -0.999833 
0.00523705 -0.0170903 -0.99984 
0.0043473 -0.0167575 -0.99985 
0.00358763 -0.0162215 -0.999862 
0.00296099 -0.0154545 -0.999876 
0.0024427 -0.0145865 -0.999891 
0.00202092 -0.0134726 -0.999907 
0.00167817 -0.01223 -0.999924 
0.00138918 -0.010886 -0.99994 
0.00114076 -0.00950425 -0.999954 
0.00092708 -0.00810769 -0.999967 
0.000747277 -0.00672694 -0.999977 
0.000588348 -0.00538216 -0.999985 
0.000452125 -0.00412681 -0.999991 
0.000342829 -0.00297626 -0.999996 
0.000254421 -0.00196996 -0.999998 
0.000185618 -0.00112403 -0.999999 
0.000136634 -0.000509632 -1 
8.63649e-05 -0.000119729 -1 
3.19973e-05 4.84928e-06 -1 
7.59759e-05 6.60697e-05 1 
2.89637e-05 -7.28733e-05 1 
-7.42423e-05 -0.000466237 1 
-0.000153896 -0.00102566 0.999999 
-0.000247152 -0.00186468 0.999998 
-0.000354836 -0.00289344 0.999996 
-0.000633122 -0.00486097 0.999988 
-0.000597636 -0.0050618 0.999987 
-0.0007911 -0.00620922 0.99998 
-0.00101543 -0.00762393 0.99997 
-0.00128349 -0.00903005 0.999958 
-0.00158262 -0.010361 0.999945 
-0.00189134 -0.0116822 0.99993 
-0.00225689 -0.0128526 0.999915 
-0.0027043 -0.0138852 0.9999 
-0.00323443 -0.0147345 0.999886 
-0.0038785 -0.0153213 0.999875 
-0.00462566 -0.0157544 0.999865 
-0.00548932 -0.0160213 0.999857 
-0.00645534 -0.016089 0.99985 
-0.00744226 -0.0158864 0.999846 
-0.00827253 -0.0155394 0.999845 
-0.00866463 -0.0148997 0.999851 
-0.00841415 -0.0139853 0.999867 
-0.00732353 -0.0125448 0.999894 
-0.00518473 -0.0101514 0.999935 
-0.00155634 -0.00629583 0.999979 
0.0041548 -0.000717294 0.999991 
0.0128775 0.00640454 0.999897 
0.0269231 0.0196195 0.999445 
0.0461521 0.0371648 0.998243 
0.0721079 0.0553319 0.995861 
0.11807 0.0569573 0.99137 
0.168716 0.0831534 0.982151 
0.198669 0.283049 0.938304 
0.234209 0.363007 0.901872 
0.181234 0.613124 0.768916 
0.213328 0.489349 0.845594 
0.0888856 0.90911 0.406962 
-0.0106474 0.967396 -0.253043 
-0.00653217 0.997484 -0.0705855 
-0.180263 0.745745 -0.641381 
-0.274333 0.424236 -0.862998 
-0.240929 0.203514 -0.948965 
-0.187052 0.164636 -0.968456 
-0.136665 0.11285 -0.984168 
-0.0962901 0.0837214 -0.991826 
-0.0644083 0.0500206 -0.996669 
-0.0441759 0.0270429 -0.998658 
-0.0280168 0.0195233 -0.999417 
-0.0144298 0.00907829 -0.999855 
-0.00496395 -0.000478785 -0.999988 
0.00134653 -0.00669114 -0.999977 
0.00504279 -0.0105232 -0.999932 
0.00713738 -0.0129717 -0.99989 
0.008262 -0.0144153 -0.999862 
0.00858525 -0.0151594 -0.999848 
0.00826496 -0.0156043 -0.999844 
0.00750048 -0.0159186 -0.999845 
0.00654804 -0.0160821 -0.999849 
0.0055972 -0.0160314 -0.999856 
0.00473257 -0.0157804 -0.999864 
0.00398548 -0.0153788 -0.999874 
0.00333924 -0.0147283 -0.999886 
0.00278704 -0.0139338 -0.999899 
0.00232631 -0.0129078 -0.999914 
0.00193966 -0.0117147 -0.99993 
0.0016087 -0.0104416 -0.999944 
0.00132062 -0.00913449 -0.999957 
0.0010668 -0.0077823 -0.999969 
0.000844432 -0.00643542 -0.999979 
0.000649229 -0.00514922 -0.999987 
0.000480437 -0.00393156 -0.999992 
0.0003424 -0.0028272 -0.999996 
0.00022997 -0.00186008 -0.999998 
0.000137702 -0.001053 -0.999999 
6.80733e-05 -0.000456229 -1 
-1.36661e-05 -7.54645e-05 -1 
-8.38293e-05 6.59355e-05 -1 
0.000153618 0.000145772 1 
6.94518e-05 -7.34674e-06 1 
-2.99674e-05 -0.000462215 1 
-0.000121639 -0.00107395 0.999999 
-0.000213629 -0.00179208 0.999998 
-0.000326175 -0.00256233 0.999997 
-0.000476335 -0.00357765 0.999993 
-0.000714638 -0.00478527 0.999988 
-0.000900695 -0.00617681 0.999981 
-0.00115529 -0.0075413 0.999971 
-0.00144283 -0.00884994 0.99996 
-0.00175295 -0.0101027 0.999947 
-0.0020764 -0.0113128 0.999934 
-0.00246329 -0.012458 0.999919 
-0.00291452 -0.0133897 0.999906 
-0.00345028 -0.014152 0.999894 
-0.00406276 -0.0146195 0.999885 
-0.00477807 -0.0149932 0.999876 
-0.0055537 -0.015177 0.999869 
-0.00640629 -0.0152459 0.999863 
-0.00721645 -0.0150827 0.99986 
-0.00792811 -0.0148235 0.999859 
-0.00830079 -0.014438 0.999861 
-0.008103 -0.0139057 0.99987 
-0.00711287 -0.0130995 0.999889 
-0.00499877 -0.0117525 0.999918 
-0.001395 -0.00961682 0.999953 
0.00449292 -0.00689602 0.999966 
0.0148366 -0.00230155 0.999887 
0.0294238 0.00569896 0.999551 
0.0497439 0.0169265 0.998619 
0.0788248 0.0279143 0.996498 
0.108832 0.0115536 0.993993 
0.15089 0.020834 0.988331 
0.187885 0.173367 0.966769 
0.259883 0.257572 0.930654 
0.292873 0.201702 0.934635 
0.275423 0.449344 0.849842 
0.225558 0.666843 0.710242 
0.138884 0.781209 0.608624 
-0.0512201 0.944614 -0.32416 
-0.132792 0.595887 -0.792013 
-0.262948 0.300216 -0.916913 
-0.277468 0.129189 -0.952009 
-0.202251 0.104623 -0.973729 
-0.152265 0.0641493 -0.986256 
-0.104451 0.0455254 -0.993488 
-0.0754989 0.0204251 -0.996937 
-0.048102 0.0054936 -0.998827 
-0.0284723 0.00239872 -0.999592 
-0.0152694 -0.000646919 -0.999883 
-0.00551238 -0.00653515 -0.999963 
0.00104679 -0.0100909 -0.999949 
0.00487639 -0.0121982 -0.999914 
0.00696608 -0.0134849 -0.999885 
0.00800448 -0.0142557 -0.999866 
0.00823431 -0.014706 -0.999858 
0.00790952 -0.0149457 -0.999857 
0.00725505 -0.015126 -0.999859 
0.00644831 -0.0152412 -0.999863 
0.00561693 -0.0152189 -0.999868 
0.0048421 -0.0150263 -0.999875 
0.00413359 -0.0146446 -0.999884 
0.00351659 -0.0141196 -0.999894 
0.00296714 -0.0133696 -0.999906 
0.00250194 -0.0124324 -0.99992 
0.00210362 -0.011307 -0.999934 
0.00176029 -0.0101053 -0.999947 
0.00145285 -0.00881303 -0.99996 
0.00118145 -0.0075128 -0.999971 
0.000937114 -0.00620196 -0.99998 
0.000714457 -0.00493861 -0.999988 
0.000517419 -0.00373796 -0.999993 
0.000350346 -0.00266534 -0.999996 
0.000210327 -0.00173605 -0.999998 
9.73672e-05 -0.000973767 -1 
1.00017e-05 -0.000413647 -1 
-8.00965e-05 -2.82364e-05 -1 
-0.000169667 0.000125848 -1 
0.000195683 0.00024514 1 
0.000105679 0.000136742 1 
-1.36892e-05 -0.000308328 1 
-0.000123923 -0.000899201 1 
-0.000244183 -0.00166262 0.999999 
-0.000389488 -0.00254878 0.999997 
-0.000564562 -0.00362873 0.999993 
-0.000777694 -0.00480924 0.999988 
-0.000973851 -0.00602775 0.999981 
-0.00122039 -0.00730736 0.999973 
-0.00149341 -0.00857664 0.999962 
-0.00179975 -0.00986109 0.99995 
-0.00212779 -0.0110441 0.999937 
-0.00249273 -0.0120907 0.999924 
-0.00292202 -0.0129945 0.999911 
-0.00341607 -0.0136481 0.999901 
-0.00399768 -0.0141493 0.999892 
-0.00462646 -0.0144234 0.999885 
-0.00529666 -0.014596 0.999879 
-0.00596254 -0.0146312 0.999875 
-0.00658342 -0.014641 0.999871 
-0.00706774 -0.0145676 0.999869 
-0.00725124 -0.0144798 0.999869 
-0.00696143 -0.0144012 0.999872 
-0.00596973 -0.014299 0.99988 
-0.0040103 -0.0140447 0.999893 
-0.000470979 -0.0136878 0.999906 
0.00556564 -0.0131341 0.999898 
0.0152395 -0.012668 0.999804 
0.0278527 -0.0110879 0.999551 
0.0444902 -0.00594746 0.998992 
0.0685426 -0.00270914 0.997645 
0.100107 -0.0202521 0.994771 
0.146062 -0.0308653 0.988794 
0.220927 0.128049 0.966848 
0.204218 0.0388769 0.978153 
0.260105 0.0690684 0.963107 
0.345833 0.379406 0.858167 
0.187751 0.80166 0.567531 
-0.0288259 0.983936 -0.176181 
-0.248006 0.616269 -0.747466 
-0.331994 0.209447 -0.919735 
-0.161118 0.291002 -0.943058 
-0.234445 0.0519583 -0.97074 
-0.182047 0.0254301 -0.982961 
-0.126772 0.0111588 -0.991869 
-0.0937225 -0.00982171 -0.99555 
-0.0643868 -0.0121849 -0.997851 
-0.043889 -0.0196857 -0.998842 
-0.0300179 -0.0126031 -0.99947 
-0.0161225 -0.0112728 -0.999806 
-0.0065718 -0.0131382 -0.999892 
-9.45225e-05 -0.013986 -0.999902 
0.00372767 -0.0144112 -0.999889 
0.00582717 -0.0146015 -0.999876 
0.00690724 -0.014676 -0.999868 
0.00718791 -0.0147179 -0.999866 
0.00701276 -0.0147056 -0.999867 
0.00656838 -0.0147086 -0.99987 
0.00597566 -0.0147198 -0.999874 
0.00532062 -0.0146619 -0.999878 
0.00467669 -0.0145121 -0.999884 
0.00404904 -0.0141767 -0.999891 
0.00347313 -0.0136781 -0.9999 
0.0029604 -0.0129583 -0.999912 
0.00252514 -0.0120874 -0.999924 
0.00214424 -0.0110244 -0.999937 
0.00181263 -0.00985413 -0.99995 
0.00151615 -0.00861023 -0.999962 