# vtk DataFile Version 3.0 
Exported using Morpho https://github.com/Morpho-lang/morpho 
ASCII 
DATASET UNSTRUCTURED_GRID 

POINTS 1978 float 
-8.48528 -2.82843 -2.1434e-14 
-8.27215 -2.82843 -3.56577e-14 
-7.97581 -2.82843 -2.00727e-14 
-7.7237 -2.82843 -1.03842e-14 
-7.49704 -2.82843 1.03382e-14 
-7.28327 -2.82843 -9.79985e-15 
-7.06345 -2.82843 9.29662e-15 
-6.74786 -2.82843 1.27754e-14 
-6.54652 -2.82843 8.18775e-15 
-6.34377 -2.82843 5.26552e-15 
-6.1221 -2.82843 5.26524e-15 
-5.91025 -2.82843 6.42244e-15 
-5.69929 -2.82843 2.95124e-15 
-5.48575 -2.82843 -1.85918e-15 
-5.27563 -2.82843 -4.40633e-15 
-5.06486 -2.82843 -9.47515e-15 
-4.85415 -2.82843 -1.49237e-14 
-4.64633 -2.82843 -1.0754e-14 
-4.4355 -2.82843 2.3612e-14 
-4.22595 -2.82843 1.8139e-14 
-4.01723 -2.82843 5.36494e-14 
-3.8059 -2.82843 9.26232e-14 
-3.59537 -2.82843 1.67787e-13 
-3.3848 -2.82843 2.23933e-13 
-3.17408 -2.82843 3.08574e-13 
-2.96494 -2.82843 3.31571e-13 
-2.7623 -2.82843 2.3362e-13 
-2.5605 -2.82843 4.14346e-13 
-2.33301 -2.82843 3.34435e-13 
-2.10898 -2.82843 1.9284e-12 
-1.88356 -2.82843 6.07184e-12 
-1.65065 -2.82843 2.08727e-11 
-1.4365 -2.82843 6.19747e-11 
-1.25738 -2.82843 2.06217e-10 
-1.08196 -2.82843 3.38794e-10 
-0.919519 -2.82843 8.13439e-10 
-0.775042 -2.82843 1.95693e-09 
-0.642874 -2.82843 2.03333e-09 
-0.469132 -2.82843 6.82978e-09 
-0.20147 -2.82843 -3.94896e-09 
0.454871 -2.82843 -2.26591e-08 
0.632738 -2.82843 -1.03482e-08 
0.785529 -2.82843 -1.00705e-09 
0.932651 -2.82843 -1.43106e-09 
1.07375 -2.82843 -4.27324e-10 
1.2468 -2.82843 -1.84391e-10 
1.44484 -2.82843 -6.04944e-11 
1.66952 -2.82843 -1.74445e-11 
1.88908 -2.82843 -4.65729e-12 
2.13255 -2.82843 -1.35007e-12 
2.36483 -2.82843 -6.98244e-13 
2.58645 -2.82843 -2.9848e-13 
2.77711 -2.82843 -2.4659e-13 
2.97642 -2.82843 -3.21581e-13 
3.1847 -2.82843 -3.26841e-13 
3.39754 -2.82843 -2.52386e-13 
3.614 -2.82843 -1.67386e-13 
3.82676 -2.82843 -9.33554e-14 
4.03729 -2.82843 -4.48056e-14 
4.2459 -2.82843 -4.11506e-15 
4.45389 -2.82843 -8.63163e-15 
4.66273 -2.82843 6.82485e-15 
4.87329 -2.82843 6.94332e-15 
5.08355 -2.82843 4.78111e-15 
5.29519 -2.82843 1.54552e-15 
5.50701 -2.82843 -1.66807e-16 
5.71974 -2.82843 -3.62151e-15 
5.93367 -2.82843 -4.90896e-15 
6.15018 -2.82843 -4.79038e-15 
6.36735 -2.82843 -3.98502e-15 
6.58666 -2.82843 -8.38954e-15 
6.81038 -2.82843 -1.50644e-14 
7.03819 -2.82843 -4.01923e-15 
7.26759 -2.82843 6.97381e-16 
7.5029 -2.82843 -3.84667e-15 
7.74293 -2.82843 1.42986e-14 
7.99109 -2.82843 1.54676e-14 
8.23003 -2.82843 2.82795e-14 
8.48528 -2.82843 2.21569e-14 
-8.48528 -2.59975 2.24171e-14 
-8.24385 -2.57477 -1.65614e-18 
-8.01833 -2.63879 -5.52125e-17 
-7.73648 -2.61332 -9.05973e-17 
-7.49547 -2.60111 -1.47152e-16 
-7.27337 -2.59536 -2.47806e-16 
-7.06593 -2.56446 -3.04434e-16 
-6.86676 -2.66495 -1.31902e-15 
-6.61523 -2.57304 -9.71657e-16 
-6.41091 -2.5791 -1.03973e-15 
-6.19804 -2.59963 -1.46153e-15 
-5.97807 -2.59576 -1.62285e-15 
-5.76244 -2.59636 -1.70632e-15 
-5.54632 -2.60044 -1.66123e-15 
-5.33029 -2.59828 -1.26121e-15 
-5.11541 -2.59981 -6.63814e-16 
-4.8996 -2.59967 7.77879e-17 
-4.68473 -2.5969 5.00985e-16 
-4.47149 -2.60089 5.73275e-16 
-4.25533 -2.60071 -1.72737e-16 
-4.03859 -2.59961 -2.03062e-15 
-3.82116 -2.60127 -4.98155e-17 
-3.59876 -2.59455 -1.07693e-16 
-3.37613 -2.59733 -1.8609e-16 
-3.15202 -2.59566 -2.57947e-16 
-2.92709 -2.58877 -1.92374e-16 
-2.70214 -2.58139 2.77523e-16 
-2.46182 -2.59119 2.00548e-15 
-2.21507 -2.57642 5.878e-15 
-1.97069 -2.57125 -7.07287e-15 
-1.72941 -2.58891 1.84754e-14 
-1.48956 -2.58674 -1.6699e-13 
-1.29642 -2.60645 -3.47585e-13 
-1.10538 -2.63279 -1.46333e-12 
-0.940421 -2.63709 -2.3603e-12 
-0.804768 -2.67046 -2.39109e-12 
-0.670205 -2.69958 -6.03712e-12 
-0.536999 -2.74397 -1.19553e-11 
-0.367245 -2.77907 -8.2469e-12 
0.0892847 -2.81107 -1.21391e-10 
0.386508 -2.79421 1.36081e-11 
0.689914 -2.71422 1.61104e-11 
0.835243 -2.69622 1.20883e-11 
0.862455 -2.53086 -3.25006e-12 
0.975586 -2.65806 2.55856e-12 
1.12711 -2.63061 1.32932e-12 
1.29898 -2.60356 6.8409e-13 
1.51619 -2.59744 2.03736e-13 
1.75117 -2.57716 -1.7302e-14 
2.00703 -2.59095 7.99086e-15 
2.26527 -2.58849 -5.94292e-15 
2.50971 -2.58851 -1.75833e-15 
2.74033 -2.56935 -1.14614e-16 
2.95482 -2.59053 1.59683e-16 
3.17369 -2.59682 2.60314e-16 
3.39933 -2.59612 1.7406e-16 
3.62404 -2.60061 9.62846e-17 
3.84275 -2.59999 4.17809e-17 
4.0573 -2.59867 1.54329e-15 
4.2693 -2.5976 -9.86508e-17 
4.48057 -2.59769 -6.27283e-16 
4.69212 -2.5986 -5.28227e-16 
4.90369 -2.59777 2.13837e-17 
5.1161 -2.59874 6.90614e-16 
5.32837 -2.59796 1.24605e-15 
5.54172 -2.59802 1.55431e-15 
5.75562 -2.59774 1.64274e-15 
5.97072 -2.59792 1.59219e-15 
6.18652 -2.59596 1.41646e-15 
6.40402 -2.59473 1.18774e-15 
6.62462 -2.59564 9.36607e-16 
6.84806 -2.59599 6.6108e-16 
7.07397 -2.59504 4.16511e-16 
7.30494 -2.59884 2.48892e-16 
7.54042 -2.60153 1.24539e-16 
7.78136 -2.60694 8.21385e-17 
8.01788 -2.60566 -5.0548e-18 
8.26444 -2.61016 -3.69029e-18 
8.48528 -2.58312 -2.69694e-14 
-8.48528 -2.37067 2.17781e-14 
-8.2714 -2.31619 3.63059e-17 
-8.04738 -2.39508 5.67144e-17 
-7.8128 -2.41985 1.95175e-17 
-7.59215 -2.17235 -3.5403e-17 
-7.56088 -2.39151 2.36201e-17 
-7.3146 -2.35351 -2.44704e-17 
-7.05467 -2.35749 -7.72823e-17 
-6.79736 -2.43491 2.03023e-16 
-6.55987 -2.32335 -9.54642e-17 
-6.34085 -2.34847 -1.22165e-16 
-6.12212 -2.36894 -2.44933e-16 
-5.90069 -2.36532 -1.3049e-17 
-5.67928 -2.36993 -5.51501e-17 
-5.46088 -2.37148 6.39901e-17 
-5.24218 -2.37131 2.02685e-16 
-5.02406 -2.37361 2.11582e-16 
-4.80675 -2.37094 4.35773e-16 
-4.58971 -2.36921 4.05783e-16 
-4.37526 -2.37414 3.84342e-16 
-4.15909 -2.37383 5.00696e-16 
-3.94192 -2.37276 4.25519e-16 
-3.7237 -2.37422 -6.80412e-16 
-3.49974 -2.36903 -2.62602e-15 
-3.27696 -2.36748 -4.84671e-17 
-3.05156 -2.36278 -4.4091e-17 
-2.82162 -2.34944 7.42245e-17 
-2.57929 -2.35561 4.03316e-16 
-2.33549 -2.34571 1.95815e-15 
-2.08432 -2.3279 8.03316e-15 
-1.83381 -2.33194 -2.87322e-15 
-1.59276 -2.36416 -1.59982e-14 
-1.36696 -2.3517 1.77741e-14 
-1.1757 -2.43687 -3.00233e-13 
-0.988859 -2.43921 -6.79893e-13 
-0.828221 -2.47981 2.68248e-14 
-0.556505 -2.61935 7.67559e-13 
-0.42649 -2.67105 -1.38268e-11 
-0.149457 -2.72258 -1.51147e-11 
-0.0572954 -2.77803 2.16484e-11 
0.300285 -2.76328 -9.10439e-12 
0.558231 -2.74809 -1.82197e-11 
0.737368 -2.5825 -1.07701e-12 
0.795447 -2.37447 -2.37305e-12 
0.989633 -2.46677 -7.10348e-13 
1.1264 -2.40308 2.76415e-13 
1.31619 -2.38206 -1.90849e-14 
1.52937 -2.35756 2.01757e-14 
1.75583 -2.3294 9.67365e-15 
1.99401 -2.35687 -4.78851e-15 
2.25409 -2.3546 -1.38725e-15 
2.50063 -2.35006 -1.93016e-16 
2.73634 -2.33749 -3.77588e-17 
2.97051 -2.35282 1.15595e-16 
3.19938 -2.37202 5.78922e-17 
3.42634 -2.37287 3.24689e-17 
3.64672 -2.37316 1.48026e-15 
3.86272 -2.37093 6.65247e-17 
4.07604 -2.36867 -4.2695e-16 
4.28838 -2.36747 -4.91675e-16 
4.50006 -2.36742 -5.11827e-16 
4.71197 -2.36817 -5.18456e-16 
4.92498 -2.36793 -4.172e-16 
5.1373 -2.36779 -2.81428e-16 
5.35145 -2.36784 -1.16883e-16 
5.56584 -2.36715 2.88656e-17 
5.7803 -2.36616 8.71195e-17 
5.995 -2.36466 1.28917e-16 
6.21157 -2.36215 1.57973e-16 
6.43076 -2.36087 1.71131e-16 
6.6511 -2.36078 1.6803e-16 
6.87436 -2.36099 1.4832e-16 
7.10305 -2.36346 1.06181e-16 
7.33578 -2.36994 5.58091e-17 
7.57387 -2.3769 5.91524e-17 
7.80707 -2.37606 1.51494e-17 
8.04549 -2.38779 -3.27402e-17 
8.26774 -2.36153 -5.94363e-17 
8.48528 -2.33336 -2.02498e-14 
-8.48528 -2.11876 1.71812e-14 
-8.27434 -2.05606 -3.86904e-18 
-8.05528 -2.15362 1.8875e-17 
-7.82622 -2.19613 -2.69502e-17 
-7.59662 -1.95049 1.10966e-16 
-7.35023 -2.14449 1.23561e-17 
-7.09173 -2.14879 8.59113e-17 
-6.81736 -2.22265 -3.30719e-17 
-6.57155 -2.10988 2.42439e-16 
-6.32949 -2.11223 3.63677e-16 
-6.11338 -2.13607 5.54866e-16 
-5.89627 -2.13238 3.70803e-16 
-5.67846 -2.14168 6.10185e-16 
-5.45956 -2.14261 6.86179e-16 
-5.24289 -2.14254 7.33574e-16 
-5.02541 -2.14652 7.95354e-16 
-4.8107 -2.14062 6.24393e-16 
-4.5959 -2.14215 6.56568e-16 
-4.37825 -2.14438 5.6948e-16 
-4.163 -2.14557 4.72749e-16 
-3.94632 -2.14463 4.15504e-16 
-3.72752 -2.14592 2.70599e-16 
-3.50665 -2.14255 -7.42613e-16 
-3.2814 -2.13635 -1.45677e-15 
-3.05222 -2.13164 -3.69178e-17 
-2.8128 -2.12145 -1.42441e-16 
-2.56815 -2.12141 -2.04547e-16 
-2.31544 -2.10867 -3.4896e-16 
-2.05995 -2.09055 -4.51141e-16 
-1.79534 -2.10342 4.8084e-15 
-1.55638 -2.13944 -1.74373e-15 
-1.32262 -2.14801 1.98375e-14 
-1.12927 -2.24915 3.05541e-13 
-1.20211 -1.99643 -1.85274e-13 
-1.0066 -2.13341 -3.76805e-13 
-0.912395 -2.28916 -3.17858e-13 
-0.698438 -2.56089 -7.86765e-13 
-0.572763 -2.49235 -1.21186e-13 
-0.171885 -2.57201 5.12195e-12 
0.195424 -2.83915 1.99061e-11 
0.488948 -2.68103 -9.38555e-12 
0.484105 -2.57283 2.18108e-11 
0.686353 -2.45163 -1.19934e-12 
0.666244 -2.26288 3.1379e-13 
0.904098 -2.28408 -6.99614e-13 
1.03635 -2.19855 -1.76232e-14 
1.22157 -2.18212 2.45199e-14 
1.43609 -2.13993 -3.36522e-15 
1.66545 -2.09389 -3.90672e-15 
1.90865 -2.10309 -4.61582e-15 
2.15552 -2.13153 -8.99242e-16 
2.41392 -2.11352 6.79135e-17 
2.65063 -2.10297 9.44806e-17 
2.89138 -2.12003 3.28683e-17 
3.12567 -2.13926 1.28598e-15 
3.35109 -2.14704 5.77777e-16 
3.57572 -2.14506 1.2206e-16 
3.79598 -2.14152 -3.84058e-16 
4.0125 -2.13897 -5.48983e-16 
4.22769 -2.13805 -5.27412e-16 
4.4425 -2.13697 -5.87075e-16 
4.65697 -2.13779 -6.49703e-16 
4.87194 -2.13858 -7.23117e-16 
5.088 -2.13668 -7.00592e-16 
5.30395 -2.13833 -7.62092e-16 
5.52194 -2.13713 -6.70624e-16 
5.7402 -2.13447 -5.98707e-16 
5.95791 -2.1317 -5.15048e-16 
6.17631 -2.12942 -4.43686e-16 
6.39723 -2.12813 -3.62138e-16 
6.62103 -2.12506 -2.75521e-16 
6.84501 -2.12564 -1.84885e-16 
7.0725 -2.13092 -1.05965e-16 
7.30545 -2.13893 -4.60424e-17 
7.54219 -2.14952 -7.74623e-17 
7.78192 -2.1443 5.07419e-17 
8.01968 -2.15554 -1.68729e-17 
8.24919 -2.11779 1.50462e-18 
8.48528 -2.1021 -1.91386e-14 
-8.48528 -1.86339 5.11829e-15 
-8.26881 -1.79354 -9.03603e-18 
-8.06078 -1.90986 6.52908e-18 
[...]
POINT_DATA 1978 
VECTORS vectors float
-0.000131254 0.00100601 0.999999 
5.1831e-05 0.000591219 1 
4.62121e-05 -0.000257155 1 
7.20387e-05 -0.00129615 0.999999 
7.03045e-05 -0.00229038 0.999997 
8.38435e-05 -0.00347495 0.999994 
8.43167e-05 -0.00475227 0.999989 
0.000118164 -0.00687062 0.999976 
0.000131716 -0.00832582 0.999965 
9.86169e-05 -0.00979235 0.999952 
9.77507e-05 -0.0114772 0.999934 
9.97959e-05 -0.0130741 0.999915 
9.35444e-05 -0.0146926 0.999892 
8.80874e-05 -0.0163397 0.999866 
7.12914e-05 -0.0179311 0.999839 
4.14387e-05 -0.019361 0.999813 
9.23844e-06 -0.0206101 0.999788 
-3.55358e-05 -0.0215917 0.999767 
-8.83493e-05 -0.0223153 0.999751 
-0.000148223 -0.0226964 0.999742 
-0.000207475 -0.0226876 0.999743 
-0.000271102 -0.0221351 0.999755 
-0.000343135 -0.0208263 0.999783 
-0.000376561 -0.0185505 0.999828 
-0.000496585 -0.0146951 0.999892 
-0.000681422 -0.00835198 0.999965 
-0.000840218 -0.000186726 1 
-0.000952141 0.0109932 0.999939 
-0.000891708 0.0274112 0.999624 
-0.0011613 0.0478518 0.998854 
-0.00111969 0.0753992 0.997153 
-0.0016597 0.114418 0.993431 
-0.00373772 0.167521 0.985861 
-0.00627655 0.231016 0.97293 
-0.00779339 0.303448 0.952816 
-0.0102844 0.40095 0.916042 
-0.0177536 0.514091 0.857552 
-0.0186923 0.593401 0.80469 
-0.0150074 0.791297 0.611247 
0.00436715 0.973853 0.227138 
-0.00122312 0.857901 -0.513813 
0.0103561 0.708817 -0.705316 
0.0171242 0.503321 -0.86393 
0.0191639 0.43859 -0.898483 
0.0087126 0.322294 -0.946599 
0.00617412 0.233815 -0.972261 
0.00295575 0.163734 -0.9865 
0.00163198 0.109299 -0.994008 
0.00122517 0.0734929 -0.997295 
0.000944962 0.0449516 -0.998989 
0.000912357 0.0247782 -0.999693 
0.000939717 0.00938635 -0.999956 
0.000969947 -0.00117198 -0.999999 
0.000704081 -0.00914831 -0.999958 
0.000452701 -0.0152873 -0.999883 
0.000365628 -0.0188996 -0.999821 
0.000316886 -0.0210816 -0.999778 
0.000260775 -0.0222986 -0.999751 
0.000199892 -0.0227566 -0.999741 
0.000140183 -0.0226906 -0.999743 
8.28535e-05 -0.0222477 -0.999752 
3.05584e-05 -0.0214882 -0.999769 
-1.37593e-05 -0.0204328 -0.999791 
-4.72541e-05 -0.0191471 -0.999817 
-6.90055e-05 -0.0176915 -0.999843 
-8.33371e-05 -0.0161393 -0.99987 
-9.17457e-05 -0.0145377 -0.999894 
-9.58687e-05 -0.0129141 -0.999917 
-9.88086e-05 -0.01127 -0.999936 
-9.99985e-05 -0.00963004 -0.999954 
-9.5672e-05 -0.00800679 -0.999968 
-8.66395e-05 -0.00643021 -0.999979 
-7.67818e-05 -0.00493106 -0.999988 
-6.73842e-05 -0.00354518 -0.999994 
-5.68318e-05 -0.00226884 -0.999997 
-4.65242e-05 -0.0011322 -0.999999 
-2.44626e-05 -0.000161095 -1 
-4.87195e-05 0.000509569 -1 
0.000121353 0.0010379 -0.999999 
-0.000458145 0.000544283 1 
-0.000117852 0.000153454 1 
0.000163129 -0.000252778 1 
0.000240148 -0.00128292 0.999999 
0.000230836 -0.00242422 0.999997 
0.000245199 -0.00355918 0.999994 
0.000253366 -0.00472311 0.999989 
0.000493809 -0.00599066 0.999982 
0.000240187 -0.00758736 0.999971 
0.000204911 -0.00901226 0.999959 
0.000202975 -0.0105731 0.999944 
0.000100375 -0.0121718 0.999926 
-4.02879e-06 -0.0137464 0.999906 
-0.000128117 -0.0153134 0.999883 
-0.000340407 -0.0168002 0.999859 
-0.000622049 -0.0181477 0.999835 
-0.000991279 -0.0193021 0.999813 
-0.00149465 -0.0202107 0.999795 
-0.00205679 -0.0209151 0.999779 
-0.00273001 -0.0212758 0.99977 
-0.00339545 -0.02122 0.999769 
-0.00393743 -0.0206354 0.999779 
-0.00430117 -0.0192791 0.999805 
-0.00439806 -0.0168788 0.999848 
-0.00422521 -0.0127673 0.99991 
-0.00393246 -0.00589272 0.999975 
-0.00360198 0.00389446 0.999986 
-0.00310555 0.0178489 0.999836 
-0.00120158 0.0367753 0.999323 
0.00156847 0.0621667 0.998065 
0.00471647 0.0983506 0.995141 
0.00821117 0.150889 0.988517 
0.0153361 0.213783 0.976761 
0.0107658 0.306939 0.951668 
0.0147158 0.409681 0.91211 
0.0343993 0.495389 0.86799 
0.0125866 0.59212 0.805752 
-0.00585091 0.704649 0.709532 
0.00123723 0.852306 0.523041 
-0.00418121 0.985765 -0.168076 
-0.0162776 0.899634 -0.436341 
-0.033574 0.623132 -0.781396 
0.00272629 0.532229 -0.846596 
-0.0719205 0.443026 -0.893619 
-0.0141644 0.394006 -0.918999 
-0.0146182 0.296073 -0.955053 
-0.0116645 0.210303 -0.977567 
-0.00683692 0.142275 -0.989804 
-0.00463396 0.0921073 -0.995738 
-0.000173773 0.056808 -0.998385 
0.001796 0.0321408 -0.999482 
0.00298285 0.0147781 -0.999886 
0.00350878 0.00179213 -0.999992 
0.00403711 -0.00750627 -0.999964 
0.00421255 -0.0137159 -0.999897 
0.00427026 -0.0175136 -0.999838 
0.00421095 -0.0196465 -0.999798 
0.00388536 -0.0208082 -0.999776 
0.00335249 -0.0212813 -0.999768 
0.0027123 -0.0212569 -0.99977 
0.00206557 -0.0208647 -0.99978 
0.00147729 -0.0201759 -0.999795 
0.00100314 -0.0192275 -0.999815 
0.000627224 -0.0180743 -0.999836 
0.000357053 -0.0167527 -0.99986 
0.000160824 -0.0153088 -0.999883 
1.80433e-05 -0.0137914 -0.999905 
-9.31194e-05 -0.0122357 -0.999925 
-0.000170999 -0.0106691 -0.999943 
-0.000229492 -0.00910612 -0.999959 
-0.000270619 -0.0075604 -0.999971 
-0.000283241 -0.00606394 -0.999982 
-0.000272957 -0.00465099 -0.999989 
-0.000260365 -0.00333331 -0.999994 
-0.000230706 -0.0021407 -0.999998 
-0.000156042 -0.00109283 -0.999999 
-2.87021e-05 -0.00029666 -1 
0.000125272 0.000291015 -1 
0.000464764 0.00054189 -1 
-0.000405171 0.000119997 1 
-0.000198697 -7.55827e-05 1 
-6.81868e-05 -0.000433377 1 
3.62676e-05 -0.00105202 0.999999 
-4.5862e-05 -0.00189803 0.999998 
7.29062e-05 -0.0020566 0.999998 
6.7061e-05 -0.00328758 0.999995 
4.71963e-05 -0.00471077 0.999989 
5.8507e-05 -0.00628948 0.99998 
-0.000159063 -0.00769558 0.99997 
-0.000204337 -0.00922017 0.999957 
-0.000283801 -0.0107632 0.999942 
-0.000463815 -0.0122892 0.999924 
-0.000647412 -0.0138378 0.999904 
-0.000886491 -0.0152861 0.999883 
-0.0012249 -0.0166042 0.999861 
-0.00165099 -0.017744 0.999841 
-0.00221186 -0.0186012 0.999825 
-0.00290899 -0.0192918 0.99981 
-0.00368841 -0.0197584 0.999798 
-0.00455513 -0.0198489 0.999793 
-0.00533461 -0.019477 0.999796 
-0.00583319 -0.0185757 0.99981 
-0.0059439 -0.0169675 0.999838 
-0.00556001 -0.0142133 0.999884 
-0.00465453 -0.00961995 0.999943 
-0.0032607 -0.00231697 0.999992 
-0.00147999 0.00888266 0.999959 
0.00120544 0.023875 0.999714 
0.00658667 0.0446652 0.99898 
0.0148857 0.0735186 0.997183 
0.0242363 0.115667 0.992992 
0.0425113 0.16617 0.98518 
0.0461265 0.251009 0.966885 
0.0641637 0.343049 0.937123 
0.0839086 0.419245 0.903987 
0.0674814 0.629925 0.773719 
0.0530741 0.740841 0.669581 
0.0286076 0.980814 0.192838 
0.0111993 0.998965 0.0440795 
-0.0306765 0.930624 -0.364689 
-0.0391662 0.7438 -0.667254 
-0.0783592 0.521152 -0.849859 
-0.140427 0.404881 -0.903522 
-0.0779152 0.353817 -0.932064 
-0.0620875 0.274912 -0.959463 
-0.046971 0.193541 -0.979967 
-0.0296394 0.129774 -0.9911 
-0.018982 0.0832732 -0.996346 
-0.00841982 0.0532668 -0.998545 
-0.00266965 0.0299154 -0.999549 
0.000657858 0.013265 -0.999912 
0.00259047 0.00103957 -0.999996 
0.00410027 -0.00764407 -0.999962 
0.00503564 -0.0133496 -0.999898 
0.00563956 -0.0165759 -0.999847 
0.00583031 -0.0183596 -0.999814 
0.0055458 -0.0193342 -0.999798 
0.00489702 -0.0197839 -0.999792 
0.00408226 -0.0198115 -0.999795 
0.00325516 -0.0195007 -0.999805 
0.00252131 -0.0189107 -0.999818 
0.0019202 -0.0180889 -0.999835 
0.00144892 -0.0170783 -0.999853 
0.00108026 -0.0158891 -0.999873 
0.000798061 -0.0145518 -0.999894 
0.000578355 -0.0131195 -0.999914 
0.000406446 -0.0116407 -0.999932 
0.000264221 -0.0101387 -0.999949 
0.000143488 -0.00863704 -0.999963 
4.60012e-05 -0.00716566 -0.999974 
-2.62644e-05 -0.00574695 -0.999983 
-7.54946e-05 -0.00439457 -0.99999 
-9.9829e-05 -0.00314515 -0.999995 
-9.86327e-05 -0.00202455 -0.999998 
-5.22397e-05 -0.00110919 -0.999999 
6.56214e-05 -0.00037207 -1 
0.000200999 4.60121e-06 -1 
0.000389934 9.87691e-05 -1 
-0.000209087 -4.68677e-05 1 
-0.000142747 -0.000144479 1 
-8.91284e-05 -0.000506029 1 
-3.66721e-05 -0.00109912 0.999999 
-0.000233387 -0.00188493 0.999998 
-0.000133636 -0.00299371 0.999996 
-0.000205677 -0.00434864 0.999991 
-0.000216855 -0.00599527 0.999982 
-0.000527511 -0.00740619 0.999972 
-0.000695758 -0.00897226 0.99996 
-0.000838091 -0.0104254 0.999945 
-0.00104847 -0.0118627 0.999929 
-0.00129685 -0.0132904 0.999911 
-0.00161106 -0.0146208 0.999892 
-0.00199529 -0.0157887 0.999873 
-0.00248991 -0.0167674 0.999856 
-0.00314066 -0.0175173 0.999842 
-0.00389323 -0.0180772 0.999829 
-0.0047891 -0.018429 0.999819 
-0.00572744 -0.0184736 0.999813 
-0.00656877 -0.0181044 0.999815 
-0.00701611 -0.0173384 0.999825 
-0.00689974 -0.0160091 0.999848 
-0.00612091 -0.0138033 0.999886 
-0.00462444 -0.0100024 0.999939 
-0.00233588 -0.00394115 0.99999 
0.00103032 0.00559515 0.999984 
0.00637502 0.0192036 0.999795 
0.0148943 0.0363628 0.999228 
0.0278635 0.0633434 0.997603 
0.0428854 0.100852 0.993977 
0.069906 0.149722 0.986254 
0.0837225 0.230441 0.969478 
0.102008 0.145871 0.984031 
0.121751 0.24537 0.961754 
0.128127 0.328199 0.935879 
0.0972054 0.529137 0.84295 
0.129144 0.661234 0.73898 
0.0453975 0.975724 0.214249 
0.00155563 0.964221 -0.265094 
-0.0762482 0.756055 -0.650052 
-0.121136 0.745723 -0.655152 
-0.155837 0.485176 -0.860418 
-0.204122 0.395187 -0.895635 
-0.134551 0.315121 -0.939465 
-0.112554 0.242205 -0.963674 
-0.0833157 0.185677 -0.979072 
-0.0573553 0.124886 -0.990512 
-0.0387447 0.0806395 -0.99599 
-0.0215344 0.050958 -0.998469 
-0.010578 0.0307342 -0.999472 
-0.00442446 0.0135549 -0.999898 
-0.000241136 0.00191592 -0.999998 
0.00302871 -0.0063437 -0.999975 
0.00497247 -0.0118338 -0.999918 
0.00625908 -0.0150721 -0.999867 
0.00690459 -0.0168099 -0.999835 
0.00690459 -0.0177561 -0.999819 
0.00636079 -0.0182699 -0.999813 
0.00550012 -0.0184579 -0.999815 
0.00456881 -0.0183236 -0.999822 
0.00370741 -0.0179133 -0.999833 
0.00298356 -0.0172761 -0.999846 
0.00240114 -0.0164244 -0.999862 
0.00192537 -0.015416 -0.999879 
0.00155041 -0.0142068 -0.999898 
0.00125182 -0.0128713 -0.999916 
0.00101367 -0.011458 -0.999934 
0.000811741 -0.0100137 -0.99995 
0.000637723 -0.00856387 -0.999963 
0.000490874 -0.00712831 -0.999974 
0.000363194 -0.00574279 -0.999983 
0.000247998 -0.00443291 -0.99999 
0.000156515 -0.00321803 -0.999995 
9.10004e-05 -0.00214218 -0.999998 
6.66999e-05 -0.00123586 -0.999999 
7.89764e-05 -0.000550085 -1 
0.000149869 -0.000148967 -1 
0.00022129 -6.08788e-05 -1 
-4.01961e-05 1.35158e-05 1 
-5.99987e-05 -0.000102346 1 
-0.000136798 -0.000455849 1 
-0.000175483 -0.00105207 0.999999 
-0.000342598 -0.00293213 0.999996 
-0.000447322 -0.00415387 0.999991 
-0.000461674 -0.00382333 0.999993 
-0.000491204 -0.00567863 0.999984 
-0.000740209 -0.006665 0.999978 
-0.000920272 -0.00813434 0.999966 
-0.00114809 -0.00958338 0.999953 
-0.00138397 -0.0109295 0.999939 
-0.00165689 -0.0122974 0.999923 
-0.00200662 -0.0135652 0.999906 
-0.00242707 -0.0146739 0.999889 
-0.00293201 -0.0156077 0.999874 
-0.00357983 -0.016285 0.999861 
-0.00435107 -0.0167915 0.99985 
-0.00523854 -0.0171354 0.999839 
-0.00624943 -0.0172074 0.999832 
-0.00721422 -0.0169852 0.99983 
-0.00791376 -0.0164539 0.999833 
-0.00805571 -0.0155999 0.999846 
-0.00747901 -0.014236 0.999871 
-0.00604561 -0.0119015 0.999911 
-0.00366153 -0.00806598 0.999961 
0.000117076 -0.00193837 0.999998 
0.00566598 0.00682081 0.999961 
0.0141149 0.0178214 0.999742 
0.0273963 0.036491 0.998958 
0.0466362 0.0620416 0.996983 
0.0664997 0.0922842 0.99351 
0.0965849 0.0906712 0.991186 
0.135867 0.120975 0.983313 
0.149323 0.206361 0.967015 
0.158625 0.407232 0.899444 
0.148342 0.501127 0.852564 
0.0620102 0.871315 0.48679 
0.0257426 0.871768 0.489243 
0.0405492 0.988339 0.14677 
-0.000128769 0.980247 -0.197776 
-0.126742 0.793964 -0.594608 
-0.225227 0.512628 -0.828544 
-0.197793 0.300847 -0.932936 
-0.169833 0.235266 -0.956978 
-0.133583 0.174101 -0.975625 
-0.0945117 0.134014 -0.986462 
-0.0662571 0.0875506 -0.993954 
-0.0429302 0.0538312 -0.997627 
-0.0253019 0.033448 -0.99912 
-0.0133425 0.018508 -0.99974 
-0.00564431 0.00568653 -0.999968 
5.05521e-05 -0.00287619 -0.999996 
0.00370082 -0.0086901 -0.999955 
0.00597432 -0.0125718 -0.999903 
0.00735733 -0.0147858 -0.999864 
0.00796301 -0.0159747 -0.999841 
0.0078557 -0.0166141 -0.999831 
0.00717328 -0.017011 -0.99983 
0.00621753 -0.0171821 -0.999833 
0.00523705 -0.0170903 -0.99984 
0.0043473 -0.0167575 -0.99985 
0.00358763 -0.0162215 -0.999862 
0.00296099 -0.0154545 -0.999876 
0.0024427 -0.0145865 -0.999891 
0.00202092 -0.0134726 -0.999907 
0.00167817 -0.01223 -0.999924 
0.00138918 -0.010886 -0.99994 
0.00114076 -0.00950425 -0.999954 
0.00092708 -0.00810769 -0.999967 
0.000747277 -0.00672694 -0.999977 
0.000588348 -0.00538216 -0.999985 
0.000452125 -0.00412681 -0.999991 
0.000342829 -0.00297626 -0.999996 
0.000254421 -0.00196996 -0.999998 
0.000185618 -0.00112403 -0.999999 
0.000136634 -0.000509632 -1 
8.63649e-05 -0.000119729 -1 
3.20009e-05 4.85015e-06 -1 
7.59813e-05 6.60854e-05 1 
2.89637e-05 -7.28733e-05 1 
-7.42423e-05 -0.000466237 1 
-0.000153896 -0.00102566 0.999999 
-0.000247152 -0.00186468 0.999998 
-0.000354836 -0.00289344 0.999996 
-0.000633122 -0.00486097 0.999988 
-0.000597636 -0.0050618 0.999987 
-0.0007911 -0.00620922 0.99998 
-0.00101543 -0.00762393 0.99997 
-0.00128349 -0.00903005 0.999958 
-0.00158262 -0.010361 0.999945 
-0.00189134 -0.0116822 0.99993 
-0.00225689 -0.0128526 0.999915 
-0.0027043 -0.0138852 0.9999 
-0.00323443 -0.0147345 0.999886 
-0.0038785 -0.0153213 0.999875 
-0.00462566 -0.0157544 0.999865 
-0.00548932 -0.0160213 0.999857 
-0.00645534 -0.016089 0.99985 
-0.00744226 -0.0158864 0.999846 
-0.00827253 -0.0155394 0.999845 
-0.00866463 -0.0148997 0.999851 
-0.00841415 -0.0139853 0.999867 
-0.00732353 -0.0125448 0.999894 
-0.00518473 -0.0101514 0.999935 
-0.00155634 -0.00629583 0.999979 
0.0041548 -0.000717294 0.999991 
0.0128775 0.00640454 0.999897 
0.0269231 0.0196195 0.999445 
0.0461521 0.0371648 0.998243 
0.0721079 0.0553319 0.995861 
0.11807 0.0569573 0.99137 
0.168716 0.0831534 0.982151 
0.198669 0.283049 0.938304 
0.234209 0.363007 0.901872 
0.181234 0.613124 0.768916 
0.213328 0.489349 0.845594 
0.0888856 0.90911 0.406962 
-0.0106474 0.967396 -0.253043 
-0.00653217 0.997484 -0.0705855 
-0.180263 0.745745 -0.641381 
-0.274333 0.424236 -0.862998 
-0.240929 0.203514 -0.948965 
-0.187052 0.164636 -0.968456 
-0.136665 0.11285 -0.984168 
-0.0962901 0.0837214 -0.991826 
-0.0644083 0.0500206 -0.996669 
-0.0441759 0.0270429 -0.998658 
-0.0280168 0.0195233 -0.999417 
-0.0144298 0.00907829 -0.999855 
-0.00496395 -0.000478785 -0.999988 
0.00134653 -0.00669114 -0.999977 
0.00504279 -0.0105232 -0.999932 
0.00713738 -0.0129717 -0.99989 
0.008262 -0.0144153 -0.999862 
0.00858525 -0.0151594 -0.999848 
0.00826496 -0.0156043 -0.999844 
0.00750048 -0.0159186 -0.999845 
0.00654804 -0.0160821 -0.999849 
0.0055972 -0.0160314 -0.999856 
0.00473257 -0.0157804 -0.999864 
0.00398548 -0.0153788 -0.999874 
0.00333924 -0.0147283 -0.999886 
0.00278704 -0.0139338 -0.999899 
0.00232631 -0.0129078 -0.999914 
0.00193966 -0.0117147 -0.999929 
0.0016087 -0.0104416 -0.999944 
0.00132062 -0.00913449 -0.999957 
0.0010668 -0.0077823 -0.999969 
0.000844432 -0.00643542 -0.999979 
0.000649229 -0.00514922 -0.999987 
0.000480437 -0.00393156 -0.999992 
0.0003424 -0.0028272 -0.999996 
0.00022997 -0.00186008 -0.999998 
0.000137702 -0.001053 -0.999999 
6.80733e-05 -0.000456229 -1 
-1.36661e-05 -7.54645e-05 -1 
-8.38354e-05 6.595e-05 -1 
0.000153629 0.000145803 1 
6.94518e-05 -7.34674e-06 1 
-2.99674e-05 -0.000462215 1 
-0.000121639 -0.00107395 0.999999 
-0.000213629 -0.00179208 0.999998 
-0.000326175 -0.00256233 0.999997 
-0.000476335 -0.00357765 0.999993 
-0.000714638 -0.00478527 0.999988 
-0.000900695 -0.00617681 0.999981 
-0.00115529 -0.0075413 0.999971 
-0.00144283 -0.00884994 0.99996 
-0.00175295 -0.0101027 0.999947 
-0.0020764 -0.0113128 0.999934 
-0.00246329 -0.012458 0.999919 
-0.00291452 -0.0133897 0.999906 
-0.00345028 -0.014152 0.999894 
-0.00406276 -0.0146195 0.999885 
-0.00477807 -0.0149932 0.999876 
-0.0055537 -0.015177 0.999869 
-0.00640629 -0.0152459 0.999863 
-0.00721645 -0.0150827 0.99986 
-0.00792811 -0.0148235 0.999859 
-0.00830079 -0.014438 0.999861 
-0.008103 -0.0139057 0.99987 
-0.00711287 -0.0130995 0.999889 
-0.00499877 -0.0117525 0.999918 
-0.001395 -0.00961682 0.999953 
0.00449292 -0.00689602 0.999966 
0.0148366 -0.00230155 0.999887 
0.0294238 0.00569896 0.999551 
0.0497439 0.0169265 0.998619 
0.0788248 0.0279143 0.996498 
0.108832 0.0115536 0.993993 
0.15089 0.020834 0.988331 
0.187885 0.173367 0.966769 
0.259883 0.257572 0.930654 
0.292873 0.201702 0.934635 
0.275423 0.449344 0.849842 
0.225558 0.666843 0.710242 
0.138884 0.781209 0.608624 
-0.0512201 0.944615 -0.32416 
-0.132792 0.595887 -0.792013 
-0.262948 0.300216 -0.916913 
-0.277468 0.129189 -0.952009 
-0.202251 0.104623 -0.973729 
-0.152265 0.0641493 -0.986256 
-0.104451 0.0455254 -0.993488 
-0.0754989 0.0204251 -0.996937 
-0.048102 0.0054936 -0.998827 
-0.0284723 0.00239872 -0.999592 
-0.0152694 -0.000646919 -0.999883 
-0.00551238 -0.00653515 -0.999963 
0.00104679 -0.0100909 -0.999949 
0.00487639 -0.0121982 -0.999914 
0.00696608 -0.0134849 -0.999885 
0.00800448 -0.0142557 -0.999866 
0.00823431 -0.014706 -0.999858 
0.00790952 -0.0149457 -0.999857 
0.00725505 -0.015126 -0.999859 
0.00644831 -0.0152412 -0.999863 
0.00561693 -0.0152189 -0.999868 
0.0048421 -0.0150263 -0.999875 
0.00413359 -0.0146446 -0.999884 
0.00351659 -0.0141196 -0.999894 
0.00296714 -0.0133696 -0.999906 
0.00250194 -0.0124324 -0.99992 
0.00210362 -0.011307 -0.999934 
0.00176029 -0.0101053 -0.999947 
0.00145285 -0.00881303 -0.99996 
0.00118145 -0.0075128 -0.999971 
0.000937114 -0.00620196 -0.99998 
0.000714457 -0.00493861 -0.999988 
0.000517419 -0.00373796 -0.999993 
0.000350346 -0.00266534 -0.999996 
0.000210327 -0.00173605 -0.999998 
9.73672e-05 -0.000973767 -1 
1.00017e-05 -0.000413647 -1 
-8.00965e-05 -2.82364e-05 -1 
-0.000169679 0.000125876 -1 
0.000195698 0.000245194 1 
0.000105679 0.000136742 1 
-1.36892e-05 -0.000308328 1 
-0.000123923 -0.000899201 1 
-0.000244183 -0.00166262 0.999999 
-0.000389488 -0.00254878 0.999997 
-0.000564562 -0.00362873 0.999993 
-0.000777694 -0.00480924 0.999988 
-0.000973851 -0.00602775 0.999981 
-0.00122039 -0.00730736 0.999973 
-0.00149341 -0.00857664 0.999962 
-0.00179975 -0.00986109 0.99995 
-0.00212779 -0.0110441 0.999937 
-0.00249273 -0.0120907 0.999924 
-0.00292202 -0.0129945 0.999911 
-0.00341607 -0.0136481 0.999901 
-0.00399768 -0.0141493 0.999892 
-0.00462646 -0.0144234 0.999885 
-0.00529666 -0.014596 0.999879 
-0.00596254 -0.0146312 0.999875 
-0.00658342 -0.014641 0.999871 
-0.00706774 -0.0145676 0.999869 
-0.00725124 -0.0144798 0.999869 
-0.00696143 -0.0144012 0.999872 
-0.00596973 -0.014299 0.99988 
-0.0040103 -0.0140447 0.999893 
-0.000470979 -0.0136878 0.999906 
0.00556564 -0.0131341 0.999898 
0.0152395 -0.012668 0.999804 
0.0278527 -0.0110879 0.999551 
0.0444902 -0.00594746 0.998992 
0.0685426 -0.00270914 0.997645 
0.100107 -0.0202521 0.994771 
0.146062 -0.0308653 0.988794 
0.220927 0.128049 0.966848 
0.204218 0.0388769 0.978153 
0.260105 0.0690684 0.963107 
0.345832 0.379406 0.858167 
0.187751 0.80166 0.567531 
-0.0288259 0.983936 -0.176181 
-0.248006 0.616269 -0.747466 
-0.331994 0.209447 -0.919735 
-0.161118 0.291002 -0.943058 
-0.234445 0.0519583 -0.97074 
-0.182047 0.0254301 -0.982961 
-0.126772 0.0111588 -0.991869 
-0.0937225 -0.00982171 -0.99555 
-0.0643868 -0.0121849 -0.997851 
-0.043889 -0.0196857 -0.998842 
-0.0300178 -0.0126031 -0.99947 
-0.0161225 -0.0112728 -0.999806 
-0.0065718 -0.0131382 -0.999892 
-9.45225e-05 -0.013986 -0.999902 
0.00372767 -0.0144112 -0.999889 
0.00582717 -0.0146015 -0.999876 
0.00690724 -0.014676 -0.999868 
0.00718791 -0.0147179 -0.999866 
0.00701276 -0.0147056 -0.999867 
0.00656838 -0.0147086 -0.99987 
0.00597566 -0.0147198 -0.999874 
0.00532062 -0.0146619 -0.999878 
0.00467669 -0.0145121 -0.999884 
0.00404904 -0.0141767 -0.999891 
0.00347313 -0.0136781 -0.9999 
0.0029604 -0.0129583 -0.999912 
0.00252514 -0.0120874 -0.999924 
0.00214424 -0.0110244 -0.999937 
0.00181263 -0.00985413 -0.99995 
0.00151615 -0.00861023 -0.999962 