# vtk DataFile Version 3.0 
Exported using Morpho https://github.com/Morpho-lang/morpho 
ASCII 
DATASET UNSTRUCTURED_GRID 

POINTS 1978 float 
-8.48528 -2.82843 -1.6941e-11 
-8.27215 -2.82843 -2.81898e-11 
-7.97581 -2.82843 -1.5866e-11 
-7.7237 -2.82843 -8.2358e-12 
-7.49704 -2.82843 8.10662e-12 
-7.28327 -2.82843 -7.82743e-12 
-7.06345 -2.82843 7.02365e-12 
-6.74786 -2.82843 9.6045e-12 
-6.54652 -2.82843 6.33383e-12 
-6.34377 -2.82843 3.96569e-12 
-6.1221 -2.82843 4.02488e-12 
-5.91025 -2.82843 5.19367e-12 
-5.69929 -2.82843 2.7977e-12 
-5.48575 -2.82843 -4.25194e-13 
-5.27563 -2.82843 -1.60427e-12 
-5.06486 -2.82843 -4.66344e-12 
-4.85415 -2.82843 -7.97617e-12 
-4.64633 -2.82843 -3.9517e-12 
-4.4355 -2.82843 2.30996e-11 
-4.22595 -2.82843 1.69002e-11 
-4.01723 -2.82843 4.06538e-11 
-3.8059 -2.82843 6.40229e-11 
-3.59537 -2.82843 1.13438e-10 
-3.3848 -2.82843 1.49548e-10 
-3.17408 -2.82843 2.12809e-10 
-2.96494 -2.82843 2.4318e-10 
-2.7623 -2.82843 1.96398e-10 
-2.5605 -2.82843 4.00564e-10 
-2.33301 -2.82843 3.75107e-10 
-2.10898 -2.82843 1.45018e-09 
-1.88356 -2.82843 3.72929e-09 
-1.65065 -2.82843 1.19784e-08 
-1.4365 -2.82843 3.27038e-08 
-1.25738 -2.82842 1.09932e-07 
-1.08196 -2.82843 1.82536e-07 
-0.919522 -2.82843 4.54835e-07 
-0.775045 -2.82842 1.03508e-06 
-0.642873 -2.82842 1.1178e-06 
-0.469127 -2.82842 3.92824e-06 
-0.201603 -2.82873 1.69221e-06 
0.454872 -2.82828 -8.41914e-06 
0.632735 -2.82843 -5.61488e-06 
0.785527 -2.82843 -7.77007e-07 
0.932654 -2.82842 -7.60836e-07 
1.07375 -2.82842 -2.35627e-07 
1.2468 -2.82842 -1.01286e-07 
1.44484 -2.82843 -3.39479e-08 
1.66952 -2.82843 -9.90073e-09 
1.88908 -2.82843 -2.84636e-09 
2.13255 -2.82843 -1.1277e-09 
2.36483 -2.82843 -6.59333e-10 
2.58645 -2.82843 -2.91819e-10 
2.77711 -2.82843 -2.02327e-10 
2.97642 -2.82843 -2.32478e-10 
3.1847 -2.82843 -2.26684e-10 
3.39754 -2.82843 -1.72157e-10 
3.614 -2.82843 -1.14784e-10 
3.82676 -2.82843 -6.58137e-11 
4.03729 -2.82843 -3.45343e-11 
4.2459 -2.82843 -6.31662e-12 
4.45389 -2.82843 -1.13933e-11 
4.66273 -2.82843 7.62754e-13 
4.87329 -2.82843 1.6515e-12 
5.08355 -2.82843 1.01398e-12 
5.29519 -2.82843 -5.44485e-13 
5.50701 -2.82843 -1.12975e-12 
5.71974 -2.82843 -3.32257e-12 
5.93367 -2.82843 -3.97737e-12 
6.15018 -2.82843 -3.66852e-12 
6.36735 -2.82843 -2.92231e-12 
6.58666 -2.82843 -6.35977e-12 
6.81038 -2.82843 -1.16569e-11 
7.03819 -2.82843 -2.99296e-12 
7.26759 -2.82843 6.73331e-13 
7.5029 -2.82843 -2.97121e-12 
7.74293 -2.82843 1.13206e-11 
7.99109 -2.82843 1.22253e-11 
8.23003 -2.82843 2.23514e-11 
8.48528 -2.82843 1.75157e-11 
-8.48528 -2.59975 1.77244e-11 
-8.24461 -2.5699 -3.03348e-21 
-8.02781 -2.64477 -2.96484e-14 
-7.73454 -2.62036 1.98942e-21 
-7.49115 -2.59375 4.07131e-21 
-7.269 -2.59272 9.48397e-21 
-7.0641 -2.56372 1.42294e-20 
-6.86747 -2.66587 5.03166e-20 
-6.61572 -2.57391 3.59412e-20 
-6.41155 -2.57824 4.19384e-20 
-6.19884 -2.60165 5.76609e-20 
-5.97854 -2.59594 6.12956e-20 
-5.76277 -2.59661 6.68142e-20 
-5.54734 -2.60133 6.43139e-20 
-5.33139 -2.59878 4.8766e-20 
-5.11685 -2.60006 2.6451e-20 
-4.9009 -2.60011 -4.83613e-21 
-4.68627 -2.59704 -1.9128e-20 
-4.47309 -2.60161 -2.26758e-20 
-4.25693 -2.60113 6.46985e-21 
-4.04043 -2.60012 7.90679e-20 
-3.82328 -2.60164 2.43786e-19 
-3.60235 -2.59862 5.9712e-19 
-3.38009 -2.59759 8.20085e-19 
-3.15528 -2.59584 1.29027e-18 
-2.92752 -2.58923 9.41494e-19 
-2.70172 -2.57917 -1.35359e-18 
-2.46309 -2.59191 -9.80836e-18 
-2.21841 -2.57478 -2.8703e-17 
-1.97574 -2.57002 -8.50704e-17 
-1.73601 -2.58647 -2.84179e-16 
-1.48842 -2.58588 -7.81571e-16 
-1.28597 -2.59415 -1.61515e-15 
-1.08396 -2.63215 -5.89991e-15 
-0.906736 -2.65382 -8.25646e-15 
-0.776419 -2.64141 -9.39099e-15 
-0.672599 -2.70207 -3.02953e-14 
-0.537393 -2.73663 -7.84563e-14 
-0.383343 -2.77486 -3.78492e-14 
0.135642 -2.81006 -1.55476e-13 
0.38497 -2.77981 6.38315e-14 
0.654692 -2.68948 5.70254e-14 
0.789302 -2.71601 3.054e-14 
0.852294 -2.56322 -1.10915e-14 
0.950104 -2.6723 1.09815e-14 
1.10877 -2.62409 5.02634e-15 
1.30112 -2.59173 2.36176e-15 
1.52742 -2.59014 1.02547e-15 
1.76338 -2.56558 2.61357e-16 
2.01367 -2.59068 9.61332e-17 
2.26862 -2.58981 2.91005e-17 
2.51077 -2.5897 8.60005e-18 
2.74076 -2.56687 5.71228e-19 
2.95728 -2.59353 -7.96555e-19 
3.17954 -2.59453 -1.27458e-18 
3.40713 -2.60243 -8.6239e-19 
3.62816 -2.60066 -4.70613e-19 
3.84509 -2.60015 -2.0452e-19 
4.05867 -2.59901 -6.01359e-20 
4.27015 -2.59791 4.12598e-21 
4.4811 -2.59797 2.4789e-20 
4.69271 -2.59905 2.08934e-20 
4.90436 -2.59817 7.96633e-15 
5.11673 -2.59921 -2.65732e-20 
5.3289 -2.59853 -4.81409e-20 
5.54205 -2.59855 -6.01467e-20 
5.75568 -2.59834 -6.36002e-20 
5.97073 -2.59866 -6.16631e-20 
6.18632 -2.59645 -5.49158e-20 
6.40374 -2.5952 -4.60591e-20 
6.62436 -2.59598 -3.62573e-20 
6.84816 -2.59639 -2.5529e-20 
7.0741 -2.59522 -1.59815e-20 
7.30511 -2.59912 -9.33533e-21 
7.54091 -2.60194 -4.46901e-21 
7.78273 -2.6078 3.40108e-14 
8.01786 -2.60198 -7.05564e-15 
8.26713 -2.61198 2.85812e-21 
8.48528 -2.58312 -2.13245e-11 
-8.48528 -2.37067 1.72123e-11 
-8.26847 -2.3143 2.67918e-14 
-8.0441 -2.39344 3.65006e-14 
-7.81818 -2.43307 3.71539e-15 
-7.59999 -2.17622 2.69327e-21 
-7.56858 -2.3931 -2.17601e-21 
-7.30979 -2.34653 1.92739e-21 
-7.05024 -2.35713 2.54403e-21 
-6.79624 -2.43649 -1.02323e-20 
-6.56017 -2.32359 -4.78599e-14 
-6.34 -2.34869 4.27814e-21 
-6.12204 -2.37032 7.82322e-21 
-5.90008 -2.3665 -3.25197e-14 
-5.67815 -2.3703 2.04681e-21 
-5.46022 -2.37335 -2.44362e-21 
-5.24055 -2.37178 -8.23838e-21 
-5.02196 -2.37459 -7.61788e-21 
-4.80545 -2.37068 -1.64947e-20 
-4.58818 -2.36971 -1.65422e-20 
-4.37418 -2.37499 -1.49517e-20 
-4.15794 -2.37453 -1.9389e-20 
-3.94104 -2.37344 -1.62545e-20 
-3.72295 -2.37563 2.92691e-20 
-3.50227 -2.37258 1.05636e-19 
-3.27953 -2.36701 2.2998e-19 
-3.05321 -2.36491 2.15315e-19 
-2.82277 -2.35003 -3.68335e-19 
-2.57994 -2.35422 -2.01914e-18 
-2.33788 -2.34544 -9.46476e-18 
-2.08469 -2.32623 -3.86245e-17 
-1.83511 -2.32803 -6.60816e-17 
-1.59474 -2.36694 -1.86902e-16 
-1.36584 -2.33404 -2.51239e-16 
-1.16616 -2.43694 -1.32015e-15 
-0.975024 -2.45189 -1.77668e-15 
-0.829864 -2.4694 -1.58431e-15 
-0.597002 -2.61073 4.21318e-15 
-0.470482 -2.65562 -3.49471e-14 
-0.15682 -2.74234 -4.95197e-14 
-0.0109243 -2.77653 7.61943e-14 
0.303382 -2.74075 -4.83552e-14 
0.553252 -2.76043 -6.33031e-14 
0.735054 -2.58515 -8.57213e-15 
0.805025 -2.39219 -4.1272e-15 
0.964548 -2.46639 -1.81485e-15 
1.10596 -2.40762 -2.62374e-16 
1.29828 -2.36621 3.35795e-16 
1.52045 -2.35257 1.39282e-16 
1.75386 -2.32161 1.14321e-16 
2.00028 -2.3531 2.22235e-17 
2.25809 -2.3552 6.74585e-18 
2.50231 -2.35094 9.43281e-19 
2.73644 -2.334 1.7262e-19 
2.97089 -2.36001 -5.51583e-19 
3.20177 -2.37278 -2.77295e-19 
3.42636 -2.37593 -1.57836e-19 
3.64718 -2.37355 -5.76098e-20 
3.86327 -2.37161 3.40102e-14 
4.0764 -2.36927 1.64223e-20 
4.2884 -2.36769 1.89673e-20 
4.50009 -2.36792 1.97588e-20 
4.71209 -2.3689 2.00346e-20 
4.92517 -2.36853 1.61075e-20 
5.1375 -2.36857 1.08605e-20 
5.35172 -2.3688 4.53214e-21 
5.56597 -2.36788 1.41004e-14 
5.78047 -2.36725 -3.30868e-21 
5.99502 -2.3656 -4.94307e-21 
6.21155 -2.36285 -6.07413e-21 
6.43049 -2.3615 -6.61328e-21 
6.65111 -2.3617 -6.48533e-21 
6.87428 -2.36143 -5.75274e-21 
7.10298 -2.36376 -4.10119e-21 
7.3359 -2.37068 -2.20549e-21 
7.5741 -2.37783 2.96296e-14 
7.80697 -2.37551 1.0407e-14 
8.04989 -2.388 -2.07033e-14 
8.2706 -2.36141 -4.60971e-14 
8.48528 -2.33336 -1.60032e-11 
-8.48528 -2.11876 1.35753e-11 
-8.27367 -2.05601 -3.36953e-15 
-8.05202 -2.15049 1.53635e-14 
-7.82826 -2.20021 -1.81195e-14 
-7.58988 -1.96277 3.83705e-14 
-7.35267 -2.14637 -2.41534e-21 
-7.08836 -2.14692 4.89121e-14 
-6.81644 -2.22333 3.88966e-21 
-6.57141 -2.10992 -8.3395e-21 
-6.32972 -2.11297 -1.54142e-20 
-6.11332 -2.13637 -2.00744e-20 
-5.89674 -2.13456 -1.50019e-20 
-5.67755 -2.14209 -2.444e-20 
-5.45919 -2.14256 -2.65771e-20 
-5.24423 -2.14447 -2.85505e-20 
-5.02663 -2.14705 -3.12459e-20 
-4.81079 -2.14135 -2.32966e-20 
-4.59582 -2.14251 -2.52086e-20 
-4.37836 -2.14458 -2.20415e-20 
-4.16375 -2.14677 -1.8331e-20 
-3.94652 -2.14523 -1.60424e-20 
-3.72754 -2.1475 -1.13317e-20 
-3.50607 -2.14402 3.0014e-20 
-3.28191 -2.13647 5.67662e-20 
-3.05355 -2.13382 1.8212e-19 
-2.81683 -2.12266 6.95323e-19 
-2.57251 -2.12169 1.01202e-18 
-2.31966 -2.11013 1.80751e-18 
-2.06796 -2.08624 1.95413e-18 
-1.8026 -2.10106 -3.59815e-17 
-1.56004 -2.13908 -5.65495e-17 
-1.30882 -2.13183 -2.77036e-16 
-1.11551 -2.26049 1.10205e-15 
-1.19058 -1.9809 -8.32113e-16 
-1.00205 -2.14887 -1.1113e-15 
-0.894816 -2.28471 -1.42384e-15 
-0.690722 -2.51899 -3.31243e-15 
-0.531292 -2.52151 1.19112e-14 
-0.209785 -2.62301 1.98775e-14 
0.238709 -2.8467 6.59419e-14 
0.491288 -2.68477 6.00678e-15 
0.511721 -2.57633 6.56008e-14 
0.69049 -2.44594 -9.82609e-15 
0.685763 -2.26417 2.30464e-15 
0.899591 -2.27415 -6.58682e-16 
1.0326 -2.19712 -2.74746e-16 
1.2083 -2.1763 -3.51944e-16 
1.43546 -2.1363 -5.28236e-17 
1.66549 -2.09009 1.66668e-17 
1.91437 -2.10236 2.18117e-17 
2.16217 -2.12915 4.12508e-18 
2.41672 -2.11271 -3.46915e-19 
2.65091 -2.10054 -4.64769e-19 
2.89367 -2.12569 -1.63142e-19 
3.12565 -2.14262 -4.70967e-20 
3.35234 -2.147 -2.22732e-20 
3.57527 -2.14644 -4.92317e-21 
3.79564 -2.14267 1.4795e-20 
4.01169 -2.13987 2.1151e-20 
4.22643 -2.13819 2.04534e-20 
4.44129 -2.13735 2.27407e-20 
4.65595 -2.13842 2.52078e-20 
4.87113 -2.1393 2.7937e-20 
5.08762 -2.13751 2.50057e-20 
5.30389 -2.13957 3.15368e-20 
5.52212 -2.13791 2.53403e-20 
5.74056 -2.13547 2.42727e-20 
5.95824 -2.13252 1.91346e-20 
6.17647 -2.13014 1.71356e-20 
6.39729 -2.12829 1.40575e-20 
6.62057 -2.12622 1.06578e-20 
6.8444 -2.12614 5.61135e-21 
7.07182 -2.13124 5.337e-21 
7.3046 -2.13962 1.77388e-21 
7.54071 -2.14975 -4.84646e-14 
7.77934 -2.1437 4.1208e-14 
8.01769 -2.1591 -1.52324e-14 
8.24885 -2.11803 2.33925e-15 
8.48528 -2.1021 -1.51221e-11 
-8.48528 -1.86339 4.04394e-12 
-8.26983 -1.79317 -7.13384e-15 
-8.06194 -1.9088 1.64109e-15 
-7.83505 -1.953 2.60703e-14 
[...]
POINT_DATA 1978 
VECTORS vectors float
-0.000131579 0.00100604 0.999999 
5.21078e-05 0.00059122 0.999999 
4.68168e-05 -0.000257154 1 
7.2732e-05 -0.00129615 0.999999 
7.09947e-05 -0.00229038 0.999997 
8.46062e-05 -0.00347495 0.999994 
8.53655e-05 -0.00475227 0.999988 
0.000119422 -0.00687062 0.999976 
0.000132794 -0.00832582 0.999965 
9.95646e-05 -0.00979235 0.999952 
9.86672e-05 -0.0114772 0.999934 
0.000100692 -0.0130741 0.999914 
9.44001e-05 -0.0146926 0.999892 
8.88737e-05 -0.0163397 0.999866 
7.19174e-05 -0.0179311 0.999839 
4.18111e-05 -0.019361 0.999812 
9.30351e-06 -0.0206101 0.999787 
-3.58692e-05 -0.0215917 0.999767 
-8.91589e-05 -0.0223153 0.999751 
-0.000149556 -0.0226964 0.999742 
-0.000209359 -0.0226876 0.999742 
-0.000273576 -0.0221351 0.999755 
-0.000346187 -0.0208263 0.999785 
-0.000380105 -0.0185504 0.999825 
-0.000501167 -0.0146951 0.999891 
-0.000687414 -0.00835198 0.999964 
-0.000847462 -0.000186732 0.999999 
-0.000960676 0.0109932 0.999938 
-0.000900901 0.0274112 0.999622 
-0.00117203 0.0478517 0.998852 
-0.00113169 0.0753989 0.997149 
-0.00167795 0.114418 0.993426 
-0.00376942 0.167521 0.985859 
-0.00632312 0.231016 0.972932 
-0.00785107 0.303449 0.952818 
-0.0103572 0.400953 0.916048 
-0.0178527 0.514097 0.857561 
-0.0188099 0.5934 0.80469 
-0.0151169 0.791277 0.611232 
0.00439057 0.973848 0.227137 
-0.00120369 0.857933 -0.513832 
0.0104224 0.708817 -0.705315 
0.0172294 0.50332 -0.863929 
0.0192704 0.438597 -0.898496 
0.00877896 0.322296 -0.946604 
0.00622202 0.233815 -0.972262 
0.00298507 0.163734 -0.986495 
0.00164907 0.109298 -0.994002 
0.00123753 0.0734926 -0.997291 
0.000955066 0.0449515 -0.998986 
0.000921364 0.0247782 -0.999691 
0.000948052 0.00938634 -0.999955 
0.000977668 -0.00117198 -0.999999 
0.000710263 -0.00914831 -0.999957 
0.000457046 -0.0152873 -0.999882 
0.000369063 -0.0188996 -0.999821 
0.000319803 -0.0210816 -0.999777 
0.000263145 -0.0222985 -0.999751 
0.000201697 -0.0227566 -0.999741 
0.000141444 -0.0226906 -0.999742 
8.36041e-05 -0.0222477 -0.999752 
3.08458e-05 -0.0214882 -0.999769 
-1.38674e-05 -0.0204328 -0.999791 
-4.76657e-05 -0.0191471 -0.999816 
-6.96231e-05 -0.0176915 -0.999843 
-8.40896e-05 -0.0161393 -0.999869 
-9.25817e-05 -0.0145377 -0.999894 
-9.6755e-05 -0.0129141 -0.999916 
-9.97281e-05 -0.01127 -0.999936 
-0.000100929 -0.00963004 -0.999953 
-9.65764e-05 -0.00800678 -0.999968 
-8.74797e-05 -0.00643021 -0.999979 
-7.75378e-05 -0.00493106 -0.999987 
-6.80554e-05 -0.00354518 -0.999993 
-5.7413e-05 -0.00226884 -0.999997 
-4.69912e-05 -0.0011322 -0.999999 
-2.47996e-05 -0.000161094 -1 
-4.88842e-05 0.00050957 -0.999999 
0.000121712 0.00103794 -0.999999 
-0.000458157 0.000544328 0.999999 
-0.000117851 0.000153454 0.999999 
0.00016313 -0.000252777 0.999999 
0.000240149 -0.00128292 0.999999 
0.000230837 -0.00242422 0.999996 
0.000245199 -0.00355918 0.999993 
0.000253367 -0.00472311 0.999988 
0.000493812 -0.00599066 0.999981 
0.000240187 -0.00758736 0.99997 
0.000204912 -0.00901226 0.999959 
0.000202976 -0.0105731 0.999943 
0.000100376 -0.0121718 0.999925 
-4.02777e-06 -0.0137464 0.999905 
-0.000128116 -0.0153134 0.999882 
-0.000340406 -0.0168001 0.999858 
-0.000622049 -0.0181476 0.999834 
-0.000991278 -0.0193021 0.999812 
-0.00149465 -0.0202106 0.999794 
-0.00205679 -0.0209151 0.999778 
-0.00273001 -0.0212758 0.999769 
-0.00339546 -0.02122 0.999768 
-0.00393744 -0.0206354 0.999779 
-0.00430116 -0.019279 0.999802 
-0.00439807 -0.0168789 0.999849 
-0.00422521 -0.0127673 0.999909 
-0.00393247 -0.00589272 0.999974 
-0.00360198 0.00389445 0.999985 
-0.00310556 0.0178488 0.999835 
-0.00120159 0.0367752 0.999322 
0.00156846 0.0621666 0.998064 
0.00471645 0.0983505 0.99514 
0.00821113 0.150889 0.988516 
0.0153361 0.213783 0.97676 
0.0107657 0.306939 0.951668 
0.0147157 0.409681 0.912109 
0.0343993 0.495389 0.86799 
0.0125865 0.59212 0.805751 
-0.00585109 0.70465 0.709532 
0.00123714 0.852305 0.52304 
-0.00418144 0.985797 -0.168083 
-0.016277 0.899603 -0.436326 
-0.0335738 0.623131 -0.781394 
0.00272647 0.532228 -0.846593 
-0.0719205 0.443026 -0.893619 
-0.0141643 0.394006 -0.918999 
-0.0146181 0.296073 -0.955053 
-0.0116644 0.210303 -0.977566 
-0.00683688 0.142275 -0.989802 
-0.00463394 0.0921073 -0.995737 
-0.000173755 0.056808 -0.998384 
0.00179601 0.0321408 -0.999481 
0.00298286 0.0147781 -0.999885 
0.00350879 0.00179212 -0.999991 
0.00403712 -0.00750627 -0.999963 
0.00421256 -0.0137158 -0.999896 
0.00427027 -0.0175136 -0.999837 
0.00421096 -0.0196465 -0.999797 
0.00388536 -0.0208082 -0.999775 
0.00335249 -0.0212812 -0.999767 
0.0027123 -0.0212569 -0.99977 
0.00206557 -0.0208646 -0.999779 
0.00147729 -0.0201759 -0.999795 
0.00100314 -0.0192275 -0.999814 
0.000627223 -0.0180743 -0.999836 
0.000357052 -0.0167527 -0.999859 
0.000160823 -0.0153088 -0.999882 
1.80422e-05 -0.0137914 -0.999904 
-9.31204e-05 -0.0122357 -0.999924 
-0.000171 -0.0106691 -0.999942 
-0.000229493 -0.00910611 -0.999958 
-0.00027062 -0.00756039 -0.999971 
-0.000283241 -0.00606394 -0.999981 
-0.000272958 -0.00465099 -0.999988 
-0.000260366 -0.0033333 -0.999994 
-0.000230707 -0.0021407 -0.999997 
-0.000156042 -0.00109283 -0.999999 
-2.87023e-05 -0.000296659 -0.999999 
0.000125271 0.000291015 -0.999999 
0.000464776 0.000541939 -0.999999 
-0.000405182 0.000120011 1 
-0.000198697 -7.55823e-05 0.999999 
-6.8187e-05 -0.000433376 0.999999 
3.62673e-05 -0.00105202 0.999999 
-4.58616e-05 -0.00189802 0.999997 
7.29061e-05 -0.00205659 0.999997 
6.70612e-05 -0.00328757 0.999993 
4.71965e-05 -0.00471077 0.999988 
5.85067e-05 -0.00628948 0.999979 
-0.000159063 -0.00769557 0.999969 
-0.000204337 -0.00922016 0.999957 
-0.000283801 -0.0107632 0.999941 
-0.000463814 -0.0122892 0.999924 
-0.000647412 -0.0138378 0.999903 
-0.00088649 -0.0152861 0.999882 
-0.0012249 -0.0166042 0.999861 
-0.00165099 -0.017744 0.999841 
-0.00221186 -0.0186011 0.999824 
-0.00290899 -0.0192918 0.999809 
-0.00368841 -0.0197583 0.999797 
-0.00455512 -0.0198489 0.999792 
-0.00533461 -0.019477 0.999795 
-0.00583319 -0.0185757 0.99981 
-0.0059439 -0.0169674 0.999838 
-0.00556001 -0.0142133 0.999883 
-0.00465453 -0.00961995 0.999942 
-0.0032607 -0.00231697 0.999991 
-0.00147999 0.00888265 0.999959 
0.00120543 0.0238749 0.999713 
0.00658665 0.0446652 0.998979 
0.0148857 0.0735186 0.997182 
0.0242363 0.115667 0.992991 
0.0425113 0.16617 0.98518 
0.0461264 0.251009 0.966885 
0.0641637 0.343049 0.937123 
0.0839085 0.419244 0.903987 
0.0674814 0.629924 0.773719 
0.0530741 0.74084 0.669581 
0.0286077 0.980819 0.192839 
0.0111994 0.998968 0.0440799 
-0.0306768 0.930634 -0.364693 
-0.0391664 0.743801 -0.667255 
-0.0783592 0.521152 -0.84986 
-0.140427 0.404881 -0.903521 
-0.0779152 0.353817 -0.932063 
-0.0620875 0.274912 -0.959462 
-0.046971 0.193541 -0.979967 
-0.0296393 0.129774 -0.9911 
-0.018982 0.0832731 -0.996345 
-0.0084198 0.0532667 -0.998544 
-0.00266964 0.0299154 -0.999548 
0.000657862 0.013265 -0.999911 
0.00259047 0.00103956 -0.999995 
0.00410027 -0.00764407 -0.999961 
0.00503563 -0.0133496 -0.999897 
0.00563956 -0.0165759 -0.999846 
0.00583031 -0.0183596 -0.999814 
0.00554579 -0.0193342 -0.999797 
0.00489702 -0.0197839 -0.999792 
0.00408225 -0.0198115 -0.999795 
0.00325515 -0.0195007 -0.999804 
0.00252131 -0.0189107 -0.999817 
0.0019202 -0.0180889 -0.999834 
0.00144892 -0.0170783 -0.999852 
0.00108026 -0.0158891 -0.999872 
0.00079806 -0.0145518 -0.999893 
0.000578354 -0.0131195 -0.999913 
0.000406445 -0.0116407 -0.999931 
0.00026422 -0.0101386 -0.999948 
0.000143488 -0.00863704 -0.999962 
4.60009e-05 -0.00716566 -0.999974 
-2.62647e-05 -0.00574695 -0.999983 
-7.54948e-05 -0.00439457 -0.99999 
-9.98291e-05 -0.00314514 -0.999994 
-9.86328e-05 -0.00202455 -0.999997 
-5.22399e-05 -0.00110919 -0.999999 
6.56214e-05 -0.000372069 -0.999999 
0.000200999 4.60153e-06 -0.999999 
0.000389945 9.87824e-05 -1 
-0.000209094 -4.68681e-05 1 
-0.000142747 -0.000144479 0.999999 
-8.91282e-05 -0.000506028 0.999999 
-3.66719e-05 -0.00109912 0.999999 
-0.000233387 -0.00188492 0.999997 
-0.000133636 -0.00299371 0.999995 
-0.000205676 -0.00434864 0.99999 
-0.000216855 -0.00599527 0.999981 
-0.000527511 -0.00740619 0.999972 
-0.000695758 -0.00897226 0.999959 
-0.000838091 -0.0104254 0.999945 
-0.00104847 -0.0118627 0.999928 
-0.00129685 -0.0132904 0.99991 
-0.00161106 -0.0146208 0.999891 
-0.00199529 -0.0157887 0.999873 
-0.00248991 -0.0167674 0.999855 
-0.00314066 -0.0175173 0.999841 
-0.00389323 -0.0180772 0.999828 
-0.0047891 -0.018429 0.999818 
-0.00572744 -0.0184735 0.999812 
-0.00656877 -0.0181043 0.999814 
-0.00701611 -0.0173384 0.999824 
-0.00689974 -0.0160091 0.999847 
-0.00612091 -0.0138033 0.999885 
-0.00462444 -0.0100024 0.999938 
-0.00233588 -0.00394116 0.999989 
0.00103032 0.00559514 0.999983 
0.00637501 0.0192035 0.999794 
0.0148943 0.0363627 0.999227 
0.0278635 0.0633433 0.997602 
0.0428854 0.100852 0.993976 
0.0699059 0.149722 0.986253 
0.0837225 0.230441 0.969478 
0.102008 0.145871 0.98403 
0.121751 0.24537 0.961753 
0.128127 0.328199 0.935879 
0.0972055 0.529138 0.84295 
0.129145 0.661236 0.738981 
0.0453975 0.975724 0.214249 
0.00155565 0.964224 -0.265094 
-0.0762483 0.756057 -0.650054 
-0.121133 0.745703 -0.655133 
-0.155837 0.485176 -0.860418 
-0.204122 0.395187 -0.895635 
-0.134551 0.315121 -0.939465 
-0.112554 0.242205 -0.963674 
-0.0833157 0.185677 -0.979072 
-0.0573553 0.124886 -0.990511 
-0.0387447 0.0806394 -0.995989 
-0.0215344 0.050958 -0.998468 
-0.010578 0.0307342 -0.999471 
-0.00442446 0.0135549 -0.999898 
-0.000241137 0.00191591 -0.999997 
0.00302871 -0.0063437 -0.999974 
0.00497247 -0.0118338 -0.999917 
0.00625907 -0.0150721 -0.999866 
0.00690458 -0.0168099 -0.999834 
0.00690459 -0.0177561 -0.999818 
0.00636079 -0.0182699 -0.999812 
0.00550012 -0.0184579 -0.999814 
0.0045688 -0.0183236 -0.999821 
0.00370741 -0.0179133 -0.999832 
0.00298356 -0.0172761 -0.999846 
0.00240114 -0.0164244 -0.999861 
0.00192537 -0.015416 -0.999879 
0.00155041 -0.0142068 -0.999897 
0.00125182 -0.0128713 -0.999916 
0.00101367 -0.011458 -0.999933 
0.000811741 -0.0100137 -0.999949 
0.000637723 -0.00856387 -0.999962 
0.000490873 -0.0071283 -0.999974 
0.000363194 -0.00574279 -0.999983 
0.000247998 -0.00443291 -0.999989 
0.000156515 -0.00321803 -0.999994 
9.10003e-05 -0.00214218 -0.999997 
6.66997e-05 -0.00123586 -0.999998 
7.89762e-05 -0.000550085 -0.999999 
0.000149869 -0.000148967 -0.999999 
0.000221297 -6.08805e-05 -1 
-4.01976e-05 1.35176e-05 1 
-5.99987e-05 -0.000102345 0.999999 
-0.000136798 -0.000455848 0.999999 
-0.000175483 -0.00105207 0.999999 
-0.000342599 -0.00293212 0.999995 
-0.000447322 -0.00415387 0.99999 
-0.000461673 -0.00382333 0.999992 
-0.000491204 -0.00567863 0.999983 
-0.000740208 -0.006665 0.999977 
-0.000920271 -0.00813434 0.999966 
-0.00114809 -0.00958337 0.999953 
-0.00138397 -0.0109295 0.999939 
-0.00165689 -0.0122974 0.999922 
-0.00200662 -0.0135652 0.999905 
-0.00242707 -0.0146739 0.999889 
-0.00293201 -0.0156077 0.999873 
-0.00357983 -0.016285 0.99986 
-0.00435106 -0.0167915 0.999849 
-0.00523854 -0.0171354 0.999839 
-0.00624942 -0.0172074 0.999832 
-0.00721422 -0.0169852 0.999829 
-0.00791376 -0.0164539 0.999833 
-0.0080557 -0.0155999 0.999845 
-0.00747901 -0.014236 0.99987 
-0.0060456 -0.0119015 0.99991 
-0.00366153 -0.00806598 0.99996 
0.000117076 -0.00193837 0.999997 
0.00566598 0.0068208 0.99996 
0.0141149 0.0178214 0.999741 
0.0273963 0.0364909 0.998957 
0.0466362 0.0620416 0.996983 
0.0664996 0.0922841 0.993509 
0.0965848 0.0906711 0.991185 
0.135867 0.120975 0.983313 
0.149323 0.206361 0.967015 
0.158624 0.407232 0.899444 
0.148342 0.501128 0.852565 
0.06201 0.871316 0.486789 
0.0257428 0.871772 0.489247 
0.0405492 0.98835 0.146771 
-0.000128805 0.980228 -0.197772 
-0.126748 0.793997 -0.594633 
-0.225228 0.512629 -0.828545 
-0.197793 0.300847 -0.932935 
-0.169833 0.235266 -0.956978 
-0.133583 0.174101 -0.975625 
-0.0945116 0.134014 -0.986462 
-0.0662571 0.0875505 -0.993953 
-0.0429301 0.0538312 -0.997626 
-0.0253018 0.033448 -0.999119 
-0.0133425 0.018508 -0.999739 
-0.0056443 0.00568652 -0.999967 
5.05524e-05 -0.0028762 -0.999995 
0.00370082 -0.0086901 -0.999955 
0.00597432 -0.0125718 -0.999902 
0.00735733 -0.0147858 -0.999863 
0.007963 -0.0159747 -0.99984 
0.0078557 -0.0166141 -0.99983 
0.00717328 -0.017011 -0.999829 
0.00621753 -0.0171821 -0.999832 
0.00523704 -0.0170903 -0.999839 
0.0043473 -0.0167575 -0.999849 
0.00358763 -0.0162215 -0.999861 
0.00296099 -0.0154545 -0.999875 
0.0024427 -0.0145865 -0.99989 
0.00202092 -0.0134726 -0.999906 
0.00167817 -0.01223 -0.999923 
0.00138918 -0.010886 -0.999939 
0.00114076 -0.00950424 -0.999953 
0.00092708 -0.00810769 -0.999966 
0.000747277 -0.00672694 -0.999976 
0.000588348 -0.00538215 -0.999984 
0.000452125 -0.0041268 -0.999991 
0.00034283 -0.00297626 -0.999995 
0.000254421 -0.00196995 -0.999997 
0.000185619 -0.00112403 -0.999998 
0.000136634 -0.000509631 -0.999999 
8.63649e-05 -0.000119729 -0.999999 
3.20022e-05 4.85108e-06 -1 
7.59833e-05 6.60919e-05 1 
2.89638e-05 -7.28728e-05 0.999999 
-7.42422e-05 -0.000466236 0.999999 
-0.000153896 -0.00102566 0.999998 
-0.000247152 -0.00186468 0.999998 
-0.000354836 -0.00289343 0.999995 
-0.000633121 -0.00486097 0.999987 
-0.000597636 -0.0050618 0.999986 
-0.000791099 -0.00620922 0.99998 
-0.00101543 -0.00762393 0.99997 
-0.00128349 -0.00903005 0.999958 
-0.00158262 -0.0103609 0.999944 
-0.00189134 -0.0116822 0.999929 
-0.00225688 -0.0128526 0.999914 
-0.0027043 -0.0138852 0.999899 
-0.00323443 -0.0147345 0.999885 
-0.0038785 -0.0153213 0.999874 
-0.00462565 -0.0157544 0.999864 
-0.00548932 -0.0160213 0.999856 
-0.00645533 -0.016089 0.999849 
-0.00744226 -0.0158864 0.999845 
-0.00827252 -0.0155394 0.999844 
-0.00866463 -0.0148997 0.999851 
-0.00841415 -0.0139853 0.999866 
-0.00732353 -0.0125448 0.999894 
-0.00518473 -0.0101514 0.999934 
-0.00155635 -0.00629583 0.999978 
0.00415479 -0.000717298 0.99999 
0.0128775 0.00640452 0.999896 
0.026923 0.0196195 0.999444 
0.0461521 0.0371647 0.998242 
0.0721078 0.0553318 0.99586 
0.11807 0.0569573 0.99137 
0.168716 0.0831534 0.982151 
0.198669 0.283049 0.938304 
0.234209 0.363007 0.901871 
0.181234 0.613125 0.768917 
0.213328 0.48935 0.845595 
0.0888867 0.90912 0.406967 
-0.0106473 0.967387 -0.253041 
-0.00653211 0.997467 -0.0705845 
-0.18026 0.745734 -0.641372 
-0.274334 0.424237 -0.863 
-0.240929 0.203514 -0.948966 
-0.187052 0.164636 -0.968455 
-0.136665 0.11285 -0.984168 
-0.09629 0.0837213 -0.991825 
-0.0644082 0.0500205 -0.996668 
-0.0441758 0.0270429 -0.998657 
-0.0280168 0.0195233 -0.999416 
-0.0144298 0.00907827 -0.999854 
-0.00496394 -0.000478788 -0.999987 
0.00134653 -0.00669114 -0.999976 
0.00504279 -0.0105232 -0.999931 
0.00713738 -0.0129717 -0.99989 
0.008262 -0.0144153 -0.999861 
0.00858524 -0.0151594 -0.999847 
0.00826496 -0.0156043 -0.999843 
0.00750048 -0.0159185 -0.999844 
0.00654804 -0.0160821 -0.999848 
0.00559719 -0.0160314 -0.999855 
0.00473257 -0.0157804 -0.999863 
0.00398548 -0.0153788 -0.999873 
0.00333924 -0.0147283 -0.999885 
0.00278704 -0.0139338 -0.999899 
0.00232631 -0.0129078 -0.999913 
0.00193966 -0.0117147 -0.999928 
0.00160869 -0.0104415 -0.999942 
0.00132062 -0.0091345 -0.999959 
0.0010668 -0.00778229 -0.999968 
0.000844432 -0.00643541 -0.999978 
0.000649229 -0.00514921 -0.999986 
0.000480437 -0.00393156 -0.999991 
0.000342399 -0.00282719 -0.999995 
0.00022997 -0.00186008 -0.999997 
0.000137702 -0.001053 -0.999999 
6.80732e-05 -0.000456229 -0.999999 
-1.36662e-05 -7.5464e-05 -0.999999 
-8.38377e-05 6.59559e-05 -0.999999 
0.000153633 0.000145815 1 
6.94518e-05 -7.34634e-06 0.999999 
-2.99672e-05 -0.000462214 0.999999 
-0.000121639 -0.00107395 0.999999 
-0.000213628 -0.00179208 0.999998 
-0.000326175 -0.00256233 0.999996 
-0.000476334 -0.00357764 0.999993 
-0.000714638 -0.00478527 0.999988 
-0.000900694 -0.0061768 0.99998 
-0.00115529 -0.00754129 0.99997 
-0.00144283 -0.00884993 0.999959 
-0.00175295 -0.0101027 0.999947 
-0.0020764 -0.0113128 0.999933 
-0.00246329 -0.012458 0.999919 
-0.00291452 -0.0133897 0.999905 
-0.00345028 -0.014152 0.999893 
-0.00406276 -0.0146195 0.999884 
-0.00477807 -0.0149932 0.999876 
-0.0055537 -0.015177 0.999868 
-0.00640628 -0.0152459 0.999863 
-0.00721644 -0.0150827 0.999859 
-0.0079281 -0.0148235 0.999858 
-0.00830078 -0.014438 0.999861 
-0.008103 -0.0139057 0.99987 
-0.00711287 -0.0130995 0.999888 
-0.00499877 -0.0117525 0.999918 
-0.00139501 -0.00961682 0.999952 
0.00449291 -0.00689601 0.999965 
0.0148366 -0.00230155 0.999887 
0.0294238 0.00569895 0.99955 
0.0497438 0.0169264 0.998617 
0.0788248 0.0279143 0.996497 
0.108832 0.0115536 0.993992 
0.15089 0.020834 0.988331 
0.187885 0.173367 0.966769 
0.259883 0.257572 0.930654 
0.292873 0.201702 0.934635 
0.275425 0.449347 0.849848 
0.225559 0.666847 0.710246 
0.138884 0.781208 0.608623 
-0.0512208 0.944631 -0.324165 
-0.132791 0.595883 -0.792008 
-0.262948 0.300216 -0.916912 
-0.277468 0.129189 -0.952009 
-0.20225 0.104623 -0.973729 
-0.152264 0.0641492 -0.986255 
-0.104451 0.0455254 -0.993487 
-0.0754988 0.020425 -0.996936 
-0.0481019 0.00549359 -0.998827 
-0.0284722 0.00239872 -0.999591 
-0.0152694 -0.000646921 -0.999882 
-0.00551237 -0.00653515 -0.999963 
0.0010468 -0.0100909 -0.999947 
0.0048764 -0.0121982 -0.999913 
0.00696608 -0.0134849 -0.999884 
0.00800447 -0.0142557 -0.999866 
0.00823431 -0.014706 -0.999857 
0.00790952 -0.0149457 -0.999856 
0.00725505 -0.0151259 -0.999859 
0.00644831 -0.0152412 -0.999862 
0.00561692 -0.0152189 -0.999867 
0.00484209 -0.0150263 -0.999875 
0.00413358 -0.0146446 -0.999883 
0.00351659 -0.0141196 -0.999894 
0.00296714 -0.0133696 -0.999905 
0.00250194 -0.0124324 -0.999919 
0.00210362 -0.011307 -0.999933 
0.00176029 -0.0101053 -0.999949 
0.00145285 -0.00881301 -0.999957 
0.00118145 -0.00751279 -0.99997 
0.000937113 -0.00620195 -0.99998 
0.000714456 -0.00493861 -0.999987 
0.000517419 -0.00373796 -0.999992 
0.000350346 -0.00266534 -0.999996 
0.000210326 -0.00173605 -0.999997 
9.7367e-05 -0.000973766 -0.999999 
1.00016e-05 -0.000413646 -0.999999 
-8.00965e-05 -2.8236e-05 -0.999999 
-0.000169684 0.000125887 -1 
0.000195704 0.000245215 1 
0.000105679 0.000136743 0.999999 
-1.36892e-05 -0.000308328 0.999999 
-0.000123923 -0.0008992 0.999999 
-0.000244183 -0.00166262 0.999998 
-0.000389488 -0.00254878 0.999996 
-0.000564561 -0.00362873 0.999992 
-0.000777694 -0.00480924 0.999987 
-0.00097385 -0.00602774 0.999981 
-0.00122039 -0.00730736 0.999972 
-0.0014934 -0.00857663 0.999961 
-0.00179975 -0.00986109 0.999949 
-0.00212779 -0.0110441 0.999936 
-0.00249273 -0.0120907 0.999923 
-0.00292202 -0.0129945 0.99991 
-0.00341607 -0.013648 0.9999 
-0.00399767 -0.0141493 0.999891 
-0.00462645 -0.0144234 0.999884 
-0.00529666 -0.014596 0.999879 
-0.00596254 -0.0146312 0.999874 
-0.00658342 -0.014641 0.999871 
-0.00706774 -0.0145676 0.999868 
-0.00725124 -0.0144798 0.999868 
-0.00696143 -0.0144012 0.999871 
-0.00596973 -0.014299 0.999879 
-0.0040103 -0.0140447 0.999892 
-0.000470983 -0.0136878 0.999905 
0.00556563 -0.0131341 0.999897 
0.0152395 -0.012668 0.999803 
0.0278527 -0.0110879 0.99955 
0.0444901 -0.00594746 0.998991 
0.0685426 -0.00270914 0.997644 
0.100107 -0.0202521 0.99477 
0.146062 -0.0308653 0.988793 
0.220927 0.128049 0.966847 
0.204218 0.0388769 0.978153 
0.260105 0.0690685 0.963107 
0.34583 0.379404 0.858162 
0.187749 0.801648 0.567523 
-0.0288252 0.983918 -0.176177 
-0.248008 0.616274 -0.747472 
-0.331993 0.209446 -0.919731 
-0.161118 0.291002 -0.943058 
-0.234445 0.0519583 -0.97074 
-0.182047 0.02543 -0.98296 
-0.126772 0.0111588 -0.991868 
-0.0937225 -0.00982171 -0.995549 
-0.0643868 -0.0121849 -0.99785 
-0.043889 -0.0196857 -0.998842 
-0.0300178 -0.0126031 -0.999469 
-0.0161225 -0.0112728 -0.999803 
-0.0065718 -0.0131382 -0.999893 
-9.45171e-05 -0.013986 -0.999902 
0.00372767 -0.0144111 -0.999888 
0.00582717 -0.0146015 -0.999876 
0.00690724 -0.014676 -0.999868 
0.00718791 -0.0147179 -0.999865 
0.00701276 -0.0147056 -0.999867 
0.00656838 -0.0147086 -0.99987 
0.00597566 -0.0147198 -0.999873 
0.00532062 -0.0146618 -0.999878 