# vtk DataFile Version 3.0 
Exported using Morpho https://github.com/Morpho-lang/morpho 
ASCII 
DATASET UNSTRUCTURED_GRID 

POINTS 1978 float 
-8.48528 -2.82843 -2.26325e-15 
-8.27215 -2.82843 -3.76516e-15 
-7.97581 -2.82843 -2.11951e-15 
-7.7237 -2.82843 -1.09648e-15 
-7.49704 -2.82843 1.09163e-15 
-7.28327 -2.82843 -1.03478e-15 
-7.06345 -2.82843 9.81644e-16 
-6.74786 -2.82843 1.34897e-15 
-6.54652 -2.82843 8.64557e-16 
-6.34377 -2.82843 5.55995e-16 
-6.1221 -2.82843 5.55965e-16 
-5.91025 -2.82843 6.78155e-16 
-5.69929 -2.82843 3.11626e-16 
-5.48575 -2.82843 -1.96314e-16 
-5.27563 -2.82843 -4.65271e-16 
-5.06486 -2.82843 -1.00049e-15 
-4.85415 -2.82843 -1.57582e-15 
-4.64633 -2.82843 -1.13553e-15 
-4.4355 -2.82843 2.49323e-15 
-4.22595 -2.82843 1.91533e-15 
-4.01723 -2.82843 5.66492e-15 
-3.8059 -2.82843 9.78022e-15 
-3.59537 -2.82843 1.77169e-14 
-3.3848 -2.82843 2.36454e-14 
-3.17408 -2.82843 3.25828e-14 
-2.96494 -2.82843 3.50111e-14 
-2.7623 -2.82843 2.46684e-14 
-2.5605 -2.82843 4.37514e-14 
-2.33301 -2.82843 3.53136e-14 
-2.10898 -2.82843 2.03622e-13 
-1.88356 -2.82843 6.41135e-13 
-1.65065 -2.82843 2.20398e-12 
-1.4365 -2.82843 6.544e-12 
-1.25738 -2.82843 2.17747e-11 
-1.08196 -2.82843 3.57737e-11 
-0.919521 -2.82843 8.58922e-11 
-0.775044 -2.82843 2.06635e-10 
-0.642873 -2.82843 2.14702e-10 
-0.469128 -2.82843 7.21166e-10 
-0.201469 -2.82843 -4.16976e-10 
0.454871 -2.82843 -2.39261e-09 
0.632736 -2.82843 -1.09268e-09 
0.785527 -2.82843 -1.06335e-10 
0.932653 -2.82843 -1.51108e-10 
1.07375 -2.82843 -4.51217e-11 
1.2468 -2.82843 -1.94701e-11 
1.44484 -2.82843 -6.38769e-12 
1.66952 -2.82843 -1.84199e-12 
1.88908 -2.82843 -4.9177e-13 
2.13255 -2.82843 -1.42556e-13 
2.36483 -2.82843 -7.37287e-14 
2.58645 -2.82843 -3.1517e-14 
2.77711 -2.82843 -2.60378e-14 
2.97642 -2.82843 -3.39562e-14 
3.1847 -2.82843 -3.45116e-14 
3.39754 -2.82843 -2.66498e-14 
3.614 -2.82843 -1.76745e-14 
3.82676 -2.82843 -9.85754e-15 
4.03729 -2.82843 -4.73109e-15 
4.2459 -2.82843 -4.34516e-16 
4.45389 -2.82843 -9.11428e-16 
4.66273 -2.82843 7.20645e-16 
4.87329 -2.82843 7.33154e-16 
5.08355 -2.82843 5.04843e-16 
5.29519 -2.82843 1.63193e-16 
5.50701 -2.82843 -1.76137e-17 
5.71974 -2.82843 -3.82401e-16 
5.93367 -2.82843 -5.18344e-16 
6.15018 -2.82843 -5.05824e-16 
6.36735 -2.82843 -4.20784e-16 
6.58666 -2.82843 -8.85864e-16 
6.81038 -2.82843 -1.59068e-15 
7.03819 -2.82843 -4.24397e-16 
7.26759 -2.82843 7.36376e-17 
7.5029 -2.82843 -4.06176e-16 
7.74293 -2.82843 1.50981e-15 
7.99109 -2.82843 1.63324e-15 
8.23003 -2.82843 2.98608e-15 
8.48528 -2.82843 2.33958e-15 
-8.48528 -2.59975 2.36706e-15 
-8.24393 -2.57369 -1.74874e-19 
-8.02014 -2.64043 -5.82997e-18 
-7.73591 -2.61497 -9.56628e-18 
-7.49441 -2.60019 -1.55379e-17 
-7.27224 -2.59452 -2.61661e-17 
-7.06506 -2.56377 -3.21456e-17 
-6.86678 -2.66528 -1.39276e-16 
-6.61526 -2.5735 -1.02598e-16 
-6.41117 -2.57897 -1.09787e-16 
-6.19838 -2.59987 -1.54325e-16 
-5.97838 -2.59604 -1.71359e-16 
-5.76264 -2.59647 -1.80173e-16 
-5.54678 -2.60088 -1.75411e-16 
-5.33056 -2.59824 -1.33173e-16 
-5.11595 -2.59993 -7.00929e-17 
-4.90009 -2.59975 8.21372e-18 
-4.68531 -2.59697 5.28997e-17 
-4.47217 -2.60111 6.05328e-17 
-4.25601 -2.60085 -1.82396e-17 
-4.03925 -2.59979 -2.14416e-16 
-3.82189 -2.60151 -5.25826e-18 
-3.59987 -2.59574 -1.13673e-17 
-3.37749 -2.59709 -1.96428e-17 
-3.15323 -2.59567 -2.72275e-17 
-2.92758 -2.58923 -2.03059e-17 
-2.70262 -2.58122 2.92937e-17 
-2.46265 -2.59104 2.11688e-16 
-2.21636 -2.57589 6.20448e-16 
-1.97242 -2.57085 -7.47493e-16 
-1.73021 -2.58941 -2.44651e-15 
-1.48541 -2.58458 7.05634e-14 
-1.29176 -2.6063 1.38605e-13 
-1.09867 -2.6325 4.80889e-13 
-0.932462 -2.63712 7.75679e-13 
-0.800669 -2.66429 7.85737e-13 
-0.672736 -2.69912 1.98402e-12 
-0.539612 -2.74612 3.92875e-12 
-0.373239 -2.77677 2.70992e-12 
0.0920514 -2.81064 3.98957e-11 
0.386368 -2.79443 -4.47227e-12 
0.681142 -2.71258 -5.29361e-12 
0.826366 -2.69909 -3.97243e-12 
0.860886 -2.53701 1.06808e-12 
0.969722 -2.66146 -8.40815e-13 
1.11981 -2.63136 -4.36853e-13 
1.29476 -2.60059 -2.2481e-13 
1.51654 -2.59538 -8.60916e-14 
1.75482 -2.57375 2.29124e-15 
2.01004 -2.59049 8.44495e-16 
2.26711 -2.58889 -6.27302e-16 
2.51063 -2.58876 -1.85599e-16 
2.74089 -2.56903 -1.2098e-17 
2.95585 -2.5918 1.68553e-17 
3.17591 -2.59701 2.74773e-17 
3.40136 -2.59719 1.83728e-17 
3.62558 -2.60082 1.01633e-17 
3.8438 -2.60008 4.41016e-18 
4.05803 -2.5988 1.62958e-16 
4.26978 -2.59768 -1.04167e-17 
4.48084 -2.59776 -6.62356e-17 
4.69236 -2.59874 -5.57762e-17 
4.90392 -2.59791 2.25793e-18 
5.11631 -2.59891 7.29228e-17 
5.32855 -2.59816 1.31572e-16 
5.54186 -2.59821 1.64122e-16 
5.75566 -2.59796 1.73459e-16 
5.97073 -2.59817 1.68122e-16 
6.18648 -2.59612 1.49566e-16 
6.40396 -2.5949 1.25415e-16 
6.62454 -2.59579 9.88975e-17 
6.84808 -2.59613 6.98042e-17 
7.07401 -2.59511 4.398e-17 
7.30503 -2.59895 2.62808e-17 
7.54067 -2.60171 1.31502e-17 
7.78173 -2.60693 8.67312e-18 
8.01801 -2.60538 -5.33746e-19 
8.26509 -2.61053 -3.89662e-19 
8.48528 -2.58312 -2.84774e-15 
-8.48528 -2.37067 2.29959e-15 
-8.2705 -2.31527 3.83359e-18 
-8.04703 -2.39512 5.98855e-18 
-7.81436 -2.42314 2.06088e-18 
-7.59455 -2.174 -3.73824e-18 
-7.56296 -2.39257 2.49407e-18 
-7.31418 -2.35203 -2.58386e-18 
-7.05375 -2.35694 -8.16034e-18 
-6.79662 -2.43536 2.14375e-17 
-6.55973 -2.32352 -1.00802e-17 
-6.34065 -2.3486 -1.28996e-17 
-6.12197 -2.36926 -2.58627e-17 
-5.90043 -2.36584 -1.37788e-18 
-5.67879 -2.37008 -5.82336e-18 
-5.46087 -2.3726 6.75679e-18 
-5.24145 -2.37108 2.14017e-17 
-5.02343 -2.3739 2.23412e-17 
-4.80614 -2.37098 4.60138e-17 
-4.58914 -2.36935 4.28471e-17 
-4.37487 -2.37442 4.05831e-17 
-4.15864 -2.37414 5.28691e-17 
-3.94159 -2.37301 4.49311e-17 
-3.72358 -2.37482 -7.18456e-17 
-3.50099 -2.37033 -2.77285e-16 
-3.27763 -2.36755 -5.11613e-18 
-3.05189 -2.36366 -4.654e-18 
-2.82202 -2.34973 7.8347e-18 
-2.57961 -2.35552 4.25721e-17 
-2.33572 -2.34552 2.06691e-16 
-2.08464 -2.32698 8.47936e-16 
-1.83535 -2.33083 -3.0422e-16 
-1.59371 -2.36504 -1.69039e-15 
-1.366 -2.34525 -2.3539e-15 
-1.17383 -2.43893 1.19719e-13 
-0.983675 -2.44102 2.23422e-13 
-0.824083 -2.46993 -3.56652e-15 
-0.563179 -2.62138 -2.52005e-13 
-0.434424 -2.66727 4.54406e-12 
-0.149081 -2.72459 4.96724e-12 
-0.0528852 -2.7782 -7.11407e-12 
0.301542 -2.76316 2.99256e-12 
0.554077 -2.74727 5.98637e-12 
0.736121 -2.58193 3.54072e-13 
0.80173 -2.38244 7.79798e-13 
0.984726 -2.46679 2.33463e-13 
1.11961 -2.4044 4.63611e-14 
1.30952 -2.37769 2.52723e-15 
1.52595 -2.35605 2.13235e-15 
1.75502 -2.32671 1.02237e-15 
1.99615 -2.35511 -5.05435e-16 
2.25531 -2.35468 -1.4643e-16 
2.50115 -2.35015 -2.03738e-17 
2.73638 -2.33689 -3.98556e-18 
2.97086 -2.35521 1.22016e-17 
3.2002 -2.37233 6.11077e-18 
3.42659 -2.37382 3.42725e-18 
3.64683 -2.37331 1.56302e-16 
3.86284 -2.37122 7.02444e-18 
4.07611 -2.36893 -4.50822e-17 
4.28835 -2.36753 -5.19166e-17 
4.50004 -2.36758 -5.40445e-17 
4.71199 -2.36841 -5.47445e-17 
4.92505 -2.36815 -4.40526e-17 
5.13739 -2.36809 -2.97163e-17 
5.35157 -2.36821 -1.23419e-17 
5.56593 -2.36744 3.04796e-18 
5.78036 -2.36652 9.19906e-18 
5.99501 -2.36501 1.36125e-17 
6.21157 -2.36241 1.66805e-17 
6.43066 -2.36108 1.807e-17 
6.65108 -2.36113 1.77425e-17 
6.87435 -2.36119 1.56613e-17 
7.10305 -2.36358 1.12118e-17 
7.33587 -2.37021 5.89296e-18 
7.57404 -2.37714 6.24599e-18 
7.80724 -2.37574 1.59965e-18 
8.04653 -2.38847 -3.45709e-18 
8.26831 -2.36148 -6.27597e-18 
8.48528 -2.33336 -2.13821e-15 
-8.48528 -2.11876 1.81419e-15 
-8.27419 -2.05581 -4.08538e-19 
-8.05407 -2.15241 1.99304e-18 
-7.82714 -2.19772 -2.84571e-18 
-7.595 -1.95368 1.1717e-17 
-7.35118 -2.14524 1.30469e-18 
-7.09052 -2.14801 9.07149e-18 
-6.81666 -2.22293 -3.4921e-18 
-6.57144 -2.10991 2.55994e-17 
-6.3296 -2.1125 3.84011e-17 
-6.11344 -2.13633 5.8589e-17 
-5.89639 -2.133 3.91535e-17 
-5.67829 -2.14196 6.44302e-17 
-5.45928 -2.14214 7.24545e-17 
-5.24355 -2.14383 7.7459e-17 
-5.02559 -2.1468 8.39824e-17 
-4.81084 -2.14079 6.59305e-17 
-4.59593 -2.14226 6.93279e-17 
-4.37829 -2.1445 6.01321e-17 
-4.16318 -2.14604 4.99182e-17 
-3.94629 -2.14485 4.38736e-17 
-3.72739 -2.14663 2.85729e-17 
-3.50625 -2.14317 -7.84136e-17 
-3.28231 -2.13682 -1.53822e-16 
-3.05306 -2.13239 -3.89685e-18 
-2.81426 -2.12182 -1.50352e-17 
-2.56968 -2.12197 -2.15909e-17 
-2.31721 -2.10892 -3.6833e-17 
-2.06355 -2.08834 -4.76129e-17 
-1.79762 -2.10257 5.07775e-16 
-1.55644 -2.13894 -1.84941e-16 
-1.31555 -2.14367 -2.62695e-15 
-1.12385 -2.25546 -1.21845e-13 
-1.19869 -1.99147 7.8288e-14 
-1.00732 -2.13735 1.50265e-13 
-0.908112 -2.2866 1.26768e-13 
-0.698192 -2.5544 2.58601e-13 
-0.561411 -2.49897 5.10783e-14 
-0.179285 -2.57692 -1.68322e-12 
0.200127 -2.83932 -6.5417e-12 
0.484531 -2.68011 3.08437e-12 
0.484413 -2.57171 -7.16744e-12 
0.686975 -2.44942 3.942e-13 
0.66999 -2.26276 -1.25161e-13 
0.90072 -2.2818 2.29912e-13 
1.03326 -2.19916 -1.8645e-15 
1.21615 -2.18035 -3.2477e-15 
1.4354 -2.13792 -3.55719e-16 
1.66595 -2.09226 -4.12378e-16 
1.91093 -2.10287 -4.87216e-16 
2.15822 -2.13036 -9.49164e-17 
2.41509 -2.11327 7.16888e-18 
2.65103 -2.10207 9.9728e-18 
2.89219 -2.12192 3.46943e-18 
3.12585 -2.14046 1.35788e-16 
3.35159 -2.14713 6.10081e-17 
3.57548 -2.14544 1.28885e-17 
3.79581 -2.14198 -4.05531e-17 
4.01221 -2.13938 -5.79678e-17 
4.22724 -2.13818 -5.56901e-17 
4.44209 -2.13715 -6.199e-17 
4.65662 -2.13801 -6.86029e-17 
4.87166 -2.13885 -7.63549e-17 
5.08787 -2.13698 -7.39764e-17 
5.30391 -2.13878 -8.04703e-17 
5.52196 -2.13748 -7.08121e-17 
5.7403 -2.13481 -6.32182e-17 
5.95801 -2.132 -5.43846e-17 
6.17634 -2.12969 -4.68493e-17 
6.3972 -2.12819 -3.82386e-17 
6.62085 -2.12543 -2.90926e-17 
6.84473 -2.12591 -1.95223e-17 
7.07219 -2.13104 -1.11889e-17 
7.30511 -2.13916 -4.86168e-18 
7.54172 -2.14962 -8.17936e-18 
7.78121 -2.14405 5.35791e-18 
8.01924 -2.15679 -1.78164e-18 
8.24903 -2.11789 1.58875e-19 
8.48528 -2.1021 -2.02088e-15 
-8.48528 -1.86339 5.40449e-16 
-8.26937 -1.79313 -9.54129e-19 
-8.0613 -1.90943 6.89415e-19 
[...]
POINT_DATA 1978 
VECTORS vectors float
-0.000131509 0.00100603 0.999999 
5.20483e-05 0.000591219 1 
4.66871e-05 -0.000257155 1 
7.25832e-05 -0.00129615 0.999999 
7.08466e-05 -0.00229038 0.999997 
8.44426e-05 -0.00347495 0.999994 
8.51407e-05 -0.00475227 0.999989 
0.000119152 -0.00687062 0.999976 
0.000132562 -0.00832582 0.999965 
9.93613e-05 -0.00979235 0.999952 
9.84707e-05 -0.0114772 0.999934 
0.000100499 -0.0130741 0.999915 
9.42165e-05 -0.0146926 0.999892 
8.87049e-05 -0.0163397 0.999867 
7.1783e-05 -0.0179311 0.999839 
4.17312e-05 -0.019361 0.999813 
9.28954e-06 -0.0206101 0.999788 
-3.57976e-05 -0.0215917 0.999767 
-8.89851e-05 -0.0223153 0.999751 
-0.00014927 -0.0226964 0.999742 
-0.000208954 -0.0226876 0.999743 
-0.000273045 -0.0221351 0.999755 
-0.000345531 -0.0208263 0.999783 
-0.000379346 -0.0185505 0.999828 
-0.000500185 -0.0146951 0.999892 
-0.000686128 -0.00835198 0.999965 
-0.000845907 -0.000186726 1 
-0.000958846 0.0109932 0.999939 
-0.000898935 0.0274112 0.999624 
-0.00116973 0.0478518 0.998854 
-0.00112913 0.0753992 0.997153 
-0.00167405 0.114418 0.993431 
-0.00376261 0.167521 0.985861 
-0.00631306 0.231016 0.972929 
-0.00783863 0.303448 0.952816 
-0.0103415 0.40095 0.916041 
-0.017831 0.51409 0.85755 
-0.0187845 0.593399 0.804689 
-0.0150936 0.791297 0.611247 
0.00438545 0.973853 0.227138 
-0.00120796 0.8579 -0.513812 
0.0104082 0.708817 -0.705316 
0.0172067 0.50332 -0.863929 
0.0192471 0.438589 -0.898481 
0.00876463 0.322294 -0.946599 
0.00621171 0.233815 -0.972261 
0.00297879 0.163735 -0.9865 
0.00164542 0.109299 -0.994008 
0.00123489 0.0734929 -0.997295 
0.00095291 0.0449516 -0.998989 
0.000919438 0.0247782 -0.999693 
0.000946264 0.00938635 -0.999956 
0.000976007 -0.00117198 -0.999999 
0.000708935 -0.00914831 -0.999958 
0.000456115 -0.0152873 -0.999883 
0.000368327 -0.0188996 -0.999821 
0.000319178 -0.0210816 -0.999778 
0.000262636 -0.0222986 -0.999751 
0.00020131 -0.0227566 -0.999741 
0.000141173 -0.0226906 -0.999743 
8.3443e-05 -0.0222477 -0.999753 
3.07841e-05 -0.0214882 -0.999769 
-1.38442e-05 -0.0204328 -0.999791 
-4.75773e-05 -0.0191471 -0.999817 
-6.94906e-05 -0.0176915 -0.999844 
-8.39281e-05 -0.0161393 -0.99987 
-9.24023e-05 -0.0145377 -0.999894 
-9.65649e-05 -0.0129141 -0.999917 
-9.95309e-05 -0.01127 -0.999937 
-0.00010073 -0.00963004 -0.999954 
-9.63826e-05 -0.00800679 -0.999968 
-8.72998e-05 -0.00643021 -0.999979 
-7.7376e-05 -0.00493106 -0.999988 
-6.7912e-05 -0.00354518 -0.999994 
-5.72889e-05 -0.00226884 -0.999997 
-4.68915e-05 -0.0011322 -0.999999 
-2.47277e-05 -0.000161095 -1 
-4.8849e-05 0.000509569 -1 
0.000121634 0.00103793 -0.999999 
-0.000458154 0.000544318 1 
-0.000117852 0.000153454 1 
0.000163129 -0.000252778 1 
0.000240148 -0.00128292 0.999999 
0.000230836 -0.00242422 0.999997 
0.000245199 -0.00355918 0.999994 
0.000253366 -0.00472311 0.999989 
0.000493809 -0.00599066 0.999982 
0.000240187 -0.00758736 0.999971 
0.000204911 -0.00901227 0.999959 
0.000202975 -0.0105731 0.999944 
0.000100375 -0.0121718 0.999926 
-4.02879e-06 -0.0137464 0.999906 
-0.000128117 -0.0153134 0.999883 
-0.000340407 -0.0168002 0.999859 
-0.000622049 -0.0181477 0.999835 
-0.000991279 -0.0193021 0.999813 
-0.00149465 -0.0202107 0.999795 
-0.00205679 -0.0209151 0.999779 
-0.00273001 -0.0212758 0.99977 
-0.00339546 -0.02122 0.999769 
-0.00393743 -0.0206354 0.999779 
-0.00430117 -0.0192791 0.999805 
-0.00439806 -0.0168788 0.999848 
-0.00422521 -0.0127673 0.99991 
-0.00393246 -0.00589272 0.999975 
-0.00360198 0.00389446 0.999986 
-0.00310555 0.0178489 0.999836 
-0.00120158 0.0367753 0.999323 
0.00156847 0.0621667 0.998065 
0.00471647 0.0983506 0.995141 
0.00821117 0.150889 0.988517 
0.0153361 0.213783 0.976761 
0.0107658 0.306939 0.951668 
0.0147158 0.409681 0.91211 
0.0343993 0.495389 0.86799 
0.0125866 0.59212 0.805752 
-0.00585091 0.704649 0.709532 
0.00123723 0.852306 0.523042 
-0.0041812 0.985764 -0.168076 
-0.0162777 0.899636 -0.436342 
-0.033574 0.623132 -0.781396 
0.00272629 0.532229 -0.846596 
-0.0719205 0.443026 -0.893619 
-0.0141644 0.394006 -0.918999 
-0.0146182 0.296073 -0.955053 
-0.0116645 0.210303 -0.977567 
-0.00683692 0.142275 -0.989804 
-0.00463396 0.0921073 -0.995738 
-0.000173773 0.056808 -0.998385 
0.001796 0.0321408 -0.999482 
0.00298285 0.0147781 -0.999886 
0.00350878 0.00179213 -0.999992 
0.00403711 -0.00750627 -0.999964 
0.00421256 -0.0137159 -0.999897 
0.00427026 -0.0175136 -0.999838 
0.00421095 -0.0196465 -0.999798 
0.00388536 -0.0208082 -0.999776 
0.00335249 -0.0212813 -0.999768 
0.0027123 -0.0212569 -0.99977 
0.00206557 -0.0208647 -0.99978 
0.00147729 -0.0201759 -0.999795 
0.00100314 -0.0192275 -0.999815 
0.000627224 -0.0180743 -0.999836 
0.000357053 -0.0167527 -0.99986 
0.000160824 -0.0153088 -0.999883 
1.80433e-05 -0.0137914 -0.999905 
-9.31194e-05 -0.0122357 -0.999925 
-0.000170999 -0.0106691 -0.999943 
-0.000229492 -0.00910612 -0.999959 
-0.000270619 -0.0075604 -0.999971 
-0.000283241 -0.00606394 -0.999982 
-0.000272957 -0.00465099 -0.999989 
-0.000260365 -0.00333331 -0.999994 
-0.000230706 -0.0021407 -0.999998 
-0.000156042 -0.00109283 -0.999999 
-2.87021e-05 -0.00029666 -1 
0.000125272 0.000291015 -1 
0.000464774 0.000541929 -1 
-0.00040518 0.000120007 1 
-0.000198697 -7.55827e-05 1 
-6.81868e-05 -0.000433377 1 
3.62676e-05 -0.00105202 0.999999 
-4.5862e-05 -0.00189803 0.999998 
7.29062e-05 -0.0020566 0.999998 
6.7061e-05 -0.00328758 0.999995 
4.71963e-05 -0.00471077 0.999989 
5.8507e-05 -0.00628948 0.99998 
-0.000159063 -0.00769558 0.99997 
-0.000204337 -0.00922017 0.999958 
-0.000283801 -0.0107632 0.999942 
-0.000463815 -0.0122892 0.999924 
-0.000647412 -0.0138378 0.999904 
-0.000886491 -0.0152861 0.999883 
-0.0012249 -0.0166042 0.999861 
-0.00165099 -0.017744 0.999841 
-0.00221186 -0.0186012 0.999825 
-0.00290899 -0.0192918 0.99981 
-0.00368841 -0.0197584 0.999798 
-0.00455513 -0.0198489 0.999793 
-0.00533461 -0.019477 0.999796 
-0.00583319 -0.0185757 0.99981 
-0.0059439 -0.0169675 0.999838 
-0.00556001 -0.0142133 0.999884 
-0.00465453 -0.00961995 0.999943 
-0.0032607 -0.00231697 0.999992 
-0.00147999 0.00888266 0.999959 
0.00120544 0.023875 0.999714 
0.00658667 0.0446652 0.99898 
0.0148857 0.0735186 0.997183 
0.0242363 0.115667 0.992992 
0.0425113 0.16617 0.98518 
0.0461265 0.251009 0.966885 
0.0641637 0.343049 0.937123 
0.0839086 0.419245 0.903988 
0.0674814 0.629925 0.773719 
0.0530741 0.740841 0.669581 
0.0286076 0.980813 0.192838 
0.0111993 0.998965 0.0440794 
-0.0306765 0.930624 -0.364688 
-0.0391662 0.7438 -0.667254 
-0.0783592 0.521152 -0.849859 
-0.140427 0.404882 -0.903522 
-0.0779152 0.353817 -0.932064 
-0.0620875 0.274912 -0.959463 
-0.046971 0.193541 -0.979967 
-0.0296394 0.129774 -0.9911 
-0.018982 0.0832732 -0.996346 
-0.00841982 0.0532668 -0.998545 
-0.00266965 0.0299154 -0.999549 
0.000657858 0.013265 -0.999912 
0.00259047 0.00103957 -0.999996 
0.00410027 -0.00764407 -0.999962 
0.00503564 -0.0133496 -0.999898 
0.00563956 -0.0165759 -0.999847 
0.00583031 -0.0183596 -0.999814 
0.0055458 -0.0193342 -0.999798 
0.00489702 -0.0197839 -0.999792 
0.00408226 -0.0198115 -0.999795 
0.00325516 -0.0195007 -0.999805 
0.00252132 -0.0189107 -0.999818 
0.0019202 -0.0180889 -0.999835 
0.00144892 -0.0170783 -0.999853 
0.00108026 -0.0158891 -0.999873 
0.000798061 -0.0145518 -0.999894 
0.000578355 -0.0131195 -0.999914 
0.000406446 -0.0116407 -0.999932 
0.000264221 -0.0101387 -0.999949 
0.000143488 -0.00863704 -0.999963 
4.60012e-05 -0.00716566 -0.999974 
-2.62644e-05 -0.00574695 -0.999984 
-7.54946e-05 -0.00439457 -0.99999 
-9.9829e-05 -0.00314515 -0.999995 
-9.86327e-05 -0.00202455 -0.999998 
-5.22397e-05 -0.00110919 -0.999999 
6.56214e-05 -0.00037207 -1 
0.000200999 4.60121e-06 -1 
0.000389943 9.87793e-05 -1 
-0.000209093 -4.68683e-05 1 
-0.000142747 -0.000144479 1 
-8.91284e-05 -0.000506029 1 
-3.66721e-05 -0.00109912 0.999999 
-0.000233387 -0.00188493 0.999998 
-0.000133636 -0.00299371 0.999996 
-0.000205677 -0.00434864 0.999991 
-0.000216855 -0.00599527 0.999982 
-0.000527511 -0.00740619 0.999972 
-0.000695758 -0.00897226 0.99996 
-0.000838091 -0.0104254 0.999945 
-0.00104847 -0.0118627 0.999929 
-0.00129685 -0.0132904 0.999911 
-0.00161106 -0.0146208 0.999892 
-0.00199529 -0.0157887 0.999873 
-0.00248991 -0.0167674 0.999856 
-0.00314066 -0.0175173 0.999842 
-0.00389323 -0.0180772 0.999829 
-0.0047891 -0.018429 0.999819 
-0.00572744 -0.0184736 0.999813 
-0.00656877 -0.0181044 0.999815 
-0.00701611 -0.0173384 0.999825 
-0.00689974 -0.0160091 0.999848 
-0.00612091 -0.0138033 0.999886 
-0.00462444 -0.0100024 0.999939 
-0.00233588 -0.00394115 0.99999 
0.00103032 0.00559515 0.999984 
0.00637502 0.0192036 0.999795 
0.0148943 0.0363628 0.999228 
0.0278635 0.0633434 0.997603 
0.0428854 0.100852 0.993977 
0.069906 0.149722 0.986254 
0.0837225 0.230441 0.969478 
0.102008 0.145871 0.984031 
0.121751 0.24537 0.961754 
0.128127 0.328199 0.935879 
0.0972054 0.529137 0.84295 
0.129144 0.661234 0.73898 
0.0453975 0.975724 0.214249 
0.00155563 0.964221 -0.265094 
-0.0762482 0.756055 -0.650052 
-0.121136 0.745724 -0.655153 
-0.155837 0.485176 -0.860418 
-0.204122 0.395187 -0.895635 
-0.134551 0.315121 -0.939465 
-0.112554 0.242205 -0.963674 
-0.0833157 0.185677 -0.979072 
-0.0573553 0.124886 -0.990512 
-0.0387447 0.0806395 -0.99599 
-0.0215344 0.050958 -0.998469 
-0.010578 0.0307342 -0.999472 
-0.00442446 0.0135549 -0.999898 
-0.000241136 0.00191592 -0.999998 
0.00302871 -0.0063437 -0.999975 
0.00497247 -0.0118338 -0.999918 
0.00625908 -0.0150721 -0.999867 
0.00690459 -0.01681 -0.999835 
0.00690459 -0.0177561 -0.999819 
0.00636079 -0.0182699 -0.999813 
0.00550012 -0.0184579 -0.999815 
0.00456881 -0.0183236 -0.999822 
0.00370741 -0.0179133 -0.999833 
0.00298356 -0.0172761 -0.999846 
0.00240114 -0.0164244 -0.999862 
0.00192537 -0.015416 -0.999879 
0.00155041 -0.0142068 -0.999898 
0.00125182 -0.0128713 -0.999916 
0.00101367 -0.011458 -0.999934 
0.000811741 -0.0100137 -0.99995 
0.000637723 -0.00856387 -0.999963 
0.000490874 -0.00712831 -0.999975 
0.000363194 -0.00574279 -0.999983 
0.000247998 -0.00443291 -0.99999 
0.000156515 -0.00321803 -0.999995 
9.10004e-05 -0.00214218 -0.999998 
6.66999e-05 -0.00123586 -0.999999 
7.89764e-05 -0.000550085 -1 
0.000149869 -0.000148967 -1 
0.000221296 -6.08804e-05 -1 
-4.01973e-05 1.35167e-05 1 
-5.99987e-05 -0.000102346 1 
-0.000136798 -0.000455849 1 
-0.000175483 -0.00105207 0.999999 
-0.000342598 -0.00293213 0.999996 
-0.000447322 -0.00415387 0.999991 
-0.000461674 -0.00382333 0.999993 
-0.000491204 -0.00567863 0.999984 
-0.000740209 -0.006665 0.999978 
-0.000920272 -0.00813434 0.999967 
-0.00114809 -0.00958338 0.999953 
-0.00138397 -0.0109295 0.999939 
-0.00165689 -0.0122974 0.999923 
-0.00200662 -0.0135652 0.999906 
-0.00242707 -0.0146739 0.999889 
-0.00293201 -0.0156077 0.999874 
-0.00357983 -0.016285 0.999861 
-0.00435107 -0.0167915 0.99985 
-0.00523854 -0.0171354 0.999839 
-0.00624943 -0.0172074 0.999832 
-0.00721422 -0.0169852 0.99983 
-0.00791376 -0.0164539 0.999833 
-0.00805571 -0.0155999 0.999846 
-0.00747901 -0.014236 0.999871 
-0.00604561 -0.0119015 0.999911 
-0.00366153 -0.00806598 0.999961 
0.000117076 -0.00193837 0.999998 
0.00566598 0.00682081 0.999961 
0.0141149 0.0178214 0.999742 
0.0273963 0.036491 0.998958 
0.0466362 0.0620416 0.996983 
0.0664997 0.0922842 0.99351 
0.0965849 0.0906712 0.991186 
0.135867 0.120975 0.983313 
0.149323 0.206361 0.967015 
0.158625 0.407232 0.899444 
0.148342 0.501127 0.852564 
0.0620102 0.871315 0.48679 
0.0257426 0.871767 0.489243 
0.0405492 0.988339 0.14677 
-0.000128769 0.980248 -0.197776 
-0.126742 0.793962 -0.594606 
-0.225227 0.512628 -0.828544 
-0.197793 0.300847 -0.932936 
-0.169833 0.235266 -0.956978 
-0.133583 0.174101 -0.975625 
-0.0945117 0.134014 -0.986462 
-0.0662571 0.0875506 -0.993954 
-0.0429302 0.0538312 -0.997627 
-0.0253019 0.033448 -0.99912 
-0.0133425 0.018508 -0.99974 
-0.00564431 0.00568653 -0.999968 
5.05521e-05 -0.00287619 -0.999996 
0.00370082 -0.0086901 -0.999955 
0.00597432 -0.0125718 -0.999903 
0.00735733 -0.0147858 -0.999864 
0.00796301 -0.0159747 -0.999841 
0.0078557 -0.0166141 -0.999831 
0.00717328 -0.017011 -0.99983 
0.00621753 -0.0171821 -0.999833 
0.00523705 -0.0170903 -0.99984 
0.0043473 -0.0167575 -0.99985 
0.00358763 -0.0162215 -0.999862 
0.002961 -0.0154545 -0.999876 
0.0024427 -0.0145865 -0.999891 
0.00202092 -0.0134726 -0.999907 
0.00167817 -0.01223 -0.999924 
0.00138918 -0.010886 -0.99994 
0.00114076 -0.00950425 -0.999954 
0.00092708 -0.00810769 -0.999967 
0.000747277 -0.00672694 -0.999977 
0.000588348 -0.00538216 -0.999985 
0.000452125 -0.00412681 -0.999991 
0.000342829 -0.00297626 -0.999996 
0.000254421 -0.00196996 -0.999998 
0.000185618 -0.00112404 -0.999999 
0.000136634 -0.000509632 -1 
8.63649e-05 -0.000119729 -1 
3.2002e-05 4.8504e-06 -1 
7.59829e-05 6.60901e-05 1 
2.89637e-05 -7.28733e-05 1 
-7.42423e-05 -0.000466237 1 
-0.000153896 -0.00102566 1 
-0.000247152 -0.00186468 0.999998 
-0.000354836 -0.00289344 0.999996 
-0.000633122 -0.00486097 0.999988 
-0.000597636 -0.0050618 0.999987 
-0.0007911 -0.00620922 0.99998 
-0.00101543 -0.00762393 0.99997 
-0.00128349 -0.00903005 0.999958 
-0.00158262 -0.010361 0.999945 
-0.00189134 -0.0116822 0.99993 
-0.00225689 -0.0128526 0.999915 
-0.0027043 -0.0138852 0.9999 
-0.00323443 -0.0147345 0.999886 
-0.0038785 -0.0153213 0.999875 
-0.00462566 -0.0157545 0.999865 
-0.00548932 -0.0160213 0.999857 
-0.00645534 -0.016089 0.99985 
-0.00744226 -0.0158864 0.999846 
-0.00827253 -0.0155394 0.999845 
-0.00866463 -0.0148997 0.999851 
-0.00841415 -0.0139853 0.999867 
-0.00732353 -0.0125448 0.999895 
-0.00518473 -0.0101514 0.999935 
-0.00155634 -0.00629583 0.999979 
0.0041548 -0.000717294 0.999991 
0.0128775 0.00640454 0.999897 
0.0269231 0.0196195 0.999445 
0.0461521 0.0371648 0.998243 
0.0721079 0.0553319 0.995861 
0.11807 0.0569573 0.99137 
0.168716 0.0831534 0.982151 
0.198669 0.283049 0.938304 
0.234209 0.363007 0.901872 
0.181234 0.613124 0.768916 
0.213328 0.489349 0.845594 
0.0888856 0.90911 0.406962 
-0.0106474 0.967397 -0.253043 
-0.00653218 0.997485 -0.0705856 
-0.180263 0.745746 -0.641381 
-0.274333 0.424236 -0.862998 
-0.240929 0.203514 -0.948965 
-0.187052 0.164636 -0.968456 
-0.136665 0.11285 -0.984169 
-0.0962901 0.0837214 -0.991826 
-0.0644083 0.0500206 -0.996669 
-0.0441759 0.0270429 -0.998658 
-0.0280168 0.0195233 -0.999417 
-0.0144298 0.00907829 -0.999855 
-0.00496395 -0.000478785 -0.999988 
0.00134653 -0.00669114 -0.999977 
0.00504279 -0.0105232 -0.999932 
0.00713738 -0.0129717 -0.99989 
0.008262 -0.0144153 -0.999862 
0.00858525 -0.0151594 -0.999848 
0.00826496 -0.0156043 -0.999844 
0.00750048 -0.0159186 -0.999845 
0.00654804 -0.0160821 -0.999849 
0.0055972 -0.0160314 -0.999856 
0.00473257 -0.0157804 -0.999864 
0.00398548 -0.0153788 -0.999874 
0.00333924 -0.0147283 -0.999886 
0.00278704 -0.0139338 -0.999899 
0.00232631 -0.0129078 -0.999914 
0.00193966 -0.0117147 -0.99993 
0.0016087 -0.0104416 -0.999944 
0.00132062 -0.00913449 -0.999957 
0.0010668 -0.0077823 -0.999969 
0.000844432 -0.00643542 -0.999979 
0.000649229 -0.00514922 -0.999987 
0.000480437 -0.00393156 -0.999992 
0.0003424 -0.0028272 -0.999996 
0.00022997 -0.00186008 -0.999998 
0.000137702 -0.001053 -0.999999 
6.80733e-05 -0.000456229 -1 
-1.36661e-05 -7.54645e-05 -1 
-8.38372e-05 6.59543e-05 -1 
0.000153632 0.000145812 1 
6.94518e-05 -7.34674e-06 1 
-2.99674e-05 -0.000462215 1 
-0.000121639 -0.00107395 0.999999 
-0.000213629 -0.00179208 0.999998 
-0.000326175 -0.00256233 0.999997 
-0.000476335 -0.00357765 0.999994 
-0.000714638 -0.00478527 0.999988 
-0.000900695 -0.00617681 0.999981 
-0.00115529 -0.0075413 0.999971 
-0.00144283 -0.00884994 0.99996 
-0.00175295 -0.0101027 0.999947 
-0.0020764 -0.0113128 0.999934 
-0.00246329 -0.012458 0.999919 
-0.00291452 -0.0133897 0.999906 
-0.00345028 -0.014152 0.999894 
-0.00406276 -0.0146195 0.999885 
-0.00477807 -0.0149932 0.999876 
-0.0055537 -0.015177 0.999869 
-0.00640629 -0.0152459 0.999863 
-0.00721645 -0.0150827 0.99986 
-0.00792811 -0.0148235 0.999859 
-0.00830079 -0.014438 0.999861 
-0.008103 -0.0139057 0.999871 
-0.00711287 -0.0130995 0.999889 
-0.00499877 -0.0117525 0.999918 
-0.001395 -0.00961682 0.999953 
0.00449292 -0.00689602 0.999966 
0.0148366 -0.00230155 0.999887 
0.0294238 0.00569896 0.999551 
0.0497439 0.0169265 0.998619 
0.0788248 0.0279143 0.996498 
0.108832 0.0115536 0.993993 
0.15089 0.020834 0.988331 
0.187885 0.173367 0.966769 
0.259883 0.257572 0.930654 
0.292873 0.201702 0.934635 
0.275423 0.449344 0.849842 
0.225557 0.666843 0.710242 
0.138884 0.781209 0.608624 
-0.0512201 0.944614 -0.32416 
-0.132792 0.595887 -0.792013 
-0.262948 0.300216 -0.916913 
-0.277468 0.129189 -0.952009 
-0.202251 0.104623 -0.973729 
-0.152265 0.0641493 -0.986256 
-0.104451 0.0455254 -0.993488 
-0.0754989 0.0204251 -0.996937 
-0.048102 0.0054936 -0.998827 
-0.0284723 0.00239872 -0.999592 
-0.0152694 -0.000646919 -0.999883 
-0.00551238 -0.00653515 -0.999963 
0.00104679 -0.0100909 -0.999949 
0.00487639 -0.0121982 -0.999914 
0.00696608 -0.0134849 -0.999885 
0.00800448 -0.0142557 -0.999866 
0.00823431 -0.014706 -0.999858 
0.00790952 -0.0149457 -0.999857 
0.00725506 -0.015126 -0.999859 
0.00644831 -0.0152412 -0.999863 
0.00561693 -0.0152189 -0.999868 
0.0048421 -0.0150263 -0.999875 
0.00413359 -0.0146446 -0.999884 
0.00351659 -0.0141196 -0.999894 
0.00296714 -0.0133696 -0.999906 
0.00250194 -0.0124324 -0.99992 
0.00210362 -0.011307 -0.999934 
0.00176029 -0.0101053 -0.999947 
0.00145285 -0.00881303 -0.99996 
0.00118145 -0.0075128 -0.999971 
0.000937114 -0.00620196 -0.99998 
0.000714457 -0.00493861 -0.999988 
0.000517419 -0.00373796 -0.999993 
0.000350346 -0.00266534 -0.999996 
0.000210327 -0.00173605 -0.999999 
9.73672e-05 -0.000973767 -1 
1.00017e-05 -0.000413647 -1 
-8.00965e-05 -2.82364e-05 -1 
-0.000169683 0.000125884 -1 
0.000195703 0.00024521 1 
0.000105679 0.000136742 1 
-1.36892e-05 -0.000308328 1 
-0.000123923 -0.000899201 1 
-0.000244183 -0.00166262 0.999999 
-0.000389488 -0.00254878 0.999997 
-0.000564562 -0.00362873 0.999993 
-0.000777694 -0.00480924 0.999988 
-0.000973851 -0.00602775 0.999981 
-0.00122039 -0.00730736 0.999973 
-0.00149341 -0.00857664 0.999962 
-0.00179975 -0.00986109 0.99995 
-0.00212779 -0.0110441 0.999937 
-0.00249273 -0.0120907 0.999924 
-0.00292202 -0.0129945 0.999911 
-0.00341607 -0.0136481 0.999901 
-0.00399768 -0.0141493 0.999892 
-0.00462646 -0.0144234 0.999885 
-0.00529666 -0.014596 0.999879 
-0.00596255 -0.0146312 0.999875 
-0.00658342 -0.014641 0.999871 
-0.00706774 -0.0145676 0.999869 
-0.00725124 -0.0144798 0.999869 
-0.00696143 -0.0144012 0.999872 
-0.00596973 -0.014299 0.99988 
-0.0040103 -0.0140447 0.999893 
-0.000470979 -0.0136878 0.999906 
0.00556564 -0.0131341 0.999898 
0.0152395 -0.012668 0.999804 
0.0278527 -0.0110879 0.999551 
0.0444902 -0.00594746 0.998992 
0.0685427 -0.00270914 0.997645 
0.100107 -0.0202521 0.994771 
0.146062 -0.0308653 0.988794 
0.220927 0.128049 0.966848 
0.204218 0.0388769 0.978153 
0.260105 0.0690684 0.963107 
0.345833 0.379406 0.858168 
0.187751 0.80166 0.567531 
-0.0288259 0.983937 -0.176181 
-0.248006 0.616269 -0.747466 
-0.331994 0.209447 -0.919735 
-0.161118 0.291002 -0.943058 
-0.234445 0.0519583 -0.97074 
-0.182047 0.0254301 -0.982961 
-0.126772 0.0111588 -0.991869 
-0.0937225 -0.00982171 -0.99555 
-0.0643868 -0.0121849 -0.997851 
-0.043889 -0.0196857 -0.998842 
-0.0300179 -0.0126031 -0.99947 
-0.0161225 -0.0112728 -0.999807 
-0.0065718 -0.0131382 -0.999892 
-9.45225e-05 -0.013986 -0.999902 
0.00372767 -0.0144112 -0.999889 
0.00582717 -0.0146015 -0.999876 
0.00690724 -0.014676 -0.999868 
0.00718791 -0.0147179 -0.999866 
0.00701276 -0.0147056 -0.999867 
0.00656838 -0.0147086 -0.99987 
0.00597566 -0.0147198 -0.999874 
0.00532062 -0.0146619 -0.999878 
0.00467669 -0.0145121 -0.999884 
0.00404904 -0.0141767 -0.999891 
0.00347313 -0.0136781 -0.9999 
0.0029604 -0.0129583 -0.999912 
0.00252514 -0.0120874 -0.999924 
0.00214424 -0.0110244 -0.999937 
0.00181263 -0.00985413 -0.99995 
0.00151615 -0.00861023 -0.999962 