# vtk DataFile Version 3.0 
Exported using Morpho https://github.com/Morpho-lang/morpho 
ASCII 
DATASET UNSTRUCTURED_GRID 

POINTS 1978 float 
-8.48528 -2.82843 -1.61999e-15 
-8.27215 -2.82843 -2.69503e-15 
-7.97581 -2.82843 -1.51711e-15 
-7.7237 -2.82843 -7.84845e-16 
-7.49704 -2.82843 7.81367e-16 
-7.28327 -2.82843 -7.40679e-16 
-7.06345 -2.82843 7.02644e-16 
-6.74786 -2.82843 9.6557e-16 
-6.54652 -2.82843 6.18835e-16 
-6.34377 -2.82843 3.97972e-16 
-6.1221 -2.82843 3.9795e-16 
-5.91025 -2.82843 4.85412e-16 
-5.69929 -2.82843 2.23056e-16 
-5.48575 -2.82843 -1.40518e-16 
-5.27563 -2.82843 -3.33034e-16 
-5.06486 -2.82843 -7.16138e-16 
-4.85415 -2.82843 -1.12794e-15 
-4.64633 -2.82843 -8.12793e-16 
-4.4355 -2.82843 1.78461e-15 
-4.22595 -2.82843 1.37096e-15 
-4.01723 -2.82843 4.05485e-15 
-3.8059 -2.82843 7.00052e-15 
-3.59537 -2.82843 1.26814e-14 
-3.3848 -2.82843 1.6925e-14 
-3.17408 -2.82843 2.33223e-14 
-2.96494 -2.82843 2.50604e-14 
-2.7623 -2.82843 1.76572e-14 
-2.5605 -2.82843 3.13165e-14 
-2.33301 -2.82843 2.52768e-14 
-2.10898 -2.82843 1.4575e-13 
-1.88356 -2.82843 4.58914e-13 
-1.65065 -2.82843 1.57758e-12 
-1.4365 -2.82843 4.68409e-12 
-1.25738 -2.82843 1.5586e-11 
-1.08196 -2.82843 2.56063e-11 
-0.919521 -2.82843 6.14803e-11 
-0.775044 -2.82843 1.47906e-10 
-0.642873 -2.82843 1.53681e-10 
-0.469128 -2.82843 5.16199e-10 
-0.201469 -2.82843 -2.98467e-10 
0.454871 -2.82843 -1.71259e-09 
0.632736 -2.82843 -7.82125e-10 
0.785527 -2.82843 -7.61133e-11 
0.932653 -2.82843 -1.08161e-10 
1.07375 -2.82843 -3.22975e-11 
1.2468 -2.82843 -1.39364e-11 
1.44484 -2.82843 -4.57221e-12 
1.66952 -2.82843 -1.31847e-12 
1.88908 -2.82843 -3.52001e-13 
2.13255 -2.82843 -1.02039e-13 
2.36483 -2.82843 -5.27737e-14 
2.58645 -2.82843 -2.25593e-14 
2.77711 -2.82843 -1.86374e-14 
2.97642 -2.82843 -2.43053e-14 
3.1847 -2.82843 -2.47029e-14 
3.39754 -2.82843 -1.90755e-14 
3.614 -2.82843 -1.26511e-14 
3.82676 -2.82843 -7.05586e-15 
4.03729 -2.82843 -3.38644e-15 
4.2459 -2.82843 -3.11018e-16 
4.45389 -2.82843 -6.52383e-16 
4.66273 -2.82843 5.15827e-16 
4.87329 -2.82843 5.24781e-16 
5.08355 -2.82843 3.61359e-16 
5.29519 -2.82843 1.16812e-16 
5.50701 -2.82843 -1.26071e-17 
5.71974 -2.82843 -2.73716e-16 
5.93367 -2.82843 -3.71022e-16 
6.15018 -2.82843 -3.6206e-16 
6.36735 -2.82843 -3.0119e-16 
6.58666 -2.82843 -6.34086e-16 
6.81038 -2.82843 -1.13858e-15 
7.03819 -2.82843 -3.03776e-16 
7.26759 -2.82843 5.27085e-17 
7.5029 -2.82843 -2.90734e-16 
7.74293 -2.82843 1.08069e-15 
7.99109 -2.82843 1.16905e-15 
8.23003 -2.82843 2.13739e-15 
8.48528 -2.82843 1.67463e-15 
-8.48528 -2.59975 1.6943e-15 
-8.2439 -2.57399 -1.25172e-19 
-8.01962 -2.63999 -4.173e-18 
-7.73607 -2.61455 -6.84741e-18 
-7.49467 -2.60049 -1.11219e-17 
-7.27251 -2.59475 -1.87294e-17 
-7.06527 -2.56391 -2.30094e-17 
-6.86677 -2.66519 -9.96922e-17 
-6.61524 -2.57339 -7.34386e-17 
-6.4111 -2.57902 -7.85837e-17 
-6.1983 -2.5998 -1.10463e-16 
-5.97832 -2.59598 -1.22656e-16 
-5.7626 -2.59645 -1.28965e-16 
-5.5467 -2.60083 -1.25557e-16 
-5.33046 -2.59819 -9.53235e-17 
-5.11585 -2.59989 -5.01716e-17 
-4.89998 -2.59973 5.87927e-18 
-4.68518 -2.59695 3.78649e-17 
-4.47202 -2.60106 4.33285e-17 
-4.25585 -2.60083 -1.30556e-17 
-4.03909 -2.59975 -1.53476e-16 
-3.82172 -2.60146 -3.76611e-18 
-3.59967 -2.59551 -8.14177e-18 
-3.37715 -2.59726 -1.40685e-17 
-3.15292 -2.59571 -1.95011e-17 
-2.92751 -2.58915 -1.45437e-17 
-2.70255 -2.58128 2.09811e-17 
-2.46248 -2.59107 1.51617e-16 
-2.21606 -2.57604 4.44385e-16 
-1.97193 -2.57098 -5.34208e-16 
-1.72981 -2.5893 -1.74844e-15 
-1.48624 -2.58498 -2.00476e-14 
-1.29306 -2.60636 -3.938e-14 
-1.10011 -2.63268 -1.36626e-13 
-0.934878 -2.6365 -2.20368e-13 
-0.801684 -2.66653 -2.23253e-13 
-0.671703 -2.69943 -5.63657e-13 
-0.539422 -2.74513 -1.11624e-12 
-0.371428 -2.77763 -7.70021e-13 
0.0917856 -2.81104 -1.13332e-11 
0.386385 -2.79352 1.27046e-12 
0.683552 -2.71315 1.50427e-12 
0.829371 -2.69847 1.12866e-12 
0.861672 -2.53569 -3.03444e-13 
0.970529 -2.66032 2.38884e-13 
1.12193 -2.63112 1.24113e-13 
1.29551 -2.6013 6.38711e-14 
1.51609 -2.5959 2.4459e-14 
1.75378 -2.57463 1.63732e-15 
2.00934 -2.59056 6.03551e-16 
2.26675 -2.58878 -4.49291e-16 
2.51049 -2.58869 -1.32932e-16 
2.74081 -2.56913 -8.66489e-18 
2.95563 -2.59151 1.20722e-17 
3.17538 -2.59699 1.968e-17 
3.40088 -2.59691 1.31591e-17 
3.62523 -2.60078 7.27923e-18 
3.84357 -2.60007 3.15869e-18 
4.05788 -2.59878 1.16643e-16 
4.26969 -2.59766 -7.4561e-18 
4.48079 -2.59774 -4.74106e-17 
4.69231 -2.5987 -3.99238e-17 
4.90387 -2.59788 1.61619e-18 
5.11626 -2.59887 5.21971e-17 
5.32851 -2.59812 9.41771e-17 
5.54183 -2.59817 1.17476e-16 
5.75566 -2.59791 1.2416e-16 
5.97073 -2.59811 1.20339e-16 
6.18649 -2.59609 1.07057e-16 
6.40398 -2.59486 8.97703e-17 
6.62456 -2.59576 7.07895e-17 
6.84808 -2.5961 4.99649e-17 
7.074 -2.59509 3.14803e-17 
7.30502 -2.59892 1.88115e-17 
7.54062 -2.60166 9.41276e-18 
7.78164 -2.60692 6.20808e-18 
8.01798 -2.6055 -3.82044e-19 
8.26493 -2.61044 -2.78915e-19 
8.48528 -2.58312 -2.03836e-15 
-8.48528 -2.37067 1.646e-15 
-8.27074 -2.31548 2.74402e-18 
-8.04717 -2.39512 4.28651e-18 
-7.81397 -2.42228 1.47515e-18 
-7.59395 -2.17362 -2.67578e-18 
-7.56243 -2.39237 1.78522e-18 
-7.31434 -2.35243 -1.84949e-18 
-7.05401 -2.35704 -5.84106e-18 
-6.79679 -2.43524 1.53447e-17 
-6.55973 -2.32349 -7.21525e-18 
-6.34069 -2.34858 -9.23335e-18 
-6.12199 -2.36918 -1.85122e-17 
-5.90048 -2.36572 -9.86249e-19 
-5.67888 -2.37003 -4.16829e-18 
-5.46096 -2.37252 4.83642e-18 
-5.24156 -2.371 1.53191e-17 
-5.02356 -2.37384 1.59915e-17 
-4.80628 -2.37098 3.29361e-17 
-4.58927 -2.36931 3.06694e-17 
-4.37496 -2.37436 2.90488e-17 
-4.15874 -2.37407 3.7843e-17 
-3.94169 -2.37295 3.21611e-17 
-3.72369 -2.37465 -5.14261e-17 
-3.50054 -2.37004 -1.98477e-16 
-3.27758 -2.36746 -3.66405e-18 
-3.05179 -2.36341 -3.33333e-18 
-2.8219 -2.34968 5.61147e-18 
-2.57953 -2.35557 3.0491e-17 
-2.3357 -2.34556 1.48039e-16 
-2.08467 -2.32716 6.07315e-16 
-1.83507 -2.33114 -2.16703e-16 
-1.59341 -2.36473 -1.20853e-15 
-1.36612 -2.34683 -1.68194e-15 
-1.17441 -2.43855 -3.4016e-14 
-0.984674 -2.44066 -6.3481e-14 
-0.824712 -2.47198 -2.52939e-15 
-0.560732 -2.62055 7.17052e-14 
-0.431669 -2.66972 -1.29093e-12 
-0.149191 -2.7237 -1.41118e-12 
-0.054095 -2.77827 2.02127e-12 
0.301259 -2.76328 -8.49938e-13 
0.554557 -2.74731 -1.70127e-12 
0.735645 -2.58227 -1.00535e-13 
0.800598 -2.38214 -2.21569e-13 
0.985886 -2.46629 -6.63184e-14 
1.12076 -2.40407 3.31937e-14 
1.31114 -2.37883 1.80623e-15 
1.52677 -2.35641 1.5238e-15 
1.75517 -2.32736 7.30634e-16 
1.99562 -2.35551 -3.62026e-16 
2.25503 -2.35466 -1.04878e-16 
2.50104 -2.35011 -1.45923e-17 
2.73637 -2.33708 -2.85464e-18 
2.97078 -2.35465 8.73918e-18 
3.2 -2.37228 4.37672e-18 
3.42655 -2.37358 2.45468e-18 
3.6468 -2.37328 1.11879e-16 
3.86281 -2.37116 5.02798e-18 
4.07609 -2.36888 -3.22692e-17 
4.28835 -2.36751 -3.71612e-17 
4.50004 -2.36754 -3.86843e-17 
4.71198 -2.36836 -3.91853e-17 
4.92503 -2.3681 -3.15323e-17 
5.13737 -2.36802 -2.12705e-17 
5.35155 -2.36813 -8.83414e-18 
5.56591 -2.36737 2.18168e-18 
5.78035 -2.36644 6.58456e-18 
5.99501 -2.36493 9.74363e-18 
6.21157 -2.36235 1.19397e-17 
6.43069 -2.36103 1.29342e-17 
6.65108 -2.36105 1.26998e-17 
6.87435 -2.36115 1.12102e-17 
7.10305 -2.36355 8.02526e-18 
7.33586 -2.37015 4.2181e-18 
7.574 -2.37708 4.47078e-18 
7.80721 -2.37582 1.145e-18 
8.04626 -2.38834 -2.47453e-18 
8.26814 -2.3615 -4.49223e-18 
8.48528 -2.33336 -1.53049e-15 
-8.48528 -2.11876 1.29856e-15 
-8.27422 -2.05585 -2.92424e-19 
-8.05437 -2.15271 1.42658e-18 
-7.82692 -2.19735 -2.03691e-18 
-7.5954 -1.95289 8.38686e-18 
-7.35098 -2.14507 9.33881e-19 
-7.09083 -2.14818 6.49323e-18 
-6.81681 -2.22286 -2.4996e-18 
-6.57145 -2.10991 1.83237e-17 
-6.32957 -2.11244 2.7487e-17 
-6.11344 -2.13628 4.19372e-17 
-5.89637 -2.13285 2.80256e-17 
-5.67834 -2.14192 4.61183e-17 
-5.45928 -2.14209 5.18619e-17 
-5.24348 -2.14373 5.54441e-17 
-5.02552 -2.14672 6.01135e-17 
-4.8108 -2.14075 4.71921e-17 
-4.59592 -2.14223 4.9624e-17 
-4.37828 -2.14447 4.30417e-17 
-4.16313 -2.14593 3.57307e-17 
-3.94627 -2.14481 3.14041e-17 
-3.72738 -2.14647 2.04521e-17 
-3.50653 -2.14289 -5.61271e-17 
-3.28191 -2.13671 -1.10104e-16 
-3.05301 -2.13222 -2.79102e-18 
-2.81395 -2.12175 -1.07687e-17 
-2.56933 -2.12187 -1.5464e-17 
-2.31682 -2.10881 -2.63827e-17 
-2.06272 -2.08881 -3.41114e-17 
-1.79697 -2.10278 3.63399e-16 
-1.55632 -2.13908 -1.3132e-16 
-1.31711 -2.14465 -1.87725e-15 
-1.12528 -2.25402 3.46151e-14 
-1.19956 -1.99282 -2.22431e-14 
-1.00748 -2.13616 -4.26885e-14 
-0.909049 -2.287 -3.60077e-14 
-0.698458 -2.55651 -7.34482e-14 
-0.564452 -2.49743 -1.45767e-14 
-0.177581 -2.5751 4.78216e-13 
0.198833 -2.83879 1.85855e-12 
0.485943 -2.68029 -8.76297e-13 
0.483824 -2.57269 2.03642e-12 
0.687118 -2.44952 -1.1197e-13 
0.669041 -2.26217 3.5544e-14 
0.901509 -2.28161 -6.53208e-14 
1.0337 -2.19931 -1.32963e-15 
1.21711 -2.18081 -2.32e-15 
1.43553 -2.13837 -2.54097e-16 
1.66582 -2.09263 -2.95343e-16 
1.91042 -2.10291 -3.48965e-16 
2.15764 -2.13061 -6.79857e-17 
2.41484 -2.11331 5.13412e-18 
2.65097 -2.10229 7.14286e-18 
2.89201 -2.12149 2.48487e-18 
3.12582 -2.14019 9.71954e-17 
3.35147 -2.14711 4.36688e-17 
3.57554 -2.14534 9.22538e-18 
3.79585 -2.14188 -2.90274e-17 
4.01227 -2.13928 -4.14926e-17 
4.22734 -2.13816 -3.98622e-17 
4.44219 -2.13711 -4.43716e-17 
4.65671 -2.13796 -4.91051e-17 
4.87173 -2.13879 -5.46538e-17 
5.0879 -2.13691 -5.29513e-17 
5.30392 -2.13868 -5.75995e-17 
5.52195 -2.13741 -5.06863e-17 
5.74028 -2.13473 -4.52507e-17 
5.95798 -2.13193 -3.89277e-17 
6.17633 -2.12963 -3.35341e-17 
6.3972 -2.12818 -2.73707e-17 
6.62089 -2.12534 -2.08241e-17 
6.84479 -2.12585 -1.39738e-17 
7.07225 -2.13101 -8.0089e-18 
7.30519 -2.13911 -3.47992e-18 
7.54183 -2.1496 -5.85465e-18 
7.78139 -2.14411 3.8351e-18 
8.01935 -2.1565 -1.27527e-18 
8.24906 -2.11789 1.1372e-19 
8.48528 -2.1021 -1.44651e-15 
-8.48528 -1.86339 3.86844e-16 
-8.26922 -1.79321 -6.82949e-19 
-8.06116 -1.90954 4.93473e-19 
[...]
POINT_DATA 1978 
VECTORS vectors float
-0.000131506 0.00100603 0.999999 
5.20458e-05 0.000591219 1 
4.66817e-05 -0.000257155 1 
7.2577e-05 -0.00129615 0.999999 
7.08405e-05 -0.00229038 0.999997 
8.44358e-05 -0.00347495 0.999994 
8.51313e-05 -0.00475227 0.999989 
0.000119141 -0.00687062 0.999976 
0.000132553 -0.00832582 0.999965 
9.93529e-05 -0.00979235 0.999952 
9.84625e-05 -0.0114772 0.999934 
0.000100491 -0.0130741 0.999915 
9.42089e-05 -0.0146926 0.999892 
8.86979e-05 -0.0163397 0.999866 
7.17775e-05 -0.0179311 0.999839 
4.17279e-05 -0.019361 0.999813 
9.28896e-06 -0.0206101 0.999788 
-3.57946e-05 -0.0215917 0.999767 
-8.89779e-05 -0.0223153 0.999751 
-0.000149258 -0.0226964 0.999742 
-0.000208938 -0.0226876 0.999743 
-0.000273023 -0.0221351 0.999755 
-0.000345504 -0.0208263 0.999783 
-0.000379315 -0.0185505 0.999828 
-0.000500144 -0.0146951 0.999892 
-0.000686075 -0.00835198 0.999965 
-0.000845842 -0.000186726 1 
-0.00095877 0.0109932 0.999939 
-0.000898853 0.0274112 0.999624 
-0.00116964 0.0478518 0.998854 
-0.00112903 0.0753992 0.997153 
-0.00167389 0.114418 0.993431 
-0.00376233 0.167521 0.985861 
-0.00631265 0.231016 0.97293 
-0.00783812 0.303448 0.952816 
-0.0103408 0.40095 0.916042 
-0.0178302 0.514091 0.857551 
-0.0187834 0.5934 0.804689 
-0.0150926 0.791296 0.611247 
0.00438525 0.973853 0.227138 
-0.00120814 0.857902 -0.513813 
0.0104076 0.708817 -0.705316 
0.0172058 0.50332 -0.863929 
0.0192461 0.43859 -0.898481 
0.00876405 0.322294 -0.946599 
0.00621129 0.233815 -0.972261 
0.00297853 0.163734 -0.9865 
0.00164527 0.109299 -0.994008 
0.00123478 0.0734929 -0.997295 
0.00095282 0.0449516 -0.998989 
0.000919358 0.0247782 -0.999693 
0.00094619 0.00938635 -0.999955 
0.000975939 -0.00117198 -0.999999 
0.00070888 -0.00914831 -0.999958 
0.000456077 -0.0152873 -0.999883 
0.000368296 -0.0188996 -0.999821 
0.000319152 -0.0210816 -0.999778 
0.000262615 -0.0222986 -0.999751 
0.000201294 -0.0227566 -0.999741 
0.000141162 -0.0226906 -0.999743 
8.34363e-05 -0.0222477 -0.999752 
3.07815e-05 -0.0214882 -0.999769 
-1.38432e-05 -0.0204328 -0.999791 
-4.75737e-05 -0.0191471 -0.999817 
-6.94851e-05 -0.0176915 -0.999843 
-8.39214e-05 -0.0161393 -0.99987 
-9.23949e-05 -0.0145377 -0.999894 
-9.65571e-05 -0.0129141 -0.999917 
-9.95228e-05 -0.01127 -0.999936 
-0.000100721 -0.00963004 -0.999954 
-9.63746e-05 -0.00800679 -0.999968 
-8.72923e-05 -0.00643021 -0.999979 
-7.73693e-05 -0.00493106 -0.999988 
-6.7906e-05 -0.00354518 -0.999994 
-5.72837e-05 -0.00226884 -0.999997 
-4.68874e-05 -0.0011322 -0.999999 
-2.47247e-05 -0.000161095 -1 
-4.88475e-05 0.000509569 -1 
0.000121631 0.00103793 -0.999999 
-0.000458154 0.000544318 1 
-0.000117852 0.000153454 1 
0.000163129 -0.000252778 1 
0.000240148 -0.00128292 0.999999 
0.000230836 -0.00242422 0.999997 
0.000245199 -0.00355918 0.999994 
0.000253366 -0.00472311 0.999989 
0.000493809 -0.00599066 0.999982 
0.000240187 -0.00758736 0.999971 
0.000204911 -0.00901226 0.999959 
0.000202975 -0.0105731 0.999944 
0.000100375 -0.0121718 0.999926 
-4.02879e-06 -0.0137464 0.999906 
-0.000128117 -0.0153134 0.999883 
-0.000340407 -0.0168002 0.999859 
-0.000622049 -0.0181477 0.999835 
-0.000991279 -0.0193021 0.999813 
-0.00149465 -0.0202107 0.999795 
-0.00205679 -0.0209151 0.999779 
-0.00273001 -0.0212758 0.99977 
-0.00339545 -0.02122 0.999769 
-0.00393743 -0.0206354 0.999779 
-0.00430117 -0.0192791 0.999805 
-0.00439806 -0.0168788 0.999848 
-0.00422521 -0.0127673 0.99991 
-0.00393246 -0.00589272 0.999975 
-0.00360198 0.00389446 0.999986 
-0.00310555 0.0178489 0.999836 
-0.00120158 0.0367753 0.999323 
0.00156847 0.0621667 0.998065 
0.00471647 0.0983506 0.995141 
0.00821117 0.150889 0.988517 
0.0153361 0.213783 0.976761 
0.0107658 0.306939 0.951668 
0.0147158 0.409681 0.91211 
0.0343993 0.495389 0.86799 
0.0125866 0.59212 0.805752 
-0.00585091 0.704649 0.709532 
0.00123723 0.852306 0.523041 
-0.00418121 0.985765 -0.168076 
-0.0162776 0.899634 -0.436341 
-0.033574 0.623132 -0.781396 
0.00272629 0.532229 -0.846596 
-0.0719205 0.443026 -0.893619 
-0.0141644 0.394006 -0.918999 
-0.0146182 0.296073 -0.955053 
-0.0116645 0.210303 -0.977567 
-0.00683692 0.142275 -0.989804 
-0.00463396 0.0921073 -0.995738 
-0.000173773 0.056808 -0.998385 
0.001796 0.0321408 -0.999482 
0.00298285 0.0147781 -0.999886 
0.00350878 0.00179213 -0.999992 
0.00403711 -0.00750627 -0.999964 
0.00421255 -0.0137159 -0.999897 
0.00427026 -0.0175136 -0.999838 
0.00421095 -0.0196465 -0.999798 
0.00388536 -0.0208082 -0.999776 
0.00335249 -0.0212813 -0.999768 
0.0027123 -0.0212569 -0.99977 
0.00206557 -0.0208647 -0.99978 
0.00147729 -0.0201759 -0.999795 
0.00100314 -0.0192275 -0.999815 
0.000627224 -0.0180743 -0.999836 
0.000357053 -0.0167527 -0.99986 
0.000160824 -0.0153088 -0.999883 
1.80433e-05 -0.0137914 -0.999905 
-9.31194e-05 -0.0122357 -0.999925 
-0.000170999 -0.0106691 -0.999943 
-0.000229492 -0.00910612 -0.999959 
-0.000270619 -0.0075604 -0.999971 
-0.000283241 -0.00606394 -0.999982 
-0.000272957 -0.00465099 -0.999989 
-0.000260365 -0.00333331 -0.999994 
-0.000230706 -0.0021407 -0.999998 
-0.000156042 -0.00109283 -0.999999 
-2.87021e-05 -0.00029666 -1 
0.000125272 0.000291015 -1 
0.000464773 0.000541928 -1 
-0.00040518 0.000120007 1 
-0.000198697 -7.55827e-05 1 
-6.81868e-05 -0.000433377 1 
3.62676e-05 -0.00105202 0.999999 
-4.5862e-05 -0.00189803 0.999998 
7.29062e-05 -0.0020566 0.999998 
6.7061e-05 -0.00328758 0.999995 
4.71963e-05 -0.00471077 0.999989 
5.8507e-05 -0.00628948 0.99998 
-0.000159063 -0.00769558 0.99997 
-0.000204337 -0.00922017 0.999957 
-0.000283801 -0.0107632 0.999942 
-0.000463815 -0.0122892 0.999924 
-0.000647412 -0.0138378 0.999904 
-0.000886491 -0.0152861 0.999883 
-0.0012249 -0.0166042 0.999861 
-0.00165099 -0.017744 0.999841 
-0.00221186 -0.0186012 0.999825 
-0.00290899 -0.0192918 0.99981 
-0.00368841 -0.0197584 0.999798 
-0.00455513 -0.0198489 0.999793 
-0.00533461 -0.019477 0.999796 
-0.00583319 -0.0185757 0.99981 
-0.0059439 -0.0169675 0.999838 
-0.00556001 -0.0142133 0.999884 
-0.00465453 -0.00961995 0.999943 
-0.0032607 -0.00231697 0.999992 
-0.00147999 0.00888266 0.999959 
0.00120544 0.023875 0.999714 
0.00658667 0.0446652 0.99898 
0.0148857 0.0735186 0.997183 
0.0242363 0.115667 0.992992 
0.0425113 0.16617 0.98518 
0.0461265 0.251009 0.966885 
0.0641637 0.343049 0.937123 
0.0839086 0.419245 0.903987 
0.0674814 0.629925 0.773719 
0.0530741 0.740841 0.669581 
0.0286076 0.980814 0.192838 
0.0111993 0.998965 0.0440795 
-0.0306765 0.930624 -0.364689 
-0.0391662 0.7438 -0.667254 
-0.0783592 0.521152 -0.849859 
-0.140427 0.404881 -0.903522 
-0.0779152 0.353817 -0.932064 
-0.0620875 0.274912 -0.959463 
-0.046971 0.193541 -0.979967 
-0.0296394 0.129774 -0.9911 
-0.018982 0.0832732 -0.996346 
-0.00841982 0.0532668 -0.998545 
-0.00266965 0.0299154 -0.999549 
0.000657858 0.013265 -0.999912 
0.00259047 0.00103957 -0.999996 
0.00410027 -0.00764407 -0.999962 
0.00503564 -0.0133496 -0.999898 
0.00563956 -0.0165759 -0.999847 
0.00583031 -0.0183596 -0.999814 
0.0055458 -0.0193342 -0.999798 
0.00489702 -0.0197839 -0.999792 
0.00408226 -0.0198115 -0.999795 
0.00325516 -0.0195007 -0.999805 
0.00252131 -0.0189107 -0.999818 
0.0019202 -0.0180889 -0.999835 
0.00144892 -0.0170783 -0.999853 
0.00108026 -0.0158891 -0.999873 
0.000798061 -0.0145518 -0.999894 
0.000578355 -0.0131195 -0.999914 
0.000406446 -0.0116407 -0.999932 
0.000264221 -0.0101387 -0.999949 
0.000143488 -0.00863704 -0.999963 
4.60012e-05 -0.00716566 -0.999974 
-2.62644e-05 -0.00574695 -0.999983 
-7.54946e-05 -0.00439457 -0.99999 
-9.9829e-05 -0.00314515 -0.999995 
-9.86327e-05 -0.00202455 -0.999998 
-5.22397e-05 -0.00110919 -0.999999 
6.56214e-05 -0.00037207 -1 
0.000200999 4.60121e-06 -1 
0.000389943 9.87792e-05 -1 
-0.000209093 -4.68683e-05 1 
-0.000142747 -0.000144479 1 
-8.91284e-05 -0.000506029 1 
-3.66721e-05 -0.00109912 0.999999 
-0.000233387 -0.00188493 0.999998 
-0.000133636 -0.00299371 0.999996 
-0.000205677 -0.00434864 0.999991 
-0.000216855 -0.00599527 0.999982 
-0.000527511 -0.00740619 0.999972 
-0.000695758 -0.00897226 0.99996 
-0.000838091 -0.0104254 0.999945 
-0.00104847 -0.0118627 0.999929 
-0.00129685 -0.0132904 0.999911 
-0.00161106 -0.0146208 0.999892 
-0.00199529 -0.0157887 0.999873 
-0.00248991 -0.0167674 0.999856 
-0.00314066 -0.0175173 0.999842 
-0.00389323 -0.0180772 0.999829 
-0.0047891 -0.018429 0.999819 
-0.00572744 -0.0184736 0.999813 
-0.00656877 -0.0181044 0.999815 
-0.00701611 -0.0173384 0.999825 
-0.00689974 -0.0160091 0.999848 
-0.00612091 -0.0138033 0.999886 
-0.00462444 -0.0100024 0.999939 
-0.00233588 -0.00394115 0.99999 
0.00103032 0.00559515 0.999984 
0.00637502 0.0192036 0.999795 
0.0148943 0.0363628 0.999228 
0.0278635 0.0633434 0.997603 
0.0428854 0.100852 0.993977 
0.069906 0.149722 0.986254 
0.0837225 0.230441 0.969478 
0.102008 0.145871 0.984031 
0.121751 0.24537 0.961754 
0.128127 0.328199 0.935879 
0.0972054 0.529137 0.84295 
0.129144 0.661234 0.73898 
0.0453975 0.975724 0.214249 
0.00155563 0.964221 -0.265094 
-0.0762482 0.756055 -0.650052 
-0.121136 0.745722 -0.655152 
-0.155837 0.485176 -0.860418 
-0.204122 0.395187 -0.895635 
-0.134551 0.315121 -0.939465 
-0.112554 0.242205 -0.963674 
-0.0833157 0.185677 -0.979072 
-0.0573553 0.124886 -0.990512 
-0.0387447 0.0806395 -0.99599 
-0.0215344 0.050958 -0.998469 
-0.010578 0.0307342 -0.999472 
-0.00442446 0.0135549 -0.999898 
-0.000241136 0.00191592 -0.999998 
0.00302871 -0.0063437 -0.999975 
0.00497247 -0.0118338 -0.999918 
0.00625908 -0.0150721 -0.999867 
0.00690459 -0.0168099 -0.999835 
0.00690459 -0.0177561 -0.999819 
0.00636079 -0.0182699 -0.999813 
0.00550012 -0.0184579 -0.999815 
0.00456881 -0.0183236 -0.999822 
0.00370741 -0.0179133 -0.999833 
0.00298356 -0.0172761 -0.999846 
0.00240114 -0.0164244 -0.999862 
0.00192537 -0.015416 -0.999879 
0.00155041 -0.0142068 -0.999898 
0.00125182 -0.0128713 -0.999916 
0.00101367 -0.011458 -0.999934 
0.000811741 -0.0100137 -0.99995 
0.000637723 -0.00856387 -0.999963 
0.000490874 -0.00712831 -0.999974 
0.000363194 -0.00574279 -0.999983 
0.000247998 -0.00443291 -0.99999 
0.000156515 -0.00321803 -0.999995 
9.10004e-05 -0.00214218 -0.999998 
6.66999e-05 -0.00123586 -0.999999 
7.89764e-05 -0.000550085 -1 
0.000149869 -0.000148967 -1 
0.000221296 -6.08804e-05 -1 
-4.01973e-05 1.35167e-05 1 
-5.99987e-05 -0.000102346 1 
-0.000136798 -0.000455849 1 
-0.000175483 -0.00105207 0.999999 
-0.000342598 -0.00293213 0.999996 
-0.000447322 -0.00415387 0.999991 
-0.000461674 -0.00382333 0.999993 
-0.000491204 -0.00567863 0.999984 
-0.000740209 -0.006665 0.999978 
-0.000920272 -0.00813434 0.999966 
-0.00114809 -0.00958338 0.999953 
-0.00138397 -0.0109295 0.999939 
-0.00165689 -0.0122974 0.999923 
-0.00200662 -0.0135652 0.999906 
-0.00242707 -0.0146739 0.999889 
-0.00293201 -0.0156077 0.999874 
-0.00357983 -0.016285 0.999861 
-0.00435107 -0.0167915 0.99985 
-0.00523854 -0.0171354 0.999839 
-0.00624943 -0.0172074 0.999832 
-0.00721422 -0.0169852 0.99983 
-0.00791376 -0.0164539 0.999833 
-0.00805571 -0.0155999 0.999846 
-0.00747901 -0.014236 0.999871 
-0.00604561 -0.0119015 0.999911 
-0.00366153 -0.00806598 0.999961 
0.000117076 -0.00193837 0.999998 
0.00566598 0.00682081 0.999961 
0.0141149 0.0178214 0.999742 
0.0273963 0.036491 0.998958 
0.0466362 0.0620416 0.996983 
0.0664997 0.0922842 0.99351 
0.0965849 0.0906712 0.991186 
0.135867 0.120975 0.983313 
0.149323 0.206361 0.967015 
0.158625 0.407232 0.899444 
0.148342 0.501127 0.852564 
0.0620102 0.871315 0.48679 
0.0257426 0.871768 0.489243 
0.0405492 0.988339 0.14677 
-0.000128769 0.980247 -0.197776 
-0.126742 0.793964 -0.594608 
-0.225227 0.512628 -0.828544 
-0.197793 0.300847 -0.932936 
-0.169833 0.235266 -0.956978 
-0.133583 0.174101 -0.975625 
-0.0945117 0.134014 -0.986462 
-0.0662571 0.0875506 -0.993954 
-0.0429302 0.0538312 -0.997627 
-0.0253019 0.033448 -0.99912 
-0.0133425 0.018508 -0.99974 
-0.00564431 0.00568653 -0.999968 
5.05521e-05 -0.00287619 -0.999996 
0.00370082 -0.0086901 -0.999955 
0.00597432 -0.0125718 -0.999903 
0.00735733 -0.0147858 -0.999864 
0.00796301 -0.0159747 -0.999841 
0.0078557 -0.0166141 -0.999831 
0.00717328 -0.017011 -0.99983 
0.00621753 -0.0171821 -0.999833 
0.00523705 -0.0170903 -0.99984 
0.0043473 -0.0167575 -0.99985 
0.00358763 -0.0162215 -0.999862 
0.00296099 -0.0154545 -0.999876 
0.0024427 -0.0145865 -0.999891 
0.00202092 -0.0134726 -0.999907 
0.00167817 -0.01223 -0.999924 
0.00138918 -0.010886 -0.99994 
0.00114076 -0.00950425 -0.999954 
0.00092708 -0.00810769 -0.999967 
0.000747277 -0.00672694 -0.999977 
0.000588348 -0.00538216 -0.999985 
0.000452125 -0.00412681 -0.999991 
0.000342829 -0.00297626 -0.999996 
0.000254421 -0.00196996 -0.999998 
0.000185618 -0.00112403 -0.999999 
0.000136634 -0.000509632 -1 
8.63649e-05 -0.000119729 -1 
3.2002e-05 4.8504e-06 -1 
7.59829e-05 6.60901e-05 1 
2.89637e-05 -7.28733e-05 1 
-7.42423e-05 -0.000466237 1 
-0.000153896 -0.00102566 0.999999 
-0.000247152 -0.00186468 0.999998 
-0.000354836 -0.00289344 0.999996 
-0.000633122 -0.00486097 0.999988 
-0.000597636 -0.0050618 0.999987 
-0.0007911 -0.00620922 0.99998 
-0.00101543 -0.00762393 0.99997 
-0.00128349 -0.00903005 0.999958 
-0.00158262 -0.010361 0.999945 
-0.00189134 -0.0116822 0.99993 
-0.00225689 -0.0128526 0.999915 
-0.0027043 -0.0138852 0.9999 
-0.00323443 -0.0147345 0.999886 
-0.0038785 -0.0153213 0.999875 
-0.00462566 -0.0157544 0.999865 
-0.00548932 -0.0160213 0.999857 
-0.00645534 -0.016089 0.99985 
-0.00744226 -0.0158864 0.999846 
-0.00827253 -0.0155394 0.999845 
-0.00866463 -0.0148997 0.999851 
-0.00841415 -0.0139853 0.999867 
-0.00732353 -0.0125448 0.999894 
-0.00518473 -0.0101514 0.999935 
-0.00155634 -0.00629583 0.999979 
0.0041548 -0.000717294 0.999991 
0.0128775 0.00640454 0.999897 
0.0269231 0.0196195 0.999445 
0.0461521 0.0371648 0.998243 
0.0721079 0.0553319 0.995861 
0.11807 0.0569573 0.99137 
0.168716 0.0831534 0.982151 
0.198669 0.283049 0.938304 
0.234209 0.363007 0.901872 
0.181234 0.613124 0.768916 
0.213328 0.489349 0.845594 
0.0888856 0.90911 0.406962 
-0.0106474 0.967396 -0.253043 
-0.00653217 0.997484 -0.0705855 
-0.180263 0.745745 -0.641381 
-0.274333 0.424236 -0.862998 
-0.240929 0.203514 -0.948965 
-0.187052 0.164636 -0.968456 
-0.136665 0.11285 -0.984168 
-0.0962901 0.0837214 -0.991826 
-0.0644083 0.0500206 -0.996669 
-0.0441759 0.0270429 -0.998658 
-0.0280168 0.0195233 -0.999417 
-0.0144298 0.00907829 -0.999855 
-0.00496395 -0.000478785 -0.999988 
0.00134653 -0.00669114 -0.999977 
0.00504279 -0.0105232 -0.999932 
0.00713738 -0.0129717 -0.99989 
0.008262 -0.0144153 -0.999862 
0.00858525 -0.0151594 -0.999848 
0.00826496 -0.0156043 -0.999844 
0.00750048 -0.0159186 -0.999845 
0.00654804 -0.0160821 -0.999849 
0.0055972 -0.0160314 -0.999856 
0.00473257 -0.0157804 -0.999864 
0.00398548 -0.0153788 -0.999874 
0.00333924 -0.0147283 -0.999886 
0.00278704 -0.0139338 -0.999899 
0.00232631 -0.0129078 -0.999914 
0.00193966 -0.0117147 -0.999929 
0.0016087 -0.0104416 -0.999944 
0.00132062 -0.00913449 -0.999957 
0.0010668 -0.0077823 -0.999969 
0.000844432 -0.00643542 -0.999979 
0.000649229 -0.00514922 -0.999987 
0.000480437 -0.00393156 -0.999992 
0.0003424 -0.0028272 -0.999996 
0.00022997 -0.00186008 -0.999998 
0.000137702 -0.001053 -0.999999 
6.80733e-05 -0.000456229 -1 
-1.36661e-05 -7.54645e-05 -1 
-8.38371e-05 6.59542e-05 -1 
0.000153632 0.000145812 1 
6.94518e-05 -7.34674e-06 1 
-2.99674e-05 -0.000462215 1 
-0.000121639 -0.00107395 0.999999 
-0.000213629 -0.00179208 0.999998 
-0.000326175 -0.00256233 0.999997 
-0.000476335 -0.00357765 0.999993 
-0.000714638 -0.00478527 0.999988 
-0.000900695 -0.00617681 0.999981 
-0.00115529 -0.0075413 0.999971 
-0.00144283 -0.00884994 0.99996 
-0.00175295 -0.0101027 0.999947 
-0.0020764 -0.0113128 0.999934 
-0.00246329 -0.012458 0.999919 
-0.00291452 -0.0133897 0.999906 
-0.00345028 -0.014152 0.999894 
-0.00406276 -0.0146195 0.999885 
-0.00477807 -0.0149932 0.999876 
-0.0055537 -0.015177 0.999869 
-0.00640629 -0.0152459 0.999863 
-0.00721645 -0.0150827 0.99986 
-0.00792811 -0.0148235 0.999859 
-0.00830079 -0.014438 0.999861 
-0.008103 -0.0139057 0.99987 
-0.00711287 -0.0130995 0.999889 
-0.00499877 -0.0117525 0.999918 
-0.001395 -0.00961682 0.999953 
0.00449292 -0.00689602 0.999966 
0.0148366 -0.00230155 0.999887 
0.0294238 0.00569896 0.999551 
0.0497439 0.0169265 0.998619 
0.0788248 0.0279143 0.996498 
0.108832 0.0115536 0.993993 
0.15089 0.020834 0.988331 
0.187885 0.173367 0.966769 
0.259883 0.257572 0.930654 
0.292873 0.201702 0.934635 
0.275423 0.449344 0.849842 
0.225558 0.666843 0.710242 
0.138884 0.781209 0.608624 
-0.0512201 0.944615 -0.32416 
-0.132792 0.595887 -0.792013 
-0.262948 0.300216 -0.916913 
-0.277468 0.129189 -0.952009 
-0.202251 0.104623 -0.973729 
-0.152265 0.0641493 -0.986256 
-0.104451 0.0455254 -0.993488 
-0.0754989 0.0204251 -0.996937 
-0.048102 0.0054936 -0.998827 
-0.0284723 0.00239872 -0.999592 
-0.0152694 -0.000646919 -0.999883 
-0.00551238 -0.00653515 -0.999963 
0.00104679 -0.0100909 -0.999949 
0.00487639 -0.0121982 -0.999914 
0.00696608 -0.0134849 -0.999885 
0.00800448 -0.0142557 -0.999866 
0.00823431 -0.014706 -0.999858 
0.00790952 -0.0149457 -0.999857 
0.00725505 -0.015126 -0.999859 
0.00644831 -0.0152412 -0.999863 
0.00561693 -0.0152189 -0.999868 
0.0048421 -0.0150263 -0.999875 
0.00413359 -0.0146446 -0.999884 
0.00351659 -0.0141196 -0.999894 
0.00296714 -0.0133696 -0.999906 
0.00250194 -0.0124324 -0.99992 
0.00210362 -0.011307 -0.999934 
0.00176029 -0.0101053 -0.999947 
0.00145285 -0.00881303 -0.99996 
0.00118145 -0.0075128 -0.999971 
0.000937114 -0.00620195 -0.99998 
0.000714457 -0.00493861 -0.999988 
0.000517419 -0.00373796 -0.999993 
0.000350346 -0.00266534 -0.999996 
0.000210327 -0.00173605 -0.999998 
9.73672e-05 -0.000973767 -1 
1.00017e-05 -0.000413647 -1 
-8.00965e-05 -2.82364e-05 -1 
-0.000169683 0.000125884 -1 
0.000195703 0.00024521 1 
0.000105679 0.000136742 1 
-1.36892e-05 -0.000308328 1 
-0.000123923 -0.000899201 1 
-0.000244183 -0.00166262 0.999999 
-0.000389488 -0.00254878 0.999997 
-0.000564562 -0.00362873 0.999993 
-0.000777694 -0.00480924 0.999988 
-0.000973851 -0.00602775 0.999981 
-0.00122039 -0.00730736 0.999973 
-0.00149341 -0.00857664 0.999962 
-0.00179975 -0.00986109 0.99995 
-0.00212779 -0.0110441 0.999937 
-0.00249273 -0.0120907 0.999924 
-0.00292202 -0.0129945 0.999911 
-0.00341607 -0.0136481 0.999901 
-0.00399768 -0.0141493 0.999892 
-0.00462646 -0.0144234 0.999885 
-0.00529666 -0.014596 0.999879 
-0.00596254 -0.0146312 0.999875 
-0.00658342 -0.014641 0.999871 
-0.00706774 -0.0145676 0.999869 
-0.00725124 -0.0144798 0.999869 
-0.00696143 -0.0144012 0.999872 
-0.00596973 -0.014299 0.99988 
-0.0040103 -0.0140447 0.999893 
-0.000470979 -0.0136878 0.999906 
0.00556564 -0.0131341 0.999898 
0.0152395 -0.012668 0.999804 
0.0278527 -0.0110879 0.999551 
0.0444902 -0.00594746 0.998992 
0.0685426 -0.00270914 0.997645 
0.100107 -0.0202521 0.994771 
0.146062 -0.0308653 0.988794 
0.220927 0.128049 0.966848 
0.204218 0.0388769 0.978153 
0.260105 0.0690684 0.963107 
0.345832 0.379406 0.858167 
0.187751 0.80166 0.567531 
-0.0288259 0.983936 -0.176181 
-0.248006 0.616269 -0.747466 
-0.331994 0.209447 -0.919735 
-0.161118 0.291002 -0.943058 
-0.234445 0.0519583 -0.97074 
-0.182047 0.0254301 -0.982961 
-0.126772 0.0111588 -0.991869 
-0.0937225 -0.00982171 -0.99555 
-0.0643868 -0.0121849 -0.997851 
-0.043889 -0.0196857 -0.998842 
-0.0300178 -0.0126031 -0.99947 
-0.0161225 -0.0112728 -0.999806 
-0.0065718 -0.0131382 -0.999892 
-9.45225e-05 -0.013986 -0.999902 
0.00372767 -0.0144112 -0.999889 
0.00582717 -0.0146015 -0.999876 
0.00690724 -0.014676 -0.999868 
0.00718791 -0.0147179 -0.999866 
0.00701276 -0.0147056 -0.999867 
0.00656838 -0.0147086 -0.99987 
0.00597566 -0.0147198 -0.999874 
0.00532062 -0.0146619 -0.999878 
0.00467669 -0.0145121 -0.999884 
0.00404904 -0.0141767 -0.999891 
0.00347313 -0.0136781 -0.9999 
0.0029604 -0.0129583 -0.999912 
0.00252514 -0.0120874 -0.999924 
0.00214424 -0.0110244 -0.999937 
0.00181263 -0.00985413 -0.99995 
0.00151615 -0.00861023 -0.999962 