# vtk DataFile Version 3.0 
Exported using Morpho https://github.com/Morpho-lang/morpho 
ASCII 
DATASET UNSTRUCTURED_GRID 

POINTS 1978 float 
-8.48528 -2.82843 7.58861e-15 
-8.27215 -2.82843 1.26245e-14 
-7.97581 -2.82843 7.10665e-15 
-7.7237 -2.82843 3.67648e-15 
-7.49704 -2.82843 -3.66019e-15 
-7.28327 -2.82843 3.46959e-15 
-7.06345 -2.82843 -3.29143e-15 
-6.74786 -2.82843 -4.52306e-15 
-6.54652 -2.82843 -2.89883e-15 
-6.34377 -2.82843 -1.86423e-15 
-6.1221 -2.82843 -1.86413e-15 
-5.91025 -2.82843 -2.27384e-15 
-5.69929 -2.82843 -1.04487e-15 
-5.48575 -2.82843 6.58235e-16 
-5.27563 -2.82843 1.56004e-15 
-5.06486 -2.82843 3.35463e-15 
-4.85415 -2.82843 5.28367e-15 
-4.64633 -2.82843 3.8074e-15 
-4.4355 -2.82843 -8.35971e-15 
-4.22595 -2.82843 -6.42204e-15 
-4.01723 -2.82843 -1.89943e-14 
-3.8059 -2.82843 -3.27928e-14 
-3.59537 -2.82843 -5.94042e-14 
-3.3848 -2.82843 -7.92823e-14 
-3.17408 -2.82843 -1.09249e-13 
-2.96494 -2.82843 -1.17391e-13 
-2.7623 -2.82843 -8.27123e-14 
-2.5605 -2.82843 -1.46697e-13 
-2.33301 -2.82843 -1.18405e-13 
-2.10898 -2.82843 -6.8274e-13 
-1.88356 -2.82843 -2.14971e-12 
-1.65065 -2.82843 -7.3899e-12 
-1.4365 -2.82843 -2.19419e-11 
-1.25738 -2.82843 -7.30101e-11 
-1.08196 -2.82843 -1.19948e-10 
-0.919521 -2.82843 -2.87994e-10 
-0.775044 -2.82843 -6.92842e-10 
-0.642873 -2.82843 -7.1989e-10 
-0.469129 -2.82843 -2.41805e-09 
-0.201469 -2.82843 1.39812e-09 
0.454871 -2.82843 8.02236e-09 
0.632736 -2.82843 3.66374e-09 
0.785527 -2.82843 3.56537e-10 
0.932652 -2.82843 5.06662e-10 
1.07375 -2.82843 1.51292e-10 
1.2468 -2.82843 6.52829e-11 
1.44484 -2.82843 2.14178e-11 
1.66952 -2.82843 6.17615e-12 
1.88908 -2.82843 1.64889e-12 
2.13255 -2.82843 4.77988e-13 
2.36483 -2.82843 2.4721e-13 
2.58645 -2.82843 1.05675e-13 
2.77711 -2.82843 8.7304e-14 
2.97642 -2.82843 1.13854e-13 
3.1847 -2.82843 1.15717e-13 
3.39754 -2.82843 8.9356e-14 
3.614 -2.82843 5.92621e-14 
3.82676 -2.82843 3.30521e-14 
4.03729 -2.82843 1.58632e-14 
4.2459 -2.82843 1.45692e-15 
4.45389 -2.82843 3.05599e-15 
4.66273 -2.82843 -2.41631e-15 
4.87329 -2.82843 -2.45825e-15 
5.08355 -2.82843 -1.69273e-15 
5.29519 -2.82843 -5.47183e-16 
5.50701 -2.82843 5.90571e-17 
5.71974 -2.82843 1.28218e-15 
5.93367 -2.82843 1.73799e-15 
6.15018 -2.82843 1.69601e-15 
6.36735 -2.82843 1.41088e-15 
6.58666 -2.82843 2.97028e-15 
6.81038 -2.82843 5.33349e-15 
7.03819 -2.82843 1.42299e-15 
7.26759 -2.82843 -2.46905e-16 
7.5029 -2.82843 1.3619e-15 
7.74293 -2.82843 -5.06234e-15 
7.99109 -2.82843 -5.47622e-15 
8.23003 -2.82843 -1.00122e-14 
8.48528 -2.82843 -7.84453e-15 
-8.48528 -2.59975 -7.93667e-15 
-8.24387 -2.57428 5.86348e-19 
-8.01914 -2.63956 1.95477e-17 
-7.73622 -2.61413 3.20756e-17 
-7.49493 -2.60076 5.20984e-17 
-7.27279 -2.59497 8.77346e-17 
-7.06549 -2.56407 1.07783e-16 
-6.86677 -2.66511 4.66991e-16 
-6.61523 -2.57328 3.44011e-16 
-6.41104 -2.57906 3.68112e-16 
-6.19822 -2.59973 5.17448e-16 
-5.97825 -2.59591 5.74562e-16 
-5.76255 -2.59642 6.04116e-16 
-5.54661 -2.60077 5.88151e-16 
-5.33036 -2.59814 4.46527e-16 
-5.11574 -2.59985 2.3502e-16 
-4.89986 -2.59971 -2.75404e-17 
-4.68504 -2.59693 -1.77372e-16 
-4.47185 -2.601 -2.02965e-16 
-4.25569 -2.60079 6.11569e-17 
-4.03893 -2.59971 7.18932e-16 
-3.82156 -2.60141 1.76371e-17 
-3.5994 -2.59519 3.81284e-17 
-3.3768 -2.59737 6.58847e-17 
-3.15264 -2.59568 9.13255e-17 
-2.9274 -2.58902 6.81095e-17 
-2.70245 -2.58134 -9.82562e-17 
-2.46229 -2.59111 -7.10036e-16 
-2.21573 -2.57618 -2.08109e-15 
-1.97147 -2.57109 2.50408e-15 
-1.72952 -2.58917 8.19573e-15 
-1.48728 -2.58548 9.39252e-14 
-1.29415 -2.60647 1.84497e-13 
-1.10215 -2.63266 7.76731e-13 
-0.936249 -2.63658 1.25284e-12 
-0.803119 -2.66807 1.26918e-12 
-0.671176 -2.69906 3.20448e-12 
-0.538477 -2.74498 6.34584e-12 
-0.369429 -2.77753 4.37742e-12 
0.0905359 -2.81067 6.4434e-11 
0.386547 -2.79443 -7.22315e-12 
0.685587 -2.71339 -8.55132e-12 
0.830993 -2.69778 -6.41641e-12 
0.861643 -2.53464 1.72512e-12 
0.972928 -2.65906 -1.35808e-12 
1.12326 -2.63104 -7.05596e-13 
1.29652 -2.60196 -3.63112e-13 
1.51594 -2.59641 -1.14594e-13 
1.75277 -2.57552 -7.6752e-15 
2.00858 -2.59066 -2.82909e-15 
2.26632 -2.58867 2.10408e-15 
2.51029 -2.58863 6.22531e-16 
2.74069 -2.56922 4.05786e-17 
2.95538 -2.5912 -5.65354e-17 
3.17483 -2.59695 -9.21634e-17 
3.40038 -2.59663 -6.16255e-17 
3.62486 -2.60073 -3.40893e-17 
3.84332 -2.60005 -1.47924e-17 
4.05771 -2.59875 -5.46395e-16 
4.26958 -2.59764 3.49269e-17 
4.48073 -2.59772 2.22087e-16 
4.69225 -2.59867 1.87017e-16 
4.90381 -2.59784 -7.57079e-18 
5.11621 -2.59883 -2.44509e-16 
5.32847 -2.59807 -4.41157e-16 
5.54179 -2.59812 -5.50297e-16 
5.75565 -2.59786 -5.81605e-16 
5.97072 -2.59805 -5.63709e-16 
6.1865 -2.59605 -5.01491e-16 
6.40399 -2.59482 -4.20514e-16 
6.62458 -2.59572 -3.31601e-16 
6.84807 -2.59606 -2.34052e-16 
7.07399 -2.59508 -1.47464e-16 
7.305 -2.59889 -8.81191e-17 
7.54056 -2.60162 -4.40925e-17 
7.78154 -2.60691 -2.90808e-17 
8.01795 -2.60558 1.78963e-18 
8.26476 -2.61035 1.30653e-18 
8.48528 -2.58312 9.54838e-15 
-8.48528 -2.37067 -7.71045e-15 
-8.27098 -2.31571 -1.28539e-17 
-8.04729 -2.39512 -2.00795e-17 
-7.81358 -2.42143 -6.91008e-18 
-7.59334 -2.17323 1.25343e-17 
-7.5619 -2.39213 -8.36259e-18 
-7.31446 -2.35282 8.66362e-18 
-7.05426 -2.35717 2.73615e-17 
-6.79697 -2.43512 -7.18795e-17 
-6.55976 -2.32345 3.37987e-17 
-6.34074 -2.34855 4.32521e-17 
-6.12203 -2.3691 8.67173e-17 
-5.90054 -2.3656 4.61995e-18 
-5.67898 -2.36998 1.95256e-17 
-5.46105 -2.37243 -2.26554e-17 
-5.24168 -2.3709 -7.17596e-17 
-5.0237 -2.37378 -7.49095e-17 
-4.80643 -2.37097 -1.54284e-16 
-4.58941 -2.36928 -1.43666e-16 
-4.37505 -2.37429 -1.36074e-16 
-4.15886 -2.374 -1.77269e-16 
-3.94178 -2.37289 -1.50653e-16 
-3.72367 -2.37454 2.40897e-16 
-3.5003 -2.36964 9.29731e-16 
-3.27734 -2.36748 1.71597e-17 
-3.05173 -2.36324 1.56103e-17 
-2.8218 -2.34961 -2.6279e-17 
-2.57945 -2.3556 -1.42793e-16 
-2.33565 -2.3456 -6.9328e-16 
-2.08464 -2.32739 -2.84412e-15 
-1.83469 -2.33143 1.01721e-15 
-1.59318 -2.36449 5.66402e-15 
-1.36635 -2.34838 7.88463e-15 
-1.17475 -2.43815 1.59363e-13 
-0.986068 -2.43995 3.60885e-13 
-0.825579 -2.47444 1.18986e-14 
-0.558404 -2.62013 -4.0741e-13 
-0.429109 -2.67091 7.33921e-12 
-0.149287 -2.72336 8.02286e-12 
-0.055369 -2.77809 -1.14909e-11 
0.300848 -2.76319 4.83259e-12 
0.556484 -2.74775 9.67091e-12 
0.736418 -2.58224 5.71679e-13 
0.800378 -2.38082 1.25961e-12 
0.986824 -2.46575 3.77051e-13 
1.12236 -2.4036 -1.55472e-13 
1.31257 -2.37991 -8.46614e-15 
1.52763 -2.35681 -7.14301e-15 
1.75539 -2.32803 -3.42486e-15 
1.99507 -2.35594 1.69536e-15 
2.25474 -2.35463 4.91152e-16 
2.50091 -2.35008 6.8337e-17 
2.73637 -2.33724 1.33684e-17 
2.9707 -2.35406 -4.09263e-17 
3.1998 -2.37221 -2.04966e-17 
3.42649 -2.37334 -1.14955e-17 
3.64678 -2.37325 -5.24078e-16 
3.86278 -2.37109 -2.35528e-17 
4.07607 -2.36882 1.5116e-16 
4.28836 -2.3675 1.74075e-16 
4.50004 -2.3675 1.8121e-16 
4.71197 -2.3683 1.83557e-16 
4.92501 -2.36805 1.47708e-16 
5.13734 -2.36795 9.96381e-17 
5.35152 -2.36804 4.1382e-17 
5.56589 -2.36731 -1.02197e-17 
5.78034 -2.36635 -3.08443e-17 
5.99501 -2.36484 -4.56424e-17 
6.21157 -2.36229 -5.59296e-17 
6.43071 -2.36098 -6.05882e-17 
6.65108 -2.36096 -5.94902e-17 
6.87436 -2.3611 -5.25122e-17 
7.10305 -2.36352 -3.7593e-17 
7.33584 -2.37008 -1.9759e-17 
7.57397 -2.37701 -2.09427e-17 
7.80717 -2.3759 -5.36357e-18 
8.04599 -2.38819 1.15915e-17 
8.26799 -2.36151 2.10432e-17 
8.48528 -2.33336 7.16936e-15 
-8.48528 -2.11876 -6.08292e-15 
-8.27426 -2.0559 1.36982e-18 
-8.05468 -2.15301 -6.68261e-18 
-7.82669 -2.19695 9.54158e-18 
-7.5958 -1.95207 -3.92869e-17 
-7.35076 -2.14489 -4.37461e-18 
-7.09115 -2.14837 -3.04165e-17 
-6.81698 -2.22279 1.17089e-17 
-6.57147 -2.1099 -8.58344e-17 
-6.32954 -2.11237 -1.28758e-16 
-6.11343 -2.13622 -1.96448e-16 
-5.89634 -2.13269 -1.31281e-16 
-5.67838 -2.14186 -2.16033e-16 
-5.45927 -2.14204 -2.42939e-16 
-5.24343 -2.14362 -2.59719e-16 
-5.02545 -2.14663 -2.81592e-16 
-4.81076 -2.14071 -2.21064e-16 
-4.59592 -2.14221 -2.32455e-16 
-4.37827 -2.14445 -2.01622e-16 
-4.16307 -2.14582 -1.67375e-16 
-3.94626 -2.14475 -1.47107e-16 
-3.72748 -2.14627 -9.58043e-17 
-3.50652 -2.14281 2.62919e-16 
-3.28179 -2.13657 5.15762e-16 
-3.05274 -2.13202 1.30707e-17 
-2.81362 -2.12167 5.04307e-17 
-2.56896 -2.12174 7.24193e-17 
-2.3164 -2.10872 1.23549e-16 
-2.06181 -2.08934 1.59726e-16 
-1.79639 -2.10302 -1.70239e-15 
-1.5562 -2.13918 6.17313e-16 
-1.31895 -2.14577 8.79996e-15 
-1.1266 -2.25259 -1.6218e-13 
-1.20032 -1.99399 1.04209e-13 
-1.00739 -2.13502 2.00007e-13 
-0.91027 -2.28758 1.68718e-13 
-0.698609 -2.55879 4.17613e-13 
-0.567609 -2.49518 6.8159e-14 
-0.175856 -2.57361 -2.71871e-12 
0.197946 -2.83926 -1.05661e-11 
0.487123 -2.68063 4.98181e-12 
0.483709 -2.57223 -1.15771e-11 
0.687125 -2.45008 6.36608e-13 
0.668176 -2.26168 -1.6656e-13 
0.90179 -2.28202 3.71352e-13 
1.03423 -2.19936 6.23916e-15 
1.21837 -2.18136 1.0877e-14 
1.4356 -2.13888 1.19142e-15 
1.66572 -2.09301 1.38316e-15 
1.90985 -2.10296 1.63422e-15 
2.15699 -2.13089 3.18375e-16 
2.41457 -2.11336 -2.40446e-17 
2.65089 -2.10252 -3.34506e-17 
2.89182 -2.12102 -1.16369e-17 
3.12578 -2.1399 -4.55296e-16 
3.35134 -2.1471 -2.04559e-16 
3.5756 -2.14524 -4.32147e-17 
3.79589 -2.14176 1.35974e-16 
4.01234 -2.13918 1.94365e-16 
4.22746 -2.13812 1.86728e-16 
4.44229 -2.13707 2.07851e-16 
4.65679 -2.13791 2.30024e-16 
4.87179 -2.13872 2.56016e-16 
5.08793 -2.13684 2.48041e-16 
5.30393 -2.13857 2.69815e-16 
5.52195 -2.13732 2.37432e-16 
5.74025 -2.13465 2.1197e-16 
5.95796 -2.13186 1.8235e-16 
6.17632 -2.12956 1.57085e-16 
6.39721 -2.12816 1.28213e-16 
6.62093 -2.12525 9.7547e-17 
6.84485 -2.12579 6.54578e-17 
7.07233 -2.13098 3.75163e-17 
7.30527 -2.13905 1.63011e-17 
7.54195 -2.14958 2.74252e-17 
7.78157 -2.14417 -1.79649e-17 
8.01945 -2.1562 5.97379e-18 
8.24913 -2.1178 -5.32702e-19 
8.48528 -2.1021 6.77595e-15 
-8.48528 -1.86339 -1.81211e-15 
-8.26908 -1.79331 3.19917e-18 
-8.06102 -1.90965 -2.31159e-18 
[...]
POINT_DATA 1978 
VECTORS vectors float
-0.000131449 0.00100603 1 
5.19967e-05 0.000591219 1 
4.65744e-05 -0.000257155 1 
7.2454e-05 -0.00129615 0.999999 
7.0718e-05 -0.00229038 0.999997 
8.43004e-05 -0.00347495 0.999994 
8.49451e-05 -0.00475228 0.999989 
0.000118918 -0.00687062 0.999976 
0.000132361 -0.00832582 0.999965 
9.91847e-05 -0.00979235 0.999952 
9.82999e-05 -0.0114772 0.999934 
0.000100333 -0.0130741 0.999915 
9.40571e-05 -0.0146926 0.999892 
8.85585e-05 -0.0163397 0.999867 
7.16664e-05 -0.0179311 0.999839 
4.16618e-05 -0.019361 0.999813 
9.27742e-06 -0.0206101 0.999788 
-3.57355e-05 -0.0215917 0.999767 
-8.88343e-05 -0.0223153 0.999751 
-0.000149022 -0.0226964 0.999742 
-0.000208604 -0.0226876 0.999743 
-0.000272584 -0.0221351 0.999755 
-0.000344963 -0.0208263 0.999783 
-0.000378686 -0.0185505 0.999828 
-0.000499331 -0.0146951 0.999892 
-0.000685012 -0.00835198 0.999965 
-0.000844557 -0.000186726 1 
-0.000957256 0.0109932 0.999939 
-0.000897221 0.0274112 0.999624 
-0.00116773 0.0478518 0.998854 
-0.00112689 0.0753993 0.997153 
-0.00167065 0.114419 0.993432 
-0.00375671 0.167521 0.985862 
-0.0063044 0.231015 0.972929 
-0.0078279 0.303448 0.952815 
-0.0103279 0.40095 0.916041 
-0.0178126 0.51409 0.857549 
-0.0187626 0.5934 0.804689 
-0.0150732 0.791299 0.611249 
0.00438111 0.973853 0.227138 
-0.00121156 0.857896 -0.51381 
0.0103958 0.708817 -0.705316 
0.0171872 0.50332 -0.863929 
0.0192273 0.438589 -0.898479 
0.00875229 0.322294 -0.946598 
0.0062028 0.233815 -0.972261 
0.00297333 0.163735 -0.986501 
0.00164223 0.109299 -0.994008 
0.00123259 0.0734929 -0.997296 
0.000951024 0.0449517 -0.998989 
0.000917758 0.0247782 -0.999693 
0.000944712 0.00938635 -0.999956 
0.00097457 -0.00117198 -0.999999 
0.000707784 -0.00914831 -0.999958 
0.000455305 -0.0152873 -0.999883 
0.000367686 -0.0188996 -0.999821 
0.000318634 -0.0210816 -0.999778 
0.000262195 -0.0222986 -0.999751 
0.000200974 -0.0227566 -0.999741 
0.000140938 -0.0226906 -0.999743 
8.33032e-05 -0.0222477 -0.999753 
3.07306e-05 -0.0214882 -0.999769 
-1.3824e-05 -0.0204328 -0.999791 
-4.75007e-05 -0.0191471 -0.999817 
-6.93755e-05 -0.0176915 -0.999844 
-8.37879e-05 -0.0161393 -0.99987 
-9.22466e-05 -0.0145377 -0.999894 
-9.63998e-05 -0.0129141 -0.999917 
-9.93596e-05 -0.01127 -0.999937 
-0.000100556 -0.00963004 -0.999954 
-9.62141e-05 -0.00800679 -0.999968 
-8.71432e-05 -0.00643021 -0.999979 
-7.72351e-05 -0.00493106 -0.999988 
-6.77867e-05 -0.00354518 -0.999994 
-5.71804e-05 -0.00226884 -0.999997 
-4.68044e-05 -0.0011322 -0.999999 
-2.46648e-05 -0.000161095 -1 
-4.88183e-05 0.000509569 -1 
0.000121567 0.00103793 -0.999999 
-0.000458152 0.00054431 1 
-0.000117852 0.000153454 1 
0.000163129 -0.000252778 1 
0.000240148 -0.00128292 0.999999 
0.000230836 -0.00242422 0.999997 
0.000245199 -0.00355918 0.999994 
0.000253366 -0.00472311 0.999989 
0.000493809 -0.00599066 0.999982 
0.000240187 -0.00758736 0.999971 
0.000204911 -0.00901227 0.999959 
0.000202975 -0.0105731 0.999944 
0.000100375 -0.0121718 0.999926 
-4.02879e-06 -0.0137464 0.999906 
-0.000128117 -0.0153134 0.999883 
-0.000340407 -0.0168002 0.999859 
-0.00062205 -0.0181477 0.999835 
-0.000991279 -0.0193021 0.999813 
-0.00149465 -0.0202107 0.999795 
-0.00205679 -0.0209151 0.999779 
-0.00273001 -0.0212758 0.99977 
-0.00339546 -0.02122 0.999769 
-0.00393743 -0.0206354 0.999779 
-0.00430117 -0.0192791 0.999805 
-0.00439806 -0.0168788 0.999848 
-0.00422521 -0.0127673 0.99991 
-0.00393246 -0.00589272 0.999975 
-0.00360198 0.00389446 0.999986 
-0.00310555 0.0178489 0.999836 
-0.00120158 0.0367753 0.999323 
0.00156847 0.0621667 0.998065 
0.00471647 0.0983506 0.995141 
0.00821117 0.150889 0.988517 
0.0153361 0.213783 0.976761 
0.0107658 0.306939 0.951668 
0.0147158 0.409682 0.91211 
0.0343993 0.495389 0.86799 
0.0125866 0.59212 0.805752 
-0.00585091 0.704649 0.709532 
0.00123723 0.852307 0.523042 
-0.00418119 0.985761 -0.168076 
-0.0162777 0.899639 -0.436344 
-0.033574 0.623132 -0.781396 
0.00272629 0.532229 -0.846596 
-0.0719205 0.443026 -0.893619 
-0.0141644 0.394006 -0.918998 
-0.0146182 0.296073 -0.955054 
-0.0116645 0.210303 -0.977567 
-0.00683692 0.142275 -0.989804 
-0.00463397 0.0921074 -0.995738 
-0.000173773 0.056808 -0.998385 
0.001796 0.0321408 -0.999482 
0.00298285 0.0147781 -0.999887 
0.00350878 0.00179213 -0.999992 
0.00403711 -0.00750627 -0.999964 
0.00421256 -0.0137159 -0.999897 
0.00427026 -0.0175136 -0.999838 
0.00421095 -0.0196465 -0.999798 
0.00388536 -0.0208082 -0.999776 
0.00335249 -0.0212813 -0.999768 
0.0027123 -0.0212569 -0.99977 
0.00206557 -0.0208647 -0.99978 
0.00147729 -0.0201759 -0.999795 
0.00100314 -0.0192276 -0.999815 
0.000627224 -0.0180743 -0.999837 
0.000357053 -0.0167527 -0.99986 
0.000160824 -0.0153088 -0.999883 
1.80433e-05 -0.0137914 -0.999905 
-9.31194e-05 -0.0122357 -0.999925 
-0.000170999 -0.0106691 -0.999943 
-0.000229492 -0.00910612 -0.999959 
-0.000270619 -0.0075604 -0.999971 
-0.000283241 -0.00606394 -0.999982 
-0.000272957 -0.00465099 -0.999989 
-0.000260365 -0.00333331 -0.999995 
-0.000230706 -0.0021407 -0.999998 
-0.000156042 -0.00109283 -1 
-2.87021e-05 -0.00029666 -1 
0.000125272 0.000291015 -1 
0.000464771 0.00054192 -1 
-0.000405178 0.000120005 1 
-0.000198697 -7.55827e-05 1 
-6.81869e-05 -0.000433377 1 
3.62676e-05 -0.00105202 1 
-4.5862e-05 -0.00189803 0.999998 
7.29062e-05 -0.0020566 0.999998 
6.7061e-05 -0.00328758 0.999995 
4.71963e-05 -0.00471077 0.999989 
5.8507e-05 -0.00628948 0.99998 
-0.000159063 -0.00769558 0.999971 
-0.000204337 -0.00922017 0.999958 
-0.000283801 -0.0107632 0.999942 
-0.000463815 -0.0122892 0.999924 
-0.000647412 -0.0138378 0.999904 
-0.000886491 -0.0152861 0.999883 
-0.0012249 -0.0166042 0.999861 
-0.00165099 -0.017744 0.999841 
-0.00221186 -0.0186012 0.999825 
-0.00290899 -0.0192918 0.99981 
-0.00368841 -0.0197584 0.999798 
-0.00455513 -0.0198489 0.999793 
-0.00533461 -0.019477 0.999796 
-0.00583319 -0.0185757 0.999811 
-0.0059439 -0.0169675 0.999838 
-0.00556002 -0.0142133 0.999884 
-0.00465453 -0.00961995 0.999943 
-0.0032607 -0.00231697 0.999992 
-0.00147999 0.00888266 0.99996 
0.00120544 0.023875 0.999714 
0.00658667 0.0446652 0.99898 
0.0148857 0.0735186 0.997183 
0.0242363 0.115667 0.992992 
0.0425113 0.16617 0.98518 
0.0461265 0.251009 0.966885 
0.0641637 0.343049 0.937123 
0.0839086 0.419245 0.903988 
0.0674814 0.629925 0.773719 
0.0530741 0.740841 0.669581 
0.0286076 0.980813 0.192838 
0.0111993 0.998965 0.0440794 
-0.0306764 0.930623 -0.364688 
-0.0391662 0.7438 -0.667254 
-0.0783592 0.521152 -0.849859 
-0.140427 0.404882 -0.903522 
-0.0779152 0.353817 -0.932064 
-0.0620875 0.274912 -0.959463 
-0.046971 0.193541 -0.979967 
-0.0296394 0.129774 -0.9911 
-0.018982 0.0832732 -0.996346 
-0.00841982 0.0532668 -0.998545 
-0.00266965 0.0299154 -0.999549 
0.000657858 0.013265 -0.999912 
0.00259047 0.00103957 -0.999996 
0.00410027 -0.00764407 -0.999963 
0.00503564 -0.0133496 -0.999898 
0.00563956 -0.0165759 -0.999847 
0.00583031 -0.0183596 -0.999815 
0.0055458 -0.0193342 -0.999798 
0.00489702 -0.0197839 -0.999792 
0.00408226 -0.0198115 -0.999796 
0.00325516 -0.0195007 -0.999805 
0.00252132 -0.0189107 -0.999818 
0.0019202 -0.0180889 -0.999835 
0.00144892 -0.0170783 -0.999853 
0.00108026 -0.0158891 -0.999873 
0.000798061 -0.0145518 -0.999894 
0.000578355 -0.0131195 -0.999914 
0.000406446 -0.0116407 -0.999932 
0.000264221 -0.0101387 -0.999949 
0.000143488 -0.00863705 -0.999963 
4.60012e-05 -0.00716566 -0.999974 
-2.62644e-05 -0.00574695 -0.999984 
-7.54946e-05 -0.00439457 -0.99999 
-9.9829e-05 -0.00314515 -0.999995 
-9.86327e-05 -0.00202455 -0.999998 
-5.22398e-05 -0.00110919 -0.999999 
6.56214e-05 -0.00037207 -1 
0.000200999 4.60121e-06 -1 
0.000389941 9.87769e-05 -1 
-0.000209091 -4.68682e-05 1 
-0.000142747 -0.000144479 1 
-8.91284e-05 -0.000506029 1 
-3.66721e-05 -0.00109912 0.999999 
-0.000233387 -0.00188493 0.999998 
-0.000133636 -0.00299371 0.999996 
-0.000205677 -0.00434864 0.999991 
-0.000216855 -0.00599527 0.999982 
-0.000527511 -0.00740619 0.999973 
-0.000695758 -0.00897226 0.99996 
-0.000838091 -0.0104254 0.999945 
-0.00104847 -0.0118627 0.999929 
-0.00129685 -0.0132904 0.999911 
-0.00161106 -0.0146208 0.999892 
-0.00199529 -0.0157887 0.999873 
-0.00248991 -0.0167674 0.999856 
-0.00314066 -0.0175173 0.999842 
-0.00389324 -0.0180772 0.999829 
-0.0047891 -0.018429 0.999819 
-0.00572744 -0.0184736 0.999813 
-0.00656877 -0.0181044 0.999815 
-0.00701611 -0.0173384 0.999825 
-0.00689974 -0.0160091 0.999848 
-0.00612091 -0.0138033 0.999886 
-0.00462444 -0.0100024 0.999939 
-0.00233588 -0.00394115 0.99999 
0.00103032 0.00559515 0.999984 
0.00637502 0.0192036 0.999795 
0.0148943 0.0363628 0.999228 
0.0278635 0.0633434 0.997603 
0.0428854 0.100852 0.993977 
0.069906 0.149722 0.986254 
0.0837225 0.230441 0.969478 
0.102008 0.145871 0.984031 
0.121751 0.24537 0.961754 
0.128127 0.328199 0.935879 
0.0972054 0.529137 0.84295 
0.129144 0.661234 0.738979 
0.0453975 0.975724 0.214249 
0.00155562 0.964221 -0.265094 
-0.0762482 0.756054 -0.650052 
-0.121137 0.745726 -0.655154 
-0.155837 0.485176 -0.860418 
-0.204122 0.395187 -0.895635 
-0.134551 0.315121 -0.939465 
-0.112554 0.242205 -0.963674 
-0.0833157 0.185677 -0.979072 
-0.0573553 0.124886 -0.990512 
-0.0387447 0.0806395 -0.99599 
-0.0215344 0.050958 -0.998469 
-0.010578 0.0307342 -0.999472 
-0.00442446 0.0135549 -0.999898 
-0.000241136 0.00191592 -0.999998 
0.00302871 -0.0063437 -0.999975 
0.00497247 -0.0118338 -0.999918 
0.00625908 -0.0150721 -0.999867 
0.00690459 -0.01681 -0.999835 
0.00690459 -0.0177561 -0.999819 
0.00636079 -0.0182699 -0.999813 
0.00550012 -0.0184579 -0.999815 
0.00456881 -0.0183236 -0.999822 
0.00370741 -0.0179133 -0.999833 
0.00298356 -0.0172761 -0.999846 
0.00240114 -0.0164244 -0.999862 
0.00192537 -0.015416 -0.999879 
0.00155041 -0.0142068 -0.999898 
0.00125182 -0.0128713 -0.999916 
0.00101367 -0.011458 -0.999934 
0.000811741 -0.0100137 -0.99995 
0.000637723 -0.00856387 -0.999963 
0.000490874 -0.00712831 -0.999975 
0.000363194 -0.0057428 -0.999984 
0.000247998 -0.00443291 -0.99999 
0.000156515 -0.00321803 -0.999995 
9.10004e-05 -0.00214218 -0.999998 
6.66999e-05 -0.00123586 -0.999999 
7.89764e-05 -0.000550085 -1 
0.000149869 -0.000148968 -1 
0.000221294 -6.08801e-05 -1 
-4.0197e-05 1.35165e-05 1 
-5.99987e-05 -0.000102346 1 
-0.000136798 -0.000455849 1 
-0.000175483 -0.00105207 1 
-0.000342599 -0.00293213 0.999996 
-0.000447322 -0.00415387 0.999991 
-0.000461674 -0.00382333 0.999993 
-0.000491205 -0.00567863 0.999984 
-0.000740209 -0.006665 0.999978 
-0.000920272 -0.00813435 0.999967 
-0.00114809 -0.00958338 0.999954 
-0.00138397 -0.0109295 0.999939 
-0.00165689 -0.0122974 0.999923 
-0.00200662 -0.0135652 0.999906 
-0.00242707 -0.0146739 0.999889 
-0.00293201 -0.0156077 0.999874 
-0.00357983 -0.016285 0.999861 
-0.00435107 -0.0167915 0.99985 
-0.00523854 -0.0171354 0.99984 
-0.00624943 -0.0172074 0.999833 
-0.00721422 -0.0169852 0.99983 
-0.00791376 -0.0164539 0.999833 
-0.00805571 -0.0155999 0.999846 
-0.00747901 -0.014236 0.999871 
-0.00604561 -0.0119015 0.999911 
-0.00366153 -0.00806599 0.999961 
0.000117076 -0.00193837 0.999998 
0.00566598 0.00682081 0.999961 
0.0141149 0.0178214 0.999742 
0.0273963 0.036491 0.998959 
0.0466362 0.0620416 0.996984 
0.0664997 0.0922842 0.99351 
0.0965849 0.0906713 0.991186 
0.135867 0.120975 0.983313 
0.149323 0.206361 0.967015 
0.158625 0.407232 0.899444 
0.148342 0.501127 0.852564 
0.0620102 0.871315 0.48679 
0.0257426 0.871767 0.489242 
0.0405491 0.988338 0.14677 
-0.000128769 0.98025 -0.197776 
-0.126741 0.793958 -0.594604 
-0.225227 0.512628 -0.828544 
-0.197793 0.300847 -0.932936 
-0.169833 0.235266 -0.956978 
-0.133583 0.174101 -0.975625 
-0.0945117 0.134014 -0.986462 
-0.0662571 0.0875506 -0.993954 
-0.0429302 0.0538312 -0.997627 
-0.0253019 0.033448 -0.99912 
-0.0133425 0.018508 -0.99974 
-0.00564431 0.00568653 -0.999968 
5.05521e-05 -0.00287619 -0.999996 
0.00370082 -0.0086901 -0.999956 
0.00597432 -0.0125718 -0.999903 
0.00735733 -0.0147858 -0.999864 
0.00796301 -0.0159747 -0.999841 
0.0078557 -0.0166141 -0.999831 
0.00717328 -0.017011 -0.99983 
0.00621753 -0.0171821 -0.999833 
0.00523705 -0.0170903 -0.99984 
0.0043473 -0.0167575 -0.99985 
0.00358763 -0.0162215 -0.999862 
0.002961 -0.0154545 -0.999876 
0.0024427 -0.0145865 -0.999891 
0.00202092 -0.0134726 -0.999907 
0.00167817 -0.01223 -0.999924 
0.00138918 -0.010886 -0.99994 
0.00114076 -0.00950425 -0.999954 
0.00092708 -0.00810769 -0.999967 
0.000747277 -0.00672694 -0.999977 
0.000588348 -0.00538216 -0.999985 
0.000452125 -0.00412681 -0.999991 
0.000342829 -0.00297626 -0.999996 
0.000254421 -0.00196996 -0.999998 
0.000185618 -0.00112404 -0.999999 
0.000136634 -0.000509632 -1 
8.6365e-05 -0.000119729 -1 
3.20017e-05 4.85034e-06 -1 
7.59825e-05 6.6089e-05 1 
2.89637e-05 -7.28733e-05 1 
-7.42423e-05 -0.000466237 1 
-0.000153896 -0.00102566 1 
-0.000247152 -0.00186468 0.999998 
-0.000354836 -0.00289344 0.999996 
-0.000633122 -0.00486098 0.999988 
-0.000597636 -0.0050618 0.999987 
-0.0007911 -0.00620923 0.99998 
-0.00101543 -0.00762393 0.999971 
-0.00128349 -0.00903005 0.999959 
-0.00158262 -0.010361 0.999945 
-0.00189134 -0.0116822 0.99993 
-0.00225689 -0.0128526 0.999915 
-0.0027043 -0.0138852 0.9999 
-0.00323443 -0.0147345 0.999886 
-0.0038785 -0.0153213 0.999875 
-0.00462566 -0.0157545 0.999865 
-0.00548932 -0.0160213 0.999857 
-0.00645534 -0.016089 0.99985 
-0.00744226 -0.0158864 0.999846 
-0.00827253 -0.0155394 0.999845 
-0.00866463 -0.0148997 0.999852 
-0.00841415 -0.0139853 0.999867 
-0.00732353 -0.0125448 0.999895 
-0.00518473 -0.0101514 0.999935 
-0.00155634 -0.00629583 0.999979 
0.0041548 -0.000717295 0.999991 
0.0128775 0.00640454 0.999897 
0.0269231 0.0196195 0.999445 
0.0461521 0.0371648 0.998243 
0.0721079 0.0553319 0.995861 
0.11807 0.0569573 0.991371 
0.168716 0.0831534 0.982151 
0.198669 0.283049 0.938304 
0.234209 0.363007 0.901872 
0.181234 0.613124 0.768916 
0.213328 0.489349 0.845594 
0.0888855 0.909109 0.406961 
-0.0106474 0.967398 -0.253044 
-0.00653219 0.997487 -0.0705857 
-0.180263 0.745747 -0.641382 
-0.274333 0.424235 -0.862998 
-0.240929 0.203514 -0.948965 
-0.187052 0.164636 -0.968456 
-0.136665 0.11285 -0.984169 
-0.0962901 0.0837214 -0.991826 
-0.0644083 0.0500206 -0.996669 
-0.0441759 0.0270429 -0.998658 
-0.0280168 0.0195233 -0.999417 
-0.0144298 0.00907829 -0.999855 
-0.00496395 -0.000478785 -0.999988 
0.00134653 -0.00669114 -0.999977 
0.00504279 -0.0105232 -0.999932 
0.00713738 -0.0129717 -0.99989 
0.008262 -0.0144153 -0.999862 
0.00858525 -0.0151594 -0.999848 
0.00826496 -0.0156043 -0.999844 
0.00750048 -0.0159186 -0.999845 
0.00654804 -0.0160821 -0.999849 
0.0055972 -0.0160314 -0.999856 
0.00473257 -0.0157804 -0.999864 
0.00398548 -0.0153788 -0.999874 
0.00333924 -0.0147283 -0.999886 
0.00278704 -0.0139338 -0.999899 
0.00232631 -0.0129078 -0.999914 
0.00193966 -0.0117147 -0.99993 
0.0016087 -0.0104416 -0.999945 
0.00132062 -0.00913449 -0.999957 
0.0010668 -0.0077823 -0.999969 
0.000844432 -0.00643542 -0.999979 
0.000649229 -0.00514922 -0.999987 
0.000480437 -0.00393156 -0.999992 
0.0003424 -0.0028272 -0.999996 
0.00022997 -0.00186009 -0.999998 
0.000137702 -0.001053 -1 
6.80733e-05 -0.000456229 -1 
-1.36661e-05 -7.54645e-05 -1 
-8.38367e-05 6.59532e-05 -1 
0.000153632 0.00014581 1 
6.94518e-05 -7.34674e-06 1 
-2.99674e-05 -0.000462215 1 
-0.000121639 -0.00107395 1 
-0.000213629 -0.00179208 0.999998 
-0.000326175 -0.00256233 0.999997 
-0.000476335 -0.00357765 0.999994 
-0.000714638 -0.00478527 0.999988 
-0.000900695 -0.00617681 0.999981 
-0.00115529 -0.0075413 0.999971 
-0.00144283 -0.00884994 0.99996 
-0.00175295 -0.0101027 0.999948 
-0.0020764 -0.0113128 0.999934 
-0.0024633 -0.012458 0.999919 
-0.00291452 -0.0133897 0.999906 
-0.00345028 -0.014152 0.999894 
-0.00406276 -0.0146195 0.999885 
-0.00477807 -0.0149932 0.999876 
-0.0055537 -0.015177 0.99987 
-0.00640629 -0.0152459 0.999863 
-0.00721645 -0.0150827 0.99986 
-0.00792811 -0.0148235 0.999859 
-0.00830079 -0.014438 0.999861 
-0.008103 -0.0139057 0.999871 
-0.00711287 -0.0130995 0.999889 
-0.00499877 -0.0117525 0.999919 
-0.001395 -0.00961682 0.999953 
0.00449292 -0.00689602 0.999966 
0.0148366 -0.00230155 0.999887 
0.0294238 0.00569896 0.999551 
0.0497439 0.0169265 0.998619 
0.0788248 0.0279143 0.996498 
0.108832 0.0115536 0.993993 
0.15089 0.020834 0.988331 
0.187885 0.173367 0.966769 
0.259883 0.257572 0.930654 
0.292873 0.201702 0.934635 
0.275423 0.449344 0.849842 
0.225557 0.666843 0.710242 
0.138884 0.781209 0.608624 
-0.05122 0.944612 -0.324159 
-0.132792 0.595888 -0.792014 
-0.262948 0.300216 -0.916913 
-0.277468 0.129189 -0.952009 
-0.202251 0.104623 -0.973729 
-0.152265 0.0641493 -0.986256 
-0.104451 0.0455254 -0.993488 
-0.0754989 0.0204251 -0.996937 
-0.048102 0.0054936 -0.998827 
-0.0284723 0.00239872 -0.999592 
-0.0152694 -0.000646919 -0.999883 
-0.00551238 -0.00653515 -0.999964 
0.00104679 -0.0100909 -0.999949 
0.00487639 -0.0121982 -0.999914 
0.00696608 -0.0134849 -0.999885 
0.00800448 -0.0142557 -0.999866 
0.00823431 -0.014706 -0.999858 
0.00790952 -0.0149457 -0.999857 
0.00725506 -0.015126 -0.999859 
0.00644831 -0.0152412 -0.999863 
0.00561693 -0.0152189 -0.999869 
0.0048421 -0.0150263 -0.999875 
0.00413359 -0.0146446 -0.999884 
0.00351659 -0.0141196 -0.999894 
0.00296714 -0.0133696 -0.999906 
0.00250194 -0.0124324 -0.99992 
0.00210362 -0.0113071 -0.999934 
0.00176028 -0.0101053 -0.999947 
0.00145285 -0.00881303 -0.999961 
0.00118145 -0.0075128 -0.999971 
0.000937114 -0.00620196 -0.99998 
0.000714457 -0.00493861 -0.999988 
0.000517419 -0.00373796 -0.999993 
0.000350346 -0.00266534 -0.999997 
0.000210327 -0.00173605 -0.999999 
9.73672e-05 -0.000973767 -1 
1.00017e-05 -0.000413647 -1 
-8.00965e-05 -2.82364e-05 -1 
-0.000169682 0.000125882 -1 
0.000195702 0.000245207 1 
0.000105679 0.000136742 1 
-1.36892e-05 -0.000308328 1 
-0.000123923 -0.000899201 1 
-0.000244183 -0.00166262 0.999999 
-0.000389488 -0.00254878 0.999997 
-0.000564562 -0.00362873 0.999993 
-0.000777694 -0.00480924 0.999988 
-0.000973851 -0.00602775 0.999981 
-0.00122039 -0.00730736 0.999973 
-0.00149341 -0.00857664 0.999962 
-0.00179975 -0.0098611 0.99995 
-0.00212779 -0.0110441 0.999937 
-0.00249273 -0.0120907 0.999924 
-0.00292202 -0.0129945 0.999911 
-0.00341607 -0.0136481 0.999901 
-0.00399768 -0.0141493 0.999892 
-0.00462646 -0.0144234 0.999885 
-0.00529666 -0.014596 0.99988 
-0.00596255 -0.0146312 0.999875 
-0.00658342 -0.014641 0.999871 
-0.00706774 -0.0145676 0.999869 
-0.00725124 -0.0144798 0.999869 
-0.00696143 -0.0144012 0.999872 
-0.00596973 -0.014299 0.99988 
-0.0040103 -0.0140447 0.999893 
-0.000470979 -0.0136878 0.999906 
0.00556564 -0.0131341 0.999898 
0.0152395 -0.012668 0.999804 
0.0278527 -0.0110879 0.999551 
0.0444902 -0.00594746 0.998992 
0.0685427 -0.00270914 0.997645 
0.100107 -0.0202521 0.994771 
0.146062 -0.0308653 0.988794 
0.220927 0.128049 0.966848 
0.204218 0.0388769 0.978153 
0.260105 0.0690684 0.963107 
0.345833 0.379406 0.858168 
0.187752 0.801661 0.567532 
-0.028826 0.983938 -0.176181 
-0.248005 0.616268 -0.747465 
-0.331994 0.209447 -0.919735 
-0.161118 0.291002 -0.943058 
-0.234445 0.0519583 -0.97074 
-0.182048 0.0254301 -0.982961 
-0.126772 0.0111588 -0.991869 
-0.0937226 -0.00982171 -0.99555 
-0.0643868 -0.0121849 -0.997851 
-0.043889 -0.0196857 -0.998843 
-0.0300179 -0.0126031 -0.99947 
-0.0161226 -0.0112728 -0.999807 
-0.0065718 -0.0131382 -0.999892 
-9.45225e-05 -0.013986 -0.999902 
0.00372767 -0.0144112 -0.999889 
0.00582717 -0.0146015 -0.999877 
0.00690724 -0.014676 -0.999869 
0.00718791 -0.0147179 -0.999866 
0.00701276 -0.0147056 -0.999867 
0.00656838 -0.0147086 -0.99987 
0.00597566 -0.0147198 -0.999874 
0.00532062 -0.0146619 -0.999878 
0.00467669 -0.0145121 -0.999884 
0.00404904 -0.0141767 -0.999891 
0.00347313 -0.0136781 -0.999901 
0.00296041 -0.0129583 -0.999912 
0.00252514 -0.0120874 -0.999924 
0.00214424 -0.0110244 -0.999937 
0.00181263 -0.00985413 -0.99995 
0.00151615 -0.00861023 -0.999962 
0.00124521 -0.00732198 -0.999973 