# vtk DataFile Version 3.0 
Exported using Morpho https://github.com/Morpho-lang/morpho 
ASCII 
DATASET UNSTRUCTURED_GRID 

POINTS 1978 float 
-8.48528 -2.82843 1.36067e-12 
-8.27215 -2.82843 2.26362e-12 
-7.97581 -2.82843 1.27425e-12 
-7.7237 -2.82843 6.59209e-13 
-7.49704 -2.82843 -6.56288e-13 
-7.28327 -2.82843 6.22113e-13 
-7.06345 -2.82843 -5.90167e-13 
-6.74786 -2.82843 -8.11005e-13 
-6.54652 -2.82843 -5.19774e-13 
-6.34377 -2.82843 -3.34265e-13 
-6.1221 -2.82843 -3.34247e-13 
-5.91025 -2.82843 -4.07709e-13 
-5.69929 -2.82843 -1.8735e-13 
-5.48575 -2.82843 1.18024e-13 
-5.27563 -2.82843 2.79722e-13 
-5.06486 -2.82843 6.01501e-13 
-4.85415 -2.82843 9.47386e-13 
-4.64633 -2.82843 6.82683e-13 
-4.4355 -2.82843 -1.49893e-12 
-4.22595 -2.82843 -1.1515e-12 
-4.01723 -2.82843 -3.40577e-12 
-3.8059 -2.82843 -5.8799e-12 
-3.59537 -2.82843 -1.06514e-11 
-3.3848 -2.82843 -1.42157e-11 
-3.17408 -2.82843 -1.95889e-11 
-2.96494 -2.82843 -2.10488e-11 
-2.7623 -2.82843 -1.48307e-11 
-2.5605 -2.82843 -2.63035e-11 
-2.33301 -2.82843 -2.12306e-11 
-2.10898 -2.82843 -1.22418e-10 
-1.88356 -2.82843 -3.85452e-10 
-1.65065 -2.82843 -1.32504e-09 
-1.4365 -2.82843 -3.93427e-09 
-1.25738 -2.82843 -1.3091e-08 
-1.08195 -2.82843 -2.15073e-08 
-0.919513 -2.82843 -5.16386e-08 
-0.775035 -2.82843 -1.2423e-07 
-0.642876 -2.82843 -1.2908e-07 
-0.469144 -2.82843 -4.33568e-07 
-0.201472 -2.82843 2.50687e-07 
0.454873 -2.82843 1.43845e-06 
0.632747 -2.82843 6.56925e-07 
0.785537 -2.82843 6.39287e-08 
0.932644 -2.82843 9.08468e-08 
1.07374 -2.82843 2.71273e-08 
1.2468 -2.82843 1.17055e-08 
1.44484 -2.82843 3.8403e-09 
1.66951 -2.82843 1.10741e-09 
1.88908 -2.82843 2.95654e-10 
2.13255 -2.82843 8.57053e-11 
2.36483 -2.82843 4.43258e-11 
2.58645 -2.82843 1.89481e-11 
2.77711 -2.82843 1.5654e-11 
2.97642 -2.82843 2.04146e-11 
3.1847 -2.82843 2.07485e-11 
3.39754 -2.82843 1.60219e-11 
3.614 -2.82843 1.0626e-11 
3.82676 -2.82843 5.92638e-12 
4.03729 -2.82843 2.84435e-12 
4.2459 -2.82843 2.61232e-13 
4.45389 -2.82843 5.47952e-13 
4.66273 -2.82843 -4.33255e-13 
4.87329 -2.82843 -4.40775e-13 
5.08355 -2.82843 -3.03514e-13 
5.29519 -2.82843 -9.81124e-14 
5.50701 -2.82843 1.05892e-14 
5.71974 -2.82843 2.299e-13 
5.93367 -2.82843 3.1163e-13 
6.15018 -2.82843 3.04103e-13 
6.36735 -2.82843 2.52977e-13 
6.58666 -2.82843 5.32584e-13 
6.81038 -2.82843 9.56319e-13 
7.03819 -2.82843 2.55149e-13 
7.26759 -2.82843 -4.42711e-14 
7.5029 -2.82843 2.44194e-13 
7.74293 -2.82843 -9.077e-13 
7.99109 -2.82843 -9.8191e-13 
8.23003 -2.82843 -1.79524e-12 
8.48528 -2.82843 -1.40656e-12 
-8.48528 -2.59975 -1.42308e-12 
-8.24384 -2.57488 1.05135e-16 
-8.01832 -2.63853 3.505e-15 
-7.73865 -2.61472 5.75129e-15 
-7.4934 -2.59912 9.34148e-15 
-7.27357 -2.59546 1.57312e-14 
-7.06611 -2.56459 1.93261e-14 
-6.86675 -2.66491 8.37336e-14 
-6.61523 -2.57297 6.16826e-14 
-6.41088 -2.57911 6.60042e-14 
-6.19799 -2.5996 9.27806e-14 
-5.97802 -2.59572 1.03022e-13 
-5.76239 -2.59636 1.08321e-13 
-5.54624 -2.60027 1.05458e-13 
-5.33026 -2.59832 8.00642e-14 
-5.11535 -2.59981 4.21402e-14 
-4.89951 -2.59965 -4.93812e-15 
-4.68463 -2.59689 -3.18035e-14 
-4.47138 -2.60086 -3.63926e-14 
-4.25523 -2.60069 1.09657e-14 
-4.03849 -2.59958 1.28908e-13 
-3.82103 -2.60123 3.16238e-15 
-3.59858 -2.59438 6.83655e-15 
-3.37594 -2.5973 1.18133e-14 
-3.15183 -2.59566 1.6375e-14 
-2.92699 -2.58869 1.22123e-14 
-2.70203 -2.58139 -1.76177e-14 
-2.46168 -2.59121 -1.27312e-13 
-2.21489 -2.57648 -3.73147e-13 
-1.97051 -2.57128 4.48999e-13 
-1.72946 -2.58885 -1.17285e-12 
-1.49025 -2.58713 1.07248e-11 
-1.297 -2.60643 2.23235e-11 
-1.10632 -2.63279 9.39817e-11 
-0.941532 -2.63754 1.51589e-10 
-0.80528 -2.67115 1.53566e-10 
-0.670262 -2.69981 3.87731e-10 
-0.536535 -2.74384 7.67824e-10 
-0.366873 -2.77906 5.29653e-10 
0.0888319 -2.81139 7.79628e-09 
0.386286 -2.79438 -8.73974e-10 
0.688502 -2.7122 -1.03468e-09 
0.837178 -2.69587 -7.76363e-10 
0.863054 -2.52929 2.08734e-10 
0.976399 -2.65762 -1.64322e-10 
1.12804 -2.63054 -8.53746e-11 
1.29977 -2.60399 -4.39353e-11 
1.51645 -2.59774 -1.30849e-11 
1.75082 -2.57758 1.09836e-12 
2.00661 -2.59105 -5.07275e-13 
2.26494 -2.58844 3.77268e-13 
2.50951 -2.58849 1.11622e-13 
2.7402 -2.56937 7.27589e-15 
2.95464 -2.59033 -1.0137e-14 
3.17337 -2.59678 -1.65252e-14 
3.39902 -2.59599 -1.10497e-14 
3.6238 -2.60057 -6.11233e-15 
3.84258 -2.59997 -2.65233e-15 
4.05717 -2.59865 -9.7971e-14 
4.26922 -2.59759 6.26254e-15 
4.48051 -2.59769 3.98212e-14 
4.69208 -2.59858 3.35329e-14 
4.90365 -2.59775 -1.35748e-15 
5.11607 -2.59871 -4.38415e-14 
5.32835 -2.59792 -7.91014e-14 
5.5417 -2.59799 -9.86707e-14 
5.75561 -2.59771 -1.04284e-13 
5.97071 -2.59788 -1.01076e-13 
6.18652 -2.59593 -8.99195e-14 
6.40403 -2.5947 -7.54e-14 
6.62463 -2.59561 -5.94576e-14 
6.84806 -2.59596 -4.19666e-14 
7.07397 -2.59503 -2.64409e-14 
7.30493 -2.59882 -1.58001e-14 
7.54038 -2.6015 -7.90598e-15 
7.78131 -2.60696 -5.21431e-15 
8.01785 -2.60566 3.20888e-16 
8.26436 -2.61011 2.34267e-16 
8.48528 -2.58312 1.71207e-12 
-8.48528 -2.37067 -1.38252e-12 
-8.2715 -2.31633 -2.30477e-15 
-8.04739 -2.39507 -3.60034e-15 
-7.81259 -2.41934 -1.23901e-15 
-7.59183 -2.17209 2.24745e-15 
-7.56053 -2.39157 -1.49945e-15 
-7.31464 -2.35374 1.55342e-15 
-7.0548 -2.3576 4.90603e-15 
-6.79747 -2.43486 -1.28883e-14 
-6.55992 -2.32331 6.06025e-15 
-6.34089 -2.34844 7.75529e-15 
-6.12215 -2.3689 1.55488e-14 
-5.90074 -2.36523 8.28377e-16 
-5.67941 -2.36991 3.50103e-15 
-5.4609 -2.37136 -4.06221e-15 
-5.24224 -2.3713 -1.28668e-14 
-5.02414 -2.37359 -1.34316e-14 
-4.80685 -2.37093 -2.76637e-14 
-4.58979 -2.36919 -2.57599e-14 
-4.37533 -2.37409 -2.43987e-14 
-4.15916 -2.37378 -3.17851e-14 
-3.94196 -2.37272 -2.70128e-14 
-3.7237 -2.37413 4.31939e-14 
-3.4996 -2.36886 1.66705e-13 
-3.27685 -2.36747 3.07679e-15 
-3.05152 -2.36265 2.79898e-15 
-2.82157 -2.34939 -4.71192e-15 
-2.57924 -2.35559 -2.56033e-14 
-2.33542 -2.34574 -1.24307e-13 
-2.08418 -2.32805 -5.0996e-13 
-1.83353 -2.33208 1.82398e-13 
-1.59265 -2.36412 1.01559e-12 
-1.36717 -2.35262 -1.12834e-12 
-1.17596 -2.43643 1.92823e-11 
-0.989892 -2.439 4.36658e-11 
-0.82928 -2.48132 -1.70289e-12 
-0.556085 -2.61945 -4.92961e-11 
-0.425821 -2.67072 8.88018e-10 
-0.149503 -2.72253 9.70736e-10 
-0.0577709 -2.77812 -1.39036e-09 
0.299752 -2.76392 5.84725e-10 
0.560735 -2.74745 1.17015e-09 
0.734998 -2.58259 6.91707e-11 
0.794949 -2.37283 1.52408e-10 
0.990384 -2.46689 4.56217e-11 
1.12737 -2.40284 -1.77526e-11 
1.31718 -2.38269 1.21155e-12 
1.52993 -2.35777 -1.28079e-12 
1.75597 -2.32978 -6.14102e-13 
1.99373 -2.35713 3.03984e-13 
2.2539 -2.35459 8.80652e-14 
2.50053 -2.35007 1.22531e-14 
2.73633 -2.33754 2.397e-15 
2.97045 -2.35247 -7.33822e-15 
3.19926 -2.37195 -3.67511e-15 
3.42629 -2.37275 -2.06119e-15 
3.6467 -2.37314 -9.39695e-14 
3.8627 -2.37088 -4.22311e-15 
4.07603 -2.36863 2.71036e-14 
4.28839 -2.36746 3.12125e-14 
4.50006 -2.3674 3.24918e-14 
4.71196 -2.36813 3.29126e-14 
4.92497 -2.3679 2.64846e-14 
5.13729 -2.36775 1.78656e-14 
5.35144 -2.36778 7.41998e-15 
5.56583 -2.3671 -1.83244e-15 
5.78029 -2.36611 -5.53051e-15 
5.99499 -2.36461 -8.18388e-15 
6.21157 -2.36211 -1.00284e-14 
6.43077 -2.36084 -1.08637e-14 
6.65111 -2.36072 -1.06669e-14 
6.87437 -2.36096 -9.41567e-15 
7.10304 -2.36344 -6.74058e-15 
7.33575 -2.3699 -3.54287e-15 
7.57384 -2.37687 -3.75511e-15 
7.80703 -2.3761 -9.61712e-16 
8.04536 -2.38765 2.07841e-15 
8.26768 -2.36153 3.77313e-15 
8.48528 -2.33336 1.2855e-12 
-8.48528 -2.11876 -1.09069e-12 
-8.27436 -2.05612 2.45614e-16 
-8.05544 -2.15379 -1.19822e-15 
-7.82608 -2.19589 1.71085e-15 
-7.59685 -1.95005 -7.04431e-15 
-7.35006 -2.14439 -7.84386e-16 
-7.09189 -2.14893 -5.45381e-15 
-6.81748 -2.22261 2.09946e-15 
-6.57158 -2.10988 -1.53905e-14 
-6.32948 -2.11218 -2.30869e-14 
-6.11336 -2.13603 -3.5224e-14 
-5.89626 -2.13228 -2.35393e-14 
-5.67844 -2.14164 -3.87357e-14 
-5.45955 -2.14265 -4.356e-14 
-5.24282 -2.14238 -4.65687e-14 
-5.02542 -2.14649 -5.04906e-14 
-4.81069 -2.1406 -3.96377e-14 
-4.5959 -2.14213 -4.16802e-14 
-4.37825 -2.14436 -3.61517e-14 
-4.16299 -2.14549 -3.0011e-14 
-3.94633 -2.1446 -2.6377e-14 
-3.72753 -2.14581 -1.71781e-14 
-3.50667 -2.14248 4.71425e-14 
-3.28128 -2.13628 9.24784e-14 
-3.05205 -2.13152 2.34361e-15 
-2.81256 -2.12138 9.0424e-15 
-2.56789 -2.12131 1.2985e-14 
-2.31514 -2.10868 2.21526e-14 
-2.05942 -2.09091 2.86393e-14 
-1.79509 -2.10352 -3.05247e-13 
-1.55651 -2.13952 1.10696e-13 
-1.32369 -2.14867 -1.25932e-12 
-1.12996 -2.24813 -1.96232e-11 
-1.20263 -1.99709 1.18991e-11 
-1.00624 -2.13306 2.42001e-11 
-0.9131 -2.28969 2.04143e-11 
-0.699399 -2.56231 5.05296e-11 
-0.575099 -2.49059 7.78311e-12 
-0.170698 -2.57187 -3.28954e-10 
0.194691 -2.83934 -1.27846e-09 
0.48642 -2.69054 6.02782e-10 
0.504515 -2.57447 -1.40078e-09 
0.691717 -2.45234 7.70271e-11 
0.663151 -2.26313 -2.0153e-11 
0.904179 -2.28445 4.49324e-11 
1.03683 -2.19862 1.11875e-12 
1.22243 -2.18232 -1.55657e-12 
1.43631 -2.1402 2.13631e-13 
1.6654 -2.09414 2.48006e-13 
1.9083 -2.10314 2.93021e-13 
2.15508 -2.13172 5.70856e-14 
2.41371 -2.11357 -4.31128e-15 
2.65053 -2.1031 -5.99781e-15 
2.89124 -2.11973 -2.08654e-15 
3.12564 -2.13907 -8.16365e-14 
3.35101 -2.14701 -3.66784e-14 
3.57575 -2.14501 -7.74859e-15 
3.796 -2.14145 2.43807e-14 
4.01254 -2.13891 3.48505e-14 
4.22776 -2.13803 3.34811e-14 
4.44257 -2.13694 3.72686e-14 
4.65702 -2.13775 4.12444e-14 
4.87198 -2.13854 4.59049e-14 
5.08802 -2.13663 4.44749e-14 
5.30396 -2.13826 4.83791e-14 
5.52193 -2.13708 4.25725e-14 
5.74019 -2.13442 3.80071e-14 
5.9579 -2.13166 3.26962e-14 
6.17631 -2.12938 2.8166e-14 
6.39723 -2.12811 2.29892e-14 
6.62106 -2.125 1.74906e-14 
6.84506 -2.12559 1.17369e-14 
7.07255 -2.13089 6.72684e-15 
7.3055 -2.13889 2.92286e-15 
7.54225 -2.1495 4.91745e-15 
7.78202 -2.14433 -3.22119e-15 
8.01974 -2.15535 1.07113e-15 
8.24919 -2.11779 -9.55158e-17 
8.48528 -2.1021 1.21496e-12 
-8.48528 -1.86339 -3.24919e-13 
-8.26874 -1.79361 5.73625e-16 
-8.06073 -1.90992 -4.14479e-16 
[...]
POINT_DATA 1978 
VECTORS vectors float
-0.000130411 0.00100591 1 
5.11152e-05 0.00059122 1 
4.46477e-05 -0.000257155 1 
7.02449e-05 -0.00129615 0.999999 
6.85177e-05 -0.00229038 0.999997 
8.18693e-05 -0.00347495 0.999994 
8.16043e-05 -0.00475228 0.999989 
0.000114907 -0.00687062 0.999976 
0.000128925 -0.00832582 0.999965 
9.61632e-05 -0.00979235 0.999952 
9.53773e-05 -0.0114772 0.999934 
9.74769e-05 -0.0130741 0.999915 
9.13285e-05 -0.0146926 0.999892 
8.60515e-05 -0.0163397 0.999867 
6.96705e-05 -0.0179311 0.999839 
4.04745e-05 -0.019361 0.999813 
9.06977e-06 -0.0206101 0.999788 
-3.46726e-05 -0.0215917 0.999767 
-8.62532e-05 -0.0223153 0.999751 
-0.000144771 -0.0226964 0.999742 
-0.000202598 -0.0226876 0.999743 
-0.000264696 -0.0221351 0.999755 
-0.000335232 -0.0208263 0.999783 
-0.000367381 -0.0185505 0.999829 
-0.000484717 -0.0146951 0.999892 
-0.000665904 -0.00835198 0.999965 
-0.000821457 -0.000186726 1 
-0.000930036 0.0109932 0.999939 
-0.000867893 0.0274112 0.999624 
-0.00113351 0.0478518 0.998854 
-0.00108858 0.0753993 0.997154 
-0.00161242 0.114419 0.993433 
-0.00365562 0.167522 0.985862 
-0.00615603 0.231016 0.97293 
-0.00764407 0.303448 0.952816 
-0.0100959 0.40095 0.916042 
-0.0174976 0.514092 0.857552 
-0.0183879 0.593404 0.804694 
-0.0147228 0.791306 0.611254 
0.00430676 0.973854 0.227138 
-0.00127267 0.857892 -0.513807 
0.0101844 0.708819 -0.705317 
0.0168517 0.503323 -0.863934 
0.018889 0.438591 -0.898483 
0.00854081 0.322294 -0.946599 
0.00605012 0.233815 -0.972262 
0.00287981 0.163735 -0.986502 
0.00158772 0.109299 -0.994009 
0.00119317 0.0734929 -0.997296 
0.000918781 0.0449517 -0.99899 
0.000889025 0.0247782 -0.999693 
0.000918132 0.00938635 -0.999956 
0.000949958 -0.00117198 -0.999999 
0.000688076 -0.00914831 -0.999958 
0.000441448 -0.0152873 -0.999883 
0.000356732 -0.0188997 -0.999821 
0.000309332 -0.0210816 -0.999778 
0.00025464 -0.0222986 -0.999751 
0.000195216 -0.0227566 -0.999741 
0.000136918 -0.0226906 -0.999743 
8.09102e-05 -0.0222477 -0.999753 
2.98146e-05 -0.0214882 -0.999769 
-1.34791e-05 -0.0204328 -0.999791 
-4.61884e-05 -0.0191471 -0.999817 
-6.74061e-05 -0.0176915 -0.999844 
-8.13884e-05 -0.0161393 -0.99987 
-8.9581e-05 -0.0145377 -0.999894 
-9.35734e-05 -0.0129141 -0.999917 
-9.64275e-05 -0.01127 -0.999937 
-9.75884e-05 -0.00963004 -0.999954 
-9.33297e-05 -0.00800679 -0.999968 
-8.44635e-05 -0.00643021 -0.999979 
-7.48237e-05 -0.00493106 -0.999988 
-6.56451e-05 -0.00354518 -0.999994 
-5.53261e-05 -0.00226884 -0.999998 
-4.53142e-05 -0.0011322 -0.999999 
-2.35891e-05 -0.000161095 -1 
-4.82918e-05 0.000509569 -1 
0.000120424 0.0010378 -1 
-0.000458115 0.000544163 1 
-0.000117852 0.000153454 1 
0.000163129 -0.000252778 1 
0.000240148 -0.00128292 0.999999 
0.000230837 -0.00242422 0.999997 
0.000245199 -0.00355919 0.999994 
0.000253366 -0.00472311 0.999989 
0.00049381 -0.00599066 0.999982 
0.000240187 -0.00758737 0.999971 
0.000204911 -0.00901227 0.99996 
0.000202975 -0.0105731 0.999944 
0.000100375 -0.0121718 0.999926 
-4.02879e-06 -0.0137464 0.999906 
-0.000128117 -0.0153134 0.999883 
-0.000340407 -0.0168002 0.999859 
-0.00062205 -0.0181477 0.999835 
-0.000991279 -0.0193021 0.999813 
-0.00149465 -0.0202107 0.999795 
-0.00205679 -0.0209151 0.999779 
-0.00273001 -0.0212758 0.99977 
-0.00339546 -0.02122 0.999769 
-0.00393743 -0.0206354 0.99978 
-0.00430117 -0.0192791 0.999806 
-0.00439805 -0.0168788 0.999848 
-0.00422521 -0.0127673 0.99991 
-0.00393246 -0.00589272 0.999975 
-0.00360198 0.00389446 0.999986 
-0.00310555 0.0178489 0.999836 
-0.00120158 0.0367753 0.999323 
0.00156847 0.0621667 0.998065 
0.00471647 0.0983506 0.995141 
0.00821117 0.150889 0.988517 
0.0153361 0.213783 0.976761 
0.0107658 0.306939 0.951669 
0.0147158 0.409682 0.91211 
0.0343993 0.495389 0.86799 
0.0125866 0.59212 0.805752 
-0.00585091 0.704649 0.709532 
0.00123723 0.852307 0.523042 
-0.00418117 0.985757 -0.168075 
-0.0162778 0.899643 -0.436345 
-0.033574 0.623132 -0.781396 
0.00272629 0.53223 -0.846597 
-0.0719205 0.443026 -0.893619 
-0.0141644 0.394006 -0.918998 
-0.0146182 0.296073 -0.955054 
-0.0116645 0.210303 -0.977567 
-0.00683693 0.142275 -0.989804 
-0.00463397 0.0921074 -0.995739 
-0.000173773 0.0568081 -0.998385 
0.001796 0.0321408 -0.999482 
0.00298285 0.0147781 -0.999887 
0.00350878 0.00179213 -0.999992 
0.00403711 -0.00750627 -0.999964 
0.00421256 -0.0137159 -0.999897 
0.00427026 -0.0175136 -0.999838 
0.00421095 -0.0196465 -0.999798 
0.00388536 -0.0208082 -0.999776 
0.00335249 -0.0212813 -0.999768 
0.0027123 -0.0212569 -0.999771 
0.00206557 -0.0208647 -0.99978 
0.00147729 -0.0201759 -0.999796 
0.00100314 -0.0192276 -0.999815 
0.000627224 -0.0180743 -0.999837 
0.000357053 -0.0167527 -0.99986 
0.000160824 -0.0153088 -0.999883 
1.80433e-05 -0.0137914 -0.999905 
-9.31194e-05 -0.0122357 -0.999925 
-0.000170999 -0.0106691 -0.999943 
-0.000229492 -0.00910612 -0.999959 
-0.000270619 -0.0075604 -0.999972 
-0.000283241 -0.00606394 -0.999982 
-0.000272957 -0.00465099 -0.999989 
-0.000260365 -0.00333331 -0.999995 
-0.000230706 -0.0021407 -0.999998 
-0.000156042 -0.00109283 -1 
-2.87021e-05 -0.00029666 -1 
0.000125272 0.000291015 -1 
0.000464731 0.000541761 -1 
-0.000405141 0.00011996 1 
-0.000198697 -7.55827e-05 1 
-6.81869e-05 -0.000433377 1 
3.62676e-05 -0.00105202 1 
-4.5862e-05 -0.00189803 0.999998 
7.29062e-05 -0.0020566 0.999998 
6.7061e-05 -0.00328758 0.999995 
4.71963e-05 -0.00471078 0.999989 
5.8507e-05 -0.00628948 0.99998 
-0.000159063 -0.00769558 0.999971 
-0.000204337 -0.00922017 0.999958 
-0.000283801 -0.0107632 0.999942 
-0.000463815 -0.0122892 0.999925 
-0.000647412 -0.0138378 0.999904 
-0.000886491 -0.0152861 0.999883 
-0.0012249 -0.0166042 0.999862 
-0.00165099 -0.017744 0.999841 
-0.00221186 -0.0186012 0.999825 
-0.00290899 -0.0192918 0.99981 
-0.00368841 -0.0197584 0.999798 
-0.00455513 -0.0198489 0.999793 
-0.00533461 -0.019477 0.999796 
-0.00583319 -0.0185757 0.999811 
-0.0059439 -0.0169675 0.999839 
-0.00556002 -0.0142133 0.999884 
-0.00465453 -0.00961995 0.999943 
-0.0032607 -0.00231697 0.999992 
-0.00147999 0.00888266 0.99996 
0.00120544 0.023875 0.999714 
0.00658667 0.0446652 0.998981 
0.0148857 0.0735186 0.997183 
0.0242363 0.115667 0.992993 
0.0425113 0.16617 0.985181 
0.0461265 0.251009 0.966885 
0.0641637 0.343049 0.937123 
0.0839086 0.419245 0.903988 
0.0674814 0.629925 0.773719 
0.0530741 0.740841 0.669581 
0.0286075 0.980812 0.192838 
0.0111993 0.998965 0.0440794 
-0.0306764 0.930621 -0.364688 
-0.0391662 0.7438 -0.667254 
-0.0783592 0.521152 -0.849859 
-0.140427 0.404882 -0.903522 
-0.0779152 0.353817 -0.932064 
-0.0620875 0.274912 -0.959463 
-0.046971 0.193541 -0.979967 
-0.0296394 0.129774 -0.991101 
-0.018982 0.0832732 -0.996346 
-0.00841982 0.0532668 -0.998545 
-0.00266965 0.0299154 -0.999549 
0.000657858 0.013265 -0.999912 
0.00259047 0.00103957 -0.999996 
0.00410028 -0.00764407 -0.999963 
0.00503564 -0.0133496 -0.999898 
0.00563956 -0.0165759 -0.999847 
0.00583031 -0.0183596 -0.999815 
0.0055458 -0.0193342 -0.999798 
0.00489702 -0.0197839 -0.999792 
0.00408226 -0.0198115 -0.999796 
0.00325516 -0.0195007 -0.999805 
0.00252132 -0.0189107 -0.999818 
0.0019202 -0.0180889 -0.999835 
0.00144892 -0.0170783 -0.999853 
0.00108026 -0.0158891 -0.999873 
0.000798061 -0.0145518 -0.999894 
0.000578355 -0.0131195 -0.999914 
0.000406446 -0.0116407 -0.999932 
0.000264221 -0.0101387 -0.999949 
0.000143488 -0.00863705 -0.999963 
4.60012e-05 -0.00716567 -0.999975 
-2.62644e-05 -0.00574695 -0.999984 
-7.54946e-05 -0.00439457 -0.999991 
-9.9829e-05 -0.00314515 -0.999995 
-9.86327e-05 -0.00202455 -0.999998 
-5.22398e-05 -0.00110919 -1 
6.56214e-05 -0.00037207 -1 
0.000200999 4.60121e-06 -1 
0.000389904 9.87349e-05 -1 
-0.00020907 -4.68655e-05 1 
-0.000142747 -0.000144479 1 
-8.91284e-05 -0.000506029 1 
-3.66721e-05 -0.00109912 1 
-0.000233387 -0.00188493 0.999998 
-0.000133636 -0.00299371 0.999996 
-0.000205677 -0.00434865 0.999991 
-0.000216855 -0.00599527 0.999982 
-0.000527511 -0.00740619 0.999973 
-0.000695758 -0.00897226 0.99996 
-0.000838091 -0.0104254 0.999945 
-0.00104847 -0.0118627 0.999929 
-0.00129685 -0.0132904 0.999911 
-0.00161106 -0.0146208 0.999892 
-0.00199529 -0.0157887 0.999874 
-0.00248991 -0.0167674 0.999857 
-0.00314066 -0.0175173 0.999842 
-0.00389324 -0.0180772 0.999829 
-0.0047891 -0.018429 0.999819 
-0.00572744 -0.0184736 0.999813 
-0.00656877 -0.0181044 0.999815 
-0.00701611 -0.0173384 0.999825 
-0.00689974 -0.0160091 0.999848 
-0.00612091 -0.0138033 0.999886 
-0.00462444 -0.0100024 0.999939 
-0.00233588 -0.00394115 0.99999 
0.00103032 0.00559515 0.999984 
0.00637502 0.0192036 0.999795 
0.0148943 0.0363628 0.999228 
0.0278635 0.0633434 0.997603 
0.0428854 0.100852 0.993977 
0.069906 0.149722 0.986254 
0.0837225 0.230441 0.969478 
0.102008 0.145871 0.984031 
0.121751 0.24537 0.961754 
0.128127 0.328199 0.935879 
0.0972054 0.529137 0.84295 
0.129144 0.661234 0.738979 
0.0453975 0.975724 0.214249 
0.00155562 0.964221 -0.265094 
-0.0762481 0.756054 -0.650051 
-0.121137 0.745728 -0.655157 
-0.155837 0.485176 -0.860418 
-0.204122 0.395187 -0.895635 
-0.134551 0.315121 -0.939465 
-0.112554 0.242205 -0.963674 
-0.0833157 0.185677 -0.979072 
-0.0573553 0.124886 -0.990512 
-0.0387447 0.0806395 -0.99599 
-0.0215344 0.050958 -0.998469 
-0.010578 0.0307342 -0.999472 
-0.00442446 0.0135549 -0.999899 
-0.000241136 0.00191592 -0.999998 
0.00302871 -0.0063437 -0.999975 
0.00497247 -0.0118338 -0.999918 
0.00625908 -0.0150721 -0.999867 
0.00690459 -0.01681 -0.999835 
0.00690459 -0.0177561 -0.999819 
0.00636079 -0.0182699 -0.999813 
0.00550012 -0.0184579 -0.999815 
0.00456881 -0.0183236 -0.999822 
0.00370741 -0.0179133 -0.999833 
0.00298357 -0.0172761 -0.999846 
0.00240114 -0.0164244 -0.999862 
0.00192537 -0.015416 -0.999879 
0.00155042 -0.0142068 -0.999898 
0.00125182 -0.0128713 -0.999917 
0.00101367 -0.011458 -0.999934 
0.000811741 -0.0100137 -0.99995 
0.000637723 -0.00856387 -0.999963 
0.000490874 -0.00712831 -0.999975 
0.000363194 -0.0057428 -0.999984 
0.000247998 -0.00443291 -0.99999 
0.000156515 -0.00321803 -0.999995 
9.10004e-05 -0.00214218 -0.999998 
6.66999e-05 -0.00123586 -0.999999 
7.89764e-05 -0.000550085 -1 
0.000149869 -0.000148968 -1 
0.000221273 -6.08735e-05 -1 
-4.01919e-05 1.3513e-05 1 
-5.99987e-05 -0.000102346 1 
-0.000136798 -0.000455849 1 
-0.000175483 -0.00105207 1 
-0.000342599 -0.00293213 0.999996 
-0.000447322 -0.00415387 0.999992 
-0.000461674 -0.00382333 0.999993 
-0.000491205 -0.00567863 0.999984 
-0.000740209 -0.00666501 0.999978 
-0.000920272 -0.00813435 0.999967 
-0.00114809 -0.00958338 0.999954 
-0.00138397 -0.0109295 0.99994 
-0.00165689 -0.0122974 0.999923 
-0.00200662 -0.0135652 0.999906 
-0.00242707 -0.0146739 0.99989 
-0.00293201 -0.0156077 0.999874 
-0.00357983 -0.016285 0.999861 
-0.00435107 -0.0167915 0.99985 
-0.00523854 -0.0171354 0.99984 
-0.00624943 -0.0172074 0.999833 
-0.00721422 -0.0169852 0.99983 
-0.00791377 -0.0164539 0.999833 
-0.00805571 -0.0155999 0.999846 
-0.00747901 -0.014236 0.999871 
-0.00604561 -0.0119015 0.999911 
-0.00366153 -0.00806599 0.999961 
0.000117076 -0.00193837 0.999998 
0.00566598 0.00682081 0.999961 
0.0141149 0.0178214 0.999742 
0.0273963 0.036491 0.998959 
0.0466362 0.0620417 0.996984 
0.0664997 0.0922842 0.99351 
0.0965849 0.0906713 0.991186 
0.135867 0.120975 0.983313 
0.149323 0.206361 0.967015 
0.158625 0.407232 0.899444 
0.148342 0.501127 0.852564 
0.0620102 0.871315 0.48679 
0.0257426 0.871766 0.489242 
0.0405491 0.988337 0.14677 
-0.00012877 0.980253 -0.197777 
-0.126741 0.793954 -0.594601 
-0.225227 0.512628 -0.828544 
-0.197793 0.300847 -0.932936 
-0.169833 0.235266 -0.956978 
-0.133583 0.174101 -0.975625 
-0.0945117 0.134014 -0.986462 
-0.0662571 0.0875506 -0.993954 
-0.0429302 0.0538312 -0.997627 
-0.0253019 0.033448 -0.99912 
-0.0133425 0.018508 -0.99974 
-0.00564431 0.00568653 -0.999968 
5.05521e-05 -0.00287619 -0.999996 
0.00370082 -0.0086901 -0.999956 
0.00597432 -0.0125718 -0.999903 
0.00735733 -0.0147858 -0.999864 
0.00796301 -0.0159747 -0.999841 
0.0078557 -0.0166141 -0.999831 
0.00717328 -0.017011 -0.99983 
0.00621753 -0.0171821 -0.999833 
0.00523705 -0.0170903 -0.99984 
0.0043473 -0.0167575 -0.99985 
0.00358763 -0.0162215 -0.999862 
0.002961 -0.0154545 -0.999876 
0.0024427 -0.0145865 -0.999891 
0.00202092 -0.0134726 -0.999907 
0.00167817 -0.01223 -0.999924 
0.00138918 -0.010886 -0.99994 
0.00114076 -0.00950425 -0.999954 
0.00092708 -0.0081077 -0.999967 
0.000747277 -0.00672695 -0.999977 
0.000588348 -0.00538216 -0.999986 
0.000452125 -0.00412681 -0.999992 
0.000342829 -0.00297626 -0.999996 
0.000254421 -0.00196996 -0.999998 
0.000185618 -0.00112404 -1 
0.000136634 -0.000509632 -1 
8.6365e-05 -0.000119729 -1 
3.19973e-05 4.84929e-06 -1 
7.5976e-05 6.60698e-05 1 
2.89637e-05 -7.28733e-05 1 
-7.42423e-05 -0.000466237 1 
-0.000153896 -0.00102566 1 
-0.000247152 -0.00186468 0.999998 
-0.000354836 -0.00289344 0.999996 
-0.000633122 -0.00486098 0.999988 
-0.000597636 -0.0050618 0.999987 
-0.0007911 -0.00620923 0.999981 
-0.00101543 -0.00762393 0.999971 
-0.00128349 -0.00903005 0.999959 
-0.00158262 -0.010361 0.999945 
-0.00189134 -0.0116822 0.99993 
-0.00225689 -0.0128526 0.999915 
-0.0027043 -0.0138852 0.9999 
-0.00323443 -0.0147345 0.999886 
-0.0038785 -0.0153213 0.999875 
-0.00462566 -0.0157545 0.999865 
-0.00548932 -0.0160213 0.999857 
-0.00645534 -0.016089 0.99985 
-0.00744226 -0.0158864 0.999846 
-0.00827253 -0.0155394 0.999845 
-0.00866464 -0.0148997 0.999852 
-0.00841415 -0.0139853 0.999867 
-0.00732353 -0.0125448 0.999895 
-0.00518473 -0.0101514 0.999935 
-0.00155634 -0.00629583 0.999979 
0.0041548 -0.000717295 0.999991 
0.0128775 0.00640454 0.999897 
0.0269231 0.0196195 0.999445 
0.0461521 0.0371648 0.998243 
0.0721079 0.0553319 0.995861 
0.11807 0.0569573 0.991371 
0.168716 0.0831534 0.982151 
0.198669 0.283049 0.938304 
0.234209 0.363007 0.901872 
0.181234 0.613124 0.768916 
0.213328 0.489349 0.845594 
0.0888853 0.909107 0.406961 
-0.0106474 0.967399 -0.253044 
-0.0065322 0.997489 -0.0705858 
-0.180264 0.745748 -0.641383 
-0.274333 0.424235 -0.862997 
-0.240929 0.203514 -0.948965 
-0.187052 0.164636 -0.968456 
-0.136665 0.11285 -0.984169 
-0.0962901 0.0837214 -0.991826 
-0.0644083 0.0500206 -0.996669 
-0.0441759 0.0270429 -0.998658 
-0.0280168 0.0195233 -0.999417 
-0.0144298 0.00907829 -0.999855 
-0.00496395 -0.000478785 -0.999988 
0.00134653 -0.00669114 -0.999977 
0.00504279 -0.0105232 -0.999932 
0.00713738 -0.0129717 -0.999891 
0.008262 -0.0144153 -0.999862 
0.00858525 -0.0151594 -0.999848 
0.00826496 -0.0156043 -0.999844 
0.00750048 -0.0159186 -0.999845 
0.00654804 -0.0160821 -0.999849 
0.0055972 -0.0160314 -0.999856 
0.00473258 -0.0157804 -0.999865 
0.00398548 -0.0153788 -0.999874 
0.00333924 -0.0147283 -0.999886 
0.00278704 -0.0139338 -0.999899 
0.00232631 -0.0129078 -0.999914 
0.00193966 -0.0117147 -0.99993 
0.0016087 -0.0104416 -0.999945 
0.00132062 -0.00913449 -0.999957 
0.0010668 -0.0077823 -0.999969 
0.000844432 -0.00643542 -0.999979 
0.000649229 -0.00514922 -0.999987 
0.000480437 -0.00393156 -0.999992 
0.0003424 -0.0028272 -0.999996 
0.00022997 -0.00186009 -0.999998 
0.000137702 -0.001053 -1 
6.80733e-05 -0.000456229 -1 
-1.36661e-05 -7.54645e-05 -1 
-8.38294e-05 6.59356e-05 -1 
0.000153618 0.000145772 1 
6.94518e-05 -7.34674e-06 1 
-2.99674e-05 -0.000462215 1 
-0.000121639 -0.00107395 1 
-0.000213629 -0.00179208 0.999999 
-0.000326175 -0.00256233 0.999997 
-0.000476335 -0.00357765 0.999994 
-0.000714638 -0.00478528 0.999988 
-0.000900695 -0.00617681 0.999981 
-0.00115529 -0.0075413 0.999971 
-0.00144283 -0.00884994 0.99996 
-0.00175295 -0.0101027 0.999948 
-0.0020764 -0.0113128 0.999934 
-0.0024633 -0.012458 0.99992 
-0.00291452 -0.0133897 0.999906 
-0.00345028 -0.014152 0.999894 
-0.00406276 -0.0146195 0.999885 
-0.00477807 -0.0149932 0.999876 
-0.0055537 -0.015177 0.99987 
-0.00640629 -0.0152459 0.999863 
-0.00721645 -0.0150827 0.99986 
-0.00792811 -0.0148235 0.999859 
-0.00830079 -0.014438 0.999862 
-0.008103 -0.0139057 0.999871 
-0.00711287 -0.0130995 0.999889 
-0.00499877 -0.0117525 0.999919 
-0.001395 -0.00961682 0.999953 
0.00449292 -0.00689602 0.999966 
0.0148366 -0.00230155 0.999887 
0.0294238 0.00569896 0.999551 
0.0497439 0.0169265 0.998619 
0.0788248 0.0279143 0.996498 
0.108832 0.0115536 0.993993 
0.15089 0.020834 0.988331 
0.187885 0.173367 0.96677 
0.259883 0.257572 0.930654 
0.292873 0.201702 0.934635 
0.275423 0.449343 0.849841 
0.225557 0.666842 0.710241 
0.138884 0.781209 0.608624 
-0.0512199 0.94461 -0.324158 
-0.132792 0.595888 -0.792015 
-0.262948 0.300216 -0.916913 
-0.277468 0.129189 -0.952009 
-0.202251 0.104623 -0.973729 
-0.152265 0.0641493 -0.986256 
-0.104451 0.0455254 -0.993488 
-0.0754989 0.0204251 -0.996937 
-0.048102 0.0054936 -0.998828 
-0.0284723 0.00239872 -0.999592 
-0.0152694 -0.000646919 -0.999883 
-0.00551238 -0.00653515 -0.999964 
0.0010468 -0.0100909 -0.999949 
0.00487639 -0.0121982 -0.999914 
0.00696608 -0.0134849 -0.999885 
0.00800448 -0.0142557 -0.999867 
0.00823431 -0.014706 -0.999858 
0.00790952 -0.0149457 -0.999857 
0.00725506 -0.015126 -0.999859 
0.00644831 -0.0152412 -0.999863 
0.00561693 -0.0152189 -0.999869 
0.0048421 -0.0150263 -0.999876 
0.00413359 -0.0146446 -0.999884 
0.00351659 -0.0141196 -0.999894 
0.00296714 -0.0133696 -0.999906 
0.00250194 -0.0124324 -0.99992 
0.00210362 -0.0113071 -0.999934 
0.00176028 -0.0101053 -0.999947 
0.00145285 -0.00881303 -0.999961 
0.00118145 -0.0075128 -0.999971 
0.000937114 -0.00620196 -0.999981 
0.000714457 -0.00493861 -0.999988 
0.000517419 -0.00373796 -0.999993 
0.000350346 -0.00266534 -0.999997 
0.000210327 -0.00173605 -0.999999 
9.73672e-05 -0.000973767 -1 
1.00017e-05 -0.000413647 -1 
-8.00965e-05 -2.82365e-05 -1 
-0.000169667 0.000125848 -1 
0.000195683 0.00024514 1 
0.000105679 0.000136742 1 
-1.36892e-05 -0.000308328 1 
-0.000123923 -0.000899201 1 
-0.000244183 -0.00166262 0.999999 
-0.000389488 -0.00254878 0.999997 
-0.000564562 -0.00362873 0.999993 
-0.000777694 -0.00480924 0.999988 
-0.000973851 -0.00602775 0.999982 
-0.00122039 -0.00730736 0.999973 
-0.00149341 -0.00857664 0.999962 
-0.00179975 -0.0098611 0.99995 
-0.00212779 -0.0110441 0.999937 
-0.00249273 -0.0120907 0.999924 
-0.00292202 -0.0129945 0.999912 
-0.00341607 -0.0136481 0.999901 
-0.00399768 -0.0141493 0.999892 
-0.00462646 -0.0144235 0.999886 
-0.00529666 -0.014596 0.99988 
-0.00596255 -0.0146312 0.999875 
-0.00658342 -0.014641 0.999871 
-0.00706774 -0.0145676 0.999869 
-0.00725124 -0.0144798 0.999869 
-0.00696143 -0.0144012 0.999872 
-0.00596973 -0.014299 0.99988 
-0.0040103 -0.0140447 0.999894 
-0.000470979 -0.0136878 0.999906 
0.00556564 -0.0131341 0.999898 
0.0152395 -0.012668 0.999804 
0.0278527 -0.0110879 0.999551 
0.0444902 -0.00594746 0.998992 
0.0685427 -0.00270914 0.997645 
0.100107 -0.0202522 0.994771 
0.146062 -0.0308653 0.988794 
0.220927 0.128049 0.966848 
0.204218 0.0388769 0.978153 
0.260105 0.0690684 0.963107 
0.345833 0.379406 0.858169 
0.187752 0.801663 0.567533 
-0.0288261 0.98394 -0.176182 
-0.248005 0.616268 -0.747464 
-0.331994 0.209447 -0.919736 
-0.161118 0.291002 -0.943058 
-0.234445 0.0519583 -0.97074 
-0.182048 0.0254301 -0.982961 
-0.126772 0.0111588 -0.991869 
-0.0937226 -0.00982172 -0.99555 
-0.0643868 -0.0121849 -0.997851 
-0.043889 -0.0196857 -0.998843 
-0.0300179 -0.0126031 -0.99947 
-0.0161226 -0.0112728 -0.999807 
-0.00657179 -0.0131382 -0.999892 
-9.45225e-05 -0.013986 -0.999902 
0.00372767 -0.0144112 -0.999889 
0.00582717 -0.0146015 -0.999877 
0.00690724 -0.014676 -0.999869 
0.00718791 -0.0147179 -0.999866 
0.00701276 -0.0147056 -0.999867 
0.00656839 -0.0147086 -0.99987 
0.00597566 -0.0147198 -0.999874 
0.00532062 -0.0146619 -0.999879 
0.00467669 -0.0145121 -0.999884 
0.00404904 -0.0141767 -0.999891 
0.00347313 -0.0136781 -0.999901 
0.00296041 -0.0129583 -0.999912 
0.00252514 -0.0120874 -0.999924 
0.00214424 -0.0110244 -0.999937 
0.00181263 -0.00985413 -0.99995 
0.00151615 -0.00861023 -0.999962 
0.00124521 -0.00732198 -0.999973 
0.000998602 -0.00602784 -0.999982 