# vtk DataFile Version 3.0 
Exported using Morpho https://github.com/Morpho-lang/morpho 
ASCII 
DATASET UNSTRUCTURED_GRID 

POINTS 1978 float 
-12 -4 -1.99582e-09 
-11.6397 -4 6.27567e-10 
-11.3065 -4 -5.70303e-10 
-10.993 -4 1.9362e-09 
-10.6846 -4 -3.74312e-09 
-10.3558 -4 -3.44167e-10 
-10.0259 -4 2.5065e-09 
-9.69768 -4 2.43748e-10 
-9.35453 -4 -4.95201e-10 
-9.02359 -4 5.99072e-10 
-8.7052 -4 -4.57181e-10 
-8.34458 -4 -7.55436e-10 
-8.0493 -4 4.47425e-10 
-7.75937 -4 -4.63153e-10 
-7.46372 -4 -5.20168e-11 
-7.18878 -4 3.79615e-10 
-6.87457 -4 8.58323e-10 
-6.56916 -4 1.48673e-09 
-6.25672 -4 1.52852e-09 
-5.96494 -4 1.53922e-09 
-5.6809 -4 2.87863e-09 
-5.40027 -4 3.5978e-09 
-5.11542 -4 5.25773e-09 
-4.82072 -4 8.4247e-09 
-4.50523 -4 1.18615e-08 
-4.16148 -4 1.70122e-08 
-3.80979 -4 2.48074e-08 
-3.42583 -4 3.678e-08 
-3.07161 -4 4.22658e-08 
-2.75512 -4 4.20949e-08 
-2.45552 -4 3.66917e-08 
-2.23 -4 3.84679e-08 
-2.03358 -4 5.9562e-08 
-1.5764 -4 6.52182e-08 
-1.31525 -4 3.25381e-08 
-1.14751 -4 2.77666e-08 
-0.861361 -4 9.30279e-09 
-0.670572 -4 -3.45589e-09 
-0.366563 -4 -2.82669e-08 
-0.0293155 -4 3.5873e-08 
0.25195 -4 2.49929e-09 
0.4961 -4 1.70484e-08 
0.818053 -4 -2.27771e-08 
1.169 -4 -4.01506e-08 
1.40098 -4 -4.37328e-08 
1.64532 -4 -4.86603e-08 
1.9242 -4 -4.56337e-08 
2.15652 -4 -4.62329e-08 
2.45787 -4 -5.07825e-08 
2.76147 -4 -4.85144e-08 
3.16947 -4 -4.57275e-08 
3.52811 -4 -3.31436e-08 
3.89787 -4 -2.10514e-08 
4.24719 -4 -1.41965e-08 
4.5384 -4 -9.66146e-09 
4.81421 -4 -6.55906e-09 
5.10696 -4 -5.17295e-09 
5.3895 -4 -3.81785e-09 
5.6761 -4 -2.69639e-09 
5.96981 -4 -1.81413e-09 
6.27646 -4 -1.14269e-09 
6.54794 -4 -1.00636e-09 
6.85172 -4 -6.52979e-10 
7.13604 -4 -4.33678e-10 
7.42604 -4 -2.28567e-10 
7.74143 -4 -2.37757e-10 
8.04116 -4 -2.93164e-10 
8.37521 -4 7.92743e-10 
8.67971 -4 5.71332e-11 
8.9696 -4 3.52954e-10 
9.30436 -4 -1.83201e-10 
9.61978 -4 5.61698e-10 
9.93179 -4 -2.87957e-09 
10.279 -4 -8.8107e-10 
10.5869 -4 2.56747e-09 
10.9767 -4 -2.99823e-09 
11.2994 -4 2.06919e-09 
11.6486 -4 -8.00753e-11 
12 -4 1.37002e-09 
-12 -3.69678 3.21142e-09 
-11.6544 -3.68902 -5.37675e-10 
-11.3204 -3.66506 2.47794e-10 
-10.9956 -3.64921 1.23789e-09 
-10.6784 -3.65196 9.61467e-10 
-10.3586 -3.67919 3.99651e-10 
-10.0292 -3.67625 2.27579e-10 
-9.70642 -3.66727 1.9196e-10 
-9.39018 -3.69212 1.19473e-10 
-9.06674 -3.68579 1.32053e-10 
-8.75346 -3.67507 3.68441e-11 
-8.43324 -3.71131 -6.44901e-11 
-8.10978 -3.65899 -1.94044e-10 
-7.80588 -3.65568 -4.43128e-10 
-7.50389 -3.66157 -7.67501e-10 
-7.20021 -3.63482 -7.52377e-10 
-6.90437 -3.68638 -6.42252e-10 
-6.58723 -3.68504 -9.76563e-10 
-6.2781 -3.68969 -1.62214e-09 
-5.97047 -3.67965 -1.71867e-09 
-5.68153 -3.67921 -1.77682e-09 
-5.39489 -3.67439 -1.68578e-09 
-5.09588 -3.67288 -1.37915e-09 
-4.78654 -3.66449 -1.81521e-09 
-4.44647 -3.65497 -5.26032e-10 
-4.10952 -3.62073 -4.29546e-09 
-3.75126 -3.62629 1.57355e-09 
-3.38141 -3.64146 -6.15751e-10 
-3.00817 -3.67558 1.36208e-09 
-2.68641 -3.70218 1.14517e-08 
-2.44542 -3.63641 -3.56239e-08 
-2.22448 -3.71217 -1.83069e-08 
-1.84325 -3.88536 -2.78639e-09 
-1.62361 -3.79247 -1.35395e-08 
-1.38297 -3.81664 -1.06122e-08 
-0.989312 -3.85191 -2.16217e-08 
-0.78942 -3.81516 -2.35525e-08 
-0.520591 -3.89712 4.23318e-08 
-0.251757 -3.91257 6.6115e-08 
0.081418 -3.8989 2.93231e-08 
0.332822 -3.85891 3.63128e-08 
0.679095 -3.87616 1.91378e-08 
0.958923 -3.88064 -3.61386e-09 
1.18239 -3.81192 -1.12212e-08 
1.41809 -3.8018 2.16626e-08 
1.69976 -3.82016 1.49516e-08 
1.91467 -3.74375 1.68728e-08 
2.19053 -3.75333 8.82485e-09 
2.48682 -3.68281 -6.4764e-09 
2.82231 -3.70474 -4.9426e-10 
3.15091 -3.62836 1.48946e-10 
3.49725 -3.61372 -3.74816e-09 
3.85451 -3.60427 -1.27785e-09 
4.20741 -3.63602 3.55642e-09 
4.55181 -3.63108 2.23051e-09 
4.87676 -3.68127 1.17874e-09 
5.18723 -3.68361 1.74327e-09 
5.49001 -3.68587 1.94191e-09 
5.78395 -3.68063 1.62791e-09 
6.08132 -3.68521 1.70753e-09 
6.36474 -3.63618 1.43535e-09 
6.6585 -3.67737 1.18949e-09 
6.95399 -3.65981 1.0899e-09 
7.24342 -3.66817 8.66705e-10 
7.53978 -3.69166 6.93221e-10 
7.83631 -3.66407 3.85312e-10 
8.13952 -3.68648 2.36118e-10 
8.44047 -3.66088 1.45053e-10 
8.73771 -3.64781 7.28035e-11 
9.05624 -3.69916 9.67149e-12 
9.37167 -3.67821 -7.18831e-11 
9.69401 -3.6731 -3.97187e-11 
10.0337 -3.70708 -1.05401e-10 
10.3577 -3.66029 -4.12827e-10 
10.7025 -3.72131 -7.29109e-10 
11.0278 -3.65087 -7.62757e-10 
11.3528 -3.66912 -5.53289e-10 
11.6789 -3.67087 4.18998e-10 
12 -3.66526 -3.72054e-09 
-12 -3.39138 8.11722e-10 
-11.6894 -3.35137 4.34774e-10 
-11.3627 -3.33452 1.10807e-09 
-11.0282 -3.31322 5.9496e-10 
-10.6961 -3.30879 1.33679e-09 
-10.3596 -3.34675 8.71865e-10 
-10.0208 -3.34712 4.13408e-10 
-9.68905 -3.33755 3.34847e-10 
-9.36597 -3.36618 2.70233e-10 
-9.05889 -3.35151 1.98986e-10 
-8.77112 -3.31458 3.86841e-11 
-8.47627 -3.39296 -1.68943e-10 
-8.1598 -3.33824 -3.50666e-10 
-7.84123 -3.32206 -5.94981e-10 
-7.52802 -3.32028 -7.23418e-10 
-7.23651 -3.26986 -1.28818e-09 
-6.94488 -3.34249 -1.60322e-09 
-6.64858 -3.36344 -2.09469e-09 
-6.34529 -3.36763 -2.39555e-09 
-6.04721 -3.37076 -2.66959e-09 
-5.7453 -3.35107 -2.61575e-09 
-5.45996 -3.34195 -2.59886e-09 
-5.16207 -3.34245 -3.02511e-09 
-4.85048 -3.32113 -3.03943e-09 
-4.52166 -3.32413 -2.98684e-09 
-4.17006 -3.25791 -4.4689e-09 
-3.8318 -3.27159 -1.04038e-09 
-3.49248 -3.30388 -1.655e-10 
-3.15408 -3.37031 5.03579e-09 
-2.83082 -3.38742 -2.51797e-09 
-2.58987 -3.37542 3.08553e-08 
-2.25353 -3.45142 3.75391e-09 
-2.00435 -3.71043 1.70514e-08 
-1.76838 -3.62649 -3.25972e-08 
-1.4704 -3.61156 -1.73851e-08 
-1.16071 -3.75462 -5.70766e-10 
-0.78342 -3.62253 -4.08333e-08 
-0.605094 -3.7465 -3.0292e-08 
-0.154013 -3.8071 1.73741e-08 
0.0590137 -3.75743 5.76352e-09 
0.25751 -3.73235 -6.81885e-08 
0.509452 -3.79775 -4.49769e-08 
0.810096 -3.72534 1.42409e-08 
1.02631 -3.67428 8.42592e-09 
1.26609 -3.62296 4.93139e-08 
1.54146 -3.63568 3.47856e-09 
1.95835 -3.49867 2.70136e-08 
2.23835 -3.49528 5.87123e-09 
2.55136 -3.40171 1.06176e-09 
2.84886 -3.3928 -5.32143e-09 
3.1767 -3.30521 -5.65636e-09 
3.50592 -3.27865 -3.60496e-12 
3.81598 -3.22402 -3.1382e-09 
4.13319 -3.25845 6.99642e-09 
4.47876 -3.28799 5.02859e-09 
4.81572 -3.34037 3.29629e-09 
5.1234 -3.36402 2.91925e-09 
5.43063 -3.37358 3.14996e-09 
5.73419 -3.35228 2.75372e-09 
6.02786 -3.35346 2.52498e-09 
6.31965 -3.30195 2.13305e-09 
6.62874 -3.33984 1.86715e-09 
6.93228 -3.33312 1.4914e-09 
7.24353 -3.33591 1.07589e-09 
7.5448 -3.36236 8.69424e-10 
7.84361 -3.31962 6.62955e-10 
8.13234 -3.34578 3.90568e-10 
8.42184 -3.30589 2.25237e-10 
8.71481 -3.30992 3.30866e-11 
9.03502 -3.37562 -4.73534e-11 
9.369 -3.3618 -1.29466e-10 
9.67885 -3.33126 -1.15944e-10 
9.99584 -3.39246 -2.79211e-10 
10.3296 -3.34601 -7.78459e-10 
10.6821 -3.39951 -1.11079e-09 
11.0176 -3.31796 -9.70174e-10 
11.3516 -3.32674 -7.6908e-10 
11.6771 -3.33261 -2.86119e-10 
12 -3.33672 -3.04561e-10 
-12 -3.03943 -7.8214e-10 
-11.6621 -3.01715 4.03685e-10 
-11.3115 -2.99759 -2.8399e-10 
-10.98 -2.96951 1.45219e-10 
-10.6275 -2.98525 6.05717e-10 
-10.2903 -3.0199 4.12264e-10 
-9.95573 -3.01031 2.11451e-11 
-9.62364 -3.00536 8.70473e-11 
-9.32299 -3.01053 2.42294e-11 
-9.03054 -2.98105 -3.45974e-11 
-8.72315 -2.96591 -2.71099e-11 
-8.43072 -3.05005 -1.72797e-11 
-8.12027 -2.99889 3.24936e-11 
-7.81569 -2.98339 2.39625e-12 
-7.50898 -2.96935 -5.52174e-11 
-7.20076 -2.92097 2.37256e-10 
-6.90383 -3.00427 -3.51815e-10 
-6.59745 -3.03299 -3.91578e-10 
-6.30028 -3.03754 -4.49309e-10 
-6.00557 -3.0446 -2.78449e-11 
-5.72601 -2.99894 9.28775e-10 
-5.42674 -2.99717 1.24664e-09 
-5.12155 -2.99175 2.8596e-09 
-4.79233 -2.97116 4.23341e-09 
-4.46765 -2.97406 3.81867e-09 
-4.12862 -2.91864 5.31213e-09 
-3.83089 -2.94924 7.70369e-09 
-3.54276 -3.00086 5.67844e-09 
-3.24547 -3.07234 -4.69301e-09 
-2.96083 -3.1154 -1.29442e-08 
-2.71104 -3.07732 -6.0571e-09 
-2.39967 -3.23937 -3.48688e-08 
-2.00608 -3.45998 -3.24595e-08 
-1.73675 -3.44798 -2.50545e-08 
-1.49885 -3.41657 1.00114e-08 
-1.23898 -3.58721 -6.4084e-09 
-0.971933 -3.62735 -2.95385e-08 
-0.508843 -3.60517 1.00194e-08 
-0.383888 -3.75702 -4.32826e-08 
-0.0399682 -3.65954 -1.27076e-07 
0.427212 -3.62325 1.14417e-07 
0.626708 -3.6304 3.88042e-09 
0.956671 -3.51229 4.57434e-08 
1.16494 -3.47121 -4.59006e-08 
1.42009 -3.47204 5.41527e-08 
1.72322 -3.54775 -1.52361e-08 
2.05606 -3.29869 1.24343e-08 
2.34514 -3.2578 1.47998e-10 
2.67614 -3.15086 -7.10512e-09 
2.95758 -3.12481 -3.94758e-09 
3.28256 -3.02852 -4.79996e-09 
3.54951 -2.9721 -3.80857e-09 
3.83464 -2.90143 -2.7463e-09 
4.12782 -2.89314 -9.48807e-09 
4.43542 -2.93931 -3.18432e-09 
4.77724 -2.98515 -2.47595e-09 
5.10007 -3.01395 -1.93324e-09 
5.40572 -3.04758 -5.21707e-10 
5.70901 -3.01698 -2.0238e-10 
6.01153 -3.0108 -1.03264e-10 
6.30782 -2.9597 -2.63375e-10 
6.61142 -3.00683 3.18043e-10 
6.92208 -2.9993 2.34126e-10 
7.23079 -3.00977 1.79592e-10 
7.54187 -3.0264 1.32343e-10 
7.84772 -2.98066 -9.05493e-11 
8.15119 -2.97893 -1.68366e-12 
8.44144 -2.94191 -1.49853e-11 
8.75379 -2.98043 2.35287e-12 
9.07092 -3.05638 1.42262e-11 
9.37983 -3.01282 -4.95317e-12 
9.68992 -2.97936 -5.52919e-11 
10.0072 -3.05797 -7.69843e-11 
10.3202 -2.99617 -3.09685e-10 
10.6457 -3.07948 -8.42767e-10 
10.9811 -2.98673 -4.26494e-12 
11.3243 -2.99103 3.7137e-10 
11.6642 -2.99889 -4.37214e-10 
12 -3.0067 1.89411e-10 
-12 -2.70385 6.07597e-10 
-11.6389 -2.70049 4.86494e-10 
-11.3187 -2.64271 -1.21154e-09 
-10.9776 -2.63106 -4.24184e-10 
-10.6374 -2.65663 4.6066e-11 
-10.2895 -2.68187 5.9221e-11 
-9.97756 -2.65528 1.05894e-10 
-9.65493 -2.66723 1.72668e-11 
-9.33467 -2.64148 -1.89395e-11 
-9.02868 -2.63155 9.34031e-12 
-8.70861 -2.63178 5.9387e-11 
-8.39398 -2.69779 8.37285e-11 
-8.09667 -2.6437 1.66013e-10 
-7.78447 -2.64538 3.42577e-10 
-7.48128 -2.6259 5.35815e-10 
-7.14218 -2.60279 9.38356e-10 
-6.83477 -2.67891 8.22162e-10 
-6.54177 -2.69179 1.19826e-09 
-6.24891 -2.69913 1.55886e-09 
-5.97077 -2.67957 2.44082e-09 
[...]
POINT_DATA 1978 
VECTORS vectors float
0.00229781 -0.00282805 0.999993 
0.00233277 -0.0320846 0.999483 
0.00174784 -0.0316217 0.999499 
0.00212637 -0.0165043 0.999862 
0.0021444 -0.00801001 0.999966 
0.00206254 -0.0060022 0.99998 
0.00217623 -0.0101495 0.999946 
0.00213547 -0.0142717 0.999896 
0.0020821 -0.0143932 0.999894 
0.00210163 -0.00874083 0.99996 
0.00198313 -0.0014371 0.999997 
0.001992 0.00613811 0.999979 
0.00212937 0.0117669 0.999929 
0.00213546 0.0164483 0.999863 
0.00211153 0.0204661 0.999788 
0.00213691 0.0232497 0.999727 
0.00204747 0.0258714 0.999663 
0.001961 0.0273955 0.999623 
0.00203162 0.0294981 0.999563 
0.00208277 0.0338301 0.999426 
0.00206372 0.0400157 0.999197 
0.00197776 0.0479023 0.99885 
0.0018909 0.0571516 0.998364 
0.00183313 0.0669916 0.997752 
0.00173513 0.0783285 0.996926 
0.0016393 0.0911103 0.99584 
0.00159736 0.103427 0.994636 
0.00150674 0.115464 0.99331 
0.00117918 0.124131 0.992265 
0.00125162 0.132565 0.991174 
0.00157256 0.137017 0.990567 
0.00135672 0.149771 0.98872 
0.000918379 0.162834 0.986653 
0.000600296 0.243345 0.96994 
0.000342199 0.350364 0.936614 
0.000215983 0.421078 0.907024 
2.85578e-05 0.59691 0.802308 
-8.08789e-05 0.71279 0.701377 
-0.000212297 0.884043 0.467405 
-0.000153826 0.999333 0.0365183 
0.000294606 0.948321 -0.317312 
0.000454393 0.820578 -0.571534 
6.0435e-05 0.610737 -0.791833 
-0.000248087 0.421913 -0.906636 
-0.000545764 0.330002 -0.94398 
-0.000845813 0.25392 -0.967225 
-0.00109312 0.198334 -0.980134 
-0.00117418 0.170371 -0.985379 
-0.00112776 0.148248 -0.98895 
-0.00118141 0.134575 -0.990903 
-0.00136055 0.119883 -0.992787 
-0.00151122 0.110334 -0.993893 
-0.00151385 0.0977294 -0.995212 
-0.00167042 0.0843984 -0.996431 
-0.00183837 0.0738525 -0.997268 
-0.00189907 0.0633076 -0.997992 
-0.00193531 0.0547347 -0.998499 
-0.00199584 0.0473772 -0.998875 
-0.00197342 0.0404424 -0.99918 
-0.00197051 0.0341965 -0.999413 
-0.00204681 0.0288929 -0.999581 
-0.0021219 0.0253782 -0.999676 
-0.00214087 0.023167 -0.999729 
-0.00212128 0.0212653 -0.999772 
-0.00211135 0.0196004 -0.999806 
-0.00205708 0.0169807 -0.999854 
-0.00197637 0.0132272 -0.999911 
-0.00202765 0.00780542 -0.999968 
-0.00213023 0.00196211 -0.999996 
-0.00204756 -0.00368467 -0.999991 
-0.0020193 -0.00878476 -0.999959 
-0.00211069 -0.0105008 -0.999943 
-0.00216194 -0.00802542 -0.999966 
-0.0021497 -0.00413693 -0.999989 
-0.00216071 -0.00649543 -0.999977 
-0.00210935 -0.0161672 -0.999867 
-0.0018148 -0.0314911 -0.999503 
-0.002414 -0.0302548 -0.999539 
-0.00232236 -0.00233502 -0.999995 
-0.00110929 -0.00314493 0.999994 
0.00781299 -0.0261059 0.999629 
0.014635 -0.0284289 0.999489 
0.0184069 -0.0192045 0.999646 
0.0188886 -0.00973691 0.999774 
0.0168769 -0.00658707 0.999836 
0.0165881 -0.00843215 0.999827 
0.016155 -0.0106126 0.999813 
0.0140394 -0.0109964 0.999841 
0.0124112 -0.00743031 0.999895 
0.0111966 -0.00235012 0.999935 
0.0103284 0.00349864 0.999941 
0.0114258 0.00914211 0.999893 
0.0118874 0.0137935 0.999834 
0.0121941 0.0178824 0.999766 
0.0118194 0.0208998 0.999712 
0.0102284 0.0238915 0.999662 
0.00937841 0.0270737 0.999589 
0.00763103 0.0313513 0.999479 
0.00360441 0.0373401 0.999296 
-0.00158088 0.0445761 0.999005 
-0.00789447 0.0537693 0.998522 
-0.0152683 0.0642481 0.997817 
-0.0245416 0.0764162 0.996774 
-0.0375741 0.0909853 0.995143 
-0.0567106 0.10688 0.992653 
-0.0783555 0.121387 0.989508 
-0.0964114 0.132849 0.986436 
-0.106377 0.140887 0.984294 
-0.113113 0.146051 0.982789 
-0.136765 0.15517 0.978375 
-0.110494 0.158851 0.9811 
-0.044182 0.193275 0.980149 
-0.0755964 0.236925 0.968582 
-0.0609228 0.312201 0.948061 
-0.0311446 0.512654 0.85803 
-0.0288614 0.63236 0.774137 
-0.0117413 0.785962 0.618163 
-0.00586058 0.936447 0.350761 
0.00350174 0.993677 -0.11222 
0.0139198 0.909167 -0.416199 
0.0226861 0.696202 -0.717488 
0.03287 0.528159 -0.848509 
0.0620758 0.422372 -0.904295 
0.0660081 0.328478 -0.942202 
0.0636291 0.244019 -0.967681 
0.0943052 0.205287 -0.974148 
0.0921691 0.172464 -0.980694 
0.124411 0.157121 -0.979712 
0.104728 0.143029 -0.984162 
0.117447 0.139144 -0.983283 
0.101228 0.128411 -0.986541 
0.0797891 0.116418 -0.98999 
0.0505625 0.0987582 -0.993826 
0.0356118 0.0843012 -0.995804 
0.0205782 0.0698732 -0.997344 
0.0116456 0.0593219 -0.998171 
0.00441095 0.0498713 -0.998746 
-0.000911163 0.0416693 -0.999131 
-0.00557372 0.0345298 -0.999388 
-0.0084821 0.0292216 -0.999537 
-0.010705 0.0246051 -0.99964 
-0.0126885 0.0215462 -0.999687 
-0.0132591 0.0191904 -0.999728 
-0.0130551 0.0170194 -0.99977 
-0.0125204 0.0137227 -0.999827 
-0.011833 0.0100807 -0.999879 
-0.0119513 0.00527415 -0.999915 
-0.0126274 0.000618072 -0.99992 
-0.0118876 -0.00378188 -0.999922 
-0.0135574 -0.0062239 -0.999889 
-0.0152242 -0.00675065 -0.999861 
-0.0154629 -0.00562422 -0.999865 
-0.0176106 -0.00477114 -0.999834 
-0.01618 -0.0094363 -0.999825 
-0.0182009 -0.0202644 -0.999629 
-0.0150552 -0.0288759 -0.99947 
-0.00798591 -0.0246741 -0.999664 
0.0010517 -0.00214001 -0.999997 
0.00133969 -0.00138272 0.999998 
0.0118821 -0.0223383 0.99968 
0.0200672 -0.0287476 0.999385 
0.0236188 -0.0228189 0.999461 
0.0244394 -0.0106801 0.999644 
0.0229676 -0.00461208 0.999726 
0.0214755 -0.00474509 0.999758 
0.0190169 -0.00582549 0.999802 
0.0163139 -0.0065836 0.999845 
0.0141303 -0.00518795 0.999887 
0.0121359 -0.00260723 0.999923 
0.0128461 0.00140825 0.999917 
0.0121906 0.0065187 0.999904 
0.012012 0.0112418 0.999865 
0.011918 0.015352 0.999811 
0.0113894 0.0188371 0.999758 
0.0117216 0.0228564 0.99967 
0.00983857 0.0274982 0.999573 
0.00541997 0.033765 0.999415 
-0.00146571 0.0418601 0.999122 
-0.0120519 0.0529363 0.998525 
-0.0237911 0.0650434 0.997599 
-0.0372662 0.0782161 0.99624 
-0.0563656 0.0951324 0.993868 
-0.0783989 0.112921 0.990506 
-0.119144 0.139841 0.98298 
-0.156122 0.15795 0.975027 
-0.190874 0.170698 0.966659 
-0.210844 0.174606 0.961799 
-0.236513 0.178513 0.955089 
-0.27704 0.18727 0.942433 
-0.246193 0.183508 0.95169 
-0.121947 0.176741 0.976674 
-0.15469 0.211719 0.965011 
-0.154257 0.276365 0.948592 
-0.0724713 0.409151 0.909584 
-0.0610508 0.619199 0.782857 
-0.028837 0.781043 0.623812 
-0.00884545 0.97726 0.21186 
0.0043992 0.996313 -0.0856812 
0.0210531 0.938006 -0.34598 
0.0324864 0.809364 -0.586409 
0.064795 0.612296 -0.787969 
0.102231 0.494618 -0.863077 
0.135271 0.386792 -0.912192 
0.139564 0.285555 -0.948146 
0.210961 0.211921 -0.954246 
0.213427 0.186199 -0.959051 
0.248524 0.180758 -0.951611 
0.23332 0.174776 -0.956564 
0.235902 0.17709 -0.955505 
0.205885 0.17093 -0.963532 
0.181981 0.166337 -0.969131 
0.126436 0.139834 -0.982069 
0.0856899 0.115305 -0.989627 
0.0548025 0.0927677 -0.994178 
0.0359689 0.0771755 -0.996369 
0.0213775 0.0638354 -0.997731 
0.011177 0.0524205 -0.998563 
0.00230343 0.0423325 -0.999101 
-0.00251 0.0347483 -0.999393 
-0.00890444 0.026735 -0.999603 
-0.0118171 0.0215222 -0.999699 
-0.0131775 0.0177196 -0.999756 
-0.0140496 0.0148203 -0.999791 
-0.0130026 0.0112859 -0.999852 
-0.012769 0.00789171 -0.999887 
-0.0116755 0.00375457 -0.999925 
-0.0117513 0.000471891 -0.999931 
-0.0137128 -0.00205766 -0.999904 
-0.0159387 -0.00311852 -0.999868 
-0.0184713 -0.00249589 -0.999826 
-0.0215848 -0.00252535 -0.999764 
-0.0237781 -0.00282179 -0.999713 
-0.0248259 -0.00987781 -0.999643 
-0.0245316 -0.0217206 -0.999463 
-0.020533 -0.0284306 -0.999385 
-0.0122572 -0.0224915 -0.999672 
-0.00148175 -0.000931257 -0.999998 
0.000967862 0.00106242 0.999999 
0.0115667 -0.02345 0.999658 
0.0159789 -0.0298445 0.999427 
0.0165645 -0.0209727 0.999643 
0.0160028 -0.00676184 0.999849 
0.0150296 -0.00067563 0.999887 
0.0110993 -0.000268382 0.999938 
0.00678018 -0.000826376 0.999977 
0.00383494 -0.00235663 0.99999 
0.000270205 -0.00307427 0.999995 
-0.00133267 -0.00240476 0.999996 
0.00195306 0.000768867 0.999998 
0.000233968 0.00505628 0.999987 
0.000457694 0.00967111 0.999953 
0.000334722 0.0141729 0.9999 
-0.00239896 0.0190684 0.999815 
-0.000852135 0.0245262 0.999699 
-0.00414963 0.0318184 0.999485 
-0.0110434 0.0415195 0.999077 
-0.0212476 0.0538728 0.998322 
-0.0371359 0.0702604 0.996837 
-0.0541379 0.087898 0.994657 
-0.0763507 0.108687 0.99114 
-0.107339 0.135357 0.984965 
-0.141935 0.161199 0.976662 
-0.203895 0.202505 0.95782 
-0.252239 0.223292 0.94155 
-0.291626 0.231289 0.928149 
-0.319727 0.23013 0.919138 
-0.348754 0.229458 0.908691 
-0.415177 0.24352 0.876542 
-0.35325 0.206585 0.912435 
-0.247833 0.193533 0.949275 
-0.261135 0.221499 0.939546 
-0.267826 0.256611 0.928666 
-0.144811 0.3566 0.922966 
-0.0895837 0.500108 0.861317 
-0.0409595 0.7986 0.600466 
-0.0183584 0.891385 0.452875 
-0.000908842 0.999657 0.0261828 
0.0451392 0.865795 -0.49836 
0.071577 0.720748 -0.689492 
0.152349 0.518054 -0.841671 
0.206371 0.41232 -0.887357 
0.212247 0.32363 -0.922071 
0.195878 0.247585 -0.948859 
0.332874 0.219481 -0.917073 
0.343336 0.209192 -0.915619 
0.369176 0.218142 -0.903395 
0.344722 0.216748 -0.913338 
0.340068 0.229399 -0.911992 
0.309478 0.232319 -0.922091 
0.27951 0.234489 -0.931069 
0.220584 0.209577 -0.952586 
0.154983 0.168693 -0.973408 
0.104635 0.131563 -0.98577 
0.07301 0.105212 -0.991766 
0.0490539 0.0836018 -0.995291 
0.0349899 0.0689693 -0.997005 
0.0220699 0.0537272 -0.998312 
0.0148566 0.0427271 -0.998976 
0.00503553 0.0309506 -0.999508 
0.000764245 0.0229031 -0.999737 
-0.00180317 0.0172547 -0.99985 
-0.00288734 0.0131924 -0.999909 
-0.000366815 0.00932657 -0.999956 
0.000254036 0.00530313 -0.999986 
0.00230924 0.00141486 -0.999996 
0.00121959 -0.00105958 -0.999999 
-0.00345764 -0.00136405 -0.999993 
-0.00393673 0.00028816 -0.999992 
-0.00598484 0.00238769 -0.999979 
-0.0133326 0.00155448 -0.99991 
-0.0143929 0.000416894 -0.999896 
-0.0199398 -0.00733731 -0.999774 
-0.0181454 -0.0208396 -0.999618 
-0.0163174 -0.0288673 -0.99945 
-0.0117091 -0.0227542 -0.999673 
-0.000913977 -0.000323466 -1 
0.000600009 0.00377441 0.999993 
0.00712282 -0.0228582 0.999713 
0.00640919 -0.030507 0.999514 
0.0052851 -0.0187727 0.99981 
0.00394244 -0.00372339 0.999985 
0.00159627 0.0036778 0.999992 
-0.00354483 0.00544766 0.999979 
-0.00707146 0.00400941 0.999967 
-0.0110421 0.000831717 0.999939 
-0.0132276 -0.00244478 0.99991 
-0.0136198 -0.00333821 0.999902 
-0.0109889 -0.000311061 0.99994 
-0.0114737 0.00391192 0.999927 
-0.0105306 0.00908399 0.999903 
-0.0104424 0.0140967 0.999846 
-0.0125266 0.0213103 0.999694 
-0.0136059 0.0289792 0.999487 
-0.0194845 0.0397827 0.999018 
-0.0287125 0.0537727 0.99814 
-0.0421995 0.0719 0.996519 
-0.0625344 0.0967829 0.993339 
-0.0891446 0.126929 0.987898 
-0.124302 0.161434 0.979024 
-0.174519 0.207898 0.962456 
-0.22356 0.24107 0.944408 
-0.305223 0.292386 0.906283 
-0.363336 0.311177 0.878155 
-0.388011 0.300591 0.871259 
-0.434808 0.296049 0.850469 
-0.478229 0.294723 0.827306 
-0.544008 0.310502 0.779515 
-0.460919 0.247948 0.852101 
-0.391513 0.211711 0.895486 
-0.396544 0.217683 0.891833 
-0.406708 0.230748 0.883937 
-0.236529 0.330904 0.913541 
-0.176691 0.440309 0.880289 
-0.0711693 0.684667 0.725373 
-0.0180328 0.952544 0.303867 
-0.00662922 0.992217 0.124348 
0.0549742 0.873777 -0.483209 
0.128115 0.618476 -0.77529 
0.268368 0.438446 -0.857755 
0.303546 0.35495 -0.884234 
0.307172 0.285178 -0.90792 
0.33942 0.254985 -0.905415 
0.454482 0.237527 -0.858503 
0.450103 0.239709 -0.860202 
0.467265 0.262859 -0.844138 
0.436726 0.265623 -0.859485 
0.449213 0.295688 -0.843076 
0.396149 0.297518 -0.868648 
0.369212 0.314571 -0.874487 
0.301953 0.292061 -0.907483 
0.219134 0.240804 -0.945512 
0.153881 0.186667 -0.970297 
0.108372 0.144503 -0.983552 
0.0753141 0.109919 -0.991083 
0.0548308 0.0875921 -0.994646 
0.0393134 0.0680556 -0.996907 
0.0273992 0.0505433 -0.998346 
0.0174632 0.0352271 -0.999227 
0.0123987 0.0247835 -0.999616 
0.0100148 0.0175558 -0.999796 
0.0087641 0.0122241 -0.999887 
0.0108475 0.00760908 -0.999912 
0.0126575 0.003148 -0.999915 
0.0144036 -0.000939461 -0.999896 
0.0139577 -0.00242033 -0.9999 
0.0114306 -0.000999846 -0.999934 
0.0116816 0.00238884 -0.999929 
0.00969121 0.00611168 -0.999934 
0.0023883 0.00625164 -0.999978 
-0.00127034 0.00453213 -0.999989 
-0.00748031 -0.00467211 -0.999961 
-0.00741277 -0.020528 -0.999762 
-0.0079055 -0.0287229 -0.999556 
-0.00741717 -0.0227277 -0.999714 
-0.00097182 -0.000707175 -0.999999 
-0.000692466 0.00291338 0.999996 
0.00151064 -0.0160754 0.99987 
0.00121322 -0.0260065 0.999661 
-0.000220066 -0.0226429 0.999744 
-0.00283036 -0.00565141 0.99998 
-0.00589467 0.00690759 0.999959 
-0.010879 0.0114936 0.999875 
-0.0142729 0.00954987 0.999853 
-0.0171869 0.00492621 0.99984 
-0.0185054 -0.00129173 0.999828 
-0.018157 -0.00489023 0.999823 
-0.0164475 -0.00343394 0.999859 
-0.0148819 0.000646235 0.999889 
-0.0133374 0.00644375 0.99989 
-0.0122766 0.0122522 0.99985 
-0.0129007 0.0193908 0.999729 
-0.0163162 0.0309588 0.999387 
-0.0222289 0.0435546 0.998804 
-0.0322354 0.0609351 0.997621 
-0.0462177 0.0843772 0.995361 
-0.0650962 0.111041 0.991682 
-0.0942893 0.15174 0.983913 
-0.133426 0.198907 0.970893 
-0.181977 0.249619 0.951091 
-0.246481 0.310593 0.91803 
-0.30785 0.33957 0.888775 
-0.395499 0.397948 0.827779 
-0.455484 0.407668 0.791417 
-0.501806 0.411333 0.760918 
-0.484774 0.355708 0.799041 
-0.557261 0.361365 0.747579 
-0.599754 0.319513 0.733626 
-0.572115 0.282231 0.770084 
-0.496344 0.240091 0.834266 
-0.555988 0.2384 0.796268 
-0.44711 0.241644 0.86122 
-0.345075 0.319947 0.882359 
-0.132347 0.555826 0.820696 
-0.0344429 0.8924 0.449928 
0.0198167 0.973175 -0.22921 
0.116887 0.729526 -0.673891 
0.224262 0.530162 -0.817701 
0.397277 0.360097 -0.844098 
0.400652 0.31517 -0.860317 
0.44491 0.249017 -0.860259 
0.511044 0.249205 -0.822637 
0.552617 0.266081 -0.789819 
0.521776 0.274062 -0.807862 
0.54017 0.311576 -0.781753 
0.558473 0.352861 -0.750731 
0.505178 0.357339 -0.78556 
0.471224 0.377742 -0.797031 
0.421289 0.401908 -0.81301 
0.331853 0.3604 -0.871771 
0.270038 0.331623 -0.903939 
0.198372 0.266672 -0.943152 
0.141447 0.204557 -0.968581 
0.0975388 0.151293 -0.983665 
0.0696708 0.116904 -0.990696 
0.049129 0.0887993 -0.994837 
0.0340042 0.0646616 -0.997328 
0.0226011 0.0441407 -0.99877 
0.0163365 0.0301794 -0.999411 
0.0132131 0.0199582 -0.999714 
0.0123769 0.0126796 -0.999843 
0.0130506 0.00687219 -0.999891 
0.0146437 0.00148242 -0.999892 
0.0165296 -0.00330756 -0.999858 
0.0182843 -0.00476223 -0.999822 
0.0187425 -0.00167708 -0.999823 
0.0188225 0.00384633 -0.999815 
0.0166987 0.0100192 -0.99981 
0.0114128 0.01136 -0.99987 
0.00668868 0.00930222 -0.999934 
0.0010246 -0.00126578 -0.999999 
-0.00070233 -0.0168487 -0.999858 
-0.00265612 -0.0268312 -0.999636 
-0.00257953 -0.0214857 -0.999766 
-0.000122516 -0.000445033 -1 
-0.00069444 -0.0011604 0.999999 
-0.00170244 -0.0193019 0.999812 
-0.00158628 -0.0238519 0.999714 
-0.00387364 -0.0103385 0.999939 
-0.00755784 0.0076637 0.999942 
-0.0114316 0.0165373 0.999798 
-0.0150362 0.0163601 0.999753 
-0.0169977 0.010569 0.9998 
-0.017288 0.00181499 0.999849 
-0.0161273 -0.00521294 0.999856 
-0.0154695 -0.00712612 0.999855 
-0.0129112 -0.00455849 0.999906 
-0.0104835 0.00137493 0.999944 
-0.00864988 0.00787509 0.999932 
-0.00787058 0.015814 0.999844 
-0.0104184 0.0258375 0.999612 
-0.013279 0.0399326 0.999114 
-0.0214195 0.0569239 0.998149 
-0.0327104 0.0798716 0.996268 
-0.0493109 0.111915 0.992494 
-0.0740881 0.148738 0.986097 
-0.1075 0.204954 0.97285 
-0.153563 0.270679 0.950343 
-0.214892 0.335015 0.91738 
-0.285446 0.408784 0.866842 
-0.340679 0.423287 0.839504 
-0.42113 0.489737 0.763418 
-0.475727 0.492868 0.728536 
-0.541182 0.532862 0.650523 
-0.567289 0.49206 0.660349 
-0.567917 0.423058 0.70604 
-0.627304 0.379244 0.680193 
-0.677822 0.338196 0.652825 
-0.624304 0.278475 0.729861 
-0.670243 0.253147 0.697632 
-0.555649 0.2456 0.794314 
-0.373514 0.266397 0.88855 
-0.251904 0.459903 0.851489 
-0.0543459 0.800812 0.596445 
0.0197303 0.984114 -0.176437 
0.195777 0.651632 -0.732835 
0.380665 0.414317 -0.826702 
0.520697 0.372379 -0.768251 
0.499316 0.287312 -0.817396 
0.605743 0.263765 -0.750669 
0.621032 0.299563 -0.72428 
0.590741 0.317205 -0.741894 
0.626728 0.362422 -0.689827 
0.642363 0.414128 -0.644878 
0.588561 0.43195 -0.683386 
0.522924 0.451609 -0.722911 
0.528281 0.524528 -0.667675 
0.421376 0.464761 -0.778742 
0.349564 0.457502 -0.817617 
0.267564 0.395194 -0.878767 
0.19697 0.323608 -0.925462 
0.139242 0.244376 -0.959631 
0.0978646 0.185269 -0.977803 
0.0673514 0.138765 -0.988032 
0.0452181 0.103103 -0.993642 
0.0295915 0.0728205 -0.996906 
0.0187003 0.0510907 -0.998519 
0.0121612 0.0337941 -0.999355 
0.00892358 0.0218666 -0.999721 
0.00857697 0.0129379 -0.99988 
0.00853257 0.00584645 -0.999947 
0.0098462 -0.000659053 -0.999951 
0.0124426 -0.0060131 -0.999905 
0.0152282 -0.0072534 -0.999858 
0.0177089 -0.00291346 -0.999839 
0.0173966 0.00447219 -0.999839 
0.0163236 0.0135524 -0.999775 
0.0136669 0.0167299 -0.999767 
0.00954658 0.0156238 -0.999832 
0.00489961 0.00413307 -0.999979 
0.00166944 -0.0124977 -0.999921 
-0.00049008 -0.0243116 -0.999704 
0.000621882 -0.0198889 -0.999802 
0.000424446 0.000107302 -1 
-0.00039098 -0.00245839 0.999997 
-0.00159517 -0.0185106 0.999827 
-0.00209991 -0.0212464 0.999772 
-0.00421933 -0.00754386 0.999963 
-0.00716827 0.0109418 0.999914 
-0.00939328 0.0212827 0.999729 
-0.0114658 0.0210975 0.999712 
-0.0118338 0.0132974 0.999842 
-0.0111203 0.00230019 0.999936 
-0.00877852 -0.00687677 0.999938 
-0.00816591 -0.00986145 0.999918 
-0.00501928 -0.00748231 0.999959 
-0.00256526 -0.0011629 0.999996 
-0.000285662 0.00626157 0.99998 
0.000221966 0.0149141 0.999889 
-0.00210493 0.0265765 0.999645 
-0.00378423 0.0425068 0.999089 
-0.0115592 0.0636184 0.997907 
-0.0223801 0.090806 0.995617 
-0.0389249 0.126835 0.99116 
-0.0659348 0.175355 0.982295 
-0.100634 0.243445 0.96468 
-0.156715 0.329434 0.931082 
-0.224338 0.411769 0.883243 
-0.285176 0.498518 0.81863 
-0.345925 0.5181 0.782246 
-0.393198 0.526904 0.753503 
-0.46301 0.607412 0.645502 
-0.512336 0.591101 0.622987 
-0.612182 0.583502 0.533628 
-0.615289 0.494137 0.614206 
-0.626343 0.41286 0.661242 
-0.685241 0.388635 0.61596 
-0.709556 0.321868 0.626842 
-0.647788 0.26301 0.71498 
-0.647932 0.2598 0.716023 
-0.511194 0.253783 0.821142 
-0.474019 0.248075 0.844846 
-0.0776999 0.646555 0.7589 
-0.0108884 0.980924 0.194089 
0.0531229 0.860683 -0.506362 
0.33652 0.444702 -0.830057 
0.522267 0.348273 -0.778424 
0.615764 0.266392 -0.741532 
0.699489 0.281222 -0.656985 
0.653744 0.32803 -0.681921 
0.675919 0.368929 -0.637985 
0.708335 0.423654 -0.564605 
0.618627 0.501676 -0.604666 
0.602465 0.544958 -0.583144 
0.521258 0.60648 -0.600393 
0.480139 0.636974 -0.6031 
0.438059 0.541214 -0.717769 
0.358828 0.545813 -0.757186 
0.290118 0.50244 -0.814485 
0.207513 0.401688 -0.891956 
0.143761 0.311958 -0.939156 
0.0983618 0.235261 -0.966942 
0.0657743 0.174463 -0.982465 
0.0417101 0.129035 -0.990762 
0.0248197 0.0919668 -0.995453 
0.0125138 0.0642163 -0.997858 
0.00479279 0.0416302 -0.999122 
0.000244722 0.0259059 -0.999664 
-2.79785e-05 0.0147509 -0.999891 
-0.000199212 0.00610748 -0.999981 
0.00114102 -0.00147371 -0.999998 
0.0036395 -0.00785062 -0.999963 
0.00635926 -0.0101013 -0.999929 
0.01025 -0.00581125 -0.999931 
0.010924 0.00321952 -0.999935 
0.0109583 0.0140134 -0.999842 
0.0109014 0.0207233 -0.999726 
0.00802725 0.0210819 -0.999746 
0.0053329 0.010022 -0.999936 
0.00198509 -0.00756746 -0.999969 
-4.77607e-05 -0.0212279 -0.999775 
0.00126443 -0.0189382 -0.99982 
0.000339627 0.000239335 -1 
0.000372311 -0.00231067 0.999997 
-5.6729e-05 -0.0175277 0.999846 
-0.00112062 -0.0181168 0.999835 
-0.00270698 -0.0031468 0.999991 
-0.00453076 0.0154886 0.99987 
-0.00496989 0.0253044 0.999667 
-0.00508827 0.0233021 0.999716 
-0.00394515 0.0138424 0.999896 
-0.00221172 0.00116526 0.999997 
0.000174307 -0.00908784 0.999959 
0.00157663 -0.012168 0.999925 
0.0046559 -0.00889314 0.99995 
0.00708857 -0.00188489 0.999973 
0.00891062 0.00671068 0.999938 
0.00922942 0.0170484 0.999812 
0.00771543 0.0296336 0.999531 