# vtk DataFile Version 3.0 
Exported using Morpho https://github.com/Morpho-lang/morpho 
ASCII 
DATASET UNSTRUCTURED_GRID 

POINTS 1978 float 
-11.9964 -3.99525 -7.15256e-05 
-11.6405 -3.99424 2.8828e-05 
-11.2888 -3.99598 -6.18305e-05 
-10.9895 -3.99503 9.45305e-05 
-10.6923 -3.99424 -0.000193366 
-10.3543 -3.9928 -1.80874e-05 
-10.0278 -3.99381 0.000121257 
-9.70788 -3.99413 -1.40756e-06 
-9.35944 -3.99469 -3.80158e-05 
-9.02036 -3.99536 2.53335e-05 
-8.70112 -3.99448 -2.2883e-05 
-8.34114 -3.99542 -3.64255e-05 
-8.05048 -3.99498 2.55653e-05 
-7.7557 -3.99449 -1.70599e-05 
-7.46028 -3.99467 4.90207e-06 
-7.17868 -3.99469 2.35374e-05 
-6.8973 -3.99422 4.80052e-05 
-6.5766 -3.99495 7.66368e-05 
-6.25387 -3.99462 7.09081e-05 
-5.9558 -3.99505 5.90948e-05 
-5.6764 -3.99592 0.000108164 
-5.39754 -3.99578 0.000116587 
-5.10691 -3.99659 0.000153665 
-4.82266 -3.99625 0.000240832 
-4.51832 -3.99514 0.000293433 
-4.18294 -3.99341 0.000384903 
-3.80242 -3.99269 0.000478122 
-3.45035 -3.99246 0.000740225 
-3.06359 -3.99209 0.000845388 
-2.66551 -3.9947 0.000657001 
-2.45546 -3.99677 0.000526146 
-2.27596 -4.001 0.000783561 
-2.02139 -3.99838 0.00106265 
-1.58344 -4.00048 0.00107495 
-1.35038 -3.99756 0.000284135 
-1.08991 -3.9971 0.000740279 
-0.843839 -4.00016 -0.00024629 
-0.657512 -4.00035 -0.000249615 
-0.41247 -3.99415 -0.000513341 
0.0285309 -3.99285 0.000656739 
0.256209 -3.996 -0.000486446 
0.486698 -3.99794 0.000688267 
0.828102 -4.00124 -0.000519279 
1.17396 -3.99771 -0.000476671 
1.39133 -3.99957 -0.000646542 
1.68631 -4.00114 -0.000766521 
1.89854 -3.99835 -0.000720814 
2.14164 -3.99599 -0.000810402 
2.43737 -3.9956 -0.000921332 
2.74207 -3.99331 -0.000861375 
3.17023 -3.99017 -0.00088422 
3.56911 -3.99309 -0.000667 
3.9123 -3.9941 -0.000386196 
4.24238 -3.99515 -0.000319475 
4.54657 -3.99616 -0.000253041 
4.82164 -3.99615 -0.000176086 
5.09918 -3.99611 -0.000154468 
5.38096 -3.9957 -0.000128227 
5.65997 -3.99563 -9.94294e-05 
5.96548 -3.99438 -7.59642e-05 
6.2811 -3.99458 -5.1206e-05 
6.55279 -3.99488 -5.16285e-05 
6.85277 -3.99495 -3.87296e-05 
7.13028 -3.99481 -2.87626e-05 
7.42398 -3.99493 -2.06985e-05 
7.73905 -3.99422 -1.95556e-05 
8.03937 -3.99453 -2.03706e-05 
8.37644 -3.99387 3.61462e-05 
8.68733 -3.9947 2.12422e-06 
8.96876 -3.99466 2.07244e-05 
9.31219 -3.99511 -1.80514e-06 
9.62204 -3.99482 3.88098e-05 
9.93134 -3.99413 -0.00014034 
10.275 -3.99285 -4.62708e-05 
10.5836 -3.99325 0.000133868 
10.9665 -3.99431 -0.000146668 
11.3011 -3.99505 0.000138231 
11.6484 -3.99359 -7.88421e-07 
11.9958 -3.99561 4.55271e-05 
-11.9944 -3.69686 0.000118001 
-11.6437 -3.70058 -0.000122141 
-11.3382 -3.66731 -1.8692e-06 
-11.0071 -3.64329 -9.11022e-05 
-10.6795 -3.64119 3.31977e-05 
-10.3645 -3.68125 1.43025e-05 
-10.0148 -3.6714 4.58265e-05 
-9.68771 -3.66372 5.90865e-05 
-9.38462 -3.69679 -5.3529e-06 
-9.06798 -3.69329 5.21063e-05 
-8.75783 -3.67336 5.13124e-05 
-8.43917 -3.71872 4.75979e-06 
-8.11072 -3.65488 5.46895e-06 
-7.8067 -3.65336 1.26725e-05 
-7.50311 -3.64321 4.82989e-06 
-7.22239 -3.63233 1.29188e-05 
-6.89246 -3.68469 1.49923e-05 
-6.56463 -3.69902 -2.16213e-05 
-6.26489 -3.67769 -1.23105e-06 
-5.96658 -3.67509 2.23984e-05 
-5.68259 -3.68081 -9.19741e-06 
-5.39799 -3.68051 -1.23529e-05 
-5.10907 -3.69995 -4.62849e-05 
-4.78753 -3.66826 -3.93377e-05 
-4.45522 -3.65528 -8.58584e-05 
-4.11048 -3.61587 -6.32137e-05 
-3.76563 -3.62852 2.2839e-05 
-3.38771 -3.59961 -0.000111452 
-3.05694 -3.64847 -0.000119563 
-2.71287 -3.69383 0.000197074 
-2.43448 -3.6018 -7.50292e-05 
-2.20909 -3.77695 -0.000245857 
-1.88345 -3.88499 -8.77696e-05 
-1.64867 -3.81075 -8.62296e-05 
-1.37944 -3.81765 -0.000185376 
-1.03674 -3.86254 0.0010946 
-0.817461 -3.82759 9.5397e-05 
-0.589864 -3.86959 0.000480676 
-0.295372 -3.91574 -0.000774294 
0.0293098 -3.88603 -7.3407e-05 
0.320652 -3.84521 0.000887887 
0.631098 -3.89599 -0.000627857 
0.938568 -3.90244 -0.000127023 
1.15892 -3.82155 -0.000285034 
1.39175 -3.8117 -0.000365407 
1.63934 -3.83728 0.000210152 
1.9368 -3.73198 4.5069e-05 
2.20037 -3.73115 7.85865e-05 
2.46986 -3.66209 0.000201009 
2.79564 -3.66897 7.56361e-05 
3.15152 -3.59808 5.75354e-06 
3.49559 -3.5725 0.00016939 
3.86301 -3.60213 -4.43872e-05 
4.23457 -3.63892 5.81938e-05 
4.56602 -3.65297 7.27575e-05 
4.88707 -3.6859 1.78532e-05 
5.19293 -3.69389 2.35588e-05 
5.49242 -3.68423 8.50978e-06 
5.78213 -3.68705 -4.47643e-06 
6.08546 -3.68211 5.93609e-06 
6.36847 -3.6374 -1.05894e-05 
6.66382 -3.68305 5.44403e-06 
6.9504 -3.65357 -3.87798e-06 
7.2434 -3.67122 1.13775e-05 
7.5421 -3.68914 1.36113e-05 
7.83239 -3.66249 -1.76946e-05 
8.14107 -3.69422 -3.61028e-06 
8.44616 -3.66489 -8.63645e-06 
8.72512 -3.62837 -2.85103e-05 
9.04853 -3.70217 -1.20434e-05 
9.36457 -3.68092 -3.09691e-05 
9.68793 -3.68155 -4.25349e-05 
10.0299 -3.70775 -3.16683e-06 
10.36 -3.65777 1.00741e-05 
10.7093 -3.70889 5.94632e-05 
11.0351 -3.65114 6.96329e-05 
11.3473 -3.6661 -9.87506e-05 
11.6695 -3.66997 0.0001233 
11.9943 -3.6609 -0.000148192 
-11.9953 -3.39968 3.99612e-05 
-11.7048 -3.35241 9.78323e-05 
-11.3655 -3.3371 1.34945e-05 
-11.0309 -3.30719 -1.6877e-05 
-10.7059 -3.29965 4.60731e-05 
-10.3561 -3.36793 -3.05372e-05 
-10.0135 -3.35057 -3.44129e-05 
-9.68705 -3.3305 3.3696e-05 
-9.36265 -3.38177 -9.65205e-06 
-9.05857 -3.35959 -1.05705e-05 
-8.7711 -3.31529 -2.4977e-05 
-8.48323 -3.39999 -6.72827e-06 
-8.17757 -3.35373 -4.66571e-06 
-7.8496 -3.31512 1.48314e-05 
-7.52518 -3.32635 3.4324e-06 
-7.21095 -3.24957 -1.86193e-05 
-6.94581 -3.37426 -3.41337e-05 
-6.65392 -3.36418 -8.35963e-06 
-6.35605 -3.36364 -1.45542e-06 
-6.0491 -3.37035 4.93717e-06 
-5.74108 -3.35675 -3.64599e-06 
-5.45979 -3.35154 -5.88717e-06 
-5.16269 -3.36489 -2.9722e-05 
-4.8586 -3.35671 -0.000101188 
-4.53057 -3.31884 -7.17616e-05 
-4.19476 -3.27526 -7.24791e-05 
-3.83962 -3.25981 2.20607e-05 
-3.49576 -3.28412 9.4419e-05 
-3.13629 -3.30574 7.40301e-05 
-2.75614 -3.39749 -0.000112119 
-2.56425 -3.31349 7.55037e-05 
-2.21811 -3.49052 0.000296427 
-1.99199 -3.68971 6.12473e-05 
-1.73989 -3.62851 8.78724e-05 
-1.47877 -3.63686 0.000854145 
-1.14166 -3.74426 -0.000313462 
-0.847871 -3.68389 0.000173244 
-0.548428 -3.77932 -0.000129475 
-0.208214 -3.81816 0.000166794 
0.0311051 -3.75886 -0.000322902 
0.300218 -3.72786 -0.000328009 
0.581868 -3.76547 0.000718754 
0.864654 -3.77672 0.000246396 
1.04925 -3.65648 -0.000297921 
1.23692 -3.61203 0.00020072 
1.60823 -3.70012 -0.000615152 
1.97606 -3.51538 -2.2866e-05 
2.25948 -3.4732 4.24006e-05 
2.56156 -3.34793 -3.73012e-05 
2.84026 -3.33803 9.89644e-05 
3.13053 -3.28515 2.24764e-05 
3.50782 -3.19972 -0.000136147 
3.82404 -3.22641 -1.03902e-05 
4.16508 -3.28415 1.59653e-06 
4.49187 -3.29668 0.000118762 
4.81463 -3.36193 3.82761e-05 
5.12451 -3.37798 3.95827e-05 
5.42945 -3.38336 1.10549e-05 
5.73229 -3.35462 1.4799e-06 
6.01971 -3.35888 -1.33424e-05 
6.31111 -3.29981 9.55355e-07 
6.61866 -3.3459 7.36043e-06 
6.93712 -3.34217 1.54538e-05 
7.2506 -3.33972 -1.75694e-05 
7.5478 -3.36491 -9.42041e-06 
7.84259 -3.32301 -3.50476e-06 
8.13335 -3.36762 3.15229e-05 
8.40039 -3.30231 1.66246e-06 
8.72638 -3.3119 -1.45025e-05 
9.04832 -3.38441 -3.4921e-05 
9.37804 -3.37262 4.41896e-05 
9.68015 -3.33702 7.83844e-06 
9.98898 -3.40173 -2.36537e-06 
10.3252 -3.35135 3.96752e-05 
10.6895 -3.40139 -7.6026e-05 
11.0316 -3.31345 4.12576e-05 
11.358 -3.32574 -9.48341e-06 
11.6746 -3.33186 -1.6019e-05 
11.9951 -3.33599 -1.44869e-05 
-11.9948 -3.03029 -4.15572e-05 
-11.6606 -3.02338 -1.63827e-05 
-11.322 -2.99894 8.05809e-05 
-10.9799 -2.9681 9.46442e-05 
-10.6232 -2.99255 0.000103462 
-10.2938 -3.03723 -0.000123738 
-9.96184 -3.01259 5.74198e-06 
-9.61988 -3.01321 1.60048e-05 
-9.32357 -3.02087 -1.47932e-05 
-9.03215 -2.9832 1.38185e-06 
-8.71689 -2.97244 7.96886e-06 
-8.41952 -3.05713 -1.86609e-05 
-8.11406 -2.99334 -2.97327e-05 
-7.82501 -2.99327 -1.91111e-05 
-7.51712 -2.98551 -4.98148e-06 
-7.21068 -2.91239 1.56061e-06 
-6.89485 -3.01424 -9.29314e-06 
-6.58543 -3.02968 -3.48622e-06 
-6.28869 -3.04158 -1.45208e-05 
-5.99489 -3.05685 -1.77056e-05 
-5.7297 -3.0057 -1.71517e-05 
-5.43303 -3.01075 -6.23335e-05 
-5.128 -2.99888 -8.82804e-05 
-4.81234 -2.99209 -6.02706e-05 
-4.48429 -2.98107 -0.00015825 
-4.12564 -2.91872 -0.000159853 
-3.83416 -2.9438 -0.000178182 
-3.52463 -2.9786 8.23111e-05 
-3.17709 -3.0687 -8.11964e-05 
-2.98912 -3.06047 0.000123172 
-2.783 -3.02004 -0.000294909 
-2.36552 -3.25733 -0.00144188 
-1.95668 -3.45251 0.000481894 
-1.71493 -3.42485 0.000311877 
-1.45662 -3.42765 0.000310424 
-1.23627 -3.59195 -6.36494e-05 
-0.938172 -3.56761 0.000568116 
-0.575943 -3.66032 0.000592375 
-0.302296 -3.71591 8.91002e-05 
0.0163159 -3.66719 -0.000227369 
0.346286 -3.60743 0.000187636 
0.649171 -3.63753 0.000317028 
0.916343 -3.51823 -5.50811e-05 
1.11792 -3.39499 -0.00136218 
1.39695 -3.50641 -2.71185e-05 
1.6944 -3.51336 0.000158851 
2.03624 -3.30239 0.000148906 
2.33124 -3.25973 -0.000257035 
2.68435 -3.09016 0.00010797 
2.95455 -3.0733 8.41719e-05 
3.27456 -2.9659 -0.000205015 
3.50624 -2.96051 4.28725e-05 
3.81082 -2.8619 0.000201792 
4.11255 -2.92137 0.000179264 
4.4409 -2.95125 0.000110352 
4.78709 -3.01281 0.00012515 
5.10667 -3.02879 3.25646e-05 
5.41204 -3.05814 3.99509e-05 
5.71215 -3.01795 2.74626e-05 
6.00987 -3.01426 1.65544e-05 
6.29776 -2.95429 7.52866e-06 
6.60786 -3.01639 2.1804e-05 
6.92583 -3.00986 1.66155e-05 
7.24004 -3.01142 1.75713e-05 
7.54631 -3.03129 -4.38663e-07 
7.86045 -2.98498 1.94757e-05 
8.14096 -2.97689 2.66444e-05 
8.44496 -2.95117 1.63947e-05 
8.74126 -2.99379 1.35229e-05 
9.0742 -3.0591 9.13719e-06 
9.38469 -3.02152 2.83813e-05 
9.68884 -2.98468 -3.94026e-05 
10.0095 -3.06468 -2.16007e-05 
10.3219 -2.99702 0.000121432 
10.6459 -3.09128 -7.2783e-05 
10.9774 -2.98352 -4.19591e-05 
11.3243 -3.00263 -6.92363e-05 
11.6664 -2.99639 -9.83631e-06 
11.9949 -3.00636 1.48756e-05 
-11.9923 -2.70765 3.16438e-05 
-11.6293 -2.69336 4.92368e-05 
-11.2911 -2.64728 -6.54838e-05 
-10.971 -2.63383 -0.000137348 
[...]
POINT_DATA 1978 
VECTORS vectors float
0.0806497 -0.105383 0.991402 
0.0787273 -0.0690465 0.994821 
0.0801309 -0.0338682 0.99708 
0.0811959 -0.00104741 0.99735 
0.0894241 0.0175118 0.996358 
0.0980081 -0.00134559 0.995596 
0.0959958 -0.0274504 0.995443 
0.089545 -0.033675 0.995905 
0.0834926 -0.0224891 0.996771 
0.0829351 -0.00910716 0.997063 
0.081746 0.00153778 0.997219 
0.0827254 0.0101876 0.997052 
0.0838401 0.0139019 0.996938 
0.0805464 0.0194129 0.997115 
0.0793112 0.0255525 0.997087 
0.0829571 0.0303042 0.996412 
0.0861478 0.0302367 0.996326 
0.0868334 0.0279604 0.996316 
0.0865739 0.028541 0.996325 
0.0845562 0.030179 0.996478 
0.081079 0.0339695 0.996896 
0.0777725 0.0410555 0.996688 
0.0733966 0.0513217 0.99661 
0.0731956 0.0611794 0.995843 
0.0701418 0.0713884 0.996149 
0.0680851 0.0851439 0.995054 
0.0689862 0.101674 0.993521 
0.0673117 0.111942 0.992494 
0.0576286 0.118641 0.992243 
0.0538131 0.127804 0.991176 
0.053886 0.138323 0.989321 
0.0557854 0.140732 0.989042 
0.0479483 0.157608 0.986768 
0.0295841 0.232775 0.972462 
0.0143236 0.316545 0.948841 
0.00619175 0.481063 0.876314 
0.00390607 0.608239 0.79488 
-0.00519604 0.726109 0.687768 
-0.00656898 0.875096 0.484732 
-0.0132231 0.999787 -0.0290126 
0.00736517 0.949962 -0.311791 
0.00929217 0.820966 -0.571559 
0.000637793 0.61986 -0.784301 
-0.0116552 0.422394 -0.906877 
-0.0189256 0.330848 -0.943879 
-0.0353884 0.228998 -0.97327 
-0.0383695 0.18974 -0.981442 
-0.0440973 0.163257 -0.986199 
-0.0507075 0.144564 -0.988967 
-0.0486559 0.129454 -0.991395 
-0.0555689 0.117239 -0.992751 
-0.0628573 0.105188 -0.993682 
-0.0657859 0.0912196 -0.994783 
-0.0681847 0.076845 -0.995658 
-0.0708924 0.0641397 -0.996207 
-0.0741506 0.0561034 -0.996324 
-0.0766607 0.0489762 -0.996433 
-0.0788202 0.0419595 -0.996553 
-0.0815239 0.0363818 -0.996534 
-0.0830158 0.0316764 -0.996573 
-0.0835453 0.0281546 -0.996637 
-0.0851345 0.025837 -0.996537 
-0.085836 0.0251811 -0.99648 
-0.0855421 0.0260584 -0.99649 
-0.0855752 0.023998 -0.99653 
-0.0845853 0.020459 -0.996696 
-0.0840367 0.0171472 -0.996827 
-0.0819464 0.0116521 -0.997092 
-0.0813412 0.00388882 -0.997259 
-0.0795673 -0.00347462 -0.997376 
-0.0820877 -0.0129953 -0.997069 
-0.0854931 -0.0222642 -0.996599 
-0.0908599 -0.0250985 -0.995977 
-0.0958453 -0.00735475 -0.99579 
-0.0875573 0.0126109 -0.996576 
-0.0805902 -0.00320051 -0.99762 
-0.0819316 -0.0308682 -0.996798 
-0.0771734 -0.067602 -0.995094 
-0.0803206 -0.105994 -0.991385 
0.0570183 -0.100883 0.99352 
0.0559327 -0.0667958 0.998166 
0.0536472 -0.0393865 0.99927 
0.055583 -0.014351 1.00009 
0.062622 -0.00128711 0.999706 
0.0696371 -0.000988726 0.999121 
0.0631209 -0.0129478 0.99944 
0.053914 -0.0185778 0.999911 
0.052256 -0.0183754 1.00001 
0.0481737 -0.0115162 1.00035 
0.0473962 -0.00276146 1.00073 
0.052089 0.00611284 1.00022 
0.0451849 0.0104708 1.00052 
0.0465488 0.0157295 1.00016 
0.046597 0.0204058 1.00052 
0.0469316 0.0242973 1.0004 
0.0537955 0.0275339 0.999502 
0.0513556 0.0285104 1 
0.0448172 0.0300813 1.00005 
0.0394701 0.0340392 1.00014 
0.0319326 0.0416537 0.999914 
0.0219222 0.0509272 0.999784 
0.0144299 0.0606485 0.999947 
0.00106332 0.0731598 0.99913 
-0.0116413 0.0853661 0.998316 
-0.0279504 0.100391 0.996834 
-0.0348176 0.113727 0.995323 
-0.0663992 0.131687 0.991451 
-0.0674462 0.135675 0.99037 
-0.0658138 0.13919 0.99009 
-0.122245 0.152282 0.982653 
-0.0507485 0.154499 0.987798 
-0.00716143 0.178412 0.985034 
-0.0425197 0.226673 0.974067 
-0.0352512 0.31469 0.950096 
-0.0201046 0.496691 0.867722 
-0.0245234 0.632007 0.774895 
-0.0149851 0.772999 0.635062 
-0.014487 0.932784 0.357462 
-0.013804 0.998956 -0.0401084 
0.0147508 0.916504 -0.39956 
0.0240085 0.729943 -0.682989 
0.0151141 0.543086 -0.84081 
0.0380428 0.430296 -0.902524 
0.0402425 0.332037 -0.94324 
0.0273151 0.247288 -0.969932 
0.0740734 0.198838 -0.978641 
0.0737163 0.168782 -0.984417 
0.0938223 0.155649 -0.98516 
0.077775 0.140301 -0.989293 
0.0864453 0.135971 -0.989465 
0.0772511 0.130112 -0.991058 
0.0424063 0.111057 -0.995352 
0.0220368 0.0925681 -0.997313 
0.00791973 0.0776296 -0.999175 
-0.0109158 0.0648953 -0.999531 
-0.0210638 0.0550558 -0.999832 
-0.0286138 0.0472415 -1.00001 
-0.0369311 0.0396138 -1.00008 
-0.042966 0.0325799 -1.00009 
-0.0433776 0.0278513 -1.00021 
-0.0504172 0.0246132 -0.999698 
-0.0483079 0.02231 -1.00028 
-0.0493782 0.0216035 -1.00003 
-0.0505208 0.019939 -1 
-0.0488153 0.0171172 -1.00017 
-0.0506339 0.0134346 -0.999952 
-0.0470978 0.00737544 -1.00044 
-0.0424657 0.000591593 -1.00093 
-0.0522457 -0.00624195 -0.999981 
-0.0508227 -0.0114905 -1.0002 
-0.053665 -0.0120848 -1.00022 
-0.0663893 -0.00884776 -0.999024 
-0.0661986 -0.00121394 -0.999566 
-0.0682826 -0.000725197 -0.999311 
-0.0573804 -0.0148823 -0.999681 
-0.0524915 -0.0374835 -0.999639 
-0.0524384 -0.0664263 -0.998477 
-0.0536168 -0.102465 -0.993527 
0.0268647 -0.105439 0.994561 
0.0261254 -0.071837 0.998837 
0.0316772 -0.0473245 1.00038 
0.0374839 -0.021234 1.00051 
0.0405745 -0.00896722 1.00075 
0.0471443 -0.00105319 1.00051 
0.0395589 1.91588e-05 1.00076 
0.0291063 -0.00550074 1.00105 
0.0248924 -0.0117239 1.00111 
0.0194062 -0.0108862 1.0013 
0.0153493 -0.00529249 1.00144 
0.02032 0.00306534 1.0011 
0.0172355 0.00787821 1.00158 
0.0160075 0.0127761 1.00134 
0.0180042 0.0174005 1.0012 
0.0130769 0.0202263 1.00125 
0.0231429 0.0242437 1.00094 
0.0218604 0.0263249 1.0007 
0.0169091 0.030636 1.00087 
0.00838119 0.0390893 1.00068 
-0.00552902 0.0512036 1.00019 
-0.0217248 0.065239 0.999492 
-0.0375395 0.0796359 0.997951 
-0.0569129 0.0941444 0.995814 
-0.0774251 0.109836 0.99304 
-0.107077 0.131307 0.987717 
-0.137776 0.152984 0.980529 
-0.163056 0.165583 0.974795 
-0.201445 0.176261 0.965799 
-0.196357 0.172403 0.966812 
-0.263204 0.190985 0.94644 
-0.204817 0.164691 0.966624 
-0.102483 0.174201 0.98066 
-0.127386 0.207974 0.970859 
-0.112919 0.270034 0.957306 
-0.0559218 0.422118 0.905685 
-0.0481245 0.604853 0.795173 
-0.0231975 0.795252 0.606037 
-0.0213684 0.965478 0.258357 
-0.0131164 0.998708 -0.0468848 
0.0233912 0.92153 -0.387175 
0.0393765 0.761098 -0.647531 
0.0502248 0.581264 -0.813008 
0.0964518 0.481072 -0.872164 
0.127427 0.393493 -0.911375 
0.0845672 0.265246 -0.96139 
0.178165 0.208319 -0.962867 
0.197368 0.186107 -0.963975 
0.237706 0.182652 -0.955372 
0.217634 0.170282 -0.962782 
0.214041 0.175287 -0.962879 
0.206753 0.180238 -0.963803 
0.157567 0.159448 -0.976939 
0.10885 0.129907 -0.987787 
0.0865305 0.113153 -0.991894 
0.0542404 0.0920258 -0.995852 
0.0318375 0.0760665 -0.998607 
0.0154357 0.0638839 -0.999184 
0.00482223 0.0526819 -1.00041 
-0.00713426 0.0410278 -1.00047 
-0.0101324 0.0321256 -1.00121 
-0.0189434 0.024865 -1.00102 
-0.0213655 0.0206176 -1.00106 
-0.0220083 0.0182031 -1.00083 
-0.022478 0.0166411 -1.00104 
-0.0188131 0.0143186 -1.0012 
-0.020765 0.0109339 -1.00147 
-0.0161161 0.00527966 -1.00164 
-0.0153011 -0.00230937 -1.00121 
-0.0213269 -0.00723389 -1.0013 
-0.0245611 -0.00660478 -1.00138 
-0.0278345 -0.000332114 -1.00089 
-0.0406325 0.00127225 -1.00068 
-0.0436674 0.00132316 -1.00067 
-0.0465999 -0.00503231 -1.00028 
-0.0373963 -0.0218033 -1.00071 
-0.0339499 -0.0448032 -1.00035 
-0.0277121 -0.0674864 -0.999075 
-0.0238376 -0.106747 -0.994501 
-0.00173066 -0.110979 0.99429 
0.0113285 -0.0701213 0.999216 
0.0165179 -0.0497055 1.00037 
0.0201355 -0.0240757 1.00143 
0.0272156 -0.00874304 1.00134 
0.0250409 0.00618023 1.00134 
0.015077 0.0145848 1.00135 
0.00625586 0.00262856 1.00145 
0.000718824 -0.00841528 1.00126 
-0.00412667 -0.0117576 1.00147 
-0.00627831 -0.00681203 1.00155 
-0.000828564 0.00207432 1.00154 
-0.00328915 0.00834435 1.00128 
-0.0046755 0.0122783 1.00165 
-0.0037058 0.0153897 1.00115 
-0.00521646 0.0176959 1.00137 
-0.000451696 0.0225718 1.00149 
-0.00329126 0.0291533 1.00108 
-0.0105525 0.0388281 1.0007 
-0.0208837 0.0517865 0.999978 
-0.0413259 0.0709155 0.998288 
-0.0642664 0.0928792 0.995446 
-0.0892271 0.115445 0.991395 
-0.116299 0.136108 0.985943 
-0.151313 0.161275 0.977088 
-0.201065 0.194414 0.962282 
-0.237584 0.213122 0.950105 
-0.275652 0.223074 0.936833 
-0.303916 0.220952 0.928207 
-0.345434 0.233332 0.910155 
-0.40855 0.248854 0.879536 
-0.325744 0.204772 0.923619 
-0.231954 0.193784 0.954312 
-0.251385 0.220851 0.943408 
-0.230961 0.276387 0.933904 
-0.116597 0.361026 0.926224 
-0.081436 0.526628 0.846761 
-0.0317306 0.771404 0.635984 
-0.0314115 0.926137 0.375398 
-0.00798928 0.999108 -0.0317918 
0.0454326 0.899058 -0.435663 
0.0725551 0.71572 -0.695243 
0.147191 0.55867 -0.81665 
0.217359 0.447162 -0.868469 
0.177001 0.344476 -0.922966 
0.176482 0.249706 -0.953248 
0.303475 0.220575 -0.928046 
0.308904 0.209801 -0.92836 
0.361289 0.214774 -0.908658 
0.33191 0.20895 -0.920918 
0.339094 0.22915 -0.913823 
0.304573 0.228622 -0.926473 
0.2844 0.24029 -0.929989 
0.21087 0.198607 -0.959717 
0.160916 0.166901 -0.974998 
0.114906 0.133229 -0.986476 
0.0820897 0.109773 -0.992258 
0.0544622 0.0864982 -0.996801 
0.039764 0.0718454 -0.998075 
0.0233386 0.0538549 -1.00013 
0.0160564 0.0404211 -1.00044 
0.0043206 0.027073 -1.00143 
0.00130268 0.0203349 -1.00113 
0.00103394 0.0162082 -1.00158 
0.000244195 0.0142184 -1.0014 
0.00312392 0.0112945 -1.00144 
0.00433622 0.00749929 -1.00153 
0.00708785 0.00172704 -1.00157 
0.00501026 -0.00433484 -1.00155 
0.000281371 -0.00771883 -1.00152 
-8.60455e-05 -0.00313863 -1.00149 
-0.00399097 0.00843304 -1.00145 
-0.017864 0.0142609 -1.00131 
-0.0224447 0.0101063 -1.00143 
-0.030913 -0.00873488 -1.00117 
-0.0225157 -0.0236384 -1.00113 
-0.0191035 -0.0493675 -1.00032 
-0.011125 -0.072324 -0.998781 
-0.0026811 -0.110821 -0.994575 
-0.0111636 -0.116677 0.993788 
0.00292328 -0.0809408 0.998224 
0.00833243 -0.0453265 1.00067 
0.00892038 -0.029041 1.00126 
0.00750975 -0.00531202 1.00177 
-0.000311687 0.018485 1.00164 
-0.0100612 0.0264221 1.00123 
-0.0177449 0.0122643 1.00128 
-0.0237511 -0.0050299 1.00142 
-0.0252722 -0.013165 1.00116 
-0.025078 -0.00912098 1.001 
-0.0209026 8.12907e-05 1.0016 
-0.0236816 0.00601975 1.00123 
-0.0200655 0.0111362 1.00125 
-0.0208833 0.0145805 1.00119 
-0.0205003 0.0187295 1.00115 
-0.0198089 0.0250617 1.00104 
-0.0260634 0.0360846 1.00055 
-0.0355251 0.0506475 0.999656 
-0.0512041 0.0705014 0.99787 
-0.0744878 0.099449 0.994086 
-0.106576 0.134319 0.987278 
-0.143245 0.168981 0.977098 
-0.195282 0.212317 0.960164 
-0.234447 0.238914 0.944491 
-0.306248 0.293404 0.907802 
-0.355282 0.307014 0.884739 
-0.383188 0.284082 0.880272 
-0.43212 0.303489 0.850347 
-0.463917 0.293726 0.836588 
-0.549866 0.316129 0.773812 
-0.457715 0.255495 0.852373 
-0.387401 0.219862 0.896039 
-0.400916 0.21677 0.890714 
-0.384746 0.227215 0.895543 
-0.276195 0.306515 0.911571 
-0.143934 0.444954 0.884702 
-0.0585508 0.727623 0.683916 
-0.0388672 0.923297 0.381495 
-0.00114157 0.999241 0.00602535 
0.0751925 0.839341 -0.536708 
0.121705 0.629882 -0.767727 
0.296924 0.461659 -0.836639 
0.293783 0.355131 -0.888225 
0.278417 0.302056 -0.912708 
0.329998 0.249812 -0.911032 
0.449739 0.245861 -0.859433 
0.439276 0.243513 -0.865501 
0.451998 0.253019 -0.856003 
0.424737 0.251353 -0.870769 
0.465603 0.302227 -0.832897 
0.391028 0.290762 -0.874434 
0.374192 0.323551 -0.871433 
0.299168 0.285133 -0.912717 
0.227322 0.235585 -0.94718 
0.167984 0.186109 -0.970359 
0.123458 0.148363 -0.983643 
0.0880355 0.115257 -0.991321 
0.0663982 0.0911408 -0.995349 
0.0502258 0.0700984 -0.997939 
0.0352388 0.0469563 -0.999884 
0.0240468 0.0303978 -1.00085 
0.0209081 0.0204809 -1.00111 
0.0197709 0.0153405 -1.0012 
0.0197297 0.0128482 -1.00121 
0.0229479 0.00946973 -1.00121 
0.0243248 0.00490787 -1.00105 
0.0277774 -0.00140295 -1.00118 
0.0277594 -0.00788693 -1.00118 
0.0227089 -0.0103969 -1.00128 
0.0242677 -0.00441047 -1.00099 
0.0217196 0.0126445 -1.00117 
0.00808875 0.0268368 -1.00147 
0.000553092 0.0207703 -1.00162 
-0.012806 -0.00948988 -1.00168 
-0.0105956 -0.0294022 -1.00124 
-0.00857057 -0.0557113 -1.00014 
-0.0036655 -0.0778641 -0.998659 
0.00740938 -0.118472 -0.993342 
0.00997207 -0.120537 0.99302 
0.00235175 -0.0892764 0.997723 
0.00126386 -0.0672773 0.999214 
-0.00376323 -0.0341557 1.00112 
-0.0108991 -0.00720272 1.00173 
-0.0198197 0.0200422 1.00144 
-0.0303942 0.0382905 1.00042 
-0.0360372 0.0272908 1.00036 
-0.0410538 0.00218279 1.00046 
-0.0411087 -0.0139861 1.0004 
-0.0385543 -0.0145993 1.00058 
-0.0356332 -0.00520044 1.00081 
-0.03473 0.00200956 1.00078 
-0.0324343 0.00851847 1.00078 
-0.0305465 0.0127961 1.00077 
-0.0298997 0.0169282 1.00076 
-0.0309786 0.0255705 1.00059 
-0.0370442 0.0376858 1.00004 
-0.0462201 0.0573377 0.998753 
-0.0615753 0.0830046 0.996186 
-0.0834188 0.113589 0.991739 
-0.118457 0.161003 0.981724 
-0.162213 0.206641 0.967001 
-0.212215 0.259421 0.944399 
-0.26711 0.308208 0.915312 
-0.314262 0.331773 0.891491 
-0.401856 0.405372 0.822646 
-0.453293 0.38786 0.803921 
-0.500753 0.415298 0.760516 
-0.506773 0.359359 0.784269 
-0.556357 0.355097 0.751868 
-0.613436 0.331127 0.717513 
-0.558633 0.288364 0.778061 
-0.485852 0.241501 0.840606 
-0.550507 0.243125 0.799062 
-0.464505 0.243692 0.852045 
-0.266666 0.342075 0.902135 
-0.114832 0.595412 0.795282 
-0.0460358 0.910445 0.412437 
0.0237724 0.990917 -0.133331 
0.11415 0.750394 -0.653794 
0.242127 0.54702 -0.80083 
0.397886 0.379196 -0.835855 
0.457958 0.31916 -0.830147 
0.474875 0.276683 -0.835901 
0.497346 0.257334 -0.828991 
0.574964 0.279189 -0.769648 
0.524261 0.273554 -0.806964 
0.518005 0.297859 -0.802661 
0.549855 0.347982 -0.75967 
0.486548 0.355915 -0.798514 
0.480801 0.401475 -0.78071 
0.434234 0.390896 -0.813248 
0.345343 0.364564 -0.867037 
0.29057 0.329408 -0.900326 
0.220914 0.260253 -0.942451 
0.164662 0.206148 -0.966434 
0.117764 0.154843 -0.982859 
0.0883421 0.120302 -0.990534 
0.0664443 0.0918339 -0.995105 
0.050609 0.0634163 -0.998185 
0.0371644 0.0390359 -1.00001 
0.0316679 0.0243477 -1.00062 
0.0293357 0.0163406 -1.0008 
0.030716 0.0122329 -1.00079 
0.0327107 0.00880027 -1.00076 
0.033149 0.00271988 -1.00103 
0.0380127 -0.00453372 -1.00044 
0.0410392 -0.0120275 -1.00066 
0.0420221 -0.0138153 -1.00046 
0.0418304 -0.00468135 -1.00041 
0.0406108 0.0180673 -1.00031 
0.0306362 0.0365372 -1.00037 
0.0217418 0.0312138 -1.00103 
0.00673386 -0.0021847 -1.00186 
0.00348076 -0.0241456 -1.00145 
-0.00155942 -0.0558765 -1.00013 
-0.00353301 -0.0780078 -0.998611 
-0.003335 -0.126482 -0.992301 
0.0167506 -0.116799 0.993424 
0.00424378 -0.0742508 0.999132 
-0.0050924 -0.0445173 1.00043 
-0.0159404 -0.00995197 1.00174 
-0.0257013 0.0197635 1.00119 
-0.0324054 0.0437943 1.00003 
-0.0371905 0.0414674 0.999631 
-0.0393333 0.0174432 1.00008 
-0.0365364 -0.00901497 1.00031 
-0.0338326 -0.0203781 1.00036 
-0.0326359 -0.0145734 1.0006 
-0.0264876 -0.00543563 1.00085 
-0.0234038 0.00287231 1.00089 
-0.0196414 0.00955009 1.00089 
-0.017342 0.0153286 1.00087 
-0.0219618 0.0217416 1.00071 
-0.0206999 0.0344508 1.00042 
-0.0295645 0.0515988 0.999332 
-0.0395899 0.0770226 0.997751 
-0.0578671 0.111787 0.99352 
-0.0871129 0.153954 0.985904 
-0.128004 0.214092 0.970004 
-0.174562 0.276258 0.947304 
-0.233056 0.33817 0.913653 
-0.292468 0.402448 0.869214 
-0.346512 0.410936 0.844585 
-0.43559 0.490375 0.756572 
-0.492824 0.503492 0.71069 
-0.544373 0.54073 0.641734 
-0.567376 0.457289 0.685508 
-0.583767 0.40067 0.706772 
-0.630754 0.372236 0.681032 
-0.675067 0.343049 0.653727 
-0.628562 0.293827 0.720205 
-0.678495 0.269288 0.683826 
-0.578807 0.256168 0.774332 
-0.426504 0.275728 0.86154 
-0.290094 0.418335 0.859384 
-0.0756507 0.801677 0.589882 
0.0303175 0.986631 -0.135751 
0.203961 0.635798 -0.74343 
0.395029 0.3696 -0.843982 
0.473674 0.384599 -0.789517 
0.528966 0.288767 -0.798653 
0.630033 0.269443 -0.728762 
0.616622 0.309724 -0.723978 
0.570367 0.312874 -0.760069 
0.620185 0.374542 -0.689243 
0.647176 0.424175 -0.634086 
0.564735 0.399562 -0.722429 
0.553897 0.47381 -0.685287 
0.517092 0.530711 -0.672678 
0.427663 0.440671 -0.790635 
0.357071 0.465899 -0.811512 
0.28377 0.395807 -0.875394 
0.218099 0.32172 -0.923508 
0.156877 0.24411 -0.958942 
0.112315 0.186782 -0.977687 
0.0792037 0.143805 -0.98795 
0.0547266 0.105188 -0.99432 
0.0390036 0.0701237 -0.998094 
0.0248612 0.0453067 -0.999921 
0.0198555 0.027637 -1.00062 
0.0165018 0.01818 -1.00085 
0.0194837 0.0127162 -1.00086 
0.0187111 0.00747629 -1.00093 
0.0208957 0.000175416 -1.00081 
0.0247931 -0.00877105 -1.001 
0.0312197 -0.0165354 -1.00034 
0.0377629 -0.0173347 -1.00028 
0.037851 -0.00346443 -1.00029 
0.0381731 0.0237282 -1.00015 
0.0364711 0.0444256 -0.999678 
0.0297133 0.0414417 -1.00006 
0.0197539 0.0109635 -1.00153 
0.00961532 -0.0152067 -1.00149 
0.000475912 -0.0475059 -1.00052 
-0.007784 -0.0765719 -0.998691 
-0.0165471 -0.122412 -0.992664 
0.0086918 -0.111552 0.994139 
0.0021786 -0.0679492 0.999322 
-0.00329773 -0.0386864 1.00086 
-0.00971557 -0.00459741 1.00148 
-0.0172216 0.0240111 1.00095 
-0.0185457 0.0512598 1.0001 
-0.021308 0.0487183 0.999509 
-0.0195125 0.0194056 1.00045 
-0.0166006 -0.00855025 1.00063 
-0.0122122 -0.0231015 1.00059 
-0.0124191 -0.0189193 1.00083 
-0.00491152 -0.00958762 1.00123 
-0.000410844 0.000284768 1.00095 
0.00319965 0.00791948 1.00117 
0.00531054 0.0148877 1.00077 
0.00300901 0.0232893 1.00082 
0.00410217 0.0366022 1.00064 
-0.00398318 0.0590486 0.999596 
-0.0168289 0.0891184 0.996936 
-0.0339479 0.128981 0.992433 
-0.0640104 0.175797 0.983899 
-0.10346 0.248928 0.964758 
-0.160621 0.32975 0.931944 
-0.228653 0.412913 0.883679 
-0.297227 0.491909 0.820205 
-0.339966 0.529018 0.778915 
-0.390198 0.519922 0.760649 
-0.465504 0.595903 0.655103 
-0.512648 0.633053 0.580441 
-0.582355 0.568273 0.581892 
-0.61604 0.513249 0.597366 
-0.642131 0.424474 0.641277 
-0.692161 0.396355 0.603771 
-0.714279 0.331796 0.616307 
-0.66967 0.274936 0.689967 
-0.667522 0.25815 0.696464 
-0.518484 0.249334 0.817713 
-0.485789 0.237149 0.84173 
-0.114991 0.631064 0.766794 
-0.0249041 0.973638 0.228797 
0.096418 0.836625 -0.538245 
0.328423 0.460691 -0.825352 
0.555045 0.340792 -0.755216 
0.63468 0.280084 -0.71997 
0.681602 0.293103 -0.670592 
0.656028 0.341736 -0.672839 
0.675957 0.36036 -0.642935 
0.698734 0.408653 -0.587207 
0.659862 0.488896 -0.570632 
0.607361 0.514818 -0.605393 
0.542601 0.607337 -0.580954 
0.454817 0.618378 -0.641074 
0.446949 0.527168 -0.723769 
0.358581 0.552012 -0.754267 
0.286011 0.478471 -0.831792 
0.208705 0.402763 -0.893106 
0.149659 0.312177 -0.940006 
0.101005 0.237415 -0.967637 
0.0648492 0.179378 -0.983193 
0.0380307 0.130766 -0.99224 
0.0199773 0.0913291 -0.996722 
0.00551359 0.0607177 -0.999539 
-0.00240332 0.0365987 -1.00032 
-0.00753235 0.0224636 -1.00083 
-0.00651589 0.0136213 -1.00096 
-0.00392409 0.00772488 -1.00103 
-0.0029393 -0.000912455 -1.00126 
0.00162325 -0.0104459 -1.00104 
0.00555327 -0.020173 -1.00083 
0.0157305 -0.0214565 -1.0006 
0.0158948 -0.00819184 -1.00066 
0.0182177 0.0223457 -1.00038 
0.0216702 0.0508146 -0.999371 
0.0175092 0.0497771 -1.00018 
0.0158315 0.0216873 -1.00127 
0.00652854 -0.00152512 -1.00153 
0.000155127 -0.0372458 -1.00089 
-0.00915973 -0.0691825 -0.999442 
-0.017538 -0.113753 -0.99348 
-0.00349915 -0.109415 0.994428 
-0.000948434 -0.0620636 0.999676 
-0.00162607 -0.0324836 1.00103 
-0.00231009 0.00207325 1.00131 
-0.0035494 0.0315503 1.00126 
-0.002098 0.0569898 0.999522 
-0.00131235 0.049607 0.999884 
0.00260605 0.0189335 1.00057 
0.00528118 -0.012595 1.0007 
0.00798316 -0.0267466 1.00057 
0.0103903 -0.0223062 1.0008 
0.0139172 -0.0115458 1.001 
0.0190406 -0.001425 1.00093 
0.0216513 0.00747296 1.00067 
0.0235791 0.0156341 1.00085 
0.0239311 0.0258266 1.00053 
0.0224467 0.043031 1.00006 
0.0142609 0.068272 0.998609 
0.00118894 0.104463 0.995806 
-0.0154119 0.148592 0.990372 
-0.0442884 0.203303 0.979651 
-0.0813202 0.279421 0.958437 
-0.128939 0.365225 0.923659 
-0.190634 0.447647 0.875307 
-0.250569 0.535389 0.808254 
-0.29988 0.625159 0.721996 
-0.356343 0.620194 0.699693 
-0.400498 0.620119 0.67517 
-0.461498 0.687907 0.560253 
-0.534546 0.689313 0.489592 