# vtk DataFile Version 3.0 
Exported using Morpho https://github.com/Morpho-lang/morpho 
ASCII 
DATASET UNSTRUCTURED_GRID 

POINTS 1978 float 
-8.48528 -2.82843 2.99104e-14 
-8.16871 -2.82843 1.39253e-13 
-7.89044 -2.82843 3.12516e-13 
-7.67415 -2.82843 -3.08453e-13 
-7.18398 -2.82843 -1.13366e-12 
-6.9286 -2.82843 -2.19277e-12 
-6.6088 -2.82843 -2.56137e-12 
-6.4142 -2.82843 -1.70916e-12 
-6.25451 -2.82843 -1.52508e-12 
-6.10026 -2.82843 -1.02457e-12 
-5.94286 -2.82843 -7.47413e-13 
-5.77954 -2.82843 -6.24689e-13 
-5.57635 -2.82843 -4.73189e-13 
-5.37513 -2.82843 -3.87519e-13 
-5.13987 -2.82843 1.90444e-13 
-4.88258 -2.82843 1.76228e-12 
-4.62766 -2.82843 5.23821e-12 
-4.41697 -2.82843 9.71115e-12 
-4.21756 -2.82843 1.16155e-11 
-4.06496 -2.82843 1.55104e-11 
-3.9166 -2.82843 1.86852e-11 
-3.758 -2.82843 2.67347e-11 
-3.59838 -2.82843 4.03615e-11 
-3.41547 -2.82843 6.10444e-11 
-3.20428 -2.82843 9.86877e-11 
-2.95274 -2.82843 1.77679e-10 
-2.5504 -2.82843 1.74261e-10 
-2.36833 -2.82843 1.45374e-10 
-2.08838 -2.82843 1.51643e-10 
-1.87365 -2.82843 1.27393e-10 
-1.59765 -2.82843 1.02797e-10 
-1.40441 -2.82843 6.02032e-11 
-1.19529 -2.82843 3.89495e-11 
-1.05879 -2.82843 2.41373e-11 
-0.855137 -2.82843 1.82111e-11 
-0.733822 -2.82843 5.63005e-12 
-0.567039 -2.82843 3.40149e-12 
-0.443786 -2.82843 -2.23502e-11 
-0.0882857 -2.82843 3.95587e-12 
0.0341342 -2.82843 -3.67054e-12 
0.186693 -2.82843 5.38976e-12 
0.300906 -2.82843 -3.36479e-12 
0.46756 -2.82843 1.41696e-12 
0.583354 -2.82843 -3.92976e-12 
0.721809 -2.82843 -1.00178e-11 
0.985173 -2.82843 -1.64228e-11 
1.09927 -2.82843 -3.13856e-11 
1.30955 -2.82843 -6.69029e-11 
1.56704 -2.82843 -8.587e-11 
1.75835 -2.82843 -1.01047e-10 
2.01273 -2.82843 -1.59326e-10 
2.34136 -2.82843 -2.2301e-10 
2.71905 -2.82843 -2.16469e-10 
2.93084 -2.82843 -1.24611e-10 
3.12455 -2.82843 -1.08834e-10 
3.37899 -2.82843 -9.13499e-11 
3.60922 -2.82843 -4.9412e-11 
3.78173 -2.82843 -3.38352e-11 
4.02713 -2.82843 -2.33721e-11 
4.22044 -2.82843 -1.06088e-11 
4.40226 -2.82843 -6.15885e-12 
4.58161 -2.82843 -3.32107e-12 
4.76646 -2.82843 -1.11695e-12 
4.99213 -2.82843 -2.95427e-14 
5.23968 -2.82843 1.94651e-14 
5.43105 -2.82843 -1.03793e-13 
5.65893 -2.82843 2.70829e-13 
5.83196 -2.82843 1.10061e-12 
5.99344 -2.82843 2.07226e-12 
6.16131 -2.82843 2.79899e-12 
6.31812 -2.82843 3.10757e-12 
6.48417 -2.82843 3.4142e-12 
6.68009 -2.82843 4.08961e-12 
6.96492 -2.82843 4.12361e-12 
7.27288 -2.82843 1.49482e-12 
7.49745 -2.82843 2.62079e-13 
7.74152 -2.82843 -8.96103e-13 
8.13879 -2.82843 -1.02961e-12 
8.48528 -2.82843 -1.15715e-12 
-8.48528 -2.49471 -9.55183e-15 
-8.27341 -2.55928 -1.16332e-15 
-8.00457 -2.56926 3.51794e-15 
-8.07807 -2.3008 1.12805e-15 
-7.51543 -2.69599 -1.69321e-15 
-7.05949 -2.60352 6.15701e-15 
-6.76002 -2.64916 -1.28674e-14 
-6.49515 -2.55707 -5.53195e-15 
-6.28434 -2.57232 -1.81377e-14 
-6.18386 -2.36447 -8.8704e-15 
-6.08133 -2.60594 -1.74764e-15 
-5.83306 -2.62688 -2.74396e-15 
-5.52305 -2.64483 -9.37554e-15 
-5.26736 -2.61684 -3.39602e-15 
-5.09002 -2.43954 -1.26808e-14 
-4.96988 -2.62235 -9.12106e-15 
-4.72159 -2.62895 -1.6624e-14 
-4.47694 -2.62362 -4.79437e-15 
-4.26855 -2.64233 -3.57452e-14 
-4.08321 -2.62188 7.05533e-15 
-3.92249 -2.64003 -5.6595e-14 
-3.75902 -2.65566 -5.71825e-15 
-3.56639 -2.67793 -3.83317e-15 
-3.3769 -2.68316 -1.26859e-15 
-3.1288 -2.7046 -1.26864e-14 
-2.88471 -2.69828 -3.4877e-14 
-2.69148 -2.74935 2.81717e-14 
-2.25583 -2.73391 1.16798e-14 
-1.98637 -2.71746 3.35375e-14 
-1.71244 -2.74863 -6.96389e-15 
-1.4624 -2.7296 -7.79839e-14 
-1.27911 -2.74821 -5.611e-14 
-1.11596 -2.71401 -3.72517e-14 
-0.966974 -2.7545 -1.36208e-14 
-0.842522 -2.71303 -7.77556e-14 
-0.727796 -2.65374 6.79067e-14 
-0.682553 -2.748 -4.49979e-14 
-0.44177 -2.69634 -2.12196e-14 
-0.190552 -2.78703 -1.08914e-13 
-0.0601609 -2.70536 8.17052e-15 
0.060078 -2.72177 2.87804e-15 
0.280402 -2.70775 8.14371e-14 
0.501863 -2.70369 7.05043e-14 
0.763194 -2.72191 9.57544e-14 
0.894665 -2.77019 -2.41257e-15 
1.16739 -2.74412 4.89844e-15 
1.31138 -2.70996 -1.68409e-14 
1.44631 -2.76461 4.38709e-14 
1.62491 -2.72371 5.49009e-14 
1.92833 -2.7419 -3.1323e-14 
2.15504 -2.74825 2.9197e-14 
2.59064 -2.75197 -2.91685e-13 
2.83062 -2.68989 -1.92558e-13 
3.03251 -2.65982 1.21846e-13 
3.24232 -2.70287 -5.77552e-14 
3.50014 -2.68009 4.68303e-14 
3.68254 -2.63748 6.28161e-14 
3.89413 -2.70174 -1.04119e-14 
4.10629 -2.66287 3.68765e-14 
4.30084 -2.64251 1.73514e-14 
4.49505 -2.61576 1.00659e-14 
4.68301 -2.57115 5.52669e-15 
4.88384 -2.57452 8.23725e-15 
5.113 -2.58292 5.31895e-15 
5.32621 -2.52521 4.6732e-15 
5.5457 -2.60624 4.77107e-15 
5.7653 -2.56976 5.90257e-15 
5.95337 -2.57005 7.69885e-15 
6.13098 -2.58232 1.47689e-14 
6.31135 -2.56457 1.22852e-14 
6.50782 -2.57245 1.03138e-14 
6.67055 -2.41052 3.45871e-15 
6.76933 -2.64032 5.61549e-15 
7.08519 -2.64862 9.21417e-15 
7.54518 -2.54735 1.10733e-15 
7.81941 -2.64007 -2.79974e-15 
8.22116 -2.29301 2.72048e-16 
8.07061 -2.589 -7.89377e-15 
8.48528 -2.89949 1.12452e-12 
-8.48528 -2.18948 -7.88369e-15 
-8.27606 -2.20427 4.48114e-16 
-7.86049 -2.2493 5.9289e-16 
-7.77592 -2.52797 5.36876e-16 
-7.61199 -2.37879 -7.20452e-16 
-7.34541 -2.5842 -2.63335e-15 
-6.96668 -2.23188 -3.37696e-15 
-6.77805 -2.43821 -6.89855e-15 
-6.63376 -2.283 -9.09397e-15 
-6.40958 -2.31282 -1.23136e-15 
-6.12039 -2.12685 -5.51347e-15 
-5.96157 -2.44505 -5.96457e-15 
-5.65955 -2.49484 -7.88215e-15 
-5.4934 -2.31569 -4.11262e-15 
-5.3372 -2.39591 -1.69775e-15 
-5.09229 -2.2321 -5.96594e-15 
-4.84573 -2.39161 -1.83353e-14 
-4.63207 -2.42895 -1.97575e-14 
-4.47042 -2.35792 -2.6448e-14 
-4.32027 -2.44435 -2.34986e-14 
-4.14292 -2.43884 -1.23729e-14 
-3.96232 -2.44777 -8.30885e-15 
-3.79586 -2.48023 -6.6899e-14 
-3.62305 -2.52511 3.98156e-14 
-3.44101 -2.51313 -9.92333e-14 
-3.24857 -2.5719 9.48122e-14 
-2.98227 -2.5709 1.95292e-13 
-2.46444 -2.6641 -7.43755e-14 
-2.15366 -2.63468 6.04829e-14 
-1.99519 -2.57363 1.00896e-13 
-1.81451 -2.67789 -8.91255e-16 
-1.5832 -2.6697 6.67331e-14 
-1.36702 -2.64036 -5.69365e-14 
-1.22501 -2.63463 -7.90652e-14 
-1.00043 -2.64402 -7.65502e-14 
-0.878786 -2.60385 -1.34809e-14 
-0.555881 -2.70786 -4.49468e-14 
-0.335624 -2.75347 5.25503e-14 
-0.119522 -2.62072 -2.34181e-14 
0.01369 -2.58215 3.30541e-14 
0.170587 -2.70116 -8.7287e-14 
0.391191 -2.75134 -7.86153e-15 
0.629617 -2.71982 -5.43216e-14 
0.878681 -2.65498 2.00819e-14 
1.02704 -2.68094 9.88445e-14 
1.19008 -2.62646 6.87724e-14 
1.32826 -2.59159 6.07281e-14 
1.47188 -2.65959 -4.87396e-14 
1.6504 -2.60698 -1.66684e-14 
1.78705 -2.69324 -3.03866e-14 
2.29818 -2.66235 -2.03259e-13 
2.47044 -2.67061 1.23078e-13 
2.69809 -2.58541 4.42988e-14 
3.15218 -2.53192 -3.95196e-14 
3.3625 -2.58183 -3.28959e-14 
3.55765 -2.48344 1.50932e-14 
3.83304 -2.52886 5.87389e-14 
3.98963 -2.519 -5.62206e-14 
4.15497 -2.47663 9.32718e-14 
4.33115 -2.44787 -9.8374e-15 
4.4957 -2.3929 2.31669e-14 
4.67148 -2.33004 1.16421e-14 
4.85955 -2.3205 1.24425e-15 
5.06724 -2.32847 2.10772e-15 
5.27178 -2.2674 6.45188e-15 
5.5105 -2.3537 4.85601e-15 
5.72572 -2.35176 7.96762e-15 
5.95035 -2.32762 7.41096e-15 
6.1454 -2.33025 8.8409e-15 
6.3382 -2.32834 1.23055e-14 
6.49585 -2.24876 1.04603e-14 
6.80148 -2.22292 6.61171e-15 
6.94272 -2.46425 5.88783e-15 
7.18786 -2.37213 5.44276e-15 
7.32646 -2.55642 1.64688e-15 
7.70436 -2.35617 3.91472e-14 
7.94282 -2.34848 4.45858e-15 
8.35886 -2.51587 -5.73262e-16 
8.48528 -2.76575 1.11701e-13 
-8.48528 -1.89359 -6.58998e-14 
-8.29244 -1.87725 -5.41817e-16 
-8.08255 -1.9966 9.22848e-16 
-7.80611 -2.03213 8.7063e-16 
-7.35135 -2.35051 -1.40181e-15 
-7.09173 -2.3987 -6.16653e-15 
-7.06177 -2.00686 -8.95418e-16 
-6.78423 -2.0767 -2.66353e-15 
-6.53462 -2.04027 6.87998e-16 
-6.31561 -2.10449 -8.74757e-16 
-5.94891 -2.23042 -2.57561e-15 
-5.75368 -2.33104 -6.55851e-15 
-5.65812 -2.14856 -4.16179e-15 
-5.44585 -2.05882 6.18443e-15 
-5.27092 -2.12087 -4.32106e-14 
-5.06993 -1.98869 -5.3688e-15 
-4.89064 -2.14804 -1.21803e-15 
-4.69145 -2.19258 -3.91018e-15 
-4.50984 -2.14556 -4.51865e-15 
-4.32339 -2.1973 -9.32321e-15 
-4.17463 -2.24384 -8.43401e-15 
-3.99682 -2.27799 -1.71826e-14 
-3.80616 -2.31196 2.12817e-14 
-3.62258 -2.36375 1.95968e-15 
-3.33227 -2.38382 -1.37492e-14 
-3.10321 -2.47151 -3.10376e-14 
-2.79064 -2.55261 2.96255e-14 
-2.61365 -2.58301 2.40668e-13 
-2.35107 -2.56971 8.21631e-14 
-2.13722 -2.46833 -1.28967e-13 
-1.84039 -2.55064 1.25393e-13 
-1.66411 -2.55927 6.41804e-14 
-1.48546 -2.56275 -1.09222e-13 
-1.28587 -2.51287 2.79483e-14 
-1.11345 -2.57634 9.19316e-15 
-0.972747 -2.51851 -1.01539e-13 
-0.595904 -2.60947 -1.13352e-13 
-0.335654 -2.61311 -8.87801e-14 
-0.233334 -2.67813 -8.30679e-15 
-0.0810982 -2.48886 -4.82769e-14 
0.24933 -2.58874 5.53143e-14 
0.3797 -2.63256 5.79396e-15 
0.662529 -2.60706 3.88688e-14 
0.770142 -2.5753 1.9526e-14 
0.93872 -2.55537 4.83774e-14 
1.39018 -2.4963 9.11163e-14 
1.52068 -2.54899 -9.60337e-14 
1.73734 -2.52228 -4.66185e-14 
1.89309 -2.59076 -8.95509e-14 
2.05301 -2.62809 -8.76721e-15 
2.45473 -2.50673 1.09688e-13 
2.62315 -2.47601 -6.46468e-14 
2.9022 -2.52599 -2.14294e-13 
3.31444 -2.40689 1.51132e-13 
3.47547 -2.36658 -9.87195e-14 
3.71903 -2.41864 -1.69783e-15 
3.88761 -2.3201 1.14308e-14 
4.03808 -2.30501 6.48005e-15 
4.20854 -2.2818 1.88936e-14 
4.36693 -2.21657 1.21073e-15 
4.53589 -2.16136 4.23608e-15 
4.72113 -2.0922 -1.5089e-14 
4.91274 -2.07875 2.74978e-15 
5.10114 -2.051 1.90892e-15 
5.37151 -2.07886 1.34931e-15 
5.58943 -2.12449 4.08284e-15 
5.82067 -2.13243 2.6019e-15 
6.04568 -2.09435 1.10122e-15 
6.24107 -2.0779 1.62696e-15 
6.4166 -1.99007 -2.44592e-14 
6.6441 -2.06114 1.50494e-15 
7.01177 -2.19021 5.38155e-15 
7.25277 -2.11522 1.50171e-15 
7.44627 -2.27079 -4.33015e-16 
7.54812 -2.05757 -1.92666e-14 
7.76268 -2.07564 6.2613e-16 
7.99709 -2.08968 2.26443e-15 
8.39417 -1.86361 -9.88902e-16 
8.48528 -2.14475 1.17383e-14 
-8.48528 -1.35095 1.75786e-14 
-8.37678 -1.54823 -1.23082e-15 
-8.01978 -1.73498 3.88177e-15 
[...]
POINT_DATA 1978 
VECTORS vectors float
-7.01384e-05 0.000409442 1 
0.000404082 -0.0400128 0.999199 
0.00022653 -0.0357931 0.999359 
0.000179022 -0.00282719 0.999996 
0.000157216 0.065572 0.997848 
0.000264783 0.0942451 0.995549 
0.000293346 0.0980747 0.995179 
0.000318494 0.0943178 0.995542 
0.000399562 0.083755 0.996486 
0.000271475 0.074932 0.997189 
0.000417694 0.0580361 0.998314 
0.000252717 0.0478092 0.998856 
0.000324268 0.0310408 0.999518 
0.000254035 0.0447874 0.998997 
0.000274955 0.0880379 0.996117 
0.000243386 0.146465 0.989216 
0.000216569 0.208586 0.978004 
0.000217367 0.244517 0.969645 
0.000228699 0.265338 0.964155 
0.000216547 0.278923 0.960314 
0.000226772 0.28813 0.957591 
0.000149098 0.305325 0.952248 
0.00014017 0.326374 0.945241 
8.34894e-05 0.348778 0.937205 
6.39945e-05 0.364513 0.931198 
4.95307e-05 0.357365 0.933965 
-1.62371e-05 0.320625 0.947206 
1.6206e-05 0.301747 0.953388 
-4.8439e-05 0.270971 0.962588 
-4.34401e-05 0.24515 0.969485 
-3.3656e-05 0.226253 0.974068 
5.27819e-05 0.226033 0.97412 
8.36822e-05 0.254753 0.967006 
5.01117e-05 0.297491 0.954725 
1.01104e-05 0.422015 0.906589 
0.000118676 0.524154 0.851624 
-0.000102118 0.675774 0.737109 
0.000112856 0.792926 0.609318 
-0.000150708 0.993774 0.111416 
0.00010253 0.994278 -0.106827 
-0.00011606 0.925076 -0.379781 
8.8556e-06 0.857214 -0.51496 
-0.000117723 0.706582 -0.707631 
3.09414e-05 0.584398 -0.811467 
-8.86275e-05 0.430674 -0.902508 
-1.27767e-05 0.247319 -0.968934 
-9.93058e-05 0.197929 -0.980216 
2.27953e-05 0.171434 -0.985196 
4.29987e-05 0.181953 -0.983307 
4.12862e-05 0.197954 -0.980211 
1.03354e-05 0.232538 -0.972587 
1.64771e-05 0.286972 -0.957939 
7.7239e-06 0.362786 -0.931873 
-5.43188e-05 0.396547 -0.918014 
-4.56061e-05 0.404785 -0.914412 
-6.365e-05 0.390981 -0.920399 
-0.00015045 0.361684 -0.932301 
-0.000125112 0.329617 -0.944115 
-0.000158843 0.286308 -0.958138 
-0.000189171 0.242241 -0.970216 
-0.000208572 0.196551 -0.980494 
-0.000214027 0.145719 -0.989326 
-0.000236491 0.0920939 -0.99575 
-0.000233894 0.0399676 -0.999201 
-0.000266765 0.00442148 -0.99999 
-0.000346074 -0.00417931 -0.999991 
-0.00030648 0.0143584 -0.999897 
-0.000443029 0.0402288 -0.99919 
-0.000322666 0.0627455 -0.99803 
-0.000414745 0.080878 -0.996724 
-0.000359178 0.0976194 -0.995224 
-0.000360665 0.105166 -0.994455 
-0.000327292 0.113756 -0.993509 
-0.000330681 0.104394 -0.994536 
-0.00021553 0.0512386 -0.998686 
-0.000522702 0.0194262 -0.999811 
0.000294649 -0.0264006 -0.999651 
-0.00145012 -0.041898 -0.999121 
0.00263117 -0.0210536 -0.999775 
0.000426805 -0.000283187 1 
-0.000548002 -0.0277874 0.999614 
0.00750384 -0.0350551 0.999357 
-0.00176417 -0.0378394 0.999282 
0.0105593 0.0198281 0.999748 
0.0107055 0.0709245 0.997424 
0.0173006 0.0916837 0.995638 
0.0193889 0.0839524 0.996281 
0.0261102 0.0747642 0.996859 
0.0213478 0.0561715 0.998193 
0.0162263 0.0659259 0.997693 
0.0126797 0.0478214 0.998775 
0.0140404 0.0449917 0.998889 
0.00145698 0.0729592 0.997334 
-0.0110053 0.108368 0.99405 
-0.00606525 0.129343 0.991581 
-0.0164744 0.188729 0.981891 
-0.0347295 0.239238 0.97034 
-0.040889 0.265617 0.963211 
-0.0685019 0.289052 0.954859 
-0.0707354 0.301825 0.950736 
-0.0886811 0.318833 0.943653 
-0.102205 0.340355 0.934726 
-0.122847 0.361185 0.924367 
-0.133661 0.367575 0.920339 
-0.165965 0.364962 0.916111 
-0.120722 0.339801 0.932717 
-0.160492 0.28885 0.943826 
-0.189439 0.255117 0.948171 
-0.127868 0.22887 0.965022 
-0.124961 0.217267 0.96808 
-0.0747939 0.234239 0.969298 
-0.087552 0.26337 0.960714 
-0.0404507 0.359078 0.932431 
-0.0430493 0.432392 0.900657 
-0.0578985 0.49897 0.864683 
-0.014977 0.560215 0.828212 
-0.00692178 0.789805 0.613319 
-0.00327766 0.96768 0.252159 
-0.0154316 0.999492 -0.0279018 
-0.0137424 0.980988 -0.193583 
-0.0291086 0.86012 -0.509261 
-0.0205063 0.630227 -0.77614 
0.0206382 0.414519 -0.909807 
0.0274434 0.311271 -0.949925 
0.0874685 0.176341 -0.980435 
0.165792 0.161461 -0.972853 
0.100337 0.172065 -0.979962 
0.176187 0.183698 -0.967064 
0.152572 0.2219 -0.963059 
0.131729 0.252834 -0.9585 
0.132719 0.33955 -0.931178 
0.1989 0.392754 -0.897877 
0.18517 0.406494 -0.894692 
0.130081 0.403545 -0.905666 
0.10532 0.382698 -0.917851 
0.105996 0.358238 -0.927594 
0.0577412 0.314169 -0.947609 
0.046146 0.271439 -0.961349 
0.0371393 0.22728 -0.973121 
0.03178 0.182742 -0.982647 
0.0255105 0.134496 -0.990586 
0.00975093 0.0832609 -0.99648 
-0.00385762 0.0398229 -0.999199 
-0.0142393 0.0236037 -0.99962 
-0.0233915 0.0169917 -0.999582 
-0.0348982 0.0344434 -0.998797 
-0.0390174 0.0508901 -0.997942 
-0.0421455 0.0669919 -0.996863 
-0.0414382 0.0821254 -0.99576 
-0.0372898 0.0971509 -0.994571 
-0.0406343 0.0932954 -0.994809 
-0.0237285 0.101845 -0.994517 
-0.0230064 0.0792457 -0.99659 
-0.0164651 0.00299211 -0.99986 
-0.0168689 -0.0278835 -0.999469 
-0.00356994 -0.0392246 -0.999224 
-0.0178366 -0.0296615 -0.999401 
0.00199046 0.00533933 -0.999984 
-0.00015981 5.33042e-06 1 
-0.00374811 -0.0284402 0.999588 
-0.00375781 -0.0295104 0.999557 
0.00772241 -0.0183837 0.999801 
0.00479095 0.000472323 0.999988 
0.0122141 0.0390013 0.999165 
0.00727344 0.065428 0.997831 
0.0193693 0.0823558 0.996415 
0.0154833 0.0761807 0.996974 
0.0142126 0.0682606 0.997566 
0.00632249 0.0488617 0.998786 
0.0194274 0.0511919 0.9985 
0.0170811 0.0440768 0.998882 
-0.000410712 0.0598483 0.998207 
-0.0062142 0.0774658 0.996976 
-0.0364688 0.134583 0.990231 
-0.0353147 0.170031 0.984806 
-0.0518014 0.220298 0.974056 
-0.0872993 0.261473 0.961255 
-0.0902689 0.278202 0.956271 
-0.12534 0.308318 0.94299 
-0.158989 0.33523 0.928624 
-0.171649 0.347433 0.921861 
-0.200024 0.363316 0.909941 
-0.237377 0.378748 0.89454 
-0.259302 0.387277 0.884748 
-0.334817 0.381795 0.861469 
-0.247922 0.314143 0.916433 
-0.340249 0.282705 0.896832 
-0.429891 0.251819 0.867053 
-0.255145 0.233931 0.938178 
-0.261463 0.20578 0.943023 
-0.218626 0.20545 0.953935 
-0.184362 0.225418 0.95666 
-0.107578 0.304069 0.946556 
-0.110327 0.377086 0.919584 
-0.00977073 0.686429 0.727131 
-0.00397994 0.884956 0.465657 
-0.0158867 0.99108 0.132316 
-0.0302443 0.994868 -0.0965572 
-0.0179179 0.937646 -0.347129 
-0.0136619 0.767217 -0.641242 
0.009269 0.496076 -0.86823 
0.0895765 0.301731 -0.949176 
0.10888 0.204468 -0.972799 
0.220296 0.148908 -0.964 
0.305215 0.145672 -0.941076 
0.273219 0.163923 -0.947882 
0.389435 0.179826 -0.903329 
0.244791 0.198813 -0.948973 
0.283699 0.282978 -0.916209 
0.220548 0.316598 -0.922564 
0.353525 0.374495 -0.857189 
0.316214 0.428059 -0.846625 
0.218442 0.412732 -0.884271 
0.251257 0.413728 -0.875042 
0.144556 0.355678 -0.923362 
0.134262 0.332125 -0.933631 
0.0961914 0.289449 -0.952348 
0.0918838 0.256498 -0.962167 
0.0765135 0.215921 -0.973408 
0.0636384 0.174917 -0.982524 
0.0432913 0.126638 -0.991004 
0.0185928 0.0787789 -0.996719 
0.000918705 0.0537185 -0.998556 
-0.021903 0.028712 -0.999348 
-0.0372874 0.0332503 -0.998751 
-0.043112 0.045106 -0.998052 
-0.0475284 0.0584731 -0.997157 
-0.0500029 0.0727152 -0.996098 
-0.0454326 0.078247 -0.995898 
-0.0372122 0.0804834 -0.996061 
-0.0333866 0.0813323 -0.996128 
-0.0293932 0.052246 -0.998202 
-0.0198259 0.0369498 -0.99912 
-0.0140935 -0.0171996 -0.999753 
-0.0107546 -0.0393776 -0.999167 
-0.0091397 -0.0228506 -0.999697 
-0.00228664 -0.00103142 -0.999997 
0.0002381 -5.72627e-05 1 
-0.0115094 -0.0280109 0.999541 
-0.0152132 -0.041455 0.999025 
-0.0157819 -0.0264255 0.999526 
0.00742041 0.0276812 0.999589 
0.0132589 0.0553757 0.998378 
-0.0123468 0.0583259 0.998221 
-0.00308507 0.0691543 0.997601 
-0.00666153 0.0629453 0.997995 
0.000985276 0.0566275 0.998395 
0.00859675 0.043378 0.999022 
0.0140965 0.0441012 0.998928 
-0.00508618 0.0506028 0.998706 
-0.0293659 0.073683 0.996849 
-0.0337519 0.101485 0.994264 
-0.0616587 0.152225 0.986421 
-0.0722828 0.192556 0.97862 
-0.0921618 0.232892 0.968126 
-0.135032 0.286355 0.948561 
-0.1658 0.324396 0.931277 
-0.193922 0.351367 0.915934 
-0.231433 0.37706 0.896808 
-0.278166 0.398606 0.87392 
-0.308351 0.408358 0.859164 
-0.389803 0.429131 0.8148 
-0.375352 0.402936 0.834718 
-0.374109 0.369678 0.850518 
-0.393933 0.349443 0.850122 
-0.426828 0.318695 0.846316 
-0.520803 0.280343 0.806332 
-0.470301 0.219794 0.854697 
-0.428742 0.190069 0.883207 
-0.354924 0.179906 0.917422 
-0.367465 0.17231 0.913936 
-0.232798 0.227897 0.945446 
-0.19986 0.280215 0.938901 
-0.0303461 0.625018 0.78002 
-0.0075061 0.876296 0.481714 
-0.00820814 0.944003 0.329833 
-0.0301561 0.996597 0.0767112 
-0.0440526 0.872428 -0.486753 
-0.0362315 0.731428 -0.680956 
0.037221 0.477569 -0.877805 
0.0986794 0.353186 -0.930334 
0.174828 0.203658 -0.963306 
0.446355 0.125871 -0.885959 
0.467869 0.152631 -0.870518 
0.540695 0.192557 -0.818884 
0.415306 0.216788 -0.883472 
0.357695 0.243017 -0.901664 
0.467657 0.332249 -0.81909 
0.494807 0.362191 -0.789927 
0.400264 0.413108 -0.818004 
0.365462 0.448291 -0.815765 
0.373446 0.460356 -0.805363 
0.244726 0.406783 -0.880134 
0.248837 0.398546 -0.882746 
0.207396 0.364227 -0.907924 
0.167476 0.323729 -0.93121 
0.152596 0.293954 -0.94356 
0.126531 0.252696 -0.959236 
0.104888 0.2159 -0.970766 
0.0701029 0.159438 -0.984716 
0.0430787 0.112476 -0.99272 
0.00914039 0.0569075 -0.998338 
-0.0120482 0.0362553 -0.99927 
-0.0228312 0.0368959 -0.999058 
-0.0249543 0.044891 -0.99868 
-0.0274244 0.054558 -0.998134 
-0.0213185 0.0617669 -0.997863 
-0.0280124 0.0733839 -0.99691 
-0.0307115 0.0652673 -0.997395 
-0.0170141 0.037997 -0.999133 
-0.0153677 0.0172726 -0.999733 
-0.000286323 -0.00232135 -0.999997 
0.00279967 -0.0314822 -0.9995 
0.00594946 -0.0494663 -0.998758 
0.00384313 -0.0219629 -0.999751 
0.000756433 -0.000787569 -0.999999 
-0.000234989 -9.2757e-05 1 
-0.00996115 -0.0164442 0.999815 
-0.0280916 -0.0476746 0.998468 
-0.00730327 0.00640978 0.999953 
-0.0212177 0.0181834 0.99961 
0.00116572 0.0415296 0.999137 
-0.0297252 0.0393289 0.998784 
-0.0279669 0.0583861 0.997902 
-0.0248764 0.0605799 0.997853 
-0.0246613 0.0568769 0.998077 
-0.0196342 0.0492356 0.998594 
-0.0157732 0.0472397 0.998759 
-0.0150099 0.0450076 0.998874 
-0.0312972 0.0591917 0.997756 
-0.0514755 0.0994299 0.993712 
-0.0646235 0.136902 0.988474 
-0.0978972 0.211057 0.972559 
-0.122856 0.25794 0.958318 
-0.166232 0.319718 0.932817 
-0.209401 0.368709 0.905651 
-0.255904 0.409982 0.875459 
-0.296851 0.434194 0.850503 
-0.336824 0.448201 0.828049 
-0.391151 0.463131 0.795305 
-0.412169 0.451406 0.791422 
-0.485599 0.445859 0.751933 
-0.550531 0.42481 0.718646 
-0.593059 0.398708 0.699509 
-0.586504 0.353473 0.728746 
-0.620268 0.304566 0.722846 
-0.640409 0.249056 0.726531 
-0.636278 0.202882 0.744304 
-0.575724 0.160041 0.801828 
-0.48629 0.148991 0.861002 
-0.384795 0.166446 0.90787 
-0.34288 0.185883 0.920804 
-0.116922 0.485986 0.86611 
-0.0140446 0.751853 0.659181 
-0.0193613 0.966181 0.257135 
-0.0367437 0.999241 0.0129573 
-0.0317924 0.96722 -0.251942 
-0.0510872 0.696138 -0.716087 
-0.0325287 0.614445 -0.788289 
0.193329 0.232372 -0.953219 
0.408524 0.10937 -0.906171 
0.618593 0.145094 -0.772198 
0.721915 0.175722 -0.669299 
0.629572 0.224106 -0.743919 
0.546609 0.251382 -0.798765 
0.555396 0.282068 -0.782287 
0.571139 0.319141 -0.756274 
0.570912 0.417265 -0.707071 
0.503665 0.455762 -0.733896 
0.529366 0.485955 -0.695427 
0.476651 0.521113 -0.707986 
0.360607 0.464141 -0.809034 
0.361677 0.476171 -0.80153 
0.314131 0.450562 -0.835653 
0.255862 0.402404 -0.87898 
0.221657 0.368689 -0.902739 
0.183645 0.324068 -0.928038 
0.151999 0.284425 -0.946572 
0.111879 0.223566 -0.968247 
0.0803326 0.171271 -0.981944 
0.0419885 0.0996119 -0.99414 
0.0175042 0.0560588 -0.998274 
0.00168166 0.0385214 -0.999256 
-0.00432709 0.0370928 -0.999302 
-0.00432947 0.0416906 -0.999121 
-0.00224996 0.0525383 -0.998616 
-0.00548151 0.0627838 -0.998012 
-0.0127341 0.0643072 -0.997849 
-0.00555654 0.0488794 -0.998789 
0.00160484 0.0175445 -0.999845 
0.0145123 -0.0190509 -0.999713 
0.0124491 -0.0462807 -0.998851 
0.0158976 -0.0554145 -0.998337 
0.00758714 -0.0365563 -0.999303 
0.000403083 -0.000607018 -1 
-0.000249307 -8.28336e-05 1 
-0.025642 -0.0336192 0.999106 
-0.0213354 -0.0411272 0.998926 
-0.0289698 -0.0291943 0.999154 
-0.0329638 -0.011064 0.999395 
-0.0401476 0.0162479 0.999062 
-0.0397524 0.0435518 0.99826 
-0.0397135 0.0532455 0.997791 
-0.0382912 0.0551279 0.997745 
-0.0346613 0.0476572 0.998262 
-0.0345232 0.0432913 0.998466 
-0.0332897 0.04679 0.99835 
-0.0341024 0.0525118 0.998038 
-0.0457669 0.0812499 0.995642 
-0.0659661 0.149962 0.986489 
-0.0869355 0.189147 0.978093 
-0.125508 0.269772 0.95471 
-0.1519 0.307685 0.939285 
-0.194335 0.376736 0.905706 
-0.233867 0.417679 0.877981 
-0.290965 0.478282 0.828605 
-0.344849 0.510062 0.787982 
-0.392855 0.519883 0.758543 
-0.453058 0.533801 0.714 
-0.506797 0.524439 0.684194 
-0.553233 0.5063 0.661509 
-0.612683 0.489258 0.620682 
-0.679896 0.465162 0.566892 
-0.738664 0.424561 0.523568 
-0.719255 0.369819 0.588138 
-0.771351 0.32945 0.5445 
-0.793894 0.280908 0.53928 
-0.797998 0.217203 0.562159 
-0.732564 0.165449 0.660285 
-0.690897 0.121366 0.712693 
-0.614212 0.111187 0.781269 
-0.205492 0.345973 0.915465 
-0.169116 0.509128 0.843913 
-0.0072904 0.8544 0.519565 
-0.0315474 0.977357 0.209232 
-0.0483572 0.915803 -0.398706 
-0.0534345 0.796285 -0.602558 
0.182613 0.308818 -0.933426 
0.554288 0.0601662 -0.830148 
0.606654 0.0976714 -0.788943 
0.843516 0.208942 -0.494797 
0.766952 0.235472 -0.59694 
0.724202 0.278786 -0.630722 
0.759372 0.341172 -0.554035 
0.713232 0.376002 -0.591543 
0.731594 0.435487 -0.52452 
0.672343 0.473329 -0.569135 
0.659917 0.528829 -0.533714 
0.557321 0.522856 -0.644992 
0.477145 0.553114 -0.682933 
0.436221 0.564108 -0.701066 
0.39078 0.55051 -0.737719 
0.320743 0.488225 -0.81164 
0.267808 0.4438 -0.855173 
0.222146 0.397149 -0.890463 
0.189364 0.366549 -0.910924 
0.148277 0.301432 -0.941888 
0.113554 0.25173 -0.961113 
0.0742259 0.16924 -0.982776 
0.0448878 0.0996723 -0.994007 
0.0306729 0.0708937 -0.997012 
0.0179512 0.0451784 -0.998818 
0.010501 0.0344405 -0.999352 
0.00748297 0.0343306 -0.999383 
0.00751147 0.0398808 -0.999176 
0.00814962 0.0516039 -0.998634 
0.00573101 0.0555251 -0.998441 
0.0116646 0.0413274 -0.999078 
0.0192625 0.0111247 -0.999753 
0.021745 -0.0357623 -0.999124 
0.0226365 -0.0548189 -0.99824 
0.0200141 -0.0380363 -0.999076 
0.011687 -0.02629 -0.999586 
-0.000155663 3.61086e-05 -1 
0.000121729 -1.98415e-05 1 
-0.0189672 -0.0233653 0.999547 
-0.0368093 -0.0429223 0.9984 
-0.0412545 -0.0289893 0.998728 
-0.0431615 -0.00693556 0.999044 
-0.048828 0.0219132 0.998567 
-0.0461942 0.0414563 0.998072 
-0.042718 0.0508544 0.997792 
-0.0396355 0.0494249 0.997991 
-0.0340958 0.0407018 0.998589 
-0.0307986 0.0384381 0.998786 
-0.0335049 0.0472433 0.998321 
-0.0377925 0.0575722 0.997626 
-0.0439734 0.0837828 0.995513 
-0.0486189 0.119777 0.99161 
-0.0753691 0.205867 0.975673 
-0.101064 0.24806 0.963458 
-0.144097 0.345821 0.92717 
-0.181034 0.394922 0.900702 
-0.227194 0.468043 0.854002 
-0.273028 0.509986 0.815702 
-0.338572 0.583554 0.738128 
-0.402633 0.604249 0.687583 
-0.473266 0.616719 0.629029 
-0.543851 0.613075 0.573031 
-0.61254 0.598299 0.516559 
-0.670171 0.571059 0.474091 
-0.724116 0.534434 0.435931 
-0.78709 0.498031 0.363943 
-0.840558 0.461037 0.284442 
-0.840649 0.404643 0.359963 
-0.862611 0.362516 0.352822 
-0.906232 0.311664 0.285674 
-0.895299 0.241664 0.374217 
-0.88309 0.159011 0.441439 
-0.823575 0.112835 0.555871 
-0.568961 0.112946 0.814571 
-0.308212 0.304777 0.901175 
-0.0659786 0.635594 0.769199 
-0.0301931 0.997108 0.0697417 
0.0350012 0.504274 -0.862834 
0.335633 0.0953743 -0.937152 
0.298825 0.130589 -0.945331 
0.765573 0.0790807 -0.63847 
0.775398 0.125242 -0.618928 
0.909727 0.25051 -0.331122 
0.858477 0.279926 -0.42972 
0.838672 0.323811 -0.437923 
0.867915 0.390538 -0.306927 
0.842678 0.435907 -0.316035 
0.798794 0.489015 -0.350419 
0.749987 0.542561 -0.378347 
0.686235 0.606766 -0.401145 
0.586017 0.589264 -0.556194 
0.540531 0.64004 -0.546054 
0.504903 0.675323 -0.537598 
0.426764 0.650543 -0.628225 
0.347834 0.568023 -0.745896 
0.291924 0.525189 -0.799348 
0.242541 0.476377 -0.845127 
0.197822 0.433672 -0.879088 
0.156483 0.360999 -0.919344 
0.120405 0.313558 -0.941904 
0.0842384 0.227195 -0.970199 
0.0527122 0.143238 -0.988284 
0.0323792 0.0921373 -0.99522 
0.0197876 0.0510011 -0.998503 
0.0140052 0.0341247 -0.999319 
0.0106395 0.0290553 -0.999521 
0.0104901 0.0328784 -0.999404 
0.0133762 0.0455587 -0.998872 
0.0174241 0.0488065 -0.998656 
0.0232956 0.0407032 -0.9989 
0.0286977 0.00316309 -0.999583 
0.0334796 -0.0211267 -0.999216 
0.0313257 -0.0499624 -0.99826 
0.0380313 -0.0440321 -0.998306 
0.0251908 -0.0356024 -0.999048 
0.000155174 -0.000100627 -1 
0.000187642 -0.000140411 1 
-0.0297001 -0.0329381 0.999016 
-0.0377156 -0.0416194 0.998421 
-0.047089 -0.0210349 0.998669 
-0.0503218 0.00500226 0.998721 
-0.0502674 0.0315572 0.998237 
-0.045863 0.0444075 0.99796 
-0.0408942 0.0394631 0.998384 
-0.037219 0.0410834 0.998462 
-0.0272615 0.0329073 0.999087 
-0.0203813 0.0324298 0.999266 
-0.0231297 0.0485338 0.998554 
-0.0294039 0.0773325 0.996572 
-0.0396105 0.132871 0.990341 
-0.0606333 0.206181 0.976634 
-0.0856112 0.293923 0.951988 
-0.109929 0.30837 0.944893 
-0.126355 0.400885 0.907373 
-0.163995 0.435416 0.885166 
-0.212065 0.507644 0.83506 
-0.257877 0.579101 0.773396 
-0.310912 0.639232 0.70336 
-0.372257 0.694375 0.615847 
-0.438094 0.701787 0.561755 
-0.510305 0.718102 0.473201 
-0.581383 0.707473 0.40184 
-0.66046 0.679552 0.319377 
-0.730422 0.641998 0.233072 
-0.780541 0.592956 0.197887 
-0.831912 0.5419 0.119439 
-0.872893 0.487871 0.00632509 
-0.898106 0.437188 0.0476752 
-0.916496 0.395029 0.0631451 
-0.937037 0.348338 0.0249453 
-0.954416 0.274718 0.116707 
-0.951375 0.18343 0.247463 
-0.82478 0.0781585 0.560026 
-0.429042 0.11934 0.895366 
-0.00532611 0.761442 0.648211 
-0.0412563 0.982505 -0.18161 
-0.0416266 0.588965 -0.807086 
0.406857 0.0243454 -0.913167 
0.8834 0.173521 -0.435309 
0.96031 0.276968 -0.0330641 
0.946738 0.224178 -0.231154 
0.930807 0.356442 0.0809202 
0.916655 0.336012 -0.216425 
0.917082 0.39223 -0.0715297 
0.893319 0.447328 -0.0433392 
0.855675 0.507674 -0.100432 
0.808158 0.571257 -0.143336 
0.75016 0.623289 -0.22084 
0.623271 0.658106 -0.42241 
0.589592 0.734485 -0.336026 
0.494058 0.760998 -0.420463 
0.42051 0.75309 -0.505991 
0.366643 0.663343 -0.652341 
0.306016 0.61636 -0.725572 
0.248553 0.550927 -0.796681 
0.202436 0.515598 -0.832574 
0.161037 0.433223 -0.886784 
0.126644 0.399326 -0.90802 
0.0942281 0.304316 -0.947899 
0.0612576 0.214762 -0.974743 
0.03713 0.148697 -0.988186 
0.0202086 0.084701 -0.996201 
0.0118058 0.0487642 -0.998741 
0.00797581 0.0318288 -0.999462 
0.00637901 0.0261992 -0.999636 
0.0121415 0.0317895 -0.999421 
0.0195657 0.038616 -0.999063 
0.0248345 0.0435614 -0.998742 
0.0318768 0.0364051 -0.998829 
0.0348358 0.0180414 -0.99923 
0.042569 0.0203676 -0.998886 
0.0415453 -0.0122102 -0.999062 
0.0465826 -0.0359011 -0.998269 
0.0307098 -0.0356241 -0.998893 
-0.00018696 -2.73928e-05 -1 
0.000205593 0.000117112 1 
-0.026045 -0.0351477 0.999043 
-0.0361712 -0.0374258 0.998645 
-0.0500055 -0.0141589 0.998649 
-0.0502018 0.00846596 0.998703 
-0.0507028 0.0261721 0.998371 
-0.0455205 0.0349806 0.998351 
-0.0331727 0.0279837 0.999058 
-0.0240478 0.026453 0.999361 
-0.0132328 0.0233013 0.999641 
-0.00635132 0.0278072 0.999593 
-0.00962281 0.0447467 0.998952 
-0.0149706 0.0784269 0.996807 
-0.0229027 0.124878 0.991908 
-0.0358838 0.191969 0.980745 
-0.0536792 0.273405 0.9604 
-0.0858035 0.357912 0.929805 
-0.0968496 0.437887 0.893798 
-0.136415 0.483841 0.864459 
-0.179692 0.531538 0.827755 
-0.20226 0.632475 0.747708 
-0.244541 0.648286 0.721059 
-0.298337 0.725464 0.62024 
-0.358786 0.789969 0.497213 
-0.439325 0.805594 0.397507 
-0.508727 0.81611 0.274154 
-0.584224 0.790382 0.184335 
-0.657164 0.750379 0.0711772 
-0.717455 0.695188 -0.0444023 
-0.778688 0.618239 -0.106888 
-0.80721 0.549294 -0.216074 