# vtk DataFile Version 3.0 
Exported using Morpho https://github.com/Morpho-lang/morpho 
ASCII 
DATASET UNSTRUCTURED_GRID 

POINTS 1978 float 
-8.48529 -2.82839 -5.35991e-07 
-8.30572 -2.82837 -3.44462e-07 
-8.09425 -2.82862 -1.1284e-05 
-7.88542 -2.82786 2.02298e-05 
-7.2606 -2.82795 -2.13914e-05 
-6.96497 -2.82845 1.90431e-05 
-6.74192 -2.82839 1.14931e-06 
-6.52813 -2.82836 -7.0124e-06 
-6.34805 -2.82834 3.60763e-05 
-6.16807 -2.82827 -5.85708e-05 
-5.96655 -2.82873 -1.48536e-05 
-5.76868 -2.82796 6.07756e-05 
-5.45347 -2.82825 -3.67568e-05 
-5.22 -2.82838 5.77993e-05 
-4.9787 -2.82833 -4.70153e-05 
-4.78872 -2.82838 2.79303e-05 
-4.5815 -2.82837 1.11311e-05 
-4.37852 -2.82839 2.6181e-05 
-4.19466 -2.82837 3.29813e-05 
-4.042 -2.82839 3.42733e-05 
-3.89952 -2.8284 4.8499e-05 
-3.75916 -2.82837 5.99291e-05 
-3.58685 -2.82846 7.90579e-05 
-3.41185 -2.82847 8.74448e-05 
-3.23997 -2.82838 9.30489e-05 
-3.00761 -2.82847 8.13859e-05 
-2.8556 -2.82842 9.68628e-05 
-2.60405 -2.82848 9.0572e-05 
-2.34446 -2.82856 6.03593e-05 
-2.01645 -2.82846 5.44408e-05 
-1.40538 -2.82835 1.16992e-05 
-1.18644 -2.82839 7.99775e-06 
-1.02471 -2.82845 4.91035e-06 
-0.897286 -2.82843 6.27273e-06 
-0.76482 -2.82843 4.56245e-06 
-0.604316 -2.82846 7.76694e-07 
-0.425537 -2.82845 -7.27336e-06 
-0.245776 -2.82844 -2.84054e-06 
-0.120505 -2.82838 2.40166e-06 
0.000450365 -2.82836 3.13847e-06 
0.109125 -2.82839 1.65404e-06 
0.234825 -2.82851 -2.14453e-06 
0.366301 -2.82844 -3.04293e-07 
0.52886 -2.82843 -5.58341e-06 
0.679752 -2.82842 -6.92843e-06 
0.803038 -2.82848 -7.4369e-06 
0.929978 -2.82842 -8.12534e-06 
1.1653 -2.82833 -1.7401e-07 
1.53623 -2.82839 1.11522e-05 
1.94073 -2.82844 -3.4881e-06 
2.40236 -2.82847 -4.73952e-05 
2.61967 -2.82853 -7.19234e-05 
2.80302 -2.82848 -0.000102014 
3.00979 -2.82848 -0.000117153 
3.21809 -2.82854 -0.000116901 
3.42502 -2.82848 -0.000101614 
3.59474 -2.82841 -7.46941e-05 
3.7689 -2.8284 -7.58678e-05 
3.97782 -2.82841 -6.03582e-05 
4.18884 -2.82841 -3.7961e-05 
4.37677 -2.82833 -3.01082e-05 
4.59363 -2.82835 -1.40466e-05 
4.73989 -2.82841 -3.63969e-06 
4.89606 -2.82834 -3.31175e-06 
5.09405 -2.82838 -5.696e-07 
5.27523 -2.82835 -4.6667e-06 
5.45678 -2.82823 -7.1711e-06 
5.64758 -2.82828 8.05815e-06 
5.82362 -2.82845 5.45066e-06 
5.98535 -2.82835 1.31047e-06 
6.12985 -2.82828 -2.05013e-05 
6.26842 -2.82849 2.03553e-05 
6.52867 -2.82824 -4.40003e-06 
6.87025 -2.8283 -5.11705e-06 
7.1438 -2.82806 5.80841e-06 
7.93185 -2.82812 -8.01556e-06 
8.09703 -2.82841 2.68317e-05 
8.28168 -2.82836 -1.07976e-05 
8.48586 -2.82833 -5.67264e-05 
-8.48524 -2.64757 6.18893e-06 
-8.17067 -2.53883 -6.46603e-07 
-8.08114 -2.34012 -1.72626e-07 
-7.87044 -2.62281 -2.36175e-06 
-7.543 -2.71618 -9.43219e-07 
-6.92639 -2.65767 6.42542e-07 
-6.61217 -2.60689 -1.14145e-06 
-6.45092 -2.37881 -1.30846e-07 
-6.392 -2.5809 6.259e-07 
-6.19698 -2.58517 8.52608e-08 
-5.96097 -2.61038 -3.61651e-06 
-5.68106 -2.66005 -6.52203e-06 
-5.43294 -2.58765 5.61722e-07 
-5.21856 -2.62648 -4.64162e-06 
-5.00153 -2.59692 -2.11496e-06 
-4.85068 -2.57248 2.23577e-06 
-4.69028 -2.64768 -3.43247e-06 
-4.49544 -2.66836 -2.95473e-06 
-4.31366 -2.68495 -2.03176e-06 
-4.14253 -2.6888 -1.13749e-05 
-3.99732 -2.69102 -9.62534e-07 
-3.8591 -2.69117 -1.4974e-05 
-3.70063 -2.72748 -4.61882e-06 
-3.5542 -2.71204 -1.23108e-05 
-3.39417 -2.71153 1.318e-05 
-3.09616 -2.73724 1.89751e-05 
-2.78258 -2.73722 -6.70327e-06 
-2.5056 -2.73473 -1.9536e-05 
-2.19525 -2.75615 -2.83506e-05 
-1.79837 -2.78881 -8.34733e-06 
-1.54471 -2.74844 2.81795e-06 
-1.29807 -2.72683 -3.05114e-07 
-1.11046 -2.70194 3.87882e-07 
-0.978812 -2.68568 -1.7945e-06 
-0.836391 -2.71285 3.5745e-06 
-0.680473 -2.73801 -1.04151e-06 
-0.5029 -2.74912 -4.30861e-07 
-0.280271 -2.73836 -5.47177e-06 
-0.143939 -2.71163 8.91335e-06 
-0.0164845 -2.71254 -4.97887e-06 
0.104068 -2.70658 -1.25739e-05 
0.219673 -2.73138 4.13623e-06 
0.397884 -2.73773 -1.87684e-06 
0.592153 -2.72408 -2.2892e-06 
0.814194 -2.69638 8.01875e-07 
1.03401 -2.62762 -2.04925e-06 
1.02152 -2.75049 -3.86522e-07 
1.3609 -2.75471 2.76309e-08 
1.70504 -2.76514 -5.10061e-06 
2.21781 -2.76945 -3.46365e-06 
2.50635 -2.72416 1.53383e-05 
2.73644 -2.73157 3.39811e-05 
2.96997 -2.73017 4.1087e-05 
3.16236 -2.71656 1.69104e-05 
3.34957 -2.73404 -4.35183e-06 
3.58431 -2.71005 1.03708e-05 
3.78737 -2.72979 1.64786e-05 
3.98692 -2.72446 6.3311e-06 
4.19302 -2.71462 6.53324e-06 
4.40769 -2.70968 7.78107e-06 
4.57135 -2.65995 2.73595e-06 
4.75127 -2.6064 1.44397e-06 
4.93476 -2.60452 2.56608e-06 
5.09674 -2.5308 1.80503e-06 
5.26456 -2.55681 -3.09542e-07 
5.47651 -2.58506 3.88771e-08 
5.68324 -2.58754 2.96692e-07 
5.86522 -2.54381 8.791e-07 
6.03777 -2.51625 -1.86713e-06 
6.19633 -2.51395 1.12208e-06 
6.40515 -2.41067 -9.38065e-07 
6.36358 -2.65922 2.34523e-06 
6.67677 -2.68376 2.71539e-06 
7.07856 -2.60946 1.48116e-07 
7.45617 -2.74445 -1.0021e-06 
7.75355 -2.64387 1.2148e-07 
8.26573 -2.45863 6.45432e-06 
8.26919 -2.09735 6.01879e-06 
8.48491 -3.02559 4.07624e-05 
-8.4851 -2.46066 -3.70006e-06 
-8.3419 -2.29277 7.81073e-07 
-7.90913 -2.23947 7.5138e-08 
-7.71264 -2.47067 -2.98866e-07 
-7.52544 -2.38388 3.9677e-07 
-7.32158 -2.57512 1.28277e-06 
-7.05922 -2.52557 1.0263e-06 
-6.73245 -2.44878 3.21698e-07 
-6.59585 -2.22115 5.17371e-07 
-6.22146 -2.31737 9.23119e-07 
-6.03249 -2.31443 3.57466e-06 
-5.87747 -2.43225 -1.84933e-06 
-5.61077 -2.47971 3.05572e-06 
-5.4058 -2.20949 7.91409e-08 
-5.29821 -2.40509 3.1628e-06 
-5.08059 -2.40196 1.89929e-06 
-4.90097 -2.29402 1.07407e-06 
-4.73313 -2.42214 -3.18659e-07 
-4.55634 -2.49586 -1.7042e-06 
-4.3677 -2.51636 -2.50195e-06 
-4.20773 -2.5548 -2.81473e-06 
-4.04812 -2.55062 1.30198e-05 
-3.91215 -2.5512 -9.41114e-06 
-3.75145 -2.61302 -7.80123e-07 
-3.60245 -2.58225 -2.19967e-05 
-3.25093 -2.68098 -3.88275e-05 
-2.96021 -2.66771 -4.54399e-05 
-2.68964 -2.65189 -1.16497e-05 
-2.36812 -2.67501 -8.53038e-06 
-1.96059 -2.70176 -1.90721e-05 
-1.68671 -2.67001 2.53375e-06 
-1.43474 -2.64723 7.15391e-06 
-1.19887 -2.60154 1.57568e-06 
-1.04805 -2.53263 6.81068e-06 
-0.897795 -2.58467 -2.38214e-06 
-0.691467 -2.63472 -3.45675e-06 
-0.513895 -2.65757 2.29242e-06 
-0.3642 -2.69625 1.0665e-05 
-0.16266 -2.60432 8.48192e-06 
-0.00883853 -2.60595 4.51574e-06 
0.144013 -2.61033 -6.20727e-06 
0.275308 -2.66563 5.86878e-06 
0.469115 -2.67712 -6.99126e-06 
0.707181 -2.65815 -4.90911e-06 
0.884653 -2.61784 -9.1097e-07 
1.12375 -2.52958 3.80867e-06 
1.22157 -2.67849 -3.56551e-06 
1.51814 -2.65554 -6.40374e-06 
1.73092 -2.64524 -7.68173e-07 
1.96291 -2.7141 -6.59596e-06 
2.60444 -2.62467 -1.69001e-06 
2.83365 -2.63843 1.36377e-06 
3.07885 -2.60487 1.12167e-05 
3.29054 -2.60846 1.32821e-05 
3.49799 -2.64621 3.6129e-05 
3.70031 -2.62057 1.63526e-05 
3.86528 -2.61981 -1.43005e-05 
4.02306 -2.59775 6.67244e-06 
4.20252 -2.60072 6.91738e-06 
4.39809 -2.54799 -3.44351e-06 
4.57894 -2.48203 -1.33021e-06 
4.77508 -2.41908 -3.89775e-06 
4.94228 -2.34961 -3.44305e-06 
5.09345 -2.23833 -4.23605e-06 
5.25087 -2.28771 -6.45701e-07 
5.44118 -2.34979 -4.43186e-06 
5.67236 -2.34565 -1.42675e-06 
5.91476 -2.31072 -3.16449e-06 
6.13447 -2.24564 -1.66819e-06 
6.31519 -2.22593 -1.64736e-06 
6.55907 -2.52144 -2.55607e-07 
6.7375 -2.36518 -2.10865e-06 
6.86875 -2.54309 -3.76969e-07 
7.00755 -2.28885 -1.0067e-06 
7.33457 -2.51611 5.29313e-07 
7.56413 -2.45409 1.13461e-07 
7.86808 -2.3304 8.26273e-08 
8.05337 -2.5072 3.64205e-07 
8.48501 -2.62571 -2.63666e-06 
-8.4849 -2.0056 6.82276e-07 
-8.24555 -2.03724 1.26018e-07 
-8.05283 -1.95009 2.24185e-07 
-7.71483 -2.1059 3.61126e-07 
-7.37846 -2.22036 3.33929e-08 
-7.16641 -2.3079 -1.23055e-07 
-6.81359 -2.04177 1.4355e-07 
-6.89373 -2.2948 7.76022e-07 
-6.60924 -2.028 3.70907e-07 
-6.33628 -2.13542 6.34519e-07 
-5.87392 -2.08354 8.16033e-07 
-5.74015 -2.24214 3.98933e-06 
-5.54828 -2.22931 5.78066e-06 
-5.36799 -1.9422 5.80962e-07 
-5.21997 -2.05354 1.03111e-07 
-5.16085 -2.22767 3.37083e-06 
-5.02326 -2.10023 -1.99673e-07 
-4.73988 -2.20643 4.99918e-06 
-4.5901 -2.28651 3.00524e-06 
-4.44463 -2.34281 6.85456e-07 
-4.28483 -2.37844 1.05911e-06 
-4.13868 -2.42569 -1.08109e-06 
-4.00177 -2.39363 -8.59927e-06 
-3.77257 -2.49298 -1.54722e-05 
-3.46052 -2.57461 1.74464e-06 
-3.31771 -2.54431 -3.82364e-05 
-3.14151 -2.59228 -1.61912e-05 
-2.8824 -2.55992 -4.20428e-06 
-2.56998 -2.5631 -1.3995e-05 
-2.16522 -2.62426 3.31991e-05 
-1.81213 -2.57923 1.1247e-05 
-1.583 -2.53115 1.05285e-05 
-1.36402 -2.52878 4.338e-07 
-1.21582 -2.4466 1.07531e-05 
-0.941922 -2.43804 1.45086e-06 
-0.777661 -2.55813 2.34828e-06 
-0.539752 -2.58122 2.68567e-06 
-0.332338 -2.60994 -8.75389e-07 
-0.158226 -2.5124 1.46005e-05 
0.0384518 -2.51963 9.96082e-06 
0.178363 -2.51137 -2.9893e-06 
0.322189 -2.58623 -9.14249e-06 
0.557308 -2.58517 4.52563e-06 
0.744422 -2.50518 7.09921e-06 
0.957674 -2.46873 8.49857e-06 
1.27246 -2.4805 -4.18653e-06 
1.40168 -2.55637 -1.33293e-06 
1.8507 -2.54573 5.52588e-06 
2.09677 -2.62832 -1.10237e-05 
2.34286 -2.65568 9.91463e-06 
2.7181 -2.51952 1.75895e-05 
2.93287 -2.53958 1.47972e-05 
3.21007 -2.49692 3.92565e-05 
3.43505 -2.54888 1.30586e-05 
3.62995 -2.5148 1.59029e-05 
3.80886 -2.49537 2.77113e-05 
4.00722 -2.48556 6.14889e-06 
4.19391 -2.38189 -7.47273e-08 
4.22853 -2.49489 -2.32675e-06 
4.41715 -2.39217 6.6476e-06 
4.62113 -2.30837 2.35368e-06 
4.78166 -2.20717 1.08965e-06 
4.93943 -2.12056 -5.63146e-07 
5.22132 -2.02099 -1.82353e-06 
5.37677 -2.07443 -3.48379e-06 
5.56562 -2.13127 -1.71606e-06 
5.78912 -2.1348 -6.59936e-07 
6.02808 -2.06854 -5.34905e-07 
6.23644 -1.9553 -5.35389e-07 
6.57289 -2.22272 -5.47124e-07 
6.66303 -2.01843 -4.64004e-09 
6.8504 -2.1454 -2.80872e-07 
6.9833 -1.95749 6.62484e-08 
7.22076 -2.32753 -7.91899e-08 
7.44911 -2.15792 -1.83047e-07 
7.68503 -2.15715 -3.63434e-07 
8.02835 -2.07393 8.80163e-07 
8.41503 -1.81578 1.24395e-06 
8.48482 -2.22996 5.42346e-07 
-8.48467 -1.24194 -1.31333e-05 
-8.39754 -1.73806 8.82978e-07 
-7.92186 -1.81093 6.24347e-07 
[...]
POINT_DATA 1978 
VECTORS vectors float
0.015439 -0.0175548 0.999732 
0.0253763 0.0207252 0.999448 
0.0339229 0.0359813 0.998813 
0.0278644 0.0521756 0.998424 
0.0323365 -0.00412917 0.999637 
0.0257453 -0.00356889 0.999619 
0.0207966 0.013257 0.999636 
0.025988 0.0497841 0.998408 
0.025754 0.0818679 0.99629 
0.0316541 0.104153 0.99405 
0.0415087 0.11934 0.991943 
0.0345314 0.109785 0.99347 
0.0329434 0.0854199 0.995894 
0.0272118 0.08225 0.996212 
0.018933 0.113753 0.993292 
0.0107994 0.160077 0.987027 
0.00965673 0.236704 0.971518 
0.00980794 0.290297 0.956887 
0.00900239 0.345729 0.938296 
0.00271943 0.375095 0.926984 
0.00518423 0.388504 0.921434 
0.00232642 0.39352 0.919316 
0.00810206 0.375248 0.926894 
-0.00178785 0.353875 0.935291 
-0.00443844 0.330141 0.943918 
0.000853166 0.284147 0.958778 
-0.000306271 0.259441 0.965757 
-0.000599443 0.17093 0.98528 
-0.0034183 0.10687 0.994264 
-0.00305848 0.0326967 0.999453 
0.00252636 0.00855847 0.999962 
0.00449155 0.0580918 0.998304 
0.0043976 0.126077 0.992013 
0.00281982 0.208099 0.978105 
0.00219967 0.321281 0.946984 
-0.0012805 0.485187 0.874408 
-0.00464457 0.710601 0.703583 
-0.00418473 0.910219 0.414113 
-0.000318222 0.987418 0.158146 
0.00267328 0.997195 -0.0747768 
0.00143504 0.954134 -0.299369 
0.00397494 0.855 -0.518613 
0.00182945 0.716583 -0.69751 
0.00265499 0.518776 -0.85492 
0.00121811 0.323721 -0.946152 
-0.00398567 0.197325 -0.980328 
-0.00415017 0.113656 -0.993511 
-0.00245536 0.00790335 -0.999969 
-0.00466054 -0.0319748 -0.99948 
0.00208078 0.00164893 -0.999998 
0.000806259 0.0930678 -0.995658 
0.00101788 0.175271 -0.984515 
0.00308505 0.250857 -0.968019 
0.00696929 0.306806 -0.951746 
0.00264293 0.347864 -0.937546 
0.000871978 0.373359 -0.927687 
0.00248979 0.389847 -0.920875 
-0.00295145 0.386922 -0.922108 
-0.00462048 0.364755 -0.931101 
-0.00657997 0.333727 -0.942647 
-0.0127083 0.28716 -0.957801 
-0.010907 0.229163 -0.973328 
-0.0136878 0.174467 -0.984553 
-0.0212466 0.130144 -0.991265 
-0.0261937 0.0923772 -0.995379 
-0.0216617 0.0766051 -0.996786 
-0.0198855 0.0696911 -0.997262 
-0.0255992 0.0762026 -0.996713 
-0.0381949 0.0907704 -0.995121 
-0.0391158 0.0946836 -0.994727 
-0.0391344 0.0916754 -0.994984 
-0.0401249 0.0759369 -0.996252 
-0.032203 0.0479149 -0.99833 
-0.0308523 0.0443545 -0.998581 
-0.0138909 0.0426821 -0.999124 
-0.0107728 0.0170456 -1.00007 
-0.0303375 -0.00590523 -0.999512 
-0.0369594 -0.030786 -0.99883 
-0.00448752 -0.0855127 -0.996403 
0.00105407 -0.0273193 0.999648 
0.0138057 0.0181321 0.999755 
0.0234141 0.0174347 0.999586 
0.0102185 0.0414455 0.999177 
0.0120662 0.0255394 0.999795 
0.0268819 0.002237 0.999646 
0.0208907 0.0425053 0.998905 
0.0271177 0.0466549 0.99855 
0.027853 0.0624883 0.997664 
0.0252855 0.0796411 0.996525 
0.02247 0.0977226 0.994976 
0.016148 0.101549 0.994683 
0.0125773 0.0972336 0.995167 
-0.0136436 0.105666 0.994336 
-0.0418005 0.151272 0.98764 
-0.0663417 0.192792 0.979002 
-0.067609 0.22755 0.971417 
-0.0867402 0.282371 0.955384 
-0.105312 0.321848 0.940924 
-0.13246 0.362076 0.922698 
-0.150328 0.387299 0.909613 
-0.174279 0.396384 0.901394 
-0.134733 0.385125 0.91298 
-0.179742 0.374137 0.909774 
-0.210307 0.347551 0.913765 
-0.176058 0.303331 0.936484 
-0.180353 0.216846 0.959427 
-0.19913 0.144244 0.969295 
-0.147548 0.071147 0.986492 
-0.0776243 0.0205831 0.996748 
-0.123335 0.00563457 0.992347 
-0.128464 0.0202043 0.991515 
-0.131288 0.0732355 0.988641 
-0.125989 0.134686 0.982852 
-0.0800306 0.243081 0.966706 
-0.0474948 0.406143 0.912573 
-0.030347 0.619797 0.784186 
-0.0118318 0.879964 0.474926 
-0.000392735 0.976665 0.214759 
0.00818731 0.998418 -0.0556284 
0.00764119 0.952815 -0.303481 
0.0145372 0.857171 -0.514867 
0.0188168 0.669271 -0.742801 
0.0417811 0.438896 -0.897617 
0.0855083 0.186811 -0.978677 
0.195458 0.0301912 -0.980254 
0.070481 0.0582097 -0.995828 
0.104221 -0.0242122 -0.994273 
0.0946431 -0.0231048 -0.995245 
0.110267 0.0485029 -0.99277 
0.219878 0.122515 -0.967831 
0.20815 0.211757 -0.954902 
0.212356 0.286758 -0.934179 
0.22325 0.333117 -0.916077 
0.171028 0.362864 -0.916008 
0.196962 0.388556 -0.900125 
0.143265 0.392898 -0.908354 
0.117196 0.374548 -0.919777 
0.10203 0.33883 -0.935306 
0.0758739 0.291434 -0.953589 
0.0815739 0.259465 -0.962309 
0.0774454 0.212654 -0.974068 
0.0499788 0.165529 -0.984953 
0.040724 0.145807 -0.988487 
0.0141179 0.113505 -0.993465 
-0.00718286 0.0931657 -0.995643 
-0.0182792 0.0861502 -0.996148 
-0.0294944 0.0849084 -0.995956 
-0.038113 0.0790939 -0.996147 
-0.0332584 0.0739537 -0.996713 
-0.0385985 0.0563656 -0.997666 
-0.0222696 0.0681307 -0.99744 
-0.0249231 0.0533012 -0.998273 
-0.0235357 0.0368374 -0.999095 
-0.0226228 0.0346239 -0.999327 
-0.0146794 0.0264593 -0.999609 
-0.0192677 -0.0244729 -0.99953 
-0.0199412 -0.0113273 -0.999578 
-0.0239467 0.0286527 -0.999431 
0.00481233 -0.0152812 0.999842 
0.011828 0.000319058 0.99996 
0.0293961 0.00358486 0.999564 
0.0179435 0.0207483 0.999607 
0.0347481 0.00595279 0.99938 
0.0134601 0.00229946 0.999949 
0.0301736 -0.000367322 0.999546 
0.0274585 0.0203737 0.999422 
0.0292764 0.0310769 0.999094 
0.0329998 0.0644007 0.997383 
0.0371822 0.0809847 0.996031 
0.023157 0.0957849 0.995145 
0.0191089 0.10056 0.994766 
-0.0198347 0.139867 0.98997 
-0.0169635 0.128828 0.991541 
-0.059014 0.181811 0.981567 
-0.133293 0.276779 0.951666 
-0.145553 0.286768 0.946883 
-0.168684 0.314582 0.934133 
-0.216249 0.370039 0.90351 
-0.230256 0.393112 0.890203 
-0.273711 0.419441 0.865544 
-0.317693 0.422669 0.848781 
-0.293485 0.406825 0.865084 
-0.3742 0.399943 0.836699 
-0.290333 0.331632 0.897605 
-0.320154 0.258993 0.911276 
-0.3639 0.182039 0.913478 
-0.317361 0.10349 0.942643 
-0.238655 0.0196236 0.97091 
-0.270593 -0.00510082 0.962679 
-0.267933 -0.0159401 0.963309 
-0.264196 0.0148938 0.964357 
-0.289773 0.0586594 0.955304 
-0.197938 0.170756 0.965231 
-0.100223 0.390173 0.915306 
-0.0615474 0.600415 0.797308 
-0.0245753 0.782738 0.621874 
-0.0109968 0.964207 0.264842 
0.00165571 0.997631 -0.0687116 
0.00674648 0.923205 -0.384245 
0.0244724 0.80271 -0.595823 
0.0390954 0.562698 -0.82572 
0.089997 0.273443 -0.957674 
0.148046 0.116798 -0.982072 
0.327553 -0.0321495 -0.944287 
0.189002 -0.0175616 -0.981825 
0.272557 -0.0503071 -0.960844 
0.304641 -0.0407388 -0.95159 
0.222104 -0.0103872 -0.974988 
0.427269 0.155589 -0.890635 
0.401888 0.242092 -0.883105 
0.448134 0.30659 -0.839761 
0.410733 0.352595 -0.840816 
0.313856 0.385018 -0.867897 
0.31782 0.407901 -0.855933 
0.259472 0.405438 -0.876524 
0.250491 0.406674 -0.878564 
0.203068 0.371235 -0.906083 
0.186109 0.347922 -0.918869 
0.172788 0.324679 -0.929917 
0.134548 0.277883 -0.951155 
0.106142 0.247164 -0.963152 
0.0835734 0.223123 -0.97121 
0.0427129 0.167099 -0.985028 
-0.000585798 0.118472 -0.992962 
-0.017093 0.0948193 -0.995354 
-0.0369308 0.0805786 -0.996071 
-0.0404339 0.0699955 -0.996733 
-0.0427044 0.0622579 -0.997153 
-0.0344239 0.0511074 -0.998098 
-0.0501557 0.0417072 -0.997877 
-0.0305797 0.0361669 -0.998883 
-0.0407966 0.0315052 -0.998679 
-0.0265793 0.0369129 -0.998972 
-0.0330699 0.0283391 -0.999046 
-0.0268412 0.010642 -0.999592 
-0.0103553 0.00164603 -0.99994 
0.00347717 -0.031063 -0.999557 
0.00327848 -0.0306009 0.999276 
0.0114572 -0.00382783 0.999967 
0.012736 -0.022373 0.999669 
0.0234033 -0.0137611 0.999642 
0.0359922 0.000532891 0.999361 
0.0335138 0.00327973 0.99944 
0.019997 0.0133146 0.999715 
0.0342194 0.00752045 0.999394 
0.0201793 0.0305292 0.999344 
0.0270061 0.054009 0.998183 
0.0133371 0.0910732 0.995761 
0.0258483 0.0970634 0.99495 
0.00917881 0.111619 0.99372 
-0.0653034 0.195251 0.978584 
-0.0875723 0.230625 0.969121 
-0.0665356 0.201314 0.977273 
-0.135905 0.293703 0.946195 
-0.210983 0.373244 0.90343 
-0.253507 0.40503 0.878463 
-0.292718 0.429622 0.854255 
-0.334233 0.451026 0.827567 
-0.353621 0.454398 0.817626 
-0.44849 0.48752 0.749154 
-0.440412 0.439163 0.783052 
-0.417163 0.374491 0.828121 
-0.505661 0.349128 0.788928 
-0.448544 0.303899 0.84051 
-0.526335 0.239485 0.815848 
-0.540335 0.145228 0.828811 
-0.413531 0.0487361 0.909184 
-0.451096 -0.0183491 0.892278 
-0.48109 -0.0559895 0.874891 
-0.411178 -0.0437358 0.910511 
-0.457564 -0.0490685 0.887821 
-0.348546 0.0805389 0.933848 
-0.16557 0.27418 0.947332 
-0.0933367 0.543768 0.834032 
-0.0376514 0.82105 0.56959 
-0.0176527 0.967916 0.250658 
0.00160416 0.984412 -0.17608 
0.0135152 0.903789 -0.427765 
0.0356538 0.73356 -0.67868 
0.0925748 0.428723 -0.898682 
0.20381 0.186947 -0.961021 
0.325711 0.0127579 -0.945388 
0.443631 -0.0829706 -0.892365 
0.373637 -0.0707613 -0.924884 
0.497652 -0.0518139 -0.865809 
0.387968 0.00865801 -0.921632 
0.351341 0.0653959 -0.933956 
0.618891 0.170609 -0.766723 
0.576229 0.253823 -0.776876 
0.614531 0.335192 -0.714136 
0.477151 0.382956 -0.790998 
0.480894 0.41628 -0.77166 
0.444025 0.442534 -0.779118 
0.370328 0.449644 -0.812824 
0.382206 0.476592 -0.791709 
0.27326 0.406946 -0.871623 
0.281699 0.415148 -0.865054 
0.236801 0.38465 -0.892182 
0.204071 0.361447 -0.909793 
0.161226 0.322281 -0.932819 
0.0875474 0.236088 -0.967786 
0.0394281 0.1696 -0.984733 
0.00691203 0.125639 -0.992062 
-0.0127754 0.0977563 -0.995138 
-0.0210694 0.0804133 -0.996545 
-0.0158479 0.0651818 -0.997758 
-0.0422067 0.0522329 -0.997751 
-0.0249524 0.0460832 -0.998635 
-0.0377253 0.0383086 -0.998561 
-0.0221683 0.0305738 -0.999295 
-0.0375122 0.032175 -0.998781 
-0.0393784 0.0176762 -0.999078 
-0.0331994 0.00360819 -0.999456 
-0.0278116 0.00499566 -0.999605 
-0.00578714 -0.0202448 -0.999646 
-0.00286486 -0.0398273 -0.999313 
-0.00297342 -0.0225204 0.999716 
0.00383127 -0.0168348 0.999949 
0.00674762 -0.036883 0.999305 
0.015173 -0.0139311 0.999795 
0.00657924 -0.00845054 0.999953 
0.0221017 0.00376041 0.999758 
0.0208376 0.0038599 0.999781 
-0.0028479 0.0151911 0.99989 
-0.00189549 0.0347561 0.999405 
0.00945171 0.0487476 0.998777 
0.0214907 0.0751798 0.99695 
-0.0149191 0.0831161 0.996438 
-0.0167743 0.11373 0.993379 
-0.0387351 0.149357 0.988035 
-0.0943196 0.250683 0.963462 
-0.12732 0.298707 0.945821 
-0.186534 0.379058 0.906379 
-0.203068 0.378624 0.90301 
-0.301485 0.498519 0.812761 
-0.340307 0.511444 0.789048 
-0.380267 0.521091 0.764121 
-0.4333 0.53124 0.728046 
-0.471737 0.535283 0.700673 
-0.499185 0.482667 0.719654 
-0.555279 0.438446 0.706711 
-0.620513 0.404933 0.671559 
-0.667884 0.344657 0.659653 
-0.630532 0.289505 0.720138 
-0.695124 0.201918 0.689949 
-0.58057 0.0874391 0.809494 
-0.57188 0.0125644 0.820235 
-0.665592 -0.0320258 0.745625 
-0.672847 -0.0833317 0.735085 
-0.63269 -0.110869 0.766429 
-0.510109 -0.0586742 0.858138 
-0.190685 0.325047 0.926317 
-0.123605 0.515599 0.847952 
-0.0485223 0.808865 0.586053 
-0.00751321 0.965047 0.261834 
0.00152006 0.996938 -0.0775867 
0.0341404 0.753388 -0.656732 
0.0610892 0.594525 -0.801774 
0.141031 0.348622 -0.926602 
0.278222 0.0841286 -0.956856 
0.505772 -0.0993423 -0.856939 
0.655759 -0.159984 -0.73784 
0.659577 -0.141208 -0.738251 
0.518393 -0.0902168 -0.850366 
0.635206 -0.0276158 -0.771847 
0.579992 0.0324753 -0.813991 
0.617501 0.0877175 -0.781674 
0.738326 0.271108 -0.61755 
0.675284 0.382367 -0.630705 
0.61538 0.429477 -0.660954 
0.56616 0.480217 -0.669967 
0.472941 0.494561 -0.729216 
0.508341 0.547943 -0.664343 
0.435134 0.543136 -0.718095 
0.341522 0.478128 -0.809175 
0.342089 0.500154 -0.795509 
0.289871 0.468758 -0.834413 
0.237641 0.431291 -0.870362 
0.202431 0.406493 -0.890953 
0.147203 0.315158 -0.937563 
0.0925933 0.245479 -0.964983 
0.0425625 0.167848 -0.984901 
0.0156057 0.122075 -0.992406 
0.00144663 0.0952706 -0.995458 
0.00261621 0.076758 -0.997054 
-0.0192443 0.0577649 -0.998154 
-0.00158726 0.0455137 -0.998969 
-0.007003 0.032497 -0.999452 
-0.00767598 0.022697 -0.999722 
-0.0327545 0.024637 -0.999169 
-0.0180718 -0.00351221 -0.999838 
-0.016298 -0.00547415 -0.999856 
0.00157463 -0.00279167 -1.00001 
-0.00819045 0.00332594 -1.00001 
-0.00342316 -0.0344327 -0.999489 
-0.00110192 -0.0268116 0.999721 
-0.00213259 -0.023402 0.999768 
0.00450204 -0.00140289 1.00006 
0.00284694 -0.034616 0.999397 
0.00439433 -0.033601 0.999433 
0.0072483 -1.28707e-05 0.999983 
-0.0111098 0.00855787 0.999909 
-0.0199176 0.029698 0.999375 
-0.0234762 0.0407719 0.9989 
-0.0191093 0.0474627 0.998699 
-0.00725257 0.0610157 0.998122 
-0.0345339 0.113848 0.992905 
-0.05408 0.159405 0.985745 
-0.0768022 0.215187 0.97356 
-0.125918 0.318647 0.939479 
-0.152039 0.352511 0.923383 
-0.213719 0.455109 0.864423 
-0.255553 0.470028 0.844857 
-0.292099 0.552341 0.780772 
-0.362736 0.589185 0.722017 
-0.425999 0.623223 0.65584 
-0.466408 0.614648 0.636127 
-0.539373 0.618111 0.571855 
-0.56206 0.564067 0.604915 
-0.62322 0.539446 0.566208 
-0.649617 0.485867 0.584735 
-0.747933 0.439992 0.496984 
-0.802974 0.361961 0.47351 
-0.810961 0.270751 0.518689 
-0.790753 0.115782 0.60107 
-0.79226 0.039812 0.608874 
-0.868999 -0.0246352 0.494179 
-0.869714 -0.098688 0.483579 
-0.809457 -0.152195 0.5671 
-0.68494 -0.145161 0.714 
-0.675444 -0.158771 0.720239 
-0.3233 0.177808 0.929451 
-0.201479 0.398389 0.894943 
-0.0516395 0.847295 0.528538 
0.0705481 0.996308 0.0511667 
0.00108907 0.937716 -0.347729 
0.0836139 0.59163 -0.80189 
0.236246 0.255869 -0.937475 
0.523827 -0.0902772 -0.847037 
0.701812 -0.191253 -0.686222 
0.904323 -0.206968 -0.373306 
0.79935 -0.13892 -0.584586 
0.765946 -0.0833013 -0.637475 
0.83738 -0.0147653 -0.546409 
0.807943 0.0844119 -0.583173 
0.795835 0.177676 -0.578835 
0.815692 0.355676 -0.456202 
0.741984 0.456117 -0.491347 
0.679862 0.515311 -0.521763 
0.608356 0.554435 -0.56792 
0.553712 0.614538 -0.561914 
0.507391 0.655646 -0.559162 
0.444757 0.59278 -0.671433 
0.387943 0.577194 -0.718595 
0.338141 0.559871 -0.756446 
0.287373 0.533531 -0.795465 
0.241803 0.497136 -0.833301 
0.188442 0.419675 -0.887902 
0.13709 0.32045 -0.937301 
0.0960635 0.267594 -0.958741 
0.0604016 0.195146 -0.978923 
0.0400779 0.147083 -0.988319 
0.0266085 0.107867 -0.993818 
0.0242597 0.0804642 -0.996472 
0.0105464 0.0577037 -0.998289 
0.0134329 0.0405864 -0.999094 
0.00670228 0.0269623 -0.999621 
0.000987378 0.00400788 -0.999999 
-0.0213223 0.0110673 -0.999724 
-0.00370461 -0.0186524 -0.999827 
0.00134428 -0.0321288 -0.999491 
0.00290588 -0.0386145 -0.999256 
0.00202265 -0.0416017 -0.999133 
-0.000258539 -0.0222719 -0.99974 
-0.000453209 -0.0253428 0.999754 
0.00380913 -0.0378612 0.999309 
-0.000456964 -0.0495991 0.998775 
0.00152744 -0.0294725 0.999573 
-0.00420922 -0.00774787 0.999971 
-0.0108162 -0.0140148 0.999849 
-0.0164803 0.00466897 0.999864 
-0.0266403 0.0260426 0.999315 
-0.0344637 0.0426194 0.998506 
-0.0329141 0.0537494 0.998017 
-0.0325554 0.0700269 0.997023 
-0.0348655 0.0922973 0.995132 
-0.0481102 0.134521 0.989751 
-0.0656583 0.183342 0.980859 
-0.094196 0.255575 0.962197 
-0.15809 0.409982 0.898292 
-0.17977 0.42369 0.887794 
-0.234257 0.54325 0.806231 
-0.282612 0.601437 0.747259 
-0.326137 0.643514 0.692481 
-0.380916 0.658499 0.649081 
-0.457226 0.727592 0.511499 
-0.505083 0.689506 0.51911 
-0.574826 0.697377 0.428063 
-0.630995 0.641256 0.436623 
-0.701316 0.610987 0.367205 
-0.766319 0.539175 0.349343 
-0.840443 0.46555 0.27732 
-0.908576 0.354929 0.220217 
-0.916012 0.224536 0.332402 
-0.946812 0.14584 0.286805 
-0.973557 0.0420653 0.224504 
-0.991677 -0.0517327 0.117835 
-0.991032 -0.125547 0.0455049 
-0.944777 -0.172606 0.278551 
-0.880621 -0.21576 0.421815 
-0.487429 0.00982011 0.873106 
-0.352254 0.248975 0.902191 
-0.0889378 0.697496 0.711188 
-0.0113862 0.992682 -0.119668 
0.165306 0.448261 -0.878495 
0.427763 -0.00718661 -0.903958 
0.632971 -0.12789 -0.763472 
0.839696 -0.266218 -0.473318 
0.853432 -0.233716 -0.465878 
0.977284 -0.169796 -0.126724 
0.942044 -0.104129 -0.318916 
0.974816 -0.0163404 -0.222356 
0.957342 0.0866374 -0.275599 
0.934055 0.191461 -0.301442 
0.874319 0.291881 -0.387794 
0.835839 0.467158 -0.288313 
0.745188 0.574704 -0.338253 
0.655704 0.617519 -0.43442 
0.610853 0.686008 -0.39528 
0.559852 0.721911 -0.406734 
0.500744 0.760165 -0.414034 
0.458502 0.672459 -0.581025 
0.396437 0.65479 -0.643514 
0.344291 0.638245 -0.688571 
0.308372 0.628517 -0.71405 
0.252745 0.550673 -0.795543 
0.204732 0.485873 -0.849708 
0.143278 0.355874 -0.923496 
0.129859 0.342829 -0.930384 
0.0878345 0.238559 -0.967159 
0.0667949 0.183567 -0.98075 
0.0486086 0.129141 -0.990446 
0.0422733 0.0912412 -0.99494 
0.0268361 0.0623085 -0.997704 
0.0252691 0.0456329 -0.998646 
0.0200962 0.0272186 -0.999438 
0.0111297 0.0113889 -0.999882 
-0.000291566 -0.00769546 -0.999976 
0.00451 -0.0233694 -0.999725 
0.00356466 -0.0349394 -0.999392 
0.00608291 -0.0530864 -0.998573 
-0.0162676 -0.0388723 -0.999138 
0.103356 -0.0288728 -0.994226 
-0.000716745 -0.0257429 0.999718 
0.0145375 -0.045022 0.998903 
-0.0064078 -0.038689 0.999237 
-0.00346719 -0.0479547 0.998848 
-0.00298938 -0.0334569 0.999445 
-0.0169306 -0.00694576 0.999839 
-0.021373 0.0105109 0.999727 
-0.036235 0.0300307 0.998898 
-0.0431476 0.0489452 0.997878 
-0.0453123 0.0692811 0.996578 
-0.0514771 0.0997466 0.99369 
-0.0579266 0.137495 0.988817 
-0.0742293 0.196364 0.977727 
-0.0943922 0.259059 0.961252 
-0.125139 0.340431 0.931908 
-0.165497 0.484875 0.858799 
-0.196607 0.494725 0.846522 
-0.206923 0.578145 0.789236 
-0.250124 0.632237 0.733284 
-0.301282 0.686532 0.661745 
-0.362565 0.764146 0.533527 
-0.393424 0.742554 0.542112 
-0.452798 0.814048 0.36372 
-0.510421 0.775247 0.372106 
-0.579501 0.770588 0.26528 
-0.655937 0.722299 0.219162 
-0.737373 0.666279 0.11116 
-0.809661 0.581386 0.080192 
-0.87942 0.47464 -0.0364076 
-0.945385 0.316653 -0.0772081 
-0.974155 0.189101 -0.123469 
-0.976723 0.0628554 -0.205033 
-0.952878 -0.0383781 -0.300887 
-0.920708 -0.120054 -0.37131 
-0.970745 -0.189623 -0.147278 
-0.968793 -0.240566 0.0594811 
-0.878048 -0.241402 0.413127 
-0.671999 -0.181781 0.717937 
-0.153721 0.501154 0.851607 
0.0220447 0.973167 0.230015 
-0.0179726 0.772446 -0.634915 
0.386484 0.0309825 -0.92178 
0.961302 -0.2597 -0.0918835 
0.945882 -0.256733 0.198326 
0.965456 -0.216391 0.145139 
0.912659 -0.149766 0.38029 
0.992371 -0.089217 0.0849262 
0.983658 0.0632838 0.168515 
0.967682 0.160894 0.194145 
0.958157 0.285813 0.015421 
0.913368 0.393665 -0.103832 
0.820571 0.561454 -0.106832 
0.711161 0.66587 -0.225522 
0.646736 0.743801 -0.168805 
0.553222 0.796843 -0.242865 
0.468772 0.829047 -0.304855 
0.440361 0.742429 -0.504878 
0.39394 0.740693 -0.544231 
0.337407 0.71958 -0.606932 
0.292879 0.684345 -0.667751 
0.247687 0.614563 -0.748978 
0.199523 0.536429 -0.820024 
0.171163 0.436821 -0.883121 
0.151444 0.422537 -0.893609 
0.112883 0.31136 -0.943571 
0.093718 0.252678 -0.963018 
0.0719906 0.180294 -0.980979 
0.0589122 0.131645 -0.989553 
0.0539793 0.0982392 -0.993706 
0.0404651 0.0701007 -0.99673 
0.0337982 0.0464996 -0.998354 
0.0284171 0.0270458 -0.999236 
0.0192061 0.0083828 -0.99979 
0.0086351 -0.0101202 -0.99992 
0.0121473 -0.0160696 -0.999807 
0.00789754 -0.0376106 -0.999271 
0.00300605 -0.0627396 -0.998032 
-0.00271184 -0.0381887 -0.999214 
-0.110079 -0.00680536 -0.993917 
-0.00189274 -0.0212859 0.999717 
0.0142292 -0.0509159 0.99862 
-0.00517317 -0.0592415 0.998227 
-0.00602369 -0.0517371 0.998648 
-0.0111919 -0.0242199 0.999651 
-0.0152294 -0.00651129 0.999871 
-0.0254857 0.0213895 0.999454 
-0.0386398 0.0374645 0.998562 
-0.0474222 0.0637829 0.996844 
-0.0547081 0.0837688 0.99499 
-0.0609102 0.123205 0.990519 
-0.068952 0.177388 0.98173 
-0.0837819 0.251232 0.964307 
-0.102674 0.312461 0.944374 
-0.132791 0.403486 0.905304 
-0.120705 0.440499 0.889607 
-0.15484 0.536091 0.829841 
-0.194737 0.622996 0.757594 
-0.231173 0.699357 0.676319 
-0.263376 0.720444 0.641585 
-0.312382 0.770893 0.555088 
-0.291259 0.84715 0.444493 
-0.355088 0.830767 0.428745 
-0.406345 0.847277 0.342038 
-0.482104 0.865461 0.136352 
-0.544079 0.835803 0.0735171 
-0.624469 0.780977 -0.0106195 
-0.686881 0.709586 -0.157079 
-0.762153 0.588436 -0.26993 
-0.819834 0.423298 -0.385603 
-0.824319 0.247883 -0.508976 