# vtk DataFile Version 3.0 
Exported using Morpho https://github.com/Morpho-lang/morpho 
ASCII 
DATASET UNSTRUCTURED_GRID 

POINTS 1978 float 
-11.9774 -3.97302 1.97332e-05 
-11.5822 -3.98418 -0.00103649 
-11.2896 -3.97918 -0.000322778 
-10.9526 -3.97596 -0.000819166 
-10.6258 -3.97146 -0.0011995 
-10.279 -3.97145 -0.000464023 
-9.95945 -3.97281 -0.000255447 
-9.65177 -3.96649 -0.000183107 
-9.317 -3.97063 -0.000382535 
-9.00307 -3.97112 -3.58983e-05 
-8.68681 -3.96767 -7.77427e-05 
-8.35872 -3.96959 -3.13529e-05 
-8.04696 -3.97058 8.17982e-05 
-7.74711 -3.97479 -2.28801e-05 
-7.48115 -3.97589 7.99679e-05 
-7.21488 -3.97226 -3.58179e-05 
-6.90747 -3.96964 -0.000202135 
-6.59143 -3.96915 3.17972e-05 
-6.29333 -3.97178 5.19805e-05 
-5.98693 -3.97184 7.78614e-05 
-5.68787 -3.97242 0.000117718 
-5.38506 -3.97439 5.87388e-05 
-5.08526 -3.97436 0.000178103 
-4.79361 -3.97213 0.00019468 
-4.46003 -3.97197 0.00026554 
-4.17456 -3.97427 0.000406196 
-3.86026 -3.97272 0.000419554 
-3.53231 -3.97361 0.00065394 
-3.23329 -3.97833 0.00120611 
-2.92739 -3.98084 0.00142774 
-2.65542 -3.98944 0.00191818 
-2.38907 -3.98781 0.00183131 
-2.09597 -3.99848 0.00183747 
-1.8083 -3.99775 0.00151051 
-1.53281 -4.00013 0.00105272 
-1.24389 -3.99668 0.000226945 
-0.948123 -3.98837 -0.000459044 
-0.658212 -3.95441 -3.41239e-05 
-0.337535 -3.94363 -0.00283722 
0.00344808 -3.91474 -0.000842396 
0.34593 -3.93252 0.00309361 
0.672347 -3.95838 -0.000267591 
0.940545 -3.9921 0.0011875 
1.19636 -4.00058 -0.00110718 
1.48083 -4.0011 -0.000888904 
1.75476 -4.00144 -0.00136441 
2.03003 -3.99844 -0.00210291 
2.33741 -3.99294 -0.00223498 
2.65494 -3.98397 -0.00187615 
2.96919 -3.9793 -0.00124137 
3.2868 -3.977 -0.00100441 
3.58013 -3.97369 -0.00058933 
3.88546 -3.97209 -0.000496928 
4.19745 -3.97166 -0.000367862 
4.49583 -3.97244 -0.000218653 
4.79645 -3.97389 -0.000189856 
5.10821 -3.97403 -0.000177038 
5.40672 -3.976 -9.38285e-05 
5.71778 -3.97458 -0.000119501 
6.00947 -3.97569 -0.000105 
6.30236 -3.97554 -0.000157342 
6.60341 -3.9747 0.000104928 
6.90159 -3.97595 9.74938e-05 
7.17724 -3.97425 -0.000138874 
7.48231 -3.97392 -5.18222e-05 
7.77129 -3.97809 -8.28236e-05 
8.06082 -3.97255 4.90744e-05 
8.35972 -3.97513 5.25217e-05 
8.66072 -3.97426 -1.69178e-05 
8.93172 -3.97441 1.17342e-05 
9.27769 -3.97408 0.000302965 
9.60825 -3.96981 0.000238225 
9.89517 -3.97502 0.000205565 
10.2663 -3.97421 0.000252087 
10.5766 -3.97342 0.00126963 
10.9772 -3.97669 0.000729384 
11.2908 -3.97898 0.000417883 
11.5787 -3.98386 0.00116896 
11.9773 -3.97178 0.00011636 
-11.9806 -3.58705 0.00161524 
-11.7026 -3.70464 -0.000519102 
-11.3641 -3.61391 -0.000407305 
-11.0526 -3.65549 -0.000419925 
-10.719 -3.64462 -0.000399338 
-10.3854 -3.66179 -2.42216e-05 
-10.0465 -3.63834 0.000113413 
-9.72963 -3.6268 6.17204e-05 
-9.41109 -3.65734 -9.64225e-05 
-9.08449 -3.64129 3.45565e-05 
-8.76297 -3.64696 -1.28998e-06 
-8.43767 -3.65665 -5.0073e-05 
-8.11601 -3.64596 6.12005e-06 
-7.80153 -3.64034 3.02416e-05 
-7.5056 -3.60421 -9.51115e-05 
-7.19726 -3.6492 5.6884e-05 
-6.88128 -3.65684 7.03054e-05 
-6.57692 -3.64048 -1.03539e-05 
-6.26405 -3.65466 -0.000103156 
-5.9602 -3.64521 -2.18444e-05 
-5.65334 -3.64856 3.65007e-05 
-5.34853 -3.64144 -9.05126e-06 
-5.05208 -3.62838 -2.72539e-05 
-4.7266 -3.66773 -4.1607e-05 
-4.4366 -3.61113 -3.22893e-05 
-4.12843 -3.64886 -2.03139e-05 
-3.80729 -3.66732 -9.52806e-05 
-3.50544 -3.65061 -0.000204512 
-3.197 -3.6722 -0.000285168 
-2.90265 -3.6652 -0.000452709 
-2.61737 -3.66573 -0.00041415 
-2.33664 -3.67883 -0.000588437 
-2.06216 -3.71675 -2.11618e-05 
-1.7727 -3.7038 -0.00050579 
-1.47717 -3.72135 -0.000297541 
-1.17744 -3.71358 -5.47538e-05 
-0.890519 -3.68036 -0.0012802 
-0.597168 -3.62005 -0.0031114 
-0.30525 -3.6552 -0.000359916 
0.0030821 -3.57573 -0.000132967 
0.310112 -3.6363 0.00117407 
0.607833 -3.62922 0.00288927 
0.910319 -3.6696 0.000867017 
1.2113 -3.72191 0.000806752 
1.5101 -3.71981 0.000106213 
1.79868 -3.71117 0.000225519 
2.09105 -3.72756 0.000500534 
2.39672 -3.72854 0.000186134 
2.70751 -3.70207 0.000205949 
3.01912 -3.68235 0.000256831 
3.30806 -3.64446 0.000230222 
3.60988 -3.64571 7.48118e-05 
3.92142 -3.64511 0.000165568 
4.2265 -3.63158 -5.78201e-05 
4.5302 -3.63357 4.21086e-05 
4.84554 -3.65419 0.000100692 
5.15626 -3.64399 3.46093e-06 
5.47065 -3.65957 -2.97917e-05 
5.77055 -3.64008 7.07715e-05 
6.0647 -3.6431 0.000112801 
6.36594 -3.64946 -2.45358e-05 
6.6692 -3.64678 6.08542e-05 
6.94979 -3.61779 8.61623e-05 
7.25108 -3.65235 0.000117009 
7.55606 -3.64243 7.13613e-05 
7.85793 -3.64284 -1.52499e-05 
8.1584 -3.63624 -9.09946e-05 
8.44857 -3.65199 8.60038e-05 
8.73345 -3.61451 -3.36188e-06 
9.05217 -3.68992 9.91748e-05 
9.38398 -3.66698 -1.36498e-06 
9.68795 -3.61386 -0.000167482 
10.0229 -3.69296 8.89903e-05 
10.3474 -3.63468 0.000101154 
10.7167 -3.7064 0.000556985 
11.0478 -3.63671 0.000348788 
11.3489 -3.60691 0.000457878 
11.6947 -3.71044 0.000357028 
11.9814 -3.59446 -0.00173428 
-11.9779 -3.29052 0.000896229 
-11.6151 -3.35739 -0.000127647 
-11.2703 -3.27553 0.000384703 
-10.9568 -3.32005 5.5058e-05 
-10.6475 -3.28775 1.81077e-05 
-10.3548 -3.34082 -0.000340582 
-10.042 -3.2996 -0.000289594 
-9.7107 -3.30821 5.5435e-05 
-9.38663 -3.33372 -8.72955e-05 
-9.05913 -3.32112 -0.000232594 
-8.76348 -3.29808 -0.00017143 
-8.47227 -3.33876 4.59818e-06 
-8.17391 -3.31282 -3.94896e-06 
-7.87069 -3.32101 -0.000155845 
-7.56715 -3.2754 -0.000255778 
-7.25761 -3.3189 -0.00020537 
-6.94961 -3.33973 -0.000239589 
-6.64373 -3.31846 -0.000204269 
-6.334 -3.33395 -0.000222424 
-6.02944 -3.32304 -0.000234017 
-5.72181 -3.32755 -0.000354183 
-5.41696 -3.31622 -0.000308578 
-5.11282 -3.29064 -0.000325784 
-4.80056 -3.34946 -0.000421679 
-4.49983 -3.27592 -0.0002928 
-4.19128 -3.31353 -0.00037553 
-3.88797 -3.35422 -0.00054326 
-3.58132 -3.33268 -0.000322598 
-3.27347 -3.35466 7.0435e-05 
-2.96881 -3.35671 -0.000143858 
-2.67362 -3.3448 0.000126575 
-2.38673 -3.34926 0.000488012 
-2.07906 -3.42107 0.000559973 
-1.76995 -3.40841 0.000505086 
-1.47054 -3.4322 -0.000345194 
-1.17175 -3.39712 0.00030603 
-0.877129 -3.35598 -0.0007862 
-0.585318 -3.23905 -0.000582904 
-0.29864 -3.30917 -0.00129386 
0.00596333 -3.17981 0.000554502 
0.299792 -3.27625 0.00173405 
0.586607 -3.2423 0.00136693 
0.886735 -3.3565 0.000871497 
1.19224 -3.4078 0.000180099 
1.49862 -3.42148 -0.000143762 
1.7914 -3.42083 -0.000684133 
2.07906 -3.42086 -0.000644701 
2.36706 -3.45043 -8.10327e-05 
2.65429 -3.39804 0.000390655 
2.95237 -3.38972 0.000239693 
3.25735 -3.32078 0.000155048 
3.55397 -3.31935 0.000415413 
3.86002 -3.32309 0.000421993 
4.16716 -3.30142 0.000308322 
4.47083 -3.29878 0.000284217 
4.77766 -3.3272 0.000392399 
5.08053 -3.32319 0.000343395 
5.39794 -3.33568 0.000275697 
5.70283 -3.31529 0.000292666 
6.00707 -3.3069 0.000298769 
6.30159 -3.31978 0.000286963 
6.60162 -3.32239 0.000135524 
6.89799 -3.26928 0.000129543 
7.19379 -3.31482 9.68491e-05 
7.49313 -3.3161 0.000189055 
7.80434 -3.31183 0.000237899 
8.12151 -3.31708 0.000128807 
8.44009 -3.30455 1.33806e-05 
8.75909 -3.29617 2.78095e-05 
9.07339 -3.37954 0.000166721 
9.38195 -3.32922 6.75954e-05 
9.68153 -3.26421 -8.22598e-05 
9.98758 -3.36647 0.000247082 
10.3013 -3.29612 0.000333787 
10.633 -3.39834 0.000127496 
10.968 -3.31906 -0.00031587 
11.2953 -3.2486 -0.000727202 
11.6226 -3.37077 0.00027311 
11.9757 -3.28782 -0.000789595 
-11.9755 -2.96583 0.000394803 
-11.6442 -3.04893 0.000618118 
-11.3094 -2.95785 0.000265779 
-10.9667 -2.9731 0.000237974 
-10.6326 -2.96145 0.000146578 
-10.3029 -2.99034 -0.000433712 
-9.96324 -2.98696 0.00013191 
-9.63623 -2.98509 0.000527897 
-9.32758 -3.02086 0.000188125 
-9.02202 -2.97737 -7.89452e-07 
-8.72168 -2.95335 0.000258611 
-8.43642 -2.99571 0.000289072 
-8.14023 -2.97338 0.000196702 
-7.84909 -2.99183 1.78423e-05 
-7.5418 -2.95314 8.66589e-05 
-7.23934 -3.00097 0.000231279 
-6.93588 -3.01596 0.000341298 
-6.62363 -3.00477 0.000338229 
-6.32429 -3.00914 0.000302804 
-6.01822 -3.00422 0.000266651 
-5.71308 -3.00442 0.000306647 
-5.40734 -2.98934 0.000375556 
-5.0917 -2.97369 0.00040434 
-4.79675 -3.01536 0.000501252 
-4.47903 -2.96137 0.000520844 
-4.1854 -2.98465 0.000593485 
-3.89707 -3.03319 0.00059132 
-3.60291 -3.01871 0.000544361 
-3.30099 -3.042 0.000829284 
-2.98693 -3.04927 0.000867182 
-2.67424 -3.01907 0.000567428 
-2.36303 -3.02609 -7.21888e-06 
-2.05174 -3.11325 0.000116629 
-1.73867 -3.06745 5.37213e-05 
-1.44382 -3.10571 -0.000546961 
-1.1421 -3.01602 -0.000395003 
-0.862907 -2.98207 -0.00065105 
-0.569398 -2.80689 -0.00117852 
-0.264115 -2.89982 0.000927579 
0.00137445 -2.65783 -0.000777599 
0.282811 -2.82729 -0.000244341 
0.560478 -2.73896 0.00113757 
0.847065 -2.97791 0.000314317 
1.16056 -3.03798 0.000730215 
1.47432 -3.08117 0.000684116 
1.77468 -3.09472 0.000195248 
2.07372 -3.09377 -1.0103e-05 
2.3773 -3.13051 -0.000282173 
2.67684 -3.06793 -0.000538055 
2.96497 -3.07709 -0.000755817 
3.25913 -2.99456 -0.000903262 
3.55057 -2.99497 -0.000543578 
3.84783 -3.00606 -0.000518442 
4.15004 -2.9808 -0.000692601 
4.45627 -2.97381 -0.000510295 
4.75444 -2.99401 -0.000491499 
5.06899 -3.00648 -0.00043465 
5.37468 -3.00986 -0.000396411 
5.68283 -2.99353 -0.0003434 
5.98968 -2.98727 -0.000306601 
6.3009 -2.98395 -0.000307713 
6.59302 -2.99335 -0.000364782 
6.91129 -2.95835 -0.000324501 
7.22842 -2.98398 -0.000324837 
7.53144 -2.98681 -0.000135731 
7.83607 -2.99105 -3.71343e-05 
8.14376 -2.99028 -0.000132745 
8.45155 -2.98682 -0.000293392 
8.75483 -2.96304 -0.000178962 
9.05825 -3.04908 9.25775e-05 
9.3543 -2.98844 -9.90981e-05 
9.66862 -2.93345 -0.00045831 
9.98945 -3.02177 -7.26582e-05 
10.3173 -2.96557 0.000440081 
10.6464 -3.0702 -4.60105e-06 
10.9759 -2.98162 -0.00020795 
11.3245 -2.92803 0.000110639 
11.6545 -3.05143 -0.000797656 
11.974 -2.94398 -0.000453276 
-11.9692 -2.64976 0.000863832 
-11.6333 -2.71989 0.000332469 
-11.2947 -2.6393 -0.000411448 
-10.9593 -2.65018 -0.000188445 
-10.6322 -2.63237 -0.000275449 
[...]
POINT_DATA 1978 
VECTORS vectors float
0.115618 -0.169311 0.980593 
0.125054 -0.109068 0.99189 
0.130384 -0.0731152 0.994603 
0.138595 -0.0478677 0.994834 
0.144993 -0.0299988 0.994278 
0.147614 -0.0171244 0.993811 
0.152332 -0.00812436 0.993387 
0.156264 -0.00593146 0.992442 
0.158448 -0.00693363 0.9919 
0.158803 -0.0072186 0.991922 
0.158594 -0.00653212 0.991917 
0.160279 -0.00807597 0.9915 
0.157908 -0.00915169 0.991946 
0.156683 -0.00835917 0.992063 
0.156497 -0.00525142 0.990278 
0.15602 -0.00278898 0.992249 
0.157262 -0.00127289 0.991919 
0.15749 -0.00155425 0.991907 
0.157485 -0.00256557 0.991915 
0.157335 -0.00208643 0.991886 
0.155856 -0.000371743 0.992196 
0.154759 0.00164175 0.99256 
0.154956 0.00502648 0.992651 
0.153957 0.0100578 0.99272 
0.152765 0.0147062 0.993053 
0.152002 0.0199877 0.993273 
0.149664 0.0288695 0.993193 
0.147414 0.0385487 0.99319 
0.143499 0.0491216 0.993339 
0.13427 0.0656635 0.99555 
0.126568 0.0919287 0.991096 
0.113188 0.127279 0.992155 
0.0985007 0.182684 0.981603 
0.0783868 0.2565 0.968242 
0.056047 0.347969 0.940323 
0.0282245 0.473671 0.884077 
0.00243385 0.627274 0.781234 
-0.0119301 0.788989 0.61604 
-0.0141771 0.934283 0.347389 
-0.000201884 0.996167 -0.00437986 
0.0136541 0.92813 -0.362103 
0.0106549 0.775329 -0.633423 
-0.00428291 0.627833 -0.778805 
-0.0255697 0.491847 -0.875926 
-0.0523912 0.365826 -0.933565 
-0.0742421 0.272671 -0.962241 
-0.0934928 0.195525 -0.98269 
-0.11222 0.135391 -0.9875 
-0.126386 0.0914374 -0.992652 
-0.136989 0.0658143 -0.993443 
-0.143913 0.049727 -0.993261 
-0.147249 0.0378087 -0.993489 
-0.149118 0.027461 -0.993466 
-0.152072 0.0198482 -0.99305 
-0.153697 0.0146976 -0.99291 
-0.154596 0.00920766 -0.992681 
-0.154303 0.00447753 -0.992613 
-0.154421 0.00226598 -0.992587 
-0.155915 -0.000133465 -0.992227 
-0.156624 -0.00195603 -0.992017 
-0.157761 -0.00270768 -0.991879 
-0.1578 -0.00126155 -0.99181 
-0.156186 -0.00150015 -0.99213 
-0.154712 -0.00340577 -0.992489 
-0.155659 -0.00585266 -0.993854 
-0.156991 -0.00748069 -0.990337 
-0.157358 -0.00794117 -0.9935 
-0.157916 -0.0083436 -0.989949 
-0.156422 -0.00790968 -0.991932 
-0.15777 -0.00951205 -0.991821 
-0.158171 -0.00784091 -0.991671 
-0.155869 -0.00671511 -0.992472 
-0.153544 -0.00765683 -0.992941 
-0.149259 -0.0172428 -0.993537 
-0.14612 -0.0283228 -0.994197 
-0.138505 -0.048816 -0.994627 
-0.131177 -0.0731413 -0.994395 
-0.124985 -0.106834 -0.992229 
-0.114173 -0.16704 -0.981141 
0.0721935 -0.17313 0.987369 
0.0859086 -0.127845 0.999064 
0.0851876 -0.088541 1.00816 
0.0975072 -0.0620523 1.00816 
0.100588 -0.0412668 1.01063 
0.108008 -0.0250084 1.00656 
0.10949 -0.0145219 1.00794 
0.110537 -0.00980732 1.0097 
0.117814 -0.00780216 1.00496 
0.116764 -0.00746212 1.00695 
0.116293 -0.00666836 1.00847 
0.119006 -0.00732461 1.00461 
0.117764 -0.00701048 1.00785 
0.115843 -0.00573832 1.00646 
0.110994 -0.00393909 1.00895 
0.114169 -0.00282955 1.00628 
0.115733 -0.00218369 1.0062 
0.115813 -0.00228331 1.00647 
0.116876 -0.00166139 1.0061 
0.115402 -0.000287304 1.00642 
0.115203 0.00135727 1.0065 
0.113339 0.00358 1.00693 
0.111544 0.00629904 1.00731 
0.115985 0.0105965 1.00664 
0.109533 0.0155834 1.00777 
0.110959 0.0227634 1.00704 
0.110828 0.031938 1.00667 
0.106066 0.0430438 1.00672 
0.103134 0.0575184 1.00471 
0.0940657 0.079163 1.00553 
0.0851556 0.110307 1.00311 
0.0756636 0.151563 0.997647 
0.0663397 0.205739 0.990097 
0.0497036 0.283397 0.971972 
0.0338051 0.388693 0.930396 
0.0153367 0.522379 0.864449 
0.00145051 0.673179 0.744802 
-0.00677816 0.825583 0.563033 
-0.00702176 0.94418 0.312654 
-0.00149196 0.991132 -0.00685618 
0.00479596 0.939737 -0.326073 
0.00440454 0.815071 -0.579209 
-0.00385507 0.657947 -0.760071 
-0.0190079 0.501353 -0.875809 
-0.0368724 0.372291 -0.938764 
-0.0525522 0.273907 -0.972243 
-0.0683842 0.19776 -0.990442 
-0.0833202 0.137823 -0.999176 
-0.0922442 0.097588 -1.00554 
-0.100478 0.0706196 -1.00526 
-0.101352 0.0531882 -1.00743 
-0.105294 0.0399315 -1.0071 
-0.109488 0.02886 -1.00716 
-0.11017 0.0205561 -1.00788 
-0.112218 0.0139729 -1.00702 
-0.11382 0.00814426 -1.00692 
-0.113432 0.0053685 -1.00704 
-0.115558 0.00279827 -1.0064 
-0.114418 0.00065202 -1.00649 
-0.115645 -0.0009866 -1.00661 
-0.116023 -0.00182956 -1.00614 
-0.115512 -0.00169135 -1.00618 
-0.112313 -0.00247921 -1.00735 
-0.116271 -0.00351755 -1.00608 
-0.115422 -0.00456221 -1.00525 
-0.117617 -0.00542384 -1.00584 
-0.117 -0.00655303 -1.00652 
-0.118779 -0.00749721 -1.006 
-0.114008 -0.00789974 -1.00823 
-0.121703 -0.00887592 -1.00356 
-0.118114 -0.008532 -1.00627 
-0.112386 -0.0106645 -1.0095 
-0.115541 -0.0147493 -1.00512 
-0.105098 -0.0251179 -1.01045 
-0.106701 -0.0398381 -1.00771 
-0.0953396 -0.0616582 -1.00864 
-0.0851909 -0.087216 -1.00826 
-0.0871189 -0.126361 -0.999111 
-0.0709797 -0.173719 -0.98731 
0.0432697 -0.179549 0.987985 
0.0583565 -0.122561 1.0065 
0.0604479 -0.0860698 1.01171 
0.0664901 -0.0593633 1.00948 
0.0690763 -0.0409473 1.01168 
0.0775771 -0.0286376 1.01137 
0.0769207 -0.0182747 1.01118 
0.07974 -0.0125942 1.01096 
0.0842535 -0.010217 1.01002 
0.0848749 -0.00816126 1.01011 
0.0828381 -0.0071031 1.01011 
0.0869895 -0.00667728 1.00947 
0.0853383 -0.0053886 1.00982 
0.0849359 -0.00379588 1.00799 
0.0798042 -0.0028142 1.01118 
0.0835928 -0.00286849 1.00834 
0.0847944 -0.00312415 1.00932 
0.083139 -0.00287817 1.00972 
0.0841721 -0.00113514 1.00962 
0.0835862 0.0003288 1.00958 
0.0830695 0.00162694 1.00969 
0.0815565 0.00380617 1.00991 
0.0796575 0.00623455 1.01021 
0.0837031 0.00936932 1.00992 
0.0774918 0.014497 1.01057 
0.0794624 0.022009 1.01158 
0.0811271 0.0303169 1.00994 
0.0757027 0.0419211 1.00969 
0.0728313 0.058526 1.00918 
0.066877 0.0798767 1.00831 
0.0582199 0.111931 1.00622 
0.0496002 0.154489 1.00222 
0.0440407 0.214443 0.988246 
0.0307383 0.297343 0.968916 
0.0200545 0.403223 0.927793 
0.00743156 0.535659 0.85681 
-0.00141535 0.685563 0.734945 
-0.00500636 0.835669 0.548528 
-0.00525111 0.946618 0.303792 
-0.00269128 0.990143 -0.00967257 
0.000986909 0.943545 -0.311627 
0.00121879 0.829575 -0.557668 
-0.00164613 0.676968 -0.744502 
-0.0100898 0.522286 -0.865816 
-0.0218679 0.390091 -0.934157 
-0.0336403 0.287597 -0.970578 
-0.0445005 0.211329 -0.990455 
-0.0570238 0.15371 -0.999998 
-0.0617626 0.113149 -1.00558 
-0.0681576 0.0824582 -1.00628 
-0.0688042 0.0608508 -1.01093 
-0.0742763 0.0442595 -1.00989 
-0.0784184 0.0322558 -1.00871 
-0.0781858 0.0230802 -1.01133 
-0.0794504 0.0148566 -1.00907 
-0.0826956 0.00958799 -1.00985 
-0.0823893 0.00662112 -1.00991 
-0.0829824 0.00405606 -1.00993 
-0.082085 0.0021221 -1.01009 
-0.0822726 0.000413252 -1.01118 
-0.0834569 -0.00125693 -1.00957 
-0.0842315 -0.00257573 -1.00835 
-0.0791342 -0.00298713 -1.01068 
-0.0830716 -0.00288888 -1.00864 
-0.0840288 -0.00276729 -1.01088 
-0.0846062 -0.00360862 -1.01004 
-0.0853525 -0.0053784 -1.00972 
-0.0845959 -0.00672748 -1.00951 
-0.0848229 -0.00754406 -1.01023 
-0.0907954 -0.00897456 -1.00943 
-0.0844125 -0.010421 -1.0105 
-0.0775419 -0.0133143 -1.01127 
-0.0823531 -0.0172309 -1.01066 
-0.078662 -0.0269147 -1.01195 
-0.0794937 -0.0395146 -1.0095 
-0.0687614 -0.0598529 -1.0108 
-0.0603866 -0.0894734 -1.012 
-0.0590545 -0.123207 -1.00621 
-0.0442316 -0.179882 -0.988031 
0.02132 -0.188194 0.987641 
0.0373612 -0.134133 1.00572 
0.0380756 -0.0945873 1.00879 
0.0445769 -0.065289 1.01281 
0.0504461 -0.0449025 1.01147 
0.0540977 -0.0302475 1.01415 
0.056554 -0.0193354 1.01208 
0.0583105 -0.0135749 1.01149 
0.0631682 -0.0112741 1.01181 
0.0607422 -0.00908561 1.01162 
0.0597219 -0.00732034 1.01104 
0.0642871 -0.00611981 1.01155 
0.0622458 -0.0040759 1.01123 
0.0624125 -0.0024337 1.0108 
0.0591369 -0.00164662 1.01016 
0.0609008 -0.00255972 1.01203 
0.0618813 -0.00369928 1.01132 
0.0607686 -0.00311912 1.01085 
0.0619857 -0.00145998 1.01091 
0.0617917 0.000319493 1.01111 
0.0610525 0.00240271 1.01123 
0.0593438 0.00447859 1.01135 
0.0586242 0.00651454 1.01146 
0.061104 0.00938698 1.01123 
0.0564579 0.0148968 1.0111 
0.057356 0.0221647 1.00965 
0.0584881 0.0310736 1.01059 
0.0546467 0.0428323 1.01093 
0.0510753 0.0599479 1.01209 
0.0458285 0.0855805 1.00927 
0.0376707 0.12013 1.00709 
0.0304767 0.168161 1.00149 
0.0258682 0.231192 0.988434 
0.0150813 0.32095 0.963462 
0.00872945 0.42573 0.919985 
0.00043742 0.562558 0.840388 
-0.00322647 0.702061 0.720302 
-0.0040829 0.847054 0.530483 
-0.00306527 0.9569 0.264865 
-0.000534245 0.988665 -0.0102293 
0.000722993 0.947979 -0.294508 
0.00170077 0.84565 -0.532983 
3.74563e-05 0.703169 -0.72087 
-0.00450391 0.548772 -0.850807 
-0.0111259 0.410635 -0.927981 
-0.0192439 0.305096 -0.967749 
-0.0267969 0.224001 -0.98992 
-0.0360761 0.161334 -1.00082 
-0.0403468 0.119004 -1.00698 
-0.0466509 0.0881612 -1.0086 
-0.0482188 0.0653594 -1.00891 
-0.0529254 0.0471504 -1.01077 
-0.0566157 0.0341608 -1.01239 
-0.0577704 0.0235896 -1.01022 
-0.0579776 0.0149409 -1.0126 
-0.0598607 0.00971391 -1.01165 
-0.0601401 0.00668888 -1.01137 
-0.0607721 0.00433827 -1.01121 
-0.0601345 0.00257512 -1.01102 
-0.0596084 0.000903396 -1.00978 
-0.0595444 -0.00107236 -1.01131 
-0.0597579 -0.00300914 -1.0126 
-0.0576377 -0.00374054 -1.01018 
-0.0587736 -0.00251819 -1.0125 
-0.0606522 -0.00176813 -1.0113 
-0.0620256 -0.00233727 -1.01132 
-0.0639334 -0.00441922 -1.01122 
-0.0620071 -0.00648536 -1.01119 
-0.0590595 -0.00768215 -1.01135 
-0.065764 -0.00954262 -1.01143 
-0.0600174 -0.0119958 -1.01171 
-0.0551601 -0.0151672 -1.01194 
-0.0576273 -0.0196631 -1.012 
-0.0507417 -0.0306331 -1.01283 
-0.0568868 -0.0450462 -1.01274 
-0.043294 -0.0654268 -1.01191 
-0.0332709 -0.0958115 -1.01049 
-0.0386908 -0.135396 -1.00544 
-0.0231009 -0.188189 -0.987487 
0.0126955 -0.197168 0.985653 
0.0230878 -0.138101 1.00718 
0.0265006 -0.097829 1.01049 
0.0337442 -0.0691809 1.01262 
0.0342227 -0.0475391 1.01337 
0.0381585 -0.031797 1.01377 
0.0409449 -0.0216267 1.01304 
0.0418012 -0.0159306 1.01154 
0.0449743 -0.0129204 1.01462 
0.0435947 -0.00971122 1.01258 
0.0439684 -0.00703825 1.01107 
0.0450436 -0.00460848 1.01388 
0.0444742 -0.00207062 1.01114 
0.0437775 -0.000554948 1.01378 
0.0420859 -0.000903394 1.01216 
0.0430744 -0.00300481 1.01238 
0.043639 -0.00415187 1.01205 
0.0433613 -0.00312623 1.01224 
0.0438071 -0.000810263 1.01248 
0.0434408 0.00198248 1.01247 
0.0432241 0.00410727 1.01246 
0.0428662 0.00559168 1.01253 
0.04191 0.00766738 1.01236 
0.0435055 0.011104 1.01219 
0.0409626 0.0176214 1.01205 
0.0408387 0.0255697 1.01155 
0.0397436 0.0358681 1.01164 
0.0369977 0.0515676 1.01141 
0.033396 0.0719516 1.01085 
0.0273016 0.0987279 1.00853 
0.0199934 0.135297 1.00816 
0.0132325 0.185155 0.998512 
0.0118513 0.238917 0.990475 
0.00597125 0.33786 0.957342 
0.00109061 0.465774 0.901644 
-0.00234921 0.603471 0.811588 
-0.00282592 0.743155 0.679486 
-0.00216067 0.843679 0.536175 
-0.00282504 0.928488 0.354652 
0.000324 0.986525 0.0452012 
0.00206879 0.947444 -0.288356 
0.00373627 0.834218 -0.551518 
0.00198736 0.687033 -0.737087 
-8.39086e-06 0.561001 -0.845765 
-0.00371438 0.429609 -0.921512 
-0.00793796 0.31915 -0.965719 
-0.0133974 0.232631 -0.990281 
-0.0208863 0.166486 -1.00196 
-0.024138 0.122118 -1.00812 
-0.0309631 0.088851 -1.0118 
-0.0324142 0.065285 -1.01119 
-0.0366343 0.0468534 -1.01179 
-0.0395503 0.0327781 -1.01217 
-0.0403425 0.0221495 -1.01203 
-0.0416952 0.0139577 -1.01263 
-0.0432485 0.00892127 -1.01237 
-0.0432794 0.00649979 -1.01222 
-0.0432413 0.00513437 -1.01248 
-0.0432698 0.0029776 -1.01254 
-0.0434663 0.000617518 -1.01216 
-0.0418817 -0.00160065 -1.0124 
-0.0430441 -0.00342596 -1.01211 
-0.0420079 -0.00392068 -1.01197 
-0.0418965 -0.00229699 -1.01235 
-0.0427487 -0.000377172 -1.01072 
-0.0436737 -0.000584004 -1.01214 
-0.0447702 -0.00292045 -1.01263 
-0.0454269 -0.00558021 -1.01248 
-0.0436058 -0.00774519 -1.01241 
-0.0457397 -0.0097551 -1.01258 
-0.0436564 -0.0128348 -1.01293 
-0.0400071 -0.0165837 -1.01331 
-0.0440536 -0.0217082 -1.01309 
-0.0375787 -0.033509 -1.01333 
-0.0394159 -0.0480322 -1.01341 
-0.0342327 -0.071237 -1.01174 
-0.0275525 -0.101179 -1.01015 
-0.0225523 -0.139896 -1.00521 
-0.0119194 -0.196915 -0.985913 
0.0117927 -0.202045 0.98465 
0.0153104 -0.156263 1.00021 
0.0176656 -0.114728 1.00882 
0.0193873 -0.0801918 1.0118 
0.0208832 -0.0578585 1.01339 
0.0254781 -0.0394789 1.0136 
0.0289578 -0.02758 1.01301 
0.0296003 -0.0195633 1.01299 
0.0308364 -0.0157452 1.01295 
0.0319117 -0.0118911 1.01253 
0.0327742 -0.00833698 1.01238 
0.0335523 -0.00500781 1.01249 
0.0326271 -0.00147394 1.01229 
0.0320106 0.000845332 1.01225 
0.0305768 0.000306087 1.01222 
0.0296714 -0.00267945 1.01193 
0.0313106 -0.00495136 1.01202 
0.0313156 -0.00466175 1.01214 
0.0312303 -0.00212116 1.01235 
0.0315324 0.000761897 1.01239 
0.0318391 0.00331686 1.01231 
0.0317794 0.00503861 1.01233 
0.0311571 0.00638508 1.01226 
0.0308743 0.00894914 1.01205 
0.0313851 0.0133945 1.0118 
0.0290706 0.020888 1.01147 
0.0280132 0.0308772 1.01138 
0.0266654 0.0442775 1.01116 
0.0240155 0.0615297 1.0109 
0.0197558 0.0826346 1.01038 
0.0147697 0.113765 1.00888 
0.00904646 0.155409 1.00486 
0.00348382 0.223733 0.99344 
0.00314656 0.29052 0.976962 
0.00034145 0.416419 0.929956 
0.000464278 0.542653 0.85418 
-0.000746725 0.696116 0.731367 
-0.00340142 0.824083 0.564709 
-0.00122502 0.959146 0.257297 
0.00203442 0.986856 -0.0248075 
0.00628359 0.959167 -0.250198 
0.00952649 0.934445 -0.343206 
0.00598573 0.783185 -0.633857 
0.00347007 0.604289 -0.809114 
-0.000210502 0.445676 -0.914503 
-0.00224326 0.329557 -0.963481 
-0.0050659 0.244152 -0.98917 
-0.0111908 0.177135 -1.00135 
-0.0127796 0.134751 -1.00671 
-0.0181835 0.0995987 -1.00838 
-0.0212506 0.0752138 -1.01076 
-0.0240073 0.0528165 -1.01157 
-0.0268089 0.036692 -1.01175 
-0.0290401 0.025242 -1.01193 
-0.0295357 0.0158645 -1.01209 
-0.0315102 0.00937954 -1.01225 
-0.0323694 0.00644048 -1.01218 
-0.0318337 0.0053099 -1.01213 
-0.0311773 0.00392739 -1.01229 
-0.031847 0.00151147 -1.0123 
-0.0308035 -0.00129258 -1.01217 
-0.0310885 -0.0038278 -1.0121 
-0.0307917 -0.00483225 -1.01204 
-0.0302162 -0.00333164 -1.01191 
-0.0306437 -0.000279541 -1.01184 
-0.0320855 0.00110251 -1.01367 
-0.0315702 -0.000735975 -1.01241 
-0.0330155 -0.00443864 -1.01227 
-0.0319876 -0.00748422 -1.01243 
-0.0336303 -0.0103425 -1.01254 
-0.031417 -0.014592 -1.01284 
-0.0269657 -0.0191088 -1.01294 
-0.0289131 -0.0246965 -1.01331 
-0.0252467 -0.0373714 -1.01353 
-0.026007 -0.0514291 -1.01376 
-0.0200351 -0.0750701 -1.01207 
-0.0153204 -0.105133 -1.0098 
-0.014615 -0.144174 -1.00476 
-0.00961639 -0.201728 -0.9848 
0.00870126 -0.203578 0.984562 
0.0105424 -0.146226 1.00426 
0.0128739 -0.103575 1.0098 
0.0143382 -0.0739041 1.01157 
0.0173606 -0.0528837 1.01329 
0.0195347 -0.0366653 1.01453 
0.0195427 -0.0250704 1.01258 
0.0208487 -0.0188608 1.01299 
0.0219133 -0.0159009 1.01273 
0.0222059 -0.0108298 1.01273 
0.0216883 -0.00660378 1.01293 
0.0214079 -0.00259781 1.01268 
0.0214791 0.00136645 1.01266 
0.0201303 0.00235014 1.01231 
0.0197453 -0.000660214 1.01201 
0.0195507 -0.00497067 1.01207 
0.0196595 -0.0061702 1.01219 
0.0205006 -0.00440406 1.01242 
0.0204539 -0.00114726 1.01264 
0.0206413 0.00188308 1.01255 
0.0210446 0.00407225 1.01247 
0.0212731 0.00556271 1.01243 
0.0209957 0.00725018 1.01226 
0.0198875 0.010605 1.01206 
0.0211597 0.0162032 1.01157 
0.0181143 0.0261268 1.01155 
0.0165947 0.0385704 1.01124 
0.0154845 0.0543737 1.00971 
0.0117861 0.0737641 1.01256 
0.0087278 0.101423 1.01031 
0.00443839 0.143743 1.00696 
0.00245531 0.208818 0.997121 
0.00134713 0.328264 0.964722 
0.000842786 0.438246 0.915501 
8.55911e-05 0.617502 0.803924 
-0.00175838 0.719496 0.700236 
-0.00235388 0.877837 0.479711 
0.000457346 0.938956 0.321547 
-0.00193123 0.930548 0.357332 
-0.00307605 0.968399 0.189272 
0.00199407 0.987324 -0.0831726 
0.00378895 0.90754 -0.39064 
0.0107954 0.818705 -0.576128 
0.00752884 0.680539 -0.744122 
0.00421855 0.538163 -0.862635 
0.00147658 0.397821 -0.936414 
-0.00183396 0.281941 -0.979001 
-0.00423391 0.191219 -0.999531 
-0.00637418 0.132494 -1.00857 
-0.0101456 0.0957919 -1.01204 
-0.0137749 0.069825 -1.00973 
-0.0156198 0.0494491 -1.01323 
-0.0166663 0.0348312 -1.01166 
-0.018493 0.0233349 -1.01174 
-0.0196863 0.014206 -1.01228 
-0.0209192 0.00857962 -1.01225 
-0.0215599 0.00621836 -1.01217 
-0.0212761 0.00514202 -1.01268 
-0.0209735 0.003518 -1.01233 
-0.020579 0.000875399 -1.01247 
-0.0205957 -0.00244704 -1.01237 
-0.0203428 -0.00497658 -1.01223 
-0.020221 -0.00544911 -1.01208 
-0.018879 -0.00325355 -1.012 
-0.0192418 0.00069243 -1.01185 
-0.0200018 0.00246478 -1.01122 
-0.0203016 0.000651792 -1.01226 
-0.0220725 -0.00386853 -1.0128 
-0.0208278 -0.00730708 -1.01265 
-0.0246591 -0.0104634 -1.01258 
-0.0224519 -0.0161325 -1.01277 
-0.0206812 -0.0211802 -1.01274 
-0.0199609 -0.0264258 -1.01256 
-0.0189254 -0.0399231 -1.01271 
-0.0180813 -0.0559215 -1.01299 
-0.0142256 -0.077919 -1.01125 
-0.0115419 -0.108797 -1.00879 
-0.0104371 -0.149601 -1.00336 
-0.00787794 -0.20472 -0.983973 
0.00474509 -0.203237 0.98449 
0.00669344 -0.14916 1.00542 
0.0081403 -0.110822 1.0093 
0.00860603 -0.0792575 1.01144 
0.00924833 -0.0559649 1.01274 
0.00966672 -0.0416076 1.01111 
0.0107158 -0.0288642 1.01136 
0.0129194 -0.0232849 1.01304 
0.0139848 -0.0178973 1.01307 
0.0141182 -0.01149 1.01319 
0.0143042 -0.00759348 1.01241 
0.0137653 -0.00243755 1.01281 
0.0123357 0.00262786 1.01275 
0.0116176 0.00382203 1.01248 
0.0117225 0.000503725 1.01224 
0.0115999 -0.00464926 1.01219 
0.0115323 -0.007094 1.01226 
0.0127181 -0.0055487 1.01252 
0.0128773 -0.00214614 1.01276 
0.0129089 0.00132917 1.01277 
0.0133641 0.00385674 1.01276 
0.0137901 0.0054629 1.0126 
0.0139583 0.0067892 1.0124 
0.0126308 0.00979077 1.01233 
0.0127389 0.015992 1.01204 
0.0116676 0.0242401 1.01154 
0.00939842 0.0371216 1.01346 
0.00914422 0.0525006 1.01114 
0.00619359 0.0728085 1.00994 
0.00415111 0.0985882 1.0104 
0.0015361 0.13793 1.00773 
0.00162802 0.204408 0.998296 
0.0013242 0.309692 0.973866 
0.00082831 0.483825 0.893342 
-0.00170916 0.663654 0.758612 
-0.00475288 0.840684 0.541473 
0.00297193 0.963053 0.247831 
0.002549 0.993164 0.104349 
0.00231544 0.997756 0.0476447 
0.00283856 1.0008 0.00383837 
-0.00272262 0.999244 -0.0564193 
-0.00384144 0.996205 -0.11173 
0.0063324 0.804956 -0.597201 
0.00878114 0.667002 -0.751853 
0.00531017 0.552965 -0.855741 
0.00475026 0.438421 -0.917313 
0.00134106 0.319069 -0.966551 
-0.000486048 0.217704 -0.994757 
-0.00148921 0.146342 -1.00715 
-0.0037068 0.0985967 -1.01161 
-0.00697924 0.0725642 -1.01155 
-0.00751905 0.0544927 -1.01181 
-0.00892169 0.0397597 -1.01176 
-0.0103322 0.0276249 -1.01168 
-0.0121158 0.0179544 -1.01208 
-0.0128601 0.010799 -1.01216 
-0.0137743 0.00707875 -1.01117 
-0.0138572 0.00552656 -1.01379 
-0.0140766 0.00422397 -1.01123 
-0.0130028 0.0021608 -1.01272 
-0.0132533 -0.00126843 -1.01265 
-0.0125153 -0.00472347 -1.01262 
-0.012705 -0.00638422 -1.01229 
-0.0119343 -0.00516853 -1.01231 
-0.0115818 -0.000450381 -1.01222 
-0.0108174 0.00363182 -1.01378 
-0.0133461 0.00307925 -1.01274 
-0.0128335 -0.00217032 -1.01331 
-0.0132538 -0.00731555 -1.01267 
-0.0143496 -0.0114688 -1.01343 
-0.0137434 -0.0179305 -1.01296 
-0.0119661 -0.0233561 -1.01319 
-0.0124922 -0.0278038 -1.01288 
-0.0100352 -0.0401491 -1.01283 
-0.0115771 -0.055768 -1.01288 
-0.00941689 -0.0782253 -1.01115 
-0.00791623 -0.109124 -1.00873 
-0.00758242 -0.151246 -1.00302 
-0.00564265 -0.203867 -0.984198 
0.00194319 -0.205413 0.98381 
0.00426497 -0.15141 1.00155 
0.00523449 -0.111471 1.00837 
0.00573602 -0.0814506 1.01106 
0.0065001 -0.057665 1.01282 
0.00736665 -0.041532 1.0128 
0.00884033 -0.0289859 1.01424 
0.00947929 -0.0221242 1.01317 
0.00837931 -0.0170607 1.01287 
0.00818131 -0.0107303 1.014 
0.00906475 -0.00592924 1.0116 
0.00664112 -2.45703e-05 1.01415 
0.00515047 0.00462845 1.01261 
0.00477642 0.00399919 1.01208 
0.00500464 -0.00107162 1.01185 
0.00533088 -0.00656166 1.012 
0.00535042 -0.00828159 1.0123 
0.00632402 -0.00593332 1.01253 
0.00656345 -0.00169571 1.01268 
0.00663863 0.00170079 1.01272 