# vtk DataFile Version 3.0 
Exported using Morpho https://github.com/Morpho-lang/morpho 
ASCII 
DATASET UNSTRUCTURED_GRID 

POINTS 1978 float 
-12 -4 3.79308e-11 
-11.5916 -4 3.55801e-10 
-11.2873 -4 2.93404e-10 
-10.9415 -4 2.71532e-10 
-10.6282 -4 2.17566e-10 
-10.2834 -4 1.65311e-10 
-9.96192 -4 1.13159e-10 
-9.6515 -4 8.40999e-11 
-9.31556 -4 6.68011e-11 
-8.99828 -4 4.60161e-11 
-8.68301 -4 3.90191e-11 
-8.36588 -4 3.29974e-11 
-8.05939 -4 2.64153e-11 
-7.7657 -4 2.33373e-11 
-7.48334 -4 1.89441e-11 
-7.19095 -4 1.82572e-11 
-6.8922 -4 1.60728e-11 
-6.59382 -4 7.66527e-12 
-6.29485 -4 3.13236e-12 
-5.98794 -4 -4.15305e-12 
-5.68692 -4 -1.47581e-11 
-5.3825 -4 -2.67513e-11 
-5.08246 -4 -4.36741e-11 
-4.786 -4 -7.14615e-11 
-4.45736 -4 -9.89575e-11 
-4.16994 -4 -1.35798e-10 
-3.863 -4 -1.99389e-10 
-3.54108 -4 -2.59197e-10 
-3.24429 -4 -3.30906e-10 
-2.94756 -4 -4.10998e-10 
-2.65825 -4 -4.7689e-10 
-2.38187 -4 -4.97651e-10 
-2.12081 -4 -5.55227e-10 
-1.82755 -4 -5.49759e-10 
-1.54618 -4 -4.06465e-10 
-1.25102 -4 -2.32187e-10 
-0.962453 -4 -2.39966e-10 
-0.635291 -4 2.86121e-11 
-0.353336 -4 -4.97211e-10 
0.0107078 -4 5.83253e-10 
0.339412 -4 9.79719e-11 
0.642435 -4 7.9385e-11 
0.956048 -4 1.67355e-10 
1.22452 -4 1.42705e-10 
1.48917 -4 3.40752e-10 
1.7742 -4 5.34389e-10 
2.05944 -4 5.9788e-10 
2.34606 -4 6.55979e-10 
2.67204 -4 5.32931e-10 
2.96854 -4 4.42824e-10 
3.29338 -4 3.21718e-10 
3.58123 -4 2.38975e-10 
3.88427 -4 1.89877e-10 
4.19555 -4 1.33833e-10 
4.49434 -4 9.41006e-11 
4.79368 -4 6.82753e-11 
5.10343 -4 4.48686e-11 
5.40919 -4 2.63889e-11 
5.71745 -4 1.33733e-11 
6.01083 -4 3.34986e-12 
6.30435 -4 -1.14883e-12 
6.60135 -4 -1.02998e-11 
6.90045 -4 -1.37662e-11 
7.17592 -4 -1.43872e-11 
7.47764 -4 -2.18647e-11 
7.77178 -4 -2.47952e-11 
8.06941 -4 -2.9585e-11 
8.35829 -4 -3.5598e-11 
8.65883 -4 -3.67327e-11 
8.9332 -4 -4.7242e-11 
9.27976 -4 -6.92707e-11 
9.60671 -4 -7.89621e-11 
9.89523 -4 -1.179e-10 
10.2635 -4 -1.61222e-10 
10.5774 -4 -2.3614e-10 
10.9712 -4 -2.88376e-10 
11.2885 -4 -2.79175e-10 
11.5826 -4 -3.58025e-10 
12 -4 -4.40919e-11 
-12 -3.59617 -6.27751e-13 
-11.7133 -3.71657 1.16897e-17 
-11.359 -3.62419 8.76987e-18 
-11.0425 -3.67085 1.01063e-17 
-10.7083 -3.64095 7.85903e-18 
-10.3913 -3.67612 7.06943e-18 
-10.0555 -3.66107 5.42954e-18 
-9.73269 -3.66238 4.02139e-18 
-9.40156 -3.68348 3.15706e-18 
-9.06571 -3.66351 2.19206e-18 
-8.74984 -3.65999 1.636e-18 
-8.43322 -3.67086 1.32825e-18 
-8.11538 -3.66318 1.06652e-18 
-7.80354 -3.65632 8.89513e-19 
-7.50352 -3.6493 7.23035e-19 
-7.20913 -3.66436 6.07597e-19 
-6.90068 -3.66021 4.45189e-19 
-6.59355 -3.66582 2.48004e-19 
-6.28097 -3.67134 -2.55517e-14 
-5.97119 -3.66466 -3.25359e-19 
-5.6615 -3.66574 -7.59065e-19 
-5.35691 -3.65925 -1.30255e-18 
-5.05907 -3.65443 -2.04765e-18 
-4.73651 -3.68816 -3.25577e-18 
-4.44607 -3.64916 -4.17178e-18 
-4.1408 -3.67354 -6.22646e-18 
-3.82469 -3.69242 -8.71368e-18 
-3.51972 -3.68227 -1.1388e-17 
-3.21573 -3.68312 -1.46281e-17 
-2.92025 -3.67003 -1.81952e-17 
-2.63898 -3.66344 -2.06858e-17 
-2.36624 -3.65001 -2.27235e-17 
-2.07297 -3.69326 -2.57476e-17 
-1.78464 -3.68876 -2.38271e-17 
-1.49456 -3.67602 -1.39188e-17 
-1.1961 -3.66801 -1.73605e-18 
-0.869865 -3.68274 9.07492e-18 
-0.589748 -3.57957 -3.60583e-18 
-0.262563 -3.67718 4.3352e-17 
0.0362764 -3.5669 3.24292e-17 
0.316925 -3.61478 -3.31693e-17 
0.627154 -3.61193 -9.75751e-18 
0.924672 -3.66285 -1.06435e-17 
1.22352 -3.65304 2.2778e-18 
1.50958 -3.66846 1.50304e-17 
1.80176 -3.68056 2.27643e-17 
2.09745 -3.68542 2.50201e-17 
2.4222 -3.7245 2.79233e-17 
2.72788 -3.68825 2.0421e-17 
3.04027 -3.7022 1.84248e-17 
3.32842 -3.65998 1.26016e-17 
3.6267 -3.67321 1.02235e-17 
3.93416 -3.67765 7.73731e-18 
4.23367 -3.66124 5.49831e-18 
4.53183 -3.65946 3.94484e-18 
4.83979 -3.6703 2.82579e-18 
5.14905 -3.66763 1.87249e-18 
5.4609 -3.67031 1.15419e-18 
5.76289 -3.6546 6.26533e-19 
6.06179 -3.65805 2.24348e-19 
6.36132 -3.65978 -6.25186e-20 
6.66668 -3.66585 -2.85522e-19 
6.95194 -3.63697 -4.23324e-19 
7.25246 -3.66738 -6.77952e-19 
7.5523 -3.65756 -7.73046e-19 
7.85506 -3.66125 -9.69904e-19 
8.15177 -3.65054 -1.11939e-18 
8.44814 -3.66249 -1.41949e-18 
8.73468 -3.62699 -1.59992e-18 
9.0546 -3.70237 -2.49716e-18 
9.38651 -3.67857 -3.03346e-18 
9.69091 -3.62951 -3.68346e-18 
10.0246 -3.70722 -5.95432e-18 
10.3524 -3.65185 -6.50123e-18 
10.7169 -3.71846 -9.8792e-18 
11.051 -3.64499 -9.12954e-18 
11.3553 -3.61277 -8.47887e-18 
11.712 -3.72525 -1.19214e-17 
12 -3.5977 1.69979e-12 
-12 -3.2907 3.28645e-11 
-11.6306 -3.36444 3.33173e-18 
-11.286 -3.27829 1.53288e-18 
-10.9727 -3.32419 3.20195e-18 
-10.6552 -3.29004 2.89516e-18 
-10.3357 -3.34126 2.90041e-18 
-10.0113 -3.32327 2.33341e-18 
-9.69279 -3.32046 2.00575e-18 
-9.38829 -3.36306 1.67726e-18 
-9.08039 -3.32078 1.22411e-18 
-8.77302 -3.31667 8.61832e-19 
-8.46917 -3.33188 6.55103e-19 
-8.16164 -3.33222 4.78109e-19 
-7.85491 -3.3235 3.2755e-19 
-7.55285 -3.30819 2.66109e-19 
-7.25357 -3.3212 2.12132e-19 
-6.95619 -3.33573 1.47521e-19 
-6.64437 -3.33331 6.09536e-20 
-6.33637 -3.34366 -7.41672e-20 
-6.02653 -3.33479 -2.3587e-19 
-5.71576 -3.33356 -4.45495e-19 
-5.40878 -3.32447 -7.1498e-19 
-5.10419 -3.31067 -1.05502e-18 
-4.80187 -3.36428 -1.62596e-18 
-4.50074 -3.30966 -2.05282e-18 
-4.20138 -3.34195 -2.96241e-18 
-3.89649 -3.3735 -4.19868e-18 
-3.59228 -3.36666 -5.40798e-18 
-3.28533 -3.36992 -7.20097e-18 
-2.97821 -3.35313 -9.256e-18 
-2.67081 -3.32649 -1.04831e-17 
-2.38445 -3.31095 -1.0504e-17 
-2.09473 -3.37541 -1.14119e-17 
-1.79698 -3.36957 -8.9631e-18 
-1.49085 -3.34854 -5.6708e-18 
-1.15474 -3.35443 3.92315e-18 
-0.868193 -3.29181 1.37064e-17 
-0.55763 -3.17023 -3.6843e-18 
-0.274749 -3.30049 3.95273e-17 
0.0160687 -3.12315 -2.52597e-17 
0.301112 -3.16355 -1.33053e-17 
0.584129 -3.21041 -5.10315e-17 
0.896951 -3.28197 -2.0869e-17 
1.18494 -3.30052 -2.00103e-18 
1.4912 -3.34407 6.14122e-18 
1.79418 -3.35512 8.89087e-18 
2.08621 -3.36793 1.30375e-17 
2.38385 -3.43072 1.37797e-17 
2.67198 -3.3723 1.08623e-17 
2.97501 -3.39586 9.52145e-18 
3.2761 -3.33117 6.59516e-18 
3.57593 -3.342 5.23361e-18 
3.87509 -3.35222 4.11777e-18 
4.17552 -3.32893 2.90271e-18 
4.47543 -3.32069 2.12238e-18 
4.77603 -3.33736 1.61406e-18 
5.08095 -3.33876 1.15508e-18 
5.39183 -3.3429 7.63242e-19 
5.7004 -3.32261 4.48215e-19 
6.01017 -3.31721 2.40044e-19 
6.30858 -3.32058 8.00638e-20 
6.61215 -3.33498 -5.17151e-20 
6.91218 -3.28826 -1.18204e-19 
7.20931 -3.3283 -2.04733e-19 
7.51017 -3.3205 -2.75602e-19 
7.8135 -3.32704 -3.71802e-19 
8.11909 -3.31013 -4.6371e-19 
8.42008 -3.31319 -6.04534e-19 
8.74293 -3.30717 -8.32773e-19 
9.06693 -3.38358 -1.28005e-18 
9.37955 -3.33804 -1.62574e-18 
9.69127 -3.28539 -2.00229e-18 
10.0041 -3.37943 -2.84333e-18 
10.306 -3.30009 -2.70023e-18 
10.6305 -3.40079 -3.71567e-18 
10.962 -3.32679 -3.12173e-18 
11.2934 -3.24962 -1.09331e-18 
11.6292 -3.37249 -3.56596e-18 
12 -3.28595 -3.94274e-11 
-12 -2.96296 1.54597e-11 
-11.66 -3.04751 1.35257e-18 
-11.3151 -2.95991 -1.07477e-18 
-10.9669 -2.96979 3.47091e-19 
-10.626 -2.96304 6.22628e-19 
-10.295 -3.00164 9.2308e-19 
-9.96878 -2.98812 1.05681e-18 
-9.65271 -2.97864 1.08673e-18 
-9.35011 -3.01871 9.38198e-19 
-9.04123 -2.97775 6.54381e-19 
-8.73862 -2.96942 4.71064e-19 
-8.43816 -2.9927 3.59845e-19 
-8.13137 -2.99629 2.25295e-19 
-7.82995 -2.98511 1.53445e-19 
-7.52646 -2.97278 8.98501e-20 
-7.22736 -2.98643 6.26908e-20 
-6.92319 -3.01138 1.82163e-20 
-6.61424 -3.00575 -3.2864e-20 
-6.30989 -3.01209 -1.04302e-19 
-6.00218 -3.00491 -2.05622e-19 
-5.69741 -3.00047 -3.35444e-19 
-5.39218 -2.9911 -4.91414e-19 
-5.09067 -2.97558 -6.3625e-19 
-4.79303 -3.03037 -9.97229e-19 
-4.49098 -2.97954 -1.14625e-18 
-4.19381 -3.0122 -1.53878e-18 
-3.89724 -3.04978 -2.3624e-18 
-3.59344 -3.04637 -2.8421e-18 
-3.29136 -3.05325 -3.67583e-18 
-2.97734 -3.03848 -4.84865e-18 
-2.68975 -2.98143 -4.86857e-18 
-2.38833 -2.97665 -4.41007e-18 
-2.09086 -3.04669 -4.90018e-18 
-1.78693 -3.04419 -6.19943e-19 
-1.44637 -3.03196 5.39936e-18 
-1.16498 -2.96956 1.61244e-17 
-0.846935 -2.91126 1.7088e-17 
-0.553594 -2.7425 5.80287e-17 
-0.253558 -2.86802 -4.79001e-17 
-0.0146201 -2.58733 3.11662e-17 
0.257984 -2.68827 -6.56167e-17 
0.545485 -2.76718 2.28056e-17 
0.851183 -2.89459 -1.11988e-18 
1.16806 -2.8948 -1.89027e-18 
1.46152 -3.00726 2.78366e-18 
1.7726 -3.0249 5.78848e-18 
2.0831 -3.02926 2.62992e-18 
2.3725 -3.10565 6.07831e-18 
2.6717 -3.04074 6.13838e-18 
2.96251 -3.07668 4.38266e-18 
3.25924 -3.00672 3.61812e-18 
3.56513 -3.01759 2.68372e-18 
3.86998 -3.02207 2.17103e-18 
4.16778 -2.99754 1.60244e-18 
4.46947 -2.99155 1.14221e-18 
4.77169 -3.00295 8.52813e-19 
5.07108 -3.00664 6.517e-19 
5.37349 -3.01578 4.59947e-19 
5.67891 -2.99237 3.29212e-19 
5.98501 -2.99287 1.98135e-19 
6.29825 -2.97794 9.99285e-20 
6.59418 -3.00111 1.28326e-20 
6.91618 -2.97305 -2.86309e-20 
7.23358 -2.99144 -7.02362e-20 
7.53427 -2.98467 -1.09408e-19 
7.83842 -2.99428 -1.66688e-19 
8.13652 -2.97068 -2.27044e-19 
8.44723 -2.99136 -3.35404e-19 
8.74792 -2.96407 -4.49205e-19 
9.04807 -3.05551 -6.89778e-19 
9.35749 -3.00441 -8.56472e-19 
9.65747 -2.94097 -8.50807e-19 
9.97971 -3.02814 -1.03119e-18 
10.3145 -2.9731 -7.25706e-19 
10.6473 -3.06544 -1.41065e-18 
10.9804 -2.98622 -4.71169e-19 
11.3341 -2.92778 1.17811e-18 
11.6682 -3.05152 -1.57163e-18 
12 -2.94287 -2.42161e-11 
-12 -2.65195 1.24879e-11 
-11.6458 -2.71908 1.50347e-19 
-11.3047 -2.63246 -1.80674e-18 
-10.966 -2.64729 -2.88771e-19 
-10.6316 -2.63547 1.04594e-19 
-10.2976 -2.66996 3.45911e-19 
-9.96841 -2.65932 7.05707e-19 
-9.63838 -2.65874 6.74658e-19 
-9.31165 -2.67648 5.71206e-19 
-8.99626 -2.63685 4.37607e-19 
-8.68489 -2.63187 3.12061e-19 
-8.37539 -2.66419 2.18219e-19 
-8.07101 -2.6579 1.59894e-19 
-7.76167 -2.65459 1.02175e-19 
-7.45061 -2.64528 6.40707e-20 
-7.14338 -2.66539 3.63186e-20 
-6.83927 -2.68706 9.42563e-21 
-6.53077 -2.67681 -3.55134e-20 
-6.22613 -2.68131 -9.85555e-20 
-5.9207 -2.67282 -1.85606e-19 
[...]
POINT_DATA 1978 
VECTORS vectors float
0.000909219 -0.00170779 0.999998 
0.00121518 -0.0583966 0.998293 
0.000940295 -0.057518 0.998344 
0.00107071 -0.0470434 0.998892 
0.00101241 -0.0361106 0.999347 
0.00102982 -0.0248426 0.999691 
0.00102364 -0.0171066 0.999853 
0.00103515 -0.0121081 0.999926 
0.00105743 -0.0086654 0.999962 
0.00103952 -0.00681666 0.999976 
0.00102919 -0.00567536 0.999983 
0.00101621 -0.00484817 0.999988 
0.000980863 -0.00423405 0.999991 
0.000959237 -0.0037467 0.999993 
0.000949131 -0.00331256 0.999994 
0.000967435 -0.00276725 0.999996 
0.000976337 -0.0021775 0.999997 
0.000980297 -0.00148765 0.999998 
0.000991274 -0.000649827 0.999999 
0.000989057 0.000437941 0.999999 
0.000990352 0.00186229 0.999998 
0.000976954 0.00385358 0.999992 
0.000977229 0.0064782 0.999979 
0.000999951 0.00991641 0.99995 
0.00097052 0.0152016 0.999884 
0.000972616 0.0211399 0.999776 
0.000963432 0.0296475 0.99956 
0.000942067 0.0422009 0.999109 
0.000888038 0.0579539 0.998319 
0.000825998 0.0800214 0.996793 
0.000750756 0.109883 0.993944 
0.000675835 0.148968 0.988842 
0.000591653 0.198697 0.980061 
0.000488687 0.273796 0.961788 
0.000355911 0.366937 0.930246 
0.000184956 0.491816 0.870699 
4.43108e-05 0.634228 0.773146 
-0.000110996 0.806647 0.591034 
-8.43313e-05 0.932958 0.359987 
8.67523e-06 0.999943 -0.0106764 
0.000127988 0.935825 -0.352465 
0.000101126 0.800232 -0.59969 
-3.16509e-05 0.634399 -0.773005 
-0.00017223 0.501938 -0.864904 
-0.000321523 0.386628 -0.922236 
-0.000472609 0.287111 -0.957897 
-0.000607827 0.21208 -0.977252 
-0.000744219 0.155436 -0.987846 
-0.00081724 0.108985 -0.994043 
-0.000895518 0.0786493 -0.996902 
-0.000894516 0.0554205 -0.998463 
-0.00092984 0.0406297 -0.999174 
-0.000944625 0.0293679 -0.999568 
-0.000961341 0.0207492 -0.999784 
-0.000963733 0.0145686 -0.999893 
-0.000978918 0.00993625 -0.99995 
-0.000992219 0.00631003 -0.99998 
-0.000996017 0.00363828 -0.999993 
-0.000977419 0.00165443 -0.999998 
-0.000969759 0.000338382 -0.999999 
-0.000967368 -0.00059925 -0.999999 
-0.000967006 -0.00146477 -0.999998 
-0.00095143 -0.00218438 -0.999997 
-0.000962272 -0.00265355 -0.999996 
-0.000962709 -0.00330173 -0.999994 
-0.000971896 -0.00402895 -0.999991 
-0.000963274 -0.00469287 -0.999989 
-0.000962321 -0.00539029 -0.999985 
-0.000959912 -0.00607126 -0.999981 
-0.00103425 -0.00680781 -0.999976 
-0.00105382 -0.00873123 -0.999961 
-0.0010313 -0.0119327 -0.999928 
-0.00105371 -0.0161428 -0.999869 
-0.00107679 -0.0245862 -0.999697 
-0.00111892 -0.0341602 -0.999416 
-0.0011255 -0.0482933 -0.998833 
-0.000927494 -0.0576442 -0.998337 
-0.00119037 -0.0583902 -0.998293 
-0.000922308 -0.00172394 -0.999998 
-0.000265506 -0.000479836 1 
0.0231662 -0.0437036 0.998776 
0.0293712 -0.0524223 0.998193 
0.0292604 -0.0477592 0.99843 
0.0311299 -0.0379145 0.998796 
0.0310564 -0.0286212 0.999108 
0.0328398 -0.0202757 0.999255 
0.0340886 -0.0142854 0.999317 
0.0339827 -0.010134 0.999371 
0.0352423 -0.00751116 0.999351 
0.0356114 -0.00593207 0.999348 
0.0358811 -0.00492389 0.999344 
0.0364713 -0.00419861 0.999326 
0.0371669 -0.00359829 0.999303 
0.0377334 -0.00305225 0.999283 
0.0369376 -0.00251967 0.999314 
0.0366367 -0.00190868 0.999327 
0.0366951 -0.0012007 0.999326 
0.0364016 -0.000343202 0.999337 
0.0366363 0.000785682 0.999328 
0.0363556 0.0023259 0.999336 
0.0364552 0.0044188 0.999326 
0.0363162 0.00716663 0.999315 
0.0345115 0.0111427 0.999342 
0.0359008 0.0160768 0.999226 
0.0340972 0.0227442 0.99916 
0.0323824 0.0321952 0.998957 
0.0320217 0.0448791 0.998479 
0.0301217 0.0621118 0.997615 
0.0281042 0.086054 0.995894 
0.02572 0.117648 0.992722 
0.0226629 0.158967 0.987024 
0.0176902 0.217579 0.975882 
0.0135454 0.296313 0.954995 
0.00874563 0.39676 0.917881 
0.00416525 0.520564 0.853812 
0.000183044 0.680078 0.733139 
-0.00169985 0.828206 0.560421 
-0.00144306 0.958305 0.285743 
-0.000439879 0.999871 -0.0160856 
0.00117324 0.949141 -0.31485 
0.00108385 0.818133 -0.575028 
-0.00111302 0.658265 -0.752785 
-0.00524037 0.504114 -0.863621 
-0.00994303 0.379027 -0.925332 
-0.0147159 0.281096 -0.959567 
-0.019086 0.206936 -0.978168 
-0.022383 0.14719 -0.988855 
-0.0261659 0.106494 -0.993969 
-0.0281784 0.0761961 -0.996695 
-0.03127 0.0555078 -0.997968 
-0.0323075 0.0403558 -0.998663 
-0.0332468 0.0289217 -0.999029 
-0.0347253 0.0206994 -0.999183 
-0.0353093 0.0145188 -0.999271 
-0.0353025 0.00973269 -0.999329 
-0.0358865 0.00618099 -0.999337 
-0.0360969 0.0035561 -0.999342 
-0.0371537 0.00172115 -0.999308 
-0.0372285 0.000412738 -0.999307 
-0.0371479 -0.000574957 -0.99931 
-0.0372475 -0.00139284 -0.999305 
-0.0385382 -0.00199283 -0.999255 
-0.0370238 -0.00260339 -0.999311 
-0.0374459 -0.00323151 -0.999293 
-0.0373018 -0.00389897 -0.999296 
-0.037702 -0.00457212 -0.999279 
-0.0371162 -0.0053626 -0.999297 
-0.0381466 -0.00623242 -0.999253 
-0.0343041 -0.00768018 -0.999382 
-0.0344958 -0.0102443 -0.999352 
-0.0354646 -0.0139806 -0.999273 
-0.031342 -0.0196125 -0.999316 
-0.0319529 -0.0275145 -0.999111 
-0.0284166 -0.038241 -0.998864 
-0.0301164 -0.0476847 -0.998408 
-0.0296254 -0.0521137 -0.998202 
-0.0229758 -0.0439032 -0.998772 
0.000260552 -0.000492688 -1 
-0.000265297 -0.00118643 0.999999 
0.0279249 -0.0448014 0.998606 
0.0323463 -0.0502577 0.998212 
0.0345748 -0.045009 0.998388 
0.0359228 -0.0366305 0.998683 
0.0378197 -0.0283915 0.998881 
0.0394257 -0.0208794 0.999004 
0.0410515 -0.0149432 0.999045 
0.0418081 -0.0105867 0.99907 
0.0429823 -0.00788584 0.999045 
0.0437411 -0.00618487 0.999024 
0.043855 -0.00496773 0.999026 
0.044095 -0.00412442 0.999019 
0.0442235 -0.00347092 0.999016 
0.0443327 -0.0028718 0.999013 
0.0443239 -0.00233685 0.999014 
0.0443756 -0.00179446 0.999013 
0.0443653 -0.00113252 0.999015 
0.0442208 -0.000333862 0.999022 
0.0440737 0.000734102 0.999028 
0.0437758 0.00220741 0.999039 
0.0434286 0.00423289 0.999048 
0.0429004 0.00697505 0.999055 
0.0424542 0.0106247 0.999042 
0.0417187 0.0155864 0.999008 
0.0408943 0.0220744 0.99892 
0.0397668 0.0309342 0.99873 
0.0378806 0.042904 0.998361 
0.0356269 0.060366 0.99754 
0.0328345 0.0838032 0.995941 
0.0289057 0.116277 0.992796 
0.0244675 0.15912 0.986956 
0.0203017 0.217628 0.975821 
0.0148509 0.295884 0.955109 
0.00899275 0.400645 0.916189 
0.00347703 0.543558 0.839365 
3.19794e-07 0.690656 0.723183 
-0.00126674 0.840075 0.542469 
-0.00172313 0.953104 0.302637 
-0.000346739 0.999912 -0.013282 
0.000279796 0.949171 -0.314761 
0.000132996 0.832142 -0.554563 
-0.00142635 0.678906 -0.734224 
-0.0049001 0.527971 -0.849249 
-0.0101034 0.394314 -0.91892 
-0.015528 0.294087 -0.955653 
-0.0207956 0.217546 -0.975828 
-0.0258957 0.158559 -0.98701 
-0.0296678 0.115689 -0.992842 
-0.0330009 0.083527 -0.995959 
-0.0354559 0.0616853 -0.997466 
-0.0375715 0.0445979 -0.998298 
-0.0393902 0.0323019 -0.998702 
-0.0405548 0.0231342 -0.998909 
-0.0413986 0.0162407 -0.999011 
-0.0423559 0.0111288 -0.999041 
-0.0430852 0.007266 -0.999045 
-0.0435607 0.00437909 -0.999041 
-0.0439328 0.00232608 -0.999032 
-0.044197 0.000835796 -0.999022 
-0.0443562 -0.00020569 -0.999016 
-0.0445252 -0.00102132 -0.999008 
-0.0444239 -0.00164251 -0.999011 
-0.0446689 -0.00227227 -0.998999 
-0.0446051 -0.00285074 -0.999001 
-0.0445766 -0.00348057 -0.999 
-0.0444815 -0.00417444 -0.999001 
-0.0440832 -0.00503278 -0.999015 
-0.0440295 -0.00631374 -0.99901 
-0.043109 -0.00812087 -0.999037 
-0.0423789 -0.0109095 -0.999042 
-0.0411953 -0.0150791 -0.999037 
-0.0395068 -0.0203377 -0.999012 
-0.0381254 -0.0276857 -0.998889 
-0.0362846 -0.0359681 -0.998694 
-0.0346199 -0.0446506 -0.998403 
-0.0319454 -0.0500959 -0.998233 
-0.027916 -0.0445604 -0.998617 
0.000349718 -0.0012274 -0.999999 
3.63262e-05 -0.000899718 1 
0.0238473 -0.0428764 0.998796 
0.0278137 -0.0506484 0.998329 
0.0304076 -0.045223 0.998514 
0.0324961 -0.0372494 0.998777 
0.0349593 -0.0288013 0.998974 
0.0365502 -0.0212729 0.999105 
0.0380786 -0.0151058 0.999161 
0.0398612 -0.0109481 0.999145 
0.0399978 -0.00811437 0.999167 
0.0403241 -0.00609836 0.999168 
0.0410992 -0.00475606 0.999144 
0.0412487 -0.00383624 0.999142 
0.0412391 -0.0031573 0.999144 
0.0409636 -0.00257593 0.999157 
0.0413776 -0.00207108 0.999141 
0.041749 -0.00154401 0.999127 
0.0415274 -0.000899629 0.999137 
0.0414256 -0.000112227 0.999142 
0.0411905 0.000969484 0.999151 
0.04091 0.00247743 0.99916 
0.0404523 0.00460453 0.999171 
0.0398225 0.00752023 0.999178 
0.0398083 0.0111943 0.999145 
0.0383523 0.0166447 0.999126 
0.0375606 0.0234392 0.999019 
0.0367565 0.0322147 0.998805 
0.0349063 0.0448941 0.998382 
0.0325811 0.061525 0.997574 
0.0289608 0.0867813 0.995806 
0.0247604 0.119709 0.9925 
0.0203033 0.166403 0.985849 
0.0168309 0.225916 0.974001 
0.0116459 0.309156 0.95094 
0.00634513 0.425452 0.904959 
0.00246552 0.553727 0.832694 
0.000450403 0.701711 0.712462 
6.86611e-05 0.850021 0.526748 
-3.74678e-05 0.964787 0.263031 
0.000990879 0.999949 -0.0100165 
0.00121147 0.959083 -0.283123 
0.00112362 0.856934 -0.515425 
-0.000272601 0.700473 -0.713679 
-0.0029503 0.543761 -0.839235 
-0.007475 0.410405 -0.911873 
-0.0122338 0.303901 -0.952625 
-0.0171693 0.224391 -0.974348 
-0.0227307 0.164673 -0.986086 
-0.0260885 0.121124 -0.992294 
-0.02946 0.088177 -0.995669 
-0.0315316 0.0648657 -0.997396 
-0.0338997 0.046931 -0.998323 
-0.0358838 0.0335972 -0.998791 
-0.0371446 0.0242754 -0.999015 
-0.0383849 0.0172827 -0.999114 
-0.0394638 0.0118727 -0.99915 
-0.0402468 0.00784866 -0.999159 
-0.0408213 0.00484093 -0.999155 
-0.0408557 0.00264695 -0.999162 
-0.0410541 0.00109051 -0.999156 
-0.0410115 -1.96373e-05 -0.999159 
-0.0412603 -0.00079419 -0.999148 
-0.0411536 -0.00146883 -0.999152 
-0.0413038 -0.00206812 -0.999144 
-0.0414267 -0.00262748 -0.999138 
-0.0416056 -0.00325004 -0.999129 
-0.0413128 -0.00397103 -0.999138 
-0.0413563 -0.00498412 -0.999132 
-0.0406781 -0.00637986 -0.999152 
-0.0414041 -0.0083335 -0.999108 
-0.0396796 -0.0113723 -0.999148 
-0.0375401 -0.0157815 -0.999171 
-0.0372222 -0.021585 -0.999074 
-0.0346186 -0.0295342 -0.998964 
-0.0340636 -0.0372415 -0.998726 
-0.0307165 -0.0453713 -0.998498 
-0.0271298 -0.0506099 -0.99835 
-0.0235815 -0.0421916 -0.998831 
0.000286038 -0.000924051 -1 
-0.000225421 -0.00108681 0.999999 
0.0190423 -0.0436573 0.998865 
0.0223512 -0.0521326 0.99839 
0.0249527 -0.0463805 0.998612 
0.0271168 -0.0390564 0.998869 
0.029452 -0.0303477 0.999105 
0.0311627 -0.0224761 0.999262 
0.0326815 -0.0161245 0.999336 
0.03374 -0.0113073 0.999367 
0.0339017 -0.00811001 0.999392 
0.0340603 -0.00590198 0.999402 
0.0349727 -0.00446039 0.999378 
0.0349634 -0.00348467 0.999383 
0.03496 -0.00278834 0.999385 
0.0347211 -0.00221998 0.999395 
0.0352574 -0.00173141 0.999377 
0.0357086 -0.00121288 0.999362 
0.0352448 -0.000566003 0.999379 
0.0352219 0.000273961 0.999379 
0.0349689 0.0014717 0.999387 
0.0347137 0.00320866 0.999392 
0.0341033 0.00564747 0.999402 
0.0335343 0.00906258 0.999396 
0.0337131 0.0131199 0.999345 
0.0319695 0.0193627 0.999301 
0.0313144 0.0269589 0.999146 
0.0306261 0.0366814 0.998858 
0.0284871 0.050378 0.998324 
0.0264601 0.0697843 0.997211 
0.0224876 0.0956991 0.995156 
0.0183669 0.134402 0.990757 
0.0142041 0.184912 0.982652 
0.011716 0.243764 0.969764 
0.00727078 0.342112 0.939631 
0.00325155 0.456748 0.88959 
0.000929729 0.592178 0.805807 
0.000453131 0.741495 0.670959 
0.00137305 0.851967 0.523594 
0.000862173 0.944816 0.327599 
0.00110616 0.997283 0.0736582 
0.00058447 0.965668 -0.259778 
0.000442519 0.843946 -0.536428 
0.000748673 0.705203 -0.709005 
-0.00110849 0.547368 -0.836892 
-0.00466057 0.408838 -0.912595 
-0.00858027 0.303195 -0.95289 
-0.0130201 0.224769 -0.974325 
-0.0183046 0.163115 -0.986437 
-0.0204337 0.120713 -0.992477 
-0.0242614 0.0877248 -0.995849 
-0.0260119 0.0630328 -0.997672 
-0.0286469 0.045259 -0.998564 
-0.0303346 0.0328509 -0.999 
-0.0314296 0.023495 -0.99923 
-0.0324199 0.0165929 -0.999337 
-0.0335544 0.0114086 -0.999372 
-0.0342713 0.00750784 -0.999384 
-0.034817 0.00458755 -0.999383 
-0.0346444 0.00243928 -0.999397 
-0.035008 0.000923551 -0.999387 
-0.0344687 -7.55659e-05 -0.999406 
-0.0354197 -0.00082132 -0.999372 
-0.0350083 -0.0014264 -0.999386 
-0.0350354 -0.00193062 -0.999384 
-0.0351145 -0.00246085 -0.99938 
-0.0351621 -0.00305618 -0.999377 
-0.0349961 -0.00383307 -0.99938 
-0.0350483 -0.00491809 -0.999374 
-0.034256 -0.00652579 -0.999392 
-0.0356741 -0.00868551 -0.999326 
-0.0336403 -0.011967 -0.999362 
-0.0316221 -0.0169964 -0.999355 
-0.0318404 -0.0230814 -0.999226 
-0.0290551 -0.0311983 -0.999091 
-0.0287155 -0.0389217 -0.99883 
-0.0251274 -0.0470921 -0.998574 
-0.0214058 -0.051819 -0.998427 
-0.0184067 -0.0426528 -0.99892 
9.62433e-05 -0.00103084 -0.999999 
-0.000239193 -0.00107043 0.999999 
0.0126038 -0.0401491 0.999114 
0.0164098 -0.0526614 0.998478 
0.0187963 -0.0501005 0.998567 
0.0206452 -0.0431252 0.998856 
0.0227795 -0.0347598 0.999136 
0.0244669 -0.0266247 0.999346 
0.0255722 -0.0193497 0.999486 
0.0266137 -0.0136844 0.999552 
0.0268591 -0.00973523 0.999592 
0.0265912 -0.00683426 0.999623 
0.0271039 -0.00487407 0.999621 
0.0272812 -0.00368209 0.999621 
0.0273383 -0.00286285 0.999622 
0.0273392 -0.00227883 0.999624 
0.0272918 -0.00178515 0.999626 
0.027762 -0.00133219 0.999614 
0.0278215 -0.000822103 0.999613 
0.0274887 -0.000116585 0.999622 
0.0274256 0.000878269 0.999623 
0.0273098 0.00237529 0.999624 
0.0268719 0.00451327 0.999629 
0.0265021 0.00752047 0.99962 
0.0257253 0.0115147 0.999603 
0.0260861 0.0162174 0.999528 
0.0244047 0.0233843 0.999429 
0.0238212 0.0320098 0.999204 
0.0229173 0.0427672 0.998822 
0.021471 0.0588883 0.998034 
0.0186878 0.0791497 0.996688 
0.0152549 0.111953 0.993596 
0.0109885 0.157724 0.987422 
0.00769988 0.223417 0.974693 
0.00601227 0.296235 0.955096 
0.00270984 0.396234 0.918145 
0.00063264 0.54309 0.839674 
0.000536872 0.659808 0.751434 
0.00160509 0.855398 0.517969 
0.0026695 0.987152 0.159759 
0.00070234 1 -0.000412573 
0.00134513 0.953493 -0.301412 
-0.00308894 0.96364 -0.267186 
0.0011743 0.794209 -0.607644 
0.000824494 0.623625 -0.781723 
-0.000932219 0.449498 -0.893281 
-0.00366832 0.332086 -0.943242 
-0.00705862 0.24197 -0.970258 
-0.012037 0.177554 -0.984037 
-0.0134441 0.135803 -0.990645 
-0.0171462 0.0973077 -0.995107 
-0.0194464 0.0714414 -0.997255 
-0.02158 0.0500376 -0.998514 
-0.023008 0.0362904 -0.999076 
-0.0242306 0.0262464 -0.999362 
-0.0249704 0.0186308 -0.999515 
-0.0258714 0.0128959 -0.999582 
-0.0265139 0.00865506 -0.999611 
-0.0270863 0.00543477 -0.999618 
-0.027189 0.003062 -0.999626 
-0.027449 0.00129538 -0.999622 
-0.0267726 0.000163443 -0.999642 
-0.027634 -0.00063222 -0.999618 
-0.0278439 -0.00118669 -0.999612 
-0.0270163 -0.00168035 -0.999634 
-0.0273515 -0.00215514 -0.999624 
-0.0270729 -0.00272659 -0.99963 
-0.0270887 -0.00347827 -0.999627 
-0.0272278 -0.00461359 -0.999619 
-0.0263057 -0.00624469 -0.999634 
-0.0280383 -0.0089004 -0.999567 
-0.0267279 -0.012813 -0.999561 
-0.0247922 -0.0181644 -0.999528 
-0.0254517 -0.0247209 -0.99937 
-0.0229036 -0.0333342 -0.999182 
-0.0229939 -0.041028 -0.998893 
-0.0195525 -0.0489321 -0.998611 
-0.0161124 -0.0534249 -0.998442 
-0.0138772 -0.0444106 -0.998917 
-6.5014e-06 -0.000978811 -1 
9.64128e-05 -0.000994393 1 
0.00967738 -0.0457538 0.998906 
0.0127375 -0.0544903 0.998433 
0.0140392 -0.0497667 0.998662 
0.0157659 -0.041813 0.999001 
0.0171631 -0.0333812 0.999295 
0.0185292 -0.025082 0.999514 
0.0192484 -0.0178969 0.999655 
0.0194647 -0.0126843 0.99973 
0.019693 -0.00879049 0.999767 
0.0196326 -0.00592916 0.99979 
0.019412 -0.00423929 0.999803 
0.0196347 -0.00316575 0.999802 
0.0195972 -0.00246868 0.999805 
0.0197521 -0.00197455 0.999803 
0.0194795 -0.00155711 0.999809 
0.0196218 -0.00114704 0.999807 
0.019913 -0.000610344 0.999802 
0.0194921 0.000185054 0.99981 
0.0196248 0.00141265 0.999806 
0.0194392 0.00324107 0.999806 
0.0192436 0.00589371 0.999797 
0.0187176 0.00946298 0.99978 
0.0178932 0.0141111 0.99974 
0.018434 0.019675 0.999636 
0.0169973 0.0281859 0.999458 
0.0160378 0.0381503 0.999143 
0.0158726 0.0520047 0.998521 
0.0133764 0.0704774 0.997424 
0.0115191 0.0988656 0.995034 
0.00771137 0.143695 0.989592 
0.00469132 0.21355 0.976921 
0.00262439 0.304884 0.952386 
0.000594905 0.437736 0.899103 
-9.30627e-05 0.567979 0.823043 
-0.000450932 0.730175 0.68326 
-0.000488442 0.857429 0.514601 
0.00292537 0.949682 0.313201 
0.000859895 0.947696 0.319174 
0.00038581 0.998963 0.0455203 
-0.00361756 0.993859 -0.110593 
-0.00425555 0.944021 -0.329859 
-0.000869337 0.859441 -0.511234 
0.00180676 0.691667 -0.722214 
0.00181355 0.520641 -0.853774 
0.000282772 0.380822 -0.924648 
-0.00205242 0.276749 -0.96094 
-0.00588409 0.19117 -0.981539 
-0.00876257 0.131432 -0.991286 
-0.01157 0.0947321 -0.995436 
-0.0145752 0.0658388 -0.997724 
-0.0152472 0.0475747 -0.998751 
-0.016355 0.034519 -0.99927 
-0.0173695 0.0248992 -0.999539 
-0.0179349 0.0176793 -0.999683 
-0.018395 0.012315 -0.999755 
-0.0188638 0.00818684 -0.999789 
-0.0192384 0.00508142 -0.999802 
-0.0197881 0.00263856 -0.999801 
-0.0194359 0.00103476 -0.999811 
-0.0195953 -0.000123116 -0.999808 
-0.0196643 -0.000779211 -0.999806 
-0.0201 -0.00126475 -0.999797 
-0.0190367 -0.00167757 -0.999817 
-0.0195577 -0.00212343 -0.999806 
-0.0189547 -0.00266451 -0.999817 
-0.0192668 -0.00349799 -0.999808 
-0.019278 -0.00472526 -0.999803 
-0.0184992 -0.00653816 -0.999807 
-0.0208425 -0.0090999 -0.999741 
-0.0196025 -0.0130516 -0.999723 
-0.0183332 -0.0190091 -0.999651 
-0.0189901 -0.026366 -0.999472 
-0.0168518 -0.0353156 -0.999234 
-0.017115 -0.0432767 -0.998917 
-0.0140477 -0.0507982 -0.99861 
-0.0113505 -0.0550231 -0.998421 
-0.00975487 -0.0450916 -0.998935 
5.81013e-05 -0.000977648 -1 
-3.4783e-05 -0.000979668 1 
0.0064597 -0.0454075 0.998948 
0.00866347 -0.0559154 0.998398 
0.0096238 -0.0523347 0.998583 
0.0108272 -0.0448225 0.998936 
0.0117641 -0.0362071 0.999275 
0.0127113 -0.0275835 0.999539 
0.0134057 -0.0200611 0.999709 
0.0132621 -0.0140624 0.999813 
0.0133968 -0.00968175 0.999863 
0.0137201 -0.00656547 0.999884 
0.0129594 -0.00445476 0.999906 
0.0130383 -0.0032387 0.99991 
0.0129182 -0.00249611 0.999913 
0.0130122 -0.00202817 0.999913 
0.0128643 -0.00167435 0.999916 
0.0125684 -0.00132395 0.99992 
0.0129477 -0.000868343 0.999916 
0.0128404 -0.000178397 0.999918 
0.0128518 0.000978253 0.999917 
0.0128051 0.0027085 0.999914 
0.0128479 0.00521943 0.999904 
0.0124685 0.00867487 0.999885 
0.0117508 0.0131602 0.999844 
0.0116482 0.0190348 0.999751 
0.0117642 0.026321 0.999584 
0.0101494 0.0366294 0.999277 
0.0103645 0.0499524 0.998698 
0.00835315 0.0676632 0.997673 
0.00742273 0.0930923 0.99563 
0.00525496 0.129387 0.99158 
0.0030056 0.194231 0.980951 
0.00150934 0.28732 0.957833 
0.000628683 0.394179 0.919034 
-0.00040741 0.67328 0.739388 
0.00252786 0.831394 0.555677 
0.0011442 0.988251 0.152833 
0.00321442 0.992563 0.121688 
0.00255346 0.995838 0.0911063 
0.000543632 0.99974 0.022775 
-0.0006253 0.999615 -0.0277552 
-0.00193381 0.998742 -0.0500982 
-0.00459072 0.820135 -0.572151 
-0.000993126 0.669291 -0.743 
0.00151561 0.53341 -0.845856 
0.00140794 0.396528 -0.918021 
0.000213994 0.288822 -0.957383 
-0.00230533 0.205915 -0.978567 
-0.00459581 0.144914 -0.989434 
-0.00652226 0.0997555 -0.994991 
-0.00908502 0.0718621 -0.997373 
-0.00956902 0.052327 -0.998584 
-0.0102846 0.0379685 -0.999226 
-0.0110593 0.0276177 -0.999557 
-0.0115749 0.0199384 -0.999734 
-0.0118409 0.0140584 -0.999831 
-0.0121631 0.00948247 -0.999881 
-0.0123053 0.00595939 -0.999907 
-0.0131707 0.00332635 -0.999908 
-0.0126177 0.00140203 -0.999919 
-0.0134377 0.000100515 -0.99991 
-0.0126896 -0.000719792 -0.999919 
-0.0131371 -0.00119359 -0.999913 
-0.0126331 -0.00155634 -0.999919 
-0.012774 -0.00194576 -0.999917 
-0.0123841 -0.0023974 -0.99992 
-0.012638 -0.00315763 -0.999915 
-0.012484 -0.00434292 -0.999913 
-0.0125338 -0.00638673 -0.999901 
-0.0140515 -0.00960108 -0.999855 
-0.0136872 -0.0143045 -0.999804 
-0.0123605 -0.0203657 -0.999716 
-0.0135291 -0.0272352 -0.999538 
-0.0116833 -0.0357782 -0.999291 
-0.0120856 -0.0441529 -0.998952 