# vtk DataFile Version 3.0 
Exported using Morpho https://github.com/Morpho-lang/morpho 
ASCII 
DATASET UNSTRUCTURED_GRID 

POINTS 1978 float 
-12 -4 5.71011e-09 
-11.5917 -4 4.84933e-08 
-11.2873 -4 3.97277e-08 
-10.9415 -4 3.70125e-08 
-10.6282 -4 2.97995e-08 
-10.2834 -4 2.26466e-08 
-9.96186 -4 1.55537e-08 
-9.65152 -4 1.15435e-08 
-9.31561 -4 9.18374e-09 
-8.99828 -4 6.27244e-09 
-8.68301 -4 5.32061e-09 
-8.36584 -4 4.48669e-09 
-8.05935 -4 3.56951e-09 
-7.76565 -4 3.16905e-09 
-7.48331 -4 2.55183e-09 
-7.19108 -4 2.48696e-09 
-6.89215 -4 2.20875e-09 
-6.59387 -4 1.01304e-09 
-6.29482 -4 4.07577e-10 
-5.98792 -4 -5.89149e-10 
-5.68695 -4 -2.04843e-09 
-5.38252 -4 -3.67495e-09 
-5.08249 -4 -5.99932e-09 
-4.78603 -4 -9.76934e-09 
-4.45733 -4 -1.35558e-08 
-4.16996 -4 -1.85983e-08 
-3.86299 -4 -2.729e-08 
-3.54098 -4 -3.55124e-08 
-3.2443 -4 -4.55501e-08 
-2.9475 -4 -5.67312e-08 
-2.65825 -4 -6.61482e-08 
-2.38177 -4 -6.92283e-08 
-2.12077 -4 -7.73315e-08 
-1.82748 -4 -7.67059e-08 
-1.54622 -4 -5.64158e-08 
-1.25079 -4 -3.1831e-08 
-0.962417 -4 -2.98391e-08 
-0.635521 -4 6.16151e-09 
-0.353157 -4 -6.08018e-08 
0.0103143 -4 7.6852e-08 
0.339244 -4 7.34437e-09 
0.642455 -4 7.579e-09 
0.95602 -4 2.07473e-08 
1.2247 -4 1.75368e-08 
1.48863 -4 4.94717e-08 
1.77424 -4 7.46784e-08 
2.0594 -4 8.32032e-08 
2.34602 -4 9.06368e-08 
2.67196 -4 7.3434e-08 
2.96854 -4 6.08715e-08 
3.29337 -4 4.42372e-08 
3.58121 -4 3.28004e-08 
3.88427 -4 2.60267e-08 
4.19555 -4 1.83199e-08 
4.49434 -4 1.2894e-08 
4.79368 -4 9.36456e-09 
5.10347 -4 6.15568e-09 
5.40919 -4 3.62521e-09 
5.71746 -4 1.85888e-09 
6.01085 -4 4.77754e-10 
6.30431 -4 -1.12982e-10 
6.60139 -4 -1.40768e-09 
6.90045 -4 -1.87849e-09 
7.1759 -4 -1.90947e-09 
7.47763 -4 -2.9786e-09 
7.77179 -4 -3.34538e-09 
8.0694 -4 -4.0186e-09 
8.35829 -4 -4.84752e-09 
8.65884 -4 -5.00103e-09 
8.93317 -4 -6.40463e-09 
9.27974 -4 -9.50964e-09 
9.60672 -4 -1.08662e-08 
9.89522 -4 -1.61401e-08 
10.2636 -4 -2.20347e-08 
10.5774 -4 -3.2135e-08 
10.9712 -4 -3.91431e-08 
11.2885 -4 -3.79409e-08 
11.5826 -4 -4.88015e-08 
12 -4 -6.56229e-09 
-12 -3.59611 1.59275e-10 
-11.7117 -3.71502 -4.16084e-08 
-11.3576 -3.62353 -2.26718e-08 
-11.0414 -3.67041 -2.67345e-08 
-10.7077 -3.64069 -2.24871e-08 
-10.3914 -3.67631 -1.98403e-08 
-10.0564 -3.65939 -1.59807e-08 
-9.73544 -3.65366 -1.2021e-08 
-9.40831 -3.68321 -9.24201e-09 
-9.07181 -3.66485 -6.61161e-09 
-8.75032 -3.66328 -4.90494e-09 
-8.43162 -3.66839 -3.92665e-09 
-8.11454 -3.66285 -3.20093e-09 
-7.80309 -3.65436 -2.69877e-09 
-7.50383 -3.64737 -2.23862e-09 
-7.20727 -3.66226 -1.80554e-09 
-6.89776 -3.66353 -1.25498e-09 
-6.58927 -3.66328 -7.41614e-10 
-6.27566 -3.67111 7.04253e-11 
-5.96686 -3.66369 1.09024e-09 
-5.65742 -3.66478 2.41945e-09 
-5.35203 -3.65729 4.11592e-09 
-5.05404 -3.65141 6.44922e-09 
-4.73038 -3.68538 9.7743e-09 
-4.44133 -3.64268 1.29546e-08 
-4.13701 -3.66934 1.90858e-08 
-3.8193 -3.69094 2.61899e-08 
-3.51497 -3.67299 3.43074e-08 
-3.21413 -3.68026 4.54927e-08 
-2.91623 -3.67895 5.70537e-08 
-2.63304 -3.66795 6.75131e-08 
-2.36003 -3.65529 7.43155e-08 
-2.06522 -3.70022 8.21891e-08 
-1.775 -3.68623 7.47329e-08 
-1.48711 -3.69457 4.59812e-08 
-1.19875 -3.67577 6.08476e-09 
-0.880538 -3.68667 -3.44897e-08 
-0.596691 -3.59602 9.94161e-09 
-0.275283 -3.68113 -1.58319e-07 
0.0172216 -3.58097 -1.03267e-07 
0.309852 -3.62879 1.93493e-07 
0.616789 -3.62254 -3.07507e-08 
0.921554 -3.67723 4.2805e-08 
1.22532 -3.66079 -7.9411e-09 
1.51695 -3.68717 -5.04031e-08 
1.80813 -3.69161 -7.45722e-08 
2.10223 -3.6936 -7.87467e-08 
2.42235 -3.72679 -8.10276e-08 
2.7198 -3.69062 -6.16387e-08 
3.03045 -3.70615 -5.43558e-08 
3.32422 -3.65818 -3.93811e-08 
3.6217 -3.66887 -3.13606e-08 
3.92992 -3.67435 -2.35224e-08 
4.22936 -3.65712 -1.69876e-08 
4.52878 -3.65548 -1.22256e-08 
4.83929 -3.66774 -8.64897e-09 
5.15055 -3.66569 -5.73802e-09 
5.46243 -3.66957 -3.59672e-09 
5.76516 -3.65429 -2.00332e-09 
6.0633 -3.657 -7.48324e-10 
6.36328 -3.66091 1.63985e-10 
6.66737 -3.66368 8.05881e-10 
6.95112 -3.63372 1.29608e-09 
7.25175 -3.66535 2.05073e-09 
7.55222 -3.6558 2.33193e-09 
7.85529 -3.65984 2.91765e-09 
8.15316 -3.6502 3.45578e-09 
8.44986 -3.66244 4.35777e-09 
8.73628 -3.62546 5.07965e-09 
9.05529 -3.70142 7.22696e-09 
9.38663 -3.67682 8.90208e-09 
9.68995 -3.62681 1.14648e-08 
10.0229 -3.70501 1.65713e-08 
10.3489 -3.64935 1.82062e-08 
10.7142 -3.71758 2.41024e-08 
11.0476 -3.6441 2.43797e-08 
11.3522 -3.6123 2.27265e-08 
11.7094 -3.72357 4.17534e-08 
12 -3.59771 -1.26066e-12 
-12 -3.29069 4.99214e-09 
-11.6289 -3.36273 -1.99994e-08 
-11.2839 -3.27793 -5.26735e-09 
-10.9713 -3.32366 -1.14392e-08 
-10.6553 -3.28979 -1.03857e-08 
-10.3385 -3.34048 -1.046e-08 
-10.0172 -3.31832 -8.61111e-09 
-9.69775 -3.31476 -7.40159e-09 
-9.38503 -3.36048 -6.03295e-09 
-9.06967 -3.33019 -4.38169e-09 
-8.77299 -3.30795 -3.11316e-09 
-8.47498 -3.33254 -2.37081e-09 
-8.16683 -3.32902 -1.71088e-09 
-7.85982 -3.32251 -1.19581e-09 
-7.55482 -3.30354 -9.42424e-10 
-7.25636 -3.31972 -7.77804e-10 
-6.95717 -3.3379 -5.51193e-10 
-6.64549 -3.33425 -2.01318e-10 
-6.33566 -3.34297 2.74897e-10 
-6.02765 -3.33383 8.54515e-10 
-5.71758 -3.33276 1.60055e-09 
-5.40963 -3.32261 2.56127e-09 
-5.10376 -3.30612 3.80034e-09 
-4.79967 -3.36101 5.87859e-09 
-4.49834 -3.29911 7.43681e-09 
-4.20042 -3.33349 1.05398e-08 
-3.89582 -3.37146 1.50663e-08 
-3.59176 -3.36069 1.95532e-08 
-3.27714 -3.35909 2.54822e-08 
-2.97507 -3.36308 3.30417e-08 
-2.67418 -3.33597 3.72803e-08 
-2.38583 -3.3177 3.77835e-08 
-2.09427 -3.38731 3.97366e-08 
-1.79634 -3.37602 3.14026e-08 
-1.48979 -3.36919 1.91619e-08 
-1.16255 -3.37089 -1.89263e-08 
-0.873455 -3.30488 -4.88161e-08 
-0.580224 -3.17818 7.16124e-09 
-0.298243 -3.30567 -1.45705e-07 
0.0100263 -3.16432 8.49709e-08 
0.307935 -3.21526 1.8209e-07 
0.591761 -3.19058 5.31414e-08 
0.889081 -3.30614 7.02963e-08 
1.18916 -3.32872 1.95146e-08 
1.49569 -3.36436 -1.95924e-08 
1.79024 -3.3743 -3.31911e-08 
2.07974 -3.38142 -4.56664e-08 
2.37484 -3.43499 -5.13007e-08 
2.67468 -3.3821 -3.9421e-08 
2.97457 -3.39445 -3.45491e-08 
3.26572 -3.33346 -2.45323e-08 
3.56877 -3.33443 -1.90506e-08 
3.86816 -3.34819 -1.49563e-08 
4.17019 -3.32336 -1.05545e-08 
4.47179 -3.31519 -7.66413e-09 
4.77426 -3.3343 -5.79021e-09 
5.08144 -3.33682 -4.12496e-09 
5.39357 -3.33979 -2.70036e-09 
5.69998 -3.32303 -1.64079e-09 
6.00977 -3.31535 -8.81941e-10 
6.30748 -3.32255 -2.98117e-10 
6.60985 -3.33239 1.71601e-10 
6.90867 -3.28313 4.05406e-10 
7.2056 -3.32568 7.19775e-10 
7.5073 -3.31915 9.80553e-10 
7.81247 -3.32531 1.33252e-09 
8.11875 -3.31134 1.67013e-09 
8.42202 -3.3134 2.19268e-09 
8.74473 -3.30545 3.01926e-09 
9.06867 -3.38196 4.62862e-09 
9.38031 -3.33466 5.90676e-09 
9.68871 -3.27905 7.12283e-09 
9.99897 -3.37511 9.91845e-09 
10.3039 -3.29974 9.69459e-09 
10.6305 -3.40075 1.35773e-08 
10.9631 -3.3239 1.14618e-08 
11.2939 -3.24897 3.72771e-09 
11.6287 -3.37139 2.14928e-08 
12 -3.28595 -6.01008e-09 
-12 -2.96298 2.36196e-09 
-11.6591 -3.04666 -1.35005e-08 
-11.3152 -2.95986 4.09835e-09 
-10.9679 -2.96935 -1.3833e-09 
-10.6276 -2.96434 -2.26109e-09 
-10.2965 -2.99954 -3.39474e-09 
-9.97053 -2.98324 -3.85609e-09 
-9.6443 -2.98464 -3.77373e-09 
-9.34211 -3.01901 -3.28042e-09 
-9.04088 -2.97611 -2.30017e-09 
-8.73667 -2.96266 -1.67992e-09 
-8.4363 -2.99283 -1.27614e-09 
-8.132 -2.99112 -8.26757e-10 
-7.83153 -2.98495 -5.45323e-10 
-7.52987 -2.96594 -3.39039e-10 
-7.23017 -2.98688 -2.30883e-10 
-6.92635 -3.01442 -6.81058e-11 
-6.61852 -3.00791 1.0228e-10 
-6.31625 -3.01069 3.48481e-10 
-6.00925 -3.00448 6.96571e-10 
-5.70325 -3.00014 1.15347e-09 
-5.39588 -2.98952 1.69763e-09 
-5.09259 -2.97032 2.26164e-09 
-4.79572 -3.02711 3.39623e-09 
-4.48964 -2.97267 4.03037e-09 
-4.1891 -3.0016 5.73307e-09 
-3.89571 -3.04857 8.18252e-09 
-3.59489 -3.03885 1.03759e-08 
-3.29562 -3.05302 1.35908e-08 
-2.97343 -3.04076 1.67363e-08 
-2.68186 -2.99409 1.75669e-08 
-2.37492 -2.98443 1.79393e-08 
-2.0782 -3.06114 1.9528e-08 
-1.77258 -3.05507 1.00024e-08 
-1.44747 -3.05371 -2.30863e-08 
-1.15872 -2.99559 -5.278e-08 
-0.854549 -2.90867 -6.35384e-08 
-0.55611 -2.7449 -1.99892e-07 
-0.253893 -2.88181 1.8907e-07 
0.00707919 -2.62778 -1.43475e-07 
0.268377 -2.73902 3.24383e-08 
0.5472 -2.71237 1.04682e-07 
0.8432 -2.89223 -1.12003e-08 
1.15582 -2.94518 5.80042e-09 
1.4662 -3.02933 -9.24486e-09 
1.77501 -3.03785 -1.91147e-08 
2.07921 -3.04846 -1.23929e-08 
2.36997 -3.11944 -2.20576e-08 
2.66629 -3.0535 -1.97521e-08 
2.9565 -3.06882 -1.79062e-08 
3.25989 -3.00513 -1.21276e-08 
3.56024 -3.01147 -9.95407e-09 
3.8663 -3.01861 -7.86778e-09 
4.16529 -2.99272 -5.72639e-09 
4.4657 -2.98401 -4.21845e-09 
4.76582 -3.00043 -3.20632e-09 
5.067 -3.00553 -2.41934e-09 
5.37125 -3.01311 -1.74092e-09 
5.68012 -2.99166 -1.17298e-09 
5.98537 -2.9915 -7.4197e-10 
6.29892 -2.98018 -3.63433e-10 
6.59359 -2.99806 -5.20478e-11 
6.91583 -2.96928 9.66911e-11 
7.23423 -2.98987 2.5125e-10 
7.53619 -2.98523 4.03464e-10 
7.83944 -2.99254 5.99197e-10 
8.13918 -2.97445 8.34447e-10 
8.44793 -2.99071 1.21907e-09 
8.748 -2.96306 1.63381e-09 
9.04937 -3.05386 2.54164e-09 
9.35678 -2.99915 3.11873e-09 
9.66028 -2.93848 3.23603e-09 
9.9841 -3.02448 4.08809e-09 
10.3168 -2.97071 2.82099e-09 
10.6457 -3.06751 4.79789e-09 
10.9779 -2.98397 1.61845e-09 
11.3312 -2.9278 -4.68693e-09 
11.6669 -3.04978 1.55859e-08 
12 -2.94283 -3.70385e-09 
-12 -2.65198 1.91563e-09 
-11.6446 -2.71888 -6.94971e-09 
-11.3028 -2.63402 6.79915e-09 
-10.9636 -2.64786 1.04043e-09 
-10.6304 -2.63727 -2.338e-10 
-10.298 -2.66983 -1.26299e-09 
-9.96407 -2.66091 -2.36421e-09 
-9.63733 -2.66141 -2.47059e-09 
-9.31263 -2.67231 -2.09381e-09 
-8.99594 -2.63944 -1.57416e-09 
-8.6842 -2.62821 -1.14281e-09 
-8.37677 -2.6609 -8.15521e-10 
-8.07029 -2.65482 -5.71046e-10 
-7.7624 -2.65303 -3.77739e-10 
-7.44719 -2.6428 -2.17848e-10 
-7.1419 -2.66768 -1.26604e-10 
-6.83887 -2.69072 -2.80453e-11 
-6.53126 -2.67713 1.36354e-10 
-6.22703 -2.68048 3.664e-10 
-5.92085 -2.67322 6.82321e-10 
[...]
POINT_DATA 1978 
VECTORS vectors float
0.00321887 -0.0110067 0.999937 
0.00992945 -0.0588916 0.998213 
0.00772253 -0.0577125 0.998302 
0.00758483 -0.0471292 0.998858 
0.0076672 -0.0361389 0.999316 
0.0077979 -0.0248257 0.99966 
0.00746491 -0.0170794 0.999825 
0.00767784 -0.0120857 0.999896 
0.00791799 -0.00864955 0.999929 
0.00765751 -0.00681131 0.999946 
0.00757691 -0.00567667 0.999954 
0.00743312 -0.00485201 0.999959 
0.00701072 -0.00423901 0.999965 
0.00662893 -0.00375231 0.99997 
0.00658892 -0.00331965 0.999972 
0.00687852 -0.00277301 0.999972 
0.00692743 -0.00218349 0.999971 
0.00698961 -0.00149396 0.999975 
0.00713702 -0.000655936 0.999973 
0.00714776 0.00043093 0.999973 
0.00710434 0.00185407 0.999972 
0.00698561 0.00384496 0.999967 
0.00696193 0.00646874 0.999954 
0.00733114 0.009904 0.999923 
0.0070589 0.0151897 0.999859 
0.00686902 0.0211223 0.999752 
0.00712357 0.0296193 0.999535 
0.00687021 0.0421674 0.999086 
0.00630259 0.0579008 0.998302 
0.00580573 0.0799467 0.996782 
0.0051613 0.109779 0.993943 
0.00447324 0.148836 0.988852 
0.00398155 0.19854 0.980085 
0.00338814 0.273648 0.961824 
0.00249164 0.366759 0.930313 
0.00134579 0.491722 0.870752 
0.000267722 0.634186 0.773181 
-0.000660044 0.806594 0.591105 
-0.000571968 0.933019 0.359827 
1.87935e-05 0.999941 -0.0108102 
0.000749404 0.935728 -0.35272 
0.00063051 0.800123 -0.599835 
-0.00015899 0.634326 -0.773066 
-0.00110734 0.501895 -0.864931 
-0.00219416 0.386468 -0.922298 
-0.00328095 0.286977 -0.957932 
-0.0042082 0.211967 -0.977268 
-0.00537286 0.155323 -0.987849 
-0.00604447 0.108892 -0.994035 
-0.00653239 0.078569 -0.996886 
-0.00649388 0.0553672 -0.998444 
-0.0065319 0.0405935 -0.999154 
-0.00687206 0.0293438 -0.999545 
-0.00692843 0.0207314 -0.99976 
-0.00685633 0.014555 -0.99987 
-0.00705392 0.00992611 -0.999925 
-0.0072193 0.00630112 -0.999953 
-0.00722311 0.00363006 -0.999966 
-0.00699678 0.00164612 -0.999973 
-0.00681729 0.000331498 -0.999976 
-0.00684901 -0.000603518 -0.999976 
-0.00686644 -0.00147033 -0.999974 
-0.00662067 -0.00219124 -0.999975 
-0.00668564 -0.00265749 -0.999973 
-0.00685411 -0.00330669 -0.99997 
-0.00689774 -0.00403646 -0.999967 
-0.00680119 -0.00470007 -0.999965 
-0.00672199 -0.00539822 -0.999962 
-0.00666357 -0.00607591 -0.999959 
-0.00756549 -0.0068024 -0.999947 
-0.00808027 -0.00871762 -0.999927 
-0.00741196 -0.0119152 -0.9999 
-0.00781031 -0.0161181 -0.999838 
-0.00816724 -0.0245737 -0.999662 
-0.00875401 -0.0341802 -0.999375 
-0.00832974 -0.0483879 -0.998791 
-0.0072634 -0.0578395 -0.998298 
-0.00983731 -0.058865 -0.998216 
-0.00341356 -0.0110605 -0.999936 
-0.00142969 -0.00932881 0.999955 
0.0240277 -0.044412 0.998725 
0.0298187 -0.0527051 0.998166 
0.0297356 -0.0478882 0.998411 
0.0315555 -0.0379646 0.998782 
0.0315307 -0.0286343 0.999093 
0.0333111 -0.0202684 0.99924 
0.0345687 -0.0142741 0.999301 
0.0345043 -0.0101245 0.999354 
0.0357427 -0.00750815 0.999334 
0.0360964 -0.00593169 0.999332 
0.0363795 -0.00492723 0.999327 
0.036963 -0.0042042 0.999309 
0.0376539 -0.00360375 0.999285 
0.0382137 -0.0030569 0.999266 
0.0374322 -0.00252388 0.999297 
0.0371235 -0.00191262 0.999312 
0.0371751 -0.00120398 0.999307 
0.0369062 -0.000347319 0.999319 
0.037128 0.000780849 0.999311 
0.0368454 0.00232081 0.999319 
0.0369367 0.00441399 0.999309 
0.0367866 0.00716094 0.999298 
0.0350227 0.0111376 0.999325 
0.0363541 0.0160712 0.999211 
0.0345758 0.0227344 0.999144 
0.0328704 0.0321838 0.998942 
0.0324806 0.0448547 0.998466 
0.0305594 0.0620793 0.997604 
0.0285165 0.0860159 0.995886 
0.0260862 0.117618 0.992717 
0.022983 0.15892 0.987025 
0.0179904 0.21754 0.975886 
0.0137733 0.296191 0.95503 
0.00889972 0.396766 0.917877 
0.00423147 0.520579 0.853804 
0.000179143 0.679845 0.733356 
-0.00176955 0.828361 0.560192 
-0.00152437 0.958252 0.285918 
-0.000439483 0.99988 -0.0154017 
0.00121336 0.94926 -0.314487 
0.00111275 0.81818 -0.57496 
-0.00112185 0.658098 -0.752932 
-0.00530518 0.50399 -0.863692 
-0.0101184 0.378988 -0.92535 
-0.0149625 0.280955 -0.959605 
-0.0193955 0.206846 -0.978182 
-0.0227903 0.147116 -0.988857 
-0.0265582 0.106459 -0.993963 
-0.0286473 0.076183 -0.996683 
-0.031683 0.0554738 -0.997958 
-0.0327661 0.0403405 -0.998649 
-0.0337215 0.0289117 -0.999014 
-0.0351887 0.0206909 -0.999167 
-0.0357772 0.0145111 -0.999255 
-0.0357891 0.00972488 -0.999313 
-0.0363744 0.00617317 -0.99932 
-0.0365892 0.0035492 -0.999325 
-0.037631 0.00171463 -0.999291 
-0.037717 0.000407971 -0.999289 
-0.0376285 -0.000579322 -0.999292 
-0.0377481 -0.00139761 -0.999287 
-0.0390008 -0.00199702 -0.999238 
-0.0375237 -0.00260697 -0.999293 
-0.0379277 -0.00323666 -0.999276 
-0.0377943 -0.00390456 -0.999279 
-0.0381763 -0.00457729 -0.999261 
-0.0376127 -0.00536707 -0.999279 
-0.0385974 -0.00623332 -0.999236 
-0.0348499 -0.00767492 -0.999364 
-0.0350004 -0.0102366 -0.999336 
-0.0359064 -0.013971 -0.999258 
-0.0318777 -0.019603 -0.9993 
-0.032399 -0.027524 -0.999097 
-0.0289454 -0.0382868 -0.998848 
-0.0305564 -0.047813 -0.99839 
-0.0300624 -0.0523931 -0.998175 
-0.0238436 -0.0446207 -0.99872 
0.00147904 -0.00954456 -0.999953 
-0.0013856 -0.0109106 0.99994 
0.0284053 -0.0453636 0.998567 
0.032562 -0.0505154 0.998193 
0.0347804 -0.0451129 0.998377 
0.0361166 -0.0366833 0.998675 
0.038039 -0.028421 0.998873 
0.039644 -0.0208918 0.998996 
0.0412826 -0.0149431 0.999037 
0.0420468 -0.0105784 0.999061 
0.0432117 -0.00787969 0.999036 
0.0439804 -0.00618516 0.999014 
0.0440911 -0.00496896 0.999016 
0.0443325 -0.00412816 0.999009 
0.0444509 -0.00347619 0.999006 
0.0445515 -0.00287576 0.999004 
0.0445426 -0.00234027 0.999006 
0.0446099 -0.00179821 0.999004 
0.0446016 -0.00113627 0.999005 
0.0444599 -0.000338427 0.999012 
0.0443076 0.00072897 0.999019 
0.0440069 0.00220176 0.99903 
0.043654 0.00422682 0.999039 
0.043119 0.00696842 0.999047 
0.0426887 0.0106176 0.999033 
0.0419289 0.0155795 0.999 
0.0411135 0.0220651 0.998912 
0.0399944 0.0309238 0.998722 
0.0381005 0.0428958 0.998354 
0.0358268 0.0603278 0.997536 
0.0330349 0.0837743 0.995938 
0.029074 0.116216 0.992799 
0.0246055 0.159069 0.986962 
0.0204391 0.217585 0.975828 
0.0149597 0.295925 0.955095 
0.00906115 0.400519 0.916245 
0.00350757 0.543341 0.839505 
-2.32718e-05 0.690837 0.723012 
-0.00129155 0.839801 0.542893 
-0.00175306 0.953018 0.302908 
-0.000245515 0.999909 -0.0134059 
0.000348558 0.949021 -0.31521 
0.000137887 0.832 -0.554776 
-0.00143537 0.679008 -0.73413 
-0.00494019 0.527706 -0.849414 
-0.0101733 0.39423 -0.918957 
-0.0156328 0.294134 -0.955637 
-0.0209366 0.217459 -0.975846 
-0.0260824 0.158555 -0.987006 
-0.0298472 0.115637 -0.992844 
-0.033203 0.0834848 -0.995957 
-0.0356576 0.0616867 -0.997459 
-0.037776 0.0445879 -0.998292 
-0.039607 0.0322933 -0.998694 
-0.0407685 0.0231297 -0.998902 
-0.0416111 0.0162344 -0.999003 
-0.042581 0.0111221 -0.999032 
-0.043317 0.00725897 -0.999036 
-0.0437832 0.00437138 -0.999032 
-0.0441723 0.00232153 -0.999022 
-0.0444218 0.00083088 -0.999013 
-0.0445817 -0.000209757 -0.999007 
-0.0447548 -0.00102462 -0.998998 
-0.0446327 -0.00164566 -0.999003 
-0.0448959 -0.00227598 -0.99899 
-0.0448303 -0.0028546 -0.998991 
-0.0448075 -0.00348441 -0.99899 
-0.0447052 -0.00417771 -0.998992 
-0.0443084 -0.00503524 -0.999006 
-0.0442597 -0.00631465 -0.999001 
-0.0433678 -0.0081189 -0.999027 
-0.0426181 -0.0109056 -0.999033 
-0.0414104 -0.015074 -0.999029 
-0.0397506 -0.0203377 -0.999004 
-0.0383333 -0.0277124 -0.998882 
-0.0365166 -0.0360166 -0.998685 
-0.0348268 -0.0447572 -0.998392 
-0.0321521 -0.0503655 -0.998214 
-0.0284012 -0.0451105 -0.998579 
0.00175989 -0.0117208 -0.999931 
-0.00086315 -0.0105898 0.999945 
0.0242375 -0.0434963 0.99876 
0.0279262 -0.0509275 0.998313 
0.0304961 -0.0453355 0.998507 
0.0325885 -0.0373213 0.998773 
0.0350664 -0.0288433 0.99897 
0.0366601 -0.0212868 0.999102 
0.0381892 -0.015101 0.999157 
0.0399958 -0.0109446 0.999141 
0.0401191 -0.00811107 0.999163 
0.0404388 -0.0060959 0.999164 
0.0412257 -0.00475584 0.999139 
0.0413681 -0.00383818 0.999138 
0.0413606 -0.00316037 0.99914 
0.0410714 -0.0025791 0.999154 
0.0414997 -0.00207472 0.999137 
0.0418735 -0.00154794 0.999122 
0.0416472 -0.000903615 0.999133 
0.0415453 -0.00011692 0.999138 
0.0413105 0.000963679 0.999147 
0.0410304 0.00247064 0.999156 
0.0405698 0.00459699 0.999167 
0.0399342 0.00751378 0.999175 
0.0399327 0.011186 0.999141 
0.0384565 0.0166379 0.999123 
0.0376678 0.0234343 0.999016 
0.0368773 0.032206 0.998802 
0.0350113 0.0448809 0.998379 
0.0326912 0.0615248 0.997571 
0.0290535 0.086734 0.995809 
0.0248409 0.11969 0.992502 
0.0203622 0.166415 0.985847 
0.0168963 0.225918 0.974001 
0.0116811 0.309248 0.950911 
0.00637193 0.425383 0.904992 
0.00244615 0.554162 0.832406 
0.000433024 0.701593 0.712579 
0.000107111 0.849923 0.526906 
5.28417e-05 0.964653 0.26352 
0.00101172 0.999941 -0.0107243 
0.00127515 0.958884 -0.283792 
0.00119534 0.85737 -0.514703 
-0.000255863 0.700561 -0.713593 
-0.00295937 0.543773 -0.839228 
-0.00750831 0.410199 -0.911966 
-0.0122884 0.303888 -0.95263 
-0.0172183 0.224532 -0.974315 
-0.0228101 0.164658 -0.986088 
-0.0261951 0.121124 -0.992293 
-0.0295437 0.0881493 -0.99567 
-0.0316257 0.0648435 -0.997395 
-0.0339997 0.0469249 -0.998321 
-0.0359949 0.0335937 -0.998788 
-0.0372519 0.0242702 -0.999012 
-0.0384948 0.0172806 -0.99911 
-0.0395809 0.0118708 -0.999147 
-0.0403675 0.00784441 -0.999155 
-0.0409542 0.00483747 -0.99915 
-0.0409626 0.00263994 -0.999158 
-0.04117 0.00108529 -0.999152 
-0.041131 -2.39117e-05 -0.999155 
-0.0413792 -0.000797116 -0.999144 
-0.0412645 -0.00147163 -0.999148 
-0.0414217 -0.00207124 -0.999141 
-0.0415463 -0.00263062 -0.999134 
-0.0417243 -0.00325256 -0.999125 
-0.0414352 -0.00397354 -0.999134 
-0.0414778 -0.00498499 -0.999128 
-0.0407949 -0.00637948 -0.999148 
-0.0415425 -0.00833308 -0.999103 
-0.0397983 -0.0113694 -0.999144 
-0.037645 -0.0157869 -0.999167 
-0.037342 -0.0216066 -0.99907 
-0.0347168 -0.0295813 -0.99896 
-0.034185 -0.037301 -0.99872 
-0.03081 -0.045483 -0.998491 
-0.0272429 -0.0509039 -0.998333 
-0.0239841 -0.0428086 -0.998796 
0.00160997 -0.0113794 -0.999936 
-0.00130771 -0.012535 0.999924 
0.0192914 -0.0442377 0.998836 
0.0224134 -0.0524226 0.998374 
0.0250056 -0.0464988 0.998606 
0.0271771 -0.0391362 0.998865 
0.0295234 -0.0304002 0.999103 
0.0312401 -0.022492 0.99926 
0.0327606 -0.0161276 0.999334 
0.0338255 -0.0113067 0.999365 
0.0339868 -0.00810811 0.99939 
0.0341402 -0.00590002 0.999401 
0.0350553 -0.00446025 0.999376 
0.0350463 -0.0034851 0.999381 
0.0350426 -0.00279001 0.999383 
0.0347992 -0.00222192 0.999393 
0.0353402 -0.00173381 0.999375 
0.0357963 -0.00121549 0.999359 
0.0353239 -0.000569067 0.999377 
0.0353032 0.00026967 0.999378 
0.0350524 0.001466 0.999385 
0.0347958 0.00320232 0.99939 
0.0341868 0.00564225 0.9994 
0.0336093 0.0090585 0.999395 
0.0337995 0.0131138 0.999344 
0.0320423 0.0193624 0.9993 
0.0313888 0.0269665 0.999144 
0.0307042 0.0366787 0.998856 
0.0285555 0.0503929 0.998322 
0.0265229 0.0697929 0.99721 
0.0225535 0.0956982 0.995156 
0.0184155 0.134403 0.990757 
0.0142427 0.184836 0.982667 
0.011752 0.24372 0.969776 
0.00728356 0.342064 0.93965 
0.00325114 0.456983 0.889471 
0.000904754 0.591735 0.806132 
0.000358157 0.741616 0.670826 
0.00124701 0.851546 0.524281 
0.000807459 0.945074 0.326852 
0.00104768 0.997264 0.0738921 
0.000579584 0.965859 -0.259062 
0.000556788 0.843828 -0.536605 
0.00089135 0.705354 -0.708857 
-0.00103749 0.54754 -0.836781 
-0.00464596 0.409091 -0.912483 
-0.00858961 0.303298 -0.952858 
-0.0130613 0.224647 -0.974354 
-0.0183622 0.163105 -0.986439 
-0.0204842 0.120707 -0.992478 
-0.0243387 0.087711 -0.995849 
-0.0260702 0.0630414 -0.997671 
-0.0287173 0.0452547 -0.998564 
-0.0304138 0.032846 -0.998998 
-0.031506 0.0234892 -0.999228 
-0.0324921 0.01659 -0.999335 
-0.0336386 0.0114023 -0.99937 
-0.0343551 0.00750093 -0.999382 
-0.0349007 0.00457979 -0.999381 
-0.0347244 0.002432 -0.999395 
-0.0350898 0.000917065 -0.999385 
-0.0345507 -8.01102e-05 -0.999404 
-0.0354999 -0.000824321 -0.99937 
-0.0350874 -0.00142914 -0.999384 
-0.035119 -0.00193313 -0.999382 
-0.0351955 -0.00246272 -0.999378 
-0.0352454 -0.00305798 -0.999375 
-0.0350814 -0.00383326 -0.999378 
-0.0351303 -0.00491619 -0.999372 
-0.0343378 -0.00652297 -0.99939 
-0.0357647 -0.0086803 -0.999323 
-0.0337253 -0.0119637 -0.99936 
-0.0316992 -0.0169967 -0.999354 
-0.0319161 -0.0230988 -0.999225 
-0.0291229 -0.0312511 -0.999088 
-0.0287803 -0.0390042 -0.998825 
-0.0251767 -0.0472244 -0.998568 
-0.0214693 -0.0521206 -0.998411 
-0.0186808 -0.0432763 -0.998889 
0.000937685 -0.0111009 -0.99994 
-0.00117687 -0.0127294 0.999922 
0.0128434 -0.040874 0.999083 
0.0164645 -0.0530203 0.998459 
0.0188323 -0.0502657 0.998559 
0.0206853 -0.0432233 0.998852 
0.0228239 -0.0348319 0.999133 
0.0245193 -0.0266617 0.999345 
0.0256232 -0.019363 0.999485 
0.0266669 -0.0136877 0.999552 
0.0269151 -0.00973485 0.999591 
0.0266395 -0.00683222 0.999623 
0.0271508 -0.00487207 0.99962 
0.0273306 -0.00368135 0.999621 
0.0273841 -0.00286313 0.999622 
0.0273898 -0.00228019 0.999623 
0.0273371 -0.00178672 0.999626 
0.0278137 -0.00133426 0.999613 
0.0278721 -0.000825271 0.999612 
0.0275343 -0.000121295 0.999622 
0.0274751 0.000872053 0.999623 
0.0273593 0.00236808 0.999624 
0.0269239 0.00450735 0.999628 
0.0265484 0.00751518 0.99962 
0.0257668 0.0115138 0.999603 
0.0261444 0.0162131 0.999528 
0.0244514 0.0233922 0.999428 
0.0238525 0.0320173 0.999204 
0.0229726 0.0427688 0.998822 
0.0215114 0.0588855 0.998034 
0.0187239 0.0791297 0.996689 
0.0153011 0.111884 0.993604 
0.0110021 0.157642 0.987436 
0.0077169 0.223381 0.974702 
0.00601742 0.296175 0.955116 
0.00270445 0.396484 0.918039 
0.000597744 0.543565 0.839364 
0.000530499 0.658574 0.752522 
0.00164535 0.854362 0.519676 
0.00265719 0.987341 0.158586 
0.00066269 1 -0.000281135 
0.00126551 0.953319 -0.30196 
-0.00311065 0.963659 -0.26711 
0.001063 0.792695 -0.609622 
0.000821153 0.622245 -0.782824 
-0.000941951 0.448954 -0.893555 
-0.00367575 0.331856 -0.943324 
-0.00709278 0.24181 -0.970299 
-0.0120709 0.177446 -0.984058 
-0.01347 0.135799 -0.990646 
-0.0171917 0.0972873 -0.995109 
-0.0194752 0.0714562 -0.997255 
-0.021622 0.0500503 -0.998514 
-0.0230541 0.0362958 -0.999076 
-0.0242797 0.0262494 -0.999361 
-0.0250093 0.0186334 -0.999514 
-0.0259227 0.0128939 -0.999582 
-0.0265641 0.00865235 -0.999611 
-0.0271356 0.0054299 -0.999618 
-0.0272373 0.0030557 -0.999625 
-0.0275016 0.00128888 -0.999622 
-0.0268178 0.000158025 -0.999641 
-0.0276776 -0.000635191 -0.999618 
-0.0278972 -0.00118878 -0.999611 
-0.0270629 -0.00168197 -0.999633 
-0.027394 -0.00215611 -0.999623 
-0.0271235 -0.00272666 -0.999629 
-0.0271322 -0.00347759 -0.999627 
-0.0272785 -0.00461156 -0.999618 
-0.0263501 -0.00624081 -0.999634 
-0.0280942 -0.00889982 -0.999567 
-0.0267824 -0.0128176 -0.99956 
-0.0248405 -0.0181785 -0.999527 
-0.0255062 -0.0247505 -0.999369 
-0.0229484 -0.0333978 -0.99918 
-0.0230444 -0.0411168 -0.99889 
-0.0195897 -0.0490723 -0.998604 
-0.0161551 -0.0537298 -0.998426 
-0.0140509 -0.0450262 -0.998888 
0.000483173 -0.0107829 -0.999944 
-0.00021631 -0.010723 0.999945 
0.00978223 -0.046368 0.998877 
0.0127619 -0.0547883 0.998417 
0.014054 -0.0499022 0.998656 
0.0157839 -0.0419025 0.998998 
0.0171828 -0.0334385 0.999294 
0.0185551 -0.0251068 0.999514 
0.0192709 -0.0179015 0.999655 
0.0194855 -0.0126824 0.999731 
0.0197155 -0.00878708 0.999768 
0.0196515 -0.00592413 0.99979 
0.0194278 -0.00423582 0.999803 
0.0196506 -0.00316442 0.999803 
0.0196116 -0.00246863 0.999806 
0.0197717 -0.00197573 0.999803 
0.0194908 -0.00155892 0.99981 
0.0196382 -0.00115003 0.999807 
0.0199312 -0.000615053 0.999802 
0.0195067 0.00017841 0.999811 
0.0196413 0.0014044 0.999807 
0.0194611 0.00323323 0.999806 
0.0192599 0.00588601 0.999798 
0.0187362 0.00945837 0.999781 
0.0179012 0.0141097 0.999741 
0.0184658 0.0196679 0.999637 
0.0170064 0.0281764 0.999459 
0.0160457 0.0381482 0.999144 
0.0158965 0.0519798 0.998523 
0.0133892 0.070415 0.997429 
0.011537 0.0988129 0.99504 
0.00772713 0.143496 0.989622 
0.00469422 0.21351 0.976931 
0.0026186 0.30496 0.952363 
0.000589709 0.437521 0.899212 
-5.21496e-05 0.568613 0.822601 
-0.00041619 0.730413 0.683008 
-0.000499015 0.857259 0.514884 
0.00300719 0.948974 0.31533 
0.000884628 0.947241 0.320517 
0.000734411 0.998924 0.0462346 
-0.00380601 0.993196 -0.116396 
-0.00395262 0.944182 -0.32941 
-0.000879511 0.860515 -0.509426 
0.0017373 0.692513 -0.721403 
0.0017942 0.52104 -0.853531 
0.000306613 0.381515 -0.924364 
-0.00205021 0.276956 -0.960881 
-0.00587149 0.191293 -0.981517 
-0.00877745 0.13134 -0.9913 
-0.0115887 0.0947127 -0.995438 
-0.01459 0.0657763 -0.997729 
-0.0152659 0.047562 -0.998753 
-0.0163731 0.0345077 -0.999271 
-0.0173863 0.024892 -0.99954 
-0.0179501 0.0176696 -0.999684 
-0.0184124 0.0123088 -0.999756 
-0.0188828 0.00817959 -0.999789 
-0.0192563 0.00507242 -0.999803 
-0.0198064 0.00262876 -0.999801 
-0.0194554 0.00102607 -0.999811 
-0.0196066 -0.000129221 -0.999809 
-0.0196799 -0.000783357 -0.999807 
-0.0201202 -0.00126708 -0.999798 
-0.0190492 -0.00167896 -0.999818 
-0.0195681 -0.00212395 -0.999807 
-0.0189717 -0.00266394 -0.999817 
-0.0192751 -0.00349594 -0.999809 
-0.0192952 -0.00472191 -0.999804 
-0.0185132 -0.00653423 -0.999808 
-0.0208703 -0.00909704 -0.999742 
-0.0196255 -0.0130516 -0.999723 
-0.0183523 -0.019017 -0.999652 
-0.0190141 -0.0263979 -0.999472 
-0.0168699 -0.0353859 -0.999232 
-0.01714 -0.0433778 -0.998913 
-0.0140621 -0.0509501 -0.998603 
-0.0113707 -0.0553439 -0.998404 
-0.00986998 -0.0457261 -0.998906 
0.000423225 -0.0107362 -0.999945 
-0.00026152 -0.0106921 0.999945 
0.0065392 -0.0460831 0.998915 
0.00867631 -0.0562499 0.998382 
0.00962962 -0.0524925 0.998576 
0.0108299 -0.0449282 0.998933 
0.0117688 -0.0362846 0.999273 
0.0127176 -0.0276248 0.999538 
0.0134129 -0.0200788 0.999709 
0.0132656 -0.0140657 0.999814 
0.013399 -0.00967934 0.999864 
0.0137234 -0.00656146 0.999885 
0.0129582 -0.00445075 0.999907 
0.013035 -0.00323666 0.999911 
0.0129152 -0.00249566 0.999914 
0.0130087 -0.00202897 0.999914 
0.0128598 -0.0016764 0.999917 
0.0125615 -0.00132716 0.999921 
0.012946 -0.000873546 0.999917 
0.0128384 -0.000185943 0.999919 
0.0128482 0.000968957 0.999918 
0.0128079 0.00269938 0.999915 
0.0128452 0.00521089 0.999905 
0.012471 0.00866911 0.999886 
0.0117441 0.0131553 0.999845 
0.0116476 0.0190327 0.999752 
0.0117624 0.026316 0.999585 
0.0101514 0.0366259 0.999278 
0.0103629 0.0499817 0.998697 
0.00833309 0.0677343 0.99767 
0.00742747 0.0931861 0.995622 
0.00523935 0.129438 0.991575 
0.00300209 0.194369 0.980925 
0.00149406 0.287914 0.957656 
0.000615999 0.394912 0.91872 
-0.00040993 0.673599 0.739098 
0.00246975 0.832225 0.554432 
0.000620889 0.987898 0.155106 
0.0031633 0.992512 0.122098 
0.00257531 0.995799 0.091517 
0.000672764 0.999663 0.0259402 
-0.00064172 0.999588 -0.0286972 
-0.00193137 0.998706 -0.0507777 
-0.00449012 0.81898 -0.573802 
-0.000896943 0.668843 -0.743409 
0.00154303 0.53386 -0.845572 
0.00142765 0.395998 -0.918251 
0.000233804 0.28881 -0.957388 
-0.0022835 0.206039 -0.978543 
-0.00459521 0.144936 -0.989432 
-0.00652252 0.0997495 -0.994992 
-0.00908588 0.0718731 -0.997373 
-0.00956581 0.0523053 -0.998586 
-0.0102806 0.0379749 -0.999227 
-0.0110553 0.0276281 -0.999558 
-0.0115739 0.019945 -0.999735 
-0.0118376 0.0140599 -0.999832 
-0.0121622 0.0094814 -0.999882 
-0.012305 0.00595535 -0.999908 
-0.0131707 0.0033196 -0.999909 
-0.0126145 0.00139373 -0.999921 
-0.0134351 9.36688e-05 -0.999911 
-0.0126912 -0.00072462 -0.99992 
-0.0131322 -0.00119642 -0.999914 
-0.0126279 -0.00155802 -0.99992 
-0.012768 -0.00194646 -0.999918 
-0.0123803 -0.00239674 -0.999921 
-0.0126307 -0.00315472 -0.999916 
-0.0124839 -0.00433908 -0.999914 
-0.0125322 -0.00638123 -0.999902 
-0.0140577 -0.00959736 -0.999856 
-0.0136929 -0.0143057 -0.999805 
-0.0123628 -0.020378 -0.999717 
-0.0135379 -0.0272674 -0.999537 
-0.0116881 -0.0358458 -0.99929 
-0.0120939 -0.0442563 -0.998948 
-0.00983163 -0.0521946 -0.99859 
-0.00788903 -0.056726 -0.99836 