# vtk DataFile Version 3.0 
Exported using Morpho https://github.com/Morpho-lang/morpho 
ASCII 
DATASET UNSTRUCTURED_GRID 

POINTS 1978 float 
-12 -4 -1.16839e-09 
-11.5969 -4.00001 8.41549e-09 
-11.2932 -4 1.18387e-08 
-10.9517 -4.00001 2.46717e-09 
-10.6384 -4.00001 2.26351e-09 
-10.3076 -4.00001 7.2022e-10 
-9.98397 -4.00001 3.348e-10 
-9.65389 -4 6.71432e-11 
-9.30355 -4 4.99667e-10 
-8.98963 -4.00001 8.2777e-10 
-8.68831 -4 3.81801e-10 
-8.37378 -4 3.29957e-10 
-8.07574 -4 2.45525e-10 
-7.76844 -4 -8.10928e-11 
-7.47651 -4 -2.14254e-10 
-7.1907 -4 -3.52384e-10 
-6.88932 -4.00001 -1.81563e-10 
-6.59179 -4 -3.26037e-10 
-6.2885 -4 -7.32518e-10 
-5.98269 -4.00001 -8.95338e-10 
-5.68386 -4 -1.21146e-09 
-5.38401 -4 -1.62267e-09 
-5.09124 -4.00001 -2.29118e-09 
-4.809 -4 -2.15388e-09 
-4.50279 -4.00001 -2.12325e-09 
-4.21087 -4 -2.88581e-09 
-3.9032 -4 -2.3203e-09 
-3.57838 -4.00001 -2.55509e-09 
-3.2582 -4 -2.95991e-09 
-2.92637 -4.00001 -4.38995e-09 
-2.60732 -4 -7.49385e-09 
-2.2976 -4.00001 -9.66988e-09 
-2.01441 -4 -1.50779e-08 
-1.764 -4.00001 3.94873e-08 
-1.54723 -4 1.71202e-07 
-1.31119 -3.99998 6.37245e-07 
-1.1682 -4 1.37728e-06 
-0.975407 -4 8.87656e-06 
-0.567912 -3.99996 2.56483e-05 
-0.361834 -4.00024 3.56048e-05 
0.472776 -4.00005 -3.76707e-05 
1.04848 -3.99963 -9.34662e-06 
1.20881 -4.00001 -1.47431e-06 
1.39722 -3.99999 -6.51789e-07 
1.5507 -3.99999 -1.44541e-07 
1.7623 -4 -4.34809e-08 
2.02343 -4.00001 1.0663e-08 
2.32677 -4 8.73189e-09 
2.66151 -4 5.77325e-09 
2.97928 -4 5.51671e-09 
3.31189 -4 2.81152e-09 
3.60412 -4 3.83898e-09 
3.90904 -4.00001 3.30125e-09 
4.20886 -4 2.69888e-09 
4.51409 -4 2.58688e-09 
4.80803 -4.00001 2.13607e-09 
5.11325 -4.00001 1.95595e-09 
5.41079 -4.00001 1.48477e-09 
5.71207 -4 1.11854e-09 
6.00541 -4.00001 8.60798e-10 
6.29757 -4 7.43954e-10 
6.59098 -4.00001 5.70573e-10 
6.89625 -4 3.57627e-10 
7.1739 -4 3.04884e-10 
7.47699 -4.00001 1.74297e-10 
7.77145 -4 -9.7435e-11 
8.07053 -4.00001 -2.65282e-10 
8.36306 -4 -5.61082e-10 
8.65486 -4 -4.5505e-10 
8.94429 -4.00001 -5.38188e-10 
9.2798 -4.00001 -3.13932e-10 
9.60758 -4 -7.28068e-10 
9.9028 -4.00001 -3.16622e-11 
10.268 -4.00001 -6.12894e-10 
10.5831 -4 -1.52967e-09 
10.9784 -4.00001 -1.70188e-09 
11.2975 -4 -1.42467e-08 
11.5901 -4.00001 -7.15199e-09 
12 -4 1.04462e-09 
-12 -3.61658 2.92037e-10 
-11.7064 -3.71792 1.09809e-17 
-11.3564 -3.63117 -7.72822e-18 
-11.0413 -3.67306 8.92006e-19 
-10.71 -3.64844 2.49702e-17 
-10.3932 -3.66941 1.27839e-17 
-10.0622 -3.66529 1.1148e-17 
-9.73567 -3.67641 7.79248e-18 
-9.39525 -3.69536 2.31898e-18 
-9.05342 -3.66611 3.15567e-18 
-8.74278 -3.65609 2.10182e-18 
-8.43533 -3.67386 1.22685e-18 
-8.11981 -3.65882 3.73287e-19 
-7.81445 -3.6715 3.09777e-19 
-7.50256 -3.65855 -5.76018e-19 
-7.20201 -3.6574 -9.5873e-19 
-6.89435 -3.67105 -1.19481e-18 
-6.58374 -3.67188 -1.57842e-18 
-6.268 -3.67588 -2.61636e-18 
-5.95936 -3.6704 -3.57839e-18 
-5.65018 -3.67386 -4.47207e-18 
-5.34673 -3.6679 -6.05742e-18 
-5.05418 -3.65573 -1.095e-17 
-4.74239 -3.68084 -7.7003e-18 
-4.4391 -3.65928 -1.67262e-17 
-4.12557 -3.66808 -1.8461e-17 
-3.79415 -3.67688 -1.68768e-17 
-3.46299 -3.66161 -3.01452e-17 
-3.12418 -3.6693 -2.39771e-17 
-2.793 -3.66126 -5.06745e-17 
-2.4641 -3.66874 -5.31756e-17 
-2.15973 -3.66478 -4.62219e-17 
-1.87552 -3.66525 9.50187e-17 
-1.64599 -3.69093 -3.81614e-17 
-1.415 -3.7671 -2.02388e-16 
-1.21639 -3.70151 -8.98292e-16 
-1.07772 -3.83097 2.81091e-15 
-0.838177 -3.93104 1.75817e-15 
-0.376721 -3.83767 7.16409e-15 
-0.21788 -3.96804 7.54134e-14 
0.317519 -3.95267 -1.34629e-13 
0.869574 -3.94813 -1.43715e-14 
1.18709 -3.79557 1.97207e-15 
1.32027 -3.7053 -2.7296e-16 
1.47113 -3.63646 -1.09431e-16 
1.66609 -3.68279 1.1574e-16 
1.91831 -3.6922 4.55905e-17 
2.20679 -3.68996 3.13739e-17 
2.53679 -3.68889 2.59991e-17 
2.88635 -3.66539 5.68404e-17 
3.24057 -3.67369 1.23057e-17 
3.58726 -3.64111 4.00354e-17 
3.90536 -3.65524 1.96565e-17 
4.22416 -3.66531 1.81413e-17 
4.53081 -3.66047 1.52955e-17 
4.84423 -3.67918 8.37027e-18 
5.15011 -3.6729 7.65014e-18 
5.45569 -3.67615 5.13617e-18 
5.75751 -3.66482 5.36302e-18 
6.05427 -3.66231 4.09196e-18 
6.3536 -3.66357 2.2395e-18 
6.65799 -3.67633 2.24167e-18 
6.94824 -3.64081 1.19203e-18 
7.2484 -3.67085 8.49674e-19 
7.54667 -3.66099 4.3675e-19 
7.84782 -3.66515 -1.83547e-19 
8.14321 -3.65715 -4.10401e-19 
8.44137 -3.65674 -1.2733e-18 
8.74047 -3.65199 -3.76653e-18 
9.05921 -3.6972 -1.38812e-18 
9.38489 -3.68186 -3.78273e-18 
9.69504 -3.64124 -1.20969e-17 
10.0302 -3.70788 -3.85202e-18 
10.3572 -3.65608 -1.7847e-17 
10.7222 -3.72171 7.95315e-18 
11.0572 -3.65104 -8.22394e-18 
11.3606 -3.61766 -2.04428e-18 
11.7136 -3.72556 -8.2229e-18 
12 -3.60466 -7.3483e-10 
-12 -3.30984 3.92001e-09 
-11.6357 -3.37181 5.14126e-17 
-11.293 -3.28953 1.29708e-17 
-10.9787 -3.32942 3.79224e-17 
-10.6609 -3.30075 4.14258e-17 
-10.3369 -3.33726 3.19561e-17 
-10.0091 -3.33389 2.05637e-17 
-9.69138 -3.33442 1.66662e-17 
-9.38708 -3.3814 1.10852e-17 
-9.08075 -3.32533 6.61722e-18 
-8.77635 -3.3157 4.79182e-18 
-8.47213 -3.33416 3.2079e-18 
-8.1697 -3.33342 1.39346e-18 
-7.85572 -3.33228 1.61984e-19 
-7.55576 -3.33051 -2.87985e-19 
-7.24946 -3.31766 -1.87097e-18 
-6.94536 -3.34833 -1.95781e-18 
-6.6352 -3.34376 -3.51801e-18 
-6.32841 -3.35284 -4.67581e-18 
-6.02057 -3.34311 -6.19525e-18 
-5.71533 -3.34845 -8.4674e-18 
-5.41173 -3.34083 -1.09184e-17 
-5.11258 -3.31807 -1.30911e-17 
-4.81128 -3.35596 -1.83908e-17 
-4.5076 -3.3298 -2.5422e-17 
-4.1979 -3.33642 -3.23423e-17 
-3.87791 -3.35458 -4.68609e-17 
-3.5517 -3.33473 -6.38744e-17 
-3.21668 -3.33916 -7.67259e-17 
-2.88813 -3.32355 -6.87536e-17 
-2.56334 -3.34041 -9.72076e-17 
-2.24661 -3.32744 -5.56109e-17 
-1.94643 -3.34911 2.5669e-17 
-1.66302 -3.3396 -7.31717e-17 
-1.47041 -3.4797 1.56494e-16 
-1.26714 -3.49474 6.07964e-16 
-1.01709 -3.61676 -1.1627e-14 
-0.901365 -3.79618 -5.23086e-15 
-0.626957 -3.88652 -2.75181e-14 
-0.156348 -3.92131 5.11337e-14 
0.678737 -3.89161 1.49872e-14 
1.00118 -3.82188 -5.94309e-15 
1.12115 -3.55788 -4.32077e-15 
1.24207 -3.39921 -1.183e-15 
1.42917 -3.34186 -6.81642e-16 
1.65938 -3.35836 -3.12663e-16 
1.90555 -3.38032 -3.44656e-17 
2.20295 -3.37708 7.96778e-17 
2.52755 -3.36758 8.72968e-17 
2.85802 -3.3334 8.86642e-17 
3.20072 -3.34985 8.10043e-17 
3.54283 -3.31772 6.2457e-17 
3.87996 -3.31792 4.46955e-17 
4.19271 -3.33045 3.34504e-17 
4.4985 -3.3246 2.44583e-17 
4.8015 -3.35431 1.97274e-17 
5.10495 -3.34857 1.50425e-17 
5.40916 -3.35022 1.12997e-17 
5.70974 -3.33976 8.1798e-18 
6.01723 -3.32526 6.00073e-18 
6.31352 -3.32999 5.01809e-18 
6.61567 -3.34209 2.99323e-18 
6.91203 -3.30193 2.39461e-18 
7.21139 -3.3332 1.15429e-18 
7.51034 -3.32537 3.15124e-19 
7.81268 -3.33384 -1.62924e-19 
8.12099 -3.31848 -8.00488e-19 
8.42397 -3.32441 -3.63526e-18 
8.7365 -3.321 -4.21272e-18 
9.05735 -3.37744 -6.51578e-18 
9.3808 -3.35128 -1.17055e-17 
9.68923 -3.29534 -1.3786e-17 
10.0012 -3.38342 -2.1632e-17 
10.307 -3.30998 -3.38206e-17 
10.6339 -3.40647 -4.92459e-17 
10.9658 -3.33656 -4.84e-17 
11.2963 -3.25932 -4.67146e-18 
11.6313 -3.37657 -4.97831e-17 
12 -3.29915 -3.77093e-09 
-12 -2.98091 6.09097e-09 
-11.6603 -3.05478 2.63127e-17 
-11.3165 -2.9711 -2.93881e-17 
-10.9708 -2.97724 -7.78894e-19 
-10.6327 -2.97112 9.2573e-18 
-10.3054 -3.00339 1.14783e-17 
-9.98486 -2.99551 5.53889e-18 
-9.66787 -2.99756 4.41973e-18 
-9.35377 -3.03216 4.8011e-18 
-9.04632 -2.98009 1.84612e-18 
-8.73994 -2.97624 1.81975e-18 
-8.43918 -2.9948 1.43582e-18 
-8.12668 -3.00799 3.63314e-19 
-7.82666 -2.99197 -6.62588e-19 
-7.52169 -2.99696 -4.74806e-19 
-7.21833 -2.98468 -1.10841e-19 
-6.91714 -3.0246 -3.27101e-19 
-6.61045 -3.01534 -3.84469e-19 
-6.3067 -3.02443 -8.61549e-19 
-6.00244 -3.01429 -1.48853e-18 
-5.7013 -3.01872 -1.89811e-18 
-5.40339 -3.00731 -2.2073e-18 
-5.10378 -2.98704 -2.72292e-18 
-4.80307 -3.02577 -4.88464e-18 
-4.49803 -2.9999 -5.4859e-18 
-4.18709 -3.0046 -8.70153e-18 
-3.87681 -3.02839 -1.50382e-17 
-3.53959 -3.01271 -1.36186e-17 
-3.20286 -3.00862 -2.12554e-17 
-2.85289 -2.99713 -2.33716e-17 
-2.50833 -3.01613 -8.08742e-18 
-2.15991 -3.01056 2.10151e-17 
-1.82318 -3.05038 1.07453e-16 
-1.50272 -3.07623 1.81407e-16 
-1.30769 -3.23592 1.04255e-15 
-1.07264 -3.18056 3.13936e-15 
-1.0661 -3.4231 1.50877e-14 
-0.771151 -3.7237 1.76556e-14 
-0.542219 -3.74768 9.55279e-15 
-0.120219 -3.83988 1.21405e-13 
0.343947 -3.761 2.7709e-14 
0.970417 -3.63727 -1.0537e-14 
1.03219 -3.31162 -5.34771e-15 
1.17288 -3.10962 -1.22582e-15 
1.3944 -3.05726 3.75173e-17 
1.63561 -3.06044 -3.84734e-16 
1.90156 -3.05823 -1.4987e-16 
2.18594 -3.05225 -2.0841e-17 
2.50005 -3.03787 6.92159e-18 
2.83105 -3.00569 1.94394e-17 
3.17228 -3.02372 2.59335e-17 
3.50413 -2.98563 1.31212e-17 
3.83069 -2.99738 1.42591e-17 
4.15905 -2.99397 9.09249e-18 
4.469 -2.98945 5.86432e-18 
4.77607 -3.02086 4.95946e-18 
5.07796 -3.02045 3.23557e-18 
5.3812 -3.02433 2.68611e-18 
5.68495 -3.00923 1.76724e-18 
5.98554 -3.00628 8.99112e-19 
6.30018 -2.99031 7.27136e-19 
6.59533 -3.0091 4.8593e-19 
6.91182 -2.98237 4.1926e-19 
7.22737 -2.99658 5.31441e-19 
7.52828 -2.9899 4.71169e-19 
7.83748 -3.00511 4.20991e-19 
8.13891 -2.98129 -6.10146e-19 
8.44446 -2.99565 -1.03149e-18 
8.75399 -2.98948 -1.81403e-18 
9.06054 -3.05515 -2.98454e-18 
9.36468 -3.01101 -3.50544e-18 
9.66716 -2.951 -3.3816e-18 
9.98742 -3.0348 -7.35759e-18 
10.3212 -2.98223 -5.60913e-18 
10.6521 -3.07388 -1.75082e-17 
10.9861 -2.99747 3.36257e-18 
11.3371 -2.93723 3.80966e-17 
11.6678 -3.05896 -3.12004e-17 
12 -2.96143 -8.0598e-09 
-12 -2.6621 7.04696e-09 
-11.6528 -2.72712 1.10146e-18 
-11.3115 -2.64513 -3.39265e-17 
-10.9737 -2.65114 -3.64354e-18 
-10.6364 -2.64419 5.53285e-19 
-10.2995 -2.66705 1.57017e-18 
-9.96996 -2.66269 -6.73696e-19 
-9.63809 -2.67051 1.34148e-18 
-9.32271 -2.69041 1.05734e-18 
-8.9997 -2.64587 6.9974e-19 
-8.68826 -2.63991 1.24e-18 
-8.37394 -2.6734 1.08368e-18 
-8.07263 -2.66746 9.63471e-20 
-7.76176 -2.66353 -4.02023e-19 
-7.46015 -2.66078 -4.37183e-19 
[...]
POINT_DATA 1978 
VECTORS vectors float
0.00907715 -0.0153479 0.999844 
0.0112908 -0.0258973 0.999611 
0.00916879 -0.0221835 0.999721 
0.00988182 -0.0151425 0.999846 
0.00996597 -0.0102996 0.999907 
0.0103931 -0.00649551 0.999935 
0.0104915 -0.00410231 0.999947 
0.010881 -0.00272448 0.999948 
0.010912 -0.0018973 0.999949 
0.0105068 -0.0014138 0.999953 
0.0107024 -0.00100219 0.999951 
0.0106948 -0.000658906 0.999952 
0.0106107 -0.000376525 0.999952 
0.0106697 -2.07011e-05 0.999952 
0.0104034 0.000266282 0.999954 
0.0101921 0.000455426 0.999956 
0.0106166 0.000626093 0.99995 
0.0107467 0.000988453 0.999951 
0.0106196 0.00146228 0.999951 
0.0106053 0.00195369 0.99995 
0.0105619 0.00257871 0.999949 
0.010496 0.00335353 0.999947 
0.0101997 0.00424047 0.999947 
0.0103615 0.00518699 0.999941 
0.0103199 0.00663153 0.999933 
0.0100865 0.00860935 0.999921 
0.010115 0.0116298 0.99989 
0.00976342 0.0165915 0.999824 
0.00921022 0.0242005 0.999674 
0.00840535 0.0362559 0.999316 
0.00735197 0.0538212 0.998531 
0.0055093 0.080007 0.996786 
0.00286826 0.116938 0.993141 
0.000967143 0.166151 0.986104 
-0.00167627 0.221709 0.975115 
-0.00530885 0.304604 0.952467 
-0.00811842 0.372267 0.928092 
-0.0117712 0.485052 0.874419 
-0.0128797 0.738266 0.674393 
0.000928006 0.918517 0.395574 
0.0028354 0.854216 -0.520021 
0.0156061 0.456747 -0.889491 
0.00821649 0.362138 -0.932092 
0.00199445 0.275041 -0.961433 
0.00195047 0.223957 -0.974601 
-0.000559585 0.167739 -0.985836 
-0.00318534 0.115691 -0.993286 
-0.00590332 0.0768231 -0.997035 
-0.00772216 0.0504275 -0.998706 
-0.00837681 0.0342368 -0.999387 
-0.00917804 0.0232162 -0.999697 
-0.00934322 0.0167068 -0.999825 
-0.00994656 0.0123519 -0.999881 
-0.0102916 0.00912092 -0.999914 
-0.0102351 0.00681529 -0.999933 
-0.0104329 0.00532485 -0.99994 
-0.0105278 0.00416576 -0.999944 
-0.0105529 0.00322006 -0.999947 
-0.0105196 0.00245147 -0.99995 
-0.0104284 0.00188763 -0.999952 
-0.010488 0.00148162 -0.999952 
-0.0106858 0.00111304 -0.999951 
-0.0103568 0.00074851 -0.999954 
-0.0104426 0.000492243 -0.999954 
-0.0106119 0.000196992 -0.999952 
-0.0105663 -0.000144588 -0.999953 
-0.0105481 -0.000433512 -0.999953 
-0.0104951 -0.000730824 -0.999953 
-0.0102971 -0.000985878 -0.999955 
-0.0107563 -0.00124266 -0.999951 
-0.0111354 -0.00185259 -0.999947 
-0.0103653 -0.00262548 -0.999952 
-0.0106744 -0.00362325 -0.999947 
-0.0103375 -0.00614706 -0.999939 
-0.0101175 -0.00959245 -0.999915 
-0.0100349 -0.0157457 -0.999837 
-0.00873376 -0.0223872 -0.99972 
-0.0112835 -0.0257861 -0.999614 
-0.00908744 -0.015407 -0.999843 
0.00996438 -0.0161657 0.999819 
0.0107978 -0.0186453 0.99978 
0.0135404 -0.0219007 0.999683 
0.0136834 -0.017532 0.999767 
0.0149988 -0.0120665 0.999829 
0.015169 -0.00808763 0.999866 
0.015752 -0.00527653 0.999876 
0.015778 -0.00343174 0.999886 
0.0155774 -0.00227237 0.999887 
0.016533 -0.00153691 0.999878 
0.0171543 -0.00105363 0.999866 
0.0167296 -0.000690341 0.999873 
0.0172057 -0.000402328 0.999865 
0.0168518 -0.000118458 0.999871 
0.0172375 0.000171297 0.999864 
0.0174071 0.000411611 0.999861 
0.0166507 0.000671191 0.999876 
0.0168467 0.00104169 0.99987 
0.0168385 0.00148358 0.99987 
0.0169661 0.00199403 0.999867 
0.0169164 0.00263318 0.999866 
0.017143 0.00341709 0.99986 
0.0173711 0.00433405 0.999852 
0.0163513 0.00557881 0.999863 
0.0165988 0.00728363 0.999849 
0.0156878 0.00978776 0.999842 
0.0146824 0.013852 0.99981 
0.0142249 0.0201801 0.999709 
0.0130407 0.0299368 0.999481 
0.0126815 0.0443967 0.998947 
0.0124018 0.066857 0.997699 
0.0129038 0.0985673 0.995059 
0.0141404 0.142945 0.98964 
0.0167641 0.19427 0.980813 
0.0145321 0.264138 0.964381 
0.0241007 0.341739 0.939489 
0.0142676 0.421465 0.906735 
0.00562413 0.570304 0.821411 
0.0420199 0.881801 0.469739 
0.00490766 0.963814 0.266438 
-0.0029977 0.926945 -0.375031 
-0.000146059 0.59612 -0.802874 
-0.0191056 0.375751 -0.926527 
-0.0225934 0.312808 -0.94955 
-0.0242672 0.247989 -0.968466 
-0.0169386 0.188534 -0.981929 
-0.013358 0.135793 -0.990655 
-0.0120051 0.0937218 -0.995538 
-0.0116842 0.0614085 -0.998058 
-0.0126975 0.0397392 -0.999146 
-0.0130017 0.0263311 -0.999583 
-0.0150424 0.0179288 -0.99974 
-0.0152833 0.0127659 -0.999818 
-0.0160019 0.00926758 -0.999842 
-0.0166722 0.00695153 -0.99985 
-0.0165003 0.00526506 -0.999863 
-0.0169178 0.00405561 -0.999861 
-0.0169255 0.00311391 -0.999864 
-0.0173232 0.00237834 -0.99986 
-0.0173797 0.00182964 -0.99986 
-0.0172715 0.00139846 -0.999863 
-0.0171458 0.00101819 -0.999863 
-0.0178162 0.000683465 -0.999856 
-0.0170697 0.000379664 -0.999867 
-0.0173605 7.87693e-05 -0.999862 
-0.0172989 -0.000205966 -0.999863 
-0.0175234 -0.000461595 -0.999859 
-0.0175453 -0.000722074 -0.999859 
-0.0177159 -0.00104642 -0.999856 
-0.0160856 -0.00153448 -0.99988 
-0.0162319 -0.00226088 -0.999879 
-0.01703 -0.00330986 -0.999865 
-0.014721 -0.0049363 -0.999891 
-0.0153669 -0.00773339 -0.999868 
-0.0129228 -0.012105 -0.999857 
-0.014118 -0.0179289 -0.999754 
-0.0138502 -0.0219439 -0.999678 
-0.0105462 -0.0184223 -0.999786 
-0.0098526 -0.0162608 -0.999819 
0.00764255 -0.0144595 0.999867 
0.0133927 -0.0196102 0.999733 
0.0154915 -0.0223113 0.999647 
0.0168539 -0.0175764 0.999715 
0.017737 -0.0123312 0.999783 
0.0187395 -0.00837167 0.999801 
0.0193362 -0.00563289 0.999811 
0.0198964 -0.00373075 0.999808 
0.0202735 -0.00250083 0.999805 
0.0204159 -0.00169639 0.999801 
0.0202518 -0.00106435 0.999807 
0.0202834 -0.000656234 0.999807 
0.0203656 -0.000401187 0.999805 
0.0202439 -0.000176813 0.999808 
0.0202508 6.32946e-05 0.999808 
0.0200937 0.00034323 0.999813 
0.0204429 0.000659572 0.999801 
0.0203985 0.00100832 0.999804 
0.020345 0.00141746 0.999805 
0.0203069 0.00190276 0.999804 
0.0202833 0.0024842 0.999804 
0.0201936 0.00321638 0.999803 
0.020018 0.00414319 0.999806 
0.0201014 0.00539327 0.999794 
0.0197053 0.00703139 0.999794 
0.0190353 0.00941636 0.999789 
0.0185941 0.0132276 0.999751 
0.0178148 0.0189951 0.999674 
0.0168393 0.027752 0.999487 
0.0162582 0.0406763 0.999054 
0.0167953 0.0591317 0.998122 
0.0186448 0.0855245 0.996174 
0.0226358 0.121467 0.992349 
0.0317368 0.17162 0.984663 
0.0348342 0.229666 0.972651 
0.0444533 0.298986 0.953226 
0.0496265 0.431485 0.900755 
0.0337204 0.524177 0.850943 
0.020202 0.708592 0.705327 
0.010311 0.982577 0.185389 
-0.0191914 0.708572 -0.70538 
-0.0168146 0.469731 -0.882667 
-0.0551347 0.384175 -0.921615 
-0.0609217 0.300179 -0.951941 
-0.0459148 0.231503 -0.971757 
-0.0315582 0.177752 -0.983578 
-0.0230317 0.129778 -0.991288 
-0.0183793 0.0898916 -0.995795 
-0.0167445 0.0616972 -0.997965 
-0.0165384 0.0418785 -0.999 
-0.0170729 0.0284883 -0.99946 
-0.0178026 0.0194382 -0.999669 
-0.0184915 0.0135967 -0.99975 
-0.0191572 0.00989988 -0.99978 
-0.0196156 0.00738004 -0.999793 
-0.0200626 0.0055806 -0.999796 
-0.0202962 0.00427238 -0.999797 
-0.0203348 0.00327492 -0.9998 
-0.0202688 0.00252083 -0.999804 
-0.0202154 0.00192655 -0.999806 
-0.0202738 0.00146292 -0.999806 
-0.0202561 0.00106391 -0.999807 
-0.0201989 0.00071611 -0.999808 
-0.0203705 0.000391101 -0.999803 
-0.0203598 9.77617e-05 -0.999805 
-0.0203962 -0.000167818 -0.999805 
-0.0202675 -0.000399705 -0.999807 
-0.0202987 -0.000625021 -0.999806 
-0.0203642 -0.000996594 -0.999807 
-0.0205714 -0.00162381 -0.9998 
-0.020289 -0.00248982 -0.999804 
-0.0197147 -0.00379477 -0.999812 
-0.0194129 -0.00545505 -0.99981 
-0.0189703 -0.00812161 -0.999801 
-0.018289 -0.0117809 -0.999775 
-0.0171154 -0.0172486 -0.999719 
-0.015156 -0.0224075 -0.99965 
-0.0134603 -0.0197729 -0.999728 
-0.00758545 -0.0145432 -0.999866 
0.00521012 -0.0151627 0.999871 
0.0105692 -0.0195458 0.999768 
0.0118402 -0.0234802 0.999668 
0.0132245 -0.01853 0.999755 
0.0141162 -0.012892 0.999831 
0.0152247 -0.00873055 0.99986 
0.0156603 -0.00604304 0.999872 
0.0161407 -0.00404805 0.999873 
0.0166976 -0.0025701 0.999873 
0.0161039 -0.00162789 0.999882 
0.0159841 -0.00092977 0.999885 
0.0162416 -0.000537183 0.999881 
0.0163861 -0.000331194 0.999878 
0.0160902 -0.000157886 0.999883 
0.0161305 7.75591e-05 0.999882 
0.0159496 0.00037084 0.999883 
0.0164554 0.000693903 0.999879 
0.0162664 0.00106313 0.99988 
0.0163631 0.00146733 0.999877 
0.0162342 0.00194423 0.999879 
0.0162957 0.0025344 0.999876 
0.0160604 0.00326098 0.999878 
0.0157952 0.00421143 0.999877 
0.0161939 0.00544391 0.999869 
0.0156383 0.00718417 0.999864 
0.0154228 0.00970527 0.999845 
0.0153067 0.013291 0.99981 
0.0146982 0.0193185 0.999719 
0.014476 0.0279858 0.999517 
0.0146637 0.0407304 0.999076 
0.0164951 0.0593872 0.998115 
0.0214776 0.0869217 0.995997 
0.0316449 0.128795 0.991178 
0.0513087 0.184784 0.981449 
0.0605783 0.250032 0.966349 
0.0936725 0.31956 0.942928 
0.0720468 0.379114 0.922545 
0.0687375 0.603863 0.794123 
0.0609898 0.75194 0.656399 
0.0289739 0.983232 0.180016 
-0.0361732 0.927587 -0.371768 
-0.067236 0.482505 -0.873311 
-0.0940482 0.361765 -0.927518 
-0.0840986 0.26622 -0.960243 
-0.0597047 0.204148 -0.977124 
-0.040055 0.158812 -0.986505 
-0.0276058 0.117565 -0.992692 
-0.0206702 0.0849249 -0.996185 
-0.0167746 0.0597603 -0.998088 
-0.0151357 0.0416525 -0.999029 
-0.0148966 0.0287899 -0.999491 
-0.0148182 0.0204514 -0.999692 
-0.0152444 0.0144727 -0.999792 
-0.0153993 0.0103732 -0.999841 
-0.015544 0.00767859 -0.999862 
-0.0161472 0.00577354 -0.999865 
-0.0162294 0.0044057 -0.999871 
-0.0163414 0.00337817 -0.999873 
-0.016136 0.00260439 -0.999879 
-0.0160806 0.00200904 -0.999881 
-0.0158833 0.0014976 -0.999885 
-0.0161395 0.00108934 -0.999884 
-0.0158452 0.000710717 -0.999885 
-0.0160252 0.000358106 -0.999886 
-0.0159942 6.54994e-05 -0.999885 
-0.016244 -0.000179065 -0.999881 
-0.0160069 -0.000354105 -0.999884 
-0.0162494 -0.00056347 -0.99988 
-0.0161859 -0.000969006 -0.999881 
-0.0172918 -0.00166099 -0.999862 
-0.016454 -0.00263619 -0.999874 
-0.0153686 -0.00406519 -0.999887 
-0.016189 -0.00600231 -0.999864 
-0.014798 -0.00897292 -0.999864 
-0.0154696 -0.0129226 -0.999811 
-0.0133923 -0.0187349 -0.999749 
-0.0112713 -0.0238154 -0.999667 
-0.0105359 -0.0192978 -0.999773 
-0.00502588 -0.0159149 -0.99986 
0.00330198 -0.0166611 0.999854 
0.00725598 -0.0204403 0.999782 
0.0083405 -0.0250068 0.999664 
0.00942434 -0.0193739 0.999784 
0.0100313 -0.0136551 0.999868 
0.0108317 -0.00930882 0.999914 
0.0112547 -0.00644478 0.999929 
0.0116127 -0.0041355 0.999937 
0.0119901 -0.00261047 0.999938 
0.0114641 -0.0014873 0.999946 
0.0113557 -0.000745868 0.999948 
0.0116851 -0.000394263 0.999944 
0.0115297 -0.00025316 0.999946 
0.0114564 -0.000106785 0.999947 
0.0113819 0.000126801 0.999948 
0.0113888 0.000439381 0.999947 
0.0117513 0.000776978 0.999943 
0.0115875 0.00116286 0.999945 
0.0116556 0.00158471 0.999943 
0.0114505 0.00208994 0.999945 
0.0114602 0.00268985 0.999943 
0.011325 0.00343794 0.999942 
0.0112313 0.00446772 0.999939 
0.0114804 0.00576473 0.99993 
0.0111639 0.00765677 0.999921 
0.0109763 0.0102129 0.9999 
0.0112522 0.0141028 0.99985 
0.0109715 0.020011 0.999753 
0.0113372 0.0285972 0.99954 
0.012314 0.0399268 0.99914 
0.0147243 0.0546585 0.998408 
0.01958 0.0747609 0.997023 
0.0294612 0.103656 0.99419 
0.0468022 0.141811 0.988799 
0.071464 0.176245 0.981758 
0.0834257 0.232088 0.969118 
0.137396 0.365182 0.920745 
0.101705 0.442475 0.890998 
0.116485 0.634685 0.763938 
0.0824542 0.879206 0.469213 
-0.0388805 0.80458 -0.59256 
-0.116849 0.453684 -0.883469 
-0.118653 0.299313 -0.946754 
-0.0840448 0.204556 -0.975248 
-0.0567548 0.159308 -0.985607 
-0.0385937 0.127337 -0.991117 
-0.0261842 0.0959611 -0.995053 
-0.0182603 0.0701173 -0.997387 
-0.0142308 0.050551 -0.998634 
-0.0123201 0.0359494 -0.999291 
-0.0116513 0.0259029 -0.99961 
-0.0110879 0.0184823 -0.999781 
-0.0112099 0.0133829 -0.999861 
-0.0110727 0.00980226 -0.999903 
-0.0111693 0.00727077 -0.999924 
-0.0115314 0.00552409 -0.999931 
-0.011552 0.0042206 -0.999937 
-0.0115951 0.00326112 -0.99994 
-0.0113927 0.00252645 -0.999944 
-0.0115266 0.00192676 -0.999944 
-0.0110974 0.0014559 -0.99995 
-0.0116097 0.00104054 -0.999944 
-0.0113428 0.000648452 -0.999948 
-0.0113199 0.000314335 -0.999948 
-0.0114323 1.24855e-05 -0.999947 
-0.0114033 -0.000185071 -0.999947 
-0.0112286 -0.000311216 -0.999949 
-0.0115962 -0.00049173 -0.999945 
-0.0114359 -0.000891353 -0.999945 
-0.012328 -0.00163214 -0.999935 
-0.0116801 -0.0027032 -0.999941 
-0.011059 -0.00436737 -0.999943 
-0.0118247 -0.00659444 -0.999922 
-0.0106485 -0.00967386 -0.99991 
-0.0111485 -0.0137117 -0.999858 
-0.00964271 -0.0199202 -0.999769 
-0.00794305 -0.0249351 -0.999671 
-0.00705405 -0.0197863 -0.999794 
-0.00326458 -0.0159099 -0.999867 
0.00206595 -0.0170823 0.99985 
0.00431894 -0.018589 0.99983 
0.00550069 -0.0258925 0.999664 
0.00614239 -0.0220526 0.999752 
0.00673794 -0.0160002 0.999863 
0.00735161 -0.0111258 0.999925 
0.00774814 -0.00777996 0.999953 
0.00807511 -0.00512342 0.999967 
0.0082451 -0.00317408 0.999974 
0.008115 -0.00187373 0.999978 
0.00780794 -0.000904447 0.999982 
0.00800499 -0.000416685 0.99998 
0.00794518 -0.000264046 0.999981 
0.00799186 -0.000166818 0.99998 
0.00784499 2.50315e-05 0.999982 
0.00793403 0.000314337 0.999981 
0.0079759 0.000667 0.99998 
0.00805332 0.00103264 0.999979 
0.00794121 0.0014601 0.99998 
0.00792158 0.00192706 0.999979 
0.00780571 0.00249065 0.999979 
0.00775988 0.00316592 0.999977 
0.00786301 0.00406823 0.999973 
0.00776099 0.00530986 0.999968 
0.00792327 0.00688835 0.999957 
0.00759874 0.00915415 0.999942 
0.00783007 0.0124043 0.999905 
0.00796012 0.016873 0.999839 
0.00830911 0.0238559 0.999694 
0.00904701 0.0327533 0.999436 
0.0107834 0.0440495 0.998985 
0.0146837 0.0592894 0.998146 
0.02206 0.0800845 0.996557 
0.0341107 0.10517 0.993882 
0.0491969 0.126469 0.990764 
0.0809564 0.163314 0.983257 
0.119759 0.245923 0.961871 
0.149483 0.539002 0.828939 
0.118917 0.783537 0.609799 
-0.00532261 0.98235 -0.187243 
-0.0995496 0.723162 -0.683421 
-0.142489 0.386164 -0.911354 
-0.1188 0.221567 -0.967888 
-0.0766055 0.160919 -0.983999 
-0.0492535 0.128761 -0.990463 
-0.0339436 0.10594 -0.993805 
-0.0223132 0.0817873 -0.996413 
-0.0155808 0.0619764 -0.997967 
-0.0119946 0.0468819 -0.998842 
-0.00998053 0.0350239 -0.99935 
-0.00886838 0.0253721 -0.999652 
-0.0081457 0.0184586 -0.99981 
-0.00797497 0.0135811 -0.999889 
-0.0078194 0.0101222 -0.999931 
-0.00779754 0.00755353 -0.999954 
-0.00787276 0.00568312 -0.999965 
-0.00793672 0.00438493 -0.999971 
-0.00790459 0.00340705 -0.999975 
-0.00778282 0.00266917 -0.999978 
-0.00798717 0.00205857 -0.999978 
-0.00765112 0.00157358 -0.999982 
-0.00793047 0.00112498 -0.99998 
-0.00801482 0.00074559 -0.99998 
-0.00769891 0.000374901 -0.999983 
-0.00797899 6.98757e-05 -0.99998 
-0.00780797 -0.000154979 -0.999982 
-0.00764724 -0.000269601 -0.999983 
-0.0078815 -0.000387826 -0.999981 
-0.00774496 -0.000736717 -0.999984 
-0.00837168 -0.0015704 -0.999977 
-0.00815711 -0.00285436 -0.999976 
-0.00755498 -0.00457867 -0.999974 
-0.00816009 -0.00695461 -0.999956 
-0.00742876 -0.0102976 -0.999933 
-0.00771185 -0.0145782 -0.999878 
-0.00650568 -0.0208461 -0.999775 
-0.00522512 -0.0257259 -0.999669 
-0.00472531 -0.02106 -0.999781 
-0.00223148 -0.0159419 -0.999869 
0.00157711 -0.0157723 0.999873 
0.00309495 -0.0219311 0.999771 
0.00394684 -0.0262033 0.999663 
0.00434745 -0.020748 0.999789 
0.00484675 -0.014676 0.999894 
0.00512978 -0.0102869 0.999947 
0.00540875 -0.00704555 0.999974 
0.0055703 -0.00448663 0.999987 
0.00545962 -0.00271479 0.999994 
0.00535579 -0.00144063 0.999997 
0.00522099 -0.000597046 0.999999 
0.00515894 -0.000310043 0.999999 
0.00523117 -0.000235976 0.999999 
0.00522525 -0.00012418 0.999999 
0.0051969 0.000118387 0.999999 
0.00528358 0.000446521 0.999998 
0.00518534 0.000811262 0.999998 
0.00529732 0.00120572 0.999997 
0.0051396 0.00164889 0.999998 
0.00515817 0.00214549 0.999997 
0.00499325 0.00273847 0.999996 
0.00507861 0.0034808 0.999993 
0.00514668 0.00444148 0.999989 
0.00503698 0.00575357 0.999983 
0.0051809 0.00743421 0.999971 
0.0051669 0.00996393 0.999949 
0.00526757 0.0131132 0.999913 
0.00575627 0.0180166 0.999834 
0.00605751 0.0242737 0.9997 
0.00677121 0.0324176 0.999465 
0.00853668 0.0436255 0.999025 
0.0121256 0.0581063 0.99825 
0.0183233 0.075798 0.996968 
0.0253574 0.0932859 0.99533 
0.0352387 0.113374 0.992938 
0.0593183 0.137762 0.988699 
0.124508 0.198671 0.97213 
0.175471 0.323843 0.929688 
0.0444349 0.491356 0.869839 
0.0108469 0.99993 -0.00109853 
-0.0611812 0.62379 -0.779208 
-0.163548 0.289651 -0.943047 
-0.11156 0.173951 -0.978422 
-0.0566629 0.134434 -0.989312 
-0.0341242 0.109927 -0.993366 
-0.0235682 0.0900844 -0.995668 
-0.0157462 0.0708104 -0.997379 
-0.0109115 0.053836 -0.998507 
-0.00866448 0.0412323 -0.999126 
-0.00740195 0.0308992 -0.999508 
-0.00642022 0.0228241 -0.999732 
-0.00571205 0.0169191 -0.999853 
-0.00541296 0.0127561 -0.999917 
-0.00526886 0.00955455 -0.999953 
-0.00519464 0.00716473 -0.999973 
-0.00506427 0.00549587 -0.999984 
-0.00513124 0.00425332 -0.99999 
-0.00505468 0.00334115 -0.999994 
-0.00512924 0.00259915 -0.999996 
-0.00514598 0.00203865 -0.999997 
-0.00514328 0.00151178 -0.999998 
-0.0051455 0.00108961 -0.999998 
-0.0053393 0.000689204 -0.999998 
-0.00503879 0.00032297 -1 
-0.00526459 2.36033e-05 -0.999998 
-0.00497422 -0.00018261 -1 
-0.00494857 -0.000277778 -1 
-0.00502458 -0.000373082 -1 
-0.00500144 -0.000740106 -0.999998 
-0.00561883 -0.00155446 -0.999996 
-0.0054077 -0.00281276 -0.999994 
-0.00520538 -0.00477337 -0.999988 
-0.00563821 -0.00743339 -0.99997 
-0.00511556 -0.0109505 -0.99994 
-0.0053274 -0.015434 -0.99988 
-0.00440851 -0.0214303 -0.999774 
-0.00358747 -0.0264186 -0.999658 
-0.00314708 -0.0211217 -0.999786 
-0.00142814 -0.0163604 -0.999864 
0.000987516 -0.0165463 0.999861 
0.00205722 -0.0212799 0.999783 
0.00260726 -0.0267674 0.999652 
0.00287993 -0.0223326 0.99976 
0.00312451 -0.0158814 0.999882 
0.00324169 -0.0111038 0.999946 
0.00341068 -0.00767028 0.999978 
0.00347579 -0.0049392 0.999995 
0.00328063 -0.0029367 1 
0.00317419 -0.00154033 1.00001 
0.00321237 -0.000680477 1.00001 
0.00296421 -0.000336121 1.00001 
0.00306781 -0.000275491 1.00001 
0.00303886 -0.000183386 1.00001 
0.00310799 3.50323e-05 1.00001 
0.00313318 0.000364467 1.00001 
0.00304425 0.000736319 1.00001 
0.0030917 0.00114445 1.00001 
0.00301877 0.00157865 1.00001 
0.00296474 0.00207961 1.00001 
0.00286703 0.00263578 1 
0.002926 0.00332671 1 
0.00293695 0.00419867 0.999999 
0.00294204 0.00534744 0.999993 
0.00288696 0.00694149 0.999986 
0.00317892 0.00908856 0.999964 
0.00301351 0.0119453 0.999939 
0.00360538 0.0159595 0.999876 
0.00378613 0.0212083 0.999781 
0.00418503 0.027968 0.999613 
0.00517712 0.0375011 0.999296 
0.00699872 0.0505216 0.998712 
0.00991836 0.066339 0.997762 
0.0125465 0.0845985 0.99635 
0.0161086 0.105086 0.994349 
0.0320411 0.129036 0.991133 
0.0975708 0.168256 0.980909 
0.197858 0.232314 0.952324 
0.173161 0.622259 0.763511 
0.00361338 0.99887 -0.0485426 
-0.14549 0.575568 -0.804775 
-0.183631 0.200459 -0.962362 
-0.0767953 0.151058 -0.985544 
-0.0285632 0.124117 -0.991869 
-0.0161473 0.105547 -0.994297 
-0.0125377 0.0852088 -0.996301 
-0.00886854 0.0667682 -0.997744 
-0.00680665 0.0509451 -0.99869 
-0.00570671 0.0386928 -0.999249 
-0.00522507 0.0298472 -0.999552 
-0.00440345 0.0223574 -0.999753 
-0.00367169 0.016725 -0.999868 
-0.00325419 0.0126782 -0.999927 
-0.00315655 0.0096964 -0.99996 
-0.00310549 0.0073819 -0.999978 
-0.00284914 0.00560782 -0.999994 
-0.00290805 0.00440954 -0.999996 
-0.00282535 0.00347758 -1 
-0.00301944 0.00277902 -1 
-0.00289715 0.00217229 -1.00001 
-0.00316298 0.00167134 -1 
-0.00295363 0.00119175 -1.00001 
-0.00317589 0.000784637 -1 
-0.00305793 0.000406299 -1.00001 
-0.00308594 5.43888e-05 -1.00001 
-0.00289263 -0.000175664 -1.00001 
-0.00285074 -0.000281945 -1.00001 
-0.00288382 -0.00033361 -1.00001 
-0.00287519 -0.000635716 -1.00001 
-0.0032278 -0.00153203 -1.00001 
-0.00335385 -0.00302153 -1 
-0.00313776 -0.00503383 -0.999995 
-0.00368431 -0.00760204 -0.999977 
-0.00324429 -0.0108563 -0.999949 
-0.00355042 -0.0153365 -0.999889 
-0.00298371 -0.0215133 -0.999777 