# vtk DataFile Version 3.0 
Exported using Morpho https://github.com/Morpho-lang/morpho 
ASCII 
DATASET UNSTRUCTURED_GRID 

POINTS 1978 float 
-12 -4.00001 -3.71976e-11 
-11.6311 -4.00001 -1.91636e-11 
-11.3512 -4 -1.4323e-12 
-10.9902 -4.00001 2.50033e-11 
-10.6669 -4.00001 4.76331e-11 
-10.326 -4.00001 2.1686e-11 
-10.013 -4.00001 4.59857e-11 
-9.67653 -4.00001 2.02547e-11 
-9.33183 -4.00001 2.98804e-11 
-9.0138 -4.00001 7.99797e-11 
-8.70641 -4.00001 5.84634e-12 
-8.38668 -4.00001 -2.06331e-11 
-8.0724 -4.00001 -2.53449e-11 
-7.76137 -4.00001 -3.70152e-11 
-7.47649 -4.00001 1.36046e-12 
-7.18936 -4.00001 1.30579e-10 
-6.90965 -4.00001 1.94298e-11 
-6.60223 -4.00001 -1.17854e-10 
-6.30933 -4.00001 -2.25885e-10 
-6.00292 -4.00001 -1.2472e-10 
-5.70606 -4.00001 -1.17057e-10 
-5.40847 -4.00001 1.60858e-11 
-5.11252 -4.00001 1.65144e-10 
-4.81871 -4.00001 -1.43148e-11 
-4.49981 -4.00001 9.27073e-11 
-4.1959 -4.00001 -2.96364e-11 
-3.89255 -4.00001 1.09553e-10 
-3.59363 -4.00001 6.73927e-10 
-3.29115 -4 4.47752e-10 
-3.03597 -4.00001 8.67352e-10 
-2.7037 -4.00001 2.67838e-09 
-2.45812 -4.00001 3.82632e-09 
-2.25856 -4.00002 3.24018e-09 
-2.07584 -4 -8.53278e-10 
-1.90116 -4.00002 -2.13326e-08 
-1.7161 -4 -1.36606e-08 
-1.49093 -4.00005 -2.79637e-08 
-1.25365 -4.00001 -3.06531e-08 
-0.998522 -4.00004 -1.84529e-08 
-0.482687 -3.99963 2.93525e-06 
0.565395 -3.99966 5.78718e-06 
1.04033 -4.00005 -6.68927e-08 
1.38261 -4.00003 -1.28594e-08 
1.71253 -4.00001 1.7413e-09 
1.89972 -4.00002 -3.70775e-09 
2.09608 -4.00002 9.30726e-10 
2.30139 -3.99999 4.52348e-09 
2.64249 -4.00002 3.33678e-09 
2.86623 -4.00005 -3.54839e-09 
3.12436 -3.99997 -1.25757e-09 
3.39647 -4 -5.05901e-09 
3.63434 -4.00002 1.3348e-09 
3.88108 -4.00001 3.08574e-09 
4.20033 -4.00001 4.75685e-10 
4.49568 -4.00001 -5.60782e-10 
4.79874 -4.00001 -2.01518e-10 
5.09881 -4.00001 -1.3639e-10 
5.4014 -4.00001 -1.17171e-11 
5.71326 -4.00001 3.95049e-11 
6.00221 -4.00001 3.26485e-11 
6.28569 -4.00001 1.25995e-10 
6.57363 -4.00001 1.35714e-10 
6.87324 -4.00001 -4.94306e-11 
7.16652 -4.00001 -8.69447e-11 
7.46913 -4.00001 -5.34112e-12 
7.75919 -4.00001 2.14845e-11 
8.05816 -4.00001 1.38489e-11 
8.36413 -4.00001 4.15422e-11 
8.67856 -4.00001 -2.45396e-11 
8.96527 -4.00001 -9.00997e-11 
9.30022 -4.00001 -1.4525e-11 
9.62784 -4.00001 -4.02489e-11 
9.93235 -4.00001 -1.93744e-11 
10.302 -4.00001 -3.9271e-11 
10.6303 -4.00001 -4.38451e-11 
11.002 -4.00001 -1.77147e-11 
11.319 -4.00001 -1.20465e-12 
11.605 -4.00001 1.59822e-11 
12 -4.00001 3.7786e-11 
-12 -3.62049 2.82294e-11 
-11.7049 -3.69259 -7.16809e-23 
-11.3712 -3.59982 1.12184e-22 
-11.0751 -3.69289 1.06023e-14 
-10.7256 -3.65562 2.34247e-22 
-10.398 -3.6756 1.0288e-22 
-10.0609 -3.65636 2.44795e-22 
-9.74032 -3.68532 1.34956e-22 
-9.39477 -3.69196 2.01807e-22 
-9.0502 -3.66768 3.7536e-22 
-8.73235 -3.65619 -1.91969e-22 
-8.41896 -3.66702 4.68265e-14 
-8.09915 -3.66488 -1.19077e-22 
-7.78475 -3.66758 3.68323e-22 
-7.4722 -3.64171 -3.22333e-23 
-7.18191 -3.64294 -1.34569e-23 
-6.86838 -3.67851 -3.31523e-22 
-6.56791 -3.66237 -5.57413e-22 
-6.25752 -3.67754 -6.87501e-22 
-5.95223 -3.66956 -6.2635e-22 
-5.64938 -3.67055 -7.49083e-22 
-5.34606 -3.66886 -1.93549e-14 
-5.04679 -3.66674 5.63412e-22 
-4.72743 -3.69543 -2.93972e-22 
-4.40936 -3.68046 -1.73917e-21 
-4.08885 -3.68117 -1.09426e-24 
-3.76737 -3.6755 4.65902e-21 
-3.45105 -3.6782 4.36504e-21 
-3.15096 -3.66226 -6.87454e-23 
-2.85206 -3.75483 -1.74799e-20 
-2.66642 -3.48921 1.8117e-19 
-2.51648 -3.68865 -8.51179e-20 
-2.29624 -3.6447 5.68643e-19 
-2.09357 -3.63631 3.10309e-19 
-1.9064 -3.62848 -9.02732e-19 
-1.71612 -3.63652 2.71655e-19 
-1.51516 -3.70195 -1.99797e-18 
-1.30193 -3.61177 -1.04518e-18 
-0.914374 -3.66813 -1.07723e-18 
-0.261919 -3.49033 2.8293e-15 
0.396829 -3.62494 2.37084e-16 
1.09027 -3.62468 -5.68929e-19 
1.53873 -3.70285 -6.84312e-20 
1.79465 -3.53889 8.7423e-21 
2.00437 -3.66863 1.31708e-20 
2.23011 -3.66986 4.33243e-20 
2.40301 -3.48487 -1.38767e-20 
2.51887 -3.78634 2.35121e-19 
2.86668 -3.7386 5.53632e-20 
3.05791 -3.58487 -1.98293e-20 
3.29825 -3.69419 4.45178e-20 
3.58752 -3.63384 -7.12551e-20 
3.90246 -3.70401 4.09931e-21 
4.20556 -3.67424 1.28285e-21 
4.51651 -3.67823 -1.23488e-21 
4.82507 -3.67156 -3.42612e-22 
5.13164 -3.66984 -5.66216e-22 
5.4453 -3.67845 -1.07446e-22 
5.74292 -3.65675 9.11583e-23 
6.0338 -3.65322 7.60589e-23 
6.32966 -3.66105 1.13812e-22 
6.63359 -3.67359 4.57779e-22 
6.93211 -3.66201 9.7362e-23 
7.23149 -3.66719 1.86116e-22 
7.52669 -3.64862 -3.27995e-22 
7.8262 -3.65632 -5.17252e-23 
8.1339 -3.65881 7.30565e-23 
8.44114 -3.66369 2.78424e-23 
8.73982 -3.63534 -1.11683e-22 
9.06165 -3.68819 -2.65151e-22 
9.39012 -3.67735 -5.88034e-23 
9.70356 -3.65057 -1.84695e-22 
10.0505 -3.70993 -2.22511e-22 
10.391 -3.67068 -1.62914e-22 
10.748 -3.70586 -1.99385e-22 
11.0769 -3.65213 -6.66492e-23 
11.374 -3.61094 -3.26567e-23 
11.717 -3.71711 -2.53769e-24 
12 -3.60915 -3.56236e-11 
-12 -3.30944 4.05559e-11 
-11.6458 -3.33525 4.49973e-23 
-11.3004 -3.26075 -1.0492e-14 
-10.9899 -3.35415 -4.2176e-23 
-10.6615 -3.3166 -6.07315e-23 
-10.3364 -3.34394 1.00282e-22 
-10.0107 -3.32223 -1.04241e-22 
-9.69936 -3.3434 6.12372e-23 
-9.39303 -3.38145 3.41058e-23 
-9.08302 -3.32937 -1.11697e-22 
-8.77316 -3.32052 1.16132e-22 
-8.45874 -3.32627 -4.1707e-23 
-8.1472 -3.33296 2.68761e-23 
-7.83177 -3.33261 -5.48428e-23 
-7.5255 -3.31508 -6.83612e-23 
-7.21759 -3.29287 2.22358e-22 
-6.92224 -3.3514 -2.71424e-22 
-6.62033 -3.33093 1.17131e-22 
-6.31668 -3.35252 -1.0454e-22 
-6.01245 -3.34431 9.25673e-23 
-5.71 -3.34051 8.38798e-15 
-5.41269 -3.34144 -8.12321e-23 
-5.11411 -3.33392 1.68751e-22 
-4.81205 -3.37778 -1.77869e-22 
-4.5088 -3.36836 -3.68991e-22 
-4.19964 -3.36072 -2.30148e-21 
-3.88824 -3.36209 1.50499e-21 
-3.5619 -3.35788 5.7512e-21 
-3.25426 -3.34775 1.85571e-20 
-2.94082 -3.42632 5.214e-21 
-2.645 -3.18337 -3.72838e-20 
-2.40157 -3.30692 2.48177e-19 
-2.20105 -3.28005 1.13701e-19 
-2.00267 -3.25995 1.57934e-19 
-1.7983 -3.28315 3.38851e-19 
-1.63802 -3.05356 -2.92041e-19 
-1.56758 -3.3549 3.7168e-19 
-1.31191 -3.27858 -6.6917e-20 
-0.921084 -3.30858 6.6336e-19 
-0.35343 -3.0222 -2.08629e-16 
0.472748 -3.13259 -3.02876e-16 
1.12278 -3.29782 -1.98798e-19 
1.52587 -3.34447 -4.35871e-20 
1.65419 -3.05983 -1.72857e-20 
1.91712 -3.25585 1.62512e-20 
2.11899 -3.32383 1.15482e-20 
2.29707 -3.1707 3.90821e-21 
2.5955 -3.27827 -1.1481e-20 
2.68873 -3.53452 -1.54994e-20 
2.91932 -3.33732 -7.06137e-21 
3.26833 -3.32764 -7.7714e-22 
3.53471 -3.3296 -5.55526e-22 
3.85262 -3.39143 -1.25502e-21 
4.15957 -3.35339 1.70717e-21 
4.46671 -3.35835 -5.85301e-22 
4.77623 -3.34792 1.61605e-22 
5.08799 -3.34092 3.73257e-22 
5.39498 -3.35626 -1.64512e-22 
5.70144 -3.32532 -2.24828e-22 
6.00461 -3.31329 -2.04508e-22 
6.30176 -3.32799 1.07606e-14 
6.6052 -3.34771 1.31633e-22 
6.91016 -3.3306 -1.24381e-22 
7.21334 -3.32806 2.81863e-23 
7.51767 -3.31289 8.73762e-23 
7.82206 -3.31507 3.11795e-23 
8.12749 -3.32219 1.06447e-22 
8.44192 -3.31685 -1.18354e-22 
8.76203 -3.30612 4.74236e-23 
9.08148 -3.36537 -3.38113e-14 
9.39871 -3.34043 -6.37578e-23 
9.7174 -3.31049 4.33332e-23 
10.0263 -3.39598 -3.00994e-23 
10.321 -3.32108 2.95015e-23 
10.6448 -3.38865 2.86362e-23 
10.9706 -3.33404 -2.70007e-14 
11.2918 -3.255 1.45686e-14 
11.6325 -3.36231 -4.77791e-23 
12 -3.30701 -3.82307e-11 
-12 -2.99692 2.264e-11 
-11.6465 -3.01551 7.24356e-23 
-11.2959 -2.94053 4.99413e-14 
-10.9529 -3.01104 -3.7847e-14 
-10.6206 -2.98355 3.47448e-23 
-10.3003 -3.00793 -4.12545e-23 
-9.98426 -2.98145 1.30151e-23 
-9.67118 -3.00302 5.02641e-23 
-9.36517 -3.03625 -7.29295e-23 
-9.05602 -2.98649 4.63061e-23 
-8.74161 -2.98534 1.79338e-14 
-8.4265 -2.99137 6.53782e-23 
-8.11046 -3.00267 8.61361e-15 
-7.80311 -2.99511 5.2115e-23 
-7.49614 -2.98291 -8.59676e-23 
-7.19317 -2.95896 4.79293e-23 
-6.89854 -3.01839 7.28913e-23 
-6.59435 -3.00324 3.63087e-24 
-6.29511 -3.02719 9.04424e-23 
-5.99376 -3.01776 -1.03096e-22 
-5.69894 -3.0088 4.86118e-15 
-5.40165 -3.01307 -4.13971e-23 
-5.09905 -3.01369 1.10339e-23 
-4.7908 -3.05604 -2.58526e-22 
-4.47764 -3.05058 3.90701e-23 
-4.16613 -3.03583 7.48283e-22 
-3.84052 -3.05069 3.98324e-21 
-3.51888 -3.03541 -2.08897e-20 
-3.1903 -3.05364 1.48125e-20 
-2.9204 -3.10135 3.39222e-20 
-2.70634 -2.85638 -2.20421e-20 
-2.45967 -2.93613 -1.63744e-19 
-2.22268 -2.95573 -3.50376e-20 
-2.00736 -2.89781 -1.40352e-19 
-1.84299 -2.8483 -2.29009e-19 
-1.77842 -2.52161 -7.9255e-20 
-1.60508 -2.72109 -1.07726e-19 
-1.36318 -2.95771 -2.694e-19 
-1.01008 -2.99157 4.85842e-19 
-0.285342 -2.46171 4.64148e-16 
0.457485 -2.70022 -3.62181e-16 
1.21821 -2.96316 1.29959e-19 
1.53711 -2.70396 2.70116e-20 
1.78676 -2.54179 -1.01983e-20 
1.8738 -2.86634 2.43262e-21 
2.08556 -2.89758 1.27275e-20 
2.30712 -2.80925 2.57159e-21 
2.49288 -2.99825 -6.45174e-21 
2.74078 -3.04373 -1.50463e-20 
2.94428 -2.95517 4.43314e-20 
3.17424 -3.07497 -2.30256e-20 
3.51129 -3.00525 6.35905e-22 
3.82372 -3.07696 2.99012e-21 
4.14285 -3.03682 -2.30822e-21 
4.45492 -3.0344 8.58938e-22 
4.77224 -3.028 -4.72516e-22 
5.08085 -3.01499 8.51085e-23 
5.3864 -3.03045 8.73767e-23 
5.69084 -2.99806 4.75793e-23 
5.99663 -2.98896 2.94052e-22 
6.3023 -2.99494 8.9049e-25 
6.59982 -3.02151 -1.07591e-22 
6.90159 -3.00236 1.46949e-22 
7.20283 -2.99727 -1.3465e-22 
7.50673 -2.98301 4.1575e-23 
7.81676 -2.97869 -3.28663e-23 
8.11987 -2.98468 -4.86855e-14 
8.42897 -2.98643 -3.67942e-15 
8.74545 -2.9754 1.93787e-16 
9.06877 -3.03272 -4.57885e-23 
9.39087 -3.01095 -3.1093e-15 
9.6856 -2.95813 2.25676e-15 
9.99863 -3.03904 8.43129e-15 
10.3192 -2.98418 1.26349e-14 
10.6414 -3.05224 -2.56987e-23 
10.9664 -2.99529 5.72527e-15 
11.317 -2.93863 5.46848e-15 
11.6571 -3.04904 -6.85458e-23 
12 -2.98403 -1.89211e-11 
-12 -2.69178 -5.82681e-12 
-11.6443 -2.70053 2.02575e-23 
-11.3156 -2.61367 2.22512e-23 
-10.9774 -2.68405 1.54418e-14 
-10.6487 -2.65573 -3.48386e-14 
-10.3187 -2.66993 1.98979e-23 
-9.99094 -2.65775 -2.75425e-23 
[...]
POINT_DATA 1978 
VECTORS vectors float
2.74424e-05 -0.000629496 1.00001 
-8.98204e-06 -0.000544095 1.00001 
-1.0627e-05 -0.000495864 1.00001 
-1.52803e-05 -0.000448952 1.00001 
-8.55847e-07 -0.000427179 1.00001 
1.29081e-05 -0.000429965 1.00001 
2.22955e-05 -0.000446924 1.00001 
2.03459e-05 -0.00046018 1.00001 
1.22321e-05 -0.000480601 1.00001 
1.62696e-05 -0.000517834 1.00001 
4.91233e-05 -0.000565188 1.00001 
7.73645e-05 -0.000635473 1.00001 
4.89777e-05 -0.000712632 1.00001 
-1.97531e-05 -0.000751945 1.00001 
-6.61095e-05 -0.000778703 1.00001 
-4.94734e-05 -0.000792732 1.00001 
3.81811e-05 -0.000826641 1.00001 
0.000102257 -0.000876013 1.00001 
5.31966e-05 -0.000921229 1.00001 
-2.1178e-05 -0.000983882 1.00001 
-0.000128482 -0.000917065 1.00001 
-0.000129206 -0.000709542 1.00001 
-0.000115723 -0.000548931 1.00001 
4.09633e-05 -0.000561089 1.00001 
0.000465316 -0.00116501 1.00001 
0.00101007 -0.00224684 1 
0.00098347 -0.00357323 1 
0.000172032 -0.00491253 0.999996 
-0.00110751 -0.00629372 0.999987 
-0.000161433 -0.00669413 0.999983 
0.00135312 -0.00744388 0.999976 
0.00341409 -0.0118786 0.999922 
0.00506504 -0.0188304 0.999798 
0.00632574 -0.0309449 0.999497 
0.00677188 -0.0461103 0.998906 
0.00684196 -0.055719 0.998415 
-0.000171111 -0.0665931 0.997777 
-0.00318728 -0.0605566 0.998161 
-0.00973705 -0.0488667 0.998722 
-0.0122043 -0.037399 0.999081 
-0.00539694 0.000408878 -0.999942 
0.00469406 -0.00139557 -0.999976 
0.00370072 -0.0060374 -0.999972 
0.00111612 -0.0141457 -0.999904 
0.00101516 -0.0167384 -0.999864 
0.00045045 -0.0179606 -0.999844 
-0.00333719 -0.0155559 -0.999874 
-0.0045421 -0.00710232 -0.999959 
-0.00254898 -0.0033513 -0.999992 
-0.000550719 0.00028882 -1.00001 
0.000443195 0.000911186 -1.00001 
0.000656305 0.000828848 -1 
0.000440353 -1.40552e-05 -1.00001 
-0.000111346 -0.000649952 -1.00001 
-0.000407238 -0.000548213 -1.00001 
-0.000121724 -0.000164717 -1.00001 
0.000199229 -0.000314355 -1.00001 
0.000204713 -0.000715228 -1.00001 
0.000101109 -0.00100428 -1.00001 
2.15546e-05 -0.00112061 -1.00001 
-9.06952e-05 -0.00110931 -1.00001 
-0.000169864 -0.000981453 -1.00001 
-0.000102319 -0.000874509 -1.00001 
-6.67987e-06 -0.000819519 -1.00001 
5.86485e-05 -0.000778395 -1.00001 
4.50704e-05 -0.000777505 -1.00001 
-2.38209e-05 -0.000751585 -1.00001 
-7.4574e-05 -0.000675176 -1.00001 
-4.97065e-05 -0.000604757 -1.00001 
-3.33808e-05 -0.000553323 -1.00001 
-2.70396e-05 -0.00049433 -1.00001 
-1.02427e-05 -0.000468181 -1.00001 
-2.17758e-05 -0.000447872 -1.00001 
-2.31572e-05 -0.000433183 -1.00001 
2.96025e-06 -0.00042998 -1.00001 
1.15731e-05 -0.000453956 -1.00001 
9.85491e-06 -0.000494318 -1.00001 
9.81592e-06 -0.000543437 -1.00001 
-2.80984e-05 -0.000630111 -1.00001 
7.028e-05 -0.000559286 1.00001 
4.27766e-05 -0.000526864 1.00001 
2.76889e-05 -0.000462929 1.00002 
2.0843e-05 -0.000443177 1.00002 
1.57462e-05 -0.000426468 1.00002 
1.95912e-05 -0.000423689 1.00002 
3.55102e-05 -0.000429263 1.00002 
2.77943e-05 -0.000438932 1.00002 
2.05479e-05 -0.000467588 1.00001 
4.78451e-05 -0.000510946 1.00002 
8.75315e-05 -0.000567066 1.00002 
0.000106721 -0.000619382 1.00002 
0.000104759 -0.000654581 1.00002 
7.67544e-05 -0.000670759 1.00002 
8.4927e-05 -0.000693949 1.00002 
9.22896e-05 -0.000738829 1.00002 
6.02932e-05 -0.000805451 1.00002 
4.34e-05 -0.000838982 1.00002 
1.39487e-05 -0.00086242 1.00002 
2.47802e-06 -0.000833315 1.00002 
-7.8779e-06 -0.000716137 1.00002 
-2.4776e-05 -0.000571067 1.00002 
-0.000105876 -0.000612802 1.00002 
-9.89689e-05 -0.00101374 1.00001 
0.000167674 -0.00183898 1.00001 
0.000567444 -0.00284392 1.00001 
0.00025439 -0.00421167 1.00001 
-0.000709393 -0.00608202 0.999997 
-0.000377719 -0.00785597 0.999983 
0.00084179 -0.00751099 0.999985 
0.00334514 -0.0131741 0.99992 
0.00478644 -0.0156878 0.999877 
0.00570995 -0.024874 0.999683 
0.0061352 -0.0319901 0.999477 
0.00518596 -0.0395277 0.999213 
0.00453412 -0.0450656 0.998982 
0.00131055 -0.0531228 0.998596 
0.00241944 -0.049216 0.998803 
0.00452328 -0.044323 0.999025 
0.00254635 -0.0337656 0.999357 
-0.000646955 0.00628539 -0.999922 
-0.00151801 -0.000890996 -1.00002 
-0.000589606 -0.0082898 -0.999983 
0.00258842 -0.0109275 -0.999951 
0.00212473 -0.0132372 -0.999922 
0.00128656 -0.0128721 -0.999928 
0.000679219 -0.0106997 -0.999954 
0.0020822 -0.0109872 -0.999949 
0.00118312 -0.0043836 -1 
-3.83511e-05 -0.00305582 -1.00001 
-0.000671563 -0.000708063 -1.00001 
-0.00062175 -0.000331017 -1.00002 
-0.000142073 -0.000796035 -1.00001 
3.78397e-05 -0.000872133 -1.00001 
-0.000105277 -0.000527886 -1.00002 
-0.000207999 -0.000290302 -1.00002 
-0.000184215 -0.000393343 -1.00002 
-0.000170219 -0.000673848 -1.00002 
-0.000190431 -0.000884432 -1.00002 
-0.000157999 -0.000982005 -1.00001 
-0.000122285 -0.000991707 -1.00002 
-0.000101093 -0.000940652 -1.00002 
-8.94417e-05 -0.000867057 -1.00002 
-7.47793e-05 -0.000786473 -1.00001 
-7.93637e-05 -0.000711951 -1.00002 
-8.06962e-05 -0.000685804 -1.00002 
-9.34379e-05 -0.000669206 -1.00002 
-9.75874e-05 -0.000642835 -1.00001 
-0.000110645 -0.000592354 -1.00002 
-4.8597e-05 -0.000535358 -1.00001 
-3.31797e-05 -0.00048054 -1.00002 
-4.21353e-05 -0.000448597 -1.00002 
-1.86442e-05 -0.000429048 -1.00001 
-1.68382e-05 -0.00042199 -1.00002 
-1.10232e-05 -0.000429163 -1.00002 
-2.02691e-05 -0.000445208 -1.00002 
-2.84139e-05 -0.000469947 -1.00002 
-4.33559e-05 -0.000534191 -1.00001 
-7.09103e-05 -0.000555945 -1.00001 
6.87322e-05 -0.000499221 1.00001 
3.24455e-05 -0.000471545 1.00002 
2.18225e-05 -0.000442304 1.00002 
2.61154e-05 -0.000437918 1.00002 
3.92422e-05 -0.000442195 1.00002 
6.65989e-05 -0.000443576 1.00002 
0.000112907 -0.000449067 1.00002 
0.000148841 -0.000465943 1.00002 
0.000168014 -0.000487985 1.00002 
0.000209478 -0.000527839 1.00001 
0.000237409 -0.00056975 1.00002 
0.000256964 -0.000612639 1.00002 
0.000269268 -0.000635628 1.00002 
0.00027516 -0.000638917 1.00002 
0.000280242 -0.000639617 1.00002 
0.000277157 -0.000644524 1.00002 
0.000216614 -0.000686748 1.00001 
0.000127181 -0.000706899 1.00002 
3.03201e-05 -0.000745551 1.00001 
-3.29178e-05 -0.000698138 1.00002 
-0.000103773 -0.000556882 1.00002 
-0.000179389 -0.000430179 1.00002 
-0.000254049 -0.000525401 1.00002 
-0.000329016 -0.00101679 1.00001 
-0.000291926 -0.00184419 1.00001 
-6.81469e-05 -0.00292721 1.00001 
-0.000141489 -0.00459853 1 
-0.000485277 -0.0069807 0.999991 
-5.08507e-05 -0.00904301 0.999974 
0.00119506 -0.0101151 0.999964 
0.00103844 -0.0170664 0.999867 
0.00506146 -0.0244066 0.999704 
0.00483336 -0.0282114 0.999602 
0.00428803 -0.0315271 0.999504 
0.00373655 -0.0358716 0.999361 
-0.00198913 -0.0355935 0.999375 
0.00294804 -0.0439609 0.999041 
-0.00150775 -0.0407332 0.999183 
-0.00198782 -0.0357864 0.999381 
-0.00753879 -0.0265657 0.999559 
-0.000203571 0.00753454 -0.99992 
0.00179801 -0.000870098 -1.00002 
0.00412656 -0.00803959 -0.999977 
0.00569874 -0.00734207 -0.999972 
0.00394195 -0.00988118 -0.999959 
0.00252348 -0.0104151 -0.999955 
0.00211 -0.00970263 -0.999962 
0.000819118 -0.00878499 -0.999973 
0.00063709 -0.00715236 -0.999986 
0.000694309 -0.00579824 -0.999997 
0.000225376 -0.00316641 -1.00001 
0.000262534 -0.0019986 -1.00001 
0.000218296 -0.00152603 -1.00001 
-4.22951e-05 -0.00120823 -1.00002 
-0.000342066 -0.000719182 -1.00001 
-0.000457515 -0.000429867 -1.00002 
-0.000456523 -0.000402018 -1.00002 
-0.000395198 -0.000591897 -1.00001 
-0.000354719 -0.000802538 -1.00002 
-0.000296575 -0.000906439 -1.00002 
-0.000225041 -0.000918713 -1.00001 
-0.000182378 -0.000871459 -1.00001 
-0.000204285 -0.000780294 -1.00002 
-0.000244141 -0.000706531 -1.00002 
-0.000271065 -0.000663254 -1.00002 
-0.000268597 -0.000649324 -1.00002 
-0.000255745 -0.000642099 -1.00002 
-0.000249289 -0.000622775 -1.00002 
-0.000244303 -0.000586325 -1.00002 
-0.000196668 -0.000542341 -1.00002 
-0.000168235 -0.000504899 -1.00002 
-0.000144448 -0.000474302 -1.00002 
-9.5434e-05 -0.000443779 -1.00002 
-6.9629e-05 -0.000441389 -1.00002 
-3.68501e-05 -0.000441717 -1.00001 
-2.86885e-05 -0.000443454 -1.00002 
-2.56907e-05 -0.000445753 -1.00002 
-3.36701e-05 -0.00047501 -1.00002 
-6.44701e-05 -0.000495884 -1.00001 
4.90543e-05 -0.000449795 1.00001 
2.17667e-05 -0.000442155 1.00002 
1.73158e-05 -0.000436009 1.00002 
3.03641e-05 -0.000449072 1.00002 
4.77542e-05 -0.000461037 1.00002 
8.14638e-05 -0.000465694 1.00001 
0.000129406 -0.000476541 1.00002 
0.00017791 -0.000505123 1.00001 
0.000210282 -0.000524228 1.00002 
0.000232 -0.000550835 1.00002 
0.000250233 -0.000577392 1.00002 
0.000270467 -0.000601436 1.00002 
0.000290378 -0.000614065 1.00002 
0.000300336 -0.000621759 1.00002 
0.000296704 -0.000616234 1.00001 
0.000288504 -0.000583734 1.00002 
0.000254518 -0.000573059 1.00002 
0.000156963 -0.000575724 1.00001 
3.32225e-05 -0.000593138 1.00002 
-6.40641e-05 -0.000537137 1.00002 
-0.000144739 -0.000408636 1.00002 
-0.000195295 -0.000322612 1.00002 
-0.000189372 -0.000484889 1.00002 
-0.000244353 -0.00107637 1.00001 
-0.000345298 -0.00204801 1.00001 
-0.000459803 -0.00344353 1.00001 
-0.000792861 -0.0056928 0.999999 
-0.00127222 -0.00866717 0.999977 
-0.0012875 -0.0112425 0.999952 
-0.00116503 -0.0136169 0.999919 
-0.00364336 -0.0183055 0.999838 
-0.0023559 -0.0215399 0.999778 
-0.00244589 -0.0249418 0.999696 
-0.00431277 -0.0276682 0.999621 
-0.00561058 -0.0301094 0.999544 
-0.0127554 -0.0276406 0.999546 
-0.00988381 -0.0302833 0.999506 
-0.00648554 -0.0336096 0.999429 
-0.00786594 -0.0313503 0.999499 
-0.0101368 -0.0229017 0.999618 
0.000809904 0.00357524 -0.999937 
0.00427939 -0.00269102 -1.00002 
0.00572464 -0.00546457 -0.999987 
0.00715466 -0.00666741 -0.999966 
0.00569261 -0.00798283 -0.999966 
0.00561961 -0.00895776 -0.999958 
0.00572066 -0.0093611 -0.999949 
0.00286715 -0.0089892 -0.999964 
0.00202764 -0.00789275 -0.999977 
0.00247375 -0.00695339 -0.999986 
0.00125691 -0.00510302 -0.999998 
0.000871661 -0.00347476 -1.00001 
0.000414145 -0.00237041 -1.00002 
-0.000105604 -0.00163318 -1.00001 
-0.000444195 -0.000961163 -1.00002 
-0.000555257 -0.000581015 -1.00002 
-0.000592442 -0.000469154 -1.00001 
-0.000516889 -0.000597082 -1.00002 
-0.000411458 -0.000789442 -1.00001 
-0.000319087 -0.000867711 -1.00001 
-0.000246714 -0.000835346 -1.00001 
-0.000211521 -0.000765931 -1.00002 
-0.000226002 -0.000688679 -1.00001 
-0.000257201 -0.00063807 -1.00002 
-0.000282273 -0.000627928 -1.00001 
-0.000281543 -0.000622335 -1.00002 
-0.000270137 -0.000617275 -1.00002 
-0.000261904 -0.00059869 -1.00002 
-0.000251924 -0.000576652 -1.00002 
-0.000227186 -0.00055792 -1.00002 
-0.000195726 -0.000540419 -1.00002 
-0.000164752 -0.000516908 -1.00002 
-0.000120885 -0.000472812 -1.00002 
-7.55054e-05 -0.000462619 -1.00002 
-4.61521e-05 -0.000459586 -1.00002 
-3.15933e-05 -0.000454974 -1.00002 
-1.96735e-05 -0.000443392 -1.00002 
-2.28829e-05 -0.000449892 -1.00002 
-3.6819e-05 -0.000451073 -1.00001 
1.52792e-05 -0.000421429 1.00001 
3.69466e-06 -0.000428104 1.00002 
3.10924e-06 -0.000438987 1.00002 
2.3488e-05 -0.000458922 1.00002 
4.1896e-05 -0.000481081 1.00001 
7.21311e-05 -0.000482025 1.00002 
0.0001185 -0.000504894 1.00001 
0.000166 -0.000539938 1.00002 
0.000197828 -0.000558055 1.00002 
0.00021455 -0.000568468 1.00002 
0.000231637 -0.00057514 1.00002 
0.000254232 -0.000580957 1.00002 
0.000274468 -0.000585464 1.00002 
0.000279939 -0.000600255 1.00002 
0.000275727 -0.000593597 1.00002 
0.000280497 -0.000535614 1.00001 
0.000256295 -0.000485208 1.00002 
0.000155252 -0.000462149 1.00001 
2.2765e-05 -0.000452447 1.00001 
-6.21347e-05 -0.00037466 1.00001 
-0.000104978 -0.000272602 1.00001 
-9.3452e-05 -0.000247372 1.00002 
1.12088e-06 -0.000458869 1.00001 
-2.97848e-05 -0.00108066 1.00002 
-0.00025789 -0.00216166 1.00001 
-0.000729336 -0.00372662 1.00001 
-0.00152203 -0.00614602 0.999996 
-0.00241435 -0.00910551 0.999971 
-0.00307503 -0.0118684 0.99994 
-0.00434864 -0.0150762 0.999893 
-0.00788299 -0.0199162 0.999782 
-0.00764413 -0.0218713 0.999744 
-0.00871419 -0.0239606 0.999686 
-0.012336 -0.0255766 0.99961 
-0.0169686 -0.0250025 0.999554 
-0.0212899 -0.0234667 0.999509 
-0.0162833 -0.0253453 0.999559 
-0.016134 -0.0254774 0.999561 
-0.0111228 -0.028829 0.999537 
-0.011202 -0.0274086 0.999586 
0.00292822 0.00106227 -0.999936 
0.00511385 -0.00248613 -1.00001 
0.00779471 -0.00513192 -0.999974 
0.0103664 -0.00573222 -0.999941 
0.00988298 -0.00697668 -0.999939 
0.00797946 -0.00844099 -0.999944 
0.00772394 -0.0094326 -0.999937 
0.00454041 -0.00884697 -0.999966 
0.0052753 -0.00850033 -0.999961 
0.00368847 -0.00741203 -0.99998 
0.00183442 -0.00523893 -1 
0.00122029 -0.0041469 -1.00001 
0.000482927 -0.00292173 -1.00001 
-0.000224127 -0.00183095 -1.00001 
-0.000527978 -0.00108112 -1.00001 
-0.00063683 -0.000660637 -1.00002 
-0.000705163 -0.000552125 -1.00002 
-0.000614114 -0.000688886 -1.00001 
-0.000431798 -0.000813419 -1.00001 
-0.000286802 -0.000802505 -1.00001 
-0.00021372 -0.000735353 -1.00001 
-0.000201641 -0.000668704 -1.00002 
-0.000219596 -0.000617017 -1.00001 
-0.000236426 -0.000598216 -1.00002 
-0.000248489 -0.000587462 -1.00002 
-0.000250238 -0.00057877 -1.00002 
-0.000247651 -0.000585361 -1.00002 
-0.00024031 -0.000575097 -1.00002 
-0.000222167 -0.000560037 -1.00001 
-0.000206714 -0.000564707 -1.00002 
-0.000182292 -0.000574574 -1.00002 
-0.000153242 -0.000551815 -1.00002 
-0.000113247 -0.000500505 -1.00002 
-7.01458e-05 -0.000483424 -1.00002 
-4.43274e-05 -0.000476493 -1.00002 
-2.49961e-05 -0.000465181 -1.00002 
-5.22361e-06 -0.000448451 -1.00002 
-2.87634e-06 -0.000440559 -1.00002 
1.83392e-06 -0.000436057 -1.00001 
-3.52736e-05 -0.000427751 1.00001 
-2.04372e-05 -0.000431962 1.00002 
-2.08113e-05 -0.000448343 1.00001 
4.4371e-06 -0.0004696 1.00002 
2.87665e-05 -0.000493749 1.00002 
5.78216e-05 -0.000504227 1.00002 
9.50331e-05 -0.000520171 1.00002 
0.000139437 -0.000558845 1.00002 
0.000172294 -0.000587395 1.00002 
0.000187216 -0.00058516 1.00002 
0.000200702 -0.0005716 1.00002 
0.000222607 -0.000572865 1.00002 
0.000244581 -0.000566035 1.00002 
0.000250337 -0.000556766 1.00002 
0.000246452 -0.000558865 1.00002 
0.000258089 -0.000540963 1.00002 
0.000262157 -0.000467352 1.00001 
0.000201365 -0.000411813 1.00001 
8.15368e-05 -0.000382484 1.00001 
1.41089e-05 -0.000322088 1.00001 
-2.22081e-05 -0.000207144 1.00001 
-3.33661e-05 -0.000128387 1.00001 
6.8806e-05 -0.000242312 1.00001 
0.000209328 -0.000802409 1.00001 
0.000104729 -0.00172544 1.00001 
-0.000461056 -0.00319417 1.00001 
-0.00174316 -0.00555108 0.999999 
-0.00336863 -0.00852929 0.999974 
-0.0044665 -0.0112508 0.999942 
-0.00712514 -0.0148765 0.99988 
-0.0096766 -0.018464 0.999797 
-0.0140969 -0.0215804 0.999683 
-0.0164946 -0.0236251 0.999596 
-0.0177667 -0.0249242 0.999541 
-0.020909 -0.023857 0.999508 
-0.0236989 -0.0206505 0.99952 
-0.020631 -0.0229127 0.99954 
-0.0209182 -0.0218003 0.999561 
-0.0171805 -0.024632 0.999574 
-0.013295 -0.020407 0.999616 
0.00343116 -0.00298098 -0.99989 
0.00803905 -0.00487694 -0.999985 
0.0113808 -0.0064843 -0.999932 
0.0117522 -0.0075427 -0.999915 
0.0108657 -0.00801714 -0.999919 
0.00963646 -0.00857328 -0.99993 
0.0107121 -0.00867639 -0.999916 
0.00802279 -0.00942195 -0.999934 
0.00819402 -0.00889325 -0.999941 
0.005273 -0.00800158 -0.999968 
0.00364438 -0.00687929 -0.999985 
0.0023574 -0.00565999 -0.999997 
0.00110843 -0.00395015 -1.00001 
0.000109702 -0.00265783 -1.00001 
-0.000458777 -0.00160589 -1.00001 
-0.000676736 -0.000922147 -1.00001 
-0.000782031 -0.000640034 -1.00001 
-0.00072832 -0.000692849 -1.00001 
-0.000543274 -0.000779661 -1.00001 
-0.000335958 -0.000767866 -1.00001 
-0.000207549 -0.000705957 -1.00001 
-0.000173063 -0.000635496 -1.00001 
-0.000191686 -0.00058775 -1.00001 
-0.000201709 -0.000567848 -1.00001 
-0.00020569 -0.000544501 -1.00002 
-0.000215207 -0.000524795 -1.00002 
-0.000228658 -0.000548868 -1.00002 
-0.000223116 -0.000558836 -1.00002 
-0.000196981 -0.000547323 -1.00002 
-0.000180033 -0.000565578 -1.00002 
-0.000164083 -0.000595313 -1.00002 
-0.000140504 -0.000581936 -1.00002 
-0.000104671 -0.000530122 -1.00002 
-6.34647e-05 -0.000505331 -1.00002 
-3.76407e-05 -0.000493075 -1.00002 
-1.38685e-05 -0.00047757 -1.00002 
1.03831e-05 -0.000462393 -1.00002 
1.9857e-05 -0.000449479 -1.00002 
3.75173e-05 -0.000451721 -1.00001 
-6.81756e-05 -0.000458453 1.00001 
-4.51411e-05 -0.000455367 1.00002 
-2.42606e-05 -0.000471895 1.00002 
3.64848e-06 -0.000495929 1.00002 
3.63837e-05 -0.000517652 1.00002 
6.68488e-05 -0.000532982 1.00002 
0.000103239 -0.000562879 1.00002 
0.000140423 -0.000602531 1.00002 
0.000157367 -0.000608101 1.00002 
0.0001654 -0.000581848 1.00002 
0.000181407 -0.000573554 1.00002 
0.000210545 -0.0005799 1.00002 
0.000227753 -0.000550728 1.00002 
0.000223173 -0.000514082 1.00002 
0.000226805 -0.000519889 1.00001 
0.000250799 -0.000507916 1.00001 
0.000232535 -0.000432293 1.00001 
0.000167896 -0.000362918 1.00001 
0.000111188 -0.000318857 1.00001 
7.30158e-05 -0.000258356 1.00001 
1.20509e-05 -0.000125681 1.00001 
3.29098e-05 -4.50142e-05 1.00001 
0.000232941 -0.000307805 1.00001 
0.000381714 -0.00101309 1.00001 
0.000171803 -0.00213775 1.00001 
-0.000972085 -0.00408101 1.00001 
-0.00304899 -0.00674996 0.999989 
-0.00517696 -0.00970263 0.999956 
-0.00753194 -0.0126421 0.999908 
-0.0121689 -0.0170955 0.999795 
-0.0143776 -0.0187894 0.999733 
-0.0208319 -0.0215088 0.999564 
-0.0235448 -0.0212814 0.999507 
-0.0243408 -0.0212137 0.99949 
-0.0252225 -0.0206613 0.99948 
-0.0248298 -0.0196988 0.999509 
-0.0237291 -0.0164908 0.999592 
-0.0201389 -0.0139867 0.999705 
-0.0205131 -0.0200002 0.999604 
-0.0155913 -0.0083072 0.999596 
0.0112591 -0.0126844 -0.999732 
0.00869147 -0.0041708 -0.999976 
0.0130969 -0.00648577 -0.999908 
0.0150433 -0.00716419 -0.999874 
0.0149454 -0.00806793 -0.999868 
0.0137903 -0.00797014 -0.999884 
0.0133722 -0.00831078 -0.999888 
0.0110759 -0.00891947 -0.999912 
0.00795081 -0.0085852 -0.999946 
0.00584856 -0.00802915 -0.999966 
0.00407231 -0.0070606 -0.999983 
0.00227702 -0.00512757 -1 
0.000678681 -0.00355468 -1.00001 
-0.000171028 -0.00240683 -1.00001 
-0.000602458 -0.00143908 -1.00001 
-0.000812324 -0.000858198 -1.00001 
-0.00081258 -0.000716601 -1.00001 
-0.000632789 -0.000762896 -1.00001 
-0.00043275 -0.000771355 -1.00001 
-0.000278101 -0.000728968 -1.00001 
-0.000183982 -0.000662074 -1.00001 
-0.000163825 -0.000588024 -1.00001 
-0.000175861 -0.000546424 -1.00001 
-0.000169704 -0.000524493 -1.00001 
-0.000172641 -0.00049159 -1.00002 
-0.000200762 -0.000486376 -1.00002 
-0.000219785 -0.000529654 -1.00001 
-0.000203405 -0.000550959 -1.00002 
-0.000167497 -0.000551885 -1.00001 
-0.000154464 -0.000576466 -1.00002 
-0.000143046 -0.000610786 -1.00002 
-0.000120098 -0.000596351 -1.00002 
-8.77807e-05 -0.000549794 -1.00002 
-5.4501e-05 -0.00052866 -1.00002 
-3.09727e-05 -0.000511559 -1.00002 
-5.38575e-06 -0.000496854 -1.00002 
1.97156e-05 -0.000483347 -1.00002 
3.56945e-05 -0.000469993 -1.00002 
5.8145e-05 -0.000479423 -1.00001 
-7.69398e-05 -0.000499926 1.00001 
-5.3637e-05 -0.000487794 1.00002 
-3.50248e-05 -0.000491131 1.00001 
-5.35184e-06 -0.000513787 1.00002 
2.60217e-05 -0.000537695 1.00001 
5.40719e-05 -0.000556453 1.00002 
8.21727e-05 -0.000585795 1.00002 
0.00011209 -0.000617205 1.00002 
0.000128063 -0.000617345 1.00002 
0.000133121 -0.000585723 1.00002 
0.000142195 -0.000575903 1.00002 
0.000165911 -0.000586298 1.00002 
0.000181872 -0.000551502 1.00002 
0.000176459 -0.00048946 1.00002 
0.000183096 -0.000484099 1.00001 
0.000218578 -0.000498218 1.00001 
0.000214639 -0.000442623 1.00001 
0.000161684 -0.000350966 1.00001 
0.0001242 -0.00030507 1.00001 
0.000110194 -0.000277468 1.00001 
5.16927e-05 -0.000166914 1.00001 
5.00753e-05 -1.41181e-05 1.00001 
0.000234055 -7.33077e-05 1.00001 
0.000411289 -0.000550018 1.00001 
0.000364266 -0.00152412 1.00002 
-0.000274999 -0.00298231 1.00001 
-0.00224235 -0.00515817 1 
-0.00495622 -0.0079067 0.999971 
-0.00732696 -0.0100408 0.999942 
-0.0109019 -0.0143874 0.999854 
-0.0161826 -0.0175653 0.999731 
-0.0191153 -0.0188236 0.999656 
-0.0217133 -0.0188781 0.9996 