# vtk DataFile Version 3.0 
Exported using Morpho https://github.com/Morpho-lang/morpho 
ASCII 
DATASET UNSTRUCTURED_GRID 

POINTS 1978 float 
-12 -4 -8.75529e-14 
-11.6319 -4 -1.59816e-14 
-11.3508 -4 6.861e-15 
-10.9897 -4 6.85127e-14 
-10.667 -4 7.2428e-14 
-10.3266 -4 1.17506e-14 
-10.013 -4 8.527e-14 
-9.67618 -4 9.07011e-14 
-9.33184 -4 4.95165e-14 
-9.01381 -4 1.72329e-13 
-8.70617 -4 -6.076e-14 
-8.38708 -4 -9.71097e-14 
-8.07026 -4 -1.25537e-14 
-7.76476 -4 1.04948e-13 
-7.47565 -4 8.68387e-14 
-7.18934 -4 1.16261e-13 
-6.90981 -4 -5.67553e-14 
-6.60178 -4 -2.04449e-13 
-6.30914 -4 -3.59983e-13 
-6.00303 -4 -6.79103e-14 
-5.70597 -4 -2.04119e-13 
-5.4085 -4 1.01469e-15 
-5.11269 -4 1.0847e-13 
-4.81901 -4 -8.86106e-13 
-4.4998 -4 -1.3007e-12 
-4.19658 -4 -6.76463e-13 
-3.89217 -4 1.65571e-12 
-3.5935 -4 3.56713e-12 
-3.29426 -4 1.10934e-12 
-3.03442 -4 -2.28378e-12 
-2.70316 -4 -2.16314e-11 
-2.45824 -4 -3.46824e-11 
-2.25944 -4 -9.03765e-11 
-2.07714 -4 3.89223e-11 
-1.90309 -4 -5.06752e-11 
-1.7154 -4 7.32943e-11 
-1.49151 -4 1.01419e-10 
-1.25854 -3.99999 7.80548e-10 
-0.98428 -4.00001 -2.08229e-10 
-0.454756 -4 1.40591e-07 
0.535889 -4 -1.53759e-07 
1.03469 -4 -1.01913e-09 
1.38047 -4 -1.36904e-10 
1.70616 -4 -1.37404e-11 
1.90451 -4 -1.72729e-11 
2.09586 -4 -1.00206e-11 
2.30916 -4 -2.44487e-11 
2.6329 -4 4.1136e-12 
2.87173 -4 4.17466e-11 
3.12648 -4 4.69483e-12 
3.39266 -4 -1.19913e-11 
3.63168 -4 4.64729e-12 
3.89321 -4 7.31768e-12 
4.19537 -4 -1.97772e-13 
4.49709 -4 -1.73167e-12 
4.79874 -4 1.22917e-13 
5.09939 -4 -1.78836e-13 
5.4015 -4 -2.25965e-13 
5.71285 -4 -1.28351e-13 
6.00211 -4 -1.45417e-13 
6.28551 -4 9.56232e-14 
6.57379 -4 4.29259e-13 
6.87357 -4 7.23935e-14 
7.16685 -4 -7.20682e-14 
7.46894 -4 5.21296e-14 
7.75902 -4 -9.21197e-14 
8.05853 -4 -9.20344e-14 
8.3644 -4 1.37686e-13 
8.67781 -4 -7.79267e-14 
8.96543 -4 -1.24877e-13 
9.30037 -4 -2.53153e-14 
9.62773 -4 -1.21889e-13 
9.93243 -4 -9.35227e-15 
10.3019 -4 -7.56943e-14 
10.6304 -4 -6.20052e-14 
11.0018 -4 -3.267e-14 
11.3192 -4 -1.63279e-14 
11.6051 -4 7.0802e-15 
12 -4 8.47043e-14 
-12 -3.62089 1.04449e-13 
-11.7051 -3.69193 -6.06732e-14 
-11.3717 -3.60077 -1.44389e-14 
-11.0754 -3.6913 -1.7296e-14 
-10.7266 -3.65522 2.76488e-14 
-10.3992 -3.67618 3.54718e-14 
-10.0623 -3.65667 2.33115e-14 
-9.74141 -3.68531 -3.72344e-14 
-9.39554 -3.69192 -6.18413e-15 
-9.05053 -3.66749 5.86025e-15 
-8.73145 -3.65618 7.12929e-14 
-8.41745 -3.66761 6.22649e-14 
-8.09593 -3.6661 -3.77619e-14 
-7.77694 -3.65602 -2.05282e-13 
-7.47548 -3.65353 -9.65745e-14 
-7.18648 -3.64382 1.82189e-13 
-6.87061 -3.67919 1.27994e-13 
-6.56802 -3.66253 -8.34006e-14 
-6.25679 -3.67781 -1.69351e-13 
-5.95144 -3.66936 -1.92716e-13 
-5.64863 -3.67044 -9.56301e-15 
-5.34561 -3.6692 3.74611e-14 
-5.04632 -3.66756 3.48501e-13 
-4.72389 -3.69572 9.96911e-13 
-4.40509 -3.67901 1.43429e-12 
-4.08797 -3.67991 -1.70034e-13 
-3.76664 -3.67329 -2.02474e-12 
-3.44755 -3.68483 -2.67332e-12 
-3.14286 -3.66945 3.15876e-12 
-2.85066 -3.75726 1.66187e-13 
-2.67878 -3.48533 6.29162e-13 
-2.53014 -3.68581 -1.67965e-11 
-2.30832 -3.64352 -2.79897e-11 
-2.1179 -3.63925 -5.56376e-13 
-1.91933 -3.62442 -6.08738e-11 
-1.73987 -3.63474 -3.52954e-11 
-1.51395 -3.68024 1.66085e-10 
-1.24169 -3.65073 -1.17753e-09 
-0.864432 -3.63459 6.63746e-10 
-0.394497 -3.47219 -3.82631e-07 
0.511558 -3.62436 2.31722e-07 
1.06453 -3.5733 3.84849e-11 
1.49507 -3.69423 2.16954e-11 
1.79713 -3.5898 5.02439e-12 
2.01894 -3.64696 1.11502e-12 
2.24079 -3.67691 -1.49642e-13 
2.40531 -3.48502 2.36806e-14 
2.5204 -3.79451 2.58343e-11 
2.88146 -3.73602 -3.14877e-11 
3.05919 -3.56837 6.065e-13 
3.30017 -3.6937 -1.62852e-12 
3.58871 -3.65672 -5.65424e-13 
3.88126 -3.67788 -5.0886e-13 
4.19056 -3.67815 1.54008e-12 
4.5096 -3.67569 3.42955e-13 
4.82206 -3.67074 -5.40903e-13 
5.13022 -3.67014 -7.52759e-14 
5.44421 -3.67939 2.33513e-13 
5.74232 -3.6573 1.94023e-13 
6.03362 -3.65326 2.1435e-13 
6.32958 -3.66122 1.71632e-13 
6.63335 -3.67343 -1.56619e-13 
6.93215 -3.66194 -2.16186e-13 
7.23123 -3.66664 -1.10745e-13 
7.52661 -3.64867 -8.6295e-15 
7.82665 -3.65628 1.57301e-13 
8.13382 -3.65902 1.05454e-13 
8.44104 -3.66388 -5.26714e-14 
8.73969 -3.63485 -9.72584e-15 
9.06168 -3.6878 -4.65237e-14 
9.39081 -3.67779 -4.61804e-15 
9.70414 -3.65048 3.01251e-14 
10.0508 -3.70978 -7.82723e-15 
10.3915 -3.67063 -4.71209e-14 
10.7484 -3.70581 -2.10572e-14 
11.0775 -3.65214 4.28634e-15 
11.3744 -3.61094 1.86758e-14 
11.7172 -3.71713 6.49875e-14 
12 -3.609 -1.21282e-13 
-12 -3.30917 8.72444e-14 
-11.6459 -3.33551 5.59094e-15 
-11.3002 -3.26249 -2.35192e-16 
-10.9892 -3.35281 6.51514e-17 
-10.6603 -3.31608 -6.91749e-16 
-10.3358 -3.34441 6.50185e-16 
-10.0094 -3.32297 -1.229e-15 
-9.69871 -3.34251 -3.57746e-16 
-9.39312 -3.38163 -2.10512e-16 
-9.0837 -3.32898 2.44759e-15 
-8.77347 -3.32109 -6.98599e-16 
-8.45829 -3.32644 1.49881e-15 
-8.14709 -3.33434 -7.13084e-16 
-7.83293 -3.32847 -5.00761e-15 
-7.52042 -3.31592 8.91496e-15 
-7.22054 -3.29525 8.49708e-15 
-6.92329 -3.35173 -6.8563e-15 
-6.62007 -3.33139 3.77554e-15 
-6.31653 -3.35288 -9.04193e-16 
-6.01281 -3.34426 1.04112e-15 
-5.71065 -3.34068 -3.45936e-16 
-5.41383 -3.34165 1.73317e-15 
-5.11664 -3.33318 -4.42242e-15 
-4.81574 -3.37833 3.97195e-16 
-4.50947 -3.36846 1.09405e-14 
-4.19386 -3.35971 -2.6154e-15 
-3.88175 -3.36164 -3.70968e-14 
-3.55857 -3.36124 -1.95522e-13 
-3.25328 -3.35662 -1.27743e-12 
-2.94895 -3.40922 -1.74522e-15 
-2.66033 -3.19026 -9.02381e-12 
-2.41026 -3.30013 1.24711e-11 
-2.21072 -3.29824 -2.08584e-11 
-2.01148 -3.28327 -1.77094e-11 
-1.80839 -3.2488 3.32624e-11 
-1.65461 -3.01646 2.29149e-11 
-1.57143 -3.34108 -1.88022e-10 
-1.2894 -3.31918 2.42041e-10 
-0.861285 -3.26792 -6.39625e-11 
-0.355857 -2.99394 1.7448e-07 
0.493366 -3.15961 1.31506e-07 
1.06936 -3.24306 9.46319e-12 
1.55499 -3.35144 4.05975e-12 
1.59992 -3.04637 -6.5917e-12 
1.91627 -3.2363 -1.03807e-12 
2.12899 -3.32551 -2.27417e-13 
2.31412 -3.18504 -3.37668e-12 
2.60802 -3.26687 3.72966e-13 
2.67844 -3.54705 -2.57573e-14 
2.90317 -3.32891 -1.09057e-13 
3.2639 -3.35593 1.46228e-12 
3.54817 -3.33175 -8.23463e-13 
3.84778 -3.37122 6.66647e-13 
4.15906 -3.35433 -5.43097e-13 
4.46791 -3.35689 1.31458e-13 
4.77893 -3.34998 -1.12778e-13 
5.08915 -3.34173 7.08142e-15 
5.39661 -3.35689 6.02121e-16 
5.70323 -3.32567 -4.6319e-15 
6.00535 -3.31358 -1.35695e-15 
6.30167 -3.32821 -1.7888e-16 
6.60454 -3.3471 9.00206e-16 
6.9092 -3.33066 -1.29397e-15 
7.21295 -3.32712 -7.3693e-16 
7.51763 -3.31348 -9.82721e-16 
7.82219 -3.31547 4.14565e-15 
8.12777 -3.32197 -2.87873e-15 
8.44032 -3.31684 -2.67346e-15 
8.76201 -3.30611 1.05019e-15 
9.08162 -3.36495 1.73985e-15 
9.39843 -3.34066 -4.12164e-15 
9.71721 -3.31085 4.59102e-16 
10.0267 -3.3957 -8.0591e-16 
10.3213 -3.321 2.76102e-15 
10.6448 -3.38825 -9.29872e-16 
10.9703 -3.33451 2.61687e-16 
11.2915 -3.25505 1.74023e-17 
11.6324 -3.36228 -4.69086e-15 
12 -3.30689 -8.10411e-14 
-12 -2.9972 4.87244e-14 
-11.646 -3.01749 1.01518e-15 
-11.2943 -2.9434 -1.85969e-15 
-10.9513 -3.01036 1.60136e-14 
-10.6202 -2.98218 -1.43361e-14 
-10.3002 -3.00877 -3.22871e-15 
-9.98535 -2.98062 2.04111e-15 
-9.6726 -3.00244 4.43823e-16 
-9.36624 -3.03535 -2.08648e-15 
-9.05616 -2.98663 1.41828e-15 
-8.74089 -2.98651 1.5102e-15 
-8.42589 -2.99178 -1.75247e-15 
-8.11096 -3.00276 9.50757e-16 
-7.8015 -2.99646 -1.01788e-15 
-7.49638 -2.97988 6.01006e-16 
-7.19291 -2.96058 1.66743e-15 
-6.89844 -3.01866 -6.07718e-16 
-6.59404 -3.00344 2.26082e-15 
-6.29473 -3.02728 -3.65404e-16 
-5.99372 -3.01788 -2.54538e-15 
-5.69861 -3.00959 -3.03963e-16 
-5.40194 -3.01265 -1.83857e-15 
-5.09828 -3.01445 1.15613e-14 
-4.78948 -3.05515 4.05943e-15 
-4.47531 -3.05157 2.75359e-15 
-4.16079 -3.03869 -9.75394e-15 
-3.83102 -3.05311 -6.89417e-14 
-3.50958 -3.04105 9.19903e-14 
-3.18931 -3.02904 9.43777e-14 
-2.93673 -3.0986 -3.36384e-12 
-2.70068 -2.87654 -1.49768e-13 
-2.45288 -2.96103 -6.85557e-12 
-2.21964 -2.93831 8.83928e-12 
-2.00812 -2.97802 -3.16493e-11 
-1.85802 -2.7959 4.01451e-11 
-1.82297 -2.55278 -2.96175e-11 
-1.56562 -2.68664 9.25318e-12 
-1.36247 -2.99467 1.74084e-11 
-0.973239 -2.95744 -1.81962e-11 
-0.315609 -2.46507 2.65355e-07 
0.523551 -2.68217 -3.67858e-07 
1.15095 -2.92975 4.92141e-12 
1.52159 -2.69373 1.24223e-12 
1.78603 -2.54231 -4.97298e-13 
1.88384 -2.87005 -5.4763e-14 
2.11025 -2.9168 2.85773e-12 
2.28792 -2.77204 -3.57011e-12 
2.46018 -2.99768 3.25418e-12 
2.74211 -3.01759 -8.63124e-13 
3.00281 -2.98179 2.77226e-13 
3.23197 -3.09355 -4.77482e-13 
3.50618 -3.00372 3.44168e-13 
3.81537 -3.06839 -3.68161e-13 
4.13533 -3.03982 4.5146e-13 
4.45161 -3.03375 -1.29865e-13 
4.76954 -3.02816 1.14303e-13 
5.07994 -3.01631 -4.93349e-16 
5.38666 -3.03086 -3.69873e-15 
5.69092 -2.99811 6.70816e-16 
5.99637 -2.98994 1.742e-15 
6.30181 -2.99519 1.19794e-16 
6.59909 -3.02062 -2.03402e-15 
6.90107 -3.00248 8.83167e-16 
7.20289 -2.99703 -1.15413e-16 
7.508 -2.98479 -3.05355e-15 
7.81797 -2.97859 1.31379e-15 
8.12052 -2.98483 4.58253e-16 
8.42904 -2.98393 8.3353e-17 
8.74432 -2.97763 -1.04772e-15 
9.06862 -3.03183 3.73693e-16 
9.39009 -3.01105 9.27122e-16 
9.6848 -2.95879 -3.46273e-16 
9.99802 -3.03899 -6.14211e-17 
10.3191 -2.98472 4.3178e-17 
10.6417 -3.05167 -6.32118e-16 
10.9666 -2.99574 3.83274e-16 
11.3171 -2.93861 -1.83824e-16 
11.657 -3.04916 1.68228e-16 
12 -2.98422 -4.18289e-14 
-12 -2.69217 -1.55009e-14 
-11.6429 -2.70466 9.17138e-16 
-11.3254 -2.61041 1.4816e-15 
-10.9844 -2.6836 -1.44137e-14 
-10.6512 -2.65586 1.39299e-14 
-10.318 -2.66962 2.96457e-15 
-9.98989 -2.65708 -1.10985e-15 
-9.66187 -2.66802 5.65627e-17 
-9.34465 -2.69151 -1.16948e-15 
-9.02222 -2.65582 7.48589e-17 
-8.70029 -2.65919 -6.81827e-16 
-8.37849 -2.66795 8.80299e-16 
-8.06701 -2.6702 -1.41412e-16 
-7.75898 -2.66347 -4.06662e-16 
-7.45276 -2.64974 -1.39635e-15 
-7.14403 -2.6357 -1.46973e-15 
-6.8499 -2.69191 7.80377e-16 
-6.54571 -2.67987 -1.02037e-15 
-6.25033 -2.70113 3.35627e-16 
-5.95692 -2.68626 1.90117e-18 
[...]
POINT_DATA 1978 
VECTORS vectors float
-1.15203e-05 -0.000586585 1 
5.10846e-06 -0.000534939 1 
-6.4211e-06 -0.000488013 1 
-5.70068e-06 -0.000443876 1 
-5.89482e-07 -0.000424205 1 
5.94538e-06 -0.000425797 1 
9.04264e-06 -0.000439725 1 
8.67111e-06 -0.000453735 1 
6.50429e-06 -0.000476483 1 
1.26036e-05 -0.000513351 1 
2.48006e-05 -0.000561509 1 
3.01557e-05 -0.000627952 1 
1.77053e-05 -0.000695541 1 
-3.71289e-06 -0.000734176 1 
-1.47417e-05 -0.000761415 1 
-3.51161e-06 -0.000778942 1 
1.58927e-05 -0.00081362 1 
2.57184e-05 -0.000861333 1 
2.40186e-05 -0.000904777 1 
-1.64766e-05 -0.000944629 1 
-3.67708e-05 -0.000872241 1 
-6.98248e-05 -0.000690886 1 
-4.60525e-05 -0.000564954 1 
5.89809e-05 -0.000644261 1 
0.00025886 -0.00124761 0.999999 
0.00039399 -0.00228315 0.999997 
0.000306702 -0.0035782 0.999994 
-8.27956e-05 -0.0049554 0.999988 
5.95873e-05 -0.006275 0.99998 
0.00013397 -0.00680191 0.999977 
0.000753766 -0.00817074 0.999966 
0.000392721 -0.0128998 0.999916 
-0.000352928 -0.0202486 0.999792 
-0.000838672 -0.0315276 0.999499 
-0.00101434 -0.0443294 0.999012 
-0.00117764 -0.0542669 0.998522 
0.000994046 -0.0629014 0.998019 
-0.000781472 -0.0583382 0.998296 
-0.0019738 -0.0485677 0.998817 
-0.00403517 -0.0361613 0.999349 
-0.00384103 0.00294421 -0.999991 
-8.78386e-05 -0.00146219 -1 
0.00112475 -0.00631739 -0.99998 
0.000870118 -0.0134238 -0.99991 
-0.000147736 -0.0159904 -0.999872 
-0.000686252 -0.0169654 -0.999856 
-0.00107715 -0.0149315 -0.999887 
-0.00130342 -0.00744626 -0.999969 
-0.00057371 -0.00354346 -0.999993 
-0.000422482 -0.00030327 -1 
-8.84853e-05 0.000635417 -1 
8.52908e-05 0.000591779 -1 
0.000110523 -0.000100886 -1 
1.7579e-05 -0.000626759 -1 
-7.77966e-05 -0.000522625 -1 
-6.93138e-05 -0.000223324 -1 
2.36995e-05 -0.000339365 -1 
8.96861e-05 -0.000687639 -1 
5.85354e-05 -0.000963155 -1 
-5.20948e-06 -0.0010804 -1 
-3.72081e-05 -0.00107506 -1 
-4.70906e-05 -0.000970063 -1 
-4.57684e-05 -0.000869024 -1 
-8.99359e-06 -0.000808845 -1 
1.09059e-05 -0.000766786 -1 
8.35761e-06 -0.000757256 -1 
-8.78343e-06 -0.0007309 -1 
-2.23536e-05 -0.000665748 -1 
-2.85917e-05 -0.00059909 -1 
-1.80918e-05 -0.000547859 -1 
-9.88367e-06 -0.000491694 -1 
-1.01924e-05 -0.000462447 -1 
-9.08184e-06 -0.000442216 -1 
-6.91933e-06 -0.000427653 -1 
-1.38291e-06 -0.000426147 -1 
6.7138e-06 -0.000449052 -1 
4.88561e-06 -0.00048695 -1 
-5.72395e-06 -0.000533616 -1 
1.18592e-05 -0.000586463 -1 
7.18069e-05 -0.000496918 1 
3.52502e-05 -0.000513966 1 
2.48033e-05 -0.000458599 1 
1.73524e-05 -0.000440266 1 
1.75818e-05 -0.000423189 1 
2.39659e-05 -0.000420777 1 
3.8595e-05 -0.000427353 1 
4.05423e-05 -0.00043898 1 
4.52395e-05 -0.000467417 1 
6.74285e-05 -0.00050652 1 
9.50328e-05 -0.000556775 1 
0.000108609 -0.000606125 1 
0.000108755 -0.000644906 1 
9.88658e-05 -0.000666104 1 
9.61258e-05 -0.00068846 1 
9.81598e-05 -0.000721123 1 
7.13547e-05 -0.000775752 1 
4.67302e-05 -0.000808563 1 
1.53979e-05 -0.000831726 1 
-6.03503e-06 -0.000800232 1 
-2.68982e-05 -0.000696656 1 
-5.57975e-05 -0.00058831 1 
-0.00010348 -0.00065325 1 
-7.37614e-05 -0.00104217 1 
0.000107451 -0.0018449 0.999999 
0.000305442 -0.0029265 0.999996 
7.27099e-05 -0.00439367 0.999991 
-0.000384517 -0.00613137 0.999982 
-6.26298e-05 -0.007673 0.999971 
0.00101201 -0.00857151 0.999963 
0.00290473 -0.0139757 0.999898 
0.00378738 -0.015928 0.999866 
0.0049633 -0.0238266 0.999704 
0.00512275 -0.0314942 0.999491 
0.00473283 -0.0382129 0.999259 
0.0036423 -0.0446541 0.998996 
0.00192923 -0.0506269 0.998716 
0.00136134 -0.0481987 0.998837 
0.00135704 -0.0414409 0.999141 
0.000260595 -0.0314559 0.999505 
8.34402e-05 0.00399923 -0.999992 
3.23027e-05 -0.00132277 -1 
0.000579383 -0.00782246 -0.99997 
0.00216433 -0.0108258 -0.999939 
0.0018663 -0.0125612 -0.99992 
0.00125836 -0.0125329 -0.999921 
0.00108188 -0.0102632 -0.999947 
0.00104575 -0.0101389 -0.999948 
0.000567551 -0.00439633 -0.99999 
0.000208221 -0.00332434 -0.999995 
-0.000339693 -0.00101865 -1 
-0.000328447 -0.000569742 -1 
-9.77622e-05 -0.000711582 -1 
-3.22843e-05 -0.000804243 -1 
-0.000125882 -0.000554753 -1 
-0.000195527 -0.000343404 -1 
-0.000190078 -0.000414743 -1 
-0.000171694 -0.000660272 -1 
-0.000174315 -0.00085752 -1 
-0.000151404 -0.000955847 -1 
-0.000121615 -0.000966222 -1 
-0.000100706 -0.000912673 -1 
-9.4153e-05 -0.000837239 -1 
-8.78386e-05 -0.000768228 -1 
-9.3695e-05 -0.000706887 -1 
-9.47396e-05 -0.000681961 -1 
-0.00010111 -0.000660396 -1 
-0.000103411 -0.000628483 -1 
-0.000107908 -0.000579394 -1 
-6.73225e-05 -0.000529383 -1 
-5.10562e-05 -0.000479542 -1 
-4.92401e-05 -0.000447865 -1 
-2.89028e-05 -0.000428904 -1 
-2.16723e-05 -0.000419843 -1 
-1.37715e-05 -0.00042617 -1 
-1.8311e-05 -0.000441778 -1 
-2.50897e-05 -0.000465038 -1 
-3.51299e-05 -0.000521245 -1 
-7.26849e-05 -0.000493799 -1 
6.98525e-05 -0.000445671 1 
3.47384e-05 -0.000463232 1 
2.33981e-05 -0.000438201 1 
2.59324e-05 -0.000432527 1 
3.86818e-05 -0.000434225 1 
6.21444e-05 -0.000436031 1 
0.000100914 -0.000444417 1 
0.000131192 -0.00046083 1 
0.000147045 -0.000482612 1 
0.000185535 -0.000520783 1 
0.000211041 -0.0005586 1 
0.000230316 -0.000596159 1 
0.000240813 -0.000619787 1 
0.000243946 -0.000628956 1 
0.000247606 -0.000633191 1 
0.000241903 -0.000638391 1 
0.000188641 -0.000675737 1 
0.000118775 -0.000691422 1 
3.41484e-05 -0.00071666 1 
-3.09543e-05 -0.000668582 1 
-9.40892e-05 -0.000555432 1 
-0.000154978 -0.0004711 1 
-0.000215102 -0.00058336 1 
-0.000257042 -0.00103746 1 
-0.000211461 -0.00182255 0.999999 
-9.35068e-05 -0.00295795 0.999996 
-0.000196463 -0.00459395 0.99999 
-0.000465254 -0.00679002 0.999977 
-0.00021377 -0.00879397 0.999962 
0.00087237 -0.0106271 0.999944 
0.000857066 -0.0171231 0.999853 
0.00369832 -0.0228531 0.999732 
0.00408921 -0.0276583 0.999609 
0.00352504 -0.0313708 0.999502 
0.00264364 -0.0356611 0.999361 
-0.00281342 -0.033931 0.999421 
0.00172056 -0.0414607 0.999139 
-0.00106006 -0.0399724 0.999201 
-0.00215062 -0.0351557 0.99938 
-0.00609981 -0.0267594 0.999621 
-0.000389098 0.00639215 -0.999978 
0.00166428 -0.00105126 -0.999999 
0.00325747 -0.00745159 -0.999967 
0.00500288 -0.00689794 -0.999964 
0.00374744 -0.00941394 -0.999949 
0.00257309 -0.0103055 -0.999944 
0.0023817 -0.00955439 -0.999952 
0.00117246 -0.00838722 -0.999964 
0.000833167 -0.00739917 -0.999973 
0.000797591 -0.0057875 -0.999983 
0.000348516 -0.00319921 -0.999995 
0.000225595 -0.00210623 -0.999998 
0.000136578 -0.00149767 -0.999999 
-5.23193e-05 -0.00117513 -1 
-0.000285886 -0.000749052 -1 
-0.000406765 -0.000474955 -1 
-0.000418533 -0.000438437 -1 
-0.000371486 -0.000595157 -1 
-0.000331185 -0.000778017 -1 
-0.000273486 -0.000874813 -1 
-0.000215047 -0.000889965 -1 
-0.000181253 -0.000848035 -1 
-0.000190302 -0.000766428 -1 
-0.000215462 -0.000701404 -1 
-0.000236074 -0.000658309 -1 
-0.000237193 -0.000640483 -1 
-0.000229804 -0.000628964 -1 
-0.000223843 -0.000606053 -1 
-0.000216192 -0.00057491 -1 
-0.000174045 -0.000533634 -1 
-0.000150134 -0.000498193 -1 
-0.000127669 -0.000468569 -1 
-8.43058e-05 -0.000440241 -1 
-6.41407e-05 -0.000435874 -1 
-3.58943e-05 -0.000434485 -1 
-2.80025e-05 -0.000437049 -1 
-2.5736e-05 -0.000441318 -1 
-3.48623e-05 -0.000467123 -1 
-6.60031e-05 -0.000442999 -1 
4.94944e-05 -0.000402525 1 
2.3829e-05 -0.000435608 1 
1.77931e-05 -0.000432088 1 
2.94002e-05 -0.000439446 1 
4.81259e-05 -0.000452039 1 
7.97956e-05 -0.000458177 1 
0.000122981 -0.000470739 1 
0.000166193 -0.000495685 1 
0.000196058 -0.000514699 1 
0.000220529 -0.00054108 1 
0.000240199 -0.000565366 1 
0.000259703 -0.000587338 1 
0.000276715 -0.00060124 1 
0.000285058 -0.000607663 1 
0.000284072 -0.000601872 1 
0.000274484 -0.000577775 1 
0.000233353 -0.000572612 1 
0.00014656 -0.000570371 1 
3.72281e-05 -0.000573367 1 
-5.40237e-05 -0.000516366 1 
-0.000124305 -0.000412326 1 
-0.000165641 -0.000366093 1 
-0.000175482 -0.000553692 1 
-0.000226593 -0.00112341 1 
-0.000314899 -0.00208987 0.999998 
-0.000481614 -0.00351397 0.999994 
-0.000822117 -0.00568157 0.999984 
-0.00125679 -0.0083903 0.999964 
-0.0014564 -0.0111712 0.999937 
-0.00101927 -0.0133977 0.99991 
-0.00337705 -0.017791 0.999836 
-0.00224542 -0.0213539 0.99977 
-0.00281206 -0.0245659 0.999695 
-0.00312548 -0.0281314 0.9996 
-0.00610613 -0.0292409 0.999554 
-0.0115104 -0.0270736 0.999567 
-0.00965905 -0.0294731 0.999519 
-0.00558768 -0.0335825 0.999421 
-0.0070058 -0.0308919 0.999499 
-0.0101717 -0.0227482 0.999688 
0.000815757 0.00422247 -0.999988 
0.00386143 -0.00253168 -0.99999 
0.00590797 -0.00548713 -0.999968 
0.00728275 -0.00668079 -0.999952 
0.00566041 -0.00787364 -0.999953 
0.00517098 -0.00879527 -0.999948 
0.00561188 -0.00904738 -0.999944 
0.00304103 -0.00887304 -0.999956 
0.0022236 -0.00775952 -0.999968 
0.00215655 -0.00652274 -0.999977 
0.00123568 -0.00481496 -0.999988 
0.000908919 -0.00356293 -0.999994 
0.000395561 -0.0023532 -0.999998 
-4.68493e-05 -0.00164439 -0.999999 
-0.000382366 -0.00100777 -1 
-0.000522259 -0.000618636 -1 
-0.00056013 -0.0005092 -1 
-0.000497117 -0.000602915 -1 
-0.000407878 -0.000759235 -1 
-0.000314261 -0.000833246 -1 
-0.00024262 -0.000812265 -1 
-0.00021023 -0.000754651 -1 
-0.000220271 -0.000686739 -1 
-0.000244581 -0.000636954 -1 
-0.000265706 -0.000619087 -1 
-0.000267164 -0.000609191 -1 
-0.000259603 -0.000603022 -1 
-0.000250997 -0.000587417 -1 
-0.000238145 -0.000564954 -1 
-0.000213667 -0.000546866 -1 
-0.000184577 -0.00052746 -1 
-0.000155331 -0.000506008 -1 
-0.000114093 -0.000468084 -1 
-7.50158e-05 -0.00045661 -1 
-4.61458e-05 -0.000449665 -1 
-3.06713e-05 -0.00044621 -1 
-1.94402e-05 -0.000438773 -1 
-2.42138e-05 -0.000443127 -1 
-3.78238e-05 -0.000401951 -1 
1.51754e-05 -0.000373716 1 
5.1472e-06 -0.000421735 1 
4.2595e-06 -0.00043582 1 
2.26745e-05 -0.000451162 1 
4.28333e-05 -0.00046912 1 
7.39374e-05 -0.000476221 1 
0.000117083 -0.00049922 1 
0.000160251 -0.000527511 1 
0.000190647 -0.000544025 1 
0.000209529 -0.000557402 1 
0.000227605 -0.00056494 1 
0.000248614 -0.000572107 1 
0.000265739 -0.000577303 1 
0.000271776 -0.000583431 1 
0.000270766 -0.000572824 1 
0.000268767 -0.00052939 1 
0.000234753 -0.000489609 1 
0.000145008 -0.000462246 1 
3.34357e-05 -0.000442574 1 
-4.66051e-05 -0.000371118 1 
-8.88082e-05 -0.000285268 1 
-8.04981e-05 -0.000287928 1 
-2.0439e-05 -0.000527622 1 
-7.08081e-05 -0.00113078 1 
-0.000277639 -0.00218864 0.999998 
-0.000746974 -0.00376778 0.999993 
-0.00147545 -0.00603117 0.999981 
-0.00236866 -0.00881271 0.999959 
-0.00304647 -0.0115358 0.999929 
-0.00443106 -0.0150341 0.999878 
-0.0074888 -0.0189622 0.999792 
-0.00748385 -0.0216384 0.999738 
-0.00874987 -0.0241498 0.99967 
-0.0128054 -0.024723 0.999613 
-0.0165194 -0.0247528 0.999557 
-0.0202759 -0.0230654 0.999529 
-0.0153496 -0.025503 0.999557 
-0.0161536 -0.0247825 0.999563 
-0.010988 -0.0282042 0.999542 
-0.0110057 -0.0266182 0.999586 
0.00273246 0.000511553 -0.999996 
0.00470101 -0.00220063 -0.999987 
0.00778122 -0.00497771 -0.999958 
0.00962001 -0.00607027 -0.999936 
0.00964647 -0.00720492 -0.999928 
0.00767584 -0.0080968 -0.999938 
0.00722903 -0.00904205 -0.999933 
0.00442091 -0.00853494 -0.999954 
0.00549181 -0.00837932 -0.99995 
0.00352139 -0.00731986 -0.999967 
0.00203386 -0.00537728 -0.999984 
0.00119875 -0.00400269 -0.999992 
0.000475156 -0.00283077 -0.999996 
-0.000144974 -0.0018577 -0.999999 
-0.000483289 -0.00111195 -1 
-0.000617399 -0.000704819 -1 
-0.000659917 -0.000587708 -1 
-0.000580382 -0.000673127 -1 
-0.000430522 -0.000774515 -1 
-0.000296244 -0.000780483 -1 
-0.000221 -0.000727056 -1 
-0.000202039 -0.000666908 -1 
-0.000213646 -0.000615435 -1 
-0.000229904 -0.000589948 -1 
-0.000241511 -0.000576945 -1 
-0.000244017 -0.000569242 -1 
-0.000242432 -0.000571858 -1 
-0.000234124 -0.000564458 -1 
-0.000217227 -0.000555211 -1 
-0.000201862 -0.000554658 -1 
-0.000177591 -0.000557205 -1 
-0.000147838 -0.000537514 -1 
-0.000110628 -0.000495344 -1 
-7.10775e-05 -0.000477736 -1 
-4.44984e-05 -0.000466389 -1 
-2.43213e-05 -0.00045629 -1 
-6.29273e-06 -0.000443413 -1 
-4.39686e-06 -0.000433922 -1 
1.48416e-06 -0.000388426 -1 
-3.58159e-05 -0.000377697 1 
-1.94383e-05 -0.000424975 1 
-1.71921e-05 -0.000442206 1 
5.73079e-06 -0.000461526 1 
2.89096e-05 -0.000482193 1 
5.82825e-05 -0.000495866 1 
9.39123e-05 -0.000514523 1 
0.000134532 -0.000546779 1 
0.000165775 -0.000569752 1 
0.000182643 -0.00057121 1 
0.000197522 -0.000563939 1 
0.000218464 -0.000563294 1 
0.000237661 -0.000557875 1 
0.000244832 -0.000549996 1 
0.000245274 -0.000545592 1 
0.000252444 -0.000523645 1 
0.000244755 -0.000464722 1 
0.000189227 -0.000415166 1 
9.17522e-05 -0.000375428 1 
2.30322e-05 -0.000315803 1 
-1.82237e-05 -0.000220267 1 
-1.70618e-05 -0.000168142 1 
6.96728e-05 -0.000309423 1 
0.000152842 -0.000863127 1 
1.19287e-05 -0.00176567 0.999999 
-0.000546666 -0.00323017 0.999995 
-0.00172623 -0.00550054 0.999984 
-0.00316542 -0.00821095 0.999962 
-0.00455576 -0.0110913 0.999928 
-0.00663036 -0.0144329 0.999874 
-0.0100984 -0.0181311 0.999785 
-0.0125118 -0.02129 0.999695 
-0.0157468 -0.0224576 0.999624 
-0.017495 -0.0239902 0.999559 
-0.0205767 -0.022984 0.999524 
-0.0234555 -0.020561 0.999514 
-0.0204083 -0.0224247 0.999541 
-0.0189217 -0.0213611 0.999593 
-0.01572 -0.0240904 0.999587 
-0.0119583 -0.0177034 0.999773 
0.00246013 -0.00302335 -0.999991 
0.00736568 -0.00385852 -0.999966 
0.011045 -0.00629074 -0.99992 
0.011423 -0.00726595 -0.999909 
0.0111118 -0.00797395 -0.999907 
0.00930703 -0.00829564 -0.999923 
0.0104107 -0.00852058 -0.99991 
0.00766842 -0.00900709 -0.99993 
0.00816584 -0.00867283 -0.999929 
0.00521918 -0.00783361 -0.999956 
0.00359652 -0.00676406 -0.999971 
0.0022952 -0.00539444 -0.999983 
0.00111122 -0.00386866 -0.999992 
0.000198334 -0.00265902 -0.999997 
-0.000393644 -0.00162079 -0.999999 
-0.000641104 -0.000972763 -1 
-0.000735595 -0.00068748 -1 
-0.000679442 -0.000688995 -1 
-0.000519003 -0.000750926 -1 
-0.000338099 -0.000749639 -1 
-0.00022178 -0.000696388 -1 
-0.000182221 -0.000631906 -1 
-0.000188045 -0.000584186 -1 
-0.000197241 -0.000557454 -1 
-0.000204482 -0.000536946 -1 
-0.000212786 -0.000523214 -1 
-0.00022263 -0.0005384 -1 
-0.000216703 -0.000547071 -1 
-0.000194465 -0.000543967 -1 
-0.0001779 -0.000556489 -1 
-0.00015964 -0.000575753 -1 
-0.000134884 -0.000564957 -1 
-0.000102531 -0.000523267 -1 
-6.41684e-05 -0.000498976 -1 
-3.75547e-05 -0.000483178 -1 
-1.40389e-05 -0.000469188 -1 
8.33825e-06 -0.000456723 -1 
1.78225e-05 -0.000441864 -1 
3.72911e-05 -0.000402655 -1 
-6.79684e-05 -0.000409444 1 
-4.24538e-05 -0.000448158 1 
-2.11377e-05 -0.000465704 1 
4.63696e-06 -0.000487145 1 
3.52816e-05 -0.000507591 1 
6.57701e-05 -0.000526373 1 
0.000100382 -0.000553779 1 
0.00013358 -0.000584394 1 
0.00015164 -0.000590151 1 
0.000163095 -0.000573478 1 
0.000178829 -0.000565498 1 
0.000202195 -0.00056355 1 
0.000216491 -0.000540171 1 
0.000217218 -0.000513352 1 
0.000223187 -0.000508337 1 
0.000237411 -0.000488003 1 
0.000217258 -0.000425247 1 
0.00016221 -0.000364363 1 
0.000105998 -0.000313547 1 
6.19097e-05 -0.000246537 1 
2.40363e-05 -0.000140216 1 
6.263e-05 -0.000106147 1 
0.000213194 -0.000385073 1 
0.00029142 -0.00107298 1 
8.4073e-06 -0.00218738 0.999998 
-0.00110274 -0.00411146 0.999991 
-0.00295058 -0.00659049 0.999974 
-0.00507596 -0.00954359 0.999942 
-0.0076349 -0.0127061 0.999891 
-0.011278 -0.0162338 0.999805 
-0.0142671 -0.0188913 0.99972 
-0.0200029 -0.0211185 0.999577 
-0.0226652 -0.0205831 0.999531 
-0.023349 -0.0211534 0.999504 
-0.0243125 -0.0197224 0.99951 
-0.0232091 -0.0198503 0.999534 
-0.0220363 -0.0155301 0.999637 
-0.0175915 -0.0151246 0.999739 
-0.020307 -0.0186694 0.99962 
-0.0123831 -0.00910957 0.999891 
0.00746255 -0.0110859 -0.999906 
0.00898135 -0.00486091 -0.999948 
0.0118784 -0.0061278 -0.999911 
0.0142433 -0.00748887 -0.999871 
0.0144017 -0.0079286 -0.999865 
0.0132832 -0.00772424 -0.999882 
0.013178 -0.0083617 -0.999879 
0.0106243 -0.00877565 -0.999905 
0.0078279 -0.00843949 -0.999934 
0.00579687 -0.00781617 -0.999953 
0.00388481 -0.00667165 -0.999971 
0.00226598 -0.00505292 -0.999985 
0.000804525 -0.00355845 -0.999994 
-8.46486e-05 -0.00238294 -0.999998 
-0.000545578 -0.0014676 -0.999999 
-0.000754235 -0.000914069 -1 
-0.000760527 -0.000735507 -1 
-0.000609887 -0.0007451 -1 
-0.000426138 -0.000752314 -1 
-0.000276553 -0.000714754 -1 
-0.000188935 -0.000650875 -1 
-0.000163246 -0.000584564 -1 
-0.000166924 -0.000540603 -1 
-0.000166843 -0.000513519 -1 
-0.000172504 -0.00048854 -1 
-0.000192787 -0.000487301 -1 
-0.000205591 -0.000517725 -1 
-0.000193436 -0.000536652 -1 
-0.000165022 -0.000543976 -1 
-0.000152953 -0.00056762 -1 
-0.000137994 -0.000590253 -1 
-0.000115248 -0.000580205 -1 
-8.62315e-05 -0.000542367 -1 
-5.44544e-05 -0.000521282 -1 
-3.06427e-05 -0.000502034 -1 
-5.99644e-06 -0.000488348 -1 
1.75818e-05 -0.000477143 -1 
3.36241e-05 -0.000461957 -1 
5.75368e-05 -0.000429421 -1 
-7.71923e-05 -0.00045009 1 
-5.14521e-05 -0.000479221 1 
-3.11737e-05 -0.000485457 1 
-3.96224e-06 -0.000505467 1 
2.52777e-05 -0.000528301 1 
5.30085e-05 -0.000548146 1 
8.16978e-05 -0.000574732 1 
0.000109126 -0.000599753 1 
0.000124826 -0.000600699 1 
0.000132691 -0.000579043 1 
0.000142757 -0.000568341 1 
0.00016078 -0.000567017 1 
0.000173053 -0.000536724 1 
0.000173323 -0.00049131 1 
0.000182875 -0.000479858 1 
0.000208598 -0.000479119 1 
0.000201715 -0.000430642 1 
0.000160146 -0.000356827 1 
0.000122225 -0.000307138 1 
9.61119e-05 -0.000259242 1 
6.04278e-05 -0.000160512 1 
7.91117e-05 -5.49067e-05 1 
0.000222185 -0.000149668 1 
0.000356666 -0.000617749 1 
0.0002372 -0.00156337 0.999999 
-0.000486054 -0.00303279 0.999996 
-0.00230279 -0.00509603 0.999985 
-0.00478453 -0.0077205 0.999959 
-0.00729873 -0.0102593 0.999921 
-0.0106458 -0.0139124 0.999847 
-0.015328 -0.0170773 0.999737 
-0.0182193 -0.0190436 0.999653 
-0.0208955 -0.0186558 0.999608 
-0.0238432 -0.0199932 0.999516 
-0.0236199 -0.0174558 0.999569 
-0.0241589 -0.0183496 0.99954 
-0.0214087 -0.0181718 0.999606 
-0.0544834 -0.0206698 0.998301 
-0.04194 -0.0336007 0.998555 
-0.0277852 -0.0401665 0.99881 
0.0188531 -0.0126539 -0.999739 
0.0204508 -0.00846095 -0.999755 
0.0127585 -0.0107689 -0.999861 
0.0123976 -0.00826872 -0.99989 
0.0150252 -0.00880971 -0.999849 
0.014876 -0.00891302 -0.99985 
0.0145739 -0.00893722 -0.999854 
0.0126784 -0.00892797 -0.99988 
0.0099784 -0.0088827 -0.999911 
0.00746663 -0.00819582 -0.999939 
0.00513429 -0.00711138 -0.999962 
0.00320267 -0.00564002 -0.999979 
0.00144361 -0.00415442 -0.999991 
0.00015894 -0.00277359 -0.999997 
-0.000445419 -0.00174724 -0.999999 
-0.000748442 -0.00106419 -1 
-0.000769278 -0.000808329 -1 
-0.000584729 -0.00077914 -1 
-0.000382865 -0.000764784 -1 
-0.000243502 -0.000717681 -1 
-0.000163207 -0.000650562 -1 
-0.000128683 -0.000568652 -1 
-0.00012738 -0.000513774 -1 
-0.000126798 -0.000479745 -1 
-0.000131504 -0.000448366 -1 
-0.000156044 -0.000455 -1 
-0.000170352 -0.000494252 -1 
-0.000160473 -0.000521722 -1 
-0.000137228 -0.000531787 -1 
-0.000127086 -0.000564381 -1 
-0.000117341 -0.00059698 -1 
-9.74993e-05 -0.00059515 -1 
-7.40801e-05 -0.000566226 -1 
-4.79823e-05 -0.000548513 -1 
-2.56757e-05 -0.000526596 -1 
-1.4559e-06 -0.000512299 -1 
2.15044e-05 -0.000499798 -1 
3.99239e-05 -0.000485986 -1 
6.08307e-05 -0.000459058 -1 
-7.00776e-05 -0.000483438 1 
-4.61346e-05 -0.000508644 1 
-2.79871e-05 -0.000509787 1 
-4.27052e-06 -0.000531864 1 
2.27766e-05 -0.000554343 1 
4.90735e-05 -0.000575519 1 
7.40987e-05 -0.000599271 1 
9.59855e-05 -0.000615049 1 
0.000106699 -0.000603771 1 
0.000109899 -0.000579747 1 
0.00011305 -0.000566196 1 
0.000119263 -0.000557599 1 
0.000122193 -0.000518862 1 
0.000123975 -0.000467828 1 
0.000145722 -0.000457912 1 
0.000178082 -0.000461312 1 
0.000174781 -0.000422731 1 
0.000134939 -0.000358543 1 
0.000102709 -0.000304416 1 
9.2451e-05 -0.000256736 1 
8.14164e-05 -0.000155629 1 
0.000126464 -2.7398e-05 1 
0.000271558 -8.4566e-05 1 
0.00038369 -0.000529622 1 
0.000200953 -0.00144802 0.999999 
-0.000673649 -0.00293281 0.999996 