# vtk DataFile Version 3.0 
Exported using Morpho https://github.com/Morpho-lang/morpho 
ASCII 
DATASET UNSTRUCTURED_GRID 

POINTS 1978 float 
-12 -4 -9.89257e-15 
-11.6323 -4 -1.8472e-15 
-11.3506 -4 7.79866e-16 
-10.9893 -4 7.71104e-15 
-10.6671 -4 8.19535e-15 
-10.327 -4 1.31451e-15 
-10.0131 -4 9.67074e-15 
-9.67593 -4 1.02766e-14 
-9.33184 -4 5.5847e-15 
-9.01379 -4 1.94537e-14 
-8.70594 -4 -6.75127e-15 
-8.38699 -4 -1.10229e-14 
-8.0701 -4 -1.58242e-15 
-7.76698 -4 1.18018e-14 
-7.4744 -4 9.9241e-15 
-7.18943 -4 1.32247e-14 
-6.90965 -4 -6.43464e-15 
-6.60175 -4 -2.29338e-14 
-6.30903 -4 -4.04549e-14 
-6.00306 -4 -7.54994e-15 
-5.70589 -4 -2.35459e-14 
-5.40853 -4 4.06992e-16 
-5.11277 -4 1.24742e-14 
-4.81926 -4 -1.00444e-13 
-4.49992 -4 -1.4923e-13 
-4.19688 -4 -8.11287e-14 
-3.89221 -4 1.82572e-13 
-3.59313 -4 4.0036e-13 
-3.29543 -4 1.20361e-13 
-3.03374 -4 -2.87561e-13 
-2.70346 -4 -2.52833e-12 
-2.45727 -4 -3.65828e-12 
-2.26413 -4 -9.22622e-12 
-2.07563 -4 5.98194e-12 
-1.90393 -4 -3.90472e-12 
-1.71468 -4 9.47199e-12 
-1.49198 -4 1.18416e-11 
-1.26157 -4 8.63737e-11 
-0.976682 -4 -2.57936e-11 
-0.431734 -4 2.00354e-08 
0.521207 -4 -1.42779e-08 
1.02945 -4 -1.15307e-10 
1.37937 -4 -1.53836e-11 
1.7028 -4 -1.45808e-12 
1.90273 -4 -1.9712e-12 
2.09956 -4 -1.06083e-12 
2.31456 -4 -2.39885e-12 
2.62775 -4 8.52549e-13 
2.8718 -4 4.80946e-12 
3.12556 -4 5.4707e-13 
3.39325 -4 -1.35618e-12 
3.63119 -4 5.25673e-13 
3.89853 -4 8.29134e-13 
4.19438 -4 -2.31198e-14 
4.49761 -4 -1.96356e-13 
4.79828 -4 1.36201e-14 
5.10004 -4 -2.03634e-14 
5.40161 -4 -2.52839e-14 
5.71263 -4 -1.47519e-14 
6.002 -4 -1.64244e-14 
6.2854 -4 1.06483e-14 
6.57393 -4 4.87334e-14 
6.8738 -4 8.19281e-15 
7.16711 -4 -8.09481e-15 
7.46877 -4 5.92176e-15 
7.75897 -4 -1.04617e-14 
8.05876 -4 -1.03848e-14 
8.3646 -4 1.56882e-14 
8.67728 -4 -8.85659e-15 
8.96555 -4 -1.41876e-14 
9.30043 -4 -2.85021e-15 
9.62766 -4 -1.37818e-14 
9.93252 -4 -1.07412e-15 
10.3019 -4 -8.59692e-15 
10.6305 -4 -6.98861e-15 
11.0016 -4 -3.70581e-15 
11.3193 -4 -1.85946e-15 
11.6051 -4 8.29382e-16 
12 -4 9.57447e-15 
-12 -3.62113 1.17632e-14 
-11.7051 -3.69227 -1.69086e-20 
-11.3715 -3.60226 -1.64786e-15 
-11.0751 -3.68997 -1.90154e-15 
-10.7282 -3.65393 3.12992e-15 
-10.4021 -3.67647 4.04823e-15 
-10.0648 -3.65733 2.62533e-15 
-9.7433 -3.68596 -4.21751e-15 
-9.39622 -3.69158 -6.77635e-16 
-9.04998 -3.66774 7.154e-16 
-8.72976 -3.65676 1.98707e-20 
-8.41558 -3.66737 1.73424e-20 
-8.09509 -3.66795 -4.288e-15 
-7.77945 -3.65997 -5.71913e-20 
-7.47162 -3.64647 -2.68861e-20 
-7.18301 -3.64521 5.07512e-20 
-6.8707 -3.6792 3.56476e-20 
-6.56909 -3.66284 -2.32232e-20 
-6.2568 -3.67877 -4.71449e-20 
-5.95061 -3.67004 -5.36688e-20 
-5.64707 -3.67075 -7.29974e-16 
-5.34389 -3.66922 3.77864e-15 
-5.0437 -3.66746 9.70959e-20 
-4.71977 -3.69578 2.77599e-19 
-4.39796 -3.67798 3.99365e-19 
-4.07849 -3.68009 -4.76696e-20 
-3.75603 -3.67553 -5.64117e-19 
-3.44011 -3.68517 -7.44393e-19 
-3.14457 -3.66852 8.79473e-19 
-2.86371 -3.75459 4.46847e-20 
-2.69822 -3.48815 2.03364e-19 
-2.55684 -3.70027 -4.64388e-18 
-2.33513 -3.63259 -7.67661e-18 
-2.13937 -3.64551 3.00125e-20 
-1.94474 -3.66093 -1.67019e-17 
-1.7496 -3.58592 -9.64477e-18 
-1.52257 -3.6407 4.63567e-17 
-1.21414 -3.64972 -3.28355e-16 
-0.809666 -3.63277 1.84572e-16 
-0.219148 -3.51061 -1.03292e-17 
0.405355 -3.64453 -7.59153e-19 
1.0837 -3.59484 1.07614e-17 
1.4979 -3.67533 6.07004e-18 
1.79978 -3.5878 1.40862e-18 
2.03562 -3.65605 3.13562e-19 
2.27416 -3.68971 -2.02046e-20 
2.40731 -3.47578 5.4001e-15 
2.55792 -3.79338 7.25062e-18 
2.93492 -3.7473 -8.76152e-18 
3.00932 -3.50863 1.69632e-19 
3.26335 -3.71368 -4.55e-19 
3.55082 -3.64664 -1.57424e-19 
3.84682 -3.67818 -1.41567e-19 
4.16255 -3.68522 4.28916e-19 
4.48934 -3.66393 9.55088e-20 
4.80744 -3.67442 -1.50683e-19 
5.12074 -3.6709 -2.0989e-20 
5.43869 -3.67978 6.50869e-20 
5.73869 -3.65828 5.40088e-20 
6.03193 -3.65494 5.96999e-20 
6.32842 -3.66209 4.77863e-20 
6.63244 -3.67333 -4.36107e-20 
6.93163 -3.66186 -6.02033e-20 
7.23101 -3.66516 -3.08447e-20 
7.52726 -3.64982 -1.01061e-15 
7.82613 -3.65541 4.38097e-20 
8.13374 -3.65952 2.93801e-20 
8.44033 -3.6619 -1.46593e-20 
8.73947 -3.63661 -1.0514e-15 
9.06189 -3.68663 -5.23795e-15 
9.39119 -3.67738 -5.52393e-16 
9.70515 -3.6511 3.39455e-15 
10.0519 -3.70937 -8.58793e-16 
10.3927 -3.67084 -5.32716e-15 
10.749 -3.70536 -2.4174e-15 
11.0785 -3.65271 5.0399e-16 
11.3753 -3.61078 2.12725e-15 
11.7177 -3.71733 1.81113e-20 
12 -3.60886 -1.36591e-14 
-12 -3.30895 9.87367e-15 
-11.6461 -3.33629 6.45424e-16 
-11.2995 -3.26499 -2.84571e-17 
-10.9868 -3.34941 8.46362e-18 
-10.6579 -3.31465 -7.52647e-17 
-10.3335 -3.34577 6.74898e-17 
-10.0069 -3.32394 -1.38398e-16 
-9.69787 -3.34113 -5.14577e-17 
-9.39384 -3.38166 -2.44075e-17 
-9.0852 -3.32831 2.84518e-16 
-8.77425 -3.32274 -7.80386e-17 
-8.45774 -3.32738 1.7471e-16 
-8.14534 -3.33627 -8.29797e-17 
-7.83109 -3.32833 -5.76396e-16 
-7.52091 -3.31438 1.02061e-15 
-7.21853 -3.29523 9.36583e-16 
-6.92443 -3.35222 -7.48405e-16 
-6.62193 -3.33172 4.1419e-16 
-6.31828 -3.35407 -7.67675e-17 
-6.01538 -3.34502 9.09748e-17 
-5.71403 -3.34158 -3.37407e-17 
-5.41711 -3.34131 1.89935e-16 
-5.11977 -3.33379 -3.98448e-16 
-4.81657 -3.3786 1.31919e-16 
-4.50777 -3.36955 1.51794e-15 
-4.18923 -3.35912 -7.05811e-16 
-3.876 -3.36319 -7.86436e-15 
-3.55288 -3.36484 -5.3156e-20 
-3.25432 -3.35767 -3.51843e-19 
-2.96311 -3.401 8.94439e-21 
-2.68082 -3.18988 -2.50482e-18 
-2.43743 -3.31773 3.44584e-18 
-2.22736 -3.27207 -5.6324e-18 
-2.02289 -3.32821 -4.8852e-18 
-1.80336 -3.2582 9.2545e-18 
-1.68227 -2.99356 6.32849e-18 
-1.53214 -3.30569 -5.23666e-17 
-1.23873 -3.29556 6.7508e-17 
-0.781863 -3.26644 -1.77785e-17 
-0.281283 -3.01812 4.82603e-14 
0.416758 -3.1279 3.68181e-14 
1.00394 -3.27196 2.63112e-18 
1.5142 -3.32195 1.12746e-18 
1.57596 -3.00472 -1.83676e-18 
1.87232 -3.25634 -2.87601e-19 
2.11544 -3.33287 -5.97126e-20 
2.33264 -3.19352 -9.4041e-19 
2.64135 -3.28275 1.03082e-19 
2.69031 -3.56631 -1.06544e-15 
2.91953 -3.27188 -3.15533e-20 
3.2786 -3.39534 4.07268e-19 
3.57753 -3.32978 -2.2978e-19 
3.87169 -3.36893 1.85671e-19 
4.16787 -3.35555 -1.5123e-19 
4.47025 -3.35285 3.66337e-20 
4.78587 -3.35039 -3.14136e-20 
5.09296 -3.34442 8.37471e-16 
5.40024 -3.35821 4.97442e-17 
5.70646 -3.32623 -5.60813e-16 
6.00792 -3.31692 -1.44484e-16 
6.30369 -3.32918 -3.14374e-17 
6.60513 -3.34631 1.08845e-16 
6.90805 -3.32978 -1.36212e-16 
7.21 -3.32628 -9.14245e-17 
7.51596 -3.3184 -1.05974e-16 
7.82458 -3.31297 4.77664e-16 
8.12821 -3.32239 -3.17892e-16 
8.4391 -3.31477 -2.96184e-16 
8.76091 -3.30904 1.13941e-16 
9.08136 -3.36333 1.95543e-16 
9.39849 -3.34074 -4.54705e-16 
9.71733 -3.3116 5.2746e-17 
10.0272 -3.39518 -8.76747e-17 
10.3216 -3.32108 3.09952e-16 
10.6448 -3.38739 -1.05408e-16 
10.9703 -3.33538 2.94826e-17 
11.2913 -3.25526 2.07496e-18 
11.6326 -3.36225 -5.4582e-16 
12 -3.3068 -9.17318e-15 
-12 -2.99756 5.60842e-15 
-11.6465 -3.01946 1.28743e-16 
-11.2953 -2.94769 -2.11667e-16 
-10.9498 -3.00745 1.81294e-15 
-10.6185 -2.98158 -1.62146e-15 
-10.2997 -3.01014 -3.63749e-16 
-9.98778 -2.97836 2.31894e-16 
-9.67474 -3.00103 5.3609e-17 
-9.36748 -3.03337 -2.34426e-16 
-9.05611 -2.98648 1.5675e-16 
-8.73968 -2.98918 1.58344e-16 
-8.42483 -2.99331 -1.8944e-16 
-8.11112 -3.00324 1.04832e-16 
-7.79939 -2.99641 -1.12107e-16 
-7.49585 -2.97753 6.49456e-17 
-7.19309 -2.96296 1.93332e-16 
-6.89796 -3.0191 -8.0327e-17 
-6.59348 -3.00499 2.447e-16 
-6.29358 -3.02685 -4.15893e-17 
-5.99271 -3.01845 -2.96454e-16 
-5.69669 -3.01103 -3.45329e-17 
-5.4 -3.01161 -2.04342e-16 
-5.09295 -3.01701 1.36529e-15 
-4.78318 -3.05736 6.62603e-16 
-4.46716 -3.05308 1.34762e-15 
-4.15128 -3.03667 -4.02059e-15 
-3.82172 -3.05663 -1.83592e-20 
-3.50679 -3.04013 2.78611e-20 
-3.2066 -3.03162 2.98719e-20 
-2.94551 -3.08406 -9.32908e-19 
-2.70299 -2.87069 -5.11955e-20 
-2.4564 -2.9817 -1.85087e-18 
-2.21496 -2.96004 2.34076e-18 
-1.98237 -2.98119 -8.82356e-18 
-1.85331 -2.76111 1.1162e-17 
-1.83451 -2.50796 -8.30873e-18 
-1.54103 -2.66915 2.53126e-18 
-1.40277 -2.97219 4.80056e-18 
-1.03559 -2.95065 -5.06854e-18 
-0.173844 -2.5033 -1.2902e-17 
0.404317 -2.66914 1.08571e-17 
1.0728 -2.91356 1.32131e-18 
1.47176 -2.66157 3.46951e-19 
1.78486 -2.55074 -1.40156e-19 
1.88024 -2.87216 -1.37687e-20 
2.10935 -2.96577 7.9923e-19 
2.28362 -2.77604 -9.93155e-19 
2.47603 -2.99618 9.08065e-19 
2.74732 -2.98597 -2.40219e-19 
3.03446 -2.98496 7.68765e-20 
3.25414 -3.13295 -1.33333e-19 
3.5007 -3.00819 9.58246e-20 
3.81815 -3.05761 -1.02551e-19 
4.13121 -3.03261 1.25771e-19 
4.44468 -3.03062 -3.6174e-20 
4.76343 -3.02951 3.18295e-20 
5.07642 -3.01745 -6.95579e-17 
5.38477 -3.03183 -4.35185e-16 
5.69096 -3.00128 1.15154e-16 
5.99579 -2.99057 1.6885e-16 
6.29971 -2.996 3.34329e-17 
6.59694 -3.01858 -2.36783e-16 
6.90059 -3.0032 1.03095e-16 
7.20457 -2.99509 -1.20156e-17 
7.51111 -2.98952 -3.4777e-16 
7.81672 -2.97847 1.47339e-16 
8.1214 -2.98468 5.39886e-17 
8.4298 -2.98012 9.54937e-18 
8.74329 -2.98153 -1.15698e-16 
9.06717 -3.0307 3.92041e-17 
9.38887 -3.01143 1.09991e-16 
9.68386 -2.95957 -4.87276e-17 
9.99709 -3.03855 -2.20674e-17 
10.3187 -2.9855 -4.33052e-18 
10.6421 -3.05067 -7.03403e-17 
10.9673 -2.99647 4.35269e-17 
11.3171 -2.93849 -2.03647e-17 
11.6566 -3.04942 2.67817e-17 
12 -2.98435 -4.74307e-15 
-12 -2.69229 -1.73858e-15 
-11.6472 -2.70789 9.27397e-17 
-11.3303 -2.61555 1.66517e-16 
-10.991 -2.68308 -1.63071e-15 
-10.656 -2.65619 1.57819e-15 
-10.3223 -2.66881 3.3514e-16 
-9.99129 -2.65659 -1.24012e-16 
-9.66132 -2.66657 6.96776e-18 
-9.34434 -2.6905 -1.36184e-16 
-9.02084 -2.65699 6.18384e-18 
-8.70063 -2.66067 -6.97116e-17 
-8.38085 -2.66727 9.00712e-17 
-8.0686 -2.67334 -1.54732e-17 
-7.76145 -2.66276 -4.43785e-17 
-7.45449 -2.64751 -1.5754e-16 
-7.14692 -2.63829 -1.62367e-16 
-6.85187 -2.69257 9.65966e-17 
-6.54789 -2.68091 -1.06537e-16 
-6.25241 -2.70084 5.02392e-17 
-5.95891 -2.68827 1.46841e-18 
-5.66446 -2.68306 -5.14281e-18 
[...]
POINT_DATA 1978 
VECTORS vectors float
1.28195e-05 -0.00039992 1 
-1.12346e-05 -0.000524368 1 
-1.40774e-05 -0.000482624 1 
-2.19199e-05 -0.000440079 1 
-1.56646e-06 -0.000421789 1 
2.03355e-05 -0.000422638 1 
3.22091e-05 -0.000434971 1 
3.1633e-05 -0.000449534 1 
3.0436e-05 -0.000473485 1 
5.09593e-05 -0.00050986 1 
8.98816e-05 -0.000557896 1 
0.000103555 -0.000621246 1 
5.80685e-05 -0.000683414 1 
-8.79555e-06 -0.000722547 1 
-3.62234e-05 -0.000747553 1 
-9.03905e-06 -0.000767925 1 
5.04641e-05 -0.000802511 1 
9.10838e-05 -0.000848158 1 
5.25378e-05 -0.000889211 1 
-3.58834e-05 -0.000915071 0.999999 
-0.000159949 -0.000841453 1 
-0.000221275 -0.000680326 1 
-0.000122373 -0.000580562 1 
0.000315671 -0.000699187 1 
0.000965152 -0.00130468 0.999999 
0.00129767 -0.00231513 0.999996 
0.000816382 -0.00360132 0.999993 
0.000191636 -0.00497112 0.999988 
2.7751e-05 -0.00625913 0.99998 
0.00126857 -0.00695593 0.999975 
0.00157873 -0.00879791 0.99996 
0.000482682 -0.0137471 0.999905 
-0.000343344 -0.0211582 0.999776 
-0.000732896 -0.0318814 0.99949 
-0.000987511 -0.0432652 0.999062 
-0.000203749 -0.052837 0.998602 
-0.00123691 -0.0602392 0.998183 
-0.000947588 -0.0567187 0.99839 
-0.00462118 -0.0477279 0.99885 
-0.00628671 -0.0351266 0.999363 
-0.00582632 0.00340579 -0.999974 
0.00129913 -0.00140097 -0.999997 
0.00397485 -0.00634281 -0.999971 
0.0021316 -0.012899 -0.999914 
0.000142642 -0.0154266 -0.999881 
-0.00113592 -0.0162443 -0.999867 
-0.00352206 -0.0143807 -0.99989 
-0.00374571 -0.00763083 -0.999963 
-0.0021579 -0.00370858 -0.999991 
-0.00108355 -0.000699057 -0.999999 
-0.000422123 0.000406756 -1 
0.000117814 0.000423235 -1 
0.000280457 -0.000156691 -1 
7.078e-05 -0.00060661 -1 
-0.000201717 -0.00051227 -1 
-0.000189983 -0.000265023 -1 
6.23991e-05 -0.000357851 -1 
0.000261282 -0.000668914 -1 
0.000203486 -0.000933841 -1 
1.62002e-05 -0.00105073 -0.999999 
-0.000115386 -0.00104901 -0.999999 
-0.000169862 -0.000958625 -0.999999 
-0.000134403 -0.000862537 -1 
-4.75543e-05 -0.00080004 -1 
2.42997e-05 -0.000757787 -1 
2.29872e-05 -0.000743179 -1 
-2.59962e-05 -0.000716162 -1 
-8.09886e-05 -0.000657765 -1 
-8.90068e-05 -0.000594111 -1 
-6.94336e-05 -0.000543295 -1 
-4.71292e-05 -0.000489495 -1 
-3.36023e-05 -0.000458696 -1 
-3.55309e-05 -0.000438293 -1 
-2.70085e-05 -0.000424046 -1 
3.2193e-07 -0.000423275 -1 
1.96914e-05 -0.00044517 -1 
9.87421e-06 -0.000481897 -1 
9.39623e-06 -0.000523341 -1 
-1.24132e-05 -0.000395314 -1 
7.19279e-05 -0.00020953 1 
3.3123e-05 -0.000493571 1 
2.28607e-05 -0.000454081 1 
1.59028e-05 -0.000437205 1 
1.83469e-05 -0.000420254 1 
2.55737e-05 -0.000417996 1 
4.00299e-05 -0.000425096 1 
4.5621e-05 -0.000437443 1 
5.43291e-05 -0.000465739 1 
7.47227e-05 -0.000502552 1 
9.70133e-05 -0.000549672 1 
0.000107678 -0.000596946 1 
0.000109421 -0.000636189 1 
0.000103629 -0.000659376 1 
0.000102155 -0.000681875 1 
9.89698e-05 -0.000709745 1 
7.37421e-05 -0.000757632 1 
4.80297e-05 -0.000787846 1 
1.58822e-05 -0.000809002 1 
-1.07711e-05 -0.000776588 1 
-3.57315e-05 -0.00068451 1 
-6.65155e-05 -0.000600163 1 
-9.80524e-05 -0.000680943 1 
-6.10769e-05 -0.00106843 0.999999 
6.8995e-05 -0.00186505 0.999998 
0.000177949 -0.00298291 0.999996 
-2.00999e-06 -0.00447161 0.99999 
-0.000246829 -0.00614368 0.999981 
7.80458e-05 -0.0077096 0.99997 
0.00103861 -0.009152 0.999958 
0.00251467 -0.0143548 0.999894 
0.0032328 -0.0160247 0.999866 
0.00428909 -0.0235059 0.999715 
0.00439259 -0.0305745 0.999523 
0.00408472 -0.037752 0.999279 
0.00316283 -0.0435843 0.999045 
0.00185155 -0.0488875 0.998803 
0.000885045 -0.0469063 0.998899 
0.000313804 -0.040349 0.999186 
-0.000691418 -0.0304608 0.999536 
3.20859e-05 0.00397432 -0.999992 
0.00050384 -0.00165715 -0.999999 
0.00094863 -0.00756647 -0.999971 
0.00201049 -0.0104586 -0.999943 
0.00166628 -0.0122839 -0.999923 
0.00116762 -0.0121648 -0.999925 
0.00127064 -0.0100303 -0.999949 
0.000693724 -0.00965092 -0.999953 
0.000398464 -0.00446138 -0.99999 
0.000288001 -0.00353376 -0.999994 
-0.000166449 -0.00124289 -0.999999 
-0.0001863 -0.00073604 -0.999999 
-7.24761e-05 -0.000699281 -1 
-5.09173e-05 -0.000765669 -1 
-0.000131923 -0.000567795 -1 
-0.000187799 -0.000377345 -1 
-0.000189307 -0.000431349 -1 
-0.000168556 -0.000651204 -1 
-0.000165409 -0.000837153 -1 
-0.000145596 -0.000933881 -0.999999 
-0.000119396 -0.000945399 -1 
-9.99387e-05 -0.0008935 -1 
-9.57077e-05 -0.000819638 -1 
-9.20717e-05 -0.000756346 -1 
-9.84674e-05 -0.000700859 -1 
-9.92473e-05 -0.000676114 -1 
-0.00010309 -0.000652132 -1 
-0.000103583 -0.000618545 -1 
-0.000105948 -0.000570699 -1 
-7.32047e-05 -0.000524413 -1 
-5.79291e-05 -0.00047745 -1 
-5.2429e-05 -0.000446233 -1 
-3.23084e-05 -0.00042742 -1 
-2.38907e-05 -0.000417495 -1 
-1.49121e-05 -0.000423297 -1 
-1.7295e-05 -0.000438474 -1 
-2.3138e-05 -0.000460281 -1 
-3.24085e-05 -0.000500079 -1 
-7.2947e-05 -0.000206694 -1 
6.89896e-05 -0.000209265 1 
3.5369e-05 -0.000449415 1 
2.39484e-05 -0.000434299 1 
2.56799e-05 -0.000428186 1 
3.82287e-05 -0.000428684 1 
5.9664e-05 -0.000430996 1 
9.39814e-05 -0.000440618 1 
0.000121446 -0.000456959 1 
0.000137044 -0.000478534 1 
0.000172434 -0.000514961 1 
0.000196042 -0.000549936 1 
0.000214127 -0.000584744 1 
0.000223676 -0.000608976 1 
0.000227219 -0.000620987 1 
0.000228651 -0.000627285 1 
0.000221698 -0.000632074 1 
0.000173322 -0.000666407 1 
0.000112547 -0.000679581 1 
3.52792e-05 -0.000695202 1 
-2.85561e-05 -0.000649454 1 
-8.72502e-05 -0.000554512 1 
-0.000140765 -0.000496703 1 
-0.000190001 -0.000620516 1 
-0.000215773 -0.0010569 0.999999 
-0.000178897 -0.00182372 0.999998 
-0.000123089 -0.00297594 0.999996 
-0.000243656 -0.00458783 0.999989 
-0.000459141 -0.00667292 0.999978 
-0.00027986 -0.00872068 0.999962 
0.00072188 -0.0108691 0.999941 
0.000638921 -0.0169671 0.999856 
0.00302313 -0.0222255 0.999749 
0.00330171 -0.0269537 0.999631 
0.00319207 -0.0313753 0.999503 
0.00166257 -0.0348617 0.999391 
-0.00305268 -0.0332723 0.999442 
0.00120895 -0.0403461 0.999185 
-0.0011336 -0.0392507 0.999229 
-0.00249477 -0.0340108 0.999418 
-0.00569581 -0.0261291 0.999643 
-0.000247962 0.00557632 -0.999985 
0.00176854 -0.00140635 -0.999997 
0.00295487 -0.00703577 -0.999971 
0.00464884 -0.0066642 -0.999967 
0.00356002 -0.00917363 -0.999952 
0.00259674 -0.0100926 -0.999946 
0.00255334 -0.00938087 -0.999953 
0.00136228 -0.00817403 -0.999966 
0.000851367 -0.00740511 -0.999972 
0.000898097 -0.00573059 -0.999983 
0.000414937 -0.00322892 -0.999995 
0.000252388 -0.00216533 -0.999998 
0.000113212 -0.00149617 -0.999999 
-5.61153e-05 -0.00115458 -0.999999 
-0.000258193 -0.000769469 -1 
-0.000373704 -0.000504103 -1 
-0.000395284 -0.000463991 -1 
-0.000355046 -0.000597564 -1 
-0.000315364 -0.000759698 -1 
-0.000260972 -0.000853433 -1 
-0.000208167 -0.000869015 -1 
-0.000177955 -0.000831087 -1 
-0.000181872 -0.000755398 -1 
-0.000200068 -0.00069544 -1 
-0.00021694 -0.000653576 -1 
-0.000219418 -0.000633604 -1 
-0.000214183 -0.000619277 -1 
-0.000208514 -0.000594973 -1 
-0.000199459 -0.000565685 -1 
-0.000162155 -0.000526932 -1 
-0.000140144 -0.00049285 -1 
-0.000118177 -0.000464227 -1 
-7.89306e-05 -0.000437405 -1 
-6.0972e-05 -0.000431816 -1 
-3.54624e-05 -0.000429488 -1 
-2.74627e-05 -0.00043228 -1 
-2.55148e-05 -0.000437153 -1 
-3.48483e-05 -0.00045415 -1 
-6.55567e-05 -0.000207686 -1 
4.93171e-05 -0.000190741 1 
2.50332e-05 -0.000423692 1 
1.83179e-05 -0.000428213 1 
2.90536e-05 -0.000433238 1 
4.80733e-05 -0.000445115 1 
7.81e-05 -0.000452563 1 
0.000117969 -0.000465757 1 
0.000157491 -0.000488853 1 
0.000185521 -0.000507398 1 
0.000211098 -0.000533315 1 
0.000231239 -0.000556343 1 
0.00025014 -0.00057712 1 
0.000265264 -0.000591244 1 
0.00027284 -0.000597266 1 
0.00027261 -0.000591892 1 
0.000261654 -0.000572647 1 
0.000218341 -0.000570283 1 
0.000138828 -0.000563757 1 
3.96863e-05 -0.00056075 1 
-4.61118e-05 -0.000504132 1 
-0.000110226 -0.000417336 1 
-0.000147604 -0.000396901 1 
-0.000163987 -0.000600236 1 
-0.000211707 -0.00115716 0.999999 
-0.000300247 -0.00212056 0.999998 
-0.000496124 -0.00356255 0.999994 
-0.00083903 -0.00566596 0.999984 
-0.00126308 -0.00823036 0.999965 
-0.00148213 -0.0109826 0.999939 
-0.00102149 -0.0133673 0.99991 
-0.00332382 -0.017542 0.999841 
-0.00215471 -0.0211047 0.999775 
-0.00297301 -0.0244567 0.999696 
-0.00261109 -0.0282499 0.999597 
-0.00635216 -0.0285481 0.999572 
-0.0112341 -0.026601 0.999583 
-0.00938246 -0.0289557 0.999537 
-0.00528846 -0.0331037 0.999438 
-0.0066876 -0.0307531 0.999505 
-0.00969979 -0.0216475 0.999719 
0.000641677 0.00404693 -0.999992 
0.00349738 -0.00224155 -0.999991 
0.00590243 -0.00543509 -0.999968 
0.00728082 -0.00669232 -0.999951 
0.00554865 -0.0077374 -0.999955 
0.00490721 -0.00867214 -0.99995 
0.00546555 -0.00881906 -0.999946 
0.00314646 -0.00872691 -0.999957 
0.00232574 -0.00764156 -0.999968 
0.00203665 -0.00630725 -0.999978 
0.00121298 -0.00463842 -0.999988 
0.000923958 -0.00358311 -0.999993 
0.000388489 -0.00234916 -0.999997 
-2.05155e-05 -0.00164189 -0.999999 
-0.000338921 -0.00103592 -0.999999 
-0.000493652 -0.000652123 -1 
-0.000534016 -0.000534577 -1 
-0.000480199 -0.000606006 -1 
-0.000401353 -0.000740771 -1 
-0.000309631 -0.000808085 -1 
-0.000240263 -0.000795308 -0.999999 
-0.000208528 -0.000745028 -1 
-0.000214873 -0.000683163 -1 
-0.000234274 -0.000634025 -1 
-0.000252805 -0.000612955 -1 
-0.000255497 -0.000600074 -1 
-0.00024995 -0.000592766 -1 
-0.00024136 -0.000577813 -1 
-0.000227497 -0.000556621 -1 
-0.000203203 -0.000538426 -1 
-0.000175821 -0.000518255 -1 
-0.000148172 -0.00049808 -1 
-0.000108968 -0.000463759 -1 
-7.37498e-05 -0.000451737 -1 
-4.57978e-05 -0.000442898 -1 
-3.01895e-05 -0.000439926 -1 
-1.95031e-05 -0.000434429 -1 
-2.50401e-05 -0.000430258 -1 
-3.80206e-05 -0.000179771 -1 
1.55086e-05 -0.000153575 1 
6.18401e-06 -0.000410782 1 
5.16385e-06 -0.000431986 1 
2.25149e-05 -0.000444911 1 
4.32409e-05 -0.000461277 1 
7.42518e-05 -0.000470827 1 
0.000115199 -0.00049384 1 
0.000155503 -0.000518508 1 
0.000184834 -0.000533955 1 
0.000205007 -0.000548724 1 
0.000223602 -0.00055705 1 
0.000243463 -0.000564593 1 
0.000259057 -0.000569699 1 
0.000265383 -0.000571942 1 
0.00026529 -0.000559923 1 
0.000259186 -0.00052394 1 
0.000221207 -0.000490337 1 
0.000139087 -0.00046089 1 
3.93226e-05 -0.000435907 1 
-3.63361e-05 -0.000368742 1 
-7.69902e-05 -0.000296987 1 
-7.25937e-05 -0.000320736 1 
-3.27347e-05 -0.000575381 1 
-9.38972e-05 -0.00117043 0.999999 
-0.000297238 -0.00221608 0.999998 
-0.000756149 -0.00376894 0.999993 
-0.00144794 -0.00593605 0.999981 
-0.00231547 -0.00858764 0.99996 
-0.00310749 -0.0113995 0.99993 
-0.00431051 -0.0147627 0.999882 
-0.00727941 -0.0184698 0.999803 
-0.00726843 -0.02137 0.999745 
-0.00851129 -0.0240692 0.999674 
-0.012659 -0.024162 0.999628 
-0.0161206 -0.0244839 0.99957 
-0.019597 -0.0227916 0.999548 
-0.0148162 -0.0253765 0.999568 
-0.0158784 -0.0243909 0.999576 
-0.0107617 -0.0277688 0.999556 
-0.0103873 -0.0261213 0.999605 
0.00225918 0.000743287 -0.999997 
0.00459836 -0.00208953 -0.999987 
0.00764597 -0.00483697 -0.999959 
0.00924825 -0.00614831 -0.999938 
0.00945182 -0.00725793 -0.999929 
0.00742713 -0.00792287 -0.999941 
0.00693573 -0.00875592 -0.999938 
0.00443899 -0.00836033 -0.999955 
0.00538543 -0.00821059 -0.999952 
0.00339141 -0.0071657 -0.999969 
0.00210269 -0.00538529 -0.999983 
0.00120337 -0.00393652 -0.999992 
0.000485578 -0.00278557 -0.999996 
-9.67745e-05 -0.00186397 -0.999998 
-0.000446122 -0.00113761 -0.999999 
-0.000594373 -0.000736061 -1 
-0.000629563 -0.000609922 -1 
-0.000557341 -0.000665913 -1 
-0.000425498 -0.000750563 -1 
-0.000300309 -0.000762925 -1 
-0.000225525 -0.000718662 -1 
-0.000202614 -0.000663786 -1 
-0.000209724 -0.000613058 -1 
-0.000224516 -0.000584411 -1 
-0.000235793 -0.000569678 -1 
-0.000238748 -0.000561591 -1 
-0.000237531 -0.000562414 -1 
-0.000228946 -0.000556442 -1 
-0.000212957 -0.000549713 -1 
-0.000197176 -0.000546416 -1 
-0.000173284 -0.000545286 -1 
-0.000143612 -0.000527156 -1 
-0.000108216 -0.000490198 -1 
-7.11378e-05 -0.000472779 -1 
-4.45374e-05 -0.000459266 -1 
-2.40902e-05 -0.000449787 -1 
-6.98803e-06 -0.000438779 -1 
-5.39722e-06 -0.000421053 -1 
1.02888e-06 -0.000170222 -1 
-3.56632e-05 -0.000149743 1 
-1.85302e-05 -0.000407472 1 
-1.5056e-05 -0.000437175 1 
6.64705e-06 -0.000455409 1 
2.91816e-05 -0.00047419 1 
5.84804e-05 -0.000489487 1 
9.29048e-05 -0.000509124 1 
0.000131016 -0.000537533 1 
0.000161097 -0.00055742 1 
0.000179024 -0.000560957 1 
0.000194804 -0.00055699 1 
0.000214793 -0.00055581 1 
0.000232327 -0.000550996 1 
0.000240261 -0.000543514 1 
0.00024265 -0.000535676 1 
0.000246701 -0.000512364 1 
0.000233252 -0.000461348 1 
0.000181233 -0.000415568 1 
9.52193e-05 -0.000371527 1 
2.82702e-05 -0.000312534 1 
-1.24048e-05 -0.000229662 1 
-6.97561e-06 -0.000198418 1 
6.56045e-05 -0.000357581 1 
0.000112082 -0.000908003 0.999999 
-5.19096e-05 -0.00179855 0.999998 
-0.000602549 -0.00324647 0.999995 
-0.00170767 -0.00544156 0.999984 
-0.00307865 -0.00803395 0.999963 
-0.00451613 -0.0109355 0.99993 
-0.00656378 -0.0142835 0.999877 
-0.00997069 -0.0177869 0.999792 
-0.0118355 -0.0209953 0.99971 
-0.0154001 -0.0218107 0.999644 
-0.0171455 -0.0233927 0.999579 
-0.0201507 -0.022459 0.999545 
-0.0228831 -0.020423 0.999529 
-0.019964 -0.0220424 0.999558 
-0.0180022 -0.0209119 0.999619 
-0.0147461 -0.0235562 0.999614 
-0.011455 -0.0175081 0.999782 
0.00205917 -0.00296959 -0.999994 
0.00693776 -0.00349363 -0.99997 
0.0106274 -0.00608606 -0.999925 
0.0111857 -0.00715565 -0.999912 
0.0110768 -0.00792018 -0.999907 
0.00906853 -0.0081363 -0.999926 
0.0101444 -0.00838933 -0.999913 
0.0075363 -0.00872559 -0.999933 
0.00807479 -0.0085216 -0.999931 
0.00529013 -0.00774747 -0.999956 
0.00358664 -0.00667766 -0.999971 
0.00225755 -0.00523653 -0.999984 
0.00111717 -0.00379817 -0.999992 
0.000249787 -0.00264436 -0.999997 
-0.000344214 -0.00163429 -0.999999 
-0.000608598 -0.00100621 -0.999999 
-0.000700477 -0.000717365 -1 
-0.00064699 -0.000688794 -1 
-0.000502813 -0.000732822 -1 
-0.000338442 -0.000734822 -1 
-0.000229285 -0.000688156 -1 
-0.000186924 -0.000628275 -1 
-0.000186079 -0.000580813 -1 
-0.000194066 -0.000550941 -1 
-0.000202299 -0.000531149 -1 
-0.000210063 -0.000520138 -1 
-0.000217611 -0.000530891 -1 
-0.000211786 -0.000538835 -1 
-0.000191549 -0.000539073 -1 
-0.00017581 -0.000549009 -1 
-0.000156351 -0.000562372 -1 
-0.000131194 -0.000552837 -1 
-0.000100744 -0.00051698 -1 
-6.42942e-05 -0.000493597 -1 
-3.75716e-05 -0.000476081 -1 
-1.42879e-05 -0.00046284 -1 
7.03279e-06 -0.00045168 -1 
1.65241e-05 -0.000427867 -1 
3.64299e-05 -0.000178912 -1 
-6.7136e-05 -0.000182326 1 
-4.06563e-05 -0.000434471 1 
-1.89926e-05 -0.000460513 1 
5.43743e-06 -0.000480452 1 
3.47686e-05 -0.000500264 1 
6.4844e-05 -0.000520379 1 
9.81875e-05 -0.000545882 1 
0.000129258 -0.000571712 1 
0.000147768 -0.000577697 1 
0.000161013 -0.000566008 1 
0.000176428 -0.000558255 1 
0.000196601 -0.000552762 1 
0.000209472 -0.000532587 1 
0.000212935 -0.000510074 1 
0.000219503 -0.000499751 1 
0.000228334 -0.00047573 1 
0.00020726 -0.000419966 1 
0.000157431 -0.000363897 1 
0.000102718 -0.000309591 1 
5.83769e-05 -0.000241624 1 
3.25947e-05 -0.000153479 1 
7.6073e-05 -0.000148594 1 
0.000194559 -0.000440049 1 
0.000223547 -0.00112003 0.999999 
-9.94145e-05 -0.00222344 0.999998 
-0.00118293 -0.00412181 0.999991 
-0.002905 -0.00649368 0.999975 
-0.00500365 -0.00941749 0.999943 
-0.00749016 -0.0125512 0.999893 
-0.0109436 -0.0158223 0.999815 
-0.0138917 -0.0187395 0.999728 
-0.0194755 -0.0207885 0.999594 
-0.0219597 -0.0202094 0.999555 
-0.0227398 -0.0208632 0.999524 
-0.0236012 -0.0191234 0.999539 
-0.0223007 -0.0196651 0.999558 
-0.020401 -0.0149711 0.999679 
-0.0158353 -0.0139504 0.999778 
-0.0193553 -0.0180263 0.99965 
-0.0114297 -0.010821 0.999876 
0.00587517 -0.00934361 -0.999939 
0.00847593 -0.00480726 -0.999952 
0.0113532 -0.0060494 -0.999917 
0.0134789 -0.00741328 -0.999882 
0.0139513 -0.0078332 -0.999872 
0.0129053 -0.00756992 -0.999888 
0.0129299 -0.00830358 -0.999882 
0.0103903 -0.00866209 -0.999909 
0.0077037 -0.00830415 -0.999936 
0.00566602 -0.00760903 -0.999955 
0.00378621 -0.00645008 -0.999972 
0.00224814 -0.00496459 -0.999985 
0.000887464 -0.00354862 -0.999993 
-1.75926e-05 -0.00237478 -0.999997 
-0.000499185 -0.00148754 -0.999999 
-0.000710946 -0.000949394 -0.999999 
-0.000722692 -0.000750451 -0.999999 
-0.000590704 -0.000735594 -1 
-0.000420611 -0.000737532 -1 
-0.00027685 -0.000703193 -1 
-0.000192164 -0.00064302 -1 
-0.000163162 -0.000580924 -1 
-0.00016255 -0.000536335 -1 
-0.000164573 -0.000507115 -1 
-0.00017128 -0.000485631 -1 
-0.000187607 -0.000485917 -1 
-0.00019697 -0.000509528 -1 
-0.000186985 -0.000527102 -1 
-0.000163042 -0.000537698 -1 
-0.000151115 -0.00055936 -1 
-0.000134715 -0.000576451 -1 
-0.00011205 -0.000568294 -1 
-8.49528e-05 -0.000535665 -1 
-5.42455e-05 -0.0005152 -1 
-3.05076e-05 -0.000494959 -1 
-6.5104e-06 -0.000481894 -1 
1.61067e-05 -0.000471741 -1 
3.22087e-05 -0.000447758 -1 
5.64032e-05 -0.000196466 -1 
-7.64688e-05 -0.000213412 1 
-4.9971e-05 -0.000464028 1 
-2.88416e-05 -0.00048028 1 
-2.95624e-06 -0.000498877 1 
2.48886e-05 -0.000521159 1 
5.22928e-05 -0.000541266 1 
8.07253e-05 -0.000565879 1 
0.000106775 -0.000587268 1 
0.000122373 -0.000588828 1 
0.000131761 -0.00057226 1 
0.000142138 -0.000561223 1 
0.000157194 -0.000554356 1 
0.000167848 -0.000526996 1 
0.000171035 -0.000489974 1 
0.000181548 -0.000475616 1 
0.000201673 -0.000467188 1 
0.000193338 -0.000422585 1 
0.00015758 -0.000357984 1 
0.000120301 -0.000306611 1 
9.07192e-05 -0.000250073 1 
6.64041e-05 -0.000160403 1 
9.39671e-05 -8.44226e-05 1 
0.000213432 -0.000203356 1 
0.000310647 -0.000669208 1 
0.000136561 -0.00159987 0.999999 
-0.000621901 -0.00305921 0.999995 
-0.00233478 -0.00505038 0.999985 
-0.00469104 -0.00763366 0.99996 
-0.00723036 -0.0102908 0.999921 
-0.0104231 -0.0136089 0.999853 
-0.0147967 -0.016776 0.99975 
-0.0175936 -0.0189744 0.999665 
-0.0202218 -0.0184041 0.999626 
-0.0230124 -0.0192667 0.999549 
-0.0229794 -0.0169538 0.999592 
-0.0229567 -0.0178891 0.999576 
-0.0225497 -0.0195096 0.999555 
-0.0541733 -0.0191067 0.998349 
-0.0442479 -0.0307649 0.998546 
-0.0269907 -0.0387081 0.998886 
0.0179375 -0.0128839 -0.999756 
0.0203209 -0.00787119 -0.999762 
0.0125071 -0.0103787 -0.999868 
0.011393 -0.00794971 -0.999903 
0.0143113 -0.00858127 -0.999861 
0.0144711 -0.00878904 -0.999857 
0.0141289 -0.00880791 -0.999861 
0.0122624 -0.0087517 -0.999887 
0.00966159 -0.00872768 -0.999915 
0.00727216 -0.00800018 -0.999942 
0.00496287 -0.00687143 -0.999964 
0.0031564 -0.00554588 -0.99998 
0.00152647 -0.00412122 -0.99999 
0.000226744 -0.0027384 -0.999996 
-0.000396055 -0.00175641 -0.999998 
-0.000697369 -0.0010984 -0.999999 
-0.000725894 -0.000825801 -0.999999 
-0.000570404 -0.000771073 -1 
-0.000385507 -0.000749768 -1 
-0.000247357 -0.000704666 -1 
-0.000165958 -0.000641321 -1 
-0.00012966 -0.000565336 -1 
-0.000125591 -0.000512097 -1 
-0.000126561 -0.000476085 -1 
-0.000132219 -0.000447795 -1 
-0.00015286 -0.000454903 -1 
-0.000163787 -0.000485808 -1 
-0.000156067 -0.000512039 -1 
-0.000136817 -0.000526221 -1 
-0.000126509 -0.000556185 -1 
-0.0001152 -0.00058359 -1 
-9.58024e-05 -0.000583499 -1 
-7.33292e-05 -0.000558459 -1 
-4.74447e-05 -0.00054132 -1 
-2.52962e-05 -0.000519118 -1 
-2.02942e-06 -0.000505443 -1 
1.99745e-05 -0.000494063 -1 
3.86209e-05 -0.000471218 -1 
6.0045e-05 -0.000218658 -1 
-6.97372e-05 -0.000239443 1 
-4.52625e-05 -0.000494499 1 
-2.64455e-05 -0.000504154 1 
-3.59561e-06 -0.000524384 1 
2.23331e-05 -0.000546445 1 
4.81814e-05 -0.000567086 1 
7.28465e-05 -0.000589068 1 
9.39831e-05 -0.000603091 1 
0.000104308 -0.000593105 1 
0.000108752 -0.000573022 1 
0.000112623 -0.000558218 1 
0.000118 -0.000545012 1 
0.000121534 -0.000510232 1 
0.000126189 -0.000468045 1 
0.000146659 -0.000455306 1 
0.000172041 -0.000451118 1 
0.00016828 -0.000414575 1 
0.000136505 -0.000358256 1 
0.000106491 -0.000303876 1 
9.21987e-05 -0.000247842 1 