# vtk DataFile Version 3.0 
Exported using Morpho https://github.com/Morpho-lang/morpho 
ASCII 
DATASET UNSTRUCTURED_GRID 

POINTS 1978 float 
-12 -3.99994 -3.18533e-08 
-11.6284 -3.99999 1.23822e-07 
-11.3406 -4 1.66213e-07 
-10.9877 -4 9.15302e-08 
-10.6662 -4 5.57016e-08 
-10.3119 -4 4.11499e-08 
-9.99418 -4 3.73061e-08 
-9.65913 -4 1.86464e-08 
-9.31932 -4 1.06361e-08 
-9.00063 -4 2.83254e-09 
-8.69296 -4 -2.68379e-09 
-8.38326 -4 -5.65283e-10 
-8.0793 -4 2.72219e-09 
-7.77632 -4 -8.50518e-10 
-7.48118 -4 1.63399e-09 
-7.17907 -4 -7.16505e-10 
-6.8811 -4 -6.90375e-09 
-6.58359 -4 -7.61549e-09 
-6.28679 -4 -1.57969e-08 
-5.97725 -4 -2.0483e-08 
-5.67063 -4 -2.54518e-08 
-5.37334 -4 -3.51634e-08 
-5.07904 -4 -4.47882e-08 
-4.78966 -4 -5.8792e-08 
-4.48887 -4 -7.97446e-08 
-4.19893 -4 -1.00838e-07 
-3.91005 -4 -1.38832e-07 
-3.59544 -4 -1.70537e-07 
-3.2948 -4 -1.97694e-07 
-3.01699 -4 -2.29091e-07 
-2.72069 -3.99999 -2.34553e-07 
-2.50781 -4.00001 -2.25295e-07 
-2.23628 -4.00001 -2.71439e-07 
-1.97935 -3.99999 -2.46002e-07 
-1.67248 -4 -7.07315e-08 
-1.37083 -4 1.12854e-07 
-1.10891 -4 -2.29522e-06 
-0.810202 -4 1.99993e-06 
-0.536876 -4.00001 -1.66778e-06 
0.000537535 -4 2.70155e-07 
0.449688 -4 1.49046e-06 
0.760574 -4.00001 3.34093e-07 
1.03908 -4 -8.2842e-08 
1.36939 -4.00001 -1.24142e-07 
1.62745 -3.99999 -2.12825e-07 
1.88977 -4.00001 3.81017e-07 
2.14592 -3.99999 2.39128e-07 
2.45447 -4.00002 3.73877e-07 
2.74607 -3.99999 2.45355e-07 
3.03029 -4 2.30751e-07 
3.32093 -4 1.91912e-07 
3.60464 -4 1.65635e-07 
3.88668 -4 1.47599e-07 
4.20202 -4 1.15297e-07 
4.49859 -4 7.87956e-08 
4.79197 -4 5.62499e-08 
5.09309 -4 4.55833e-08 
5.38943 -4 3.4249e-08 
5.69948 -4 2.4996e-08 
5.98838 -4 1.54774e-08 
6.29461 -4 1.53179e-08 
6.57141 -4 6.96143e-09 
6.88142 -4 1.07791e-08 
7.17131 -4 5.25211e-09 
7.47193 -4 1.65845e-09 
7.77181 -4 -4.0967e-10 
8.06876 -4 -1.09416e-10 
8.36503 -4 -2.30838e-09 
8.67034 -4 4.86231e-09 
8.94779 -4 -4.52678e-09 
9.28946 -4 -8.73012e-09 
9.61252 -4 -1.69036e-08 
9.91795 -4 -4.24381e-08 
10.29 -4 -3.25185e-08 
10.6125 -4 -6.26835e-08 
10.9933 -4 -8.94963e-08 
11.3127 -4 -1.43874e-07 
11.6015 -3.99999 -1.43678e-07 
12 -3.99994 2.81605e-08 
-12 -3.62469 -1.23753e-07 
-11.7047 -3.69839 -4.63153e-10 
-11.3651 -3.61014 -6.24091e-10 
-11.0625 -3.68773 -3.85916e-10 
-10.7168 -3.6523 -2.32761e-10 
-10.3951 -3.68718 -2.45788e-10 
-10.0536 -3.65704 -1.03809e-10 
-9.73247 -3.68038 3.02301e-11 
-9.39087 -3.68664 -1.24697e-10 
-9.05212 -3.67106 -2.21562e-11 
-8.73618 -3.66315 -1.62764e-11 
-8.42412 -3.66897 -2.52948e-11 
-8.11164 -3.66423 -1.36658e-11 
-7.80316 -3.66395 -3.87121e-11 
-7.49802 -3.65694 -5.75918e-12 
-7.19594 -3.6656 -1.2452e-11 
-6.88832 -3.66263 -1.25925e-11 
-6.58194 -3.65778 1.06068e-11 
-6.26776 -3.67407 8.18661e-11 
-5.95518 -3.67319 6.66594e-11 
-5.65088 -3.66646 9.68789e-11 
-5.34802 -3.66827 1.35896e-10 
-5.04935 -3.66714 1.74326e-10 
-4.73896 -3.68351 2.81141e-10 
-4.43578 -3.67404 3.3571e-10 
-4.13578 -3.67428 4.14006e-10 
-3.81401 -3.70308 7.23735e-10 
-3.49774 -3.69187 7.16041e-10 
-3.19536 -3.66917 8.02678e-10 
-2.90244 -3.69084 1.71758e-09 
-2.66442 -3.56061 -4.92147e-11 
-2.41211 -3.65495 8.3043e-10 
-2.14625 -3.64235 3.56157e-10 
-1.84425 -3.69059 5.37456e-10 
-1.5219 -3.67077 3.33884e-11 
-1.22553 -3.59097 -6.92452e-09 
-0.925466 -3.60555 6.08405e-09 
-0.611663 -3.5026 1.26755e-08 
-0.290855 -3.70196 2.17735e-08 
0.0187892 -3.46596 -1.40151e-09 
0.312487 -3.62375 -2.59143e-08 
0.658847 -3.51495 -9.57606e-09 
0.955443 -3.52495 -7.67832e-09 
1.25576 -3.65077 -1.32792e-09 
1.56221 -3.61087 1.91504e-09 
1.84289 -3.65748 -6.85381e-10 
2.12874 -3.65838 -7.85285e-10 
2.42423 -3.72194 9.2237e-10 
2.74423 -3.6912 -3.27618e-09 
3.03947 -3.68373 -1.37604e-10 
3.3376 -3.67087 -5.96357e-10 
3.62993 -3.66432 -5.80561e-10 
3.94131 -3.69432 -6.20064e-10 
4.24257 -3.67243 -3.65867e-10 
4.53915 -3.66821 -2.9695e-10 
4.84085 -3.67507 -2.37017e-10 
5.14059 -3.66809 -1.6282e-10 
5.45069 -3.68137 -1.27089e-10 
5.74641 -3.65706 -6.5534e-11 
6.04827 -3.67476 -3.6205e-11 
6.33599 -3.63716 -9.37059e-11 
6.64075 -3.67555 6.10075e-12 
6.9393 -3.65422 3.80977e-12 
7.24234 -3.66751 1.66745e-12 
7.54655 -3.66728 1.4579e-11 
7.84843 -3.66163 2.54953e-11 
8.14881 -3.65902 3.6291e-11 
8.44876 -3.66661 3.73825e-11 
8.73857 -3.63193 -1.24496e-11 
9.05754 -3.69894 9.8129e-11 
9.38464 -3.67601 -1.49563e-11 
9.69907 -3.65132 6.16553e-11 
10.0443 -3.71133 1.84372e-10 
10.3803 -3.66393 7.70878e-11 
10.7395 -3.7123 3.52783e-10 
11.0711 -3.65462 4.14704e-10 
11.3713 -3.61778 5.02749e-10 
11.7155 -3.72199 5.00842e-10 
12 -3.61518 1.21058e-07 
-12 -3.32452 -1.08318e-07 
-11.635 -3.34687 3.34546e-10 
-11.2907 -3.26767 -7.24402e-12 
-10.9826 -3.35037 1.39052e-11 
-10.6606 -3.3078 6.32922e-11 
-10.344 -3.35468 4.85988e-11 
-10.0228 -3.31827 -2.1393e-11 
-9.70984 -3.33826 -2.03104e-11 
-9.39759 -3.37187 5.72463e-12 
-9.08884 -3.33365 1.09243e-12 
-8.78 -3.32816 2.22708e-12 
-8.47031 -3.33579 1.80683e-12 
-8.16147 -3.33345 3.08656e-12 
-7.85213 -3.33032 1.23153e-12 
-7.54784 -3.3197 1.79195e-12 
-7.2449 -3.32574 -9.92334e-13 
-6.94421 -3.33072 -4.29533e-13 
-6.63983 -3.32684 -4.63885e-13 
-6.33078 -3.34553 -2.01253e-12 
-6.02396 -3.34781 -2.93445e-12 
-5.71909 -3.33592 -6.45666e-12 
-5.41847 -3.33782 -5.29418e-12 
-5.12161 -3.33578 -5.48753e-12 
-4.82138 -3.36341 -2.0859e-11 
-4.51975 -3.35445 -3.44349e-11 
-4.21833 -3.34928 -5.64729e-11 
-3.90953 -3.39461 -1.27564e-11 
-3.59957 -3.38667 -4.884e-11 
-3.29583 -3.36294 -2.04688e-10 
-2.98819 -3.34974 2.88873e-11 
-2.68898 -3.24086 4.63744e-11 
-2.38971 -3.28748 -3.24323e-09 
-2.10015 -3.31021 2.51156e-09 
-1.82098 -3.3713 2.71679e-10 
-1.53586 -3.31183 6.52707e-10 
-1.2451 -3.22117 6.37158e-09 
-0.909634 -3.1912 -6.95672e-09 
-0.590671 -3.02619 1.03001e-09 
-0.30114 -3.19779 -5.60471e-09 
0.0480575 -3.00302 1.66397e-08 
0.390188 -3.12017 -1.56577e-08 
0.682445 -3.00339 -1.46481e-08 
0.982486 -3.05742 -4.57071e-10 
1.25224 -3.25972 3.34758e-10 
1.54801 -3.23698 -6.71588e-10 
1.83568 -3.29241 -9.48859e-10 
2.10252 -3.31489 -2.19973e-10 
2.39918 -3.4209 2.90004e-09 
2.69833 -3.39637 -4.35663e-10 
2.99904 -3.36334 -1.63325e-09 
3.29514 -3.35348 -2.24852e-12 
3.60005 -3.33417 1.09299e-10 
3.89913 -3.37472 1.85627e-11 
4.19921 -3.35051 1.06593e-11 
4.50254 -3.33829 2.79387e-11 
4.80138 -3.34772 2.40895e-11 
5.1012 -3.33984 1.14584e-11 
5.40552 -3.35937 6.54599e-12 
5.70901 -3.32372 7.5037e-12 
6.00956 -3.33679 4.69548e-12 
6.30501 -3.29745 8.66501e-12 
6.60596 -3.33995 5.71741e-13 
6.90619 -3.31906 -1.04266e-11 
7.21083 -3.33428 6.00026e-12 
7.51585 -3.33622 4.30372e-13 
7.8211 -3.32837 -3.98524e-12 
8.12732 -3.32232 -5.07158e-12 
8.42964 -3.32052 7.70617e-12 
8.74675 -3.3078 -4.54717e-12 
9.0675 -3.37801 -6.29714e-12 
9.38661 -3.34327 -5.26745e-12 
9.70346 -3.31051 -1.15869e-11 
10.0164 -3.39414 -1.32622e-12 
10.3162 -3.31615 -3.08683e-11 
10.6422 -3.39434 -1.25402e-11 
10.9698 -3.33852 -4.01261e-11 
11.2951 -3.26482 -2.00766e-11 
11.6343 -3.3719 -2.78473e-10 
12 -3.31456 1.05048e-07 
-12 -3.00085 -6.73545e-08 
-11.6577 -3.0332 2.41289e-10 
-11.3123 -2.94742 -7.52873e-11 
-10.9626 -3.00201 8.52722e-11 
-10.6247 -2.97764 -3.78423e-11 
-10.2964 -3.01178 -5.08072e-12 
-9.97264 -2.97821 2.0837e-11 
-9.65593 -3.00318 3.63817e-13 
-9.35269 -3.02365 8.18986e-12 
-9.04408 -2.99183 2.28218e-12 
-8.73266 -2.99249 -1.84826e-12 
-8.4254 -3.00214 1.57533e-13 
-8.11512 -3.00204 5.00598e-13 
-7.81191 -2.99292 -9.72327e-13 
-7.50641 -2.98401 -9.48734e-13 
-7.20406 -2.9898 -7.86495e-13 
-6.90126 -2.99788 -7.02619e-14 
-6.59104 -3.00377 -9.11917e-13 
-6.28655 -3.01766 -7.33453e-13 
-5.98417 -3.01775 6.12637e-13 
-5.68206 -3.00556 1.0842e-12 
-5.38591 -3.00522 -4.13855e-12 
-5.08765 -3.00721 -3.25361e-11 
-4.79313 -3.03944 3.61101e-11 
-4.49149 -3.03009 2.55422e-11 
-4.19223 -3.0208 2.10441e-11 
-3.89988 -3.08165 -1.60423e-12 
-3.59696 -3.06484 1.16562e-12 
-3.29134 -3.04729 3.21046e-11 
-2.98412 -3.02561 -1.7953e-10 
-2.66635 -2.91998 4.88097e-10 
-2.36565 -2.95353 2.62427e-09 
-2.09049 -2.96632 -2.16018e-09 
-1.7994 -3.00461 5.08803e-10 
-1.53013 -2.90944 6.00352e-11 
-1.1773 -2.87111 1.15606e-10 
-0.866006 -2.72912 2.36969e-09 
-0.534949 -2.53879 3.49101e-09 
-0.211787 -2.67245 -1.35436e-08 
-0.0543969 -2.22487 1.39497e-08 
0.228532 -2.59909 -3.7151e-08 
0.547863 -2.51092 3.12696e-08 
0.89875 -2.60215 1.98918e-08 
1.24163 -2.79324 3.07054e-10 
1.51313 -2.85702 -5.41072e-10 
1.81122 -2.92597 -1.97276e-09 
2.08978 -2.92817 1.63301e-09 
2.36778 -3.10828 -2.16834e-09 
2.66181 -3.07739 1.19803e-09 
2.95881 -3.03303 8.90035e-10 
3.25308 -3.03002 1.62642e-10 
3.5577 -3.02219 -8.26081e-11 
3.87895 -3.04627 7.69548e-12 
4.1824 -3.02561 -6.48371e-12 
4.48678 -3.01445 -2.47047e-11 
4.79158 -3.01775 8.3907e-12 
5.09061 -3.01105 -5.20095e-13 
5.39131 -3.03404 1.47579e-12 
5.68521 -2.99312 -3.41804e-12 
5.98828 -3.00368 -6.33414e-12 
6.29616 -2.9713 -5.5431e-12 
6.60487 -3.00435 -5.8767e-13 
6.91608 -2.99361 1.37561e-11 
7.22518 -3.00352 -6.2085e-12 
7.52716 -3.00311 2.48872e-13 
7.83425 -2.99742 2.38033e-12 
8.13077 -2.98289 3.53612e-12 
8.43971 -2.99223 -7.5599e-12 
8.74433 -2.97228 -1.13787e-12 
9.05802 -3.05076 3.08102e-12 
9.37346 -3.01082 4.07206e-12 
9.67393 -2.96188 1.14576e-11 
9.99254 -3.04078 -1.57785e-12 
10.3206 -2.98313 8.44738e-12 
10.6484 -3.05895 -1.48664e-11 
10.9789 -2.99997 5.50714e-12 
11.3268 -2.94359 2.82502e-11 
11.6594 -3.05811 -2.44552e-10 
12 -2.99037 5.9483e-08 
-12 -2.69483 -4.26743e-08 
-11.641 -2.70557 1.06053e-10 
-11.3131 -2.60928 -5.40249e-11 
-10.9844 -2.67975 -2.7296e-11 
-10.649 -2.65245 -3.10986e-12 
-10.31 -2.67708 9.29118e-12 
-9.97952 -2.65324 -5.01188e-12 
-9.64718 -2.66698 -1.02378e-11 
-9.32925 -2.67763 5.86666e-13 
-9.01109 -2.65949 -2.03933e-12 
-8.69909 -2.65846 -1.32254e-12 
-8.38511 -2.6753 6.16511e-13 
-8.07811 -2.66652 -4.0647e-13 
-7.76818 -2.66194 -6.03111e-13 
-7.45873 -2.65239 -4.46786e-13 
-7.15334 -2.65921 5.7221e-14 
[...]
POINT_DATA 1978 
VECTORS vectors float
0.00173508 -0.00319762 0.999993 
0.00282415 -0.0290688 0.999574 
0.00287037 -0.0320218 0.999485 
0.00302068 -0.023128 0.999731 
0.00308599 -0.0156169 0.999876 
0.00307039 -0.00940383 0.999954 
0.00305912 -0.0057249 0.999982 
0.0031512 -0.00330457 0.999993 
0.00310788 -0.00233798 0.999995 
0.00288717 -0.00198168 0.999996 
0.00277307 -0.00179097 0.999996 
0.00274234 -0.00165585 0.999996 
0.00269294 -0.00145527 0.999997 
0.00264311 -0.0011465 0.999997 
0.00262438 -0.000726454 0.999997 
0.00261272 -0.00027056 0.999998 
0.00260101 0.000255811 0.999998 
0.00261046 0.000928999 0.999997 
0.00269142 0.00173761 0.999996 
0.00271226 0.00288723 0.999993 
0.00265076 0.00440478 0.999988 
0.00254724 0.00633369 0.999978 
0.00250779 0.00888599 0.999958 
0.00248611 0.0122822 0.999922 
0.00242632 0.0171564 0.999851 
0.00242974 0.0236985 0.999717 
0.00243542 0.0325824 0.999467 
0.00235799 0.0457524 0.998951 
0.00215922 0.0628394 0.998022 
0.00178511 0.0840894 0.996457 
0.00165872 0.113614 0.993523 
0.00138742 0.14165 0.989916 
0.00102899 0.187172 0.982326 
0.000719818 0.24407 0.969757 
0.000285101 0.332876 0.94297 
-0.0003049 0.447041 0.894513 
-0.000745263 0.566271 0.824219 
-0.00145801 0.716672 0.697409 
-0.00138729 0.853107 0.521736 
-0.000458862 0.999962 0.00874046 
0.00124316 0.899293 -0.437346 
0.00144971 0.751424 -0.659819 
0.00106128 0.608011 -0.793928 
0.000505657 0.447997 -0.894035 
-0.000156175 0.349459 -0.936952 
-0.000639376 0.269038 -0.963129 
-0.00117145 0.20929 -0.977853 
-0.00147883 0.153975 -0.988074 
-0.00177792 0.112499 -0.993651 
-0.0019273 0.083641 -0.996494 
-0.00201995 0.0620792 -0.998069 
-0.00220058 0.046094 -0.998935 
-0.00238446 0.0339449 -0.999422 
-0.00248819 0.0240087 -0.99971 
-0.00251859 0.0171514 -0.999851 
-0.00251309 0.0123059 -0.999922 
-0.0025887 0.00876328 -0.999959 
-0.00263181 0.00624782 -0.999978 
-0.00262791 0.00428868 -0.999988 
-0.00256553 0.00292572 -0.999993 
-0.00253532 0.00179524 -0.999996 
-0.00256906 0.000961686 -0.999997 
-0.00257863 0.000295658 -0.999998 
-0.00262768 -0.000291406 -0.999997 
-0.00261377 -0.000767717 -0.999997 
-0.00262343 -0.00116422 -0.999997 
-0.00263083 -0.0015286 -0.999996 
-0.00256473 -0.00169424 -0.999996 
-0.0026403 -0.00184679 -0.999996 
-0.00286932 -0.00205997 -0.999995 
-0.00298143 -0.0021872 -0.999996 
-0.00301098 -0.00311003 -0.999993 
-0.00314275 -0.00509063 -0.999985 
-0.00331425 -0.00913329 -0.999957 
-0.0033668 -0.0145855 -0.999892 
-0.00310015 -0.0232509 -0.999728 
-0.00285281 -0.0315268 -0.999501 
-0.00293219 -0.0298362 -0.999552 
-0.00183105 -0.00317554 -0.999993 
0.00108114 -0.000580807 0.999999 
0.00941867 -0.0212828 0.999729 
0.0139263 -0.0266636 0.999547 
0.0140717 -0.0245404 0.999599 
0.0151452 -0.0172671 0.999736 
0.0149911 -0.0112742 0.999824 
0.0162203 -0.00702802 0.999843 
0.0161221 -0.00435234 0.99986 
0.0163565 -0.00275912 0.999862 
0.0168404 -0.00205399 0.999856 
0.0173982 -0.00174435 0.999847 
0.0174105 -0.00152164 0.999847 
0.0175283 -0.00129665 0.999845 
0.0175099 -0.00102658 0.999846 
0.0177727 -0.000653728 0.999842 
0.0174774 -0.000199946 0.999847 
0.0174631 0.000337138 0.999847 
0.0173334 0.000994153 0.999849 
0.0170215 0.00189221 0.999853 
0.0171218 0.00311157 0.999848 
0.0173258 0.00468295 0.999839 
0.0172516 0.00673652 0.999828 
0.0171229 0.00949616 0.999808 
0.016479 0.0134481 0.999773 
0.0164254 0.0188237 0.999688 
0.0158863 0.0261072 0.999533 
0.0143995 0.0369176 0.999214 
0.0139176 0.0517144 0.998565 
0.0133087 0.071173 0.997375 
0.0115135 0.0963671 0.995279 
0.0121771 0.123519 0.992267 
0.00866567 0.160057 0.987069 
0.00628512 0.208504 0.978001 
0.00299134 0.283259 0.959039 
6.33204e-05 0.388026 0.921648 
-0.00233352 0.513843 0.85788 
-0.00376723 0.659902 0.751343 
-0.00435777 0.820765 0.57125 
-0.0028867 0.952929 0.303182 
-0.00165302 0.99989 -0.0148047 
0.000882563 0.950638 -0.310303 
0.0023925 0.804529 -0.593909 
0.00263674 0.652753 -0.757566 
0.00146813 0.506498 -0.862239 
-0.000844666 0.379999 -0.924986 
-0.00331167 0.286434 -0.958094 
-0.00604854 0.214675 -0.976667 
-0.00775731 0.157673 -0.987461 
-0.0106156 0.11345 -0.993487 
-0.0123486 0.0834629 -0.996434 
-0.0140483 0.0617182 -0.997994 
-0.0150238 0.0456663 -0.998843 
-0.0149357 0.0326746 -0.999354 
-0.0161208 0.0235463 -0.999592 
-0.0167131 0.0169949 -0.999716 
-0.0168213 0.0121117 -0.999785 
-0.0171414 0.00860242 -0.999816 
-0.0169961 0.00599089 -0.999837 
-0.0177199 0.00418428 -0.999834 
-0.0174739 0.00278933 -0.999843 
-0.0182573 0.00176558 -0.999831 
-0.017277 0.000900285 -0.99985 
-0.0179571 0.000236638 -0.999838 
-0.0176012 -0.000319778 -0.999845 
-0.017658 -0.000762259 -0.999844 
-0.0178373 -0.00110558 -0.99984 
-0.0178739 -0.00136063 -0.999839 
-0.0178381 -0.00159471 -0.999839 
-0.0186175 -0.00177724 -0.999825 
-0.0164065 -0.00207794 -0.999863 
-0.0167336 -0.00276284 -0.999856 
-0.0169204 -0.00420375 -0.999848 
-0.0149597 -0.00679853 -0.999865 
-0.015535 -0.0111323 -0.999817 
-0.0138923 -0.0176723 -0.999747 
-0.0148013 -0.0246813 -0.999585 
-0.0140492 -0.0269644 -0.999537 
-0.00905942 -0.0209313 -0.99974 
-0.001086 -0.000801646 -0.999998 
0.00169261 -0.0010883 0.999997 
0.0131623 -0.0210021 0.999692 
0.0184354 -0.0269271 0.999467 
0.0199798 -0.0233332 0.999528 
0.0211402 -0.0169183 0.999633 
0.0218264 -0.0113988 0.999696 
0.022871 -0.00757633 0.999709 
0.0231869 -0.00491642 0.999719 
0.0232514 -0.00314482 0.999724 
0.0239916 -0.00226829 0.999709 
0.024061 -0.00173559 0.999709 
0.0239856 -0.00137062 0.999711 
0.0239393 -0.00111552 0.999712 
0.0238502 -0.000907652 0.999715 
0.0238901 -0.000625673 0.999714 
0.0237785 -0.000230007 0.999717 
0.0237599 0.000290166 0.999717 
0.0237046 0.000965869 0.999718 
0.0236087 0.00184145 0.999719 
0.0235282 0.00297969 0.999718 
0.0234999 0.00447091 0.999714 
0.0234147 0.00642954 0.999705 
0.0232122 0.00905971 0.999689 
0.0230381 0.0127816 0.999653 
0.0226532 0.0177881 0.999585 
0.0219836 0.0245845 0.999456 
0.0210726 0.0343036 0.999189 
0.0199396 0.0475296 0.99867 
0.0184932 0.0654162 0.997686 
0.0162603 0.09004 0.995805 
0.0138428 0.123455 0.992253 
0.0107633 0.166614 0.985964 
0.00749666 0.223964 0.974568 
0.00387761 0.294413 0.95567 
0.000377468 0.390181 0.920738 
-0.00242423 0.506408 0.862291 
-0.00424262 0.665496 0.746389 
-0.00454903 0.829921 0.557863 
-0.00395003 0.951762 0.306814 
-0.00204439 0.998541 -0.0539666 
0.000224594 0.923002 -0.384796 
0.00135597 0.78909 -0.614275 
0.00182273 0.639866 -0.768484 
0.00134279 0.512092 -0.858929 
-0.00108125 0.394044 -0.919091 
-0.00432224 0.29683 -0.95492 
-0.00779938 0.225054 -0.974315 
-0.0110039 0.165102 -0.986216 
-0.0143744 0.12243 -0.992372 
-0.0165872 0.0899734 -0.995806 
-0.0184741 0.0663591 -0.997624 
-0.019904 0.0484192 -0.998628 
-0.0208214 0.0352371 -0.999162 
-0.0217275 0.0254664 -0.999439 
-0.022512 0.0184017 -0.999577 
-0.0229536 0.0132314 -0.999649 
-0.0232149 0.0093855 -0.999686 
-0.023386 0.00659257 -0.999705 
-0.0235346 0.00456913 -0.999712 
-0.0235653 0.00308124 -0.999717 
-0.0238678 0.00198546 -0.999713 
-0.0238319 0.00109033 -0.999715 
-0.0239791 0.000386516 -0.999712 
-0.0239737 -0.000190027 -0.999712 
-0.0239782 -0.000623942 -0.999712 
-0.0239991 -0.000921876 -0.999711 
-0.0239115 -0.00112471 -0.999713 
-0.0239936 -0.00135137 -0.999711 
-0.0242402 -0.00168577 -0.999704 
-0.0235267 -0.00219691 -0.99972 
-0.023612 -0.00313749 -0.999716 
-0.0234478 -0.00489379 -0.999713 
-0.0221796 -0.00728476 -0.999727 
-0.0223323 -0.011084 -0.999689 
-0.0208553 -0.016445 -0.999647 
-0.0202307 -0.0231736 -0.999526 
-0.0184002 -0.0270819 -0.999463 
-0.0132126 -0.0210794 -0.99969 
-0.0016619 -0.00155609 -0.999996 
0.00114539 -0.00157196 0.999996 
0.0115677 -0.0203827 0.999725 
0.0153957 -0.0277682 0.999495 
0.0179601 -0.0236149 0.999559 
0.0186956 -0.0171539 0.999678 
0.0198915 -0.011503 0.999736 
0.0200644 -0.00768178 0.999769 
0.0209179 -0.00504076 0.999768 
0.0215882 -0.0032596 0.999761 
0.0212149 -0.0021979 0.999772 
0.0211253 -0.00156245 0.999775 
0.0212266 -0.00115066 0.999774 
0.0211496 -0.000909866 0.999776 
0.0208779 -0.000756246 0.999781 
0.0206466 -0.000513901 0.999786 
0.0207153 -0.000113848 0.999785 
0.0207946 0.000452834 0.999783 
0.0208231 0.00119728 0.999782 
0.0209189 0.00211887 0.999779 
0.0208051 0.00330074 0.999778 
0.0204914 0.00487127 0.999778 
0.0203189 0.00694765 0.999769 
0.0202202 0.0098068 0.999747 
0.0204114 0.0135801 0.999699 
0.0198677 0.018921 0.999623 
0.0191579 0.0261467 0.999474 
0.0192445 0.0354902 0.999184 
0.0179196 0.0488162 0.998647 
0.0162871 0.0671057 0.997613 
0.0141833 0.0924444 0.995617 
0.0107514 0.12937 0.991538 
0.00861545 0.17421 0.98467 
0.00612102 0.229464 0.973298 
0.00319907 0.304262 0.952583 
0.000448679 0.393852 0.919173 
-0.00216804 0.54119 0.840897 
-0.00320763 0.695033 0.718971 
-0.00318207 0.85798 0.513674 
-0.00283839 0.974583 0.224011 
-0.00275777 0.998145 0.0608298 
-0.00171332 0.969424 -0.245389 
-0.00110801 0.851798 -0.52387 
-0.000294778 0.685608 -0.727971 
9.63431e-05 0.519751 -0.854318 
-0.0012407 0.407475 -0.913215 
-0.00361064 0.307684 -0.951482 
-0.00617288 0.231186 -0.97289 
-0.0102608 0.172986 -0.98487 
-0.0124179 0.129689 -0.991477 
-0.0141523 0.0954596 -0.995332 
-0.0157078 0.0706146 -0.99738 
-0.0169739 0.0518226 -0.998512 
-0.0184549 0.0368428 -0.99915 
-0.0191884 0.0268517 -0.999455 
-0.0195241 0.0193412 -0.999622 
-0.0199499 0.01381 -0.999705 
-0.0202515 0.00989428 -0.999746 
-0.0207599 0.00693772 -0.99976 
-0.0203673 0.00491634 -0.99978 
-0.0205078 0.00331583 -0.999784 
-0.0202631 0.00213197 -0.999792 
-0.0208041 0.00117384 -0.999783 
-0.0208254 0.000420039 -0.999783 
-0.0209685 -0.000155817 -0.99978 
-0.0210331 -0.000554102 -0.999778 
-0.0210505 -0.000797429 -0.999778 
-0.0208704 -0.000935814 -0.999782 
-0.020966 -0.00115476 -0.999779 
-0.0209082 -0.00156485 -0.99978 
-0.0220646 -0.00225053 -0.999754 
-0.0212948 -0.00338653 -0.999767 
-0.0202589 -0.00525744 -0.999781 
-0.0208608 -0.0078324 -0.999751 
-0.0196095 -0.011905 -0.999736 
-0.0197907 -0.0174464 -0.999652 
-0.0179232 -0.0240868 -0.999549 
-0.0152393 -0.0277664 -0.999498 
-0.0118176 -0.020325 -0.999723 
-0.000936662 -0.0018706 -0.999994 
0.000498307 -0.00317851 0.999989 
0.00873804 -0.0212553 0.999736 
0.0107514 -0.0291028 0.999518 
0.013134 -0.0250009 0.999601 
0.0137339 -0.0184423 0.999735 
0.0146912 -0.0122926 0.999816 
0.0149652 -0.0083631 0.999853 
0.015424 -0.0053977 0.999866 
0.0157168 -0.00330532 0.999871 
0.0154737 -0.00206582 0.999878 
0.0153502 -0.00134756 0.999881 
0.0155285 -0.00092595 0.999879 
0.0152214 -0.000743297 0.999884 
0.0150489 -0.000649342 0.999886 
0.0148152 -0.00042376 0.99989 
0.0149058 3.55185e-06 0.999889 
0.0151233 0.00062605 0.999885 
0.0150994 0.00141395 0.999885 
0.0151527 0.00238409 0.999882 
0.0150308 0.00364556 0.99988 
0.0146167 0.00530966 0.999879 
0.0145143 0.00752918 0.999866 
0.0144104 0.0105335 0.99984 
0.0147307 0.0144596 0.999787 
0.0142733 0.0200684 0.999696 
0.0138309 0.0278642 0.999516 
0.0139828 0.0379426 0.999182 
0.0128259 0.0523335 0.998547 
0.0116324 0.0724493 0.997304 
0.00983494 0.100428 0.994895 
0.00698904 0.142745 0.989735 
0.00528688 0.187925 0.982169 
0.0037525 0.249429 0.968386 
0.00179045 0.319174 0.947694 
-0.000451457 0.447015 0.894526 
-0.00185861 0.587724 0.809059 
-0.00237048 0.754627 0.65615 
-0.00380298 0.912094 0.409961 
-0.00279566 0.936028 0.351915 
-0.00514708 0.999207 -0.039517 
-0.00284628 0.95616 -0.292832 
-0.00310894 0.858688 -0.512489 
-0.00162572 0.757898 -0.65237 
-0.000952336 0.549721 -0.835348 
-0.00145057 0.409392 -0.912357 
-0.00270724 0.313592 -0.949554 
-0.00412265 0.238622 -0.971103 
-0.0074131 0.175859 -0.984387 
-0.00899631 0.130849 -0.991361 
-0.00993917 0.0960659 -0.995325 
-0.0114029 0.070221 -0.997466 
-0.0127395 0.0501568 -0.99866 
-0.0135009 0.036348 -0.999248 
-0.0138504 0.0262237 -0.99956 
-0.0141299 0.0189304 -0.999721 
-0.0143614 0.0136881 -0.999803 
-0.0145706 0.00972314 -0.999846 
-0.0148511 0.00696478 -0.999865 
-0.014643 0.00481995 -0.999881 
-0.0149039 0.0032801 -0.999883 
-0.0145362 0.00206894 -0.999892 
-0.0151384 0.00112704 -0.999884 
-0.0149951 0.000383499 -0.999887 
-0.0150766 -0.000162693 -0.999886 
-0.0152467 -0.000528256 -0.999883 
-0.0149174 -0.000688426 -0.999888 
-0.0150199 -0.000777362 -0.999887 
-0.0151375 -0.000989858 -0.999885 
-0.0147347 -0.00143636 -0.99989 
-0.0164949 -0.00220707 -0.999861 
-0.0154577 -0.00337282 -0.999875 
-0.0149146 -0.00554491 -0.999873 
-0.015691 -0.00847599 -0.999841 
-0.0143613 -0.0126654 -0.999816 
-0.0147913 -0.0185244 -0.999719 
-0.0130686 -0.0254372 -0.999591 
-0.0106421 -0.0284315 -0.999539 
-0.00831501 -0.0199727 -0.999766 
-0.000643344 -0.00224881 -0.999993 
0.000271508 -0.00411761 0.999985 
0.00492277 -0.0191034 0.999805 
0.00660731 -0.0283238 0.999577 
0.0084247 -0.0276034 0.999583 
0.00923141 -0.0212935 0.99973 
0.0100298 -0.0146094 0.999843 
0.0102498 -0.0100376 0.999897 
0.0106138 -0.00658057 0.999922 
0.0107004 -0.00398733 0.999934 
0.0106207 -0.00238379 0.99994 
0.0104131 -0.0014134 0.999944 
0.0105103 -0.000860165 0.999944 
0.0102875 -0.000652973 0.999947 
0.0101842 -0.000628923 0.999948 
0.0100476 -0.000519802 0.999949 
0.00994595 -0.000176487 0.99995 
0.0101286 0.000382274 0.999948 
0.0101659 0.0011112 0.999947 
0.010134 0.00202799 0.999946 
0.0100888 0.00316947 0.999944 
0.00982242 0.00463208 0.999941 
0.0096601 0.0066081 0.999931 
0.00959965 0.00921824 0.999911 
0.00967681 0.012835 0.99987 
0.00968545 0.0175027 0.9998 
0.00939412 0.0242077 0.999662 
0.00939649 0.0338675 0.999382 
0.00904151 0.0458525 0.998907 
0.00832847 0.0638642 0.997924 
0.00731744 0.0887732 0.996025 
0.00562388 0.124689 0.99218 
0.00357057 0.175021 0.984558 
0.00243719 0.236686 0.971583 
0.00101028 0.29936 0.954139 
0.000208825 0.387545 0.921851 
-0.0012689 0.542511 0.840047 
-0.00251015 0.717323 0.696736 
-0.00334051 0.831623 0.555327 
-0.00295263 0.984078 0.177694 
-0.00037666 0.999999 0.000913791 
-0.00322594 0.975269 -0.220992 
-0.0014621 0.946767 -0.321914 
-0.00440105 0.8893 -0.457302 
-0.00132555 0.601671 -0.798743 
-0.00132233 0.443533 -0.896257 
-0.00188897 0.320541 -0.947232 
-0.0025125 0.248047 -0.968744 
-0.00483766 0.182664 -0.983163 
-0.00613896 0.133893 -0.990977 
-0.00651472 0.0992179 -0.995044 
-0.00765642 0.0727844 -0.997318 
-0.00879383 0.0530285 -0.998554 
-0.00909297 0.0379807 -0.999237 
-0.00931707 0.0274 -0.999581 
-0.00945077 0.0197433 -0.99976 
-0.00953683 0.0143028 -0.999852 
-0.00974883 0.0102962 -0.999899 
-0.00968839 0.00730428 -0.999926 
-0.00990899 0.00520288 -0.999937 
-0.00994336 0.00353218 -0.999944 
-0.00988329 0.002314 -0.999948 
-0.010121 0.00127325 -0.999948 
-0.0101557 0.000513386 -0.999948 
-0.0100449 -9.41356e-05 -0.999949 
-0.0103394 -0.000477246 -0.999946 
-0.0098129 -0.000629096 -0.999951 
-0.0100932 -0.000639261 -0.999949 
-0.00990132 -0.000763099 -0.99995 
-0.00972869 -0.00119376 -0.999952 
-0.010958 -0.00209356 -0.999937 
-0.0106467 -0.00352841 -0.999937 
-0.010093 -0.00582132 -0.999932 
-0.0109863 -0.00888106 -0.9999 
-0.00999683 -0.0132467 -0.999862 
-0.0102553 -0.0192607 -0.999762 
-0.00892819 -0.0264212 -0.999611 
-0.00701079 -0.029403 -0.999543 
-0.00555208 -0.0209368 -0.999765 
-0.000386553 -0.00220887 -0.999993 
0.000288363 -0.00296502 0.999991 
0.00327248 -0.0208149 0.999778 
0.00493861 -0.030606 0.999519 
0.00557992 -0.0263482 0.999637 
0.00649467 -0.0192421 0.999793 
0.00672498 -0.013366 0.999888 
0.00691602 -0.00890052 0.999936 
0.00707023 -0.00565048 0.999959 
0.00691878 -0.00327962 0.99997 
0.00680131 -0.00182132 0.999975 
0.00666112 -0.000969248 0.999977 
0.00650551 -0.000609442 0.999978 
0.0064439 -0.00058605 0.999979 
0.00636877 -0.000619884 0.999979 
0.00632629 -0.000443115 0.99998 
0.00629068 1.18683e-05 0.99998 
0.00631895 0.000653936 0.99998 
0.00635728 0.00146542 0.999978 
0.00630012 0.00247469 0.999977 
0.00616557 0.00372373 0.999974 
0.00607946 0.0053963 0.999967 
0.00589937 0.00761536 0.999953 
0.00598414 0.0106257 0.999925 
0.00589578 0.0146228 0.999875 
0.00598514 0.0200711 0.99978 
0.00608525 0.0282625 0.999582 
0.00578318 0.038751 0.999232 
0.00575209 0.0537976 0.998535 
0.00516619 0.0757319 0.997114 
0.00432463 0.106049 0.994351 
0.0029069 0.147093 0.989118 
0.00163512 0.208902 0.977935 
0.000328217 0.305233 0.952277 
-0.000992623 0.449236 0.893412 
-0.00255264 0.610432 0.792065 
-0.0026252 0.741735 0.670686 
0.000556897 0.825753 0.564032 
0.00721131 0.865282 0.501235 
6.17548e-05 0.938994 0.343895 
0.00708897 0.93996 0.341177 
-0.00299987 0.948466 -0.316863 
-0.00238087 0.858035 -0.513578 
-0.00290154 0.797016 -0.60395 
-0.00226182 0.697152 -0.716919 
-0.00134308 0.515925 -0.856632 
-0.00135141 0.384609 -0.923078 
-0.00140177 0.296915 -0.954902 
-0.00319172 0.184693 -0.982791 
-0.00408736 0.134567 -0.990896 
-0.00407354 0.0993986 -0.995039 
-0.00497898 0.0722896 -0.997371 
-0.00573851 0.0515639 -0.998653 
-0.00589054 0.0369362 -0.9993 
-0.00599713 0.0263024 -0.999636 
-0.00590848 0.0189908 -0.999802 
-0.00595657 0.0137495 -0.999887 
-0.00607558 0.0099808 -0.999931 
-0.00584018 0.00712036 -0.999957 
-0.0062682 0.00496501 -0.999968 
-0.00613647 0.00340822 -0.999975 
-0.00643938 0.00212999 -0.999977 
-0.00632153 0.00118555 -0.999979 
-0.00644486 0.000415019 -0.999979 
-0.00623764 -0.000172313 -0.99998 
-0.00642611 -0.000522553 -0.999979 
-0.00604112 -0.000625605 -0.999981 
-0.00629165 -0.000570409 -0.99998 
-0.00592546 -0.00062076 -0.999982 
-0.00609462 -0.00109477 -0.999981 
-0.00713333 -0.00206506 -0.999972 
-0.00682049 -0.00355323 -0.99997 
-0.00670901 -0.00622022 -0.999958 
-0.00731679 -0.00972505 -0.999926 
-0.00665289 -0.01447 -0.999873 
-0.00687227 -0.0204777 -0.999766 
-0.00571199 -0.0271955 -0.999613 
-0.00443111 -0.0299047 -0.999543 
-0.0035268 -0.0210617 -0.999772 
-0.000281717 -0.00191603 -0.999994 
0.000117206 -0.0018664 0.999994 
0.00193932 -0.0206917 0.999784 
0.0030527 -0.030528 0.999529 
0.00334661 -0.0276238 0.999612 
0.0040013 -0.0208865 0.999774 
0.00409262 -0.0145175 0.999886 
0.00421727 -0.00975025 0.999943 
0.00421565 -0.00613699 0.999972 
0.00401442 -0.00348916 0.999986 
0.00381166 -0.00179822 0.999991 
0.00374218 -0.000874853 0.999992 
0.00346158 -0.000509966 0.999994 
0.00343873 -0.000562834 0.999994 
0.00339947 -0.000667938 0.999994 
0.00341884 -0.000544743 0.999994 
0.00343217 -0.000123665 0.999994 
0.00332348 0.00052925 0.999994 
0.00335552 0.00132824 0.999993 
0.00335312 0.002294 0.999991 
0.0032003 0.0035131 0.999988 
0.00321094 0.00511501 0.999982 
0.00308137 0.00717114 0.999969 
0.00311617 0.0099932 0.999945 
0.00303104 0.013745 0.999901 
0.00310613 0.0189607 0.999814 
0.00345905 0.0263591 0.999646 
0.00317082 0.036558 0.999326 
0.0033469 0.051448 0.99867 
0.00315244 0.0723542 0.997374 
0.0026346 0.100829 0.9949 
0.00173877 0.143822 0.989602 
0.000896633 0.206116 0.978527 
-0.000176283 0.298629 0.954369 
-0.00125585 0.419461 0.907772 
-0.00245065 0.597422 0.801924 
0.000144137 0.707752 0.70646 
0.00606192 0.797379 0.603446 
0.0113586 0.990621 0.136191 
0.0110044 0.99288 0.118607 
0.00902943 0.99695 0.0775223 
0.00269156 0.999876 -0.015229 
-0.00223201 0.995453 -0.0952261 
-0.00234747 0.720641 -0.693305 
-0.00211515 0.610687 -0.791869 
-0.00208654 0.567191 -0.823584 
-0.00134703 0.443265 -0.896389 
-0.00104221 0.345424 -0.938446 
-0.00180283 0.221456 -0.975168 
-0.00234776 0.154847 -0.987935 
-0.00238782 0.110562 -0.993866 
-0.00284484 0.0738426 -0.997266 
-0.00337157 0.0527951 -0.998599 
-0.003356 0.0378179 -0.999279 
-0.00335829 0.0271038 -0.999627 
-0.00315695 0.01943 -0.999806 
-0.00314193 0.0140815 -0.999896 
-0.00314519 0.0102581 -0.999942 
-0.00294302 0.0074368 -0.999968 
-0.00329308 0.0052724 -0.99998 
-0.00316762 0.0036257 -0.999988 
-0.00355476 0.00237606 -0.999991 
-0.00337111 0.00135889 -0.999993 
-0.0034831 0.000542866 -0.999994 
-0.00334848 -9.27734e-05 -0.999994 
-0.00333147 -0.000517513 -0.999994 
-0.00322774 -0.000654937 -0.999994 
-0.00319655 -0.000547085 -0.999994 
-0.00310703 -0.00048435 -0.999995 
-0.00319058 -0.000835676 -0.999994 