# vtk DataFile Version 3.0 
Exported using Morpho https://github.com/Morpho-lang/morpho 
ASCII 
DATASET UNSTRUCTURED_GRID 

POINTS 1978 float 
-12 -3.99995 -3.17739e-08 
-11.6285 -3.99999 1.21574e-07 
-11.3403 -4 1.63945e-07 
-10.9884 -4 9.03869e-08 
-10.666 -4 5.49843e-08 
-10.3118 -4 4.04971e-08 
-9.99402 -4 3.68338e-08 
-9.65924 -4 1.84757e-08 
-9.31929 -4 1.03675e-08 
-9.00067 -4 2.81366e-09 
-8.69287 -4 -2.64784e-09 
-8.38329 -4 -5.77149e-10 
-8.07934 -4 2.65983e-09 
-7.77622 -4 -8.53103e-10 
-7.48121 -4 1.59644e-09 
-7.17891 -4 -7.3735e-10 
-6.88147 -4 -6.82448e-09 
-6.5835 -4 -7.56031e-09 
-6.28671 -4 -1.55413e-08 
-5.97727 -4 -2.02151e-08 
-5.67059 -4 -2.51244e-08 
-5.37324 -4 -3.468e-08 
-5.07895 -4 -4.41856e-08 
-4.78959 -4 -5.79848e-08 
-4.48882 -4 -7.86161e-08 
-4.19888 -4 -9.94816e-08 
-3.9101 -4 -1.3683e-07 
-3.59532 -4 -1.6815e-07 
-3.29471 -4 -1.94905e-07 
-3.01697 -4 -2.25647e-07 
-2.7203 -3.99999 -2.31291e-07 
-2.50832 -4.00001 -2.22194e-07 
-2.23515 -4.00001 -2.67639e-07 
-1.97973 -3.99999 -2.43134e-07 
-1.67211 -4 -6.96033e-08 
-1.37093 -4 1.04815e-07 
-1.10833 -4 -2.24844e-06 
-0.810334 -4 1.94106e-06 
-0.537458 -4.00001 -1.60725e-06 
0.000184903 -4 2.7058e-07 
0.449805 -4 1.43957e-06 
0.761123 -4.00001 3.38083e-07 
1.03876 -4 -8.31427e-08 
1.37 -4.00001 -1.23077e-07 
1.62771 -3.99999 -2.11151e-07 
1.88938 -4.00001 3.76523e-07 
2.14501 -3.99999 2.36271e-07 
2.45277 -4.00002 3.69102e-07 
2.74729 -3.99999 2.42172e-07 
3.0296 -4 2.27441e-07 
3.32121 -4 1.89188e-07 
3.60442 -4 1.63366e-07 
3.88632 -4 1.45538e-07 
4.20202 -4 1.13697e-07 
4.49862 -4 7.77437e-08 
4.79193 -4 5.54896e-08 
5.0931 -4 4.49506e-08 
5.38942 -4 3.37885e-08 
5.69948 -4 2.4657e-08 
5.98842 -4 1.53456e-08 
6.29467 -4 1.50053e-08 
6.57134 -4 6.96135e-09 
6.88153 -4 1.063e-08 
7.17129 -4 5.20779e-09 
7.47199 -4 1.65949e-09 
7.77176 -4 -3.77936e-10 
8.06868 -4 -9.292e-11 
8.365 -4 -2.18286e-09 
8.67057 -4 4.67685e-09 
8.94767 -4 -4.3132e-09 
9.28945 -4 -8.66525e-09 
9.61252 -4 -1.67765e-08 
9.91795 -4 -4.16575e-08 
10.2901 -4 -3.22499e-08 
10.6124 -4 -6.17383e-08 
10.9933 -4 -8.83627e-08 
11.3127 -4 -1.42062e-07 
11.6015 -3.99999 -1.41091e-07 
12 -3.99995 2.8119e-08 
-12 -3.6245 -1.21637e-07 
-11.7046 -3.69864 -1.41207e-15 
-11.3645 -3.61295 -1.76729e-16 
-11.0642 -3.6847 -6.63015e-16 
-10.7165 -3.6532 -2.67408e-16 
-10.3953 -3.6874 6.20364e-17 
-10.0538 -3.65959 6.15089e-17 
-9.73152 -3.67849 -2.43204e-17 
-9.39066 -3.6866 1.11213e-16 
-9.05181 -3.67106 9.17106e-17 
-8.73608 -3.66325 -5.22116e-17 
-8.42423 -3.6691 -3.70712e-17 
-8.11201 -3.66444 -7.71951e-17 
-7.80333 -3.6641 5.42562e-17 
-7.4983 -3.65701 -6.23176e-17 
-7.19603 -3.66552 3.5953e-17 
-6.88848 -3.66276 -1.05252e-16 
-6.58192 -3.65799 1.62152e-17 
-6.26788 -3.67403 -2.26731e-17 
-5.95543 -3.67316 5.25299e-18 
-5.65095 -3.66649 2.38659e-18 
-5.34812 -3.66833 -8.21775e-18 
-5.04948 -3.66728 -1.54427e-17 
-4.73897 -3.68381 8.00439e-17 
-4.43605 -3.67431 4.61209e-17 
-4.13592 -3.67433 6.14602e-17 
-3.81369 -3.70295 5.88701e-16 
-3.49861 -3.69236 3.96237e-16 
-3.19538 -3.67007 -3.24026e-17 
-2.9015 -3.69088 1.3989e-15 
-2.66368 -3.56025 -4.95354e-15 
-2.41408 -3.65539 1.47289e-15 
-2.14655 -3.64113 -3.723e-15 
-1.84457 -3.69172 1.20976e-15 
-1.52223 -3.67191 -6.36938e-15 
-1.2236 -3.58905 -4.89888e-15 
-0.927935 -3.61044 -1.13934e-14 
-0.612737 -3.50316 3.91936e-14 
-0.289691 -3.70536 3.7519e-14 
0.0206212 -3.46444 -2.56568e-14 
0.3113 -3.623 -2.89019e-14 
0.662348 -3.5201 -3.63731e-14 
0.949838 -3.51486 -9.55889e-15 
1.25579 -3.65104 1.54373e-15 
1.56482 -3.61024 6.78022e-15 
1.84229 -3.65717 6.5273e-17 
2.12947 -3.65856 2.16328e-15 
2.43041 -3.71858 -3.17988e-15 
2.74244 -3.70219 8.11259e-16 
3.04012 -3.68364 -4.04971e-16 
3.33981 -3.67037 1.61675e-16 
3.63151 -3.66381 4.31603e-17 
3.94179 -3.6943 -3.75252e-16 
4.2426 -3.67258 6.64929e-17 
4.53899 -3.66846 4.91574e-17 
4.84065 -3.67552 -7.50819e-18 
5.14024 -3.66821 8.5009e-18 
5.45044 -3.68139 -1.32677e-17 
5.74626 -3.65713 4.70941e-17 
6.04818 -3.67481 1.40897e-17 
6.33581 -3.63695 3.33072e-17 
6.64064 -3.67583 -2.29045e-17 
6.93964 -3.65381 3.38675e-17 
7.24256 -3.66776 5.68823e-18 
7.54651 -3.66731 3.03648e-17 
7.84802 -3.66243 2.93624e-17 
8.14919 -3.65848 -1.3671e-18 
8.44893 -3.66687 9.69879e-17 
8.73832 -3.63211 -2.03255e-17 
9.05761 -3.69907 -1.32569e-16 
9.38432 -3.6758 8.22363e-17 
9.69897 -3.65148 -1.51086e-16 
10.0443 -3.71144 -1.08661e-16 
10.3803 -3.66397 3.27108e-17 
10.7395 -3.71232 3.23559e-16 
11.0709 -3.65477 6.63044e-16 
11.3713 -3.61786 1.83729e-16 
11.7156 -3.72211 1.62498e-15 
12 -3.61529 1.19013e-07 
-12 -3.32471 -1.06899e-07 
-11.6336 -3.34779 1.27459e-15 
-11.2918 -3.26368 7.13096e-16 
-10.9809 -3.3535 9.60282e-16 
-10.6597 -3.3077 1.15546e-15 
-10.3436 -3.35538 9.12444e-16 
-10.0246 -3.3168 6.9455e-16 
-9.71139 -3.33997 4.38059e-16 
-9.3976 -3.3716 3.14153e-16 
-9.08879 -3.33406 2.12291e-16 
-8.77991 -3.328 1.3246e-16 
-8.47049 -3.33589 1.09941e-16 
-8.16143 -3.33343 8.38746e-17 
-7.85202 -3.33054 4.68572e-17 
-7.54785 -3.31954 1.71888e-17 
-7.24517 -3.3259 -7.98163e-18 
-6.94425 -3.33047 -4.78219e-17 
-6.63974 -3.327 -9.23732e-17 
-6.33072 -3.34557 -1.54827e-16 
-6.0239 -3.34759 -2.38521e-16 
-5.71907 -3.33595 -3.53422e-16 
-5.41832 -3.33778 -5.11626e-16 
-5.12145 -3.33576 -7.14908e-16 
-4.82131 -3.36371 -9.69466e-16 
-4.51979 -3.35459 -1.34204e-15 
-4.21843 -3.34919 -1.84382e-15 
-3.90919 -3.39511 -2.39956e-15 
-3.59941 -3.38661 -3.10346e-15 
-3.29611 -3.36287 -4.00796e-15 
-2.9876 -3.35115 -4.03877e-15 
-2.6882 -3.23988 -4.65328e-15 
-2.39028 -3.28782 -3.60584e-15 
-2.09905 -3.31064 -2.63231e-15 
-1.81998 -3.37106 -1.15649e-15 
-1.53528 -3.31328 4.174e-15 
-1.25063 -3.2211 1.58472e-14 
-0.910259 -3.19247 7.59161e-15 
-0.591558 -3.03282 -8.22209e-14 
-0.300707 -3.19899 5.85119e-14 
0.0461639 -3.00164 1.6346e-13 
0.393056 -3.1226 -6.73671e-14 
0.684783 -3.00513 -4.75051e-14 
0.98666 -3.05832 -3.17298e-14 
1.25188 -3.26189 -8.84197e-15 
1.54496 -3.23688 -1.05588e-14 
1.83328 -3.29044 -1.86199e-16 
2.10145 -3.31649 4.27327e-15 
2.4034 -3.42607 4.56085e-15 
2.69988 -3.39224 5.58729e-15 
2.99318 -3.36666 4.32084e-15 
3.29418 -3.35262 3.68221e-15 
3.60041 -3.33344 2.98086e-15 
3.89904 -3.3749 2.28305e-15 
4.19875 -3.35097 1.80923e-15 
4.5024 -3.33831 1.35153e-15 
4.80144 -3.34799 9.88141e-16 
5.10096 -3.34002 7.49064e-16 
5.40526 -3.35954 5.1925e-16 
5.70882 -3.32373 3.69246e-16 
6.00962 -3.33672 2.33105e-16 
6.30527 -3.29687 1.65169e-16 
6.60564 -3.33979 9.59077e-17 
6.90507 -3.31957 4.61302e-17 
7.2119 -3.33413 9.32733e-18 
7.51639 -3.33629 -1.67139e-17 
7.82045 -3.32842 -4.42268e-17 
8.12507 -3.32307 -7.7824e-17 
8.43162 -3.32116 -9.52471e-17 
8.74706 -3.30693 -1.43464e-16 
9.06678 -3.37794 -1.87173e-16 
9.38662 -3.34351 -3.31364e-16 
9.70347 -3.31036 -4.76814e-16 
10.0164 -3.39436 -5.90912e-16 
10.3162 -3.31597 -1.00718e-15 
10.6423 -3.39461 -1.09098e-15 
10.9699 -3.33851 -1.12378e-15 
11.2952 -3.26484 -6.2116e-16 
11.6345 -3.37206 -1.26575e-15 
12 -3.31456 1.03661e-07 
-12 -3.00066 -6.66201e-08 
-11.6584 -3.03362 1.04421e-15 
-11.3122 -2.94579 -3.61546e-16 
-10.9624 -3.00363 3.35125e-16 
-10.6251 -2.97754 3.78649e-16 
-10.2965 -3.01149 4.58922e-16 
-9.97197 -2.9779 2.63848e-16 
-9.65581 -3.00373 1.94034e-16 
-9.35201 -3.02376 1.85195e-16 
-9.04354 -2.99228 1.00083e-16 
-8.73242 -2.99213 5.08183e-17 
-8.42533 -3.00232 4.66475e-17 
-8.11513 -3.00199 3.34534e-17 
-7.81228 -2.9928 9.75763e-19 
-7.50671 -2.9838 -1.51388e-17 
-7.20439 -2.99006 -2.08205e-17 
-6.90149 -2.99769 -2.76866e-17 
-6.5913 -3.00375 -4.11912e-17 
-6.28667 -3.0177 -7.02798e-17 
-5.98422 -3.01739 -1.12663e-16 
-5.68203 -3.00559 -1.56549e-16 
-5.38631 -3.00513 -2.12282e-16 
-5.08833 -3.00756 -2.91481e-16 
-4.79253 -3.03947 -4.49266e-16 
-4.49101 -3.02997 -5.61723e-16 
-4.192 -3.02042 -6.88602e-16 
-3.89946 -3.08215 -1.17697e-15 
-3.59674 -3.06477 -1.42798e-15 
-3.29077 -3.04802 -1.62266e-15 
-2.98416 -3.02598 -1.83239e-15 
-2.66482 -2.91851 -8.60578e-16 
-2.36346 -2.95651 -1.67311e-15 
-2.08967 -2.96459 -3.31887e-16 
-1.79803 -3.00573 -6.81691e-16 
-1.53218 -2.91036 1.86424e-15 
-1.17864 -2.87025 4.48361e-15 
-0.867546 -2.73142 2.20904e-14 
-0.535719 -2.54149 -1.05376e-13 
-0.211971 -2.6688 1.30153e-13 
-0.0496881 -2.22735 -2.50993e-14 
0.231534 -2.59664 -1.16e-13 
0.545178 -2.52469 2.20922e-14 
0.901163 -2.60253 -2.57419e-14 
1.24326 -2.7923 9.58637e-15 
1.5112 -2.8567 -1.3242e-15 
1.80772 -2.92529 -3.02943e-16 
2.09309 -2.93114 1.90975e-15 
2.36731 -3.11402 3.51568e-15 
2.66041 -3.07439 1.92951e-15 
2.96115 -3.03286 1.80739e-15 
3.2541 -3.02986 1.53077e-15 
3.55789 -3.0217 1.10844e-15 
3.8787 -3.04671 1.12619e-15 
4.18196 -3.02615 7.99051e-16 
4.48649 -3.01457 5.18846e-16 
4.7918 -3.01793 4.021e-16 
5.09099 -3.01065 3.07913e-16 
5.39115 -3.03425 2.50367e-16 
5.6848 -2.99315 1.4683e-16 
5.98747 -3.00384 1.05529e-16 
6.29527 -2.97147 5.98059e-17 
6.60562 -3.00287 4.3592e-17 
6.91833 -2.99365 2.69279e-17 
7.22471 -3.0037 1.93144e-17 
7.52727 -3.0033 1.19268e-17 
7.83533 -2.99757 -1.68061e-18 
8.13264 -2.9836 -1.7563e-17 
8.4371 -2.992 -5.97733e-17 
8.74342 -2.97245 -5.74703e-17 
9.05843 -3.05096 -1.23379e-16 
9.37398 -3.0108 -1.70762e-16 
9.67413 -2.96148 -1.53047e-16 
9.9926 -3.04084 -3.3371e-16 
10.3207 -2.98277 -4.28611e-16 
10.6486 -3.05917 -6.06931e-16 
10.9791 -3.00004 -1.85378e-16 
11.3269 -2.94364 3.83435e-16 
11.6596 -3.05817 -1.00859e-15 
12 -2.99035 5.89201e-08 
-12 -2.6947 -4.23022e-08 
-11.6406 -2.70626 5.06201e-16 
-11.313 -2.60868 -8.71049e-16 
-10.9849 -2.67994 -2.87813e-16 
-10.6492 -2.65251 7.40992e-18 
-10.3101 -2.67753 1.29042e-16 
-9.97972 -2.65356 5.56833e-17 
-9.64717 -2.66677 2.60446e-17 
-9.32923 -2.67779 6.92505e-17 
-9.01127 -2.65967 3.78133e-17 
-8.69916 -2.65822 2.18214e-17 
-8.38509 -2.67566 2.52399e-17 
-8.07827 -2.66631 7.47204e-18 
-7.76829 -2.66201 -1.65599e-17 
-7.45869 -2.65228 -2.28548e-17 
-7.15332 -2.65946 -1.66778e-17 
-6.84477 -2.67546 -9.64043e-18 
-6.53864 -2.67858 -9.65561e-18 
[...]
POINT_DATA 1978 
VECTORS vectors float
0.0116223 -0.0133328 0.999844 
0.0151181 -0.0300593 0.999437 
0.0123868 -0.0328379 0.999389 
0.0119888 -0.0231754 0.999664 
0.0121065 -0.0155643 0.99981 
0.0124007 -0.00934047 0.999884 
0.0128724 -0.0056465 0.999906 
0.0128194 -0.00321633 0.999917 
0.0130757 -0.00233633 0.999916 
0.0135904 -0.00200372 0.99991 
0.0138802 -0.00180396 0.999906 
0.0139147 -0.00167844 0.999906 
0.0140274 -0.00148327 0.999905 
0.0140496 -0.00116941 0.999905 
0.0141528 -0.000734282 0.999904 
0.0141235 -0.000281632 0.999904 
0.01416 0.000241241 0.999903 
0.0140598 0.00092995 0.999903 
0.0138212 0.00173876 0.999907 
0.0137736 0.00287264 0.999905 
0.0138725 0.00437829 0.999898 
0.0139606 0.00630643 0.999887 
0.0139204 0.00886339 0.999868 
0.0137126 0.0122488 0.999835 
0.0136113 0.017095 0.999765 
0.013236 0.0236501 0.999637 
0.0125872 0.0325388 0.999396 
0.0121534 0.0456669 0.998887 
0.0116592 0.0627181 0.997968 
0.0113054 0.0839746 0.996409 
0.00997464 0.113381 0.993506 
0.00866538 0.141476 0.989911 
0.00741423 0.186898 0.982358 
0.00477911 0.243879 0.9698 
0.00147907 0.332608 0.94307 
-0.00227789 0.446996 0.894539 
-0.00526547 0.566189 0.824262 
-0.00779075 0.716405 0.69764 
-0.00637341 0.852817 0.522159 
-0.000861741 0.999948 0.00868767 
0.00649956 0.899192 -0.437489 
0.00792046 0.751338 -0.659867 
0.0061816 0.60794 -0.793962 
0.00264522 0.447229 -0.894421 
-0.00132595 0.349093 -0.937093 
-0.00402637 0.268691 -0.963224 
-0.00645188 0.20919 -0.977859 
-0.00793263 0.154185 -0.988014 
-0.00950802 0.112264 -0.993638 
-0.0110301 0.083573 -0.996446 
-0.0120959 0.0620455 -0.998005 
-0.0125004 0.0460257 -0.998867 
-0.0126485 0.0338562 -0.999351 
-0.013083 0.023961 -0.999632 
-0.013438 0.0171024 -0.999768 
-0.0137136 0.0122571 -0.999835 
-0.0137713 0.00872672 -0.999871 
-0.0137794 0.00623102 -0.99989 
-0.0139396 0.00428154 -0.999898 
-0.0141235 0.00292644 -0.9999 
-0.0142509 0.00179011 -0.999901 
-0.0141039 0.000937886 -0.999904 
-0.0142148 0.000290943 -0.999903 
-0.0140855 -0.000304311 -0.999905 
-0.0141468 -0.000781737 -0.999904 
-0.0141738 -0.00117435 -0.999903 
-0.0141262 -0.00155861 -0.999903 
-0.014285 -0.00169978 -0.999901 
-0.0142506 -0.00186624 -0.999901 
-0.0135152 -0.00212245 -0.999911 
-0.0133942 -0.00214486 -0.999912 
-0.0132337 -0.00304538 -0.999912 
-0.0125188 -0.00504916 -0.999913 
-0.0121095 -0.0090633 -0.99989 
-0.0114723 -0.0145358 -0.999833 
-0.0119133 -0.0232463 -0.999663 
-0.0123461 -0.0322583 -0.999409 
-0.0147436 -0.0308712 -0.999418 
-0.0117834 -0.0130626 -0.999846 
0.00637555 -0.0188649 0.999807 
0.0100504 -0.0222475 0.999715 
0.0145668 -0.0272746 0.999536 
0.0148715 -0.0249511 0.999594 
0.0156927 -0.0173078 0.999743 
0.0156798 -0.0112019 0.999829 
0.016807 -0.00696234 0.999852 
0.016856 -0.00430833 0.999863 
0.0170655 -0.00271177 0.999863 
0.0174802 -0.0020369 0.999862 
0.0180608 -0.00175157 0.99985 
0.0181083 -0.0015349 0.999849 
0.018196 -0.00131161 0.999847 
0.0181655 -0.00104225 0.999848 
0.0184483 -0.000664707 0.999844 
0.0181561 -0.000202316 0.999849 
0.0181309 0.000333297 0.99985 
0.017928 0.000979489 0.999855 
0.0176877 0.00187606 0.999856 
0.0177955 0.00310169 0.99985 
0.0179844 0.00467719 0.999841 
0.0179103 0.0067238 0.99983 
0.0177436 0.00947282 0.999811 
0.0171099 0.0134227 0.999777 
0.0170336 0.018798 0.999691 
0.0164543 0.0260559 0.999538 
0.0149612 0.0368702 0.999222 
0.0144697 0.0516614 0.998574 
0.0137864 0.0711208 0.997386 
0.0119552 0.0963496 0.995287 
0.0126761 0.12332 0.992303 
0.00894396 0.160159 0.987062 
0.00651858 0.20819 0.978083 
0.0030909 0.282837 0.959175 
6.70264e-05 0.387363 0.921941 
-0.00243891 0.513239 0.858256 
-0.003982 0.660624 0.750708 
-0.00458471 0.820979 0.570925 
-0.00301332 0.952771 0.303609 
-0.00159126 0.99987 -0.0144714 
0.000991921 0.950565 -0.310464 
0.0026257 0.805012 -0.593238 
0.00283597 0.65219 -0.758057 
0.00157402 0.506332 -0.862347 
-0.000891655 0.380084 -0.924968 
-0.00342592 0.285831 -0.958289 
-0.00624286 0.214468 -0.976725 
-0.00807834 0.157165 -0.987553 
-0.0110354 0.113289 -0.993517 
-0.0128047 0.0831716 -0.996467 
-0.0146115 0.0616447 -0.998005 
-0.0155718 0.0456338 -0.99885 
-0.0155367 0.0326358 -0.99936 
-0.0167406 0.0235027 -0.999597 
-0.0173462 0.0169677 -0.999719 
-0.0174718 0.0120885 -0.999788 
-0.0177721 0.00858029 -0.999819 
-0.0176831 0.00597622 -0.999839 
-0.0183583 0.00417428 -0.999836 
-0.0182033 0.00278031 -0.999842 
-0.0188773 0.00175949 -0.999836 
-0.0179514 0.00089509 -0.999852 
-0.0186227 0.000227102 -0.99984 
-0.0182655 -0.000329186 -0.999847 
-0.0183325 -0.000773685 -0.999845 
-0.0185174 -0.00112055 -0.999841 
-0.0185321 -0.0013717 -0.99984 
-0.0185516 -0.0016122 -0.999838 
-0.0192884 -0.00178474 -0.999828 
-0.0171051 -0.00205554 -0.999863 
-0.0174236 -0.00273186 -0.999859 
-0.0175401 -0.00415452 -0.999855 
-0.0156873 -0.0067212 -0.999867 
-0.0161501 -0.0110736 -0.999826 
-0.0146056 -0.0177186 -0.999752 
-0.0154946 -0.0251242 -0.99958 
-0.0147319 -0.0276257 -0.999524 
-0.00971016 -0.021844 -0.999727 
-0.00646087 -0.0186696 -0.99981 
0.00682396 -0.0181657 0.999817 
0.0137426 -0.0216778 0.999684 
0.0192951 -0.0277904 0.999446 
0.0207336 -0.0236887 0.999517 
0.0219236 -0.0169724 0.999634 
0.0225793 -0.0113571 0.999694 
0.023733 -0.00756368 0.999702 
0.0239569 -0.00489207 0.999716 
0.0240532 -0.00311742 0.999723 
0.024825 -0.00225904 0.999702 
0.0248907 -0.00173925 0.999703 
0.0247874 -0.00137078 0.999706 
0.0247372 -0.0011162 0.999708 
0.0246286 -0.000917287 0.999711 
0.0246816 -0.000638063 0.99971 
0.0245395 -0.000241993 0.999713 
0.0245446 0.000279715 0.999712 
0.0244951 0.00095878 0.999714 
0.0244143 0.00183688 0.999714 
0.0243138 0.00297627 0.999714 
0.0242715 0.00446429 0.99971 
0.0241907 0.00641853 0.999701 
0.0239871 0.0090458 0.999688 
0.0238081 0.0127712 0.999646 
0.0234365 0.017782 0.999582 
0.0227626 0.0245603 0.999455 
0.0218235 0.0342763 0.999185 
0.020671 0.0474997 0.998672 
0.0191824 0.0653886 0.997689 
0.0168326 0.0900672 0.995811 
0.0143215 0.123474 0.992259 
0.0111346 0.166566 0.985982 
0.00778381 0.223802 0.974619 
0.00401879 0.29428 0.955725 
0.000342635 0.390837 0.920474 
-0.00260194 0.50681 0.862064 
-0.00444841 0.66354 0.748132 
-0.0047584 0.829032 0.559163 
-0.00413904 0.952168 0.305476 
-0.00201784 0.998406 -0.055995 
0.00046347 0.923678 -0.383117 
0.00163758 0.787531 -0.616263 
0.0020004 0.640133 -0.768265 
0.00150866 0.512683 -0.858591 
-0.0010322 0.394353 -0.918971 
-0.00441432 0.297207 -0.954818 
-0.00812178 0.224718 -0.974405 
-0.0113635 0.165001 -0.986242 
-0.0149896 0.12241 -0.99238 
-0.0171949 0.0901421 -0.995795 
-0.0191405 0.0663715 -0.997626 
-0.0205969 0.0484007 -0.99863 
-0.0215145 0.0352029 -0.99916 
-0.0224711 0.0254475 -0.99944 
-0.0232783 0.0183931 -0.999574 
-0.0237414 0.0132351 -0.999642 
-0.0239757 0.00936091 -0.999685 
-0.0241554 0.00658057 -0.999698 
-0.0243217 0.00456248 -0.999711 
-0.0243028 0.00307499 -0.999713 
-0.0246521 0.00197998 -0.999709 
-0.0245873 0.00108485 -0.999709 
-0.0247994 0.000380772 -0.999707 
-0.0247297 -0.00020046 -0.999708 
-0.0247699 -0.000637545 -0.999707 
-0.0247858 -0.000934447 -0.999707 
-0.02465 -0.00112798 -0.999713 
-0.0247968 -0.00135502 -0.999706 
-0.0250928 -0.00168594 -0.999698 
-0.0243048 -0.00218637 -0.999717 
-0.0244417 -0.00310633 -0.999711 
-0.0243175 -0.00487011 -0.999708 
-0.0229241 -0.0072533 -0.999726 
-0.0231872 -0.0110502 -0.999686 
-0.0215705 -0.0164557 -0.999644 
-0.0210146 -0.0234873 -0.999519 
-0.0192674 -0.0280191 -0.99944 
-0.0137929 -0.0217479 -0.999682 
-0.00670711 -0.0176124 -0.999828 
0.00489145 -0.0178514 0.999834 
0.0120182 -0.0211811 0.999718 
0.015797 -0.0287454 0.999478 
0.018347 -0.0239223 0.999563 
0.0190108 -0.0172326 0.999687 
0.0202635 -0.0114827 0.999746 
0.0203918 -0.00765818 0.999781 
0.0212776 -0.00502781 0.999777 
0.0219978 -0.00322824 0.999766 
0.0215663 -0.00218436 0.999781 
0.0214418 -0.00156213 0.999784 
0.0215696 -0.00114627 0.999782 
0.0214945 -0.000907927 0.999784 
0.0211976 -0.000767102 0.99979 
0.0209402 -0.000529115 0.999795 
0.0210328 -0.000126341 0.999794 
0.0211168 0.000446104 0.999792 
0.0211472 0.00119405 0.99979 
0.021253 0.00211682 0.999787 
0.0211367 0.00329625 0.999786 
0.0208018 0.00486342 0.999786 
0.0206183 0.00693835 0.999778 
0.020505 0.00978751 0.999756 
0.0207819 0.0135927 0.999706 
0.0201823 0.0189156 0.999632 
0.0194477 0.0261547 0.999484 
0.0196152 0.0354915 0.999192 
0.018246 0.0488108 0.998656 
0.0165757 0.0670772 0.997626 
0.0144313 0.0924148 0.995631 
0.0108495 0.12946 0.991539 
0.00875509 0.17413 0.984702 
0.00622723 0.229709 0.973252 
0.00325476 0.304545 0.95251 
0.000421041 0.393817 0.919204 
-0.0022089 0.541554 0.840674 
-0.0032422 0.69559 0.718432 
-0.00322803 0.858128 0.5134 
-0.00294237 0.974141 0.225812 
-0.00270869 0.998046 0.0619883 
-0.00162653 0.96902 -0.246886 
-0.00114535 0.850294 -0.526284 
-0.000308293 0.687211 -0.72646 
0.000192355 0.520084 -0.854127 
-0.00120495 0.407512 -0.913214 
-0.00363254 0.308396 -0.951264 
-0.00623189 0.230773 -0.973007 
-0.0105455 0.172684 -0.984935 
-0.0126529 0.13007 -0.991438 
-0.0143834 0.0952006 -0.99537 
-0.015955 0.0706041 -0.997391 
-0.0172213 0.0518893 -0.998519 
-0.018791 0.0368575 -0.999162 
-0.019518 0.0268535 -0.999462 
-0.0198164 0.0193438 -0.999631 
-0.0202392 0.0137883 -0.999718 
-0.0205811 0.0098955 -0.999751 
-0.0211188 0.00692922 -0.99977 
-0.0206526 0.00490897 -0.999787 
-0.0208227 0.00331265 -0.999795 
-0.020519 0.00212877 -0.999802 
-0.0211446 0.00117127 -0.999791 
-0.0211163 0.000410566 -0.999792 
-0.0213147 -0.000167668 -0.999788 
-0.021356 -0.000568521 -0.999787 
-0.0213821 -0.000809218 -0.999786 
-0.0212058 -0.000937297 -0.999787 
-0.0212425 -0.00114409 -0.999791 
-0.0212214 -0.00155948 -0.99979 
-0.0225194 -0.00224062 -0.999759 
-0.0216636 -0.00336185 -0.999775 
-0.0205448 -0.00525362 -0.999791 
-0.0212663 -0.00781722 -0.999759 
-0.0199365 -0.0118738 -0.999747 
-0.0202457 -0.0175245 -0.999658 
-0.0182771 -0.0244553 -0.99955 
-0.0156325 -0.0287441 -0.99948 
-0.0122943 -0.021128 -0.999716 
-0.00492242 -0.0174372 -0.999841 
0.00306407 -0.0159098 0.999872 
0.00897242 -0.0219648 0.999733 
0.010872 -0.030252 0.999499 
0.0132263 -0.0254077 0.999609 
0.0137973 -0.0185272 0.999747 
0.0147655 -0.0122542 0.999835 
0.0150441 -0.00836514 0.999866 
0.0154956 -0.00540464 0.999881 
0.0157985 -0.00327462 0.999888 
0.015538 -0.00204808 0.999893 
0.0154007 -0.00133706 0.999896 
0.0155862 -0.00091263 0.999893 
0.0152578 -0.000739797 0.999898 
0.0150872 -0.000662243 0.999901 
0.0148465 -0.000440291 0.999905 
0.0149469 -8.19559e-06 0.999903 
0.0151654 0.000620881 0.9999 
0.015146 0.0014112 0.999899 
0.0151995 0.00237934 0.999896 
0.0150757 0.00364074 0.999894 
0.014655 0.00530617 0.999893 
0.0145404 0.00752645 0.99988 
0.0144499 0.0105438 0.999852 
0.0147694 0.0144366 0.999804 
0.0143237 0.020066 0.999711 
0.0138788 0.0278678 0.999528 
0.0140586 0.037957 0.999198 
0.0128692 0.0523814 0.99856 
0.0116891 0.0724907 0.997316 
0.00989325 0.100442 0.99491 
0.00698411 0.142992 0.989715 
0.00530286 0.187942 0.982182 
0.00377811 0.249555 0.968368 
0.00181705 0.3186 0.947906 
-0.000438475 0.446383 0.894853 
-0.00186778 0.587827 0.808996 
-0.00244861 0.754622 0.656149 
-0.00352157 0.908329 0.418193 
-0.00305746 0.936282 0.351183 
-0.00436025 0.999288 -0.0365805 
-0.00292496 0.955463 -0.295025 
-0.00282547 0.860874 -0.50879 
-0.00163121 0.758336 -0.651861 
-0.000911049 0.549243 -0.835673 
-0.00141381 0.409477 -0.912335 
-0.00270127 0.313406 -0.949632 
-0.0041267 0.238657 -0.971112 
-0.0075094 0.175748 -0.984423 
-0.0089821 0.131185 -0.991333 
-0.0100095 0.0960157 -0.995348 
-0.0114344 0.0702268 -0.997481 
-0.0127917 0.0501823 -0.998673 
-0.0135531 0.0363241 -0.999263 
-0.0138978 0.0262129 -0.999575 
-0.0141765 0.018931 -0.999736 
-0.0144039 0.0136992 -0.999817 
-0.0146021 0.00971759 -0.999861 
-0.0148948 0.00695441 -0.999879 
-0.0146746 0.00481266 -0.999895 
-0.0149527 0.00327748 -0.999897 
-0.0145619 0.00206715 -0.999904 
-0.0151828 0.00112076 -0.999902 
-0.0150286 0.000373741 -0.999902 
-0.0151157 -0.000177675 -0.999901 
-0.0152835 -0.000543173 -0.999898 
-0.0149494 -0.000695929 -0.999903 
-0.0150502 -0.000769018 -0.999902 
-0.0151861 -0.000975389 -0.999897 
-0.0147618 -0.0014253 -0.999905 
-0.0165931 -0.00219244 -0.999875 
-0.0155192 -0.00334321 -0.99989 
-0.0149806 -0.00554037 -0.999888 
-0.0157897 -0.00847597 -0.999856 
-0.0144035 -0.0126342 -0.999833 
-0.014894 -0.0186304 -0.999732 
-0.0131572 -0.0258916 -0.999595 
-0.0107831 -0.029455 -0.999523 
-0.00848888 -0.0207887 -0.999763 
-0.00353682 -0.0168862 -0.999856 
0.00243815 -0.0145428 0.999893 
0.00495653 -0.0202408 0.999798 
0.00668112 -0.0292389 0.999561 
0.00844691 -0.028228 0.999582 
0.00921986 -0.0214258 0.999744 
0.0100333 -0.0146088 0.999859 
0.0102546 -0.0100384 0.999913 
0.0106243 -0.00659289 0.999938 
0.0107025 -0.00395619 0.999951 
0.0106204 -0.00235841 0.999956 
0.0104131 -0.0013999 0.99996 
0.0105152 -0.000839409 0.999959 
0.010277 -0.000639348 0.999962 
0.0101777 -0.00063653 0.999963 
0.010045 -0.000538856 0.999964 
0.00993637 -0.00019319 0.999965 
0.0101246 0.000371064 0.999963 
0.0101624 0.00110556 0.999962 
0.01013 0.00202467 0.999961 
0.0100833 0.00316723 0.999959 
0.0098075 0.00463044 0.999955 
0.00965363 0.00660259 0.999946 
0.00959651 0.0092128 0.999926 
0.00966789 0.0128323 0.999885 
0.00968635 0.0174988 0.999815 
0.00938738 0.0242045 0.999678 
0.00939872 0.033866 0.999397 
0.00905051 0.0458462 0.998923 
0.00832401 0.0638529 0.997941 
0.00734067 0.0886348 0.996053 
0.0056455 0.124478 0.992223 
0.00358791 0.174707 0.984631 
0.00244849 0.236631 0.971613 
0.00103765 0.299268 0.954187 
0.000229073 0.387957 0.921693 
-0.00131153 0.543249 0.839581 
-0.00261798 0.715997 0.698096 
-0.00339044 0.830647 0.556772 
-0.00316229 0.9865 0.16355 
0.000538343 0.999974 -0.00150519 
-0.00390223 0.972402 -0.233179 
-0.00247791 0.945161 -0.326558 
-0.00378895 0.887487 -0.460779 
-0.00128581 0.600789 -0.799411 
-0.00136664 0.443125 -0.896474 
-0.00191214 0.31951 -0.947601 
-0.00251655 0.24769 -0.968854 
-0.00483095 0.182561 -0.983201 
-0.00620254 0.133511 -0.991042 
-0.0065006 0.0992464 -0.995058 
-0.00765702 0.0728924 -0.997327 
-0.00880061 0.0530577 -0.998566 
-0.00909735 0.0379973 -0.999253 
-0.00931282 0.0273914 -0.999597 
-0.009453 0.0197454 -0.999775 
-0.00952371 0.0143053 -0.999867 
-0.00973965 0.0102955 -0.999914 
-0.0096808 0.00729603 -0.999941 
-0.00990708 0.00519808 -0.999952 
-0.0099395 0.00352933 -0.999959 
-0.0098703 0.00231294 -0.999963 
-0.0101104 0.00126726 -0.999963 
-0.0101494 0.000506126 -0.999963 
-0.0100429 -0.000109085 -0.999964 
-0.0103447 -0.000497367 -0.999961 
-0.00979471 -0.000642826 -0.999967 
-0.0100899 -0.000631109 -0.999964 
-0.00989616 -0.000740113 -0.999969 
-0.0097254 -0.00117412 -0.999967 
-0.0109702 -0.00207626 -0.999953 
-0.0106465 -0.00349388 -0.999953 
-0.0100928 -0.00581455 -0.999948 
-0.0110116 -0.00890123 -0.999916 
-0.00999279 -0.013231 -0.999879 
-0.0102648 -0.0193395 -0.999777 
-0.00894906 -0.0268955 -0.999615 
-0.00706469 -0.0304911 -0.999525 
-0.00561548 -0.021764 -0.999762 
-0.00229805 -0.0171804 -0.999854 
0.00188785 -0.016326 0.999868 
0.00327743 -0.0215356 0.99978 
0.00497324 -0.0317714 0.999498 
0.00557343 -0.0266966 0.999644 
0.0065077 -0.0193138 0.999809 
0.00674389 -0.0133655 0.999904 
0.00691704 -0.00890208 0.999952 
0.00708525 -0.00564722 0.999975 
0.0069273 -0.00324477 0.999986 
0.00680595 -0.00179522 0.99999 
0.0066539 -0.000945486 0.999992 
0.00649599 -0.000585999 0.999994 
0.00643536 -0.000582971 0.999994 
0.00636359 -0.000637815 0.999994 
0.00632076 -0.000464775 0.999995 
0.00628444 -2.45861e-06 0.999995 
0.00631879 0.000646127 0.999994 
0.0063499 0.00146157 0.999993 
0.00629356 0.00247251 0.999991 
0.00616104 0.00372006 0.999988 
0.00606703 0.00539337 0.999981 
0.00588799 0.00761197 0.999968 
0.00597427 0.0106213 0.99994 
0.00588914 0.014621 0.99989 
0.00597878 0.0200667 0.999796 
0.00608615 0.0282635 0.999597 
0.00579371 0.0387336 0.999249 
0.00576393 0.0537414 0.998554 
0.00517075 0.0757473 0.99713 
0.00433933 0.106079 0.994362 
0.00291138 0.14718 0.989124 
0.00165243 0.209401 0.977849 
0.000348432 0.305612 0.952173 
-0.000913923 0.447209 0.894445 
-0.00265461 0.61091 0.791707 
-0.00280247 0.735642 0.677367 
0.000668591 0.824453 0.565908 
0.00774563 0.865132 0.50147 
-0.000997562 0.928865 0.370356 
0.00739331 0.948268 0.317278 
-0.00242969 0.951958 -0.30613 
-0.0026943 0.865847 -0.500283 
-0.00358107 0.792225 -0.610206 
-0.00197714 0.697214 -0.716857 
-0.00129428 0.517621 -0.85562 
-0.0013515 0.38664 -0.922246 
-0.00141338 0.297372 -0.954779 
-0.00320872 0.1848 -0.982787 
-0.00410723 0.134764 -0.990885 
-0.00406665 0.0996603 -0.995031 
-0.00498366 0.0722393 -0.997392 
-0.00574546 0.051539 -0.998673 
-0.00590553 0.0369038 -0.999317 
-0.00600019 0.0262728 -0.999652 
-0.00590363 0.0189801 -0.999817 
-0.00594266 0.0137427 -0.999902 
-0.00606684 0.00998366 -0.999944 
-0.00582517 0.00711737 -0.999974 
-0.0062653 0.00495749 -0.999982 
-0.00612966 0.003403 -0.99999 
-0.00644132 0.0021252 -0.999991 
-0.00631448 0.00118025 -0.999994 
-0.00644403 0.000405309 -0.999994 
-0.00622743 -0.000189036 -0.999995 
-0.00642221 -0.000544726 -0.999994 
-0.00602911 -0.000639882 -0.999996 
-0.00628315 -0.00056043 -0.999992 
-0.00591079 -0.00059316 -0.999999 
-0.00608857 -0.0010683 -0.999994 
-0.00714482 -0.00204212 -0.999988 
-0.00682247 -0.00351576 -0.999986 
-0.00671072 -0.00621205 -0.999974 
-0.00732614 -0.00974089 -0.999942 
-0.00666257 -0.0144693 -0.999889 
-0.00687048 -0.0205916 -0.999781 
-0.00571155 -0.0276953 -0.999616 
-0.00445547 -0.0309597 -0.999525 
-0.00355832 -0.0218844 -0.999769 
-0.00165471 -0.0174894 -0.99985 
0.0010952 -0.0173626 0.999853 
0.00194583 -0.0215245 0.999781 
0.00306675 -0.0315683 0.999509 
0.00333824 -0.028103 0.999618 
0.00400535 -0.0210256 0.999785 
0.00409457 -0.0145136 0.999902 
0.00420571 -0.00974731 0.999959 
0.00420475 -0.00613108 0.999988 
0.00399755 -0.00345542 1 
0.00378729 -0.00176185 1.00001 
0.0037104 -0.000839788 1.00001 
0.00341956 -0.000482005 1.00001 
0.00339795 -0.000561036 1.00001 
0.00336002 -0.000688346 1.00001 
0.00338222 -0.000568854 1.00001 
0.00339844 -0.000140147 1.00001 
0.00328836 0.000521514 1.00001 
0.00331866 0.00132333 1.00001 
0.00331969 0.00228871 1.00001 
0.00316443 0.00350791 1.00001 
0.00317586 0.0051126 0.999993 
0.00303852 0.00717089 0.999984 
0.00307263 0.00998905 0.999959 
0.00299424 0.0137494 0.999916 
0.00306253 0.0189362 0.999833 
0.00343258 0.0263482 0.999659 
0.00315305 0.0364943 0.999347 
0.00333421 0.0514165 0.998688 
0.00314683 0.0723497 0.997389 
0.00263727 0.100675 0.994936 
0.00173891 0.144257 0.989556 
0.000911674 0.20572 0.978629 
-0.000164747 0.298164 0.954531 
-0.0012268 0.420809 0.907163 
-0.00240151 0.596602 0.80254 
0.000244626 0.713674 0.700478 
0.00614587 0.800547 0.599237 
0.0115773 0.989136 0.146529 
0.0108245 0.992896 0.118467 
0.00929169 0.996642 0.0813401 
0.00265525 0.999744 -0.0220057 
-0.00253139 0.995053 -0.0993117 
-0.00261326 0.722266 -0.691618 
-0.00227865 0.609183 -0.793035 
-0.00222052 0.568738 -0.82252 
-0.00136445 0.442099 -0.896979 
-0.00103567 0.344215 -0.938906 
-0.00178874 0.221593 -0.975156 
-0.00233688 0.155074 -0.987921 
-0.00238558 0.110171 -0.993925 
-0.00284619 0.0736476 -0.997297 
-0.003355 0.0527084 -0.99862 
-0.00334084 0.0378098 -0.999295 
-0.00332851 0.0271021 -0.999642 
-0.00311953 0.0194309 -0.999821 
-0.0031079 0.0140966 -0.99991 
-0.00310301 0.0102659 -0.999957 
-0.00289944 0.0074349 -0.999982 
-0.00325666 0.00526506 -0.999993 
-0.00312921 0.00362041 -1 
-0.00352881 0.00237306 -1 
-0.00333088 0.00135201 -1.00001 
-0.00345597 0.000534469 -1.00001 
-0.00331046 -0.000109092 -1.00001 
-0.0032918 -0.00054085 -1.00001 
-0.0031873 -0.000675644 -1.00001 
-0.00315673 -0.000545088 -1.00001 
-0.00306212 -0.000454487 -1.00001 
-0.0031478 -0.000798463 -1.00001 
-0.00388297 -0.00183163 -1.00001 
-0.00405385 -0.00361985 -1 
-0.0039805 -0.00641159 -0.999987 
-0.00458825 -0.00993599 -0.999956 