# vtk DataFile Version 3.0 
Exported using Morpho https://github.com/Morpho-lang/morpho 
ASCII 
DATASET UNSTRUCTURED_GRID 

POINTS 1978 float 
-12 -4.00003 -2.04016e-09 
-11.5928 -4 -6.6204e-09 
-11.293 -4 3.54183e-09 
-10.9613 -4 -1.21307e-08 
-10.6576 -4 -2.66462e-09 
-10.3255 -4 9.07749e-10 
-10.0004 -4 1.18849e-09 
-9.68022 -4 9.19568e-10 
-9.32479 -4 5.50284e-10 
-8.99533 -4 -1.86107e-09 
-8.68918 -4 -1.564e-09 
-8.36858 -4 -1.99388e-09 
-8.06541 -4 -1.63323e-09 
-7.76708 -4 -1.27057e-09 
-7.47172 -4 5.9129e-10 
-7.18268 -4 -2.25605e-10 
-6.87173 -4 5.68321e-10 
-6.57026 -4 4.3242e-10 
-6.27152 -4 9.95894e-10 
-5.97248 -4 1.76354e-09 
-5.67339 -4 3.12341e-09 
-5.37482 -4 7.64482e-09 
-5.08622 -4 1.73101e-08 
-4.79174 -4 3.01149e-08 
-4.49759 -4 4.62982e-08 
-4.19802 -4 7.41139e-08 
-3.87966 -4 1.19816e-07 
-3.54463 -4 1.76825e-07 
-3.19602 -4 2.57511e-07 
-2.84682 -4 3.31056e-07 
-2.50145 -4 3.78718e-07 
-2.20036 -4 3.75997e-07 
-1.94117 -4 3.55107e-07 
-1.71472 -4 4.12227e-07 
-1.4034 -4 4.08711e-07 
-1.18407 -4 3.06219e-07 
-0.88374 -4 2.02182e-07 
-0.671001 -4 -1.11627e-07 
-0.317049 -4 -6.95556e-08 
-0.0665041 -3.99997 -1.77537e-07 
0.424054 -4 3.70266e-07 
0.548242 -3.99999 -8.03389e-08 
0.871628 -4 -2.0022e-07 
1.18142 -4 -3.23771e-07 
1.39265 -4 -3.38769e-07 
1.6191 -4 -3.95237e-07 
1.90551 -4 -4.30813e-07 
2.18752 -4 -4.2114e-07 
2.50804 -4 -4.21398e-07 
2.9033 -4 -3.51089e-07 
3.24303 -4 -2.51037e-07 
3.60796 -4 -1.78939e-07 
3.94926 -4 -1.1689e-07 
4.24481 -4 -7.01344e-08 
4.52657 -4 -4.52329e-08 
4.80346 -4 -2.82849e-08 
5.10098 -4 -1.56063e-08 
5.39056 -4 -8.07788e-09 
5.68708 -4 -3.68097e-09 
5.98479 -4 -1.76836e-09 
6.28025 -4 -7.52252e-10 
6.57609 -4 -7.52929e-10 
6.87225 -4 1.28758e-10 
7.15712 -4 -6.7299e-10 
7.44552 -4 2.24388e-10 
7.75303 -4 5.98532e-11 
8.05997 -4 1.21498e-09 
8.35991 -4 9.50413e-10 
8.6735 -4 5.40328e-10 
8.95377 -4 2.07895e-09 
9.30917 -4 1.87026e-09 
9.62152 -4 -1.20969e-09 
9.91758 -4 1.03962e-09 
10.2698 -4 -2.01557e-09 
10.5769 -4 3.72431e-09 
10.9861 -4 1.41904e-08 
11.3097 -4 -6.93558e-09 
11.5986 -4 7.53298e-09 
12 -4.00003 1.7201e-09 
-12 -3.63785 9.92493e-09 
-11.6922 -3.71627 1.14627e-10 
-11.3422 -3.61832 -2.91419e-10 
-11.0351 -3.66041 -4.50406e-10 
-10.7097 -3.63737 -3.09687e-10 
-10.3983 -3.66986 3.55904e-11 
-10.0644 -3.66288 9.13772e-11 
-9.74118 -3.66009 -5.3645e-12 
-9.41005 -3.69014 -9.27251e-11 
-9.06839 -3.67175 -2.17543e-11 
-8.75162 -3.65533 6.56426e-11 
-8.43638 -3.67754 1.3618e-10 
-8.11285 -3.65697 2.01419e-10 
-7.80409 -3.65062 2.86833e-10 
-7.49782 -3.64792 4.01578e-10 
-7.20193 -3.64839 5.28907e-10 
-6.896 -3.67767 6.6809e-10 
-6.58672 -3.67125 9.33037e-10 
-6.27867 -3.66867 1.39746e-09 
-5.97659 -3.67126 1.90206e-09 
-5.67397 -3.6752 2.81981e-09 
-5.37876 -3.6682 3.67327e-09 
-5.08576 -3.66705 4.25283e-09 
-4.78613 -3.66949 4.54286e-09 
-4.47851 -3.65958 6.17921e-09 
-4.15508 -3.64872 7.66211e-09 
-3.82065 -3.62838 1.03587e-08 
-3.46898 -3.61858 8.52399e-09 
-3.13999 -3.60431 1.19899e-09 
-2.80483 -3.65777 1.70765e-08 
-2.50239 -3.66662 -1.18007e-09 
-2.20952 -3.7287 4.34944e-09 
-1.90299 -3.715 4.90152e-08 
-1.61819 -3.83706 -3.94606e-10 
-1.35312 -3.79684 2.48921e-08 
-1.06029 -3.89185 1.22262e-08 
-0.787465 -3.86451 9.08068e-09 
-0.496538 -3.92361 -1.03105e-08 
-0.203045 -3.89093 4.59842e-09 
0.0834613 -3.94344 -2.00498e-08 
0.283107 -3.89601 1.38091e-08 
0.644894 -3.90929 -7.41707e-09 
0.986185 -3.89271 5.04417e-11 
1.1792 -3.8122 -3.42239e-09 
1.40557 -3.79455 -5.70858e-09 
1.66535 -3.8124 -2.58098e-08 
1.93807 -3.7601 -9.29682e-09 
2.21566 -3.71123 -8.69216e-09 
2.53893 -3.69883 -5.50001e-09 
2.86256 -3.66562 -4.85063e-09 
3.21819 -3.60157 -1.7207e-09 
3.55715 -3.62286 -8.79845e-09 
3.90916 -3.64645 -7.82724e-09 
4.24951 -3.63556 -7.22503e-09 
4.55704 -3.65254 -4.98163e-09 
4.86981 -3.6869 -4.68996e-09 
5.17384 -3.67834 -4.18826e-09 
5.47456 -3.67532 -3.51362e-09 
5.77213 -3.66534 -2.6058e-09 
6.06738 -3.65348 -1.86216e-09 
6.36399 -3.64935 -1.39813e-09 
6.66298 -3.65154 -9.85341e-10 
6.95771 -3.6439 -6.73336e-10 
7.24931 -3.65185 -4.24295e-10 
7.55046 -3.67016 -3.45067e-10 
7.85216 -3.66237 -2.54657e-10 
8.15097 -3.64655 -1.54059e-10 
8.45098 -3.6626 -1.17987e-10 
8.73845 -3.62277 -2.96844e-11 
9.06246 -3.70166 3.35995e-11 
9.38463 -3.66085 -3.15372e-11 
9.69481 -3.64149 -7.78676e-11 
10.0276 -3.6947 -9.44162e-11 
10.3472 -3.6402 3.21613e-11 
10.7127 -3.72365 3.30425e-10 
11.0464 -3.64839 5.70171e-10 
11.3467 -3.60743 3.64279e-10 
11.6996 -3.71853 5.62871e-13 
12 -3.62343 -8.14592e-09 
-12 -3.33227 -6.56754e-10 
-11.6321 -3.37088 1.32933e-11 
-11.2886 -3.26573 -6.52006e-11 
-10.9702 -3.31532 -5.34152e-10 
-10.645 -3.29169 -4.12635e-10 
-10.3222 -3.34097 -2.4276e-10 
-9.99552 -3.32458 -7.48245e-11 
-9.68633 -3.30806 -3.75217e-11 
-9.38867 -3.36811 -1.64546e-11 
-9.08519 -3.32172 1.15222e-11 
-8.7859 -3.31599 -2.36387e-11 
-8.47608 -3.34491 4.7014e-11 
-8.16487 -3.33581 2.28245e-10 
-7.84377 -3.30923 3.32763e-10 
-7.53976 -3.30518 3.71529e-10 
-7.23763 -3.29179 4.84262e-10 
-6.94132 -3.35032 7.05148e-10 
-6.63488 -3.34139 1.06531e-09 
-6.33009 -3.34428 1.39757e-09 
-6.02374 -3.34056 1.88496e-09 
-5.72529 -3.34997 2.56498e-09 
-5.4261 -3.33776 3.27612e-09 
-5.12748 -3.33002 3.63659e-09 
-4.8276 -3.33784 4.73251e-09 
-4.51866 -3.32494 5.85682e-09 
-4.19106 -3.30419 6.03346e-09 
-3.8608 -3.27281 5.02805e-09 
-3.53031 -3.28345 5.16177e-09 
-3.20519 -3.24878 2.3583e-09 
-2.89682 -3.3136 2.03936e-10 
-2.60393 -3.34736 1.42748e-08 
-2.30838 -3.44851 4.87764e-09 
-2.04542 -3.49847 1.06336e-08 
-1.59997 -3.64168 2.17916e-08 
-1.39485 -3.55342 -1.21842e-08 
-1.20012 -3.72169 9.69189e-09 
-0.96634 -3.77353 5.04541e-09 
-0.62128 -3.80395 -1.13143e-08 
-0.396267 -3.80612 -1.33639e-09 
-0.0530944 -3.80516 2.3563e-10 
0.367277 -3.76075 2.71911e-09 
0.764017 -3.82573 -5.71773e-09 
0.93159 -3.73218 2.22888e-08 
1.15009 -3.65052 -2.65754e-08 
1.38841 -3.62041 -1.61758e-08 
1.68958 -3.61064 -3.50742e-10 
1.96071 -3.51575 -2.92511e-08 
2.27777 -3.44487 -1.13998e-08 
2.58142 -3.38083 -1.0893e-08 
2.88446 -3.3578 -1.52225e-09 
3.20658 -3.28489 -2.2895e-09 
3.549 -3.25828 -2.21506e-09 
3.8677 -3.2864 -4.72009e-09 
4.18645 -3.30377 -4.77625e-09 
4.51075 -3.30639 -5.0854e-09 
4.81348 -3.35617 -4.82364e-09 
5.11055 -3.35741 -4.26396e-09 
5.40818 -3.35334 -3.49854e-09 
5.70596 -3.33545 -2.56027e-09 
6.00147 -3.3185 -1.78663e-09 
6.30307 -3.3091 -1.27566e-09 
6.60996 -3.31141 -8.77976e-10 
6.91771 -3.30508 -6.83422e-10 
7.22439 -3.31023 -5.34149e-10 
7.52576 -3.33695 -4.08205e-10 
7.82999 -3.32198 -2.71982e-10 
8.12614 -3.29838 -1.40118e-10 
8.42405 -3.30814 -6.14058e-11 
8.73193 -3.2891 -3.56533e-11 
9.04904 -3.37395 -1.83327e-11 
9.36889 -3.32654 -1.14687e-11 
9.67761 -3.29643 1.64979e-11 
9.99184 -3.36261 -8.08821e-12 
10.3035 -3.29408 1.27419e-10 
10.634 -3.39911 4.80744e-10 
10.9645 -3.32369 6.55835e-10 
11.2925 -3.2429 7.24952e-11 
11.6293 -3.37033 7.32548e-11 
12 -3.31218 -4.58284e-10 
-12 -3.01049 3.10248e-09 
-11.6519 -3.05325 -1.01389e-10 
-11.2968 -2.95072 7.53622e-10 
-10.9403 -2.97061 4.74896e-11 
-10.6055 -2.95761 -1.00229e-10 
-10.2895 -3.0075 -1.21999e-10 
-9.98343 -2.97327 -6.10232e-11 
-9.66894 -2.96999 5.50371e-11 
-9.35675 -3.01396 1.12687e-10 
-9.05916 -2.96758 1.57549e-10 
-8.74865 -2.97544 1.17485e-11 
-8.44575 -3.01156 -5.02318e-11 
-8.12223 -3.01136 4.05347e-11 
-7.81571 -2.96698 1.8104e-11 
-7.50759 -2.96534 1.59561e-11 
-7.20687 -2.94775 1.71583e-11 
-6.91447 -3.0209 1.7996e-10 
-6.60531 -3.01323 2.76989e-11 
-6.3005 -3.01907 -7.70236e-11 
-6.00697 -3.00759 -1.41869e-10 
-5.71439 -3.01743 -3.45374e-10 
-5.42288 -3.00149 -3.69569e-10 
-5.12551 -2.98937 -3.60792e-10 
-4.81899 -2.99491 -9.08467e-10 
-4.49289 -2.98941 -2.22438e-09 
-4.16337 -2.96317 -2.67555e-09 
-3.83643 -2.93904 -2.55526e-09 
-3.54225 -2.97894 -6.46219e-09 
-3.25756 -2.9562 -7.51979e-09 
-2.99049 -3.0119 -2.05218e-10 
-2.7377 -3.07054 9.78986e-09 
-2.40784 -3.18414 -2.44914e-08 
-2.16602 -3.24637 2.32563e-08 
-1.83221 -3.46118 1.38557e-08 
-1.62676 -3.41633 1.36511e-08 
-1.22741 -3.50275 2.10365e-08 
-1.0359 -3.60859 -4.79623e-08 
-0.812334 -3.6895 1.74107e-08 
-0.40865 -3.64966 1.60396e-08 
-0.223429 -3.72493 3.85728e-08 
0.132526 -3.80063 1.94911e-08 
0.645972 -3.66761 -1.59777e-07 
1.00645 -3.54509 3.55293e-08 
1.24412 -3.46925 -2.87425e-08 
1.53711 -3.47261 -1.903e-08 
1.77917 -3.37592 2.67746e-08 
2.11427 -3.27826 4.91243e-09 
2.4144 -3.1712 2.24844e-08 
2.68993 -3.08916 -2.51813e-08 
2.96329 -3.08458 3.69916e-09 
3.2352 -2.97965 9.72783e-09 
3.50042 -2.99077 3.91736e-09 
3.83691 -2.94531 5.96396e-09 
4.14267 -2.95347 5.16729e-09 
4.45357 -2.97448 3.82243e-09 
4.78115 -3.01244 1.34391e-09 
5.09327 -3.02287 1.69349e-11 
5.39843 -3.02517 2.07536e-10 
5.69456 -3.00251 4.41732e-10 
5.99508 -2.99136 1.77678e-10 
6.30028 -2.97602 1.40581e-10 
6.60118 -2.98288 -3.78424e-12 
6.91414 -2.97768 -1.07306e-11 
7.22778 -2.98279 -9.33942e-11 
7.53521 -3.00567 -1.28471e-10 
7.83815 -2.98166 -7.68332e-11 
8.13486 -2.95678 -4.48409e-11 
8.43706 -2.96696 1.62149e-11 
8.75022 -2.96527 -2.6231e-11 
9.06492 -3.04706 -8.99032e-11 
9.37265 -2.98711 -1.07756e-10 
9.66798 -2.94706 -2.12624e-11 
9.98049 -3.01795 9.92762e-11 
10.3082 -2.96211 1.18857e-10 
10.6407 -3.06028 2.7085e-10 
10.9738 -2.97778 -6.08532e-11 
11.3253 -2.91744 -8.61335e-10 
11.661 -3.04962 5.60396e-11 
12 -2.97087 -3.81918e-09 
-12 -2.69359 3.97967e-09 
-11.6508 -2.73166 9.06082e-11 
-11.3226 -2.62115 6.35196e-10 
-10.9737 -2.65192 2.36183e-10 
-10.6263 -2.62923 5.40371e-11 
-10.2904 -2.65807 -2.25879e-11 
-9.95479 -2.64431 -1.67227e-12 
-9.61905 -2.64957 7.43292e-11 
-9.31913 -2.65715 1.60197e-10 
-8.99524 -2.63565 1.27973e-10 
-8.68637 -2.63504 2.70948e-11 
-8.37567 -2.69005 -4.45501e-12 
-8.07741 -2.66365 2.94462e-12 
-7.76337 -2.63577 -2.39362e-11 
-7.46322 -2.62537 -4.14286e-11 
-7.14395 -2.62898 -1.19366e-10 
-6.84557 -2.69599 -2.2397e-10 
-6.53862 -2.68657 -3.37027e-10 
-6.24779 -2.6787 -4.88698e-10 
[...]
POINT_DATA 1978 
VECTORS vectors float
0.00466913 -0.00641507 0.999977 
0.0039877 -0.0183213 0.999823 
0.00441122 -0.0088128 0.999953 
0.0041182 0.00681935 0.99997 
0.00446235 0.0112679 0.999929 
0.00447156 0.00526143 0.999978 
0.00448222 -0.00310269 0.999987 
0.00437721 -0.00539469 0.999978 
0.00432776 -0.00239524 0.99999 
0.00438778 0.00128237 0.999992 
0.00440733 0.00441869 0.999982 
0.00445986 0.00566006 0.999976 
0.00450116 0.00540227 0.999978 
0.00447817 0.00476204 0.999981 
0.00445448 0.00327155 0.999987 
0.00449254 0.00307478 0.999988 
0.00440167 0.00426889 0.999983 
0.0043504 0.0083107 0.999958 
0.00426339 0.0162425 0.999861 
0.00417803 0.0273501 0.999619 
0.00414958 0.0406564 0.999166 
0.00403481 0.0554101 0.998457 
0.00396591 0.0713885 0.997443 
0.0038425 0.0888597 0.996039 
0.00372731 0.106565 0.9943 
0.00358822 0.124489 0.992216 
0.00345625 0.141621 0.989916 
0.00319953 0.158082 0.987422 
0.00291711 0.173181 0.984887 
0.00278437 0.18897 0.98198 
0.00244602 0.205427 0.97867 
0.00217074 0.225582 0.974224 
0.0025596 0.2486 0.968607 
0.00145843 0.279705 0.960086 
0.00131875 0.354963 0.93488 
0.000478173 0.432802 0.901489 
-0.000193156 0.588191 0.808722 
-0.000436409 0.714009 0.700137 
-0.00110584 0.92127 0.388921 
0.000277819 0.998668 0.0515845 
-0.000642333 0.879713 -0.475504 
0.000546895 0.809457 -0.587178 
3.3372e-05 0.609528 -0.792765 
-0.000310146 0.455252 -0.890362 
-0.000740602 0.369223 -0.929341 
-0.00172093 0.304386 -0.952548 
-0.00191161 0.260361 -0.96551 
-0.00223731 0.228522 -0.973537 
-0.00231515 0.204169 -0.978934 
-0.00259194 0.178928 -0.983861 
-0.00294547 0.166849 -0.98598 
-0.00323265 0.153208 -0.98819 
-0.00348076 0.13835 -0.990379 
-0.0035457 0.123317 -0.992363 
-0.00370227 0.104753 -0.994494 
-0.00382996 0.0867441 -0.996226 
-0.00394809 0.0688167 -0.997624 
-0.00409513 0.0532798 -0.998573 
-0.00413861 0.0394446 -0.999215 
-0.00420873 0.0277889 -0.999607 
-0.00430842 0.0183995 -0.999824 
-0.00431815 0.0112629 -0.999929 
-0.00437153 0.00598679 -0.999975 
-0.00445248 0.0029542 -0.999989 
-0.00444981 0.00167833 -0.999991 
-0.00449878 0.00209823 -0.999989 
-0.00454298 0.00281631 -0.999988 
-0.00440321 0.0035286 -0.999986 
-0.00449171 0.00352152 -0.999987 
-0.00447486 0.00281478 -0.999988 
-0.00435746 0.00128059 -0.999991 
-0.00449376 -0.0011871 -0.999992 
-0.00435269 -0.00110908 -0.999991 
-0.00446143 0.00412155 -0.999984 
-0.00436224 0.0081132 -0.999961 
-0.00401912 0.00340982 -0.999989 
-0.00441516 -0.0122208 -0.999918 
-0.00393257 -0.020273 -0.999786 
-0.00474383 -0.00631233 -0.999977 
0.00158798 -0.00573487 0.999991 
0.00845451 -0.0172107 0.999816 
0.0130962 -0.0128851 0.999831 
0.016046 -0.00247142 0.999868 
0.0167732 0.00419503 0.999851 
0.0174985 0.00394527 0.999839 
0.0181841 -0.000585237 0.999835 
0.0188881 -0.00319022 0.999817 
0.018713 -0.00278603 0.999821 
0.0191243 -0.000325248 0.999817 
0.0205977 0.00235883 0.999785 
0.0203679 0.00437967 0.999783 
0.0208895 0.00486391 0.99977 
0.0211572 0.00470679 0.999765 
0.0204988 0.00417635 0.999781 
0.0194569 0.00445859 0.999801 
0.0177441 0.00625439 0.999823 
0.0165296 0.0109429 0.999804 
0.0145824 0.0185119 0.999722 
0.0119673 0.02889 0.999511 
0.00913306 0.0422498 0.999065 
0.0050738 0.0574939 0.998333 
-0.000783535 0.0733677 0.997305 
-0.007613 0.090408 0.995876 
-0.016548 0.109409 0.993859 
-0.0287861 0.129341 0.991182 
-0.0463743 0.148547 0.987818 
-0.0685641 0.168916 0.983243 
-0.093812 0.186803 0.977908 
-0.0931224 0.199751 0.975412 
-0.108823 0.216238 0.970257 
-0.0904495 0.231275 0.968675 
-0.094538 0.257714 0.961585 
-0.0578803 0.29895 0.952512 
-0.0728898 0.376654 0.923482 
-0.0340159 0.499498 0.865647 
-0.035499 0.648739 0.760182 
-0.0146939 0.831008 0.556065 
-0.00601857 0.976045 0.217464 
-0.00236148 0.992102 -0.125394 
-0.0011546 0.939668 -0.342087 
0.0118963 0.750155 -0.661154 
0.0335292 0.550749 -0.833997 
0.067439 0.459624 -0.885549 
0.0762048 0.371008 -0.925498 
0.0654475 0.30449 -0.950264 
0.0852095 0.258965 -0.962121 
0.100671 0.229859 -0.968003 
0.0982172 0.210325 -0.972686 
0.0955388 0.196072 -0.975924 
0.0936049 0.180272 -0.979153 
0.0659025 0.162622 -0.984485 
0.0429127 0.143643 -0.988699 
0.0292989 0.124448 -0.991794 
0.0171661 0.105708 -0.994249 
0.00573503 0.085263 -0.996342 
-0.00137613 0.0671161 -0.997744 
-0.00675776 0.0509987 -0.998676 
-0.0102949 0.0375417 -0.999242 
-0.0129251 0.0266041 -0.999563 
-0.0153225 0.0180273 -0.99972 
-0.0172793 0.0114647 -0.999785 
-0.0191363 0.00699395 -0.999793 
-0.0202601 0.00419488 -0.999786 
-0.0208293 0.00258137 -0.99978 
-0.0215241 0.00237457 -0.999766 
-0.0215203 0.00261493 -0.999765 
-0.0214513 0.00277221 -0.999766 
-0.0218003 0.00227272 -0.99976 
-0.019422 0.00172187 -0.99981 
-0.0203093 9.04699e-05 -0.999794 
-0.0196066 -0.000468075 -0.999808 
-0.0183829 0.000941934 -0.999831 
-0.017836 0.00323941 -0.999836 
-0.0152667 0.00423005 -0.999875 
-0.0159088 -0.00443079 -0.999864 
-0.0133744 -0.0143826 -0.999807 
-0.00825592 -0.0178281 -0.999807 
-0.00118405 -0.00582172 -0.99999 
0.00300916 -0.00601726 0.999981 
0.00928373 -0.0178135 0.999798 
0.011934 -0.0168446 0.999787 
0.0160626 -0.00609119 0.999853 
0.0175681 0.000209148 0.999846 
0.0199369 0.00158379 0.9998 
0.0210142 -0.000830528 0.999779 
0.0215585 -0.00272169 0.999764 
0.0224126 -0.0029277 0.999745 
0.0227242 -0.00170025 0.99974 
0.0233782 0.000647157 0.999727 
0.0239709 0.00279896 0.999709 
0.0236699 0.00366894 0.999713 
0.023095 0.00429519 0.999724 
0.0219101 0.00509672 0.999747 
0.0202179 0.00649281 0.999775 
0.0194078 0.00845227 0.999776 
0.0167795 0.0129782 0.999775 
0.0132166 0.0201585 0.99971 
0.00865133 0.0306291 0.999493 
0.00335802 0.0437139 0.999039 
-0.00464105 0.059856 0.998196 
-0.0152567 0.0778588 0.996848 
-0.0277248 0.0975063 0.994849 
-0.0454912 0.119274 0.991819 
-0.0707189 0.143809 0.987076 
-0.105424 0.171695 0.979493 
-0.138976 0.193694 0.971168 
-0.187156 0.21887 0.957636 
-0.20401 0.228245 0.95199 
-0.214965 0.23565 0.947765 
-0.20433 0.243449 0.948147 
-0.185938 0.260787 0.947321 
-0.134804 0.310171 0.941074 
-0.192443 0.367386 0.909941 
-0.103147 0.426866 0.898413 
-0.0701655 0.53308 0.84315 
-0.0418926 0.743689 0.667212 
-0.0250549 0.881364 0.471772 
-0.00983532 0.998316 0.0571694 
0.00719899 0.897824 -0.440294 
0.0352436 0.667585 -0.743699 
0.0850086 0.568985 -0.817942 
0.131568 0.472033 -0.871708 
0.151747 0.382901 -0.911241 
0.155375 0.307446 -0.938795 
0.189823 0.26618 -0.945048 
0.213411 0.245178 -0.945698 
0.216385 0.233523 -0.947969 
0.194888 0.221198 -0.955558 
0.183999 0.214449 -0.959248 
0.149235 0.196566 -0.969067 
0.107314 0.170677 -0.979466 
0.0755254 0.145904 -0.986412 
0.0512499 0.122126 -0.991191 
0.0286805 0.0983203 -0.994742 
0.0147804 0.0783724 -0.996815 
0.00460142 0.0601913 -0.998176 
-0.00215421 0.0448402 -0.998992 
-0.00703871 0.0323879 -0.999451 
-0.0111912 0.02265 -0.999681 
-0.0148539 0.0152592 -0.999773 
-0.0181093 0.00994343 -0.999787 
-0.0210126 0.00620715 -0.99976 
-0.0234381 0.00385588 -0.999718 
-0.0243366 0.00284728 -0.999699 
-0.0240558 0.00231407 -0.999708 
-0.0243408 0.00177988 -0.999702 
-0.0237026 0.000740563 -0.999719 
-0.0234396 4.59077e-05 -0.999725 
-0.0227631 -0.00097275 -0.999741 
-0.0215229 -0.000753223 -0.999768 
-0.0217725 0.000406853 -0.999763 
-0.0200377 0.00118463 -0.999799 
-0.0194471 0.000964463 -0.999811 
-0.0171822 -0.00705921 -0.999828 
-0.01266 -0.0188535 -0.999742 
-0.0101185 -0.0188412 -0.999771 
-0.00322937 -0.00624477 -0.999977 
0.0027171 -0.00623741 0.999981 
0.00592843 -0.0199932 0.999783 
0.00329604 -0.0211769 0.99977 
0.0061669 -0.00964295 0.999935 
0.00786805 -0.00263452 0.999966 
0.0104745 -0.000100421 0.999945 
0.0105413 -0.000978958 0.999944 
0.0114286 -0.00287796 0.999931 
0.0137342 -0.00375902 0.999899 
0.0133529 -0.003211 0.999906 
0.014156 -0.000630865 0.9999 
0.0157295 0.00180505 0.999875 
0.0158385 0.00336499 0.999869 
0.0135224 0.00491108 0.999897 
0.0119546 0.00677509 0.999906 
0.00942875 0.00928006 0.999913 
0.00897416 0.0118681 0.999889 
0.00454702 0.0174591 0.999837 
-0.00025382 0.025779 0.999668 
-0.0068031 0.0373276 0.99928 
-0.0144863 0.051779 0.998554 
-0.0257872 0.0700586 0.99721 
-0.0408555 0.0918058 0.994939 
-0.0595588 0.115201 0.991555 
-0.0876375 0.145347 0.985492 
-0.127251 0.180856 0.975243 
-0.177418 0.217741 0.959746 
-0.217143 0.239086 0.946406 
-0.276378 0.270305 0.922253 
-0.305425 0.277051 0.911021 
-0.327379 0.279101 0.902733 
-0.33355 0.27799 0.900813 
-0.312206 0.277007 0.908732 
-0.226152 0.293788 0.928732 
-0.253384 0.327575 0.910215 
-0.211968 0.423674 0.880664 
-0.143886 0.488752 0.860476 
-0.0823904 0.617125 0.78254 
-0.0488868 0.879413 0.473541 
-0.0250567 0.957922 0.285929 
-0.00391651 0.985051 -0.172217 
0.0468756 0.724638 -0.687533 
0.16959 0.521034 -0.836518 
0.226312 0.426041 -0.875941 
0.225695 0.352879 -0.908041 
0.276038 0.307444 -0.910649 
0.311554 0.277727 -0.908736 
0.337016 0.272785 -0.901115 
0.327416 0.272743 -0.90466 
0.289021 0.261082 -0.921034 
0.278943 0.266239 -0.922663 
0.227048 0.243246 -0.943017 
0.181901 0.220038 -0.958382 
0.13678 0.187213 -0.97275 
0.0979017 0.153342 -0.983312 
0.0637245 0.119501 -0.990787 
0.0411154 0.0923035 -0.994882 
0.0257933 0.0704324 -0.997183 
0.0162392 0.0534662 -0.998438 
0.00806343 0.0389174 -0.99921 
0.00205088 0.0275149 -0.999619 
-0.00333163 0.0190973 -0.999812 
-0.00737954 0.0130255 -0.999888 
-0.0111095 0.00857098 -0.999902 
-0.0143293 0.0054334 -0.999883 
-0.0150545 0.0035657 -0.99988 
-0.0147846 0.00213522 -0.999889 
-0.0146195 0.000930821 -0.999893 
-0.0144802 -0.000717276 -0.999895 
-0.0158784 -0.0018799 -0.999872 
-0.0131966 -0.0025968 -0.99991 
-0.0110583 -0.00171102 -0.999938 
-0.0123137 -0.000122797 -0.999924 
-0.00998569 -0.000306324 -0.99995 
-0.0116185 -0.00260573 -0.999929 
-0.00730324 -0.011668 -0.999905 
-0.00365294 -0.0237296 -0.999712 
-0.00650748 -0.0209009 -0.99976 
-0.00305232 -0.00629612 -0.999977 
0.000387907 -0.00633537 0.999983 
0.000326171 -0.0217378 0.999764 
-0.00278696 -0.0253207 0.999676 
-0.000640998 -0.014421 0.999896 
0.000494094 -0.00509142 0.999987 
0.00187372 -0.000882991 0.999998 
0.00265594 -0.00135833 0.999996 
0.00435088 -0.00388801 0.999983 
0.00590434 -0.00533234 0.999968 
0.00658649 -0.0042126 0.99997 
0.00700075 -0.00124932 0.999975 
0.00861288 0.00151363 0.999962 
0.00783617 0.00369782 0.999963 
0.00612907 0.00640535 0.999961 
0.00408452 0.00930805 0.999948 
0.0009566 0.0130113 0.999915 
-0.00140998 0.0168064 0.999858 
-0.00653216 0.0241449 0.999687 
-0.012669 0.0341849 0.999335 
-0.0209441 0.048215 0.998618 
-0.0317751 0.0663 0.997294 
-0.0477627 0.090943 0.99471 
-0.0708376 0.122697 0.989913 
-0.101443 0.158902 0.982069 
-0.144529 0.203079 0.968437 
-0.200116 0.250215 0.947284 
-0.261662 0.290611 0.920369 
-0.303921 0.306551 0.90203 
-0.370292 0.33885 0.864907 
-0.398911 0.337761 0.852518 
-0.435904 0.338442 0.833933 
-0.401426 0.304226 0.863887 
-0.465248 0.323329 0.824016 
-0.364432 0.306785 0.879245 
-0.37558 0.337488 0.863158 
-0.323068 0.372186 0.870118 
-0.241742 0.473907 0.846742 
-0.128697 0.611437 0.780757 
-0.0689536 0.752029 0.655512 
-0.015688 0.998895 0.0439053 
0.0198138 0.790705 -0.611865 
0.104217 0.628992 -0.770395 
0.261224 0.483375 -0.83553 
0.307554 0.381891 -0.871533 
0.362134 0.352331 -0.862971 
0.376843 0.310799 -0.872578 
0.443295 0.307434 -0.842005 
0.450109 0.321036 -0.833269 
0.424318 0.329094 -0.843594 
0.377264 0.322498 -0.86814 
0.339666 0.323195 -0.883273 
0.27796 0.295283 -0.914082 
0.234306 0.275829 -0.932212 
0.180431 0.236112 -0.954828 
0.131069 0.189973 -0.973001 
0.0897646 0.144186 -0.985471 
0.0614952 0.109458 -0.992088 
0.0428753 0.0832804 -0.995604 
0.0295381 0.0623357 -0.997618 
0.018848 0.0447986 -0.998818 
0.011645 0.0322797 -0.999411 
0.00503636 0.0224122 -0.999736 
0.000366656 0.0157152 -0.999877 
-0.00305819 0.011052 -0.999934 
-0.00612889 0.00730844 -0.999955 
-0.00690882 0.00468275 -0.999965 
-0.00775261 0.00220063 -0.999968 
-0.00803044 0.000213078 -0.999968 
-0.00716914 -0.00202432 -0.999972 
-0.00794974 -0.00369556 -0.999962 
-0.00567164 -0.00475627 -0.999973 
-0.00424512 -0.003217 -0.999986 
-0.00407233 -0.000856602 -0.999991 
-0.00202658 -0.0011974 -0.999997 
-0.0030067 -0.0054044 -0.999981 
-0.000126943 -0.0156714 -0.999877 
0.00206057 -0.0267296 -0.999641 
-0.000780616 -0.0212412 -0.999774 
0.00022988 -0.00618228 -0.999984 
-0.00187401 -0.00648812 0.99998 
-0.00299466 -0.0218967 0.999756 
-0.00495145 -0.0271752 0.999619 
-0.00428048 -0.019994 0.999791 
-0.00385954 -0.00866076 0.999955 
-0.00304767 -0.00247236 0.999992 
-0.00181924 -0.00134645 0.999998 
-9.27062e-05 -0.00365072 0.999993 
0.00134493 -0.00645788 0.999978 
0.00271683 -0.00623733 0.999977 
0.00341332 -0.00319386 0.999989 
0.00380076 0.000192903 0.999993 
0.00341254 0.00309417 0.99999 
0.00249298 0.00652498 0.999976 
0.000511033 0.0104508 0.999945 
-0.0021026 0.0144199 0.999894 
-0.00629691 0.0198312 0.999784 
-0.0105196 0.0261663 0.999602 
-0.0171479 0.0371166 0.999164 
-0.0253727 0.0515646 0.998347 
-0.0369364 0.0717805 0.996736 
-0.0530337 0.0985466 0.993718 
-0.0768673 0.13471 0.987899 
-0.110811 0.180795 0.977259 
-0.1549 0.234492 0.959698 
-0.211187 0.288824 0.933799 
-0.277511 0.339655 0.898678 
-0.345089 0.385898 0.855567 
-0.375494 0.379774 0.845444 
-0.444766 0.402148 0.800287 
-0.490814 0.400668 0.77367 
-0.536504 0.398323 0.743977 
-0.489883 0.348085 0.799282 
-0.564859 0.361947 0.741572 
-0.476336 0.328143 0.815737 
-0.431385 0.37971 0.818368 
-0.349349 0.406489 0.844228 
-0.197508 0.563889 0.801885 
-0.09127 0.799465 0.593737 
-0.000336817 0.979245 -0.202663 
0.0270542 0.856728 -0.515058 
0.173664 0.618388 -0.766444 
0.362967 0.413001 -0.835275 
0.459853 0.405141 -0.790187 
0.473554 0.338816 -0.812986 
0.472502 0.319081 -0.821541 
0.514856 0.337209 -0.788171 
0.512258 0.372338 -0.773922 
0.479858 0.400852 -0.780419 
0.421505 0.383024 -0.821965 
0.402718 0.412102 -0.817306 
0.337497 0.369747 -0.865669 
0.304519 0.365229 -0.879702 
0.235365 0.31197 -0.920477 
0.16718 0.248852 -0.954004 
0.118087 0.189812 -0.974693 
0.0824889 0.141447 -0.986503 
0.0577981 0.105141 -0.992776 
0.0410919 0.0783266 -0.996081 
0.0283066 0.0567192 -0.997989 
0.0195916 0.0416655 -0.99894 
0.0120236 0.0291739 -0.999502 
0.00642928 0.0209709 -0.99976 
0.00228704 0.0152531 -0.999881 
-0.000843148 0.0104751 -0.999945 
-0.00227496 0.00712349 -0.999972 
-0.00374753 0.00355205 -0.999987 
-0.00411443 0.000358578 -0.999992 
-0.00370323 -0.00250829 -0.99999 
-0.00313589 -0.00528367 -0.999981 
-0.00197796 -0.00650159 -0.999977 
-0.000648651 -0.00450848 -0.99999 
0.000278786 -0.00152342 -0.999999 
0.00210011 -0.00160892 -0.999997 
0.00187951 -0.00659043 -0.999977 
0.00275834 -0.0176703 -0.99984 
0.0033744 -0.0283562 -0.999592 
0.00247324 -0.0238203 -0.999713 
0.00159362 -0.00630393 -0.999983 
-0.000892185 -0.00638227 0.999983 
-0.00315727 -0.0230068 0.99973 
-0.00438153 -0.0278638 0.999602 
-0.00419061 -0.0164881 0.999855 
-0.00354951 -0.00621522 0.999975 
-0.00196041 -0.00244508 0.999995 
-0.000152152 -0.00270164 0.999996 
0.00176403 -0.00583736 0.999982 
0.00347258 -0.00794031 0.999963 
0.00422283 -0.00626898 0.999972 
0.00454995 -0.00202291 0.999988 
0.00440139 0.00162761 0.999989 
0.00331794 0.0056181 0.999979 
0.00179302 0.010014 0.999948 
-0.000901368 0.0149443 0.999888 
-0.00451794 0.0200196 0.99979 
-0.00859745 0.026984 0.999599 
-0.0138035 0.0356424 0.999269 
-0.0211491 0.050466 0.998502 
-0.03117 0.0698826 0.997068 
-0.0458376 0.0978979 0.99414 
-0.0664242 0.134886 0.988632 
-0.0966264 0.183311 0.978295 
-0.137326 0.245642 0.959584 
-0.19204 0.320322 0.927639 
-0.242926 0.364067 0.899134 
-0.30921 0.415535 0.855406 
-0.380358 0.468491 0.797399 
-0.43471 0.487527 0.757195 
-0.453613 0.458453 0.764235 
-0.518088 0.463067 0.719135 
-0.572857 0.459415 0.678802 
-0.580868 0.389111 0.714973 
-0.662977 0.400339 0.632603 
-0.609288 0.354996 0.709046 
-0.52721 0.370061 0.764921 
-0.363973 0.438403 0.821782 
-0.144513 0.540767 0.828665 
-0.0458866 0.94447 0.325374 
0.00996338 0.965795 -0.259112 
0.0191567 0.848671 -0.528572 
0.369933 0.438961 -0.818818 
0.511043 0.435997 -0.740771 
0.482261 0.369934 -0.794084 
0.580799 0.348875 -0.735498 
0.624822 0.352761 -0.69653 
0.613449 0.419413 -0.669159 
0.555618 0.440342 -0.705257 
0.523861 0.476008 -0.706389 
0.480669 0.474385 -0.737507 
0.403586 0.465574 -0.787628 
0.367141 0.475579 -0.799395 
0.303048 0.41798 -0.85642 
0.234836 0.352396 -0.905908 
0.173822 0.293514 -0.940019 
0.12464 0.228581 -0.965513 
0.086477 0.168403 -0.981918 
0.0605343 0.125012 -0.990307 
0.0419355 0.0897861 -0.995078 
0.0293464 0.066342 -0.997365 
0.0191706 0.0466571 -0.998727 
0.0121255 0.0333035 -0.999372 
0.0066773 0.0242285 -0.999684 
0.00252118 0.0180948 -0.999833 
-0.000481526 0.0130732 -0.999915 
-0.0028057 0.00868767 -0.999958 
-0.00420555 0.00433571 -0.999982 
-0.00506642 0.000475666 -0.999987 
-0.00493662 -0.0033353 -0.999982 
-0.00388153 -0.00654569 -0.999971 
-0.00355455 -0.00803827 -0.999961 
-0.00211944 -0.00587942 -0.999981 
0.000215152 -0.0023553 -0.999997 
0.0018995 -0.00231107 -0.999996 
0.00317969 -0.00782137 -0.999964 
0.00303291 -0.0185409 -0.999824 
0.0027881 -0.0289425 -0.999577 
0.00264109 -0.0248226 -0.999688 
0.000892168 -0.00618298 -0.999984 
0.000201465 -0.00616635 0.999984 
-0.000975797 -0.0238961 0.999714 
-0.00210589 -0.0293449 0.999567 
-0.00139584 -0.0190259 0.999818 
-9.30531e-06 -0.00822375 0.999966 
0.00216437 -0.00354143 0.999992 
0.00399196 -0.00363423 0.999986 
0.00590458 -0.00678428 0.99996 
0.00742577 -0.00884404 0.999933 
0.00792984 -0.00696709 0.999944 
0.00751706 -0.0028135 0.999968 
0.00746037 0.00181619 0.999971 
0.006026 0.00642351 0.999961 
0.00422316 0.0112959 0.999927 
0.00152952 0.016202 0.999868 
-0.0019066 0.0220074 0.999756 
-0.00565248 0.0292373 0.999557 
-0.0107157 0.0395363 0.999161 
-0.0171821 0.0542193 0.998381 
-0.0264478 0.0759905 0.996758 
-0.0394128 0.10447 0.993747 
-0.0582219 0.146777 0.987455 
-0.0862573 0.200053 0.975981 
-0.124756 0.271602 0.95429 
-0.178183 0.353131 0.91845 
-0.244509 0.439717 0.864213 
-0.307534 0.486241 0.81792 
-0.375028 0.532321 0.758939 
-0.444066 0.572193 0.689493 
-0.497613 0.555205 0.66643 
-0.53044 0.521693 0.668184 
-0.591831 0.532414 0.605203 
-0.615675 0.449792 0.647017 
-0.646239 0.429188 0.631009 
-0.580814 0.355478 0.732318 
-0.611781 0.377596 0.695086 
-0.495327 0.423537 0.758427 
-0.339302 0.465949 0.817158 
-0.121163 0.669038 0.733286 
-0.0168059 0.998595 0.0502535 
0.0595079 0.741364 -0.66846 
0.370991 0.459474 -0.806999 
0.562041 0.407654 -0.719662 
0.602328 0.378423 -0.702847 
0.611754 0.389358 -0.688591 
0.702046 0.448357 -0.553269 
0.616329 0.461205 -0.638302 
0.585245 0.510596 -0.629903 
0.550835 0.568717 -0.610853 
0.477746 0.526149 -0.70351 
0.42954 0.560647 -0.707934 
0.375047 0.556367 -0.741482 
0.316229 0.505917 -0.802525 
0.261771 0.443247 -0.857326 
0.200011 0.376295 -0.904653 
0.13907 0.295204 -0.945259 
0.0939296 0.216913 -0.971662 
0.0632046 0.158846 -0.985278 
0.0437976 0.114096 -0.992504 
0.0294477 0.0831832 -0.996099 
0.0194549 0.0586471 -0.998089 
0.0116662 0.0413042 -0.999079 
0.00629027 0.0301194 -0.999527 
0.00188833 0.0226856 -0.999741 
-0.00161821 0.0167129 -0.999859 
-0.00426521 0.0118125 -0.999921 
-0.00636225 0.00657986 -0.999958 
-0.00781808 0.00186651 -0.999968 
-0.00806558 -0.00267041 -0.999964 
-0.00773693 -0.00692659 -0.999946 
-0.00741988 -0.00877204 -0.999934 
-0.00653353 -0.00677125 -0.999956 
-0.00363346 -0.00338621 -0.999988 
-0.0023532 -0.00319715 -0.999992 
0.000284536 -0.00743334 -0.999972 
0.000304633 -0.0176094 -0.999845 
0.000281334 -0.0288597 -0.999584 
0.00076608 -0.0247767 -0.999693 
-0.000309871 -0.00628373 -0.999986 
0.000245312 -0.00634119 0.999985 
0.000228907 -0.0260907 0.99966 
0.000166901 -0.0305722 0.999533 
0.00162511 -0.0198883 0.999801 
0.00356679 -0.00931881 0.99995 
0.00580831 -0.00491997 0.999971 
0.0078307 -0.00550039 0.999954 
0.00960777 -0.00822659 0.99992 
0.0105616 -0.00930176 0.999901 