# vtk DataFile Version 3.0 
Exported using Morpho https://github.com/Morpho-lang/morpho 
ASCII 
DATASET UNSTRUCTURED_GRID 

POINTS 1978 float 
-12 -4 -1.74378e-13 
-11.5928 -4 2.82593e-13 
-11.293 -4 8.56871e-13 
-10.9613 -4 -1.54818e-12 
-10.6576 -4 -1.12147e-12 
-10.3255 -4 -4.05461e-13 
-10.0004 -4 3.75617e-13 
-9.68012 -4 5.94624e-13 
-9.3248 -4 2.9868e-13 
-8.99539 -4 -2.58681e-13 
-8.68925 -4 -5.47966e-13 
-8.36853 -4 -7.08427e-13 
-8.06543 -4 -6.18901e-13 
-7.76703 -4 -5.33117e-13 
-7.47181 -4 -2.10115e-13 
-7.18264 -4 -2.61954e-13 
-6.87169 -4 -2.89796e-13 
-6.57026 -4 -5.33416e-13 
-6.27152 -4 -8.94217e-13 
-5.97248 -4 -1.20862e-12 
-5.67339 -4 -1.2878e-12 
-5.3749 -4 -4.59588e-13 
-5.08612 -4 1.83161e-12 
-4.79196 -4 5.36898e-12 
-4.49761 -4 1.07617e-11 
-4.19792 -4 2.005e-11 
-3.87946 -4 3.49691e-11 
-3.54454 -4 5.77975e-11 
-3.19561 -4 8.57984e-11 
-2.84686 -4 1.10811e-10 
-2.50189 -4 1.33638e-10 
-2.20072 -4 1.24299e-10 
-1.94101 -4 1.19441e-10 
-1.71454 -4 1.38775e-10 
-1.40339 -4 1.41794e-10 
-1.18487 -4 1.02976e-10 
-0.88356 -4 7.2889e-11 
-0.670904 -4 -4.32333e-11 
-0.318196 -4 -2.63519e-11 
-0.0669005 -4 -6.79358e-11 
0.423495 -4 1.59898e-10 
0.547978 -4 -5.82971e-11 
0.871713 -4 -6.18229e-11 
1.18168 -4 -1.20839e-10 
1.39265 -4 -1.23414e-10 
1.61897 -4 -1.34902e-10 
1.90548 -4 -1.47455e-10 
2.18794 -4 -1.4254e-10 
2.50815 -4 -1.45547e-10 
2.90322 -4 -1.19339e-10 
3.24285 -4 -8.38096e-11 
3.60762 -4 -5.77309e-11 
3.94919 -4 -3.44888e-11 
4.24476 -4 -1.92259e-11 
4.52645 -4 -1.04245e-11 
4.80356 -4 -4.8893e-12 
5.10101 -4 -1.53618e-12 
5.39067 -4 4.19166e-13 
5.68715 -4 1.13448e-12 
5.98481 -4 1.16722e-12 
6.28026 -4 9.76327e-13 
6.57606 -4 6.67572e-13 
6.8722 -4 4.26918e-13 
7.15712 -4 1.56135e-13 
7.44557 -4 1.56995e-13 
7.75309 -4 2.00775e-13 
8.06001 -4 3.57925e-13 
8.35986 -4 4.11989e-13 
8.67345 -4 3.55045e-13 
8.95378 -4 4.37004e-13 
9.30911 -4 2.97311e-13 
9.62149 -4 -2.29391e-13 
9.91761 -4 -1.57235e-14 
10.2698 -4 1.68851e-13 
10.577 -4 1.06604e-12 
10.986 -4 1.57889e-12 
11.3097 -4 -1.33391e-12 
11.5986 -4 -2.51343e-13 
12 -4 1.40962e-13 
-12 -3.6378 9.65367e-13 
-11.693 -3.71674 1.13103e-15 
-11.3423 -3.61838 1.45094e-15 
-11.0348 -3.66152 1.35558e-15 
-10.7093 -3.63837 7.64601e-16 
-10.3979 -3.67048 -3.00385e-16 
-10.0646 -3.66274 -2.24647e-16 
-9.7411 -3.66142 1.98715e-16 
-9.40972 -3.69051 4.23555e-16 
-9.06856 -3.67211 -3.01426e-14 
-8.75129 -3.65594 -2.76025e-16 
-8.43605 -3.67849 -6.14184e-16 
-8.11145 -3.65699 -7.85841e-16 
-7.80347 -3.65211 -1.05266e-15 
-7.49825 -3.64711 -1.36013e-15 
-7.20311 -3.64901 -1.75156e-15 
-6.89824 -3.6792 -2.25286e-15 
-6.58612 -3.66996 -3.27486e-15 
-6.27883 -3.66902 -4.85369e-15 
-5.97796 -3.67254 -6.73062e-15 
-5.67716 -3.674 -9.72115e-15 
-5.37987 -3.66889 -1.29837e-14 
-5.08563 -3.66446 -1.50851e-14 
-4.78324 -3.66621 -1.68149e-14 
-4.47202 -3.65529 -2.26798e-14 
-4.14813 -3.64448 -2.86291e-14 
-3.8157 -3.62352 -4.0853e-14 
-3.46945 -3.62521 -2.02685e-14 
-3.14188 -3.61183 -4.08813e-15 
-2.80047 -3.65584 -7.40768e-14 
-2.49543 -3.67904 4.14449e-14 
-2.18464 -3.71729 -7.0382e-14 
-1.90991 -3.72675 -6.6708e-14 
-1.61422 -3.82803 -3.23044e-14 
-1.34731 -3.7984 -6.0101e-14 
-1.06513 -3.8879 -1.12086e-13 
-0.788805 -3.85844 -6.0583e-14 
-0.496362 -3.91941 -2.2788e-15 
-0.209364 -3.88862 -7.30115e-14 
0.0800019 -3.9426 1.77895e-13 
0.275189 -3.89671 -1.35168e-13 
0.659216 -3.90785 1.10193e-13 
0.989309 -3.89446 -1.90183e-14 
1.1806 -3.81846 -2.64139e-14 
1.40624 -3.80405 -3.814e-14 
1.6642 -3.81091 1.40586e-13 
1.94269 -3.76549 3.30736e-14 
2.21491 -3.70956 5.467e-14 
2.54249 -3.70542 1.64555e-14 
2.87703 -3.66645 1.42762e-14 
3.21362 -3.61376 -1.13428e-15 
3.55303 -3.63013 2.89519e-14 
3.90295 -3.64527 2.89166e-14 
4.2441 -3.62899 2.68692e-14 
4.55419 -3.65091 1.77058e-14 
4.86779 -3.6835 1.7603e-14 
5.17274 -3.67771 1.48538e-14 
5.47397 -3.67643 1.23856e-14 
5.77105 -3.66655 9.15205e-15 
6.06723 -3.65511 6.52657e-15 
6.363 -3.65009 4.82856e-15 
6.66253 -3.65253 3.37898e-15 
6.95668 -3.64467 2.27379e-15 
7.24962 -3.65288 1.41451e-15 
7.55208 -3.67104 1.14034e-15 
7.85346 -3.66113 8.54216e-16 
8.14997 -3.64647 5.42616e-16 
8.45043 -3.66176 4.78034e-16 
8.73961 -3.62542 -4.74713e-14 
9.0635 -3.70212 -1.3836e-15 
9.38519 -3.66165 -2.74795e-14 
9.69487 -3.64162 1.74723e-16 
10.0275 -3.69461 3.10942e-16 
10.3473 -3.64154 8.96477e-15 
10.7124 -3.72325 -5.92335e-16 
11.0459 -3.64742 -1.76906e-15 
11.3468 -3.60739 -1.72599e-15 
11.6999 -3.71827 -1.17709e-15 
12 -3.62336 -7.8968e-13 
-12 -3.33225 1.1414e-13 
-11.6313 -3.3711 2.30973e-16 
-11.2874 -3.26603 1.5843e-16 
-10.9703 -3.31591 1.55845e-15 
-10.646 -3.2925 1.20809e-15 
-10.3225 -3.34086 7.11987e-16 
-9.99459 -3.32554 2.31364e-16 
-9.68589 -3.30798 -3.62242e-14 
-9.38958 -3.3685 -1.56188e-14 
-9.08655 -3.3213 7.06912e-15 
-8.78546 -3.31595 -2.55034e-14 
-8.47673 -3.34505 4.64431e-14 
-8.16446 -3.33616 -6.65241e-16 
-7.84307 -3.31027 -9.73204e-16 
-7.54008 -3.30477 -1.10187e-15 
-7.23757 -3.29359 -1.41531e-15 
-6.94043 -3.34885 -2.12966e-15 
-6.63486 -3.34262 -3.09356e-15 
-6.32898 -3.34429 -4.16356e-15 
-6.02319 -3.34133 -5.549e-15 
-5.72566 -3.34909 -7.60797e-15 
-5.42632 -3.3378 -9.59071e-15 
-5.12829 -3.3286 -1.05844e-14 
-4.82699 -3.33257 -1.3939e-14 
-4.51484 -3.32039 -1.6941e-14 
-4.18574 -3.29987 -1.87298e-14 
-3.85751 -3.27473 -1.33412e-14 
-3.52414 -3.28408 -2.41066e-14 
-3.20877 -3.25807 -9.51657e-15 
-2.9037 -3.32799 2.51951e-14 
-2.60771 -3.34673 -1.31988e-13 
-2.32136 -3.45944 6.64172e-14 
-2.04854 -3.4674 -3.04422e-13 
-1.61366 -3.63485 -2.23221e-13 
-1.41271 -3.5711 2.76097e-13 
-1.20012 -3.7106 -8.57759e-14 
-0.961369 -3.77595 1.06502e-13 
-0.626434 -3.80512 -3.42522e-15 
-0.38624 -3.7982 6.19155e-14 
-0.0576586 -3.80567 2.34604e-14 
0.369709 -3.77192 1.92683e-13 
0.773498 -3.81053 1.63221e-13 
0.940189 -3.72602 -1.4006e-14 
1.16232 -3.65153 1.33383e-13 
1.39937 -3.62186 8.51853e-14 
1.69284 -3.62016 -7.14052e-14 
1.95901 -3.52289 7.27173e-14 
2.27455 -3.44709 3.09197e-14 
2.57771 -3.3928 -3.08194e-16 
2.87871 -3.35596 2.36891e-14 
3.20419 -3.29222 3.45581e-15 
3.54539 -3.26943 1.01469e-15 
3.86285 -3.28411 1.87724e-14 
4.18099 -3.29544 1.80837e-14 
4.50648 -3.30418 1.3727e-14 
4.81175 -3.35266 1.45753e-14 
5.11204 -3.3556 1.24809e-14 
5.41055 -3.3538 9.86089e-15 
5.7076 -3.33587 7.5466e-15 
6.00375 -3.3215 5.09066e-15 
6.30583 -3.30912 3.78877e-15 
6.6108 -3.31386 2.55286e-15 
6.91685 -3.30346 2.06682e-15 
7.2222 -3.31133 1.5736e-15 
7.52373 -3.33804 1.20717e-15 
7.82761 -3.32131 8.04885e-16 
8.12712 -3.29872 4.06807e-16 
8.42615 -3.30835 1.87143e-16 
8.7336 -3.29072 -3.34621e-14 
9.04935 -3.37454 -1.7856e-14 
9.36812 -3.32662 -1.11793e-14 
9.67811 -3.29694 1.55022e-14 
9.9928 -3.36256 -5.68793e-15 
10.3043 -3.29541 -3.84668e-16 
10.634 -3.39906 -1.40834e-15 
10.964 -3.32287 -1.90124e-15 
11.2927 -3.24307 -2.19828e-16 
11.6295 -3.3701 -4.43728e-16 
12 -3.31214 -2.28256e-13 
-12 -3.01058 4.93101e-13 
-11.6506 -3.05336 1.06112e-15 
-11.2966 -2.9499 -2.1275e-15 
-10.9403 -2.96988 4.28772e-14 
-10.6067 -2.95665 3.20576e-16 
-10.2922 -3.00737 3.67906e-16 
-9.98601 -2.97371 1.79628e-16 
-9.66916 -2.97077 -1.58722e-16 
-9.35541 -3.01285 -3.20848e-16 
-9.05618 -2.96703 -4.65164e-16 
-8.74743 -2.97605 1.54911e-14 
-8.4433 -3.00935 -4.28244e-14 
-8.12223 -3.01037 4.24974e-14 
-7.81633 -2.96713 2.1536e-14 
-7.50835 -2.96571 2.22789e-14 
-7.20769 -2.9504 6.59368e-15 
-6.91444 -3.01808 -6.16332e-16 
-6.60628 -3.01404 2.88676e-14 
-6.30276 -3.01866 1.65534e-16 
-6.00968 -3.00724 3.99281e-16 
-5.71631 -3.01633 9.29699e-16 
-5.42295 -3.00092 1.12934e-15 
-5.12257 -2.98823 1.16548e-15 
-4.81272 -2.99095 2.38838e-15 
-4.48444 -2.98533 5.26105e-15 
-4.15767 -2.95941 3.2548e-15 
-3.83976 -2.9413 3.84794e-15 
-3.55121 -2.98316 2.51255e-14 
-3.25983 -2.96353 2.80272e-14 
-2.98912 -3.02522 -5.81904e-15 
-2.73544 -3.08743 2.20571e-14 
-2.42041 -3.19155 1.53245e-13 
-2.18645 -3.2408 -1.30926e-13 
-1.82765 -3.4913 2.45086e-13 
-1.62751 -3.40998 -1.68047e-13 
-1.24744 -3.49912 -3.09619e-13 
-1.04089 -3.61237 9.43822e-14 
-0.813614 -3.67351 -1.0909e-13 
-0.413316 -3.63841 -2.52783e-13 
-0.216868 -3.71558 -9.97377e-14 
0.118668 -3.7846 -2.48823e-14 
0.62683 -3.66977 2.76933e-13 
1.00219 -3.55085 -2.32625e-13 
1.25019 -3.4711 6.45301e-14 
1.5439 -3.47218 1.00544e-13 
1.78178 -3.38613 -6.75055e-14 
2.1246 -3.28588 5.22826e-14 
2.42786 -3.18146 5.47016e-14 
2.68553 -3.08917 8.55526e-14 
2.9612 -3.0871 5.60299e-15 
3.23918 -2.98282 -2.39815e-14 
3.50016 -3.0004 -1.59653e-14 
3.83244 -2.94734 -1.3581e-14 
4.14119 -2.94746 -1.34009e-14 
4.45441 -2.9694 -1.16006e-14 
4.77878 -3.00942 -3.64669e-15 
5.09041 -3.02143 -2.84584e-16 
5.39589 -3.02382 -1.58021e-16 
5.6945 -3.0028 -1.24654e-15 
5.99669 -2.99293 -5.06106e-16 
6.30148 -2.97661 -4.01632e-16 
6.60164 -2.98186 -3.54545e-14 
6.91494 -2.9789 -3.38201e-16 
7.22801 -2.9819 3.07626e-16 
7.53411 -3.00529 3.87928e-16 
7.83745 -2.98239 2.4039e-16 
8.13479 -2.95741 -4.56414e-14 
8.43735 -2.9674 1.58915e-14 
8.74903 -2.96412 -2.60032e-14 
9.06293 -3.04601 2.60461e-16 
9.37211 -2.98746 3.1498e-16 
9.66802 -2.94717 -1.90277e-14 
9.98106 -3.01771 -2.93667e-16 
10.3083 -2.96262 -3.60147e-16 
10.6399 -3.0599 -7.94444e-16 
10.9737 -2.97805 1.78426e-16 
11.3258 -2.91798 2.45537e-15 
11.6614 -3.04983 -1.00895e-15 
12 -2.9709 -5.62392e-13 
-12 -2.69356 3.68649e-13 
-11.6523 -2.73128 1.53131e-16 
-11.3231 -2.62078 -1.83565e-15 
-10.9729 -2.65122 -7.11112e-16 
-10.6259 -2.62797 -1.63954e-16 
-10.2903 -2.65681 -2.22608e-14 
-9.95573 -2.64515 -8.41806e-16 
-9.62023 -2.64928 -2.16766e-16 
-9.31888 -2.6583 -4.7867e-16 
-8.99611 -2.63388 -3.67911e-16 
-8.68803 -2.63467 2.63872e-14 
-8.37717 -2.68769 -4.98288e-15 
-8.07735 -2.66329 2.11925e-15 
-7.76265 -2.63601 -2.36441e-14 
-7.46148 -2.6262 -3.83802e-14 
-7.14375 -2.63107 3.77802e-16 
-6.84456 -2.69309 5.96957e-16 
-6.53913 -2.68601 9.99905e-16 
-6.24777 -2.67881 1.46236e-15 
-5.94939 -2.67376 2.16553e-15 
[...]
POINT_DATA 1978 
VECTORS vectors float
-0.00022319 -0.000500741 1 
0.000679861 -0.018128 0.999835 
6.56472e-05 -0.00879909 0.999961 
0.000198697 0.00661336 0.999978 
0.000191433 0.0110705 0.999939 
0.000209241 0.00519981 0.999986 
0.000170461 -0.00302406 0.999995 
0.00016689 -0.005318 0.999986 
0.00018706 -0.00238178 0.999997 
0.000170538 0.00126513 0.999999 
0.000209344 0.00437437 0.99999 
0.000234338 0.00562609 0.999984 
0.000223024 0.00538697 0.999985 
0.000234769 0.00474883 0.999989 
0.000231027 0.00329398 0.999995 
0.000225273 0.00310681 0.999995 
0.000246619 0.00432703 0.999991 
0.000222776 0.00838569 0.999965 
0.00021959 0.0162969 0.999867 
0.000225971 0.0273761 0.999625 
0.000219654 0.0406751 0.999172 
0.000216595 0.0554036 0.998464 
0.000204701 0.0713897 0.997448 
0.000203508 0.0888035 0.996049 
0.000189954 0.106488 0.994314 
0.00017616 0.124374 0.992235 
0.000148805 0.141489 0.98994 
0.000115739 0.15795 0.987447 
8.91729e-05 0.173091 0.984906 
9.73692e-05 0.188851 0.982006 
0.000106018 0.205311 0.978697 
0.000147517 0.225584 0.974224 
-8.94306e-06 0.248571 0.968614 
0.000142651 0.279675 0.960095 
4.87429e-05 0.355012 0.934862 
2.40513e-05 0.433071 0.90136 
1.04049e-05 0.588278 0.808659 
-5.15117e-05 0.714256 0.699884 
-1.50563e-05 0.921576 0.388199 
-3.45029e-05 0.998713 0.050718 
2.85932e-05 0.87945 -0.47599 
4.13163e-06 0.809403 -0.587253 
-5.46349e-06 0.609677 -0.79265 
3.21056e-06 0.455314 -0.890331 
-3.94149e-05 0.369373 -0.929281 
-5.6809e-05 0.304645 -0.952466 
-0.00010636 0.260333 -0.965519 
-8.10473e-05 0.228449 -0.973556 
-7.04048e-05 0.204099 -0.97895 
-4.71103e-05 0.178942 -0.98386 
-5.63469e-05 0.166772 -0.985995 
-0.00012343 0.153088 -0.988213 
-0.000150938 0.138215 -0.990402 
-0.000177793 0.123204 -0.992381 
-0.0001762 0.104695 -0.994504 
-0.000208241 0.0867237 -0.996232 
-0.00022092 0.0688174 -0.997629 
-0.000210881 0.0532881 -0.998579 
-0.000226688 0.0394608 -0.999221 
-0.000227697 0.027812 -0.999613 
-0.00022123 0.018433 -0.99983 
-0.000241853 0.0112995 -0.999936 
-0.000232231 0.00603126 -0.999982 
-0.000213222 0.00299681 -0.999995 
-0.000244027 0.00171252 -0.999999 
-0.000243622 0.00210436 -0.999998 
-0.000220583 0.00281083 -0.999996 
-0.000251621 0.00350765 -0.999994 
-0.000187928 0.003497 -0.999994 
-0.000210957 0.00279692 -0.999996 
-0.00023985 0.00125678 -0.999999 
-0.000152253 -0.00115439 -0.999999 
-0.000218405 -0.00105021 -0.999999 
-0.000142771 0.00409622 -0.999992 
-0.0001125 0.00797823 -0.999968 
-0.000136591 0.00321009 -0.999995 
-9.83137e-07 -0.0121666 -0.999926 
-0.000693271 -0.0200533 -0.999799 
0.000219309 -0.000502972 -1 
-0.00120268 -0.00048482 0.999999 
0.0081817 -0.0168181 0.999825 
0.012881 -0.0127785 0.999835 
0.0157095 -0.00251217 0.999873 
0.0165355 0.00407373 0.999855 
0.0172108 0.00388967 0.999844 
0.0179159 -0.00056863 0.999839 
0.0185982 -0.00315204 0.999822 
0.0184095 -0.00276403 0.999827 
0.0188527 -0.000322674 0.999822 
0.0202974 0.00234069 0.999791 
0.0200547 0.00434512 0.999789 
0.020595 0.00483576 0.999776 
0.0208355 0.00468968 0.999772 
0.0201988 0.00418888 0.999787 
0.0191725 0.00449548 0.999806 
0.0174538 0.00629682 0.999828 
0.0162414 0.0109801 0.999808 
0.0143026 0.018548 0.999726 
0.0117062 0.0289252 0.999513 
0.00885631 0.0422444 0.999068 
0.00480283 0.0574676 0.998336 
-0.00102014 0.0733145 0.997308 
-0.00783325 0.0903989 0.995875 
-0.016794 0.109366 0.99386 
-0.0290508 0.129259 0.991185 
-0.0467295 0.148557 0.987799 
-0.0687431 0.168808 0.983249 
-0.0938664 0.186681 0.977926 
-0.0936093 0.199675 0.97538 
-0.108632 0.216071 0.970316 
-0.0908242 0.23117 0.968665 
-0.0950386 0.257853 0.961498 
-0.0580818 0.299325 0.952382 
-0.0732607 0.376427 0.923545 
-0.0341797 0.498827 0.866028 
-0.0354755 0.648221 0.760625 
-0.0145663 0.83061 0.556664 
-0.00616744 0.975566 0.219618 
-0.00226119 0.992282 -0.123978 
-0.000979361 0.939624 -0.342207 
0.0119437 0.749255 -0.662174 
0.0335037 0.550491 -0.834169 
0.0674664 0.459521 -0.885601 
0.0763587 0.371158 -0.925425 
0.0658883 0.304312 -0.950291 
0.0854246 0.258918 -0.962114 
0.100985 0.229888 -0.967964 
0.0982747 0.210142 -0.972719 
0.095676 0.195848 -0.975956 
0.0936274 0.180177 -0.979168 
0.0661501 0.162582 -0.984475 
0.0431483 0.143587 -0.988697 
0.0295331 0.124389 -0.991794 
0.0173507 0.105637 -0.994253 
0.00597539 0.0852358 -0.996343 
-0.00111317 0.0671172 -0.997744 
-0.0064721 0.0510175 -0.998677 
-0.0100138 0.0375673 -0.999244 
-0.0126517 0.0266341 -0.999565 
-0.0150344 0.0180567 -0.999724 
-0.0169835 0.0114958 -0.99979 
-0.0188373 0.0070221 -0.999798 
-0.019962 0.00421282 -0.999792 
-0.0205182 0.002605 -0.999786 
-0.0212093 0.00238481 -0.999772 
-0.0212456 0.00260898 -0.999771 
-0.0211377 0.00275612 -0.999773 
-0.0215192 0.0022511 -0.999766 
-0.0191081 0.00169362 -0.999816 
-0.0199929 9.63542e-05 -0.9998 
-0.019345 -0.000449006 -0.999813 
-0.0180573 0.000941099 -0.999837 
-0.0175934 0.00318807 -0.99984 
-0.0149789 0.00409951 -0.999879 
-0.0156139 -0.00447612 -0.999868 
-0.0131639 -0.0142785 -0.999811 
-0.00799656 -0.0174515 -0.999816 
0.00100424 -0.000572138 -0.999999 
-0.00140429 -0.000895417 0.999999 
0.00914556 -0.0175315 0.999804 
0.0117883 -0.0166511 0.999792 
0.0158528 -0.0061304 0.999856 
0.017357 0.00012474 0.999849 
0.0197026 0.00152332 0.999805 
0.0207676 -0.000831759 0.999784 
0.021321 -0.00269595 0.999769 
0.0221919 -0.00290064 0.99975 
0.0225036 -0.00168171 0.999745 
0.0231394 0.000636462 0.999732 
0.0237407 0.00277848 0.999714 
0.023452 0.00366845 0.999718 
0.0228674 0.00430267 0.999729 
0.0216984 0.00510642 0.999752 
0.020008 0.00650735 0.999779 
0.0191854 0.00848356 0.99978 
0.0165473 0.0130187 0.999778 
0.0130003 0.0202053 0.999711 
0.00844192 0.0306693 0.999494 
0.0031471 0.0437399 0.999038 
-0.00483845 0.0598597 0.998195 
-0.0154271 0.0778505 0.996846 
-0.0278869 0.0974426 0.99485 
-0.0456597 0.119231 0.991816 
-0.070892 0.143823 0.987061 
-0.105538 0.171569 0.979503 
-0.139222 0.193703 0.971132 
-0.187356 0.218888 0.957594 
-0.203896 0.228082 0.952053 
-0.216088 0.235947 0.947436 
-0.204081 0.243336 0.948229 
-0.187461 0.260919 0.946985 
-0.135809 0.310323 0.94088 
-0.191653 0.367416 0.910096 
-0.103426 0.427109 0.898266 
-0.0701608 0.533564 0.842845 
-0.0418214 0.743674 0.667233 
-0.0250945 0.881865 0.470834 
-0.00971073 0.998332 0.056912 
0.00736704 0.897763 -0.440417 
0.0354849 0.667428 -0.743829 
0.0848996 0.568935 -0.817989 
0.131662 0.471469 -0.871999 
0.151945 0.382715 -0.911286 
0.15551 0.307447 -0.938772 
0.190419 0.266356 -0.944878 
0.213707 0.245138 -0.945641 
0.216515 0.233459 -0.947955 
0.195098 0.221183 -0.955518 
0.184097 0.214384 -0.959243 
0.14928 0.196473 -0.969079 
0.107491 0.170665 -0.979448 
0.0756903 0.145889 -0.986401 
0.0513913 0.122087 -0.991188 
0.028858 0.0982812 -0.99474 
0.0149722 0.0783292 -0.996815 
0.00480264 0.0602003 -0.998175 
-0.00194775 0.0448689 -0.998991 
-0.00685436 0.0324297 -0.999451 
-0.0110015 0.0226789 -0.999682 
-0.0146825 0.0152869 -0.999775 
-0.0179038 0.00996427 -0.99979 
-0.020798 0.00623173 -0.999764 
-0.023206 0.0038778 -0.999723 
-0.024093 0.00285671 -0.999706 
-0.023839 0.00231285 -0.999713 
-0.0241012 0.00177115 -0.999708 
-0.0234712 0.000738858 -0.999724 
-0.0232199 4.82798e-05 -0.99973 
-0.022526 -0.000959897 -0.999746 
-0.0213046 -0.00074736 -0.999773 
-0.0215228 0.000402818 -0.999768 
-0.0197935 0.00114982 -0.999803 
-0.0192135 0.000867915 -0.999815 
-0.0169442 -0.00709226 -0.999831 
-0.0124962 -0.0186281 -0.999748 
-0.00995459 -0.0185491 -0.999778 
0.00147846 -0.00096058 -0.999998 
-0.00142933 -0.000662915 0.999999 
0.00580061 -0.019649 0.99979 
0.00338414 -0.0209445 0.999775 
0.00619733 -0.00967508 0.999934 
0.00788283 -0.00268834 0.999965 
0.0104732 -0.000143651 0.999945 
0.0105506 -0.00099873 0.999944 
0.0114541 -0.00286737 0.99993 
0.0137132 -0.00372561 0.999899 
0.0133549 -0.00316971 0.999906 
0.0141672 -0.000627327 0.999899 
0.0156978 0.00179073 0.999875 
0.0157956 0.00336433 0.99987 
0.0135235 0.00491479 0.999896 
0.0119569 0.00678026 0.999906 
0.00943509 0.00928951 0.999912 
0.00893929 0.0118973 0.999889 
0.00455342 0.0174956 0.999837 
-0.000242952 0.0258135 0.999667 
-0.00679178 0.0373525 0.999279 
-0.0144635 0.0517874 0.998553 
-0.0257641 0.0700526 0.997211 
-0.0408289 0.0917766 0.994942 
-0.0595675 0.115258 0.991548 
-0.0876128 0.145359 0.985492 
-0.127274 0.180879 0.975235 
-0.177499 0.217841 0.959708 
-0.217042 0.239071 0.946434 
-0.276277 0.270154 0.922327 
-0.305612 0.277044 0.91096 
-0.327248 0.278914 0.902837 
-0.332628 0.277577 0.901282 
-0.313126 0.277259 0.908339 
-0.225227 0.293415 0.929075 
-0.254295 0.327876 0.909852 
-0.212641 0.423127 0.880765 
-0.143961 0.488988 0.860329 
-0.0826067 0.617482 0.782235 
-0.0492122 0.878864 0.474527 
-0.024973 0.958269 0.284776 
-0.00377205 0.985375 -0.170359 
0.0471791 0.724928 -0.687207 
0.169418 0.521115 -0.836503 
0.226397 0.425988 -0.875945 
0.225935 0.352714 -0.908045 
0.276248 0.307738 -0.910486 
0.311961 0.277814 -0.90857 
0.337366 0.272813 -0.900976 
0.328077 0.272855 -0.904387 
0.289295 0.26121 -0.920911 
0.279071 0.266359 -0.92259 
0.227024 0.243209 -0.943032 
0.181961 0.220092 -0.958358 
0.136758 0.187227 -0.97275 
0.0977895 0.153276 -0.983333 
0.063691 0.119493 -0.99079 
0.0411222 0.0923282 -0.994879 
0.0257887 0.0704379 -0.997183 
0.0162137 0.053484 -0.998437 
0.00805156 0.0389404 -0.999209 
0.0020341 0.0275564 -0.999618 
-0.00333409 0.0191166 -0.999812 
-0.00739234 0.0130452 -0.999888 
-0.0110962 0.00858875 -0.999902 
-0.01429 0.00544785 -0.999883 
-0.0150272 0.00357765 -0.999881 
-0.0147775 0.00214432 -0.999889 
-0.0146401 0.000926726 -0.999892 
-0.01448 -0.000711537 -0.999895 
-0.0158426 -0.0018566 -0.999873 
-0.0132051 -0.00257013 -0.99991 
-0.0110923 -0.00170981 -0.999937 
-0.0123089 -0.00014962 -0.999924 
-0.00999401 -0.00034735 -0.99995 
-0.0115732 -0.00267912 -0.999929 
-0.00732463 -0.0116745 -0.999905 
-0.00373553 -0.0234423 -0.999718 
-0.00637773 -0.0205249 -0.999769 
0.00151686 -0.000878418 -0.999998 
-0.000169751 -0.00103199 0.999999 
0.000336896 -0.0214088 0.999771 
-0.0026685 -0.0250306 0.999683 
-0.000583014 -0.0143752 0.999897 
0.000537937 -0.00514114 0.999987 
0.00193491 -0.000955494 0.999998 
0.00272731 -0.00139558 0.999995 
0.00440063 -0.00387011 0.999983 
0.00594125 -0.00527056 0.999968 
0.0066173 -0.00416797 0.999969 
0.0070476 -0.00124517 0.999974 
0.00862555 0.00151196 0.999962 
0.00785066 0.00370458 0.999962 
0.00614742 0.00640772 0.999961 
0.00410141 0.00931141 0.999948 
0.000991089 0.0130197 0.999915 
-0.00136807 0.0168299 0.999857 
-0.00648923 0.0241728 0.999687 
-0.0126301 0.0342204 0.999335 
-0.0209052 0.048255 0.998616 
-0.0317294 0.066337 0.997293 
-0.0477162 0.0909681 0.99471 
-0.0707742 0.122684 0.989919 
-0.101376 0.158894 0.982077 
-0.144475 0.203089 0.968443 
-0.200062 0.2502 0.947299 
-0.261542 0.2906 0.920406 
-0.304082 0.306694 0.901927 
-0.370402 0.338898 0.864841 
-0.399155 0.337793 0.852392 
-0.436023 0.338438 0.833872 
-0.403049 0.304833 0.862919 
-0.465077 0.323068 0.824215 
-0.364665 0.307001 0.879074 
-0.375225 0.337289 0.86339 
-0.32306 0.372133 0.870143 
-0.240582 0.473853 0.847103 
-0.129429 0.610831 0.78111 
-0.0686466 0.752615 0.654873 
-0.0156023 0.998878 0.0447245 
0.0197751 0.792218 -0.609917 
0.104164 0.629309 -0.770143 
0.261511 0.483065 -0.835619 
0.308009 0.381733 -0.871442 
0.362583 0.352294 -0.862799 
0.376091 0.310493 -0.873012 
0.442748 0.307218 -0.842372 
0.451131 0.321553 -0.832517 
0.424021 0.328925 -0.84381 
0.377299 0.322562 -0.868101 
0.339705 0.323461 -0.883161 
0.278078 0.295249 -0.914057 
0.234315 0.27586 -0.932201 
0.18038 0.236134 -0.954832 
0.130947 0.189933 -0.973025 
0.0896739 0.144169 -0.985481 
0.0614465 0.109478 -0.992088 
0.0428099 0.083281 -0.995606 
0.0294739 0.0623354 -0.99762 
0.0188042 0.0448257 -0.998818 
0.0116131 0.0323208 -0.99941 
0.00500448 0.0224401 -0.999736 
0.000337045 0.0157313 -0.999876 
-0.00309312 0.0110597 -0.999934 
-0.00615023 0.00731676 -0.999954 
-0.00694062 0.00469392 -0.999965 
-0.00776919 0.00221475 -0.999967 
-0.00804476 0.000214371 -0.999968 
-0.00720379 -0.00201704 -0.999972 
-0.00798674 -0.00365586 -0.999961 
-0.00571434 -0.00470343 -0.999973 
-0.00429241 -0.00320348 -0.999986 
-0.00412841 -0.000893582 -0.999991 
-0.00209804 -0.00125501 -0.999997 
-0.00304852 -0.0054484 -0.999981 
-0.000198319 -0.0156241 -0.999878 
0.00194103 -0.0264149 -0.999649 
-0.000786186 -0.0209335 -0.999781 
-0.000105102 -0.00088569 -1 
0.00094172 -0.00105044 0.999999 
-0.00291588 -0.0214124 0.999766 
-0.00484777 -0.0269097 0.999626 
-0.00421946 -0.0198666 0.999794 
-0.00377824 -0.00872446 0.999955 
-0.00295437 -0.00255034 0.999992 
-0.00172199 -0.00140527 0.999998 
-6.91919e-06 -0.00365643 0.999993 
0.00142689 -0.00639382 0.999979 
0.00278073 -0.00617035 0.999977 
0.00347222 -0.00317917 0.999989 
0.00385698 0.000199369 0.999993 
0.00347188 0.00310469 0.999989 
0.00254558 0.00652486 0.999975 
0.000560696 0.0104455 0.999945 
-0.00205918 0.0144229 0.999894 
-0.00622775 0.0198367 0.999784 
-0.0104578 0.026193 0.999602 
-0.0170763 0.037148 0.999164 
-0.0252939 0.0515951 0.998348 
-0.0368556 0.0718178 0.996737 
-0.052949 0.0985752 0.99372 
-0.0767447 0.134707 0.987909 
-0.110693 0.180802 0.977271 
-0.154876 0.234569 0.959683 
-0.211258 0.288961 0.933741 
-0.277603 0.339814 0.89859 
-0.345119 0.385909 0.855551 
-0.37556 0.379999 0.845313 
-0.444547 0.402154 0.800406 
-0.491081 0.400774 0.773447 
-0.536637 0.398295 0.743896 
-0.489254 0.347784 0.799798 
-0.56481 0.361827 0.741668 
-0.476119 0.328032 0.815908 
-0.432032 0.379613 0.818072 
-0.34952 0.406584 0.844112 
-0.197786 0.563713 0.80194 
-0.0912758 0.799051 0.594295 
-4.73606e-05 0.978361 -0.206904 
0.0269414 0.856659 -0.515179 
0.174355 0.617616 -0.76691 
0.362868 0.412962 -0.835338 
0.460265 0.404822 -0.790111 
0.474973 0.33919 -0.812004 
0.472669 0.319071 -0.821449 
0.514287 0.336783 -0.788724 
0.512517 0.372353 -0.773744 
0.480177 0.401017 -0.780138 
0.421868 0.383238 -0.821679 
0.402812 0.411899 -0.817363 
0.33731 0.369636 -0.865789 
0.304315 0.365315 -0.879737 
0.235426 0.312032 -0.92044 
0.167295 0.249053 -0.953931 
0.117994 0.189837 -0.9747 
0.0823862 0.141471 -0.986508 
0.0577179 0.105195 -0.992775 
0.040999 0.0783409 -0.996083 
0.0282281 0.0567487 -0.997989 
0.0195129 0.0416943 -0.99894 
0.011954 0.029198 -0.999502 
0.00637151 0.0209805 -0.99976 
0.00224203 0.0152528 -0.999881 
-0.00088495 0.0104775 -0.999945 
-0.00233358 0.00712026 -0.999972 
-0.0037901 0.0035623 -0.999986 
-0.00416413 0.000370981 -0.999991 
-0.00376446 -0.00249442 -0.99999 
-0.00321129 -0.0052351 -0.999981 
-0.00205375 -0.00643079 -0.999977 
-0.000728459 -0.00449056 -0.99999 
0.000205075 -0.00156976 -0.999999 
0.0020033 -0.00169386 -0.999997 
0.00181345 -0.00665583 -0.999976 
0.00271178 -0.0176137 -0.999841 
0.00331984 -0.0280372 -0.999601 
0.00240655 -0.0234819 -0.999721 
-0.000882624 -0.00077852 -0.999999 
0.000478795 -0.000761701 1 
-0.00309094 -0.0226836 0.999738 
-0.00432275 -0.0275627 0.999611 
-0.00412181 -0.016481 0.999856 
-0.00346188 -0.00630838 0.999974 
-0.00188524 -0.0025125 0.999995 
-0.000100394 -0.00274859 0.999996 
0.00180393 -0.00581181 0.999981 
0.00349918 -0.00785949 0.999963 
0.00424727 -0.00620908 0.999972 
0.00456903 -0.00201302 0.999988 
0.00441384 0.00163942 0.999989 
0.00333774 0.00562002 0.999979 
0.00180708 0.0100044 0.999948 
-0.000880019 0.0149307 0.999888 
-0.00448477 0.0200154 0.99979 
-0.00856973 0.0269943 0.999599 
-0.0137757 0.0356805 0.999268 
-0.0211182 0.0505001 0.998501 
-0.0311342 0.0699146 0.997067 
-0.0457888 0.0979124 0.994141 
-0.0663486 0.134885 0.988637 
-0.0965541 0.183338 0.978297 
-0.137294 0.245726 0.959567 
-0.192054 0.320309 0.927641 
-0.243021 0.364334 0.899001 
-0.309247 0.415684 0.855321 
-0.38016 0.468369 0.797565 
-0.434699 0.487339 0.757322 
-0.454152 0.458438 0.763925 
-0.518299 0.463048 0.718994 
-0.572917 0.459511 0.678687 
-0.580899 0.388992 0.715012 
-0.66403 0.400295 0.631528 
-0.607917 0.355488 0.709976 
-0.527467 0.369998 0.764774 
-0.363459 0.438492 0.821963 
-0.145024 0.540188 0.828954 
-0.0457087 0.944952 0.324002 
0.00964371 0.966623 -0.256022 
0.0193385 0.849156 -0.527789 
0.370354 0.438977 -0.818619 
0.511282 0.435862 -0.740686 
0.480653 0.369587 -0.795222 
0.582502 0.349151 -0.73402 
0.623742 0.35284 -0.697459 
0.61411 0.419825 -0.668293 
0.555147 0.440084 -0.705789 
0.524202 0.476612 -0.705729 
0.480619 0.474327 -0.737577 
0.403651 0.465638 -0.787558 
0.366878 0.475105 -0.799797 
0.303206 0.418573 -0.856074 
0.234842 0.352505 -0.905864 
0.173912 0.293605 -0.939974 
0.124538 0.228521 -0.965541 
0.086399 0.168412 -0.981923 
0.0604676 0.125013 -0.990311 
0.0418861 0.0898265 -0.995076 
0.0292944 0.0663495 -0.997366 
0.0191368 0.0466842 -0.998726 
0.0120945 0.0333275 -0.999371 
0.0066502 0.0242277 -0.999684 
0.0025005 0.0180857 -0.999833 
-0.000492723 0.013064 -0.999915 
-0.00281212 0.00868428 -0.999958 
-0.00421625 0.00434026 -0.999982 
-0.00507361 0.000490818 -0.999987 
-0.004953 -0.00331428 -0.999982 
-0.00391511 -0.00648542 -0.999971 
-0.00357775 -0.00795167 -0.999962 
-0.00216152 -0.00584636 -0.999981 
0.000150099 -0.0024052 -0.999997 
0.00181551 -0.00240278 -0.999995 
0.00309182 -0.00789254 -0.999964 
0.00297274 -0.0184957 -0.999825 
0.00273799 -0.0286533 -0.999586 
0.0025755 -0.0244141 -0.999699 
-0.000455922 -0.000811931 -1 
-0.00012227 -0.000849617 1 
-0.000982929 -0.02357 0.999722 
-0.00208117 -0.0290434 0.999576 
-0.00137969 -0.0189896 0.999819 
-1.54465e-06 -0.00831693 0.999965 
0.00215509 -0.0036247 0.999991 
0.00396851 -0.00368839 0.999985 
0.00587383 -0.00675425 0.99996 
0.0073829 -0.00875734 0.999934 
0.00789069 -0.00690873 0.999945 
0.00748884 -0.00279536 0.999968 
0.00741674 0.00183034 0.999971 
0.00598838 0.00642795 0.999961 
0.00418679 0.0112836 0.999928 
0.00150519 0.016187 0.999868 
-0.00192385 0.0219952 0.999756 
-0.00567059 0.0292448 0.999556 
-0.0107332 0.0395655 0.999159 
-0.0171973 0.0542587 0.998379 
-0.0264585 0.0760189 0.996755 
-0.0394185 0.104515 0.993742 
-0.0582366 0.146827 0.987446 
-0.0862428 0.200067 0.975979 
-0.124755 0.271688 0.954265 
-0.178179 0.353161 0.918439 
-0.244698 0.440295 0.863865 
-0.307218 0.485722 0.818346 
-0.374983 0.53264 0.758738 
-0.443822 0.571683 0.690073 
-0.497647 0.555327 0.666303 
-0.530393 0.521914 0.668049 
-0.591692 0.532237 0.605495 
-0.615644 0.449808 0.647036 
-0.645941 0.429298 0.631239 
-0.580447 0.355153 0.732767 
-0.611181 0.377562 0.695633 
-0.494411 0.423795 0.758917 
-0.339793 0.46567 0.817124 
-0.120828 0.669409 0.733002 
-0.0166079 0.99866 0.0490109 
0.0590079 0.7411 -0.668797 
0.369926 0.459589 -0.807424 
0.563995 0.406939 -0.718547 
0.600273 0.378215 -0.704717 
0.611608 0.389045 -0.688898 
0.701469 0.448481 -0.5539 
0.61595 0.460669 -0.639054 
0.585966 0.510818 -0.629054 
0.551493 0.568156 -0.610781 
0.477645 0.526241 -0.70351 
0.429495 0.560719 -0.707904 
0.375271 0.556749 -0.741082 
0.315849 0.505106 -0.803186 
0.261538 0.443484 -0.857275 
0.199863 0.376407 -0.904639 
0.139258 0.295515 -0.945134 
0.0939976 0.217064 -0.971621 
0.0632588 0.158938 -0.98526 
0.0437916 0.114142 -0.992499 
0.0294515 0.0831952 -0.996098 
0.0194665 0.0586853 -0.998087 
0.0116794 0.041336 -0.999077 
0.00630517 0.0301238 -0.999526 
0.0019093 0.0226743 -0.999741 
-0.00159457 0.0166967 -0.999859 
-0.00423233 0.0117951 -0.999921 
-0.00631957 0.00657973 -0.999958 
-0.00777121 0.00187946 -0.999968 
-0.00803023 -0.00265554 -0.999964 
-0.00769849 -0.00687031 -0.999947 
-0.00737731 -0.00869028 -0.999935 
-0.00649328 -0.00674496 -0.999956 
-0.00362475 -0.00343614 -0.999988 
-0.00234898 -0.00328083 -0.999992 
0.000259249 -0.00751763 -0.999972 
0.000293739 -0.0176001 -0.999845 
0.000277517 -0.0285677 -0.999592 
0.00075785 -0.0244135 -0.999702 
0.000149155 -0.000700666 -1 
-0.000148649 -0.000759369 1 
0.000221042 -0.0256957 0.99967 
0.00017432 -0.0302383 0.999543 
0.00160407 -0.019851 0.999802 
0.00352587 -0.00939937 0.99995 
0.00575971 -0.00500019 0.999971 
0.00776701 -0.00552625 0.999955 
0.00953419 -0.00818598 0.999921 