# vtk DataFile Version 3.0 
Exported using Morpho https://github.com/Morpho-lang/morpho 
ASCII 
DATASET UNSTRUCTURED_GRID 

POINTS 1978 float 
-12 -4 -1.75155e-13 
-11.5928 -4 2.83461e-13 
-11.293 -4 8.60432e-13 
-10.9613 -4 -1.55484e-12 
-10.6576 -4 -1.12606e-12 
-10.3255 -4 -4.07044e-13 
-10.0004 -4 3.77163e-13 
-9.68012 -4 5.97034e-13 
-9.3248 -4 2.99894e-13 
-8.99539 -4 -2.59788e-13 
-8.68925 -4 -5.50215e-13 
-8.36853 -4 -7.11335e-13 
-8.06543 -4 -6.21437e-13 
-7.76703 -4 -5.35295e-13 
-7.47181 -4 -2.10931e-13 
-7.18264 -4 -2.63009e-13 
-6.87169 -4 -2.90931e-13 
-6.57026 -4 -5.3553e-13 
-6.27152 -4 -8.97748e-13 
-5.97248 -4 -1.21338e-12 
-5.67339 -4 -1.29282e-12 
-5.3749 -4 -4.61132e-13 
-5.08612 -4 1.83961e-12 
-4.79196 -4 5.3916e-12 
-4.49761 -4 1.08065e-11 
-4.19792 -4 2.01329e-11 
-3.87946 -4 3.51135e-11 
-3.54454 -4 5.80352e-11 
-3.19561 -4 8.61511e-11 
-2.84686 -4 1.11267e-10 
-2.50189 -4 1.34186e-10 
-2.20072 -4 1.2481e-10 
-1.94101 -4 1.19932e-10 
-1.71454 -4 1.39345e-10 
-1.40339 -4 1.42376e-10 
-1.18487 -4 1.034e-10 
-0.88356 -4 7.3188e-11 
-0.670904 -4 -4.34103e-11 
-0.318196 -4 -2.64599e-11 
-0.0669005 -4 -6.8214e-11 
0.423495 -4 1.60552e-10 
0.547978 -4 -5.85331e-11 
0.871713 -4 -6.20776e-11 
1.18168 -4 -1.21334e-10 
1.39265 -4 -1.2392e-10 
1.61897 -4 -1.35456e-10 
1.90548 -4 -1.4806e-10 
2.18794 -4 -1.43126e-10 
2.50815 -4 -1.46144e-10 
2.90322 -4 -1.19829e-10 
3.24285 -4 -8.41541e-11 
3.60762 -4 -5.79684e-11 
3.94919 -4 -3.46311e-11 
4.24476 -4 -1.93054e-11 
4.52645 -4 -1.04679e-11 
4.80356 -4 -4.90993e-12 
5.10101 -4 -1.54293e-12 
5.39067 -4 4.20523e-13 
5.68715 -4 1.13887e-12 
5.98481 -4 1.17181e-12 
6.28026 -4 9.80196e-13 
6.57606 -4 6.70208e-13 
6.8722 -4 4.28628e-13 
7.15712 -4 1.56732e-13 
7.44557 -4 1.57631e-13 
7.75309 -4 2.01579e-13 
8.06001 -4 3.59402e-13 
8.35986 -4 4.13671e-13 
8.67345 -4 3.56484e-13 
8.95378 -4 4.38831e-13 
9.30911 -4 2.98572e-13 
9.62149 -4 -2.30354e-13 
9.91761 -4 -1.57452e-14 
10.2698 -4 1.69446e-13 
10.577 -4 1.07044e-12 
10.986 -4 1.58575e-12 
11.3097 -4 -1.33951e-12 
11.5986 -4 -2.5205e-13 
12 -4 1.41592e-13 
-12 -3.6378 9.69612e-13 
-11.6929 -3.71663 -3.76231e-13 
-11.3423 -3.61835 -4.8254e-13 
-11.0349 -3.6613 -4.5101e-13 
-10.7093 -3.63814 -2.54499e-13 
-10.398 -3.67042 9.98139e-14 
-10.0646 -3.66272 7.47674e-14 
-9.74112 -3.66115 -6.6045e-14 
-9.40976 -3.69043 -1.40832e-13 
-9.06851 -3.67202 -3.02629e-14 
-8.75141 -3.65564 9.18191e-14 
-8.43622 -3.67835 2.04274e-13 
-8.1117 -3.65697 2.61391e-13 
-7.80355 -3.65182 3.50209e-13 
-7.49816 -3.64722 4.52515e-13 
-7.20292 -3.64888 5.82769e-13 
-6.89783 -3.67899 7.495e-13 
-6.58612 -3.67014 1.08953e-12 
-6.27873 -3.66894 1.61475e-12 
-5.97758 -3.67234 2.23905e-12 
-5.67569 -3.67484 3.2338e-12 
-5.38035 -3.66844 4.32275e-12 
-5.08594 -3.66513 5.01541e-12 
-4.78393 -3.66713 5.59442e-12 
-4.47348 -3.65619 7.54618e-12 
-4.14958 -3.64524 9.5259e-12 
-3.81692 -3.62409 1.35989e-11 
-3.46949 -3.62394 6.7324e-12 
-3.1418 -3.61 1.34518e-12 
-2.80145 -3.65563 2.46928e-11 
-2.49728 -3.67585 -1.38783e-11 
-2.18839 -3.7198 2.35056e-11 
-1.9079 -3.7259 2.22099e-11 
-1.61387 -3.82913 1.08219e-11 
-1.3488 -3.79701 1.9849e-11 
-1.06465 -3.88902 3.73774e-11 
-0.789834 -3.86047 2.02253e-11 
-0.497867 -3.91977 7.27493e-13 
-0.209992 -3.88904 2.42715e-11 
0.0790351 -3.94423 -5.92462e-11 
0.278567 -3.89615 4.50752e-11 
0.658626 -3.90858 -3.66219e-11 
0.990049 -3.89391 6.49178e-12 
1.18125 -3.81897 8.73034e-12 
1.40452 -3.80347 1.25917e-11 
1.66679 -3.80635 -4.64004e-11 
1.94108 -3.7635 -1.09794e-11 
2.21401 -3.70963 -1.82509e-11 
2.54241 -3.70235 -5.37633e-12 
2.86949 -3.66775 -4.79755e-12 
3.218 -3.60866 4.62323e-13 
3.5537 -3.62794 -9.62303e-12 
3.90428 -3.64576 -9.62708e-12 
4.24554 -3.63048 -8.94282e-12 
4.55497 -3.65136 -5.88973e-12 
4.86828 -3.68421 -5.85677e-12 
5.17303 -3.67786 -4.94177e-12 
5.47416 -3.67619 -4.1207e-12 
5.77126 -3.66633 -3.04495e-12 
6.06731 -3.65471 -2.17148e-12 
6.36318 -3.64983 -1.60655e-12 
6.66259 -3.65211 -1.12424e-12 
6.9569 -3.64469 -7.56526e-13 
7.24958 -3.65264 -4.7062e-13 
7.55186 -3.67086 -3.79405e-13 
7.85332 -3.66141 -2.84189e-13 
8.14997 -3.64646 -1.80516e-13 
8.45048 -3.66186 -1.58995e-13 
8.7394 -3.62487 -4.76607e-14 
9.06327 -3.70199 -1.38931e-15 
9.38502 -3.66149 -2.75891e-14 
9.69484 -3.64163 -5.81598e-14 
10.0275 -3.69462 -1.03426e-13 
10.3473 -3.64126 9.00032e-15 
10.7125 -3.7233 1.97327e-13 
11.046 -3.64761 5.88528e-13 
11.3468 -3.60739 5.74066e-13 
11.6999 -3.7183 3.91566e-13 
12 -3.62336 -7.93153e-13 
-12 -3.33225 1.14568e-13 
-11.6315 -3.37105 -7.73332e-14 
-11.2876 -3.26601 -5.26726e-14 
-10.9704 -3.31576 -5.18581e-13 
-10.6458 -3.29234 -4.02012e-13 
-10.3224 -3.34089 -2.36924e-13 
-9.99475 -3.32533 -7.69989e-14 
-9.68599 -3.30802 -3.63687e-14 
-9.38935 -3.3684 -1.56811e-14 
-9.08619 -3.32143 7.09747e-15 
-8.78657 -3.31681 -2.56054e-14 
-8.47579 -3.34443 4.66286e-14 
-8.16442 -3.33615 2.21371e-13 
-7.84318 -3.31007 3.23851e-13 
-7.54005 -3.30485 3.66674e-13 
-7.23764 -3.29318 4.70932e-13 
-6.94061 -3.34916 7.08738e-13 
-6.63483 -3.3424 1.02938e-12 
-6.32924 -3.3443 1.38561e-12 
-6.02333 -3.34119 1.84653e-12 
-5.72556 -3.34933 2.53184e-12 
-5.42621 -3.33769 3.19099e-12 
-5.12807 -3.32894 3.52142e-12 
-4.82721 -3.33381 4.63851e-12 
-4.51585 -3.32152 5.6372e-12 
-4.18705 -3.30099 6.2374e-12 
-3.85824 -3.27425 4.4362e-12 
-3.52515 -3.28387 8.04241e-12 
-3.2082 -3.25571 3.15361e-12 
-2.90213 -3.32552 -8.38159e-12 
-2.60604 -3.34344 4.38724e-11 
-2.31959 -3.45777 -2.21509e-11 
-2.04827 -3.47263 1.01624e-10 
-1.61224 -3.63409 7.42983e-11 
-1.40915 -3.56873 -9.20388e-11 
-1.19934 -3.7129 2.8758e-11 
-0.96173 -3.77527 -3.56129e-11 
-0.625722 -3.80554 1.13193e-12 
-0.386517 -3.80166 -2.0512e-11 
-0.0539286 -3.80279 -7.81007e-12 
0.370838 -3.76984 -6.40599e-11 
0.772345 -3.81387 -5.45658e-11 
0.937226 -3.72763 4.30824e-12 
1.15849 -3.64998 -4.436e-11 
1.39897 -3.62022 -2.82764e-11 
1.69042 -3.62084 2.3391e-11 
1.95994 -3.52031 -2.41264e-11 
2.27473 -3.4459 -1.03258e-11 
2.57831 -3.39057 1.0928e-13 
2.88042 -3.35754 -7.96074e-12 
3.20522 -3.29039 -1.1531e-12 
3.54648 -3.26691 -3.30881e-13 
3.86394 -3.28448 -6.25711e-12 
4.18219 -3.29747 -6.02742e-12 
4.50752 -3.30479 -4.56559e-12 
4.81213 -3.35343 -4.85032e-12 
5.11178 -3.35604 -4.1528e-12 
5.4101 -3.35377 -3.28084e-12 
5.70716 -3.33577 -2.5112e-12 
6.00311 -3.32095 -1.69371e-12 
6.30512 -3.30902 -1.26067e-12 
6.61054 -3.31342 -8.49392e-13 
6.91711 -3.30375 -6.87833e-13 
7.22282 -3.3111 -5.23657e-13 
7.52421 -3.33788 -4.01704e-13 
7.82796 -3.32139 -2.67854e-13 
8.127 -3.29868 -1.35368e-13 
8.42577 -3.30833 -6.22693e-14 
8.73321 -3.29038 -3.35956e-14 
9.04922 -3.37437 -1.79272e-14 
9.36829 -3.32665 -1.12239e-14 
9.67802 -3.29682 1.55641e-14 
9.99258 -3.36258 -5.71061e-15 
10.3041 -3.29515 1.27999e-13 
10.634 -3.39908 4.68651e-13 
10.9641 -3.32305 6.32668e-13 
11.2926 -3.24304 7.31611e-14 
11.6295 -3.37013 1.48213e-13 
12 -3.31214 -2.29184e-13 
-12 -3.01058 4.9519e-13 
-11.6508 -3.05338 -3.53622e-13 
-11.2967 -2.95011 7.07924e-13 
-10.9403 -2.97002 4.30483e-14 
-10.6064 -2.95685 -1.067e-13 
-10.2916 -3.00739 -1.22422e-13 
-9.98546 -2.97358 -5.97649e-14 
-9.66905 -2.97061 5.2823e-14 
-9.35573 -3.0131 1.06752e-13 
-9.05669 -2.96717 1.54804e-13 
-8.74711 -2.9753 1.5553e-14 
-8.44472 -3.01054 -4.29954e-14 
-8.12221 -3.01055 4.26669e-14 
-7.81617 -2.96708 2.16219e-14 
-7.50818 -2.96566 2.23677e-14 
-7.20752 -2.9498 6.62032e-15 
-6.9144 -3.01869 2.05234e-13 
-6.60602 -3.01382 2.89832e-14 
-6.30223 -3.01878 -5.50718e-14 
-6.00908 -3.0073 -1.33012e-13 
-5.71592 -3.0166 -3.09417e-13 
-5.423 -3.00105 -3.76181e-13 
-5.12326 -2.9886 -3.8864e-13 
-4.81427 -2.9919 -7.93862e-13 
-4.48638 -2.98645 -1.7472e-12 
-4.15862 -2.96016 -1.0757e-12 
-3.83876 -2.94071 -1.28611e-12 
-3.55074 -2.98299 -8.35858e-12 
-3.25955 -2.96261 -9.30229e-12 
-2.98814 -3.02204 1.92717e-12 
-2.73573 -3.08348 -7.34115e-12 
-2.41739 -3.18987 -5.10257e-11 
-2.18231 -3.24102 4.36361e-11 
-1.82858 -3.48645 -8.18527e-11 
-1.62669 -3.41042 5.60981e-11 
-1.24303 -3.49961 1.03288e-10 
-1.0396 -3.61168 -3.14767e-11 
-0.812714 -3.67673 3.648e-11 
-0.414177 -3.64042 8.4229e-11 
-0.217248 -3.71825 3.32432e-11 
0.1183 -3.79132 8.32597e-12 
0.629926 -3.66934 -9.20317e-11 
1.0034 -3.54946 7.78273e-11 
1.24887 -3.47057 -2.14353e-11 
1.54193 -3.4699 -3.32601e-11 
1.78139 -3.38326 2.25549e-11 
2.1232 -3.28408 -1.7436e-11 
2.4264 -3.17828 -1.84158e-11 
2.68644 -3.08988 -2.81468e-11 
2.96057 -3.08547 -1.8271e-12 
3.23909 -2.98196 7.97432e-12 
3.50031 -2.99857 5.32817e-12 
3.83296 -2.94618 4.5239e-12 
4.14156 -2.94868 4.45373e-12 
4.45446 -2.97073 3.85982e-12 
4.77938 -3.01031 1.21312e-12 
5.09111 -3.02188 9.50355e-14 
5.39633 -3.02413 5.24596e-14 
5.69451 -3.00275 4.14849e-13 
5.99637 -2.99252 1.68661e-13 
6.30137 -2.97658 1.33543e-13 
6.60158 -2.98202 -3.55958e-14 
6.91471 -2.97872 -3.39733e-16 
7.22786 -2.98209 -1.0236e-13 
7.53435 -3.00543 -1.29107e-13 
7.83762 -2.98222 -7.99823e-14 
8.13478 -2.9573 -4.58235e-14 
8.43727 -2.96727 1.59548e-14 
8.74931 -2.96437 -2.61069e-14 
9.06337 -3.04626 -8.66697e-14 
9.37224 -2.98738 -1.04821e-13 
9.66801 -2.9471 -1.91036e-14 
9.98097 -3.01774 9.77251e-14 
10.3083 -2.96246 1.1984e-13 
10.6401 -3.05999 2.64362e-13 
10.9737 -2.97799 -5.93856e-14 
11.3257 -2.91785 -8.17074e-13 
11.6613 -3.04979 3.36428e-13 
12 -2.9709 -5.64786e-13 
-12 -2.69356 3.70277e-13 
-11.652 -2.73133 -5.1043e-14 
-11.3231 -2.62081 6.10848e-13 
-10.9731 -2.65141 2.3663e-13 
-10.6259 -2.62825 5.4552e-14 
-10.2903 -2.65703 -2.23496e-14 
-9.95554 -2.64501 -8.45173e-16 
-9.61998 -2.64924 7.21298e-14 
-9.31889 -2.65807 1.59298e-13 
-8.99588 -2.63421 1.22406e-13 
-8.68769 -2.63457 2.64925e-14 
-8.37686 -2.68818 -5.00274e-15 
-8.07733 -2.66334 2.12772e-15 
-7.76277 -2.63595 -2.37384e-14 
-7.46186 -2.62599 -3.85334e-14 
-7.1438 -2.63056 -1.25774e-13 
-6.84481 -2.69373 -1.98519e-13 
-6.53899 -2.68607 -3.32761e-13 
-6.24777 -2.67876 -4.86633e-13 
-5.94959 -2.67374 -7.20668e-13 
[...]
POINT_DATA 1978 
VECTORS vectors float
-0.00022319 -0.000500741 1 
0.000679861 -0.018128 0.999835 
6.56472e-05 -0.00879909 0.999961 
0.000198697 0.00661336 0.999978 
0.000191433 0.0110705 0.999939 
0.000209241 0.00519981 0.999986 
0.000170461 -0.00302406 0.999995 
0.00016689 -0.005318 0.999986 
0.00018706 -0.00238178 0.999997 
0.000170538 0.00126513 0.999999 
0.000209344 0.00437437 0.99999 
0.000234338 0.00562609 0.999984 
0.000223024 0.00538697 0.999985 
0.000234769 0.00474883 0.999989 
0.000231027 0.00329398 0.999995 
0.000225273 0.00310681 0.999995 
0.000246619 0.00432703 0.999991 
0.000222776 0.00838569 0.999965 
0.00021959 0.0162969 0.999867 
0.000225971 0.0273761 0.999625 
0.000219654 0.0406751 0.999172 
0.000216595 0.0554036 0.998464 
0.000204701 0.0713897 0.997448 
0.000203508 0.0888035 0.996049 
0.000189954 0.106488 0.994314 
0.00017616 0.124374 0.992235 
0.000148805 0.141489 0.98994 
0.000115739 0.15795 0.987447 
8.91729e-05 0.173091 0.984906 
9.73692e-05 0.188851 0.982006 
0.000106018 0.205311 0.978697 
0.000147517 0.225584 0.974224 
-8.94306e-06 0.248571 0.968614 
0.000142651 0.279675 0.960095 
4.87429e-05 0.355012 0.934862 
2.40513e-05 0.433071 0.90136 
1.04049e-05 0.588278 0.808659 
-5.15117e-05 0.714256 0.699884 
-1.50563e-05 0.921576 0.388199 
-3.45029e-05 0.998713 0.050718 
2.85932e-05 0.87945 -0.47599 
4.13163e-06 0.809403 -0.587253 
-5.46349e-06 0.609677 -0.79265 
3.21056e-06 0.455314 -0.890331 
-3.94149e-05 0.369373 -0.929281 
-5.6809e-05 0.304645 -0.952466 
-0.00010636 0.260333 -0.965519 
-8.10473e-05 0.228449 -0.973556 
-7.04048e-05 0.204099 -0.97895 
-4.71103e-05 0.178942 -0.98386 
-5.63469e-05 0.166772 -0.985995 
-0.00012343 0.153088 -0.988213 
-0.000150938 0.138215 -0.990402 
-0.000177793 0.123204 -0.992381 
-0.0001762 0.104695 -0.994504 
-0.000208241 0.0867237 -0.996232 
-0.00022092 0.0688174 -0.997629 
-0.000210881 0.0532881 -0.998579 
-0.000226688 0.0394608 -0.999221 
-0.000227697 0.027812 -0.999613 
-0.00022123 0.018433 -0.99983 
-0.000241853 0.0112995 -0.999936 
-0.000232231 0.00603126 -0.999982 
-0.000213222 0.00299681 -0.999995 
-0.000244027 0.00171252 -0.999999 
-0.000243622 0.00210436 -0.999998 
-0.000220583 0.00281083 -0.999996 
-0.000251621 0.00350765 -0.999994 
-0.000187928 0.003497 -0.999994 
-0.000210957 0.00279692 -0.999996 
-0.00023985 0.00125678 -0.999999 
-0.000152253 -0.00115439 -0.999999 
-0.000218405 -0.00105021 -0.999999 
-0.000142771 0.00409622 -0.999992 
-0.0001125 0.00797823 -0.999968 
-0.000136591 0.00321009 -0.999995 
-9.83137e-07 -0.0121666 -0.999926 
-0.000693271 -0.0200533 -0.999799 
0.000219309 -0.000502972 -1 
-0.00120268 -0.00048482 0.999999 
0.0081817 -0.0168181 0.999825 
0.012881 -0.0127785 0.999835 
0.0157095 -0.00251217 0.999873 
0.0165355 0.00407373 0.999855 
0.0172108 0.00388967 0.999844 
0.0179159 -0.00056863 0.999839 
0.0185982 -0.00315204 0.999822 
0.0184095 -0.00276403 0.999827 
0.0188527 -0.000322674 0.999822 
0.0202974 0.00234069 0.999791 
0.0200547 0.00434512 0.999789 
0.020595 0.00483576 0.999776 
0.0208355 0.00468968 0.999772 
0.0201988 0.00418888 0.999787 
0.0191725 0.00449548 0.999806 
0.0174538 0.00629682 0.999828 
0.0162414 0.0109801 0.999808 
0.0143026 0.018548 0.999726 
0.0117062 0.0289252 0.999513 
0.00885631 0.0422444 0.999068 
0.00480283 0.0574676 0.998336 
-0.00102014 0.0733145 0.997308 
-0.00783325 0.0903989 0.995875 
-0.016794 0.109366 0.99386 
-0.0290508 0.129259 0.991185 
-0.0467295 0.148557 0.987799 
-0.0687431 0.168808 0.983249 
-0.0938664 0.186681 0.977926 
-0.0936093 0.199675 0.97538 
-0.108632 0.216071 0.970316 
-0.0908242 0.23117 0.968665 
-0.0950386 0.257853 0.961498 
-0.0580818 0.299325 0.952382 
-0.0732607 0.376427 0.923545 
-0.0341797 0.498827 0.866028 
-0.0354755 0.648221 0.760625 
-0.0145663 0.83061 0.556664 
-0.00616744 0.975566 0.219618 
-0.00226119 0.992282 -0.123978 
-0.000979361 0.939624 -0.342207 
0.0119437 0.749255 -0.662174 
0.0335037 0.550491 -0.834169 
0.0674664 0.459521 -0.885601 
0.0763587 0.371158 -0.925425 
0.0658883 0.304312 -0.950291 
0.0854246 0.258918 -0.962114 
0.100985 0.229888 -0.967964 
0.0982747 0.210142 -0.972719 
0.095676 0.195848 -0.975956 
0.0936274 0.180177 -0.979168 
0.0661501 0.162582 -0.984475 
0.0431483 0.143587 -0.988697 
0.0295331 0.124389 -0.991794 
0.0173507 0.105637 -0.994253 
0.00597539 0.0852358 -0.996343 
-0.00111317 0.0671172 -0.997744 
-0.0064721 0.0510175 -0.998677 
-0.0100138 0.0375673 -0.999244 
-0.0126517 0.0266341 -0.999565 
-0.0150344 0.0180567 -0.999724 
-0.0169835 0.0114958 -0.99979 
-0.0188373 0.0070221 -0.999798 
-0.019962 0.00421282 -0.999792 
-0.0205182 0.002605 -0.999786 
-0.0212093 0.00238481 -0.999772 
-0.0212456 0.00260898 -0.999771 
-0.0211377 0.00275612 -0.999773 
-0.0215192 0.0022511 -0.999766 
-0.0191081 0.00169362 -0.999816 
-0.0199929 9.63542e-05 -0.9998 
-0.019345 -0.000449006 -0.999813 
-0.0180573 0.000941099 -0.999837 
-0.0175934 0.00318807 -0.99984 
-0.0149789 0.00409951 -0.999879 
-0.0156139 -0.00447612 -0.999868 
-0.0131639 -0.0142785 -0.999811 
-0.00799656 -0.0174515 -0.999816 
0.00100424 -0.000572138 -0.999999 
-0.00140429 -0.000895417 0.999999 
0.00914556 -0.0175315 0.999804 
0.0117883 -0.0166511 0.999792 
0.0158528 -0.0061304 0.999856 
0.017357 0.00012474 0.999849 
0.0197026 0.00152332 0.999805 
0.0207676 -0.000831759 0.999784 
0.021321 -0.00269595 0.999769 
0.0221919 -0.00290064 0.99975 
0.0225036 -0.00168171 0.999745 
0.0231394 0.000636462 0.999732 
0.0237407 0.00277848 0.999714 
0.023452 0.00366845 0.999718 
0.0228674 0.00430267 0.999729 
0.0216984 0.00510642 0.999752 
0.020008 0.00650735 0.999779 
0.0191854 0.00848356 0.99978 
0.0165473 0.0130187 0.999778 
0.0130003 0.0202053 0.999711 
0.00844192 0.0306693 0.999494 
0.0031471 0.0437399 0.999038 
-0.00483845 0.0598597 0.998195 
-0.0154271 0.0778505 0.996846 
-0.0278869 0.0974426 0.99485 
-0.0456597 0.119231 0.991816 
-0.070892 0.143823 0.987061 
-0.105538 0.171569 0.979503 
-0.139222 0.193703 0.971132 
-0.187356 0.218888 0.957594 
-0.203896 0.228082 0.952053 
-0.216088 0.235947 0.947436 
-0.204081 0.243336 0.948229 
-0.187461 0.260919 0.946985 
-0.135809 0.310323 0.94088 
-0.191653 0.367416 0.910096 
-0.103426 0.427109 0.898266 
-0.0701608 0.533564 0.842845 
-0.0418214 0.743674 0.667233 
-0.0250945 0.881865 0.470834 
-0.00971073 0.998332 0.056912 
0.00736704 0.897763 -0.440417 
0.0354849 0.667428 -0.743829 
0.0848996 0.568935 -0.817989 
0.131662 0.471469 -0.871999 
0.151945 0.382715 -0.911286 
0.15551 0.307447 -0.938772 
0.190419 0.266356 -0.944878 
0.213707 0.245138 -0.945641 
0.216515 0.233459 -0.947955 
0.195098 0.221183 -0.955518 
0.184097 0.214384 -0.959243 
0.14928 0.196473 -0.969079 
0.107491 0.170665 -0.979448 
0.0756903 0.145889 -0.986401 
0.0513913 0.122087 -0.991188 
0.028858 0.0982812 -0.99474 
0.0149722 0.0783292 -0.996815 
0.00480264 0.0602003 -0.998175 
-0.00194775 0.0448689 -0.998991 
-0.00685436 0.0324297 -0.999451 
-0.0110015 0.0226789 -0.999682 
-0.0146825 0.0152869 -0.999775 
-0.0179038 0.00996427 -0.99979 
-0.020798 0.00623173 -0.999764 
-0.023206 0.0038778 -0.999723 
-0.024093 0.00285671 -0.999706 
-0.023839 0.00231285 -0.999713 
-0.0241012 0.00177115 -0.999708 
-0.0234712 0.000738858 -0.999724 
-0.0232199 4.82798e-05 -0.99973 
-0.022526 -0.000959897 -0.999746 
-0.0213046 -0.00074736 -0.999773 
-0.0215228 0.000402818 -0.999768 
-0.0197935 0.00114982 -0.999803 
-0.0192135 0.000867915 -0.999815 
-0.0169442 -0.00709226 -0.999831 
-0.0124962 -0.0186281 -0.999748 
-0.00995459 -0.0185491 -0.999778 
0.00147846 -0.00096058 -0.999998 
-0.00142933 -0.000662915 0.999999 
0.00580061 -0.019649 0.99979 
0.00338414 -0.0209445 0.999775 
0.00619733 -0.00967508 0.999934 
0.00788283 -0.00268834 0.999965 
0.0104732 -0.000143651 0.999945 
0.0105506 -0.00099873 0.999944 
0.0114541 -0.00286737 0.99993 
0.0137132 -0.00372561 0.999899 
0.0133549 -0.00316971 0.999906 
0.0141672 -0.000627327 0.999899 
0.0156978 0.00179073 0.999875 
0.0157956 0.00336433 0.99987 
0.0135235 0.00491479 0.999896 
0.0119569 0.00678026 0.999906 
0.00943509 0.00928951 0.999912 
0.00893929 0.0118973 0.999889 
0.00455342 0.0174956 0.999837 
-0.000242952 0.0258135 0.999667 
-0.00679178 0.0373525 0.999279 
-0.0144635 0.0517874 0.998553 
-0.0257641 0.0700526 0.997211 
-0.0408289 0.0917766 0.994942 
-0.0595675 0.115258 0.991548 
-0.0876128 0.145359 0.985492 
-0.127274 0.180879 0.975235 
-0.177499 0.217841 0.959708 
-0.217042 0.239071 0.946434 
-0.276277 0.270154 0.922327 
-0.305612 0.277044 0.91096 
-0.327248 0.278914 0.902837 
-0.332628 0.277577 0.901282 
-0.313126 0.277259 0.908339 
-0.225227 0.293415 0.929075 
-0.254295 0.327876 0.909852 
-0.212641 0.423127 0.880765 
-0.143961 0.488988 0.860329 
-0.0826067 0.617482 0.782235 
-0.0492122 0.878864 0.474527 
-0.024973 0.958269 0.284776 
-0.00377205 0.985375 -0.170359 
0.0471791 0.724928 -0.687207 
0.169418 0.521115 -0.836503 
0.226397 0.425988 -0.875945 
0.225935 0.352714 -0.908045 
0.276248 0.307738 -0.910486 
0.311961 0.277814 -0.90857 
0.337366 0.272813 -0.900976 
0.328077 0.272855 -0.904387 
0.289295 0.26121 -0.920911 
0.279071 0.266359 -0.92259 
0.227024 0.243209 -0.943032 
0.181961 0.220092 -0.958358 
0.136758 0.187227 -0.97275 
0.0977895 0.153276 -0.983333 
0.063691 0.119493 -0.99079 
0.0411222 0.0923282 -0.994879 
0.0257887 0.0704379 -0.997183 
0.0162137 0.053484 -0.998437 
0.00805156 0.0389404 -0.999209 
0.0020341 0.0275564 -0.999618 
-0.00333409 0.0191166 -0.999812 
-0.00739234 0.0130452 -0.999888 
-0.0110962 0.00858875 -0.999902 
-0.01429 0.00544785 -0.999883 
-0.0150272 0.00357765 -0.999881 
-0.0147775 0.00214432 -0.999889 
-0.0146401 0.000926726 -0.999892 
-0.01448 -0.000711537 -0.999895 
-0.0158426 -0.0018566 -0.999873 
-0.0132051 -0.00257013 -0.99991 
-0.0110923 -0.00170981 -0.999937 
-0.0123089 -0.00014962 -0.999924 
-0.00999401 -0.00034735 -0.99995 
-0.0115732 -0.00267912 -0.999929 
-0.00732463 -0.0116745 -0.999905 
-0.00373553 -0.0234423 -0.999718 
-0.00637773 -0.0205249 -0.999769 
0.00151686 -0.000878418 -0.999998 
-0.000169751 -0.00103199 0.999999 
0.000336896 -0.0214088 0.999771 
-0.0026685 -0.0250306 0.999683 
-0.000583014 -0.0143752 0.999897 
0.000537937 -0.00514114 0.999987 
0.00193491 -0.000955494 0.999998 
0.00272731 -0.00139558 0.999995 
0.00440063 -0.00387011 0.999983 
0.00594125 -0.00527056 0.999968 
0.0066173 -0.00416797 0.999969 
0.0070476 -0.00124517 0.999974 
0.00862555 0.00151196 0.999962 
0.00785066 0.00370458 0.999962 
0.00614742 0.00640772 0.999961 
0.00410141 0.00931141 0.999948 
0.000991089 0.0130197 0.999915 
-0.00136807 0.0168299 0.999857 
-0.00648923 0.0241728 0.999687 
-0.0126301 0.0342204 0.999335 
-0.0209052 0.048255 0.998616 
-0.0317294 0.066337 0.997293 
-0.0477162 0.0909681 0.99471 
-0.0707742 0.122684 0.989919 
-0.101376 0.158894 0.982077 
-0.144475 0.203089 0.968443 
-0.200062 0.2502 0.947299 
-0.261542 0.2906 0.920406 
-0.304082 0.306694 0.901927 
-0.370402 0.338898 0.864841 
-0.399155 0.337793 0.852392 
-0.436023 0.338438 0.833872 
-0.403049 0.304833 0.862919 
-0.465077 0.323068 0.824215 
-0.364665 0.307001 0.879074 
-0.375225 0.337289 0.86339 
-0.32306 0.372133 0.870143 
-0.240582 0.473853 0.847103 
-0.129429 0.610831 0.78111 
-0.0686466 0.752615 0.654873 
-0.0156023 0.998878 0.0447245 
0.0197751 0.792218 -0.609917 
0.104164 0.629309 -0.770143 
0.261511 0.483065 -0.835619 
0.308009 0.381733 -0.871442 
0.362583 0.352294 -0.862799 
0.376091 0.310493 -0.873012 
0.442748 0.307218 -0.842372 
0.451131 0.321553 -0.832517 
0.424021 0.328925 -0.84381 
0.377299 0.322562 -0.868101 
0.339705 0.323461 -0.883161 
0.278078 0.295249 -0.914057 
0.234315 0.27586 -0.932201 
0.18038 0.236134 -0.954832 
0.130947 0.189933 -0.973025 
0.0896739 0.144169 -0.985481 
0.0614465 0.109478 -0.992088 
0.0428099 0.083281 -0.995606 
0.0294739 0.0623354 -0.99762 
0.0188042 0.0448257 -0.998818 
0.0116131 0.0323208 -0.99941 
0.00500448 0.0224401 -0.999736 
0.000337045 0.0157313 -0.999876 
-0.00309312 0.0110597 -0.999934 
-0.00615023 0.00731676 -0.999954 
-0.00694062 0.00469392 -0.999965 
-0.00776919 0.00221475 -0.999967 
-0.00804476 0.000214371 -0.999968 
-0.00720379 -0.00201704 -0.999972 
-0.00798674 -0.00365586 -0.999961 
-0.00571434 -0.00470343 -0.999973 
-0.00429241 -0.00320348 -0.999986 
-0.00412841 -0.000893582 -0.999991 
-0.00209804 -0.00125501 -0.999997 
-0.00304852 -0.0054484 -0.999981 
-0.000198319 -0.0156241 -0.999878 
0.00194103 -0.0264149 -0.999649 
-0.000786186 -0.0209335 -0.999781 
-0.000105102 -0.00088569 -1 
0.00094172 -0.00105044 0.999999 
-0.00291588 -0.0214124 0.999766 
-0.00484777 -0.0269097 0.999626 
-0.00421946 -0.0198666 0.999794 
-0.00377824 -0.00872446 0.999955 
-0.00295437 -0.00255034 0.999992 
-0.00172199 -0.00140527 0.999998 
-6.91919e-06 -0.00365643 0.999993 
0.00142689 -0.00639382 0.999979 
0.00278073 -0.00617035 0.999977 
0.00347222 -0.00317917 0.999989 
0.00385698 0.000199369 0.999993 
0.00347188 0.00310469 0.999989 
0.00254558 0.00652486 0.999975 
0.000560696 0.0104455 0.999945 
-0.00205918 0.0144229 0.999894 
-0.00622775 0.0198367 0.999784 
-0.0104578 0.026193 0.999602 
-0.0170763 0.037148 0.999164 
-0.0252939 0.0515951 0.998348 
-0.0368556 0.0718178 0.996737 
-0.052949 0.0985752 0.99372 
-0.0767447 0.134707 0.987909 
-0.110693 0.180802 0.977271 
-0.154876 0.234569 0.959683 
-0.211258 0.288961 0.933741 
-0.277603 0.339814 0.89859 
-0.345119 0.385909 0.855551 
-0.37556 0.379999 0.845313 
-0.444547 0.402154 0.800406 
-0.491081 0.400774 0.773447 
-0.536637 0.398295 0.743896 
-0.489254 0.347784 0.799798 
-0.56481 0.361827 0.741668 
-0.476119 0.328032 0.815908 
-0.432032 0.379613 0.818072 
-0.34952 0.406584 0.844112 
-0.197786 0.563713 0.80194 
-0.0912758 0.799051 0.594295 
-4.73606e-05 0.978361 -0.206904 
0.0269414 0.856659 -0.515179 
0.174355 0.617616 -0.76691 
0.362868 0.412962 -0.835338 
0.460265 0.404822 -0.790111 
0.474973 0.33919 -0.812004 
0.472669 0.319071 -0.821449 
0.514287 0.336783 -0.788724 
0.512517 0.372353 -0.773744 
0.480177 0.401017 -0.780138 
0.421868 0.383238 -0.821679 
0.402812 0.411899 -0.817363 
0.33731 0.369636 -0.865789 
0.304315 0.365315 -0.879737 
0.235426 0.312032 -0.92044 
0.167295 0.249053 -0.953931 
0.117994 0.189837 -0.9747 
0.0823862 0.141471 -0.986508 
0.0577179 0.105195 -0.992775 
0.040999 0.0783409 -0.996083 
0.0282281 0.0567487 -0.997989 
0.0195129 0.0416943 -0.99894 
0.011954 0.029198 -0.999502 
0.00637151 0.0209805 -0.99976 
0.00224203 0.0152528 -0.999881 
-0.00088495 0.0104775 -0.999945 
-0.00233358 0.00712026 -0.999972 
-0.0037901 0.0035623 -0.999986 
-0.00416413 0.000370981 -0.999991 
-0.00376446 -0.00249442 -0.99999 
-0.00321129 -0.0052351 -0.999981 
-0.00205375 -0.00643079 -0.999977 
-0.000728459 -0.00449056 -0.99999 
0.000205075 -0.00156976 -0.999999 
0.0020033 -0.00169386 -0.999997 
0.00181345 -0.00665583 -0.999976 
0.00271178 -0.0176137 -0.999841 
0.00331984 -0.0280372 -0.999601 
0.00240655 -0.0234819 -0.999721 
-0.000882624 -0.00077852 -0.999999 
0.000478795 -0.000761701 1 
-0.00309094 -0.0226836 0.999738 
-0.00432275 -0.0275627 0.999611 
-0.00412181 -0.016481 0.999856 
-0.00346188 -0.00630838 0.999974 
-0.00188524 -0.0025125 0.999995 
-0.000100394 -0.00274859 0.999996 
0.00180393 -0.00581181 0.999981 
0.00349918 -0.00785949 0.999963 
0.00424727 -0.00620908 0.999972 
0.00456903 -0.00201302 0.999988 
0.00441384 0.00163942 0.999989 
0.00333774 0.00562002 0.999979 
0.00180708 0.0100044 0.999948 
-0.000880019 0.0149307 0.999888 
-0.00448477 0.0200154 0.99979 
-0.00856973 0.0269943 0.999599 
-0.0137757 0.0356805 0.999268 
-0.0211182 0.0505001 0.998501 
-0.0311342 0.0699146 0.997067 
-0.0457888 0.0979124 0.994141 
-0.0663486 0.134885 0.988637 
-0.0965541 0.183338 0.978297 
-0.137294 0.245726 0.959567 
-0.192054 0.320309 0.927641 
-0.243021 0.364334 0.899001 
-0.309247 0.415684 0.855321 
-0.38016 0.468369 0.797565 
-0.434699 0.487339 0.757322 
-0.454152 0.458438 0.763925 
-0.518299 0.463048 0.718994 
-0.572917 0.459511 0.678687 
-0.580899 0.388992 0.715012 
-0.66403 0.400295 0.631528 
-0.607917 0.355488 0.709976 
-0.527467 0.369998 0.764774 
-0.363459 0.438492 0.821963 
-0.145024 0.540188 0.828954 
-0.0457087 0.944952 0.324002 
0.00964371 0.966623 -0.256022 
0.0193385 0.849156 -0.527789 
0.370354 0.438977 -0.818619 
0.511282 0.435862 -0.740686 
0.480653 0.369587 -0.795222 
0.582502 0.349151 -0.73402 
0.623742 0.35284 -0.697459 
0.61411 0.419825 -0.668293 
0.555147 0.440084 -0.705789 
0.524202 0.476612 -0.705729 
0.480619 0.474327 -0.737577 
0.403651 0.465638 -0.787558 
0.366878 0.475105 -0.799797 
0.303206 0.418573 -0.856074 
0.234842 0.352505 -0.905864 
0.173912 0.293605 -0.939974 
0.124538 0.228521 -0.965541 
0.086399 0.168412 -0.981923 
0.0604676 0.125013 -0.990311 
0.0418861 0.0898265 -0.995076 
0.0292944 0.0663495 -0.997366 
0.0191368 0.0466842 -0.998726 
0.0120945 0.0333275 -0.999371 
0.0066502 0.0242277 -0.999684 
0.0025005 0.0180857 -0.999833 
-0.000492723 0.013064 -0.999915 
-0.00281212 0.00868428 -0.999958 
-0.00421625 0.00434026 -0.999982 
-0.00507361 0.000490818 -0.999987 
-0.004953 -0.00331428 -0.999982 
-0.00391511 -0.00648542 -0.999971 
-0.00357775 -0.00795167 -0.999962 
-0.00216152 -0.00584636 -0.999981 
0.000150099 -0.0024052 -0.999997 
0.00181551 -0.00240278 -0.999995 
0.00309182 -0.00789254 -0.999964 
0.00297274 -0.0184957 -0.999825 
0.00273799 -0.0286533 -0.999586 
0.0025755 -0.0244141 -0.999699 
-0.000455922 -0.000811931 -1 
-0.00012227 -0.000849617 1 
-0.000982929 -0.02357 0.999722 
-0.00208117 -0.0290434 0.999576 
-0.00137969 -0.0189896 0.999819 
-1.54465e-06 -0.00831693 0.999965 
0.00215509 -0.0036247 0.999991 
0.00396851 -0.00368839 0.999985 
0.00587383 -0.00675425 0.99996 
0.0073829 -0.00875734 0.999934 
0.00789069 -0.00690873 0.999945 
0.00748884 -0.00279536 0.999968 
0.00741674 0.00183034 0.999971 
0.00598838 0.00642795 0.999961 
0.00418679 0.0112836 0.999928 
0.00150519 0.016187 0.999868 
-0.00192385 0.0219952 0.999756 
-0.00567059 0.0292448 0.999556 
-0.0107332 0.0395655 0.999159 
-0.0171973 0.0542587 0.998379 
-0.0264585 0.0760189 0.996755 
-0.0394185 0.104515 0.993742 
-0.0582366 0.146827 0.987446 
-0.0862428 0.200067 0.975979 
-0.124755 0.271688 0.954265 
-0.178179 0.353161 0.918439 
-0.244698 0.440295 0.863865 
-0.307218 0.485722 0.818346 
-0.374983 0.53264 0.758738 
-0.443822 0.571683 0.690073 
-0.497647 0.555327 0.666303 
-0.530393 0.521914 0.668049 
-0.591692 0.532237 0.605495 
-0.615644 0.449808 0.647036 
-0.645941 0.429298 0.631239 
-0.580447 0.355153 0.732767 
-0.611181 0.377562 0.695633 
-0.494411 0.423795 0.758917 
-0.339793 0.46567 0.817124 
-0.120828 0.669409 0.733002 
-0.0166079 0.99866 0.0490109 
0.0590079 0.7411 -0.668797 
0.369926 0.459589 -0.807424 
0.563995 0.406939 -0.718547 
0.600273 0.378215 -0.704717 
0.611608 0.389045 -0.688898 
0.701469 0.448481 -0.5539 
0.61595 0.460669 -0.639054 
0.585966 0.510818 -0.629054 
0.551493 0.568156 -0.610781 
0.477645 0.526241 -0.70351 
0.429495 0.560719 -0.707904 
0.375271 0.556749 -0.741082 
0.315849 0.505106 -0.803186 
0.261538 0.443484 -0.857275 
0.199863 0.376407 -0.904639 
0.139258 0.295515 -0.945134 
0.0939976 0.217064 -0.971621 
0.0632588 0.158938 -0.98526 
0.0437916 0.114142 -0.992499 
0.0294515 0.0831952 -0.996098 
0.0194665 0.0586853 -0.998087 
0.0116794 0.041336 -0.999077 
0.00630517 0.0301238 -0.999526 
0.0019093 0.0226743 -0.999741 
-0.00159457 0.0166967 -0.999859 
-0.00423233 0.0117951 -0.999921 
-0.00631957 0.00657973 -0.999958 
-0.00777121 0.00187946 -0.999968 
-0.00803023 -0.00265554 -0.999964 
-0.00769849 -0.00687031 -0.999947 
-0.00737731 -0.00869028 -0.999935 
-0.00649328 -0.00674496 -0.999956 
-0.00362475 -0.00343614 -0.999988 
-0.00234898 -0.00328083 -0.999992 
0.000259249 -0.00751763 -0.999972 
0.000293739 -0.0176001 -0.999845 
0.000277517 -0.0285677 -0.999592 
0.00075785 -0.0244135 -0.999702 
0.000149155 -0.000700666 -1 
-0.000148649 -0.000759369 1 
0.000221042 -0.0256957 0.99967 
0.00017432 -0.0302383 0.999543 
0.00160407 -0.019851 0.999802 
0.00352587 -0.00939937 0.99995 
0.00575971 -0.00500019 0.999971 
0.00776701 -0.00552625 0.999955 
0.00953419 -0.00818598 0.999921 