# vtk DataFile Version 3.0 
Exported using Morpho https://github.com/Morpho-lang/morpho 
ASCII 
DATASET UNSTRUCTURED_GRID 

POINTS 2054 float 
-8.48528 -2.82843 0 
-8.20636 -2.82843 0 
-7.94054 -2.82843 0 
-7.6904 -2.82843 0 
-7.45357 -2.82843 0 
-7.22694 -2.82843 0 
-7.00705 -2.82843 0 
-6.79111 -2.82843 0 
-6.57731 -2.82843 0 
-6.36453 -2.82843 0 
-6.15219 -2.82843 0 
-5.94 -2.82843 0 
-5.72786 -2.82843 0 
-5.51573 -2.82843 0 
-5.3036 -2.82843 0 
-5.09147 -2.82843 0 
-4.87933 -2.82843 0 
-4.6672 -2.82843 0 
-4.45507 -2.82843 0 
-4.24294 -2.82843 0 
-4.03081 -2.82843 0 
-3.81867 -2.82843 0 
-3.60654 -2.82843 0 
-3.39441 -2.82843 0 
-3.18228 -2.82843 0 
-2.97015 -2.82843 0 
-2.75801 -2.82843 0 
-2.54588 -2.82843 0 
-2.33375 -2.82843 0 
-2.12162 -2.82843 0 
-1.90949 -2.82843 0 
-1.69735 -2.82843 0 
-1.48522 -2.82843 0 
-1.27309 -2.82843 0 
-1.06096 -2.82843 0 
-0.848825 -2.82843 0 
-0.636693 -2.82843 0 
-0.424561 -2.82843 0 
-0.212429 -2.82843 0 
-0.000296761 -2.82843 0 
0.211835 -2.82843 0 
0.423967 -2.82843 0 
0.636099 -2.82843 0 
0.848231 -2.82843 0 
1.06036 -2.82843 0 
1.2725 -2.82843 0 
1.48463 -2.82843 0 
1.69676 -2.82843 0 
1.90889 -2.82843 0 
2.12102 -2.82843 0 
2.33316 -2.82843 0 
2.54529 -2.82843 0 
2.75742 -2.82843 0 
2.96955 -2.82843 0 
3.18168 -2.82843 0 
3.39382 -2.82843 0 
3.60595 -2.82843 0 
3.81808 -2.82843 0 
4.03021 -2.82843 0 
4.24234 -2.82843 0 
4.45448 -2.82843 0 
4.66661 -2.82843 0 
4.87874 -2.82843 0 
5.09087 -2.82843 0 
5.303 -2.82843 0 
5.51514 -2.82843 0 
5.72727 -2.82843 0 
5.93941 -2.82843 0 
6.15159 -2.82843 0 
6.36393 -2.82843 0 
6.57672 -2.82843 0 
6.79055 -2.82843 0 
7.00652 -2.82843 0 
7.22647 -2.82843 0 
7.45313 -2.82843 0 
7.69005 -2.82843 0 
7.9403 -2.82843 0 
8.20621 -2.82843 0 
8.48528 -2.82843 0 
-8.48528 -2.5495 0 
-8.30526 -2.64845 0 
-8.07062 -2.59995 0 
-7.83904 -2.59637 0 
-7.59595 -2.59733 0 
-7.36578 -2.59177 0 
-7.13796 -2.5933 0 
-6.90908 -2.59428 0 
-6.68421 -2.5916 0 
-6.46568 -2.58832 0 
-6.24926 -2.58859 0 
-6.03358 -2.58941 0 
-5.81848 -2.59013 0 
-5.60402 -2.59075 0 
-5.39005 -2.59135 0 
-5.17642 -2.59186 0 
-4.96311 -2.59223 0 
-4.75009 -2.59242 0 
-4.53736 -2.59244 0 
-4.32497 -2.59236 0 
-4.1128 -2.59242 0 
-3.90059 -2.59259 0 
-3.68835 -2.5926 0 
-3.47627 -2.59248 0 
-3.26428 -2.59251 0 
-3.05216 -2.59271 0 
-2.83986 -2.59283 0 
-2.62755 -2.59274 0 
-2.41539 -2.59253 0 
-2.20336 -2.59238 0 
-1.99135 -2.59238 0 
-1.77924 -2.59246 0 
-1.56704 -2.59244 0 
-1.35495 -2.59215 0 
-1.14319 -2.59183 0 
-0.931581 -2.59195 0 
-0.719663 -2.59256 0 
-0.507197 -2.59324 0 
-0.294425 -2.59354 0 
-0.0817689 -2.59344 0 
0.130587 -2.59325 0 
0.342804 -2.59322 0 
0.555051 -2.59322 0 
0.767233 -2.59303 0 
0.97919 -2.59278 0 
1.19107 -2.59278 0 
1.40311 -2.59289 0 
1.61524 -2.59286 0 
1.82732 -2.59279 0 
2.03943 -2.59281 0 
2.25163 -2.5928 0 
2.46381 -2.59266 0 
2.67591 -2.59254 0 
2.88801 -2.59237 0 
3.10001 -2.59226 0 
3.31203 -2.59216 0 
3.52402 -2.59207 0 
3.73601 -2.59208 0 
3.94815 -2.59221 0 
4.16052 -2.5923 0 
4.37309 -2.59232 0 
4.58593 -2.59227 0 
4.79921 -2.5922 0 
5.01319 -2.59212 0 
5.22833 -2.5921 0 
5.44534 -2.59239 0 
5.6657 -2.59346 0 
5.89185 -2.59569 0 
6.12685 -2.59429 0 
6.36853 -2.59189 0 
6.6108 -2.57787 0 
6.84491 -2.61411 0 
7.08804 -2.58476 0 
7.34858 -2.60369 0 
7.58803 -2.59327 0 
7.83059 -2.59326 0 
8.06387 -2.59199 0 
8.30038 -2.64348 0 
8.48528 -2.54936 0 
-8.48528 -2.28369 0 
-8.25701 -2.4138 0 
-8.01078 -2.35334 0 
-7.73666 -2.37963 0 
-7.49744 -2.35565 0 
-7.26898 -2.35831 0 
-7.03324 -2.36676 0 
-6.7997 -2.36275 0 
-6.5773 -2.35166 0 
-6.35808 -2.3495 0 
-6.14038 -2.35058 0 
-5.92336 -2.35185 0 
-5.70723 -2.35272 0 
-5.49199 -2.35362 0 
-5.27734 -2.35447 0 
-5.0632 -2.35505 0 
-4.84958 -2.35534 0 
-4.63641 -2.35533 0 
-4.42363 -2.35504 0 
-4.21126 -2.35485 0 
-3.99909 -2.35513 0 
-3.78684 -2.3554 0 
-3.57461 -2.35516 0 
-3.36263 -2.35498 0 
-3.15066 -2.35537 0 
-2.93843 -2.35586 0 
-2.72604 -2.35589 0 
-2.51374 -2.35551 0 
-2.30162 -2.35509 0 
-2.08964 -2.35496 0 
-1.87761 -2.35518 0 
-1.66544 -2.3554 0 
-1.45322 -2.35518 0 
-1.2412 -2.35438 0 
-1.02967 -2.35407 0 
-0.818162 -2.35505 0 
-0.606054 -2.35676 0 
-0.393243 -2.3579 0 
-0.180256 -2.35789 0 
0.0323765 -2.35727 0 
0.244686 -2.35692 0 
0.456926 -2.35692 0 
0.669206 -2.35667 0 
0.881318 -2.35598 0 
1.09315 -2.35559 0 
1.305 -2.35583 0 
1.51709 -2.35595 0 
1.72919 -2.35571 0 
1.9412 -2.35566 0 
2.15334 -2.3558 0 
2.36559 -2.3556 0 
2.57772 -2.35522 0 
2.78976 -2.35507 0 
3.0019 -2.35461 0 
3.21373 -2.35451 0 
3.42571 -2.35439 0 
3.63769 -2.35431 0 
3.84965 -2.35453 0 
4.06183 -2.35491 0 
4.27435 -2.35507 0 
4.48707 -2.35507 0 
4.70017 -2.35506 0 
4.91376 -2.35498 0 
5.12819 -2.35502 0 
5.34378 -2.35528 0 
5.56106 -2.35662 0 
5.78097 -2.35971 0 
6.00401 -2.36251 0 
6.2308 -2.3624 0 
6.45748 -2.35551 0 
6.68075 -2.33423 0 
6.88797 -2.39744 0 
7.05313 -2.27289 0 
7.24377 -2.40237 0 
7.48542 -2.36016 0 
7.73055 -2.36599 0 
7.99177 -2.33552 0 
8.24864 -2.40698 0 
8.48528 -2.28345 0 
-8.48528 -2.03355 0 
-8.25312 -2.18214 0 
-8.03669 -2.07913 0 
-7.83956 -2.18231 0 
-7.6106 -2.12852 0 
-7.38852 -2.10959 0 
-7.16268 -2.14097 0 
-6.9229 -2.1435 0 
-6.70119 -2.12055 0 
-6.48111 -2.11285 0 
-6.26282 -2.11284 0 
-6.045 -2.1151 0 
-5.82775 -2.11658 0 
-5.61153 -2.11776 0 
-5.3962 -2.1192 0 
-5.18144 -2.1203 0 
-4.96732 -2.12084 0 
-4.75387 -2.12105 0 
-4.54086 -2.12091 0 
-4.32822 -2.12045 0 
-4.11596 -2.12045 0 
-3.90382 -2.12107 0 
-3.69156 -2.12116 0 
-3.47938 -2.12058 0 
-3.26746 -2.12068 0 
-3.05542 -2.12154 0 
-2.84307 -2.12198 0 
-2.63064 -2.12162 0 
-2.41836 -2.12087 0 
-2.20626 -2.12031 0 
-1.99426 -2.12034 0 
-1.78217 -2.1207 0 
-1.56989 -2.12074 0 
-1.35755 -2.11993 0 
-1.14542 -2.11838 0 
-0.934012 -2.11859 0 
-0.722404 -2.12089 0 
-0.509943 -2.12344 0 
-0.296911 -2.12431 0 
-0.0840921 -2.12359 0 
0.128295 -2.12281 0 
0.340414 -2.12274 0 
0.552564 -2.12288 0 
0.76478 -2.12226 0 
0.976792 -2.1213 0 
1.18855 -2.12128 0 
1.40042 -2.12188 0 
1.61256 -2.12177 0 
1.82458 -2.12141 0 
2.03655 -2.12164 0 
2.24875 -2.12174 0 
2.46099 -2.12114 0 
2.67302 -2.12065 0 
2.88504 -2.12054 0 
3.09728 -2.1194 0 
3.30873 -2.11968 0 
3.52086 -2.1195 0 
3.7329 -2.11938 0 
3.94484 -2.11986 0 
4.15715 -2.12044 0 
4.36983 -2.12035 0 
4.58282 -2.1204 0 
4.79606 -2.12017 0 
5.01004 -2.12012 0 
5.22483 -2.12002 0 
5.44073 -2.12051 0 
5.6582 -2.123 0 
5.8782 -2.12696 0 
6.10217 -2.12971 0 
6.33095 -2.12707 0 
6.567 -2.11601 0 
6.82301 -2.12303 0 
7.06572 -2.04567 0 
7.29733 -2.17484 0 
7.54632 -2.11408 0 
7.79371 -2.13741 0 
8.02274 -2.07453 0 
8.25027 -2.1738 0 
8.48528 -2.0332 0 
-8.48528 -1.79671 0 
-8.25436 -1.93882 0 
-8.01299 -1.83977 0 
-7.78596 -1.953 0 
-7.5297 -1.87194 0 
-7.2756 -1.88722 0 
-7.05707 -1.93544 0 
-6.84369 -1.89677 0 
-6.62219 -1.88079 0 
-6.40169 -1.87606 0 
-6.18206 -1.87854 0 
-5.96274 -1.881 0 
-5.74458 -1.88208 0 
-5.52796 -1.88344 0 
-5.31232 -1.88506 0 
-5.09736 -1.88569 0 
-4.88338 -1.88564 0 
-4.67019 -1.88555 0 
-4.45737 -1.88507 0 
-4.24485 -1.88447 0 
-4.03271 -1.88482 0 
-3.82061 -1.88562 0 
-3.60832 -1.88529 0 
-3.39617 -1.88464 0 
-3.18427 -1.88547 0 
-2.97209 -1.88672 0 
-2.7596 -1.88684 0 
-2.54714 -1.88601 0 
-2.33483 -1.88505 0 
-2.12268 -1.8846 0 
-1.91058 -1.885 0 
-1.69824 -1.88561 0 
-1.48561 -1.88547 0 
-1.27286 -1.88413 0 
-1.06032 -1.88216 0 
-0.848858 -1.8839 0 
-0.636875 -1.88781 0 
-0.424169 -1.89034 0 
-0.211518 -1.89004 0 
0.000731944 -1.88866 0 
0.21257 -1.88788 0 
0.424308 -1.88807 0 
0.636257 -1.88793 0 
0.848362 -1.88664 0 
1.06025 -1.88556 0 
1.27191 -1.88605 0 
1.48381 -1.88664 0 
1.69595 -1.886 0 
1.90782 -1.88577 0 
2.11974 -1.88637 0 
2.33202 -1.88609 0 
2.54419 -1.88502 0 
2.75607 -1.88472 0 
2.96812 -1.88462 0 
3.18055 -1.88217 0 
3.39117 -1.88415 0 
3.60398 -1.8838 0 
3.81618 -1.88366 0 
4.02827 -1.88469 0 
4.24071 -1.88523 0 
4.4544 -1.88509 0 
4.66716 -1.88476 0 
4.88099 -1.88493 0 
5.09545 -1.88466 0 
5.31057 -1.88453 0 
5.52653 -1.88564 0 
5.7436 -1.88981 0 
5.96352 -1.89563 0 
6.18733 -1.89813 0 
6.41543 -1.89522 0 
6.65059 -1.89622 0 
6.87542 -1.86913 0 
7.11122 -1.81621 0 
7.31223 -1.94975 0 
7.53264 -1.87683 0 
7.77077 -1.89068 0 
8.01717 -1.8297 0 
8.25014 -1.93148 0 
8.48528 -1.79628 0 
-8.48528 -1.57009 0 
-8.24868 -1.70836 0 
-8.015 -1.61096 0 
-7.76734 -1.73071 0 
-7.54593 -1.61782 0 
-7.32306 -1.66278 0 
-7.05152 -1.7082 0 
-6.79786 -1.66675 0 
-6.56099 -1.64764 0 
-6.33267 -1.64541 0 
-6.10856 -1.64921 0 
-5.88638 -1.65073 0 
-5.66697 -1.65153 0 
-5.44986 -1.65353 0 
-5.23379 -1.65525 0 
-5.01882 -1.6551 0 
-4.80519 -1.6548 0 
-4.59235 -1.65478 0 
-4.37976 -1.65422 0 
-4.16737 -1.65386 0 
-3.95537 -1.65471 0 
-3.74326 -1.6554 0 
-3.5309 -1.65455 0 
-3.31876 -1.65426 0 
-3.10682 -1.65593 0 
-2.89443 -1.65705 0 
-2.68177 -1.65644 0 
-2.46924 -1.65516 0 
-2.25682 -1.65408 0 
-2.04447 -1.65386 0 
-1.83202 -1.65455 0 
-1.61911 -1.65506 0 
-1.40572 -1.65429 0 
-1.19212 -1.65207 0 
-0.97885 -1.64982 0 
-0.767325 -1.65372 0 
-0.555434 -1.6581 0 
-0.343588 -1.65935 0 
-0.132061 -1.65818 0 
0.0792288 -1.65687 0 
0.290417 -1.65682 0 
0.501823 -1.6575 0 
0.713729 -1.65709 0 
0.925861 -1.65545 0 
1.13768 -1.65488 0 
1.34929 -1.65604 0 
1.56128 -1.6563 0 
1.77337 -1.65516 0 
1.985 -1.65561 0 
2.19698 -1.65642 0 
2.40939 -1.65525 0 
2.62143 -1.65394 0 
2.83323 -1.65414 0 
3.04553 -1.65355 0 
3.25842 -1.64868 0 
3.46746 -1.65522 0 
3.68272 -1.65284 0 
3.89574 -1.65288 0 
4.10731 -1.65378 0 
4.32287 -1.65565 0 
4.53627 -1.65249 0 
4.74932 -1.65397 0 
4.96428 -1.65355 0 
5.17935 -1.65257 0 
5.3944 -1.65202 0 
5.60927 -1.65354 0 
5.82513 -1.66019 0 
6.04295 -1.66711 0 
6.26383 -1.66843 0 
6.48537 -1.66776 0 
6.70098 -1.65646 0 
6.91299 -1.6206 0 
7.11709 -1.6046 0 
7.3526 -1.69716 0 
7.60698 -1.65764 0 
7.8325 -1.64214 0 
8.05985 -1.58842 0 
8.2608 -1.69223 0 
8.48528 -1.56961 0 
-8.48528 -1.35019 0 
-8.24958 -1.48044 0 
-8.0219 -1.3751 0 
-7.79713 -1.50391 0 
-7.58956 -1.39834 0 
-7.36199 -1.38754 0 
-7.16079 -1.49923 0 
-6.93764 -1.46284 0 
[...]
POINT_DATA 2054 
VECTORS vectors float
5.02735e-05 -0.000532085 1 
-8.70786e-05 -0.0192744 0.999814 
-3.30749e-05 -0.0219207 0.99976 
-4.25825e-05 -0.0214172 0.999771 
-4.88124e-05 -0.0193809 0.999812 
-4.2318e-05 -0.0169061 0.999857 
-4.46038e-05 -0.0145622 0.999894 
-4.22406e-05 -0.0123169 0.999924 
-4.24551e-05 -0.0100425 0.99995 
-4.22143e-05 -0.00770542 0.99997 
-4.22086e-05 -0.00534267 0.999986 
-4.22458e-05 -0.00298684 0.999996 
-4.22571e-05 -0.000638705 1 
-4.22576e-05 0.00174071 0.999998 
-4.22059e-05 0.00422925 0.999991 
-4.21348e-05 0.00693455 0.999976 
-4.1999e-05 0.00998721 0.99995 
-4.179e-05 0.0135394 0.999908 
-4.15399e-05 0.0177705 0.999842 
-4.1186e-05 0.022894 0.999738 
-4.07612e-05 0.0291669 0.999575 
-4.02027e-05 0.0369018 0.999319 
-3.94858e-05 0.0464795 0.998919 
-3.86169e-05 0.0583683 0.998295 
-3.7505e-05 0.0731417 0.997322 
-3.6144e-05 0.0915011 0.995805 
-3.4435e-05 0.114302 0.993446 
-3.23033e-05 0.142572 0.989784 
-2.96954e-05 0.177534 0.984115 
-2.64812e-05 0.220597 0.975365 
-2.26098e-05 0.273314 0.961925 
-1.80179e-05 0.337248 0.941416 
-1.27708e-05 0.41366 0.910432 
-7.14089e-06 0.502967 0.864305 
-1.6615e-06 0.603832 0.797112 
2.80056e-06 0.711954 0.702226 
5.30796e-06 0.818928 0.573896 
5.35847e-06 0.912109 0.409948 
3.27895e-06 0.976639 0.214888 
4.30162e-08 0.999999 0.00132001 
-3.19994e-06 0.977188 -0.212378 
-5.30319e-06 0.91308 -0.40778 
-5.28743e-06 0.820132 -0.572174 
-2.81481e-06 0.713215 -0.700946 
1.62538e-06 0.60503 -0.796203 
7.09684e-06 0.504028 -0.863687 
1.27298e-05 0.414564 -0.91002 
1.79765e-05 0.337999 -0.941147 
2.25674e-05 0.273929 -0.96175 
2.64619e-05 0.221093 -0.975253 
2.96744e-05 0.177929 -0.984043 
3.22829e-05 0.142887 -0.989739 
3.44158e-05 0.114552 -0.993417 
3.6115e-05 0.0917005 -0.995787 
3.75043e-05 0.0733002 -0.99731 
3.86071e-05 0.0584944 -0.998288 
3.94754e-05 0.0465809 -0.998915 
4.01901e-05 0.0369839 -0.999316 
4.07371e-05 0.0292347 -0.999573 
4.11913e-05 0.0229509 -0.999737 
4.15337e-05 0.0178188 -0.999841 
4.17788e-05 0.0135811 -0.999908 
4.19821e-05 0.0100234 -0.99995 
4.21006e-05 0.00696623 -0.999976 
4.22007e-05 0.00425759 -0.999991 
4.2236e-05 0.00176856 -0.999998 
4.22298e-05 -0.000606474 -1 
4.21626e-05 -0.00294421 -0.999996 
4.22038e-05 -0.00529119 -0.999986 
4.18022e-05 -0.00763215 -0.999971 
4.30644e-05 -0.00992147 -0.999951 
4.1586e-05 -0.0121762 -0.999926 
4.47281e-05 -0.0143618 -0.999897 
4.25554e-05 -0.0166881 -0.999861 
4.84243e-05 -0.019133 -0.999817 
4.28383e-05 -0.0211034 -0.999777 
3.25112e-05 -0.0215764 -0.999767 
8.79205e-05 -0.0189729 -0.99982 
-5.17011e-05 -0.000528864 -1 
-3.71383e-05 0.000354077 1 
0.00463723 -0.0141228 0.99989 
0.00808726 -0.020129 0.999765 
0.00925436 -0.02103 0.999736 
0.0100686 -0.0200153 0.999749 
0.0108146 -0.0180686 0.999778 
0.0111833 -0.0156959 0.999814 
0.0114281 -0.0132736 0.999847 
0.0117128 -0.010913 0.999872 
0.0119551 -0.00860214 0.999892 
0.0120592 -0.00628148 0.999908 
0.012129 -0.00394837 0.999919 
0.0121853 -0.00160819 0.999924 
0.0122201 0.000762251 0.999925 
0.0122279 0.00322179 0.99992 
0.0122096 0.00586158 0.999908 
0.0121652 0.00879963 0.999887 
0.0120937 0.0121789 0.999853 
0.0119928 0.0161675 0.999797 
0.0118574 0.0209629 0.99971 
0.0116761 0.0268046 0.999572 
0.0114444 0.0339897 0.999357 
0.0111642 0.0428736 0.999018 
0.0108262 0.0538811 0.998489 
0.0104133 0.067543 0.997662 
0.00991503 0.0845248 0.996372 
0.00932623 0.105633 0.994361 
0.00863793 0.13182 0.991236 
0.00783732 0.164207 0.986395 
0.00691408 0.204117 0.978922 
0.00586734 0.253056 0.967434 
0.00471082 0.312613 0.949869 
0.00347853 0.384191 0.923247 
0.00223088 0.468506 0.883458 
0.00105662 0.564863 0.825184 
6.98905e-05 0.670319 0.742073 
-0.000607357 0.778515 0.627626 
-0.000884542 0.878616 0.477527 
-0.000753498 0.956047 0.293212 
-0.000321237 0.996425 0.0844857 
0.000208107 0.991306 -0.131576 
0.000599653 0.941943 -0.335773 
0.000666535 0.858492 -0.512827 
0.000324241 0.755586 -0.655049 
-0.00040226 0.647136 -0.762374 
-0.00141485 0.543089 -0.839674 
-0.0025922 0.449079 -0.893488 
-0.00382431 0.367525 -0.930006 
-0.00502683 0.298678 -0.954341 
-0.00614564 0.241543 -0.970371 
-0.00715468 0.194657 -0.980845 
-0.00804559 0.15649 -0.987647 
-0.00881744 0.125581 -0.992044 
-0.00947985 0.100619 -0.99488 
-0.010041 0.0805084 -0.996703 
-0.0105136 0.0643147 -0.997874 
-0.0109086 0.0512811 -0.998625 
-0.0112331 0.0407823 -0.999105 
-0.0114947 0.0323045 -0.999412 
-0.0117051 0.0254338 -0.999608 
-0.0118703 0.0198346 -0.999733 
-0.0119944 0.0152283 -0.999812 
-0.0120784 0.0113823 -0.999862 
-0.012123 0.00810193 -0.999894 
-0.0121263 0.00522077 -0.999913 
-0.012081 0.00259628 -0.999924 
-0.0119659 0.000102716 -0.999928 
-0.0117537 -0.00236782 -0.999928 
-0.0115864 -0.00489846 -0.999921 
-0.0114557 -0.00746265 -0.999907 
-0.0117137 -0.00998662 -0.999882 
-0.0108374 -0.0124936 -0.999863 
-0.0111836 -0.014947 -0.999826 
-0.0103185 -0.017673 -0.999791 
-0.0099725 -0.0196303 -0.999758 
-0.0091348 -0.0206522 -0.999745 
-0.00802027 -0.0198022 -0.999772 
-0.00461743 -0.0140574 -0.999891 
3.86015e-05 0.000352121 -1 
3.51567e-05 -6.93563e-05 1 
0.00608872 -0.0153648 0.999863 
0.00963782 -0.0201356 0.999751 
0.0117481 -0.0202603 0.999726 
0.0130789 -0.0189866 0.999734 
0.0138786 -0.0169176 0.999761 
0.0144051 -0.0144203 0.999792 
0.0147959 -0.0119366 0.999819 
0.0150889 -0.00961332 0.99984 
0.0152918 -0.00732981 0.999856 
0.015451 -0.00503644 0.999868 
0.0155741 -0.0027218 0.999875 
0.0156592 -0.000371342 0.999877 
0.0157036 0.00205453 0.999875 
0.0157064 0.0046265 0.999866 
0.0156671 0.00744497 0.99985 
0.0155837 0.0106388 0.999822 
0.0154535 0.0143646 0.999777 
0.0152727 0.0188074 0.999706 
0.0150354 0.0241851 0.999594 
0.0147338 0.0307658 0.999418 
0.0143613 0.0388828 0.999141 
0.0139105 0.048931 0.998705 
0.0133704 0.0613806 0.998025 
0.0127293 0.0768338 0.996963 
0.0119758 0.0960424 0.995305 
0.0110995 0.119893 0.992725 
0.0100924 0.149419 0.988722 
0.00895144 0.185839 0.982539 
0.00768162 0.230558 0.973028 
0.00629992 0.285133 0.958467 
0.00484214 0.351081 0.936333 
0.00336974 0.429492 0.903064 
0.00197252 0.5204 0.85392 
0.000760415 0.621888 0.783106 
-0.000159781 0.729406 0.684081 
-0.000701102 0.834474 0.551046 
-0.00082857 0.924118 0.382106 
-0.000601546 0.983111 0.183007 
-0.000181114 0.99949 -0.0319284 
0.000217695 0.969865 -0.243641 
0.000390855 0.900714 -0.434413 
0.000199319 0.805244 -0.592943 
-0.000399471 0.698211 -0.715891 
-0.00135926 0.591553 -0.806265 
-0.00258547 0.492702 -0.870194 
-0.00396894 0.405335 -0.91416 
-0.00540556 0.330646 -0.94374 
-0.00681425 0.268162 -0.96335 
-0.00814152 0.21657 -0.976233 
-0.00935516 0.174375 -0.984635 
-0.0104397 0.140115 -0.99008 
-0.0113928 0.1124 -0.993598 
-0.0122211 0.0900217 -0.995865 
-0.0129314 0.0720104 -0.99732 
-0.0135358 0.0574929 -0.998254 
-0.0140442 0.045798 -0.998852 
-0.0144658 0.0363653 -0.999234 
-0.0148098 0.0287297 -0.999478 
-0.0150854 0.0225186 -0.999633 
-0.0152988 0.0174324 -0.999731 
-0.0154549 0.0132155 -0.999793 
-0.015557 0.00965774 -0.999832 
-0.0156059 0.00657908 -0.999857 
-0.0156031 0.00382999 -0.999871 
-0.0155509 0.00128655 -0.999878 
-0.0154485 -0.00114918 -0.99988 
-0.0153092 -0.00353996 -0.999877 
-0.0151347 -0.00592419 -0.999868 
-0.0149669 -0.00827332 -0.999854 
-0.0149749 -0.0105747 -0.999832 
-0.0142408 -0.0127507 -0.999817 
-0.0144453 -0.0144338 -0.999791 
-0.0136699 -0.0165185 -0.99977 
-0.0129393 -0.0185752 -0.999744 
-0.0115177 -0.0197988 -0.999738 
-0.00950886 -0.0198035 -0.999759 
-0.00606663 -0.0153425 -0.999864 
-3.65113e-05 -6.89747e-05 -1 
-7.53249e-06 8.30982e-05 1 
0.00535005 -0.015319 0.999868 
0.00817475 -0.0198097 0.99977 
0.010613 -0.0204311 0.999735 
0.0119853 -0.0195251 0.999738 
0.0130556 -0.0179827 0.999753 
0.0139862 -0.01574 0.999778 
0.0145653 -0.0131434 0.999808 
0.014877 -0.0107922 0.999831 
0.0151591 -0.00852957 0.999849 
0.0153996 -0.00628191 0.999862 
0.0155925 -0.00400629 0.99987 
0.0157333 -0.00168631 0.999875 
0.0158236 0.000702934 0.999875 
0.0158642 0.00320908 0.999869 
0.0158529 0.00591135 0.999857 
0.015789 0.00891902 0.999836 
0.0156715 0.0123717 0.999801 
0.0154968 0.0164411 0.999745 
0.0152606 0.0213284 0.999656 
0.0149591 0.0272709 0.999516 
0.0145857 0.0345642 0.999296 
0.0141297 0.0435753 0.99895 
0.0135829 0.0547331 0.998409 
0.012941 0.068553 0.997564 
0.0121941 0.085707 0.996246 
0.0113302 0.107017 0.994193 
0.0103443 0.133432 0.991004 
0.00923824 0.166057 0.986073 
0.00802053 0.206187 0.97848 
0.00670907 0.255281 0.966844 
0.00533369 0.314892 0.949113 
0.00394242 0.386408 0.92232 
0.00260497 0.470541 0.882374 
0.00140711 0.566581 0.824005 
0.0004359 0.671274 0.741209 
-0.000247916 0.778615 0.627502 
-0.000607973 0.878222 0.478253 
-0.000657048 0.955618 0.294609 
-0.00048059 0.996254 0.0864786 
-0.00022093 0.991637 -0.129059 
-3.74251e-05 0.942999 -0.332794 
-6.86032e-05 0.860417 -0.50959 
-0.000401785 0.758337 -0.651862 
-0.00105583 0.650573 -0.759443 
-0.00199351 0.547057 -0.837093 
-0.00314779 0.453303 -0.891351 
-0.00443585 0.371673 -0.928353 
-0.00577456 0.302586 -0.953104 
-0.00709946 0.245113 -0.969468 
-0.00836257 0.197805 -0.980206 
-0.00953025 0.15921 -0.987199 
-0.0105872 0.127917 -0.991728 
-0.0115296 0.102603 -0.994656 
-0.0123549 0.0821572 -0.996543 
-0.0130731 0.065727 -0.997752 
-0.0136885 0.0524428 -0.99853 
-0.0142084 0.0417353 -0.999028 
-0.014642 0.0330876 -0.999345 
-0.0149959 0.0260657 -0.999548 
-0.0152757 0.0203336 -0.999677 
-0.0154898 0.0156128 -0.999758 
-0.0156409 0.0116727 -0.99981 
-0.015733 0.00831054 -0.999842 
-0.0157661 0.00536374 -0.999861 
-0.0157418 0.00269521 -0.999872 
-0.0156651 0.000199081 -0.999877 
-0.0155388 -0.00220168 -0.999877 
-0.0153665 -0.00456373 -0.999872 
-0.0151342 -0.00692275 -0.999862 
-0.0148117 -0.00932107 -0.999847 
-0.0144096 -0.0119246 -0.999825 
-0.0136897 -0.0145375 -0.999801 
-0.0134776 -0.0169406 -0.999766 
-0.0120195 -0.0188146 -0.999751 
-0.0104543 -0.0198409 -0.999748 
-0.00805747 -0.0195354 -0.999777 
-0.00521771 -0.0151192 -0.999872 
7.89907e-06 8.27153e-05 -1 
9.39888e-08 7.57287e-05 1 
0.00456545 -0.0151547 0.999875 
0.00743677 -0.0200409 0.999772 
0.00999226 -0.0201677 0.999747 
0.0112392 -0.0190163 0.999756 
0.0125267 -0.016898 0.999779 
0.0135313 -0.0145858 0.999802 
0.0137746 -0.0122346 0.99983 
0.0140588 -0.00993246 0.999852 
0.0143367 -0.00769415 0.999868 
0.0145972 -0.00544462 0.999879 
0.0148008 -0.00314853 0.999886 
0.0149397 -0.000786604 0.999888 
0.0150233 0.00167006 0.999886 
0.0150523 0.00427794 0.999878 
0.0150206 0.00712626 0.999862 
0.0149303 0.0103324 0.999835 
0.0147831 0.0140491 0.999792 
0.0145735 0.0184639 0.999723 
0.0142991 0.0237934 0.999615 
0.0139604 0.0302918 0.999444 
0.0135474 0.0382832 0.999175 
0.0130451 0.0481677 0.998754 
0.0124525 0.0604028 0.998096 
0.0117728 0.0755479 0.997073 
0.0109921 0.0943471 0.995479 
0.0100991 0.117678 0.993 
0.00909782 0.146538 0.989163 
0.007999 0.182104 0.983247 
0.0068189 0.225729 0.974166 
0.00558104 0.278904 0.960303 
0.00431723 0.343177 0.939261 
0.00307613 0.419756 0.907632 
0.00192307 0.508914 0.860815 
0.000930232 0.609097 0.793095 
0.000161969 0.715579 0.698532 
-0.000352136 0.821051 0.570854 
-0.000600194 0.913272 0.407349 
-0.000615944 0.977106 0.212754 
-0.000486083 1 2.46008e-05 
-0.000329786 0.977204 -0.212301 
-0.000270226 0.913797 -0.406172 
-0.000408426 0.82207 -0.569386 
-0.000801546 0.716591 -0.697493 
-0.00145481 0.60985 -0.792516 
-0.00233586 0.509984 -0.860181 
-0.00339072 0.421013 -0.907048 
-0.00455095 0.344399 -0.938812 
-0.00575211 0.280038 -0.959972 
-0.00694498 0.226689 -0.973943 
-0.00808636 0.18286 -0.983106 
-0.00914697 0.147176 -0.989068 
-0.0101175 0.118265 -0.99293 
-0.0109906 0.0948622 -0.99543 
-0.0117536 0.0759464 -0.997043 
-0.0124372 0.0607962 -0.998073 
-0.0130191 0.0484549 -0.998741 
-0.0135121 0.0385208 -0.999166 
-0.0139277 0.0304826 -0.999438 
-0.0142634 0.0239405 -0.999612 
-0.0145273 0.0185598 -0.999722 
-0.0147245 0.014131 -0.999792 
-0.0148637 0.0103918 -0.999836 
-0.0149428 0.00717103 -0.999863 
-0.0149663 0.00431524 -0.999879 
-0.0149399 0.00170024 -0.999887 
-0.0148716 -0.000761057 -0.999889 
-0.0147493 -0.00313617 -0.999886 
-0.0145514 -0.00546841 -0.999879 
-0.0142699 -0.0077914 -0.999868 
-0.0139273 -0.0101616 -0.999851 
-0.0133867 -0.0124963 -0.999832 
-0.0125552 -0.0150974 -0.999807 
-0.0125837 -0.0171456 -0.999774 
-0.0112069 -0.0189722 -0.999757 
-0.00956909 -0.0197622 -0.999759 
-0.0071603 -0.0197931 -0.999778 
-0.00448473 -0.0150459 -0.999877 
1.61207e-06 7.5602e-05 -1 
7.57379e-07 8.44832e-05 1 
0.00404227 -0.0154786 0.999872 
0.00626509 -0.0201608 0.999777 
0.00895184 -0.0202012 0.999756 
0.00950658 -0.019362 0.999767 
0.0107855 -0.0174359 0.99979 
0.0119556 -0.0144593 0.999824 
0.0121989 -0.011732 0.999857 
0.0124483 -0.00931797 0.999879 
0.0127446 -0.00701606 0.999894 
0.0130194 -0.00471549 0.999904 
0.013209 -0.00236037 0.99991 
0.01333 7.02563e-05 0.999911 
0.0134018 0.00261247 0.999907 
0.013415 0.00533784 0.999896 
0.0133583 0.00834386 0.999876 
0.0132469 0.0117586 0.999843 
0.0130824 0.0157499 0.99979 
0.0128545 0.0205209 0.999707 
0.0125656 0.0263036 0.999575 
0.0122194 0.0333681 0.999368 
0.0117983 0.0420713 0.999045 
0.011287 0.0528432 0.998539 
0.0106991 0.0661663 0.997751 
0.01004 0.0826502 0.996528 
0.00928633 0.103113 0.994626 
0.00843294 0.128476 0.991677 
0.00749529 0.15978 0.987124 
0.00648935 0.19828 0.980124 
0.00543453 0.245385 0.96941 
0.00435324 0.302623 0.9531 
0.00327283 0.371517 0.92842 
0.00223604 0.453056 0.891479 
0.00129827 0.546962 0.837157 
0.000515911 0.650623 0.759401 
-6.75513e-05 0.757597 0.652722 
-0.000443325 0.859218 0.511609 
-0.000611532 0.941813 0.336137 
-0.00061235 0.990988 0.133948 
-0.000522563 0.996806 -0.0798625 
-0.000438052 0.9581 -0.286433 
-0.000453086 0.882932 -0.4695 
-0.000640702 0.784803 -0.619745 
-0.00103622 0.677831 -0.735217 
-0.00163615 0.5731 -0.819484 
-0.00241321 0.477122 -0.878834 
-0.00332254 0.392705 -0.919658 
-0.0043088 0.320683 -0.947177 
-0.00533003 0.260545 -0.965447 
-0.00634799 0.210788 -0.977511 
-0.00732051 0.169983 -0.98542 
-0.0082305 0.136829 -0.990561 
-0.0090759 0.109966 -0.993894 
-0.00983773 0.0881907 -0.996055 
-0.010488 0.070577 -0.997451 
-0.01113 0.0565719 -0.998336 
-0.0116358 0.0449566 -0.998921 
-0.0120764 0.0356688 -0.999291 
-0.012444 0.028187 -0.999525 
-0.0127579 0.0219807 -0.999677 
-0.012963 0.0169447 -0.999772 
-0.0131474 0.0127589 -0.999832 
-0.0132609 0.00918416 -0.99987 
-0.0133179 0.0060794 -0.999893 
-0.0133281 0.00329999 -0.999906 
-0.0133045 0.000737318 -0.999911 
-0.0132699 -0.00168952 -0.999911 
-0.0131767 -0.00402535 -0.999905 
-0.0129732 -0.00631073 -0.999896 
-0.0126911 -0.0085524 -0.999883 
-0.0122676 -0.0107347 -0.999867 
-0.0115876 -0.0129843 -0.999849 
-0.011019 -0.015301 -0.999822 
-0.0109007 -0.017651 -0.999785 
-0.00941277 -0.0195095 -0.999765 
-0.00780204 -0.0202119 -0.999765 
-0.00569213 -0.0197052 -0.99979 
-0.00371225 -0.0147191 -0.999885 
-4.73873e-06 8.40856e-05 -1 
-2.44682e-07 9.23703e-05 1 
0.00330847 -0.0155795 0.999873 
0.00496754 -0.0203029 0.999782 
0.00726421 -0.0204861 0.999764 
0.00768152 -0.0198737 0.999773 
0.00843228 -0.0179355 0.999804 
0.00997786 -0.0157878 0.999826 
0.0101761 -0.0132692 0.99986 
0.0103055 -0.0108685 0.999888 
0.0105583 -0.00857028 0.999908 
0.0108613 -0.00629606 0.999921 
0.0111182 -0.00397231 0.99993 
0.0112668 -0.00155952 0.999935 
0.011363 0.000933688 0.999935 
0.0114206 0.00356263 0.999928 
0.0114072 0.00640387 0.999914 
0.0113276 0.00957059 0.99989 
0.0112059 0.0131966 0.99985 
0.0110366 0.0174627 0.999787 
0.0108091 0.0225993 0.999686 
0.010527 0.0288412 0.999529 
0.0101946 0.0364803 0.999282 
0.00978835 0.0459052 0.998898 
0.0093021 0.057574 0.998298 
0.00875902 0.0719889 0.997367 
0.00815595 0.0898177 0.995925 
0.00746663 0.111947 0.993686 
0.00669854 0.139333 0.990223 
0.00587383 0.17307 0.984892 
0.00500858 0.214482 0.976715 
0.00412112 0.265033 0.964231 
0.00322975 0.326259 0.945275 
0.00235554 0.399591 0.91669 
0.00153366 0.485675 0.874138 
0.000806869 0.583474 0.812132 
0.000215042 0.68908 0.724685 
-0.000217026 0.794489 0.607279 
-0.00048922 0.890324 0.455326 
-0.000606303 0.962608 0.270896 
-0.000605702 0.997978 0.0635649 
-0.000550535 0.988711 -0.149837 
-0.000515958 0.936642 -0.350288 
-0.000572521 0.852167 -0.52327 
-0.000770661 0.749512 -0.66199 
-0.0011299 0.642226 -0.766514 
-0.00164357 0.540023 -0.841648 
-0.00229028 0.447908 -0.894077 
-0.00303331 0.36774 -0.929924 
-0.00383415 0.299881 -0.953969 
-0.00466992 0.243498 -0.96989 
-0.00550389 0.196867 -0.980415 
-0.00629951 0.158673 -0.987311 
-0.00705603 0.127724 -0.991785 
-0.00776933 0.102624 -0.99469 
-0.00840576 0.0822068 -0.99658 
-0.00892886 0.0656532 -0.997803 
-0.00956339 0.0527402 -0.998562 
-0.00996461 0.0414841 -0.999089 
-0.0103004 0.0330068 -0.999402 
-0.0106874 0.0257583 -0.999611 
-0.0108793 0.02002 -0.99974 
-0.0110511 0.0152806 -0.999822 
-0.0112234 0.0113366 -0.999873 
-0.0112935 0.00789354 -0.999905 
-0.011313 0.00489392 -0.999924 
-0.0112917 0.00220442 -0.999934 
-0.0112799 -0.000321351 -0.999936 
-0.0112574 -0.00269946 -0.999933 
-0.0111768 -0.00499281 -0.999925 
-0.0109376 -0.00723303 -0.999914 
-0.010581 -0.00942037 -0.9999 
-0.0100456 -0.0116984 -0.999881 
-0.00924048 -0.0142832 -0.999855 
-0.00944175 -0.0169251 -0.999812 
-0.00859193 -0.0188946 -0.999785 
-0.00711469 -0.0200085 -0.999774 
-0.00564702 -0.0205832 -0.999772 
-0.00318416 -0.0155247 -0.999874 
5.22988e-06 9.28543e-05 -1 
3.51722e-07 9.53536e-05 1 
0.00261353 -0.0156577 0.999874 
0.00390462 -0.0204691 0.999783 
0.00575415 -0.0206564 0.99977 
0.00635698 -0.0196893 0.999786 
0.00671538 -0.0175562 0.999823 
0.00818761 -0.0153323 0.999849 
0.00829235 -0.0127104 0.999885 
0.00849457 -0.0102713 0.999911 
0.00876735 -0.00795258 0.99993 
0.00907275 -0.00564053 0.999943 
0.00929592 -0.00324512 0.999952 
0.00938904 -0.000767761 0.999956 
0.00947759 0.00178675 0.999953 
0.00951523 0.00448668 0.999945 
0.00948329 0.00744455 0.999927 
0.00939367 0.0107726 0.999898 
0.00927462 0.0145909 0.999851 
0.00911906 0.019143 0.999775 
0.00890257 0.0246463 0.999657 
0.00864285 0.0313451 0.999471 
0.00833667 0.0395528 0.999183 
0.00796104 0.0496942 0.998733 
0.00752275 0.0622278 0.998034 
0.00704448 0.0776863 0.996953 
0.00651052 0.0968116 0.995281 
0.00590129 0.120542 0.992691 
0.00523664 0.149812 0.988701 
0.00453913 0.185735 0.982589 
0.00382208 0.229659 0.973264 
0.00310125 0.282966 0.959125 
0.00239012 0.347044 0.937846 
0.00170435 0.423093 0.906085 
0.00107108 0.51125 0.859431 
0.000518267 0.610058 0.792357 
6.95911e-05 0.715347 0.698769 
-0.000260769 0.81913 0.573608 
-0.000469123 0.911168 0.412035 
-0.000558772 0.975948 0.218002 
-0.00056171 0.999992 0.004073 
-0.000531666 0.977645 -0.210263 
-0.000529826 0.914013 -0.405684 
-0.000608857 0.821861 -0.569688 
-0.000801768 0.716 -0.698099 
-0.00111793 0.609354 -0.792898 
-0.00155062 0.510062 -0.860136 
-0.00208258 0.421661 -0.906751 
-0.00268407 0.345382 -0.938458 
-0.00333153 0.281326 -0.959606 
-0.00401277 0.228297 -0.973583 
-0.00468964 0.184289 -0.982861 
-0.00533352 0.148335 -0.988923 
-0.00595957 0.119372 -0.992832 
-0.00655633 0.0957189 -0.995387 
-0.00707805 0.0762533 -0.997063 
-0.00747261 0.0604082 -0.998146 
-0.00821647 0.0485467 -0.998787 
-0.00826544 0.0382209 -0.999235 
-0.00878682 0.0296947 -0.99952 
-0.00893679 0.0232021 -0.999691 
-0.00910015 0.0178553 -0.999799 
-0.00922264 0.0134444 -0.999867 
-0.00941154 0.00975524 -0.999908 
-0.00940784 0.00636184 -0.999936 
-0.00934229 0.00352028 -0.99995 
-0.00934378 0.000867375 -0.999956 
-0.00929508 -0.00159548 -0.999956 
-0.00927207 -0.00386423 -0.99995 
-0.00918124 -0.00597227 -0.99994 
-0.0088893 -0.00803035 -0.999928 
-0.00855927 -0.0101648 -0.999912 
-0.00806559 -0.0124908 -0.999889 
-0.00734906 -0.0150919 -0.999859 
-0.00775743 -0.0172724 -0.999821 
-0.00663045 -0.0194143 -0.99979 
-0.00517642 -0.0203455 -0.99978 
-0.00401002 -0.0198064 -0.999796 
-0.00222488 -0.0147646 -0.999889 