# vtk DataFile Version 3.0 
Exported using Morpho https://github.com/Morpho-lang/morpho 
ASCII 
DATASET UNSTRUCTURED_GRID 

POINTS 1978 float 
-12 -4 1.804e-15 
-11.5922 -4 3.64988e-13 
-11.2935 -4 3.26494e-13 
-10.957 -4 1.54879e-13 
-10.6556 -4 4.44576e-14 
-10.3286 -4 4.74598e-14 
-10.0082 -4 7.67505e-14 
-9.68001 -4 6.67613e-14 
-9.315 -4 4.47862e-15 
-8.99311 -4 -5.51454e-14 
-8.68707 -4 -9.54429e-14 
-8.36914 -4 -1.19562e-13 
-8.06904 -4 -1.26426e-13 
-7.76716 -4 -1.23993e-13 
-7.47395 -4 -1.14104e-13 
-7.18796 -4 -1.18143e-13 
-6.88 -4 -1.41479e-13 
-6.57486 -4 -1.74228e-13 
-6.27098 -4 -2.2992e-13 
-5.96803 -4 -2.93989e-13 
-5.67377 -4 -3.31985e-13 
-5.38809 -4 -3.36168e-13 
-5.107 -4 -2.79755e-13 
-4.82487 -4 -1.51714e-13 
-4.52295 -4 1.12154e-13 
-4.21604 -4 5.45512e-13 
-3.8969 -4 1.26643e-12 
-3.53894 -4 2.27558e-12 
-3.19819 -4 3.38686e-12 
-2.87639 -4 5.03179e-12 
-2.50899 -4 6.40637e-12 
-2.22449 -4 6.70278e-12 
-1.98029 -4 7.1455e-12 
-1.74124 -4 1.01285e-11 
-1.36896 -4 1.08318e-11 
-1.13229 -4 6.39496e-12 
-0.913311 -4 1.41124e-12 
-0.62496 -4 3.45726e-13 
-0.36428 -4 -3.76971e-12 
0.0282183 -4 2.91151e-12 
0.322777 -4 5.71601e-13 
0.641494 -4 2.34562e-12 
0.934422 -4 -2.14032e-12 
1.25014 -4 -6.44587e-12 
1.45027 -4 -6.76067e-12 
1.6731 -4 -7.2581e-12 
1.91495 -4 -7.31038e-12 
2.16515 -4 -7.28805e-12 
2.49675 -4 -7.32899e-12 
2.84947 -4 -5.6273e-12 
3.23283 -4 -4.17849e-12 
3.60224 -4 -2.3817e-12 
3.94716 -4 -1.17168e-12 
4.26304 -4 -4.8807e-13 
4.55395 -4 -1.01509e-13 
4.82382 -4 2.05302e-13 
5.11866 -4 3.04212e-13 
5.40133 -4 3.49161e-13 
5.69209 -4 3.39396e-13 
5.9882 -4 2.81109e-13 
6.28057 -4 2.10231e-13 
6.568 -4 1.61037e-13 
6.86337 -4 1.252e-13 
7.15085 -4 1.12293e-13 
7.45076 -4 1.16336e-13 
7.76417 -4 1.23271e-13 
8.07712 -4 1.1609e-13 
8.3694 -4 1.0811e-13 
8.66509 -4 9.83165e-14 
8.94476 -4 8.5285e-14 
9.3036 -4 3.79758e-14 
9.62835 -4 -2.87763e-14 
9.9226 -4 -6.41238e-14 
10.2768 -4 -4.56382e-14 
10.5878 -4 -7.15128e-14 
10.9843 -4 -1.84487e-13 
11.3062 -4 -3.17938e-13 
11.5956 -4 -3.53471e-13 
12 -4 -2.32038e-15 
-12 -3.63145 1.53691e-14 
-11.6992 -3.71497 -1.77836e-13 
-11.3544 -3.62092 -1.65926e-13 
-11.0444 -3.66963 -1.95788e-13 
-10.7139 -3.63768 -1.38905e-13 
-10.4017 -3.66964 -8.12746e-14 
-10.0676 -3.66419 -4.10017e-14 
-9.73903 -3.66958 -1.79585e-14 
-9.40717 -3.7047 -4.78988e-15 
-9.06267 -3.67218 1.26296e-14 
-8.74714 -3.65976 3.45091e-14 
-8.43308 -3.6789 6.22357e-14 
-8.11256 -3.66029 7.35439e-14 
-7.80629 -3.66289 8.95365e-14 
-7.49726 -3.65186 9.81371e-14 
-7.20117 -3.65001 1.15612e-13 
-6.8979 -3.67869 1.44346e-13 
-6.58481 -3.67613 1.7851e-13 
-6.27631 -3.67673 2.22283e-13 
-5.97592 -3.68154 2.92228e-13 
-5.67522 -3.67698 3.69366e-13 
-5.38797 -3.6701 4.42334e-13 
-5.09529 -3.66807 5.30284e-13 
-4.78246 -3.67648 6.03071e-13 
-4.46134 -3.65267 6.39644e-13 
-4.12788 -3.63728 7.66929e-13 
-3.77249 -3.63761 7.50198e-13 
-3.40785 -3.59149 4.76877e-13 
-3.08273 -3.5596 8.6853e-13 
-2.76277 -3.6703 1.82693e-12 
-2.47155 -3.65563 2.07604e-13 
-2.17776 -3.71496 1.47016e-12 
-1.91002 -3.77312 1.13123e-12 
-1.57279 -3.87334 1.0045e-12 
-1.35004 -3.8219 1.00052e-12 
-1.12861 -3.85207 5.04024e-13 
-0.830114 -3.88897 8.03372e-13 
-0.582667 -3.87973 1.61319e-13 
-0.210156 -3.92807 -1.52236e-12 
0.159763 -3.91382 -7.65228e-12 
0.325639 -3.86092 1.98784e-12 
0.519926 -3.91197 2.71838e-12 
0.80476 -3.89191 1.13319e-13 
1.10605 -3.89294 5.3358e-13 
1.42428 -3.81567 2.55128e-13 
1.68127 -3.78264 -5.22084e-13 
1.94584 -3.74188 -2.05775e-13 
2.23688 -3.74139 -1.23679e-12 
2.5244 -3.65049 -5.65334e-13 
2.83695 -3.63435 -2.34332e-12 
3.17679 -3.6149 -1.38988e-13 
3.53303 -3.6186 -7.41916e-13 
3.88946 -3.62411 -8.60439e-13 
4.23496 -3.63597 -7.37914e-13 
4.55681 -3.64723 -5.67117e-13 
4.86744 -3.68516 -6.38568e-13 
5.17503 -3.67986 -5.21501e-13 
5.47632 -3.68279 -4.35807e-13 
5.77527 -3.67807 -3.39592e-13 
6.07172 -3.66347 -2.62984e-13 
6.36173 -3.6489 -2.02384e-13 
6.65922 -3.65922 -1.64787e-13 
6.95408 -3.64946 -1.32956e-13 
7.25032 -3.66037 -1.10927e-13 
7.55651 -3.67251 -9.84991e-14 
7.86071 -3.66683 -8.35292e-14 
8.15485 -3.64718 -7.12636e-14 
8.44378 -3.65054 -5.96004e-14 
8.72746 -3.62902 -3.57999e-14 
9.05421 -3.70696 -2.51717e-14 
9.38891 -3.67669 -5.64331e-15 
9.69484 -3.63935 8.76833e-15 
10.0288 -3.69554 3.1823e-14 
10.3524 -3.64583 7.21817e-14 
10.7159 -3.71658 1.4944e-13 
11.0498 -3.64908 1.82447e-13 
11.3515 -3.60795 1.75776e-13 
11.7044 -3.71594 1.76849e-13 
12 -3.60976 -1.6617e-14 
-12 -3.32473 1.30681e-14 
-11.6397 -3.36341 -3.44695e-14 
-11.2975 -3.27437 -3.77974e-14 
-10.9802 -3.32789 -8.43668e-14 
-10.6551 -3.2909 -1.0017e-13 
-10.3331 -3.33992 -6.62708e-14 
-10.0062 -3.33215 -3.57742e-14 
-9.68102 -3.3445 -1.27662e-14 
-9.36979 -3.37972 1.40666e-15 
-9.07469 -3.3195 7.05198e-15 
-8.77899 -3.31926 1.30886e-14 
-8.47411 -3.34475 2.46991e-14 
-8.16657 -3.33844 3.51536e-14 
-7.84879 -3.32295 4.85024e-14 
-7.54596 -3.31882 6.11851e-14 
-7.23858 -3.2989 7.13412e-14 
-6.93871 -3.34648 9.57278e-14 
-6.63288 -3.35071 1.11912e-13 
-6.32761 -3.35454 1.41811e-13 
-6.02558 -3.35396 1.79261e-13 
-5.73168 -3.35852 2.34795e-13 
-5.43628 -3.33783 2.91051e-13 
-5.14504 -3.33679 3.10962e-13 
-4.83959 -3.35101 4.15181e-13 
-4.51715 -3.32122 3.79522e-13 
-4.17538 -3.28886 3.59211e-13 
-3.83372 -3.28123 5.15079e-13 
-3.49348 -3.26138 3.86089e-13 
-3.14641 -3.19364 -3.6365e-14 
-2.8234 -3.28775 1.45814e-12 
-2.57013 -3.3403 1.27718e-12 
-2.28262 -3.45174 2.31513e-12 
-1.99258 -3.52266 3.1461e-12 
-1.72188 -3.69696 8.36338e-13 
-1.48917 -3.64836 -1.04144e-12 
-1.25056 -3.66942 5.41124e-12 
-1.01754 -3.76037 -1.50631e-12 
-0.762397 -3.7623 -3.0912e-12 
-0.414859 -3.8334 2.78955e-12 
0.0416881 -3.77578 2.04528e-12 
0.423976 -3.74318 -4.56044e-12 
0.666527 -3.77927 6.34273e-12 
0.986851 -3.77179 -4.08573e-12 
1.25147 -3.75434 -2.17604e-13 
1.48332 -3.62289 -4.95179e-12 
1.74909 -3.58446 -1.00372e-12 
2.03731 -3.48808 4.63359e-13 
2.28451 -3.42661 -3.1215e-12 
2.60395 -3.31586 -1.16766e-14 
2.90683 -3.30605 3.44916e-14 
3.19409 -3.22222 -4.09239e-13 
3.49481 -3.25809 -4.57678e-13 
3.83184 -3.25951 -3.54853e-13 
4.16967 -3.28078 -5.96134e-13 
4.50084 -3.28984 -3.96706e-13 
4.81421 -3.36111 -4.30155e-13 
5.11732 -3.36027 -3.2939e-13 
5.41713 -3.36479 -3.02401e-13 
5.71595 -3.3541 -2.34445e-13 
6.01054 -3.33682 -1.73618e-13 
6.3083 -3.30909 -1.27069e-13 
6.60864 -3.32256 -1.0406e-13 
6.9096 -3.31338 -9.07761e-14 
7.21616 -3.31879 -6.85037e-14 
7.51822 -3.34098 -6.10047e-14 
7.82466 -3.32947 -4.84304e-14 
8.12563 -3.30286 -3.48368e-14 
8.4217 -3.29375 -2.1432e-14 
8.75004 -3.31384 -1.52728e-14 
9.07004 -3.39118 -9.37629e-15 
9.37761 -3.33538 -2.75279e-15 
9.68341 -3.29463 9.98324e-15 
9.99876 -3.3659 2.9183e-14 
10.3104 -3.30034 5.95855e-14 
10.6387 -3.39453 1.03566e-13 
10.969 -3.32559 9.71556e-14 
11.294 -3.24746 3.82573e-14 
11.6304 -3.36514 2.57986e-14 
12 -3.30142 -1.41365e-14 
-12 -3.011 2.224e-14 
-11.6482 -3.0405 1.06437e-14 
-11.2994 -2.95366 4.41884e-14 
-10.9545 -2.98385 -3.68851e-15 
-10.618 -2.95949 -3.2217e-14 
-10.2931 -3.00537 -2.99275e-14 
-9.9678 -2.99978 -1.78939e-14 
-9.66121 -2.9868 -5.55019e-15 
-9.36689 -3.0266 3.8299e-15 
-9.06448 -2.96868 6.80326e-15 
-8.75079 -2.97963 2.02929e-15 
-8.44308 -3.008 1.13037e-15 
-8.12277 -3.0114 4.1077e-15 
-7.81483 -2.9813 4.52181e-15 
-7.50618 -2.98184 6.65936e-15 
-7.20291 -2.95696 -4.95682e-15 
-6.90662 -3.0162 2.3091e-14 
-6.60083 -3.02165 2.00286e-14 
-6.30276 -3.02726 2.7795e-14 
-6.01044 -3.02266 2.92907e-14 
-5.7208 -3.02623 4.45511e-14 
-5.43205 -2.99617 1.30049e-14 
-5.12982 -2.99942 6.47896e-14 
-4.80934 -3.01335 2.2667e-14 
-4.46339 -2.98539 2.22919e-14 
-4.12553 -2.94075 -4.81548e-14 
-3.79524 -2.9381 1.03407e-14 
-3.46037 -2.95614 2.48923e-13 
-3.2095 -2.8535 -9.07608e-14 
-2.961 -2.96571 5.10849e-13 
-2.71 -2.98927 -1.40555e-12 
-2.34356 -3.18171 3.75133e-12 
-2.12148 -3.28428 -4.12002e-12 
-1.89101 -3.32719 -8.18885e-13 
-1.7092 -3.50037 4.17439e-13 
-1.40029 -3.49271 2.92546e-12 
-1.14376 -3.55883 2.83558e-12 
-0.913418 -3.63963 -9.38874e-13 
-0.266729 -3.75576 1.93566e-12 
-0.0882128 -3.84799 -1.12645e-12 
0.259538 -3.71433 -1.86191e-12 
0.830873 -3.69312 2.92122e-12 
1.09673 -3.62215 2.94107e-12 
1.2942 -3.55877 -1.57736e-12 
1.56029 -3.44455 -5.22528e-12 
1.81927 -3.37444 1.37108e-12 
2.03068 -3.2163 -1.4936e-14 
2.34977 -3.19491 -2.20286e-12 
2.6721 -3.0306 -1.56404e-12 
2.947 -3.0013 2.07701e-13 
3.22163 -2.90166 -6.20209e-13 
3.51227 -2.93054 1.02711e-13 
3.80902 -2.91296 1.59786e-13 
4.12192 -2.93541 8.79369e-14 
4.45997 -2.94376 6.24596e-15 
4.79318 -3.01602 6.12142e-15 
5.10658 -3.02624 -8.26224e-14 
5.41574 -3.03599 -7.43439e-14 
5.70999 -3.01914 -3.31318e-14 
6.00623 -3.00651 -2.30513e-14 
6.30573 -2.97667 -9.49185e-15 
6.60225 -2.99115 -1.32895e-14 
6.91266 -2.98831 -6.39752e-15 
7.22414 -2.99194 -1.18293e-14 
7.53256 -3.00851 -1.17199e-14 
7.83802 -2.99009 -6.94901e-15 
8.13309 -2.95782 6.16103e-16 
8.45942 -2.98518 -6.18277e-16 
8.75614 -2.96717 -2.58394e-15 
9.05084 -3.0578 -6.36495e-15 
9.34953 -2.99443 -6.34632e-15 
9.65403 -2.95581 3.73992e-15 
9.98072 -3.02242 2.12599e-14 
10.3172 -2.97397 2.94721e-14 
10.6493 -3.05844 5.31341e-14 
10.9775 -2.98256 1.7228e-15 
11.3264 -2.92635 -6.22825e-14 
11.6605 -3.04782 -1.42002e-14 
12 -2.97184 -2.15474e-14 
-12 -2.69695 1.20563e-14 
-11.6456 -2.7156 3.53089e-14 
-11.314 -2.62455 7.68198e-14 
-10.97 -2.6576 4.72906e-14 
-10.6255 -2.63579 1.16093e-14 
-10.2886 -2.66826 -1.15985e-15 
-9.9709 -2.65431 -3.98499e-15 
-9.64603 -2.65325 3.23104e-15 
-9.32934 -2.66601 1.15138e-14 
-9.00743 -2.63664 1.03776e-14 
-8.69826 -2.63966 2.80738e-15 
-8.38634 -2.68207 -5.68298e-15 
-8.08115 -2.66901 -1.09086e-14 
-7.76833 -2.64773 -1.5958e-14 
-7.46803 -2.63958 -2.28759e-14 
-7.1509 -2.63157 -3.60623e-14 
-6.85085 -2.6879 -3.24361e-14 
-6.55331 -2.68668 -4.4501e-14 
-6.2607 -2.6928 -5.37424e-14 
-5.96757 -2.68675 -7.05612e-14 
-5.6723 -2.68035 -8.87241e-14 
[...]
POINT_DATA 1978 
VECTORS vectors float
-0.000188698 -0.00152148 0.999999 
0.000431778 -0.0393444 0.999226 
0.000108514 -0.0330483 0.999454 
0.000151741 -0.0149099 0.999889 
0.000197125 -0.00572057 0.999984 
0.000184186 -0.00413606 0.999991 
0.000162102 -0.00555176 0.999985 
0.000133194 -0.00450005 0.99999 
0.000148777 1.37002e-05 1 
0.000167538 0.00439192 0.99999 
0.000201546 0.00743899 0.999972 
0.000212928 0.00915156 0.999958 
0.000204731 0.00986162 0.999951 
0.000233813 0.010025 0.99995 
0.000243587 0.00991246 0.999951 
0.000203046 0.0103659 0.999946 
0.000216059 0.0120236 0.999928 
0.000213826 0.0154694 0.99988 
0.000200456 0.0213837 0.999771 
0.000215043 0.0292569 0.999572 
0.000232216 0.0385715 0.999256 
0.000226487 0.0485381 0.998821 
0.000228343 0.0584964 0.998288 
0.000216655 0.0686976 0.997638 
0.000186016 0.0795488 0.996831 
0.000165258 0.0909749 0.995853 
0.000127787 0.103519 0.994628 
9.87244e-05 0.118432 0.992962 
9.96825e-05 0.136054 0.990701 
0.000105493 0.155512 0.987834 
0.000120273 0.180303 0.983611 
0.000117057 0.209224 0.977868 
0.000129378 0.239824 0.970816 
0.000103391 0.279427 0.960167 
4.78616e-05 0.384628 0.923072 
-6.16075e-06 0.486132 0.873885 
-2.01346e-05 0.601148 0.799138 
-8.38884e-05 0.777113 0.629361 
1.6297e-05 0.910413 0.4137 
-3.47507e-05 0.999097 0.0424944 
4.33637e-05 0.946548 -0.322563 
4.76533e-05 0.770467 -0.637479 
1.02658e-05 0.590274 -0.807203 
-5.74919e-05 0.440241 -0.89788 
-8.39682e-05 0.362427 -0.932012 
-5.7866e-05 0.298634 -0.954368 
-0.000144624 0.24783 -0.968804 
-0.000140839 0.209134 -0.977887 
-6.99084e-05 0.178196 -0.983995 
-8.50841e-05 0.15683 -0.987626 
-3.9535e-05 0.132522 -0.99118 
-8.72434e-05 0.114877 -0.99338 
-0.00014142 0.0998584 -0.995002 
-0.000197279 0.0878462 -0.996134 
-0.000196235 0.0765632 -0.997065 
-0.000237095 0.0666725 -0.997775 
-0.00022693 0.0567223 -0.99839 
-0.000225121 0.0476134 -0.998866 
-0.000221538 0.0387139 -0.99925 
-0.000229347 0.0299119 -0.999553 
-0.000221292 0.0220493 -0.999757 
-0.000234225 0.015997 -0.999872 
-0.000232182 0.0119537 -0.999929 
-0.000219238 0.00990574 -0.999951 
-0.000209783 0.00925356 -0.999957 
-0.000203614 0.00914905 -0.999958 
-0.000218737 0.00903336 -0.999959 
-0.000236075 0.00882947 -0.999961 
-0.000199593 0.00820342 -0.999966 
-0.000200611 0.00652216 -0.999979 
-0.000159543 0.00243148 -0.999997 
-0.000154008 -0.00202704 -0.999998 
-0.000206868 -0.00422024 -0.999991 
-0.000133008 -0.00361739 -0.999993 
-0.000142463 -0.00518497 -0.999987 
-9.98036e-05 -0.0164642 -0.999864 
-8.91724e-05 -0.0336032 -0.999435 
-0.000468948 -0.0392545 -0.999229 
0.00018858 -0.00137372 -0.999999 
-0.000542827 0.00043081 1 
0.0133967 -0.0299629 0.999461 
0.0191174 -0.0315173 0.99932 
0.0207972 -0.0215584 0.999551 
0.0227384 -0.0107139 0.999684 
0.0226868 -0.00544839 0.999728 
0.0231635 -0.0042771 0.999723 
0.0229236 -0.00339954 0.999731 
0.0220761 -0.00102667 0.999756 
0.023125 0.0025118 0.999729 
0.024164 0.00535437 0.999694 
0.0242992 0.00751935 0.999676 
0.0250904 0.00877983 0.999647 
0.0249198 0.00950404 0.999644 
0.0247338 0.0100832 0.999643 
0.0243076 0.0111126 0.999643 
0.022934 0.0129706 0.999653 
0.0223409 0.016749 0.99961 
0.0213489 0.0223327 0.999523 
0.0199954 0.0294848 0.999365 
0.0180987 0.0381896 0.999107 
0.0150891 0.0479429 0.998736 
0.0107283 0.0589458 0.998204 
0.00483615 0.0710012 0.997465 
-0.00364165 0.0837677 0.996479 
-0.0137347 0.0977169 0.995119 
-0.0261807 0.11404 0.993131 
-0.0471144 0.134434 0.989802 
-0.0660396 0.155235 0.985668 
-0.0559296 0.171049 0.983674 
-0.0753971 0.196332 0.977634 
-0.066136 0.220956 0.973039 
-0.0588215 0.262701 0.963083 
-0.0345874 0.328964 0.943709 
-0.047801 0.396353 0.916853 
-0.0378583 0.486069 0.8731 
-0.0235376 0.65132 0.758438 
-0.0158502 0.79846 0.601839 
-0.00422479 0.964045 0.265706 
-0.00300415 0.99991 -0.0130802 
0.00227733 0.94644 -0.322873 
0.00820026 0.828891 -0.55935 
0.0179857 0.679978 -0.733012 
0.0237945 0.496478 -0.867723 
0.0457063 0.368113 -0.928657 
0.0544238 0.298349 -0.952904 
0.0666627 0.246681 -0.966801 
0.0596458 0.207755 -0.976361 
0.0755847 0.186298 -0.979582 
0.0638303 0.165541 -0.984135 
0.0608093 0.148136 -0.987096 
0.0419922 0.127906 -0.990897 
0.0246325 0.108511 -0.99379 
0.0113013 0.0920766 -0.995688 
0.00191681 0.0793363 -0.996846 
-0.00699781 0.0662467 -0.997779 
-0.0124024 0.0550387 -0.998407 
-0.016151 0.0447391 -0.998868 
-0.0184873 0.0356151 -0.999195 
-0.0202758 0.0275901 -0.999414 
-0.0216887 0.0210729 -0.999543 
-0.0226635 0.0159533 -0.999616 
-0.0239898 0.0125796 -0.999633 
-0.0244837 0.0104912 -0.999645 
-0.0249363 0.00936362 -0.999645 
-0.0253521 0.00866389 -0.999641 
-0.0260859 0.00802163 -0.999628 
-0.0257729 0.00729683 -0.999641 
-0.0255581 0.00594386 -0.999656 
-0.0227298 0.00423107 -0.999733 
-0.0231872 0.000899306 -0.999731 
-0.0238591 -0.00164684 -0.999714 
-0.0225673 -0.00348067 -0.999739 
-0.023132 -0.00491355 -0.99972 
-0.020476 -0.009858 -0.999742 
-0.0212422 -0.0216863 -0.999539 
-0.0195163 -0.0310735 -0.999327 
-0.0131743 -0.0298635 -0.999467 
0.000837639 0.000436012 -1 
0.000170999 -0.000405207 1 
0.0149166 -0.0294885 0.999454 
0.0193629 -0.031873 0.999304 
0.0226926 -0.0219071 0.999502 
0.0236064 -0.011055 0.99966 
0.0252201 -0.00521567 0.999668 
0.0254135 -0.0030151 0.999672 
0.0255873 -0.0021677 0.99967 
0.0263882 -0.000854199 0.999651 
0.0260993 0.00100517 0.999659 
0.0264632 0.00330022 0.999644 
0.0272877 0.0056106 0.999612 
0.0275112 0.00739086 0.999594 
0.0272427 0.00886034 0.99959 
0.0266332 0.0102999 0.999592 
0.0252391 0.0121828 0.999607 
0.0251067 0.0144708 0.99958 
0.0234309 0.0180191 0.999563 
0.0214322 0.0229386 0.999507 
0.0188411 0.0295825 0.999385 
0.01556 0.0378335 0.999163 
0.0097314 0.0482356 0.998789 
0.00233784 0.0605868 0.99816 
-0.00673322 0.0746317 0.997188 
-0.022082 0.0907566 0.995628 
-0.0420042 0.10962 0.993086 
-0.0634501 0.129027 0.989609 
-0.0931245 0.152763 0.983866 
-0.140226 0.185821 0.972526 
-0.144325 0.197519 0.969617 
-0.153546 0.211958 0.965141 
-0.144313 0.233556 0.961574 
-0.138605 0.269598 0.952946 
-0.0899107 0.308527 0.946957 
-0.11289 0.374759 0.920223 
-0.0914608 0.439972 0.893342 
-0.060916 0.537585 0.841006 
-0.0476659 0.679708 0.731932 
-0.0133653 0.88366 0.467938 
-0.00416384 0.998675 -0.0512915 
0.0067469 0.916229 -0.400598 
0.0282415 0.755984 -0.653981 
0.0451159 0.56541 -0.823575 
0.066144 0.453383 -0.888858 
0.10198 0.376012 -0.920986 
0.11668 0.295138 -0.948303 
0.149312 0.248449 -0.957068 
0.147189 0.220748 -0.964161 
0.171059 0.208914 -0.962857 
0.149017 0.191164 -0.970181 
0.140045 0.182144 -0.973248 
0.102241 0.157076 -0.98228 
0.0722506 0.133649 -0.988392 
0.0444441 0.11054 -0.992877 
0.0257397 0.0922343 -0.995405 
0.00713451 0.0747472 -0.997177 
-0.00263586 0.0609643 -0.998136 
-0.0102786 0.0487255 -0.998759 
-0.0148099 0.0385929 -0.999145 
-0.0176689 0.0304623 -0.99938 
-0.0194566 0.0238764 -0.999526 
-0.0221334 0.0187223 -0.99958 
-0.0240902 0.0149297 -0.999598 
-0.0255956 0.0120565 -0.9996 
-0.0273181 0.010022 -0.999577 
-0.0277679 0.00849345 -0.999578 
-0.0275912 0.00714375 -0.999594 
-0.0268184 0.00564915 -0.999624 
-0.026747 0.00391139 -0.999635 
-0.0269529 0.00231987 -0.999634 
-0.0259172 3.83931e-05 -0.999664 
-0.0251997 -0.00134071 -0.999682 
-0.0259746 -0.00262094 -0.999659 
-0.024997 -0.00483931 -0.999676 
-0.025387 -0.0103399 -0.999624 
-0.0233545 -0.0214018 -0.999498 
-0.0193424 -0.0317565 -0.999308 
-0.015304 -0.0301573 -0.999428 
-6.84752e-05 -0.000320555 -1 
-1.2399e-05 1.0093e-05 1 
0.0100832 -0.0303792 0.999488 
0.0117523 -0.0337116 0.999363 
0.0141452 -0.0226248 0.999644 
0.014306 -0.0109358 0.999838 
0.0162287 -0.00472584 0.999857 
0.0159242 -0.00221872 0.999871 
0.0154973 -0.00180189 0.999878 
0.0171757 -0.00152121 0.999851 
0.0159372 -0.000596449 0.999873 
0.0169285 0.00168301 0.999855 
0.0183738 0.00429994 0.999822 
0.0185691 0.00667947 0.999805 
0.0171402 0.008845 0.999814 
0.0162657 0.0113278 0.999804 
0.0139198 0.0143454 0.9998 
0.014555 0.0170608 0.999749 
0.0121812 0.0210388 0.999704 
0.00931308 0.0260882 0.999616 
0.0052017 0.0329024 0.999445 
0.000243574 0.0418701 0.999123 
-0.00863248 0.0540832 0.998499 
-0.0183025 0.0685498 0.99748 
-0.0319374 0.0863401 0.995754 
-0.0545549 0.110683 0.992357 
-0.0851096 0.139086 0.986616 
-0.116868 0.1654 0.979278 
-0.152557 0.191399 0.969584 
-0.21589 0.235624 0.947562 
-0.226178 0.238453 0.944449 
-0.270756 0.263876 0.925776 
-0.233025 0.256894 0.937926 
-0.235807 0.273471 0.932528 
-0.22952 0.301791 0.925334 
-0.16801 0.33129 0.92845 
-0.175631 0.416118 0.892188 
-0.129276 0.471567 0.872303 
-0.0874547 0.591839 0.801298 
-0.0131849 0.94888 0.315363 
-0.00823629 0.987171 0.159456 
0.000505274 0.97232 -0.233653 
0.0557511 0.652083 -0.756095 
0.103485 0.518159 -0.849001 
0.133272 0.439178 -0.88846 
0.164761 0.351988 -0.921389 
0.201448 0.294807 -0.934081 
0.264174 0.276501 -0.923991 
0.237985 0.243997 -0.940122 
0.263813 0.245898 -0.932704 
0.239787 0.237904 -0.941225 
0.214102 0.229462 -0.949478 
0.163977 0.197875 -0.966415 
0.129755 0.174349 -0.976097 
0.0911318 0.143133 -0.985499 
0.0604796 0.114631 -0.991565 
0.0337042 0.0879691 -0.995553 
0.0179634 0.0688688 -0.997464 
0.00680541 0.0535096 -0.998544 
0.000685358 0.0424145 -0.9991 
-0.00401064 0.0334805 -0.999431 
-0.00692134 0.0268972 -0.999614 
-0.0107176 0.0214276 -0.999713 
-0.0133551 0.017222 -0.999762 
-0.0157582 0.0136804 -0.999782 
-0.0177107 0.0106461 -0.999786 
-0.0181265 0.00832459 -0.999801 
-0.0173267 0.00620655 -0.999831 
-0.0180353 0.00397519 -0.999829 
-0.0169217 0.00170812 -0.999855 
-0.0191013 0.000366777 -0.999817 
-0.0165378 -0.00124099 -0.999862 
-0.0151968 -0.00162631 -0.999883 
-0.0173418 -0.0020867 -0.999847 
-0.0158846 -0.00493 -0.999862 
-0.0181267 -0.0117203 -0.999767 
-0.0148281 -0.0236167 -0.999611 
-0.0113887 -0.0346697 -0.999334 
-0.0103129 -0.0304019 -0.999485 
0.000218779 -4.307e-06 -1 
-0.000143332 4.66872e-05 1 
0.0042188 -0.0313858 0.999498 
0.00381816 -0.0354565 0.999364 
0.00510048 -0.0241307 0.999696 
0.00501319 -0.0115309 0.999921 
0.00580933 -0.00446298 0.999973 
0.00545966 -0.00196801 0.999983 
0.00574259 -0.00225421 0.999981 
0.0067116 -0.00284415 0.999973 
0.00703182 -0.00211549 0.999973 
0.00779549 0.000289123 0.99997 
0.00910911 0.0034683 0.999952 
0.00869804 0.00634336 0.999942 
0.00755397 0.009492 0.999926 
0.00618141 0.0129506 0.999897 
0.00396848 0.0171096 0.999846 
0.00310993 0.0204125 0.999787 
-0.000121736 0.0250486 0.999686 
-0.0038732 0.0306842 0.999522 
-0.00921619 0.0385883 0.999213 
-0.0164259 0.0497153 0.998628 
-0.0282819 0.0668924 0.997359 
-0.0431367 0.0885258 0.995139 
-0.0649908 0.116175 0.9911 
-0.0986881 0.153538 0.983202 
-0.138413 0.191562 0.971672 
-0.175302 0.218733 0.959909 
-0.214277 0.244574 0.945658 
-0.28547 0.297957 0.910894 
-0.31052 0.300999 0.901652 
-0.339192 0.30999 0.888175 
-0.284489 0.274133 0.91865 
-0.38468 0.326407 0.863412 
-0.33435 0.317545 0.887342 
-0.314579 0.344531 0.884499 
-0.245142 0.371081 0.895659 
-0.23096 0.476816 0.848118 
-0.08403 0.703306 0.705904 
-0.0377422 0.788962 0.613282 
-0.0126697 0.987146 0.15932 
0.0160415 0.846669 -0.531878 
0.106644 0.591073 -0.799537 
0.194584 0.464268 -0.864056 
0.210745 0.404767 -0.889804 
0.250376 0.348764 -0.903148 
0.315105 0.323873 -0.892085 
0.338965 0.284023 -0.896902 
0.334594 0.275445 -0.901209 
0.36178 0.301961 -0.882006 
0.317379 0.29323 -0.901824 
0.26354 0.27538 -0.924507 
0.220412 0.251981 -0.942297 
0.17747 0.224053 -0.958282 
0.131898 0.184835 -0.973878 
0.091207 0.144157 -0.985343 
0.0573633 0.10559 -0.992754 
0.0370361 0.0799185 -0.996113 
0.0240769 0.0614321 -0.997821 
0.0149178 0.0472882 -0.99877 
0.00822015 0.0367844 -0.999289 
0.00411726 0.0297533 -0.999549 
-0.000490414 0.0239546 -0.999713 
-0.00362976 0.0193329 -0.999807 
-0.00593987 0.015334 -0.999865 
-0.00807429 0.0115249 -0.999901 
-0.00835612 0.00825879 -0.999931 
-0.00885505 0.00511451 -0.999948 
-0.00874866 0.00234592 -0.999959 
-0.00782301 -0.000454774 -0.999969 
-0.00882632 -0.00187058 -0.999959 
-0.0068599 -0.00300488 -0.999972 
-0.00599293 -0.00241471 -0.999979 
-0.00744442 -0.00204426 -0.99997 
-0.0062382 -0.00482893 -0.999969 
-0.00810898 -0.0123254 -0.999891 
-0.00614341 -0.0254675 -0.999657 
-0.00428936 -0.0362437 -0.999334 
-0.00455551 -0.0306601 -0.999519 
0.000206893 -9.22175e-05 -1 
-0.00031597 -7.28938e-06 1 
0.000289138 -0.02826 0.999601 
-0.000417023 -0.036939 0.999317 
-3.2336e-05 -0.0287986 0.999585 
8.39408e-05 -0.0153934 0.999882 
0.000227322 -0.00585801 0.999983 
0.000526043 -0.00246834 0.999997 
0.00125776 -0.00275416 0.999995 
0.00234083 -0.00442145 0.999987 
0.00340815 -0.00438903 0.999985 
0.0043601 -0.00232816 0.999988 
0.00484535 0.00120916 0.999988 
0.00477399 0.00470343 0.999978 
0.00413029 0.00854995 0.999955 
0.00269286 0.0129896 0.999912 
0.000857125 0.0176231 0.999844 
-0.0018931 0.0227112 0.99974 
-0.00497071 0.0273329 0.999614 
-0.00926967 0.0334531 0.999397 
-0.0147331 0.0414957 0.99903 
-0.0224721 0.053736 0.998302 
-0.034097 0.0726703 0.996773 
-0.0514603 0.100106 0.993645 
-0.0763398 0.135644 0.987812 
-0.111989 0.182387 0.976828 
-0.158783 0.233933 0.959199 
-0.209226 0.27487 0.938441 
-0.253069 0.301672 0.919212 
-0.300783 0.333888 0.893335 
-0.37358 0.364496 0.852983 
-0.421519 0.375641 0.825358 
-0.428216 0.362585 0.827746 
-0.383315 0.326854 0.86385 
-0.47088 0.367158 0.802164 
-0.42859 0.359507 0.828894 
-0.374745 0.393206 0.839616 
-0.280192 0.431133 0.857681 
-0.126514 0.577044 0.806855 
-0.0251072 0.874256 0.484816 
-0.0046643 0.993615 -0.112726 
0.00872634 0.91477 -0.403881 
0.138516 0.655376 -0.742493 
0.302671 0.40101 -0.864628 
0.369046 0.375225 -0.850301 
0.424836 0.340192 -0.838918 
0.415979 0.317044 -0.852317 
0.436151 0.315491 -0.842756 
0.43914 0.337563 -0.832591 
0.430676 0.369786 -0.823271 
0.351759 0.337097 -0.873288 
0.329618 0.350317 -0.876716 
0.272773 0.319967 -0.907313 
0.226467 0.293126 -0.928865 
0.174466 0.247656 -0.95301 
0.125165 0.195911 -0.972601 
0.0822086 0.142265 -0.986409 
0.0550731 0.103862 -0.993066 
0.0370465 0.0767881 -0.996359 
0.0249412 0.0574221 -0.998038 
0.0163599 0.0438972 -0.998902 
0.0106579 0.0356904 -0.999306 
0.0055396 0.0284942 -0.999579 
0.00188481 0.0231036 -0.999731 
-0.000945927 0.0182719 -0.999833 
-0.00323688 0.0133741 -0.999905 
-0.00453707 0.0092793 -0.999947 
-0.0054065 0.00529546 -0.999971 
-0.00552575 0.0015425 -0.999984 
-0.00508845 -0.00181504 -0.999985 
-0.00438541 -0.00402003 -0.999982 
-0.00331243 -0.00480715 -0.999983 
-0.0022465 -0.00359494 -0.999991 
-0.00199198 -0.00220136 -0.999996 
-0.00120952 -0.00472115 -0.999988 
-0.00192206 -0.0124787 -0.99992 
-0.0011475 -0.0259441 -0.999663 
-0.000515821 -0.0365573 -0.999331 
-0.000975995 -0.0319667 -0.999488 
0.000164758 -6.79598e-05 -1 
-4.991e-05 2.94054e-05 1 
-0.000775279 -0.0309551 0.99952 
-0.00116719 -0.0359383 0.999353 
-0.00101685 -0.0244674 0.9997 
-0.000656533 -0.011326 0.999936 
0.000370403 -0.00466658 0.999989 
0.0015266 -0.00311987 0.999994 
0.00296988 -0.00484991 0.999984 
0.00481942 -0.00652478 0.999967 
0.00602073 -0.00558475 0.999966 
0.00681531 -0.00230022 0.999974 
0.00701244 0.00172621 0.999974 
0.00632474 0.00612904 0.999961 
0.00533277 0.011009 0.999925 
0.00354967 0.0167102 0.999854 
0.000692279 0.0221521 0.999754 
-0.00209602 0.0280157 0.999605 
-0.00618048 0.0337207 0.999412 
-0.0110181 0.0417002 0.999069 
-0.0179004 0.0527701 0.998446 
-0.0280002 0.0706992 0.997105 
-0.0434339 0.0989933 0.99414 
-0.0659897 0.137485 0.988303 
-0.0971689 0.188276 0.977298 
-0.142029 0.249192 0.957983 
-0.198267 0.310305 0.929732 
-0.253521 0.362067 0.897014 
-0.293783 0.37672 0.878507 
-0.357246 0.422819 0.832826 
-0.373203 0.393325 0.840247 
-0.454878 0.449893 0.768558 
-0.467491 0.424579 0.775361 
-0.503583 0.413811 0.758396 
-0.47926 0.380516 0.790897 
-0.530699 0.395898 0.749416 
-0.480796 0.388812 0.785914 
-0.396139 0.447846 0.801566 
-0.10217 0.577893 0.809692 
-0.0215351 0.950594 0.30969 
-0.00756269 0.997316 -0.0728214 
0.0626624 0.721278 -0.689806 
0.194647 0.533561 -0.823059 
0.300269 0.437553 -0.847576 
0.464704 0.382205 -0.79873 
0.525179 0.344129 -0.778307 
0.51864 0.354493 -0.778041 
0.541857 0.387188 -0.745974 
0.506099 0.399351 -0.764449 
0.418385 0.40806 -0.811444 
0.403617 0.438083 -0.803228 
0.343615 0.409318 -0.845215 
0.292849 0.386107 -0.874735 
0.239897 0.349869 -0.905561 
0.190051 0.304778 -0.933269 
0.132378 0.234172 -0.96314 
0.0901503 0.176586 -0.980148 
0.0593058 0.125144 -0.990364 
0.0387936 0.09021 -0.995167 
0.0255023 0.0661599 -0.997483 
0.0167196 0.0506196 -0.998578 
0.0096908 0.0393771 -0.999177 
0.00471176 0.0320607 -0.999475 
0.000934101 0.0257151 -0.999669 
-0.00237466 0.0201879 -0.999793 
-0.00453071 0.0146586 -0.999882 
-0.00664087 0.00941667 -0.999934 
-0.00733178 0.00477105 -0.999962 
-0.00826643 0.000592556 -0.999966 
-0.00773615 -0.00357781 -0.999964 
-0.00601964 -0.00593411 -0.999964 
-0.00530484 -0.00671304 -0.999963 
-0.00399187 -0.00502722 -0.999979 
-0.00193344 -0.00293484 -0.999994 
-0.000903708 -0.0053512 -0.999985 
-0.000143836 -0.0134235 -0.99991 
0.000140949 -0.0264637 -0.99965 
0.000210773 -0.0368922 -0.999319 
0.00020579 -0.0318322 -0.999493 
5.778e-05 -9.79278e-05 -1 
5.08852e-06 -0.000136502 1 
-0.000216225 -0.0305942 0.999532 
-0.000274515 -0.0369818 0.999316 
0.00035595 -0.0262333 0.999656 
0.00139717 -0.0133366 0.99991 
0.00341975 -0.00634724 0.999974 
0.00538794 -0.00471711 0.999974 
0.00743129 -0.00659348 0.999951 
0.00959328 -0.00837971 0.999919 
0.0111482 -0.00744248 0.99991 
0.0117045 -0.00388613 0.999924 
0.0124027 0.000997635 0.999923 
0.0116081 0.00613514 0.999914 
0.0104787 0.0115199 0.999879 
0.00852183 0.0175342 0.99981 
0.00564951 0.0239193 0.999698 
0.00306378 0.0304211 0.999532 
-0.00106705 0.037269 0.999305 
-0.00563926 0.0460894 0.998921 
-0.0125091 0.0588556 0.998188 
-0.022414 0.0786501 0.99665 
-0.0367263 0.109439 0.993315 
-0.0582204 0.153175 0.986483 
-0.0885961 0.212593 0.973116 
-0.13385 0.283302 0.949644 
-0.188182 0.350609 0.917421 
-0.244196 0.416019 0.875955 
-0.301274 0.462008 0.834136 
-0.342711 0.475194 0.810395 
-0.395991 0.500437 0.769905 
-0.430816 0.471781 0.769299 
-0.527309 0.523693 0.669097 
-0.547686 0.456086 0.701446 
-0.556019 0.437767 0.706543 
-0.560902 0.425855 0.709956 
-0.569318 0.408979 0.713172 
-0.501413 0.432239 0.749503 
-0.165358 0.521493 0.837079 
-0.0314578 0.826124 0.562609 
-0.0163378 0.998204 0.0576342 
0.0219261 0.808215 -0.588479 
0.300873 0.459055 -0.835909 
0.416452 0.426443 -0.802941 
0.57185 0.372127 -0.731102 
0.592297 0.366675 -0.71745 
0.622154 0.440506 -0.647209 
0.482 0.440158 -0.757587 
0.541995 0.520319 -0.659931 
0.478394 0.495863 -0.724748 
0.416089 0.509363 -0.753273 
0.362609 0.485576 -0.795444 
0.309232 0.459529 -0.832591 
0.263307 0.43926 -0.858906 
0.208668 0.386943 -0.898183 
0.151487 0.303881 -0.940589 
0.0988794 0.229944 -0.968168 
0.0636542 0.163393 -0.984505 
0.0401576 0.115928 -0.992446 
0.0242072 0.0828758 -0.996266 
0.0137421 0.0615171 -0.998011 
0.00744144 0.0476254 -0.998838 
0.00162439 0.038401 -0.999261 
-0.00242417 0.0307541 -0.999524 
-0.00598329 0.0244625 -0.999683 
-0.00891403 0.0178526 -0.999801 
-0.0110244 0.0119995 -0.999867 
-0.0124857 0.0061319 -0.999903 
-0.0134633 0.000895826 -0.999909 
-0.012941 -0.00410259 -0.999908 
-0.0112738 -0.0074779 -0.999908 
-0.0099322 -0.00844199 -0.999915 
-0.00844757 -0.00678478 -0.999941 
-0.00521522 -0.00436954 -0.999977 
-0.00378536 -0.00616627 -0.999974 
-0.00157317 -0.0128401 -0.999916 
-0.00103585 -0.0255291 -0.999674 
-0.000657476 -0.0363529 -0.999339 
-0.000143718 -0.031656 -0.999499 
-4.90069e-05 -9.70346e-05 -1 
5.97368e-05 -0.000156809 1 
0.000747548 -0.032862 0.99946 
0.00119763 -0.0373242 0.999302 
0.00229111 -0.0273236 0.999624 
0.00408168 -0.014461 0.999887 
0.00665789 -0.00784681 0.999947 
0.00919315 -0.00684862 0.999934 
0.011627 -0.00901743 0.999892 
0.0137142 -0.01035 0.999852 
0.0152431 -0.00850972 0.999848 
0.0159234 -0.00394583 0.999865 