# vtk DataFile Version 3.0 
Exported using Morpho https://github.com/Morpho-lang/morpho 
ASCII 
DATASET UNSTRUCTURED_GRID 

POINTS 1978 float 
-12 -4 6.11942e-13 
-11.6036 -4 6.81842e-12 
-11.3018 -4 4.47872e-12 
-10.9599 -4 3.26182e-12 
-10.6516 -4 2.38262e-12 
-10.3171 -4 1.89886e-12 
-9.99752 -4 1.35703e-12 
-9.65781 -4 1.03398e-12 
-9.30781 -4 7.22429e-13 
-8.99282 -4 4.94574e-13 
-8.68995 -4 3.46552e-13 
-8.37546 -4 2.51994e-13 
-8.07553 -4 1.50354e-13 
-7.76752 -4 7.04487e-14 
-7.47733 -4 2.15563e-14 
-7.19252 -4 2.21678e-14 
-6.89398 -4 6.57184e-14 
-6.59651 -4 1.1587e-14 
-6.29418 -4 -8.40265e-14 
-5.98814 -4 -1.31165e-13 
-5.68993 -4 -1.8105e-13 
-5.39138 -4 -2.19812e-13 
-5.104 -4 -2.89703e-13 
-4.81675 -4 -4.77238e-13 
-4.51271 -4 -7.61352e-13 
-4.22194 -4 -1.20737e-12 
-3.91653 -4 -1.95158e-12 
-3.5982 -4 -2.71438e-12 
-3.2896 -4 -3.506e-12 
-2.9725 -4 -4.0112e-12 
-2.67499 -4 -4.35879e-12 
-2.38651 -4 -2.42219e-12 
-2.11158 -4 -4.21452e-13 
-1.84981 -4 9.06094e-12 
-1.61849 -4 3.38983e-11 
-1.4617 -4 1.64342e-10 
-1.27624 -4 -3.38067e-10 
-0.992458 -4 -3.65339e-09 
-0.453078 -4 -5.59613e-09 
0.120864 -4.00002 -6.92755e-08 
0.626024 -4.00003 -1.32464e-08 
0.856059 -4 -2.31658e-09 
1.09044 -4 -9.26268e-10 
1.36504 -4 -1.10131e-10 
1.54889 -4 -4.84333e-11 
1.79395 -4 -1.80671e-11 
2.06681 -4 -1.90287e-13 
2.38181 -4 4.17753e-12 
2.66688 -4 4.65476e-12 
2.98511 -4 4.46299e-12 
3.30465 -4 3.06836e-12 
3.5951 -4 2.23192e-12 
3.89864 -4 1.78439e-12 
4.20004 -4 1.37328e-12 
4.50773 -4 8.26973e-13 
4.80366 -4 5.42219e-13 
5.11045 -4 3.74178e-13 
5.41315 -4 2.36789e-13 
5.71377 -4 1.68746e-13 
6.00647 -4 1.27849e-13 
6.30241 -4 9.07147e-14 
6.5867 -4 4.3939e-14 
6.89655 -4 1.90022e-14 
7.17726 -4 -4.11705e-14 
7.47607 -4 -6.38667e-14 
7.77517 -4 -1.31762e-13 
8.07153 -4 -1.99028e-13 
8.36368 -4 -2.40971e-13 
8.65568 -4 -3.30579e-13 
8.94952 -4 -4.91754e-13 
9.28084 -4 -6.92335e-13 
9.60953 -4 -8.12153e-13 
9.90714 -4 -1.34323e-12 
10.274 -4 -1.88503e-12 
10.5923 -4 -2.89936e-12 
10.9818 -4 -3.79357e-12 
11.3016 -4 -4.09918e-12 
11.5913 -4 -6.80501e-12 
12 -4 -7.82606e-13 
-12 -3.6225 -2.23394e-12 
-11.7034 -3.71653 -7.9438e-13 
-11.3526 -3.63016 -2.62364e-13 
-11.0398 -3.67473 -3.51619e-13 
-10.7054 -3.64104 -3.20829e-13 
-10.3925 -3.672 -2.52595e-13 
-10.0583 -3.65816 -2.07073e-13 
-9.73317 -3.67802 -1.33611e-13 
-9.39666 -3.69639 -1.06498e-13 
-9.05773 -3.66757 -6.08127e-14 
-8.74304 -3.65656 -3.49269e-14 
-8.43194 -3.67284 -2.82985e-14 
-8.11481 -3.66037 -1.64816e-14 
-7.80712 -3.67176 -1.29196e-14 
-7.49574 -3.65716 -9.55764e-15 
-7.19723 -3.65765 -1.73962e-15 
-6.89154 -3.66733 5.28839e-16 
-6.58152 -3.67024 1.20052e-15 
-6.26551 -3.67529 6.39835e-15 
-5.95487 -3.66944 1.3339e-14 
-5.64317 -3.67135 2.21648e-14 
-5.34045 -3.66 3.29592e-14 
-5.04004 -3.66043 5.5337e-14 
-4.72327 -3.6775 8.88053e-14 
-4.41209 -3.65974 1.25109e-13 
-4.0938 -3.67354 1.77765e-13 
-3.75076 -3.68588 2.67548e-13 
-3.40826 -3.67731 3.19095e-13 
-3.05329 -3.68924 1.04674e-13 
-2.6933 -3.65324 2.83245e-12 
-2.36693 -3.66884 -2.5581e-12 
-2.05229 -3.68812 2.48774e-12 
-1.76228 -3.70316 -3.66429e-12 
-1.54298 -3.63645 2.87323e-11 
-1.28711 -3.54892 1.32772e-11 
-1.11211 -3.52158 7.12499e-11 
-1.35568 -3.76573 9.89514e-11 
-0.855532 -3.92981 4.66835e-10 
-0.594584 -3.88608 1.3575e-09 
0.0171263 -3.88688 -2.66496e-10 
0.477164 -3.92439 1.64427e-08 
0.774019 -3.82063 -8.68257e-08 
1.09713 -3.77 5.37344e-11 
1.32315 -3.76204 -1.59932e-11 
1.4577 -3.64837 -9.13846e-11 
1.65741 -3.71543 2.19088e-12 
1.92004 -3.69432 -3.67165e-12 
2.22964 -3.70707 -1.26106e-12 
2.54777 -3.65924 -7.273e-13 
2.88343 -3.688 -4.15904e-13 
3.23725 -3.67936 -4.41029e-13 
3.57693 -3.64941 -2.86096e-13 
3.89246 -3.65618 -2.48056e-13 
4.21312 -3.66763 -1.74947e-13 
4.52007 -3.6587 -1.1124e-13 
4.83444 -3.67499 -7.45728e-14 
5.1457 -3.67349 -4.92262e-14 
5.45295 -3.67215 -3.23451e-14 
5.75221 -3.66336 -2.05093e-14 
6.05453 -3.66783 -1.25248e-14 
6.34513 -3.651 -6.60658e-15 
6.65088 -3.68128 -1.94012e-15 
6.9423 -3.64617 -1.24784e-15 
7.24007 -3.66581 6.96694e-15 
7.54163 -3.66619 9.16193e-15 
7.84225 -3.66157 1.39655e-14 
8.13858 -3.65633 2.06663e-14 
8.43752 -3.65776 2.78626e-14 
8.73959 -3.65714 4.27834e-14 
9.06038 -3.69166 6.7032e-14 
9.38726 -3.68279 8.47799e-14 
9.69816 -3.64403 1.20538e-13 
10.0361 -3.70929 2.02195e-13 
10.3667 -3.66037 2.45117e-13 
10.7292 -3.71856 3.91777e-13 
11.0646 -3.65406 3.35349e-13 
11.3657 -3.61658 2.59937e-13 
11.7153 -3.72676 8.02677e-13 
12 -3.60868 2.18305e-12 
-12 -3.31797 -4.86557e-13 
-11.6338 -3.37418 -3.87075e-13 
-11.2927 -3.28623 -5.41616e-14 
-10.9778 -3.33365 -1.81513e-13 
-10.6613 -3.28901 -1.83731e-13 
-10.3427 -3.33811 -1.57948e-13 
-10.0197 -3.32198 -1.07298e-13 
-9.69671 -3.35401 -8.88804e-14 
-9.37962 -3.37348 -7.11967e-14 
-9.07519 -3.3242 -5.50618e-14 
-8.77455 -3.31767 -3.31079e-14 
-8.46889 -3.33436 -2.38304e-14 
-8.16512 -3.33324 -1.72056e-14 
-7.85281 -3.33452 -1.01885e-14 
-7.55173 -3.32962 -4.99485e-15 
-7.24556 -3.31774 -2.56364e-15 
-6.943 -3.34255 -1.65548e-15 
-6.63421 -3.34092 2.41851e-15 
-6.32727 -3.35104 5.04785e-15 
-6.01961 -3.34248 1.00431e-14 
-5.71416 -3.34546 1.62538e-14 
-5.41182 -3.32815 2.6103e-14 
-5.11363 -3.32155 4.38578e-14 
-4.8139 -3.35223 6.06797e-14 
-4.51106 -3.33282 8.20434e-14 
-4.20145 -3.33781 1.22759e-13 
-3.8833 -3.37349 1.97322e-13 
-3.55563 -3.35957 2.70164e-13 
-3.21753 -3.37339 2.90075e-13 
-2.88054 -3.3724 3.88825e-13 
-2.5403 -3.33855 5.64458e-13 
-2.21301 -3.35531 1.34296e-12 
-1.92508 -3.39376 -6.11755e-12 
-1.67565 -3.36062 1.4565e-11 
-1.4297 -3.34068 -3.82056e-11 
-1.21009 -3.26146 3.75195e-11 
-0.972597 -3.31054 -2.45957e-10 
-1.14008 -3.83673 9.41229e-11 
-0.79048 -3.77834 9.84186e-11 
-0.321594 -3.93334 5.92841e-09 
0.48713 -3.75266 2.32797e-08 
0.861957 -3.67117 4.99744e-08 
1.16419 -3.50657 -3.78266e-11 
1.34587 -3.40911 -3.65537e-11 
1.44907 -3.18403 1.72533e-12 
1.65267 -3.39769 -7.65684e-12 
1.88306 -3.34807 -5.12855e-12 
2.16557 -3.40639 8.18157e-13 
2.4872 -3.35157 3.18174e-13 
2.83327 -3.37314 -5.48833e-13 
3.17928 -3.37175 -3.02182e-13 
3.52493 -3.33632 -2.71143e-13 
3.86443 -3.32265 -1.63515e-13 
4.1797 -3.33704 -1.25387e-13 
4.49064 -3.32076 -8.88264e-14 
4.79416 -3.34687 -6.38883e-14 
5.10012 -3.34966 -4.20985e-14 
5.40822 -3.34633 -2.6015e-14 
5.71193 -3.33111 -1.51811e-14 
6.01341 -3.33861 -9.23808e-15 
6.31337 -3.30967 -4.95905e-15 
6.61201 -3.34749 -2.24124e-15 
6.91076 -3.31223 -2.23464e-15 
7.21358 -3.32844 1.35605e-15 
7.51497 -3.33377 4.64657e-15 
7.81937 -3.32916 1.00658e-14 
8.12713 -3.31706 1.56027e-14 
8.42972 -3.32256 1.98545e-14 
8.73878 -3.32478 2.88533e-14 
9.05614 -3.37207 4.6287e-14 
9.37689 -3.35132 7.12026e-14 
9.69227 -3.30398 9.42202e-14 
10.0074 -3.38771 1.26584e-13 
10.3107 -3.31358 1.60635e-13 
10.6365 -3.40222 2.11911e-13 
10.9667 -3.34178 1.94967e-13 
11.2954 -3.25986 3.31131e-14 
11.6323 -3.37685 3.97842e-13 
12 -3.30561 5.14976e-13 
-12 -2.98615 -1.33098e-13 
-11.6643 -3.05964 -2.73491e-13 
-11.3214 -2.96893 1.14982e-13 
-10.9739 -2.98303 -1.09103e-14 
-10.633 -2.96387 -6.04414e-14 
-10.2996 -3.00043 -5.15624e-14 
-9.96956 -2.99225 -5.84684e-14 
-9.66059 -3.00599 -3.87127e-14 
-9.3599 -3.0339 -2.46813e-14 
-9.05409 -2.97876 -1.09287e-14 
-8.74291 -2.98038 -1.04193e-14 
-8.43828 -2.99634 -7.66609e-15 
-8.12474 -3.00593 -8.31041e-15 
-7.822 -2.99612 -5.54506e-15 
-7.51621 -2.99691 -1.22622e-15 
-7.21281 -2.98407 3.06742e-16 
-6.91263 -3.0176 1.52344e-15 
-6.6048 -3.01339 8.80357e-16 
-6.29939 -3.02269 1.46206e-15 
-5.99514 -3.01333 3.11242e-15 
-5.69306 -3.01398 6.64067e-15 
-5.39313 -2.99317 7.75305e-15 
-5.08875 -2.99209 -4.86034e-16 
-4.78921 -3.02108 4.55909e-14 
-4.48219 -3.00484 5.68151e-14 
-4.17117 -3.01125 4.43829e-14 
-3.8571 -3.05298 6.43707e-14 
-3.53331 -3.03123 1.09601e-13 
-3.2067 -3.05567 1.19384e-13 
-2.8729 -3.04948 1.99488e-13 
-2.54565 -3.00822 3.05151e-13 
-2.21407 -3.0343 2.46239e-13 
-1.89627 -3.06048 -2.74054e-12 
-1.61453 -3.04956 8.45742e-13 
-1.36696 -3.00294 -3.22879e-11 
-1.09488 -3.05001 -3.76001e-11 
-0.754604 -3.2251 -4.63335e-10 
-0.987146 -3.71271 2.70365e-10 
-0.476635 -3.73443 -7.8338e-10 
-0.0103564 -3.73247 -2.51444e-09 
0.887913 -3.77979 2.34277e-08 
0.97212 -3.52138 1.85317e-10 
0.99032 -3.26246 2.91249e-11 
1.16159 -3.1256 8.0676e-11 
1.32311 -2.90442 -8.2305e-12 
1.63114 -2.99919 -3.77586e-12 
1.91753 -3.03416 4.93143e-12 
2.21416 -3.08189 6.5435e-14 
2.51896 -3.01322 -2.05149e-13 
2.83266 -3.06392 -6.17614e-14 
3.17996 -3.05739 -1.06149e-13 
3.50635 -3.00755 -9.47343e-14 
3.82863 -3.01225 -6.37732e-14 
4.16127 -3.0045 -4.62989e-14 
4.47099 -2.98987 -3.06571e-14 
4.78046 -3.01004 -2.51076e-14 
5.0806 -3.01929 -1.88449e-14 
5.38282 -3.02233 -1.10306e-14 
5.68952 -3.00367 -5.67409e-15 
5.9952 -3.00813 -4.41352e-15 
6.30065 -2.98044 -1.74525e-15 
6.60393 -3.01262 -1.08026e-15 
6.91505 -2.98843 -1.01714e-15 
7.22624 -2.99482 -7.70346e-16 
7.52687 -2.99973 1.62334e-15 
7.83493 -2.9992 5.39116e-15 
8.13556 -2.97924 7.80366e-15 
8.44108 -2.99026 8.87824e-15 
8.74906 -2.99133 1.24099e-14 
9.05836 -3.04617 2.05344e-14 
9.37078 -3.01693 2.54153e-14 
9.67026 -2.956 2.5562e-14 
9.98772 -3.03901 6.01697e-14 
10.3206 -2.98481 6.72356e-14 
10.6513 -3.06867 1.01948e-13 
10.9835 -3.0029 2.97784e-14 
11.3346 -2.93804 -1.3131e-13 
11.6652 -3.06094 2.73701e-13 
12 -2.97227 1.32364e-13 
-12 -2.67079 -1.0406e-13 
-11.6503 -2.73117 -8.94749e-14 
-11.3199 -2.6356 1.6349e-13 
-10.987 -2.6615 5.65141e-14 
-10.6511 -2.63769 -1.64729e-14 
-10.3122 -2.67288 -1.30456e-14 
-9.97854 -2.66678 -1.67706e-14 
-9.64461 -2.66486 -7.22867e-15 
-9.32973 -2.68458 -4.5484e-16 
-9.0066 -2.6474 -3.96948e-15 
-8.6951 -2.64496 -1.25361e-15 
-8.38126 -2.67352 -3.1233e-15 
-8.07644 -2.66912 -4.76387e-15 
-7.76789 -2.6662 -2.77469e-15 
-7.46566 -2.66148 3.15616e-15 
-7.1557 -2.65766 1.74875e-15 
-6.85707 -2.69163 1.40375e-15 
-6.55075 -2.68606 9.37876e-16 
-6.2524 -2.69027 7.30464e-16 
-5.95103 -2.68304 1.20537e-15 
[...]
POINT_DATA 1978 
VECTORS vectors float
-0.000522391 0.00181884 0.999998 
-0.000179723 -0.0172316 0.999851 
-0.00103968 -0.0154803 0.999879 
-0.00101205 -0.0109691 0.999939 
-0.000966266 -0.00783298 0.999969 
-0.00108874 -0.00536433 0.999985 
-0.00132038 -0.0036967 0.999992 
-0.00142425 -0.00241036 0.999996 
-0.00123241 -0.00162511 0.999998 
-0.000883386 -0.00123382 0.999999 
-0.000653663 -0.000893944 0.999999 
-0.000595771 -0.000607501 1 
-0.000502209 -0.000383751 1 
-0.000387901 -0.000175784 1 
-0.000402606 -9.22218e-05 1 
-0.000348984 -0.000100824 1 
-0.0003772 -0.000123187 1 
-0.000464318 -3.37528e-06 1 
-0.00047871 0.000180319 1 
-0.000480646 0.000326902 1 
-0.000404015 0.000457346 1 
-0.000344458 0.000617021 1 
-0.000352483 0.00085756 0.999999 
-0.000317869 0.00132431 0.999999 
-0.000378734 0.00224753 0.999998 
-0.000498466 0.00362118 0.999993 
-0.000546036 0.00575659 0.999983 
-0.000607228 0.0088882 0.99996 
-0.000527846 0.0131878 0.999913 
-0.000379411 0.0194715 0.99981 
-0.00021856 0.0283737 0.999598 
-0.000156047 0.0433251 0.999061 
-0.000107182 0.0663346 0.997797 
-0.000183128 0.099783 0.995009 
0.000871241 0.143333 0.989674 
0.00234703 0.18824 0.98212 
0.00228004 0.240211 0.970718 
0.00252073 0.389069 0.921205 
0.00375044 0.71676 0.69731 
0.0025096 0.998649 -0.0518914 
-0.00207929 0.550661 -0.834727 
-0.00112015 0.422088 -0.906554 
0.000679743 0.308115 -0.951349 
-0.000863659 0.19906 -0.979987 
-0.00032982 0.150033 -0.988681 
0.000215055 0.104057 -0.994572 
0.000168621 0.0707109 -0.997497 
0.000126666 0.0460338 -0.99894 
0.000334532 0.0313861 -0.999507 
0.000369746 0.0204428 -0.999791 
0.000451648 0.0127727 -0.999918 
0.000453756 0.00859283 -0.999963 
0.000424676 0.00582019 -0.999983 
0.000466673 0.00375445 -0.999992 
0.000493198 0.00230244 -0.999997 
0.000521471 0.00144908 -0.999999 
0.000487435 0.000920203 -0.999999 
0.000464962 0.000591341 -0.999999 
0.000412481 0.000414502 -1 
0.00036344 0.000315302 -1 
0.000361329 0.000220148 -1 
0.000334896 0.000134687 -1 
0.00033322 1.52525e-05 -1 
0.000406356 -7.25946e-05 -1 
0.000350633 -0.000167227 -1 
0.000370203 -0.000336584 -1 
0.000355076 -0.000498737 -1 
0.000370963 -0.000657403 -1 
0.000522278 -0.000866937 -0.999999 
0.000720252 -0.00112679 -0.999999 
0.00088013 -0.00158133 -0.999998 
0.00105274 -0.00226839 -0.999997 
0.00124211 -0.00318957 -0.999994 
0.0015166 -0.00500699 -0.999986 
0.00176155 -0.0073163 -0.999971 
0.00153196 -0.0113446 -0.999934 
0.00115444 -0.0155777 -0.999878 
0.000140483 -0.017184 -0.999852 
0.000355575 0.00173114 -0.999999 
-0.00339085 -0.000931689 0.999994 
0.00665466 -0.0129324 0.999894 
0.00773739 -0.0148339 0.99986 
0.00790326 -0.0123617 0.999892 
0.00891752 -0.00899938 0.99992 
0.00906562 -0.00633961 0.999939 
0.00956024 -0.00437013 0.999945 
0.00946802 -0.00298089 0.999951 
0.00958902 -0.00200301 0.999952 
0.0102121 -0.00140535 0.999947 
0.0106361 -0.00101614 0.999943 
0.010502 -0.000694887 0.999945 
0.0107863 -0.00044149 0.999942 
0.0106187 -0.000256504 0.999944 
0.010928 -0.000147879 0.99994 
0.0109984 -0.0001165 0.99994 
0.0106649 -8.18195e-05 0.999943 
0.010703 3.75169e-05 0.999943 
0.0106658 0.00018271 0.999943 
0.0108022 0.000325098 0.999942 
0.0108011 0.000499294 0.999942 
0.0109779 0.000743873 0.999939 
0.0108477 0.00113703 0.999941 
0.0103404 0.00186202 0.999945 
0.0103427 0.00307912 0.999942 
0.00969328 0.00486503 0.999941 
0.00894894 0.00769531 0.99993 
0.00841689 0.0119546 0.999893 
0.00764886 0.0186091 0.999798 
0.00757589 0.0292744 0.999542 
0.00696802 0.0464407 0.998897 
0.00582484 0.0764544 0.997056 
0.00485314 0.121889 0.992532 
0.0068701 0.173068 0.984886 
0.0141086 0.227854 0.973593 
0.0307846 0.272969 0.96153 
-0.00304572 0.252001 0.967722 
-0.00532094 0.482516 0.875871 
0.000657628 0.648544 0.761177 
-0.000491115 0.996887 0.078847 
-0.00330453 0.644676 -0.764448 
-0.0132877 0.420898 -0.90701 
-0.0154246 0.320805 -0.947019 
-0.00668295 0.244164 -0.969711 
-0.0147188 0.18486 -0.982655 
-0.00882671 0.135037 -0.990801 
-0.00749592 0.0924746 -0.995687 
-0.0067429 0.0602906 -0.998158 
-0.00747912 0.0385661 -0.999228 
-0.00729305 0.0245576 -0.999672 
-0.00790233 0.0151002 -0.999855 
-0.00918742 0.00957967 -0.999912 
-0.00952839 0.00630965 -0.999934 
-0.0100118 0.00406265 -0.999942 
-0.010523 0.0026032 -0.999941 
-0.0105131 0.00161553 -0.999944 
-0.0107289 0.00101164 -0.999942 
-0.0108702 0.000649651 -0.999941 
-0.0110755 0.000442266 -0.999939 
-0.0110639 0.000301713 -0.999939 
-0.0112206 0.000191087 -0.999937 
-0.0107869 8.29818e-05 -0.999942 
-0.0112351 -2.28665e-05 -0.999937 
-0.0109001 -0.000110231 -0.99994 
-0.010899 -0.000215989 -0.99994 
-0.0109807 -0.000350664 -0.99994 
-0.0110572 -0.000510747 -0.999939 
-0.0110263 -0.000726148 -0.999939 
-0.0109 -0.00100669 -0.99994 
-0.0101259 -0.00139208 -0.999948 
-0.00996 -0.00200249 -0.999948 
-0.0102031 -0.00285134 -0.999944 
-0.00891688 -0.00408892 -0.999952 
-0.009088 -0.00610125 -0.99994 
-0.00781358 -0.00904115 -0.999929 
-0.00811938 -0.0127376 -0.999886 
-0.00787537 -0.0149241 -0.999857 
-0.00653233 -0.0127176 -0.999898 
0.00334042 -0.00113778 -0.999994 
-0.00312258 -0.0015338 0.999994 
0.00794532 -0.0131072 0.999883 
0.0092884 -0.0153463 0.999839 
0.010355 -0.0126549 0.999866 
0.0111071 -0.00933739 0.999895 
0.0118222 -0.00658563 0.999909 
0.0123788 -0.00460106 0.999913 
0.0127506 -0.00322153 0.999913 
0.0130702 -0.00226204 0.999912 
0.0134132 -0.00164343 0.999909 
0.0134782 -0.00115419 0.999908 
0.0135015 -0.000766813 0.999908 
0.0135451 -0.000482462 0.999908 
0.0135188 -0.000297729 0.999909 
0.013534 -0.000199038 0.999908 
0.0135306 -0.000139964 0.999908 
0.0136679 -7.46173e-05 0.999907 
0.0136727 2.3212e-05 0.999907 
0.0136971 0.000141571 0.999906 
0.0137257 0.000284365 0.999906 
0.0137215 0.000473537 0.999906 
0.0136917 0.000747831 0.999906 
0.0135862 0.00117189 0.999907 
0.0135839 0.00186806 0.999906 
0.0133009 0.00298684 0.999907 
0.0128331 0.00461849 0.999907 
0.0123623 0.00699835 0.999899 
0.0116046 0.0105171 0.999877 
0.011041 0.0160596 0.99981 
0.0107396 0.0243353 0.999646 
0.0109894 0.0375617 0.999234 
0.0117895 0.0583795 0.998225 
0.0134073 0.0890195 0.99594 
0.0178486 0.128863 0.991502 
0.0300846 0.171828 0.984668 
0.0520608 0.212753 0.975718 
0.0671703 0.299835 0.951624 
0.00270348 0.326618 0.945152 
0.0109425 0.532501 0.846359 
-0.00179046 0.83939 0.543528 
-0.0280422 0.692591 -0.720784 
-0.0403973 0.420142 -0.906559 
-0.034584 0.25163 -0.967205 
-0.0337357 0.190989 -0.981012 
-0.0380767 0.149951 -0.98796 
-0.0207013 0.126269 -0.99178 
-0.01626 0.0900809 -0.995802 
-0.0120919 0.0625853 -0.997966 
-0.0114255 0.0415109 -0.999072 
-0.0105863 0.0267966 -0.999585 
-0.0107994 0.0170004 -0.999797 
-0.0115935 0.0109674 -0.999873 
-0.0122597 0.00710547 -0.999899 
-0.0128194 0.00470543 -0.999907 
-0.0132515 0.00307111 -0.999908 
-0.013527 0.00195097 -0.999907 
-0.0136993 0.00122933 -0.999905 
-0.0137755 0.000783674 -0.999905 
-0.0138041 0.000508442 -0.999905 
-0.0138208 0.000319973 -0.999904 
-0.0136417 0.000177237 -0.999907 
-0.0136568 6.41095e-05 -0.999907 
-0.0136753 -4.19192e-05 -0.999907 
-0.0136845 -0.0001278 -0.999906 
-0.013629 -0.00020825 -0.999907 
-0.0136094 -0.000306321 -0.999907 
-0.0136014 -0.000467587 -0.999907 
-0.0135994 -0.000727604 -0.999907 
-0.0134804 -0.00109039 -0.999908 
-0.013333 -0.00156643 -0.99991 
-0.0131369 -0.00226229 -0.999911 
-0.0128706 -0.00324523 -0.999912 
-0.0123443 -0.00445311 -0.999914 
-0.0119571 -0.00639862 -0.999908 
-0.0111644 -0.00891296 -0.999898 
-0.0104006 -0.0124877 -0.999868 
-0.00920633 -0.0154039 -0.999839 
-0.00800854 -0.0131272 -0.999882 
0.00303211 -0.00158296 -0.999994 
-0.00189651 -0.000899603 0.999998 
0.00650271 -0.0129837 0.999894 
0.00752052 -0.0163635 0.999838 
0.00862725 -0.0134641 0.999872 
0.00929173 -0.00978202 0.999909 
0.0101317 -0.0068293 0.999925 
0.0105764 -0.00481242 0.999933 
0.0110541 -0.00345462 0.999933 
0.0115147 -0.00244406 0.99993 
0.011201 -0.00172222 0.999936 
0.0112446 -0.00116032 0.999936 
0.0114225 -0.000737595 0.999935 
0.0114998 -0.000431597 0.999934 
0.0113714 -0.00026972 0.999935 
0.0113607 -0.000200267 0.999935 
0.0112646 -0.000155025 0.999937 
0.0116418 -8.40704e-05 0.999932 
0.0115793 1.40324e-05 0.999933 
0.0116954 0.000139907 0.999931 
0.0116338 0.000296027 0.999932 
0.0116522 0.000502768 0.999932 
0.0114824 0.000807176 0.999934 
0.0114808 0.001297 0.999933 
0.0116572 0.00207442 0.99993 
0.01141 0.0032945 0.99993 
0.0112502 0.00502635 0.999924 
0.011217 0.00742049 0.99991 
0.0106942 0.0109525 0.999883 
0.0106063 0.0162534 0.999812 
0.010999 0.0243182 0.999644 
0.0124916 0.0358489 0.99928 
0.0155705 0.0538986 0.998425 
0.0210024 0.0799111 0.996581 
0.0304356 0.113625 0.993058 
0.049577 0.147934 0.987754 
0.0808646 0.210256 0.974296 
0.114529 0.33497 0.935242 
0.0124208 0.403119 0.915064 
0.0284131 0.698294 0.715247 
0.00709412 0.98188 0.189362 
0.0405673 0.39568 -0.917493 
-0.0523506 0.332392 -0.941688 
-0.0852188 0.270024 -0.959075 
-0.0715079 0.198997 -0.977388 
-0.0537622 0.138822 -0.988857 
-0.0326356 0.107815 -0.993635 
-0.022848 0.0806825 -0.996478 
-0.0158911 0.0569509 -0.99825 
-0.0127031 0.0376304 -0.999211 
-0.0110285 0.025634 -0.999611 
-0.0106109 0.016965 -0.9998 
-0.010594 0.0113739 -0.999879 
-0.0109696 0.00761902 -0.999911 
-0.0111725 0.00502381 -0.999925 
-0.0112997 0.00331633 -0.999931 
-0.011604 0.00211072 -0.99993 
-0.0117567 0.00134251 -0.99993 
-0.0117984 0.000855236 -0.99993 
-0.0116186 0.000534795 -0.999932 
-0.0115553 0.000313566 -0.999933 
-0.011347 0.000155477 -0.999935 
-0.0115854 3.48794e-05 -0.999933 
-0.0113697 -7.29234e-05 -0.999935 
-0.0113399 -0.000148379 -0.999936 
-0.0114015 -0.000204273 -0.999935 
-0.0114337 -0.000281217 -0.999935 
-0.0112592 -0.000437501 -0.999936 
-0.0113966 -0.000733819 -0.999935 
-0.0114111 -0.00116151 -0.999934 
-0.0118009 -0.00170357 -0.999929 
-0.0113462 -0.00246711 -0.999932 
-0.0105932 -0.00351094 -0.999938 
-0.0109281 -0.00485683 -0.999929 
-0.0100872 -0.00705549 -0.999924 
-0.0100854 -0.00979506 -0.999901 
-0.00878324 -0.0135673 -0.999869 
-0.00724071 -0.0164723 -0.999838 
-0.00651342 -0.012936 -0.999895 
0.00182832 -0.00127478 -0.999997 
-0.00106169 -0.00191361 0.999997 
0.00462188 -0.013832 0.999894 
0.0052847 -0.0174971 0.999833 
0.00624185 -0.0144066 0.999877 
0.00679057 -0.0106684 0.99992 
0.00752459 -0.00745677 0.999944 
0.00784112 -0.00521477 0.999955 
0.00813025 -0.00364388 0.99996 
0.00844418 -0.00251941 0.999961 
0.00824027 -0.00168912 0.999965 
0.00822626 -0.0010926 0.999965 
0.00847703 -0.000646687 0.999964 
0.00839582 -0.000358941 0.999965 
0.00830865 -0.000227588 0.999966 
0.00824479 -0.000191431 0.999966 
0.00822034 -0.000158831 0.999966 
0.00857513 -9.03781e-05 0.999963 
0.00848238 8.58928e-06 0.999964 
0.00857057 0.000135378 0.999963 
0.00854955 0.000297263 0.999963 
0.00855585 0.000514822 0.999963 
0.00849576 0.000850185 0.999963 
0.00852529 0.00136768 0.999963 
0.00878727 0.00215298 0.999959 
0.00870694 0.00339017 0.999956 
0.00877682 0.00513562 0.999948 
0.00894585 0.0074482 0.999932 
0.00876456 0.0107393 0.999904 
0.00913183 0.0154574 0.999839 
0.0101394 0.0221105 0.999704 
0.0127983 0.0323978 0.999393 
0.0178954 0.0488524 0.998646 
0.0263308 0.0702798 0.99718 
0.0392302 0.0958751 0.99462 
0.060546 0.12072 0.990838 
0.0881552 0.164821 0.982376 
0.121194 0.236412 0.964065 
0.0394858 0.394776 0.917928 
0.0393879 0.542223 0.839311 
-0.00863891 0.995159 0.0979643 
-0.0362196 0.596265 -0.801971 
-0.0935406 0.406057 -0.909047 
-0.117974 0.217638 -0.968873 
-0.0872208 0.157479 -0.983663 
-0.0553953 0.109269 -0.992467 
-0.0356072 0.0851038 -0.995735 
-0.0232464 0.0626467 -0.997765 
-0.0162751 0.0453683 -0.998837 
-0.0118336 0.0302949 -0.999471 
-0.00997659 0.0214349 -0.999721 
-0.0090302 0.0146383 -0.999852 
-0.00863247 0.00988839 -0.999914 
-0.00879301 0.00682812 -0.999938 
-0.00864606 0.00464244 -0.999952 
-0.00861483 0.00303475 -0.999958 
-0.00867919 0.00196117 -0.99996 
-0.00875475 0.00125374 -0.999961 
-0.00876617 0.000793098 -0.999961 
-0.00857554 0.000476839 -0.999963 
-0.00855654 0.000260868 -0.999963 
-0.00826282 0.000100259 -0.999966 
-0.00851926 -1.60585e-05 -0.999963 
-0.00827863 -0.00011601 -0.999965 
-0.00818729 -0.000168416 -0.999967 
-0.00832912 -0.000195801 -0.999965 
-0.00826023 -0.000248079 -0.999966 
-0.00817891 -0.000408011 -0.999966 
-0.00835314 -0.000735891 -0.999965 
-0.00829492 -0.00120536 -0.999965 
-0.00880416 -0.00178993 -0.99996 
-0.00829327 -0.00259782 -0.999962 
-0.00778366 -0.00380592 -0.999962 
-0.00813262 -0.00530332 -0.999953 
-0.00734937 -0.00759234 -0.999944 
-0.00747248 -0.0105285 -0.999917 
-0.00632758 -0.0145639 -0.999874 
-0.00501185 -0.0173514 -0.999837 
-0.00442415 -0.01333 -0.999901 
0.0010515 -0.00140878 -0.999998 
-0.000555849 -0.00194824 0.999998 
0.00272774 -0.0127578 0.999915 
0.00341583 -0.0178463 0.999835 
0.00412976 -0.0161037 0.999862 
0.00459675 -0.0122823 0.999914 
0.00513944 -0.00869814 0.999949 
0.0054681 -0.00617693 0.999966 
0.00570652 -0.00433498 0.999974 
0.00581724 -0.00298276 0.999979 
0.00582702 -0.00202168 0.999981 
0.00569054 -0.0012713 0.999983 
0.00580262 -0.000727212 0.999983 
0.00574069 -0.000380608 0.999984 
0.00569027 -0.00021883 0.999984 
0.00557481 -0.000187866 0.999984 
0.00563521 -0.000183064 0.999984 
0.00570647 -0.00013887 0.999984 
0.00585178 -5.8681e-05 0.999983 
0.00581644 5.6329e-05 0.999983 
0.00587038 0.000202333 0.999983 
0.00583396 0.000401474 0.999983 
0.00589193 0.000687292 0.999982 
0.00592175 0.00113109 0.999982 
0.00610675 0.0018392 0.99998 
0.00630519 0.00285364 0.999976 
0.00650674 0.00437661 0.999969 
0.00687338 0.00646631 0.999955 
0.0069957 0.00900794 0.999935 
0.00752444 0.0129331 0.999888 
0.00854221 0.0177784 0.999805 
0.0109829 0.024893 0.99963 
0.0162242 0.0368593 0.999189 
0.0249778 0.0526744 0.998299 
0.0388371 0.0713548 0.996694 
0.058152 0.0874988 0.994466 
0.0884349 0.117204 0.989162 
0.129849 0.177823 0.975458 
0.0825876 0.439102 0.894633 
0.0978395 0.582325 0.807047 
0.0175637 0.879665 0.47527 
-0.0698832 0.798764 -0.597573 
-0.162515 0.457764 -0.874094 
-0.160627 0.205949 -0.965289 
-0.101846 0.135687 -0.985503 
-0.0642452 0.0950236 -0.9934 
-0.0388505 0.0701979 -0.996776 
-0.0254888 0.0551857 -0.998151 
-0.0164726 0.0383132 -0.99913 
-0.0118781 0.0282158 -0.999531 
-0.00898126 0.0195907 -0.999768 
-0.00769796 0.0138605 -0.999874 
-0.00697771 0.00960207 -0.999929 
-0.00670781 0.00670828 -0.999955 
-0.00643841 0.0046582 -0.999968 
-0.00627725 0.00308914 -0.999976 
-0.00611318 0.00197555 -0.999979 
-0.00608179 0.00127065 -0.99998 
-0.00608464 0.000804797 -0.999981 
-0.00598784 0.000482583 -0.999982 
-0.00591502 0.000251956 -0.999982 
-0.00569816 8.80929e-05 -0.999984 
-0.00576428 -3.8797e-05 -0.999983 
-0.00576455 -0.000124664 -0.999983 
-0.00551133 -0.000172898 -0.999985 
-0.00565428 -0.000175519 -0.999984 
-0.00554035 -0.000188422 -0.999985 
-0.00552716 -0.000309634 -0.999985 
-0.00567112 -0.0006303 -0.999984 
-0.00561087 -0.00111823 -0.999984 
-0.00598958 -0.0018052 -0.999981 
-0.00583577 -0.00275748 -0.999979 
-0.00540972 -0.00400584 -0.999977 
-0.00577793 -0.00558359 -0.999968 
-0.00518352 -0.00804592 -0.999954 
-0.00527066 -0.0112325 -0.999923 
-0.00440296 -0.0153919 -0.999872 
-0.00338716 -0.0180845 -0.999831 
-0.00293886 -0.0142194 -0.999894 
0.000679447 -0.00135275 -0.999998 
-0.000378065 -0.0013957 0.999999 
0.00181812 -0.0146 0.999892 
0.00246256 -0.018558 0.999825 
0.00279679 -0.0155907 0.999875 
0.00323265 -0.011373 0.99993 
0.00350167 -0.00815753 0.999961 
0.00378939 -0.00573459 0.999976 
0.00392227 -0.00400276 0.999984 
0.00385573 -0.00274358 0.999989 
0.00389928 -0.00176923 0.999991 
0.00383266 -0.00101652 0.999992 
0.00376186 -0.000527199 0.999993 
0.00374194 -0.000246589 0.999993 
0.00366494 -0.000166615 0.999993 
0.0036268 -0.000182882 0.999994 
0.00369711 -0.000187043 0.999993 
0.0036439 -0.000144384 0.999993 
0.00382384 -5.99494e-05 0.999993 
0.00375575 5.31261e-05 0.999993 
0.00381438 0.000200952 0.999993 
0.00382034 0.000403252 0.999992 
0.00394702 0.000707416 0.999992 
0.00403703 0.00117776 0.999991 
0.00415062 0.00186721 0.99999 
0.00453377 0.00295572 0.999985 
0.00491684 0.00454855 0.999978 
0.00518883 0.00636144 0.999966 
0.00576987 0.00914844 0.999942 
0.00639599 0.0123614 0.999903 
0.00781176 0.0167006 0.99983 
0.0111931 0.0239389 0.999651 
0.0171263 0.0337341 0.999284 
0.0264521 0.0454349 0.998617 
0.0378533 0.0537761 0.997835 
0.0589737 0.0675238 0.995973 
0.082058 0.0792527 0.993471 
0.162231 0.159131 0.973837 
0.186102 0.283146 0.940847 
0.171741 0.45831 0.872042 
0.0653735 0.77528 0.628226 
-0.084478 0.539067 -0.838016 
-0.153545 0.290211 -0.944564 
-0.147316 0.1507 -0.977542 
-0.0862051 0.0894988 -0.992249 
-0.0515774 0.066653 -0.996442 
-0.032587 0.0520292 -0.998114 
-0.0212482 0.0409575 -0.998935 
-0.0138579 0.0290754 -0.999481 
-0.00979882 0.0219769 -0.999711 
-0.00745787 0.0159401 -0.999845 
-0.00623161 0.0114565 -0.999915 
-0.00545933 0.00810409 -0.999952 
-0.00499007 0.00579083 -0.999971 
-0.00466948 0.00398133 -0.999981 
-0.00444067 0.00261441 -0.999987 
-0.00416756 0.00168227 -0.99999 
-0.00404886 0.00107602 -0.999991 
-0.00400315 0.000666904 -0.999992 
-0.0039918 0.000371426 -0.999992 
-0.00381721 0.000171804 -0.999993 
-0.00380729 1.73531e-05 -0.999993 
-0.00367925 -8.60887e-05 -0.999993 
-0.0037642 -0.000154095 -0.999993 
-0.00355154 -0.000178687 -0.999994 
-0.00364361 -0.000160366 -0.999993 
-0.00355989 -0.000153566 -0.999994 
-0.00359088 -0.000276235 -0.999993 
-0.00366178 -0.000613356 -0.999993 
-0.00368487 -0.00117329 -0.999992 
-0.0040382 -0.00187135 -0.99999 
-0.00385635 -0.00281782 -0.999989 
-0.00366929 -0.0042397 -0.999984 
-0.00391072 -0.00603059 -0.999974 
-0.0034717 -0.00864931 -0.999957 
-0.00355978 -0.0119116 -0.999923 
-0.00287764 -0.0158972 -0.99987 
-0.0021919 -0.0186495 -0.999824 
-0.00187571 -0.0145362 -0.999893 
0.000445404 -0.00136978 -0.999999 
-0.00024976 -0.00132272 0.999999 
0.00114134 -0.0146633 0.999892 
0.00160192 -0.0189531 0.999819 
0.00182361 -0.0164239 0.999864 
0.00215374 -0.0123175 0.999922 
0.00231058 -0.00882853 0.999958 
0.0024959 -0.00624208 0.999978 
0.00259563 -0.00437137 0.999987 
0.00250268 -0.0029686 0.999992 
0.00248428 -0.00189089 0.999995 
0.00248158 -0.00109757 0.999996 
0.00229117 -0.000510611 0.999997 
0.00227995 -0.000216154 0.999997 
0.00220004 -0.000139127 0.999997 
0.00220062 -0.000171873 0.999998 
0.00221826 -0.000197316 0.999997 
0.00215094 -0.000172363 0.999998 
0.00224366 -0.000103967 0.999998 
0.00226536 -1.15263e-05 0.999997 
0.00226704 0.000114309 0.999997 
0.00232002 0.000281236 0.999997 
0.00243768 0.000538294 0.999997 
0.00255306 0.000925551 0.999996 
0.00261889 0.00150879 0.999995 
0.00299312 0.00240909 0.999992 
0.00351663 0.00371213 0.999987 
0.00376107 0.00525216 0.999979 
0.0044763 0.00745425 0.999962 
0.00500071 0.0098802 0.999938 
0.00602157 0.0129884 0.999897 
0.00849523 0.0181409 0.9998 
0.0127983 0.0250195 0.999605 
0.0190919 0.032822 0.999279 
0.0275022 0.0401865 0.998814 
0.0437936 0.0512579 0.997725 
0.0704037 0.0629788 0.995528 
0.116214 0.0953539 0.988637 
0.268037 0.289564 0.918863 
0.208406 0.632801 0.745742 
0.0601742 0.904605 0.42198 
-0.159391 0.738079 -0.655612 
-0.257894 0.305468 -0.916613 
-0.130107 0.0965671 -0.986786 
-0.0670617 0.0570151 -0.996118 
-0.0395913 0.0476763 -0.998078 
-0.0267718 0.0398845 -0.998846 
-0.0183203 0.0326948 -0.999298 
-0.0118701 0.0238812 -0.999644 
-0.00885595 0.0192288 -0.999776 
-0.00646466 0.0139894 -0.999881 
-0.0052482 0.0104236 -0.999932 
-0.00442568 0.00759633 -0.999961 
-0.00377451 0.00534295 -0.999979 
-0.00336593 0.00370625 -0.999987 
-0.00308136 0.00249136 -0.999992 
-0.0027537 0.00160594 -0.999995 
-0.00255172 0.00100481 -0.999996 
-0.00243571 0.000599162 -0.999997 
-0.00249651 0.000337419 -0.999997 
-0.00228467 0.000135641 -0.999997 
-0.00240392 3.32658e-06 -0.999997 
-0.00216666 -0.000102949 -0.999997 
-0.00224749 -0.000163918 -0.999998 
-0.00215896 -0.000184165 -0.999997 
-0.0021286 -0.000151582 -0.999998 