# vtk DataFile Version 3.0 
Exported using Morpho https://github.com/Morpho-lang/morpho 
ASCII 
DATASET UNSTRUCTURED_GRID 

POINTS 1978 float 
-12 -4 9.6089e-12 
-11.6036 -4 9.63264e-11 
-11.3017 -4 6.08731e-11 
-10.9599 -4 4.44291e-11 
-10.6516 -4 3.25385e-11 
-10.317 -4 2.5915e-11 
-9.99766 -4 1.8342e-11 
-9.65769 -4 1.40056e-11 
-9.3078 -4 9.80274e-12 
-8.99282 -4 6.80901e-12 
-8.68992 -4 4.79775e-12 
-8.37544 -4 3.46216e-12 
-8.07554 -4 2.08708e-12 
-7.76746 -4 9.69227e-13 
-7.47715 -4 2.82596e-13 
-7.19276 -4 3.07802e-13 
-6.89395 -4 9.11817e-13 
-6.59653 -4 1.71389e-13 
-6.29416 -4 -1.16393e-12 
-5.98809 -4 -1.80443e-12 
-5.68992 -4 -2.48826e-12 
-5.39135 -4 -3.02277e-12 
-5.10396 -4 -3.96042e-12 
-4.81675 -4 -6.5374e-12 
-4.51269 -4 -1.04468e-11 
-4.22191 -4 -1.65442e-11 
-3.9165 -4 -2.68645e-11 
-3.5981 -4 -3.7304e-11 
-3.28949 -4 -4.83347e-11 
-2.97268 -4 -5.60663e-11 
-2.6747 -4 -4.61622e-11 
-2.38661 -4 -4.02301e-11 
-2.11136 -4 -3.33116e-12 
-1.84967 -4 1.40036e-10 
-1.61768 -4 5.20959e-10 
-1.46133 -4 2.36212e-09 
-1.2784 -4 -4.30006e-09 
-0.990849 -4 -4.66584e-08 
-0.453582 -4 -1.01543e-07 
0.126175 -3.99999 -8.73486e-07 
0.63669 -3.99997 3.96395e-09 
0.855653 -4 -2.7248e-08 
1.08929 -4 -1.25873e-08 
1.37073 -4 -1.84165e-09 
1.54631 -4 -1.04501e-09 
1.79385 -4 -2.52683e-10 
2.06697 -4 -9.07305e-12 
2.38205 -4 5.46672e-11 
2.66686 -4 6.30598e-11 
2.98493 -4 6.15087e-11 
3.30477 -4 4.1973e-11 
3.59478 -4 3.06276e-11 
3.89868 -4 2.49792e-11 
4.20004 -4 1.81558e-11 
4.50772 -4 1.13382e-11 
4.80365 -4 7.41533e-12 
5.11045 -4 5.13796e-12 
5.41314 -4 3.25056e-12 
5.71377 -4 2.32127e-12 
6.0065 -4 1.76719e-12 
6.30234 -4 1.2489e-12 
6.58676 -4 6.15271e-13 
6.89654 -4 2.53336e-13 
7.17722 -4 -5.63302e-13 
7.47608 -4 -8.82385e-13 
7.77516 -4 -1.81287e-12 
8.07154 -4 -2.75891e-12 
8.36377 -4 -3.32437e-12 
8.65566 -4 -4.57295e-12 
8.94943 -4 -6.74686e-12 
9.28082 -4 -9.50623e-12 
9.60955 -4 -1.10692e-11 
9.90713 -4 -1.82405e-11 
10.274 -4 -2.56033e-11 
10.5923 -4 -3.90249e-11 
10.9818 -4 -5.14261e-11 
11.3016 -4 -5.5363e-11 
11.5913 -4 -9.62449e-11 
12 -4 -1.18514e-11 
-12 -3.62251 -3.96076e-11 
-11.7034 -3.71657 -5.28482e-11 
-11.3528 -3.63044 -2.65204e-11 
-11.0402 -3.67474 -3.76024e-11 
-10.7069 -3.64153 -3.19985e-11 
-10.3944 -3.67131 -2.75422e-11 
-10.0606 -3.65847 -1.91461e-11 
-9.7333 -3.67859 -1.30775e-11 
-9.39763 -3.69887 -1.11607e-11 
-9.05498 -3.66709 -7.15773e-12 
-8.74024 -3.65641 -4.44345e-12 
-8.43079 -3.67302 -3.33959e-12 
-8.11525 -3.66025 -1.99254e-12 
-7.80828 -3.67191 -1.47232e-12 
-7.49636 -3.65719 -1.05151e-12 
-7.19804 -3.65661 -2.49625e-13 
-6.89193 -3.66881 1.95943e-13 
-6.58202 -3.67053 1.47876e-13 
-6.26607 -3.67522 7.57326e-13 
-5.95562 -3.66933 1.48889e-12 
-5.64409 -3.67139 2.48301e-12 
-5.34162 -3.65987 3.81742e-12 
-5.04167 -3.66021 6.46704e-12 
-4.72477 -3.67803 1.00685e-11 
-4.41372 -3.6599 1.4362e-11 
-4.09624 -3.67256 2.2195e-11 
-3.75388 -3.68525 3.25942e-11 
-3.41323 -3.67666 4.23707e-11 
-3.0604 -3.68898 5.44137e-11 
-2.70194 -3.66355 6.46673e-11 
-2.36987 -3.6647 7.37768e-11 
-2.04648 -3.68874 9.3628e-11 
-1.7471 -3.70079 2.47761e-10 
-1.51329 -3.6652 8.36501e-10 
-1.30201 -3.56871 -2.14381e-09 
-1.11835 -3.50143 7.11149e-10 
-1.32502 -3.80382 4.22309e-09 
-0.840404 -3.92838 5.76566e-08 
-0.586036 -3.88579 9.63374e-08 
0.0582463 -3.89111 6.87041e-07 
0.557289 -3.92106 -1.1636e-07 
0.848845 -3.80136 -9.13438e-08 
1.07133 -3.7767 -1.02067e-08 
1.26378 -3.79155 -1.52253e-09 
1.43361 -3.63104 -4.99147e-10 
1.64684 -3.70513 -4.47327e-10 
1.90522 -3.69263 -5.35381e-11 
2.21989 -3.7096 -4.45606e-11 
2.54737 -3.66136 -7.01564e-11 
2.88539 -3.68787 -5.72452e-11 
3.23952 -3.68048 -4.71674e-11 
3.58057 -3.64733 -3.80548e-11 
3.89603 -3.65814 -2.57961e-11 
4.21619 -3.66752 -1.97518e-11 
4.52272 -3.65852 -1.30973e-11 
4.83662 -3.67518 -8.67564e-12 
5.14701 -3.67355 -5.70248e-12 
5.45353 -3.67223 -3.71586e-12 
5.7525 -3.66352 -2.31635e-12 
6.05427 -3.66724 -1.45516e-12 
6.34522 -3.65145 -7.13151e-13 
6.65139 -3.68148 -2.45756e-13 
6.94309 -3.64589 -1.05402e-13 
7.24107 -3.66646 6.87768e-13 
7.5424 -3.66645 1.02516e-12 
7.84283 -3.66188 1.48862e-12 
8.13877 -3.65632 2.28553e-12 
8.43735 -3.65681 3.27721e-12 
8.7392 -3.65665 4.94381e-12 
9.05961 -3.69214 7.5903e-12 
9.38635 -3.68303 9.64909e-12 
9.69761 -3.6444 1.28727e-11 
10.0356 -3.7096 2.12894e-11 
10.3661 -3.66051 2.51643e-11 
10.7288 -3.71873 3.86583e-11 
11.0643 -3.65405 3.34655e-11 
11.3655 -3.61679 2.48292e-11 
11.7153 -3.727 5.34231e-11 
12 -3.60869 3.89493e-11 
-12 -3.31794 -1.18143e-11 
-11.6341 -3.3743 -6.38014e-12 
-11.2931 -3.28654 -4.53448e-12 
-10.9778 -3.33359 -1.93563e-11 
-10.6599 -3.29007 -2.11069e-11 
-10.3399 -3.33772 -1.78732e-11 
-10.0162 -3.32479 -1.44284e-11 
-9.69775 -3.35263 -1.02282e-11 
-9.38189 -3.37651 -6.86838e-12 
-9.0789 -3.32498 -4.94586e-12 
-8.77704 -3.31689 -3.29369e-12 
-8.47074 -3.33416 -2.29252e-12 
-8.16648 -3.33291 -1.72387e-12 
-7.85371 -3.3344 -1.07165e-12 
-7.55223 -3.33016 -5.36799e-13 
-7.2457 -3.31552 -2.61708e-13 
-6.94302 -3.34542 -1.82291e-13 
-6.63329 -3.34108 2.3247e-14 
-6.3267 -3.35096 5.0613e-13 
-6.01907 -3.34226 1.05881e-12 
-5.71361 -3.34548 1.69386e-12 
-5.41122 -3.32807 2.60388e-12 
-5.11286 -3.32131 4.14461e-12 
-4.81357 -3.35224 6.6173e-12 
-4.51063 -3.33296 9.14364e-12 
-4.20141 -3.3368 1.28964e-11 
-3.88304 -3.37281 1.93351e-11 
-3.55552 -3.35771 2.57915e-11 
-3.21948 -3.37307 3.1803e-11 
-2.88344 -3.37165 4.20378e-11 
-2.54375 -3.34362 4.81113e-11 
-2.21419 -3.35989 4.10548e-11 
-1.91957 -3.38878 7.61362e-11 
-1.65474 -3.3776 -3.23948e-10 
-1.42447 -3.32048 -8.3573e-10 
-1.2106 -3.26804 1.07234e-09 
-0.966084 -3.31687 -1.07205e-08 
-1.10732 -3.80033 1.55101e-08 
-0.755837 -3.77911 -1.29e-09 
-0.297038 -3.9238 5.77079e-08 
0.481575 -3.84039 -2.17679e-09 
0.848909 -3.66845 5.50524e-07 
1.17013 -3.50801 -1.48346e-10 
1.33972 -3.39013 -2.405e-10 
1.43936 -3.18556 5.75282e-10 
1.65018 -3.39203 2.392e-10 
1.88457 -3.35964 2.74413e-11 
2.17696 -3.40764 -2.41953e-11 
2.49092 -3.34238 -2.38235e-11 
2.83238 -3.37526 -3.79252e-11 
3.18163 -3.37178 -3.49398e-11 
3.5263 -3.33398 -2.68946e-11 
3.86666 -3.32476 -1.85227e-11 
4.18094 -3.33647 -1.31662e-11 
4.49101 -3.32036 -9.12672e-12 
4.79411 -3.34714 -6.61226e-12 
5.09988 -3.34963 -4.42901e-12 
5.40759 -3.34635 -2.6788e-12 
5.71114 -3.33165 -1.56234e-12 
6.0129 -3.3378 -9.75225e-13 
6.31322 -3.31041 -5.17692e-13 
6.61234 -3.3483 -2.45274e-13 
6.91074 -3.31118 -3.08805e-14 
7.21292 -3.32914 1.82675e-13 
7.51385 -3.33399 5.223e-13 
7.8179 -3.32976 1.15446e-12 
8.12579 -3.31702 1.77109e-12 
8.42862 -3.32208 2.25441e-12 
8.7389 -3.32475 3.07141e-12 
9.05743 -3.37257 4.71365e-12 
9.37925 -3.35204 6.89523e-12 
9.69321 -3.30303 9.80074e-12 
10.0071 -3.38822 1.3906e-11 
10.3102 -3.31364 1.79156e-11 
10.6361 -3.40267 2.29232e-11 
10.9666 -3.34181 2.13864e-11 
11.2956 -3.26005 2.97309e-12 
11.6323 -3.37732 7.07206e-12 
12 -3.3056 1.21593e-11 
-12 -2.98614 -4.83424e-12 
-11.6641 -3.05946 3.00863e-12 
-11.3208 -2.96928 1.30866e-11 
-10.9729 -2.98376 -2.44615e-12 
-10.6322 -2.96421 -6.65703e-12 
-10.2989 -3.00179 -6.69983e-12 
-9.96998 -2.99077 -4.73879e-12 
-9.65973 -3.00394 -3.31433e-12 
-9.35974 -3.03553 -2.87116e-12 
-9.05315 -2.98044 -1.52279e-12 
-8.74236 -2.97926 -9.08303e-13 
-8.438 -2.99657 -9.01353e-13 
-8.12494 -3.00587 -9.1065e-13 
-7.82248 -2.99606 -5.81149e-13 
-7.51721 -2.99692 -1.25149e-13 
-7.21349 -2.98197 1.22149e-13 
-6.91295 -3.02126 1.20601e-13 
-6.60509 -3.01289 1.27815e-13 
-6.29953 -3.02266 1.80239e-13 
-5.99476 -3.01331 2.9078e-13 
-5.69263 -3.0142 6.23503e-13 
-5.39361 -2.99355 1.05442e-12 
-5.08994 -2.99388 1.70096e-12 
-4.78731 -3.01968 2.73211e-12 
-4.4801 -3.00396 3.21717e-12 
-4.17121 -3.00969 4.37147e-12 
-3.85774 -3.05262 7.90019e-12 
-3.53294 -3.03062 1.00108e-11 
-3.20582 -3.05469 1.05981e-11 
-2.87224 -3.04898 1.14638e-11 
-2.54852 -3.01047 1.88665e-11 
-2.22044 -3.03677 3.31285e-11 
-1.90106 -3.05211 -1.12532e-10 
-1.61847 -3.05783 -3.90698e-10 
-1.35324 -3.00254 -1.13995e-09 
-1.08207 -3.07173 -2.39779e-09 
-0.755287 -3.231 1.41576e-09 
-0.95191 -3.7094 1.41058e-08 
-0.462953 -3.76965 1.50634e-07 
-0.026388 -3.76525 1.77335e-07 
0.905728 -3.76769 -4.10881e-07 
0.978835 -3.51463 -5.84432e-09 
0.976759 -3.25274 6.22299e-09 
1.14447 -3.12536 1.90724e-09 
1.33127 -2.92085 9.82e-10 
1.63116 -3.00866 1.38475e-10 
1.9074 -3.03271 -4.14535e-11 
2.19757 -3.0778 2.20602e-11 
2.51302 -3.01176 -1.57826e-11 
2.83533 -3.06476 -1.54099e-11 
3.18082 -3.05479 -1.08177e-11 
3.5072 -3.00455 -8.38987e-12 
3.82975 -3.01475 -7.89865e-12 
4.16206 -3.00334 -4.49132e-12 
4.47119 -2.98919 -3.06356e-12 
4.78033 -3.0103 -2.69574e-12 
5.08016 -3.0197 -1.93245e-12 
5.38259 -3.02224 -1.12379e-12 
5.68909 -3.00419 -6.27267e-13 
5.9947 -3.00756 -4.00878e-13 
6.30113 -2.9812 -1.98565e-13 
6.60383 -3.01361 -9.94172e-14 
6.91489 -2.9873 -1.2187e-13 
7.22627 -2.9951 -7.86814e-14 
7.52652 -2.9996 1.56444e-13 
7.83449 -2.99977 5.70976e-13 
8.13529 -2.97922 8.17227e-13 
8.44152 -2.99099 8.82521e-13 
8.75031 -2.99186 1.02109e-12 
9.05967 -3.04769 2.09198e-12 
9.37061 -3.01637 2.61926e-12 
9.67017 -2.95548 2.52307e-12 
9.98819 -3.03873 5.84418e-12 
10.321 -2.98471 6.31525e-12 
10.6515 -3.06924 1.12012e-11 
10.984 -3.00294 2.56819e-12 
11.3351 -2.93807 -1.54302e-11 
11.6654 -3.06135 -3.24298e-12 
12 -2.97225 4.87008e-12 
-12 -2.6708 -3.69536e-12 
-11.65 -2.73107 1.06335e-11 
-11.32 -2.6357 1.87483e-11 
-10.9868 -2.66211 5.41191e-12 
-10.6512 -2.63728 -5.64284e-13 
-10.3125 -2.67346 -1.26081e-12 
-9.97925 -2.66559 -1.16828e-12 
-9.64453 -2.66386 -7.68584e-13 
-9.32805 -2.68545 -5.83024e-13 
-9.00565 -2.64758 -4.46366e-13 
-8.69363 -2.64436 -2.30096e-13 
-8.38025 -2.6738 -4.04821e-13 
-8.0757 -2.66915 -5.49401e-13 
-7.76735 -2.66577 -3.10742e-13 
-7.46564 -2.66096 4.46641e-14 
-7.15421 -2.65732 1.89291e-13 
-6.85695 -2.6942 1.10013e-13 
-6.55038 -2.68531 9.52707e-14 
-6.25222 -2.69055 6.73164e-14 
-5.9511 -2.68287 1.4077e-13 
[...]
POINT_DATA 1978 
VECTORS vectors float
-6.8696e-05 -0.0039742 0.999992 
-0.000897067 -0.0174883 0.999847 
-0.000674169 -0.015553 0.999879 
-0.00066426 -0.0109579 0.99994 
-0.000684341 -0.00781582 0.999969 
-0.000746582 -0.00535024 0.999985 
-0.000786263 -0.00368502 0.999993 
-0.000953624 -0.00239851 0.999997 
-0.000815453 -0.0016198 0.999998 
-0.000606814 -0.00123377 0.999999 
-0.000628865 -0.000892507 0.999999 
-0.00061313 -0.000606882 1 
-0.000588096 -0.000383538 1 
-0.000527288 -0.000174375 1 
-0.000357749 -9.0508e-05 1 
-0.000417743 -9.93247e-05 1 
-0.000505258 -0.000125723 1 
-0.000537116 -4.57205e-06 1 
-0.000594988 0.000181512 1 
-0.000557713 0.00032741 1 
-0.000512935 0.000456585 1 
-0.000443112 0.000613814 1 
-0.000370819 0.000851414 1 
-0.000459187 0.00131396 0.999999 
-0.000475161 0.0022341 0.999997 
-0.000468058 0.00360636 0.999993 
-0.000603379 0.00574128 0.999983 
-0.000586947 0.00886818 0.999961 
-0.000535954 0.0131584 0.999913 
-0.000403734 0.0194213 0.999811 
-0.000229866 0.0282556 0.999601 
-5.84668e-05 0.043205 0.999066 
-6.33519e-05 0.0661652 0.997809 
-3.70544e-05 0.0995223 0.995035 
-0.0007808 0.142908 0.989736 
-0.00216131 0.187807 0.982204 
-0.00143684 0.238895 0.971044 
0.000425885 0.388025 0.92165 
0.000852132 0.714235 0.699908 
-0.00129719 0.998943 -0.0459457 
0.00228449 0.554687 -0.832055 
0.00130912 0.422418 -0.9064 
-0.000185885 0.307786 -0.951456 
0.00105418 0.198409 -0.980119 
0.000296027 0.149652 -0.988739 
-7.01996e-05 0.103773 -0.994601 
-1.90786e-05 0.070514 -0.997511 
0.000168228 0.0459101 -0.998946 
0.000276651 0.0313147 -0.99951 
0.000513132 0.0203981 -0.999792 
0.000438874 0.012725 -0.999919 
0.000408923 0.00856292 -0.999963 
0.000514797 0.00580427 -0.999983 
0.000552631 0.00374076 -0.999993 
0.00054365 0.00228937 -0.999997 
0.000530152 0.00143991 -0.999999 
0.000586463 0.000914866 -0.999999 
0.000552517 0.000588227 -1 
0.000497921 0.000413284 -1 
0.000459368 0.000315927 -1 
0.000426523 0.00022041 -1 
0.000486751 0.000135441 -1 
0.000485187 1.61306e-05 -1 
0.000403129 -7.25295e-05 -1 
0.000525036 -0.000166656 -1 
0.000511089 -0.000337065 -1 
0.000470691 -0.000499502 -1 
0.000429754 -0.000656824 -1 
0.000430967 -0.000867272 -1 
0.000652938 -0.00112581 -0.999999 
0.000847547 -0.00157482 -0.999998 
0.000641603 -0.0022592 -0.999997 
0.000776095 -0.00317778 -0.999995 
0.000853626 -0.00499247 -0.999987 
0.000876204 -0.00729978 -0.999973 
0.000877411 -0.0113328 -0.999935 
0.000478557 -0.0156514 -0.999877 
0.000862563 -0.0174301 -0.999848 
0.000177663 -0.00371085 -0.999993 
0.00266615 0.00169481 0.999995 
0.00703066 -0.0132694 0.999887 
0.00789502 -0.0149634 0.999857 
0.00809517 -0.0124037 0.99989 
0.00910591 -0.00900204 0.999918 
0.00927935 -0.00633399 0.999937 
0.00976851 -0.0043656 0.999943 
0.00967124 -0.00297685 0.999949 
0.00982687 -0.00199821 0.99995 
0.0104321 -0.00140233 0.999945 
0.0108569 -0.00101651 0.999941 
0.0107353 -0.000695148 0.999942 
0.0110125 -0.000441565 0.999939 
0.01085 -0.000256021 0.999941 
0.0111511 -0.000146361 0.999938 
0.0112319 -0.000117044 0.999937 
0.0108841 -8.39647e-05 0.999941 
0.0109314 3.77594e-05 0.99994 
0.0108974 0.000183253 0.999941 
0.0110308 0.000324828 0.999939 
0.0110328 0.000498398 0.999939 
0.0112054 0.00074157 0.999937 
0.0110725 0.00113161 0.999938 
0.0105663 0.00185485 0.999943 
0.0105566 0.00307285 0.99994 
0.00990504 0.00485605 0.999939 
0.00915477 0.00768161 0.999929 
0.00859708 0.0119349 0.999892 
0.00780977 0.0185834 0.999797 
0.0077326 0.0292055 0.999544 
0.00702877 0.0462305 0.998906 
0.00581499 0.0762787 0.99707 
0.00470744 0.121915 0.992529 
0.00688654 0.172757 0.98494 
0.0134327 0.227693 0.97364 
0.0310041 0.270558 0.962204 
-0.00391983 0.254704 0.967011 
-0.00678702 0.482792 0.875709 
-0.000257863 0.650753 0.75929 
-0.000186459 0.99686 0.0791822 
-0.00129534 0.637018 -0.770847 
-0.0124494 0.417344 -0.908663 
-0.0153845 0.321435 -0.946807 
-0.0061139 0.244855 -0.96954 
-0.0146514 0.185049 -0.98262 
-0.00873506 0.135031 -0.990803 
-0.0074753 0.0924228 -0.995692 
-0.00680339 0.0603221 -0.998156 
-0.00758166 0.0385004 -0.99923 
-0.00743425 0.0245314 -0.999672 
-0.00806153 0.0150693 -0.999854 
-0.00938 0.00955533 -0.99991 
-0.00972215 0.00629867 -0.999933 
-0.0102336 0.00405391 -0.99994 
-0.0107419 0.00259582 -0.999939 
-0.010742 0.00161064 -0.999941 
-0.0109583 0.00100798 -0.99994 
-0.0111012 0.000647337 -0.999938 
-0.0113036 0.000441598 -0.999936 
-0.0113008 0.000301843 -0.999936 
-0.0114397 0.000191745 -0.999935 
-0.0110307 8.31884e-05 -0.999939 
-0.0114542 -2.33059e-05 -0.999935 
-0.0111287 -0.000109895 -0.999938 
-0.0111282 -0.000216017 -0.999938 
-0.0112088 -0.000351106 -0.999937 
-0.0112841 -0.000510833 -0.999936 
-0.0112578 -0.000726574 -0.999936 
-0.0111289 -0.00100607 -0.999938 
-0.0103606 -0.00138916 -0.999945 
-0.0101861 -0.00200059 -0.999946 
-0.0104073 -0.0028467 -0.999942 
-0.00914663 -0.00407936 -0.99995 
-0.00928378 -0.0060938 -0.999938 
-0.00803051 -0.0090403 -0.999927 
-0.00829954 -0.0127911 -0.999884 
-0.0080313 -0.0150623 -0.999854 
-0.0069164 -0.0130659 -0.999891 
-0.00259964 0.00184012 -0.999995 
0.0018479 0.000772201 0.999998 
0.00814535 -0.0133687 0.999878 
0.00940452 -0.0155127 0.999836 
0.0104858 -0.0127079 0.999864 
0.0112426 -0.00934567 0.999893 
0.0119672 -0.00658362 0.999907 
0.0125334 -0.00459517 0.999911 
0.0129181 -0.00322211 0.999912 
0.0132279 -0.00226186 0.99991 
0.0135721 -0.00164409 0.999907 
0.0136343 -0.00115491 0.999906 
0.0136559 -0.000766788 0.999907 
0.0137008 -0.000481351 0.999906 
0.0136718 -0.000297025 0.999907 
0.0136847 -0.000199141 0.999906 
0.0136808 -0.000140493 0.999907 
0.0138228 -7.48147e-05 0.999905 
0.0138308 2.33723e-05 0.999904 
0.0138562 0.000141307 0.999904 
0.0138839 0.00028366 0.999904 
0.013878 0.000472576 0.999904 
0.013844 0.000746282 0.999904 
0.0137361 0.00116894 0.999905 
0.0137419 0.00186428 0.999904 
0.0134554 0.00298517 0.999905 
0.0129823 0.00461868 0.999905 
0.0125125 0.00699792 0.999897 
0.0117387 0.0105149 0.999876 
0.0111592 0.0160564 0.999809 
0.010844 0.024327 0.999645 
0.0110654 0.037554 0.999233 
0.0118224 0.0582958 0.998229 
0.0133956 0.0888814 0.995952 
0.0177317 0.128867 0.991503 
0.0301712 0.17192 0.984649 
0.0523926 0.212546 0.975745 
0.0669897 0.300815 0.951327 
0.0025243 0.326686 0.94513 
0.010468 0.53533 0.844578 
-0.00326645 0.839934 0.542678 
-0.0271334 0.698231 -0.715358 
-0.0404727 0.424314 -0.904611 
-0.0341674 0.251032 -0.967376 
-0.0336919 0.190975 -0.981017 
-0.0380156 0.150082 -0.987942 
-0.0206553 0.126306 -0.991776 
-0.0162043 0.0898159 -0.995827 
-0.0121097 0.0624394 -0.997975 
-0.0115005 0.0415229 -0.999071 
-0.0106746 0.0267854 -0.999584 
-0.0109127 0.0169798 -0.999796 
-0.0117304 0.0109671 -0.999871 
-0.012398 0.00710289 -0.999898 
-0.0129681 0.00470487 -0.999905 
-0.0134016 0.00306925 -0.999906 
-0.0136838 0.00194804 -0.999905 
-0.0138579 0.00122666 -0.999903 
-0.0139318 0.000782443 -0.999903 
-0.0139569 0.000508138 -0.999903 
-0.0139752 0.000319812 -0.999902 
-0.0137868 0.000177119 -0.999905 
-0.013807 6.38819e-05 -0.999905 
-0.0138235 -4.24671e-05 -0.999905 
-0.0138345 -0.000128465 -0.999904 
-0.0137802 -0.000208579 -0.999905 
-0.0137599 -0.000305321 -0.999905 
-0.0137509 -0.000465913 -0.999905 
-0.013752 -0.000727171 -0.999905 
-0.0136353 -0.00109122 -0.999907 
-0.0134953 -0.00156704 -0.999908 
-0.0132987 -0.00226293 -0.999909 
-0.0130278 -0.00324481 -0.99991 
-0.0125039 -0.00445045 -0.999912 
-0.0121063 -0.00639807 -0.999906 
-0.0113116 -0.00891664 -0.999896 
-0.0105374 -0.0125357 -0.999866 
-0.00931819 -0.0155745 -0.999835 
-0.008214 -0.0133917 -0.999877 
-0.00185412 0.00079354 -0.999998 
0.00110253 0.000789878 0.999999 
0.00665328 -0.0132852 0.99989 
0.00756464 -0.0165569 0.999834 
0.00867595 -0.0135233 0.999871 
0.00933729 -0.0097905 0.999909 
0.0101884 -0.00683073 0.999925 
0.0106297 -0.00481289 0.999932 
0.0111104 -0.00345571 0.999932 
0.0115809 -0.00244443 0.99993 
0.011252 -0.00172229 0.999935 
0.0112918 -0.00116073 0.999936 
0.0114763 -0.000736702 0.999934 
0.0115537 -0.000429243 0.999933 
0.0114216 -0.000268069 0.999935 
0.0114095 -0.000200488 0.999935 
0.0113049 -0.000156292 0.999936 
0.0117039 -8.50265e-05 0.999932 
0.0116304 1.34367e-05 0.999932 
0.0117513 0.000139716 0.999931 
0.0116859 0.000295952 0.999932 
0.0117043 0.000502045 0.999931 
0.0115306 0.000805453 0.999933 
0.0115231 0.00129351 0.999933 
0.0117188 0.00207238 0.999929 
0.0114609 0.00329377 0.999929 
0.0113029 0.00502869 0.999924 
0.0112794 0.00742209 0.999909 
0.0107435 0.0109513 0.999882 
0.0106483 0.01626 0.999811 
0.0110315 0.0243296 0.999643 
0.0125155 0.0358575 0.999279 
0.0155976 0.0539086 0.998424 
0.0210084 0.0797785 0.996591 
0.0303027 0.113495 0.993076 
0.0494298 0.147705 0.987796 
0.0811941 0.210636 0.974187 
0.113883 0.33364 0.935797 
0.0119757 0.404823 0.914316 
0.0274993 0.699022 0.714572 
0.00531901 0.983882 0.178736 
0.0416418 0.394298 -0.918039 
-0.0525179 0.332255 -0.941726 
-0.0856248 0.269694 -0.959132 
-0.0716279 0.19877 -0.977425 
-0.0534937 0.138649 -0.988896 
-0.0325845 0.107751 -0.993644 
-0.0229305 0.0809017 -0.996458 
-0.0159093 0.0570225 -0.998246 
-0.0127133 0.0376005 -0.999212 
-0.0110637 0.0256131 -0.999611 
-0.010656 0.0169754 -0.999799 
-0.0106363 0.011374 -0.999879 
-0.0110253 0.00761728 -0.99991 
-0.0112242 0.00502489 -0.999924 
-0.0113492 0.00331595 -0.99993 
-0.0116588 0.00210783 -0.99993 
-0.0118122 0.00133973 -0.999929 
-0.0118537 0.000853915 -0.999929 
-0.0116696 0.000534164 -0.999932 
-0.0116039 0.000312963 -0.999933 
-0.0113895 0.00015515 -0.999935 
-0.011644 3.45145e-05 -0.999932 
-0.0114145 -7.38339e-05 -0.999935 
-0.0113885 -0.000149391 -0.999935 
-0.011451 -0.000204436 -0.999935 
-0.0114849 -0.00027972 -0.999934 
-0.0113036 -0.000435182 -0.999936 
-0.0114462 -0.000732733 -0.999934 
-0.0114637 -0.00116198 -0.999934 
-0.0118714 -0.00170414 -0.999928 
-0.011404 -0.00246706 -0.999932 
-0.0106364 -0.00351201 -0.999937 
-0.010994 -0.00485692 -0.999928 
-0.0101401 -0.00705777 -0.999924 
-0.0101605 -0.00980568 -0.9999 
-0.00883615 -0.0136324 -0.999868 
-0.00727847 -0.0166756 -0.999835 
-0.00666497 -0.0132377 -0.99989 
-0.000952603 0.00111941 -0.999999 
0.000581437 0.00176089 0.999998 
0.00469314 -0.0141435 0.999889 
0.00529294 -0.0177135 0.999829 
0.00625076 -0.0144749 0.999876 
0.00680169 -0.0106822 0.99992 
0.00753827 -0.00746033 0.999944 
0.00785276 -0.00521418 0.999956 
0.00814557 -0.00364553 0.99996 
0.00846104 -0.00251992 0.999961 
0.00825378 -0.00168856 0.999965 
0.00823764 -0.00109223 0.999966 
0.00849116 -0.000644921 0.999964 
0.00840905 -0.000355743 0.999965 
0.0083195 -0.000225748 0.999965 
0.00825529 -0.000191956 0.999966 
0.00823025 -0.000160229 0.999966 
0.00858968 -9.13591e-05 0.999963 
0.00849138 7.98946e-06 0.999964 
0.00858248 0.000135037 0.999963 
0.00856181 0.000296698 0.999963 
0.00856893 0.000513501 0.999963 
0.00850776 0.000847988 0.999964 
0.00854093 0.0013649 0.999963 
0.00879965 0.00214828 0.999959 
0.00872242 0.00338888 0.999956 
0.00879396 0.00513786 0.999948 
0.00896165 0.0074521 0.999932 
0.00877208 0.0107411 0.999904 
0.00913554 0.0154534 0.999839 
0.010137 0.0220964 0.999705 
0.012798 0.0323861 0.999394 
0.0178948 0.0488752 0.998645 
0.0263775 0.0702763 0.997179 
0.0392647 0.0961189 0.994595 
0.0605904 0.120782 0.990828 
0.0883884 0.165317 0.982272 
0.121601 0.236005 0.964114 
0.0386681 0.394482 0.91809 
0.0391018 0.540203 0.840626 
-0.00234532 0.990782 0.135462 
-0.0349392 0.594206 -0.803554 
-0.0924361 0.408859 -0.907904 
-0.11839 0.217991 -0.968743 
-0.0872655 0.157914 -0.983589 
-0.0554535 0.109537 -0.992435 
-0.0355944 0.0849439 -0.99575 
-0.0232415 0.0626578 -0.997765 
-0.0162581 0.0453439 -0.998839 
-0.0118322 0.0302958 -0.999471 
-0.00997979 0.0214505 -0.99972 
-0.00903529 0.0146417 -0.999852 
-0.0086427 0.00988635 -0.999914 
-0.00881067 0.00683114 -0.999938 
-0.00866206 0.00464369 -0.999952 
-0.00862993 0.00303302 -0.999958 
-0.00869265 0.0019578 -0.99996 
-0.00876896 0.00125104 -0.999961 
-0.00877914 0.00079183 -0.999961 
-0.00858767 0.000476152 -0.999963 
-0.00856954 0.000260194 -0.999963 
-0.00827435 9.97764e-05 -0.999966 
-0.00853012 -1.67855e-05 -0.999964 
-0.00828699 -0.00011761 -0.999966 
-0.00819658 -0.000169807 -0.999966 
-0.00833933 -0.000195551 -0.999965 
-0.00827207 -0.000245729 -0.999966 
-0.00818916 -0.000404697 -0.999966 
-0.00836607 -0.000734036 -0.999965 
-0.00830768 -0.00120491 -0.999965 
-0.00882085 -0.00178927 -0.99996 
-0.00830777 -0.00259825 -0.999962 
-0.00779404 -0.0038079 -0.999962 
-0.00814474 -0.00530274 -0.999953 
-0.00736005 -0.00759468 -0.999944 
-0.00748738 -0.010543 -0.999917 
-0.00633435 -0.0146386 -0.999873 
-0.00501708 -0.0175695 -0.999833 
-0.00450446 -0.0136567 -0.999897 
-0.000591553 0.00112614 -0.999999 
0.000229973 0.00176557 0.999998 
0.00279183 -0.0131495 0.99991 
0.00341916 -0.018084 0.999831 
0.00413352 -0.0162094 0.99986 
0.00460027 -0.0123055 0.999914 
0.00514296 -0.0087031 0.999949 
0.00547195 -0.00617709 0.999966 
0.00571094 -0.00433666 0.999974 
0.00581988 -0.00298456 0.999979 
0.00582957 -0.00202117 0.999981 
0.00569238 -0.0012706 0.999983 
0.00580306 -0.000725018 0.999983 
0.00573963 -0.00037655 0.999984 
0.00568826 -0.000215812 0.999984 
0.00557165 -0.000187706 0.999985 
0.0056341 -0.000184634 0.999984 
0.00570446 -0.000140396 0.999984 
0.00585101 -5.97669e-05 0.999983 
0.00581593 5.55451e-05 0.999983 
0.00587009 0.000201512 0.999983 
0.00583308 0.00040054 0.999983 
0.00588992 0.000685769 0.999983 
0.00592159 0.00112812 0.999982 
0.00610589 0.00183551 0.99998 
0.00630709 0.00285159 0.999976 
0.00651262 0.00437867 0.999969 
0.00688286 0.006471 0.999955 
0.00699859 0.00901357 0.999935 
0.00752311 0.0129407 0.999888 
0.00853358 0.0177751 0.999806 
0.0109751 0.0248788 0.99963 
0.0162117 0.036814 0.999191 
0.0249434 0.0526051 0.998304 
0.0387935 0.0713223 0.996699 
0.0581396 0.0874093 0.994475 
0.0880535 0.117122 0.989206 
0.130298 0.178912 0.975199 
0.0825763 0.439851 0.894267 
0.0971021 0.583611 0.806207 
0.0178052 0.880419 0.473861 
-0.0739395 0.785024 -0.615037 
-0.162206 0.453177 -0.876539 
-0.160388 0.205453 -0.965435 
-0.101669 0.135492 -0.985548 
-0.0643317 0.0951706 -0.99338 
-0.0389173 0.0702676 -0.996769 
-0.0254547 0.0551524 -0.998154 
-0.0164552 0.0382983 -0.999131 
-0.0118661 0.0281968 -0.999532 
-0.008976 0.0195913 -0.999768 
-0.00769812 0.0138609 -0.999874 
-0.00698108 0.00960179 -0.99993 
-0.00671208 0.00671052 -0.999955 
-0.00644281 0.00466082 -0.999968 
-0.00627921 0.00308673 -0.999976 
-0.00611308 0.00197201 -0.999979 
-0.00608228 0.00126829 -0.999981 
-0.0060853 0.000803344 -0.999981 
-0.00598679 0.000481411 -0.999982 
-0.00591703 0.000251274 -0.999983 
-0.00569521 8.73011e-05 -0.999984 
-0.00576204 -3.98918e-05 -0.999984 
-0.00576438 -0.000126287 -0.999983 
-0.00550911 -0.000174629 -0.999985 
-0.00565145 -0.000175673 -0.999984 
-0.00553737 -0.000185617 -0.999985 
-0.00552467 -0.000304983 -0.999985 
-0.00567195 -0.000627375 -0.999984 
-0.00561147 -0.00111726 -0.999984 
-0.0059908 -0.00180488 -0.999981 
-0.00583877 -0.00275837 -0.999979 
-0.00541372 -0.0040094 -0.999977 
-0.00578474 -0.00558408 -0.999968 
-0.00518723 -0.00804813 -0.999954 
-0.00527672 -0.011249 -0.999923 
-0.00440787 -0.0154744 -0.999871 
-0.00339169 -0.0183065 -0.999827 
-0.00298148 -0.0145538 -0.99989 
-0.000412699 0.00104966 -0.999999 
0.00027995 0.00116464 0.999999 
0.00184031 -0.0149347 0.999887 
0.00246246 -0.0187797 0.999821 
0.00279465 -0.0156617 0.999874 
0.00322917 -0.0113856 0.99993 
0.00349866 -0.0081602 0.999961 
0.00378872 -0.00573448 0.999976 
0.00392073 -0.00400521 0.999984 
0.00385395 -0.00274444 0.999989 
0.00389758 -0.00176799 0.999991 
0.00383141 -0.00101456 0.999992 
0.00375946 -0.000522946 0.999993 
0.00373849 -0.000241627 0.999993 
0.00366143 -0.000164323 0.999993 
0.00362281 -0.000183701 0.999994 
0.00369344 -0.000188978 0.999993 
0.00364044 -0.000146022 0.999993 
0.00382113 -6.10489e-05 0.999993 
0.00375206 5.22815e-05 0.999993 
0.00381166 0.000200153 0.999993 
0.00381697 0.000401932 0.999993 
0.00394428 0.000705186 0.999992 
0.00403484 0.00117405 0.999991 
0.00414753 0.00186252 0.99999 
0.00453377 0.00295331 0.999985 
0.00491931 0.00455093 0.999978 
0.00519115 0.0063641 0.999966 
0.00576913 0.00915353 0.999942 
0.00639212 0.0123686 0.999903 
0.0078024 0.0167042 0.99983 
0.0111806 0.02393 0.999651 
0.0171186 0.033727 0.999285 
0.0264436 0.0453891 0.998619 
0.0379727 0.0539574 0.997821 
0.0591432 0.0673184 0.995977 
0.0827291 0.07977 0.993375 
0.160073 0.156035 0.974695 
0.186959 0.284472 0.940278 
0.17062 0.458135 0.872354 
0.0642992 0.773846 0.630101 
-0.0844373 0.542868 -0.835563 
-0.153469 0.289649 -0.944749 
-0.147392 0.150817 -0.977512 
-0.0861357 0.089405 -0.992264 
-0.0516102 0.0666864 -0.996438 
-0.0325673 0.0520318 -0.998114 
-0.0212284 0.0409583 -0.998935 
-0.0138431 0.0290565 -0.999482 
-0.00978573 0.0219752 -0.999711 
-0.00745224 0.0159501 -0.999845 
-0.00622899 0.0114553 -0.999915 
-0.00546005 0.00810692 -0.999952 
-0.00499061 0.00579464 -0.999971 
-0.00467085 0.00398156 -0.999981 
-0.00444007 0.0026106 -0.999987 
-0.00416605 0.00167876 -0.99999 
-0.00404684 0.00107381 -0.999991 
-0.00400143 0.000665165 -0.999992 
-0.00398874 0.000369985 -0.999992 
-0.00381526 0.000170868 -0.999993 
-0.0038034 1.6263e-05 -0.999993 
-0.00367568 -8.74169e-05 -0.999993 
-0.00376124 -0.000155769 -0.999993 
-0.00354792 -0.000180325 -0.999994 
-0.0036406 -0.000160363 -0.999993 
-0.00355669 -0.000150306 -0.999994 
-0.00358763 -0.000270801 -0.999994 
-0.00365911 -0.000609207 -0.999993 
-0.00368392 -0.00117193 -0.999993 
-0.00403716 -0.00186966 -0.99999 
-0.00385507 -0.00281659 -0.999989 
-0.00366698 -0.00424103 -0.999984 
-0.00390893 -0.00603111 -0.999974 
-0.00346867 -0.00865363 -0.999957 
-0.00355884 -0.0119306 -0.999923 
-0.00287576 -0.0159794 -0.999868 
-0.00219043 -0.0188773 -0.99982 
-0.00190026 -0.0148791 -0.999888 
-0.00023967 0.00107823 -0.999999 
0.000113998 0.00102898 0.999999 
0.00115794 -0.0150236 0.999887 
0.00160342 -0.0191874 0.999815 
0.00182275 -0.016504 0.999862 
0.00215507 -0.0123406 0.999922 
0.00231142 -0.00883415 0.999958 
0.00249694 -0.00624284 0.999978 
0.00259677 -0.0043732 0.999987 
0.00250321 -0.00296891 0.999993 
0.0024846 -0.00189002 0.999995 
0.00248081 -0.0010951 0.999996 
0.00228911 -0.000505353 0.999997 
0.00227767 -0.000210512 0.999997 
0.00219699 -0.000136403 0.999998 
0.00219808 -0.000172492 0.999998 
0.00221507 -0.000199289 0.999998 
0.00214816 -0.000174127 0.999998 
0.00224127 -0.000105236 0.999998 
0.00226188 -1.25427e-05 0.999998 
0.0022649 0.000113234 0.999998 
0.00231724 0.000279648 0.999997 
0.00243554 0.000536023 0.999997 
0.00255063 0.000922204 0.999996 
0.00261556 0.00150424 0.999996 
0.00299273 0.00240606 0.999993 
0.0035206 0.00371265 0.999987 
0.00376591 0.00525542 0.999979 
0.00448007 0.00745871 0.999962 
0.00500145 0.009886 0.999939 
0.00601713 0.0129911 0.999898 
0.00848332 0.0181345 0.9998 
0.0127932 0.0250121 0.999605 
0.0190996 0.0328409 0.999278 
0.0273779 0.040064 0.998822 
0.0436941 0.0512207 0.997731 
0.0699961 0.062742 0.995572 
0.116292 0.0954442 0.988619 
0.268398 0.289871 0.918661 
0.208311 0.632619 0.745923 
0.0595366 0.905629 0.41987 
-0.15949 0.731114 -0.663352 
-0.258045 0.30617 -0.916337 
-0.130214 0.0968053 -0.986749 
-0.0671023 0.0569738 -0.996118 
-0.0396201 0.0476954 -0.998076 
-0.0267892 0.039897 -0.998845 
-0.0183125 0.0326915 -0.999298 
-0.0118598 0.0238766 -0.999645 
-0.00884903 0.019233 -0.999776 
-0.00645656 0.0139794 -0.999882 
-0.00525267 0.0104325 -0.999932 
-0.00442925 0.00760224 -0.999961 
-0.00377835 0.00534584 -0.999979 
-0.00336825 0.003704 -0.999988 
-0.00308182 0.00248777 -0.999992 
-0.00275198 0.00160259 -0.999995 
-0.00254917 0.00100229 -0.999996 
-0.00243358 0.000597117 -0.999997 
-0.00249446 0.000335779 -0.999997 
-0.00228165 0.00013422 -0.999998 
-0.00240206 2.13566e-06 -0.999997 
-0.00216433 -0.000104367 -0.999998 
-0.00224427 -0.000165696 -0.999998 
-0.00215526 -0.000186038 -0.999998 
-0.00212535 -0.000152085 -0.999998 