# vtk DataFile Version 3.0 
Exported using Morpho https://github.com/Morpho-lang/morpho 
ASCII 
DATASET UNSTRUCTURED_GRID 

POINTS 1978 float 
-12 -4 2.14481e-16 
-11.5969 -4 -1.24982e-14 
-11.2979 -4 -1.46353e-14 
-10.9675 -4 -9.2133e-15 
-10.667 -4 -4.30281e-15 
-10.3319 -4 -1.68614e-15 
-10.0049 -4 -1.41852e-15 
-9.66628 -4 -2.67994e-15 
-9.31244 -4 -3.08244e-15 
-8.99858 -4 -1.65773e-15 
-8.69647 -4 3.69173e-16 
-8.37295 -4 2.48458e-15 
-8.07392 -4 3.92812e-15 
-7.77485 -4 5.51352e-15 
-7.47182 -4 6.45307e-15 
-7.19428 -4 7.26929e-15 
-6.8814 -4 9.15373e-15 
-6.57448 -4 9.33634e-15 
-6.2704 -4 9.53872e-15 
-5.9725 -4 9.19174e-15 
-5.68714 -4 8.33212e-15 
-5.40676 -4 7.56697e-15 
-5.12788 -4 6.84828e-15 
-4.84474 -4 5.65461e-15 
-4.54888 -4 3.94521e-15 
-4.21946 -4 -4.83959e-16 
-3.87913 -4 -1.02844e-14 
-3.56017 -4 -3.04248e-14 
-3.19718 -4 -6.23526e-14 
-2.82966 -4 -1.09974e-13 
-2.43295 -4 -1.57589e-13 
-2.17029 -4 -1.91689e-13 
-1.9221 -4 -2.23281e-13 
-1.70618 -4 -2.77212e-13 
-1.4378 -4 -3.2674e-13 
-1.23322 -4 -2.54797e-13 
-1.04678 -4 -1.62213e-13 
-0.848262 -4 2.84878e-13 
-0.315678 -4 3.93103e-13 
0.19108 -4 -1.21359e-13 
0.451236 -4 -1.00743e-13 
0.741251 -4 4.56376e-14 
1.02754 -4 1.13692e-15 
1.22073 -4 2.06062e-13 
1.53866 -4 2.56337e-13 
1.80507 -4 2.15853e-13 
1.99119 -4 1.82985e-13 
2.21248 -4 1.78571e-13 
2.48656 -4 1.56104e-13 
2.80656 -4 1.2397e-13 
3.15207 -4 8.01607e-14 
3.51691 -4 4.09053e-14 
3.9181 -4 1.45191e-14 
4.27249 -4 9.70031e-16 
4.59752 -4 -3.64808e-15 
4.88314 -4 -5.3763e-15 
5.15141 -4 -6.9544e-15 
5.42736 -4 -8.10583e-15 
5.70863 -4 -8.20099e-15 
5.98709 -4 -8.76109e-15 
6.28443 -4 -8.04604e-15 
6.55146 -4 -8.08783e-15 
6.85263 -4 -8.59869e-15 
7.15143 -4 -7.94247e-15 
7.45473 -4 -7.44963e-15 
7.77162 -4 -6.21825e-15 
8.07938 -4 -4.43726e-15 
8.3772 -4 -2.66231e-15 
8.66545 -4 -8.2891e-16 
8.96044 -4 9.51349e-16 
9.29176 -4 2.28986e-15 
9.62421 -4 1.91958e-15 
9.92604 -4 1.25938e-15 
10.2717 -4 1.04473e-15 
10.602 -4 4.78191e-15 
10.984 -4 1.04415e-14 
11.3004 -4 1.34674e-14 
11.5905 -4 1.1848e-14 
12 -4 -3.61932e-18 
-12 -3.63615 7.86987e-17 
-11.7016 -3.72096 -2.99502e-15 
-11.3567 -3.6312 -4.39396e-15 
-11.0446 -3.66798 -4.23e-15 
-10.7177 -3.63934 -3.4744e-15 
-10.4043 -3.67483 -2.61942e-15 
-10.065 -3.66842 -1.48718e-15 
-9.73335 -3.68304 -7.05221e-16 
-9.39602 -3.70122 -3.30318e-16 
-9.059 -3.66994 2.6321e-17 
-8.74786 -3.65858 3.26573e-16 
-8.43678 -3.68274 7.58647e-16 
-8.11769 -3.6621 1.28657e-15 
-7.8104 -3.66475 1.98308e-15 
-7.49982 -3.66748 2.35078e-15 
-7.19588 -3.64405 2.58265e-15 
-6.89884 -3.68131 3.21699e-15 
-6.58851 -3.67852 3.73563e-15 
-6.28715 -3.68614 4.3851e-15 
-5.98917 -3.68886 4.84863e-15 
-5.69372 -3.67955 5.14505e-15 
-5.40544 -3.67329 5.54281e-15 
-5.09944 -3.67251 5.95339e-15 
-4.77556 -3.65726 7.15371e-15 
-4.42493 -3.65538 8.52351e-15 
-4.05092 -3.6222 1.07591e-14 
-3.69887 -3.56751 1.0192e-14 
-3.35943 -3.59304 1.69015e-14 
-3.02732 -3.65759 1.78099e-14 
-2.68598 -3.74085 3.28072e-14 
-2.4309 -3.66148 1.99168e-14 
-2.21495 -3.75736 1.17467e-14 
-1.97039 -3.79595 2.68657e-14 
-1.72854 -3.80157 3.80758e-14 
-1.57068 -3.85378 5.13406e-14 
-1.26294 -3.84882 -7.86423e-15 
-0.898377 -3.84445 1.33232e-13 
-0.601959 -3.95167 -1.07987e-14 
-0.256436 -3.86159 -2.57292e-14 
0.0325848 -3.94899 1.26878e-13 
0.323939 -3.8993 -1.96711e-15 
0.667289 -3.89227 -8.3949e-14 
0.914599 -3.89363 -1.72264e-14 
1.11908 -3.83906 8.87427e-14 
1.3538 -3.88783 -1.79309e-14 
1.73373 -3.84959 -2.87867e-14 
1.97648 -3.75022 3.04022e-15 
2.2003 -3.72545 -2.02174e-14 
2.47871 -3.70634 -4.50236e-14 
2.767 -3.64775 -1.26043e-15 
3.10293 -3.62331 -1.7171e-14 
3.45732 -3.59067 -1.25076e-14 
3.82631 -3.61892 -1.30935e-14 
4.20706 -3.62271 -1.06413e-14 
4.55535 -3.65337 -8.37885e-15 
4.87805 -3.65565 -6.87531e-15 
5.18229 -3.68045 -6.21438e-15 
5.48394 -3.69177 -5.5827e-15 
5.77633 -3.68182 -4.8456e-15 
6.07189 -3.6905 -4.67307e-15 
6.35359 -3.64229 -3.74753e-15 
6.64636 -3.67316 -3.55117e-15 
6.94565 -3.66553 -3.15669e-15 
7.24422 -3.66614 -2.72642e-15 
7.55128 -3.6792 -2.45285e-15 
7.85133 -3.66555 -1.83661e-15 
8.14579 -3.6607 -1.44989e-15 
8.4354 -3.64526 -8.67459e-16 
8.73576 -3.66041 -4.79354e-16 
9.05372 -3.69438 2.01959e-16 
9.37858 -3.68808 -1.93454e-16 
9.68937 -3.65103 4.5276e-16 
10.027 -3.69731 1.2771e-15 
10.367 -3.67434 2.34732e-15 
10.7353 -3.7152 3.69106e-15 
11.0654 -3.65102 3.90711e-15 
11.3654 -3.61474 4.23046e-15 
11.718 -3.7237 2.73547e-15 
12 -3.59972 -8.47911e-18 
-12 -3.32789 4.95427e-16 
-11.6422 -3.37548 1.87114e-16 
-11.3008 -3.28732 -1.60121e-15 
-10.9851 -3.32233 -2.07911e-15 
-10.6631 -3.29279 -2.54944e-15 
-10.338 -3.3479 -2.31623e-15 
-10.0063 -3.34078 -1.44842e-15 
-9.68264 -3.36091 -6.56818e-16 
-9.36999 -3.37629 -1.99045e-16 
-9.07284 -3.3217 -1.45696e-16 
-8.77718 -3.31911 3.69282e-16 
-8.47164 -3.34717 5.81718e-16 
-8.164 -3.33699 7.32764e-16 
-7.84972 -3.32976 9.60707e-16 
-7.53919 -3.33666 1.11531e-15 
-7.23009 -3.3051 1.60295e-15 
-6.92292 -3.34729 1.86936e-15 
-6.61936 -3.35177 2.4933e-15 
-6.32317 -3.36135 2.94662e-15 
-6.03427 -3.36843 3.39369e-15 
-5.74822 -3.36083 3.79545e-15 
-5.46188 -3.34301 4.13116e-15 
-5.16724 -3.34712 5.3616e-15 
-4.84939 -3.33147 6.01418e-15 
-4.49541 -3.31538 7.76303e-15 
-4.13267 -3.29021 1.00149e-14 
-3.75659 -3.20941 1.40104e-14 
-3.40377 -3.21561 1.57742e-15 
-3.06464 -3.28344 3.22233e-14 
-2.78003 -3.41459 3.47279e-14 
-2.51047 -3.38515 7.46353e-16 
-2.21981 -3.46347 9.89129e-14 
-2.01322 -3.58602 -1.00251e-13 
-1.74974 -3.63828 8.78583e-14 
-1.48471 -3.61029 1.47601e-13 
-1.41086 -3.78949 -8.34876e-14 
-1.09104 -3.84141 6.32069e-14 
-0.73081 -3.87288 -2.33933e-14 
-0.452342 -3.88568 -1.1172e-14 
-0.0938876 -3.89479 2.36472e-15 
0.367285 -3.76362 -1.75585e-14 
0.529098 -3.84079 2.55986e-14 
1.02243 -3.70835 -1.06458e-13 
1.30588 -3.72653 4.7679e-14 
1.54142 -3.79424 5.53115e-14 
1.75899 -3.65514 1.80629e-14 
1.95647 -3.52059 3.03493e-14 
2.21849 -3.48772 8.51896e-16 
2.48472 -3.41276 -4.06963e-14 
2.81936 -3.33608 -5.92635e-17 
3.13272 -3.26627 -2.86723e-14 
3.43176 -3.19335 -1.23065e-14 
3.75353 -3.23001 -1.46706e-14 
4.11465 -3.24988 -9.32552e-15 
4.47754 -3.28691 -5.59582e-15 
4.80967 -3.32344 -5.71688e-15 
5.12637 -3.35553 -5.56781e-15 
5.42897 -3.37949 -4.79392e-15 
5.72825 -3.36332 -3.85844e-15 
6.02325 -3.36572 -3.37993e-15 
6.3146 -3.31397 -2.75015e-15 
6.61423 -3.33721 -2.30972e-15 
6.91194 -3.33445 -1.9774e-15 
7.21519 -3.33022 -1.62752e-15 
7.51933 -3.3501 -1.33256e-15 
7.82644 -3.32714 -9.32612e-16 
8.12769 -3.31615 -7.40645e-16 
8.43615 -3.31273 -4.81385e-16 
8.75013 -3.32887 -4.09175e-16 
9.06611 -3.37619 -2.62429e-16 
9.38377 -3.35499 1.77021e-16 
9.70298 -3.31233 6.32543e-16 
10.0178 -3.38194 1.37246e-15 
10.317 -3.31688 2.23279e-15 
10.6321 -3.40586 2.73104e-15 
10.9604 -3.33268 2.36748e-15 
11.2798 -3.25685 1.24522e-15 
11.6208 -3.37166 3.37242e-16 
12 -3.30653 -7.66044e-16 
-12 -3.00828 7.28393e-17 
-11.6496 -3.0515 3.45981e-16 
-11.3012 -2.96311 8.82645e-16 
-10.9575 -2.97186 -3.1185e-16 
-10.6166 -2.96289 -1.10138e-15 
-10.2943 -3.0161 -1.57696e-15 
-9.97443 -3.00325 -9.68872e-16 
-9.66666 -3.00773 -5.59574e-16 
-9.36102 -3.02726 -2.86999e-16 
-9.05905 -2.97179 1.27091e-16 
-8.74517 -2.98282 1.81986e-16 
-8.43521 -3.01048 2.50776e-16 
-8.12044 -3.00279 2.01274e-16 
-7.80625 -2.99611 2.7521e-16 
-7.4989 -2.99621 4.58619e-16 
-7.19664 -2.95883 4.73296e-16 
-6.90389 -3.02064 1.11616e-15 
-6.60453 -3.01933 1.05486e-15 
-6.31346 -3.02732 1.42507e-15 
-6.0266 -3.03796 1.38009e-15 
-5.74005 -3.02297 1.74806e-15 
-5.44394 -3.00271 1.54671e-15 
-5.13163 -3.00515 2.99523e-15 
-4.78356 -2.99898 3.44773e-15 
-4.43932 -2.95909 3.55085e-15 
-4.0898 -2.94303 9.01531e-15 
-3.77436 -2.86707 9.57013e-15 
-3.46949 -2.89148 4.96523e-15 
-3.17745 -2.95378 1.60997e-14 
-2.88845 -3.02795 5.18109e-14 
-2.65949 -3.1343 -4.78706e-14 
-2.35374 -3.2081 1.73478e-14 
-2.09021 -3.27941 4.72353e-14 
-1.90595 -3.37794 -4.41834e-14 
-1.74806 -3.47857 1.1628e-13 
-1.32741 -3.47952 -8.68336e-14 
-0.984347 -3.70909 -2.52623e-13 
-0.710247 -3.71216 -6.56221e-14 
-0.352273 -3.75127 -3.65435e-15 
-0.142165 -3.72931 -2.63132e-14 
0.152207 -3.82736 -3.67322e-15 
0.837387 -3.76973 1.39599e-14 
1.19466 -3.63077 -2.72842e-13 
1.50752 -3.62831 3.69682e-15 
1.68745 -3.48397 -1.75773e-13 
1.87847 -3.33393 -1.06075e-13 
2.09556 -3.29369 -9.28975e-14 
2.32938 -3.19987 1.60016e-15 
2.61763 -3.1543 -2.32541e-14 
2.90715 -3.02231 3.6359e-15 
3.17566 -2.91596 -1.37297e-14 
3.45701 -2.84903 -9.91329e-15 
3.74418 -2.87058 -1.71775e-14 
4.07344 -2.89846 -8.30354e-15 
4.44022 -2.93102 -3.79125e-15 
4.79444 -2.97171 -2.71835e-15 
5.11915 -3.01491 -2.53635e-15 
5.42383 -3.0511 -2.13715e-15 
5.72205 -3.02879 -2.04222e-15 
6.01834 -3.03405 -1.46537e-15 
6.31388 -2.98193 -1.05919e-15 
6.61239 -3.00628 -1.23659e-15 
6.91253 -3.00219 -8.97749e-16 
7.21921 -2.99958 -6.36179e-16 
7.52755 -3.01586 -4.38695e-16 
7.83391 -2.98607 -2.80014e-16 
8.1361 -2.97975 -1.08366e-16 
8.45606 -2.98297 -3.35638e-16 
8.75239 -2.97557 -1.8387e-16 
9.04684 -3.04606 6.87228e-17 
9.34974 -3.01194 2.70649e-16 
9.65642 -2.98076 4.67919e-16 
9.99241 -3.03094 1.01241e-15 
10.3291 -2.98744 1.40612e-15 
10.6587 -3.06534 1.4908e-15 
10.9786 -2.98128 2.13137e-16 
11.3342 -2.94104 -9.9509e-16 
11.6656 -3.06314 -4.15754e-16 
12 -2.97601 -2.24938e-16 
-12 -2.69176 1.21372e-16 
-11.6422 -2.72287 5.20686e-16 
-11.3176 -2.62405 2.30134e-15 
-10.981 -2.64222 1.07846e-15 
-10.6376 -2.63912 -4.95149e-17 
-10.2912 -2.67034 -4.42684e-16 
-9.97187 -2.6536 -4.59664e-16 
-9.6488 -2.66265 -3.4925e-16 
-9.3427 -2.67246 -3.38894e-16 
-9.02016 -2.64066 -1.67083e-16 
-8.70511 -2.64813 -1.4378e-17 
-8.3971 -2.67383 3.7767e-17 
-8.08606 -2.66549 -1.88636e-16 
-7.77872 -2.65596 -2.27988e-16 
-7.47757 -2.65023 -1.51559e-16 
-7.16206 -2.62927 -2.07177e-16 
-6.86299 -2.68685 2.3843e-16 
-6.5661 -2.68579 1.16009e-16 
-6.27517 -2.69166 1.84202e-16 
-5.98248 -2.69766 9.74573e-17 
[...]
POINT_DATA 1978 
VECTORS vectors float
0.000693111 -0.000462798 1 
-0.000238152 -0.0414264 0.999142 
-0.000195101 -0.0408281 0.999166 
8.98492e-05 -0.024343 0.999704 
-9.50315e-06 -0.0119501 0.999929 
-6.87952e-05 -0.00423915 0.999991 
-2.42035e-05 -0.00305373 0.999995 
-0.000151436 -0.00496392 0.999988 
-8.20913e-05 -0.00566343 0.999984 
9.42867e-05 -0.00342357 0.999994 
-1.15044e-05 0.000745999 1 
-2.21448e-05 0.00586134 0.999983 
7.97292e-05 0.00994779 0.999951 
3.41263e-05 0.0133749 0.999911 
0.000138392 0.0163344 0.999867 
0.000145471 0.0184658 0.999829 
-2.77123e-05 0.020318 0.999794 
-2.24586e-05 0.0209719 0.99978 
5.65316e-05 0.0217132 0.999764 
0.000119739 0.0223647 0.99975 
0.000174035 0.0235569 0.999722 
0.000199939 0.0258864 0.999665 
0.000203584 0.0295696 0.999563 
0.000156093 0.034619 0.999401 
-1.98159e-05 0.0422958 0.999105 
-0.000120117 0.053106 0.998589 
-3.68151e-06 0.0671857 0.99774 
-2.1995e-05 0.0835013 0.996508 
-8.56679e-05 0.106754 0.994285 
-0.000158197 0.135523 0.990774 
-1.3472e-05 0.18012 0.983645 
0.000281295 0.221876 0.975075 
0.000269889 0.269258 0.963068 
0.000215958 0.32751 0.944848 
-9.28279e-05 0.405598 0.914052 
-5.51473e-05 0.489038 0.872263 
-0.000145444 0.557222 0.830364 
-3.98869e-05 0.683027 0.730393 
0.000103144 0.933989 0.357301 
-6.91393e-05 0.987331 -0.158674 
5.56022e-05 0.893635 -0.448794 
2.1827e-05 0.756612 -0.653864 
0.000134409 0.581938 -0.813233 
6.81753e-05 0.483961 -0.87509 
-1.50263e-06 0.348182 -0.937427 
-0.000311561 0.269897 -0.962889 
-0.000404582 0.23064 -0.973039 
-0.00033516 0.196935 -0.980416 
-6.57467e-05 0.166846 -0.985983 
7.95241e-05 0.136262 -0.990673 
5.36269e-05 0.111179 -0.9938 
8.5918e-05 0.0882202 -0.996101 
0.000137595 0.0673369 -0.99773 
9.21007e-05 0.0512203 -0.998687 
-7.58078e-05 0.0397962 -0.999208 
-0.000253385 0.0330071 -0.999455 
-0.000275369 0.0285152 -0.999593 
-0.000209703 0.0255228 -0.999674 
-0.00016426 0.0233023 -0.999728 
-0.000116474 0.0219594 -0.999759 
-0.000187827 0.021243 -0.999774 
-0.000181876 0.0206831 -0.999786 
-4.92964e-05 0.0199937 -0.9998 
-5.02855e-05 0.0186729 -0.999826 
3.01625e-06 0.0166286 -0.999862 
3.40062e-05 0.013887 -0.999904 
-3.36199e-05 0.0105317 -0.999945 
-0.000134685 0.00660612 -0.999978 
-0.000176745 0.00226398 -0.999997 
1.47045e-05 -0.0016543 -0.999999 
0.000151503 -0.00411833 -0.999992 
-2.32364e-05 -0.00397029 -0.999992 
-3.02451e-05 -0.00257365 -0.999997 
6.07646e-05 -0.00267542 -0.999996 
0.000189608 -0.00927125 -0.999957 
4.29449e-05 -0.0249637 -0.999688 
4.13143e-05 -0.0400418 -0.999198 
0.000258959 -0.0399651 -0.999201 
-0.000661195 -0.00034271 -1 
-2.48925e-05 0.000428256 1 
0.010732 -0.0303468 0.999482 
0.0176883 -0.0354023 0.999217 
0.0194234 -0.0283734 0.999409 
0.0219899 -0.0168497 0.999616 
0.0222568 -0.00816822 0.999719 
0.023124 -0.00439162 0.999723 
0.0227839 -0.00397322 0.999733 
0.0218752 -0.00402965 0.999753 
0.0223652 -0.00217948 0.999747 
0.0224964 0.000824705 0.999747 
0.0214928 0.0046416 0.999758 
0.0220126 0.00839365 0.999722 
0.0220702 0.011605 0.999689 
0.0220153 0.0144908 0.999653 
0.0228237 0.0164992 0.999603 
0.0218319 0.0183942 0.999592 
0.0223095 0.0197029 0.999557 
0.0220535 0.0209396 0.999537 
0.0210789 0.0223808 0.999527 
0.0195326 0.0245333 0.999508 
0.0170014 0.0277671 0.99947 
0.0134598 0.0326822 0.999375 
0.00915173 0.0397698 0.999167 
0.00338572 0.0502451 0.998731 
-0.00498602 0.0663754 0.997782 
-0.0185869 0.0872969 0.996009 
-0.0275286 0.106592 0.993922 
-0.0329946 0.129394 0.991044 
-0.031755 0.156483 0.98717 
-0.0581407 0.193499 0.979376 
-0.049523 0.226015 0.972864 
-0.0473128 0.269321 0.961888 
-0.047602 0.326021 0.944163 
-0.0376971 0.374555 0.926438 
-0.0488212 0.477818 0.877101 
-0.0300118 0.63831 0.769194 
-0.00705781 0.813334 0.581755 
-0.0116932 0.949031 0.314965 
-0.00402643 0.999983 0.00421643 
0.00165887 0.948068 -0.318062 
0.00896715 0.802102 -0.59712 
0.0153391 0.642263 -0.766331 
0.033527 0.524989 -0.850448 
0.0259246 0.420101 -0.907107 
0.0366745 0.298874 -0.953588 
0.060886 0.249522 -0.966453 
0.0588597 0.2118 -0.975539 
0.0503092 0.175732 -0.983152 
0.054869 0.153693 -0.986594 
0.0420164 0.127233 -0.990982 
0.0294793 0.102549 -0.994291 
0.0132 0.0792501 -0.996767 
0.0025579 0.0602978 -0.998177 
-0.00510461 0.0463931 -0.99891 
-0.0105574 0.0372289 -0.999251 
-0.0146367 0.0310033 -0.999412 
-0.0176283 0.0267444 -0.999487 
-0.0198426 0.0237523 -0.999521 
-0.0210836 0.0215996 -0.999544 
-0.0228774 0.0199952 -0.999538 
-0.0223021 0.0190256 -0.99957 
-0.0227975 0.0178392 -0.999581 
-0.0226709 0.0163104 -0.99961 
-0.0222596 0.0143575 -0.999649 
-0.0225738 0.0117644 -0.999676 
-0.0229257 0.00872545 -0.999699 
-0.0233073 0.0053139 -0.999714 
-0.0231223 0.00184302 -0.999731 
-0.022273 -0.00124832 -0.999751 
-0.0226903 -0.00279403 -0.999739 
-0.0240049 -0.00282424 -0.999708 
-0.0223413 -0.003099 -0.999746 
-0.0218177 -0.0066973 -0.99974 
-0.0195039 -0.0161326 -0.99968 
-0.0199303 -0.0284676 -0.999396 
-0.0181475 -0.0346607 -0.999234 
-0.010324 -0.0285851 -0.999538 
6.80669e-05 0.000370851 -1 
0.000804397 0.000182245 1 
0.014153 -0.0296828 0.999459 
0.021108 -0.0347951 0.999172 
0.0247258 -0.0281775 0.999297 
0.0271799 -0.0178922 0.99947 
0.0291997 -0.00914816 0.999532 
0.0302617 -0.00467302 0.999531 
0.030415 -0.00295811 0.999533 
0.0298925 -0.00207105 0.999551 
0.0291249 -0.00050586 0.999576 
0.0280227 0.00138003 0.999606 
0.0273941 0.00403531 0.999617 
0.027062 0.00714226 0.999608 
0.0267976 0.0100353 0.999591 
0.0266561 0.0125583 0.999566 
0.0269413 0.0144232 0.999533 
0.027321 0.0165668 0.999489 
0.0272682 0.0182714 0.999461 
0.0267399 0.0204595 0.999433 
0.0251553 0.0230861 0.999417 
0.0222702 0.026419 0.999403 
0.0180865 0.0310824 0.999353 
0.013295 0.036766 0.999235 
0.00588886 0.0452374 0.998959 
-0.00416291 0.057404 0.998342 
-0.0179486 0.0745347 0.997057 
-0.0431628 0.102883 0.993757 
-0.0703753 0.132116 0.988733 
-0.0820266 0.151781 0.985005 
-0.08609 0.17258 0.981226 
-0.120488 0.212474 0.96971 
-0.117576 0.248153 0.961559 
-0.114281 0.286727 0.951171 
-0.0940508 0.32781 0.940051 
-0.11201 0.401303 0.909071 
-0.0689455 0.426811 0.901709 
-0.0466012 0.560948 0.826538 
-0.0213404 0.732653 0.680268 
-0.0133229 0.875384 0.483245 
-0.00796234 0.99257 0.121413 
0.00318174 0.934024 -0.357197 
0.0085721 0.862115 -0.506641 
0.0525774 0.594352 -0.802484 
0.0661741 0.44869 -0.891234 
0.0554479 0.35829 -0.931962 
0.0907989 0.303979 -0.948342 
0.131282 0.271423 -0.953464 
0.122923 0.227801 -0.965917 
0.120315 0.199969 -0.972387 
0.115286 0.176572 -0.977513 
0.0925468 0.152678 -0.983933 
0.0754073 0.134374 -0.988057 
0.0444924 0.104191 -0.993562 
0.0235239 0.080258 -0.996497 
0.00808977 0.0615421 -0.998072 
-0.00361532 0.0476705 -0.998857 
-0.0124436 0.0379878 -0.999201 
-0.0183189 0.0314372 -0.999338 
-0.0216621 0.0266231 -0.999411 
-0.0242408 0.0227597 -0.999447 
-0.0256129 0.0201937 -0.999468 
-0.0269007 0.0180312 -0.999475 
-0.0275269 0.0163313 -0.999488 
-0.0275144 0.0145894 -0.999515 
-0.0277028 0.0130128 -0.999532 
-0.0273865 0.0106385 -0.999568 
-0.0272443 0.00789836 -0.999598 
-0.0274363 0.00498863 -0.999611 
-0.0278813 0.00223655 -0.999609 
-0.0287184 2.18536e-05 -0.999588 
-0.029771 -0.00104486 -0.999556 
-0.0306695 -0.00192524 -0.999528 
-0.0301477 -0.00369983 -0.999539 
-0.0296252 -0.00805036 -0.999529 
-0.0275429 -0.0153772 -0.999502 
-0.0252842 -0.0266064 -0.999326 
-0.0214402 -0.0343011 -0.999182 
-0.0150458 -0.0300333 -0.999436 
-0.000756156 6.54136e-05 -1 
0.000375652 -2.57216e-05 1 
0.0119984 -0.0295585 0.999491 
0.0165181 -0.0366414 0.999192 
0.0202224 -0.0297552 0.999353 
0.022855 -0.0189528 0.999559 
0.0255439 -0.00972267 0.999626 
0.0258877 -0.00444367 0.999655 
0.026209 -0.00177154 0.999655 
0.0257015 -0.000290943 0.99967 
0.0232865 0.00101415 0.999728 
0.0224644 0.00224578 0.999745 
0.0223879 0.00430477 0.99974 
0.0219698 0.00696285 0.999734 
0.0217951 0.009468 0.999718 
0.0218141 0.0115726 0.999695 
0.0209964 0.0133679 0.99969 
0.0225292 0.0155575 0.999625 
0.0214872 0.0180484 0.999606 
0.02002 0.0211447 0.999576 
0.0174542 0.0251849 0.99953 
0.0132556 0.0305892 0.999444 
0.00719438 0.0378629 0.999257 
0.000570241 0.0462728 0.998929 
-0.0101682 0.0593652 0.998185 
-0.0264005 0.0782273 0.996586 
-0.0454897 0.100116 0.993935 
-0.078562 0.134629 0.987777 
-0.110366 0.16398 0.98027 
-0.133596 0.184559 0.973699 
-0.155392 0.205623 0.966216 
-0.177974 0.229376 0.956928 
-0.186663 0.257975 0.947948 
-0.192252 0.29358 0.936403 
-0.18886 0.33039 0.924756 
-0.153389 0.356804 0.9215 
-0.174937 0.448745 0.876371 
-0.0833162 0.570991 0.816717 
-0.0458083 0.73284 0.678858 
-0.0199009 0.916254 0.400104 
-0.0156724 0.980144 0.197665 
-0.00454111 0.988779 -0.149316 
0.0284821 0.694023 -0.71939 
0.08175 0.500404 -0.861924 
0.102278 0.386216 -0.91672 
0.141419 0.340029 -0.929721 
0.200351 0.308945 -0.929738 
0.200225 0.271678 -0.941329 
0.210674 0.248195 -0.945524 
0.184095 0.221102 -0.957718 
0.179647 0.213485 -0.960287 
0.155326 0.198546 -0.967705 
0.123049 0.175066 -0.976837 
0.083212 0.139366 -0.986739 
0.0526667 0.108202 -0.992733 
0.029226 0.0811571 -0.996273 
0.0123849 0.0612748 -0.998044 
0.00036001 0.0474739 -0.998872 
-0.00818545 0.037661 -0.999257 
-0.012723 0.0310618 -0.999436 
-0.0165904 0.025379 -0.99954 
-0.0181239 0.0212752 -0.999609 
-0.0208151 0.0175873 -0.999629 
-0.0217498 0.0151111 -0.999649 
-0.022178 0.0132252 -0.999667 
-0.0226087 0.0115171 -0.999678 
-0.0218887 0.00936169 -0.999717 
-0.0215583 0.00698209 -0.999743 
-0.0221405 0.00437108 -0.999745 
-0.0223254 0.00253355 -0.999748 
-0.0249805 0.00129129 -0.999687 
-0.0252204 0.00049568 -0.999682 
-0.0250549 -0.000851947 -0.999686 
-0.0263371 -0.00386943 -0.999646 
-0.0248003 -0.00985179 -0.999644 
-0.0247736 -0.018846 -0.999515 
-0.0205544 -0.0297587 -0.999346 
-0.0159728 -0.0363106 -0.999213 
-0.011876 -0.028694 -0.999518 
-0.000237496 8.00368e-05 -1 
9.65109e-05 -0.00012352 1 
0.00825394 -0.0304993 0.999501 
0.00987026 -0.0390695 0.999188 
0.0128652 -0.0328847 0.999376 
0.0147607 -0.0213212 0.999664 
0.0165671 -0.010671 0.999806 
0.0166354 -0.00440583 0.999852 
0.0162779 -0.000775225 0.999867 
0.0158995 0.00102767 0.999873 
0.0142493 0.00188454 0.999897 
0.0136824 0.00261597 0.999903 
0.0138142 0.00430225 0.999895 
0.0134572 0.00666527 0.999887 
0.0133997 0.00895135 0.99987 
0.0134171 0.0109285 0.99985 
0.0127971 0.0130511 0.999833 
0.0137242 0.01545 0.999786 
0.0121403 0.01892 0.999747 
0.00977717 0.023488 0.999676 
0.00610472 0.0295774 0.999544 
8.15427e-05 0.0381159 0.999273 
-0.0083358 0.0497917 0.998725 
-0.0186979 0.0641688 0.997764 
-0.0368914 0.0873954 0.99549 
-0.0610161 0.116476 0.991318 
-0.0910101 0.149992 0.98449 
-0.127476 0.185753 0.974292 
-0.169887 0.221833 0.960171 
-0.191191 0.233715 0.953322 
-0.217643 0.250662 0.943292 
-0.273586 0.292019 0.916447 
-0.257969 0.283607 0.92359 
-0.254855 0.294166 0.921149 
-0.272622 0.330663 0.903515 
-0.278884 0.369858 0.886244 
-0.199268 0.402944 0.893268 
-0.104138 0.466157 0.878552 
-0.0750432 0.678328 0.730917 
-0.025407 0.808623 0.587778 
-0.00985232 0.999763 -0.0194072 
0.0133172 0.850491 -0.525821 
0.0774285 0.628193 -0.774195 
0.141317 0.423161 -0.894966 
0.211384 0.382748 -0.899345 
0.24462 0.347603 -0.90517 
0.291895 0.301732 -0.90761 
0.291149 0.283875 -0.913591 
0.263919 0.267203 -0.926795 
0.257527 0.268646 -0.928175 
0.235318 0.263651 -0.935475 
0.199563 0.244784 -0.948818 
0.166781 0.22448 -0.9601 
0.12048 0.18203 -0.975884 
0.0844828 0.145479 -0.985748 
0.0527657 0.107181 -0.992838 
0.030658 0.0786643 -0.99643 
0.0158747 0.0591909 -0.99812 
0.00521711 0.0452654 -0.998961 
-0.00101412 0.0360523 -0.999349 
-0.00607152 0.0285307 -0.999574 
-0.00912582 0.0222648 -0.99971 
-0.0119812 0.0176803 -0.999772 
-0.0133642 0.0144866 -0.999806 
-0.0137774 0.0123325 -0.999829 
-0.0142997 0.0104833 -0.999843 
-0.0131362 0.00839884 -0.999878 
-0.0136759 0.00611241 -0.999888 
-0.0130036 0.00384082 -0.999908 
-0.0132907 0.00242099 -0.999909 
-0.0155907 0.00190052 -0.999877 
-0.0154853 0.00141234 -0.999879 
-0.0154627 -0.000266875 -0.99988 
-0.017839 -0.00388678 -0.999833 
-0.0158716 -0.0103197 -0.999821 
-0.0168243 -0.0204373 -0.99965 
-0.0134851 -0.0325774 -0.999378 
-0.00988356 -0.0384521 -0.999212 
-0.00804566 -0.0294565 -0.999534 
-0.000280551 -2.70858e-05 -1 
-1.48244e-05 -0.00012466 1 
0.00410557 -0.0269441 0.999629 
0.00493803 -0.0391338 0.999222 
0.00636864 -0.0368343 0.999301 
0.00752924 -0.0256847 0.999642 
0.00844427 -0.0137073 0.99987 
0.00815892 -0.00571496 0.99995 
0.00824347 -0.00109122 0.999965 
0.00744186 0.00123252 0.999972 
0.00700408 0.00176522 0.999974 
0.00676353 0.00193155 0.999975 
0.00698481 0.00318398 0.999971 
0.00723887 0.00534506 0.99996 
0.0074687 0.00777183 0.999942 
0.00755875 0.00998141 0.999922 
0.00772239 0.0122139 0.999896 
0.00739069 0.0153174 0.999855 
0.00618803 0.0191609 0.999797 
0.00338081 0.025059 0.99968 
-0.000738503 0.0326694 0.999466 
-0.00687492 0.0427854 0.999061 
-0.0159636 0.0571406 0.998239 
-0.0281244 0.0755028 0.996749 
-0.0480159 0.104226 0.993394 
-0.0732282 0.137984 0.987724 
-0.106614 0.179442 0.977974 
-0.14443 0.219584 0.964843 
-0.182305 0.250482 0.950802 
-0.231198 0.290504 0.928523 
-0.269963 0.311423 0.911118 
-0.296009 0.320334 0.899869 
-0.346668 0.349323 0.870514 
-0.335439 0.336873 0.879771 
-0.329274 0.340863 0.880563 
-0.355133 0.387213 0.850851 
-0.257638 0.394055 0.882237 
-0.235579 0.453868 0.859364 
-0.119906 0.607072 0.785548 
-0.0206211 0.969534 0.244089 
-0.00369711 0.973476 -0.228757 
0.00344472 0.917121 -0.398593 
0.0459555 0.742892 -0.667832 
0.213721 0.439529 -0.872432 
0.334822 0.371067 -0.866143 
0.326491 0.329485 -0.885914 
0.375022 0.326986 -0.867433 
0.382692 0.334435 -0.86122 
0.337717 0.318723 -0.885643 
0.316886 0.322453 -0.891968 
0.285206 0.320733 -0.90321 
0.255242 0.314465 -0.91431 
0.199577 0.274476 -0.940655 
0.156497 0.236205 -0.959018 
0.117507 0.194866 -0.973765 
0.0804248 0.148315 -0.985664 
0.0519411 0.108301 -0.99276 
0.0322652 0.0799469 -0.996277 
0.0182551 0.0590076 -0.998091 
0.00909483 0.0449465 -0.998948 
0.00226061 0.0339606 -0.999421 
-0.00235703 0.025739 -0.999666 
-0.00554343 0.019309 -0.999798 
-0.00737176 0.0150911 -0.999859 
-0.00797423 0.0122714 -0.999893 
-0.00824641 0.0100141 -0.999916 
-0.007449 0.00785247 -0.999941 
-0.00745257 0.00559813 -0.999957 
-0.00668193 0.0032591 -0.999972 
-0.00643656 0.00187121 -0.999978 
-0.00736041 0.00187239 -0.999971 
-0.00714497 0.00181426 -0.999973 
-0.00703598 0.000339581 -0.999975 
-0.00918855 -0.0036514 -0.999951 
-0.00830118 -0.01109 -0.999904 
-0.009367 -0.0223409 -0.999707 
-0.00725488 -0.0345725 -0.999376 
-0.00513355 -0.0397622 -0.999196 
-0.00460314 -0.0305521 -0.999523 
-0.000112449 1.52111e-05 -1 
-2.18555e-05 -0.000102821 1 
0.00194768 -0.0309892 0.999518 
0.00288243 -0.0404202 0.999179 
0.00319931 -0.0337479 0.999425 
0.00334642 -0.0215054 0.999763 
0.00304966 -0.0107226 0.999938 
0.00257084 -0.00330882 0.999991 
0.00257008 0.000282905 0.999997 
0.0022108 0.00134644 0.999997 
0.00245505 0.0010299 0.999996 
0.00297498 0.00119511 0.999995 
0.00362495 0.00279258 0.99999 
0.00444504 0.005405 0.999976 
0.00512527 0.00810819 0.999954 
0.0056247 0.0108187 0.999926 
0.0057488 0.0137541 0.999889 
0.00483978 0.0176536 0.999832 
0.00293417 0.0227735 0.999736 
-0.000521728 0.0304881 0.999535 
-0.00566789 0.0405813 0.99916 
-0.0132861 0.0544308 0.998429 
-0.0249321 0.0747706 0.996889 
-0.0409257 0.101295 0.994014 
-0.0667247 0.144391 0.987268 
-0.099791 0.191932 0.976322 
-0.140827 0.245489 0.959116 
-0.184553 0.289266 0.93929 
-0.226347 0.318909 0.920361 
-0.275569 0.359154 0.891667 
-0.313612 0.374105 0.87275 
-0.370809 0.40596 0.835283 
-0.372297 0.385405 0.844309 
-0.401165 0.388473 0.829551 
-0.400353 0.38219 0.832856 
-0.379551 0.377599 0.844606 
-0.384305 0.434528 0.814552 
-0.306235 0.456616 0.835298 
-0.133234 0.496933 0.8575 
-0.0240897 0.859719 0.5102 
-0.0103747 0.995525 -0.0939259 
0.0301204 0.753245 -0.657051 
0.123983 0.484129 -0.866168 
0.309758 0.424035 -0.851026 
0.434319 0.360258 -0.825579 
0.433142 0.352324 -0.829612 
0.461219 0.37934 -0.802109 
0.405719 0.373642 -0.834136 
0.368187 0.376465 -0.850125 
0.346027 0.3908 -0.85296 
0.306879 0.384616 -0.870572 
0.251637 0.345956 -0.903877 
0.20422 0.312463 -0.927718 
0.165581 0.277056 -0.946479 
0.124585 0.226827 -0.965934 
0.0893507 0.177276 -0.980097 
0.0596228 0.130006 -0.989719 
0.037939 0.0949313 -0.994761 
0.0231256 0.0697974 -0.997293 
0.0123 0.0509614 -0.998625 
0.00508581 0.0382875 -0.999254 
-0.000216715 0.0279861 -0.999608 
-0.00350632 0.0208679 -0.999776 
-0.00538737 0.015787 -0.999861 
-0.00602831 0.0123576 -0.999905 
-0.00598224 0.00973622 -0.999935 
-0.00526771 0.00708191 -0.999961 
-0.00457038 0.0044978 -0.999979 
-0.0035274 0.00196862 -0.999992 
-0.00292951 0.000759917 -0.999995 
-0.00269897 0.00110936 -0.999996 
-0.00224732 0.001524 -0.999996 
-0.00212097 0.000231619 -0.999998 
-0.00345427 -0.00403929 -0.999986 
-0.00312159 -0.0119012 -0.999924 
-0.00423578 -0.023361 -0.999718 
-0.00337239 -0.035077 -0.999379 
-0.00276032 -0.040038 -0.999194 
-0.00215129 -0.0298528 -0.999552 
5.59022e-05 7.64322e-05 -1 
-6.48256e-05 0.000154927 1 
0.00107549 -0.0311364 0.999515 
0.00173923 -0.0405026 0.999178 
0.00144949 -0.0349861 0.999387 
0.000816576 -0.0227106 0.999742 
0.000208468 -0.0112127 0.999937 
-0.000115156 -0.00367009 0.999993 
-5.09165e-05 0.000121442 1 
0.000246833 0.000782493 1 
0.000940336 -0.000179492 1 
0.00184523 -0.000305405 0.999998 
0.0029792 0.00129534 0.999995 
0.00413986 0.0042677 0.999982 
0.00522141 0.00741653 0.999959 
0.0060564 0.0106607 0.999925 
0.00632248 0.0142706 0.999878 
0.00571405 0.018882 0.999805 
0.00365698 0.0253087 0.999673 
0.000207641 0.0339999 0.999422 
-0.00503897 0.0455999 0.998947 
-0.012703 0.0609802 0.998058 
-0.023816 0.0826374 0.996295 
-0.0404705 0.115571 0.992474 
-0.0632358 0.159686 0.98514 
-0.100068 0.222615 0.969757 
-0.145041 0.292423 0.945226 
-0.185984 0.334011 0.924038 
-0.231888 0.367584 0.900616 
-0.283778 0.416592 0.863667 
-0.332182 0.440424 0.834076 
-0.378027 0.451627 0.808164 
-0.457323 0.46989 0.755022 
-0.435511 0.433005 0.7892 
-0.45309 0.423601 0.784393 
-0.464564 0.42224 0.778392 
-0.444352 0.416283 0.793259 
-0.375198 0.462552 0.803288 
-0.180864 0.498672 0.847711 
-0.0254526 0.803237 0.595116 
-0.0170995 0.997543 0.0679367 
0.00825901 0.834372 -0.55114 
0.152128 0.491962 -0.857223 
0.422405 0.401575 -0.812596 
0.529766 0.394878 -0.750612 
0.519089 0.408006 -0.751051 
0.470517 0.413468 -0.779524 
0.433583 0.428366 -0.792785 
0.420039 0.456039 -0.784599 
0.373531 0.444345 -0.814268 
0.322691 0.438384 -0.838862 
0.268113 0.397973 -0.877345 
0.238364 0.393069 -0.888076 
0.189052 0.348009 -0.918232 
0.147651 0.297208 -0.943327 
0.108264 0.237266 -0.965393 
0.0745656 0.177845 -0.981229 
0.0481187 0.127562 -0.990663 
0.028042 0.0894003 -0.995601 
0.0151538 0.0632954 -0.99788 
0.00612297 0.0461756 -0.998915 
0.000291385 0.0335948 -0.999435 
-0.0036126 0.0247809 -0.999686 
-0.00584273 0.0182385 -0.999817 
-0.00667033 0.013762 -0.999883 
-0.00650027 0.0103606 -0.999925 
-0.00576819 0.00723494 -0.999957 
-0.00456145 0.00377744 -0.999982 
-0.00340768 0.000737834 -0.999994 
-0.00215252 -0.000740863 -0.999997 
-0.00113749 -9.58715e-05 -0.999999 
-0.000416711 0.000866039 -1 
1.25733e-05 0.000227441 -1 
-0.000296342 -0.00366061 -0.999993 
-0.00029259 -0.0112508 -0.999937 
-0.00123308 -0.0229179 -0.999737 
-0.00148137 -0.0342173 -0.999413 
-0.00173063 -0.040205 -0.99919 
-0.00124292 -0.0318739 -0.999491 
2.21875e-05 9.05037e-05 -1 
0.000108768 0.000212897 1 
0.000975944 -0.0302825 0.999541 
0.00135685 -0.039961 0.9992 
0.000812015 -0.0331159 0.999451 
5.97593e-05 -0.0206584 0.999787 
-0.000332099 -0.00913347 0.999958 
-0.00039195 -0.00220787 0.999997 
3.27182e-05 0.00034859 1 
0.000758438 -2.8798e-05 1 
0.00187405 -0.00160803 0.999997 
0.00306189 -0.00177742 0.999994 
0.00445144 0.000206442 0.99999 
0.00579501 0.00350552 0.999977 