# vtk DataFile Version 3.0 
Exported using Morpho https://github.com/Morpho-lang/morpho 
ASCII 
DATASET UNSTRUCTURED_GRID 

POINTS 1978 float 
-12 -4 -1.3776e-09 
-11.6614 -4 8.91728e-10 
-11.3172 -4 2.36122e-09 
-10.9848 -4 9.39919e-10 
-10.6752 -4 8.25341e-10 
-10.3177 -4 1.06282e-09 
-9.99627 -4 5.42256e-10 
-9.6814 -4 1.43072e-10 
-9.3512 -4 3.28663e-11 
-9.01984 -4 -8.34884e-11 
-8.68284 -4 -1.83443e-10 
-8.3419 -4 -1.39668e-10 
-8.02366 -4 -1.41135e-10 
-7.73895 -4 -1.98976e-10 
-7.48118 -4 -2.93968e-10 
-7.19225 -4 -4.4208e-10 
-6.8919 -4 -5.24136e-10 
-6.59458 -4 -4.37851e-10 
-6.29414 -4 -5.40784e-10 
-5.9806 -4 -6.17943e-10 
-5.6693 -4 -6.59112e-10 
-5.36196 -4 -6.68646e-10 
-5.06226 -4 -7.30767e-10 
-4.77072 -4 -1.02256e-09 
-4.44581 -4 -8.73815e-10 
-4.13853 -4 -9.21662e-10 
-3.80962 -4 -1.46838e-09 
-3.49374 -4 -1.30844e-09 
-3.19426 -4 -1.24356e-09 
-2.89511 -4 -8.34848e-10 
-2.61825 -4 -9.5184e-10 
-2.34978 -4 -2.9778e-10 
-2.08386 -4 -2.14935e-10 
-1.79349 -4 1.6182e-10 
-1.50564 -4 3.86646e-10 
-1.21599 -4 -1.5477e-09 
-0.928747 -4 -6.24417e-09 
-0.620696 -4 2.32279e-09 
-0.28444 -4 -7.3907e-09 
0.0577633 -4 -5.68985e-09 
0.33015 -4 9.38276e-09 
0.615945 -4 3.98136e-09 
0.887863 -4 3.6004e-09 
1.16221 -4 -9.08735e-10 
1.42835 -4 -1.34344e-09 
1.71684 -4 -1.19663e-09 
1.99859 -4 4.34318e-10 
2.28821 -4 7.78612e-10 
2.62165 -4 1.26444e-09 
2.91946 -4 1.50732e-09 
3.2611 -4 1.3606e-09 
3.54451 -4 1.03358e-09 
3.84511 -4 1.08013e-09 
4.16404 -4 1.06454e-09 
4.464 -4 8.81201e-10 
4.75922 -4 8.00092e-10 
5.07547 -4 7.81714e-10 
5.3873 -4 7.45549e-10 
5.69954 -4 6.7164e-10 
5.99784 -4 5.68436e-10 
6.2976 -4 4.96972e-10 
6.58698 -4 5.52509e-10 
6.8919 -4 4.82509e-10 
7.17046 -4 3.20469e-10 
7.47761 -4 3.00558e-10 
7.76845 -4 3.20442e-10 
8.06536 -4 3.02688e-10 
8.35145 -4 2.49378e-10 
8.63567 -4 3.07433e-11 
8.91663 -4 -1.26411e-10 
9.28085 -4 3.88984e-11 
9.61729 -4 -7.45504e-11 
9.9058 -4 -6.08897e-10 
10.2809 -4 -9.66048e-10 
10.604 -4 -1.14611e-09 
11.0146 -4 -7.53389e-10 
11.3252 -4 -2.72734e-09 
11.6499 -4 -5.90582e-10 
12 -4 1.23186e-09 
-12 -3.683 1.22076e-09 
-11.6635 -3.68399 -3.79334e-10 
-11.3468 -3.64757 -3.72796e-10 
-11.0282 -3.66373 -3.9428e-10 
-10.7026 -3.64102 -3.018e-10 
-10.3895 -3.68596 -3.18792e-10 
-10.0533 -3.65623 -2.11166e-10 
-9.73444 -3.65202 -1.47171e-10 
-9.41192 -3.66631 -9.97562e-11 
-9.08225 -3.66587 -5.08117e-11 
-8.75187 -3.67176 -1.34435e-11 
-8.41605 -3.6829 1.69582e-11 
-8.08748 -3.67024 3.82095e-11 
-7.77368 -3.64208 5.077e-11 
-7.48663 -3.61515 5.679e-11 
-7.21117 -3.65916 8.97483e-11 
-6.90164 -3.66623 1.05518e-10 
-6.5964 -3.66006 1.14766e-10 
-6.27916 -3.66808 1.35644e-10 
-5.96387 -3.66326 1.51706e-10 
-5.65359 -3.65885 1.68834e-10 
-5.35107 -3.65223 1.83691e-10 
-5.05738 -3.64709 2.07157e-10 
-4.73372 -3.68702 2.9627e-10 
-4.43834 -3.65671 2.91938e-10 
-4.14435 -3.67147 3.76362e-10 
-3.83376 -3.69181 5.25806e-10 
-3.51501 -3.68159 6.40125e-10 
-3.20411 -3.67319 7.65763e-10 
-2.8975 -3.65944 9.18675e-10 
-2.61628 -3.64891 9.88219e-10 
-2.33933 -3.64245 1.10439e-09 
-2.03655 -3.679 1.52793e-09 
-1.74136 -3.67042 1.49591e-09 
-1.44545 -3.66136 1.18633e-09 
-1.14494 -3.64506 7.37856e-10 
-0.834128 -3.64699 6.04553e-10 
-0.54596 -3.5843 -3.00433e-09 
-0.274606 -3.6612 -5.44281e-10 
0.00953648 -3.59517 2.98442e-09 
0.304914 -3.55906 4.06204e-10 
0.590892 -3.60898 6.04919e-10 
0.880886 -3.59718 2.33316e-11 
1.16673 -3.64024 -5.61857e-10 
1.46671 -3.65809 -1.25434e-09 
1.76237 -3.65512 -1.42207e-09 
2.06661 -3.66741 -1.38462e-09 
2.39727 -3.7194 -1.61349e-09 
2.71328 -3.67849 -1.05006e-09 
3.03857 -3.71547 -1.0536e-09 
3.34028 -3.65155 -6.14329e-10 
3.63518 -3.66654 -5.41135e-10 
3.94447 -3.68293 -4.75352e-10 
4.24604 -3.65978 -3.4699e-10 
4.53933 -3.65124 -2.76553e-10 
4.84535 -3.67168 -2.57892e-10 
5.15473 -3.66564 -2.13219e-10 
5.46521 -3.66519 -1.87314e-10 
5.76534 -3.65091 -1.54701e-10 
6.06646 -3.65445 -1.42291e-10 
6.35889 -3.64242 -1.18008e-10 
6.66273 -3.66361 -1.19687e-10 
6.95021 -3.63272 -8.57868e-11 
7.25295 -3.66779 -8.99022e-11 
7.55157 -3.65184 -6.79734e-11 
7.84801 -3.66188 -5.78848e-11 
8.1402 -3.64512 -3.48798e-11 
8.43329 -3.6405 -1.0252e-11 
8.72035 -3.626 1.90361e-11 
9.04644 -3.70729 6.36049e-11 
9.38727 -3.67702 1.04627e-10 
9.68952 -3.62104 1.21711e-10 
10.0247 -3.70665 2.5907e-10 
10.3559 -3.65389 2.63437e-10 
10.7243 -3.72895 4.86064e-10 
11.033 -3.63663 2.93202e-10 
11.3449 -3.64121 3.96084e-10 
11.6831 -3.68236 3.657e-10 
12 -3.65932 -1.15946e-09 
-12 -3.36343 3.79169e-10 
-11.6614 -3.35056 -7.43084e-11 
-11.3171 -3.30708 -7.64868e-11 
-10.9896 -3.32408 -9.12984e-11 
-10.6625 -3.29961 -1.2894e-10 
-10.3437 -3.34839 -9.79397e-11 
-10.0213 -3.3127 -7.16907e-11 
-9.70915 -3.30501 -5.91073e-11 
-9.39752 -3.33168 -5.10859e-11 
-9.07513 -3.33188 -3.62226e-11 
-8.77568 -3.31201 -1.9622e-11 
-8.47168 -3.35686 -4.26173e-12 
-8.15329 -3.34126 7.02295e-12 
-7.8469 -3.31533 1.61877e-11 
-7.54517 -3.26274 2.35988e-11 
-7.24904 -3.29002 3.18619e-11 
-6.9629 -3.34243 3.58839e-11 
-6.65554 -3.32488 3.83048e-11 
-6.34324 -3.33681 4.80317e-11 
-6.03122 -3.32998 5.66779e-11 
-5.72104 -3.32271 6.54723e-11 
-5.41458 -3.30963 7.58585e-11 
-5.11616 -3.2969 8.80057e-11 
-4.81551 -3.36244 1.12087e-10 
-4.51403 -3.32293 1.38048e-10 
-4.21437 -3.3275 1.72257e-10 
-3.91205 -3.36786 2.11577e-10 
-3.60348 -3.36821 2.81348e-10 
-3.28901 -3.35673 3.52803e-10 
-2.97617 -3.34679 4.44613e-10 
-2.66204 -3.30401 5.00254e-10 
-2.36978 -3.29235 5.64757e-10 
-2.0698 -3.35587 6.29185e-10 
-1.7589 -3.33472 4.44513e-10 
-1.44521 -3.32453 3.05643e-10 
-1.12389 -3.30178 9.20007e-11 
-0.834301 -3.25194 -2.56834e-10 
-0.555288 -3.16193 1.41212e-10 
-0.263435 -3.24192 -1.14465e-09 
0.0406155 -3.18903 6.38323e-10 
0.273776 -3.0485 -3.84857e-10 
0.537086 -3.2072 5.73683e-10 
0.834602 -3.18687 1.45077e-10 
1.13489 -3.26551 1.71799e-11 
1.43791 -3.32214 -4.13746e-10 
1.74627 -3.31105 -4.95204e-10 
2.04594 -3.33473 -6.13492e-10 
2.35639 -3.41808 -5.94985e-10 
2.66594 -3.36468 -4.92619e-10 
2.98401 -3.40348 -4.33783e-10 
3.28549 -3.33183 -3.32791e-10 
3.59514 -3.32627 -2.71671e-10 
3.89115 -3.35413 -2.20218e-10 
4.18911 -3.33 -1.71872e-10 
4.48903 -3.30785 -1.34956e-10 
4.78664 -3.33378 -1.1239e-10 
5.08762 -3.33455 -9.17015e-11 
5.39702 -3.33363 -7.767e-11 
5.70436 -3.31028 -6.49587e-11 
6.00815 -3.31355 -5.78598e-11 
6.30939 -3.29396 -4.7202e-11 
6.61182 -3.32451 -4.47154e-11 
6.91142 -3.28393 -3.58911e-11 
7.21438 -3.32886 -3.09362e-11 
7.51967 -3.31393 -2.1684e-11 
7.82427 -3.31713 -1.71183e-11 
8.12908 -3.30186 -9.81507e-12 
8.42432 -3.28528 1.12042e-12 
8.74751 -3.30351 2.00182e-11 
9.07128 -3.38926 3.33114e-11 
9.38297 -3.32702 4.65849e-11 
9.70411 -3.2808 5.894e-11 
10.0176 -3.37896 8.21307e-11 
10.312 -3.29467 1.02262e-10 
10.6338 -3.40732 1.25068e-10 
10.9673 -3.32215 1.00091e-10 
11.3193 -3.28854 7.80398e-11 
11.6594 -3.34631 7.19235e-11 
12 -3.30962 -8.20043e-10 
-12 -3.0398 1.75773e-09 
-11.6393 -3.03415 -7.56415e-12 
-11.2887 -2.97176 -1.93093e-11 
-10.9532 -2.98565 -1.82357e-11 
-10.6136 -2.96676 -6.07618e-11 
-10.2883 -3.01105 -6.44803e-11 
-9.96269 -2.97161 -3.49582e-11 
-9.63546 -2.96993 -3.08865e-11 
-9.32238 -2.99651 -3.19847e-11 
-9.01687 -2.97513 -2.45591e-11 
-8.71773 -2.95222 -1.60183e-11 
-8.43673 -3.01924 -6.89319e-12 
-8.13804 -2.99408 1.71784e-12 
-7.83813 -2.97369 5.19728e-12 
-7.52906 -2.93251 5.06279e-12 
-7.22416 -2.95539 9.29217e-12 
-6.92571 -3.00645 1.75194e-11 
-6.6138 -3.00047 2.04563e-11 
-6.30874 -3.0035 2.42751e-11 
-6.00203 -2.99678 2.85338e-11 
-5.69728 -2.98718 3.1543e-11 
-5.39843 -2.96846 3.56531e-11 
-5.097 -2.9647 4.42911e-11 
-4.80006 -3.02992 6.70234e-11 
-4.50054 -2.99206 7.64614e-11 
-4.20553 -2.99387 9.35486e-11 
-3.91069 -3.0442 1.41799e-10 
-3.59867 -3.04913 1.6782e-10 
-3.29156 -3.03527 2.11836e-10 
-2.96912 -3.02984 2.61344e-10 
-2.67725 -2.95605 2.38419e-10 
-2.35822 -2.95858 3.17742e-10 
-2.04672 -3.02242 3.01894e-10 
-1.72569 -3.00136 2.10087e-10 
-1.39872 -2.98444 1.50327e-12 
-1.10647 -2.90485 -2.52992e-10 
-0.823078 -2.82234 -4.46975e-10 
-0.510879 -2.74094 -2.43903e-09 
-0.242042 -2.8455 2.40291e-09 
-0.0224617 -2.69594 -2.42385e-09 
0.283947 -2.63551 -2.10939e-10 
0.579993 -2.79552 2.10269e-09 
0.829237 -2.71317 -7.38261e-10 
1.10389 -2.88509 2.42462e-10 
1.41879 -2.97366 -1.56419e-10 
1.73584 -2.96482 -2.24308e-10 
2.04946 -2.98299 -3.67802e-10 
2.35144 -3.09474 -4.45113e-10 
2.65976 -3.03046 -3.43502e-10 
2.96128 -3.08198 -3.03227e-10 
3.26303 -3.00306 -2.06241e-10 
3.57124 -3.00562 -1.59333e-10 
3.88438 -3.0183 -1.27865e-10 
4.18397 -2.99858 -9.89227e-11 
4.48572 -2.97969 -7.37422e-11 
4.78672 -2.99809 -6.10273e-11 
5.08397 -2.99878 -4.9702e-11 
5.38273 -3.00415 -4.08732e-11 
5.6846 -2.97753 -3.14071e-11 
5.98963 -2.97686 -2.48578e-11 
6.29539 -2.96037 -2.04073e-11 
6.59922 -2.98588 -1.77034e-11 
6.91656 -2.96292 -1.45636e-11 
7.23002 -2.99434 -1.27745e-11 
7.52877 -2.9764 -8.25766e-12 
7.83376 -2.98481 -2.64682e-12 
8.12894 -2.95684 1.48695e-12 
8.43309 -2.94857 7.42772e-12 
8.7354 -2.97565 1.4025e-11 
9.05556 -3.05479 2.78188e-11 
9.37577 -2.99714 3.34904e-11 
9.66485 -2.92437 2.80841e-11 
9.97852 -3.02278 4.04258e-11 
10.3043 -2.96233 5.394e-11 
10.636 -3.07017 8.52677e-11 
10.9822 -2.99947 2.40758e-11 
11.312 -2.94894 3.84785e-12 
11.6486 -3.01856 -2.97014e-12 
12 -2.98821 -1.55467e-09 
-12 -2.72856 1.25809e-09 
-11.6442 -2.71684 1.91121e-11 
-11.3176 -2.63173 3.44901e-11 
-10.9807 -2.65017 5.15564e-11 
-10.6513 -2.6431 1.80626e-12 
-10.3114 -2.67838 -1.1713e-11 
-9.9791 -2.65108 4.27322e-12 
-9.64806 -2.64279 -1.26298e-12 
-9.32442 -2.65359 -1.1772e-11 
-9.01821 -2.63022 -1.25454e-11 
-8.69648 -2.63077 -1.02927e-11 
-8.3763 -2.66604 -6.94902e-12 
-8.07405 -2.64936 -4.02534e-12 
-7.76721 -2.64073 -2.76225e-12 
-7.44347 -2.61405 -3.33864e-12 
-7.13309 -2.64111 -1.05643e-12 
-6.83634 -2.68527 3.0143e-12 
-6.52745 -2.67179 1.67903e-12 
-6.22453 -2.67274 2.98921e-12 
-5.92066 -2.66444 5.34431e-12 
[...]
POINT_DATA 1978 
VECTORS vectors float
0.00149717 -0.00390358 0.999991 
0.00187692 -0.0496977 0.998762 
0.00165471 -0.0524246 0.998624 
0.00192847 -0.0449903 0.998986 
0.00190486 -0.0369081 0.999317 
0.00183887 -0.0277167 0.999614 
0.00183406 -0.0192906 0.999812 
0.00185555 -0.0122345 0.999923 
0.00188369 -0.00674551 0.999976 
0.00194336 -0.00256029 0.999995 
0.00191173 0.000776457 0.999998 
0.00177696 0.00332497 0.999993 
0.00170741 0.00530043 0.999984 
0.00173479 0.00675389 0.999976 
0.00170345 0.00794223 0.999967 
0.00162291 0.00935256 0.999955 
0.00158961 0.0108633 0.99994 
0.0016413 0.0122023 0.999924 
0.00167816 0.0137419 0.999904 
0.00166734 0.0153695 0.99988 
0.00166412 0.0170926 0.999852 
0.00169278 0.0191272 0.999816 
0.00168773 0.0217238 0.999763 
0.00167339 0.0248989 0.999689 
0.00170396 0.029412 0.999566 
0.00174047 0.0360121 0.99935 
0.0016627 0.0461579 0.998933 
0.00157996 0.0592738 0.998241 
0.00151422 0.0779155 0.996959 
0.00145509 0.102932 0.994687 
0.00141707 0.135114 0.990829 
0.001333 0.176231 0.984348 
0.00117332 0.229256 0.973365 
0.000987392 0.305862 0.952075 
0.000819111 0.403367 0.915038 
0.000617694 0.525674 0.850686 
0.000387676 0.666081 0.74588 
0.000163542 0.822255 0.56912 
4.83868e-05 0.958218 0.28604 
1.59537e-05 0.998275 -0.0587181 
7.99259e-06 0.94413 -0.329574 
-0.000135999 0.827552 -0.561388 
-0.000334854 0.68979 -0.72401 
-0.000560623 0.554841 -0.831956 
-0.000768974 0.434624 -0.900612 
-0.00100256 0.330032 -0.943969 
-0.00116923 0.250221 -0.968188 
-0.00133197 0.187045 -0.98235 
-0.00143815 0.134939 -0.990853 
-0.00152285 0.100773 -0.994908 
-0.0015929 0.0733444 -0.997305 
-0.00163986 0.0569482 -0.998376 
-0.00159715 0.0447101 -0.998999 
-0.00161246 0.0356855 -0.999362 
-0.00167976 0.0295041 -0.999563 
-0.00168669 0.025053 -0.999685 
-0.00166433 0.0215869 -0.999766 
-0.00167344 0.0189818 -0.999818 
-0.00167232 0.0168743 -0.999856 
-0.00166591 0.0151704 -0.999883 
-0.00163553 0.013733 -0.999904 
-0.00162873 0.0125519 -0.99992 
-0.00162906 0.0111905 -0.999936 
-0.00162971 0.00973742 -0.999951 
-0.00159799 0.00818444 -0.999965 
-0.0016022 0.0066967 -0.999976 
-0.00160296 0.00516303 -0.999985 
-0.00169185 0.0034126 -0.999993 
-0.00175524 0.00110029 -0.999998 
-0.00176084 -0.00171725 -0.999997 
-0.00183261 -0.00603867 -0.99998 
-0.00191457 -0.011815 -0.999928 
-0.00200981 -0.0181397 -0.999834 
-0.00211901 -0.0274734 -0.999621 
-0.00232348 -0.035559 -0.999365 
-0.00225332 -0.0458 -0.998948 
-0.0017819 -0.053349 -0.998574 
-0.00181242 -0.0493856 -0.998778 
-0.00148123 -0.00363626 -0.999992 
0.00209229 -0.00087838 0.999997 
0.021615 -0.0420656 0.998881 
0.0251287 -0.0471841 0.99857 
0.0258719 -0.0436875 0.99871 
0.0270519 -0.0359805 0.998986 
0.0266999 -0.0285615 0.999235 
0.0277206 -0.0204465 0.999407 
0.0282639 -0.013784 0.999505 
0.0286264 -0.00834434 0.999555 
0.0290513 -0.00391684 0.99957 
0.0291378 -0.000445673 0.999575 
0.0294773 0.00233384 0.999563 
0.0302932 0.00447437 0.999531 
0.0314968 0.00608181 0.999485 
0.0325559 0.00732005 0.999443 
0.0312361 0.00855592 0.999475 
0.0309895 0.00996521 0.99947 
0.0311421 0.0114297 0.99945 
0.0309615 0.0130623 0.999435 
0.0311655 0.0146282 0.999407 
0.0312908 0.0163567 0.999377 
0.0313808 0.0183823 0.999338 
0.0314646 0.0209083 0.999286 
0.0301612 0.0247318 0.999239 
0.0309774 0.029359 0.999089 
0.0297376 0.0355772 0.998924 
0.0283706 0.0448282 0.998592 
0.0276218 0.0583004 0.997917 
0.0262065 0.0770678 0.996681 
0.0248319 0.103133 0.994358 
0.0228046 0.136559 0.990369 
0.0205628 0.180464 0.983367 
0.0174305 0.243575 0.969725 
0.0144133 0.32637 0.945132 
0.0109646 0.430428 0.902558 
0.00772239 0.560922 0.827832 
0.00489796 0.714591 0.699525 
0.0032224 0.858177 0.513343 
0.0025594 0.960045 0.279836 
0.00180949 0.999998 -0.000794954 
0.0010497 0.956042 -0.293228 
-0.000665889 0.84364 -0.536909 
-0.00348567 0.701308 -0.71285 
-0.00684669 0.553066 -0.833109 
-0.0107226 0.41778 -0.908485 
-0.0144497 0.314227 -0.949238 
-0.0177004 0.23399 -0.972078 
-0.0202434 0.16864 -0.98547 
-0.0233152 0.124005 -0.992008 
-0.0246797 0.090716 -0.995571 
-0.0273758 0.0681635 -0.997299 
-0.0282479 0.0527788 -0.998207 
-0.0289109 0.0412869 -0.998729 
-0.0302098 0.033195 -0.998992 
-0.0308301 0.0275099 -0.999146 
-0.0305519 0.0232821 -0.999262 
-0.0309899 0.0200579 -0.999318 
-0.0311422 0.0175567 -0.999361 
-0.0316461 0.0155781 -0.999378 
-0.0316182 0.0139976 -0.999402 
-0.0319953 0.0126311 -0.999408 
-0.0314335 0.0114038 -0.999441 
-0.0323085 0.0100803 -0.999427 
-0.0312082 0.00875348 -0.999475 
-0.0317733 0.00725325 -0.999469 
-0.031474 0.0057208 -0.999488 
-0.0316716 0.00404481 -0.99949 
-0.0312959 0.00215269 -0.999508 
-0.0311275 -0.000190941 -0.999515 
-0.0284238 -0.00347914 -0.99959 
-0.0284664 -0.00828821 -0.99956 
-0.0290856 -0.013703 -0.999483 
-0.0265995 -0.020695 -0.999432 
-0.0272103 -0.0279949 -0.999238 
-0.0253654 -0.0374292 -0.998977 
-0.0262125 -0.0438052 -0.998696 
-0.0249217 -0.0469623 -0.998586 
-0.0210422 -0.0413434 -0.998923 
-0.00153517 -0.00133923 -0.999998 
0.00145684 -0.00258426 0.999996 
0.0226513 -0.0384266 0.999005 
0.0278701 -0.0446321 0.998615 
0.0300007 -0.0416565 0.998682 
0.0311649 -0.0339212 0.998939 
0.0317514 -0.0267734 0.999137 
0.0326914 -0.0200131 0.999265 
0.0337735 -0.0140723 0.99933 
0.0344089 -0.00869139 0.99937 
0.035306 -0.00431465 0.999367 
0.0361337 -0.00118394 0.999346 
0.0365297 0.00140036 0.999332 
0.0371177 0.00348841 0.999305 
0.0378458 0.00514029 0.99927 
0.038394 0.00647193 0.999242 
0.0386389 0.00784019 0.999223 
0.0383088 0.00919878 0.999224 
0.0383254 0.0105684 0.999209 
0.0382247 0.0120018 0.999197 
0.0382477 0.0134585 0.999178 
0.0382739 0.0151217 0.999153 
0.0382646 0.0170855 0.999122 
0.0380572 0.0194632 0.999086 
0.0376018 0.0229702 0.999029 
0.0374087 0.027241 0.998929 
0.0364605 0.03323 0.998782 
0.0351999 0.0419078 0.998501 
0.0337304 0.0539605 0.997973 
0.0317362 0.0713346 0.996947 
0.0293098 0.0958144 0.994968 
0.0263012 0.130929 0.991043 
0.0231573 0.17529 0.984244 
0.0199643 0.237932 0.971077 
0.015762 0.321804 0.946675 
0.0117938 0.43386 0.900903 
0.00818677 0.575059 0.818071 
0.00548862 0.721948 0.691925 
0.00322351 0.85905 0.511882 
0.00135287 0.963704 0.266971 
0.000324073 0.99939 -0.0349217 
0.000116601 0.961277 -0.275584 
-0.000587116 0.862667 -0.505771 
-0.00274341 0.716278 -0.697809 
-0.00632753 0.569615 -0.821887 
-0.0106608 0.433523 -0.901079 
-0.0149285 0.323822 -0.946 
-0.0192707 0.242311 -0.970007 
-0.0232251 0.178378 -0.983688 
-0.0262917 0.130048 -0.991159 
-0.0292055 0.0955913 -0.994992 
-0.0317549 0.072226 -0.996883 
-0.0337537 0.0547535 -0.997929 
-0.0352263 0.0429577 -0.998456 
-0.0363129 0.0341211 -0.998758 
-0.0370736 0.0277024 -0.998929 
-0.0375893 0.0233061 -0.999021 
-0.0379525 0.019945 -0.999081 
-0.0382789 0.0173385 -0.999117 
-0.0383737 0.0151421 -0.999149 
-0.038672 0.0135753 -0.99916 
-0.0386009 0.0120807 -0.999182 
-0.0386767 0.0109081 -0.999192 
-0.0387031 0.00952066 -0.999205 
-0.0385265 0.00834772 -0.999223 
-0.0383346 0.00688447 -0.999241 
-0.0380795 0.00529827 -0.999261 
-0.0378235 0.00350112 -0.999278 
-0.0373477 0.00150064 -0.999301 
-0.0366897 -0.0010922 -0.999326 
-0.0350733 -0.00445458 -0.999375 
-0.0347296 -0.00902128 -0.999356 
-0.0339436 -0.0146153 -0.999317 
-0.0325706 -0.0204691 -0.99926 
-0.0321377 -0.0264894 -0.999132 
-0.0308904 -0.0340753 -0.998942 
-0.0301502 -0.0415956 -0.99868 
-0.0275247 -0.0446387 -0.998624 
-0.0224345 -0.0387537 -0.998997 
-0.00100835 -0.00281474 -0.999995 
0.0013464 -0.00273204 0.999996 
0.0206595 -0.0382713 0.999054 
0.0253886 -0.0440306 0.998708 
0.027668 -0.0407191 0.998788 
0.0287446 -0.0327287 0.999051 
0.0300995 -0.0254042 0.999224 
0.0306344 -0.0193421 0.999344 
0.0318843 -0.0135112 0.9994 
0.0333234 -0.00834535 0.99941 
0.0338681 -0.00429642 0.999417 
0.0343956 -0.00123087 0.999408 
0.0357045 0.00112922 0.999362 
0.0359556 0.00302733 0.999349 
0.0362296 0.00469023 0.999333 
0.0361045 0.00618724 0.999329 
0.0365197 0.00754589 0.999304 
0.0372208 0.00885193 0.999268 
0.0372934 0.0101875 0.999252 
0.0372763 0.0115152 0.999239 
0.0371886 0.012945 0.999224 
0.0370145 0.0145974 0.999208 
0.0367129 0.0165622 0.999189 
0.0365489 0.0191415 0.999149 
0.0366246 0.0224457 0.999077 
0.0356966 0.0269955 0.998998 
0.0348408 0.0332679 0.998839 
0.0340811 0.0416808 0.99855 
0.0323422 0.054394 0.997996 
0.0300508 0.0718171 0.996965 
0.0273127 0.0977524 0.994836 
0.0234902 0.13042 0.991181 
0.0202764 0.179308 0.983584 
0.0174557 0.244508 0.96949 
0.0135085 0.334103 0.94244 
0.00982966 0.452873 0.891521 
0.00691973 0.584941 0.811046 
0.00490404 0.727723 0.685854 
0.00347415 0.878839 0.477106 
0.00189146 0.970915 0.239419 
0.00143379 0.999782 0.0208192 
-0.000571974 0.963094 -0.269165 
-0.00151124 0.858777 -0.512348 
-0.00269607 0.731737 -0.681581 
-0.00459048 0.58352 -0.812086 
-0.00844506 0.444982 -0.8955 
-0.0122783 0.330192 -0.943834 
-0.0166635 0.243779 -0.969688 
-0.0216282 0.179813 -0.983463 
-0.0243669 0.132349 -0.990904 
-0.0278018 0.0982993 -0.994768 
-0.0295454 0.0743143 -0.996797 
-0.0315761 0.0560127 -0.997931 
-0.0333104 0.0427247 -0.998531 
-0.0345769 0.0338825 -0.998828 
-0.0355066 0.0274949 -0.998991 
-0.0363041 0.0227583 -0.999082 
-0.0367258 0.0193032 -0.999139 
-0.036953 0.0166703 -0.999178 
-0.0370517 0.0146836 -0.999206 
-0.0368952 0.0129644 -0.999235 
-0.0369738 0.0116013 -0.999249 
-0.0370161 0.0103168 -0.999261 
-0.0370064 0.00903348 -0.999274 
-0.0370043 0.00770863 -0.999285 
-0.0367509 0.00635432 -0.999304 
-0.0364907 0.00482116 -0.999322 
-0.0356938 0.00304169 -0.999358 
-0.035231 0.000942464 -0.999379 
-0.0347538 -0.00159435 -0.999395 
-0.0348319 -0.00492855 -0.999381 
-0.033337 -0.00957174 -0.999398 
-0.0314463 -0.0146494 -0.999398 
-0.0315006 -0.020226 -0.999299 
-0.029766 -0.0264797 -0.999206 
-0.0299477 -0.0335465 -0.998988 
-0.0277354 -0.0415155 -0.998753 
-0.0247011 -0.0444454 -0.998706 
-0.020057 -0.0384075 -0.999061 
-0.00108037 -0.00240127 -0.999997 
0.000341763 -0.0044056 0.999991 
0.0166915 -0.0388946 0.999104 
0.0201595 -0.0445474 0.998804 
0.0221841 -0.0414228 0.998895 
0.0232978 -0.0338004 0.999157 
0.025042 -0.0264658 0.999336 
0.0260066 -0.0207264 0.999447 
0.0269305 -0.014704 0.999529 
0.0280434 -0.00917538 0.999565 
0.0287109 -0.00502031 0.999575 
0.0296679 -0.00159511 0.999559 
0.0306666 0.00104423 0.999529 
0.0310424 0.00299541 0.999514 
0.0313807 0.00469903 0.999496 
0.0313035 0.00626117 0.99949 
0.0320273 0.00763492 0.999458 
0.0328819 0.00888357 0.99942 
0.032652 0.0101391 0.999415 
0.0326668 0.0114396 0.999401 
0.0325633 0.0128691 0.999387 
0.0322756 0.014521 0.999374 
0.0319937 0.0166271 0.99935 
0.0318813 0.0194983 0.999301 
0.0319565 0.022979 0.999225 
0.0307443 0.0279563 0.999136 
0.0298324 0.0349216 0.998945 
0.0292744 0.0440593 0.9986 
0.0271291 0.0573101 0.997988 
0.0250161 0.0772372 0.996699 
0.0218814 0.102058 0.994538 
0.0182851 0.142393 0.989641 
0.0152565 0.194735 0.980737 
0.0132128 0.258857 0.965825 
0.010018 0.359523 0.933083 
0.00706516 0.474641 0.880151 
0.00508244 0.607202 0.794531 
0.00367627 0.781944 0.623338 
0.00280091 0.883844 0.467772 
0.00289963 0.943832 0.330412 
0.00125162 0.999819 -0.0189614 
-0.00123008 0.972252 -0.233931 
-0.00209978 0.892824 -0.450401 
-0.00279109 0.752047 -0.659104 
-0.00395883 0.585809 -0.81044 
-0.00635269 0.440452 -0.897754 
-0.00916785 0.328959 -0.9443 
-0.0125808 0.245094 -0.969418 
-0.017341 0.179363 -0.98363 
-0.0194981 0.132979 -0.990927 
-0.0230341 0.0975575 -0.994963 
-0.0248959 0.0713966 -0.997137 
-0.0272619 0.0532694 -0.998208 
-0.0288909 0.0411414 -0.998736 
-0.0300532 0.0324049 -0.999023 
-0.0308423 0.0260695 -0.999184 
-0.0316754 0.0216034 -0.999265 
-0.0320945 0.0182964 -0.999317 
-0.0323974 0.0158391 -0.99935 
-0.032312 0.013857 -0.999382 
-0.0323726 0.0122734 -0.999401 
-0.0321576 0.0109229 -0.999423 
-0.0326334 0.0097191 -0.99942 
-0.0322728 0.00841963 -0.999444 
-0.0321943 0.00718816 -0.999456 
-0.0319011 0.00577116 -0.999474 
-0.0315268 0.00422753 -0.999494 
-0.030728 0.00234795 -0.999525 
-0.0299713 0.000172044 -0.999551 
-0.0295866 -0.0024427 -0.999559 
-0.0303205 -0.00555053 -0.999525 
-0.0281008 -0.00980558 -0.999557 
-0.0263725 -0.0155394 -0.999531 
-0.0265393 -0.0212822 -0.999421 
-0.0245652 -0.0274911 -0.99932 
-0.0250321 -0.0340728 -0.999106 
-0.0223541 -0.0418094 -0.998876 
-0.01954 -0.0444597 -0.99882 
-0.0160004 -0.0377185 -0.99916 
-0.000916115 -0.00255355 -0.999996 
0.000156113 -0.00449063 0.999991 
0.0106675 -0.0350613 0.999328 
0.0146632 -0.0433055 0.998954 
0.0170943 -0.0435911 0.998903 
0.0184264 -0.0372857 0.999135 
0.0201744 -0.0297913 0.999353 
0.0214032 -0.024062 0.999481 
0.0223565 -0.0180624 0.999587 
0.0233695 -0.0120766 0.999654 
0.0239926 -0.00728661 0.999686 
0.0248646 -0.00337453 0.999685 
0.0258967 -0.000304734 0.999665 
0.0263257 0.00185687 0.999652 
0.0267707 0.00372098 0.999635 
0.0271938 0.00534354 0.999616 
0.0274592 0.00685783 0.999599 
0.0279417 0.00813096 0.999577 
0.0283569 0.00928555 0.999555 
0.0281801 0.0105089 0.999548 
0.0281909 0.0117752 0.999533 
0.0279814 0.0132126 0.999521 
0.0278024 0.0150173 0.999501 
0.0277225 0.0174835 0.999463 
0.0272791 0.0206327 0.999415 
0.0271105 0.0245916 0.99933 
0.0261266 0.0306479 0.999189 
0.0252121 0.0390052 0.998921 
0.0240318 0.049336 0.998493 
0.0221682 0.0660254 0.997572 
0.0193709 0.0867667 0.99604 
0.0167284 0.119612 0.99268 
0.0133588 0.167425 0.985794 
0.0107179 0.235103 0.971911 
0.00899744 0.311625 0.950163 
0.00626802 0.413526 0.91047 
0.00422031 0.549955 0.835184 
0.00348895 0.707431 0.706774 
0.000395193 0.851851 0.523783 
0.000282462 0.99 0.141067 
-0.00844892 0.996295 -0.0855823 
-0.00509271 0.987418 -0.158049 
-0.00750702 0.918051 -0.396392 
-0.00458761 0.86041 -0.509581 
-0.00404758 0.648776 -0.760969 
-0.00488857 0.483431 -0.875369 
-0.00676031 0.359865 -0.93298 
-0.00924684 0.259694 -0.965647 
-0.0131304 0.188809 -0.981926 
-0.0149526 0.142014 -0.989752 
-0.0183648 0.105281 -0.994273 
-0.0204632 0.0780408 -0.99674 
-0.022694 0.0565036 -0.998144 
-0.0242976 0.0428924 -0.998784 
-0.0255811 0.0335843 -0.999108 
-0.0264126 0.0267933 -0.999292 
-0.0271153 0.0218303 -0.999394 
-0.0275456 0.0183298 -0.999453 
-0.0278521 0.0157582 -0.999488 
-0.0279984 0.0138115 -0.999513 
-0.0280466 0.0121858 -0.999532 
-0.0278566 0.0108439 -0.999553 
-0.0281838 0.00961432 -0.999557 
-0.0281047 0.00843329 -0.999569 
-0.0275202 0.00708978 -0.999596 
-0.0275383 0.00577257 -0.999604 
-0.0269544 0.00413698 -0.999628 
-0.0264997 0.00235373 -0.999646 
-0.0254807 0.000123609 -0.999675 
-0.0247814 -0.00253195 -0.99969 
-0.0252778 -0.005961 -0.999663 
-0.0236618 -0.0109059 -0.999661 
-0.022074 -0.016763 -0.999616 
-0.0220964 -0.0225361 -0.999502 
-0.0201595 -0.0286704 -0.999386 
-0.0201941 -0.0348741 -0.999188 
-0.0177357 -0.0424498 -0.998941 
-0.0151836 -0.0449027 -0.998876 
-0.0126979 -0.0381466 -0.999192 
-0.000687937 -0.00257147 -0.999996 
0.000607704 -0.00294484 0.999996 
0.00937192 -0.0382741 0.999223 
0.0127464 -0.0454035 0.998887 
0.0140394 -0.042052 0.999017 
0.0157639 -0.034635 0.999276 
0.0169263 -0.028457 0.999452 
0.0181807 -0.0227339 0.999576 
0.0189838 -0.0164964 0.999684 
0.0194964 -0.0109347 0.99975 
0.020214 -0.00616434 0.999777 
0.0212053 -0.00237927 0.999772 
0.021521 0.000214544 0.999768 
0.0220437 0.00236398 0.999754 
0.022483 0.00420855 0.999738 
0.0232219 0.00582525 0.999713 
0.0231095 0.00720172 0.999707 
0.0232997 0.00838018 0.999693 
0.0239015 0.00952929 0.999669 
0.0236061 0.010708 0.999664 
0.0235623 0.0119738 0.999651 
0.0233987 0.0135302 0.999635 
0.0234535 0.0156329 0.999603 
0.0230123 0.0183388 0.999567 
0.0223595 0.0219248 0.99951 
0.0225073 0.0268084 0.999387 
0.0216232 0.0342618 0.999179 
0.0201563 0.0438468 0.998835 
0.0194382 0.0576741 0.998146 
0.0166061 0.0754893 0.997008 
0.0145446 0.105361 0.994328 
0.0116797 0.147128 0.989049 
0.00909316 0.216942 0.976142 
0.00614379 0.316416 0.948601 
0.0036888 0.443331 0.89635 
0.00209642 0.611095 0.791555 
0.000463854 0.737417 0.675437 
-0.00147557 0.894115 0.447834 
-0.00492854 0.972407 0.233237 
-0.000587953 0.976548 0.215297 
-0.0165919 0.999594 -0.0231828 
-0.009949 0.999242 0.0376618 
-0.0171286 0.950113 -0.311436 
-0.011992 0.840945 -0.540988 
-0.00478448 0.751412 -0.659816 
-0.00445282 0.535534 -0.844502 
-0.00576049 0.397412 -0.917622 
-0.00720553 0.291011 -0.956693 
-0.0100014 0.197009 -0.980351 
-0.0122584 0.139962 -0.990081 
-0.0150727 0.0993268 -0.994941 
-0.0177079 0.0711569 -0.997308 
-0.0191477 0.0525785 -0.998433 
-0.0204216 0.0400678 -0.998988 
-0.0215441 0.0314225 -0.999274 
-0.0222965 0.0251113 -0.999436 
-0.0227089 0.0206087 -0.99953 
-0.0230414 0.0173361 -0.999584 
-0.0232797 0.0149488 -0.999617 
-0.0236415 0.0130974 -0.999635 
-0.0234814 0.0116209 -0.999657 
-0.0236761 0.0102905 -0.999667 
-0.0236148 0.00914078 -0.999679 
-0.0236465 0.00796612 -0.999689 
-0.0227366 0.00667211 -0.999719 
-0.0229673 0.005278 -0.999722 
-0.0221098 0.00362955 -0.999749 
-0.021865 0.00173683 -0.999759 
-0.0206699 -0.000533361 -0.999786 
-0.0203896 -0.00343286 -0.999786 
-0.0210875 -0.00685145 -0.999754 
-0.0195395 -0.0117272 -0.99974 
-0.018216 -0.0178442 -0.999675 
-0.0183191 -0.0237931 -0.999549 
-0.0165204 -0.0299952 -0.999414 
-0.0163406 -0.0362814 -0.999208 
-0.013925 -0.0433532 -0.998963 
-0.0115562 -0.04561 -0.998893 
-0.00955388 -0.0381897 -0.999225 
-0.000371229 -0.00257942 -0.999996 
0.000283653 -0.00244094 0.999997 
0.00678799 -0.0382507 0.999245 
0.00958523 -0.0461362 0.998889 
0.0105948 -0.0440253 0.998974 
0.0121113 -0.0369596 0.999243 
0.0128726 -0.0303685 0.999456 
0.014063 -0.0247383 0.999595 
0.014869 -0.0186117 0.999716 
0.0150608 -0.0126011 0.999807 
0.0156986 -0.00756803 0.999848 
0.0166899 -0.00352314 0.999855 
0.0166602 -0.000584838 0.999861 
0.0171538 0.00172697 0.999851 
0.0175964 0.00368597 0.999838 
0.0183286 0.00536108 0.999818 
0.0183926 0.00672993 0.999808 
0.0181228 0.00798634 0.999804 
0.0186948 0.00911909 0.999784 
0.018822 0.0101985 0.999771 
0.0185387 0.0114256 0.999763 
0.0185705 0.0128424 0.999745 
0.0187527 0.0147609 0.999715 
0.0182698 0.0172813 0.999684 
0.0175478 0.0206648 0.999632 
0.0175368 0.0253957 0.999524 
0.0175845 0.0318318 0.999339 
0.0159346 0.0407385 0.999043 
0.0153091 0.0541811 0.998414 
0.0130857 0.072592 0.997276 
0.0112721 0.100467 0.994877 
0.00905101 0.149342 0.988744 
0.00658247 0.227862 0.973671 
0.00435576 0.334336 0.942444 
0.00243216 0.489333 0.872094 
0.00131473 0.605379 0.795937 
0.00190558 0.752694 0.658368 
-0.00560177 0.959654 0.281129 
-0.00322439 0.987945 0.154771 
-0.00338541 0.99686 0.0791093 
-0.00539954 0.999712 -0.0233874 
-0.00546766 0.997777 -0.0664151 
-0.00574638 0.995222 -0.09747 
-0.0191403 0.932645 -0.360288 
-0.00617455 0.648037 -0.761584 
-0.00931384 0.552743 -0.8333 
-0.00600981 0.460542 -0.887617 
-0.00606134 0.334946 -0.942218 
-0.00738369 0.22517 -0.974292 
-0.00876715 0.15923 -0.987203 
-0.0111317 0.108094 -0.994078 
-0.0134936 0.0777891 -0.996879 
-0.0146613 0.0569787 -0.998268 
-0.0156745 0.0426272 -0.998968 
-0.0166368 0.032991 -0.999317 
-0.0174191 0.0263166 -0.999502 
-0.0177591 0.0214066 -0.999613 
-0.0180212 0.0178016 -0.999679 
-0.018208 0.0151842 -0.999719 
-0.0187538 0.0132775 -0.999736 
-0.0184947 0.0117212 -0.99976 
-0.0191455 0.0105 -0.999762 
-0.018599 0.00925068 -0.999784 
-0.0187746 0.0081324 -0.999791 
-0.0180718 0.00689812 -0.999813 
-0.0180307 0.00541607 -0.999823 
-0.0173679 0.0038225 -0.999842 
-0.0167931 0.00178084 -0.999857 
-0.0161686 -0.000668283 -0.999869 
-0.0156992 -0.00372249 -0.99987 
-0.016302 -0.00769342 -0.999838 
-0.0151921 -0.0131183 -0.999799 
-0.013909 -0.0193923 -0.999715 
-0.0144787 -0.0249345 -0.999584 
-0.0127086 -0.0308345 -0.999444 
-0.0128256 -0.0368129 -0.99924 
-0.0106383 -0.0440177 -0.998974 
-0.00865325 -0.0465473 -0.998879 
-0.00688488 -0.0381214 -0.999249 
-0.000400451 -0.00246014 -0.999997 
0.000282177 -0.00216033 0.999998 
0.00474353 -0.0388211 0.999235 
0.00685155 -0.0470016 0.998871 
0.0076931 -0.0453941 0.99894 