# vtk DataFile Version 3.0 
Exported using Morpho https://github.com/Morpho-lang/morpho 
ASCII 
DATASET UNSTRUCTURED_GRID 

POINTS 1978 float 
-12 -4 -2.22746e-13 
-11.6614 -4 5.37918e-12 
-11.3172 -4 5.46396e-12 
-10.9849 -4 4.96066e-12 
-10.6752 -4 4.19705e-12 
-10.3177 -4 3.42003e-12 
-9.99628 -4 2.17437e-12 
-9.6814 -4 1.49413e-12 
-9.3512 -4 9.08061e-13 
-9.01983 -4 3.77189e-13 
-8.68286 -4 -4.54637e-14 
-8.3419 -4 -4.37386e-13 
-8.02366 -4 -6.46973e-13 
-7.73897 -4 -7.02337e-13 
-7.48117 -4 -8.02559e-13 
-7.19223 -4 -1.06876e-12 
-6.89192 -4 -1.19305e-12 
-6.59458 -4 -1.66447e-12 
-6.29411 -4 -1.60941e-12 
-5.98061 -4 -1.93637e-12 
-5.6693 -4 -2.11678e-12 
-5.36196 -4 -2.29432e-12 
-5.06231 -4 -2.50171e-12 
-4.77064 -4 -3.21006e-12 
-4.44583 -4 -3.73747e-12 
-4.13852 -4 -4.59037e-12 
-3.80963 -4 -5.78365e-12 
-3.49375 -4 -6.84794e-12 
-3.19426 -4 -7.93468e-12 
-2.89513 -4 -8.94513e-12 
-2.61824 -4 -9.56084e-12 
-2.34978 -4 -1.04781e-11 
-2.08388 -4 -1.25575e-11 
-1.79348 -4 -1.36775e-11 
-1.50565 -4 -1.24583e-11 
-1.21599 -4 -1.03594e-11 
-0.928748 -4 -8.9537e-12 
-0.620683 -4 2.27744e-12 
-0.28444 -4 -2.99126e-12 
0.0577708 -4 -6.23451e-12 
0.330152 -4 1.84053e-12 
0.615975 -4 2.93673e-12 
0.887858 -4 6.87096e-12 
1.16221 -4 3.76974e-13 
1.4284 -4 1.26729e-11 
1.71681 -4 1.36006e-11 
1.99861 -4 1.31792e-11 
2.2882 -4 1.54857e-11 
2.62166 -4 1.25518e-11 
2.91946 -4 1.0935e-11 
3.2611 -4 8.05198e-12 
3.54451 -4 5.92181e-12 
3.84511 -4 5.39716e-12 
4.16404 -4 4.32979e-12 
4.464 -4 3.39218e-12 
4.75922 -4 3.08939e-12 
5.07547 -4 2.76072e-12 
5.3873 -4 2.39335e-12 
5.69953 -4 2.03905e-12 
5.99784 -4 1.80377e-12 
6.29761 -4 1.58617e-12 
6.58698 -4 1.47731e-12 
6.8919 -4 1.25796e-12 
7.17047 -4 1.16005e-12 
7.4776 -4 9.89384e-13 
7.76846 -4 7.30605e-13 
8.06535 -4 5.67691e-13 
8.35145 -4 3.33638e-13 
8.63568 -4 1.27313e-13 
8.91663 -4 -2.4566e-13 
9.28086 -4 -9.24694e-13 
9.61729 -4 -1.36172e-12 
9.9058 -4 -2.4118e-12 
10.2809 -4 -3.37158e-12 
10.604 -4 -5.2773e-12 
11.0146 -4 -5.76629e-12 
11.3252 -4 -4.92218e-12 
11.6498 -4 -5.26247e-12 
12 -4 8.81856e-14 
-12 -3.68301 -2.68702e-13 
-11.6633 -3.68414 7.6012e-15 
-11.3456 -3.65015 6.94511e-15 
-11.026 -3.66408 7.10431e-15 
-10.7011 -3.6413 5.45655e-15 
-10.3862 -3.68522 5.67894e-15 
-10.0501 -3.65665 3.85767e-15 
-9.72909 -3.65526 2.74165e-15 
-9.40474 -3.66927 1.63992e-15 
-9.07395 -3.6663 7.13911e-16 
-8.75095 -3.66818 2.93096e-16 
-8.41777 -3.68422 -2.73518e-16 
-8.08791 -3.6705 -6.58517e-16 
-7.77406 -3.64297 -9.20651e-16 
-7.48659 -3.61759 -1.05695e-15 
-7.21045 -3.65968 -1.77341e-15 
-6.9017 -3.66586 -1.23472e-15 
-6.59545 -3.66392 -3.27031e-15 
-6.28357 -3.6652 -1.51589e-15 
-5.96774 -3.66462 -2.9517e-15 
-5.657 -3.66069 -3.03344e-15 
-5.35304 -3.65377 -3.29842e-15 
-5.05455 -3.65799 -3.79336e-15 
-4.74395 -3.6813 -5.17499e-15 
-4.4437 -3.66003 -5.48405e-15 
-4.14526 -3.6714 -6.75281e-15 
-3.83584 -3.69151 -8.92627e-15 
-3.51519 -3.68432 -1.13958e-14 
-3.20122 -3.67221 -1.39984e-14 
-2.90011 -3.66117 -1.6027e-14 
-2.61765 -3.64752 -1.83877e-14 
-2.34052 -3.64057 -1.84221e-14 
-2.03878 -3.67708 -2.63792e-14 
-1.73815 -3.66301 -2.67365e-14 
-1.44255 -3.6598 -2.60105e-14 
-1.14591 -3.64242 -9.31793e-15 
-0.832978 -3.64672 -1.29197e-14 
-0.546747 -3.57879 5.12895e-14 
-0.276758 -3.65969 9.31172e-15 
0.0109401 -3.59877 -5.34339e-14 
0.3096 -3.56265 -7.7608e-15 
0.596833 -3.60424 -1.11718e-14 
0.884053 -3.59146 -7.72191e-15 
1.1661 -3.63399 1.15427e-14 
1.46657 -3.65336 1.72075e-14 
1.76156 -3.65237 3.03848e-14 
2.06122 -3.66425 2.57065e-14 
2.39502 -3.71974 2.92368e-14 
2.71413 -3.6789 1.8427e-14 
3.03977 -3.7145 1.86832e-14 
3.34118 -3.65098 1.08672e-14 
3.63615 -3.66718 9.68234e-15 
3.94495 -3.6838 8.54233e-15 
4.24629 -3.66114 6.25432e-15 
4.53943 -3.65286 5.00201e-15 
4.84505 -3.67309 4.66453e-15 
5.15413 -3.66697 3.85329e-15 
5.46419 -3.66626 3.37979e-15 
5.76426 -3.65213 2.79768e-15 
6.06568 -3.65585 2.58632e-15 
6.35819 -3.64303 2.11171e-15 
6.66219 -3.66479 2.16666e-15 
6.95 -3.6345 1.55644e-15 
7.25254 -3.66885 1.62131e-15 
7.55078 -3.6518 1.33276e-15 
7.85092 -3.65756 7.66491e-16 
8.14263 -3.64968 7.57562e-16 
8.43212 -3.64219 2.04613e-16 
8.71998 -3.62806 -3.32382e-16 
9.04679 -3.70737 -1.15433e-15 
9.38739 -3.67813 -1.90037e-15 
9.69044 -3.62366 -2.2925e-15 
10.0269 -3.70809 -4.89499e-15 
10.357 -3.6529 -4.77374e-15 
10.7211 -3.72913 -9.05326e-15 
11.0288 -3.63472 -4.99765e-15 
11.3424 -3.64203 -7.40466e-15 
11.6782 -3.68325 -7.25901e-15 
12 -3.65929 3.5433e-13 
-12 -3.36344 2.86555e-13 
-11.665 -3.35053 1.72309e-15 
-11.3247 -3.30937 1.37218e-15 
-10.9965 -3.32318 1.78125e-15 
-10.6653 -3.30338 2.35486e-15 
-10.3434 -3.34707 1.715e-15 
-10.0171 -3.31718 1.18808e-15 
-9.70532 -3.30681 9.33351e-16 
-9.3958 -3.33762 6.93461e-16 
-9.08597 -3.32038 1.17664e-15 
-8.77711 -3.32287 2.45846e-16 
-8.46562 -3.35541 -1.03576e-16 
-8.14979 -3.3427 -1.57494e-16 
-7.84457 -3.3151 -2.66117e-16 
-7.54461 -3.26603 -4.07917e-16 
-7.24945 -3.29225 -5.48582e-16 
-6.96137 -3.33832 -5.73585e-16 
-6.6538 -3.33028 -7.25161e-16 
-6.34596 -3.33414 -7.09021e-16 
-6.03191 -3.33222 -1.06731e-15 
-5.72092 -3.32529 -1.15179e-15 
-5.41523 -3.31145 -1.30133e-15 
-5.11638 -3.30234 -1.54167e-15 
-4.81754 -3.35909 -1.92729e-15 
-4.51417 -3.32722 -2.40354e-15 
-4.21477 -3.3312 -2.89105e-15 
-3.91128 -3.36686 -3.62268e-15 
-3.60061 -3.37186 -5.64609e-15 
-3.2865 -3.35757 -6.35625e-15 
-2.97432 -3.34514 -7.62473e-15 
-2.661 -3.30233 -9.19582e-15 
-2.36958 -3.28729 -9.85476e-15 
-2.07356 -3.35109 -1.08048e-14 
-1.76508 -3.33619 -5.05674e-15 
-1.44677 -3.31056 -6.40526e-15 
-1.126 -3.29856 -1.05027e-15 
-0.84046 -3.24908 7.86911e-15 
-0.55491 -3.16539 -1.17987e-15 
-0.257785 -3.2437 1.70347e-14 
0.047233 -3.19601 -9.41687e-15 
0.269968 -3.04319 6.04573e-15 
0.526416 -3.19711 -7.38938e-15 
0.822447 -3.18008 9.21489e-15 
1.12684 -3.26725 1.04372e-16 
1.43381 -3.3129 1.07231e-14 
1.7466 -3.30451 6.63496e-15 
2.04696 -3.32793 8.92894e-15 
2.35527 -3.41965 1.02069e-14 
2.66269 -3.36317 9.39789e-15 
2.98044 -3.40201 7.98889e-15 
3.28511 -3.33358 5.76445e-15 
3.59716 -3.32716 4.60217e-15 
3.89351 -3.3552 3.75175e-15 
4.19153 -3.33187 2.92552e-15 
4.49155 -3.31026 2.29852e-15 
4.78885 -3.33594 1.92839e-15 
5.0895 -3.3366 1.57535e-15 
5.39867 -3.33517 1.32884e-15 
5.7059 -3.31214 1.11416e-15 
6.00978 -3.31588 1.00007e-15 
6.31123 -3.29498 7.9984e-16 
6.6138 -3.32613 7.65734e-16 
6.91362 -3.28638 6.13595e-16 
7.21575 -3.33018 5.21175e-16 
7.51944 -3.31285 3.37548e-16 
7.82396 -3.3201 3.81582e-16 
8.1289 -3.29936 1.29404e-16 
8.42461 -3.28889 1.35371e-14 
8.74684 -3.30475 -3.39231e-16 
9.06878 -3.38941 -5.30169e-16 
9.38075 -3.33 -7.79659e-16 
9.70095 -3.28313 -9.49699e-16 
10.014 -3.38122 -1.32765e-15 
10.3081 -3.29643 -1.7115e-15 
10.6335 -3.40367 -2.11345e-15 
10.9732 -3.3219 -2.05904e-15 
11.3286 -3.29018 -1.46804e-15 
11.6645 -3.34786 -1.48241e-15 
12 -3.30964 -1.04581e-14 
-12 -3.03979 -6.00618e-13 
-11.6404 -3.0325 2.22709e-16 
-11.29 -2.97363 2.91679e-16 
-10.9534 -2.98867 2.22516e-16 
-10.6158 -2.96954 1.03418e-15 
-10.2887 -3.0126 1.10035e-15 
-9.96562 -2.97225 6.72678e-16 
-9.64079 -2.97141 5.50308e-16 
-9.33093 -2.99365 9.26418e-16 
-9.01757 -2.9787 1.40794e-16 
-8.72013 -2.95789 3.44251e-16 
-8.43858 -3.01984 1.91622e-16 
-8.13833 -2.9964 1.50725e-14 
-7.83768 -2.97347 -8.87272e-17 
-7.52814 -2.93645 -8.74071e-17 
-7.22216 -2.95721 -1.58207e-16 
-6.92281 -3.00354 -3.17119e-16 
-6.61389 -2.9997 -3.40877e-16 
-6.30628 -3.00592 -4.56866e-16 
-5.99987 -2.99899 -4.99134e-16 
-5.69607 -2.98946 -5.44453e-16 
-5.39832 -2.97024 -6.21116e-16 
-5.09729 -2.96804 -7.69447e-16 
-4.80002 -3.03024 -1.18383e-15 
-4.501 -2.99555 -1.32024e-15 
-4.20551 -2.99786 -1.68374e-15 
-3.91019 -3.04422 -2.61925e-15 
-3.60088 -3.05211 -2.28025e-15 
-3.29284 -3.03506 -3.59649e-15 
-2.97027 -3.02961 -4.01531e-15 
-2.67926 -2.95332 -3.83313e-15 
-2.35978 -2.95359 -5.03319e-15 
-2.04987 -3.01476 -5.22673e-15 
-1.73116 -3.00429 -2.3197e-16 
-1.39905 -2.97059 -1.50087e-15 
-1.10928 -2.89547 6.03963e-15 
-0.820645 -2.83112 9.53329e-15 
-0.518554 -2.74003 3.09075e-14 
-0.24832 -2.85705 -4.02724e-14 
-0.0295808 -2.70703 4.75336e-14 
0.280192 -2.64748 -1.10332e-14 
0.588642 -2.77756 2.09298e-15 
0.855294 -2.71262 -3.64334e-14 
1.11295 -2.89413 -1.54301e-14 
1.42063 -2.96301 2.35987e-15 
1.73079 -2.96335 1.03002e-14 
2.05197 -2.97643 3.52448e-15 
2.35282 -3.09289 6.16885e-15 
2.65924 -3.02657 5.75991e-15 
2.9604 -3.08033 5.12058e-15 
3.26227 -3.0044 3.51269e-15 
3.57185 -3.00696 2.65285e-15 
3.88538 -3.01941 2.17412e-15 
4.18491 -3.00058 1.70711e-15 
4.48731 -2.98287 1.25872e-15 
4.78918 -3.00004 1.02893e-15 
5.08585 -3.00071 8.47095e-16 
5.38407 -3.00597 6.96644e-16 
5.68516 -2.97914 5.45239e-16 
5.99002 -2.9797 4.18131e-16 
6.2947 -2.96087 3.62868e-16 
6.59919 -2.98756 2.98457e-16 
6.91533 -2.96447 2.58207e-16 
7.22911 -2.99469 2.27657e-16 
7.52897 -2.97642 1.34223e-16 
7.83305 -2.98544 -3.49342e-14 
8.12911 -2.95542 1.94721e-14 
8.43371 -2.95209 -1.36602e-16 
8.7354 -2.97748 -2.27755e-16 
9.05589 -3.05417 -5.06612e-16 
9.3762 -2.99942 -5.9888e-16 
9.66467 -2.92545 -5.06788e-16 
9.97662 -3.02492 -6.56539e-16 
10.3035 -2.96505 -8.84387e-16 
10.6356 -3.07162 -1.46054e-15 
10.9836 -3.00288 -3.6956e-16 
11.3116 -2.95016 8.53014e-15 
11.6499 -3.01587 -2.2176e-16 
12 -2.98821 3.59377e-13 
-12 -2.72854 -4.05328e-13 
-11.6458 -2.71477 -4.95792e-16 
-11.3212 -2.63334 -6.03027e-16 
-10.983 -2.65432 -9.29788e-16 
-10.6519 -2.64286 1.37332e-14 
-10.3128 -2.6784 2.28342e-16 
-9.97881 -2.65147 -8.9833e-17 
-9.64714 -2.64438 1.15368e-14 
-9.32299 -2.65474 -4.87113e-14 
-9.01775 -2.63134 2.48169e-16 
-8.6959 -2.63441 1.50755e-16 
-8.37529 -2.66702 1.07608e-16 
-8.07304 -2.65125 -3.97547e-14 
-7.76529 -2.64094 -2.06515e-14 
-7.4429 -2.61726 -3.80897e-14 
-7.13352 -2.64015 -1.05193e-14 
-6.83572 -2.68121 4.03152e-14 
-6.52664 -2.67249 9.54775e-15 
-6.22444 -2.67459 3.05929e-14 
-5.92126 -2.66594 -8.69466e-17 
[...]
POINT_DATA 1978 
VECTORS vectors float
-0.000424727 -0.00137659 0.999999 
0.00049514 -0.0496442 0.998767 
0.000410923 -0.0524003 0.998626 
0.000514444 -0.0449815 0.998988 
0.000451822 -0.0369029 0.999319 
0.000441446 -0.0277127 0.999616 
0.000481684 -0.01929 0.999814 
0.000470139 -0.0122364 0.999925 
0.000461385 -0.00674764 0.999977 
0.000475467 -0.00256218 0.999997 
0.000472496 0.000774598 1 
0.000468211 0.0033236 0.999994 
0.00048494 0.00529919 0.999986 
0.000540853 0.00675268 0.999977 
0.000528721 0.00794082 0.999968 
0.000486727 0.00935067 0.999956 
0.000489918 0.010861 0.999941 
0.000506529 0.0122007 0.999925 
0.00049665 0.0137397 0.999905 
0.000487512 0.0153671 0.999882 
0.000488187 0.0170904 0.999854 
0.000494499 0.0191252 0.999817 
0.000506573 0.0217211 0.999764 
0.000485221 0.0248975 0.99969 
0.000477941 0.0294111 0.999567 
0.000488178 0.0360118 0.999351 
0.000462456 0.0461569 0.998934 
0.000472917 0.0592759 0.998242 
0.000459311 0.0779182 0.99696 
0.000444475 0.102935 0.994688 
0.000446167 0.135118 0.990829 
0.00042852 0.176237 0.984348 
0.0003755 0.229266 0.973364 
0.000314728 0.305872 0.952073 
0.000265975 0.403376 0.915034 
0.000195434 0.525681 0.850682 
0.000118284 0.666084 0.745877 
4.09375e-05 0.822257 0.569116 
6.55397e-06 0.958218 0.286038 
-5.97428e-07 0.998275 -0.0587087 
1.10639e-05 0.944136 -0.329555 
-3.79808e-05 0.827557 -0.561382 
-0.000101838 0.689806 -0.723994 
-0.000183791 0.554851 -0.83195 
-0.00024163 0.43463 -0.900609 
-0.000313012 0.330033 -0.943969 
-0.000366298 0.250222 -0.968188 
-0.000387752 0.187051 -0.98235 
-0.000421489 0.134942 -0.990853 
-0.000436434 0.100777 -0.994909 
-0.000450276 0.0733461 -0.997306 
-0.000503803 0.0569494 -0.998377 
-0.000463483 0.0447103 -0.999 
-0.00047333 0.0356843 -0.999363 
-0.000506442 0.0295026 -0.999565 
-0.00049236 0.0250513 -0.999686 
-0.000481225 0.0215848 -0.999767 
-0.000490977 0.0189795 -0.99982 
-0.000493983 0.0168719 -0.999858 
-0.000500423 0.0151682 -0.999885 
-0.00050063 0.013731 -0.999906 
-0.000495346 0.0125495 -0.999921 
-0.000504105 0.0111882 -0.999937 
-0.000508834 0.00973584 -0.999952 
-0.000489205 0.00818295 -0.999966 
-0.000505241 0.00669533 -0.999977 
-0.000490279 0.00516134 -0.999987 
-0.000506569 0.00341065 -0.999994 
-0.000531052 0.00109897 -0.999999 
-0.000475216 -0.00171801 -0.999998 
-0.000437095 -0.00604085 -0.999982 
-0.000505681 -0.0118164 -0.99993 
-0.000457009 -0.0181385 -0.999835 
-0.00043403 -0.0274691 -0.999623 
-0.000431819 -0.0355535 -0.999368 
-0.000442413 -0.0457925 -0.998951 
-0.000457587 -0.0533226 -0.998577 
-0.000469829 -0.0493359 -0.998782 
0.000308682 -0.00111591 -0.999999 
-0.00138027 0.000576326 0.999999 
0.0215433 -0.042002 0.998885 
0.0250859 -0.0471626 0.998572 
0.0258275 -0.0436737 0.998712 
0.0270118 -0.0359729 0.998988 
0.0266514 -0.0285577 0.999237 
0.0276776 -0.0204454 0.999408 
0.0282201 -0.0137839 0.999507 
0.0285807 -0.00834443 0.999557 
0.0290041 -0.00391688 0.999572 
0.029095 -0.000446924 0.999577 
0.0294275 0.00233229 0.999564 
0.0302466 0.0044726 0.999532 
0.0314544 0.00608011 0.999487 
0.0325188 0.00731869 0.999444 
0.0311911 0.00855504 0.999477 
0.0309477 0.00996426 0.999471 
0.0310929 0.0114282 0.999451 
0.0309194 0.0130599 0.999437 
0.031119 0.0146261 0.999409 
0.0312459 0.0163546 0.999378 
0.0313379 0.0183804 0.99934 
0.0314236 0.0209071 0.999287 
0.0301111 0.0247294 0.999241 
0.030935 0.0293571 0.99909 
0.0296945 0.0355762 0.998926 
0.0283238 0.0448283 0.998593 
0.0275763 0.058301 0.997918 
0.0261643 0.0770673 0.996683 
0.0247942 0.103138 0.994358 
0.022772 0.136563 0.99037 
0.0205334 0.180466 0.983367 
0.0173975 0.243574 0.969726 
0.0143867 0.326376 0.94513 
0.0109445 0.430454 0.902546 
0.00770841 0.560922 0.827833 
0.00488592 0.714619 0.699497 
0.00321648 0.858184 0.513332 
0.00255752 0.960039 0.279855 
0.00181027 0.999998 -0.000806141 
0.00104163 0.956027 -0.293277 
-0.000673556 0.843625 -0.536933 
-0.00348444 0.701257 -0.7129 
-0.00683332 0.553064 -0.833111 
-0.0107035 0.417807 -0.908473 
-0.0144234 0.314251 -0.94923 
-0.0176697 0.234007 -0.972074 
-0.0202 0.168652 -0.985469 
-0.0232762 0.124002 -0.992009 
-0.0246311 0.0907172 -0.995572 
-0.0273387 0.0681649 -0.997299 
-0.0282061 0.0527795 -0.998208 
-0.0288644 0.0412867 -0.99873 
-0.0301673 0.0331944 -0.998994 
-0.0307885 0.0275088 -0.999147 
-0.0305057 0.0232805 -0.999263 
-0.0309449 0.0200561 -0.99932 
-0.031097 0.017555 -0.999362 
-0.0316034 0.0155765 -0.999379 
-0.0315741 0.0139959 -0.999403 
-0.0319542 0.0126294 -0.99941 
-0.0313872 0.011402 -0.999442 
-0.0322691 0.0100786 -0.999428 
-0.0311619 0.00875188 -0.999476 
-0.0317299 0.00725202 -0.99947 
-0.0314307 0.00571946 -0.99949 
-0.0316277 0.00404386 -0.999492 
-0.0312542 0.00215127 -0.999509 
-0.0310882 -0.000192824 -0.999517 
-0.0283693 -0.00348116 -0.999591 
-0.028419 -0.00828927 -0.999562 
-0.0290488 -0.0137028 -0.999484 
-0.0265458 -0.0206937 -0.999433 
-0.027169 -0.0279921 -0.999239 
-0.0253059 -0.0374224 -0.998979 
-0.0261764 -0.0437894 -0.998698 
-0.024878 -0.0469417 -0.998588 
-0.0209704 -0.0412774 -0.998928 
0.00123651 0.000555357 -0.999999 
-0.00157434 -0.000137036 0.999999 
0.0226115 -0.0383678 0.999008 
0.0278496 -0.0446093 0.998616 
0.0299811 -0.0416417 0.998683 
0.0311473 -0.0339181 0.998939 
0.0317321 -0.0267691 0.999138 
0.0326733 -0.0200102 0.999266 
0.0337551 -0.0140709 0.999331 
0.0343888 -0.00869146 0.999371 
0.0352878 -0.00431738 0.999368 
0.0361108 -0.00118501 0.999347 
0.0365096 0.00139954 0.999332 
0.037097 0.00348728 0.999306 
0.0378247 0.00513902 0.999271 
0.0383732 0.00647075 0.999243 
0.0386174 0.00783894 0.999223 
0.0382888 0.00919738 0.999224 
0.0383048 0.0105666 0.99921 
0.0382037 0.0119997 0.999198 
0.0382266 0.0134568 0.999178 
0.0382529 0.0151199 0.999154 
0.0382438 0.0170836 0.999122 
0.0380368 0.0194616 0.999087 
0.0375811 0.0229688 0.99903 
0.0373878 0.02724 0.998929 
0.0364395 0.033229 0.998783 
0.0351793 0.0419066 0.998502 
0.0337108 0.0539634 0.997974 
0.031717 0.0713371 0.996948 
0.0292916 0.0958184 0.994968 
0.026285 0.130934 0.991043 
0.0231425 0.175295 0.984244 
0.0199508 0.237935 0.971076 
0.0157527 0.321801 0.946676 
0.0117849 0.433847 0.90091 
0.00817995 0.575068 0.818065 
0.00548311 0.721916 0.691959 
0.00321764 0.859046 0.511888 
0.00135058 0.963713 0.266936 
0.00031715 0.999388 -0.034991 
0.000118413 0.961293 -0.275527 
-0.000585697 0.862732 -0.505661 
-0.00273573 0.716356 -0.69773 
-0.00632574 0.56962 -0.821884 
-0.0106525 0.433532 -0.901075 
-0.0149184 0.323819 -0.946002 
-0.0192571 0.242306 -0.970009 
-0.0232086 0.178371 -0.98369 
-0.0262765 0.130059 -0.991158 
-0.0291872 0.0955946 -0.994992 
-0.0317361 0.0722258 -0.996883 
-0.033734 0.054753 -0.99793 
-0.0352058 0.0429567 -0.998456 
-0.0362924 0.03412 -0.998759 
-0.0370532 0.027701 -0.998929 
-0.0375684 0.0233044 -0.999022 
-0.0379317 0.0199432 -0.999081 
-0.038258 0.0173367 -0.999117 
-0.038353 0.0151402 -0.99915 
-0.0386508 0.0135735 -0.999161 
-0.0385804 0.0120788 -0.999182 
-0.0386553 0.0109064 -0.999193 
-0.0386825 0.00951908 -0.999206 
-0.0385055 0.00834613 -0.999224 
-0.0383135 0.00688273 -0.999242 
-0.0380599 0.00529741 -0.999261 
-0.0378022 0.00350008 -0.999279 
-0.0373266 0.00149975 -0.999302 
-0.0366696 -0.00109355 -0.999327 
-0.0350536 -0.00445549 -0.999376 
-0.0347098 -0.00902108 -0.999357 
-0.0339247 -0.0146136 -0.999318 
-0.0325516 -0.0204665 -0.99926 
-0.0321198 -0.0264865 -0.999133 
-0.0308713 -0.0340696 -0.998943 
-0.0301307 -0.0415827 -0.998681 
-0.0275033 -0.0446147 -0.998626 
-0.0223945 -0.0386935 -0.999 
0.00123852 -6.80226e-05 -0.999999 
-0.000989439 0.000189162 0.999999 
0.0206319 -0.0382186 0.999056 
0.0253734 -0.0440062 0.998709 
0.0276557 -0.040703 0.998788 
0.0287328 -0.0327235 0.999051 
0.0300889 -0.0254033 0.999224 
0.0306231 -0.0193396 0.999344 
0.0318729 -0.0135102 0.999401 
0.0333103 -0.0083466 0.99941 
0.0338562 -0.00429701 0.999417 
0.0343839 -0.00123231 0.999408 
0.0356906 0.00112793 0.999362 
0.0359429 0.00302644 0.999349 
0.036217 0.00468913 0.999333 
0.0360943 0.006186 0.999329 
0.0365087 0.00754456 0.999305 
0.0372068 0.00885039 0.999268 
0.0372802 0.0101859 0.999253 
0.0372634 0.0115137 0.999239 
0.0371757 0.0129434 0.999225 
0.0370021 0.0145957 0.999209 
0.036701 0.0165604 0.999189 
0.0365372 0.0191399 0.999149 
0.0366109 0.0224443 0.999078 
0.0356845 0.0269945 0.998998 
0.0348294 0.0332674 0.998839 
0.0340679 0.041681 0.99855 
0.0323286 0.0543903 0.997996 
0.0300388 0.0718165 0.996965 
0.0273012 0.0977509 0.994836 
0.0234819 0.13042 0.991181 
0.0202683 0.179308 0.983584 
0.0174482 0.244508 0.96949 
0.0135044 0.334091 0.942444 
0.00982813 0.452879 0.891518 
0.00692423 0.584919 0.811062 
0.00490935 0.727734 0.685842 
0.00347582 0.878817 0.477147 
0.00188683 0.970906 0.239452 
0.00143386 0.999781 0.0208752 
-0.00057332 0.963084 -0.269201 
-0.00151032 0.858694 -0.512486 
-0.00269871 0.731641 -0.681685 
-0.00458665 0.583532 -0.812077 
-0.00844285 0.444981 -0.8955 
-0.0122722 0.330217 -0.943825 
-0.0166545 0.243769 -0.96969 
-0.0216173 0.179814 -0.983463 
-0.0243556 0.13235 -0.990904 
-0.0277893 0.0983003 -0.994769 
-0.0295341 0.0743141 -0.996797 
-0.0315643 0.0560117 -0.997931 
-0.0332982 0.0427239 -0.998532 
-0.0345647 0.0338815 -0.998828 
-0.0354947 0.0274935 -0.998992 
-0.0362915 0.0227566 -0.999082 
-0.036713 0.0193015 -0.999139 
-0.0369402 0.0166686 -0.999178 
-0.0370393 0.0146818 -0.999206 
-0.0368833 0.0129626 -0.999236 
-0.0369619 0.0115996 -0.999249 
-0.037004 0.0103152 -0.999262 
-0.0369944 0.00903201 -0.999275 
-0.0369915 0.00770725 -0.999286 
-0.0367393 0.00635313 -0.999305 
-0.0364774 0.0048197 -0.999323 
-0.0356827 0.00304059 -0.999359 
-0.03522 0.000941362 -0.999379 
-0.0347414 -0.0015952 -0.999395 
-0.0348173 -0.00492954 -0.999382 
-0.0333241 -0.00957187 -0.999399 
-0.0314355 -0.0146478 -0.999398 
-0.0314881 -0.0202227 -0.9993 
-0.0297548 -0.0264765 -0.999207 
-0.0299337 -0.0335416 -0.998989 
-0.0277226 -0.0414994 -0.998754 
-0.0246873 -0.0444205 -0.998708 
-0.0200295 -0.03835 -0.999064 
0.000994523 0.000206778 -0.999999 
-0.000667187 0.000330345 1 
0.0166717 -0.0388382 0.999106 
0.0201515 -0.0445229 0.998805 
0.0221801 -0.0414063 0.998896 
0.0232946 -0.0337955 0.999157 
0.0250375 -0.0264629 0.999336 
0.0260023 -0.0207223 0.999447 
0.0269262 -0.0147017 0.999529 
0.0280387 -0.00917498 0.999565 
0.0287059 -0.00502109 0.999575 
0.0296631 -0.00159604 0.999559 
0.0306606 0.00104323 0.999529 
0.031037 0.00299442 0.999514 
0.0313753 0.00469793 0.999497 
0.0312991 0.00625986 0.99949 
0.0320217 0.00763345 0.999458 
0.0328752 0.00888211 0.99942 
0.0326465 0.0101375 0.999416 
0.0326611 0.0114379 0.999401 
0.0325575 0.0128674 0.999387 
0.03227 0.0145193 0.999374 
0.0319881 0.0166254 0.99935 
0.0318758 0.0194966 0.999302 
0.0319502 0.0229776 0.999225 
0.0307389 0.0279548 0.999136 
0.0298273 0.0349196 0.998945 
0.0292677 0.0440597 0.9986 
0.0271247 0.0573102 0.997988 
0.0250108 0.0772384 0.996699 
0.0218768 0.102061 0.994538 
0.0182823 0.142395 0.989641 
0.0152535 0.194745 0.980735 
0.0132104 0.258858 0.965825 
0.0100174 0.359528 0.933081 
0.00706653 0.474648 0.880147 
0.00508799 0.607283 0.794469 
0.00368772 0.78193 0.623355 
0.00280201 0.883848 0.467765 
0.00290506 0.943834 0.330406 
0.00124339 0.999818 -0.0190301 
-0.00124662 0.972251 -0.233938 
-0.00211271 0.892865 -0.45032 
-0.00280521 0.752156 -0.658979 
-0.00396236 0.585817 -0.810434 
-0.00634914 0.440513 -0.897724 
-0.00916919 0.328926 -0.944311 
-0.012578 0.245106 -0.969415 
-0.0173371 0.17937 -0.983629 
-0.019494 0.132981 -0.990927 
-0.0230289 0.0975601 -0.994963 
-0.0248914 0.071398 -0.997137 
-0.0272566 0.0532699 -0.998208 
-0.0288851 0.041141 -0.998736 
-0.0300476 0.0324039 -0.999023 
-0.030837 0.0260683 -0.999184 
-0.0316695 0.0216021 -0.999265 
-0.0320886 0.0182949 -0.999318 
-0.0323915 0.0158375 -0.99935 
-0.0323065 0.0138553 -0.999382 
-0.0323669 0.0122719 -0.999401 
-0.0321523 0.0109212 -0.999423 
-0.0326275 0.00971748 -0.99942 
-0.0322674 0.00841813 -0.999444 
-0.0321886 0.00718676 -0.999456 
-0.0318956 0.0057698 -0.999475 
-0.0315209 0.00422637 -0.999494 
-0.0307231 0.00234692 -0.999525 
-0.0299666 0.000171113 -0.999551 
-0.029582 -0.00244379 -0.999559 
-0.0303139 -0.00555137 -0.999525 
-0.0280961 -0.00980525 -0.999557 
-0.0263689 -0.0155371 -0.999532 
-0.0265346 -0.0212787 -0.999421 
-0.0245616 -0.0274882 -0.99932 
-0.025027 -0.0340685 -0.999106 
-0.0223494 -0.0417924 -0.998876 
-0.0195332 -0.0444344 -0.998821 
-0.0159795 -0.0376574 -0.999163 
0.000907775 0.000120779 -1 
-0.000418026 0.000347946 1 
0.0106453 -0.0349613 0.999332 
0.014657 -0.0432811 0.998955 
0.0170913 -0.0435713 0.998904 
0.0184239 -0.037277 0.999135 
0.0201716 -0.029788 0.999353 
0.0213997 -0.0240574 0.999482 
0.0223528 -0.0180589 0.999587 
0.0233654 -0.0120757 0.999654 
0.023988 -0.00728727 0.999686 
0.0248601 -0.00337557 0.999685 
0.025892 -0.000305785 0.999665 
0.0263205 0.00185595 0.999652 
0.0267656 0.00371989 0.999635 
0.0271887 0.00534236 0.999616 
0.0274537 0.0068564 0.9996 
0.0279363 0.00812948 0.999577 
0.0283515 0.009284 0.999555 
0.028175 0.0105073 0.999548 
0.0281856 0.0117735 0.999533 
0.027976 0.013211 0.999521 
0.027797 0.0150159 0.999501 
0.027717 0.0174822 0.999463 
0.0272738 0.0206315 0.999415 
0.0271048 0.0245906 0.99933 
0.0261212 0.0306465 0.999189 
0.0252071 0.0390035 0.998921 
0.0240266 0.0493364 0.998493 
0.0221642 0.0660244 0.997572 
0.0193665 0.086767 0.99604 
0.0167251 0.11961 0.99268 
0.0133557 0.167425 0.985794 
0.0107137 0.235106 0.971911 
0.00899481 0.311631 0.950161 
0.00626304 0.413538 0.910465 
0.00420728 0.549996 0.835157 
0.00347543 0.70751 0.706694 
0.000372424 0.85196 0.523607 
0.000274003 0.989996 0.141093 
-0.0084493 0.996294 -0.0855964 
-0.00507417 0.987445 -0.157881 
-0.00750397 0.918036 -0.396427 
-0.00455862 0.86046 -0.509498 
-0.00403172 0.648766 -0.760977 
-0.0048848 0.483409 -0.875381 
-0.00675886 0.359855 -0.932984 
-0.00924441 0.25971 -0.965642 
-0.0131286 0.188803 -0.981927 
-0.0149495 0.142012 -0.989752 
-0.0183607 0.10528 -0.994273 
-0.0204594 0.0780402 -0.99674 
-0.0226893 0.0565032 -0.998145 
-0.0242924 0.0428916 -0.998784 
-0.0255758 0.033583 -0.999109 
-0.0264075 0.026792 -0.999292 
-0.0271097 0.021829 -0.999394 
-0.0275403 0.0183286 -0.999453 
-0.0278467 0.0157568 -0.999488 
-0.0279933 0.01381 -0.999513 
-0.0280408 0.0121842 -0.999533 
-0.0278516 0.0108424 -0.999553 
-0.0281782 0.00961269 -0.999557 
-0.0280994 0.00843174 -0.99957 
-0.0275148 0.00708839 -0.999596 
-0.0275334 0.00577127 -0.999604 
-0.0269485 0.00413589 -0.999628 
-0.0264945 0.00235278 -0.999646 
-0.0254754 0.000122624 -0.999675 
-0.0247771 -0.00253282 -0.99969 
-0.0252727 -0.00596171 -0.999663 
-0.023658 -0.0109053 -0.999661 
-0.0220702 -0.01676 -0.999616 
-0.0220933 -0.0225308 -0.999502 
-0.0201568 -0.0286656 -0.999386 
-0.0201915 -0.0348688 -0.999188 
-0.0177329 -0.0424331 -0.998942 
-0.0151791 -0.0448775 -0.998877 
-0.0126822 -0.0380875 -0.999194 
0.000667566 0.000141613 -1 
-0.000350103 0.000129469 1 
0.00936115 -0.0382163 0.999226 
0.0127422 -0.0453779 0.998889 
0.0140365 -0.0420381 0.999017 
0.0157604 -0.0346301 0.999276 
0.0169226 -0.0284527 0.999452 
0.0181766 -0.0227288 0.999576 
0.0189796 -0.0164936 0.999684 
0.0194919 -0.0109343 0.99975 
0.0202095 -0.00616499 0.999777 
0.0212008 -0.00238026 0.999772 
0.0215164 0.000213675 0.999768 
0.0220388 0.0023631 0.999754 
0.0224784 0.00420744 0.999738 
0.0232164 0.00582393 0.999714 
0.0231047 0.00720036 0.999707 
0.0232947 0.00837872 0.999694 
0.0238962 0.00952773 0.999669 
0.0236012 0.0107064 0.999664 
0.0235573 0.0119723 0.999651 
0.0233937 0.0135289 0.999635 
0.0234484 0.0156317 0.999603 
0.0230073 0.0183377 0.999567 
0.0223548 0.0219238 0.99951 
0.0225017 0.0268076 0.999387 
0.0216182 0.034261 0.999179 
0.0201516 0.0438466 0.998835 
0.019433 0.0576751 0.998146 
0.0166017 0.0754911 0.997008 
0.0145407 0.105361 0.994328 
0.0116781 0.147121 0.98905 
0.00908985 0.21692 0.976147 
0.00614203 0.31641 0.948603 
0.00368376 0.443288 0.896372 
0.00208699 0.611014 0.791617 
0.000453273 0.737391 0.675467 
-0.00149944 0.893977 0.44811 
-0.00495549 0.972541 0.232681 
-0.000587358 0.976535 0.215359 
-0.0166118 0.999592 -0.0232151 
-0.00961333 0.999247 0.0375827 
-0.017134 0.950166 -0.311273 
-0.0120089 0.840827 -0.541171 
-0.00477513 0.751325 -0.659915 
-0.00444983 0.535598 -0.844462 
-0.00575835 0.397365 -0.917642 
-0.00720304 0.291035 -0.956685 
-0.00999936 0.197006 -0.980351 
-0.0122557 0.139956 -0.990082 
-0.0150687 0.0993254 -0.994941 
-0.0177033 0.0711581 -0.997308 
-0.0191428 0.0525785 -0.998433 
-0.0204166 0.0400673 -0.998988 
-0.021539 0.0314217 -0.999274 
-0.0222916 0.0251105 -0.999436 
-0.0227037 0.0206077 -0.99953 
-0.0230364 0.0173351 -0.999584 
-0.0232748 0.0149475 -0.999617 
-0.0236365 0.0130961 -0.999635 
-0.0234761 0.0116194 -0.999657 
-0.0236713 0.010289 -0.999667 
-0.0236095 0.00913927 -0.999679 
-0.0236415 0.00796468 -0.999689 
-0.022732 0.00667079 -0.999719 
-0.0229626 0.00527683 -0.999722 
-0.022105 0.00362844 -0.999749 
-0.0218603 0.00173597 -0.99976 
-0.0206652 -0.000534269 -0.999786 
-0.0203861 -0.00343361 -0.999786 
-0.021082 -0.00685248 -0.999754 
-0.0195352 -0.0117271 -0.99974 
-0.0182116 -0.0178414 -0.999675 
-0.0183149 -0.0237879 -0.999549 
-0.0165167 -0.0299905 -0.999414 
-0.0163374 -0.0362748 -0.999208 
-0.013922 -0.043336 -0.998964 
-0.0115526 -0.0455839 -0.998894 
-0.00954229 -0.0381287 -0.999227 
0.000510424 0.000167746 -1 
-0.000388078 0.00011769 1 
0.00677988 -0.0381873 0.999248 
0.00958207 -0.0461114 0.99889 
0.0105926 -0.0440063 0.998975 
0.012109 -0.036953 0.999244 
0.0128702 -0.0303633 0.999456 
0.0140605 -0.0247328 0.999595 
0.0148662 -0.0186082 0.999716 
0.0150581 -0.0126003 0.999807 
0.015696 -0.00756844 0.999848 
0.0166871 -0.00352397 0.999855 
0.0166576 -0.000585664 0.999861 
0.017151 0.00172612 0.999851 
0.0175938 0.00368486 0.999838 
0.0183253 0.00535971 0.999818 
0.0183897 0.0067286 0.999808 
0.0181201 0.00798484 0.999804 
0.0186917 0.00911755 0.999784 
0.0188191 0.010197 0.999771 
0.0185358 0.0114242 0.999763 
0.0185675 0.0128411 0.999745 
0.0187495 0.0147598 0.999715 
0.0182669 0.0172802 0.999684 
0.0175451 0.0206638 0.999633 
0.0175337 0.0253945 0.999524 
0.0175812 0.0318312 0.999339 
0.015932 0.0407383 0.999043 
0.0153054 0.0541809 0.998414 
0.0130828 0.0725969 0.997276 
0.0112691 0.100473 0.994876 
0.0090491 0.149343 0.988744 
0.0065817 0.227888 0.973665 
0.00435902 0.334335 0.942444 
0.002441 0.489245 0.872143 
0.00132727 0.605384 0.795932 
0.0018948 0.75278 0.65827 
-0.00557157 0.959505 0.281637 
-0.00321338 0.987932 0.154854 
-0.00365359 0.996846 0.0792755 
-0.00539605 0.999712 -0.0234003 
-0.00546528 0.997788 -0.0662543 
-0.00574743 0.995223 -0.0974615 
-0.0191874 0.932506 -0.360644 
-0.00618221 0.648086 -0.761542 
-0.00931679 0.552603 -0.833392 
-0.00601018 0.460458 -0.887661 
-0.00606262 0.334966 -0.942211 
-0.00738112 0.225197 -0.974285 
-0.00876593 0.159238 -0.987201 
-0.0111286 0.108098 -0.994078 
-0.0134901 0.0777921 -0.996878 
-0.0146583 0.0569806 -0.998268 
-0.0156716 0.0426275 -0.998968 
-0.0166338 0.03299 -0.999317 
-0.0174161 0.0263152 -0.999502 
-0.0177562 0.0214055 -0.999613 
-0.0180184 0.0178004 -0.999679 
-0.0182057 0.0151831 -0.999719 
-0.0187502 0.0132759 -0.999736 
-0.0184917 0.0117198 -0.99976 
-0.0191419 0.0104984 -0.999762 
-0.0185966 0.00924932 -0.999784 
-0.0187713 0.00813068 -0.999791 
-0.018069 0.00689663 -0.999813 
-0.0180278 0.00541473 -0.999823 
-0.0173653 0.00382133 -0.999842 
-0.0167906 0.0017799 -0.999857 
-0.0161661 -0.000669152 -0.999869 
-0.0156974 -0.00372372 -0.99987 
-0.0162987 -0.00769377 -0.999838 
-0.0151894 -0.0131163 -0.999799 
-0.0139071 -0.0193879 -0.999715 
-0.0144755 -0.0249293 -0.999584 
-0.0127064 -0.03083 -0.999444 
-0.0128228 -0.0368076 -0.99924 
-0.0106361 -0.0440011 -0.998975 
-0.00865077 -0.0465207 -0.99888 
-0.00687627 -0.0380561 -0.999252 
0.000335427 0.00010468 -1 
-0.000230782 5.39212e-05 1 
0.00473845 -0.0387588 0.999237 
0.00684983 -0.0469743 0.998873 
0.00769227 -0.0453764 0.99894 
0.00874627 -0.037826 0.999246 