# vtk DataFile Version 3.0 
Exported using Morpho https://github.com/Morpho-lang/morpho 
ASCII 
DATASET UNSTRUCTURED_GRID 

POINTS 1978 float 
-11.9562 -3.9528 -0.000175815 
-11.6186 -3.95728 -0.00227131 
-11.3467 -3.94799 -0.00205875 
-11.0131 -3.93976 -0.00156531 
-10.6781 -3.92778 -0.000877833 
-10.3026 -3.9287 -0.000388536 
-9.98291 -3.9349 4.00422e-05 
-9.68143 -3.93704 -0.000483032 
-9.36067 -3.93375 -0.000957503 
-9.03957 -3.92434 -0.000214398 
-8.68564 -3.91863 -0.000211012 
-8.3221 -3.91982 0.000114696 
-7.97968 -3.93438 0.000829476 
-7.70299 -3.94552 0.000269261 
-7.46921 -3.95257 0.000156133 
-7.2382 -3.94407 -0.000318576 
-6.94217 -3.9326 -0.000357411 
-6.60723 -3.92817 6.78618e-05 
-6.30136 -3.93144 0.000381205 
-5.98294 -3.93221 0.000473873 
-5.66952 -3.93129 0.000451519 
-5.36292 -3.93293 0.000167666 
-5.06191 -3.93397 0.000360499 
-4.77163 -3.92934 0.000586573 
-4.42798 -3.933 0.000665936 
-4.13878 -3.93677 0.000607864 
-3.84104 -3.93125 0.00075453 
-3.48626 -3.9319 0.00139733 
-3.17474 -3.94083 0.00191723 
-2.86328 -3.95209 0.00274132 
-2.59986 -3.96161 0.00239041 
-2.34159 -3.96339 0.00295271 
-2.06871 -3.97321 0.00340221 
-1.79591 -3.97221 0.00324846 
-1.49834 -3.97851 0.00316916 
-1.2093 -3.97849 0.0016734 
-0.924178 -3.97712 9.17359e-05 
-0.631851 -3.94699 -0.00154089 
-0.28463 -3.94163 -0.00128481 
0.0790924 -3.92427 -0.000154533 
0.349708 -3.94598 0.00314875 
0.611071 -3.9725 -0.000348162 
0.875306 -3.97049 0.000689386 
1.13117 -3.98644 -0.00225574 
1.43123 -3.97592 -0.00349571 
1.69624 -3.97812 -0.00393501 
1.95732 -3.97053 -0.00387818 
2.271 -3.9616 -0.00309195 
2.58891 -3.94947 -0.00322162 
2.91161 -3.94343 -0.00234632 
3.25426 -3.94055 -0.00175439 
3.54171 -3.93946 -0.0012595 
3.8415 -3.93525 -0.000795671 
4.16324 -3.9353 -0.000908149 
4.4655 -3.93614 -0.000646862 
4.7563 -3.93268 -0.000537799 
5.0771 -3.93083 -0.000211162 
5.38746 -3.93161 -0.000275096 
5.70667 -3.9334 -7.80804e-05 
6.00779 -3.93669 -0.000212579 
6.30025 -3.93911 -0.000331862 
6.59073 -3.93926 -0.000121406 
6.88636 -3.94208 -0.000174491 
7.15978 -3.93534 -0.000601944 
7.47347 -3.93079 -0.000371386 
7.78175 -3.93483 0.000227136 
8.09079 -3.94097 0.000198413 
8.35358 -3.9517 9.58664e-05 
8.61987 -3.94502 -0.00038911 
8.89826 -3.93136 -0.000519207 
9.27742 -3.92683 0.000396977 
9.62667 -3.93652 0.000797834 
9.9091 -3.93705 3.29324e-05 
10.2775 -3.93114 0.000230399 
10.6095 -3.9261 0.0022506 
11.0413 -3.93586 0.0017445 
11.3453 -3.95182 0.00182375 
11.6115 -3.95999 0.00247233 
11.954 -3.94687 -0.000383764 
-11.9608 -3.64067 0.00136987 
-11.6719 -3.68078 0.0010651 
-11.354 -3.59423 -0.00130468 
-11.0689 -3.63978 -0.000352087 
-10.739 -3.62257 -0.00113688 
-10.4009 -3.65438 -0.000921861 
-10.0518 -3.6186 0.000275388 
-9.73688 -3.60681 -5.71347e-05 
-9.42875 -3.62899 -0.000222265 
-9.11246 -3.62004 0.000608025 
-8.78036 -3.6371 0.000182932 
-8.428 -3.64309 -0.000113105 
-8.07969 -3.64624 0.000480812 
-7.76104 -3.60873 0.000100322 
-7.49264 -3.56442 -0.000479785 
-7.2025 -3.63301 0.000185363 
-6.87828 -3.65125 0.000541809 
-6.57426 -3.61893 0.000523031 
-6.26439 -3.63126 0.000220882 
-5.95336 -3.62786 9.53147e-05 
-5.64764 -3.62096 0.000144331 
-5.34647 -3.6173 7.28956e-05 
-5.05646 -3.6094 0.000282238 
-4.72352 -3.65831 0.000293379 
-4.4374 -3.61322 0.00038242 
-4.1412 -3.62491 0.000335683 
-3.7989 -3.66883 0.000605115 
-3.49479 -3.63846 0.000668155 
-3.18526 -3.65242 0.000548088 
-2.8959 -3.63836 -0.000157551 
-2.61589 -3.62964 0.000254993 
-2.32832 -3.65821 -0.000115632 
-2.04023 -3.66387 0.00048012 
-1.73345 -3.68589 0.00058437 
-1.43677 -3.67422 0.000428799 
-1.13741 -3.65454 0.000891988 
-0.850607 -3.63695 -0.000355112 
-0.560222 -3.5756 -0.00142544 
-0.289621 -3.6648 -0.00197609 
-0.00692381 -3.56096 0.00176389 
0.284284 -3.53976 -7.46143e-05 
0.577398 -3.6317 0.00155253 
0.865516 -3.58705 0.000543077 
1.16057 -3.68127 -4.7639e-05 
1.47183 -3.66758 -0.000637389 
1.76601 -3.65325 -0.00068448 
2.0654 -3.70099 -0.000854618 
2.38922 -3.69352 -0.000818236 
2.71284 -3.67738 -0.000545046 
3.04279 -3.67959 -0.000391026 
3.33841 -3.62193 -0.000621791 
3.63294 -3.63193 -0.000596583 
3.94328 -3.64379 -0.000126052 
4.24713 -3.62631 -5.60763e-05 
4.53786 -3.61407 -0.000539436 
4.845 -3.63803 -0.000342379 
5.15332 -3.62456 -0.00035851 
5.46848 -3.63316 -0.000244794 
5.77245 -3.61886 -0.000184452 
6.0716 -3.61708 -0.000118641 
6.36796 -3.61973 -0.000214986 
6.67075 -3.62856 -0.000198097 
6.95324 -3.60362 -4.78035e-05 
7.25901 -3.63949 -4.11117e-06 
7.56416 -3.61437 5.68426e-06 
7.85416 -3.63654 -0.000214051 
8.13921 -3.60519 -0.000100681 
8.41953 -3.60257 0.000195278 
8.69891 -3.59467 -0.000122721 
9.0337 -3.66965 -0.000276099 
9.38776 -3.64667 0.000558395 
9.68167 -3.58476 0.000341554 
10.0185 -3.66151 -0.000208292 
10.3564 -3.62114 9.83e-05 
10.7471 -3.68795 0.000109308 
11.066 -3.60433 -0.000245079 
11.35 -3.59051 0.00244415 
11.6735 -3.68146 -0.0012098 
11.9546 -3.60616 -0.00174967 
-11.9529 -3.37373 0.00296514 
-11.6019 -3.36128 -3.03151e-05 
-11.264 -3.26759 -0.000122384 
-10.9615 -3.32441 -0.000933112 
-10.6495 -3.28185 0.000902833 
-10.3696 -3.35908 -6.83144e-05 
-10.0568 -3.29528 -0.000550587 
-9.72317 -3.29863 -0.000117067 
-9.391 -3.31023 -0.000714685 
-9.05514 -3.32167 4.84776e-05 
-8.75055 -3.30177 0.000179713 
-8.45655 -3.3605 -0.000415805 
-8.15884 -3.32292 -0.000174854 
-7.85575 -3.31982 2.0801e-05 
-7.55306 -3.22851 -0.000135953 
-7.25956 -3.29952 -0.00042999 
-6.96464 -3.35465 -0.000260881 
-6.65585 -3.31508 -0.000368516 
-6.34074 -3.31929 -0.000354947 
-6.03188 -3.31835 -0.000442942 
-5.72155 -3.30712 -0.000759987 
-5.41516 -3.29824 -0.000481743 
-5.1168 -3.27832 -0.000322917 
-4.81588 -3.3591 -0.00058617 
-4.51986 -3.30031 -0.000725382 
-4.21738 -3.30226 -0.000499606 
-3.90858 -3.37654 -0.000269315 
-3.60133 -3.34144 -0.000138071 
-3.28927 -3.34892 -7.01677e-05 
-2.9808 -3.339 -0.000668453 
-2.6808 -3.30723 -0.00049853 
-2.38428 -3.33483 -0.000167172 
-2.06605 -3.36554 0.000143553 
-1.74496 -3.38073 0.000511622 
-1.43102 -3.35414 0.000322125 
-1.12302 -3.31261 -0.000185821 
-0.82351 -3.27497 -0.000447895 
-0.536188 -3.17888 -0.000595399 
-0.259628 -3.29078 0.000296648 
0.0270918 -3.12072 -0.000407195 
0.287843 -3.15628 0.00121879 
0.562006 -3.25114 0.000148487 
0.845532 -3.22731 0.000585988 
1.14235 -3.33635 0.000584132 
1.44783 -3.34852 0.00042049 
1.75348 -3.34511 0.000488853 
2.05947 -3.39108 0.00101097 
2.36214 -3.42289 0.00063181 
2.66164 -3.37953 0.000364425 
2.9688 -3.4049 0.000555787 
3.27483 -3.32477 0.00032041 
3.58122 -3.31389 0.000423218 
3.87872 -3.33891 0.000644109 
4.18005 -3.31955 0.000325273 
4.48164 -3.2938 0.000404248 
4.78164 -3.32379 0.00015555 
5.0794 -3.31718 0.000471962 
5.39003 -3.32459 0.000467931 
5.69792 -3.30052 0.000527912 
6.00209 -3.29411 0.000454582 
6.3014 -3.29443 0.000264009 
6.6027 -3.3135 0.000211949 
6.90079 -3.26964 7.84363e-05 
7.19599 -3.31976 0.000365873 
7.49442 -3.30942 0.000281496 
7.80825 -3.30739 7.00774e-05 
8.1271 -3.30349 0.000244046 
8.44763 -3.25853 0.000206791 
8.77309 -3.30004 -0.000332314 
9.09205 -3.38505 0.000241886 
9.38772 -3.30701 0.00023594 
9.70889 -3.26222 -0.000256298 
10.0205 -3.35841 0.000569744 
10.3154 -3.27996 0.0002649 
10.628 -3.39944 0.000510993 
10.9494 -3.31078 0.000710664 
11.2762 -3.24381 -0.000659206 
11.596 -3.3581 -0.000450215 
11.9452 -3.32572 -0.00292315 
-11.9403 -3.08664 0.00232305 
-11.5972 -3.07012 0.00037736 
-11.2659 -2.95475 0.00188804 
-10.9393 -2.98479 -2.58046e-05 
-10.6153 -2.95464 0.000503458 
-10.2934 -3.00523 -0.000353344 
-9.95171 -2.98212 -7.10419e-05 
-9.62648 -2.97003 0.000502693 
-9.31879 -3.00328 -0.000454492 
-9.0133 -2.97722 -0.000191202 
-8.71233 -2.94931 0.000324608 
-8.42957 -3.01793 -9.34416e-05 
-8.13503 -2.9746 0.000116039 
-7.84753 -2.99272 0.000392024 
-7.53915 -2.91026 0.000101732 
-7.2344 -2.9774 -0.000204623 
-6.93584 -3.03087 -5.07447e-05 
-6.62042 -3.00193 0.000508132 
-6.31508 -2.99833 0.000490285 
-6.00686 -2.99675 -3.66884e-06 
-5.69957 -2.98349 -0.000156491 
-5.39935 -2.96752 0.000123334 
-5.09269 -2.96043 0.00052573 
-4.80202 -3.03079 0.0003574 
-4.50221 -2.97959 6.27061e-05 
-4.20286 -2.97609 0.000158225 
-3.91118 -3.05976 9.05914e-05 
-3.60863 -3.03026 8.27216e-05 
-3.3012 -3.04263 -0.000170292 
-2.98251 -3.03159 0.000400416 
-2.6607 -2.97909 0.000485753 
-2.34508 -3.01059 0.000887776 
-2.02459 -3.05238 0.000557644 
-1.69954 -3.03166 0.000138016 
-1.38759 -3.00479 -0.000504111 
-1.09345 -2.89581 -0.000555728 
-0.831143 -2.88696 -0.00216506 
-0.540924 -2.77961 -0.00107885 
-0.237511 -2.89309 -0.000623501 
-0.0169214 -2.59284 0.000115374 
0.243415 -2.67909 -0.000653511 
0.524211 -2.81609 0.00159439 
0.813211 -2.8179 0.000636265 
1.1145 -2.944 0.000717243 
1.42247 -2.99076 0.000716231 
1.73712 -3.00967 -0.000639746 
2.0533 -3.05572 -0.00094522 
2.367 -3.1038 -0.000699874 
2.67585 -3.05263 -0.00031781 
2.96984 -3.09586 2.99606e-05 
3.26245 -3.00171 5.14042e-05 
3.56366 -3.00351 -0.000614781 
3.87798 -3.01865 -0.000389347 
4.1775 -2.99584 0.000214152 
4.47889 -2.97517 -0.000249727 
4.77624 -2.99802 -0.000418526 
5.07816 -2.99757 -0.000162414 
5.37919 -3.00079 0.00018426 
5.68289 -2.97454 6.57995e-05 
5.99086 -2.97412 -0.000120619 
6.30346 -2.96193 -0.000330125 
6.60345 -2.98542 -0.000325198 
6.92606 -2.95988 9.63489e-05 
7.24121 -2.99447 9.51889e-05 
7.53631 -2.97662 2.7145e-05 
7.82836 -2.99677 -0.000158742 
8.12985 -2.97572 0.000114692 
8.43202 -2.95258 4.90067e-05 
8.73396 -2.96482 -0.000278883 
9.04741 -3.05362 -0.000162177 
9.36454 -2.99045 0.000429361 
9.66402 -2.92557 -0.000155857 
9.98855 -3.01591 -4.86497e-05 
10.3163 -2.95813 0.00040245 
10.6415 -3.06912 -0.000875869 
10.9758 -2.98827 -0.000214722 
11.3129 -2.92809 -0.000985592 
11.6259 -3.06228 0.000292025 
11.9394 -3.00311 -0.00162485 
-11.9092 -2.75351 0.00174146 
-11.6001 -2.76435 0.000133846 
-11.3007 -2.62412 7.25224e-05 
-10.9687 -2.65871 -0.000768398 
-10.65 -2.62002 -5.47681e-05 
-10.3077 -2.69129 -0.00105372 
[...]
POINT_DATA 1978 
VECTORS vectors float
0.129441 -0.189678 0.974007 
0.13963 -0.124756 0.986956 
0.14927 -0.0841689 0.990256 
0.1576 -0.0501164 0.990625 
0.168188 -0.0328545 0.988922 
0.170439 -0.0246929 0.988397 
0.169783 -0.0148839 0.988909 
0.171525 -0.00314011 0.988656 
0.173902 0.00897744 0.987555 
0.177671 0.0146497 0.986731 
0.182616 0.00859587 0.985524 
0.180707 -0.00201673 0.985764 
0.176985 -0.00600828 0.987023 
0.17258 0.00241091 0.98804 
0.173905 0.0142701 0.986096 
0.174601 0.0245301 0.987228 
0.177792 0.0274593 0.98626 
0.180019 0.0222041 0.985794 
0.180041 0.0205388 0.985921 
0.1782 0.023603 0.986333 
0.177078 0.0273864 0.986583 
0.176862 0.0316892 0.986566 
0.177562 0.0349986 0.986456 
0.177718 0.0363618 0.986249 
0.176649 0.0390168 0.986267 
0.175555 0.0454166 0.986523 
0.175765 0.0512426 0.986124 
0.172895 0.0567574 0.986185 
0.165303 0.0697135 0.987195 
0.156464 0.0958486 0.989008 
0.149731 0.128632 0.983076 
0.139329 0.166815 0.982926 
0.12876 0.221361 0.969981 
0.113089 0.291698 0.955396 
0.0915228 0.393692 0.920147 
0.0672226 0.518017 0.858154 
0.0430014 0.665071 0.750366 
0.0214102 0.818567 0.580144 
0.00729304 0.955788 0.288492 
-0.00255819 0.997466 -0.0786033 
-0.00595034 0.936605 -0.346159 
-0.017435 0.826663 -0.570271 
-0.0351501 0.685542 -0.729379 
-0.0575301 0.546957 -0.843619 
-0.0858548 0.411683 -0.912994 
-0.107475 0.317479 -0.945354 
-0.12373 0.238578 -0.970338 
-0.140548 0.17637 -0.976738 
-0.151897 0.12739 -0.984182 
-0.160843 0.0979416 -0.985748 
-0.166057 0.073929 -0.986777 
-0.170717 0.0589378 -0.986976 
-0.173144 0.0489258 -0.986887 
-0.174231 0.0423934 -0.986906 
-0.176225 0.0367177 -0.98671 
-0.177721 0.0328183 -0.986378 
-0.179197 0.0327179 -0.985953 
-0.179491 0.0339436 -0.985858 
-0.179005 0.0330106 -0.98596 
-0.178378 0.0285003 -0.986361 
-0.17889 0.0235761 -0.986387 
-0.177922 0.0205812 -0.986592 
-0.176749 0.0152759 -0.986896 
-0.178014 0.00905617 -0.986722 
-0.181378 0.0123654 -0.987489 
-0.18179 0.0192778 -0.983661 
-0.175121 0.0195407 -0.989055 
-0.17473 0.00932573 -0.9858 
-0.176207 -0.0045606 -0.987521 
-0.180967 -0.005775 -0.986191 
-0.180363 0.00104862 -0.985896 
-0.176196 -0.00183011 -0.98747 
-0.173295 -0.0138301 -0.987964 
-0.173381 -0.026718 -0.987731 
-0.170896 -0.032051 -0.988313 
-0.16001 -0.0480253 -0.990231 
-0.150602 -0.0804185 -0.990414 
-0.137274 -0.126257 -0.987299 
-0.127417 -0.194564 -0.973305 
0.077282 -0.19688 0.980989 
0.0985296 -0.141065 0.997127 
0.0943237 -0.0995842 1.00592 
0.11053 -0.0660548 1.00715 
0.117284 -0.0442908 1.00918 
0.127107 -0.028875 1.00404 
0.123959 -0.0162512 1.0069 
0.124567 -0.00734834 1.00827 
0.131413 0.00164192 1.00367 
0.131063 0.00629605 1.00526 
0.135997 0.00631109 1.00609 
0.138609 0.00365118 1.00222 
0.135098 0.00257687 1.0058 
0.127556 0.00638099 1.00534 
0.122199 0.0122134 1.00745 
0.13123 0.0189257 1.00416 
0.134996 0.0207457 1.00347 
0.134343 0.0193754 1.0039 
0.13694 0.0206529 1.00371 
0.134855 0.0243287 1.00393 
0.133233 0.0274775 1.00412 
0.131431 0.030289 1.00436 
0.130081 0.0321586 1.00442 
0.136843 0.0353179 1.00301 
0.130314 0.0389481 1.0042 
0.131169 0.0442957 1.00407 
0.134051 0.0519887 1.00293 
0.128275 0.0613768 1.00349 
0.123988 0.0790105 1.00119 
0.11491 0.102564 1.00236 
0.10655 0.134332 0.999506 
0.100035 0.177195 0.992909 
0.0891343 0.236639 0.984565 
0.0761725 0.321267 0.961985 
0.0609314 0.429616 0.91497 
0.0441893 0.565167 0.842112 
0.0294915 0.711614 0.713543 
0.0160592 0.856147 0.527184 
0.00771335 0.957902 0.294923 
0.00294098 0.999936 0.00859098 
-0.00432516 0.960014 -0.285331 
-0.0122531 0.847515 -0.54162 
-0.0239385 0.703775 -0.723534 
-0.0417749 0.548252 -0.851538 
-0.0596003 0.411215 -0.925923 
-0.0755751 0.308593 -0.964028 
-0.0937174 0.22678 -0.9849 
-0.107503 0.164679 -0.994631 
-0.115394 0.122436 -1.00162 
-0.124768 0.0927593 -1.00171 
-0.122333 0.0726457 -1.0038 
-0.12697 0.0574892 -1.00406 
-0.13105 0.0474862 -1.00362 
-0.130625 0.0401701 -1.0041 
-0.130318 0.0354261 -1.00426 
-0.133649 0.031905 -1.00384 
-0.133621 0.0312762 -1.00381 
-0.134648 0.0304537 -1.00386 
-0.132752 0.028456 -1.00434 
-0.133181 0.0246624 -1.00425 
-0.132965 0.0201178 -1.00427 
-0.132323 0.0173009 -1.00428 
-0.128739 0.0144377 -1.00485 
-0.134377 0.0127721 -1.00386 
-0.131056 0.0131804 -1.00286 
-0.134595 0.0146404 -1.00365 
-0.126969 0.0117718 -1.00543 
-0.125827 0.006237 -1.00568 
-0.125627 0.00139559 -1.00782 
-0.138522 -0.00129943 -1.00215 
-0.133749 -0.00243017 -1.00492 
-0.123136 -0.0079362 -1.00884 
-0.130641 -0.0167302 -1.00397 
-0.124025 -0.0274563 -1.00865 
-0.12998 -0.0413894 -1.00547 
-0.107414 -0.0652879 -1.00786 
-0.0952272 -0.0981007 -1.00636 
-0.101161 -0.145906 -0.996321 
-0.0761894 -0.200478 -0.980421 
0.0408785 -0.20441 0.981998 
0.0588056 -0.142773 1.00342 
0.0645636 -0.0981486 1.01091 
0.0791812 -0.0656678 1.00938 
0.0804059 -0.0438972 1.0118 
0.0926921 -0.0306493 1.01094 
0.0889328 -0.0178713 1.01123 
0.0914885 -0.00872177 1.01094 
0.0941522 -0.00138324 1.01037 
0.097025 0.00288754 1.01007 
0.0957223 0.00378719 1.01004 
0.102295 0.00439042 1.00916 
0.0962186 0.00563009 1.00972 
0.0959925 0.00751404 1.00779 
0.0857679 0.0111 1.01185 
0.0934117 0.0144021 1.00783 
0.100384 0.0162329 1.00869 
0.0987959 0.015665 1.00898 
0.0992811 0.0184201 1.00899 
0.0994962 0.0226533 1.00911 
0.0974814 0.0257687 1.00916 
0.0952618 0.0271439 1.00923 
0.0923822 0.0283146 1.00951 
0.0994841 0.0314348 1.00862 
0.0938527 0.034253 1.00923 
0.093245 0.0398109 1.0109 
0.100478 0.0473405 1.00821 
0.0945692 0.057388 1.00854 
0.0913337 0.0747106 1.00792 
0.08501 0.0971163 1.00713 
0.0773385 0.129586 1.00461 
0.071653 0.171895 1.00102 
0.0639604 0.236471 0.985127 
0.0537758 0.324904 0.962845 
0.0413695 0.439506 0.915528 
0.0287357 0.577497 0.834076 
0.0187145 0.728003 0.70083 
0.00999533 0.867718 0.510171 
0.00609986 0.965606 0.268549 
0.00249142 0.999249 -0.0215682 
2.12499e-05 0.960336 -0.285356 
-0.00611485 0.859432 -0.524795 
-0.0132363 0.719965 -0.709735 
-0.0262185 0.56753 -0.841482 
-0.0383764 0.430621 -0.920098 
-0.0509199 0.320461 -0.963508 
-0.0660043 0.235126 -0.987315 
-0.0791684 0.173138 -0.997752 
-0.0833826 0.131508 -1.00358 
-0.0924475 0.100929 -1.00378 
-0.0891568 0.0769786 -1.00956 
-0.0910112 0.0596184 -1.00866 
-0.0962865 0.0488665 -1.00697 
-0.0952781 0.0408288 -1.01044 
-0.0936135 0.0338064 -1.00775 
-0.0965998 0.0301682 -1.00871 
-0.0965396 0.0282281 -1.00919 
-0.097687 0.0282013 -1.00891 
-0.0953472 0.0266691 -1.00943 
-0.0955807 0.0231255 -1.01125 
-0.0961117 0.0188242 -1.00956 
-0.0967143 0.0155623 -1.00774 
-0.0908768 0.0140956 -1.0115 
-0.0950534 0.0136755 -1.00778 
-0.0941298 0.0132579 -1.01101 
-0.0938773 0.0123148 -1.00974 
-0.0913551 0.0099016 -1.00988 
-0.0879051 0.00574982 -1.01039 
-0.0928648 0.00163178 -1.01018 
-0.10124 -0.00133772 -1.0095 
-0.0924669 -0.00397208 -1.01043 
-0.0879846 -0.010813 -1.01112 
-0.0939981 -0.0179945 -1.01068 
-0.0861391 -0.0296302 -1.01132 
-0.0908121 -0.0418244 -1.00932 
-0.0805853 -0.0648106 -1.01113 
-0.0665345 -0.100018 -1.01098 
-0.0641169 -0.142948 -1.00336 
-0.0479526 -0.208825 -0.980667 
0.00971471 -0.216409 0.97963 
0.0343569 -0.152106 1.00365 
0.0422251 -0.105579 1.00844 
0.0504224 -0.0722349 1.01472 
0.0559376 -0.0489003 1.01221 
0.0616759 -0.0298632 1.01518 
0.0633401 -0.0167331 1.01366 
0.06482 -0.00861193 1.01314 
0.0677973 -0.00227376 1.01289 
0.0658328 0.00178512 1.01279 
0.0639509 0.00307049 1.01263 
0.0689707 0.00473314 1.01221 
0.0647853 0.00722546 1.01223 
0.0663829 0.00914357 1.01224 
0.0607987 0.0114567 1.01059 
0.0651235 0.0133201 1.01358 
0.070944 0.0136953 1.01156 
0.0706318 0.0140465 1.01168 
0.0714223 0.017244 1.0118 
0.0716395 0.0220048 1.0117 
0.0694195 0.025284 1.0116 
0.0674768 0.0259888 1.01151 
0.0654231 0.0264621 1.01151 
0.0701468 0.0293636 1.0112 
0.0660904 0.0335535 1.01144 
0.0655954 0.0394635 1.00969 
0.0712344 0.0472695 1.01084 
0.0673285 0.0585699 1.01091 
0.0647277 0.0745167 1.01216 
0.0603163 0.100015 1.00935 
0.0522112 0.134438 1.00662 
0.0480138 0.183398 1.00068 
0.0431854 0.251524 0.986018 
0.0337285 0.345391 0.958624 
0.0241567 0.461547 0.906796 
0.0144434 0.596537 0.822615 
0.00953992 0.727278 0.702907 
0.00517077 0.866561 0.511763 
0.00420105 0.971548 0.246402 
0.00195471 1.00025 0.0216706 
0.00137046 0.972858 -0.242346 
-0.000164146 0.879024 -0.490453 
-0.00458033 0.742948 -0.687478 
-0.0125706 0.591979 -0.826255 
-0.0221203 0.450257 -0.913213 
-0.0316529 0.334327 -0.961438 
-0.0430543 0.244279 -0.988261 
-0.0542281 0.177504 -1.00015 
-0.0578216 0.131946 -1.00644 
-0.0651778 0.101579 -1.00861 
-0.0623744 0.0801109 -1.00863 
-0.064832 0.0617047 -1.01115 
-0.0679226 0.0487934 -1.01277 
-0.0677055 0.0402413 -1.00998 
-0.0659732 0.0335254 -1.01306 
-0.0684746 0.0283855 -1.01172 
-0.0679246 0.026791 -1.01127 
-0.0695843 0.0266244 -1.01146 
-0.068383 0.0260357 -1.01149 
-0.0689623 0.0229429 -1.01009 
-0.0679418 0.0174898 -1.0121 
-0.0682 0.0136957 -1.01333 
-0.0649623 0.012701 -1.01033 
-0.0659201 0.0133541 -1.01321 
-0.0654211 0.0127596 -1.01186 
-0.0664527 0.01149 -1.01175 
-0.0656905 0.00909946 -1.012 
-0.0638265 0.00563023 -1.01239 
-0.0630151 0.00247025 -1.01245 
-0.0709641 -0.000872157 -1.01215 
-0.0655819 -0.00494975 -1.01273 
-0.0608549 -0.0117468 -1.01317 
-0.0645091 -0.0190458 -1.01318 
-0.0592253 -0.0318984 -1.01348 
-0.0634993 -0.048569 -1.01297 
-0.050721 -0.0732981 -1.0129 
-0.0409921 -0.11031 -1.00974 
-0.0415267 -0.156908 -1.0023 
-0.0282968 -0.219389 -0.978256 
0.00190589 -0.231481 0.974628 
0.0199567 -0.166125 1.00345 
0.0256225 -0.118036 1.00937 
0.0345893 -0.0806276 1.01295 
0.0384698 -0.0537791 1.01359 
0.0455001 -0.0358264 1.01406 
0.0448844 -0.0208442 1.01376 
0.0462343 -0.0112649 1.01196 
0.0477002 -0.00475794 1.01512 
0.0460749 0.000655811 1.01324 
0.0464299 0.00242716 1.01111 
0.0471046 0.00562322 1.0143 
0.0462619 0.00845416 1.01108 
0.0466578 0.00974946 1.01386 
0.0442026 0.0113746 1.01244 
0.0473497 0.0116906 1.01216 
0.0503681 0.0110301 1.01232 
0.0513404 0.0118775 1.01245 
0.051729 0.0168277 1.01248 
0.0515743 0.0222769 1.01225 
0.0499765 0.0247215 1.01185 
0.0487636 0.0242315 1.01172 
0.0479036 0.0246202 1.01181 
0.0493569 0.0279008 1.01178 
0.0479886 0.0336078 1.01177 
0.0478051 0.0411314 1.01167 
0.050226 0.049821 1.01164 
0.0473919 0.0638755 1.01154 
0.0459553 0.0818553 1.01078 
0.0401649 0.106705 1.00801 
0.0342271 0.141571 1.00886 
0.0294999 0.192343 0.998495 
0.0267987 0.256033 0.989043 
0.0194806 0.35526 0.953188 
0.0115214 0.483088 0.896703 
0.00528137 0.63731 0.790876 
0.00199229 0.800681 0.619053 
-0.00138245 0.895135 0.458819 
0.00225036 0.950604 0.321264 
-5.76678e-05 1.00083 -0.0180554 
0.00103161 0.963187 -0.275342 
-0.00203615 0.875573 -0.497696 
-0.00104744 0.753856 -0.674186 
-0.00522793 0.600499 -0.824435 
-0.0112781 0.453348 -0.913096 
-0.0188475 0.338145 -0.962031 
-0.0262169 0.247876 -0.989312 
-0.0358432 0.180606 -1.00168 
-0.0382577 0.134419 -1.00808 
-0.0448677 0.100096 -1.01208 
-0.0447249 0.0760275 -1.01144 
-0.0477052 0.058563 -1.01179 
-0.0482488 0.0461978 -1.01196 
-0.0478032 0.0378378 -1.01188 
-0.0478127 0.0309161 -1.01213 
-0.0484674 0.0264212 -1.01191 
-0.0492931 0.0245455 -1.01186 
-0.0505951 0.0252262 -1.01168 
-0.0506319 0.0245337 -1.01184 
-0.0511157 0.0206196 -1.0122 
-0.0499024 0.0149987 -1.01236 
-0.0504428 0.011137 -1.01224 
-0.0474898 0.0108899 -1.01203 
-0.0471692 0.0119579 -1.012 
-0.0463446 0.0121534 -1.01041 
-0.0471853 0.0105291 -1.01249 
-0.0465017 0.00838552 -1.01222 
-0.0460953 0.00525212 -1.0125 
-0.0475777 0.000939665 -1.01265 
-0.0514953 -0.00132569 -1.01276 
-0.0476994 -0.00564098 -1.0131 
-0.0454763 -0.0130616 -1.01343 
-0.0489977 -0.0221047 -1.01363 
-0.0425451 -0.0374957 -1.01397 
-0.0447461 -0.0538564 -1.01348 
-0.0361322 -0.0815804 -1.01252 
-0.0290153 -0.12024 -1.00875 
-0.0261701 -0.167315 -1.001 
-0.0157303 -0.22715 -0.976294 
0.0208332 -0.239084 0.972216 
0.0148848 -0.191347 0.993276 
0.0201124 -0.147038 1.00518 
0.0228881 -0.0957898 1.01134 
0.0246705 -0.0686152 1.01312 
0.0294199 -0.0440477 1.01394 
0.0322357 -0.0272779 1.01407 
0.0334956 -0.0166919 1.01357 
0.0348896 -0.00936693 1.01357 
0.0343792 -0.00214513 1.01325 
0.0353541 0.00167983 1.01292 
0.0357858 0.00459245 1.01275 
0.0349567 0.00836481 1.01255 
0.0348998 0.0103419 1.01239 
0.034638 0.0114287 1.01225 
0.0341019 0.0113321 1.01213 
0.0364979 0.00967255 1.01219 
0.0385525 0.00967412 1.01248 
0.0388353 0.0142922 1.01262 
0.0387611 0.0206623 1.01238 
0.0390548 0.0244176 1.01188 
0.0381013 0.024452 1.01162 
0.0366329 0.0239668 1.01163 
0.0360167 0.0259189 1.0117 
0.0369619 0.0302463 1.01173 
0.0356573 0.0373073 1.01175 
0.0353192 0.0448273 1.01169 
0.035934 0.0557718 1.01169 
0.0337137 0.0709715 1.01147 
0.0302675 0.0894191 1.01119 
0.0259055 0.120037 1.00976 
0.0206699 0.166727 1.00523 
0.0155288 0.238017 0.992254 
0.0127954 0.317601 0.971221 
0.00687383 0.441059 0.920925 
0.00469194 0.563495 0.846337 
0.00208813 0.70758 0.732192 
-0.000542562 0.8337 0.560776 
-0.00321849 0.986889 0.180671 
-0.00658902 0.999441 -0.0281472 
-0.00568176 0.976166 -0.228726 
-0.00278986 0.929562 -0.381437 
-0.00586238 0.845156 -0.558315 
-0.00504666 0.638521 -0.785368 
-0.00601103 0.482384 -0.898154 
-0.00957803 0.355824 -0.956557 
-0.0131239 0.265423 -0.986151 
-0.0218186 0.193228 -1.00087 
-0.0237805 0.144204 -1.00792 
-0.0297613 0.107434 -1.00891 
-0.0324203 0.0815477 -1.01166 
-0.0344109 0.0619386 -1.01224 
-0.0353185 0.0489888 -1.01223 
-0.0358668 0.0396891 -1.01194 
-0.0353643 0.0326148 -1.01206 
-0.0364039 0.0269052 -1.01202 
-0.0374622 0.0240854 -1.01166 
-0.038155 0.0244538 -1.01168 
-0.0389392 0.0248587 -1.0118 
-0.0392901 0.0222796 -1.01208 
-0.0387373 0.016489 -1.01253 
-0.0386056 0.0105884 -1.01235 
-0.03692 0.00926691 -1.01222 
-0.035249 0.0111428 -1.01218 
-0.0347169 0.0118794 -1.01233 
-0.035945 0.0107529 -1.01374 
-0.0345059 0.00896703 -1.01266 
-0.0355585 0.00568405 -1.0128 
-0.0358965 0.00147139 -1.01288 
-0.0381532 -0.00159082 -1.01316 
-0.0353465 -0.00714414 -1.01342 
-0.0325086 -0.0161663 -1.01371 
-0.0345062 -0.0239441 -1.0139 
-0.0306689 -0.0406967 -1.01376 
-0.0315286 -0.0586499 -1.01332 
-0.0240265 -0.0857028 -1.01205 
-0.017281 -0.122131 -1.00839 
-0.0153984 -0.169054 -1.00096 
-0.00829146 -0.230952 -0.975348 
0.023334 -0.237178 0.973287 
0.0165407 -0.174934 0.999529 
0.0159 -0.122649 1.00834 
0.0166398 -0.086378 1.01203 
0.0200392 -0.0589816 1.01354 
0.0218623 -0.0391303 1.01553 
0.0231122 -0.024013 1.01407 
0.0250518 -0.0153568 1.0137 
0.0259022 -0.00686361 1.0135 
0.0271407 -0.00129738 1.01308 
0.0280883 0.00197699 1.01288 
0.0281263 0.00706131 1.01272 
0.0285293 0.00963703 1.01244 
0.0278075 0.0117093 1.01222 
0.0282402 0.0121636 1.01206 
0.0287834 0.0100694 1.01191 
0.0296409 0.0084249 1.01224 
0.0309085 0.0105948 1.01252 
0.0313222 0.0171378 1.01247 
0.0314147 0.0231298 1.012 
0.0308798 0.0246769 1.01158 
0.0305743 0.0234315 1.01145 
0.0299245 0.0236909 1.01156 
0.0290605 0.0272693 1.01164 
0.0295925 0.0326647 1.01166 
0.0280726 0.0398729 1.01155 
0.0268832 0.0491295 1.01205 
0.0267896 0.0625437 1.01025 
0.022977 0.0779184 1.01365 
0.0202389 0.104144 1.01169 
0.0151771 0.15037 1.00764 
0.0100664 0.226769 0.995702 
0.00621153 0.343012 0.961995 
0.00358769 0.459671 0.909181 
0.00326119 0.62923 0.799848 
0.00291061 0.741763 0.684519 
0.00182733 0.907127 0.440367 
0.00135978 0.954747 0.312926 
0.00243315 0.960466 0.293371 
-0.00277805 0.985409 0.144725 
-0.00214896 0.995115 -0.079554 
-0.00700388 0.920769 -0.389277 
-0.00658034 0.813155 -0.586048 
-0.00850538 0.737801 -0.692268 
-0.00668606 0.582125 -0.836707 
-0.00505642 0.433762 -0.923659 
-0.00671912 0.297879 -0.976647 
-0.0126794 0.201113 -1.00008 
-0.0157863 0.141236 -1.0093 
-0.0213059 0.101057 -1.01388 
-0.0247532 0.0740889 -1.01082 
-0.0259542 0.0570794 -1.01398 
-0.0265972 0.0452019 -1.01224 
-0.0278259 0.0368831 -1.0118 
-0.0284702 0.0307429 -1.01177 
-0.0295313 0.0257233 -1.01173 
-0.0298202 0.0236995 -1.01157 
-0.0310507 0.0239792 -1.01156 
-0.0318106 0.0247594 -1.01181 
-0.0317557 0.0219446 -1.01222 
-0.0316208 0.0148284 -1.01255 
-0.0311621 0.00908191 -1.01239 
-0.0298012 0.00865624 -1.0121 
-0.0280714 0.0111886 -1.01198 
-0.0285473 0.0120075 -1.01215 
-0.0288314 0.0107108 -1.01096 
-0.0283418 0.00909923 -1.01261 
-0.027781 0.00547568 -1.01282 
-0.0268321 0.000674171 -1.01313 
-0.0291283 -0.00182461 -1.01352 
-0.0266822 -0.00775005 -1.01373 
-0.0243952 -0.0177546 -1.01392 
-0.0245039 -0.0259185 -1.01415 
-0.0211598 -0.0434063 -1.01389 
-0.021114 -0.0635303 -1.01322 
-0.0145319 -0.0901594 -1.01172 
-0.0101396 -0.127491 -1.00758 
-0.00944759 -0.174203 -0.999797 
-0.00468409 -0.23422 -0.974238 
0.0140053 -0.235745 0.973689 
0.0132332 -0.176681 1.001 
0.0116096 -0.128043 1.00735 
0.0113025 -0.089879 1.01127 
0.0119094 -0.0635448 1.01287 
0.0130296 -0.0443054 1.01194 
0.0140832 -0.0286649 1.01204 
0.0162847 -0.0194881 1.01367 
0.0169758 -0.00947337 1.01355 
0.0189362 -0.00305481 1.01342 
0.0220824 0.000676372 1.01302 
0.0227126 0.00535139 1.01289 
0.0233755 0.00994314 1.0125 
0.0235895 0.0117271 1.01231 
0.0246119 0.0127101 1.01195 
0.0254208 0.0112559 1.01183 
0.0260032 0.00842591 1.01203 
0.027195 0.0101042 1.01235 
0.0269997 0.0163809 1.01246 
0.0268843 0.0229123 1.01213 
0.0270041 0.0247527 1.01161 
0.0269691 0.0231457 1.01137 
0.026604 0.0228991 1.01146 
0.025465 0.0260748 1.01155 
0.024904 0.0316421 1.01147 
0.024176 0.0371799 1.01167 
0.0216886 0.0447934 1.01338 
0.0205799 0.0581535 1.01215 
0.0164869 0.0746098 1.01114 
0.0135247 0.104292 1.01088 
0.0098767 0.144258 1.00871 
0.00564624 0.218047 0.997569 
0.0031096 0.339212 0.965776 
0.00323693 0.511262 0.882435 
0.00565733 0.677561 0.755752 
0.00303069 0.790816 0.625043 
-0.00234485 0.961518 0.276611 
-0.00818796 0.99557 0.0954994 
-0.00700547 0.999414 0.0528024 
-0.00619162 1.00236 0.0105811 
-0.00638821 1.00303 -0.045226 
-0.00584751 0.997086 -0.101281 
-0.00451481 0.928757 -0.342308 
-0.0116606 0.684844 -0.760182 
-0.00877497 0.586661 -0.828271 
-0.00515932 0.486871 -0.895471 
-0.0032342 0.358405 -0.954947 
-0.00521231 0.241213 -0.991927 
-0.00958585 0.157806 -1.00714 
-0.0134135 0.104341 -1.01252 
-0.0179641 0.0755532 -1.01293 
-0.0189613 0.057487 -1.01267 
-0.0206517 0.0467782 -1.01215 
-0.0221081 0.0389245 -1.01171 
-0.0240337 0.0323324 -1.01162 
-0.025175 0.0267503 -1.01149 
-0.0259653 0.0236325 -1.01016 
-0.026239 0.0234653 -1.01272 
-0.0270815 0.0248631 -1.01021 
-0.0269448 0.023592 -1.01201 
-0.0273837 0.017702 -1.01235 
-0.02689 0.0108628 -1.01246 
-0.0271525 0.00815641 -1.01228 
-0.0254774 0.0102923 -1.01203 
-0.0245389 0.0126024 -1.0122 
-0.0231253 0.0118558 -1.01403 
-0.0233695 0.00939311 -1.01275 
-0.0208657 0.0051573 -1.01311 
-0.0197425 -0.000361007 -1.0134 
-0.0199258 -0.00383353 -1.01356 
-0.0169842 -0.0100708 -1.01378 
-0.0141805 -0.020394 -1.01376 
-0.0150559 -0.0287699 -1.01406 
-0.0116709 -0.044175 -1.01377 
-0.0128716 -0.0631473 -1.01316 
-0.010083 -0.0904828 -1.01143 
-0.00710991 -0.127745 -1.00732 
-0.00547547 -0.180619 -0.998314 
-0.00112894 -0.239923 -0.972882 
0.00973732 -0.235783 0.973752 
0.00960427 -0.179509 0.996482 
0.0081422 -0.131322 1.00663 
0.00691396 -0.0943741 1.01083 
0.00640651 -0.064944 1.01259 
0.0066009 -0.0448258 1.01336 
0.00753054 -0.0287862 1.01531 
0.00891489 -0.0178842 1.01361 
0.00803252 -0.00973011 1.01357 
0.0103995 -0.00491026 1.01487 
0.0132497 -6.70207e-05 1.01183 
0.0136699 0.00573755 1.01445 
0.0149362 0.0100446 1.01284 
0.0169329 0.0122296 1.01238 
0.0181869 0.013242 1.01221 
0.0196333 0.0106418 1.01206 
0.0195775 0.00877568 1.01234 
0.0200396 0.0116871 1.01264 
0.0200147 0.0182828 1.01258 
0.0197434 0.0235326 1.01215 
0.0202624 0.0238104 1.01168 
0.0206016 0.0214748 1.01153 
0.0200455 0.0217557 1.01174 
0.0188005 0.025857 1.01184 
0.0171739 0.0304381 1.01168 
0.0171318 0.0360917 1.01047 
0.0129469 0.0399636 1.01222 
0.0146573 0.0496067 1.01306 
0.0103727 0.0633893 1.01475 
0.00809218 0.0912515 1.01379 
0.00497456 0.137952 1.01013 
0.00243326 0.217562 0.997976 