# vtk DataFile Version 3.0 
Exported using Morpho https://github.com/Morpho-lang/morpho 
ASCII 
DATASET UNSTRUCTURED_GRID 

POINTS 1978 float 
-12 -4 -8.0097e-17 
-11.6614 -4 5.03522e-16 
-11.3172 -4 5.76237e-16 
-10.9849 -4 4.70812e-16 
-10.6752 -4 3.98432e-16 
-10.3177 -4 3.42688e-16 
-9.99628 -4 2.11904e-16 
-9.6814 -4 1.36261e-16 
-9.3512 -4 8.04393e-17 
-9.01983 -4 3.00884e-17 
-8.68286 -4 -1.19077e-17 
-8.3419 -4 -4.29988e-17 
-8.02366 -4 -6.20575e-17 
-7.73897 -4 -6.9589e-17 
-7.48117 -4 -8.22247e-17 
-7.19223 -4 -1.10903e-16 
-6.89192 -4 -1.51787e-16 
-6.59458 -4 -8.34132e-17 
-6.29411 -4 -2.00364e-16 
-5.98061 -4 -1.95939e-16 
-5.6693 -4 -2.08432e-16 
-5.36196 -4 -2.3582e-16 
-5.06231 -4 -1.35752e-16 
-4.77064 -4 -4.131e-16 
-4.44583 -4 -3.88858e-16 
-4.13852 -4 -4.35129e-16 
-3.80963 -4 -5.54872e-16 
-3.49375 -4 -6.49959e-16 
-3.19426 -4 -7.45333e-16 
-2.89513 -4 -8.26875e-16 
-2.61824 -4 -8.46249e-16 
-2.34978 -4 -8.968e-16 
-2.08388 -4 -1.12089e-15 
-1.79348 -4 -1.17788e-15 
-1.50565 -4 -1.10987e-15 
-1.21599 -4 -8.66068e-16 
-0.928748 -4 -1.00705e-15 
-0.620683 -4 -3.00097e-16 
-0.28444 -4 -6.4936e-16 
0.0577706 -4 2.89685e-15 
0.330152 -4 -4.31361e-15 
0.615975 -4 -1.42509e-14 
0.887858 -4 1.47392e-14 
1.16221 -4 4.88732e-16 
1.4284 -4 8.7521e-16 
1.71681 -4 9.75756e-16 
1.99861 -4 9.6361e-16 
2.2882 -4 1.33726e-15 
2.62166 -4 1.02444e-15 
2.91946 -4 9.89987e-16 
3.2611 -4 7.34034e-16 
3.54451 -4 5.55697e-16 
3.84511 -4 5.12246e-16 
4.16404 -4 4.21e-16 
4.464 -4 3.33075e-16 
4.75922 -4 3.03069e-16 
5.07547 -4 2.73032e-16 
5.3873 -4 2.39278e-16 
5.69953 -4 2.05493e-16 
5.99784 -4 1.80583e-16 
6.29761 -4 1.58272e-16 
6.58698 -4 1.51118e-16 
6.8919 -4 1.29281e-16 
7.17047 -4 1.13826e-16 
7.4776 -4 9.8139e-17 
7.76846 -4 7.91795e-17 
8.06535 -4 5.93398e-17 
8.35145 -4 3.85019e-17 
8.63568 -4 1.22231e-17 
8.91663 -4 -2.66451e-17 
9.28086 -4 -7.8861e-17 
9.61729 -4 -1.2246e-16 
9.9058 -4 -2.35224e-16 
10.2809 -4 -3.31291e-16 
10.604 -4 -5.00878e-16 
11.0146 -4 -5.28009e-16 
11.3252 -4 -5.42503e-16 
11.6498 -4 -4.77319e-16 
12 -4 6.46868e-17 
-12 -3.68301 5.02636e-18 
-11.6633 -3.68403 -4.5268e-16 
-11.3452 -3.65135 -4.56403e-16 
-11.0249 -3.66429 -4.49869e-16 
-10.6994 -3.64175 -3.48295e-16 
-10.3833 -3.68522 -3.59641e-16 
-10.0465 -3.65755 -2.35803e-16 
-9.7256 -3.65712 -1.65454e-16 
-9.4014 -3.66946 -1.05918e-16 
-9.07118 -3.66671 -4.87535e-17 
-8.7477 -3.66976 -1.07521e-17 
-8.41473 -3.68282 1.94944e-17 
-8.08652 -3.67135 4.30845e-17 
-7.77415 -3.644 5.95896e-17 
-7.4871 -3.61903 6.87907e-17 
-7.21115 -3.65945 8.42172e-17 
-6.90537 -3.66853 2.0049e-16 
-6.59673 -3.65767 -5.42038e-17 
-6.28432 -3.66812 2.78683e-16 
-5.96897 -3.66544 1.6524e-16 
-5.6572 -3.66157 1.66724e-16 
-5.35655 -3.65596 2.87786e-16 
-5.06203 -3.65209 -1.52704e-16 
-4.74386 -3.68395 7.26427e-16 
-4.44624 -3.6629 3.19741e-16 
-4.14802 -3.67158 3.54937e-16 
-3.83652 -3.69183 5.47582e-16 
-3.5131 -3.68453 7.76029e-16 
-3.19956 -3.67269 8.94843e-16 
-2.90055 -3.66154 1.06353e-15 
-2.61937 -3.64693 1.01289e-15 
-2.34208 -3.63848 1.17353e-15 
-2.03941 -3.67625 1.8206e-15 
-1.74081 -3.67106 1.62553e-15 
-1.44341 -3.65067 1.51138e-15 
-1.14335 -3.6392 6.85119e-16 
-0.832383 -3.64609 1.19914e-15 
-0.548765 -3.57429 -2.3785e-15 
-0.277625 -3.66394 3.26316e-16 
0.0173198 -3.60918 -5.17157e-15 
0.30186 -3.54874 6.77684e-15 
0.596842 -3.60839 1.79047e-14 
0.877181 -3.5925 -1.62386e-14 
1.16586 -3.62061 5.14398e-17 
1.46889 -3.6541 -1.43884e-15 
1.76834 -3.6538 -7.73838e-16 
2.06254 -3.6597 -1.5627e-15 
2.39956 -3.72019 -1.23122e-15 
2.7098 -3.67625 -1.21396e-15 
3.03779 -3.71338 -1.30056e-15 
3.34133 -3.65117 -7.02519e-16 
3.63649 -3.66738 -6.21013e-16 
3.94519 -3.68412 -5.41697e-16 
4.2467 -3.66214 -4.00553e-16 
4.53981 -3.65405 -3.20353e-16 
4.8451 -3.6741 -2.97845e-16 
5.15384 -3.66779 -2.45416e-16 
5.46358 -3.66699 -2.15397e-16 
5.76369 -3.65299 -1.79483e-16 
6.06526 -3.6567 -1.65295e-16 
6.35784 -3.64357 -1.34448e-16 
6.66202 -3.6655 -1.37445e-16 
6.95013 -3.63565 -1.00772e-16 
7.25289 -3.66951 -1.04681e-16 
7.5511 -3.65143 -7.87209e-17 
7.85131 -3.65888 -6.35228e-17 
8.14453 -3.64562 -3.51904e-17 
8.43252 -3.64449 -1.23981e-17 
8.71876 -3.62959 1.79824e-17 
9.04601 -3.7074 6.77273e-17 
9.38706 -3.67925 1.23696e-16 
9.69051 -3.62538 1.51785e-16 
10.0276 -3.70888 3.15421e-16 
10.3572 -3.65229 2.97591e-16 
10.7202 -3.72834 5.65323e-16 
11.0272 -3.6343 3.19156e-16 
11.3412 -3.64308 4.7582e-16 
11.6771 -3.68239 4.31865e-16 
12 -3.65929 2.37423e-18 
-12 -3.36344 1.31676e-17 
-11.6664 -3.3502 -8.06171e-17 
-11.3275 -3.3109 -8.54679e-17 
-10.9992 -3.32377 -1.14832e-16 
-10.6662 -3.30497 -1.47948e-16 
-10.3428 -3.34806 -1.08157e-16 
-10.0163 -3.31895 -7.42011e-17 
-9.70583 -3.30863 -6.17905e-17 
-9.39633 -3.33797 -4.94095e-17 
-9.08666 -3.32022 -5.03546e-17 
-8.77828 -3.32624 -2.13434e-17 
-8.46504 -3.35481 -9.85383e-19 
-8.14767 -3.3434 1.02641e-17 
-7.84183 -3.31505 1.8059e-17 
-7.54172 -3.26797 2.64585e-17 
-7.24672 -3.2937 3.42257e-17 
-6.95898 -3.33774 3.66106e-17 
-6.65503 -3.32896 5.4771e-17 
-6.34475 -3.33546 4.88056e-17 
-6.0334 -3.33347 4.75835e-17 
-5.72219 -3.32742 7.56103e-17 
-5.41567 -3.31404 9.04364e-17 
-5.11879 -3.31032 1.03336e-16 
-4.81788 -3.35686 1.55383e-16 
-4.51574 -3.32946 1.0225e-16 
-4.21531 -3.33478 1.85344e-16 
-3.90986 -3.36705 2.63064e-16 
-3.59872 -3.37388 3.53135e-16 
-3.28433 -3.35829 3.56492e-16 
-2.97302 -3.34328 4.44282e-16 
-2.66263 -3.30128 5.17395e-16 
-2.37153 -3.28342 6.60308e-16 
-2.07423 -3.34787 5.78025e-16 
-1.76553 -3.33731 7.62209e-16 
-1.45201 -3.30544 -5.47735e-17 
-1.13054 -3.29234 2.16418e-16 
-0.844114 -3.24908 -6.63349e-16 
-0.557277 -3.16822 -6.97514e-16 
-0.250011 -3.25083 -6.3219e-16 
0.0736313 -3.23099 3.67114e-15 
0.260647 -2.98075 -3.00588e-15 
0.515147 -3.21604 -5.83179e-16 
0.818194 -3.17338 2.16177e-15 
1.11904 -3.2587 -6.99477e-16 
1.43005 -3.30585 -5.96185e-16 
1.73762 -3.32059 -2.55694e-15 
2.04698 -3.31102 2.39868e-16 
2.34684 -3.41805 -1.93185e-15 
2.66414 -3.36379 1.50179e-17 
2.98141 -3.40174 -3.43109e-16 
3.28527 -3.33399 -3.6918e-16 
3.59825 -3.32769 -2.7738e-16 
3.89519 -3.35553 -2.25062e-16 
4.19353 -3.33326 -1.78495e-16 
4.49376 -3.3121 -1.40681e-16 
4.79086 -3.33764 -1.18945e-16 
5.09123 -3.33802 -9.69051e-17 
5.40019 -3.33631 -8.15424e-17 
5.70733 -3.31374 -6.90373e-17 
6.0113 -3.31747 -6.17943e-17 
6.31286 -3.29586 -4.88129e-17 
6.61508 -3.32704 -4.69131e-17 
6.91452 -3.28761 -3.71397e-17 
7.21584 -3.33096 -3.07065e-17 
7.51898 -3.31294 -2.45147e-17 
7.82393 -3.32122 -1.99743e-17 
8.12844 -3.2994 -1.33636e-17 
8.42621 -3.28745 4.91469e-18 
8.74727 -3.30627 2.40425e-17 
9.06717 -3.3902 3.203e-17 
9.37849 -3.33215 4.37383e-17 
9.69765 -3.28468 5.27964e-17 
10.0107 -3.38234 7.6716e-17 
10.3057 -3.29801 1.05089e-16 
10.6338 -3.40166 1.32772e-16 
10.9766 -3.32245 1.36827e-16 
11.3336 -3.29156 9.59609e-17 
11.6672 -3.34763 6.81637e-17 
12 -3.30964 -1.31824e-17 
-12 -3.03979 9.40379e-18 
-11.642 -3.03135 -1.19072e-18 
-11.2927 -2.97506 -1.92497e-17 
-10.9548 -2.99057 -1.40108e-17 
-10.6168 -2.97142 -6.35822e-17 
-10.2898 -3.01373 -6.87796e-17 
-9.96836 -2.97273 -4.83855e-17 
-9.64425 -2.97282 -4.2912e-17 
-9.33458 -2.99356 -5.12161e-17 
-9.02145 -2.97807 -2.94085e-17 
-8.72311 -2.96369 -2.07558e-17 
-8.43946 -3.02053 -9.77464e-18 
-8.13899 -2.9978 1.04008e-18 
-7.83803 -2.97356 4.45074e-18 
-7.5276 -2.93958 3.5529e-18 
-7.22037 -2.9581 1.20653e-17 
-6.92147 -3.00097 2.16939e-17 
-6.61271 -3.00041 1.72142e-17 
-6.30534 -3.00644 2.76687e-17 
-5.9989 -3.00081 3.35666e-17 
-5.69496 -2.99131 3.60298e-17 
-5.39621 -2.97331 4.81886e-17 
-5.09721 -2.97666 3.8939e-17 
-4.80179 -3.02526 6.10148e-17 
-4.50121 -2.99946 9.10394e-17 
-4.20627 -3.00061 9.78602e-17 
-3.91071 -3.04408 1.44743e-16 
-3.60113 -3.05417 1.5329e-16 
-3.29267 -3.03618 2.54401e-16 
-2.97025 -3.0269 3.24684e-16 
-2.67705 -2.95233 2.15636e-16 
-2.35884 -2.94356 3.85187e-16 
-2.05679 -3.00792 2.37536e-16 
-1.73905 -3.00264 -3.00441e-16 
-1.40145 -2.96373 -8.68411e-17 
-1.10822 -2.89299 -5.74744e-16 
-0.818358 -2.83301 -2.49608e-16 
-0.516884 -2.73825 -2.34247e-15 
-0.250238 -2.8755 2.23566e-15 
-0.0355284 -2.73181 -4.37834e-16 
0.2795 -2.62215 -4.47707e-16 
0.591156 -2.79962 3.06038e-14 
0.85584 -2.70056 -3.26435e-14 
1.10917 -2.8955 1.21558e-16 
1.42799 -2.95683 9.47696e-17 
1.74508 -2.98212 2.01681e-15 
2.0545 -2.96494 -1.54133e-15 
2.35952 -3.09118 3.77181e-16 
2.65869 -3.02332 -4.76154e-16 
2.95765 -3.07878 -4.27019e-16 
3.26015 -3.0053 -2.49305e-16 
3.57149 -3.00757 -1.6596e-16 
3.88584 -3.01977 -1.35288e-16 
4.18575 -3.00214 -1.04561e-16 
4.48872 -2.98532 -7.67268e-17 
4.7913 -3.0017 -6.17683e-17 
5.08763 -3.00218 -5.17339e-17 
5.38543 -3.00749 -4.27692e-17 
5.68596 -2.98078 -3.36402e-17 
5.99058 -2.98182 -2.51774e-17 
6.29427 -2.96147 -2.31681e-17 
6.59897 -2.98824 -1.85883e-17 
6.91433 -2.96539 -1.61101e-17 
7.22834 -2.99467 -1.4512e-17 
7.52863 -2.97681 -8.6273e-18 
7.83283 -2.98646 -3.32024e-18 
8.1285 -2.95536 2.56243e-18 
8.43368 -2.95245 6.30067e-18 
8.73643 -2.97894 1.49045e-17 
9.05626 -3.05393 3.44867e-17 
9.37584 -3.00076 3.64333e-17 
9.66411 -2.92626 3.16829e-17 
9.97465 -3.02654 3.71703e-17 
10.3025 -2.96741 5.01542e-17 
10.6355 -3.07217 9.26551e-17 
10.9852 -3.00503 2.34683e-17 
11.3119 -2.95136 -3.27934e-18 
11.6505 -3.01353 7.67536e-21 
12 -2.98821 -1.90978e-17 
-12 -2.72854 8.36889e-18 
-11.6472 -2.71293 3.53791e-17 
-11.3238 -2.63364 3.53721e-17 
-10.9859 -2.65732 5.98469e-17 
-10.6532 -2.64426 3.08281e-18 
-10.3138 -2.67816 -1.73321e-17 
-9.97858 -2.65227 1.05741e-17 
-9.64606 -2.64521 7.81556e-18 
-9.32217 -2.65408 -5.52942e-18 
-9.0164 -2.63125 -1.05981e-17 
-8.69536 -2.6395 -7.22176e-18 
-8.37534 -2.66801 -6.38882e-18 
-8.07287 -2.65245 -2.95037e-18 
-7.76398 -2.64157 -7.14625e-19 
-7.44235 -2.62018 -4.14188e-18 
-7.1335 -2.63913 -1.01011e-18 
-6.83531 -2.67865 4.10693e-18 
-6.5267 -2.67334 3.01411e-18 
-6.22431 -2.67565 2.81848e-18 
-5.92191 -2.66753 4.299e-18 
[...]
POINT_DATA 1978 
VECTORS vectors float
-2.53086e-05 -0.000846509 1 
0.000146759 -0.0496439 0.998767 
-3.12733e-05 -0.0524002 0.998626 
5.00042e-05 -0.0449814 0.998988 
5.23203e-07 -0.0369028 0.999319 
-6.38733e-06 -0.0277126 0.999616 
3.46798e-05 -0.01929 0.999814 
2.03318e-05 -0.0122364 0.999925 
7.74075e-06 -0.00674765 0.999977 
1.03733e-05 -0.00256219 0.999997 
1.98293e-06 0.000774588 1 
9.15815e-06 0.00332359 0.999994 
4.10323e-05 0.00529918 0.999986 
0.000102287 0.00675267 0.999977 
9.21551e-05 0.00794081 0.999968 
4.77263e-05 0.00935066 0.999956 
4.7801e-05 0.010861 0.999941 
5.50976e-05 0.0122007 0.999926 
4.01146e-05 0.0137397 0.999906 
3.15154e-05 0.0153671 0.999882 
3.61058e-05 0.0170904 0.999854 
4.34519e-05 0.0191252 0.999817 
6.05842e-05 0.0217211 0.999764 
3.60348e-05 0.0248975 0.99969 
2.55728e-05 0.0294111 0.999567 
3.19267e-05 0.0360118 0.999351 
1.42165e-05 0.0461569 0.998934 
4.13384e-05 0.0592759 0.998242 
4.60066e-05 0.0779182 0.99696 
5.46114e-05 0.102935 0.994688 
7.71728e-05 0.135118 0.99083 
8.22697e-05 0.176237 0.984348 
5.89302e-05 0.229266 0.973364 
3.73724e-05 0.305872 0.952073 
3.64936e-05 0.403376 0.915034 
2.55803e-05 0.525681 0.850682 
1.3158e-05 0.666084 0.745877 
-3.56211e-06 0.822257 0.569116 
-3.58236e-06 0.958218 0.286037 
-2.61109e-06 0.998275 -0.0587087 
9.45072e-06 0.944136 -0.329555 
-4.5104e-06 0.827557 -0.561382 
-1.44813e-05 0.689807 -0.723994 
-3.53503e-05 0.554851 -0.83195 
-3.5099e-05 0.43463 -0.900609 
-4.47007e-05 0.330034 -0.943969 
-5.38541e-05 0.250222 -0.968188 
-2.41618e-05 0.187051 -0.98235 
-2.84573e-05 0.134942 -0.990853 
-2.15455e-05 0.100777 -0.994909 
-2.50647e-05 0.0733461 -0.997307 
-7.35268e-05 0.0569495 -0.998377 
-2.67941e-05 0.0447103 -0.999 
-3.22137e-05 0.0356843 -0.999363 
-6.00041e-05 0.0295026 -0.999565 
-4.11408e-05 0.0250513 -0.999686 
-2.75492e-05 0.0215848 -0.999767 
-3.46984e-05 0.0189795 -0.99982 
-4.17543e-05 0.0168719 -0.999858 
-5.13048e-05 0.0151682 -0.999885 
-5.70314e-05 0.013731 -0.999906 
-4.99782e-05 0.0125495 -0.999921 
-6.07553e-05 0.0111882 -0.999937 
-6.26962e-05 0.00973583 -0.999953 
-4.38828e-05 0.00818294 -0.999967 
-6.1825e-05 0.00669532 -0.999978 
-5.42826e-05 0.00516132 -0.999987 
-6.7455e-05 0.00341064 -0.999994 
-8.71829e-05 0.00109896 -0.999999 
-1.99147e-05 -0.00171802 -0.999999 
2.84069e-05 -0.00604086 -0.999982 
-5.35761e-05 -0.0118164 -0.99993 
-7.38285e-06 -0.0181385 -0.999835 
1.0996e-05 -0.0274691 -0.999623 
2.80083e-05 -0.0355535 -0.999368 
2.10969e-05 -0.0457924 -0.998951 
-2.40098e-05 -0.0533224 -0.998577 
-0.000121162 -0.0493357 -0.998782 
-1.0817e-05 -0.000675853 -1 
-0.000208941 0.000381613 1 
0.0215429 -0.0420017 0.998885 
0.0250857 -0.0471625 0.998572 
0.0258273 -0.0436737 0.998712 
0.0270116 -0.0359729 0.998988 
0.0266511 -0.0285577 0.999237 
0.0276774 -0.0204454 0.999408 
0.0282199 -0.0137839 0.999507 
0.0285805 -0.00834443 0.999557 
0.0290038 -0.00391688 0.999572 
0.0290948 -0.00044693 0.999577 
0.0294272 0.00233228 0.999564 
0.0302464 0.00447259 0.999532 
0.0314542 0.0060801 0.999487 
0.0325186 0.00731868 0.999444 
0.0311909 0.00855504 0.999477 
0.0309475 0.00996425 0.999471 
0.0310926 0.0114282 0.999451 
0.0309192 0.0130598 0.999437 
0.0311187 0.0146261 0.999409 
0.0312457 0.0163546 0.999378 
0.0313377 0.0183804 0.99934 
0.0314234 0.0209071 0.999287 
0.0301109 0.0247294 0.999241 
0.0309347 0.0293571 0.99909 
0.0296942 0.0355762 0.998926 
0.0283236 0.0448283 0.998593 
0.0275761 0.058301 0.997918 
0.0261641 0.0770674 0.996683 
0.024794 0.103138 0.994358 
0.0227718 0.136563 0.99037 
0.0205333 0.180465 0.983367 
0.0173973 0.243574 0.969726 
0.0143866 0.326376 0.94513 
0.0109444 0.430454 0.902546 
0.00770834 0.560922 0.827833 
0.00488585 0.714619 0.699497 
0.00321646 0.858184 0.513332 
0.0025575 0.960039 0.279855 
0.00181029 0.999998 -0.000805885 
0.00104161 0.956027 -0.293278 
-0.000673583 0.843625 -0.536933 
-0.00348444 0.701257 -0.7129 
-0.00683325 0.553064 -0.833111 
-0.0107034 0.417807 -0.908473 
-0.0144233 0.314251 -0.94923 
-0.0176696 0.234007 -0.972074 
-0.0201997 0.168652 -0.985469 
-0.023276 0.124002 -0.992009 
-0.0246309 0.0907173 -0.995572 
-0.0273385 0.0681649 -0.997299 
-0.0282058 0.0527794 -0.998208 
-0.0288642 0.0412867 -0.99873 
-0.0301671 0.0331944 -0.998994 
-0.0307883 0.0275088 -0.999147 
-0.0305055 0.0232805 -0.999263 
-0.0309447 0.0200561 -0.99932 
-0.0310967 0.017555 -0.999362 
-0.0316032 0.0155765 -0.999379 
-0.0315739 0.0139959 -0.999403 
-0.031954 0.0126294 -0.99941 
-0.0313869 0.011402 -0.999442 
-0.0322689 0.0100786 -0.999428 
-0.0311617 0.00875187 -0.999476 
-0.0317297 0.00725201 -0.99947 
-0.0314305 0.00571946 -0.99949 
-0.0316275 0.00404385 -0.999492 
-0.031254 0.00215127 -0.999509 
-0.031088 -0.000192834 -0.999517 
-0.028369 -0.00348117 -0.999591 
-0.0284187 -0.00828928 -0.999562 
-0.0290487 -0.0137028 -0.999484 
-0.0265456 -0.0206936 -0.999433 
-0.0271688 -0.0279921 -0.999239 
-0.0253056 -0.0374223 -0.998979 
-0.0261762 -0.0437893 -0.998698 
-0.0248778 -0.0469416 -0.998588 
-0.02097 -0.041277 -0.998928 
0.000160123 0.000284602 -1 
-0.0002202 -0.000179818 1 
0.0226113 -0.0383675 0.999008 
0.0278495 -0.0446091 0.998616 
0.029981 -0.0416416 0.998683 
0.0311472 -0.033918 0.998939 
0.031732 -0.0267691 0.999138 
0.0326732 -0.0200102 0.999266 
0.033755 -0.0140709 0.999331 
0.0343887 -0.00869146 0.999371 
0.0352877 -0.0043174 0.999368 
0.0361107 -0.00118501 0.999347 
0.0365095 0.00139953 0.999332 
0.0370969 0.00348728 0.999306 
0.0378246 0.00513901 0.999271 
0.0383731 0.00647075 0.999243 
0.0386173 0.00783894 0.999223 
0.0382887 0.00919737 0.999224 
0.0383047 0.0105666 0.99921 
0.0382036 0.0119997 0.999198 
0.0382265 0.0134568 0.999178 
0.0382528 0.0151199 0.999154 
0.0382437 0.0170836 0.999122 
0.0380367 0.0194616 0.999087 
0.037581 0.0229688 0.99903 
0.0373877 0.02724 0.998929 
0.0364394 0.033229 0.998783 
0.0351792 0.0419066 0.998502 
0.0337107 0.0539634 0.997974 
0.0317169 0.0713371 0.996948 
0.0292915 0.0958183 0.994968 
0.0262849 0.130934 0.991043 
0.0231424 0.175295 0.984244 
0.0199507 0.237935 0.971076 
0.0157526 0.321801 0.946676 
0.0117848 0.433847 0.90091 
0.00817991 0.575068 0.818065 
0.00548308 0.721916 0.691959 
0.0032176 0.859046 0.511888 
0.00135058 0.963713 0.266936 
0.0003171 0.999388 -0.0349915 
0.000118421 0.961294 -0.275526 
-0.000585705 0.862732 -0.50566 
-0.00273569 0.716356 -0.697729 
-0.00632573 0.56962 -0.821884 
-0.0106525 0.433532 -0.901075 
-0.0149184 0.323818 -0.946002 
-0.019257 0.242306 -0.970009 
-0.0232085 0.178371 -0.98369 
-0.0262764 0.130059 -0.991158 
-0.0291871 0.0955946 -0.994992 
-0.031736 0.0722258 -0.996883 
-0.033734 0.054753 -0.99793 
-0.0352057 0.0429567 -0.998456 
-0.0362923 0.03412 -0.998759 
-0.0370531 0.027701 -0.998929 
-0.0375683 0.0233044 -0.999022 
-0.0379316 0.0199432 -0.999081 
-0.0382579 0.0173366 -0.999117 
-0.0383529 0.0151402 -0.99915 
-0.0386507 0.0135735 -0.999161 
-0.0385803 0.0120788 -0.999182 
-0.0386552 0.0109064 -0.999193 
-0.0386824 0.00951908 -0.999206 
-0.0385053 0.00834612 -0.999224 
-0.0383133 0.00688272 -0.999242 
-0.0380598 0.0052974 -0.999261 
-0.0378021 0.00350007 -0.999279 
-0.0373264 0.00149975 -0.999302 
-0.0366695 -0.00109355 -0.999327 
-0.0350535 -0.00445549 -0.999376 
-0.0347097 -0.00902108 -0.999357 
-0.0339246 -0.0146136 -0.999318 
-0.0325515 -0.0204665 -0.99926 
-0.0321197 -0.0264865 -0.999133 
-0.0308711 -0.0340695 -0.998943 
-0.0301306 -0.0415826 -0.998681 
-0.0275032 -0.0446146 -0.998626 
-0.0223943 -0.0386932 -0.999 
9.74834e-05 -0.000182268 -1 
-6.44142e-05 -1.94465e-05 1 
0.0206317 -0.0382183 0.999056 
0.0253733 -0.0440061 0.998709 
0.0276556 -0.040703 0.998788 
0.0287328 -0.0327235 0.999051 
0.0300888 -0.0254032 0.999224 
0.030623 -0.0193396 0.999344 
0.0318728 -0.0135102 0.999401 
0.0333102 -0.00834661 0.99941 
0.0338561 -0.00429701 0.999417 
0.0343839 -0.00123232 0.999408 
0.0356906 0.00112792 0.999362 
0.0359428 0.00302644 0.999349 
0.0362169 0.00468913 0.999333 
0.0360942 0.00618599 0.999329 
0.0365086 0.00754456 0.999305 
0.0372067 0.00885038 0.999268 
0.0372801 0.0101859 0.999253 
0.0372633 0.0115137 0.999239 
0.0371757 0.0129434 0.999225 
0.0370021 0.0145957 0.999209 
0.0367009 0.0165604 0.999189 
0.0365371 0.0191399 0.999149 
0.0366108 0.0224442 0.999078 
0.0356844 0.0269944 0.998998 
0.0348293 0.0332674 0.998839 
0.0340678 0.041681 0.99855 
0.0323285 0.0543903 0.997996 
0.0300387 0.0718165 0.996965 
0.0273012 0.0977509 0.994836 
0.0234819 0.13042 0.991181 
0.0202683 0.179308 0.983584 
0.0174481 0.244507 0.96949 
0.0135043 0.334091 0.942444 
0.00982812 0.452879 0.891518 
0.00692426 0.584918 0.811063 
0.00490938 0.727734 0.685842 
0.00347584 0.878816 0.477147 
0.00188681 0.970906 0.239453 
0.00143387 0.999781 0.0208757 
-0.000573336 0.963084 -0.269202 
-0.00151037 0.858694 -0.512486 
-0.00269871 0.731641 -0.681685 
-0.00458663 0.583532 -0.812077 
-0.00844284 0.444981 -0.8955 
-0.0122722 0.330217 -0.943825 
-0.0166545 0.243769 -0.96969 
-0.0216172 0.179815 -0.983463 
-0.0243555 0.13235 -0.990904 
-0.0277892 0.0983003 -0.994769 
-0.029534 0.074314 -0.996797 
-0.0315643 0.0560117 -0.997931 
-0.0332982 0.0427239 -0.998532 
-0.0345647 0.0338815 -0.998828 
-0.0354947 0.0274935 -0.998992 
-0.0362914 0.0227566 -0.999082 
-0.036713 0.0193015 -0.999139 
-0.0369401 0.0166686 -0.999178 
-0.0370393 0.0146818 -0.999206 
-0.0368833 0.0129626 -0.999236 
-0.0369618 0.0115996 -0.999249 
-0.037004 0.0103152 -0.999262 
-0.0369943 0.009032 -0.999275 
-0.0369915 0.00770724 -0.999286 
-0.0367392 0.00635312 -0.999305 
-0.0364773 0.00481969 -0.999323 
-0.0356826 0.00304058 -0.999359 
-0.0352199 0.000941357 -0.999379 
-0.0347413 -0.00159521 -0.999395 
-0.0348172 -0.00492955 -0.999382 
-0.0333241 -0.00957187 -0.999399 
-0.0314354 -0.0146477 -0.999398 
-0.031488 -0.0202227 -0.9993 
-0.0297548 -0.0264764 -0.999207 
-0.0299336 -0.0335416 -0.998989 
-0.0277225 -0.0414993 -0.998754 
-0.0246873 -0.0444203 -0.998708 
-0.0200293 -0.0383497 -0.999064 
5.65661e-05 4.98485e-07 -1 
2.24827e-05 -0.0001984 1 
0.0166716 -0.0388379 0.999106 
0.0201515 -0.0445228 0.998805 
0.0221801 -0.0414062 0.998896 
0.0232946 -0.0337955 0.999157 
0.0250374 -0.0264629 0.999336 
0.0260023 -0.0207223 0.999447 
0.0269262 -0.0147016 0.999529 
0.0280386 -0.00917497 0.999565 
0.0287059 -0.00502109 0.999575 
0.0296631 -0.00159605 0.999559 
0.0306606 0.00104323 0.999529 
0.031037 0.00299441 0.999514 
0.0313753 0.00469793 0.999497 
0.0312991 0.00625985 0.99949 
0.0320217 0.00763344 0.999458 
0.0328751 0.00888211 0.99942 
0.0326465 0.0101375 0.999416 
0.0326611 0.0114379 0.999401 
0.0325574 0.0128674 0.999387 
0.03227 0.0145193 0.999374 
0.0319881 0.0166254 0.99935 
0.0318757 0.0194966 0.999302 
0.0319502 0.0229776 0.999225 
0.0307389 0.0279548 0.999136 
0.0298273 0.0349196 0.998945 
0.0292677 0.0440597 0.9986 
0.0271247 0.0573102 0.997988 
0.0250108 0.0772384 0.996699 
0.0218768 0.102061 0.994538 
0.0182823 0.142395 0.989641 
0.0152534 0.194745 0.980735 
0.0132104 0.258858 0.965825 
0.0100174 0.359528 0.933081 
0.00706654 0.474648 0.880147 
0.00508802 0.607284 0.794469 
0.00368779 0.78193 0.623355 
0.002802 0.883848 0.467765 
0.00290511 0.943834 0.330406 
0.00124337 0.999818 -0.0190305 
-0.00124671 0.972251 -0.233938 
-0.00211276 0.892865 -0.450319 
-0.0028053 0.752156 -0.658979 
-0.00396238 0.585817 -0.810434 
-0.00634913 0.440513 -0.897724 
-0.0091692 0.328926 -0.944311 
-0.012578 0.245106 -0.969415 
-0.0173371 0.17937 -0.983629 
-0.019494 0.132981 -0.990927 
-0.0230289 0.0975601 -0.994963 
-0.0248914 0.071398 -0.997137 
-0.0272565 0.0532699 -0.998208 
-0.0288851 0.041141 -0.998736 
-0.0300476 0.0324039 -0.999023 
-0.030837 0.0260682 -0.999184 
-0.0316694 0.0216021 -0.999265 
-0.0320886 0.0182949 -0.999318 
-0.0323915 0.0158375 -0.99935 
-0.0323064 0.0138553 -0.999382 
-0.0323669 0.0122719 -0.999401 
-0.0321523 0.0109212 -0.999423 
-0.0326274 0.00971747 -0.99942 
-0.0322674 0.00841812 -0.999444 
-0.0321886 0.00718675 -0.999456 
-0.0318955 0.00576979 -0.999475 
-0.0315208 0.00422637 -0.999494 
-0.030723 0.00234691 -0.999525 
-0.0299665 0.000171108 -0.999551 
-0.029582 -0.0024438 -0.999559 
-0.0303138 -0.00555137 -0.999525 
-0.0280961 -0.00980524 -0.999557 
-0.0263689 -0.0155371 -0.999532 
-0.0265345 -0.0212787 -0.999421 
-0.0245616 -0.0274882 -0.99932 
-0.0250269 -0.0340685 -0.999106 
-0.0223494 -0.0417923 -0.998876 
-0.0195332 -0.0444343 -0.998821 
-0.0159794 -0.0376571 -0.999163 
8.39047e-05 -7.28011e-05 -1 
4.96369e-05 -0.00018589 1 
0.0106452 -0.0349608 0.999332 
0.014657 -0.043281 0.998955 
0.0170913 -0.0435712 0.998904 
0.0184238 -0.0372769 0.999135 
0.0201716 -0.029788 0.999353 
0.0213997 -0.0240573 0.999482 
0.0223528 -0.0180588 0.999587 
0.0233654 -0.0120757 0.999654 
0.023988 -0.00728727 0.999686 
0.0248601 -0.00337558 0.999685 
0.0258919 -0.00030579 0.999665 
0.0263205 0.00185594 0.999652 
0.0267656 0.00371989 0.999635 
0.0271886 0.00534236 0.999616 
0.0274537 0.0068564 0.9996 
0.0279363 0.00812947 0.999577 
0.0283515 0.009284 0.999555 
0.028175 0.0105073 0.999548 
0.0281856 0.0117735 0.999533 
0.0279759 0.013211 0.999521 
0.027797 0.0150159 0.999501 
0.027717 0.0174822 0.999463 
0.0272738 0.0206315 0.999415 
0.0271048 0.0245906 0.99933 
0.0261212 0.0306465 0.999189 
0.0252071 0.0390035 0.998921 
0.0240266 0.0493364 0.998493 
0.0221642 0.0660244 0.997572 
0.0193665 0.086767 0.99604 
0.016725 0.11961 0.99268 
0.0133557 0.167425 0.985794 
0.0107137 0.235106 0.971911 
0.0089948 0.311631 0.950161 
0.00626301 0.413538 0.910465 
0.0042072 0.549996 0.835157 
0.00347534 0.70751 0.706694 
0.000372308 0.85196 0.523606 
0.000273911 0.989996 0.141093 
-0.00844928 0.996294 -0.0855964 
-0.00507409 0.987445 -0.15788 
-0.00750392 0.918036 -0.396427 
-0.00455845 0.86046 -0.509498 
-0.00403163 0.648766 -0.760978 
-0.00488478 0.483409 -0.875381 
-0.00675885 0.359855 -0.932984 
-0.0092444 0.25971 -0.965642 
-0.0131285 0.188803 -0.981927 
-0.0149495 0.142012 -0.989752 
-0.0183607 0.10528 -0.994273 
-0.0204594 0.0780402 -0.99674 
-0.0226892 0.0565032 -0.998145 
-0.0242923 0.0428915 -0.998784 
-0.0255758 0.0335829 -0.999109 
-0.0264075 0.026792 -0.999292 
-0.0271097 0.021829 -0.999394 
-0.0275402 0.0183286 -0.999453 
-0.0278467 0.0157568 -0.999488 
-0.0279932 0.01381 -0.999513 
-0.0280407 0.0121842 -0.999533 
-0.0278516 0.0108424 -0.999553 
-0.0281782 0.00961268 -0.999557 
-0.0280994 0.00843174 -0.99957 
-0.0275147 0.00708838 -0.999596 
-0.0275333 0.00577127 -0.999604 
-0.0269485 0.00413588 -0.999628 
-0.0264945 0.00235277 -0.999646 
-0.0254754 0.000122619 -0.999675 
-0.0247771 -0.00253282 -0.99969 
-0.0252727 -0.00596171 -0.999663 
-0.023658 -0.0109053 -0.999661 
-0.0220701 -0.01676 -0.999616 
-0.0220932 -0.0225308 -0.999502 
-0.0201568 -0.0286656 -0.999386 
-0.0201914 -0.0348687 -0.999188 
-0.0177329 -0.042433 -0.998942 
-0.0151791 -0.0448773 -0.998877 
-0.0126821 -0.0380872 -0.999194 
3.58071e-05 -5.84479e-05 -1 
-2.3572e-05 -9.08929e-05 1 
0.0093611 -0.038216 0.999226 
0.0127421 -0.0453778 0.998889 
0.0140365 -0.042038 0.999017 
0.0157603 -0.0346301 0.999276 
0.0169225 -0.0284527 0.999452 
0.0181766 -0.0227288 0.999576 
0.0189796 -0.0164936 0.999684 
0.0194919 -0.0109343 0.99975 
0.0202095 -0.00616499 0.999777 
0.0212008 -0.00238026 0.999772 
0.0215164 0.000213671 0.999768 
0.0220387 0.00236309 0.999754 
0.0224784 0.00420744 0.999738 
0.0232163 0.00582392 0.999714 
0.0231047 0.00720036 0.999707 
0.0232947 0.00837871 0.999694 
0.0238962 0.00952772 0.999669 
0.0236012 0.0107064 0.999664 
0.0235573 0.0119723 0.999651 
0.0233936 0.0135289 0.999635 
0.0234484 0.0156317 0.999603 
0.0230073 0.0183377 0.999567 
0.0223548 0.0219237 0.99951 
0.0225017 0.0268076 0.999387 
0.0216181 0.034261 0.999179 
0.0201516 0.0438466 0.998835 
0.019433 0.0576751 0.998146 
0.0166017 0.0754911 0.997008 
0.0145407 0.105361 0.994328 
0.0116781 0.147121 0.98905 
0.00908983 0.21692 0.976147 
0.00614202 0.31641 0.948603 
0.00368374 0.443287 0.896372 
0.00208694 0.611014 0.791617 
0.000453229 0.73739 0.675467 
-0.00149956 0.893977 0.448111 
-0.0049556 0.972541 0.232678 
-0.000587358 0.976535 0.21536 
-0.0166118 0.999592 -0.0232159 
-0.00961302 0.999247 0.0375909 
-0.017134 0.950166 -0.311273 
-0.012009 0.840826 -0.541172 
-0.00477508 0.751324 -0.659916 
-0.00444982 0.535598 -0.844461 
-0.00575835 0.397365 -0.917642 
-0.00720302 0.291035 -0.956685 
-0.00999935 0.197006 -0.980351 
-0.0122557 0.139956 -0.990082 
-0.0150686 0.0993254 -0.994941 
-0.0177032 0.0711581 -0.997308 
-0.0191428 0.0525785 -0.998433 
-0.0204165 0.0400673 -0.998988 
-0.021539 0.0314216 -0.999274 
-0.0222916 0.0251105 -0.999436 
-0.0227037 0.0206077 -0.99953 
-0.0230364 0.0173351 -0.999584 
-0.0232748 0.0149475 -0.999617 
-0.0236365 0.0130961 -0.999635 
-0.0234761 0.0116194 -0.999657 
-0.0236713 0.010289 -0.999667 
-0.0236094 0.00913926 -0.999679 
-0.0236414 0.00796467 -0.999689 
-0.022732 0.00667079 -0.999719 
-0.0229626 0.00527683 -0.999722 
-0.022105 0.00362843 -0.999749 
-0.0218602 0.00173596 -0.99976 
-0.0206652 -0.000534273 -0.999786 
-0.0203861 -0.00343361 -0.999786 
-0.0210819 -0.00685248 -0.999754 
-0.0195351 -0.0117271 -0.99974 
-0.0182116 -0.0178414 -0.999675 
-0.0183149 -0.0237879 -0.999549 
-0.0165167 -0.0299905 -0.999414 
-0.0163374 -0.0362748 -0.999208 
-0.013922 -0.0433359 -0.998964 
-0.0115526 -0.0455838 -0.998894 
-0.00954222 -0.0381284 -0.999227 
2.72915e-05 -5.48566e-05 -1 
-5.23416e-05 -3.38271e-05 1 
0.00677983 -0.038187 0.999248 
0.00958206 -0.0461113 0.99889 
0.0105926 -0.0440062 0.998975 
0.012109 -0.036953 0.999244 
0.0128702 -0.0303633 0.999456 
0.0140604 -0.0247328 0.999595 
0.0148662 -0.0186082 0.999716 
0.0150581 -0.0126003 0.999807 
0.015696 -0.00756845 0.999848 
0.0166871 -0.00352398 0.999855 
0.0166576 -0.000585667 0.999861 
0.017151 0.00172611 0.999851 
0.0175938 0.00368486 0.999838 
0.0183253 0.00535971 0.999818 
0.0183897 0.00672859 0.999808 
0.0181201 0.00798483 0.999804 
0.0186917 0.00911755 0.999784 
0.0188191 0.010197 0.999771 
0.0185357 0.0114242 0.999763 
0.0185675 0.0128411 0.999745 
0.0187495 0.0147598 0.999715 
0.0182669 0.0172802 0.999684 
0.0175451 0.0206638 0.999633 
0.0175337 0.0253945 0.999524 
0.0175812 0.0318312 0.999339 
0.015932 0.0407383 0.999043 
0.0153054 0.0541809 0.998414 
0.0130828 0.0725969 0.997276 
0.0112691 0.100473 0.994876 
0.0090491 0.149343 0.988744 
0.0065817 0.227888 0.973665 
0.00435904 0.334335 0.942444 
0.00244105 0.489244 0.872143 
0.00132734 0.605384 0.795932 
0.00189473 0.75278 0.658269 
-0.00557124 0.959504 0.28164 
-0.00321334 0.987932 0.154855 
-0.00365351 0.996846 0.0792707 
-0.00539603 0.999712 -0.0234002 
-0.00546521 0.997788 -0.0662542 
-0.00574743 0.995223 -0.0974615 
-0.0191876 0.932506 -0.360643 
-0.00618225 0.648086 -0.761542 
-0.0093168 0.552602 -0.833393 
-0.00601017 0.460458 -0.887661 
-0.00606263 0.334966 -0.942211 
-0.00738111 0.225197 -0.974285 
-0.00876592 0.159238 -0.987201 
-0.0111286 0.108098 -0.994078 
-0.0134901 0.0777921 -0.996878 
-0.0146582 0.0569806 -0.998268 
-0.0156716 0.0426275 -0.998968 
-0.0166338 0.03299 -0.999317 
-0.0174161 0.0263152 -0.999502 
-0.0177561 0.0214054 -0.999613 
-0.0180184 0.0178004 -0.999679 
-0.0182057 0.0151831 -0.999719 
-0.0187502 0.0132758 -0.999736 
-0.0184917 0.0117198 -0.99976 
-0.0191419 0.0104984 -0.999762 
-0.0185965 0.00924931 -0.999784 
-0.0187713 0.00813066 -0.999791 
-0.018069 0.00689662 -0.999813 
-0.0180278 0.00541472 -0.999823 
-0.0173653 0.00382133 -0.999842 
-0.0167906 0.00177989 -0.999857 
-0.016166 -0.000669156 -0.999869 
-0.0156974 -0.00372373 -0.99987 
-0.0162987 -0.00769377 -0.999838 
-0.0151894 -0.0131163 -0.999799 
-0.0139071 -0.0193879 -0.999715 
-0.0144754 -0.0249292 -0.999584 
-0.0127064 -0.0308299 -0.999444 
-0.0128227 -0.0368076 -0.99924 
-0.0106361 -0.044001 -0.998975 
-0.00865075 -0.0465205 -0.99888 
-0.00687622 -0.0380558 -0.999252 
1.85707e-05 -5.20877e-05 -1 
-1.06905e-05 -2.76376e-05 1 
0.00473842 -0.0387585 0.999237 
0.00684982 -0.0469741 0.998873 
0.00769226 -0.0453763 0.99894 
0.00874626 -0.0378259 0.999246 
0.00947411 -0.0315502 0.999457 