# vtk DataFile Version 3.0 
Exported using Morpho https://github.com/Morpho-lang/morpho 
ASCII 
DATASET UNSTRUCTURED_GRID 

POINTS 1978 float 
-11.9996 -3.99956 -2.09085e-06 
-11.6619 -3.99932 -1.2019e-06 
-11.3175 -3.99932 1.14376e-06 
-10.9847 -3.99942 -1.06429e-06 
-10.6755 -3.99936 -7.30102e-07 
-10.3176 -3.99939 7.98667e-08 
-9.99585 -3.99941 -2.30122e-07 
-9.68153 -3.9994 -4.71221e-07 
-9.35148 -3.99937 -3.49509e-07 
-9.02001 -3.99936 -2.88783e-07 
-8.68265 -3.99933 -2.40974e-07 
-8.34161 -3.99939 2.38716e-09 
-8.02303 -3.99941 1.21151e-07 
-7.73796 -3.99948 9.0784e-08 
-7.48116 -3.99947 -6.66879e-09 
-7.19354 -3.9994 -1.25424e-07 
-6.89222 -3.99947 -1.48857e-07 
-6.59462 -3.99943 9.12397e-08 
-6.29437 -3.99939 4.08285e-08 
-5.98065 -3.99939 1.90271e-08 
-5.66938 -3.9994 4.72575e-08 
-5.36208 -3.99941 1.41062e-07 
-5.06212 -3.99944 1.99777e-07 
-4.77069 -3.99941 -6.33701e-09 
-4.44579 -3.9994 4.7258e-07 
-4.1392 -3.9994 8.37541e-07 
-3.80967 -3.99943 4.83987e-07 
-3.49204 -3.99946 1.24922e-06 
-3.19476 -3.99951 1.98624e-06 
-2.89253 -3.99956 3.18177e-06 
-2.61893 -3.99963 3.53733e-06 
-2.35006 -3.99965 5.17788e-06 
-2.08266 -3.99969 5.95866e-06 
-1.79364 -3.99974 6.72136e-06 
-1.50492 -3.99977 6.69108e-06 
-1.21506 -3.99975 2.8894e-06 
-0.928868 -3.99972 -4.35142e-06 
-0.621578 -3.99954 1.49173e-06 
-0.284301 -3.99947 -8.83844e-06 
0.0562817 -3.99937 -5.52963e-06 
0.330723 -3.99952 1.23984e-05 
0.61397 -3.9997 3.61856e-06 
0.88714 -3.99963 2.3343e-06 
1.16215 -3.99986 -4.1623e-06 
1.42786 -3.99977 -6.91656e-06 
1.71585 -3.99974 -8.14634e-06 
1.99801 -3.99969 -5.91332e-06 
2.288 -3.99962 -5.64586e-06 
2.62047 -3.99958 -3.93897e-06 
2.91924 -3.99952 -2.68875e-06 
3.26106 -3.99946 -1.7537e-06 
3.54395 -3.99949 -1.48739e-06 
3.84501 -3.99944 -9.36217e-07 
4.16392 -3.99943 -4.70073e-07 
4.46392 -3.99943 -3.97721e-07 
4.75917 -3.99942 -3.15045e-07 
5.07557 -3.9994 -1.56043e-07 
5.38731 -3.99939 -4.72746e-08 
5.69965 -3.99941 -7.96437e-09 
5.99802 -3.99941 -6.01458e-08 
6.29753 -3.99943 -7.26835e-08 
6.58721 -3.99942 8.59394e-08 
6.89197 -3.99943 7.26361e-08 
7.17047 -3.99943 -1.15878e-07 
7.47736 -3.99942 -5.13727e-08 
7.76931 -3.99943 8.85263e-08 
8.06466 -3.99946 1.65983e-07 
8.3524 -3.99945 1.96804e-07 
8.6347 -3.99944 -3.43054e-08 
8.91671 -3.99939 -9.62895e-08 
9.28067 -3.99934 4.39115e-07 
9.61753 -3.9994 5.63767e-07 
9.90594 -3.99939 1.64393e-07 
10.2802 -3.99934 8.7531e-08 
10.6045 -3.99932 4.8809e-07 
11.0146 -3.99934 1.4327e-06 
11.3288 -3.99937 -1.65663e-06 
11.6452 -3.99926 1.60979e-06 
11.9995 -3.9996 1.8661e-06 
-11.9994 -3.68264 2.01877e-06 
-11.6637 -3.68304 1.58655e-06 
-11.3459 -3.64523 2.53585e-06 
-11.0303 -3.6632 2.14087e-06 
-10.7074 -3.63736 5.23151e-07 
-10.3955 -3.68803 -1.04005e-07 
-10.0579 -3.65593 9.09088e-07 
-9.73679 -3.64594 6.22577e-07 
-9.42115 -3.66273 2.32779e-07 
-9.09124 -3.66334 4.47954e-07 
-8.75911 -3.67073 1.14287e-07 
-8.42027 -3.68183 -1.67385e-07 
-8.0912 -3.66973 -2.73226e-07 
-7.77302 -3.64029 -5.2242e-07 
-7.48295 -3.61126 -4.58851e-07 
-7.21004 -3.65633 1.58936e-08 
-6.89978 -3.66728 2.06025e-07 
-6.59427 -3.6602 -3.096e-07 
-6.27668 -3.66528 -4.6096e-07 
-5.9602 -3.66059 -4.35352e-07 
-5.65049 -3.65558 -4.51783e-07 
-5.34908 -3.64895 -5.82426e-07 
-5.05632 -3.64415 -6.62909e-07 
-4.72676 -3.68776 -2.17994e-07 
-4.42993 -3.65188 -8.04997e-07 
-4.13888 -3.67117 -1.26425e-06 
-3.82484 -3.69189 -3.72821e-07 
-3.51742 -3.67838 -1.28535e-06 
-3.20632 -3.67225 -2.01945e-06 
-2.9038 -3.66836 -3.06467e-06 
-2.61131 -3.64386 -3.59018e-06 
-2.33352 -3.64486 -4.29932e-06 
-2.03404 -3.67795 -4.8513e-06 
-1.73872 -3.67437 -4.78343e-06 
-1.44366 -3.66546 -4.26297e-06 
-1.14701 -3.64377 -3.18849e-06 
-0.841326 -3.64927 -1.39716e-06 
-0.549891 -3.59432 -1.47155e-05 
-0.276033 -3.67124 -6.23828e-06 
0.00222113 -3.58161 1.28839e-05 
0.291985 -3.58048 -1.42939e-06 
0.585346 -3.61072 1.73743e-05 
0.866969 -3.60693 -5.11348e-06 
1.16448 -3.63419 3.50422e-06 
1.47234 -3.66619 4.46412e-06 
1.77197 -3.66231 5.33745e-06 
2.07273 -3.67404 4.63732e-06 
2.39992 -3.71788 4.35829e-06 
2.71156 -3.68178 2.96298e-06 
3.0374 -3.71478 1.96241e-06 
3.33952 -3.64899 1.73264e-06 
3.63426 -3.66517 1.46678e-06 
3.94395 -3.68075 1.16514e-06 
4.24565 -3.65698 8.37788e-07 
4.53913 -3.64768 6.81527e-07 
4.84606 -3.669 6.65612e-07 
5.15579 -3.66303 5.82666e-07 
5.46741 -3.66345 3.47556e-07 
5.76791 -3.64846 3.93568e-07 
6.06821 -3.65111 3.72289e-07 
6.36049 -3.64155 3.72813e-07 
6.66341 -3.66081 2.75002e-07 
6.95033 -3.62997 3.77974e-07 
7.25347 -3.66593 3.91953e-07 
7.55236 -3.65013 3.26983e-07 
7.8518 -3.656 -4.24442e-08 
8.14105 -3.64719 -8.96735e-09 
8.42785 -3.63299 1.9904e-07 
8.71613 -3.62587 2.06337e-07 
9.043 -3.70472 8.5312e-08 
9.38577 -3.6752 -6.82733e-08 
9.68928 -3.61735 -6.56132e-07 
10.0268 -3.70374 -9.55363e-07 
10.3601 -3.65591 -7.30944e-07 
10.7291 -3.72582 -7.0559e-09 
11.0415 -3.63861 -2.86676e-06 
11.351 -3.63118 -1.90077e-06 
11.6903 -3.67404 -1.43819e-06 
11.9994 -3.66386 -1.69668e-06 
-11.9994 -3.36295 -1.30055e-08 
-11.6568 -3.35071 -2.27148e-06 
-11.31 -3.30172 -7.61669e-07 
-10.9808 -3.32268 -1.42374e-06 
-10.6538 -3.28909 -1.82888e-06 
-10.3491 -3.35328 -1.21739e-06 
-10.027 -3.31364 -1.26206e-06 
-9.71283 -3.29761 -6.33242e-07 
-9.39293 -3.32696 -7.37676e-07 
-9.07062 -3.32887 -2.95823e-07 
-8.77194 -3.30918 -6.44011e-08 
-8.46996 -3.35702 -1.24049e-07 
-8.15224 -3.33843 1.73943e-07 
-7.84852 -3.31382 3.27276e-07 
-7.54525 -3.25783 4.06697e-07 
-7.24972 -3.28296 3.25176e-07 
-6.96399 -3.34716 3.29684e-07 
-6.65322 -3.32661 4.13896e-07 
-6.34193 -3.33234 5.52695e-07 
-6.03082 -3.32667 6.91919e-07 
-5.72033 -3.31789 6.19082e-07 
-5.41421 -3.30531 9.06709e-07 
-5.11617 -3.29103 1.1759e-06 
-4.8164 -3.36345 9.70143e-07 
-4.51437 -3.31693 1.67852e-06 
-4.21383 -3.31953 2.15687e-06 
-3.91356 -3.37269 1.91913e-06 
-3.60534 -3.35609 3.08788e-06 
-3.29344 -3.35689 4.10009e-06 
-2.97952 -3.34879 4.69404e-06 
-2.66501 -3.30925 6.35445e-06 
-2.3685 -3.2988 7.99378e-06 
-2.06564 -3.35695 8.16195e-06 
-1.7533 -3.34275 7.25046e-06 
-1.43968 -3.3297 5.50546e-06 
-1.12219 -3.29702 3.36967e-06 
-0.828506 -3.2622 3.66146e-06 
-0.550204 -3.16505 3.85868e-06 
-0.265774 -3.25379 -1.03249e-05 
0.0349431 -3.1586 1.71676e-05 
0.284785 -3.09479 -1.53806e-05 
0.556638 -3.21015 1.3408e-05 
0.851068 -3.18709 -4.39854e-06 
1.13503 -3.28823 -5.51337e-07 
1.44595 -3.32495 -4.9331e-06 
1.74641 -3.3222 -9.85568e-06 
2.04387 -3.34495 -7.64022e-06 
2.35322 -3.4156 -5.83432e-06 
2.6683 -3.37151 -5.6028e-06 
2.98355 -3.40506 -3.68702e-06 
3.28381 -3.32966 -4.45615e-06 
3.59413 -3.323 -3.21973e-06 
3.88848 -3.35151 -2.19172e-06 
4.18555 -3.32669 -2.16762e-06 
4.48495 -3.30304 -1.75199e-06 
4.78344 -3.33012 -1.40631e-06 
5.08535 -3.33027 -1.02792e-06 
5.395 -3.33125 -8.55979e-07 
5.70215 -3.30708 -7.69141e-07 
6.00565 -3.30863 -6.75825e-07 
6.30673 -3.29261 -6.60692e-07 
6.60928 -3.32084 -5.53501e-07 
6.90876 -3.27944 -6.89083e-07 
7.21072 -3.32642 -3.39451e-07 
7.51523 -3.31333 -2.65549e-07 
7.82321 -3.32028 -2.09302e-07 
8.13093 -3.29377 -1.08887e-07 
8.42877 -3.27903 -1.32415e-08 
8.74945 -3.30347 -1.13567e-08 
9.0738 -3.38713 3.11534e-07 
9.3856 -3.32245 5.72499e-07 
9.708 -3.27518 7.68914e-07 
10.0217 -3.37631 9.18121e-07 
10.3127 -3.29061 2.00195e-06 
10.6283 -3.41041 1.13709e-06 
10.9521 -3.317 1.5161e-06 
11.2996 -3.28134 4.2035e-07 
11.6449 -3.35073 2.28846e-06 
11.9993 -3.30562 -6.95771e-07 
-11.9994 -3.03998 2.80029e-06 
-11.635 -3.03537 -3.40652e-06 
-11.2825 -2.96686 6.93177e-07 
-10.9509 -2.98474 -2.68149e-07 
-10.614 -2.96422 -1.47353e-06 
-10.2822 -3.00802 -1.06633e-06 
-9.96106 -2.96741 -3.41103e-07 
-9.63409 -2.96759 1.97918e-08 
-9.3195 -2.99348 -4.46291e-07 
-9.01346 -2.97262 -2.54414e-07 
-8.71486 -2.94946 2.25716e-08 
-8.43477 -3.01827 -4.58952e-08 
-8.13865 -2.98944 1.53822e-07 
-7.83987 -2.97361 2.3639e-07 
-7.53265 -2.9248 -1.53827e-08 
-7.2275 -2.94802 -3.5496e-09 
-6.92829 -3.01754 2.50933e-07 
-6.6171 -2.99962 5.00596e-07 
-6.31162 -2.99836 5.32916e-07 
-6.00393 -2.99348 3.75866e-07 
-5.69795 -2.98334 2.62709e-07 
-5.39851 -2.96564 3.46683e-07 
-5.09725 -2.95905 5.99534e-07 
-4.80091 -3.0287 9.25114e-07 
-4.49963 -2.98528 7.29773e-07 
-4.20435 -2.98337 8.78549e-07 
-3.90967 -3.05064 1.68828e-06 
-3.59609 -3.03863 1.92696e-06 
-3.29197 -3.0345 1.99997e-06 
-2.96643 -3.03469 2.87082e-06 
-2.67579 -2.95608 2.30737e-06 
-2.35703 -2.96711 3.7578e-06 
-2.0432 -3.02881 4.41272e-06 
-1.72331 -3.01244 2.44265e-06 
-1.39933 -2.98685 4.39603e-07 
-1.10448 -2.90725 -1.3294e-06 
-0.821908 -2.83688 -5.13781e-06 
-0.509294 -2.73727 -1.69767e-05 
-0.236194 -2.84824 1.61066e-05 
-0.0148178 -2.67561 -3.69594e-05 
0.270567 -2.61236 1.65457e-05 
0.549229 -2.79497 1.46305e-06 
0.821907 -2.74318 4.12545e-06 
1.11893 -2.90167 2.21066e-06 
1.4224 -2.97756 -6.73462e-07 
1.73924 -2.96938 -2.29824e-06 
2.0481 -2.9997 -5.11718e-06 
2.35223 -3.09535 -5.99237e-06 
2.66099 -3.03865 -4.33952e-06 
2.96266 -3.08227 -3.49834e-06 
3.26294 -3.00085 -1.79736e-06 
3.56955 -3.00408 -1.63898e-06 
3.88308 -3.01562 -1.42378e-06 
4.1823 -2.99558 -8.04056e-07 
4.48294 -2.97475 -7.31853e-07 
4.78311 -2.99544 -8.01308e-07 
5.08173 -2.99514 -6.20652e-07 
5.38178 -3.00118 -3.87182e-07 
5.68418 -2.97465 -3.25879e-07 
5.98927 -2.97207 -3.01847e-07 
6.29651 -2.95985 -3.37129e-07 
6.59928 -2.98293 -3.30029e-07 
6.9178 -2.9598 -1.36561e-07 
7.23205 -2.99257 -1.45312e-07 
7.53097 -2.97607 -8.23133e-08 
7.83098 -2.99011 -9.92833e-08 
8.12836 -2.95378 5.31878e-08 
8.43314 -2.9446 1.82157e-08 
8.73641 -2.97278 -3.21912e-08 
9.05368 -3.05376 1.42218e-07 
9.37351 -2.99303 4.88667e-07 
9.66462 -2.92154 1.11399e-07 
9.98183 -3.01777 4.60063e-07 
10.3074 -2.95879 1.22606e-06 
10.636 -3.06713 1.74828e-06 
10.9806 -2.99191 2.9528e-07 
11.3201 -2.9464 -4.0067e-07 
11.652 -3.03342 2.12114e-06 
11.9994 -2.98863 -2.27763e-06 
-11.9992 -2.72895 1.34846e-06 
-11.6407 -2.72081 -5.65962e-07 
-11.3135 -2.63025 1.19197e-06 
-10.9762 -2.64935 1.37413e-06 
[...]
POINT_DATA 1978 
VECTORS vectors float
0.035262 -0.0461696 0.998337 
0.0408982 -0.0526485 0.997781 
0.0378595 -0.0546284 0.997847 
0.0381244 -0.0456491 0.998269 
0.0385276 -0.0372723 0.998599 
0.0380531 -0.028144 0.998913 
0.0385291 -0.0193906 0.999108 
0.0388704 -0.0120206 0.999209 
0.0389994 -0.00655753 0.999251 
0.0390204 -0.00238868 0.999266 
0.0390295 0.000939259 0.999265 
0.0393312 0.00335686 0.999247 
0.0399773 0.00523945 0.99922 
0.0405382 0.00675883 0.999193 
0.0407497 0.00813789 0.999174 
0.0407462 0.00959621 0.999159 
0.040119 0.0110845 0.999142 
0.0398992 0.0123322 0.999157 
0.0398295 0.0139718 0.999141 
0.0398265 0.0155761 0.999116 
0.0398779 0.0172609 0.999088 
0.0400016 0.0192476 0.999048 
0.0399823 0.021922 0.998995 
0.0392908 0.0251539 0.998942 
0.0392348 0.0294884 0.998848 
0.0391331 0.0360411 0.998619 
0.0381854 0.0462803 0.998206 
0.0373035 0.0589701 0.99762 
0.037014 0.0776426 0.996312 
0.0359239 0.102543 0.994155 
0.034333 0.134756 0.990312 
0.0325816 0.175806 0.983946 
0.029396 0.22851 0.973161 
0.0255461 0.30512 0.952039 
0.0208997 0.402496 0.915257 
0.0151783 0.525145 0.850957 
0.00933116 0.665899 0.746061 
0.00391699 0.8222 0.569289 
0.00086558 0.958189 0.286068 
-4.36907e-05 0.998222 -0.059864 
-0.000395767 0.943784 -0.330597 
-0.00371295 0.827376 -0.561699 
-0.00861437 0.688927 -0.724859 
-0.014108 0.554445 -0.832141 
-0.0192145 0.434089 -0.900745 
-0.0244809 0.329713 -0.943837 
-0.028172 0.249876 -0.967934 
-0.0310499 0.186375 -0.982043 
-0.0335904 0.134598 -0.990377 
-0.0352373 0.100405 -0.994362 
-0.0369217 0.0732926 -0.996666 
-0.0380114 0.0568231 -0.997701 
-0.0385246 0.0446152 -0.998296 
-0.0390466 0.0358326 -0.998628 
-0.0395497 0.0296395 -0.998814 
-0.0395915 0.0251351 -0.998933 
-0.0396165 0.0217448 -0.999009 
-0.0397134 0.0192034 -0.999058 
-0.0399822 0.0171057 -0.999086 
-0.0401657 0.0153795 -0.999109 
-0.0402985 0.0138943 -0.999126 
-0.0402349 0.0127591 -0.999142 
-0.0403467 0.0114085 -0.999155 
-0.0401521 0.00982805 -0.999179 
-0.0401971 0.00830445 -0.999189 
-0.0402755 0.00683924 -0.999199 
-0.0403211 0.00532079 -0.999206 
-0.0403791 0.00363656 -0.999214 
-0.0402763 0.0011256 -0.999227 
-0.0391451 -0.00186967 -0.999262 
-0.038691 -0.00578662 -0.999259 
-0.0389645 -0.0115994 -0.999211 
-0.0382137 -0.0183236 -0.999136 
-0.0382246 -0.0278878 -0.998912 
-0.037847 -0.0360353 -0.998661 
-0.03804 -0.0461524 -0.99824 
-0.0381297 -0.0558666 -0.997749 
-0.0409585 -0.0519112 -0.997845 
-0.034885 -0.0464517 -0.998336 
0.0204904 -0.0532287 0.998374 
0.0272644 -0.0477263 0.998663 
0.0279602 -0.048482 0.998556 
0.0293522 -0.0448969 0.998712 
0.0298782 -0.0366108 0.99906 
0.0307905 -0.0288131 0.999238 
0.0308627 -0.0205234 0.999464 
0.0313972 -0.0137741 0.999562 
0.0320878 -0.0082848 0.9996 
0.0325477 -0.00384833 0.999611 
0.0327052 -0.000360582 0.999635 
0.0333022 0.00246749 0.999585 
0.0337958 0.00466598 0.999558 
0.0345139 0.00625512 0.999522 
0.0348917 0.00744215 0.999498 
0.0345295 0.00861312 0.999501 
0.0342942 0.00999893 0.999518 
0.0343204 0.0115969 0.99948 
0.0344168 0.0132669 0.999458 
0.0345483 0.014815 0.999432 
0.0346184 0.0165452 0.999402 
0.0345248 0.0185579 0.999369 
0.0343418 0.0210479 0.999326 
0.0341294 0.0248341 0.999246 
0.0338465 0.0295195 0.999105 
0.0329389 0.0357074 0.998958 
0.0320282 0.0447432 0.998649 
0.0309588 0.0582808 0.997939 
0.0293432 0.0771725 0.996758 
0.0275497 0.102563 0.994473 
0.0250388 0.136522 0.990506 
0.0225212 0.180266 0.983527 
0.0198083 0.243159 0.969958 
0.0162475 0.325955 0.945393 
0.0124097 0.430181 0.902845 
0.00867967 0.560576 0.828247 
0.00565071 0.713232 0.701082 
0.00382222 0.857503 0.514597 
0.00291373 0.959979 0.280171 
0.00202289 0.999971 0.00068199 
0.00160227 0.957017 -0.290164 
-0.000432551 0.843904 -0.536641 
-0.00390672 0.703204 -0.711155 
-0.00773559 0.552159 -0.833932 
-0.0123185 0.416224 -0.909368 
-0.016244 0.312791 -0.949864 
-0.0198735 0.233166 -0.972405 
-0.0236512 0.168257 -0.98562 
-0.0260318 0.123809 -0.992118 
-0.0286389 0.0905789 -0.995603 
-0.0299107 0.068038 -0.997403 
-0.0312523 0.0527366 -0.998261 
-0.0324795 0.0413414 -0.998756 
-0.0332919 0.0332587 -0.99903 
-0.033756 0.0276178 -0.999186 
-0.0340268 0.0234472 -0.999283 
-0.0343088 0.020227 -0.999344 
-0.034541 0.0177103 -0.999384 
-0.0347147 0.015724 -0.99941 
-0.0348445 0.0141497 -0.999429 
-0.0348865 0.0127881 -0.999445 
-0.0349536 0.0115636 -0.999457 
-0.0349165 0.0102294 -0.999473 
-0.0347186 0.00890815 -0.999492 
-0.0347866 0.00738186 -0.999502 
-0.0348244 0.0057795 -0.999511 
-0.034701 0.00412644 -0.999502 
-0.0343121 0.00228241 -0.999546 
-0.0337676 -1.62631e-06 -0.999592 
-0.0329273 -0.00327259 -0.999573 
-0.0322115 -0.0082168 -0.999595 
-0.0314235 -0.0137454 -0.999585 
-0.031023 -0.0208267 -0.999429 
-0.0302851 -0.0282828 -0.999318 
-0.0305621 -0.0380272 -0.998963 
-0.0290153 -0.0452841 -0.998705 
-0.0276046 -0.0479721 -0.998617 
-0.0266313 -0.0474317 -0.998673 
-0.0203799 -0.0529843 -0.998384 
0.0188616 -0.051225 0.998537 
0.0246778 -0.0426642 0.998934 
0.0294909 -0.0463843 0.998633 
0.0315127 -0.0431589 0.99872 
0.0327369 -0.0342753 0.999026 
0.0330249 -0.0270258 0.999236 
0.0341725 -0.0202173 0.999357 
0.0353006 -0.0141819 0.999421 
0.036038 -0.00864578 0.999456 
0.0369081 -0.00420277 0.999451 
0.0378655 -0.00106411 0.999421 
0.0380477 0.00149312 0.999389 
0.0387682 0.00358394 0.999378 
0.0396337 0.00524685 0.999334 
0.0402792 0.00657241 0.999322 
0.0405303 0.0079524 0.999277 
0.0398412 0.00931667 0.99927 
0.0400667 0.0107485 0.99927 
0.0399341 0.0121712 0.999261 
0.0399492 0.0136112 0.999243 
0.0399964 0.0152836 0.999217 
0.0400182 0.0172529 0.999183 
0.0398307 0.0196203 0.999168 
0.0391714 0.0231114 0.999076 
0.039198 0.0273281 0.998991 
0.038272 0.03333 0.998868 
0.0366417 0.0419318 0.99856 
0.0353846 0.0539213 0.998057 
0.0332658 0.0712194 0.997049 
0.0307707 0.0957593 0.995079 
0.0276915 0.130471 0.991224 
0.0244803 0.175206 0.984426 
0.0210567 0.237675 0.971261 
0.0166193 0.321812 0.946876 
0.0124098 0.434115 0.900969 
0.00868191 0.574881 0.818389 
0.0061354 0.722452 0.691579 
0.00361185 0.859922 0.510556 
0.00167368 0.963653 0.267228 
0.000525542 0.999443 -0.0332411 
-0.000309149 0.960095 -0.279761 
-0.000601556 0.860339 -0.509814 
-0.00290245 0.713992 -0.700382 
-0.00654836 0.570167 -0.821702 
-0.0113118 0.432214 -0.901898 
-0.0159861 0.324415 -0.945969 
-0.0204139 0.242475 -0.970119 
-0.0243408 0.178393 -0.983795 
-0.0275997 0.129814 -0.991339 
-0.0304773 0.0954423 -0.995115 
-0.0333946 0.0722168 -0.996975 
-0.0354167 0.054768 -0.99801 
-0.0368495 0.0430406 -0.998507 
-0.0380288 0.0342042 -0.998825 
-0.0388329 0.0278181 -0.999013 
-0.0392984 0.0234561 -0.999085 
-0.0396628 0.0201107 -0.999143 
-0.0399672 0.0175007 -0.999158 
-0.0401288 0.0153027 -0.999232 
-0.0404296 0.0137366 -0.999198 
-0.040369 0.012241 -0.999264 
-0.040387 0.0110554 -0.999233 
-0.0405434 0.00965391 -0.999285 
-0.040214 0.0084805 -0.999265 
-0.0400062 0.00700157 -0.999329 
-0.0399465 0.00543277 -0.999297 
-0.0395181 0.0035763 -0.999367 
-0.0391908 0.00157812 -0.999388 
-0.0384466 -0.000973838 -0.999375 
-0.0363666 -0.00436123 -0.999469 
-0.0363317 -0.00902599 -0.999441 
-0.0356893 -0.0147558 -0.999399 
-0.0338326 -0.0206683 -0.999359 
-0.0337239 -0.0266572 -0.999223 
-0.0320398 -0.0344759 -0.999015 
-0.0317213 -0.0428725 -0.998726 
-0.0292093 -0.0465767 -0.998658 
-0.0246871 -0.0431202 -0.99889 
-0.0174646 -0.0511303 -0.998593 
0.0132869 -0.0511745 0.998634 
0.0225637 -0.0419262 0.999017 
0.0267761 -0.0461043 0.998752 
0.028779 -0.0421033 0.998851 
0.0297062 -0.0329384 0.999142 
0.0311607 -0.0255725 0.999336 
0.0316235 -0.0196564 0.999478 
0.0329226 -0.0136245 0.999511 
0.0344531 -0.00830388 0.999492 
0.0349511 -0.00419335 0.999522 
0.0354223 -0.00111707 0.999512 
0.0369408 0.00122697 0.999455 
0.0370877 0.00309667 0.999444 
0.0373133 0.00478228 0.999427 
0.036957 0.0063021 0.999409 
0.0374343 0.00766622 0.999403 
0.0384803 0.00899069 0.999373 
0.0384555 0.0103252 0.999341 
0.0384154 0.0116544 0.999329 
0.0383287 0.0130901 0.999314 
0.0380991 0.0147534 0.999299 
0.0377404 0.0167231 0.999281 
0.0375585 0.0192924 0.999219 
0.0378489 0.0225825 0.999184 
0.0367468 0.0271071 0.999091 
0.0357777 0.0333186 0.998939 
0.0354286 0.0418 0.998635 
0.0334956 0.054517 0.998093 
0.0311333 0.0717497 0.997086 
0.0283438 0.0978548 0.994954 
0.0242139 0.130259 0.991354 
0.021009 0.179108 0.983789 
0.0181433 0.244751 0.969601 
0.0139845 0.334119 0.942626 
0.0101031 0.452514 0.891909 
0.00701751 0.584834 0.811333 
0.00469235 0.728039 0.68571 
0.00306179 0.879291 0.47637 
0.00152691 0.971928 0.235374 
0.00111368 0.999804 0.0202874 
-0.000270603 0.964351 -0.264641 
-0.0018091 0.863324 -0.504795 
-0.00235848 0.731935 -0.681569 
-0.00481318 0.581797 -0.813532 
-0.0087058 0.446509 -0.894907 
-0.0126869 0.329363 -0.944361 
-0.0174224 0.243455 -0.969946 
-0.0226785 0.17961 -0.983649 
-0.0254106 0.132152 -0.991071 
-0.0289599 0.0981382 -0.994906 
-0.0305308 0.0743751 -0.996889 
-0.03261 0.0560934 -0.998038 
-0.0343894 0.0427894 -0.998655 
-0.035639 0.03398 -0.998923 
-0.0365259 0.0276193 -0.999062 
-0.0374154 0.0229021 -0.999171 
-0.0378491 0.0194499 -0.999228 
-0.0380996 0.0168221 -0.999289 
-0.0381211 0.0148385 -0.999275 
-0.0379309 0.0131151 -0.999351 
-0.0379829 0.0117495 -0.999321 
-0.0380795 0.0104601 -0.999376 
-0.0380345 0.00916523 -0.999346 
-0.0381356 0.00783222 -0.999398 
-0.0378733 0.00648371 -0.999373 
-0.0375286 0.0049281 -0.99944 
-0.0366189 0.00313294 -0.999459 
-0.0361775 0.00103524 -0.999458 
-0.0358609 -0.00152047 -0.999518 
-0.0361735 -0.00484649 -0.999475 
-0.0345119 -0.00956881 -0.999502 
-0.0323642 -0.0147999 -0.999512 
-0.0326562 -0.0205289 -0.999403 
-0.0307668 -0.0267497 -0.999317 
-0.0312672 -0.0338523 -0.999088 
-0.0289316 -0.0430011 -0.998808 
-0.0259455 -0.0464368 -0.998732 
-0.0218008 -0.0426415 -0.999002 
-0.0128817 -0.0510659 -0.998637 
0.00985695 -0.0491401 0.99877 
0.0179931 -0.0429577 0.999065 
0.020774 -0.0466317 0.998821 
0.0224219 -0.0429546 0.998978 
0.0234567 -0.0340873 0.999295 
0.0253662 -0.0266815 0.999494 
0.0263007 -0.0210995 0.999552 
0.0272244 -0.0148887 0.999663 
0.0284043 -0.00917124 0.999721 
0.0290608 -0.00495224 0.999706 
0.0300188 -0.00150245 0.999664 
0.031121 0.00113872 0.999676 
0.0314563 0.00308462 0.999636 
0.0317607 0.00479925 0.999618 
0.0316357 0.00637963 0.999612 
0.0324395 0.0077613 0.999575 
0.0333788 0.0090088 0.999535 
0.0330644 0.010278 0.999534 
0.0330946 0.0115909 0.999519 
0.0330043 0.0130239 0.999503 
0.0326979 0.0146742 0.999489 
0.0324136 0.0167737 0.999465 
0.0322976 0.0196422 0.999416 
0.032426 0.0230995 0.999338 
0.0311639 0.028072 0.999251 
0.0302287 0.0350988 0.999037 
0.0297302 0.0440251 0.998748 
0.0274375 0.057348 0.998122 
0.0254152 0.0772341 0.996842 
0.0222062 0.101837 0.994718 
0.0184536 0.142497 0.989802 
0.0154422 0.194298 0.980982 
0.0133769 0.2587 0.966101 
0.0101677 0.359211 0.933417 
0.00708478 0.475273 0.87999 
0.00480214 0.607633 0.794471 
0.0035535 0.780089 0.625843 
0.00169584 0.890329 0.4554 
0.00369514 0.942347 0.33477 
0.00222488 0.999845 -0.0170608 
-0.0007495 0.972142 -0.234423 
-0.00175578 0.887511 -0.460949 
-0.00308774 0.750999 -0.66044 
-0.0039879 0.586606 -0.810081 
-0.00637911 0.43954 -0.898461 
-0.00911693 0.329118 -0.944423 
-0.0126824 0.245262 -0.969575 
-0.0176204 0.179127 -0.98385 
-0.0197757 0.132773 -0.991126 
-0.0233961 0.0974727 -0.995153 
-0.0252245 0.0712822 -0.997289 
-0.027642 0.0532635 -0.998342 
-0.0293242 0.0412085 -0.998858 
-0.0304703 0.0325114 -0.999141 
-0.0312427 0.0261869 -0.999301 
-0.032117 0.0217249 -0.99938 
-0.0325465 0.0184303 -0.999432 
-0.0328323 0.0159879 -0.999465 
-0.0327239 0.0140048 -0.999499 
-0.0327974 0.0124161 -0.999517 
-0.0325629 0.0110674 -0.999541 
-0.0330573 0.00986459 -0.999537 
-0.0326789 0.00855446 -0.999562 
-0.0326187 0.00731495 -0.999574 
-0.0323302 0.00588539 -0.999593 
-0.0319585 0.00432911 -0.999613 
-0.0311013 0.00243526 -0.999647 
-0.0303123 0.000258342 -0.999676 
-0.0299183 -0.00234159 -0.999665 
-0.030813 -0.00548033 -0.999651 
-0.0284401 -0.00981437 -0.99969 
-0.0266007 -0.0157436 -0.999666 
-0.0268613 -0.0216562 -0.99955 
-0.0247738 -0.0277798 -0.999453 
-0.0254008 -0.0343421 -0.999238 
-0.0226473 -0.04331 -0.998956 
-0.0200535 -0.0463957 -0.998869 
-0.0172329 -0.042612 -0.999093 
-0.0108288 -0.0511408 -0.998659 
0.00895662 -0.0478849 0.99881 
0.0118346 -0.0446569 0.99906 
0.015061 -0.0440937 0.999062 
0.0173638 -0.0455087 0.998963 
0.0186132 -0.0379785 0.999255 
0.0204058 -0.0300134 0.999487 
0.0216999 -0.0245014 0.999607 
0.0226648 -0.0183981 0.999716 
0.0237237 -0.0121406 0.999786 
0.0243877 -0.00722771 0.999815 
0.0252565 -0.00328494 0.999813 
0.0263083 -0.00021607 0.99979 
0.026776 0.0019312 0.999774 
0.0272339 0.00381007 0.999754 
0.027651 0.00545025 0.999734 
0.0279545 0.00697371 0.999715 
0.028411 0.00825608 0.999693 
0.0288131 0.00942193 0.999672 
0.0286403 0.010653 0.999664 
0.0286523 0.0119158 0.999649 
0.0284585 0.0133441 0.999635 
0.0282882 0.0151396 0.999614 
0.0282091 0.0175973 0.999575 
0.0277704 0.0207355 0.999527 
0.027591 0.0246841 0.999443 
0.0266029 0.0307511 0.999302 
0.0256787 0.0391218 0.999038 
0.0244726 0.0493136 0.998625 
0.0225213 0.0661104 0.997707 
0.0197625 0.0866729 0.996202 
0.0170527 0.119597 0.992852 
0.0136357 0.167826 0.985914 
0.0110022 0.235457 0.97203 
0.00919137 0.311177 0.950486 
0.00656097 0.412698 0.911122 
0.00435326 0.548514 0.836315 
0.00322531 0.703135 0.711289 
0.0013261 0.841164 0.540962 
-2.09973e-05 0.990394 0.138548 
-0.00758707 0.997088 -0.07581 
-0.00576531 0.98725 -0.159293 
-0.00821259 0.904444 -0.426549 
-0.00469868 0.865469 -0.501138 
-0.00414977 0.649285 -0.760749 
-0.00486065 0.48388 -0.87535 
-0.00684581 0.359384 -0.933391 
-0.00937682 0.259531 -0.965905 
-0.0133004 0.18927 -0.982029 
-0.0152624 0.142102 -0.98992 
-0.0187071 0.105283 -0.994408 
-0.020807 0.0780389 -0.996893 
-0.023103 0.0565411 -0.998282 
-0.0247517 0.0429572 -0.998911 
-0.0260575 0.033693 -0.999227 
-0.0268715 0.0269038 -0.999408 
-0.0276014 0.0219331 -0.999508 
-0.02802 0.0184364 -0.999567 
-0.0283144 0.0158809 -0.999602 
-0.0284667 0.013946 -0.999627 
-0.0285353 0.0123199 -0.999647 
-0.028331 0.0109788 -0.999669 
-0.0286472 0.00975453 -0.999673 
-0.0285688 0.00856709 -0.999687 
-0.0279959 0.00720909 -0.999714 
-0.0279985 0.00588911 -0.999722 
-0.0274417 0.00422924 -0.999747 
-0.0269833 0.00242924 -0.999765 
-0.025942 0.000205364 -0.999797 
-0.0251924 -0.00245254 -0.999839 
-0.0256807 -0.00589285 -0.999792 
-0.0240006 -0.0109407 -0.999792 
-0.0224158 -0.0170202 -0.999746 
-0.0223668 -0.0230004 -0.999629 
-0.0204014 -0.0290315 -0.999515 
-0.0203509 -0.0352183 -0.99932 
-0.0179199 -0.0439949 -0.999019 
-0.0155437 -0.0468725 -0.998925 
-0.013573 -0.0424906 -0.999155 
-0.00852681 -0.0511815 -0.99868 
0.00674041 -0.0511589 0.998696 
0.00995438 -0.0426392 0.999217 
0.0130724 -0.0474932 0.998908 
0.0143278 -0.0434338 0.999126 
0.0160962 -0.0349682 0.999404 
0.0172773 -0.0288339 0.999577 
0.0185598 -0.0232292 0.999699 
0.0193749 -0.0167396 0.999813 
0.0199102 -0.0109582 0.99988 
0.0206276 -0.00609925 0.999905 
0.0216207 -0.00229085 0.999899 
0.0219442 0.00028755 0.999893 
0.0224818 0.00243498 0.999877 
0.0229196 0.00430611 0.999859 
0.0237066 0.00594025 0.999832 
0.0235529 0.00731914 0.999826 
0.0237587 0.00851175 0.999812 
0.024363 0.00966923 0.999787 
0.0240649 0.0108436 0.999782 
0.0240167 0.0121013 0.999767 
0.0238482 0.0136464 0.99975 
0.0239134 0.0157358 0.999717 
0.0234709 0.0184318 0.999681 
0.0227916 0.0220156 0.999625 
0.0229879 0.0269001 0.999503 
0.0220869 0.0343298 0.999299 
0.0205844 0.0439164 0.998962 
0.0198883 0.0576608 0.998261 
0.0170072 0.0753624 0.997198 
0.0149158 0.105318 0.994473 
0.0118241 0.147592 0.989208 
0.00948596 0.217412 0.97621 
0.00619751 0.317677 0.948449 
0.00362345 0.445328 0.895599 
0.00244374 0.610553 0.792206 
0.00202736 0.74028 0.672511 
-0.00108944 0.902514 0.430776 
-0.00150586 0.971042 0.239132 
-0.00108664 0.974605 0.223762 
-0.0142951 0.999677 -0.0207225 
-0.0128918 0.999782 0.0140882 
-0.015056 0.956141 -0.29239 
-0.0133218 0.860721 -0.50914 
-0.00567226 0.743527 -0.668835 
-0.00531165 0.530155 -0.848098 
-0.00611574 0.397267 -0.917914 
-0.00735239 0.29128 -0.956834 
-0.0102138 0.197383 -0.980514 
-0.0125308 0.140391 -0.990177 
-0.0154789 0.0991715 -0.995152 
-0.0181212 0.0711595 -0.997458 
-0.0195913 0.0525637 -0.998572 
-0.0208806 0.0400896 -0.999116 
-0.0219992 0.0314954 -0.999394 
-0.0227533 0.0251902 -0.999553 
-0.0231647 0.020696 -0.999645 
-0.0234903 0.0174297 -0.9997 
-0.0237269 0.0150551 -0.999733 
-0.0241031 0.0132225 -0.999751 
-0.0239499 0.0117559 -0.999773 
-0.0241314 0.01042 -0.999784 
-0.0240711 0.0092741 -0.999798 
-0.0241108 0.00809374 -0.999808 
-0.0231657 0.00678585 -0.99984 
-0.0234067 0.00538815 -0.999843 
-0.0225217 0.00372611 -0.999871 
-0.0222947 0.00180863 -0.99986 
-0.02108 -0.0004592 -0.999934 
-0.0207439 -0.0033535 -0.999893 
-0.021575 -0.00677318 -0.999882 
-0.0199393 -0.0117521 -0.999872 
-0.0186112 -0.0181047 -0.999804 
-0.0187089 -0.0242704 -0.999672 
-0.0168747 -0.0303786 -0.999539 
-0.0166341 -0.0367184 -0.999333 
-0.0142007 -0.0449343 -0.999036 
-0.0118678 -0.0475999 -0.99894 
-0.0101794 -0.0429374 -0.999175 
-0.00636129 -0.0510956 -0.998695 
0.00400674 -0.0514975 0.99869 
0.00718395 -0.0428686 0.999205 
0.00983679 -0.0481753 0.998935 
0.0107739 -0.0456202 0.999046 
0.0123222 -0.0373779 0.999346 
0.0130813 -0.0308066 0.999605 
0.0142944 -0.0252385 0.999696 
0.0151125 -0.0189082 0.999847 
0.0152882 -0.0126561 0.999941 
0.0159277 -0.00752836 0.999981 
0.0169373 -0.00344324 0.999985 
0.0168817 -0.000513324 0.99999 
0.0173766 0.00179438 0.999979 
0.0178343 0.00378687 0.999964 
0.018595 0.0054793 0.999942 
0.0186432 0.00684588 0.999933 
0.0183606 0.00812132 0.999928 
0.0189524 0.0092547 0.999907 
0.0190815 0.0103326 0.999894 
0.0187893 0.0115499 0.999885 
0.0188264 0.0129591 0.999866 
0.0190192 0.014864 0.999835 
0.0185166 0.0173734 0.999803 
0.017777 0.0207501 0.999753 
0.0177957 0.0254868 0.999665 
0.0178574 0.0319017 0.999441 
0.0161936 0.0407886 0.999196 
0.0156107 0.0543571 0.998547 
0.0133123 0.0722479 0.997456 
0.0115416 0.0997909 0.995151 
0.00933311 0.148793 0.988994 
0.00670789 0.226786 0.974186 
0.00453879 0.333611 0.942944 
0.00266849 0.488505 0.872757 
0.00115671 0.608339 0.793948 
0.000574791 0.757888 0.65245 
-0.00951674 0.966317 0.257284 
-0.00240723 0.983832 0.178961 
-0.00383645 0.997716 0.0666195 
-0.00577551 0.999639 -0.0269076 
-0.00621292 0.997608 -0.0685957 
-0.00585563 0.995607 -0.0934487 
-0.0132296 0.935313 -0.353697 
-0.00612981 0.654614 -0.756146 
-0.00873099 0.561905 -0.827366 
-0.00598383 0.469839 -0.882968 
-0.006124 0.330633 -0.944021 
-0.00750927 0.223864 -0.974811 
-0.00884018 0.159437 -0.987372 
-0.0114416 0.107985 -0.99427 
-0.0137429 0.0776448 -0.997025 
-0.0149322 0.056932 -0.998421 
-0.0159258 0.04263 -0.999106 
-0.0168901 0.0330838 -0.999444 
-0.0176729 0.0264385 -0.999623 
-0.0180065 0.0215037 -0.999733 
-0.0182672 0.0178864 -0.999799 
-0.0184038 0.0152529 -0.999861 
-0.0190638 0.0134264 -0.999835 
-0.018746 0.0118541 -0.999904 
-0.0194523 0.0106379 -0.999861 
-0.0187724 0.00936585 -0.999932 
-0.0191033 0.0082878 -0.999893 
-0.0183123 0.00702173 -0.999939 
-0.0182571 0.00553057 -0.999949 
-0.0176019 0.00392933 -0.999969 
-0.0169931 0.00185792 -1.00001 
-0.0163952 -0.000596692 -0.999978 
-0.0158456 -0.00362221 -1.00002 
-0.0165919 -0.00764793 -0.999972 
-0.015422 -0.0132475 -0.999934 
-0.0140772 -0.0197485 -0.999846 
-0.0147496 -0.0254382 -0.999708 
-0.0129071 -0.0312626 -0.999569 
-0.013073 -0.037199 -0.999367 
-0.0108219 -0.0455177 -0.999051 
-0.00885763 -0.0486576 -0.998919 
-0.00731927 -0.0432914 -0.999184 
-0.00463949 -0.0512522 -0.998703 
0.00301115 -0.0520527 0.998666 
0.00500335 -0.0436659 0.999179 
0.00700091 -0.0491365 0.998908 
0.00774782 -0.0469911 0.998984 
0.00881085 -0.0383281 0.999393 
0.00956161 -0.0320486 0.999557 
0.0102423 -0.0257486 0.999778 
0.0110953 -0.0189793 0.999896 