# vtk DataFile Version 3.0 
Exported using Morpho https://github.com/Morpho-lang/morpho 
ASCII 
DATASET UNSTRUCTURED_GRID 

POINTS 2054 float 
-8.48528 -2.82843 0 
-8.20636 -2.82843 0 
-7.94054 -2.82843 0 
-7.6904 -2.82843 0 
-7.45357 -2.82843 0 
-7.22694 -2.82843 0 
-7.00705 -2.82843 0 
-6.79111 -2.82843 0 
-6.57731 -2.82843 0 
-6.36453 -2.82843 0 
-6.15219 -2.82843 0 
-5.94 -2.82843 0 
-5.72786 -2.82843 0 
-5.51573 -2.82843 0 
-5.3036 -2.82843 0 
-5.09147 -2.82843 0 
-4.87933 -2.82843 0 
-4.6672 -2.82843 0 
-4.45507 -2.82843 0 
-4.24294 -2.82843 0 
-4.03081 -2.82843 0 
-3.81867 -2.82843 0 
-3.60654 -2.82843 0 
-3.39441 -2.82843 0 
-3.18228 -2.82843 0 
-2.97015 -2.82843 0 
-2.75801 -2.82843 0 
-2.54588 -2.82843 0 
-2.33375 -2.82843 0 
-2.12162 -2.82843 0 
-1.90949 -2.82843 0 
-1.69735 -2.82843 0 
-1.48522 -2.82843 0 
-1.27309 -2.82843 0 
-1.06096 -2.82843 0 
-0.848825 -2.82843 0 
-0.636693 -2.82843 0 
-0.424561 -2.82843 0 
-0.212429 -2.82843 0 
-0.000296761 -2.82843 0 
0.211835 -2.82843 0 
0.423967 -2.82843 0 
0.636099 -2.82843 0 
0.848231 -2.82843 0 
1.06036 -2.82843 0 
1.2725 -2.82843 0 
1.48463 -2.82843 0 
1.69676 -2.82843 0 
1.90889 -2.82843 0 
2.12102 -2.82843 0 
2.33316 -2.82843 0 
2.54529 -2.82843 0 
2.75742 -2.82843 0 
2.96955 -2.82843 0 
3.18168 -2.82843 0 
3.39382 -2.82843 0 
3.60595 -2.82843 0 
3.81808 -2.82843 0 
4.03021 -2.82843 0 
4.24234 -2.82843 0 
4.45448 -2.82843 0 
4.66661 -2.82843 0 
4.87874 -2.82843 0 
5.09087 -2.82843 0 
5.303 -2.82843 0 
5.51514 -2.82843 0 
5.72727 -2.82843 0 
5.93941 -2.82843 0 
6.15159 -2.82843 0 
6.36393 -2.82843 0 
6.57672 -2.82843 0 
6.79055 -2.82843 0 
7.00652 -2.82843 0 
7.22647 -2.82843 0 
7.45313 -2.82843 0 
7.69005 -2.82843 0 
7.9403 -2.82843 0 
8.20621 -2.82843 0 
8.48528 -2.82843 0 
-8.48528 -2.5495 0 
-8.30526 -2.64845 0 
-8.07062 -2.59995 0 
-7.83904 -2.59637 0 
-7.59595 -2.59733 0 
-7.36578 -2.59177 0 
-7.13796 -2.5933 0 
-6.90908 -2.59428 0 
-6.68421 -2.5916 0 
-6.46568 -2.58832 0 
-6.24926 -2.58859 0 
-6.03358 -2.58941 0 
-5.81848 -2.59013 0 
-5.60402 -2.59075 0 
-5.39005 -2.59135 0 
-5.17642 -2.59186 0 
-4.96311 -2.59223 0 
-4.75009 -2.59242 0 
-4.53736 -2.59244 0 
-4.32497 -2.59236 0 
-4.1128 -2.59242 0 
-3.90059 -2.59259 0 
-3.68835 -2.5926 0 
-3.47627 -2.59248 0 
-3.26428 -2.59251 0 
-3.05216 -2.59271 0 
-2.83986 -2.59283 0 
-2.62755 -2.59274 0 
-2.41539 -2.59253 0 
-2.20336 -2.59238 0 
-1.99135 -2.59238 0 
-1.77924 -2.59246 0 
-1.56704 -2.59244 0 
-1.35495 -2.59215 0 
-1.14319 -2.59183 0 
-0.931581 -2.59195 0 
-0.719663 -2.59256 0 
-0.507197 -2.59324 0 
-0.294425 -2.59354 0 
-0.0817689 -2.59344 0 
0.130587 -2.59325 0 
0.342804 -2.59322 0 
0.555051 -2.59322 0 
0.767233 -2.59303 0 
0.97919 -2.59278 0 
1.19107 -2.59278 0 
1.40311 -2.59289 0 
1.61524 -2.59286 0 
1.82732 -2.59279 0 
2.03943 -2.59281 0 
2.25163 -2.5928 0 
2.46381 -2.59266 0 
2.67591 -2.59254 0 
2.88801 -2.59237 0 
3.10001 -2.59226 0 
3.31203 -2.59216 0 
3.52402 -2.59207 0 
3.73601 -2.59208 0 
3.94815 -2.59221 0 
4.16052 -2.5923 0 
4.37309 -2.59232 0 
4.58593 -2.59227 0 
4.79921 -2.5922 0 
5.01319 -2.59212 0 
5.22833 -2.5921 0 
5.44534 -2.59239 0 
5.6657 -2.59346 0 
5.89185 -2.59569 0 
6.12685 -2.59429 0 
6.36853 -2.59189 0 
6.6108 -2.57787 0 
6.84491 -2.61411 0 
7.08804 -2.58476 0 
7.34858 -2.60369 0 
7.58803 -2.59327 0 
7.83059 -2.59326 0 
8.06387 -2.59199 0 
8.30038 -2.64348 0 
8.48528 -2.54936 0 
-8.48528 -2.28369 0 
-8.25701 -2.4138 0 
-8.01078 -2.35334 0 
-7.73666 -2.37963 0 
-7.49744 -2.35565 0 
-7.26898 -2.35831 0 
-7.03324 -2.36676 0 
-6.7997 -2.36275 0 
-6.5773 -2.35166 0 
-6.35808 -2.3495 0 
-6.14038 -2.35058 0 
-5.92336 -2.35185 0 
-5.70723 -2.35272 0 
-5.49199 -2.35362 0 
-5.27734 -2.35447 0 
-5.0632 -2.35505 0 
-4.84958 -2.35534 0 
-4.63641 -2.35533 0 
-4.42363 -2.35504 0 
-4.21126 -2.35485 0 
-3.99909 -2.35513 0 
-3.78684 -2.3554 0 
-3.57461 -2.35516 0 
-3.36263 -2.35498 0 
-3.15066 -2.35537 0 
-2.93843 -2.35586 0 
-2.72604 -2.35589 0 
-2.51374 -2.35551 0 
-2.30162 -2.35509 0 
-2.08964 -2.35496 0 
-1.87761 -2.35518 0 
-1.66544 -2.3554 0 
-1.45322 -2.35518 0 
-1.2412 -2.35438 0 
-1.02967 -2.35407 0 
-0.818162 -2.35505 0 
-0.606054 -2.35676 0 
-0.393243 -2.3579 0 
-0.180256 -2.35789 0 
0.0323765 -2.35727 0 
0.244686 -2.35692 0 
0.456926 -2.35692 0 
0.669206 -2.35667 0 
0.881318 -2.35598 0 
1.09315 -2.35559 0 
1.305 -2.35583 0 
1.51709 -2.35595 0 
1.72919 -2.35571 0 
1.9412 -2.35566 0 
2.15334 -2.3558 0 
2.36559 -2.3556 0 
2.57772 -2.35522 0 
2.78976 -2.35507 0 
3.0019 -2.35461 0 
3.21373 -2.35451 0 
3.42571 -2.35439 0 
3.63769 -2.35431 0 
3.84965 -2.35453 0 
4.06183 -2.35491 0 
4.27435 -2.35507 0 
4.48707 -2.35507 0 
4.70017 -2.35506 0 
4.91376 -2.35498 0 
5.12819 -2.35502 0 
5.34378 -2.35528 0 
5.56106 -2.35662 0 
5.78097 -2.35971 0 
6.00401 -2.36251 0 
6.2308 -2.3624 0 
6.45748 -2.35551 0 
6.68075 -2.33423 0 
6.88797 -2.39744 0 
7.05313 -2.27289 0 
7.24377 -2.40237 0 
7.48542 -2.36016 0 
7.73055 -2.36599 0 
7.99177 -2.33552 0 
8.24864 -2.40698 0 
8.48528 -2.28345 0 
-8.48528 -2.03355 0 
-8.25312 -2.18214 0 
-8.03669 -2.07913 0 
-7.83956 -2.18231 0 
-7.6106 -2.12852 0 
-7.38852 -2.10959 0 
-7.16268 -2.14097 0 
-6.9229 -2.1435 0 
-6.70119 -2.12055 0 
-6.48111 -2.11285 0 
-6.26282 -2.11284 0 
-6.045 -2.1151 0 
-5.82775 -2.11658 0 
-5.61153 -2.11776 0 
-5.3962 -2.1192 0 
-5.18144 -2.1203 0 
-4.96732 -2.12084 0 
-4.75387 -2.12105 0 
-4.54086 -2.12091 0 
-4.32822 -2.12045 0 
-4.11596 -2.12045 0 
-3.90382 -2.12107 0 
-3.69156 -2.12116 0 
-3.47938 -2.12058 0 
-3.26746 -2.12068 0 
-3.05542 -2.12154 0 
-2.84307 -2.12198 0 
-2.63064 -2.12162 0 
-2.41836 -2.12087 0 
-2.20626 -2.12031 0 
-1.99426 -2.12034 0 
-1.78217 -2.1207 0 
-1.56989 -2.12074 0 
-1.35755 -2.11993 0 
-1.14542 -2.11838 0 
-0.934012 -2.11859 0 
-0.722404 -2.12089 0 
-0.509943 -2.12344 0 
-0.296911 -2.12431 0 
-0.0840921 -2.12359 0 
0.128295 -2.12281 0 
0.340414 -2.12274 0 
0.552564 -2.12288 0 
0.76478 -2.12226 0 
0.976792 -2.1213 0 
1.18855 -2.12128 0 
1.40042 -2.12188 0 
1.61256 -2.12177 0 
1.82458 -2.12141 0 
2.03655 -2.12164 0 
2.24875 -2.12174 0 
2.46099 -2.12114 0 
2.67302 -2.12065 0 
2.88504 -2.12054 0 
3.09728 -2.1194 0 
3.30873 -2.11968 0 
3.52086 -2.1195 0 
3.7329 -2.11938 0 
3.94484 -2.11986 0 
4.15715 -2.12044 0 
4.36983 -2.12035 0 
4.58282 -2.1204 0 
4.79606 -2.12017 0 
5.01004 -2.12012 0 
5.22483 -2.12002 0 
5.44073 -2.12051 0 
5.6582 -2.123 0 
5.8782 -2.12696 0 
6.10217 -2.12971 0 
6.33095 -2.12707 0 
6.567 -2.11601 0 
6.82301 -2.12303 0 
7.06572 -2.04567 0 
7.29733 -2.17484 0 
7.54632 -2.11408 0 
7.79371 -2.13741 0 
8.02274 -2.07453 0 
8.25027 -2.1738 0 
8.48528 -2.0332 0 
-8.48528 -1.79671 0 
-8.25436 -1.93882 0 
-8.01299 -1.83977 0 
-7.78596 -1.953 0 
-7.5297 -1.87194 0 
-7.2756 -1.88722 0 
-7.05707 -1.93544 0 
-6.84369 -1.89677 0 
-6.62219 -1.88079 0 
-6.40169 -1.87606 0 
-6.18206 -1.87854 0 
-5.96274 -1.881 0 
-5.74458 -1.88208 0 
-5.52796 -1.88344 0 
-5.31232 -1.88506 0 
-5.09736 -1.88569 0 
-4.88338 -1.88564 0 
-4.67019 -1.88555 0 
-4.45737 -1.88507 0 
-4.24485 -1.88447 0 
-4.03271 -1.88482 0 
-3.82061 -1.88562 0 
-3.60832 -1.88529 0 
-3.39617 -1.88464 0 
-3.18427 -1.88547 0 
-2.97209 -1.88672 0 
-2.7596 -1.88684 0 
-2.54714 -1.88601 0 
-2.33483 -1.88505 0 
-2.12268 -1.8846 0 
-1.91058 -1.885 0 
-1.69824 -1.88561 0 
-1.48561 -1.88547 0 
-1.27286 -1.88413 0 
-1.06032 -1.88216 0 
-0.848858 -1.8839 0 
-0.636875 -1.88781 0 
-0.424169 -1.89034 0 
-0.211518 -1.89004 0 
0.000731944 -1.88866 0 
0.21257 -1.88788 0 
0.424308 -1.88807 0 
0.636257 -1.88793 0 
0.848362 -1.88664 0 
1.06025 -1.88556 0 
1.27191 -1.88605 0 
1.48381 -1.88664 0 
1.69595 -1.886 0 
1.90782 -1.88577 0 
2.11974 -1.88637 0 
2.33202 -1.88609 0 
2.54419 -1.88502 0 
2.75607 -1.88472 0 
2.96812 -1.88462 0 
3.18055 -1.88217 0 
3.39117 -1.88415 0 
3.60398 -1.8838 0 
3.81618 -1.88366 0 
4.02827 -1.88469 0 
4.24071 -1.88523 0 
4.4544 -1.88509 0 
4.66716 -1.88476 0 
4.88099 -1.88493 0 
5.09545 -1.88466 0 
5.31057 -1.88453 0 
5.52653 -1.88564 0 
5.7436 -1.88981 0 
5.96352 -1.89563 0 
6.18733 -1.89813 0 
6.41543 -1.89522 0 
6.65059 -1.89622 0 
6.87542 -1.86913 0 
7.11122 -1.81621 0 
7.31223 -1.94975 0 
7.53264 -1.87683 0 
7.77077 -1.89068 0 
8.01717 -1.8297 0 
8.25014 -1.93148 0 
8.48528 -1.79628 0 
-8.48528 -1.57009 0 
-8.24868 -1.70836 0 
-8.015 -1.61096 0 
-7.76734 -1.73071 0 
-7.54593 -1.61782 0 
-7.32306 -1.66278 0 
-7.05152 -1.7082 0 
-6.79786 -1.66675 0 
-6.56099 -1.64764 0 
-6.33267 -1.64541 0 
-6.10856 -1.64921 0 
-5.88638 -1.65073 0 
-5.66697 -1.65153 0 
-5.44986 -1.65353 0 
-5.23379 -1.65525 0 
-5.01882 -1.6551 0 
-4.80519 -1.6548 0 
-4.59235 -1.65478 0 
-4.37976 -1.65422 0 
-4.16737 -1.65386 0 
-3.95537 -1.65471 0 
-3.74326 -1.6554 0 
-3.5309 -1.65455 0 
-3.31876 -1.65426 0 
-3.10682 -1.65593 0 
-2.89443 -1.65705 0 
-2.68177 -1.65644 0 
-2.46924 -1.65516 0 
-2.25682 -1.65408 0 
-2.04447 -1.65386 0 
-1.83202 -1.65455 0 
-1.61911 -1.65506 0 
-1.40572 -1.65429 0 
-1.19212 -1.65207 0 
-0.97885 -1.64982 0 
-0.767325 -1.65372 0 
-0.555434 -1.6581 0 
-0.343588 -1.65935 0 
-0.132061 -1.65818 0 
0.0792288 -1.65687 0 
0.290417 -1.65682 0 
0.501823 -1.6575 0 
0.713729 -1.65709 0 
0.925861 -1.65545 0 
1.13768 -1.65488 0 
1.34929 -1.65604 0 
1.56128 -1.6563 0 
1.77337 -1.65516 0 
1.985 -1.65561 0 
2.19698 -1.65642 0 
2.40939 -1.65525 0 
2.62143 -1.65394 0 
2.83323 -1.65414 0 
3.04553 -1.65355 0 
3.25842 -1.64868 0 
3.46746 -1.65522 0 
3.68272 -1.65284 0 
3.89574 -1.65288 0 
4.10731 -1.65378 0 
4.32287 -1.65565 0 
4.53627 -1.65249 0 
4.74932 -1.65397 0 
4.96428 -1.65355 0 
5.17935 -1.65257 0 
5.3944 -1.65202 0 
5.60927 -1.65354 0 
5.82513 -1.66019 0 
6.04295 -1.66711 0 
6.26383 -1.66843 0 
6.48537 -1.66776 0 
6.70098 -1.65646 0 
6.91299 -1.6206 0 
7.11709 -1.6046 0 
7.3526 -1.69716 0 
7.60698 -1.65764 0 
7.8325 -1.64214 0 
8.05985 -1.58842 0 
8.2608 -1.69223 0 
8.48528 -1.56961 0 
-8.48528 -1.35019 0 
-8.24958 -1.48044 0 
-8.0219 -1.3751 0 
-7.79713 -1.50391 0 
-7.58956 -1.39834 0 
-7.36199 -1.38754 0 
-7.16079 -1.49923 0 
-6.93764 -1.46284 0 
[...]
POINT_DATA 2054 
VECTORS vectors float
0.000871253 -0.00216615 0.999997 
0.000440663 -0.008361 0.999965 
0.000518099 -0.00984315 0.999951 
0.000542732 -0.00927763 0.999957 
0.000552041 -0.00841436 0.999964 
0.000565327 -0.00713873 0.999974 
0.000581056 -0.00575403 0.999983 
0.000593049 -0.00441901 0.99999 
0.000600209 -0.00315667 0.999995 
0.000602526 -0.00191581 0.999998 
0.000602041 -0.000652829 1 
0.000599998 0.000669738 1 
0.00059617 0.00209696 0.999998 
0.000590431 0.00368048 0.999993 
0.000582331 0.00548351 0.999985 
0.000571187 0.00758752 0.999971 
0.000556317 0.0100965 0.999949 
0.000536885 0.0131395 0.999914 
0.000511812 0.016876 0.999857 
0.000479846 0.021503 0.999769 
0.000439299 0.0272647 0.999628 
0.000388226 0.0344655 0.999406 
0.000324135 0.0434843 0.999054 
0.000243873 0.0547936 0.998498 
0.000143742 0.0689789 0.997618 
1.93096e-05 0.0867634 0.996229 
-0.000134672 0.109036 0.994038 
-0.000324186 0.136874 0.990588 
-0.000555569 0.171568 0.985172 
-0.000834634 0.214613 0.976699 
-0.00116456 0.267657 0.963514 
-0.00154251 0.332335 0.94316 
-0.00195323 0.409922 0.912118 
-0.00236005 0.500741 0.865594 
-0.00269492 0.603208 0.797579 
-0.0028536 0.71264 0.701524 
-0.00271015 0.82024 0.572013 
-0.0021641 0.913237 0.407424 
-0.00121301 0.977121 0.212681 
-1.35977e-06 1 0.000247258 
0.00121105 0.977222 -0.212218 
0.00216353 0.913408 -0.407039 
0.00271047 0.820444 -0.571721 
0.00285445 0.712847 -0.701314 
0.00269584 0.603408 -0.797428 
0.00236091 0.50092 -0.86549 
0.00195419 0.410085 -0.912045 
0.00154344 0.332483 -0.943108 
0.00116532 0.267794 -0.963475 
0.00083515 0.214737 -0.976672 
0.000556039 0.171677 -0.985153 
0.00032466 0.136971 -0.990575 
0.000135097 0.109122 -0.994028 
-1.893e-05 0.0868393 -0.996222 
-0.000143397 0.0690444 -0.997614 
-0.000243548 0.0548492 -0.998495 
-0.000323855 0.0435318 -0.999052 
-0.000388003 0.0345057 -0.999404 
-0.000439079 0.0272991 -0.999627 
-0.00047957 0.0215327 -0.999768 
-0.000511546 0.016902 -0.999857 
-0.000536622 0.0131626 -0.999913 
-0.000556009 0.0101173 -0.999949 
-0.000570791 0.00760697 -0.999971 
-0.000581732 0.00550275 -0.999985 
-0.000589608 0.00370067 -0.999993 
-0.000594921 0.00211963 -0.999998 
-0.000597876 0.000695875 -1 
-0.000599986 -0.000619426 -1 
-0.000597342 -0.00187679 -0.999998 
-0.000607916 -0.00311826 -0.999995 
-0.000579771 -0.00437464 -0.99999 
-0.000585702 -0.00567937 -0.999984 
-0.000564448 -0.00704194 -0.999975 
-0.000550821 -0.00828682 -0.999966 
-0.000541549 -0.00910489 -0.999958 
-0.000518829 -0.00966296 -0.999953 
-0.000435584 -0.00818606 -0.999966 
-0.000870108 -0.00215159 -0.999997 
0.000578164 -0.000725607 1 
0.00220431 -0.0072122 0.999972 
0.00262771 -0.00844116 0.999961 
0.00280689 -0.00919066 0.999954 
0.00288192 -0.00862226 0.999959 
0.00286922 -0.00759812 0.999967 
0.00287411 -0.00640094 0.999975 
0.00289462 -0.0050607 0.999983 
0.00292733 -0.00372226 0.999989 
0.00295774 -0.00244428 0.999993 
0.00296924 -0.00117375 0.999995 
0.00296296 0.000140942 0.999996 
0.00294269 0.00154285 0.999994 
0.00290813 0.00308101 0.999991 
0.00285657 0.00481854 0.999984 
0.00278373 0.00683282 0.999973 
0.00268497 0.00921862 0.999954 
0.00255545 0.0120948 0.999924 
0.0023895 0.0156086 0.999875 
0.00218027 0.0199405 0.999799 
0.00191948 0.025317 0.999678 
0.00159794 0.0320255 0.999486 
0.00120511 0.0404184 0.999182 
0.000728927 0.0509229 0.998702 
0.000156158 0.0640782 0.997945 
-0.000527404 0.0805653 0.996749 
-0.00133633 0.101217 0.994863 
-0.00228282 0.127024 0.991897 
-0.00337272 0.159158 0.987247 
-0.00460081 0.199003 0.979988 
-0.00594439 0.24813 0.968708 
-0.00735402 0.308182 0.951299 
-0.00873996 0.380579 0.924707 
-0.00995488 0.465984 0.884737 
-0.0107826 0.563555 0.826008 
-0.010954 0.67012 0.742172 
-0.0101952 0.779062 0.626864 
-0.00831448 0.879382 0.476044 
-0.0053256 0.956572 0.291449 
-0.00153562 0.99655 0.0829774 
0.00249646 0.991174 -0.132542 
0.00613463 0.941726 -0.336324 
0.00887536 0.858131 -0.513354 
0.0104836 0.754776 -0.655899 
0.0110016 0.645521 -0.763664 
0.0106505 0.540448 -0.84131 
0.00971041 0.445403 -0.895278 
0.00844008 0.362982 -0.931758 
0.00703703 0.293542 -0.95592 
0.00563328 0.236112 -0.971709 
0.00431063 0.189205 -0.981928 
0.00311332 0.151235 -0.988493 
0.00205772 0.120676 -0.99269 
0.00114461 0.0961634 -0.995365 
0.00036551 0.0765555 -0.997065 
-0.000291985 0.0608868 -0.998145 
-0.000841704 0.0483793 -0.998829 
-0.00129763 0.0383947 -0.999262 
-0.00167284 0.030414 -0.999536 
-0.00197903 0.0240241 -0.999709 
-0.00222642 0.018895 -0.999819 
-0.00242376 0.0147583 -0.999888 
-0.00257812 0.0113967 -0.999932 
-0.00269545 0.00863438 -0.999959 
-0.00278031 0.00632848 -0.999976 
-0.00283495 0.00436278 -0.999986 
-0.00285929 0.00263891 -0.999992 
-0.00285955 0.00107189 -0.999995 
-0.00285629 -0.00040773 -0.999996 
-0.00286138 -0.0018354 -0.999994 
-0.00284779 -0.0032402 -0.999991 
-0.00279588 -0.00463425 -0.999985 
-0.00285518 -0.00601555 -0.999978 
-0.00282808 -0.007419 -0.999968 
-0.00282053 -0.00843706 -0.99996 
-0.0027578 -0.00899529 -0.999956 
-0.00257396 -0.00825189 -0.999963 
-0.00219012 -0.00714127 -0.999972 
-0.000549408 -0.000724163 -1 
0.000615883 -0.000943162 0.999999 
0.00195824 -0.00685941 0.999975 
0.00296486 -0.00834278 0.999961 
0.00330196 -0.00893665 0.999955 
0.00354928 -0.00797015 0.999962 
0.00365652 -0.00696127 0.999969 
0.00372266 -0.00575246 0.999977 
0.00381197 -0.00438269 0.999983 
0.00389693 -0.00305999 0.999988 
0.00393032 -0.00176955 0.999991 
0.00393463 -0.000459947 0.999992 
0.00391861 0.000919053 0.999992 
0.00388275 0.00241211 0.99999 
0.00382209 0.00407935 0.999984 
0.00373121 0.00599613 0.999975 
0.00360436 0.00824919 0.999959 
0.00343482 0.0109446 0.999934 
0.00321535 0.0142168 0.999894 
0.00293783 0.0182328 0.999829 
0.00259202 0.0231967 0.999728 
0.00216612 0.0293662 0.999566 
0.00164792 0.0370694 0.999311 
0.00102368 0.0467022 0.998908 
0.000278336 0.0587394 0.998273 
-0.000603311 0.0737915 0.997274 
-0.00163623 0.0926282 0.995699 
-0.00283238 0.116163 0.993226 
-0.00419501 0.145463 0.989355 
-0.00571347 0.181787 0.983321 
-0.00735636 0.226577 0.973966 
-0.00906423 0.281427 0.95954 
-0.0107383 0.34787 0.937481 
-0.0122264 0.426974 0.904181 
-0.0133122 0.518701 0.854852 
-0.0137142 0.621012 0.783681 
-0.0131347 0.72922 0.684153 
-0.0113316 0.834724 0.550552 
-0.00822478 0.92449 0.381118 
-0.00401487 0.983342 0.181723 
0.000780723 0.999445 -0.0332891 
0.00545772 0.969518 -0.244959 
0.00935501 0.900044 -0.435699 
0.012058 0.80417 -0.594278 
0.013463 0.696604 -0.71733 
0.0137094 0.589307 -0.807793 
0.0130645 0.489783 -0.871746 
0.0118281 0.401804 -0.915649 
0.0102616 0.326642 -0.945092 
0.00855864 0.26387 -0.96452 
0.00685548 0.212179 -0.977207 
0.00524369 0.17006 -0.98542 
0.00377244 0.136012 -0.9907 
0.0024614 0.108608 -0.994082 
0.00131576 0.0866045 -0.996242 
0.000329783 0.0690029 -0.997616 
-0.00050985 0.054912 -0.998491 
-0.00121725 0.0436468 -0.999046 
-0.00180733 0.0346393 -0.999398 
-0.00229503 0.0274231 -0.999621 
-0.0026945 0.0216293 -0.999762 
-0.00301751 0.0169647 -0.999852 
-0.00327426 0.0131852 -0.999908 
-0.00347362 0.0100963 -0.999943 
-0.00362321 0.00753848 -0.999965 
-0.00372984 0.0053859 -0.999979 
-0.0037963 0.00353631 -0.999987 
-0.00382277 0.00190273 -0.999991 
-0.00381838 0.000415223 -0.999993 
-0.00380267 -0.000983176 -0.999992 
-0.00380787 -0.00231984 -0.99999 
-0.0038785 -0.00363411 -0.999986 
-0.00355115 -0.00485552 -0.999982 
-0.00391269 -0.00578288 -0.999976 
-0.00342652 -0.00678674 -0.999971 
-0.00347138 -0.00780336 -0.999964 
-0.00325822 -0.00872397 -0.999957 
-0.00294132 -0.00822836 -0.999962 
-0.00192199 -0.00676662 -0.999975 
-0.000589581 -0.000938299 -0.999999 
0.000544338 -0.00108037 0.999999 
0.00205323 -0.0067121 0.999975 
0.00296264 -0.00816275 0.999962 
0.00347519 -0.00899271 0.999954 
0.0035995 -0.00831841 0.999959 
0.00372877 -0.00738104 0.999966 
0.00390027 -0.00641906 0.999972 
0.00400256 -0.00511414 0.999979 
0.00403796 -0.00378177 0.999985 
0.00406361 -0.00246729 0.999989 
0.00407914 -0.00115996 0.999991 
0.00407693 0.000196092 0.999992 
0.00405102 0.00164395 0.99999 
0.00399878 0.00323585 0.999987 
0.00391565 0.00504366 0.99998 
0.00379428 0.00714999 0.999967 
0.00362733 0.00964793 0.999947 
0.00340781 0.0126541 0.999914 
0.00312774 0.01632 0.999862 
0.00277822 0.0208316 0.999779 
0.00235002 0.0264147 0.999648 
0.00183127 0.0333572 0.999442 
0.00120698 0.0420243 0.999116 
0.000464074 0.0528472 0.998603 
-0.00040772 0.0663442 0.997797 
-0.00142125 0.0831956 0.996532 
-0.00258735 0.104241 0.994549 
-0.00390629 0.13045 0.991447 
-0.00536518 0.162951 0.98662 
-0.00693542 0.203063 0.979141 
-0.00856625 0.252266 0.96762 
-0.0101755 0.312127 0.949986 
-0.0116367 0.38403 0.923247 
-0.012771 0.468659 0.883287 
-0.0133563 0.565247 0.824813 
-0.0131662 0.670475 0.741815 
-0.0119756 0.778283 0.6278 
-0.00961147 0.87823 0.478141 
-0.00609737 0.955778 0.294025 
-0.00177033 0.996342 0.0854335 
0.00279357 0.991449 -0.130467 
0.00696627 0.942403 -0.334406 
0.010248 0.859366 -0.511259 
0.0123757 0.756832 -0.653493 
0.0133492 0.648628 -0.760989 
0.013351 0.544689 -0.838532 
0.0126194 0.450546 -0.892664 
0.0113902 0.36859 -0.929522 
0.00988002 0.299277 -0.954115 
0.00825337 0.241692 -0.970318 
0.00662269 0.194391 -0.980902 
0.00506758 0.15591 -0.987758 
0.00363611 0.124816 -0.992173 
0.00234922 0.0997624 -0.995009 
0.00121467 0.0796215 -0.996824 
0.000231527 0.0635168 -0.997981 
-0.000613758 0.050575 -0.99872 
-0.00133031 0.0402166 -0.99919 
-0.00193208 0.0319206 -0.999489 
-0.00243262 0.0252555 -0.999678 
-0.00284302 0.0198905 -0.999798 
-0.0031755 0.0155541 -0.999874 
-0.00343919 0.012028 -0.999922 
-0.00364377 0.0091264 -0.999952 
-0.00379712 0.00670846 -0.99997 
-0.00390832 0.00465983 -0.999982 
-0.00398657 0.00288785 -0.999988 
-0.00403563 0.00130955 -0.999991 
-0.00405452 -0.000150722 -0.999992 
-0.00404515 -0.00154803 -0.999991 
-0.00400951 -0.00294526 -0.999988 
-0.00394438 -0.00445735 -0.999982 
-0.00379622 -0.00585961 -0.999976 
-0.00379989 -0.00694152 -0.999969 
-0.00357048 -0.00791269 -0.999962 
-0.00339599 -0.0087439 -0.999956 
-0.00291615 -0.00806631 -0.999963 
-0.00199207 -0.0065907 -0.999976 
-0.000512606 -0.00107415 -0.999999 
0.00052259 -0.00115792 0.999999 
0.00183239 -0.00661537 0.999976 
0.00264391 -0.00834952 0.999962 
0.00317415 -0.00881653 0.999956 
0.00325057 -0.00788526 0.999964 
0.00347803 -0.00692407 0.99997 
0.00368696 -0.00590453 0.999976 
0.00370085 -0.00464773 0.999982 
0.00373332 -0.00330059 0.999988 
0.00376195 -0.00197217 0.999991 
0.00377908 -0.000623889 0.999993 
0.00377205 0.000793291 0.999993 
0.00373768 0.00232212 0.99999 
0.0036749 0.00402686 0.999985 
0.00357721 0.00598863 0.999976 
0.00343578 0.00829443 0.99996 
0.00324475 0.0110418 0.999934 
0.0029983 0.0143604 0.999892 
0.00268797 0.0184193 0.999827 
0.00230557 0.0234226 0.999723 
0.00184326 0.0296142 0.99956 
0.00128927 0.0373128 0.999303 
0.000630359 0.0469183 0.998899 
-0.000141271 0.0588891 0.998265 
-0.00103179 0.0737847 0.997274 
-0.0020504 0.0923569 0.995724 
-0.00319804 0.115497 0.993303 
-0.00446233 0.144214 0.989537 
-0.00581877 0.179697 0.983705 
-0.00722665 0.22331 0.974721 
-0.00862405 0.276553 0.96096 
-0.00991962 0.340982 0.940018 
-0.0109836 0.4178 0.908473 
-0.0116518 0.507267 0.86171 
-0.0117426 0.607808 0.793997 
-0.0111084 0.714678 0.699365 
-0.00958554 0.820555 0.571487 
-0.00708906 0.913132 0.407602 
-0.00375323 0.977163 0.212457 
5.42748e-05 1 -0.000889555 
0.00384424 0.976884 -0.213734 
0.00715156 0.913001 -0.407895 
0.00964407 0.820781 -0.571162 
0.0111818 0.714879 -0.699159 
0.011817 0.607809 -0.793995 
0.0117094 0.507691 -0.86146 
0.0110321 0.418527 -0.908137 
0.00995996 0.341783 -0.939726 
0.00866261 0.277358 -0.960728 
0.00726263 0.224012 -0.974559 
0.00584659 0.180257 -0.983602 
0.00448513 0.144708 -0.989464 
0.00322149 0.115977 -0.993247 
0.00207402 0.0927914 -0.995683 
0.00105305 0.0741253 -0.997248 
0.000164103 0.0592309 -0.998244 
-0.000610376 0.0471673 -0.998887 
-0.00126921 0.0375202 -0.999295 
-0.0018258 0.0297776 -0.999555 
-0.00228968 0.0235455 -0.99972 
-0.00267208 0.0184965 -0.999825 
-0.00297928 0.0144259 -0.999892 
-0.0032237 0.0110875 -0.999933 
-0.00341058 0.0083278 -0.99996 
-0.00354772 0.00601556 -0.999976 
-0.00364425 0.00404678 -0.999985 
-0.00371117 0.00233575 -0.99999 
-0.00375249 0.000794803 -0.999993 
-0.00376265 -0.000647323 -0.999993 
-0.00374101 -0.00204047 -0.999991 
-0.00369784 -0.00344956 -0.999987 
-0.00359592 -0.00480911 -0.999982 
-0.00343482 -0.00616186 -0.999975 
-0.0035107 -0.00699326 -0.999969 
-0.00322758 -0.00784545 -0.999964 
-0.00302271 -0.00864612 -0.999958 
-0.00256784 -0.00816058 -0.999963 
-0.00178931 -0.00650333 -0.999977 
-0.000507268 -0.00115369 -0.999999 
0.000456506 -0.00122924 0.999999 
0.00165409 -0.00655087 0.999977 
0.00229728 -0.00842282 0.999962 
0.00281837 -0.008754 0.999958 
0.00286489 -0.00801373 0.999964 
0.0031118 -0.00716813 0.999969 
0.00333189 -0.00587336 0.999977 
0.00336442 -0.00437542 0.999985 
0.003394 -0.00292833 0.99999 
0.00342455 -0.00153393 0.999993 
0.00343951 -0.000119507 0.999994 
0.00342583 0.001373 0.999993 
0.00338514 0.00299642 0.99999 
0.00331514 0.0048282 0.999983 
0.00320634 0.00695691 0.999971 
0.00305054 0.0094703 0.999951 
0.00284553 0.0124726 0.999918 
0.0025855 0.0161093 0.999867 
0.00226173 0.0205677 0.999786 
0.00186765 0.0260681 0.999658 
0.00139653 0.0328724 0.999459 
0.00083677 0.0413332 0.999145 
0.000178794 0.0518807 0.998653 
-0.000580562 0.064995 0.997885 
-0.00144611 0.0812842 0.99669 
-0.00242259 0.101573 0.994825 
-0.00350167 0.12679 0.991923 
-0.00466426 0.15798 0.987431 
-0.00588179 0.196399 0.980506 
-0.00711028 0.243463 0.969884 
-0.00828509 0.300702 0.953682 
-0.00931245 0.369647 0.929126 
-0.0100668 0.451293 0.892319 
-0.0104022 0.545372 0.83813 
-0.010174 0.649283 0.760479 
-0.00929012 0.756595 0.653818 
-0.00760815 0.858628 0.512543 
-0.00512673 0.941611 0.336664 
-0.00204434 0.991001 0.133841 
0.0012862 0.996739 -0.0806813 
0.00445455 0.957673 -0.287823 
0.00710491 0.882008 -0.471182 
0.00900974 0.783407 -0.621444 
0.0101053 0.676083 -0.736756 
0.0104749 0.571131 -0.820792 
0.0102584 0.475031 -0.879909 
0.0095895 0.390559 -0.920528 
0.00861297 0.318533 -0.947873 
0.00747049 0.258429 -0.966001 
0.00624689 0.208742 -0.977951 
0.00501037 0.168044 -0.985767 
0.00382521 0.135026 -0.990835 
0.00272398 0.108322 -0.994112 
0.00171813 0.0867279 -0.996231 
0.000818641 0.0693217 -0.997594 
3.95703e-05 0.0555145 -0.998458 
-0.000653422 0.0441337 -0.999025 
-0.00124101 0.0350879 -0.999383 
-0.00173473 0.0278617 -0.99961 
-0.00215617 0.0219361 -0.999757 
-0.00249174 0.0172098 -0.999849 
-0.00276775 0.0133672 -0.999907 
-0.00298399 0.0101927 -0.999944 
-0.00314719 0.00756075 -0.999966 
-0.00326521 0.00534864 -0.99998 
-0.00334725 0.00346147 -0.999988 
-0.00340574 0.00180846 -0.999993 
-0.00343835 0.000309014 -0.999994 
-0.00343803 -0.00110623 -0.999993 
-0.00341283 -0.00246692 -0.999991 
-0.00335464 -0.00378337 -0.999987 
-0.00324447 -0.00510044 -0.999982 
-0.0031502 -0.00630029 -0.999975 
-0.00310856 -0.0072055 -0.999969 
-0.00283061 -0.00816018 -0.999963 
-0.00257624 -0.00878485 -0.999958 
-0.00213851 -0.00794066 -0.999966 
-0.00153153 -0.00640952 -0.999978 
-0.000457404 -0.00121937 -0.999999 
0.000381865 -0.00127521 0.999999 
0.00142985 -0.00654488 0.999978 
0.00192289 -0.00847528 0.999962 
0.0024406 -0.00888729 0.999958 
0.00246141 -0.00828832 0.999963 
0.00259148 -0.0074109 0.999969 
0.00294059 -0.0065266 0.999974 
0.00294746 -0.00526056 0.999982 
0.00293096 -0.00385196 0.999988 
0.00294572 -0.00244511 0.999993 
0.00297172 -0.0010426 0.999995 
0.00298179 0.000412926 0.999995 
0.00295829 0.00197574 0.999994 
0.00291161 0.00369348 0.999989 
0.00283735 0.00565752 0.99998 
0.00272104 0.00795268 0.999965 
0.0025592 0.0106733 0.99994 
0.00235373 0.0139287 0.9999 
0.00209783 0.0178793 0.999838 
0.00178253 0.0227407 0.99974 
0.00140361 0.0287384 0.999586 
0.000955657 0.0361563 0.999346 
0.000427871 0.0453801 0.99897 
-0.000184658 0.056866 0.998382 
-0.000881602 0.0711114 0.997468 
-0.00166694 0.0887819 0.99605 
-0.00253904 0.110768 0.993843 
-0.00348281 0.138027 0.990422 
-0.00447796 0.171649 0.985148 
-0.00549675 0.212958 0.977046 
-0.00649896 0.263416 0.96466 
-0.00742439 0.324564 0.945834 
-0.00818228 0.397848 0.917415 
-0.00865905 0.483931 0.875063 
-0.00873406 0.58181 0.813278 
-0.00831176 0.687615 0.726028 
-0.00735165 0.793359 0.60871 
-0.00571417 0.889644 0.456619 
-0.00346072 0.962364 0.271742 
-0.000798466 0.997969 0.0636945 
0.001962 0.988609 -0.150495 
0.00449147 0.936159 -0.351549 
0.00652524 0.851191 -0.524816 
0.00791009 0.748106 -0.663532 
0.00863645 0.640541 -0.767875 
0.00880773 0.538208 -0.842766 
0.00853555 0.446066 -0.894959 
0.00791476 0.365935 -0.930607 
0.00707137 0.298151 -0.954493 
0.00611975 0.241858 -0.970292 
0.00510102 0.195332 -0.980724 
0.0040715 0.157261 -0.987549 
0.00309261 0.126441 -0.991969 
0.00218051 0.101479 -0.994835 
0.00133884 0.0812175 -0.996696 
0.000582551 0.0648421 -0.997895 
-6.54854e-05 0.0520783 -0.998643 
-0.000669146 0.0410364 -0.999157 
-0.00114805 0.0327693 -0.999462 
-0.00159266 0.0257538 -0.999667 
-0.00193177 0.0202825 -0.999792 
-0.00221451 0.0158423 -0.999872 
-0.00245111 0.0122384 -0.999922 
-0.0026293 0.00921235 -0.999954 
-0.00276039 0.00671259 -0.999974 
-0.00285228 0.00462339 -0.999985 
-0.00292599 0.0028134 -0.999992 
-0.00298179 0.00122999 -0.999995 
-0.00301484 -0.000226385 -0.999995 
-0.00300393 -0.00161462 -0.999994 
-0.00296008 -0.00295538 -0.999991 
-0.00287225 -0.00434201 -0.999986 
-0.00271949 -0.00580811 -0.999979 
-0.00282974 -0.00699799 -0.999972 
-0.00264577 -0.00773904 -0.999967 
-0.00234296 -0.00861608 -0.99996 
-0.00207306 -0.00880309 -0.999959 
-0.00136005 -0.00650842 -0.999978 
-0.000347103 -0.00127424 -0.999999 
0.000305887 -0.00130456 0.999999 
0.00117454 -0.00657499 0.999978 
0.00153388 -0.00859654 0.999962 
0.00200826 -0.00896745 0.999958 
0.00204223 -0.00819088 0.999964 
0.00205405 -0.00731197 0.999971 
0.0024479 -0.00634086 0.999977 
0.00240109 -0.00493752 0.999985 
0.00238942 -0.00345944 0.999991 
0.00240623 -0.00202092 0.999995 
0.00243675 -0.00057855 0.999997 
0.00244299 0.000940726 0.999997 
0.00240806 0.00258006 0.999994 
0.00236366 0.00439536 0.999988 
0.0022893 0.00648032 0.999976 
0.00217439 0.00893778 0.999958 
0.00201928 0.0118596 0.999928 
0.00182917 0.0153439 0.999881 
0.00159497 0.0196113 0.999806 
0.00130691 0.0248697 0.99969 
0.000965344 0.0313542 0.999508 
0.000564908 0.0393708 0.999225 
9.74011e-05 0.049341 0.998782 
-0.000436637 0.0617195 0.998093 
-0.00103665 0.0770322 0.997028 
-0.00170474 0.0960187 0.995378 
-0.00243192 0.119618 0.992817 
-0.00319983 0.148758 0.988869 
-0.00399081 0.184546 0.982816 
-0.0047809 0.228326 0.973573 
-0.00553608 0.281479 0.959551 
-0.00620436 0.345399 0.938435 
-0.00670904 0.421307 0.906893 
-0.00696393 0.50937 0.86052 
-0.0068891 0.60818 0.793769 
-0.00643518 0.713633 0.70049 
-0.0055543 0.817776 0.57551 
-0.00411409 0.910346 0.413829 
-0.00220807 0.975657 0.21929 
-3.30286e-05 0.99999 0.00452455 
0.00214148 0.977547 -0.210705 
0.00405986 0.913517 -0.40678 
0.00553722 0.820879 -0.571075 
0.00648318 0.714627 -0.699475 
0.00693265 0.607762 -0.794089 
0.00698823 0.508406 -0.861089 
0.00671952 0.420043 -0.907479 
0.00619299 0.343859 -0.939001 
0.00552072 0.279924 -0.960006 
0.00478009 0.227017 -0.973879 
0.00397215 0.183135 -0.98308 
0.00315536 0.14731 -0.989085 
0.00238985 0.11847 -0.992955 
0.00166515 0.0949415 -0.995481 
0.000980803 0.0756174 -0.997136 
0.000364926 0.059937 -0.998202 
-0.000164664 0.048183 -0.998839 
-0.000609311 0.0380752 -0.999275 
-0.0010614 0.0297377 -0.999557 
-0.00137732 0.0234781 -0.999723 
-0.00164865 0.018393 -0.999829 
-0.00186819 0.0142857 -0.999896 
-0.0020685 0.0109468 -0.999938 
-0.00219786 0.00801948 -0.999965 
-0.00227633 0.00571768 -0.999981 
-0.00235488 0.00372652 -0.99999 
-0.00240385 0.00202526 -0.999995 
-0.00245094 0.000551917 -0.999997 
-0.00247349 -0.000770061 -0.999997 