# vtk DataFile Version 3.0 
Exported using Morpho https://github.com/Morpho-lang/morpho 
ASCII 
DATASET UNSTRUCTURED_GRID 

POINTS 2054 float 
-8.48528 -2.82843 0 
-8.20636 -2.82843 0 
-7.94054 -2.82843 0 
-7.6904 -2.82843 0 
-7.45357 -2.82843 0 
-7.22694 -2.82843 0 
-7.00705 -2.82843 0 
-6.79111 -2.82843 0 
-6.57731 -2.82843 0 
-6.36453 -2.82843 0 
-6.15219 -2.82843 0 
-5.94 -2.82843 0 
-5.72786 -2.82843 0 
-5.51573 -2.82843 0 
-5.3036 -2.82843 0 
-5.09147 -2.82843 0 
-4.87933 -2.82843 0 
-4.6672 -2.82843 0 
-4.45507 -2.82843 0 
-4.24294 -2.82843 0 
-4.03081 -2.82843 0 
-3.81867 -2.82843 0 
-3.60654 -2.82843 0 
-3.39441 -2.82843 0 
-3.18228 -2.82843 0 
-2.97015 -2.82843 0 
-2.75801 -2.82843 0 
-2.54588 -2.82843 0 
-2.33375 -2.82843 0 
-2.12162 -2.82843 0 
-1.90949 -2.82843 0 
-1.69735 -2.82843 0 
-1.48522 -2.82843 0 
-1.27309 -2.82843 0 
-1.06096 -2.82843 0 
-0.848825 -2.82843 0 
-0.636693 -2.82843 0 
-0.424561 -2.82843 0 
-0.212429 -2.82843 0 
-0.000296761 -2.82843 0 
0.211835 -2.82843 0 
0.423967 -2.82843 0 
0.636099 -2.82843 0 
0.848231 -2.82843 0 
1.06036 -2.82843 0 
1.2725 -2.82843 0 
1.48463 -2.82843 0 
1.69676 -2.82843 0 
1.90889 -2.82843 0 
2.12102 -2.82843 0 
2.33316 -2.82843 0 
2.54529 -2.82843 0 
2.75742 -2.82843 0 
2.96955 -2.82843 0 
3.18168 -2.82843 0 
3.39382 -2.82843 0 
3.60595 -2.82843 0 
3.81808 -2.82843 0 
4.03021 -2.82843 0 
4.24234 -2.82843 0 
4.45448 -2.82843 0 
4.66661 -2.82843 0 
4.87874 -2.82843 0 
5.09087 -2.82843 0 
5.303 -2.82843 0 
5.51514 -2.82843 0 
5.72727 -2.82843 0 
5.93941 -2.82843 0 
6.15159 -2.82843 0 
6.36393 -2.82843 0 
6.57672 -2.82843 0 
6.79055 -2.82843 0 
7.00652 -2.82843 0 
7.22647 -2.82843 0 
7.45313 -2.82843 0 
7.69005 -2.82843 0 
7.9403 -2.82843 0 
8.20621 -2.82843 0 
8.48528 -2.82843 0 
-8.48528 -2.5495 0 
-8.30526 -2.64845 0 
-8.07062 -2.59995 0 
-7.83904 -2.59637 0 
-7.59595 -2.59733 0 
-7.36578 -2.59177 0 
-7.13796 -2.5933 0 
-6.90908 -2.59428 0 
-6.68421 -2.5916 0 
-6.46568 -2.58832 0 
-6.24926 -2.58859 0 
-6.03358 -2.58941 0 
-5.81848 -2.59013 0 
-5.60402 -2.59075 0 
-5.39005 -2.59135 0 
-5.17642 -2.59186 0 
-4.96311 -2.59223 0 
-4.75009 -2.59242 0 
-4.53736 -2.59244 0 
-4.32497 -2.59236 0 
-4.1128 -2.59242 0 
-3.90059 -2.59259 0 
-3.68835 -2.5926 0 
-3.47627 -2.59248 0 
-3.26428 -2.59251 0 
-3.05216 -2.59271 0 
-2.83986 -2.59283 0 
-2.62755 -2.59274 0 
-2.41539 -2.59253 0 
-2.20336 -2.59238 0 
-1.99135 -2.59238 0 
-1.77924 -2.59246 0 
-1.56704 -2.59244 0 
-1.35495 -2.59215 0 
-1.14319 -2.59183 0 
-0.931581 -2.59195 0 
-0.719663 -2.59256 0 
-0.507197 -2.59324 0 
-0.294425 -2.59354 0 
-0.0817689 -2.59344 0 
0.130587 -2.59325 0 
0.342804 -2.59322 0 
0.555051 -2.59322 0 
0.767233 -2.59303 0 
0.97919 -2.59278 0 
1.19107 -2.59278 0 
1.40311 -2.59289 0 
1.61524 -2.59286 0 
1.82732 -2.59279 0 
2.03943 -2.59281 0 
2.25163 -2.5928 0 
2.46381 -2.59266 0 
2.67591 -2.59254 0 
2.88801 -2.59237 0 
3.10001 -2.59226 0 
3.31203 -2.59216 0 
3.52402 -2.59207 0 
3.73601 -2.59208 0 
3.94815 -2.59221 0 
4.16052 -2.5923 0 
4.37309 -2.59232 0 
4.58593 -2.59227 0 
4.79921 -2.5922 0 
5.01319 -2.59212 0 
5.22833 -2.5921 0 
5.44534 -2.59239 0 
5.6657 -2.59346 0 
5.89185 -2.59569 0 
6.12685 -2.59429 0 
6.36853 -2.59189 0 
6.6108 -2.57787 0 
6.84491 -2.61411 0 
7.08804 -2.58476 0 
7.34858 -2.60369 0 
7.58803 -2.59327 0 
7.83059 -2.59326 0 
8.06387 -2.59199 0 
8.30038 -2.64348 0 
8.48528 -2.54936 0 
-8.48528 -2.28369 0 
-8.25701 -2.4138 0 
-8.01078 -2.35334 0 
-7.73666 -2.37963 0 
-7.49744 -2.35565 0 
-7.26898 -2.35831 0 
-7.03324 -2.36676 0 
-6.7997 -2.36275 0 
-6.5773 -2.35166 0 
-6.35808 -2.3495 0 
-6.14038 -2.35058 0 
-5.92336 -2.35185 0 
-5.70723 -2.35272 0 
-5.49199 -2.35362 0 
-5.27734 -2.35447 0 
-5.0632 -2.35505 0 
-4.84958 -2.35534 0 
-4.63641 -2.35533 0 
-4.42363 -2.35504 0 
-4.21126 -2.35485 0 
-3.99909 -2.35513 0 
-3.78684 -2.3554 0 
-3.57461 -2.35516 0 
-3.36263 -2.35498 0 
-3.15066 -2.35537 0 
-2.93843 -2.35586 0 
-2.72604 -2.35589 0 
-2.51374 -2.35551 0 
-2.30162 -2.35509 0 
-2.08964 -2.35496 0 
-1.87761 -2.35518 0 
-1.66544 -2.3554 0 
-1.45322 -2.35518 0 
-1.2412 -2.35438 0 
-1.02967 -2.35407 0 
-0.818162 -2.35505 0 
-0.606054 -2.35676 0 
-0.393243 -2.3579 0 
-0.180256 -2.35789 0 
0.0323765 -2.35727 0 
0.244686 -2.35692 0 
0.456926 -2.35692 0 
0.669206 -2.35667 0 
0.881318 -2.35598 0 
1.09315 -2.35559 0 
1.305 -2.35583 0 
1.51709 -2.35595 0 
1.72919 -2.35571 0 
1.9412 -2.35566 0 
2.15334 -2.3558 0 
2.36559 -2.3556 0 
2.57772 -2.35522 0 
2.78976 -2.35507 0 
3.0019 -2.35461 0 
3.21373 -2.35451 0 
3.42571 -2.35439 0 
3.63769 -2.35431 0 
3.84965 -2.35453 0 
4.06183 -2.35491 0 
4.27435 -2.35507 0 
4.48707 -2.35507 0 
4.70017 -2.35506 0 
4.91376 -2.35498 0 
5.12819 -2.35502 0 
5.34378 -2.35528 0 
5.56106 -2.35662 0 
5.78097 -2.35971 0 
6.00401 -2.36251 0 
6.2308 -2.3624 0 
6.45748 -2.35551 0 
6.68075 -2.33423 0 
6.88797 -2.39744 0 
7.05313 -2.27289 0 
7.24377 -2.40237 0 
7.48542 -2.36016 0 
7.73055 -2.36599 0 
7.99177 -2.33552 0 
8.24864 -2.40698 0 
8.48528 -2.28345 0 
-8.48528 -2.03355 0 
-8.25312 -2.18214 0 
-8.03669 -2.07913 0 
-7.83956 -2.18231 0 
-7.6106 -2.12852 0 
-7.38852 -2.10959 0 
-7.16268 -2.14097 0 
-6.9229 -2.1435 0 
-6.70119 -2.12055 0 
-6.48111 -2.11285 0 
-6.26282 -2.11284 0 
-6.045 -2.1151 0 
-5.82775 -2.11658 0 
-5.61153 -2.11776 0 
-5.3962 -2.1192 0 
-5.18144 -2.1203 0 
-4.96732 -2.12084 0 
-4.75387 -2.12105 0 
-4.54086 -2.12091 0 
-4.32822 -2.12045 0 
-4.11596 -2.12045 0 
-3.90382 -2.12107 0 
-3.69156 -2.12116 0 
-3.47938 -2.12058 0 
-3.26746 -2.12068 0 
-3.05542 -2.12154 0 
-2.84307 -2.12198 0 
-2.63064 -2.12162 0 
-2.41836 -2.12087 0 
-2.20626 -2.12031 0 
-1.99426 -2.12034 0 
-1.78217 -2.1207 0 
-1.56989 -2.12074 0 
-1.35755 -2.11993 0 
-1.14542 -2.11838 0 
-0.934012 -2.11859 0 
-0.722404 -2.12089 0 
-0.509943 -2.12344 0 
-0.296911 -2.12431 0 
-0.0840921 -2.12359 0 
0.128295 -2.12281 0 
0.340414 -2.12274 0 
0.552564 -2.12288 0 
0.76478 -2.12226 0 
0.976792 -2.1213 0 
1.18855 -2.12128 0 
1.40042 -2.12188 0 
1.61256 -2.12177 0 
1.82458 -2.12141 0 
2.03655 -2.12164 0 
2.24875 -2.12174 0 
2.46099 -2.12114 0 
2.67302 -2.12065 0 
2.88504 -2.12054 0 
3.09728 -2.1194 0 
3.30873 -2.11968 0 
3.52086 -2.1195 0 
3.7329 -2.11938 0 
3.94484 -2.11986 0 
4.15715 -2.12044 0 
4.36983 -2.12035 0 
4.58282 -2.1204 0 
4.79606 -2.12017 0 
5.01004 -2.12012 0 
5.22483 -2.12002 0 
5.44073 -2.12051 0 
5.6582 -2.123 0 
5.8782 -2.12696 0 
6.10217 -2.12971 0 
6.33095 -2.12707 0 
6.567 -2.11601 0 
6.82301 -2.12303 0 
7.06572 -2.04567 0 
7.29733 -2.17484 0 
7.54632 -2.11408 0 
7.79371 -2.13741 0 
8.02274 -2.07453 0 
8.25027 -2.1738 0 
8.48528 -2.0332 0 
-8.48528 -1.79671 0 
-8.25436 -1.93882 0 
-8.01299 -1.83977 0 
-7.78596 -1.953 0 
-7.5297 -1.87194 0 
-7.2756 -1.88722 0 
-7.05707 -1.93544 0 
-6.84369 -1.89677 0 
-6.62219 -1.88079 0 
-6.40169 -1.87606 0 
-6.18206 -1.87854 0 
-5.96274 -1.881 0 
-5.74458 -1.88208 0 
-5.52796 -1.88344 0 
-5.31232 -1.88506 0 
-5.09736 -1.88569 0 
-4.88338 -1.88564 0 
-4.67019 -1.88555 0 
-4.45737 -1.88507 0 
-4.24485 -1.88447 0 
-4.03271 -1.88482 0 
-3.82061 -1.88562 0 
-3.60832 -1.88529 0 
-3.39617 -1.88464 0 
-3.18427 -1.88547 0 
-2.97209 -1.88672 0 
-2.7596 -1.88684 0 
-2.54714 -1.88601 0 
-2.33483 -1.88505 0 
-2.12268 -1.8846 0 
-1.91058 -1.885 0 
-1.69824 -1.88561 0 
-1.48561 -1.88547 0 
-1.27286 -1.88413 0 
-1.06032 -1.88216 0 
-0.848858 -1.8839 0 
-0.636875 -1.88781 0 
-0.424169 -1.89034 0 
-0.211518 -1.89004 0 
0.000731944 -1.88866 0 
0.21257 -1.88788 0 
0.424308 -1.88807 0 
0.636257 -1.88793 0 
0.848362 -1.88664 0 
1.06025 -1.88556 0 
1.27191 -1.88605 0 
1.48381 -1.88664 0 
1.69595 -1.886 0 
1.90782 -1.88577 0 
2.11974 -1.88637 0 
2.33202 -1.88609 0 
2.54419 -1.88502 0 
2.75607 -1.88472 0 
2.96812 -1.88462 0 
3.18055 -1.88217 0 
3.39117 -1.88415 0 
3.60398 -1.8838 0 
3.81618 -1.88366 0 
4.02827 -1.88469 0 
4.24071 -1.88523 0 
4.4544 -1.88509 0 
4.66716 -1.88476 0 
4.88099 -1.88493 0 
5.09545 -1.88466 0 
5.31057 -1.88453 0 
5.52653 -1.88564 0 
5.7436 -1.88981 0 
5.96352 -1.89563 0 
6.18733 -1.89813 0 
6.41543 -1.89522 0 
6.65059 -1.89622 0 
6.87542 -1.86913 0 
7.11122 -1.81621 0 
7.31223 -1.94975 0 
7.53264 -1.87683 0 
7.77077 -1.89068 0 
8.01717 -1.8297 0 
8.25014 -1.93148 0 
8.48528 -1.79628 0 
-8.48528 -1.57009 0 
-8.24868 -1.70836 0 
-8.015 -1.61096 0 
-7.76734 -1.73071 0 
-7.54593 -1.61782 0 
-7.32306 -1.66278 0 
-7.05152 -1.7082 0 
-6.79786 -1.66675 0 
-6.56099 -1.64764 0 
-6.33267 -1.64541 0 
-6.10856 -1.64921 0 
-5.88638 -1.65073 0 
-5.66697 -1.65153 0 
-5.44986 -1.65353 0 
-5.23379 -1.65525 0 
-5.01882 -1.6551 0 
-4.80519 -1.6548 0 
-4.59235 -1.65478 0 
-4.37976 -1.65422 0 
-4.16737 -1.65386 0 
-3.95537 -1.65471 0 
-3.74326 -1.6554 0 
-3.5309 -1.65455 0 
-3.31876 -1.65426 0 
-3.10682 -1.65593 0 
-2.89443 -1.65705 0 
-2.68177 -1.65644 0 
-2.46924 -1.65516 0 
-2.25682 -1.65408 0 
-2.04447 -1.65386 0 
-1.83202 -1.65455 0 
-1.61911 -1.65506 0 
-1.40572 -1.65429 0 
-1.19212 -1.65207 0 
-0.97885 -1.64982 0 
-0.767325 -1.65372 0 
-0.555434 -1.6581 0 
-0.343588 -1.65935 0 
-0.132061 -1.65818 0 
0.0792288 -1.65687 0 
0.290417 -1.65682 0 
0.501823 -1.6575 0 
0.713729 -1.65709 0 
0.925861 -1.65545 0 
1.13768 -1.65488 0 
1.34929 -1.65604 0 
1.56128 -1.6563 0 
1.77337 -1.65516 0 
1.985 -1.65561 0 
2.19698 -1.65642 0 
2.40939 -1.65525 0 
2.62143 -1.65394 0 
2.83323 -1.65414 0 
3.04553 -1.65355 0 
3.25842 -1.64868 0 
3.46746 -1.65522 0 
3.68272 -1.65284 0 
3.89574 -1.65288 0 
4.10731 -1.65378 0 
4.32287 -1.65565 0 
4.53627 -1.65249 0 
4.74932 -1.65397 0 
4.96428 -1.65355 0 
5.17935 -1.65257 0 
5.3944 -1.65202 0 
5.60927 -1.65354 0 
5.82513 -1.66019 0 
6.04295 -1.66711 0 
6.26383 -1.66843 0 
6.48537 -1.66776 0 
6.70098 -1.65646 0 
6.91299 -1.6206 0 
7.11709 -1.6046 0 
7.3526 -1.69716 0 
7.60698 -1.65764 0 
7.8325 -1.64214 0 
8.05985 -1.58842 0 
8.2608 -1.69223 0 
8.48528 -1.56961 0 
-8.48528 -1.35019 0 
-8.24958 -1.48044 0 
-8.0219 -1.3751 0 
-7.79713 -1.50391 0 
-7.58956 -1.39834 0 
-7.36199 -1.38754 0 
-7.16079 -1.49923 0 
-6.93764 -1.46284 0 
[...]
POINT_DATA 2054 
VECTORS vectors float
0.00958078 -0.0238014 0.99969 
0.0103413 -0.0182297 0.999811 
0.0111198 -0.0140477 0.999874 
0.0114988 -0.0113031 0.999904 
0.0122098 -0.00954493 0.999913 
0.0122636 -0.00841759 0.999922 
0.0120524 -0.00695445 0.999935 
0.0120108 -0.00537649 0.999945 
0.0120727 -0.00381179 0.999952 
0.0121538 -0.00232067 0.999955 
0.0122044 -0.000917828 0.999957 
0.0122069 0.000448531 0.999957 
0.0121609 0.00184428 0.999956 
0.0120629 0.00334057 0.999953 
0.0119069 0.00501788 0.999948 
0.0116829 0.00696704 0.999939 
0.0113805 0.00929427 0.999923 
0.0109874 0.0121213 0.999897 
0.0104837 0.0155951 0.999855 
0.00984295 0.0198979 0.999785 
0.00903148 0.0252572 0.999671 
0.00800565 0.0319603 0.999488 
0.00671001 0.0403716 0.999193 
0.00507629 0.0509557 0.998719 
0.00302299 0.0642977 0.997957 
0.000453343 0.0811278 0.996734 
-0.00274662 0.102354 0.994775 
-0.00670455 0.129092 0.99164 
-0.0115501 0.1627 0.986637 
-0.0173924 0.204779 0.978682 
-0.0242802 0.257139 0.966096 
-0.0321195 0.321685 0.946326 
-0.040511 0.400065 0.915611 
-0.0485119 0.492923 0.868732 
-0.0544601 0.598568 0.799221 
-0.0561523 0.711427 0.700503 
-0.051555 0.82132 0.568108 
-0.0397821 0.914679 0.402165 
-0.0217325 0.977666 0.208904 
-2.36594e-05 0.999969 0.000251157 
0.0216911 0.977767 -0.208436 
0.0397561 0.91485 -0.401781 
0.0515464 0.82152 -0.567821 
0.0561566 0.711628 -0.700299 
0.0544704 0.598762 -0.799076 
0.0485226 0.493097 -0.868633 
0.0405211 0.400225 -0.915541 
0.0321302 0.321832 -0.946276 
0.0242913 0.257275 -0.96606 
0.0174028 0.204901 -0.978656 
0.0115593 0.162808 -0.986619 
0.00671331 0.129189 -0.991627 
0.00275514 0.102439 -0.994766 
-0.000445209 0.0812019 -0.996728 
-0.00301577 0.0643609 -0.997953 
-0.00507018 0.0510089 -0.998716 
-0.0067049 0.0404165 -0.999192 
-0.00800147 0.0319981 -0.999487 
-0.00902804 0.0252897 -0.999671 
-0.00984007 0.0199262 -0.999784 
-0.0104811 0.0156203 -0.999854 
-0.010985 0.0121448 -0.999897 
-0.0113785 0.00931728 -0.999923 
-0.0116814 0.00699041 -0.999939 
-0.0119052 0.00504162 -0.999948 
-0.0120579 0.00336198 -0.999953 
-0.0121527 0.00185518 -0.999956 
-0.0122038 0.000457784 -0.999957 
-0.0122076 -0.000913532 -0.999958 
-0.0121755 -0.00230982 -0.999944 
-0.012102 -0.00376952 -0.999954 
-0.0120039 -0.00532476 -0.999945 
-0.0120769 -0.00685579 -0.999936 
-0.0122846 -0.00829313 -0.999924 
-0.0121965 -0.0094193 -0.999914 
-0.011492 -0.0112083 -0.999906 
-0.0111304 -0.0139381 -0.999876 
-0.010329 -0.0181413 -0.999814 
-0.00954646 -0.0237045 -0.999694 
0.00663613 -0.0245254 0.999716 
0.00854439 -0.0207291 0.999799 
0.0088816 -0.0166586 0.999891 
0.00929436 -0.0132952 0.99994 
0.00974485 -0.0108926 0.999962 
0.0100652 -0.00917129 0.999975 
0.0100745 -0.0074822 0.999988 
0.00998689 -0.00597126 0.999998 
0.00998092 -0.00455249 1 
0.0100259 -0.00308188 1.00001 
0.0100958 -0.00160115 1.00001 
0.0101297 -0.000149972 1.00001 
0.0101112 0.00130564 1.00001 
0.0100395 0.0028325 1.00001 
0.0099121 0.00451241 1 
0.00972 0.00643718 0.999995 
0.00945276 0.00870903 0.999981 
0.00909883 0.0114472 0.999956 
0.00864311 0.0147945 0.999916 
0.00806537 0.0189241 0.999852 
0.00734075 0.0240523 0.999747 
0.00643399 0.0304568 0.999579 
0.00530034 0.0384839 0.999308 
0.00389097 0.0485599 0.998876 
0.00214919 0.0612276 0.998185 
4.80618e-06 0.0771793 0.99708 
-0.0026214 0.0972691 0.995317 
-0.00580705 0.122518 0.992511 
-0.00961893 0.154137 0.988063 
-0.0140997 0.19356 0.981045 
-0.019239 0.242422 0.970035 
-0.0249186 0.302467 0.952883 
-0.0308215 0.375255 0.92645 
-0.0363229 0.461574 0.886386 
-0.0404513 0.560557 0.827135 
-0.0419816 0.66874 0.742288 
-0.0396559 0.77898 0.625721 
-0.0326158 0.879832 0.474006 
-0.0209668 0.956832 0.289547 
-0.00606896 0.996476 0.0823366 
0.00977771 0.991156 -0.131523 
0.0240477 0.942068 -0.334279 
0.0346888 0.858532 -0.511451 
0.0406321 0.754451 -0.655038 
0.0419847 0.643774 -0.764049 
0.0397311 0.53709 -0.842602 
0.0351643 0.440735 -0.896979 
0.0294875 0.357531 -0.933478 
0.0235968 0.287803 -0.957449 
0.0180227 0.230446 -0.972974 
0.0130222 0.183846 -0.982928 
0.00869187 0.146328 -0.989259 
0.00503089 0.116299 -0.993263 
0.00198421 0.0923482 -0.995787 
-0.000522109 0.0732966 -0.997373 
-0.0025687 0.0581525 -0.998368 
-0.0042289 0.0461194 -0.99899 
-0.00556964 0.0365487 -0.99938 
-0.00664909 0.0289184 -0.999623 
-0.00751412 0.0228189 -0.999775 
-0.00820376 0.0179273 -0.999869 
-0.00875061 0.0139853 -0.999927 
-0.00918186 0.0107844 -0.999963 
-0.00951771 0.00815494 -0.999985 
-0.00977117 0.00595592 -0.999998 
-0.00995257 0.00406859 -1.00001 
-0.0100765 0.00238659 -1.00001 
-0.0101723 0.000806433 -1.00001 
-0.0101355 -0.000765786 -1.00002 
-0.0101097 -0.00239031 -1.00003 
-0.00975869 -0.00401384 -1.00003 
-0.0103276 -0.00552627 -0.999984 
-0.00998755 -0.00705248 -1.00001 
-0.0102423 -0.00895013 -0.999976 
-0.00970742 -0.0107588 -0.999966 
-0.00926977 -0.013119 -0.999944 
-0.00879129 -0.0164872 -0.999897 
-0.00847805 -0.0205877 -0.999804 
-0.00660325 -0.0244344 -0.999719 
0.0051772 -0.0255573 0.999697 
0.00665413 -0.0205261 0.999836 
0.00678745 -0.0162144 0.999929 
0.00748349 -0.0123677 0.999964 
0.00767922 -0.0104127 0.999985 
0.0078353 -0.00836451 1 
0.00782857 -0.00649214 1.00001 
0.00777217 -0.00519007 1.00002 
0.00775645 -0.00388322 1.00003 
0.00782218 -0.00240362 1.00003 
0.00787514 -0.000886919 1.00003 
0.0078839 0.000625582 1.00003 
0.00784295 0.00217763 1.00003 
0.00775213 0.00384649 1.00003 
0.00760448 0.005724 1.00002 
0.00739028 0.00790953 1 
0.0071004 0.0105155 0.999983 
0.00672353 0.0136777 0.999947 
0.0062443 0.0175615 0.999889 
0.00564598 0.0223659 0.999797 
0.00490687 0.0283421 0.999649 
0.00399356 0.0358145 0.999413 
0.00286963 0.0451807 0.999038 
0.00150304 0.0569203 0.99844 
-0.000146248 0.0716538 0.997492 
-0.00212751 0.0901688 0.995986 
-0.00448387 0.113404 0.9936 
-0.00724302 0.142452 0.989836 
-0.0104129 0.178592 0.983927 
-0.0139673 0.223291 0.974709 
-0.0178185 0.278171 0.96042 
-0.0217665 0.344807 0.938468 
-0.0254446 0.42432 0.905192 
-0.0282963 0.516681 0.855732 
-0.0296543 0.619766 0.784224 
-0.0288144 0.728699 0.684186 
-0.0251369 0.834666 0.550076 
-0.0183606 0.924539 0.380417 
-0.00898579 0.983286 0.18126 
0.00171499 0.999335 -0.0331944 
0.0121265 0.9695 -0.244375 
0.0207678 0.900093 -0.435022 
0.026639 0.80401 -0.593936 
0.0294375 0.695882 -0.717524 
0.0295317 0.58782 -0.808458 
0.027618 0.487551 -0.872684 
0.0244212 0.399005 -0.916664 
0.0206015 0.323505 -0.946051 
0.0166554 0.260591 -0.96536 
0.0128753 0.208908 -0.977908 
0.00942072 0.166912 -0.985987 
0.00637152 0.133074 -0.991147 
0.00374051 0.105939 -0.994427 
0.00150467 0.0842452 -0.996506 
-0.000370092 0.0669639 -0.997818 
-0.00193038 0.0531857 -0.998646 
-0.00321763 0.0422094 -0.999167 
-0.00427378 0.0334571 -0.999494 
-0.0051356 0.0264592 -0.9997 
-0.00583204 0.0208482 -0.999829 
-0.00638989 0.0163353 -0.999909 
-0.00683437 0.0126825 -0.999959 
-0.00718471 0.00969903 -0.999991 
-0.00745753 0.00722447 -1.00001 
-0.0076609 0.00512765 -1.00002 
-0.00780741 0.00329847 -1.00003 
-0.00790707 0.00164132 -1.00003 
-0.0079595 6.61966e-05 -1.00003 
-0.0079375 -0.00150353 -1.00003 
-0.0077879 -0.00305363 -1.00003 
-0.0076839 -0.00445873 -1.00002 
-0.00793594 -0.0056092 -1.00002 
-0.00720116 -0.00649012 -1.00002 
-0.00821976 -0.00810014 -0.999987 
-0.00771057 -0.0101998 -0.999989 
-0.00732747 -0.0122325 -0.999971 
-0.00665506 -0.0158259 -0.999942 
-0.00660331 -0.0203374 -0.999843 
-0.00511794 -0.0255252 -0.999699 
0.00414685 -0.0258008 0.999694 
0.00528381 -0.0209314 0.999838 
0.0051546 -0.0168663 0.999914 
0.00598578 -0.0137685 0.999938 
0.00601653 -0.0116233 0.999983 
0.00605347 -0.00949688 1 
0.00623186 -0.00724911 1.00002 
0.00621763 -0.00574641 1.00003 
0.00615411 -0.00467122 1.00004 
0.00621373 -0.00331739 1.00004 
0.00629258 -0.00178259 1.00004 
0.00633789 -0.000218842 1.00004 
0.00632999 0.00136088 1.00004 
0.00627293 0.00301599 1.00004 
0.00616721 0.00483293 1.00003 
0.00600274 0.00691024 1.00002 
0.00577089 0.00935341 1 
0.00546478 0.0122857 0.999972 
0.00507259 0.0158616 0.999924 
0.0045797 0.0202663 0.999847 
0.003973 0.0257215 0.999724 
0.00323243 0.0325115 0.999529 
0.00232895 0.0410022 0.999219 
0.00123939 0.0516299 0.998728 
-5.4001e-05 0.0649198 0.997953 
-0.00157877 0.0815653 0.996729 
-0.00336174 0.102427 0.994797 
-0.00541358 0.128495 0.991756 
-0.00772789 0.160914 0.986998 
-0.0102782 0.201007 0.979594 
-0.0130052 0.250254 0.968148 
-0.0157913 0.310225 0.950582 
-0.018426 0.382314 0.923891 
-0.0205842 0.467218 0.883933 
-0.0218464 0.564159 0.825389 
-0.0218097 0.669767 0.742233 
-0.02005 0.777906 0.627994 
-0.0162156 0.87806 0.478126 
-0.0103314 0.955672 0.293922 
-0.00301507 0.996232 0.0853897 
0.00470816 0.99134 -0.130398 
0.0117496 0.942292 -0.334308 
0.0172332 0.859165 -0.51128 
0.0206727 0.756395 -0.653733 
0.0220677 0.64784 -0.761445 
0.0217818 0.54352 -0.83913 
0.0202678 0.449039 -0.893315 
0.0179585 0.36683 -0.930159 
0.0152634 0.297347 -0.954699 
0.0124762 0.239662 -0.970832 
0.00976726 0.192328 -0.98134 
0.00724916 0.153884 -0.988122 
0.00498622 0.122888 -0.992469 
0.00299296 0.0979859 -0.995245 
0.00126499 0.0780355 -0.997012 
-0.000209526 0.0621348 -0.99813 
-0.00146032 0.0493986 -0.998841 
-0.00250698 0.0392321 -0.99929 
-0.00337698 0.0311064 -0.999573 
-0.0040937 0.0245879 -0.999752 
-0.00467427 0.0193469 -0.999865 
-0.00514193 0.0151148 -0.999935 
-0.00551237 0.0116772 -0.99998 
-0.00580431 0.00884806 -1.00001 
-0.00602696 0.00648162 -1.00002 
-0.0061886 0.00445332 -1.00003 
-0.00630366 0.00265638 -1.00004 
-0.00637795 0.000995385 -1.00004 
-0.00638286 -0.000619661 -1.00005 
-0.00634751 -0.00224562 -1.00004 
-0.00617371 -0.00382959 -1.00004 
-0.0061298 -0.0051895 -1.00005 
-0.00565476 -0.0064333 -1.00003 
-0.00649038 -0.00849031 -1.00001 
-0.00594083 -0.0109313 -1.00001 
-0.00575627 -0.0130539 -0.999956 
-0.00507747 -0.0165638 -0.999924 
-0.00520664 -0.0208366 -0.999842 
-0.00412854 -0.0257997 -0.999694 
0.00343693 -0.0262221 0.999683 
0.00423494 -0.021217 0.999835 
0.00410835 -0.0165952 0.999924 
0.00490728 -0.0133989 0.999965 
0.00471898 -0.0109461 1.00001 
0.00482192 -0.0081481 1.00002 
0.00508759 -0.00637082 1.00002 
0.00494124 -0.00540351 1.00004 
0.00495184 -0.00429619 1.00004 
0.00501614 -0.00283056 1.00005 
0.00508347 -0.00122585 1.00005 
0.0051063 0.000398964 1.00005 
0.00507942 0.00205936 1.00005 
0.00501027 0.00382765 1.00004 
0.00489265 0.00580027 1.00003 
0.00471417 0.00808185 1.00002 
0.00447114 0.0107823 0.999994 
0.00415864 0.0140383 0.999955 
0.00376349 0.0180227 0.999893 
0.00327423 0.0229384 0.999794 
0.00268165 0.0290259 0.999637 
0.00196696 0.0366021 0.99939 
0.00110799 0.04607 0.999 
9.5697e-05 0.0578927 0.998385 
-0.00107692 0.0726379 0.99742 
-0.00242594 0.0910729 0.995903 
-0.00395536 0.114109 0.993521 
-0.00565191 0.142773 0.989799 
-0.00749171 0.17826 0.984013 
-0.00943467 0.221929 0.975073 
-0.0114147 0.275269 0.961352 
-0.0133164 0.339817 0.940443 
-0.0149526 0.41677 0.908925 
-0.0160687 0.506383 0.862181 
-0.0163788 0.607082 0.794469 
-0.0156864 0.714118 0.699812 
-0.0136987 0.820164 0.571869 
-0.0102193 0.912887 0.407881 
-0.00543759 0.977017 0.212606 
6.02252e-05 0.999888 -0.000888803 
0.00552412 0.976737 -0.213883 
0.010258 0.912754 -0.408177 
0.0137537 0.820388 -0.571545 
0.0157943 0.714318 -0.699605 
0.0164954 0.607081 -0.794467 
0.0161458 0.506806 -0.86193 
0.015014 0.417498 -0.90859 
0.0133648 0.34062 -0.940152 
0.0114679 0.276073 -0.96112 
0.00949073 0.222628 -0.974913 
0.00753225 0.178817 -0.983912 
0.00568019 0.143267 -0.989728 
0.00398417 0.114592 -0.993466 
0.00245618 0.0915079 -0.995863 
0.00110528 0.0729796 -0.997395 
-6.68224e-05 0.0582311 -0.998365 
-0.00108175 0.0463166 -0.998988 
-0.00193975 0.0368072 -0.999383 
-0.00266194 0.0291858 -0.999633 
-0.00325876 0.0230579 -0.999791 
-0.00374626 0.0180975 -0.999892 
-0.00413474 0.0141022 -0.999954 
-0.00444638 0.0108275 -0.999994 
-0.0046894 0.00811648 -1.00002 
-0.00487576 0.00583005 -1.00003 
-0.00501387 0.00385075 -1.00004 
-0.00511603 0.00207442 -1.00005 
-0.00518498 0.000398848 -1.00005 
-0.00518362 -0.00125464 -1.00005 
-0.00511473 -0.00290526 -1.00005 
-0.00504507 -0.00441293 -1.00004 
-0.0048095 -0.00548902 -1.00004 
-0.00448211 -0.00664122 -1.00003 
-0.0051901 -0.00860838 -1.00002 
-0.00477886 -0.0109983 -0.999983 
-0.00455612 -0.0130851 -0.999988 
-0.00402117 -0.0166149 -0.999925 
-0.00418111 -0.0210849 -0.999839 
-0.00344032 -0.026199 -0.999683 
0.00282141 -0.0263122 0.999681 
0.00340502 -0.0212993 0.999835 
0.00323181 -0.0166844 0.999924 
0.00392758 -0.0133288 0.999972 
0.00350717 -0.0110911 1 
0.00370557 -0.00850345 1.00003 
0.00394274 -0.00630077 1.00005 
0.00385767 -0.0052728 1.00005 
0.00387052 -0.00399018 1.00005 
0.00392858 -0.00237638 1.00005 
0.0039802 -0.000688467 1.00006 
0.00398596 0.00100961 1.00006 
0.00394938 0.00275876 1.00005 
0.0038746 0.00464726 1.00004 
0.00375125 0.00678331 1.00003 
0.00356891 0.0092728 1.00001 
0.00332934 0.0122316 0.999981 
0.00302619 0.0158127 0.999932 
0.00264643 0.0202064 0.999854 
0.00218216 0.0256309 0.999731 
0.00162592 0.0323447 0.999537 
0.000961512 0.0407 0.999232 
0.00017671 0.0511287 0.998754 
-0.00072686 0.0641145 0.998004 
-0.00174925 0.080274 0.996832 
-0.00289191 0.100448 0.994999 
-0.00413777 0.125583 0.992135 
-0.00545817 0.156736 0.987684 
-0.00681908 0.195172 0.980803 
-0.00817658 0.242298 0.970222 
-0.00946906 0.299634 0.954057 
-0.0105978 0.36869 0.929534 
-0.0114191 0.450443 0.892763 
-0.0117628 0.54462 0.838613 
-0.0114723 0.648631 0.761002 
-0.0105006 0.756058 0.654363 
-0.00863195 0.858234 0.513057 
-0.00582413 0.941369 0.337056 
-0.00232171 0.990868 0.134013 
0.00145196 0.996621 -0.0807812 
0.00503785 0.957467 -0.288165 
0.00804352 0.881653 -0.471674 
0.0101985 0.782901 -0.62199 
0.0114245 0.675453 -0.737291 
0.0118425 0.5704 -0.821288 
0.0116239 0.474204 -0.880364 
0.0109 0.389629 -0.920947 
0.00982993 0.317493 -0.948257 
0.0085812 0.257286 -0.96635 
0.00723322 0.207524 -0.978259 
0.00585086 0.166798 -0.986032 
0.00450778 0.133804 -0.991057 
0.00324173 0.10717 -0.994296 
0.00206923 0.0856837 -0.996382 
0.00101276 0.0684072 -0.997719 
8.15732e-05 0.0547232 -0.998563 
-0.000741642 0.0434679 -0.999117 
-0.00144026 0.0345317 -0.999464 
-0.00202619 0.0273991 -0.999685 
-0.00252592 0.0215539 -0.999826 
-0.00291184 0.0168961 -0.999915 
-0.00323379 0.0131115 -0.999971 
-0.00348308 0.00998507 -1.00001 
-0.00367207 0.00738366 -1.00003 
-0.00381437 0.00517442 -1.00004 
-0.00392208 0.0032466 -1.00005 
-0.00401156 0.00149001 -1.00005 
-0.00406755 -0.000188606 -1.00005 
-0.00406251 -0.0018595 -1.00005 
-0.00400008 -0.00348295 -1.00005 
-0.00385806 -0.00481857 -1.00005 
-0.00360743 -0.00572097 -1.00004 
-0.00345731 -0.00660899 -1.00002 
-0.00388492 -0.00895139 -1.00003 
-0.00370543 -0.0117602 -0.999992 
-0.00350372 -0.014051 -0.999962 
-0.00309796 -0.0176741 -0.999894 
-0.00330274 -0.0215328 -0.999831 
-0.00276256 -0.0262317 -0.999685 
0.00218826 -0.0263678 0.99968 
0.00267483 -0.0213978 0.999834 
0.00248316 -0.016804 0.999923 
0.00299634 -0.0136665 0.999967 
0.00269705 -0.011541 0.999981 
0.00271321 -0.00882757 1.00004 
0.00308146 -0.0069612 1.00002 
0.00307901 -0.00589494 1.00004 
0.00312172 -0.00494864 1.00005 
0.00320079 -0.00352058 1.00005 
0.00327794 -0.00183596 1.00006 
0.00332415 -0.000105083 1.00006 
0.00332165 0.00165416 1.00006 
0.00328164 0.00348502 1.00005 
0.0032037 0.0054961 1.00004 
0.00307647 0.00779451 1.00003 
0.00289652 0.0104914 1 
0.00266395 0.0137074 0.999964 
0.0023704 0.0176106 0.999903 
0.00200463 0.0224174 0.999808 
0.00156008 0.0283507 0.999658 
0.0010293 0.0356915 0.999423 
0.000400607 0.0448249 0.999056 
-0.000330876 0.0562076 0.99848 
-0.00116199 0.0703383 0.997583 
-0.0020899 0.087891 0.996188 
-0.00310398 0.109772 0.994012 
-0.00417794 0.136952 0.990628 
-0.00527812 0.170533 0.985396 
-0.00636452 0.211847 0.977338 
-0.0073886 0.262354 0.964996 
-0.00828945 0.323589 0.946208 
-0.00898424 0.396983 0.91782 
-0.00937071 0.483183 0.875494 
-0.00933841 0.581176 0.813729 
-0.00879675 0.687094 0.726488 
-0.00770713 0.79295 0.609162 
-0.00595122 0.889357 0.457013 
-0.0035877 0.962189 0.272005 
-0.00082208 0.997856 0.0637614 
0.00203785 0.98848 -0.150643 
0.00466804 0.935941 -0.351873 
0.00680999 0.85085 -0.525244 
0.0083139 0.747643 -0.663996 
0.00916591 0.639966 -0.768337 
0.00945801 0.537523 -0.843211 
0.00929319 0.445267 -0.895381 
0.00875873 0.365022 -0.931 
0.00796491 0.297136 -0.954851 
0.00701399 0.240769 -0.970611 
0.0059518 0.19421 -0.980999 
0.00483812 0.156156 -0.987779 
0.00374101 0.125396 -0.99216 
0.00269066 0.100524 -0.994991 
0.00170372 0.0803758 -0.996824 
0.000804942 0.0641243 -0.998003 
3.29192e-05 0.0514556 -0.998736 
-0.000687673 0.040523 -0.99924 
-0.00125753 0.0323393 -0.999538 
-0.0017751 0.0253946 -0.999737 
-0.002173 0.0199852 -0.99986 
-0.00249844 0.015597 -0.999937 
-0.00276331 0.0120368 -0.999985 
-0.0029619 0.00904482 -1.00002 
-0.00310315 0.00655713 -1.00004 
-0.0031997 0.00444559 -1.00005 
-0.00327075 0.00256026 -1.00005 
-0.00331624 0.000831817 -1.00006 
-0.00333044 -0.000848788 -1.00006 
-0.00328712 -0.00252969 -1.00005 
-0.00319315 -0.00410888 -1.00005 
-0.00303883 -0.00536294 -1.00005 
-0.00282621 -0.00624945 -1.00005 
-0.00292158 -0.00773068 -1.00001 
-0.00288875 -0.0102688 -1.00001 
-0.00270999 -0.0127075 -0.999983 
-0.00257053 -0.0153017 -0.999947 
-0.00249321 -0.0211883 -0.999854 
-0.00214745 -0.0262794 -0.999683 
0.00170198 -0.0264545 0.999678 
0.00207842 -0.0214545 0.999833 
0.00198014 -0.0167975 0.999923 
0.00231974 -0.0136898 0.999968 
0.00229477 -0.0110224 1 
0.00235197 -0.00831241 1.00003 
0.00263622 -0.00676008 1.00004 
0.00271854 -0.00582188 1.00005 
0.00282072 -0.00468269 1.00005 
0.00291185 -0.00307332 1.00006 
0.00298302 -0.00130876 1.00006 
0.00301387 0.000484348 1.00006 
0.00299726 0.00230645 1.00005 
0.00295367 0.00422022 1.00005 
0.00287025 0.00634348 1.00004 
0.00273939 0.00880171 1.00002 
0.00256069 0.0117022 0.999989 
0.00233517 0.0151549 0.999943 
0.0020509 0.0193857 0.99987 
0.0016985 0.0246029 0.999756 
0.00127392 0.0310382 0.999578 
0.000768823 0.0389958 0.999299 
0.000173983 0.0488967 0.998864 
-0.000511724 0.0611945 0.998186 
-0.0012885 0.0764154 0.997135 
-0.00215401 0.0953071 0.995505 
-0.00309258 0.118822 0.99297 
-0.00407708 0.147902 0.989052 
-0.00507714 0.18366 0.983034 
-0.00605362 0.227446 0.973826 
-0.00695616 0.280646 0.959836 
-0.00772123 0.344649 0.938744 
-0.00827131 0.420667 0.907212 
-0.00852177 0.508851 0.860833 
-0.00838628 0.607777 0.794061 
-0.0077878 0.713329 0.70075 
-0.0066584 0.817546 0.575733 
-0.00490832 0.910178 0.413995 
-0.00263054 0.975533 0.21938 
-4.13193e-05 0.999881 0.0045245 
0.00254925 0.977424 -0.210794 
0.00483953 0.913351 -0.406945 
0.00662136 0.82065 -0.571299 
0.00780534 0.714319 -0.69974 
0.00841719 0.607357 -0.794383 
0.00855061 0.507887 -0.861402 
0.00829197 0.419403 -0.907798 
0.00772241 0.34311 -0.939308 
0.00694774 0.279091 -0.96029 
0.0060506 0.226133 -0.974132 
0.00505307 0.182246 -0.983297 
0.004025 0.146459 -0.989267 
0.00304134 0.117682 -0.993106 
0.00210322 0.0942367 -0.995608 
0.00121519 0.0750115 -0.997243 
0.00040905 0.059436 -0.998303 
-0.000237989 0.0477281 -0.998908 
-0.000835599 0.0377166 -0.99936 
-0.00137444 0.0294276 -0.999627 
-0.00177761 0.0232202 -0.99979 
-0.00211204 0.0181768 -0.999894 
-0.00237852 0.014106 -0.999959 
-0.0026002 0.0107954 -0.999999 
-0.00275776 0.00788617 -1.00003 
-0.0028548 0.00557319 -1.00004 
-0.00293527 0.00352571 -1.00005 
-0.00298098 0.00170478 -1.00006 
-0.00300645 4.13721e-05 -1.00006 
-0.00299863 -0.00153499 -1.00004 
-0.00293009 -0.00311142 -1.00005 
-0.00283504 -0.0046183 -1.00005 
-0.00269355 -0.00577383 -1.00004 
-0.00250967 -0.00668304 -1.00004 
-0.0025152 -0.0080182 -1.00003 
-0.00234882 -0.010965 -1 
-0.00212794 -0.0135581 -0.999987 
-0.00209264 -0.0176753 -0.99991 
-0.00188101 -0.021817 -0.999813 
-0.0016199 -0.0263947 -0.99968 
0.00128167 -0.0265515 0.999676 
0.00164076 -0.0214844 0.999833 
0.00160357 -0.0167505 0.999924 