# vtk DataFile Version 3.0 
Exported using Morpho https://github.com/Morpho-lang/morpho 
ASCII 
DATASET UNSTRUCTURED_GRID 

POINTS 2054 float 
-8.48528 -2.82843 0 
-8.20636 -2.82843 0 
-7.94054 -2.82843 0 
-7.6904 -2.82843 0 
-7.45357 -2.82843 0 
-7.22694 -2.82843 0 
-7.00705 -2.82843 0 
-6.79111 -2.82843 0 
-6.57731 -2.82843 0 
-6.36453 -2.82843 0 
-6.15219 -2.82843 0 
-5.94 -2.82843 0 
-5.72786 -2.82843 0 
-5.51573 -2.82843 0 
-5.3036 -2.82843 0 
-5.09147 -2.82843 0 
-4.87933 -2.82843 0 
-4.6672 -2.82843 0 
-4.45507 -2.82843 0 
-4.24294 -2.82843 0 
-4.03081 -2.82843 0 
-3.81867 -2.82843 0 
-3.60654 -2.82843 0 
-3.39441 -2.82843 0 
-3.18228 -2.82843 0 
-2.97015 -2.82843 0 
-2.75801 -2.82843 0 
-2.54588 -2.82843 0 
-2.33375 -2.82843 0 
-2.12162 -2.82843 0 
-1.90949 -2.82843 0 
-1.69735 -2.82843 0 
-1.48522 -2.82843 0 
-1.27309 -2.82843 0 
-1.06096 -2.82843 0 
-0.848825 -2.82843 0 
-0.636693 -2.82843 0 
-0.424561 -2.82843 0 
-0.212429 -2.82843 0 
-0.000296761 -2.82843 0 
0.211835 -2.82843 0 
0.423967 -2.82843 0 
0.636099 -2.82843 0 
0.848231 -2.82843 0 
1.06036 -2.82843 0 
1.2725 -2.82843 0 
1.48463 -2.82843 0 
1.69676 -2.82843 0 
1.90889 -2.82843 0 
2.12102 -2.82843 0 
2.33316 -2.82843 0 
2.54529 -2.82843 0 
2.75742 -2.82843 0 
2.96955 -2.82843 0 
3.18168 -2.82843 0 
3.39382 -2.82843 0 
3.60595 -2.82843 0 
3.81808 -2.82843 0 
4.03021 -2.82843 0 
4.24234 -2.82843 0 
4.45448 -2.82843 0 
4.66661 -2.82843 0 
4.87874 -2.82843 0 
5.09087 -2.82843 0 
5.303 -2.82843 0 
5.51514 -2.82843 0 
5.72727 -2.82843 0 
5.93941 -2.82843 0 
6.15159 -2.82843 0 
6.36393 -2.82843 0 
6.57672 -2.82843 0 
6.79055 -2.82843 0 
7.00652 -2.82843 0 
7.22647 -2.82843 0 
7.45313 -2.82843 0 
7.69005 -2.82843 0 
7.9403 -2.82843 0 
8.20621 -2.82843 0 
8.48528 -2.82843 0 
-8.48528 -2.5495 0 
-8.30526 -2.64845 0 
-8.07062 -2.59995 0 
-7.83904 -2.59637 0 
-7.59595 -2.59733 0 
-7.36578 -2.59177 0 
-7.13796 -2.5933 0 
-6.90908 -2.59428 0 
-6.68421 -2.5916 0 
-6.46568 -2.58832 0 
-6.24926 -2.58859 0 
-6.03358 -2.58941 0 
-5.81848 -2.59013 0 
-5.60402 -2.59075 0 
-5.39005 -2.59135 0 
-5.17642 -2.59186 0 
-4.96311 -2.59223 0 
-4.75009 -2.59242 0 
-4.53736 -2.59244 0 
-4.32497 -2.59236 0 
-4.1128 -2.59242 0 
-3.90059 -2.59259 0 
-3.68835 -2.5926 0 
-3.47627 -2.59248 0 
-3.26428 -2.59251 0 
-3.05216 -2.59271 0 
-2.83986 -2.59283 0 
-2.62755 -2.59274 0 
-2.41539 -2.59253 0 
-2.20336 -2.59238 0 
-1.99135 -2.59238 0 
-1.77924 -2.59246 0 
-1.56704 -2.59244 0 
-1.35495 -2.59215 0 
-1.14319 -2.59183 0 
-0.931581 -2.59195 0 
-0.719663 -2.59256 0 
-0.507197 -2.59324 0 
-0.294425 -2.59354 0 
-0.0817689 -2.59344 0 
0.130587 -2.59325 0 
0.342804 -2.59322 0 
0.555051 -2.59322 0 
0.767233 -2.59303 0 
0.97919 -2.59278 0 
1.19107 -2.59278 0 
1.40311 -2.59289 0 
1.61524 -2.59286 0 
1.82732 -2.59279 0 
2.03943 -2.59281 0 
2.25163 -2.5928 0 
2.46381 -2.59266 0 
2.67591 -2.59254 0 
2.88801 -2.59237 0 
3.10001 -2.59226 0 
3.31203 -2.59216 0 
3.52402 -2.59207 0 
3.73601 -2.59208 0 
3.94815 -2.59221 0 
4.16052 -2.5923 0 
4.37309 -2.59232 0 
4.58593 -2.59227 0 
4.79921 -2.5922 0 
5.01319 -2.59212 0 
5.22833 -2.5921 0 
5.44534 -2.59239 0 
5.6657 -2.59346 0 
5.89185 -2.59569 0 
6.12685 -2.59429 0 
6.36853 -2.59189 0 
6.6108 -2.57787 0 
6.84491 -2.61411 0 
7.08804 -2.58476 0 
7.34858 -2.60369 0 
7.58803 -2.59327 0 
7.83059 -2.59326 0 
8.06387 -2.59199 0 
8.30038 -2.64348 0 
8.48528 -2.54936 0 
-8.48528 -2.28369 0 
-8.25701 -2.4138 0 
-8.01078 -2.35334 0 
-7.73666 -2.37963 0 
-7.49744 -2.35565 0 
-7.26898 -2.35831 0 
-7.03324 -2.36676 0 
-6.7997 -2.36275 0 
-6.5773 -2.35166 0 
-6.35808 -2.3495 0 
-6.14038 -2.35058 0 
-5.92336 -2.35185 0 
-5.70723 -2.35272 0 
-5.49199 -2.35362 0 
-5.27734 -2.35447 0 
-5.0632 -2.35505 0 
-4.84958 -2.35534 0 
-4.63641 -2.35533 0 
-4.42363 -2.35504 0 
-4.21126 -2.35485 0 
-3.99909 -2.35513 0 
-3.78684 -2.3554 0 
-3.57461 -2.35516 0 
-3.36263 -2.35498 0 
-3.15066 -2.35537 0 
-2.93843 -2.35586 0 
-2.72604 -2.35589 0 
-2.51374 -2.35551 0 
-2.30162 -2.35509 0 
-2.08964 -2.35496 0 
-1.87761 -2.35518 0 
-1.66544 -2.3554 0 
-1.45322 -2.35518 0 
-1.2412 -2.35438 0 
-1.02967 -2.35407 0 
-0.818162 -2.35505 0 
-0.606054 -2.35676 0 
-0.393243 -2.3579 0 
-0.180256 -2.35789 0 
0.0323765 -2.35727 0 
0.244686 -2.35692 0 
0.456926 -2.35692 0 
0.669206 -2.35667 0 
0.881318 -2.35598 0 
1.09315 -2.35559 0 
1.305 -2.35583 0 
1.51709 -2.35595 0 
1.72919 -2.35571 0 
1.9412 -2.35566 0 
2.15334 -2.3558 0 
2.36559 -2.3556 0 
2.57772 -2.35522 0 
2.78976 -2.35507 0 
3.0019 -2.35461 0 
3.21373 -2.35451 0 
3.42571 -2.35439 0 
3.63769 -2.35431 0 
3.84965 -2.35453 0 
4.06183 -2.35491 0 
4.27435 -2.35507 0 
4.48707 -2.35507 0 
4.70017 -2.35506 0 
4.91376 -2.35498 0 
5.12819 -2.35502 0 
5.34378 -2.35528 0 
5.56106 -2.35662 0 
5.78097 -2.35971 0 
6.00401 -2.36251 0 
6.2308 -2.3624 0 
6.45748 -2.35551 0 
6.68075 -2.33423 0 
6.88797 -2.39744 0 
7.05313 -2.27289 0 
7.24377 -2.40237 0 
7.48542 -2.36016 0 
7.73055 -2.36599 0 
7.99177 -2.33552 0 
8.24864 -2.40698 0 
8.48528 -2.28345 0 
-8.48528 -2.03355 0 
-8.25312 -2.18214 0 
-8.03669 -2.07913 0 
-7.83956 -2.18231 0 
-7.6106 -2.12852 0 
-7.38852 -2.10959 0 
-7.16268 -2.14097 0 
-6.9229 -2.1435 0 
-6.70119 -2.12055 0 
-6.48111 -2.11285 0 
-6.26282 -2.11284 0 
-6.045 -2.1151 0 
-5.82775 -2.11658 0 
-5.61153 -2.11776 0 
-5.3962 -2.1192 0 
-5.18144 -2.1203 0 
-4.96732 -2.12084 0 
-4.75387 -2.12105 0 
-4.54086 -2.12091 0 
-4.32822 -2.12045 0 
-4.11596 -2.12045 0 
-3.90382 -2.12107 0 
-3.69156 -2.12116 0 
-3.47938 -2.12058 0 
-3.26746 -2.12068 0 
-3.05542 -2.12154 0 
-2.84307 -2.12198 0 
-2.63064 -2.12162 0 
-2.41836 -2.12087 0 
-2.20626 -2.12031 0 
-1.99426 -2.12034 0 
-1.78217 -2.1207 0 
-1.56989 -2.12074 0 
-1.35755 -2.11993 0 
-1.14542 -2.11838 0 
-0.934012 -2.11859 0 
-0.722404 -2.12089 0 
-0.509943 -2.12344 0 
-0.296911 -2.12431 0 
-0.0840921 -2.12359 0 
0.128295 -2.12281 0 
0.340414 -2.12274 0 
0.552564 -2.12288 0 
0.76478 -2.12226 0 
0.976792 -2.1213 0 
1.18855 -2.12128 0 
1.40042 -2.12188 0 
1.61256 -2.12177 0 
1.82458 -2.12141 0 
2.03655 -2.12164 0 
2.24875 -2.12174 0 
2.46099 -2.12114 0 
2.67302 -2.12065 0 
2.88504 -2.12054 0 
3.09728 -2.1194 0 
3.30873 -2.11968 0 
3.52086 -2.1195 0 
3.7329 -2.11938 0 
3.94484 -2.11986 0 
4.15715 -2.12044 0 
4.36983 -2.12035 0 
4.58282 -2.1204 0 
4.79606 -2.12017 0 
5.01004 -2.12012 0 
5.22483 -2.12002 0 
5.44073 -2.12051 0 
5.6582 -2.123 0 
5.8782 -2.12696 0 
6.10217 -2.12971 0 
6.33095 -2.12707 0 
6.567 -2.11601 0 
6.82301 -2.12303 0 
7.06572 -2.04567 0 
7.29733 -2.17484 0 
7.54632 -2.11408 0 
7.79371 -2.13741 0 
8.02274 -2.07453 0 
8.25027 -2.1738 0 
8.48528 -2.0332 0 
-8.48528 -1.79671 0 
-8.25436 -1.93882 0 
-8.01299 -1.83977 0 
-7.78596 -1.953 0 
-7.5297 -1.87194 0 
-7.2756 -1.88722 0 
-7.05707 -1.93544 0 
-6.84369 -1.89677 0 
-6.62219 -1.88079 0 
-6.40169 -1.87606 0 
-6.18206 -1.87854 0 
-5.96274 -1.881 0 
-5.74458 -1.88208 0 
-5.52796 -1.88344 0 
-5.31232 -1.88506 0 
-5.09736 -1.88569 0 
-4.88338 -1.88564 0 
-4.67019 -1.88555 0 
-4.45737 -1.88507 0 
-4.24485 -1.88447 0 
-4.03271 -1.88482 0 
-3.82061 -1.88562 0 
-3.60832 -1.88529 0 
-3.39617 -1.88464 0 
-3.18427 -1.88547 0 
-2.97209 -1.88672 0 
-2.7596 -1.88684 0 
-2.54714 -1.88601 0 
-2.33483 -1.88505 0 
-2.12268 -1.8846 0 
-1.91058 -1.885 0 
-1.69824 -1.88561 0 
-1.48561 -1.88547 0 
-1.27286 -1.88413 0 
-1.06032 -1.88216 0 
-0.848858 -1.8839 0 
-0.636875 -1.88781 0 
-0.424169 -1.89034 0 
-0.211518 -1.89004 0 
0.000731944 -1.88866 0 
0.21257 -1.88788 0 
0.424308 -1.88807 0 
0.636257 -1.88793 0 
0.848362 -1.88664 0 
1.06025 -1.88556 0 
1.27191 -1.88605 0 
1.48381 -1.88664 0 
1.69595 -1.886 0 
1.90782 -1.88577 0 
2.11974 -1.88637 0 
2.33202 -1.88609 0 
2.54419 -1.88502 0 
2.75607 -1.88472 0 
2.96812 -1.88462 0 
3.18055 -1.88217 0 
3.39117 -1.88415 0 
3.60398 -1.8838 0 
3.81618 -1.88366 0 
4.02827 -1.88469 0 
4.24071 -1.88523 0 
4.4544 -1.88509 0 
4.66716 -1.88476 0 
4.88099 -1.88493 0 
5.09545 -1.88466 0 
5.31057 -1.88453 0 
5.52653 -1.88564 0 
5.7436 -1.88981 0 
5.96352 -1.89563 0 
6.18733 -1.89813 0 
6.41543 -1.89522 0 
6.65059 -1.89622 0 
6.87542 -1.86913 0 
7.11122 -1.81621 0 
7.31223 -1.94975 0 
7.53264 -1.87683 0 
7.77077 -1.89068 0 
8.01717 -1.8297 0 
8.25014 -1.93148 0 
8.48528 -1.79628 0 
-8.48528 -1.57009 0 
-8.24868 -1.70836 0 
-8.015 -1.61096 0 
-7.76734 -1.73071 0 
-7.54593 -1.61782 0 
-7.32306 -1.66278 0 
-7.05152 -1.7082 0 
-6.79786 -1.66675 0 
-6.56099 -1.64764 0 
-6.33267 -1.64541 0 
-6.10856 -1.64921 0 
-5.88638 -1.65073 0 
-5.66697 -1.65153 0 
-5.44986 -1.65353 0 
-5.23379 -1.65525 0 
-5.01882 -1.6551 0 
-4.80519 -1.6548 0 
-4.59235 -1.65478 0 
-4.37976 -1.65422 0 
-4.16737 -1.65386 0 
-3.95537 -1.65471 0 
-3.74326 -1.6554 0 
-3.5309 -1.65455 0 
-3.31876 -1.65426 0 
-3.10682 -1.65593 0 
-2.89443 -1.65705 0 
-2.68177 -1.65644 0 
-2.46924 -1.65516 0 
-2.25682 -1.65408 0 
-2.04447 -1.65386 0 
-1.83202 -1.65455 0 
-1.61911 -1.65506 0 
-1.40572 -1.65429 0 
-1.19212 -1.65207 0 
-0.97885 -1.64982 0 
-0.767325 -1.65372 0 
-0.555434 -1.6581 0 
-0.343588 -1.65935 0 
-0.132061 -1.65818 0 
0.0792288 -1.65687 0 
0.290417 -1.65682 0 
0.501823 -1.6575 0 
0.713729 -1.65709 0 
0.925861 -1.65545 0 
1.13768 -1.65488 0 
1.34929 -1.65604 0 
1.56128 -1.6563 0 
1.77337 -1.65516 0 
1.985 -1.65561 0 
2.19698 -1.65642 0 
2.40939 -1.65525 0 
2.62143 -1.65394 0 
2.83323 -1.65414 0 
3.04553 -1.65355 0 
3.25842 -1.64868 0 
3.46746 -1.65522 0 
3.68272 -1.65284 0 
3.89574 -1.65288 0 
4.10731 -1.65378 0 
4.32287 -1.65565 0 
4.53627 -1.65249 0 
4.74932 -1.65397 0 
4.96428 -1.65355 0 
5.17935 -1.65257 0 
5.3944 -1.65202 0 
5.60927 -1.65354 0 
5.82513 -1.66019 0 
6.04295 -1.66711 0 
6.26383 -1.66843 0 
6.48537 -1.66776 0 
6.70098 -1.65646 0 
6.91299 -1.6206 0 
7.11709 -1.6046 0 
7.3526 -1.69716 0 
7.60698 -1.65764 0 
7.8325 -1.64214 0 
8.05985 -1.58842 0 
8.2608 -1.69223 0 
8.48528 -1.56961 0 
-8.48528 -1.35019 0 
-8.24958 -1.48044 0 
-8.0219 -1.3751 0 
-7.79713 -1.50391 0 
-7.58956 -1.39834 0 
-7.36199 -1.38754 0 
-7.16079 -1.49923 0 
-6.93764 -1.46284 0 
[...]
POINT_DATA 2054 
VECTORS vectors float
0.000453078 -0.00157737 0.999999 
8.16876e-05 -0.015658 0.999877 
0.000193203 -0.0181092 0.999836 
0.000222673 -0.0177008 0.999843 
0.000237624 -0.01632 0.999867 
0.000279275 -0.0142082 0.999899 
0.000291949 -0.012091 0.999927 
0.000305252 -0.0101318 0.999949 
0.000310374 -0.00823873 0.999966 
0.000312844 -0.00630475 0.99998 
0.000313705 -0.00430468 0.999991 
0.000314028 -0.00224078 0.999997 
0.000314079 -0.00010947 1 
0.000313896 0.00211346 0.999998 
0.000313433 0.00448604 0.99999 
0.00031255 0.00710056 0.999975 
0.000311251 0.0100783 0.999949 
0.000309462 0.0135662 0.999908 
0.00030701 0.0177398 0.999843 
0.000303854 0.0228098 0.99974 
0.000299749 0.0290315 0.999578 
0.000294598 0.0367164 0.999326 
0.000288159 0.0462457 0.99893 
0.00028003 0.0580886 0.998311 
0.000269905 0.0728199 0.997345 
0.000257253 0.0911427 0.995838 
0.000241576 0.113914 0.993491 
0.000222182 0.142166 0.989843 
0.000198209 0.177125 0.984188 
0.00016884 0.22021 0.975453 
0.00013321 0.272984 0.962019 
9.08288e-05 0.337018 0.941498 
4.19728e-05 0.413572 0.910471 
-1.14793e-05 0.503049 0.864258 
-6.4807e-05 0.604075 0.796927 
-0.000109383 0.712306 0.701869 
-0.00013281 0.819296 0.573371 
-0.000122645 0.912389 0.409324 
-7.4604e-05 0.976772 0.214281 
-4.44686e-07 1 0.000840449 
7.38768e-05 0.977121 -0.212683 
0.000122274 0.913006 -0.407946 
0.000132774 0.820061 -0.572276 
0.000109571 0.71311 -0.701052 
6.50869e-05 0.604846 -0.796343 
1.17805e-05 0.503738 -0.863857 
-4.16776e-05 0.414168 -0.9102 
-9.0586e-05 0.337521 -0.941318 
-0.000133014 0.273405 -0.961899 
-0.000168639 0.220556 -0.975374 
-0.000198039 0.177406 -0.984138 
-0.000222049 0.142395 -0.98981 
-0.000241472 0.1141 -0.993469 
-0.00025718 0.0912942 -0.995824 
-0.000269774 0.0729427 -0.997336 
-0.000279919 0.0581881 -0.998306 
-0.000288077 0.0463272 -0.998926 
-0.000294548 0.0367835 -0.999323 
-0.000299713 0.0290878 -0.999577 
-0.000303746 0.022858 -0.999739 
-0.000306914 0.0177814 -0.999842 
-0.000309376 0.0136026 -0.999907 
-0.000311158 0.0101102 -0.999949 
-0.000312432 0.00712875 -0.999975 
-0.000313213 0.00451264 -0.99999 
-0.000313582 0.00214184 -0.999998 
-0.000313908 -7.50761e-05 -1 
-0.00031316 -0.00219375 -0.999998 
-0.000313651 -0.00424143 -0.999991 
-0.000309915 -0.00621223 -0.999981 
-0.000311981 -0.0081271 -0.999967 
-0.000301509 -0.0100088 -0.99995 
-0.000294508 -0.0119159 -0.999929 
-0.000277093 -0.0140326 -0.999902 
-0.000237903 -0.0160981 -0.99987 
-0.000221717 -0.0174044 -0.999849 
-0.000193518 -0.0178223 -0.999841 
-7.82041e-05 -0.0153757 -0.999882 
-0.000458676 -0.00157088 -0.999999 
-0.00010596 -0.000117827 1 
0.00325474 -0.0112907 0.999931 
0.00629134 -0.0163079 0.999847 
0.00732737 -0.0174865 0.99982 
0.00789027 -0.016606 0.999831 
0.00842268 -0.0150928 0.999851 
0.00873773 -0.0131191 0.999876 
0.0089355 -0.0110106 0.999899 
0.00916983 -0.00898658 0.999918 
0.00937753 -0.00703843 0.999931 
0.00946712 -0.00507343 0.999942 
0.00951461 -0.00305215 0.99995 
0.00955137 -0.000962463 0.999954 
0.00957309 0.00121886 0.999953 
0.00957283 0.00353998 0.999948 
0.00954949 0.00607695 0.999936 
0.00950245 0.00893487 0.999915 
0.00943068 0.0122483 0.999881 
0.00933168 0.0161804 0.999826 
0.0091999 0.0209252 0.999739 
0.00902493 0.0267204 0.999602 
0.00880294 0.0338616 0.999388 
0.0085345 0.0427042 0.999051 
0.00821099 0.0536735 0.998525 
0.00781719 0.067301 0.997702 
0.00734333 0.0842535 0.996417 
0.00678438 0.105339 0.994413 
0.00613258 0.131512 0.991296 
0.00537758 0.163897 0.986463 
0.00451245 0.203823 0.978997 
0.00354086 0.252801 0.967512 
0.00248213 0.312426 0.949939 
0.00137626 0.384103 0.923289 
0.00028959 0.468541 0.883442 
-0.000682142 0.565023 0.825075 
-0.00141861 0.670581 0.741835 
-0.00179706 0.778823 0.627242 
-0.00173315 0.878894 0.477015 
-0.00123031 0.956225 0.292631 
-0.000409166 0.996472 0.0839213 
0.000511526 0.991242 -0.132054 
0.00128164 0.941811 -0.336141 
0.00170057 0.858324 -0.513105 
0.00167337 0.755389 -0.655274 
0.001218 0.646898 -0.762575 
0.000429776 0.542797 -0.839864 
-0.000567075 0.44873 -0.893667 
-0.00165642 0.367128 -0.930169 
-0.00274806 0.29825 -0.954484 
-0.00378206 0.241105 -0.970492 
-0.00472562 0.194227 -0.980945 
-0.00556478 0.156082 -0.987728 
-0.00629606 0.125202 -0.992111 
-0.00692544 0.100275 -0.994936 
-0.00746 0.0802032 -0.996751 
-0.00791122 0.0640504 -0.997915 
-0.00828866 0.0510598 -0.998661 
-0.00859921 0.0406056 -0.999138 
-0.00885056 0.0321737 -0.999443 
-0.00905317 0.0253504 -0.999638 
-0.00921311 0.0198009 -0.999761 
-0.00933414 0.015248 -0.99984 
-0.00941754 0.0114618 -0.99989 
-0.00946424 0.00825178 -0.999921 
-0.0094731 0.00545813 -0.99994 
-0.00943598 0.00294863 -0.999951 
-0.0093287 0.000612499 -0.999956 
-0.00913805 -0.0016398 -0.999957 
-0.00899507 -0.0038723 -0.999952 
-0.0089131 -0.00605852 -0.999942 
-0.00907463 -0.00819453 -0.999925 
-0.00838033 -0.0103263 -0.999912 
-0.00873345 -0.0124726 -0.999884 
-0.00803647 -0.0147622 -0.999859 
-0.00774783 -0.016273 -0.999838 
-0.00721925 -0.017167 -0.999827 
-0.00622866 -0.0159963 -0.999853 
-0.0032684 -0.0112769 -0.999931 
0.000120752 -0.000118458 -1 
0.000140992 -0.000459084 1 
0.0045946 -0.0119182 0.999918 
0.00824152 -0.0165957 0.999828 
0.00976701 -0.0168773 0.99981 
0.0109717 -0.0157046 0.999816 
0.0116934 -0.0141471 0.999832 
0.0121071 -0.0120589 0.999854 
0.0124547 -0.00990473 0.999873 
0.0127364 -0.00790178 0.999888 
0.0128965 -0.00594667 0.999899 
0.0130104 -0.00396736 0.999907 
0.0131006 -0.00192815 0.999912 
0.0131636 0.000198839 0.999913 
0.0131916 0.00245705 0.99991 
0.0131824 0.00490851 0.999901 
0.0131347 0.00763899 0.999885 
0.0130457 0.0107652 0.999857 
0.012912 0.0144363 0.999812 
0.0127304 0.0188334 0.999742 
0.0124939 0.0241716 0.99963 
0.0121938 0.0307176 0.999454 
0.0118246 0.0388042 0.999177 
0.0113802 0.0488267 0.998742 
0.0108482 0.0612557 0.998063 
0.0102153 0.0766938 0.997002 
0.00947165 0.0958943 0.995346 
0.00860805 0.119745 0.992767 
0.00761671 0.149281 0.988766 
0.00649531 0.185723 0.982581 
0.00525145 0.230478 0.973063 
0.00390673 0.285107 0.958488 
0.00250427 0.351126 0.936325 
0.00111538 0.42962 0.903009 
-0.000157817 0.52061 0.853795 
-0.00118977 0.622162 0.782887 
-0.00185315 0.729709 0.683755 
-0.00204183 0.834758 0.550613 
-0.00171538 0.924331 0.381588 
-0.000951666 0.983214 0.182452 
4.48385e-05 0.999473 -0.0324578 
0.00100225 0.969752 -0.244092 
0.00166528 0.900544 -0.434761 
0.00186534 0.805057 -0.593194 
0.00155501 0.698026 -0.716071 
0.000793974 0.59137 -0.8064 
-0.000301139 0.492513 -0.870305 
-0.00160051 0.405133 -0.914256 
-0.00298461 0.330428 -0.943826 
-0.00436047 0.267934 -0.963428 
-0.00566667 0.216336 -0.976302 
-0.00686666 0.174145 -0.984696 
-0.00794136 0.139894 -0.990135 
-0.0088855 0.112193 -0.993647 
-0.00970653 0.0898324 -0.99591 
-0.0104094 0.0718425 -0.997362 
-0.0110072 0.05735 -0.998293 
-0.0115106 0.0456834 -0.99889 
-0.0119282 0.0362823 -0.99927 
-0.0122695 0.0286814 -0.999513 
-0.0125447 0.0225087 -0.999668 
-0.0127599 0.0174654 -0.999766 
-0.0129195 0.0132981 -0.999828 
-0.0130278 0.00979961 -0.999867 
-0.0130867 0.00679552 -0.999891 
-0.0131011 0.00414579 -0.999906 
-0.0130715 0.00174026 -0.999913 
-0.0129898 -0.000504699 -0.999916 
-0.0128638 -0.00264684 -0.999914 
-0.0127068 -0.00472944 -0.999908 
-0.0126102 -0.00674667 -0.999898 
-0.012685 -0.00872626 -0.999881 
-0.0117781 -0.0106019 -0.999874 
-0.0123537 -0.0120837 -0.999851 
-0.0112435 -0.0138111 -0.999841 
-0.0108132 -0.0153656 -0.999823 
-0.00964286 -0.0165163 -0.999817 
-0.00817179 -0.0163888 -0.999832 
-0.004568 -0.0118939 -0.999919 
-0.000142504 -0.000456712 -1 
8.24918e-05 -0.000506604 1 
0.00434297 -0.0119674 0.999919 
0.007038 -0.0163094 0.999842 
0.00913859 -0.017187 0.999811 
0.0100696 -0.0161105 0.99982 
0.0109743 -0.0149234 0.999828 
0.0118303 -0.0132016 0.999843 
0.0123142 -0.010988 0.999864 
0.0125182 -0.00893386 0.999882 
0.0127182 -0.00696451 0.999895 
0.0128989 -0.00501753 0.999904 
0.0130472 -0.00303077 0.99991 
0.0131539 -0.000967041 0.999913 
0.0132192 0.00121701 0.999912 
0.0132427 0.00357419 0.999906 
0.0132197 0.00617247 0.999894 
0.0131478 0.00910561 0.999872 
0.0130256 0.012502 0.999837 
0.0128496 0.0165272 0.999781 
0.0126154 0.021379 0.999692 
0.0123201 0.0272927 0.999552 
0.0119574 0.0345629 0.999331 
0.0115152 0.0435563 0.998985 
0.0109858 0.0547024 0.998442 
0.0103663 0.0685164 0.997596 
0.00964748 0.0856705 0.996277 
0.00881676 0.106988 0.994221 
0.00786924 0.133417 0.991029 
0.00680858 0.166064 0.986091 
0.00564617 0.206223 0.978489 
0.00440347 0.255354 0.966838 
0.00311495 0.315008 0.949084 
0.00183488 0.386572 0.922258 
0.000641014 0.47075 0.882266 
-0.000371602 0.566823 0.82384 
-0.00111003 0.671528 0.740978 
-0.00150248 0.778857 0.6272 
-0.00150008 0.878424 0.477879 
-0.00111626 0.955751 0.294175 
-0.000462537 0.996294 0.0860118 
0.00027678 0.991578 -0.129512 
0.000902153 0.942861 -0.333184 
0.0012471 0.86024 -0.509888 
0.00121275 0.758162 -0.652066 
0.00078643 0.650424 -0.759571 
2.13913e-05 0.546939 -0.837173 
-0.00100157 0.453209 -0.891404 
-0.00218983 0.371591 -0.928394 
-0.00345151 0.302509 -0.95314 
-0.00471584 0.245036 -0.969502 
-0.00593049 0.197727 -0.980239 
-0.00705786 0.159131 -0.987232 
-0.00808021 0.127839 -0.991762 
-0.00899243 0.102528 -0.994689 
-0.00979083 0.0820881 -0.996577 
-0.0104862 0.0656669 -0.997787 
-0.0110826 0.0523961 -0.998565 
-0.0115872 0.0417063 -0.999063 
-0.0120099 0.0330803 -0.999381 
-0.0123573 0.0260849 -0.999583 
-0.0126335 0.0203847 -0.999712 
-0.0128474 0.0157023 -0.999794 
-0.0130019 0.0118096 -0.999846 
-0.0131018 0.00850778 -0.999878 
-0.013148 0.00564182 -0.999898 
-0.0131459 0.00308751 -0.999909 
-0.013106 0.000754653 -0.999914 
-0.013034 -0.00142499 -0.999914 
-0.0129224 -0.00351522 -0.99991 
-0.0127402 -0.00556939 -0.999903 
-0.0125014 -0.00764953 -0.999893 
-0.0121739 -0.00992757 -0.999877 
-0.0114912 -0.0121984 -0.99986 
-0.0114718 -0.0141294 -0.999834 
-0.0101454 -0.0155337 -0.999828 
-0.0089293 -0.0166353 -0.999822 
-0.0069663 -0.0161713 -0.999845 
-0.00422882 -0.0117868 -0.999922 
-7.33267e-05 -0.000505936 -1 
0.000101561 -0.000515694 1 
0.00360652 -0.0118218 0.999924 
0.00629278 -0.0166923 0.999841 
0.00831516 -0.0168174 0.999824 
0.00935245 -0.0156654 0.999834 
0.010471 -0.0141394 0.999845 
0.0113075 -0.012261 0.999861 
0.0115233 -0.0102145 0.999881 
0.0117595 -0.0081801 0.999897 
0.0119784 -0.00621895 0.999909 
0.0121791 -0.00425801 0.999917 
0.0123376 -0.00224274 0.999921 
0.012447 -0.000127097 0.999923 
0.0125102 0.00214058 0.999919 
0.0125247 0.00461718 0.999911 
0.0124847 0.00737633 0.999895 
0.0123911 0.0105196 0.999868 
0.0122443 0.0141898 0.999824 
0.0120395 0.0185695 0.999755 
0.0117738 0.0238726 0.999646 
0.0114463 0.0303514 0.999474 
0.0110485 0.0383293 0.999204 
0.0105682 0.0482066 0.998781 
0.0100036 0.0604405 0.998122 
0.00935597 0.0755898 0.997095 
0.00861362 0.0943989 0.995497 
0.00776848 0.117745 0.993013 
0.0068249 0.146624 0.989169 
0.00579405 0.182213 0.983242 
0.00469379 0.225861 0.974148 
0.00355122 0.279059 0.960267 
0.00240459 0.343353 0.939203 
0.00130964 0.419946 0.907548 
0.000337326 0.509109 0.860702 
-0.000437075 0.609286 0.792951 
-0.000952548 0.715749 0.698357 
-0.00117188 0.821198 0.570642 
-0.00108098 0.913387 0.40709 
-0.000725616 0.977173 0.212443 
-0.000216493 1 -0.00032541 
0.000301441 0.977128 -0.212653 
0.0006858 0.91366 -0.406479 
0.00082553 0.821911 -0.569616 
0.000662314 0.716449 -0.697639 
0.000197522 0.60975 -0.792594 
-0.000527579 0.509932 -0.860215 
-0.0014543 0.421 -0.907059 
-0.00251105 0.344414 -0.938815 
-0.00362693 0.280068 -0.959973 
-0.00474793 0.226725 -0.973947 
-0.00582963 0.182896 -0.983115 
-0.00683986 0.147208 -0.989082 
-0.00776536 0.118292 -0.992948 
-0.00859892 0.0948841 -0.995451 
-0.0093308 0.0759665 -0.997067 
-0.00998185 0.0608168 -0.998099 
-0.0105399 0.0484812 -0.998768 
-0.0110136 0.0385575 -0.999196 
-0.0114132 0.0305346 -0.999469 
-0.0117383 0.0240135 -0.999643 
-0.0119963 0.0186607 -0.999754 
-0.0121915 0.0142678 -0.999824 
-0.0123312 0.0105758 -0.999868 
-0.0124143 0.00741865 -0.999895 
-0.0124444 0.00465264 -0.999912 
-0.0124269 0.00216971 -0.99992 
-0.0123698 -0.000102011 -0.999923 
-0.0122701 -0.00222968 -0.999922 
-0.0121145 -0.00427767 -0.999917 
-0.0118897 -0.00630449 -0.999909 
-0.0116163 -0.00838488 -0.999897 
-0.0111824 -0.0104504 -0.999883 
-0.0105188 -0.0127045 -0.999864 
-0.0104696 -0.0142945 -0.999843 
-0.00929182 -0.0155953 -0.999835 
-0.00797299 -0.0165258 -0.999832 
-0.00606277 -0.0164438 -0.999846 
-0.00353108 -0.0116493 -0.999926 
-9.36809e-05 -0.000514414 -1 
9.71575e-05 -0.000562131 1 
0.00330394 -0.0119841 0.999923 
0.00545287 -0.0168153 0.999844 
0.00753561 -0.0167825 0.999831 
0.00811484 -0.0159442 0.99984 
0.00919751 -0.0145689 0.999852 
0.0101514 -0.0121683 0.999874 
0.0103754 -0.00976821 0.999898 
0.0105748 -0.00762078 0.999915 
0.010804 -0.00559964 0.999926 
0.0110191 -0.0035921 0.999933 
0.0111717 -0.00151966 0.999936 
0.0112699 0.000674473 0.999936 
0.011324 0.00304565 0.999931 
0.0113246 0.00565679 0.99992 
0.0112629 0.00858654 0.9999 
0.0111501 0.0119479 0.999866 
0.0109871 0.0159007 0.999813 
0.0107653 0.0206437 0.999729 
0.0104861 0.0264066 0.999596 
0.0101514 0.0334581 0.999389 
0.00974694 0.0421543 0.999064 
0.00926065 0.0529253 0.998556 
0.00870262 0.0662526 0.997765 
0.00807615 0.0827452 0.996538 
0.00736293 0.103221 0.994631 
0.00656033 0.128599 0.991675 
0.00568217 0.159919 0.987114 
0.00474379 0.198433 0.980103 
0.00376543 0.245548 0.969377 
0.00277303 0.30279 0.953053 
0.0018009 0.371679 0.92836 
0.000898985 0.453203 0.891407 
0.000127516 0.547086 0.837076 
-0.000456153 0.65072 0.759317 
-0.000815169 0.757672 0.652635 
-0.000929489 0.859278 0.511508 
-0.00080394 0.94186 0.336005 
-0.000496323 0.991013 0.133768 
-0.000105234 0.996788 -0.0800856 
0.000255089 0.95803 -0.286668 
0.00047938 0.882823 -0.469706 
0.000490255 0.784686 -0.619893 
0.000254485 0.67774 -0.735302 
-0.000216114 0.573054 -0.819518 
-0.000886276 0.477125 -0.878835 
-0.001709 0.39275 -0.919644 
-0.00262547 0.320759 -0.947157 
-0.00358474 0.260638 -0.96543 
-0.00454736 0.210889 -0.977499 
-0.00547331 0.170084 -0.985414 
-0.00634124 0.136925 -0.990561 
-0.0071457 0.110054 -0.9939 
-0.00787219 0.088271 -0.996065 
-0.00849959 0.0706525 -0.997465 
-0.00910235 0.0566439 -0.998353 
-0.00959023 0.0450312 -0.99894 
-0.0100139 0.0357504 -0.999311 
-0.0103681 0.028281 -0.999546 
-0.0106705 0.0220936 -0.999699 
-0.0108779 0.0170845 -0.999795 
-0.0110589 0.0129347 -0.999855 
-0.0111754 0.00940977 -0.999893 
-0.0112391 0.00637501 -0.999917 
-0.0112575 0.00369831 -0.99993 
-0.0112413 0.00128907 -0.999936 
-0.011209 -0.000921185 -0.999937 
-0.0111279 -0.00298864 -0.999934 
-0.0109656 -0.00498533 -0.999927 
-0.0107481 -0.00694819 -0.999918 
-0.0104241 -0.00888095 -0.999906 
-0.00990583 -0.0108869 -0.999892 
-0.00945674 -0.0129048 -0.999872 
-0.0092431 -0.0146973 -0.999849 
-0.00797656 -0.0160168 -0.99984 
-0.00666568 -0.0169819 -0.999834 
-0.00495322 -0.0160684 -0.999859 
-0.00298937 -0.0114008 -0.999931 
-0.000109317 -0.000559001 -1 
7.97826e-05 -0.000582386 1 
0.00282407 -0.0120627 0.999923 
0.00439761 -0.016893 0.999848 
0.00627816 -0.0170783 0.999834 
0.0066355 -0.0163613 0.999844 
0.00728848 -0.0149671 0.999861 
0.00860397 -0.0133016 0.999875 
0.00874765 -0.0111282 0.9999 
0.00881791 -0.00897846 0.999921 
0.00899766 -0.00693484 0.999935 
0.00923209 -0.00494417 0.999945 
0.00943875 -0.00292064 0.999951 
0.0095594 -0.000788674 0.999954 
0.00963637 0.00148521 0.999952 
0.00967804 0.00396366 0.999945 
0.00965553 0.00670704 0.999931 
0.00957274 0.00980854 0.999906 
0.00945069 0.0133892 0.999866 
0.00928422 0.0176232 0.999802 
0.00906387 0.0227375 0.9997 
0.00879276 0.0289646 0.999542 
0.00847452 0.0365952 0.999294 
0.00808882 0.0460171 0.998908 
0.007631 0.057688 0.998305 
0.00712104 0.0721087 0.997371 
0.00655618 0.0899462 0.995925 
0.00591487 0.112086 0.993681 
0.00520483 0.139481 0.990211 
0.00444597 0.173224 0.984872 
0.0036538 0.214636 0.976687 
0.00284702 0.265176 0.964196 
0.00204668 0.326381 0.945236 
0.00127983 0.399682 0.916653 
0.000587076 0.485724 0.874112 
1.4146e-05 0.583479 0.812128 
-0.000401256 0.689051 0.724713 
-0.000642286 0.794445 0.607335 
-0.00069768 0.890291 0.455392 
-0.000583167 0.962597 0.270936 
-0.000352025 0.997979 0.0635463 
-8.21262e-05 0.988698 -0.149923 
0.000142091 0.936595 -0.350415 
0.000246008 0.85209 -0.523395 
0.000178364 0.749431 -0.662082 
-7.57159e-05 0.642169 -0.766563 
-0.000500605 0.540009 -0.841659 
-0.00107022 0.447941 -0.894062 
-0.00174806 0.367815 -0.929897 
-0.00249084 0.299988 -0.95394 
-0.00326876 0.243626 -0.969864 
-0.00404935 0.197003 -0.980394 
-0.00479805 0.158811 -0.987297 
-0.00550902 0.127857 -0.991777 
-0.00617839 0.102749 -0.994688 
-0.00677879 0.0823242 -0.996583 
-0.00727883 0.0657655 -0.997809 
-0.00786387 0.052847 -0.998572 
-0.00825205 0.0415929 -0.999101 
-0.00857627 0.0331219 -0.999415 
-0.00894236 0.0258847 -0.999625 
-0.00913602 0.0201659 -0.999755 
-0.00930821 0.0154542 -0.999837 
-0.00947672 0.0115483 -0.999888 
-0.0095539 0.00816115 -0.999921 
-0.00958389 0.00524229 -0.99994 
-0.00957465 0.0026735 -0.999951 
-0.00957055 0.000329176 -0.999954 
-0.00955604 -0.00180447 -0.999953 
-0.00949436 -0.00381197 -0.999948 
-0.00930589 -0.00576283 -0.99994 
-0.00902791 -0.00768628 -0.99993 
-0.00860506 -0.00972145 -0.999916 
-0.00795366 -0.0120241 -0.999896 
-0.00816815 -0.0142326 -0.999865 
-0.00741729 -0.0155799 -0.999851 
-0.00613906 -0.0165435 -0.999844 
-0.00496742 -0.0173913 -0.999836 
-0.00271562 -0.0120143 -0.999924 
-6.02355e-05 -0.000585961 -1 
6.25661e-05 -0.000596824 1 
0.00225404 -0.0121098 0.999924 
0.00343266 -0.0170651 0.999848 
0.00498275 -0.0172112 0.999839 
0.00545901 -0.0162528 0.999853 
0.00574558 -0.0147211 0.999875 
0.0070341 -0.0129196 0.999892 
0.00706666 -0.0106108 0.999919 
0.00719084 -0.00841791 0.999939 
0.00739237 -0.00636635 0.999952 
0.00763837 -0.0043548 0.999961 
0.00782311 -0.00227133 0.999967 
0.00789775 -6.56438e-05 0.999969 
0.00796892 0.00229142 0.999966 
0.00799393 0.00486181 0.999956 
0.00795604 0.00773569 0.999938 
0.00786577 0.0110074 0.999908 
0.00774806 0.0147871 0.999861 
0.00759637 0.0193121 0.999785 
0.00738913 0.0247972 0.999665 
0.00714206 0.0314849 0.999479 
0.00685256 0.0396868 0.999189 
0.00650096 0.0498273 0.998737 
0.00609396 0.0623637 0.998035 
0.00565186 0.0778273 0.996951 
0.00516171 0.0969585 0.995275 
0.00460782 0.120694 0.992679 
0.00400853 0.149964 0.988683 
0.00338406 0.18588 0.982567 
0.00274713 0.229786 0.973237 
0.00211326 0.283061 0.9591 
0.0014977 0.347092 0.93783 
0.00091997 0.423081 0.906091 
0.000409494 0.511172 0.859478 
-5.3883e-06 0.609917 0.792465 
-0.000304633 0.715169 0.698951 
-0.00047765 0.818955 0.573857 
-0.000513696 0.911041 0.412315 
-0.000428781 0.975893 0.218251 
-0.000266979 0.999991 0.00422796 
-9.06325e-05 0.977654 -0.210221 
3.65425e-05 0.913996 -0.405723 
6.2643e-05 0.821814 -0.569756 
-4.3259e-05 0.715944 -0.698157 
-0.000283861 0.609318 -0.792926 
-0.000645402 0.510065 -0.860135 
-0.00111015 0.42171 -0.90673 
-0.00164971 0.345473 -0.938427 
-0.00223585 0.281451 -0.959573 
-0.00285355 0.228444 -0.973553 
-0.00347245 0.184446 -0.982837 
-0.00406465 0.148495 -0.988905 
-0.00463954 0.119528 -0.99282 
-0.00518907 0.0958677 -0.995381 
-0.00567437 0.0763949 -0.997061 
-0.00604839 0.0605453 -0.998147 
-0.00671731 0.0486769 -0.998792 
-0.0067893 0.038356 -0.999241 
-0.00726923 0.0298346 -0.999528 
-0.00742244 0.0233558 -0.9997 
-0.00758512 0.0180301 -0.999809 
-0.00770916 0.0136499 -0.999877 
-0.00788928 0.0100035 -0.999919 
-0.00789857 0.00667861 -0.999947 
-0.00785063 0.00393459 -0.999961 
-0.00785898 0.00143277 -0.999968 
-0.00782078 -0.000812683 -0.999969 
-0.00780607 -0.00281448 -0.999966 
-0.00773552 -0.00464218 -0.999959 
-0.00749769 -0.00643313 -0.999951 
-0.00723943 -0.00831903 -0.999939 
-0.00684854 -0.0104074 -0.999922 
-0.00626413 -0.0127121 -0.9999 
-0.00668781 -0.0145085 -0.999872 