# vtk DataFile Version 3.0 
Exported using Morpho https://github.com/Morpho-lang/morpho 
ASCII 
DATASET UNSTRUCTURED_GRID 

POINTS 2054 float 
-8.48528 -2.82843 0 
-8.20636 -2.82843 0 
-7.94054 -2.82843 0 
-7.6904 -2.82843 0 
-7.45357 -2.82843 0 
-7.22694 -2.82843 0 
-7.00705 -2.82843 0 
-6.79111 -2.82843 0 
-6.57731 -2.82843 0 
-6.36453 -2.82843 0 
-6.15219 -2.82843 0 
-5.94 -2.82843 0 
-5.72786 -2.82843 0 
-5.51573 -2.82843 0 
-5.3036 -2.82843 0 
-5.09147 -2.82843 0 
-4.87933 -2.82843 0 
-4.6672 -2.82843 0 
-4.45507 -2.82843 0 
-4.24294 -2.82843 0 
-4.03081 -2.82843 0 
-3.81867 -2.82843 0 
-3.60654 -2.82843 0 
-3.39441 -2.82843 0 
-3.18228 -2.82843 0 
-2.97015 -2.82843 0 
-2.75801 -2.82843 0 
-2.54588 -2.82843 0 
-2.33375 -2.82843 0 
-2.12162 -2.82843 0 
-1.90949 -2.82843 0 
-1.69735 -2.82843 0 
-1.48522 -2.82843 0 
-1.27309 -2.82843 0 
-1.06096 -2.82843 0 
-0.848825 -2.82843 0 
-0.636693 -2.82843 0 
-0.424561 -2.82843 0 
-0.212429 -2.82843 0 
-0.000296761 -2.82843 0 
0.211835 -2.82843 0 
0.423967 -2.82843 0 
0.636099 -2.82843 0 
0.848231 -2.82843 0 
1.06036 -2.82843 0 
1.2725 -2.82843 0 
1.48463 -2.82843 0 
1.69676 -2.82843 0 
1.90889 -2.82843 0 
2.12102 -2.82843 0 
2.33316 -2.82843 0 
2.54529 -2.82843 0 
2.75742 -2.82843 0 
2.96955 -2.82843 0 
3.18168 -2.82843 0 
3.39382 -2.82843 0 
3.60595 -2.82843 0 
3.81808 -2.82843 0 
4.03021 -2.82843 0 
4.24234 -2.82843 0 
4.45448 -2.82843 0 
4.66661 -2.82843 0 
4.87874 -2.82843 0 
5.09087 -2.82843 0 
5.303 -2.82843 0 
5.51514 -2.82843 0 
5.72727 -2.82843 0 
5.93941 -2.82843 0 
6.15159 -2.82843 0 
6.36393 -2.82843 0 
6.57672 -2.82843 0 
6.79055 -2.82843 0 
7.00652 -2.82843 0 
7.22647 -2.82843 0 
7.45313 -2.82843 0 
7.69005 -2.82843 0 
7.9403 -2.82843 0 
8.20621 -2.82843 0 
8.48528 -2.82843 0 
-8.48528 -2.5495 0 
-8.30526 -2.64845 0 
-8.07062 -2.59995 0 
-7.83904 -2.59637 0 
-7.59595 -2.59733 0 
-7.36578 -2.59177 0 
-7.13796 -2.5933 0 
-6.90908 -2.59428 0 
-6.68421 -2.5916 0 
-6.46568 -2.58832 0 
-6.24926 -2.58859 0 
-6.03358 -2.58941 0 
-5.81848 -2.59013 0 
-5.60402 -2.59075 0 
-5.39005 -2.59135 0 
-5.17642 -2.59186 0 
-4.96311 -2.59223 0 
-4.75009 -2.59242 0 
-4.53736 -2.59244 0 
-4.32497 -2.59236 0 
-4.1128 -2.59242 0 
-3.90059 -2.59259 0 
-3.68835 -2.5926 0 
-3.47627 -2.59248 0 
-3.26428 -2.59251 0 
-3.05216 -2.59271 0 
-2.83986 -2.59283 0 
-2.62755 -2.59274 0 
-2.41539 -2.59253 0 
-2.20336 -2.59238 0 
-1.99135 -2.59238 0 
-1.77924 -2.59246 0 
-1.56704 -2.59244 0 
-1.35495 -2.59215 0 
-1.14319 -2.59183 0 
-0.931581 -2.59195 0 
-0.719663 -2.59256 0 
-0.507197 -2.59324 0 
-0.294425 -2.59354 0 
-0.0817689 -2.59344 0 
0.130587 -2.59325 0 
0.342804 -2.59322 0 
0.555051 -2.59322 0 
0.767233 -2.59303 0 
0.97919 -2.59278 0 
1.19107 -2.59278 0 
1.40311 -2.59289 0 
1.61524 -2.59286 0 
1.82732 -2.59279 0 
2.03943 -2.59281 0 
2.25163 -2.5928 0 
2.46381 -2.59266 0 
2.67591 -2.59254 0 
2.88801 -2.59237 0 
3.10001 -2.59226 0 
3.31203 -2.59216 0 
3.52402 -2.59207 0 
3.73601 -2.59208 0 
3.94815 -2.59221 0 
4.16052 -2.5923 0 
4.37309 -2.59232 0 
4.58593 -2.59227 0 
4.79921 -2.5922 0 
5.01319 -2.59212 0 
5.22833 -2.5921 0 
5.44534 -2.59239 0 
5.6657 -2.59346 0 
5.89185 -2.59569 0 
6.12685 -2.59429 0 
6.36853 -2.59189 0 
6.6108 -2.57787 0 
6.84491 -2.61411 0 
7.08804 -2.58476 0 
7.34858 -2.60369 0 
7.58803 -2.59327 0 
7.83059 -2.59326 0 
8.06387 -2.59199 0 
8.30038 -2.64348 0 
8.48528 -2.54936 0 
-8.48528 -2.28369 0 
-8.25701 -2.4138 0 
-8.01078 -2.35334 0 
-7.73666 -2.37963 0 
-7.49744 -2.35565 0 
-7.26898 -2.35831 0 
-7.03324 -2.36676 0 
-6.7997 -2.36275 0 
-6.5773 -2.35166 0 
-6.35808 -2.3495 0 
-6.14038 -2.35058 0 
-5.92336 -2.35185 0 
-5.70723 -2.35272 0 
-5.49199 -2.35362 0 
-5.27734 -2.35447 0 
-5.0632 -2.35505 0 
-4.84958 -2.35534 0 
-4.63641 -2.35533 0 
-4.42363 -2.35504 0 
-4.21126 -2.35485 0 
-3.99909 -2.35513 0 
-3.78684 -2.3554 0 
-3.57461 -2.35516 0 
-3.36263 -2.35498 0 
-3.15066 -2.35537 0 
-2.93843 -2.35586 0 
-2.72604 -2.35589 0 
-2.51374 -2.35551 0 
-2.30162 -2.35509 0 
-2.08964 -2.35496 0 
-1.87761 -2.35518 0 
-1.66544 -2.3554 0 
-1.45322 -2.35518 0 
-1.2412 -2.35438 0 
-1.02967 -2.35407 0 
-0.818162 -2.35505 0 
-0.606054 -2.35676 0 
-0.393243 -2.3579 0 
-0.180256 -2.35789 0 
0.0323765 -2.35727 0 
0.244686 -2.35692 0 
0.456926 -2.35692 0 
0.669206 -2.35667 0 
0.881318 -2.35598 0 
1.09315 -2.35559 0 
1.305 -2.35583 0 
1.51709 -2.35595 0 
1.72919 -2.35571 0 
1.9412 -2.35566 0 
2.15334 -2.3558 0 
2.36559 -2.3556 0 
2.57772 -2.35522 0 
2.78976 -2.35507 0 
3.0019 -2.35461 0 
3.21373 -2.35451 0 
3.42571 -2.35439 0 
3.63769 -2.35431 0 
3.84965 -2.35453 0 
4.06183 -2.35491 0 
4.27435 -2.35507 0 
4.48707 -2.35507 0 
4.70017 -2.35506 0 
4.91376 -2.35498 0 
5.12819 -2.35502 0 
5.34378 -2.35528 0 
5.56106 -2.35662 0 
5.78097 -2.35971 0 
6.00401 -2.36251 0 
6.2308 -2.3624 0 
6.45748 -2.35551 0 
6.68075 -2.33423 0 
6.88797 -2.39744 0 
7.05313 -2.27289 0 
7.24377 -2.40237 0 
7.48542 -2.36016 0 
7.73055 -2.36599 0 
7.99177 -2.33552 0 
8.24864 -2.40698 0 
8.48528 -2.28345 0 
-8.48528 -2.03355 0 
-8.25312 -2.18214 0 
-8.03669 -2.07913 0 
-7.83956 -2.18231 0 
-7.6106 -2.12852 0 
-7.38852 -2.10959 0 
-7.16268 -2.14097 0 
-6.9229 -2.1435 0 
-6.70119 -2.12055 0 
-6.48111 -2.11285 0 
-6.26282 -2.11284 0 
-6.045 -2.1151 0 
-5.82775 -2.11658 0 
-5.61153 -2.11776 0 
-5.3962 -2.1192 0 
-5.18144 -2.1203 0 
-4.96732 -2.12084 0 
-4.75387 -2.12105 0 
-4.54086 -2.12091 0 
-4.32822 -2.12045 0 
-4.11596 -2.12045 0 
-3.90382 -2.12107 0 
-3.69156 -2.12116 0 
-3.47938 -2.12058 0 
-3.26746 -2.12068 0 
-3.05542 -2.12154 0 
-2.84307 -2.12198 0 
-2.63064 -2.12162 0 
-2.41836 -2.12087 0 
-2.20626 -2.12031 0 
-1.99426 -2.12034 0 
-1.78217 -2.1207 0 
-1.56989 -2.12074 0 
-1.35755 -2.11993 0 
-1.14542 -2.11838 0 
-0.934012 -2.11859 0 
-0.722404 -2.12089 0 
-0.509943 -2.12344 0 
-0.296911 -2.12431 0 
-0.0840921 -2.12359 0 
0.128295 -2.12281 0 
0.340414 -2.12274 0 
0.552564 -2.12288 0 
0.76478 -2.12226 0 
0.976792 -2.1213 0 
1.18855 -2.12128 0 
1.40042 -2.12188 0 
1.61256 -2.12177 0 
1.82458 -2.12141 0 
2.03655 -2.12164 0 
2.24875 -2.12174 0 
2.46099 -2.12114 0 
2.67302 -2.12065 0 
2.88504 -2.12054 0 
3.09728 -2.1194 0 
3.30873 -2.11968 0 
3.52086 -2.1195 0 
3.7329 -2.11938 0 
3.94484 -2.11986 0 
4.15715 -2.12044 0 
4.36983 -2.12035 0 
4.58282 -2.1204 0 
4.79606 -2.12017 0 
5.01004 -2.12012 0 
5.22483 -2.12002 0 
5.44073 -2.12051 0 
5.6582 -2.123 0 
5.8782 -2.12696 0 
6.10217 -2.12971 0 
6.33095 -2.12707 0 
6.567 -2.11601 0 
6.82301 -2.12303 0 
7.06572 -2.04567 0 
7.29733 -2.17484 0 
7.54632 -2.11408 0 
7.79371 -2.13741 0 
8.02274 -2.07453 0 
8.25027 -2.1738 0 
8.48528 -2.0332 0 
-8.48528 -1.79671 0 
-8.25436 -1.93882 0 
-8.01299 -1.83977 0 
-7.78596 -1.953 0 
-7.5297 -1.87194 0 
-7.2756 -1.88722 0 
-7.05707 -1.93544 0 
-6.84369 -1.89677 0 
-6.62219 -1.88079 0 
-6.40169 -1.87606 0 
-6.18206 -1.87854 0 
-5.96274 -1.881 0 
-5.74458 -1.88208 0 
-5.52796 -1.88344 0 
-5.31232 -1.88506 0 
-5.09736 -1.88569 0 
-4.88338 -1.88564 0 
-4.67019 -1.88555 0 
-4.45737 -1.88507 0 
-4.24485 -1.88447 0 
-4.03271 -1.88482 0 
-3.82061 -1.88562 0 
-3.60832 -1.88529 0 
-3.39617 -1.88464 0 
-3.18427 -1.88547 0 
-2.97209 -1.88672 0 
-2.7596 -1.88684 0 
-2.54714 -1.88601 0 
-2.33483 -1.88505 0 
-2.12268 -1.8846 0 
-1.91058 -1.885 0 
-1.69824 -1.88561 0 
-1.48561 -1.88547 0 
-1.27286 -1.88413 0 
-1.06032 -1.88216 0 
-0.848858 -1.8839 0 
-0.636875 -1.88781 0 
-0.424169 -1.89034 0 
-0.211518 -1.89004 0 
0.000731944 -1.88866 0 
0.21257 -1.88788 0 
0.424308 -1.88807 0 
0.636257 -1.88793 0 
0.848362 -1.88664 0 
1.06025 -1.88556 0 
1.27191 -1.88605 0 
1.48381 -1.88664 0 
1.69595 -1.886 0 
1.90782 -1.88577 0 
2.11974 -1.88637 0 
2.33202 -1.88609 0 
2.54419 -1.88502 0 
2.75607 -1.88472 0 
2.96812 -1.88462 0 
3.18055 -1.88217 0 
3.39117 -1.88415 0 
3.60398 -1.8838 0 
3.81618 -1.88366 0 
4.02827 -1.88469 0 
4.24071 -1.88523 0 
4.4544 -1.88509 0 
4.66716 -1.88476 0 
4.88099 -1.88493 0 
5.09545 -1.88466 0 
5.31057 -1.88453 0 
5.52653 -1.88564 0 
5.7436 -1.88981 0 
5.96352 -1.89563 0 
6.18733 -1.89813 0 
6.41543 -1.89522 0 
6.65059 -1.89622 0 
6.87542 -1.86913 0 
7.11122 -1.81621 0 
7.31223 -1.94975 0 
7.53264 -1.87683 0 
7.77077 -1.89068 0 
8.01717 -1.8297 0 
8.25014 -1.93148 0 
8.48528 -1.79628 0 
-8.48528 -1.57009 0 
-8.24868 -1.70836 0 
-8.015 -1.61096 0 
-7.76734 -1.73071 0 
-7.54593 -1.61782 0 
-7.32306 -1.66278 0 
-7.05152 -1.7082 0 
-6.79786 -1.66675 0 
-6.56099 -1.64764 0 
-6.33267 -1.64541 0 
-6.10856 -1.64921 0 
-5.88638 -1.65073 0 
-5.66697 -1.65153 0 
-5.44986 -1.65353 0 
-5.23379 -1.65525 0 
-5.01882 -1.6551 0 
-4.80519 -1.6548 0 
-4.59235 -1.65478 0 
-4.37976 -1.65422 0 
-4.16737 -1.65386 0 
-3.95537 -1.65471 0 
-3.74326 -1.6554 0 
-3.5309 -1.65455 0 
-3.31876 -1.65426 0 
-3.10682 -1.65593 0 
-2.89443 -1.65705 0 
-2.68177 -1.65644 0 
-2.46924 -1.65516 0 
-2.25682 -1.65408 0 
-2.04447 -1.65386 0 
-1.83202 -1.65455 0 
-1.61911 -1.65506 0 
-1.40572 -1.65429 0 
-1.19212 -1.65207 0 
-0.97885 -1.64982 0 
-0.767325 -1.65372 0 
-0.555434 -1.6581 0 
-0.343588 -1.65935 0 
-0.132061 -1.65818 0 
0.0792288 -1.65687 0 
0.290417 -1.65682 0 
0.501823 -1.6575 0 
0.713729 -1.65709 0 
0.925861 -1.65545 0 
1.13768 -1.65488 0 
1.34929 -1.65604 0 
1.56128 -1.6563 0 
1.77337 -1.65516 0 
1.985 -1.65561 0 
2.19698 -1.65642 0 
2.40939 -1.65525 0 
2.62143 -1.65394 0 
2.83323 -1.65414 0 
3.04553 -1.65355 0 
3.25842 -1.64868 0 
3.46746 -1.65522 0 
3.68272 -1.65284 0 
3.89574 -1.65288 0 
4.10731 -1.65378 0 
4.32287 -1.65565 0 
4.53627 -1.65249 0 
4.74932 -1.65397 0 
4.96428 -1.65355 0 
5.17935 -1.65257 0 
5.3944 -1.65202 0 
5.60927 -1.65354 0 
5.82513 -1.66019 0 
6.04295 -1.66711 0 
6.26383 -1.66843 0 
6.48537 -1.66776 0 
6.70098 -1.65646 0 
6.91299 -1.6206 0 
7.11709 -1.6046 0 
7.3526 -1.69716 0 
7.60698 -1.65764 0 
7.8325 -1.64214 0 
8.05985 -1.58842 0 
8.2608 -1.69223 0 
8.48528 -1.56961 0 
-8.48528 -1.35019 0 
-8.24958 -1.48044 0 
-8.0219 -1.3751 0 
-7.79713 -1.50391 0 
-7.58956 -1.39834 0 
-7.36199 -1.38754 0 
-7.16079 -1.49923 0 
-6.93764 -1.46284 0 
[...]
POINT_DATA 2054 
VECTORS vectors float
0.0155774 -0.0214855 0.999648 
0.0193717 -0.0185438 0.999646 
0.0199674 -0.0216681 0.999574 
0.0183703 -0.0202167 0.999633 
0.017883 -0.0170883 0.999699 
0.0176187 -0.0144912 0.999745 
0.0175019 -0.012543 0.999773 
0.017373 -0.0107648 0.999796 
0.0172522 -0.00884725 0.999817 
0.0171896 -0.00677087 0.999834 
0.0171783 -0.00459409 0.999847 
0.017185 -0.00238599 0.999855 
0.0171904 -0.000178876 0.999857 
0.0171837 0.00206202 0.999855 
0.0171587 0.00442014 0.999848 
0.0171114 0.0070056 0.999834 
0.0170384 0.0099459 0.99981 
0.0169357 0.0133878 0.999772 
0.016798 0.0175057 0.999711 
0.0166197 0.0225098 0.999613 
0.0163933 0.0286547 0.99946 
0.0161063 0.0362512 0.999218 
0.0157436 0.0456779 0.998837 
0.0152892 0.0574015 0.998239 
0.0147235 0.0719963 0.997301 
0.0140192 0.0901658 0.995833 
0.0131431 0.112768 0.993539 
0.0120577 0.140833 0.989964 
0.0107214 0.175594 0.984409 
0.00908957 0.218477 0.975804 
0.00712223 0.271071 0.962537 
0.00480207 0.334993 0.942212 
0.00216814 0.411571 0.911378 
-0.00063739 0.501267 0.865295 
-0.00332115 0.602719 0.797949 
-0.00542022 0.711493 0.702673 
-0.00636842 0.818971 0.573798 
-0.00570679 0.912341 0.409387 
-0.00339649 0.976781 0.214199 
-2.09317e-05 0.999996 0.00084735 
0.00336045 0.977133 -0.21259 
0.00568563 0.912961 -0.408003 
0.00636431 0.819738 -0.572702 
0.00542852 0.712296 -0.701859 
0.00333538 0.603487 -0.797368 
0.000652921 0.501953 -0.864897 
-0.00215327 0.412163 -0.911111 
-0.00478873 0.335493 -0.942034 
-0.00711112 0.271489 -0.962419 
-0.0090809 0.218821 -0.975727 
-0.0107139 0.175873 -0.984359 
-0.0120499 0.14106 -0.989932 
-0.0131347 0.112952 -0.993518 
-0.0140111 0.0903161 -0.995819 
-0.014717 0.0721183 -0.997292 
-0.0152837 0.0574999 -0.998233 
-0.0157374 0.0457584 -0.998833 
-0.0161004 0.0363184 -0.999215 
-0.0163895 0.028712 -0.999458 
-0.0166177 0.0225588 -0.999612 
-0.0167957 0.0175482 -0.99971 
-0.0169323 0.0134259 -0.999771 
-0.0170349 0.00998064 -0.99981 
-0.0171091 0.00703726 -0.999834 
-0.0171603 0.00444874 -0.999848 
-0.0171956 0.00209234 -0.999855 
-0.0172256 -0.000138257 -0.999857 
-0.0172551 -0.00233642 -0.999853 
-0.0172663 -0.0045421 -0.999846 
-0.0173153 -0.00674073 -0.999831 
-0.0172528 -0.00868982 -0.999819 
-0.0175346 -0.0106075 -0.999794 
-0.0175955 -0.0123882 -0.999773 
-0.0177309 -0.0142835 -0.999746 
-0.0179851 -0.0169279 -0.9997 
-0.0183457 -0.0200455 -0.999637 
-0.0199155 -0.0213508 -0.999582 
-0.0193046 -0.0183379 -0.999651 
-0.015541 -0.0214506 -0.999649 
0.004189 -0.0245505 0.999695 
0.0111984 -0.0194182 0.999758 
0.0112948 -0.0195808 0.999751 
0.0128451 -0.0199863 0.999725 
0.0139201 -0.0187268 0.999735 
0.0144579 -0.0161093 0.999773 
0.0148372 -0.0136566 0.999803 
0.0151127 -0.0115369 0.999826 
0.0152125 -0.00954087 0.999845 
0.0152512 -0.00752188 0.999862 
0.0153229 -0.00543663 0.999875 
0.0153992 -0.00329069 0.999883 
0.0154505 -0.00109865 0.999887 
0.0154752 0.00114275 0.999886 
0.0154716 0.00348166 0.999881 
0.0154364 0.00600874 0.999869 
0.0153665 0.00884245 0.999849 
0.0152579 0.0121234 0.999817 
0.0151058 0.0160159 0.999764 
0.0149055 0.0207145 0.999681 
0.0146528 0.0264562 0.999549 
0.0143373 0.0335359 0.999341 
0.0139443 0.0423083 0.999014 
0.0134617 0.0531983 0.9985 
0.0128782 0.0667378 0.997694 
0.0121754 0.0835938 0.996432 
0.0113293 0.104576 0.994459 
0.0103172 0.130641 0.991383 
0.00912066 0.162917 0.986605 
0.00772541 0.20274 0.979209 
0.00612527 0.251634 0.96781 
0.00433299 0.311217 0.950336 
0.00239875 0.382925 0.923783 
0.000431633 0.467495 0.884001 
-0.00138908 0.564208 0.825636 
-0.0028278 0.670053 0.74231 
-0.00361963 0.778562 0.627556 
-0.00353675 0.878811 0.47715 
-0.00252098 0.956211 0.292646 
-0.000803145 0.996465 0.0839069 
0.00113017 0.991234 -0.132058 
0.00272118 0.941786 -0.336185 
0.00354475 0.858211 -0.513279 
0.00343561 0.755079 -0.655625 
0.00249072 0.646312 -0.763073 
0.000953463 0.54193 -0.840428 
-0.000910388 0.447651 -0.894214 
-0.00287303 0.365939 -0.930641 
-0.00477375 0.297048 -0.954857 
-0.00652114 0.239956 -0.970769 
-0.00807214 0.193167 -0.98114 
-0.00941554 0.155127 -0.987857 
-0.0105614 0.124356 -0.992188 
-0.0115282 0.0995362 -0.994974 
-0.0123383 0.0795657 -0.99676 
-0.0130121 0.0635076 -0.997903 
-0.0135691 0.0506032 -0.998633 
-0.0140276 0.0402261 -0.999099 
-0.0144026 0.0318624 -0.999395 
-0.0147043 0.0250991 -0.999583 
-0.0149427 0.019602 -0.999703 
-0.0151268 0.0150942 -0.999778 
-0.0152633 0.0113457 -0.999826 
-0.0153569 0.0081651 -0.999855 
-0.0154108 0.00538939 -0.999873 
-0.0154312 0.00287897 -0.999883 
-0.0154434 0.000511481 -0.999887 
-0.0154693 -0.00181435 -0.999886 
-0.01547 -0.00415908 -0.999879 
-0.0153621 -0.00649352 -0.999869 
-0.0152575 -0.0087205 -0.999853 
-0.0153467 -0.0108716 -0.999829 
-0.0148384 -0.0129928 -0.999813 
-0.0146455 -0.0157309 -0.999776 
-0.0138897 -0.0184145 -0.999741 
-0.0127207 -0.0196408 -0.999733 
-0.0110807 -0.0193679 -0.999758 
-0.0110182 -0.0192458 -0.999763 
-0.0042267 -0.024426 -0.999697 
0.00441793 -0.0243875 0.999695 
0.00737011 -0.0198094 0.999785 
0.00898339 -0.0187908 0.999791 
0.0117365 -0.0194891 0.999748 
0.0126525 -0.0176612 0.999771 
0.0133197 -0.0150552 0.999805 
0.0138183 -0.0125819 0.999832 
0.0141305 -0.0103784 0.999853 
0.0143601 -0.0083491 0.999868 
0.0145541 -0.00633943 0.99988 
0.0147013 -0.00428861 0.999889 
0.0148107 -0.00215353 0.999894 
0.014885 6.67837e-05 0.999896 
0.0149191 0.00238116 0.999892 
0.0149098 0.004848 0.999883 
0.0148566 0.00756845 0.999867 
0.0147583 0.0106723 0.99984 
0.0146117 0.014314 0.999797 
0.0144106 0.0186762 0.999728 
0.0141472 0.0239741 0.999619 
0.0138132 0.0304739 0.999446 
0.013401 0.0385077 0.999175 
0.0129018 0.048471 0.998748 
0.0123037 0.0608347 0.998079 
0.0115923 0.0762019 0.997032 
0.0107542 0.0953269 0.995395 
0.00977802 0.119099 0.992841 
0.00865456 0.148557 0.988873 
0.00737952 0.184923 0.982732 
0.00595983 0.229611 0.973271 
0.00442099 0.284194 0.958764 
0.00281654 0.350206 0.936675 
0.00123537 0.428754 0.903427 
-0.000198106 0.51987 0.854251 
-0.00133941 0.621604 0.783334 
-0.00205425 0.729352 0.684136 
-0.00224024 0.834575 0.550886 
-0.00186671 0.924261 0.381744 
-0.00102661 0.983195 0.182514 
5.81861e-05 0.999465 -0.0324668 
0.00110093 0.969723 -0.244177 
0.00183286 0.900448 -0.43495 
0.00206895 0.804827 -0.593503 
0.00174627 0.697608 -0.71648 
0.000916181 0.590751 -0.806858 
-0.000305015 0.491726 -0.870756 
-0.00177633 0.404242 -0.914657 
-0.00335691 0.329504 -0.944155 
-0.00493345 0.26703 -0.963683 
-0.00642977 0.215486 -0.976493 
-0.00779952 0.173366 -0.984833 
-0.00902132 0.139193 -0.990231 
-0.0100926 0.111571 -0.993712 
-0.0110194 0.0892879 -0.995952 
-0.0118124 0.0713719 -0.997386 
-0.0124854 0.0569488 -0.998306 
-0.0130495 0.0453459 -0.998893 
-0.0135166 0.0360021 -0.999267 
-0.013898 0.028452 -0.999505 
-0.014204 0.0223243 -0.999656 
-0.0144429 0.0173201 -0.999752 
-0.01462 0.0131861 -0.999812 
-0.014738 0.00971454 -0.99985 
-0.0147978 0.00672822 -0.999874 
-0.0147954 0.00407853 -0.999889 
-0.0147237 0.00164133 -0.999897 
-0.0145951 -0.000675402 -0.9999 
-0.0144412 -0.00291249 -0.999898 
-0.0143207 -0.00507961 -0.999891 
-0.0142183 -0.00716264 -0.99988 
-0.0139824 -0.0091775 -0.999866 
-0.0141677 -0.0110803 -0.999845 
-0.0136652 -0.0126343 -0.999833 
-0.0134737 -0.0146299 -0.999808 
-0.012481 -0.0173072 -0.999779 
-0.0113837 -0.0190157 -0.999761 
-0.00883304 -0.0183828 -0.9998 
-0.00729132 -0.0196054 -0.99979 
-0.00432812 -0.0242641 -0.999699 
0.0038749 -0.0231884 0.999724 
0.00646872 -0.0195248 0.999797 
0.00857808 -0.0186362 0.999796 
0.0108705 -0.0192793 0.99976 
0.0125126 -0.0188579 0.999751 
0.0133966 -0.0165345 0.99978 
0.014059 -0.0139242 0.999811 
0.0145332 -0.0114357 0.999835 
0.0148451 -0.00933309 0.999853 
0.015078 -0.0073463 0.999866 
0.0152818 -0.00538866 0.999875 
0.0154517 -0.00335028 0.999882 
0.0155781 -0.00118413 0.999884 
0.015655 0.00109659 0.999883 
0.0156795 0.00350513 0.999877 
0.0156511 0.00611408 0.999865 
0.0155694 0.00903629 0.999844 
0.0154315 0.0124122 0.99981 
0.0152332 0.0164117 0.999756 
0.0149693 0.0212336 0.999669 
0.0146334 0.0271129 0.999532 
0.0142169 0.034344 0.999315 
0.0137105 0.0432936 0.998975 
0.0131053 0.0543918 0.99844 
0.0123918 0.0681544 0.997605 
0.0115571 0.085255 0.996299 
0.0105891 0.106518 0.994261 
0.00948063 0.132896 0.991092 
0.00823029 0.165495 0.986183 
0.00684492 0.205614 0.978616 
0.00534513 0.254716 0.967008 
0.0037715 0.314366 0.949301 
0.0021937 0.38596 0.922519 
0.000713813 0.470216 0.882557 
-0.000543091 0.566411 0.824127 
-0.00145131 0.671259 0.741224 
-0.00191468 0.778718 0.627371 
-0.00187944 0.878373 0.477965 
-0.00137527 0.955737 0.294199 
-0.000542641 0.996286 0.0860133 
0.00039505 0.99157 -0.129517 
0.00119183 0.942843 -0.333218 
0.00164064 0.860175 -0.509991 
0.00161713 0.757997 -0.652256 
0.0010988 0.650122 -0.759832 
0.000147629 0.546496 -0.837467 
-0.00112965 0.452654 -0.891692 
-0.00260878 0.370969 -0.928648 
-0.00416722 0.301865 -0.953348 
-0.00571039 0.244402 -0.969664 
-0.00717476 0.197124 -0.980359 
-0.00852009 0.158571 -0.987318 
-0.00972761 0.127328 -0.99182 
-0.0107947 0.10207 -0.994726 
-0.0117266 0.0816836 -0.996596 
-0.0125299 0.0653151 -0.997793 
-0.013217 0.0520952 -0.998561 
-0.0137972 0.0414527 -0.999052 
-0.0142798 0.0328695 -0.999364 
-0.0146744 0.0259123 -0.999563 
-0.01499 0.020246 -0.999689 
-0.015235 0.0155932 -0.999769 
-0.0154135 0.0117252 -0.999819 
-0.0155295 0.00844186 -0.99985 
-0.0155858 0.00558253 -0.999869 
-0.0155816 0.00300823 -0.999881 
-0.0155127 0.000610902 -0.999886 
-0.0153759 -0.0016714 -0.999887 
-0.0151787 -0.00385223 -0.999884 
-0.0149738 -0.00594116 -0.999877 
-0.0147494 -0.00803013 -0.999866 
-0.0144149 -0.0103431 -0.99985 
-0.0140476 -0.0127629 -0.999827 
-0.0134232 -0.0153002 -0.9998 
-0.0124523 -0.0179668 -0.999769 
-0.0108961 -0.0189432 -0.999767 
-0.00841657 -0.0182301 -0.999805 
-0.00629547 -0.0193645 -0.999802 
-0.00385798 -0.0231332 -0.999726 
0.00301547 -0.0226089 0.999739 
0.00592462 -0.0197513 0.999796 
0.00778482 -0.0185507 0.999804 
0.0107669 -0.0195758 0.999757 
0.011501 -0.0181936 0.999776 
0.0125337 -0.015256 0.999812 
0.0135218 -0.012787 0.999832 
0.0134987 -0.0105894 0.999859 
0.0136227 -0.00852856 0.999878 
0.0138278 -0.0065934 0.999889 
0.0140637 -0.00464926 0.999897 
0.0142467 -0.00256488 0.999902 
0.0143607 -0.000326492 0.999903 
0.0144219 0.00203813 0.9999 
0.0144314 0.00455813 0.999892 
0.0143791 0.00732366 0.999876 
0.0142673 0.0104567 0.99985 
0.0140987 0.01411 0.999808 
0.0138658 0.0184691 0.99974 
0.0135659 0.0237487 0.999632 
0.0132022 0.0302008 0.999463 
0.0127623 0.0381484 0.999197 
0.0122253 0.0479925 0.99878 
0.011592 0.0601913 0.998126 
0.0108698 0.0753045 0.997108 
0.0100404 0.094078 0.995521 
0.00908712 0.117392 0.993051 
0.00801296 0.146244 0.989223 
0.00682964 0.181811 0.983317 
0.00555444 0.225446 0.974247 
0.00421365 0.278642 0.960393 
0.00284668 0.342951 0.939356 
0.00151955 0.419585 0.907721 
0.000325116 0.508816 0.860881 
-0.000632722 0.609081 0.793112 
-0.00126941 0.715633 0.698476 
-0.00152954 0.821152 0.570705 
-0.00138727 0.913376 0.407103 
-0.000900799 0.977168 0.212435 
-0.000217446 0.999992 -0.000327103 
0.000473335 0.977121 -0.212649 
0.000987636 0.913648 -0.406495 
0.00118157 0.821864 -0.56968 
0.000981133 0.716332 -0.69776 
0.000395066 0.609543 -0.792757 
-0.000514041 0.509638 -0.860394 
-0.00166228 0.420638 -0.907233 
-0.00295032 0.344012 -0.938967 
-0.00428705 0.27965 -0.960099 
-0.00560933 0.226307 -0.974047 
-0.00686541 0.182493 -0.98319 
-0.00802218 0.146827 -0.989137 
-0.00907388 0.117939 -0.992986 
-0.0100154 0.094563 -0.995475 
-0.0108299 0.0756814 -0.99708 
-0.0115661 0.0605665 -0.998104 
-0.0121888 0.0482664 -0.998767 
-0.0127172 0.038376 -0.999189 
-0.0131674 0.0303832 -0.999458 
-0.013533 0.0238891 -0.99963 
-0.0138232 0.0185605 -0.999739 
-0.014045 0.0141886 -0.999807 
-0.0142116 0.0105136 -0.99985 
-0.0143184 0.0073662 -0.999877 
-0.0143741 0.004593 -0.999893 
-0.0143887 0.00206579 -0.999901 
-0.0143756 -0.000303357 -0.999903 
-0.0143174 -0.00255296 -0.999901 
-0.0141662 -0.00466597 -0.999895 
-0.0139246 -0.00667073 -0.999888 
-0.0136698 -0.00872915 -0.999875 
-0.0131463 -0.0108302 -0.999862 
-0.0122875 -0.0133128 -0.999843 
-0.0129113 -0.0156056 -0.999802 
-0.011552 -0.0182288 -0.999773 
-0.010191 -0.0191926 -0.999772 
-0.00752268 -0.0182667 -0.999812 
-0.00580328 -0.0197029 -0.999798 
-0.00299993 -0.0227346 -0.999736 
0.00225322 -0.0223242 0.999747 
0.00473313 -0.0199163 0.999799 
0.00614336 -0.0187544 0.999812 
0.00909109 -0.019794 0.99977 
0.00911382 -0.0186332 0.999792 
0.0102137 -0.0159075 0.999828 
0.0112666 -0.0126716 0.999864 
0.0112531 -0.0101023 0.999893 
0.0113786 -0.00796057 0.99991 
0.0116307 -0.00600928 0.999921 
0.0118835 -0.0040081 0.999928 
0.012047 -0.0018273 0.999932 
0.0121416 0.00050413 0.999933 
0.0121924 0.00296338 0.999928 
0.0121885 0.00560759 0.999916 
0.0121157 0.00854012 0.999897 
0.0119903 0.0118925 0.999864 
0.0118137 0.0158318 0.999811 
0.0115738 0.0205592 0.999728 
0.0112736 0.0263044 0.999597 
0.0109179 0.0333356 0.999391 
0.0104876 0.042009 0.999069 
0.00996561 0.0527555 0.998564 
0.00936836 0.0660576 0.997779 
0.00870376 0.0825255 0.996558 
0.00794637 0.102978 0.994659 
0.00709027 0.128338 0.991712 
0.00615209 0.159645 0.987162 
0.00514837 0.198151 0.980165 
0.00409885 0.245262 0.969455 
0.0030275 0.302507 0.953149 
0.0019676 0.371409 0.928474 
0.000974002 0.452959 0.891537 
0.000118048 0.546881 0.837215 
-0.000530485 0.650564 0.759454 
-0.000930105 0.757568 0.652756 
-0.00105251 0.859221 0.511598 
-0.000898817 0.941835 0.336059 
-0.000537046 0.991002 0.133788 
-8.24382e-05 0.996779 -0.0800988 
0.000335083 0.958009 -0.286716 
0.000596241 0.882775 -0.469789 
0.000611637 0.784595 -0.620008 
0.000344413 0.677596 -0.735437 
-0.000186836 0.572859 -0.819659 
-0.000937663 0.476888 -0.878969 
-0.0018508 0.392485 -0.919763 
-0.00285572 0.320478 -0.947258 
-0.00389777 0.260352 -0.965513 
-0.00493583 0.210604 -0.977566 
-0.00592544 0.169807 -0.985466 
-0.0068489 0.13666 -0.990601 
-0.00770708 0.109807 -0.99393 
-0.00848113 0.0880448 -0.996087 
-0.00913824 0.0704514 -0.99748 
-0.00979724 0.0564661 -0.998363 
-0.0103136 0.0448791 -0.998946 
-0.0107665 0.0356218 -0.999314 
-0.0111476 0.0281731 -0.999547 
-0.0114766 0.0220044 -0.999699 
-0.0116901 0.0170123 -0.999793 
-0.0118918 0.012877 -0.999853 
-0.0120229 0.00936303 -0.99989 
-0.0120987 0.00632958 -0.999913 
-0.0121317 0.00362959 -0.999926 
-0.0121384 0.00114844 -0.999932 
-0.0121462 -0.00118947 -0.999932 
-0.0121 -0.00338318 -0.999928 
-0.0119321 -0.00540644 -0.999921 
-0.0116801 -0.00730333 -0.999912 
-0.011291 -0.00919857 -0.999901 
-0.0106354 -0.0112414 -0.999887 
-0.0101542 -0.0134763 -0.999863 
-0.0104682 -0.0162387 -0.999821 
-0.00922023 -0.01915 -0.999781 
-0.00781998 -0.019429 -0.999787 
-0.00552362 -0.0187925 -0.999814 
-0.00456216 -0.0201124 -0.999796 
-0.00221146 -0.0225149 -0.999743 
0.00172231 -0.0222573 0.999749 
0.00356693 -0.0200811 0.9998 
0.00465605 -0.0189697 0.999815 
0.00702643 -0.0199991 0.999782 
0.00714247 -0.0193182 0.999793 
0.00764223 -0.0164854 0.999843 
0.00904332 -0.0139798 0.999867 
0.00908728 -0.0114874 0.9999 
0.00912023 -0.00928635 0.999922 
0.0093293 -0.00731497 0.999936 
0.00960914 -0.00540555 0.999946 
0.00984223 -0.00333921 0.999953 
0.0099662 -0.00106031 0.999956 
0.0100407 0.00134903 0.999955 
0.0100811 0.00389911 0.999948 
0.0100554 0.00666478 0.999934 
0.00996645 0.00976599 0.999909 
0.00983723 0.0133385 0.999869 
0.00966194 0.0175617 0.999806 
0.00942988 0.0226637 0.999705 
0.00914447 0.0288769 0.999548 
0.00881018 0.0364912 0.999302 
0.00840449 0.0458947 0.998917 
0.00792231 0.0575459 0.998318 
0.00738699 0.0719468 0.997388 
0.00679708 0.0897655 0.995946 
0.00612934 0.111889 0.993709 
0.0053926 0.139273 0.990246 
0.00460892 0.173007 0.984917 
0.00379421 0.214414 0.976742 
0.00296621 0.264954 0.964263 
0.00214391 0.326161 0.945318 
0.00135267 0.399469 0.916752 
0.000634011 0.485524 0.874228 
3.68914e-05 0.583302 0.81226 
-0.000397914 0.688907 0.724852 
-0.000653184 0.794342 0.60747 
-0.000713796 0.89023 0.455504 
-0.000595638 0.962571 0.271007 
-0.00035555 0.99797 0.0635631 
-7.56347e-05 0.988684 -0.149964 
0.000155971 0.936555 -0.350506 
0.00026103 0.852011 -0.52352 
0.000185271 0.749308 -0.662222 
-8.57671e-05 0.642008 -0.766701 
-0.000533223 0.539819 -0.841786 
-0.00112821 0.447733 -0.894172 
-0.00183116 0.367598 -0.92999 
-0.0025966 0.299766 -0.954016 
-0.0033966 0.243402 -0.969926 
-0.00419897 0.196783 -0.980445 
-0.00496866 0.158597 -0.987338 
-0.00570312 0.127653 -0.991809 
-0.00639978 0.102559 -0.994713 
-0.007027 0.0821512 -0.996602 
-0.00754689 0.065613 -0.997823 
-0.00816949 0.0527117 -0.998583 
-0.00857583 0.0414789 -0.999109 
-0.00891638 0.0330252 -0.999421 
-0.00930402 0.0258031 -0.99963 
-0.00950128 0.0200981 -0.999759 
-0.0096791 0.0153985 -0.999841 
-0.00985918 0.0115028 -0.999892 
-0.00994272 0.00812159 -0.999924 
-0.00997823 0.00519446 -0.999943 
-0.00997537 0.00258241 -0.999953 
-0.00998389 0.000134197 -0.999957 
-0.00998297 -0.00215112 -0.999954 
-0.00992496 -0.00427127 -0.999948 
-0.0097099 -0.00620136 -0.99994 
-0.00938192 -0.00803028 -0.99993 
-0.00890041 -0.0100278 -0.999917 
-0.00820284 -0.0124389 -0.999896 
-0.00855712 -0.0151988 -0.999853 
-0.00794512 -0.0179384 -0.999814 
-0.00676546 -0.0199769 -0.999784 
-0.00540205 -0.0190032 -0.999811 
-0.00342314 -0.020066 -0.999802 
-0.00175899 -0.0224131 -0.999746 
0.00137237 -0.0222223 0.999751 
0.002701 -0.020265 0.999799 
0.00361201 -0.0191309 0.999817 
0.005434 -0.0202217 0.999787 
0.00578123 -0.0188897 0.999811 
0.00594748 -0.0158816 0.999863 
0.00722425 -0.0134659 0.99989 
0.00724061 -0.0109229 0.999921 
0.0073988 -0.00874535 0.999941 
0.00764929 -0.00680902 0.999954 
0.00792991 -0.00485007 0.999963 
0.0081287 -0.00266395 0.99997 
0.00820623 -0.000290508 0.999973 
0.00827768 0.00218669 0.99997 
0.00830249 0.00481024 0.99996 
0.00826321 0.00769755 0.999943 
0.0081696 0.0109669 0.999913 
0.00804648 0.0147393 0.999865 
0.00788707 0.0192556 0.99979 
0.00766938 0.0247308 0.999671 
0.0074088 0.0314069 0.999486 
0.00710281 0.0395949 0.999197 
0.0067318 0.0497195 0.998747 
0.00630255 0.062239 0.998048 
0.00583606 0.0776855 0.996967 
0.00532079 0.0968008 0.995296 
0.00474258 0.120523 0.992706 
0.00412138 0.149783 0.988717 
0.00347884 0.185693 0.982608 
0.00282833 0.229596 0.973289 
0.00218489 0.282871 0.959162 
0.00156229 0.346904 0.937906 
0.000978047 0.422899 0.906182 
0.000460221 0.510999 0.859586 
3.67915e-05 0.609762 0.792589 
-0.000272052 0.71504 0.699085 
-0.000455254 0.818862 0.573988 
-0.00050019 0.910988 0.412423 
-0.000422553 0.975872 0.218313 
-0.00026696 0.999983 0.00422911 
-9.6712e-05 0.977634 -0.210281 
2.35512e-05 0.913944 -0.40583 
4.12217e-05 0.821721 -0.569887 
-7.46744e-05 0.715814 -0.698292 
-0.000325557 0.60916 -0.793051 
-0.000696244 0.509891 -0.860244 
-0.0011686 0.421527 -0.906821 
-0.00171458 0.345285 -0.938503 
-0.00230752 0.281261 -0.959635 
-0.0029346 0.228253 -0.973604 
-0.0035667 0.184259 -0.982878 
-0.00417644 0.148315 -0.988938 
-0.00477311 0.119358 -0.992847 
-0.00534832 0.095711 -0.995402 
-0.00586155 0.0762548 -0.997078 
-0.00626284 0.0604242 -0.998161 
-0.00695243 0.0485684 -0.998801 
-0.00704968 0.038267 -0.99925 
-0.00754262 0.0297585 -0.999535 
-0.00770317 0.0232917 -0.999706 
-0.00786992 0.0179759 -0.999814 
-0.00799756 0.0136045 -0.999882 
-0.00818112 0.00996466 -0.999923 
-0.00819327 0.00663917 -0.999951 
-0.00814665 0.00387161 -0.999966 
-0.00815692 0.00129566 -0.999972 
-0.00812122 -0.00109002 -0.999973 
-0.00810703 -0.0032494 -0.999968 
-0.00802909 -0.00515235 -0.99996 
-0.00776742 -0.0068852 -0.999953 
-0.00746928 -0.00866113 -0.999941 
-0.00703719 -0.0107165 -0.999925 
-0.00643366 -0.0131881 -0.999899 
-0.00690408 -0.0155723 -0.999861 
-0.00604363 -0.018699 -0.999814 
-0.00487146 -0.0199645 -0.999796 
-0.00369286 -0.0192276 -0.999815 
-0.00244621 -0.0205218 -0.999795 
-0.00130864 -0.0223805 -0.999747 