# vtk DataFile Version 3.0 
Exported using Morpho https://github.com/Morpho-lang/morpho 
ASCII 
DATASET UNSTRUCTURED_GRID 

POINTS 2054 float 
-8.48528 -2.82843 0 
-8.20636 -2.82843 0 
-7.94054 -2.82843 0 
-7.6904 -2.82843 0 
-7.45357 -2.82843 0 
-7.22694 -2.82843 0 
-7.00705 -2.82843 0 
-6.79111 -2.82843 0 
-6.57731 -2.82843 0 
-6.36453 -2.82843 0 
-6.15219 -2.82843 0 
-5.94 -2.82843 0 
-5.72786 -2.82843 0 
-5.51573 -2.82843 0 
-5.3036 -2.82843 0 
-5.09147 -2.82843 0 
-4.87933 -2.82843 0 
-4.6672 -2.82843 0 
-4.45507 -2.82843 0 
-4.24294 -2.82843 0 
-4.03081 -2.82843 0 
-3.81867 -2.82843 0 
-3.60654 -2.82843 0 
-3.39441 -2.82843 0 
-3.18228 -2.82843 0 
-2.97015 -2.82843 0 
-2.75801 -2.82843 0 
-2.54588 -2.82843 0 
-2.33375 -2.82843 0 
-2.12162 -2.82843 0 
-1.90949 -2.82843 0 
-1.69735 -2.82843 0 
-1.48522 -2.82843 0 
-1.27309 -2.82843 0 
-1.06096 -2.82843 0 
-0.848825 -2.82843 0 
-0.636693 -2.82843 0 
-0.424561 -2.82843 0 
-0.212429 -2.82843 0 
-0.000296761 -2.82843 0 
0.211835 -2.82843 0 
0.423967 -2.82843 0 
0.636099 -2.82843 0 
0.848231 -2.82843 0 
1.06036 -2.82843 0 
1.2725 -2.82843 0 
1.48463 -2.82843 0 
1.69676 -2.82843 0 
1.90889 -2.82843 0 
2.12102 -2.82843 0 
2.33316 -2.82843 0 
2.54529 -2.82843 0 
2.75742 -2.82843 0 
2.96955 -2.82843 0 
3.18168 -2.82843 0 
3.39382 -2.82843 0 
3.60595 -2.82843 0 
3.81808 -2.82843 0 
4.03021 -2.82843 0 
4.24234 -2.82843 0 
4.45448 -2.82843 0 
4.66661 -2.82843 0 
4.87874 -2.82843 0 
5.09087 -2.82843 0 
5.303 -2.82843 0 
5.51514 -2.82843 0 
5.72727 -2.82843 0 
5.93941 -2.82843 0 
6.15159 -2.82843 0 
6.36393 -2.82843 0 
6.57672 -2.82843 0 
6.79055 -2.82843 0 
7.00652 -2.82843 0 
7.22647 -2.82843 0 
7.45313 -2.82843 0 
7.69005 -2.82843 0 
7.9403 -2.82843 0 
8.20621 -2.82843 0 
8.48528 -2.82843 0 
-8.48528 -2.5495 0 
-8.30526 -2.64845 0 
-8.07062 -2.59995 0 
-7.83904 -2.59637 0 
-7.59595 -2.59733 0 
-7.36578 -2.59177 0 
-7.13796 -2.5933 0 
-6.90908 -2.59428 0 
-6.68421 -2.5916 0 
-6.46568 -2.58832 0 
-6.24926 -2.58859 0 
-6.03358 -2.58941 0 
-5.81848 -2.59013 0 
-5.60402 -2.59075 0 
-5.39005 -2.59135 0 
-5.17642 -2.59186 0 
-4.96311 -2.59223 0 
-4.75009 -2.59242 0 
-4.53736 -2.59244 0 
-4.32497 -2.59236 0 
-4.1128 -2.59242 0 
-3.90059 -2.59259 0 
-3.68835 -2.5926 0 
-3.47627 -2.59248 0 
-3.26428 -2.59251 0 
-3.05216 -2.59271 0 
-2.83986 -2.59283 0 
-2.62755 -2.59274 0 
-2.41539 -2.59253 0 
-2.20336 -2.59238 0 
-1.99135 -2.59238 0 
-1.77924 -2.59246 0 
-1.56704 -2.59244 0 
-1.35495 -2.59215 0 
-1.14319 -2.59183 0 
-0.931581 -2.59195 0 
-0.719663 -2.59256 0 
-0.507197 -2.59324 0 
-0.294425 -2.59354 0 
-0.0817689 -2.59344 0 
0.130587 -2.59325 0 
0.342804 -2.59322 0 
0.555051 -2.59322 0 
0.767233 -2.59303 0 
0.97919 -2.59278 0 
1.19107 -2.59278 0 
1.40311 -2.59289 0 
1.61524 -2.59286 0 
1.82732 -2.59279 0 
2.03943 -2.59281 0 
2.25163 -2.5928 0 
2.46381 -2.59266 0 
2.67591 -2.59254 0 
2.88801 -2.59237 0 
3.10001 -2.59226 0 
3.31203 -2.59216 0 
3.52402 -2.59207 0 
3.73601 -2.59208 0 
3.94815 -2.59221 0 
4.16052 -2.5923 0 
4.37309 -2.59232 0 
4.58593 -2.59227 0 
4.79921 -2.5922 0 
5.01319 -2.59212 0 
5.22833 -2.5921 0 
5.44534 -2.59239 0 
5.6657 -2.59346 0 
5.89185 -2.59569 0 
6.12685 -2.59429 0 
6.36853 -2.59189 0 
6.6108 -2.57787 0 
6.84491 -2.61411 0 
7.08804 -2.58476 0 
7.34858 -2.60369 0 
7.58803 -2.59327 0 
7.83059 -2.59326 0 
8.06387 -2.59199 0 
8.30038 -2.64348 0 
8.48528 -2.54936 0 
-8.48528 -2.28369 0 
-8.25701 -2.4138 0 
-8.01078 -2.35334 0 
-7.73666 -2.37963 0 
-7.49744 -2.35565 0 
-7.26898 -2.35831 0 
-7.03324 -2.36676 0 
-6.7997 -2.36275 0 
-6.5773 -2.35166 0 
-6.35808 -2.3495 0 
-6.14038 -2.35058 0 
-5.92336 -2.35185 0 
-5.70723 -2.35272 0 
-5.49199 -2.35362 0 
-5.27734 -2.35447 0 
-5.0632 -2.35505 0 
-4.84958 -2.35534 0 
-4.63641 -2.35533 0 
-4.42363 -2.35504 0 
-4.21126 -2.35485 0 
-3.99909 -2.35513 0 
-3.78684 -2.3554 0 
-3.57461 -2.35516 0 
-3.36263 -2.35498 0 
-3.15066 -2.35537 0 
-2.93843 -2.35586 0 
-2.72604 -2.35589 0 
-2.51374 -2.35551 0 
-2.30162 -2.35509 0 
-2.08964 -2.35496 0 
-1.87761 -2.35518 0 
-1.66544 -2.3554 0 
-1.45322 -2.35518 0 
-1.2412 -2.35438 0 
-1.02967 -2.35407 0 
-0.818162 -2.35505 0 
-0.606054 -2.35676 0 
-0.393243 -2.3579 0 
-0.180256 -2.35789 0 
0.0323765 -2.35727 0 
0.244686 -2.35692 0 
0.456926 -2.35692 0 
0.669206 -2.35667 0 
0.881318 -2.35598 0 
1.09315 -2.35559 0 
1.305 -2.35583 0 
1.51709 -2.35595 0 
1.72919 -2.35571 0 
1.9412 -2.35566 0 
2.15334 -2.3558 0 
2.36559 -2.3556 0 
2.57772 -2.35522 0 
2.78976 -2.35507 0 
3.0019 -2.35461 0 
3.21373 -2.35451 0 
3.42571 -2.35439 0 
3.63769 -2.35431 0 
3.84965 -2.35453 0 
4.06183 -2.35491 0 
4.27435 -2.35507 0 
4.48707 -2.35507 0 
4.70017 -2.35506 0 
4.91376 -2.35498 0 
5.12819 -2.35502 0 
5.34378 -2.35528 0 
5.56106 -2.35662 0 
5.78097 -2.35971 0 
6.00401 -2.36251 0 
6.2308 -2.3624 0 
6.45748 -2.35551 0 
6.68075 -2.33423 0 
6.88797 -2.39744 0 
7.05313 -2.27289 0 
7.24377 -2.40237 0 
7.48542 -2.36016 0 
7.73055 -2.36599 0 
7.99177 -2.33552 0 
8.24864 -2.40698 0 
8.48528 -2.28345 0 
-8.48528 -2.03355 0 
-8.25312 -2.18214 0 
-8.03669 -2.07913 0 
-7.83956 -2.18231 0 
-7.6106 -2.12852 0 
-7.38852 -2.10959 0 
-7.16268 -2.14097 0 
-6.9229 -2.1435 0 
-6.70119 -2.12055 0 
-6.48111 -2.11285 0 
-6.26282 -2.11284 0 
-6.045 -2.1151 0 
-5.82775 -2.11658 0 
-5.61153 -2.11776 0 
-5.3962 -2.1192 0 
-5.18144 -2.1203 0 
-4.96732 -2.12084 0 
-4.75387 -2.12105 0 
-4.54086 -2.12091 0 
-4.32822 -2.12045 0 
-4.11596 -2.12045 0 
-3.90382 -2.12107 0 
-3.69156 -2.12116 0 
-3.47938 -2.12058 0 
-3.26746 -2.12068 0 
-3.05542 -2.12154 0 
-2.84307 -2.12198 0 
-2.63064 -2.12162 0 
-2.41836 -2.12087 0 
-2.20626 -2.12031 0 
-1.99426 -2.12034 0 
-1.78217 -2.1207 0 
-1.56989 -2.12074 0 
-1.35755 -2.11993 0 
-1.14542 -2.11838 0 
-0.934012 -2.11859 0 
-0.722404 -2.12089 0 
-0.509943 -2.12344 0 
-0.296911 -2.12431 0 
-0.0840921 -2.12359 0 
0.128295 -2.12281 0 
0.340414 -2.12274 0 
0.552564 -2.12288 0 
0.76478 -2.12226 0 
0.976792 -2.1213 0 
1.18855 -2.12128 0 
1.40042 -2.12188 0 
1.61256 -2.12177 0 
1.82458 -2.12141 0 
2.03655 -2.12164 0 
2.24875 -2.12174 0 
2.46099 -2.12114 0 
2.67302 -2.12065 0 
2.88504 -2.12054 0 
3.09728 -2.1194 0 
3.30873 -2.11968 0 
3.52086 -2.1195 0 
3.7329 -2.11938 0 
3.94484 -2.11986 0 
4.15715 -2.12044 0 
4.36983 -2.12035 0 
4.58282 -2.1204 0 
4.79606 -2.12017 0 
5.01004 -2.12012 0 
5.22483 -2.12002 0 
5.44073 -2.12051 0 
5.6582 -2.123 0 
5.8782 -2.12696 0 
6.10217 -2.12971 0 
6.33095 -2.12707 0 
6.567 -2.11601 0 
6.82301 -2.12303 0 
7.06572 -2.04567 0 
7.29733 -2.17484 0 
7.54632 -2.11408 0 
7.79371 -2.13741 0 
8.02274 -2.07453 0 
8.25027 -2.1738 0 
8.48528 -2.0332 0 
-8.48528 -1.79671 0 
-8.25436 -1.93882 0 
-8.01299 -1.83977 0 
-7.78596 -1.953 0 
-7.5297 -1.87194 0 
-7.2756 -1.88722 0 
-7.05707 -1.93544 0 
-6.84369 -1.89677 0 
-6.62219 -1.88079 0 
-6.40169 -1.87606 0 
-6.18206 -1.87854 0 
-5.96274 -1.881 0 
-5.74458 -1.88208 0 
-5.52796 -1.88344 0 
-5.31232 -1.88506 0 
-5.09736 -1.88569 0 
-4.88338 -1.88564 0 
-4.67019 -1.88555 0 
-4.45737 -1.88507 0 
-4.24485 -1.88447 0 
-4.03271 -1.88482 0 
-3.82061 -1.88562 0 
-3.60832 -1.88529 0 
-3.39617 -1.88464 0 
-3.18427 -1.88547 0 
-2.97209 -1.88672 0 
-2.7596 -1.88684 0 
-2.54714 -1.88601 0 
-2.33483 -1.88505 0 
-2.12268 -1.8846 0 
-1.91058 -1.885 0 
-1.69824 -1.88561 0 
-1.48561 -1.88547 0 
-1.27286 -1.88413 0 
-1.06032 -1.88216 0 
-0.848858 -1.8839 0 
-0.636875 -1.88781 0 
-0.424169 -1.89034 0 
-0.211518 -1.89004 0 
0.000731944 -1.88866 0 
0.21257 -1.88788 0 
0.424308 -1.88807 0 
0.636257 -1.88793 0 
0.848362 -1.88664 0 
1.06025 -1.88556 0 
1.27191 -1.88605 0 
1.48381 -1.88664 0 
1.69595 -1.886 0 
1.90782 -1.88577 0 
2.11974 -1.88637 0 
2.33202 -1.88609 0 
2.54419 -1.88502 0 
2.75607 -1.88472 0 
2.96812 -1.88462 0 
3.18055 -1.88217 0 
3.39117 -1.88415 0 
3.60398 -1.8838 0 
3.81618 -1.88366 0 
4.02827 -1.88469 0 
4.24071 -1.88523 0 
4.4544 -1.88509 0 
4.66716 -1.88476 0 
4.88099 -1.88493 0 
5.09545 -1.88466 0 
5.31057 -1.88453 0 
5.52653 -1.88564 0 
5.7436 -1.88981 0 
5.96352 -1.89563 0 
6.18733 -1.89813 0 
6.41543 -1.89522 0 
6.65059 -1.89622 0 
6.87542 -1.86913 0 
7.11122 -1.81621 0 
7.31223 -1.94975 0 
7.53264 -1.87683 0 
7.77077 -1.89068 0 
8.01717 -1.8297 0 
8.25014 -1.93148 0 
8.48528 -1.79628 0 
-8.48528 -1.57009 0 
-8.24868 -1.70836 0 
-8.015 -1.61096 0 
-7.76734 -1.73071 0 
-7.54593 -1.61782 0 
-7.32306 -1.66278 0 
-7.05152 -1.7082 0 
-6.79786 -1.66675 0 
-6.56099 -1.64764 0 
-6.33267 -1.64541 0 
-6.10856 -1.64921 0 
-5.88638 -1.65073 0 
-5.66697 -1.65153 0 
-5.44986 -1.65353 0 
-5.23379 -1.65525 0 
-5.01882 -1.6551 0 
-4.80519 -1.6548 0 
-4.59235 -1.65478 0 
-4.37976 -1.65422 0 
-4.16737 -1.65386 0 
-3.95537 -1.65471 0 
-3.74326 -1.6554 0 
-3.5309 -1.65455 0 
-3.31876 -1.65426 0 
-3.10682 -1.65593 0 
-2.89443 -1.65705 0 
-2.68177 -1.65644 0 
-2.46924 -1.65516 0 
-2.25682 -1.65408 0 
-2.04447 -1.65386 0 
-1.83202 -1.65455 0 
-1.61911 -1.65506 0 
-1.40572 -1.65429 0 
-1.19212 -1.65207 0 
-0.97885 -1.64982 0 
-0.767325 -1.65372 0 
-0.555434 -1.6581 0 
-0.343588 -1.65935 0 
-0.132061 -1.65818 0 
0.0792288 -1.65687 0 
0.290417 -1.65682 0 
0.501823 -1.6575 0 
0.713729 -1.65709 0 
0.925861 -1.65545 0 
1.13768 -1.65488 0 
1.34929 -1.65604 0 
1.56128 -1.6563 0 
1.77337 -1.65516 0 
1.985 -1.65561 0 
2.19698 -1.65642 0 
2.40939 -1.65525 0 
2.62143 -1.65394 0 
2.83323 -1.65414 0 
3.04553 -1.65355 0 
3.25842 -1.64868 0 
3.46746 -1.65522 0 
3.68272 -1.65284 0 
3.89574 -1.65288 0 
4.10731 -1.65378 0 
4.32287 -1.65565 0 
4.53627 -1.65249 0 
4.74932 -1.65397 0 
4.96428 -1.65355 0 
5.17935 -1.65257 0 
5.3944 -1.65202 0 
5.60927 -1.65354 0 
5.82513 -1.66019 0 
6.04295 -1.66711 0 
6.26383 -1.66843 0 
6.48537 -1.66776 0 
6.70098 -1.65646 0 
6.91299 -1.6206 0 
7.11709 -1.6046 0 
7.3526 -1.69716 0 
7.60698 -1.65764 0 
7.8325 -1.64214 0 
8.05985 -1.58842 0 
8.2608 -1.69223 0 
8.48528 -1.56961 0 
-8.48528 -1.35019 0 
-8.24958 -1.48044 0 
-8.0219 -1.3751 0 
-7.79713 -1.50391 0 
-7.58956 -1.39834 0 
-7.36199 -1.38754 0 
-7.16079 -1.49923 0 
-6.93764 -1.46284 0 
[...]
POINT_DATA 2054 
VECTORS vectors float
2.99856e-05 -0.0013264 0.999999 
-0.00019391 -0.0206939 0.999786 
-0.000101016 -0.0232794 0.999729 
-0.000102356 -0.0228047 0.99974 
-0.000117333 -0.0207234 0.999785 
-9.25781e-05 -0.0180461 0.999837 
-9.51194e-05 -0.0155112 0.99988 
-8.95098e-05 -0.0131468 0.999914 
-8.85393e-05 -0.0107863 0.999942 
-8.77507e-05 -0.00836259 0.999965 
-8.75752e-05 -0.00590308 0.999983 
-8.75464e-05 -0.0034475 0.999994 
-8.75522e-05 -0.00100954 0.999999 
-8.75534e-05 0.001444 0.999999 
-8.74709e-05 0.00399255 0.999992 
-8.73449e-05 0.00674779 0.999977 
-8.7101e-05 0.00984401 0.999952 
-8.67254e-05 0.0134362 0.99991 
-8.62649e-05 0.0177057 0.999843 
-8.56252e-05 0.0228681 0.999738 
-8.485e-05 0.029182 0.999574 
-8.38328e-05 0.0369609 0.999317 
-8.2524e-05 0.0465862 0.998914 
-8.09298e-05 0.0585254 0.998286 
-7.89044e-05 0.0733508 0.997306 
-7.64146e-05 0.0917617 0.995781 
-7.32849e-05 0.114611 0.99341 
-6.93766e-05 0.142921 0.989734 
-6.45836e-05 0.177911 0.984047 
-5.8675e-05 0.220984 0.975277 
-5.15406e-05 0.273686 0.961819 
-4.30601e-05 0.337571 0.9413 
-3.33324e-05 0.413895 0.910325 
-2.28168e-05 0.503078 0.864241 
-1.24081e-05 0.603797 0.797138 
-3.53394e-06 0.71179 0.702393 
2.29131e-06 0.818696 0.574227 
4.2992e-06 0.911899 0.410415 
3.0585e-06 0.976524 0.215409 
9.1306e-08 0.999998 0.00180046 
-2.89108e-06 0.977273 -0.211985 
-4.18171e-06 0.913223 -0.40746 
-2.24859e-06 0.820336 -0.571882 
3.49695e-06 0.7135 -0.700655 
1.23231e-05 0.605413 -0.795912 
2.2714e-05 0.504499 -0.863412 
3.32312e-05 0.415096 -0.909778 
4.29582e-05 0.338558 -0.940946 
5.14427e-05 0.274484 -0.961592 
5.86249e-05 0.22162 -0.975133 
6.45365e-05 0.178412 -0.983956 
6.93301e-05 0.143315 -0.989677 
7.32389e-05 0.11492 -0.993375 
7.63569e-05 0.0920048 -0.995759 
7.88985e-05 0.0735417 -0.997292 
8.09156e-05 0.0586756 -0.998277 
8.25023e-05 0.0467056 -0.998909 
8.3802e-05 0.0370569 -0.999313 
8.48069e-05 0.0292605 -0.999572 
8.56332e-05 0.0229334 -0.999737 
8.62561e-05 0.0177608 -0.999842 
8.67036e-05 0.0134833 -0.999909 
8.70624e-05 0.00988466 -0.999951 
8.7286e-05 0.00678298 -0.999977 
8.74539e-05 0.00402348 -0.999992 
8.75263e-05 0.00147381 -0.999999 
8.74549e-05 -0.000975826 -1 
8.74231e-05 -0.00340289 -0.999994 
8.72949e-05 -0.0058487 -0.999983 
8.78594e-05 -0.00828337 -0.999966 
8.81689e-05 -0.0106525 -0.999943 
8.97367e-05 -0.0129971 -0.999916 
9.46568e-05 -0.0153017 -0.999883 
9.29284e-05 -0.0178202 -0.999841 
0.000117042 -0.0204607 -0.999791 
0.000102457 -0.0224631 -0.999748 
0.000100279 -0.0229148 -0.999737 
0.00019561 -0.0203769 -0.999792 
-3.33718e-05 -0.00131712 -0.999999 
-0.000143328 0.000336445 1 
0.00486355 -0.0150308 0.999875 
0.00869671 -0.0215817 0.999729 
0.00988061 -0.0223548 0.999701 
0.0107382 -0.0213122 0.999715 
0.0115216 -0.0192702 0.999748 
0.0119179 -0.0167473 0.999789 
0.0121872 -0.0141605 0.999825 
0.0124885 -0.0116846 0.999854 
0.0127413 -0.00927572 0.999876 
0.012851 -0.00686252 0.999894 
0.0129281 -0.00444063 0.999907 
0.0129904 -0.00201445 0.999914 
0.0130303 0.000433422 0.999915 
0.0130421 0.00295738 0.999911 
0.0130272 0.00564953 0.999899 
0.0129859 0.00863133 0.999878 
0.0129177 0.0120489 0.999844 
0.0128205 0.0160728 0.999789 
0.0126891 0.0209023 0.999701 
0.012512 0.0267786 0.999563 
0.0122851 0.0339996 0.999346 
0.0120109 0.0429213 0.999006 
0.0116804 0.053968 0.998474 
0.0112762 0.0676698 0.997644 
0.010788 0.0846905 0.996349 
0.0102113 0.105834 0.994331 
0.00953715 0.13205 0.991197 
0.0087524 0.164455 0.986346 
0.00784565 0.204369 0.978863 
0.00681439 0.253292 0.967366 
0.00566963 0.312809 0.949799 
0.00444095 0.384321 0.923189 
0.00318177 0.468544 0.883434 
0.00197062 0.564795 0.825229 
0.000909263 0.670154 0.742222 
0.000108524 0.77829 0.627905 
-0.000347242 0.878394 0.477938 
-0.000446762 0.955893 0.293714 
-0.000281124 0.99638 0.0850112 
-2.6758e-05 0.99137 -0.131091 
0.000112681 0.942091 -0.335358 
-2.60239e-05 0.8587 -0.512479 
-0.000517365 0.755845 -0.654751 
-0.00133842 0.647445 -0.762111 
-0.00240035 0.543445 -0.839442 
-0.00359448 0.449472 -0.893287 
-0.00482298 0.367938 -0.929838 
-0.0060105 0.299092 -0.954205 
-0.00710901 0.241942 -0.970265 
-0.00809666 0.195027 -0.980764 
-0.00896748 0.156823 -0.987586 
-0.00972118 0.12587 -0.991999 
-0.0103679 0.100861 -0.994847 
-0.0109157 0.0807014 -0.996679 
-0.0113771 0.0644591 -0.997855 
-0.011763 0.0513789 -0.99861 
-0.0120798 0.0408362 -0.999093 
-0.0123349 0.0323176 -0.999402 
-0.0125399 0.0254088 -0.999598 
-0.0127006 0.0197735 -0.999724 
-0.0128205 0.0151313 -0.999803 
-0.0129002 0.0112484 -0.999854 
-0.0129402 0.00792757 -0.999885 
-0.0129385 0.00499979 -0.999904 
-0.0128861 0.00231886 -0.999914 
-0.0127606 -0.000244808 -0.999919 
-0.0125314 -0.0028007 -0.999918 
-0.0123505 -0.00542544 -0.999909 
-0.0122026 -0.0080843 -0.999893 
-0.012504 -0.0107146 -0.999864 
-0.011527 -0.0133394 -0.999845 
-0.0119123 -0.0159524 -0.999802 
-0.0109846 -0.0188524 -0.999762 
-0.0106434 -0.0209023 -0.999725 
-0.00975824 -0.0219571 -0.999711 
-0.00862442 -0.021233 -0.999737 
-0.00484337 -0.014969 -0.999876 
0.000147316 0.000333418 -1 
2.79195e-05 -8.18912e-05 1 
0.00646605 -0.0165418 0.999842 
0.0102157 -0.0214932 0.999717 
0.0124057 -0.0215651 0.99969 
0.013796 -0.0201661 0.999701 
0.0146803 -0.0180433 0.999729 
0.0152534 -0.0153934 0.999765 
0.0156705 -0.0127555 0.999796 
0.0159744 -0.0103166 0.999819 
0.0161848 -0.00793249 0.999838 
0.016352 -0.00555689 0.999851 
0.0164858 -0.00316512 0.999859 
0.0165807 -0.000738399 0.999862 
0.0166323 0.00175542 0.99986 
0.0166405 0.00438266 0.999852 
0.0166057 0.00724536 0.999836 
0.0165263 0.0104756 0.999809 
0.0163996 0.0142329 0.999764 
0.0162225 0.0187043 0.999693 
0.0159892 0.024109 0.999581 
0.0156922 0.0307163 0.999405 
0.015325 0.03886 0.999127 
0.0148805 0.0489348 0.998691 
0.014348 0.0614104 0.998009 
0.0137156 0.076888 0.996945 
0.0129721 0.0961176 0.995285 
0.0121067 0.119983 0.992702 
0.0111107 0.149516 0.988697 
0.00998041 0.185932 0.982512 
0.00871939 0.230633 0.973002 
0.00734203 0.285176 0.958447 
0.00587947 0.351075 0.936329 
0.00438618 0.429424 0.903093 
0.00294288 0.520261 0.854002 
0.00165026 0.621687 0.783264 
0.000605856 0.729165 0.684337 
-0.000110902 0.834235 0.551409 
-0.000465715 0.92393 0.38256 
-0.000505799 0.983018 0.183511 
-0.000367728 0.999506 -0.031432 
-0.000237834 0.969976 -0.243202 
-0.000295976 0.900886 -0.434057 
-0.000666698 0.805448 -0.592667 
-0.00138939 0.698428 -0.715679 
-0.0024242 0.591776 -0.806099 
-0.0036875 0.49293 -0.870061 
-0.00508121 0.405566 -0.914052 
-0.00651129 0.330875 -0.943652 
-0.00790464 0.268385 -0.963279 
-0.00921296 0.216779 -0.976177 
-0.0104069 0.174566 -0.984591 
-0.0114729 0.140281 -0.990045 
-0.0124093 0.112539 -0.99357 
-0.0132229 0.0901294 -0.995842 
-0.0139208 0.072086 -0.997301 
-0.0145148 0.0575362 -0.998238 
-0.0150147 0.0458096 -0.998837 
-0.0154293 0.0363465 -0.99922 
-0.0157676 0.0286816 -0.999464 
-0.0160383 0.0224419 -0.999619 
-0.0162475 0.0173268 -0.999718 
-0.0163993 0.0130794 -0.99978 
-0.0164968 0.00948798 -0.999819 
-0.0165411 0.00637003 -0.999843 
-0.0165343 0.0035726 -0.999857 
-0.0164782 0.000969181 -0.999864 
-0.0163724 -0.00153799 -0.999865 
-0.0162235 -0.00400757 -0.99986 
-0.0160367 -0.00647351 -0.99985 
-0.0158614 -0.00891462 -0.999834 
-0.0158192 -0.0113237 -0.999811 
-0.0151461 -0.0136146 -0.999793 
-0.0152095 -0.0154103 -0.999766 
-0.0144921 -0.0176191 -0.99974 
-0.0136487 -0.0197367 -0.999712 
-0.0121657 -0.0210772 -0.999704 
-0.010078 -0.0211405 -0.999726 
-0.00644875 -0.016523 -0.999843 
-3.18865e-05 -8.03843e-05 -1 
-2.33195e-06 -0.00011463 1 
0.005571 -0.0164724 0.999849 
0.00854156 -0.0212 0.999739 
0.0110806 -0.0217349 0.999702 
0.0124919 -0.0207184 0.999707 
0.0136563 -0.0191236 0.999724 
0.0146798 -0.016806 0.999751 
0.0153071 -0.0140355 0.999784 
0.0156282 -0.0115499 0.999811 
0.0159164 -0.00916864 0.999831 
0.016172 -0.00683163 0.999846 
0.0163825 -0.0044872 0.999856 
0.0165369 -0.00209692 0.999861 
0.0166367 0.000362574 0.999862 
0.0166846 0.00292883 0.999857 
0.0166792 0.0056783 0.999845 
0.0166199 0.0087228 0.999824 
0.016506 0.0122051 0.999789 
0.0163345 0.0162996 0.999734 
0.0161012 0.0212087 0.999645 
0.0158029 0.0271708 0.999506 
0.0154331 0.0344827 0.999286 
0.0149807 0.0435111 0.998941 
0.0144376 0.0546848 0.998399 
0.0137999 0.0685188 0.997554 
0.013058 0.0856843 0.996237 
0.0121986 0.107002 0.994184 
0.0112159 0.133417 0.990996 
0.010111 0.166036 0.986068 
0.00889182 0.206151 0.97848 
0.00757464 0.255222 0.966853 
0.00618623 0.314801 0.949138 
0.00476967 0.386278 0.92237 
0.00338815 0.47037 0.882463 
0.0021204 0.566372 0.824147 
0.00104914 0.671043 0.741418 
0.000229669 0.778385 0.627787 
-0.000304841 0.878026 0.478612 
-0.000561715 0.955489 0.295025 
-0.000609531 0.996216 0.0869131 
-0.000568582 0.99169 -0.128653 
-0.000578951 0.94312 -0.332453 
-0.000766543 0.86057 -0.509332 
-0.00121352 0.758492 -0.651681 
-0.00194134 0.650714 -0.759321 
-0.0029209 0.547178 -0.837011 
-0.00409368 0.453408 -0.891294 
-0.00538403 0.371764 -0.928312 
-0.00671595 0.302668 -0.953072 
-0.0080302 0.245186 -0.969443 
-0.00928102 0.197869 -0.980185 
-0.010436 0.159262 -0.987181 
-0.0114812 0.127955 -0.991714 
-0.0124129 0.102625 -0.994643 
-0.0132285 0.0821609 -0.996531 
-0.0139389 0.0657115 -0.997741 
-0.0145475 0.0524073 -0.99852 
-0.0150615 0.0416797 -0.999017 
-0.0154904 0.0330117 -0.999335 
-0.0158404 0.0259692 -0.999537 
-0.0161162 0.0202155 -0.999666 
-0.0163263 0.0154712 -0.999747 
-0.016473 0.0115043 -0.999798 
-0.0165597 0.00811063 -0.99983 
-0.016586 0.00512464 -0.999849 
-0.0165538 0.00240563 -0.99986 
-0.0164703 -0.000153811 -0.999864 
-0.0163403 -0.00262575 -0.999863 
-0.0161556 -0.00505813 -0.999857 
-0.0159073 -0.00749367 -0.999845 
-0.0155757 -0.00999934 -0.999829 
-0.0151474 -0.0127469 -0.999804 
-0.0143617 -0.0155214 -0.999776 
-0.0141474 -0.0180571 -0.999737 
-0.0125591 -0.0199571 -0.999722 
-0.010905 -0.0211067 -0.999718 
-0.00842945 -0.0209073 -0.999746 
-0.00543546 -0.0162632 -0.999853 
3.5576e-06 -0.000114623 -1 
-2.73342e-06 -0.000123585 1 
0.0047008 -0.0163009 0.999856 
0.00771896 -0.0213839 0.999742 
0.0103598 -0.0214143 0.999717 
0.0117022 -0.0201674 0.999728 
0.013097 -0.0180241 0.999752 
0.014179 -0.0155768 0.999778 
0.0144561 -0.0130759 0.99981 
0.01476 -0.0106348 0.999835 
0.0150573 -0.0082829 0.999852 
0.0153396 -0.00596117 0.999865 
0.0155605 -0.00360376 0.999872 
0.0157121 -0.00117349 0.999876 
0.0158058 0.00134854 0.999874 
0.0158423 0.00400914 0.999866 
0.0158161 0.00689727 0.999851 
0.0157299 0.0101334 0.999825 
0.0155857 0.0138735 0.999782 
0.0153783 0.018307 0.999714 
0.0151052 0.0236517 0.999606 
0.0147672 0.0301628 0.999436 
0.0143546 0.0381647 0.999168 
0.0138518 0.0480578 0.998749 
0.0132581 0.0602994 0.998092 
0.0125764 0.075449 0.99707 
0.0117921 0.09425 0.995479 
0.0108929 0.117579 0.993004 
0.00988181 0.146431 0.989171 
0.0087687 0.181986 0.983262 
0.0075685 0.225595 0.974192 
0.00630316 0.278752 0.960342 
0.00500195 0.343006 0.93932 
0.00370977 0.419567 0.907717 
0.00248752 0.508713 0.860933 
0.00140367 0.608893 0.793251 
0.000523684 0.715384 0.698732 
-0.000126273 0.820881 0.571099 
-0.000533775 0.913144 0.407637 
-0.000722658 0.977037 0.213069 
-0.000763152 1 0.000340705 
-0.000759538 0.977266 -0.212018 
-0.000825969 0.913896 -0.405948 
-0.00105999 0.822176 -0.569233 
-0.00151986 0.716678 -0.697403 
-0.0022165 0.609904 -0.792472 
-0.00312474 0.510005 -0.860166 
-0.00419539 0.421005 -0.907048 
-0.00536373 0.344371 -0.938818 
-0.0065694 0.279997 -0.959978 
-0.00776487 0.22664 -0.973948 
-0.00890694 0.182806 -0.983109 
-0.00996701 0.147117 -0.989069 
-0.0109366 0.118201 -0.992929 
-0.0118083 0.0947913 -0.995427 
-0.012569 0.0758667 -0.997039 
-0.0132515 0.0607078 -0.998068 
-0.0138314 0.0483562 -0.998734 
-0.0143226 0.0384109 -0.999159 
-0.0147365 0.0303605 -0.99943 
-0.0150702 0.0238045 -0.999603 
-0.0153317 0.0184075 -0.999713 
-0.0155261 0.0139591 -0.999782 
-0.0156614 0.0101958 -0.999825 
-0.0157351 0.00694452 -0.999852 
-0.0157515 0.00404864 -0.999868 
-0.0157147 0.00138083 -0.999876 
-0.0156328 -0.0011458 -0.999877 
-0.015496 -0.00358952 -0.999873 
-0.0152762 -0.00598386 -0.999865 
-0.0149681 -0.00838345 -0.999853 
-0.0146079 -0.0108791 -0.999834 
-0.0140334 -0.0133559 -0.999812 
-0.0131469 -0.0161258 -0.999784 
-0.0131389 -0.0182721 -0.999747 
-0.0116547 -0.0201035 -0.99973 
-0.00991546 -0.0210045 -0.99973 
-0.0074357 -0.0211171 -0.999749 
-0.00461522 -0.0161948 -0.999858 
5.43248e-06 -0.00012326 -1 
1.83427e-06 -0.000167567 1 
0.00416978 -0.0166203 0.999853 
0.00653927 -0.0215178 0.999747 
0.00930297 -0.0214284 0.999727 
0.00994284 -0.0205342 0.99974 
0.0113149 -0.01859 0.999763 
0.0125671 -0.0154455 0.999802 
0.0128399 -0.012542 0.999839 
0.0131013 -0.00997457 0.999864 
0.0134174 -0.00757222 0.999881 
0.0137144 -0.00521208 0.999892 
0.0139204 -0.00279564 0.999899 
0.0140531 -0.00029694 0.999901 
0.0141336 0.00230534 0.999897 
0.0141529 0.00507656 0.999887 
0.0140999 0.00811588 0.999868 
0.0139907 0.0115549 0.999835 
0.0138272 0.0155644 0.999783 
0.013599 0.0203489 0.9997 
0.0133091 0.0261414 0.99957 
0.0129612 0.0332129 0.999364 
0.0125374 0.0419206 0.999042 
0.0120212 0.0526949 0.998538 
0.011427 0.0660186 0.997753 
0.01076 0.0825017 0.996533 
0.009995 0.102962 0.994635 
0.009125 0.128319 0.991691 
0.00816482 0.159617 0.987145 
0.00712954 0.198109 0.980154 
0.0060376 0.245207 0.969452 
0.00490997 0.302442 0.953155 
0.00377164 0.371337 0.92849 
0.00266281 0.452884 0.891565 
0.0016374 0.546806 0.837258 
0.000752667 0.65049 0.759515 
5.89416e-05 0.757489 0.652848 
-0.000438302 0.859135 0.511749 
-0.000734264 0.941756 0.336296 
-0.000857675 0.990964 0.134123 
-0.000874569 0.99682 -0.0796816 
-0.000875906 0.958149 -0.286268 
-0.00095643 0.882999 -0.469374 
-0.00119177 0.784863 -0.619668 
-0.00162147 0.677863 -0.735187 
-0.00224809 0.573092 -0.819488 
-0.00304833 0.477074 -0.878858 
-0.0039774 0.392624 -0.91969 
-0.00498063 0.320579 -0.947209 
-0.00601813 0.260426 -0.965475 
-0.00705038 0.210662 -0.977534 
-0.00803365 0.169853 -0.985437 
-0.00895216 0.136697 -0.990572 
-0.00980479 0.109834 -0.993902 
-0.0105716 0.0880568 -0.996059 
-0.0112235 0.0704401 -0.997453 
-0.0118719 0.0564332 -0.998336 
-0.0123785 0.0448136 -0.998919 
-0.0128206 0.0355204 -0.999287 
-0.0131892 0.0280314 -0.99952 
-0.0135038 0.0218154 -0.999671 
-0.0137071 0.0167661 -0.999765 
-0.0138909 0.012563 -0.999825 
-0.0140015 0.00896512 -0.999862 
-0.014054 0.00582918 -0.999884 
-0.0140587 0.0030072 -0.999897 
-0.0140285 0.000388334 -0.999902 
-0.0139854 -0.00210509 -0.9999 
-0.0138802 -0.00450439 -0.999894 
-0.0136583 -0.00684514 -0.999883 
-0.0133538 -0.00916866 -0.999869 
-0.0129099 -0.0114794 -0.999851 
-0.0122027 -0.0138743 -0.999829 
-0.0115957 -0.0163518 -0.999799 
-0.0114213 -0.0187995 -0.999758 
-0.00982607 -0.0206656 -0.999738 
-0.0081291 -0.0214785 -0.999736 
-0.00594025 -0.0210555 -0.999761 
-0.00381611 -0.0158048 -0.999868 
-9.95096e-06 -0.000167161 -1 
5.40274e-07 -0.000188738 1 
0.00342491 -0.016716 0.999854 
0.00517456 -0.0216639 0.999752 
0.00757161 -0.021742 0.999735 
0.00801143 -0.0210815 0.999746 
0.00882466 -0.0191168 0.999778 
0.010486 -0.01687 0.999803 
0.0106964 -0.0141795 0.999842 
0.0108237 -0.0116119 0.999874 
0.0110883 -0.00918019 0.999896 
0.011415 -0.00683091 0.999912 
0.0116932 -0.00445325 0.999922 
0.0118539 -0.00197556 0.999928 
0.0119587 0.000583906 0.999928 
0.0120236 0.00326697 0.999922 
0.0120145 0.00614768 0.999909 
0.0119364 0.00934221 0.999885 
0.0118154 0.012988 0.999846 
0.0116458 0.0172683 0.999783 
0.0114166 0.0224145 0.999684 
0.011132 0.0286623 0.999527 
0.0107968 0.0363045 0.999282 
0.0103855 0.0457301 0.9989 
0.00989143 0.0573982 0.998302 
0.0093393 0.0718115 0.997374 
0.00872532 0.0896385 0.995936 
0.00801981 0.111766 0.993702 
0.00722909 0.13915 0.990245 
0.00637528 0.172887 0.984921 
0.00547368 0.214303 0.976752 
0.00454182 0.264862 0.964276 
0.00359661 0.326105 0.945327 
0.00265707 0.399463 0.916746 
0.00175758 0.48558 0.874191 
0.000941995 0.583417 0.812172 
0.000254618 0.689059 0.724705 
-0.000271907 0.794489 0.607278 
-0.000639317 0.890331 0.455313 
-0.000843756 0.962611 0.270887 
-0.000914286 0.997976 0.0635793 
-0.00091027 0.988717 -0.149794 
-0.000909167 0.936663 -0.350231 
-0.0009869 0.852196 -0.523223 
-0.00119899 0.749531 -0.661968 
-0.00157023 0.642217 -0.766521 
-0.00209869 0.539975 -0.841678 
-0.00276347 0.447822 -0.894119 
-0.00352506 0.367621 -0.929969 
-0.00434456 0.299738 -0.954012 
-0.00520025 0.243339 -0.969927 
-0.00605148 0.196699 -0.980445 
-0.00686006 0.158501 -0.987335 
-0.0076282 0.12755 -0.991803 
-0.00835216 0.102451 -0.994703 
-0.00899543 0.0820339 -0.996589 
-0.0095192 0.0654801 -0.997808 
-0.0101705 0.0525695 -0.998565 
-0.0105702 0.041312 -0.99909 
-0.0109065 0.0328324 -0.999401 
-0.0113007 0.0255798 -0.999609 
-0.0114889 0.0198332 -0.999737 
-0.0116591 0.0150817 -0.999818 
-0.0118334 0.0111208 -0.999868 
-0.0119004 0.0076535 -0.9999 
-0.0119152 0.00462005 -0.999918 
-0.0118878 0.00188393 -0.999928 
-0.0118715 -0.000702797 -0.999929 
-0.0118439 -0.00314755 -0.999925 
-0.0117536 -0.00549807 -0.999916 
-0.0114941 -0.00779153 -0.999904 
-0.011112 -0.0100727 -0.999888 
-0.0105471 -0.0124985 -0.999866 
-0.00969561 -0.0152608 -0.999837 
-0.00991516 -0.0180786 -0.999787 
-0.00899174 -0.02005 -0.999759 
-0.0074069 -0.021233 -0.999747 
-0.00588335 -0.0218682 -0.999744 
-0.00329331 -0.0166496 -0.999856 
1.03401e-05 -0.000186864 -1 
1.89291e-06 -0.000202231 1 
0.00268925 -0.0168013 0.999855 
0.00403526 -0.0218409 0.999753 
0.00596298 -0.0219207 0.999742 
0.00660078 -0.0209172 0.999759 
0.0069899 -0.0187414 0.9998 
0.0085679 -0.0163843 0.999829 
0.00867033 -0.0135747 0.99987 
0.0088768 -0.0109662 0.9999 
0.00916615 -0.0085341 0.999922 
0.00949435 -0.00616269 0.999936 
0.00973382 -0.00371074 0.999946 
0.00983356 -0.00116524 0.999951 
0.00992983 0.00145189 0.99995 
0.00997323 0.00419971 0.999941 
0.00994379 0.0071915 0.999925 
0.00985428 0.010543 0.999896 
0.00973515 0.0143778 0.999849 
0.00957928 0.018941 0.999775 
0.00936048 0.0244508 0.999657 
0.00909791 0.0311528 0.999473 
0.00878819 0.039361 0.999186 
0.00840645 0.049501 0.998739 
0.00795964 0.0620327 0.998042 
0.007472 0.0774899 0.996965 
0.00692595 0.0966151 0.995298 
0.00629881 0.120347 0.992712 
0.00561039 0.149622 0.988727 
0.00488348 0.185556 0.982622 
0.00413063 0.229497 0.973301 
0.00336692 0.28283 0.959164 
0.00260467 0.346944 0.937882 
0.00185836 0.423041 0.906109 
0.00115582 0.511253 0.859429 
0.000527388 0.610115 0.792313 
1.42167e-06 0.715444 0.69867 
-0.000402824 0.819238 0.573453 
-0.000680082 0.911255 0.411842 
-0.000825062 0.975991 0.217811 
-0.000864417 0.999992 0.00392566 
-0.000851956 0.977626 -0.210349 
-0.000854253 0.913996 -0.405723 
-0.000930822 0.821848 -0.569707 
-0.0011203 0.715979 -0.698121 
-0.00143735 0.609308 -0.792932 
-0.00187788 0.509983 -0.860182 
-0.00242264 0.421547 -0.906803 
-0.00303859 0.345238 -0.93851 
-0.00370218 0.281159 -0.959654 
-0.00440137 0.228114 -0.973625 
-0.00509284 0.184095 -0.982895 
-0.00574758 0.148136 -0.98895 
-0.00638513 0.119172 -0.992853 
-0.00699255 0.0955191 -0.995403 
-0.00751984 0.076055 -0.997075 
-0.00791175 0.060211 -0.998154 
-0.00868895 0.0483554 -0.998792 
-0.00871499 0.0380283 -0.999239 
-0.00925541 0.0295031 -0.999522 
-0.00939904 0.0230061 -0.999691 
-0.0095602 0.0176516 -0.999798 
-0.00968064 0.0132281 -0.999866 
-0.00987528 0.00952093 -0.999906 
-0.00986502 0.00609911 -0.999933 
-0.009791 0.00321907 -0.999947 
-0.0097895 0.000512393 -0.999952 
-0.00973525 -0.00201595 -0.999951 
-0.00970932 -0.00434726 -0.999943 
-0.00961033 -0.00650378 -0.999933 
-0.00929638 -0.00861393 -0.99992 
-0.00894427 -0.0108511 -0.999901 
-0.00842274 -0.0133352 -0.999876 
-0.00766401 -0.016122 -0.999841 
-0.00810602 -0.0184471 -0.999797 
-0.00689654 -0.0205954 -0.999764 
-0.00535576 -0.021604 -0.999752 
-0.00415869 -0.0212082 -0.999766 
-0.00227943 -0.0158098 -0.999872 
-1.02395e-05 -0.000204667 -1 