# vtk DataFile Version 3.0 
Exported using Morpho https://github.com/Morpho-lang/morpho 
ASCII 
DATASET UNSTRUCTURED_GRID 

POINTS 2054 float 
-8.48528 -2.82843 0 
-8.20636 -2.82843 0 
-7.94054 -2.82843 0 
-7.6904 -2.82843 0 
-7.45357 -2.82843 0 
-7.22694 -2.82843 0 
-7.00705 -2.82843 0 
-6.79111 -2.82843 0 
-6.57731 -2.82843 0 
-6.36453 -2.82843 0 
-6.15219 -2.82843 0 
-5.94 -2.82843 0 
-5.72786 -2.82843 0 
-5.51573 -2.82843 0 
-5.3036 -2.82843 0 
-5.09147 -2.82843 0 
-4.87933 -2.82843 0 
-4.6672 -2.82843 0 
-4.45507 -2.82843 0 
-4.24294 -2.82843 0 
-4.03081 -2.82843 0 
-3.81867 -2.82843 0 
-3.60654 -2.82843 0 
-3.39441 -2.82843 0 
-3.18228 -2.82843 0 
-2.97015 -2.82843 0 
-2.75801 -2.82843 0 
-2.54588 -2.82843 0 
-2.33375 -2.82843 0 
-2.12162 -2.82843 0 
-1.90949 -2.82843 0 
-1.69735 -2.82843 0 
-1.48522 -2.82843 0 
-1.27309 -2.82843 0 
-1.06096 -2.82843 0 
-0.848825 -2.82843 0 
-0.636693 -2.82843 0 
-0.424561 -2.82843 0 
-0.212429 -2.82843 0 
-0.000296761 -2.82843 0 
0.211835 -2.82843 0 
0.423967 -2.82843 0 
0.636099 -2.82843 0 
0.848231 -2.82843 0 
1.06036 -2.82843 0 
1.2725 -2.82843 0 
1.48463 -2.82843 0 
1.69676 -2.82843 0 
1.90889 -2.82843 0 
2.12102 -2.82843 0 
2.33316 -2.82843 0 
2.54529 -2.82843 0 
2.75742 -2.82843 0 
2.96955 -2.82843 0 
3.18168 -2.82843 0 
3.39382 -2.82843 0 
3.60595 -2.82843 0 
3.81808 -2.82843 0 
4.03021 -2.82843 0 
4.24234 -2.82843 0 
4.45448 -2.82843 0 
4.66661 -2.82843 0 
4.87874 -2.82843 0 
5.09087 -2.82843 0 
5.303 -2.82843 0 
5.51514 -2.82843 0 
5.72727 -2.82843 0 
5.93941 -2.82843 0 
6.15159 -2.82843 0 
6.36393 -2.82843 0 
6.57672 -2.82843 0 
6.79055 -2.82843 0 
7.00652 -2.82843 0 
7.22647 -2.82843 0 
7.45313 -2.82843 0 
7.69005 -2.82843 0 
7.9403 -2.82843 0 
8.20621 -2.82843 0 
8.48528 -2.82843 0 
-8.48528 -2.5495 0 
-8.30526 -2.64845 0 
-8.07062 -2.59995 0 
-7.83904 -2.59637 0 
-7.59595 -2.59733 0 
-7.36578 -2.59177 0 
-7.13796 -2.5933 0 
-6.90908 -2.59428 0 
-6.68421 -2.5916 0 
-6.46568 -2.58832 0 
-6.24926 -2.58859 0 
-6.03358 -2.58941 0 
-5.81848 -2.59013 0 
-5.60402 -2.59075 0 
-5.39005 -2.59135 0 
-5.17642 -2.59186 0 
-4.96311 -2.59223 0 
-4.75009 -2.59242 0 
-4.53736 -2.59244 0 
-4.32497 -2.59236 0 
-4.1128 -2.59242 0 
-3.90059 -2.59259 0 
-3.68835 -2.5926 0 
-3.47627 -2.59248 0 
-3.26428 -2.59251 0 
-3.05216 -2.59271 0 
-2.83986 -2.59283 0 
-2.62755 -2.59274 0 
-2.41539 -2.59253 0 
-2.20336 -2.59238 0 
-1.99135 -2.59238 0 
-1.77924 -2.59246 0 
-1.56704 -2.59244 0 
-1.35495 -2.59215 0 
-1.14319 -2.59183 0 
-0.931581 -2.59195 0 
-0.719663 -2.59256 0 
-0.507197 -2.59324 0 
-0.294425 -2.59354 0 
-0.0817689 -2.59344 0 
0.130587 -2.59325 0 
0.342804 -2.59322 0 
0.555051 -2.59322 0 
0.767233 -2.59303 0 
0.97919 -2.59278 0 
1.19107 -2.59278 0 
1.40311 -2.59289 0 
1.61524 -2.59286 0 
1.82732 -2.59279 0 
2.03943 -2.59281 0 
2.25163 -2.5928 0 
2.46381 -2.59266 0 
2.67591 -2.59254 0 
2.88801 -2.59237 0 
3.10001 -2.59226 0 
3.31203 -2.59216 0 
3.52402 -2.59207 0 
3.73601 -2.59208 0 
3.94815 -2.59221 0 
4.16052 -2.5923 0 
4.37309 -2.59232 0 
4.58593 -2.59227 0 
4.79921 -2.5922 0 
5.01319 -2.59212 0 
5.22833 -2.5921 0 
5.44534 -2.59239 0 
5.6657 -2.59346 0 
5.89185 -2.59569 0 
6.12685 -2.59429 0 
6.36853 -2.59189 0 
6.6108 -2.57787 0 
6.84491 -2.61411 0 
7.08804 -2.58476 0 
7.34858 -2.60369 0 
7.58803 -2.59327 0 
7.83059 -2.59326 0 
8.06387 -2.59199 0 
8.30038 -2.64348 0 
8.48528 -2.54936 0 
-8.48528 -2.28369 0 
-8.25701 -2.4138 0 
-8.01078 -2.35334 0 
-7.73666 -2.37963 0 
-7.49744 -2.35565 0 
-7.26898 -2.35831 0 
-7.03324 -2.36676 0 
-6.7997 -2.36275 0 
-6.5773 -2.35166 0 
-6.35808 -2.3495 0 
-6.14038 -2.35058 0 
-5.92336 -2.35185 0 
-5.70723 -2.35272 0 
-5.49199 -2.35362 0 
-5.27734 -2.35447 0 
-5.0632 -2.35505 0 
-4.84958 -2.35534 0 
-4.63641 -2.35533 0 
-4.42363 -2.35504 0 
-4.21126 -2.35485 0 
-3.99909 -2.35513 0 
-3.78684 -2.3554 0 
-3.57461 -2.35516 0 
-3.36263 -2.35498 0 
-3.15066 -2.35537 0 
-2.93843 -2.35586 0 
-2.72604 -2.35589 0 
-2.51374 -2.35551 0 
-2.30162 -2.35509 0 
-2.08964 -2.35496 0 
-1.87761 -2.35518 0 
-1.66544 -2.3554 0 
-1.45322 -2.35518 0 
-1.2412 -2.35438 0 
-1.02967 -2.35407 0 
-0.818162 -2.35505 0 
-0.606054 -2.35676 0 
-0.393243 -2.3579 0 
-0.180256 -2.35789 0 
0.0323765 -2.35727 0 
0.244686 -2.35692 0 
0.456926 -2.35692 0 
0.669206 -2.35667 0 
0.881318 -2.35598 0 
1.09315 -2.35559 0 
1.305 -2.35583 0 
1.51709 -2.35595 0 
1.72919 -2.35571 0 
1.9412 -2.35566 0 
2.15334 -2.3558 0 
2.36559 -2.3556 0 
2.57772 -2.35522 0 
2.78976 -2.35507 0 
3.0019 -2.35461 0 
3.21373 -2.35451 0 
3.42571 -2.35439 0 
3.63769 -2.35431 0 
3.84965 -2.35453 0 
4.06183 -2.35491 0 
4.27435 -2.35507 0 
4.48707 -2.35507 0 
4.70017 -2.35506 0 
4.91376 -2.35498 0 
5.12819 -2.35502 0 
5.34378 -2.35528 0 
5.56106 -2.35662 0 
5.78097 -2.35971 0 
6.00401 -2.36251 0 
6.2308 -2.3624 0 
6.45748 -2.35551 0 
6.68075 -2.33423 0 
6.88797 -2.39744 0 
7.05313 -2.27289 0 
7.24377 -2.40237 0 
7.48542 -2.36016 0 
7.73055 -2.36599 0 
7.99177 -2.33552 0 
8.24864 -2.40698 0 
8.48528 -2.28345 0 
-8.48528 -2.03355 0 
-8.25312 -2.18214 0 
-8.03669 -2.07913 0 
-7.83956 -2.18231 0 
-7.6106 -2.12852 0 
-7.38852 -2.10959 0 
-7.16268 -2.14097 0 
-6.9229 -2.1435 0 
-6.70119 -2.12055 0 
-6.48111 -2.11285 0 
-6.26282 -2.11284 0 
-6.045 -2.1151 0 
-5.82775 -2.11658 0 
-5.61153 -2.11776 0 
-5.3962 -2.1192 0 
-5.18144 -2.1203 0 
-4.96732 -2.12084 0 
-4.75387 -2.12105 0 
-4.54086 -2.12091 0 
-4.32822 -2.12045 0 
-4.11596 -2.12045 0 
-3.90382 -2.12107 0 
-3.69156 -2.12116 0 
-3.47938 -2.12058 0 
-3.26746 -2.12068 0 
-3.05542 -2.12154 0 
-2.84307 -2.12198 0 
-2.63064 -2.12162 0 
-2.41836 -2.12087 0 
-2.20626 -2.12031 0 
-1.99426 -2.12034 0 
-1.78217 -2.1207 0 
-1.56989 -2.12074 0 
-1.35755 -2.11993 0 
-1.14542 -2.11838 0 
-0.934012 -2.11859 0 
-0.722404 -2.12089 0 
-0.509943 -2.12344 0 
-0.296911 -2.12431 0 
-0.0840921 -2.12359 0 
0.128295 -2.12281 0 
0.340414 -2.12274 0 
0.552564 -2.12288 0 
0.76478 -2.12226 0 
0.976792 -2.1213 0 
1.18855 -2.12128 0 
1.40042 -2.12188 0 
1.61256 -2.12177 0 
1.82458 -2.12141 0 
2.03655 -2.12164 0 
2.24875 -2.12174 0 
2.46099 -2.12114 0 
2.67302 -2.12065 0 
2.88504 -2.12054 0 
3.09728 -2.1194 0 
3.30873 -2.11968 0 
3.52086 -2.1195 0 
3.7329 -2.11938 0 
3.94484 -2.11986 0 
4.15715 -2.12044 0 
4.36983 -2.12035 0 
4.58282 -2.1204 0 
4.79606 -2.12017 0 
5.01004 -2.12012 0 
5.22483 -2.12002 0 
5.44073 -2.12051 0 
5.6582 -2.123 0 
5.8782 -2.12696 0 
6.10217 -2.12971 0 
6.33095 -2.12707 0 
6.567 -2.11601 0 
6.82301 -2.12303 0 
7.06572 -2.04567 0 
7.29733 -2.17484 0 
7.54632 -2.11408 0 
7.79371 -2.13741 0 
8.02274 -2.07453 0 
8.25027 -2.1738 0 
8.48528 -2.0332 0 
-8.48528 -1.79671 0 
-8.25436 -1.93882 0 
-8.01299 -1.83977 0 
-7.78596 -1.953 0 
-7.5297 -1.87194 0 
-7.2756 -1.88722 0 
-7.05707 -1.93544 0 
-6.84369 -1.89677 0 
-6.62219 -1.88079 0 
-6.40169 -1.87606 0 
-6.18206 -1.87854 0 
-5.96274 -1.881 0 
-5.74458 -1.88208 0 
-5.52796 -1.88344 0 
-5.31232 -1.88506 0 
-5.09736 -1.88569 0 
-4.88338 -1.88564 0 
-4.67019 -1.88555 0 
-4.45737 -1.88507 0 
-4.24485 -1.88447 0 
-4.03271 -1.88482 0 
-3.82061 -1.88562 0 
-3.60832 -1.88529 0 
-3.39617 -1.88464 0 
-3.18427 -1.88547 0 
-2.97209 -1.88672 0 
-2.7596 -1.88684 0 
-2.54714 -1.88601 0 
-2.33483 -1.88505 0 
-2.12268 -1.8846 0 
-1.91058 -1.885 0 
-1.69824 -1.88561 0 
-1.48561 -1.88547 0 
-1.27286 -1.88413 0 
-1.06032 -1.88216 0 
-0.848858 -1.8839 0 
-0.636875 -1.88781 0 
-0.424169 -1.89034 0 
-0.211518 -1.89004 0 
0.000731944 -1.88866 0 
0.21257 -1.88788 0 
0.424308 -1.88807 0 
0.636257 -1.88793 0 
0.848362 -1.88664 0 
1.06025 -1.88556 0 
1.27191 -1.88605 0 
1.48381 -1.88664 0 
1.69595 -1.886 0 
1.90782 -1.88577 0 
2.11974 -1.88637 0 
2.33202 -1.88609 0 
2.54419 -1.88502 0 
2.75607 -1.88472 0 
2.96812 -1.88462 0 
3.18055 -1.88217 0 
3.39117 -1.88415 0 
3.60398 -1.8838 0 
3.81618 -1.88366 0 
4.02827 -1.88469 0 
4.24071 -1.88523 0 
4.4544 -1.88509 0 
4.66716 -1.88476 0 
4.88099 -1.88493 0 
5.09545 -1.88466 0 
5.31057 -1.88453 0 
5.52653 -1.88564 0 
5.7436 -1.88981 0 
5.96352 -1.89563 0 
6.18733 -1.89813 0 
6.41543 -1.89522 0 
6.65059 -1.89622 0 
6.87542 -1.86913 0 
7.11122 -1.81621 0 
7.31223 -1.94975 0 
7.53264 -1.87683 0 
7.77077 -1.89068 0 
8.01717 -1.8297 0 
8.25014 -1.93148 0 
8.48528 -1.79628 0 
-8.48528 -1.57009 0 
-8.24868 -1.70836 0 
-8.015 -1.61096 0 
-7.76734 -1.73071 0 
-7.54593 -1.61782 0 
-7.32306 -1.66278 0 
-7.05152 -1.7082 0 
-6.79786 -1.66675 0 
-6.56099 -1.64764 0 
-6.33267 -1.64541 0 
-6.10856 -1.64921 0 
-5.88638 -1.65073 0 
-5.66697 -1.65153 0 
-5.44986 -1.65353 0 
-5.23379 -1.65525 0 
-5.01882 -1.6551 0 
-4.80519 -1.6548 0 
-4.59235 -1.65478 0 
-4.37976 -1.65422 0 
-4.16737 -1.65386 0 
-3.95537 -1.65471 0 
-3.74326 -1.6554 0 
-3.5309 -1.65455 0 
-3.31876 -1.65426 0 
-3.10682 -1.65593 0 
-2.89443 -1.65705 0 
-2.68177 -1.65644 0 
-2.46924 -1.65516 0 
-2.25682 -1.65408 0 
-2.04447 -1.65386 0 
-1.83202 -1.65455 0 
-1.61911 -1.65506 0 
-1.40572 -1.65429 0 
-1.19212 -1.65207 0 
-0.97885 -1.64982 0 
-0.767325 -1.65372 0 
-0.555434 -1.6581 0 
-0.343588 -1.65935 0 
-0.132061 -1.65818 0 
0.0792288 -1.65687 0 
0.290417 -1.65682 0 
0.501823 -1.6575 0 
0.713729 -1.65709 0 
0.925861 -1.65545 0 
1.13768 -1.65488 0 
1.34929 -1.65604 0 
1.56128 -1.6563 0 
1.77337 -1.65516 0 
1.985 -1.65561 0 
2.19698 -1.65642 0 
2.40939 -1.65525 0 
2.62143 -1.65394 0 
2.83323 -1.65414 0 
3.04553 -1.65355 0 
3.25842 -1.64868 0 
3.46746 -1.65522 0 
3.68272 -1.65284 0 
3.89574 -1.65288 0 
4.10731 -1.65378 0 
4.32287 -1.65565 0 
4.53627 -1.65249 0 
4.74932 -1.65397 0 
4.96428 -1.65355 0 
5.17935 -1.65257 0 
5.3944 -1.65202 0 
5.60927 -1.65354 0 
5.82513 -1.66019 0 
6.04295 -1.66711 0 
6.26383 -1.66843 0 
6.48537 -1.66776 0 
6.70098 -1.65646 0 
6.91299 -1.6206 0 
7.11709 -1.6046 0 
7.3526 -1.69716 0 
7.60698 -1.65764 0 
7.8325 -1.64214 0 
8.05985 -1.58842 0 
8.2608 -1.69223 0 
8.48528 -1.56961 0 
-8.48528 -1.35019 0 
-8.24958 -1.48044 0 
-8.0219 -1.3751 0 
-7.79713 -1.50391 0 
-7.58956 -1.39834 0 
-7.36199 -1.38754 0 
-7.16079 -1.49923 0 
-6.93764 -1.46284 0 
[...]
POINT_DATA 2054 
VECTORS vectors float
0.00786711 -0.00901462 0.99993 
0.00995078 -0.020872 0.999732 
0.00948555 -0.023361 0.999682 
0.00965473 -0.0228714 0.999692 
0.00909882 -0.0207626 0.999743 
0.00894413 -0.0180668 0.999797 
0.00885361 -0.0155265 0.99984 
0.00882118 -0.0131629 0.999874 
0.00880542 -0.0108009 0.999903 
0.008798 -0.00837342 0.999926 
0.00879592 -0.00590978 0.999944 
0.00879848 -0.00345087 0.999955 
0.00880142 -0.00101104 0.999961 
0.00880065 0.001443 0.99996 
0.0087935 0.00399119 0.999953 
0.00877853 0.00674565 0.999939 
0.0087545 0.00984087 0.999913 
0.00872006 0.0134319 0.999872 
0.00867357 0.0177001 0.999806 
0.00861247 0.0228609 0.999701 
0.00853375 0.0291729 0.999538 
0.00843383 0.0369497 0.999281 
0.00830816 0.0465725 0.99888 
0.00815057 0.0585089 0.998254 
0.00795315 0.073331 0.997276 
0.00770674 0.0917382 0.995753 
0.00739993 0.114583 0.993386 
0.00701874 0.142889 0.989714 
0.00654674 0.177874 0.984032 
0.00596571 0.220942 0.975269 
0.00525808 0.273639 0.961818 
0.00441142 0.337522 0.941308 
0.00342748 0.413845 0.910341 
0.00233622 0.503032 0.864265 
0.00121374 0.603761 0.797165 
0.000195924 0.711765 0.702418 
-0.000533749 0.818683 0.574245 
-0.000806833 0.911894 0.410425 
-0.000578542 0.976523 0.215413 
-1.2408e-05 0.999998 0.00180041 
0.000557557 0.977272 -0.211989 
0.00079516 0.913218 -0.40747 
0.00053231 0.820322 -0.571901 
-0.000189685 0.713476 -0.70068 
-0.00120337 0.605376 -0.795939 
-0.00232459 0.504454 -0.863436 
-0.00341642 0.415047 -0.909794 
-0.00440177 0.338508 -0.940953 
-0.00524989 0.274437 -0.961591 
-0.00595885 0.221578 -0.975125 
-0.00654111 0.178374 -0.983941 
-0.0070143 0.143283 -0.989657 
-0.00739641 0.114892 -0.99335 
-0.00770384 0.0919812 -0.995731 
-0.0079506 0.0735219 -0.997262 
-0.00814832 0.0586591 -0.998245 
-0.0083064 0.046692 -0.998875 
-0.00843235 0.0370456 -0.999278 
-0.00853214 0.0292514 -0.999536 
-0.00861075 0.0229262 -0.9997 
-0.00867181 0.0177551 -0.999805 
-0.00871814 0.013479 -0.999871 
-0.00875204 0.00988156 -0.999913 
-0.00877507 0.00678085 -0.999938 
-0.00878873 0.00402206 -0.999953 
-0.00879374 0.00147266 -0.99996 
-0.00879041 -0.000977611 -0.999961 
-0.00877992 -0.0034065 -0.999956 
-0.00877055 -0.00585615 -0.999944 
-0.00877331 -0.00829363 -0.999927 
-0.00879873 -0.0106675 -0.999904 
-0.00879258 -0.0130134 -0.999877 
-0.00884173 -0.0153158 -0.999843 
-0.00892699 -0.0178422 -0.999801 
-0.0090828 -0.0205007 -0.999748 
-0.00965278 -0.0225298 -0.999699 
-0.00947977 -0.0229973 -0.999691 
-0.0099359 -0.0205573 -0.999739 
-0.00786024 -0.00897152 -0.99993 
0.00168094 -0.0136665 0.999907 
0.00491372 -0.0151432 0.999875 
0.00889132 -0.0217618 0.999724 
0.0100251 -0.0224254 0.999699 
0.0108827 -0.0213612 0.999713 
0.0116736 -0.0193061 0.999746 
0.0120675 -0.016769 0.999787 
0.0123353 -0.0141755 0.999824 
0.012639 -0.0116983 0.999852 
0.0128937 -0.0092874 0.999874 
0.013003 -0.00687098 0.999892 
0.0130802 -0.00444608 0.999905 
0.0131431 -0.00201756 0.999912 
0.0131833 0.000431721 0.999914 
0.0131952 0.00295611 0.999909 
0.0131802 0.005648 0.999898 
0.0131386 0.00862918 0.999877 
0.0130698 0.0120459 0.999843 
0.0129719 0.0160689 0.999787 
0.0128396 0.0208972 0.9997 
0.0126609 0.0267722 0.999562 
0.0124322 0.0339917 0.999345 
0.0121557 0.0429117 0.999005 
0.0118224 0.0539566 0.998474 
0.0114146 0.0676561 0.997644 
0.0109219 0.0846743 0.996349 
0.0103396 0.105815 0.994333 
0.00965877 0.132028 0.9912 
0.00886586 0.164429 0.98635 
0.00794918 0.20434 0.978868 
0.00690598 0.253261 0.967374 
0.00574723 0.312776 0.94981 
0.00450271 0.384287 0.923203 
0.00322649 0.468512 0.883452 
0.00199821 0.564768 0.825248 
0.000921367 0.670134 0.74224 
0.000108923 0.778278 0.62792 
-0.000353047 0.878388 0.477948 
-0.000452936 0.955892 0.293719 
-0.000283334 0.99638 0.0850123 
-2.36396e-05 0.99137 -0.131093 
0.000119034 0.942089 -0.335364 
-2.12431e-05 0.858693 -0.512491 
-0.00052004 0.755831 -0.654767 
-0.00135374 0.647423 -0.76213 
-0.00243166 0.543416 -0.83946 
-0.00364303 0.449439 -0.893304 
-0.00488842 0.367904 -0.929852 
-0.00609138 0.299059 -0.954216 
-0.00720337 0.241911 -0.970272 
-0.00820246 0.195 -0.98077 
-0.00908289 0.156799 -0.987589 
-0.00984444 0.125849 -0.992001 
-0.0104976 0.100842 -0.994848 
-0.0110506 0.0806858 -0.996679 
-0.0115163 0.064446 -0.997855 
-0.0119056 0.0513679 -0.998609 
-0.0122252 0.0408271 -0.999092 
-0.0124824 0.0323101 -0.9994 
-0.012689 0.0254027 -0.999597 
-0.0128511 0.0197687 -0.999722 
-0.012972 0.0151276 -0.999802 
-0.0130525 0.0112456 -0.999852 
-0.0130928 0.0079256 -0.999883 
-0.0130913 0.00499835 -0.999902 
-0.0130388 0.00231751 -0.999913 
-0.0129127 -0.000246839 -0.999917 
-0.0126803 -0.00280459 -0.999916 
-0.0124951 -0.00543247 -0.999908 
-0.0123445 -0.00809486 -0.999892 
-0.0126578 -0.0107274 -0.999863 
-0.0116677 -0.013354 -0.999843 
-0.0120597 -0.0159731 -0.9998 
-0.0111208 -0.0188867 -0.99976 
-0.0107899 -0.0209506 -0.999723 
-0.00990291 -0.0220281 -0.999709 
-0.00881817 -0.0214127 -0.999732 
-0.00489568 -0.0150801 -0.999876 
-0.00158683 -0.0136481 -0.999907 
0.000897356 -0.0124958 0.999923 
0.00657393 -0.0167346 0.999839 
0.0103478 -0.0216513 0.999713 
0.0125264 -0.0216147 0.999688 
0.013916 -0.0202138 0.999699 
0.0148011 -0.0180787 0.999727 
0.0153769 -0.0154128 0.999763 
0.0157907 -0.0127689 0.999794 
0.016087 -0.0103288 0.999818 
0.0162951 -0.00794222 0.999836 
0.0164627 -0.00556413 0.999849 
0.0165971 -0.00317013 0.999858 
0.0166923 -0.000741374 0.999861 
0.0167438 0.00175372 0.999859 
0.0167518 0.00438132 0.999851 
0.0167167 0.00724375 0.999834 
0.0166368 0.0104734 0.999807 
0.0165093 0.01423 0.999763 
0.016331 0.0187005 0.999692 
0.0160965 0.0241042 0.99958 
0.0157983 0.0307104 0.999404 
0.0154296 0.0388528 0.999126 
0.0149829 0.0489262 0.99869 
0.0144477 0.0614002 0.998009 
0.0138125 0.076876 0.996945 
0.0130654 0.0961037 0.995286 
0.0121954 0.119967 0.992703 
0.0111937 0.149498 0.988699 
0.0100564 0.185912 0.982515 
0.00878742 0.230611 0.973007 
0.00740085 0.285153 0.958454 
0.00592778 0.351052 0.936338 
0.00442286 0.429401 0.903104 
0.00296751 0.520242 0.854014 
0.00166362 0.621671 0.783277 
0.000609875 0.729155 0.684349 
-0.000113166 0.83423 0.551417 
-0.000470289 0.923928 0.382565 
-0.000508866 0.983017 0.183513 
-0.000367195 0.999506 -0.0314326 
-0.000234136 0.969975 -0.243206 
-0.000291806 0.900882 -0.434063 
-0.000666002 0.805441 -0.592676 
-0.001396 0.698416 -0.715691 
-0.00244089 0.591759 -0.806112 
-0.00371582 0.492909 -0.870073 
-0.00512146 0.405543 -0.914062 
-0.0065628 0.330851 -0.943661 
-0.00796639 0.268362 -0.963286 
-0.00928373 0.216758 -0.976182 
-0.0104853 0.174546 -0.984594 
-0.0115575 0.140264 -0.990047 
-0.0124991 0.112523 -0.993571 
-0.0133169 0.0901161 -0.995843 
-0.0140183 0.0720746 -0.997301 
-0.0146151 0.0575265 -0.998237 
-0.0151173 0.0458014 -0.998837 
-0.015534 0.0363397 -0.999219 
-0.0158741 0.028676 -0.999463 
-0.0161463 0.0224374 -0.999618 
-0.0163565 0.0173232 -0.999717 
-0.0165093 0.0130767 -0.999779 
-0.0166077 0.00948598 -0.999818 
-0.0166529 0.0063685 -0.999841 
-0.0166471 0.00357109 -0.999856 
-0.0165932 0.000967018 -0.999862 
-0.0164915 -0.00154164 -0.999863 
-0.0163474 -0.00401341 -0.999859 
-0.016162 -0.00648186 -0.999849 
-0.0159808 -0.00892552 -0.999833 
-0.0159337 -0.0113362 -0.999809 
-0.0152836 -0.0136293 -0.999791 
-0.0152932 -0.0154314 -0.999764 
-0.0146412 -0.0176517 -0.999737 
-0.0137753 -0.0197822 -0.99971 
-0.0122814 -0.0211259 -0.999702 
-0.0102021 -0.0212913 -0.999722 
-0.00655982 -0.0167178 -0.999839 
-0.000838764 -0.0124798 -0.999923 
0.000905265 -0.0126627 0.99992 
0.00560689 -0.0166669 0.999846 
0.00859012 -0.0213753 0.999735 
0.0111208 -0.0218024 0.999701 
0.0125326 -0.020765 0.999706 
0.0137007 -0.0191716 0.999723 
0.0147262 -0.0168358 0.99975 
0.0153528 -0.0140506 0.999784 
0.0156714 -0.0115625 0.999811 
0.0159596 -0.00917952 0.999831 
0.0162162 -0.00684038 0.999846 
0.0164277 -0.00449419 0.999855 
0.0165824 -0.00210178 0.999861 
0.0166824 0.00035981 0.999861 
0.0167303 0.00292728 0.999856 
0.0167249 0.00567703 0.999844 
0.0166654 0.00872127 0.999824 
0.0165513 0.0122031 0.999789 
0.0163794 0.0162969 0.999734 
0.0161456 0.0212053 0.999645 
0.0158466 0.0271667 0.999506 
0.015476 0.0344777 0.999286 
0.0150226 0.0435051 0.998941 
0.0144782 0.0546777 0.9984 
0.0138391 0.0685105 0.997555 
0.0130954 0.0856748 0.996238 
0.012234 0.106991 0.994185 
0.0112487 0.133405 0.990998 
0.0101409 0.166023 0.98607 
0.00891845 0.206136 0.978483 
0.0075976 0.255206 0.966857 
0.00620523 0.314784 0.949143 
0.00478459 0.386262 0.922377 
0.00339914 0.470355 0.882471 
0.0021279 0.56636 0.824156 
0.00105384 0.671033 0.741427 
0.0002323 0.778379 0.627795 
-0.000303595 0.878023 0.478619 
-0.000561247 0.955488 0.295029 
-0.000609439 0.996215 0.0869143 
-0.00056876 0.991689 -0.128655 
-0.00057957 0.943118 -0.332458 
-0.000768028 0.860566 -0.509339 
-0.00121649 0.758485 -0.65169 
-0.00194653 0.650703 -0.75933 
-0.00292904 0.547165 -0.83702 
-0.00410541 0.453393 -0.891302 
-0.00539972 0.371748 -0.928319 
-0.00673569 0.302651 -0.953078 
-0.00805388 0.24517 -0.969447 
-0.00930835 0.197854 -0.980188 
-0.0104665 0.159249 -0.987184 
-0.0115145 0.127943 -0.991715 
-0.0124487 0.102615 -0.994644 
-0.0132662 0.0821516 -0.996532 
-0.0139783 0.0657035 -0.997742 
-0.0145884 0.0524004 -0.99852 
-0.0151036 0.0416739 -0.999018 
-0.0155335 0.0330069 -0.999335 
-0.0158842 0.0259652 -0.999537 
-0.0161606 0.0202123 -0.999666 
-0.0163712 0.0154687 -0.999747 
-0.0165183 0.0115024 -0.999798 
-0.0166052 0.00810919 -0.99983 
-0.0166315 0.00512334 -0.999849 
-0.0165987 0.00240379 -0.99986 
-0.0165146 -0.000157133 -0.999864 
-0.0163845 -0.00263121 -0.999863 
-0.0161998 -0.00506559 -0.999856 
-0.0159515 -0.00750303 -0.999845 
-0.0156161 -0.0100109 -0.999828 
-0.0151896 -0.0127606 -0.999804 
-0.0143952 -0.0155439 -0.999776 
-0.0142004 -0.018098 -0.999736 
-0.012599 -0.0200029 -0.999721 
-0.0109392 -0.021165 -0.999717 
-0.00847516 -0.0210759 -0.999742 
-0.00547165 -0.0164574 -0.99985 
-0.000845161 -0.0126516 -0.99992 
0.000791485 -0.0125834 0.999921 
0.00472036 -0.0164748 0.999854 
0.0077625 -0.0215423 0.999738 
0.010391 -0.0214686 0.999716 
0.0117454 -0.0202201 0.999727 
0.0131412 -0.0180657 0.999751 
0.0142218 -0.0155977 0.999778 
0.0145 -0.0130892 0.99981 
0.0148036 -0.0106465 0.999834 
0.0151011 -0.00829281 0.999852 
0.0153842 -0.00596972 0.999864 
0.0156055 -0.00361075 0.999872 
0.0157574 -0.00117803 0.999876 
0.0158512 0.00134612 0.999874 
0.0158877 0.00400775 0.999866 
0.0158614 0.00689603 0.999851 
0.0157749 0.0101319 0.999825 
0.0156304 0.0138715 0.999782 
0.0154226 0.0183045 0.999714 
0.0151489 0.0236486 0.999606 
0.0148102 0.0301589 0.999436 
0.0143967 0.0381601 0.999168 
0.0138928 0.0480523 0.998749 
0.0132978 0.0602929 0.998093 
0.0126146 0.0754415 0.997071 
0.0118284 0.0942415 0.99548 
0.010927 0.117569 0.993005 
0.00991339 0.146421 0.989173 
0.00879737 0.181975 0.983264 
0.00759382 0.225583 0.974195 
0.00632474 0.278739 0.960347 
0.00501949 0.342993 0.939325 
0.00372319 0.419555 0.907723 
0.002497 0.508702 0.86094 
0.00140971 0.608884 0.793258 
0.000527048 0.715377 0.698738 
-0.000124731 0.820877 0.571105 
-0.000533257 0.913142 0.407642 
-0.000722564 0.977036 0.213071 
-0.000763149 0.999999 0.000340595 
-0.000759618 0.977265 -0.21202 
-0.000826461 0.913894 -0.405953 
-0.0010615 0.822172 -0.569239 
-0.0015232 0.716671 -0.69741 
-0.00222251 0.609895 -0.792479 
-0.00313417 0.509994 -0.860173 
-0.00420874 0.420993 -0.907055 
-0.0053812 0.344358 -0.938823 
-0.0065909 0.279984 -0.959983 
-0.00779011 0.226627 -0.973951 
-0.00893553 0.182795 -0.983111 
-0.00999852 0.147106 -0.989071 
-0.0109706 0.118191 -0.992931 
-0.0118445 0.0947827 -0.995428 
-0.0126071 0.0758592 -0.997039 
-0.0132911 0.0607013 -0.998068 
-0.0138723 0.0483506 -0.998735 
-0.0143646 0.0384062 -0.999159 
-0.0147794 0.0303566 -0.99943 
-0.0151138 0.0238013 -0.999603 
-0.015376 0.0184049 -0.999713 
-0.0155708 0.0139571 -0.999782 
-0.0157065 0.0101942 -0.999825 
-0.0157805 0.00694328 -0.999852 
-0.0157972 0.00404725 -0.999867 
-0.0157604 0.00137839 -0.999875 
-0.015678 -0.00115039 -0.999877 
-0.0155404 -0.00359655 -0.999873 
-0.0153194 -0.0059924 -0.999865 
-0.0150102 -0.00839336 -0.999853 
-0.01465 -0.010891 -0.999834 
-0.014076 -0.0133698 -0.999812 
-0.0131898 -0.0161511 -0.999783 
-0.0131803 -0.0183178 -0.999746 
-0.0116979 -0.0201561 -0.999729 
-0.00994615 -0.021056 -0.999729 
-0.00747804 -0.0212848 -0.999746 
-0.00463632 -0.0163736 -0.999856 
-0.000766707 -0.0125562 -0.999921 
0.000645855 -0.0125182 0.999921 
0.00419617 -0.0167989 0.999851 
0.00657389 -0.021677 0.999744 
0.00933878 -0.0214822 0.999726 
0.00997645 -0.0205908 0.999739 
0.0113506 -0.0186368 0.999762 
0.0126041 -0.0154659 0.999802 
0.0128736 -0.0125549 0.999839 
0.0131327 -0.00998581 0.999864 
0.0134487 -0.00758201 0.999881 
0.0137464 -0.00522095 0.999892 
0.0139527 -0.00280243 0.999899 
0.0140854 -0.000300911 0.999901 
0.0141658 0.00230336 0.999897 
0.0141849 0.00507537 0.999887 
0.0141316 0.00811474 0.999868 
0.0140221 0.0115534 0.999835 
0.0138582 0.0155626 0.999783 
0.0136296 0.0203467 0.999701 
0.0133391 0.0261386 0.99957 
0.0129907 0.0332095 0.999364 
0.0125661 0.0419167 0.999043 
0.012049 0.0526903 0.998539 
0.0114537 0.0660133 0.997753 
0.0107857 0.0824956 0.996534 
0.0100193 0.102955 0.994636 
0.00914765 0.128312 0.991692 
0.00818555 0.159608 0.987147 
0.00714812 0.1981 0.980156 
0.00605382 0.245198 0.969455 
0.00492364 0.302432 0.953159 
0.00378254 0.371328 0.928495 
0.00267086 0.452875 0.89157 
0.00164272 0.546799 0.837263 
0.000755675 0.650484 0.75952 
6.02778e-05 0.757485 0.652853 
-0.000438 0.859132 0.511753 
-0.000734387 0.941755 0.336298 
-0.000857779 0.990964 0.134124 
-0.000874471 0.99682 -0.0796823 
-0.000875711 0.958148 -0.286271 
-0.000956518 0.882997 -0.469378 
-0.00119273 0.784859 -0.619673 
-0.00162397 0.677857 -0.735192 
-0.00225273 0.573085 -0.819494 
-0.00305559 0.477066 -0.878863 
-0.00398749 0.392615 -0.919695 
-0.0049935 0.320569 -0.947213 
-0.00603368 0.260416 -0.965478 
-0.0070684 0.210653 -0.977536 
-0.00805377 0.169845 -0.985438 
-0.00897411 0.13669 -0.990574 
-0.00982842 0.109827 -0.993903 
-0.0105966 0.0880505 -0.99606 
-0.0112495 0.0704346 -0.997453 
-0.0118994 0.0564284 -0.998336 
-0.0124068 0.0448095 -0.998919 
-0.0128497 0.0355169 -0.999287 
-0.0132191 0.0280285 -0.99952 
-0.0135344 0.021813 -0.999671 
-0.0137379 0.0167642 -0.999766 
-0.0139222 0.0125615 -0.999825 
-0.0140331 0.00896393 -0.999862 
-0.0140859 0.00582807 -0.999884 
-0.0140911 0.00300552 -0.999897 
-0.0140616 0.000385005 -0.999902 
-0.0140195 -0.00211111 -0.9999 
-0.013915 -0.00451281 -0.999893 
-0.0136931 -0.00685458 -0.999883 
-0.0133881 -0.00917928 -0.999869 
-0.0129433 -0.0114915 -0.999851 
-0.0122336 -0.0138882 -0.999829 
-0.0116258 -0.0163765 -0.999799 
-0.0114613 -0.0188502 -0.999757 
-0.00986269 -0.0207174 -0.999737 
-0.00815845 -0.0215454 -0.999735 
-0.00597978 -0.0212544 -0.999757 
-0.00383437 -0.0159569 -0.999866 
-0.000676732 -0.0124788 -0.999922 
0.000492868 -0.0124986 0.999922 
0.00344363 -0.01689 0.999852 
0.00519452 -0.0218292 0.999749 
0.00759244 -0.021802 0.999734 
0.00802812 -0.0211393 0.999745 
0.00884021 -0.019167 0.999778 
0.0105069 -0.0168993 0.999802 
0.0107141 -0.0141948 0.999842 
0.0108392 -0.0116241 0.999874 
0.0111037 -0.00919114 0.999897 
0.0114313 -0.00684113 0.999912 
0.0117102 -0.00446225 0.999922 
0.011871 -0.00198172 0.999928 
0.0119756 0.000580665 0.999929 
0.0120405 0.00326542 0.999923 
0.0120313 0.00614669 0.999909 
0.011953 0.00934118 0.999885 
0.0118318 0.0129868 0.999846 
0.011662 0.0172668 0.999783 
0.0114324 0.0224126 0.999684 
0.0111474 0.02866 0.999528 
0.0108118 0.0363018 0.999283 
0.0104 0.045727 0.9989 
0.00990521 0.0573945 0.998303 
0.00935235 0.0718073 0.997375 
0.00873762 0.0896338 0.995937 
0.00803122 0.111761 0.993703 
0.00723946 0.139144 0.990246 
0.00638454 0.172881 0.984923 
0.0054818 0.214297 0.976754 
0.00454877 0.264856 0.964278 
0.00360236 0.326099 0.945329 
0.00266157 0.399457 0.916749 
0.00176083 0.485574 0.874194 
0.000944106 0.583412 0.812176 
0.000255821 0.689055 0.724709 
-0.000271336 0.794487 0.607282 
-0.000639128 0.89033 0.455316 
-0.00084372 0.96261 0.270889 
-0.000914258 0.997976 0.0635797 
-0.000910216 0.988716 -0.149795 
-0.000909165 0.936662 -0.350234 
-0.000987137 0.852193 -0.523226 
-0.00119973 0.749528 -0.661972 
-0.00157174 0.642212 -0.766526 
-0.0021012 0.53997 -0.841682 
-0.00276718 0.447816 -0.894122 
-0.00353002 0.367615 -0.929972 
-0.00435075 0.299731 -0.954014 
-0.00520769 0.243333 -0.969929 
-0.00606011 0.196693 -0.980447 
-0.00686971 0.158495 -0.987336 
-0.00763885 0.127545 -0.991804 
-0.00836384 0.102446 -0.994704 
-0.00900796 0.0820295 -0.99659 
-0.00953221 0.0654762 -0.997809 
-0.0101849 0.052566 -0.998566 
-0.0105849 0.041309 -0.999091 
-0.0109216 0.0328299 -0.999402 
-0.0113166 0.0255777 -0.999609 
-0.0115048 0.0198315 -0.999738 
-0.0116752 0.0150804 -0.999819 
-0.0118499 0.0111197 -0.999868 
-0.011917 0.00765256 -0.9999 
-0.0119318 0.00461891 -0.999919 
-0.0119045 0.00188172 -0.999928 
-0.0118887 -0.000707377 -0.99993 
-0.0118615 -0.00315521 -0.999925 
-0.0117715 -0.00550781 -0.999916 
-0.0115115 -0.00780193 -0.999904 
-0.0111284 -0.0100843 -0.999888 
-0.0105622 -0.0125113 -0.999866 
-0.00970877 -0.0152789 -0.999837 
-0.00993403 -0.0181191 -0.999787 
-0.00901296 -0.0201078 -0.999758 
-0.0074227 -0.0212773 -0.999747 
-0.00589839 -0.0219793 -0.999742 
-0.0033104 -0.0168194 -0.999854 
-0.000456599 -0.0124561 -0.999922 
0.000375476 -0.0124979 0.999922 
0.00270123 -0.0169725 0.999853 
0.00404741 -0.022003 0.99975 
0.00597199 -0.0219803 0.999741 
0.00661142 -0.0209771 0.999759 
0.00699944 -0.018786 0.9998 
0.0085784 -0.0164089 0.999829 
0.00868001 -0.0135887 0.999871 
0.00888676 -0.0109783 0.999901 
0.00917692 -0.00854528 0.999922 
0.00950596 -0.00617333 0.999936 
0.00974581 -0.00371934 0.999946 
0.00984556 -0.00117046 0.999951 
0.00994182 0.00144937 0.99995 
0.00998521 0.0041985 0.999942 
0.0099557 0.00719063 0.999925 
0.00986607 0.0105421 0.999896 
0.00974679 0.0143766 0.99985 
0.00959072 0.0189396 0.999775 
0.00937166 0.0244491 0.999658 
0.00910876 0.0311508 0.999474 
0.00879866 0.0393586 0.999187 
0.00841643 0.0494983 0.998739 
0.00796905 0.0620296 0.998043 
0.00748079 0.0774865 0.996966 
0.00693405 0.0966112 0.995299 
0.00630614 0.120343 0.992713 
0.00561691 0.149618 0.988729 
0.00488919 0.185551 0.982623 
0.00413554 0.229492 0.973302 
0.00337104 0.282825 0.959166 
0.00260803 0.34694 0.937884 
0.00186098 0.423037 0.906111 
0.00115774 0.511249 0.859432 
0.000528706 0.610111 0.792316 
2.24278e-06 0.715441 0.698673 
-0.000402367 0.819236 0.573456 
-0.000679858 0.911254 0.411845 
-0.000824957 0.97599 0.217813 
-0.000864364 0.999992 0.00392565 
-0.000851956 0.977626 -0.21035 
-0.000854373 0.913995 -0.405725 
-0.00093118 0.821846 -0.56971 
-0.00112104 0.715976 -0.698125 
-0.0014386 0.609304 -0.792936 
-0.00187977 0.509979 -0.860186 
-0.00242523 0.421542 -0.906806 
-0.00304193 0.345233 -0.938513 
-0.0037063 0.281154 -0.959656 
-0.00440628 0.228109 -0.973626 
-0.00509856 0.18409 -0.982897 
-0.00575407 0.148132 -0.988951 
-0.00639242 0.119168 -0.992854 
-0.00700063 0.0955152 -0.995404 
-0.00752865 0.0760515 -0.997076 
-0.00792114 0.060208 -0.998155 
-0.00869927 0.0483526 -0.998793 
-0.00872549 0.0380261 -0.999239 
-0.0092665 0.0295012 -0.999522 
-0.00941027 0.0230045 -0.999692 
-0.00957156 0.0176503 -0.999799 
-0.00969211 0.013227 -0.999866 
-0.00988696 0.00952003 -0.999906 
-0.00987675 0.00609821 -0.999933 
-0.00980273 0.00321758 -0.999947 
-0.00980131 0.000509099 -0.999952 
-0.00974713 -0.0020223 -0.999951 
-0.00972125 -0.00435666 -0.999944 
-0.00962207 -0.00651469 -0.999933 
-0.00930744 -0.00862522 -0.99992 
-0.0089545 -0.0108633 -0.999901 
-0.00843212 -0.0133487 -0.999876 
-0.00767272 -0.0161439 -0.999841 
-0.00811645 -0.0184902 -0.999797 
-0.00690793 -0.0206531 -0.999763 
-0.00536344 -0.0216605 -0.999752 
-0.00417762 -0.0213958 -0.999763 
-0.00228577 -0.0159627 -0.999871 