# vtk DataFile Version 3.0 
Exported using Morpho https://github.com/Morpho-lang/morpho 
ASCII 
DATASET UNSTRUCTURED_GRID 

POINTS 2054 float 
-8.48528 -2.82843 0 
-8.20636 -2.82843 0 
-7.94054 -2.82843 0 
-7.6904 -2.82843 0 
-7.45357 -2.82843 0 
-7.22694 -2.82843 0 
-7.00705 -2.82843 0 
-6.79111 -2.82843 0 
-6.57731 -2.82843 0 
-6.36453 -2.82843 0 
-6.15219 -2.82843 0 
-5.94 -2.82843 0 
-5.72786 -2.82843 0 
-5.51573 -2.82843 0 
-5.3036 -2.82843 0 
-5.09147 -2.82843 0 
-4.87933 -2.82843 0 
-4.6672 -2.82843 0 
-4.45507 -2.82843 0 
-4.24294 -2.82843 0 
-4.03081 -2.82843 0 
-3.81867 -2.82843 0 
-3.60654 -2.82843 0 
-3.39441 -2.82843 0 
-3.18228 -2.82843 0 
-2.97015 -2.82843 0 
-2.75801 -2.82843 0 
-2.54588 -2.82843 0 
-2.33375 -2.82843 0 
-2.12162 -2.82843 0 
-1.90949 -2.82843 0 
-1.69735 -2.82843 0 
-1.48522 -2.82843 0 
-1.27309 -2.82843 0 
-1.06096 -2.82843 0 
-0.848825 -2.82843 0 
-0.636693 -2.82843 0 
-0.424561 -2.82843 0 
-0.212429 -2.82843 0 
-0.000296761 -2.82843 0 
0.211835 -2.82843 0 
0.423967 -2.82843 0 
0.636099 -2.82843 0 
0.848231 -2.82843 0 
1.06036 -2.82843 0 
1.2725 -2.82843 0 
1.48463 -2.82843 0 
1.69676 -2.82843 0 
1.90889 -2.82843 0 
2.12102 -2.82843 0 
2.33316 -2.82843 0 
2.54529 -2.82843 0 
2.75742 -2.82843 0 
2.96955 -2.82843 0 
3.18168 -2.82843 0 
3.39382 -2.82843 0 
3.60595 -2.82843 0 
3.81808 -2.82843 0 
4.03021 -2.82843 0 
4.24234 -2.82843 0 
4.45448 -2.82843 0 
4.66661 -2.82843 0 
4.87874 -2.82843 0 
5.09087 -2.82843 0 
5.303 -2.82843 0 
5.51514 -2.82843 0 
5.72727 -2.82843 0 
5.93941 -2.82843 0 
6.15159 -2.82843 0 
6.36393 -2.82843 0 
6.57672 -2.82843 0 
6.79055 -2.82843 0 
7.00652 -2.82843 0 
7.22647 -2.82843 0 
7.45313 -2.82843 0 
7.69005 -2.82843 0 
7.9403 -2.82843 0 
8.20621 -2.82843 0 
8.48528 -2.82843 0 
-8.48528 -2.5495 0 
-8.30526 -2.64845 0 
-8.07062 -2.59995 0 
-7.83904 -2.59637 0 
-7.59595 -2.59733 0 
-7.36578 -2.59177 0 
-7.13796 -2.5933 0 
-6.90908 -2.59428 0 
-6.68421 -2.5916 0 
-6.46568 -2.58832 0 
-6.24926 -2.58859 0 
-6.03358 -2.58941 0 
-5.81848 -2.59013 0 
-5.60402 -2.59075 0 
-5.39005 -2.59135 0 
-5.17642 -2.59186 0 
-4.96311 -2.59223 0 
-4.75009 -2.59242 0 
-4.53736 -2.59244 0 
-4.32497 -2.59236 0 
-4.1128 -2.59242 0 
-3.90059 -2.59259 0 
-3.68835 -2.5926 0 
-3.47627 -2.59248 0 
-3.26428 -2.59251 0 
-3.05216 -2.59271 0 
-2.83986 -2.59283 0 
-2.62755 -2.59274 0 
-2.41539 -2.59253 0 
-2.20336 -2.59238 0 
-1.99135 -2.59238 0 
-1.77924 -2.59246 0 
-1.56704 -2.59244 0 
-1.35495 -2.59215 0 
-1.14319 -2.59183 0 
-0.931581 -2.59195 0 
-0.719663 -2.59256 0 
-0.507197 -2.59324 0 
-0.294425 -2.59354 0 
-0.0817689 -2.59344 0 
0.130587 -2.59325 0 
0.342804 -2.59322 0 
0.555051 -2.59322 0 
0.767233 -2.59303 0 
0.97919 -2.59278 0 
1.19107 -2.59278 0 
1.40311 -2.59289 0 
1.61524 -2.59286 0 
1.82732 -2.59279 0 
2.03943 -2.59281 0 
2.25163 -2.5928 0 
2.46381 -2.59266 0 
2.67591 -2.59254 0 
2.88801 -2.59237 0 
3.10001 -2.59226 0 
3.31203 -2.59216 0 
3.52402 -2.59207 0 
3.73601 -2.59208 0 
3.94815 -2.59221 0 
4.16052 -2.5923 0 
4.37309 -2.59232 0 
4.58593 -2.59227 0 
4.79921 -2.5922 0 
5.01319 -2.59212 0 
5.22833 -2.5921 0 
5.44534 -2.59239 0 
5.6657 -2.59346 0 
5.89185 -2.59569 0 
6.12685 -2.59429 0 
6.36853 -2.59189 0 
6.6108 -2.57787 0 
6.84491 -2.61411 0 
7.08804 -2.58476 0 
7.34858 -2.60369 0 
7.58803 -2.59327 0 
7.83059 -2.59326 0 
8.06387 -2.59199 0 
8.30038 -2.64348 0 
8.48528 -2.54936 0 
-8.48528 -2.28369 0 
-8.25701 -2.4138 0 
-8.01078 -2.35334 0 
-7.73666 -2.37963 0 
-7.49744 -2.35565 0 
-7.26898 -2.35831 0 
-7.03324 -2.36676 0 
-6.7997 -2.36275 0 
-6.5773 -2.35166 0 
-6.35808 -2.3495 0 
-6.14038 -2.35058 0 
-5.92336 -2.35185 0 
-5.70723 -2.35272 0 
-5.49199 -2.35362 0 
-5.27734 -2.35447 0 
-5.0632 -2.35505 0 
-4.84958 -2.35534 0 
-4.63641 -2.35533 0 
-4.42363 -2.35504 0 
-4.21126 -2.35485 0 
-3.99909 -2.35513 0 
-3.78684 -2.3554 0 
-3.57461 -2.35516 0 
-3.36263 -2.35498 0 
-3.15066 -2.35537 0 
-2.93843 -2.35586 0 
-2.72604 -2.35589 0 
-2.51374 -2.35551 0 
-2.30162 -2.35509 0 
-2.08964 -2.35496 0 
-1.87761 -2.35518 0 
-1.66544 -2.3554 0 
-1.45322 -2.35518 0 
-1.2412 -2.35438 0 
-1.02967 -2.35407 0 
-0.818162 -2.35505 0 
-0.606054 -2.35676 0 
-0.393243 -2.3579 0 
-0.180256 -2.35789 0 
0.0323765 -2.35727 0 
0.244686 -2.35692 0 
0.456926 -2.35692 0 
0.669206 -2.35667 0 
0.881318 -2.35598 0 
1.09315 -2.35559 0 
1.305 -2.35583 0 
1.51709 -2.35595 0 
1.72919 -2.35571 0 
1.9412 -2.35566 0 
2.15334 -2.3558 0 
2.36559 -2.3556 0 
2.57772 -2.35522 0 
2.78976 -2.35507 0 
3.0019 -2.35461 0 
3.21373 -2.35451 0 
3.42571 -2.35439 0 
3.63769 -2.35431 0 
3.84965 -2.35453 0 
4.06183 -2.35491 0 
4.27435 -2.35507 0 
4.48707 -2.35507 0 
4.70017 -2.35506 0 
4.91376 -2.35498 0 
5.12819 -2.35502 0 
5.34378 -2.35528 0 
5.56106 -2.35662 0 
5.78097 -2.35971 0 
6.00401 -2.36251 0 
6.2308 -2.3624 0 
6.45748 -2.35551 0 
6.68075 -2.33423 0 
6.88797 -2.39744 0 
7.05313 -2.27289 0 
7.24377 -2.40237 0 
7.48542 -2.36016 0 
7.73055 -2.36599 0 
7.99177 -2.33552 0 
8.24864 -2.40698 0 
8.48528 -2.28345 0 
-8.48528 -2.03355 0 
-8.25312 -2.18214 0 
-8.03669 -2.07913 0 
-7.83956 -2.18231 0 
-7.6106 -2.12852 0 
-7.38852 -2.10959 0 
-7.16268 -2.14097 0 
-6.9229 -2.1435 0 
-6.70119 -2.12055 0 
-6.48111 -2.11285 0 
-6.26282 -2.11284 0 
-6.045 -2.1151 0 
-5.82775 -2.11658 0 
-5.61153 -2.11776 0 
-5.3962 -2.1192 0 
-5.18144 -2.1203 0 
-4.96732 -2.12084 0 
-4.75387 -2.12105 0 
-4.54086 -2.12091 0 
-4.32822 -2.12045 0 
-4.11596 -2.12045 0 
-3.90382 -2.12107 0 
-3.69156 -2.12116 0 
-3.47938 -2.12058 0 
-3.26746 -2.12068 0 
-3.05542 -2.12154 0 
-2.84307 -2.12198 0 
-2.63064 -2.12162 0 
-2.41836 -2.12087 0 
-2.20626 -2.12031 0 
-1.99426 -2.12034 0 
-1.78217 -2.1207 0 
-1.56989 -2.12074 0 
-1.35755 -2.11993 0 
-1.14542 -2.11838 0 
-0.934012 -2.11859 0 
-0.722404 -2.12089 0 
-0.509943 -2.12344 0 
-0.296911 -2.12431 0 
-0.0840921 -2.12359 0 
0.128295 -2.12281 0 
0.340414 -2.12274 0 
0.552564 -2.12288 0 
0.76478 -2.12226 0 
0.976792 -2.1213 0 
1.18855 -2.12128 0 
1.40042 -2.12188 0 
1.61256 -2.12177 0 
1.82458 -2.12141 0 
2.03655 -2.12164 0 
2.24875 -2.12174 0 
2.46099 -2.12114 0 
2.67302 -2.12065 0 
2.88504 -2.12054 0 
3.09728 -2.1194 0 
3.30873 -2.11968 0 
3.52086 -2.1195 0 
3.7329 -2.11938 0 
3.94484 -2.11986 0 
4.15715 -2.12044 0 
4.36983 -2.12035 0 
4.58282 -2.1204 0 
4.79606 -2.12017 0 
5.01004 -2.12012 0 
5.22483 -2.12002 0 
5.44073 -2.12051 0 
5.6582 -2.123 0 
5.8782 -2.12696 0 
6.10217 -2.12971 0 
6.33095 -2.12707 0 
6.567 -2.11601 0 
6.82301 -2.12303 0 
7.06572 -2.04567 0 
7.29733 -2.17484 0 
7.54632 -2.11408 0 
7.79371 -2.13741 0 
8.02274 -2.07453 0 
8.25027 -2.1738 0 
8.48528 -2.0332 0 
-8.48528 -1.79671 0 
-8.25436 -1.93882 0 
-8.01299 -1.83977 0 
-7.78596 -1.953 0 
-7.5297 -1.87194 0 
-7.2756 -1.88722 0 
-7.05707 -1.93544 0 
-6.84369 -1.89677 0 
-6.62219 -1.88079 0 
-6.40169 -1.87606 0 
-6.18206 -1.87854 0 
-5.96274 -1.881 0 
-5.74458 -1.88208 0 
-5.52796 -1.88344 0 
-5.31232 -1.88506 0 
-5.09736 -1.88569 0 
-4.88338 -1.88564 0 
-4.67019 -1.88555 0 
-4.45737 -1.88507 0 
-4.24485 -1.88447 0 
-4.03271 -1.88482 0 
-3.82061 -1.88562 0 
-3.60832 -1.88529 0 
-3.39617 -1.88464 0 
-3.18427 -1.88547 0 
-2.97209 -1.88672 0 
-2.7596 -1.88684 0 
-2.54714 -1.88601 0 
-2.33483 -1.88505 0 
-2.12268 -1.8846 0 
-1.91058 -1.885 0 
-1.69824 -1.88561 0 
-1.48561 -1.88547 0 
-1.27286 -1.88413 0 
-1.06032 -1.88216 0 
-0.848858 -1.8839 0 
-0.636875 -1.88781 0 
-0.424169 -1.89034 0 
-0.211518 -1.89004 0 
0.000731944 -1.88866 0 
0.21257 -1.88788 0 
0.424308 -1.88807 0 
0.636257 -1.88793 0 
0.848362 -1.88664 0 
1.06025 -1.88556 0 
1.27191 -1.88605 0 
1.48381 -1.88664 0 
1.69595 -1.886 0 
1.90782 -1.88577 0 
2.11974 -1.88637 0 
2.33202 -1.88609 0 
2.54419 -1.88502 0 
2.75607 -1.88472 0 
2.96812 -1.88462 0 
3.18055 -1.88217 0 
3.39117 -1.88415 0 
3.60398 -1.8838 0 
3.81618 -1.88366 0 
4.02827 -1.88469 0 
4.24071 -1.88523 0 
4.4544 -1.88509 0 
4.66716 -1.88476 0 
4.88099 -1.88493 0 
5.09545 -1.88466 0 
5.31057 -1.88453 0 
5.52653 -1.88564 0 
5.7436 -1.88981 0 
5.96352 -1.89563 0 
6.18733 -1.89813 0 
6.41543 -1.89522 0 
6.65059 -1.89622 0 
6.87542 -1.86913 0 
7.11122 -1.81621 0 
7.31223 -1.94975 0 
7.53264 -1.87683 0 
7.77077 -1.89068 0 
8.01717 -1.8297 0 
8.25014 -1.93148 0 
8.48528 -1.79628 0 
-8.48528 -1.57009 0 
-8.24868 -1.70836 0 
-8.015 -1.61096 0 
-7.76734 -1.73071 0 
-7.54593 -1.61782 0 
-7.32306 -1.66278 0 
-7.05152 -1.7082 0 
-6.79786 -1.66675 0 
-6.56099 -1.64764 0 
-6.33267 -1.64541 0 
-6.10856 -1.64921 0 
-5.88638 -1.65073 0 
-5.66697 -1.65153 0 
-5.44986 -1.65353 0 
-5.23379 -1.65525 0 
-5.01882 -1.6551 0 
-4.80519 -1.6548 0 
-4.59235 -1.65478 0 
-4.37976 -1.65422 0 
-4.16737 -1.65386 0 
-3.95537 -1.65471 0 
-3.74326 -1.6554 0 
-3.5309 -1.65455 0 
-3.31876 -1.65426 0 
-3.10682 -1.65593 0 
-2.89443 -1.65705 0 
-2.68177 -1.65644 0 
-2.46924 -1.65516 0 
-2.25682 -1.65408 0 
-2.04447 -1.65386 0 
-1.83202 -1.65455 0 
-1.61911 -1.65506 0 
-1.40572 -1.65429 0 
-1.19212 -1.65207 0 
-0.97885 -1.64982 0 
-0.767325 -1.65372 0 
-0.555434 -1.6581 0 
-0.343588 -1.65935 0 
-0.132061 -1.65818 0 
0.0792288 -1.65687 0 
0.290417 -1.65682 0 
0.501823 -1.6575 0 
0.713729 -1.65709 0 
0.925861 -1.65545 0 
1.13768 -1.65488 0 
1.34929 -1.65604 0 
1.56128 -1.6563 0 
1.77337 -1.65516 0 
1.985 -1.65561 0 
2.19698 -1.65642 0 
2.40939 -1.65525 0 
2.62143 -1.65394 0 
2.83323 -1.65414 0 
3.04553 -1.65355 0 
3.25842 -1.64868 0 
3.46746 -1.65522 0 
3.68272 -1.65284 0 
3.89574 -1.65288 0 
4.10731 -1.65378 0 
4.32287 -1.65565 0 
4.53627 -1.65249 0 
4.74932 -1.65397 0 
4.96428 -1.65355 0 
5.17935 -1.65257 0 
5.3944 -1.65202 0 
5.60927 -1.65354 0 
5.82513 -1.66019 0 
6.04295 -1.66711 0 
6.26383 -1.66843 0 
6.48537 -1.66776 0 
6.70098 -1.65646 0 
6.91299 -1.6206 0 
7.11709 -1.6046 0 
7.3526 -1.69716 0 
7.60698 -1.65764 0 
7.8325 -1.64214 0 
8.05985 -1.58842 0 
8.2608 -1.69223 0 
8.48528 -1.56961 0 
-8.48528 -1.35019 0 
-8.24958 -1.48044 0 
-8.0219 -1.3751 0 
-7.79713 -1.50391 0 
-7.58956 -1.39834 0 
-7.36199 -1.38754 0 
-7.16079 -1.49923 0 
-6.93764 -1.46284 0 
[...]
POINT_DATA 2054 
VECTORS vectors float
0.124084 -0.183226 0.974981 
0.138487 -0.13414 0.983278 
0.150019 -0.0986412 0.986203 
0.158742 -0.0736718 0.986915 
0.165322 -0.0558843 0.98679 
0.170181 -0.0428916 0.986486 
0.17384 -0.0331011 0.986108 
0.176651 -0.0255354 0.985742 
0.178835 -0.0195939 0.985425 
0.180496 -0.0148381 0.985165 
0.181757 -0.0109701 0.984938 
0.182682 -0.00776063 0.984756 
0.183335 -0.00500904 0.984621 
0.183727 -0.00256984 0.984534 
0.183881 -0.000288493 0.984493 
0.183803 0.00196583 0.984499 
0.183476 0.00436164 0.984555 
0.182896 0.00703431 0.984659 
0.182036 0.0101406 0.984811 
0.180881 0.0138572 0.985007 
0.179365 0.0183523 0.985249 
0.177374 0.023885 0.985539 
0.174806 0.0308081 0.985866 
0.171539 0.0395379 0.986201 
0.167396 0.0505938 0.986494 
0.162153 0.0646482 0.986647 
0.155538 0.0825653 0.986485 
0.14721 0.105456 0.985696 
0.136759 0.134756 0.983735 
0.123737 0.172307 0.979662 
0.107742 0.22039 0.971888 
0.0886044 0.281633 0.957791 
0.0666982 0.358564 0.933273 
0.0432948 0.452624 0.89242 
0.0207442 0.562539 0.827726 
0.00215744 0.682537 0.73135 
-0.00954396 0.80145 0.597595 
-0.0128988 0.903911 0.42587 
-0.00875756 0.973818 0.22271 
-0.00018804 0.998906 0.00159251 
0.00843824 0.974533 -0.219683 
0.0127256 0.905176 -0.42327 
0.00954413 0.803 -0.595569 
-0.00202239 0.684111 -0.729907 
-0.0205442 0.563966 -0.826769 
-0.043091 0.453823 -0.891821 
-0.0665169 0.359541 -0.932907 
-0.0884492 0.282414 -0.957571 
-0.107611 0.221009 -0.971756 
-0.123629 0.172792 -0.979584 
-0.136672 0.135134 -0.983691 
-0.14714 0.105749 -0.985674 
-0.15548 0.0827921 -0.986477 
-0.162105 0.0648212 -0.986647 
-0.167357 0.0507247 -0.986498 
-0.171509 0.0396363 -0.986207 
-0.174785 0.0308815 -0.985872 
-0.17736 0.0239434 -0.985545 
-0.179354 0.018402 -0.985254 
-0.180876 0.0138988 -0.985011 
-0.182041 0.0101842 -0.984814 
-0.182903 0.00708857 -0.984663 
-0.183482 0.00442649 -0.984563 
-0.183804 0.00204681 -0.984512 
-0.183868 -0.000202311 -0.984513 
-0.183691 -0.00249523 -0.984563 
-0.183272 -0.00498194 -0.984664 
-0.182642 -0.0078367 -0.984828 
-0.181927 -0.0111204 -0.984968 
-0.181094 -0.0148167 -0.984086 
-0.179024 -0.0193149 -0.985637 
-0.17668 -0.0253315 -0.985687 
-0.173774 -0.0328994 -0.986185 
-0.17004 -0.042832 -0.986707 
-0.165284 -0.0558204 -0.986819 
-0.15875 -0.0735889 -0.986995 
-0.150002 -0.0985889 -0.986332 
-0.138475 -0.134156 -0.9834 
-0.124117 -0.183268 -0.975033 
0.0837558 -0.195423 0.978412 
0.106523 -0.157794 0.987354 
0.10999 -0.122841 0.994311 
0.117692 -0.0943548 0.996759 
0.124991 -0.071309 0.99744 
0.129576 -0.0547219 0.997721 
0.134007 -0.0419479 0.997555 
0.137484 -0.0320039 0.997287 
0.13965 -0.0243972 0.997101 
0.141093 -0.0185317 0.996979 
0.142592 -0.013823 0.996776 
0.143801 -0.00996793 0.996586 
0.144684 -0.00672765 0.996434 
0.145277 -0.0039042 0.996321 
0.145613 -0.00132594 0.996246 
0.145699 0.00116498 0.996213 
0.145524 0.00372887 0.996222 
0.14507 0.00652286 0.996273 
0.144323 0.00970407 0.996365 
0.143268 0.0134488 0.996493 
0.141895 0.0179595 0.996644 
0.140123 0.0234911 0.996814 
0.137826 0.0303711 0.996994 
0.134909 0.0390036 0.997149 
0.131286 0.0498987 0.997214 
0.126796 0.0637138 0.997083 
0.121211 0.0812873 0.996582 
0.114306 0.103666 0.995407 
0.105869 0.132155 0.993039 
0.0957111 0.168381 0.988618 
0.0836955 0.214307 0.980754 
0.0698361 0.272148 0.967229 
0.054464 0.34402 0.944666 
0.0384003 0.431199 0.908247 
0.0230006 0.533029 0.851741 
0.00988341 0.645836 0.767975 
0.000522342 0.761846 0.650135 
-0.00420662 0.868606 0.494381 
-0.00448496 0.950451 0.303233 
-0.00168428 0.992818 0.0874405 
0.00203529 0.987504 -0.135661 
0.00433344 0.935717 -0.346939 
0.00321224 0.847379 -0.530719 
-0.00248333 0.737454 -0.678269 
-0.0127238 0.621115 -0.788489 
-0.0264593 0.509978 -0.865924 
-0.0421137 0.411004 -0.917573 
-0.0580755 0.327164 -0.950516 
-0.0731278 0.258503 -0.970764 
-0.0865909 0.203408 -0.982829 
-0.0981859 0.159725 -0.989802 
-0.107906 0.125326 -0.993691 
-0.115932 0.0983128 -0.99575 
-0.122486 0.0771021 -0.996752 
-0.127807 0.0604381 -0.997152 
-0.1321 0.047317 -0.997228 
-0.135542 0.03696 -0.99714 
-0.138301 0.0287504 -0.996976 
-0.1405 0.0221965 -0.996791 
-0.142215 0.0169078 -0.996619 
-0.143526 0.0125814 -0.99647 
-0.144499 0.00898085 -0.996357 
-0.14518 0.00590346 -0.996281 
-0.145593 0.00317275 -0.996246 
-0.145762 0.000624164 -0.996255 
-0.145736 -0.00191689 -0.996311 
-0.145576 -0.0046362 -0.996399 
-0.145321 -0.00774768 -0.99653 
-0.144208 -0.0115091 -0.996871 
-0.14248 -0.016181 -0.998028 
-0.138384 -0.0222593 -0.998549 
-0.141393 -0.0293579 -0.995897 
-0.133452 -0.0395917 -0.998767 
-0.131665 -0.0533604 -0.997505 
-0.124633 -0.0706684 -0.997732 
-0.117558 -0.0934819 -0.997101 
-0.109196 -0.122188 -0.994803 
-0.106093 -0.157149 -0.987691 
-0.0838182 -0.195405 -0.978535 
0.0570981 -0.207108 0.978412 
0.0800086 -0.157982 0.992127 
0.0825664 -0.121696 0.99879 
0.0935941 -0.0888022 1 
0.0965736 -0.0680474 1.00127 
0.101208 -0.0522796 1.0015 
0.105796 -0.0396723 1.0014 
0.108153 -0.0301218 1.00133 
0.108949 -0.0230061 1.00137 
0.110301 -0.0173255 1.00126 
0.111643 -0.0127189 1.00111 
0.112686 -0.00890187 1.00097 
0.113397 -0.00564055 1.00086 
0.113855 -0.00273174 1.00078 
0.114069 1.76209e-06 1.00073 
0.114023 0.00272811 1.00071 
0.113709 0.00561523 1.00072 
0.113114 0.00882881 1.00077 
0.112219 0.0125456 1.00084 
0.111036 0.0169696 1.00093 
0.109557 0.0223474 1.00102 
0.10766 0.0289905 1.00109 
0.10521 0.0372857 1.00113 
0.102189 0.0477012 1.00106 
0.0985448 0.0608401 1.00079 
0.0940935 0.0774836 1.00015 
0.0886442 0.0985995 0.998873 
0.0820865 0.125358 0.996512 
0.0743659 0.159178 0.992339 
0.0654761 0.201739 0.985201 
0.0554855 0.254962 0.973304 
0.0446124 0.320779 0.953921 
0.0333349 0.400642 0.923118 
0.0224259 0.494698 0.875623 
0.0128411 0.600717 0.805092 
0.00538723 0.713478 0.70458 
0.000580801 0.823635 0.568153 
-0.00150087 0.917359 0.394158 
-0.00139467 0.978845 0.18889 
-0.000177922 0.99591 -0.0327078 
0.000854203 0.965135 -0.251008 
0.000468521 0.893055 -0.447723 
-0.00228187 0.793166 -0.610947 
-0.00780441 0.680881 -0.736832 
-0.0158869 0.569061 -0.828213 
-0.0258844 0.466003 -0.891445 
-0.0369077 0.375966 -0.933486 
-0.0480534 0.300304 -0.960488 
-0.0586699 0.238325 -0.977358 
-0.0683527 0.188342 -0.987656 
-0.0768504 0.148474 -0.993793 
-0.0841236 0.116897 -0.997351 
-0.0902791 0.0919515 -0.999342 
-0.0953771 0.0722618 -1.00041 
-0.0996083 0.0567307 -1.00091 
-0.103067 0.0444422 -1.00112 
-0.105875 0.0346993 -1.00115 
-0.108166 0.0269343 -1.00109 
-0.11001 0.0206896 -1.001 
-0.111436 0.015611 -1.00091 
-0.112508 0.0114182 -1.00083 
-0.113288 0.00787203 -1.00077 
-0.113798 0.0047734 -1.00075 
-0.114077 0.00194624 -1.00075 
-0.114147 -0.000781361 -1.00079 
-0.114109 -0.00358535 -1.00086 
-0.114026 -0.00664618 -1.00094 
-0.11362 -0.0101646 -1.00108 
-0.112516 -0.0144098 -1.0013 
-0.110247 -0.019678 -1.00151 
-0.106012 -0.026238 -1.00103 
-0.111366 -0.0329936 -1.001 
-0.0949147 -0.0416052 -1.00256 
-0.106927 -0.0501183 -1.00004 
-0.0973289 -0.0668999 -1.00147 
-0.0922279 -0.088429 -1.0007 
-0.0813608 -0.119611 -0.999726 
-0.0796877 -0.156786 -0.992679 
-0.0570975 -0.20706 -0.978543 
0.0400679 -0.216067 0.977285 
0.0587833 -0.164842 0.992709 
0.0576457 -0.132561 0.997857 
0.071257 -0.104349 0.999108 
0.071772 -0.0816918 1.00224 
0.0742431 -0.0637149 1.00336 
0.0804997 -0.0488253 1.0032 
0.0837188 -0.0369724 1.00329 
0.0837464 -0.0285365 1.0036 
0.0847192 -0.0217291 1.00362 
0.0860174 -0.0162276 1.00353 
0.087212 -0.0117072 1.00342 
0.0880578 -0.00790923 1.00333 
0.0886241 -0.00460244 1.00325 
0.0889847 -0.0015861 1.00319 
0.0890969 0.00132075 1.00315 
0.0889432 0.00429587 1.00314 
0.0885404 0.00751434 1.00315 
0.0878733 0.0111545 1.00319 
0.0869211 0.0154165 1.00323 
0.0857215 0.0205338 1.00326 
0.0842423 0.0267898 1.00328 
0.0823206 0.0345464 1.00325 
0.0798844 0.0442415 1.00312 
0.0769887 0.0563978 1.0028 
0.0735547 0.0717051 1.00216 
0.0693941 0.0910458 1.00098 
0.0644112 0.11547 0.998881 
0.0586034 0.146215 0.995281 
0.0520159 0.184742 0.989264 
0.0447384 0.232712 0.979415 
0.03691 0.291926 0.963589 
0.0287919 0.364008 0.938627 
0.020817 0.449805 0.900136 
0.0135504 0.54853 0.842475 
0.00756506 0.656583 0.759311 
0.00317131 0.76755 0.643881 
0.000490184 0.870562 0.491374 
-0.000623753 0.950593 0.303005 
-0.00066626 0.992617 0.0890982 
-0.000368703 0.987878 -0.132549 
-0.000508679 0.937637 -0.341913 
-0.00177977 0.852267 -0.523217 
-0.00465643 0.746686 -0.668527 
-0.00926906 0.635265 -0.777617 
-0.0154361 0.528456 -0.855433 
-0.0227624 0.432198 -0.908824 
-0.0306926 0.34912 -0.944285 
-0.0386979 0.27966 -0.967184 
-0.0464154 0.222718 -0.981663 
-0.0535433 0.17664 -0.990653 
-0.059873 0.139738 -0.996124 
-0.0653983 0.11037 -0.999381 
-0.0701668 0.0870449 -1.00127 
-0.0741169 0.0685493 -1.00235 
-0.0775098 0.0539097 -1.0029 
-0.0802874 0.0422544 -1.00317 
-0.0825611 0.0329734 -1.00328 
-0.0844505 0.0255336 -1.00329 
-0.0859735 0.0195061 -1.00326 
-0.0871082 0.0145664 -1.00323 
-0.0879733 0.0104395 -1.0032 
-0.0885583 0.00689599 -1.00318 
-0.0889286 0.00373378 -1.00318 
-0.0890729 0.000777991 -1.0032 
-0.0890561 -0.00215433 -1.00325 
-0.0890045 -0.00524249 -1.00331 
-0.0888473 -0.00867793 -1.00338 
-0.0882956 -0.0127189 -1.00351 
-0.086914 -0.0177088 -1.0037 
-0.0843535 -0.0241272 -1.0039 
-0.0827251 -0.0329279 -1.00486 
-0.0732428 -0.0446187 -1.00422 
-0.0816215 -0.0564548 -1.00311 
-0.0716761 -0.0759772 -1.00396 
-0.0685081 -0.100047 -1.00064 
-0.0576442 -0.130626 -0.998659 
-0.0582146 -0.164592 -0.993027 
-0.0400363 -0.216045 -0.977364 
0.0288712 -0.222671 0.976033 
0.042416 -0.171956 0.991996 
0.0428966 -0.13429 0.998315 
0.0548073 -0.102671 1.00139 
0.0539397 -0.0782997 1.00478 
0.0587035 -0.0586233 1.0045 
0.064887 -0.0452758 1.00341 
0.0641007 -0.0356139 1.00468 
0.0646592 -0.0273721 1.00491 
0.0656728 -0.020712 1.00492 
0.0669049 -0.0152844 1.00484 
0.0678721 -0.0107912 1.00477 
0.0684964 -0.0069723 1.0047 
0.0689235 -0.00359421 1.00463 
0.0691704 -0.000453041 1.00458 
0.0691502 0.00264322 1.00456 
0.0688861 0.00588008 1.00455 
0.0684218 0.00943829 1.00456 
0.0677168 0.0135137 1.00457 
0.0667675 0.018333 1.00457 
0.065622 0.0241514 1.00455 
0.0642028 0.0312878 1.00449 
0.0623496 0.0401528 1.00435 
0.0600785 0.0512213 1.00405 
0.0574673 0.0650615 1.00347 
0.0543828 0.0824525 1.00245 
0.0506797 0.10435 1.0007 
0.046359 0.131845 0.99775 
0.041484 0.166217 0.992889 
0.0361395 0.208934 0.985017 
0.0304409 0.261621 0.972475 
0.024526 0.325978 0.952774 
0.0186231 0.403331 0.922337 
0.013065 0.493967 0.876328 
0.00822439 0.596207 0.808767 
0.00442301 0.705056 0.713497 
0.00172974 0.813021 0.58398 
0.000137681 0.907551 0.417276 
-0.000534981 0.973069 0.218176 
-0.000675657 0.996597 0.000120345 
-0.000776737 0.973208 -0.217529 
-0.00133154 0.908154 -0.415912 
-0.00275094 0.814128 -0.582374 
-0.00527381 0.706124 -0.712388 
-0.00892799 0.596972 -0.808148 
-0.0135858 0.495055 -0.875655 
-0.0189824 0.404607 -0.921732 
-0.0247483 0.327222 -0.952318 
-0.0305877 0.262753 -0.972148 
-0.0362777 0.209859 -0.984802 
-0.0415602 0.166947 -0.992761 
-0.0462956 0.132482 -0.997671 
-0.0505188 0.104941 -1.00065 
-0.054207 0.0829616 -1.00244 
-0.0572106 0.0654607 -1.00349 
-0.0599937 0.0515789 -1.00403 
-0.0622012 0.0404239 -1.00436 
-0.0640235 0.0315165 -1.00451 
-0.0655826 0.0243307 -1.00456 
-0.0668015 0.018473 -1.00459 
-0.0677077 0.0136146 -1.00459 
-0.0683548 0.00953193 -1.00458 
-0.0688262 0.00595596 -1.00459 
-0.0690621 0.00270617 -1.0046 
-0.0691115 -0.000400347 -1.00464 
-0.0690574 -0.00355376 -1.00468 
-0.0690277 -0.00693308 -1.00471 
-0.0688933 -0.0107568 -1.00476 
-0.0682442 -0.0153175 -1.00485 
-0.0668774 -0.0209727 -1.00495 
-0.0653814 -0.0282079 -1.00508 
-0.0615565 -0.0371653 -1.00515 
-0.0556583 -0.0492698 -1.00467 
-0.0624791 -0.0603439 -1.00413 
-0.0541213 -0.0784334 -1.00271 
-0.0507831 -0.101921 -1.00294 
-0.0421035 -0.135092 -0.998425 
-0.0420611 -0.171356 -0.992315 
-0.0288522 -0.222569 -0.976074 
0.0211751 -0.227359 0.97506 
0.0312823 -0.176069 0.991532 
0.031794 -0.1386 0.997904 
0.0417182 -0.104221 1.00187 
0.0392035 -0.0830647 1.00376 
0.0442843 -0.0643423 1.00493 
0.0497955 -0.0469275 1.00603 
0.0494891 -0.035216 1.00576 
0.049887 -0.0265407 1.00578 
0.0508825 -0.0197751 1.0057 
0.0519555 -0.0143441 1.00562 
0.0526636 -0.00984874 1.00555 
0.0531189 -0.00599881 1.00548 
0.0534606 -0.00254848 1.00542 
0.0536152 0.000722204 1.00538 
0.053488 0.00401573 1.00536 
0.0531818 0.00751868 1.00535 
0.0527171 0.0114183 1.00534 
0.0520302 0.015935 1.00533 
0.0511447 0.0213186 1.00529 
0.0500947 0.0278405 1.00522 
0.048767 0.0358604 1.00508 
0.0470494 0.0458316 1.00482 
0.0450323 0.0582512 1.00433 
0.0427571 0.0737395 1.00349 
0.0400535 0.0931669 1.00208 
0.0368559 0.117534 0.999744 
0.0332369 0.147952 0.995915 
0.0292715 0.185744 0.989749 
0.0250508 0.232393 0.979961 
0.0206761 0.28951 0.964624 
0.0162607 0.358706 0.940873 
0.0119883 0.441014 0.90467 
0.00810213 0.536113 0.850706 
0.00484365 0.641268 0.772733 
0.00238831 0.749865 0.665105 
0.000701052 0.853191 0.522026 
-0.000258796 0.937325 0.343377 
-0.000662074 0.987494 0.136934 
-0.000802155 0.993433 -0.0816373 
-0.00102696 0.953934 -0.292652 
-0.00166796 0.877327 -0.479202 
-0.00297521 0.777485 -0.63174 
-0.00506531 0.668812 -0.748414 
-0.00793022 0.562546 -0.833038 
-0.0114757 0.465303 -0.892146 
-0.0155006 0.38002 -0.932322 
-0.0197563 0.307588 -0.958953 
-0.0240963 0.247443 -0.976257 
-0.028344 0.198049 -0.987382 
-0.0322728 0.157923 -0.994436 
-0.0358397 0.125641 -0.998827 
-0.039088 0.0997516 -1.00153 
-0.0419125 0.0790039 -1.00319 
-0.0441232 0.0624222 -1.0042 
-0.0465309 0.0492817 -1.00468 
-0.0481776 0.0385452 -1.00506 
-0.0496366 0.0299797 -1.00521 
-0.0508548 0.0230719 -1.00533 
-0.0519104 0.0173094 -1.00536 
-0.0524314 0.0125778 -1.00539 
-0.0530285 0.00852629 -1.00538 
-0.0533319 0.00491074 -1.00541 
-0.0534275 0.00156551 -1.00544 
-0.0533776 -0.00169685 -1.00546 
-0.053279 -0.00506689 -1.00549 
-0.0533075 -0.00873474 -1.00549 
-0.053145 -0.0129244 -1.0055 
-0.0524085 -0.0179453 -1.00553 
-0.0512958 -0.0240723 -1.00556 
-0.0493323 -0.0314837 -1.00552 
-0.0457827 -0.0407127 -1.00527 
-0.0432343 -0.051518 -1.00382 
-0.045686 -0.0660421 -1.00511 
-0.0403104 -0.0881705 -1.00321 
-0.0361211 -0.113289 -1.00098 
-0.0300077 -0.145944 -0.995893 
-0.0302588 -0.178644 -0.991059 
-0.0211198 -0.227105 -0.975311 
0.0156089 -0.230745 0.97428 
0.0229915 -0.180201 0.990844 
0.0231345 -0.142949 0.997341 
0.030772 -0.110863 1.00106 
0.0292059 -0.0896401 1.00216 
0.0310343 -0.0698912 1.0055 
0.0377437 -0.0549914 1.00441 
0.0377919 -0.0428972 1.0058 
0.037603 -0.0329759 1.00612 
0.038172 -0.0249467 1.00614 
0.0391343 -0.0185058 1.00607 
0.0400032 -0.0132362 1.00602 
0.0404481 -0.00879964 1.00598 
0.0407684 -0.00495949 1.0059 
0.0410335 -0.0014542 1.00584 
0.041054 0.00193815 1.00582 
0.0408399 0.00542969 1.0058 
0.0405227 0.00919302 1.00578 
0.0400765 0.0134284 1.00576 
0.0394451 0.0183939 1.00572 
0.0386489 0.0243426 1.00566 
0.0377166 0.0315652 1.00553 
0.036516 0.0404661 1.00532 
0.0350047 0.051531 1.00493 
0.0333017 0.0652693 1.00425 
0.0313837 0.0823654 1.00314 
0.0290891 0.10377 1.00133 
0.0264326 0.130506 0.998369 
0.0235114 0.163709 0.993622 
0.0203919 0.204746 0.986099 
0.0171539 0.255119 0.974313 
0.0138748 0.316418 0.956056 
0.0106364 0.390119 0.928082 
0.00758153 0.47686 0.885922 
0.00488213 0.57554 0.823941 
0.00269397 0.682156 0.736009 
0.00110025 0.788631 0.617487 
3.83364e-05 0.885602 0.463492 
-0.000530498 0.958863 0.275968 
-0.000749739 0.994742 0.0647078 
-0.000846137 0.985306 -0.152839 
-0.0010776 0.932458 -0.356915 
-0.00167276 0.846881 -0.532551 
-0.00278142 0.743076 -0.672903 
-0.00445377 0.634728 -0.778218 
-0.0066705 0.531586 -0.85354 
-0.0093542 0.438703 -0.905746 
-0.0123432 0.358028 -0.941093 
-0.0154875 0.289942 -0.964475 
-0.0187268 0.23357 -0.979687 
-0.0218818 0.187211 -0.989538 
-0.0247795 0.149509 -0.995817 
-0.0274677 0.119168 -0.999734 
-0.0299577 0.0947533 -1.00219 
-0.0320765 0.0750788 -1.00374 
-0.0336287 0.0592732 -1.0047 
-0.0359402 0.0468814 -1.00503 
-0.037025 0.0363232 -1.00548 
-0.0379871 0.0283042 -1.00572 
-0.0393209 0.0214115 -1.00575 
-0.0397375 0.0159285 -1.00584 
-0.040168 0.0112962 -1.00587 
-0.0407246 0.00729677 -1.00585 
-0.0408374 0.00362177 -1.00591 
-0.0407934 0.000173248 -1.00592 
-0.0406349 -0.00323701 -1.00595 
-0.0406278 -0.00685667 -1.00594 
-0.0406743 -0.0108189 -1.00589 
-0.0405274 -0.0153987 -1.00581 
-0.0397017 -0.020898 -1.00585 
-0.0384023 -0.0276122 -1.00592 
-0.0362965 -0.036214 -1.00593 
-0.0331056 -0.0479428 -1.00617 
-0.0352029 -0.0614317 -1.00359 
-0.0327927 -0.0781334 -1.00388 
-0.0283567 -0.101218 -1.00239 
-0.0250078 -0.129483 -0.999253 
-0.0215207 -0.179326 -0.992064 
-0.0153403 -0.230603 -0.974372 
0.011423 -0.233239 0.973668 
0.0167364 -0.183451 0.990219 
0.0167568 -0.145008 0.997029 
0.0224146 -0.113409 1.00088 
0.0222647 -0.0873053 1.0034 
0.0224057 -0.0678841 1.00516 
0.028467 -0.0539191 1.00569 
0.0280814 -0.0413925 1.00628 
0.0282678 -0.0313918 1.00638 
0.0288968 -0.0235396 1.00634 
0.0297997 -0.017269 1.00627 
0.0304598 -0.0120895 1.00622 
0.0306462 -0.00772079 1.00618 
0.0309389 -0.00390374 1.00609 
0.0311092 -0.000368902 1.00605 
0.0310535 0.00314632 1.00604 
0.030816 0.00682683 1.00601 
0.0305291 0.0108189 1.00599 
0.0301639 0.0153936 1.00596 
0.0295981 0.0208011 1.00591 
0.0289168 0.0272945 1.0058 
0.0281085 0.0351913 1.00563 
0.0270594 0.0449447 1.00533 
0.0257917 0.0570374 1.00481 
0.024409 0.0720014 1.00395 
0.0228272 0.0906066 1.00257 
0.0209321 0.113857 1.00035 
0.0187969 0.142732 0.996778 
0.0165137 0.178366 0.991136 
0.0141323 0.222125 0.982317 
0.0117156 0.275416 0.968693 
0.00931492 0.339654 0.947895 
0.0069869 0.416051 0.916496 
0.00483763 0.504706 0.869982 
0.00297711 0.604098 0.802716 
0.00149566 0.710005 0.708503 
0.000424931 0.814447 0.582139 
-0.000267669 0.907206 0.4185 
-0.000606196 0.972579 0.221477 
-0.000711636 0.996843 0.0039226 
-0.000769571 0.974218 -0.214025 
-0.000978429 0.909947 -0.412411 
-0.00149578 0.817047 -0.578462 
-0.0024061 0.710492 -0.70807 
-0.00372494 0.603232 -0.803425 
-0.00543264 0.503379 -0.870786 
-0.00746015 0.414511 -0.917231 
-0.0096787 0.337925 -0.948558 
-0.0120137 0.27372 -0.969198 
-0.0144429 0.220689 -0.982649 
-0.0167754 0.17688 -0.991435 
-0.0188969 0.141275 -0.997022 
-0.0209334 0.112724 -1.0005 
-0.0228406 0.0895595 -1.00274 
-0.0243952 0.0706455 -1.00422 
-0.0253654 0.0553486 -1.00557 
-0.0281352 0.0437115 -1.00454 
-0.0276653 0.0339921 -1.00637 
-0.0295138 0.0256847 -1.00585 
-0.0297537 0.0194106 -1.00602 
-0.0301357 0.014131 -1.00609 
-0.0303926 0.00964858 -1.00612 
-0.0310438 0.00573141 -1.00608 
-0.030879 0.00191769 -1.00618 
-0.0305409 -0.00160061 -1.00624 
-0.0305735 -0.00525277 -1.00619 
-0.0304457 -0.009142 -1.00613 
-0.0305223 -0.0133549 -1.00598 
-0.030323 -0.0180414 -1.00521 
-0.0293746 -0.0236682 -1.00598 
-0.0283184 -0.0308188 -1.00603 
-0.0266507 -0.0402557 -1.00594 
-0.0241491 -0.0527082 -1.00535 
-0.0270152 -0.0648608 -1.00461 
-0.0235768 -0.0856268 -1.00378 
-0.0195718 -0.112832 -1.0023 
-0.0184238 -0.149938 -0.996331 
-0.0148563 -0.188304 -0.988363 
-0.0111144 -0.233262 -0.973602 
0.00817333 -0.235078 0.973212 
0.012034 -0.185332 0.989846 
0.011983 -0.145595 0.996958 
0.0165133 -0.113116 1.00103 
0.0162018 -0.0885107 1.0033 
0.0159632 -0.0697425 1.00468 
0.0206511 -0.0518763 1.0067 
0.0205687 -0.0389815 1.00648 
0.0207869 -0.0293325 1.00652 
0.0214195 -0.0218057 1.00645 
0.0222541 -0.0157396 1.00634 
0.0225588 -0.0107708 1.00632 
0.022596 -0.00648258 1.00624 
0.0228017 -0.00277951 1.00617 
0.0229426 0.000808725 1.00617 
0.0228146 0.0044865 1.00615 
0.0225112 0.00831736 1.00614 
0.0223543 0.0125911 1.00611 
0.0220185 0.0175562 1.00608 
0.0215301 0.0234475 1.00599 
0.0209666 0.0305208 1.00585 
0.0202908 0.0391589 1.00562 
0.0194131 0.0498171 1.00522 
0.0184155 0.0629826 1.00456 
0.0173416 0.0792596 1.0035 
0.0160771 0.099523 1.00182 