# vtk DataFile Version 3.0 
Exported using Morpho https://github.com/Morpho-lang/morpho 
ASCII 
DATASET UNSTRUCTURED_GRID 

POINTS 1978 float 
-8.48529 -2.82843 -6.32797e-09 
-8.26324 -2.82844 2.09412e-08 
-8.03112 -2.8284 3.47555e-08 
-7.78447 -2.82845 1.72527e-08 
-7.49187 -2.82843 1.228e-08 
-7.21197 -2.82843 1.04876e-08 
-6.99989 -2.82842 9.2524e-09 
-6.77347 -2.82844 8.64305e-09 
-6.55111 -2.82843 8.16759e-09 
-6.34636 -2.82843 8.04762e-09 
-6.13165 -2.82842 8.23017e-09 
-5.92996 -2.82843 7.13612e-09 
-5.71888 -2.82843 6.60507e-09 
-5.52547 -2.82843 5.59639e-09 
-5.29007 -2.82843 5.01079e-09 
-5.08534 -2.82843 4.10177e-09 
-4.86787 -2.82843 3.53764e-09 
-4.65852 -2.82843 2.7165e-09 
-4.44621 -2.82843 1.70393e-09 
-4.23318 -2.82843 2.6357e-10 
-4.02586 -2.82843 -1.15059e-09 
-3.82261 -2.82843 -2.49956e-09 
-3.61552 -2.82843 -4.30059e-09 
-3.40298 -2.82843 -6.78637e-09 
-3.18387 -2.82843 -9.5786e-09 
-2.96444 -2.82843 -1.23035e-08 
-2.7365 -2.82843 -1.52713e-08 
-2.50969 -2.82843 -2.01202e-08 
-2.27443 -2.82843 -2.19979e-08 
-2.01231 -2.82843 -2.0293e-08 
-1.79492 -2.82843 -1.56353e-08 
-1.57757 -2.82843 1.99418e-08 
-1.35265 -2.82842 1.54185e-07 
-1.20735 -2.82842 2.57199e-07 
-1.06646 -2.82843 5.1414e-07 
-0.922697 -2.82841 1.42038e-06 
-0.760273 -2.82842 4.24482e-06 
-0.605729 -2.82838 1.26128e-05 
-0.31611 -2.82859 2.99546e-05 
0.168795 -2.82849 2.45948e-05 
0.291035 -2.82834 -3.69371e-05 
0.569754 -2.82839 -1.90069e-05 
0.814153 -2.82842 -3.74535e-06 
0.924153 -2.82842 -1.05983e-06 
1.04453 -2.82842 -6.5442e-07 
1.20131 -2.82843 -3.34393e-07 
1.39903 -2.82843 -1.13315e-07 
1.60988 -2.82843 2.17329e-09 
1.82728 -2.82842 1.49364e-08 
2.05102 -2.82845 2.87946e-08 
2.27722 -2.82842 1.76381e-08 
2.50776 -2.82843 1.97574e-08 
2.73057 -2.82843 1.61537e-08 
2.95651 -2.82843 1.32394e-08 
3.17537 -2.82843 9.72734e-09 
3.3928 -2.82843 6.73065e-09 
3.61544 -2.82843 4.72824e-09 
3.82174 -2.82843 2.6298e-09 
4.03386 -2.82843 1.14464e-09 
4.25035 -2.82843 -7.30352e-10 
4.45217 -2.82843 -1.93768e-09 
4.66105 -2.82843 -2.78205e-09 
4.86305 -2.82843 -3.51613e-09 
5.07851 -2.82843 -4.30951e-09 
5.28225 -2.82843 -5.04738e-09 
5.50507 -2.82843 -5.62555e-09 
5.71712 -2.82843 -6.63264e-09 
5.93236 -2.82843 -6.7165e-09 
6.15381 -2.82843 -7.15905e-09 
6.37353 -2.82843 -8.03529e-09 
6.59893 -2.82843 -9.20081e-09 
6.8153 -2.82843 -1.02155e-08 
7.01813 -2.82843 -8.42591e-09 
7.29622 -2.82843 -1.02319e-08 
7.51946 -2.82843 -1.46685e-08 
7.7517 -2.82843 -1.32553e-08 
8.03742 -2.82843 -3.26713e-08 
8.22743 -2.82843 -2.08852e-08 
8.48528 -2.82842 4.61266e-09 
-8.48528 -2.60031 -1.42447e-08 
-8.24576 -2.5922 6.59202e-19 
-8.02505 -2.55326 -9.59069e-19 
-7.81221 -2.61125 -7.08593e-19 
-7.56855 -2.64787 -1.38663e-18 
-7.26028 -2.63462 -8.62158e-19 
-6.98743 -2.57553 1.92368e-18 
-6.76938 -2.60231 -1.08837e-19 
-6.54772 -2.58367 1.0341e-18 
-6.31519 -2.59837 7.17342e-19 
-6.09192 -2.58195 2.09181e-19 
-5.87362 -2.58991 1.75942e-19 
-5.66792 -2.56546 5.0851e-19 
-5.44296 -2.61344 -3.30561e-19 
-5.22645 -2.58227 1.25633e-19 
-5.00837 -2.59778 -6.83604e-20 
-4.79169 -2.59066 -2.4167e-19 
-4.57669 -2.59634 -4.2846e-19 
-4.35977 -2.59847 -4.94701e-19 
-4.14603 -2.59288 -6.102e-19 
-3.9374 -2.58765 -9.45757e-19 
-3.7291 -2.59001 -1.3884e-18 
-3.51575 -2.59294 -1.64855e-18 
-3.29693 -2.59682 -1.63756e-18 
-3.07499 -2.59344 -2.13492e-18 
-2.84814 -2.59887 -2.62016e-18 
-2.61732 -2.5948 -3.79172e-18 
-2.38339 -2.60191 -2.75266e-18 
-2.13354 -2.62482 -1.90121e-18 
-1.8883 -2.58539 -2.78256e-18 
-1.667 -2.59436 8.78733e-18 
-1.44464 -2.6187 1.66717e-17 
-1.25684 -2.54311 8.07423e-17 
-1.11306 -2.58932 1.45155e-16 
-0.975518 -2.63075 2.79419e-16 
-0.875805 -2.50615 7.42292e-18 
-0.822015 -2.68337 4.92358e-16 
-0.4894 -2.76693 -3.28631e-15 
-0.246779 -2.71586 6.79232e-15 
0.104925 -2.79543 -4.05403e-14 
0.381367 -2.69758 2.99874e-15 
0.473888 -2.76426 -3.007e-16 
0.74478 -2.73942 -1.15246e-15 
0.879499 -2.601 -7.10619e-16 
1.00303 -2.5732 -1.98688e-16 
1.14778 -2.59136 -1.10826e-16 
1.32777 -2.61595 5.94391e-18 
1.54678 -2.61599 -1.89334e-17 
1.78064 -2.61028 7.08423e-18 
2.02932 -2.60902 -3.28287e-18 
2.28045 -2.60782 3.42778e-18 
2.51284 -2.5942 3.39347e-18 
2.75135 -2.5958 2.73145e-18 
2.98125 -2.59001 2.43034e-18 
3.20497 -2.59061 2.31076e-18 
3.43227 -2.59889 1.39223e-18 
3.64392 -2.58533 1.44243e-18 
3.85887 -2.59481 8.45326e-19 
4.07873 -2.60147 6.09875e-19 
4.28653 -2.58577 5.72287e-19 
4.4969 -2.59362 4.38478e-19 
4.70364 -2.5843 1.04682e-19 
4.91849 -2.59812 1.63767e-19 
5.12824 -2.58321 -1.20013e-19 
5.34878 -2.60295 2.15494e-19 
5.56766 -2.58954 -4.11946e-20 
5.78618 -2.59152 -3.94031e-20 
6.00927 -2.59676 -8.30699e-21 
6.23425 -2.59277 -3.39203e-19 
6.46136 -2.59624 -4.34493e-19 
6.68564 -2.58409 -5.75206e-19 
6.89667 -2.56525 -1.70686e-18 
7.13584 -2.6354 -1.8451e-19 
7.38188 -2.5857 -1.49626e-18 
7.61019 -2.59457 -6.67639e-19 
7.87177 -2.63756 3.38943e-18 
8.07811 -2.54069 3.00473e-19 
8.30317 -2.61487 -1.1526e-18 
8.48529 -2.52472 9.88464e-09 
-8.48528 -2.36391 -8.64492e-09 
-8.22972 -2.36331 4.9507e-18 
-7.99038 -2.29511 1.25527e-18 
-7.77363 -2.38228 3.95892e-18 
-7.57157 -2.25435 5.25397e-18 
-7.49106 -2.47215 4.62355e-18 
-7.20982 -2.42464 5.46552e-18 
-6.97711 -2.33474 4.04444e-18 
-6.74645 -2.36639 3.62275e-18 
-6.49796 -2.36341 2.75301e-18 
-6.26504 -2.36753 3.15905e-18 
-6.03336 -2.34549 2.02467e-18 
-5.82424 -2.33454 1.23839e-18 
-5.57942 -2.3576 1.37915e-18 
-5.37143 -2.36688 1.1211e-18 
-5.13835 -2.35798 9.84789e-19 
-4.92047 -2.36406 7.23916e-19 
-4.69745 -2.36178 3.89102e-19 
-4.47887 -2.36978 -2.05436e-20 
-4.26173 -2.3659 -4.94691e-19 
-4.04749 -2.35486 -1.06968e-18 
-3.83507 -2.35129 -1.61467e-18 
-3.62173 -2.35786 -2.22891e-18 
-3.40271 -2.36351 -3.28538e-18 
-3.18242 -2.36304 -4.67828e-18 
-2.95429 -2.36581 -6.2336e-18 
-2.72628 -2.3663 -7.97894e-18 
-2.49061 -2.36787 -9.02191e-18 
-2.24843 -2.39549 -9.31989e-18 
-2.01681 -2.38632 -1.00986e-17 
-1.76891 -2.35001 9.73414e-18 
-1.54479 -2.38119 1.16568e-17 
-1.35357 -2.34912 3.23742e-17 
-1.14578 -2.31348 9.398e-17 
-1.01155 -2.37927 1.79847e-16 
-0.848079 -2.33335 4.41648e-16 
-0.718267 -2.56128 -1.04578e-16 
-0.666889 -2.70739 4.62653e-15 
-0.383854 -2.71586 -7.85017e-15 
-0.158138 -2.78388 9.76729e-15 
0.267558 -2.67657 -2.68086e-15 
0.636602 -2.67683 -1.87194e-16 
0.742743 -2.55384 8.87575e-17 
0.808088 -2.39329 -4.07777e-16 
0.93889 -2.35694 -2.31294e-16 
1.09296 -2.34217 -1.26897e-16 
1.2612 -2.37286 -3.20535e-17 
1.45367 -2.40369 -7.49276e-18 
1.67802 -2.39996 -8.04423e-18 
1.93054 -2.40877 8.05891e-18 
2.18554 -2.40111 6.42813e-18 
2.43705 -2.36143 8.50784e-18 
2.67009 -2.36938 6.91495e-18 
2.90808 -2.35843 7.12511e-18 
3.13818 -2.35365 4.9131e-18 
3.36346 -2.36938 3.93245e-18 
3.58277 -2.34784 2.49953e-18 
3.79791 -2.35894 1.76465e-18 
4.01469 -2.37424 1.14515e-18 
4.22804 -2.35276 5.63708e-19 
4.44189 -2.35685 7.52162e-20 
4.64923 -2.34754 -2.20555e-19 
4.86381 -2.36235 -5.54817e-19 
5.07322 -2.34794 -8.04784e-19 
5.29319 -2.36876 -1.16433e-18 
5.50833 -2.36034 -1.26608e-18 
5.73128 -2.35627 -1.3608e-18 
5.95251 -2.36291 -1.91297e-18 
6.174 -2.36195 -2.46404e-18 
6.40141 -2.36254 -3.09164e-18 
6.62462 -2.35066 -3.15876e-18 
6.84417 -2.31557 -3.29727e-18 
7.07517 -2.39081 -4.85522e-18 
7.29442 -2.38422 -5.58166e-18 
7.55154 -2.35016 -6.16761e-18 
7.78666 -2.41344 -5.86087e-18 
7.99465 -2.31634 -1.91734e-18 
8.2475 -2.3488 -4.8744e-18 
8.48528 -2.29521 1.17456e-08 
-8.48529 -2.09265 3.40378e-09 
-8.28052 -2.14915 5.91629e-18 
-8.07085 -2.06199 -4.10333e-18 
-7.79644 -2.12286 2.79719e-18 
-7.52798 -2.03676 1.88795e-18 
-7.32157 -2.24869 3.82742e-18 
-7.08238 -2.13402 2.07904e-18 
-6.81392 -2.12413 1.32684e-18 
-6.59471 -2.14981 8.83823e-19 
-6.35348 -2.13812 1.14812e-18 
-6.13454 -2.12644 6.29053e-19 
-5.91594 -2.08675 -6.98283e-20 
-5.69121 -2.13354 8.47407e-21 
-5.47428 -2.11301 -1.19166e-19 
-5.26302 -2.14166 1.27119e-19 
-5.03898 -2.12885 -2.92964e-20 
-4.82275 -2.13668 -1.24987e-19 
-4.60373 -2.13533 -1.80938e-19 
-4.39242 -2.13876 -2.65969e-19 
-4.1816 -2.1298 -4.36182e-19 
-3.97086 -2.11902 -5.74157e-19 
-3.75902 -2.11896 -7.73868e-19 
-3.54507 -2.12902 -1.03501e-18 
-3.32927 -2.12971 -1.25369e-18 
-3.10609 -2.13479 -1.43936e-18 
-2.88086 -2.13301 -2.06547e-18 
-2.64934 -2.13773 -3.04938e-18 
-2.40576 -2.15091 -3.54183e-18 
-2.17638 -2.1573 -4.13917e-18 
-1.93464 -2.15902 -5.55319e-18 
-1.67186 -2.13243 9.04862e-18 
-1.46577 -2.12089 3.36908e-17 
-1.25311 -2.13344 3.21322e-17 
-1.05727 -2.07531 1.86259e-16 
-0.93016 -2.1462 1.74557e-16 
-0.776338 -2.13442 6.13297e-16 
-0.702849 -2.42459 7.81208e-17 
-0.572299 -2.62865 8.12507e-16 
-0.303112 -2.60753 3.66911e-15 
0.0552228 -2.74295 2.29783e-14 
0.536666 -2.61684 1.05239e-15 
0.624843 -2.47321 1.61595e-15 
0.680315 -2.31507 -1.7641e-15 
0.79905 -2.16567 -7.29347e-16 
0.953551 -2.12379 -1.06246e-16 
1.12764 -2.10874 -4.22178e-17 
1.31904 -2.14369 -4.80208e-17 
1.52359 -2.17998 -6.53836e-18 
1.77371 -2.20299 4.68295e-18 
2.01394 -2.19331 1.35994e-18 
2.25838 -2.17683 2.9862e-18 
2.50459 -2.124 2.12933e-18 
2.73558 -2.14078 2.93292e-18 
2.97002 -2.12576 1.88663e-18 
3.19884 -2.12469 1.77531e-18 
3.41373 -2.13146 1.05896e-18 
3.63319 -2.11407 7.06441e-19 
3.84939 -2.13267 6.53674e-19 
4.05851 -2.13869 5.76075e-19 
4.27599 -2.12321 4.04918e-19 
4.4818 -2.11674 2.70469e-19 
4.69823 -2.12022 2.0212e-19 
4.90411 -2.12087 5.59255e-20 
5.1274 -2.12482 -5.16359e-20 
5.3382 -2.13141 1.23144e-20 
5.55992 -2.13088 1.32536e-20 
5.78327 -2.12576 7.15866e-20 
6.00195 -2.12801 -1.92823e-19 
6.22652 -2.13186 -1.03235e-18 
6.44824 -2.12338 -9.70742e-19 
6.66413 -2.1027 -4.791e-19 
6.91758 -2.10746 -1.22586e-18 
7.12652 -2.14263 -1.71465e-18 
7.3645 -2.16492 -2.60504e-18 
7.56303 -2.07234 -1.18756e-18 
7.75473 -2.1703 -1.66107e-18 
7.97164 -2.07595 2.65599e-18 
8.20292 -2.12868 -1.97616e-19 
8.48528 -2.10182 1.62329e-09 
-8.48528 -1.81644 2.14599e-09 
-8.28838 -1.88721 1.75438e-18 
-7.89384 -1.90194 -4.48353e-18 
[...]
POINT_DATA 1978 
VECTORS vectors float
0.012576 -0.0195466 0.999733 
0.0142274 -0.0311477 0.99942 
0.0115571 -0.0309455 0.999462 
0.0128936 -0.0246179 0.999627 
0.0137423 -0.0173024 0.999773 
0.0133593 -0.0132223 0.999834 
0.0135498 -0.0112778 0.999854 
0.0139239 -0.010012 0.999861 
0.013294 -0.00906516 0.999875 
0.0132861 -0.00833822 0.999883 
0.0131172 -0.00778002 0.999889 
0.013354 -0.00716655 0.999892 
0.0131879 -0.00641409 0.999899 
0.0136717 -0.00579647 0.999897 
0.0138555 -0.00493335 0.9999 
0.0135399 -0.00416551 0.999907 
0.0136228 -0.00343641 0.999909 
0.0134591 -0.00253393 0.999913 
0.0134835 -0.00141837 0.999915 
0.013307 -3.864e-05 0.999918 
0.0130129 0.00149465 0.99992 
0.0128716 0.00326327 0.999918 
0.0128661 0.00557797 0.999908 
0.012802 0.00871024 0.999887 
0.0124954 0.0129285 0.999846 
0.0120514 0.0185945 0.999762 
0.0113485 0.026762 0.999585 
0.0102711 0.0382968 0.999221 
0.00920358 0.0549309 0.998455 
0.00718617 0.0802311 0.996755 
0.00423284 0.109802 0.993948 
0.00063205 0.152066 0.988373 
-0.00345369 0.217096 0.976146 
-0.00651006 0.272371 0.962172 
-0.00890384 0.336722 0.941563 
-0.00925747 0.412864 0.910742 
-0.0155092 0.516191 0.85634 
-0.0199696 0.62256 0.782323 
-0.00814659 0.871076 0.491099 
-0.00629896 0.965793 -0.259072 
0.0132973 0.872211 -0.48895 
0.0165061 0.658263 -0.752611 
0.0176927 0.474286 -0.880191 
0.0123815 0.400993 -0.915997 
0.00940456 0.333214 -0.942805 
0.00537919 0.262556 -0.964903 
0.00164834 0.194316 -0.98094 
-0.00211109 0.14198 -0.98987 
-0.00482862 0.103333 -0.994638 
-0.00716039 0.0745683 -0.997193 
-0.00917496 0.0534554 -0.998534 
-0.0103518 0.0384269 -0.999215 
-0.0112284 0.0276029 -0.999563 
-0.0119137 0.0196014 -0.999744 
-0.0123856 0.0135169 -0.99984 
-0.0129053 0.00906684 -0.999883 
-0.012974 0.00575197 -0.999906 
-0.013019 0.00340809 -0.999916 
-0.0133665 0.00145428 -0.999917 
-0.0132238 -0.000350896 -0.999919 
-0.0132138 -0.00162729 -0.999917 
-0.0132481 -0.00261976 -0.999915 
-0.0134596 -0.00344505 -0.99991 
-0.0134629 -0.00425068 -0.999907 
-0.013638 -0.00495244 -0.999902 
-0.0137818 -0.00568651 -0.999897 
-0.0136323 -0.00636061 -0.999894 
-0.0138169 -0.00692582 -0.999889 
-0.0138518 -0.00760799 -0.999884 
-0.0138664 -0.00846876 -0.999877 
-0.0137467 -0.00952721 -0.999869 
-0.0131861 -0.0104965 -0.999865 
-0.0139785 -0.0115786 -0.999846 
-0.0139576 -0.0142268 -0.999814 
-0.0125629 -0.0177761 -0.999772 
-0.0128735 -0.0231252 -0.999662 
-0.0119567 -0.0315665 -0.999439 
-0.0139293 -0.0315912 -0.999411 
-0.0125149 -0.0200695 -0.999725 
0.0128716 -0.0188901 0.999752 
0.0151857 -0.0259204 0.999559 
0.0176482 -0.02932 0.999422 
0.0168827 -0.0261715 0.999522 
0.0169022 -0.0199128 0.999668 
0.0181716 -0.0145166 0.999739 
0.0215077 -0.0120012 0.999707 
0.0212274 -0.0102975 0.99973 
0.0225532 -0.00910426 0.999713 
0.0219789 -0.00810647 0.999733 
0.0229924 -0.00732642 0.999717 
0.0223983 -0.00664502 0.999735 
0.0236285 -0.00598162 0.999711 
0.0213026 -0.00531113 0.999768 
0.0229562 -0.00450711 0.999734 
0.022254 -0.00373164 0.999754 
0.0225924 -0.00287227 0.999749 
0.0222985 -0.00186407 0.999758 
0.0221123 -0.000626944 0.999763 
0.022339 0.000864129 0.999758 
0.0224134 0.00262484 0.999753 
0.0219294 0.00480538 0.999756 
0.0212339 0.00767578 0.999753 
0.0203696 0.0115199 0.999734 
0.0196734 0.016735 0.999674 
0.0183667 0.0239551 0.999552 
0.0173051 0.0342436 0.999271 
0.0157318 0.0485582 0.998704 
0.0133169 0.0695435 0.997497 
0.0137032 0.099001 0.994999 
0.0128282 0.135785 0.990661 
0.0117504 0.188995 0.981913 
0.0193245 0.248036 0.968562 
0.0184439 0.309715 0.950654 
0.016651 0.380266 0.924729 
0.0460341 0.414294 0.908981 
0.0154551 0.471342 0.881822 
0.00838654 0.725689 0.687968 
0.0241993 0.916573 0.399095 
-0.00786624 0.98551 -0.169503 
-0.038519 0.785013 -0.618292 
-0.00948596 0.730728 -0.682608 
-0.00408316 0.526071 -0.850434 
-0.0249542 0.418999 -0.907644 
-0.0247034 0.349723 -0.936531 
-0.018235 0.284552 -0.958491 
-0.0135688 0.219415 -0.975542 
-0.0126154 0.159186 -0.987173 
-0.012895 0.113848 -0.99342 
-0.0134259 0.0791276 -0.996782 
-0.0149954 0.0553315 -0.998363 
-0.0165606 0.0395827 -0.999087 
-0.0180318 0.0280394 -0.999452 
-0.0192408 0.0199048 -0.999625 
-0.0201015 0.013833 -0.99971 
-0.0205811 0.00917955 -0.999754 
-0.0217531 0.00601665 -0.999753 
-0.0217353 0.00349257 -0.999766 
-0.0217935 0.00139781 -0.99977 
-0.022757 -0.000203632 -0.999749 
-0.0225654 -0.0015161 -0.999752 
-0.0229972 -0.00253043 -0.99974 
-0.0223568 -0.00345938 -0.999752 
-0.0230171 -0.0042424 -0.999734 
-0.0219884 -0.00502141 -0.999754 
-0.0226013 -0.00572364 -0.999736 
-0.0224297 -0.00636191 -0.999736 
-0.0220954 -0.00699753 -0.99974 
-0.0222127 -0.00776467 -0.999732 
-0.0219185 -0.00876129 -0.99973 
-0.0224029 -0.00992647 -0.999708 
-0.0227703 -0.0113287 -0.999685 
-0.0185194 -0.0131941 -0.999751 
-0.0201857 -0.016733 -0.999665 
-0.0186244 -0.0210638 -0.999613 
-0.0156817 -0.0271836 -0.999515 
-0.0173186 -0.029207 -0.999432 
-0.0140778 -0.0235173 -0.999634 
-0.0125794 -0.0200004 -0.999742 
0.0110645 -0.0181742 0.99979 
0.017224 -0.0263102 0.999513 
0.0203124 -0.0310071 0.999319 
0.0219245 -0.0266059 0.999413 
0.0238295 -0.0226783 0.999464 
0.0224651 -0.0193523 0.999567 
0.025356 -0.0150226 0.999572 
0.0270703 -0.0126582 0.999558 
0.027198 -0.0104631 0.999583 
0.0279367 -0.00885987 0.999576 
0.0278498 -0.00772975 0.999588 
0.0279205 -0.00686061 0.999593 
0.0277385 -0.00623093 0.999602 
0.0280084 -0.00553528 0.999598 
0.0278662 -0.00486094 0.999606 
0.0279278 -0.00401269 0.999608 
0.0278184 -0.00315702 0.999614 
0.0277577 -0.00217031 0.999618 
0.0276578 -0.00104918 0.999622 
0.0275218 0.000315642 0.999627 
0.0273129 0.00199296 0.99963 
0.0270246 0.0040711 0.999632 
0.0266259 0.00672745 0.999628 
0.0260341 0.0102705 0.999614 
0.0252779 0.0149604 0.999574 
0.0243024 0.0214479 0.99948 
0.0232243 0.030323 0.999276 
0.0221146 0.042891 0.998841 
0.0207432 0.0605463 0.997956 
0.0203546 0.0836258 0.996295 
0.0222261 0.11708 0.99288 
0.0243262 0.159652 0.986879 
0.032718 0.205232 0.978171 
0.0492888 0.266295 0.962634 
0.0546322 0.326611 0.943582 
0.0830379 0.395096 0.91488 
0.0508015 0.522714 0.850991 
0.0200764 0.590706 0.806633 
0.0283743 0.810556 0.585017 
-0.00150529 0.966792 0.25534 
-0.0495136 0.883232 -0.466339 
-0.0268723 0.589163 -0.807566 
-0.0461354 0.489216 -0.870942 
-0.0761067 0.421579 -0.903594 
-0.0647891 0.349467 -0.934707 
-0.04997 0.284275 -0.957443 
-0.0352322 0.229799 -0.972604 
-0.0259754 0.178322 -0.983634 
-0.0222652 0.131104 -0.991124 
-0.0198622 0.0922441 -0.995544 
-0.0202212 0.064738 -0.997703 
-0.0217033 0.0458052 -0.998721 
-0.0227916 0.0330594 -0.9992 
-0.0240084 0.0234141 -0.999444 
-0.0249999 0.0164318 -0.999558 
-0.025728 0.0111933 -0.999612 
-0.0264554 0.00745851 -0.999628 
-0.0269238 0.00460139 -0.999633 
-0.0272158 0.00232587 -0.999632 
-0.0275339 0.000577823 -0.999626 
-0.0276622 -0.000862642 -0.999622 
-0.0278211 -0.00198189 -0.999616 
-0.0278711 -0.00298997 -0.999613 
-0.0280004 -0.00383568 -0.999606 
-0.027951 -0.00467391 -0.999604 
-0.0279906 -0.00538827 -0.999599 
-0.0279575 -0.00604281 -0.999597 
-0.0279177 -0.00665467 -0.999594 
-0.0279495 -0.00736368 -0.999588 
-0.0278439 -0.00834374 -0.999583 
-0.0276601 -0.00962214 -0.999577 
-0.0273199 -0.0113668 -0.999568 
-0.0265778 -0.0135847 -0.999561 
-0.0257412 -0.0165352 -0.999538 
-0.0240629 -0.0216061 -0.999484 
-0.0219339 -0.0266628 -0.99941 
-0.020655 -0.030814 -0.999318 
-0.0167057 -0.0248115 -0.999562 
-0.0108036 -0.0167795 -0.999812 
0.00803718 -0.0202943 0.999785 
0.0141616 -0.0243636 0.999613 
0.015913 -0.0319401 0.99937 
0.0196867 -0.0289096 0.999395 
0.0200719 -0.0230546 0.999539 
0.0251134 -0.0176859 0.999534 
0.0238822 -0.0145605 0.999616 
0.0244987 -0.0113456 0.999641 
0.0252774 -0.00945508 0.999642 
0.0250829 -0.00798178 0.999659 
0.0247199 -0.00704183 0.999675 
0.0236892 -0.00633918 0.999705 
0.0248547 -0.00575261 0.99968 
0.0243729 -0.00508432 0.999696 
0.0250155 -0.0043442 0.999683 
0.0246417 -0.0034391 0.999696 
0.0246856 -0.00250587 0.999698 
0.0245057 -0.00145399 0.999704 
0.0244248 -0.000273786 0.999707 
0.024054 0.00116503 0.999715 
0.0236082 0.00296148 0.999722 
0.023385 0.00524565 0.999718 
0.0233251 0.00821441 0.9997 
0.0229745 0.0120991 0.999669 
0.0226472 0.0173447 0.999599 
0.0221705 0.0243908 0.999463 
0.0218946 0.034185 0.999182 
0.0220057 0.048158 0.998604 
0.0225339 0.0657275 0.997589 
0.0243581 0.0905643 0.995599 
0.0303686 0.125346 0.991654 
0.0394146 0.1619 0.986025 
0.0552532 0.213746 0.975329 
0.0839189 0.259723 0.962035 
0.0977952 0.315299 0.943942 
0.130903 0.358177 0.924434 
0.0937615 0.500058 0.860901 
0.0594398 0.643477 0.763153 
0.0707796 0.853386 0.516499 
-0.0159221 0.994959 -0.0983062 
-0.0538132 0.664793 -0.745084 
-0.0855938 0.557443 -0.825792 
-0.11951 0.473634 -0.872575 
-0.11764 0.365619 -0.923303 
-0.0904699 0.294977 -0.951214 
-0.066394 0.238009 -0.968995 
-0.0468681 0.191927 -0.980295 
-0.0344258 0.151068 -0.987929 
-0.0259153 0.10961 -0.993643 
-0.0228336 0.0804359 -0.996504 
-0.0217834 0.0581657 -0.998075 
-0.0213027 0.041749 -0.998907 
-0.0219904 0.0304363 -0.999301 
-0.0222154 0.0217115 -0.999523 
-0.0226838 0.0152362 -0.999632 
-0.0232206 0.0106083 -0.99968 
-0.0231257 0.00704254 -0.999713 
-0.023812 0.00430548 -0.999713 
-0.0241455 0.00222182 -0.999711 
-0.0239774 0.000508619 -0.999718 
-0.023991 -0.000807504 -0.999717 
-0.024237 -0.00196915 -0.99971 
-0.024345 -0.00292696 -0.999705 
-0.0245601 -0.00387275 -0.999696 
-0.0247611 -0.00468665 -0.999688 
-0.0247784 -0.00543534 -0.999684 
-0.0246854 -0.00606834 -0.999683 
-0.0247512 -0.00665257 -0.999677 
-0.0248893 -0.00741054 -0.999669 
-0.0247283 -0.00848026 -0.999664 
-0.0241221 -0.00998253 -0.999665 
-0.0239634 -0.0125148 -0.99964 
-0.0240927 -0.0151532 -0.999601 
-0.0235265 -0.0189898 -0.999548 
-0.0205708 -0.0237405 -0.999513 
-0.0210329 -0.0278507 -0.999397 
-0.0175738 -0.0329299 -0.999308 
-0.0153772 -0.0282008 -0.999494 
-0.0084204 -0.0180357 -0.999817 
0.00576724 -0.0208037 0.99979 
0.0101327 -0.0248808 0.99965 
0.0152155 -0.0330949 0.999341 
0.0160736 -0.0274402 0.9995 
0.0154523 -0.0217641 0.999651 
0.0205742 -0.0184472 0.999623 
0.0172892 -0.0165127 0.99972 
0.0199011 -0.0132138 0.999721 
0.0190956 -0.0104678 0.999769 
0.0201861 -0.00868336 0.999764 
0.0191309 -0.0074454 0.999795 
0.01876 -0.00666082 0.999808 
0.0188721 -0.00599877 0.99981 
0.0191007 -0.00542999 0.999809 
0.0190537 -0.00465178 0.999813 
0.0195412 -0.00381617 0.999807 
0.0192642 -0.00282776 0.999816 
0.019273 -0.00181564 0.999818 
0.0189676 -0.000680112 0.999825 
0.0187735 0.000593804 0.999829 
0.0183732 0.00216419 0.999834 
0.0180984 0.004161 0.999833 
0.0180938 0.00674573 0.999819 
0.0180709 0.0100547 0.999792 
0.0181271 0.0145156 0.999736 
0.0181187 0.0203929 0.999634 
0.0184483 0.028537 0.999429 
0.0194894 0.0400667 0.999013 
0.0211659 0.0551167 0.998262 
0.0244001 0.0754012 0.996861 
0.0305138 0.102574 0.994263 
0.0434121 0.135292 0.98986 
0.0604188 0.178059 0.982169 
0.0931168 0.224163 0.970097 
0.136554 0.274684 0.951793 
0.177293 0.34532 0.921589 
0.135633 0.453287 0.880986 
0.117163 0.625852 0.771091 
0.0744611 0.743225 0.664904 
0.0156545 0.978869 0.203888 
-0.0917841 0.909303 -0.405863 
-0.0983118 0.710911 -0.69637 
-0.171563 0.43075 -0.886015 
-0.15336 0.336529 -0.929102 
-0.114531 0.265502 -0.957287 
-0.0833598 0.21057 -0.974024 
-0.0593978 0.173053 -0.983125 
-0.0429574 0.138607 -0.989421 
-0.0318726 0.113462 -0.993036 
-0.0255161 0.0853617 -0.996029 
-0.0218282 0.063977 -0.997719 
-0.0197741 0.0473157 -0.99869 
-0.0185512 0.0329582 -0.999291 
-0.0184075 0.0243315 -0.99954 
-0.0180991 0.017108 -0.999696 
-0.0180228 0.0119541 -0.999772 
-0.0180354 0.00827668 -0.999809 
-0.0183196 0.00523458 -0.999824 
-0.018595 0.00301203 -0.999828 
-0.0187487 0.00124904 -0.999829 
-0.018388 -0.0002041 -0.999836 
-0.0187922 -0.00141679 -0.999828 
-0.0186615 -0.00246656 -0.999828 
-0.019224 -0.00344462 -0.999815 
-0.0190824 -0.00436578 -0.999814 
-0.0193862 -0.00516321 -0.999804 
-0.0192901 -0.00584012 -0.999803 
-0.0191147 -0.00640458 -0.999803 
-0.0193157 -0.00704204 -0.999794 
-0.0191435 -0.00800708 -0.999791 
-0.0185147 -0.00946266 -0.99979 
-0.0191545 -0.0117059 -0.999754 
-0.0183616 -0.0150094 -0.999726 
-0.0189538 -0.01851 -0.999655 
-0.0164963 -0.0238371 -0.999586 
-0.0159466 -0.0303725 -0.999418 
-0.0131275 -0.0339631 -0.999344 
-0.0110565 -0.0254074 -0.999626 
-0.00607001 -0.0195206 -0.999809 
0.00453582 -0.0199964 0.999808 
0.00736817 -0.0260897 0.999644 
0.0113449 -0.0339512 0.999366 
0.0115043 -0.0338333 0.999367 
0.0122188 -0.0278644 0.999542 
0.0126176 -0.0193949 0.999738 
0.0137861 -0.0146444 0.999804 
0.0146832 -0.0118754 0.999828 
0.0145746 -0.00923762 0.999857 
0.0145156 -0.00788317 0.999869 
0.0137685 -0.00691598 0.999887 
0.0144472 -0.00629683 0.999882 
0.0138596 -0.00576091 0.999893 
0.0143811 -0.00508305 0.999889 
0.0143308 -0.00419623 0.999894 
0.0147235 -0.00327567 0.999892 
0.0144832 -0.00224075 0.999898 
0.01435 -0.00117842 0.999902 
0.0139856 5.73063e-06 0.999908 
0.0138091 0.00134336 0.999909 
0.0135616 0.00301835 0.999909 
0.013493 0.00515002 0.999901 
0.0134869 0.00784247 0.999884 
0.0137527 0.0114103 0.999846 
0.0139812 0.0160382 0.999779 
0.0145281 0.0222638 0.999653 
0.0156915 0.0309218 0.999405 
0.0175888 0.0421768 0.998962 
0.0209948 0.0573832 0.998138 
0.026547 0.0770509 0.99668 
0.0356861 0.101749 0.994176 
0.0540109 0.135187 0.989353 
0.0748218 0.167687 0.983001 
0.0948786 0.173052 0.980337 
0.121341 0.208996 0.970364 
0.169403 0.253577 0.95237 
0.192273 0.427048 0.883557 
0.172092 0.568534 0.804457 
0.0876989 0.917714 0.387382 
-0.0172333 0.999733 -0.0159258 
-0.130924 0.773368 -0.620307 
-0.149429 0.597773 -0.787613 
-0.22253 0.390064 -0.893495 
-0.164382 0.284062 -0.944613 
-0.120736 0.219446 -0.968129 
-0.0874489 0.175672 -0.980562 
-0.0624606 0.146865 -0.987188 
-0.0446105 0.119624 -0.991822 
-0.0324042 0.0976627 -0.994698 
-0.0244573 0.0737183 -0.996986 
-0.0199239 0.0556872 -0.998257 
-0.0172415 0.0402952 -0.999044 
-0.0150849 0.0287656 -0.99948 
-0.0147112 0.0211786 -0.999673 
-0.0139884 0.0150267 -0.999795 
-0.0134773 0.0106938 -0.999858 
-0.0137445 0.00726163 -0.999885 
-0.0136509 0.00467105 -0.999901 
-0.0138257 0.00265531 -0.999906 
-0.0139816 0.00102235 -0.999907 
-0.0137565 -0.000367088 -0.999911 
-0.0140051 -0.00151388 -0.999906 
-0.0140345 -0.00260089 -0.999904 
-0.0144528 -0.00359192 -0.999895 
-0.014209 -0.00452859 -0.999894 
-0.0145349 -0.00534036 -0.999886 
-0.0143836 -0.00598819 -0.999884 
-0.0141416 -0.00650405 -0.999885 
-0.0142178 -0.00711599 -0.999879 
-0.0139935 -0.00812437 -0.999875 
-0.0137901 -0.00986415 -0.999862 
-0.0144418 -0.0124455 -0.999823 
-0.0135766 -0.0158724 -0.999788 
-0.0140682 -0.0199201 -0.999709 
-0.0121824 -0.0257042 -0.999601 
-0.0124459 -0.0313018 -0.999439 
-0.01026 -0.0355484 -0.999321 
-0.0087519 -0.0285694 -0.999564 
-0.00484585 -0.0184598 -0.999832 
0.00362627 -0.0191913 0.999825 
0.00609256 -0.0295849 0.999554 
0.00871986 -0.0359691 0.999321 
0.00875691 -0.032988 0.999424 
0.010444 -0.0246351 0.999648 
0.00872272 -0.02027 0.999762 
0.0102094 -0.0160763 0.999823 
0.00983925 -0.0122951 0.999883 
0.0108922 -0.0100114 0.999895 
0.00987865 -0.00815671 0.999924 
0.00988883 -0.00718524 0.999931 
0.0102058 -0.00652517 0.999932 
0.0100706 -0.00606316 0.999936 
0.0100925 -0.00538877 0.99994 
0.0104047 -0.00455788 0.999941 
0.0104162 -0.00355482 0.999945 
0.010613 -0.00256621 0.999946 
0.0103724 -0.0014865 0.99995 
0.0101312 -0.000363142 0.999954 
0.00980835 0.000906104 0.999957 
0.00972968 0.00236231 0.999955 
0.00964114 0.00421408 0.99995 
0.00960731 0.00651151 0.999938 
0.00990416 0.00952534 0.999911 
0.0102768 0.0133878 0.999863 
0.0109608 0.018517 0.999774 
0.0122346 0.0254675 0.999607 
0.0141623 0.0346002 0.999307 
0.0174876 0.0467032 0.998762 
0.0230247 0.0627727 0.997769 
0.0313731 0.0822259 0.996126 
0.0450076 0.107728 0.993167 
0.0649267 0.129514 0.989457 
0.0829306 0.138846 0.98684 
0.114414 0.160747 0.980348 
0.155982 0.199469 0.967414 
0.231457 0.344361 0.909863 
0.234449 0.578099 0.781603 
0.147094 0.755495 0.638403 
-0.0667036 0.980422 -0.185131 
-0.207584 0.708309 -0.674668 
-0.204724 0.525012 -0.826106 
-0.224525 0.322117 -0.919688 
-0.161491 0.222555 -0.961456 
-0.113139 0.172096 -0.978567 
-0.0807403 0.140453 -0.986796 
-0.0599142 0.123438 -0.990548 
-0.0427663 0.102682 -0.993801 
-0.0311565 0.0846214 -0.995934 
-0.0229705 0.0650002 -0.997627 
-0.0179855 0.0499063 -0.998597 
-0.0154985 0.0392916 -0.999114 
-0.0128828 0.0292439 -0.999494 
-0.0115746 0.021282 -0.999713 
-0.0107986 0.0156566 -0.999825 
-0.00986551 0.0111139 -0.999895 
-0.00995254 0.00780104 -0.999926 
-0.00979285 0.00520007 -0.999944 
-0.00979781 0.00313528 -0.999952 
-0.00993112 0.00148988 -0.999955 
-0.0100019 0.000121029 -0.999955 
-0.00992094 -0.00114034 -0.999956 
-0.0101729 -0.00224089 -0.999951 
-0.0102948 -0.00334153 -0.999947 
-0.010251 -0.00432135 -0.999944 
-0.0103713 -0.00524531 -0.999938 
-0.0103594 -0.0059367 -0.999934 
-0.010106 -0.00645162 -0.999934 
-0.0100349 -0.0069785 -0.999931 
-0.00988102 -0.00786241 -0.999926 
-0.00992132 -0.00943955 -0.999913 
-0.0103561 -0.0121576 -0.999878 
-0.0100402 -0.0160393 -0.999827 
-0.01028 -0.0208962 -0.999735 
-0.00883961 -0.0264372 -0.999617 
-0.00918912 -0.0323753 -0.999439 
-0.0077417 -0.0366408 -0.999304 
-0.00693409 -0.0298081 -0.999541 
-0.00379461 -0.0194965 -0.99982 
0.00287463 -0.0193875 0.999823 
0.0047229 -0.0292329 0.999572 
0.00682053 -0.036819 0.999305 
0.00607586 -0.0331659 0.999437 
0.00777822 -0.0275147 0.999597 
0.00635516 -0.020889 0.999767 
0.00700754 -0.0151868 0.999867 
0.00649902 -0.0116345 0.999916 
0.00710757 -0.00931818 0.999937 
0.00617406 -0.00782181 0.999957 
0.00676445 -0.00700149 0.999957 
0.00674649 -0.00654148 0.999961 
0.00691396 -0.00604444 0.999963 
0.00682945 -0.00532043 0.999969 
0.00716168 -0.00440428 0.999969 
0.00706767 -0.00335863 0.999976 
0.00729413 -0.00230352 0.999975 
0.00706347 -0.00119874 0.99998 
0.00686885 -3.61244e-05 0.999982 
0.00658174 0.00125333 0.999984 
0.00662168 0.00276762 0.999979 
0.0064933 0.00456978 0.999975 
0.00660715 0.00687514 0.99996 
0.00690613 0.00976466 0.999934 
0.00744224 0.0135661 0.999886 
0.00834059 0.0185557 0.999799 
0.00986188 0.0251676 0.999641 
0.0122597 0.0338533 0.999358 
0.0163626 0.0455956 0.998833 
0.0222812 0.0594985 0.997986 
0.03183 0.0776335 0.99648 
0.0450716 0.0977255 0.994197 
0.0551993 0.105136 0.992931 
0.070743 0.115789 0.990758 
0.100984 0.135405 0.985637 
0.15393 0.168274 0.973651 
0.227048 0.267585 0.936402 
0.300714 0.439944 0.846196 
0.222555 0.772921 0.594222 
0.0239907 0.99106 0.13123 
-0.182647 0.865837 -0.465855 
-0.295297 0.507674 -0.809382 
-0.22048 0.248515 -0.943193 
-0.146625 0.169891 -0.974498 
-0.0988617 0.136667 -0.985678 
-0.0692218 0.115487 -0.990901 
-0.0528587 0.103525 -0.993228 
-0.0399845 0.0905309 -0.995097 
-0.029464 0.075473 -0.996718 
-0.0214297 0.0594374 -0.998009 
-0.0157396 0.045053 -0.998867 
-0.0127493 0.0349842 -0.999314 
-0.00997779 0.0251762 -0.999639 
-0.00845249 0.0186893 -0.999796 
-0.00763945 0.0137943 -0.999881 
-0.00686239 0.00980548 -0.999934 
-0.0068052 0.00695893 -0.999958 
-0.00666572 0.00466114 -0.999972 
-0.00664382 0.00280916 -0.999979 
-0.00672494 0.00129445 -0.999983 
-0.00695514 -8.02704e-05 -0.99998 
-0.00678219 -0.00130438 -0.999982 
-0.00710557 -0.0024663 -0.999977 
-0.00697719 -0.00355112 -0.999975 
-0.00708686 -0.00461837 -0.99997 
-0.00699588 -0.00552279 -0.999966 
-0.00695875 -0.00619377 -0.999962 
-0.00677829 -0.00666673 -0.99996 
-0.00664056 -0.00715854 -0.999958 
-0.00657349 -0.00809623 -0.999951 
-0.00652125 -0.00979588 -0.999935 
-0.00716551 -0.0122981 -0.999904 
-0.00658958 -0.0155712 -0.999863 
-0.00728957 -0.0199759 -0.99978 
-0.00638838 -0.0258088 -0.999652 
-0.00662568 -0.0331083 -0.999436 
-0.0058011 -0.0369776 -0.999305 
-0.00512851 -0.0279586 -0.999607 
-0.00300855 -0.0198175 -0.999816 
0.00223346 -0.0187866 0.999835 