# vtk DataFile Version 3.0 
Exported using Morpho https://github.com/Morpho-lang/morpho 
ASCII 
DATASET UNSTRUCTURED_GRID 

POINTS 2122 float 
-8.32618 -2.88146 0 
-8.11405 -2.88146 0 
-7.90192 -2.88146 0 
-7.68979 -2.88146 0 
-7.47765 -2.88146 0 
-7.26552 -2.88146 0 
-7.05339 -2.88146 0 
-6.84126 -2.88146 0 
-6.62913 -2.88146 0 
-6.41699 -2.88146 0 
-6.20486 -2.88146 0 
-5.99273 -2.88146 0 
-5.7806 -2.88146 0 
-5.56847 -2.88146 0 
-5.35633 -2.88146 0 
-5.1442 -2.88146 0 
-4.93207 -2.88146 0 
-4.71994 -2.88146 0 
-4.50781 -2.88146 0 
-4.29567 -2.88146 0 
-4.08354 -2.88146 0 
-3.87141 -2.88146 0 
-3.65928 -2.88146 0 
-3.44715 -2.88146 0 
-3.23501 -2.88146 0 
-3.02288 -2.88146 0 
-2.81075 -2.88146 0 
-2.59862 -2.88146 0 
-2.38649 -2.88146 0 
-2.17435 -2.88146 0 
-1.96222 -2.88146 0 
-1.75009 -2.88146 0 
-1.53796 -2.88146 0 
-1.32583 -2.88146 0 
-1.11369 -2.88146 0 
-0.901561 -2.88146 0 
-0.689429 -2.88146 0 
-0.477297 -2.88146 0 
-0.265165 -2.88146 0 
-0.053033 -2.88146 0 
0.159099 -2.88146 0 
0.371231 -2.88146 0 
0.583363 -2.88146 0 
0.795495 -2.88146 0 
1.00763 -2.88146 0 
1.21976 -2.88146 0 
1.43189 -2.88146 0 
1.64402 -2.88146 0 
1.85616 -2.88146 0 
2.06829 -2.88146 0 
2.28042 -2.88146 0 
2.49255 -2.88146 0 
2.70468 -2.88146 0 
2.91682 -2.88146 0 
3.12895 -2.88146 0 
3.34108 -2.88146 0 
3.55321 -2.88146 0 
3.76534 -2.88146 0 
3.97748 -2.88146 0 
4.18961 -2.88146 0 
4.40174 -2.88146 0 
4.61387 -2.88146 0 
4.826 -2.88146 0 
5.03814 -2.88146 0 
5.25027 -2.88146 0 
5.4624 -2.88146 0 
5.67453 -2.88146 0 
5.88666 -2.88146 0 
6.0988 -2.88146 0 
6.31093 -2.88146 0 
6.52306 -2.88146 0 
6.73519 -2.88146 0 
6.94732 -2.88146 0 
7.15946 -2.88146 0 
7.37159 -2.88146 0 
7.58372 -2.88146 0 
7.79585 -2.88146 0 
8.00798 -2.88146 0 
8.22012 -2.88146 0 
8.53831 -2.88146 0 
-8.53831 -2.71675 0 
-8.2537 -2.65743 0 
-8.02846 -2.6534 0 
-7.79067 -2.66311 0 
-7.55798 -2.66726 0 
-7.32701 -2.66892 0 
-7.10097 -2.66896 0 
-6.8785 -2.66985 0 
-6.65787 -2.67031 0 
-6.43917 -2.67026 0 
-6.22225 -2.67028 0 
-6.00623 -2.67014 0 
-5.791 -2.6699 0 
-5.57652 -2.66976 0 
-5.36241 -2.66955 0 
-5.14868 -2.66937 0 
-4.93553 -2.66973 0 
-4.72221 -2.66982 0 
-4.50895 -2.66963 0 
-4.29604 -2.66951 0 
-4.0835 -2.66941 0 
-3.87107 -2.66958 0 
-3.65853 -2.66971 0 
-3.4461 -2.66969 0 
-3.23387 -2.66967 0 
-3.02171 -2.66977 0 
-2.80955 -2.67 0 
-2.59751 -2.67002 0 
-2.38567 -2.67 0 
-2.17377 -2.67004 0 
-1.96201 -2.67002 0 
-1.74968 -2.67042 0 
-1.53748 -2.66955 0 
-1.32491 -2.66943 0 
-1.11225 -2.6692 0 
-0.899297 -2.66823 0 
-0.685958 -2.66783 0 
-0.472206 -2.66642 0 
-0.258064 -2.66828 0 
-0.0486186 -2.65562 0 
0.160312 -2.67791 0 
0.369651 -2.65611 0 
0.576962 -2.66459 0 
0.789324 -2.66563 0 
1.00322 -2.66845 0 
1.21844 -2.6687 0 
1.43109 -2.66966 0 
1.64385 -2.67044 0 
1.85659 -2.67081 0 
2.06885 -2.6708 0 
2.28115 -2.67102 0 
2.49332 -2.67074 0 
2.70527 -2.67028 0 
2.91732 -2.67011 0 
3.12936 -2.67002 0 
3.34141 -2.66968 0 
3.55351 -2.66957 0 
3.7657 -2.6696 0 
3.97759 -2.66934 0 
4.18959 -2.66977 0 
4.40174 -2.66986 0 
4.61426 -2.66981 0 
4.82625 -2.66935 0 
5.03856 -2.66971 0 
5.25123 -2.66968 0 
5.46339 -2.66915 0 
5.67554 -2.66902 0 
5.88839 -2.66999 0 
6.10089 -2.6702 0 
6.31247 -2.67029 0 
6.52404 -2.67055 0 
6.73513 -2.66999 0 
6.94659 -2.67116 0 
7.16044 -2.67055 0 
7.37538 -2.669 0 
7.59027 -2.66656 0 
7.80655 -2.66079 0 
8.02138 -2.64782 0 
8.28384 -2.70464 0 
8.53831 -2.66933 0 
-8.4204 -2.50736 0 
-8.17727 -2.41286 0 
-7.94476 -2.44597 0 
-7.71139 -2.4508 0 
-7.48258 -2.45894 0 
-7.25957 -2.4581 0 
-7.04122 -2.45781 0 
-6.82557 -2.4594 0 
-6.61214 -2.4595 0 
-6.40068 -2.45878 0 
-6.18987 -2.45879 0 
-5.97938 -2.45842 0 
-5.76924 -2.45777 0 
-5.55893 -2.45756 0 
-5.34831 -2.45725 0 
-5.1378 -2.45679 0 
-4.92656 -2.45777 0 
-4.71499 -2.4581 0 
-4.50334 -2.45779 0 
-4.29213 -2.45733 0 
-4.08088 -2.45716 0 
-3.86909 -2.45769 0 
-3.65714 -2.45785 0 
-3.44529 -2.45769 0 
-3.23337 -2.45778 0 
-3.0215 -2.45777 0 
-2.80982 -2.45835 0 
-2.59809 -2.45846 0 
-2.38619 -2.45825 0 
-2.17462 -2.45843 0 
-1.96276 -2.45809 0 
-1.75124 -2.45916 0 
-1.53845 -2.45731 0 
-1.32648 -2.45754 0 
-1.11284 -2.45661 0 
-0.900749 -2.45434 0 
-0.686224 -2.45382 0 
-0.472583 -2.45078 0 
-0.256592 -2.45113 0 
-0.0498868 -2.42429 0 
0.160366 -2.46574 0 
0.370876 -2.42753 0 
0.579317 -2.44044 0 
0.78887 -2.44545 0 
0.999839 -2.4538 0 
1.21485 -2.45753 0 
1.43152 -2.45599 0 
1.64333 -2.45851 0 
1.85594 -2.45996 0 
2.0687 -2.4598 0 
2.28082 -2.46042 0 
2.49298 -2.45969 0 
2.70469 -2.45859 0 
2.91645 -2.4588 0 
3.1289 -2.45844 0 
3.34119 -2.4579 0 
3.5536 -2.4578 0 
3.76558 -2.45746 0 
3.97775 -2.45749 0 
4.19014 -2.45793 0 
4.40286 -2.4586 0 
4.61477 -2.45763 0 
4.827 -2.45727 0 
5.0399 -2.45836 0 
5.25212 -2.45745 0 
5.46447 -2.45675 0 
5.677 -2.4567 0 
5.88899 -2.45879 0 
6.10023 -2.45754 0 
6.31061 -2.45843 0 
6.52087 -2.45921 0 
6.7315 -2.4584 0 
6.94229 -2.45952 0 
7.15335 -2.46052 0 
7.36879 -2.45793 0 
7.58659 -2.4512 0 
7.80079 -2.43687 0 
8.04408 -2.44372 0 
8.28748 -2.49783 0 
8.53831 -2.4572 0 
-8.53831 -2.26546 0 
-8.32472 -2.25651 0 
-8.01236 -2.2159 0 
-7.78199 -2.23907 0 
-7.53763 -2.24682 0 
-7.30648 -2.24696 0 
-7.07999 -2.24559 0 
-6.85849 -2.24743 0 
-6.64047 -2.24765 0 
-6.42489 -2.24627 0 
-6.21124 -2.24641 0 
-5.9982 -2.24617 0 
-5.78539 -2.24513 0 
-5.57302 -2.24497 0 
-5.36053 -2.24488 0 
-5.14774 -2.24403 0 
-4.93529 -2.24568 0 
-4.72228 -2.24629 0 
-4.50929 -2.24633 0 
-4.29611 -2.24512 0 
-4.08377 -2.2447 0 
-3.8716 -2.24571 0 
-3.65906 -2.246 0 
-3.44643 -2.24569 0 
-3.23401 -2.24585 0 
-3.02173 -2.24603 0 
-2.80934 -2.24638 0 
-2.59695 -2.24694 0 
-2.38504 -2.24637 0 
-2.17268 -2.24682 0 
-1.96112 -2.24561 0 
-1.74699 -2.24836 0 
-1.53495 -2.24376 0 
-1.31977 -2.24585 0 
-1.10838 -2.24107 0 
-0.891037 -2.24149 0 
-0.677661 -2.2371 0 
-0.45789 -2.23593 0 
-0.247258 -2.22631 0 
-0.0457051 -2.1791 0 
0.152457 -2.25097 0 
0.373027 -2.20488 0 
0.588639 -2.21457 0 
0.799741 -2.22234 0 
1.01463 -2.23844 0 
1.23063 -2.2456 0 
1.44154 -2.24014 0 
1.65315 -2.24523 0 
1.86449 -2.24784 0 
2.07537 -2.24779 0 
2.28612 -2.24887 0 
2.4963 -2.24749 0 
2.7067 -2.24624 0 
2.91818 -2.24723 0 
3.1292 -2.24591 0 
3.34025 -2.24608 0 
3.5522 -2.24598 0 
3.76424 -2.24518 0 
3.97586 -2.24536 0 
4.18765 -2.24636 0 
4.40008 -2.24723 0 
4.61254 -2.24539 0 
4.82459 -2.24519 0 
5.03718 -2.24684 0 
5.24986 -2.24524 0 
5.46238 -2.24452 0 
5.67511 -2.24473 0 
5.88803 -2.2464 0 
6.09934 -2.24506 0 
6.3101 -2.24575 0 
6.5198 -2.2469 0 
6.72935 -2.24699 0 
6.94007 -2.24796 0 
7.1515 -2.247 0 
7.36292 -2.24702 0 
7.57561 -2.2332 0 
7.81116 -2.23442 0 
8.05017 -2.23461 0 
8.29208 -2.2825 0 
8.53831 -2.24506 0 
-8.4596 -2.00002 0 
-8.21695 -2.07044 0 
-7.9708 -1.99012 0 
-7.73102 -2.03635 0 
-7.49912 -2.03433 0 
-7.27336 -2.03537 0 
-7.05212 -2.03403 0 
-6.83569 -2.03564 0 
-6.62218 -2.03556 0 
-6.41065 -2.03377 0 
-6.1998 -2.03419 0 
-5.98898 -2.03411 0 
-5.77845 -2.03272 0 
-5.56761 -2.03269 0 
-5.35615 -2.03292 0 
-5.14492 -2.03162 0 
-4.93315 -2.03381 0 
-4.72129 -2.03446 0 
-4.5095 -2.03496 0 
-4.29811 -2.03291 0 
-4.08614 -2.03251 0 
-3.87426 -2.03337 0 
-3.66249 -2.03396 0 
-3.45059 -2.03373 0 
-3.23872 -2.03372 0 
-3.02727 -2.03381 0 
-2.81624 -2.03445 0 
-2.60513 -2.03497 0 
-2.39427 -2.03386 0 
-2.18402 -2.03465 0 
-1.97331 -2.03198 0 
-1.76321 -2.03688 0 
-1.55121 -2.02921 0 
-1.3397 -2.03335 0 
-1.12667 -2.02297 0 
-0.917218 -2.029 0 
-0.701601 -2.01773 0 
-0.490826 -2.02253 0 
-0.27339 -2.00121 0 
-0.0476321 -1.96865 0 
0.192746 -2.03506 0 
0.359242 -1.92185 0 
0.541956 -1.99284 0 
0.764405 -1.99761 0 
0.984138 -2.01935 0 
1.20266 -2.03182 0 
1.4205 -2.02389 0 
1.63601 -2.03053 0 
1.85036 -2.03446 0 
2.06353 -2.03538 0 
2.27658 -2.03679 0 
2.48866 -2.03498 0 
2.70024 -2.03374 0 
2.9121 -2.03561 0 
3.12455 -2.03397 0 
3.33681 -2.03369 0 
3.5487 -2.03416 0 
3.76113 -2.03331 0 
3.97347 -2.03294 0 
4.18522 -2.0341 0 
4.39696 -2.03566 0 
4.6094 -2.03352 0 
4.82163 -2.03295 0 
5.03403 -2.03513 0 
5.2468 -2.03303 0 
5.45903 -2.03222 0 
5.67158 -2.03268 0 
5.88442 -2.035 0 
6.09711 -2.03241 0 
6.30775 -2.03332 0 
6.51751 -2.03408 0 
6.72626 -2.03454 0 
6.93533 -2.03652 0 
7.14621 -2.03448 0 
7.35873 -2.03095 0 
7.58559 -2.0298 0 
7.817 -2.02685 0 
8.05277 -2.02299 0 
8.29328 -2.06569 0 
8.53831 -2.03293 0 
-8.61887 -1.84244 0 
-8.28659 -1.82299 0 
-8.074 -1.81029 0 
-7.77344 -1.81692 0 
-7.53998 -1.82233 0 
-7.30604 -1.82264 0 
-7.08003 -1.82276 0 
-6.85724 -1.8232 0 
-6.64007 -1.82324 0 
-6.42544 -1.82133 0 
-6.21226 -1.82189 0 
-5.99977 -1.8222 0 
-5.78721 -1.82046 0 
-5.57495 -1.82048 0 
-5.36251 -1.82114 0 
-5.14956 -1.8194 0 
-4.93676 -1.82183 0 
-4.72381 -1.82264 0 
-4.5107 -1.82268 0 
-4.29775 -1.82136 0 
-4.08493 -1.82041 0 
-3.87201 -1.82123 0 
-3.65906 -1.82196 0 
-3.4459 -1.8219 0 
-3.23314 -1.8217 0 
-3.02074 -1.8216 0 
-2.80811 -1.82257 0 
-2.5955 -1.82291 0 
-2.38326 -1.82123 0 
-2.17075 -1.82205 0 
-1.95728 -1.81862 0 
-1.74427 -1.8235 0 
-1.52691 -1.81562 0 
-1.31157 -1.81865 0 
-1.09609 -1.80455 0 
-0.878533 -1.81453 0 
-0.660846 -1.79765 0 
-0.441123 -1.80522 0 
-0.216264 -1.78163 0 
0.0932485 -1.82016 0 
0.31214 -1.71751 0 
0.560881 -1.7439 0 
0.762418 -1.77868 0 
0.987919 -1.80198 0 
1.21027 -1.81579 0 
1.42991 -1.80876 0 
1.64674 -1.81649 0 
1.86092 -1.82077 0 
2.07489 -1.82336 0 
2.28624 -1.82407 0 
2.49707 -1.82201 0 
2.70884 -1.82157 0 
2.9205 -1.82393 0 
3.13215 -1.82216 0 
3.34347 -1.82139 0 
3.55529 -1.82228 0 
3.76715 -1.82138 0 
3.9786 -1.82053 0 
4.18991 -1.82165 0 
4.40174 -1.82375 0 
4.61357 -1.82126 0 
4.82453 -1.81953 0 
5.03555 -1.82333 0 
5.24721 -1.82022 0 
5.45986 -1.81991 0 
5.67224 -1.82013 0 
5.8844 -1.82344 0 
6.09611 -1.81993 0 
6.30701 -1.82077 0 
6.51672 -1.82153 0 
6.72561 -1.8216 0 
6.93385 -1.82365 0 
7.14334 -1.82158 0 
7.36368 -1.82467 0 
7.5881 -1.8219 0 
7.81557 -1.81553 0 
8.05228 -1.81175 0 
8.29353 -1.84847 0 
8.53831 -1.8208 0 
-8.46845 -1.66766 0 
-8.24019 -1.55893 0 
-7.9752 -1.63648 0 
-7.73095 -1.59867 0 
[...]
POINT_DATA 2122 
VECTORS vectors float
-0.00015603 -0.000689895 1 
0.000202455 -0.0222321 0.999753 
8.24356e-06 -0.0275816 0.99962 
7.56367e-05 -0.0273904 0.999625 
5.70253e-05 -0.0254715 0.999676 
6.27361e-05 -0.0229233 0.999737 
6.08969e-05 -0.0199782 0.9998 
6.15145e-05 -0.0168088 0.999859 
6.16097e-05 -0.0136596 0.999907 
6.19459e-05 -0.010716 0.999943 
6.21506e-05 -0.00804976 0.999968 
6.22853e-05 -0.00563754 0.999984 
6.24193e-05 -0.00340499 0.999994 
6.241e-05 -0.00125713 0.999999 
6.23503e-05 0.000910911 1 
6.23504e-05 0.00321185 0.999995 
6.21306e-05 0.00576654 0.999983 
6.18926e-05 0.00870893 0.999962 
6.17411e-05 0.0121921 0.999926 
6.08747e-05 0.0164018 0.999865 
6.08861e-05 0.0215775 0.999767 
5.9992e-05 0.0278282 0.999613 
5.91545e-05 0.0356353 0.999365 
5.8062e-05 0.0453732 0.99897 
5.69613e-05 0.0575437 0.998343 
5.49074e-05 0.0727962 0.997347 
5.29341e-05 0.0920438 0.995755 
5.0336e-05 0.116154 0.993231 
4.68044e-05 0.146402 0.989225 
4.28705e-05 0.184306 0.982869 
3.68211e-05 0.231609 0.972809 
3.14363e-05 0.290164 0.956977 
2.36125e-05 0.36147 0.932384 
1.24975e-05 0.447689 0.894189 
4.39246e-06 0.548105 0.836409 
-6.48548e-06 0.659179 0.751986 
-1.54976e-05 0.774509 0.632563 
-1.67488e-05 0.880282 0.474452 
-1.40793e-05 0.960365 0.278745 
-3.26875e-06 0.998325 0.0578607 
8.81847e-06 0.985695 -0.168538 
1.81702e-05 0.924842 -0.380353 
1.5536e-05 0.83001 -0.557749 
1.18998e-05 0.717702 -0.696351 
1.73559e-06 0.603138 -0.797637 
-9.11667e-06 0.496668 -0.867941 
-1.75382e-05 0.403385 -0.91503 
-2.86279e-05 0.324789 -0.945786 
-3.44199e-05 0.260576 -0.965453 
-3.86834e-05 0.207331 -0.978271 
-4.59946e-05 0.16485 -0.986319 
-4.79091e-05 0.130739 -0.991417 
-5.17147e-05 0.103536 -0.994626 
-5.42474e-05 0.0820343 -0.99663 
-5.60068e-05 0.0649466 -0.997889 
-5.73361e-05 0.0512631 -0.998685 
-5.87766e-05 0.0403323 -0.999186 
-5.96368e-05 0.031565 -0.999502 
-6.00118e-05 0.0244641 -0.999701 
-6.14743e-05 0.0188888 -0.999822 
-6.13394e-05 0.0143332 -0.999897 
-6.159e-05 0.010512 -0.999945 
-6.22198e-05 0.00734551 -0.999973 
-6.22297e-05 0.00466072 -0.999989 
-6.23394e-05 0.00231792 -0.999997 
-6.26526e-05 0.000191607 -1 
-6.22529e-05 -0.00183499 -0.999998 
-6.27844e-05 -0.00386355 -0.999993 
-6.21065e-05 -0.00598396 -0.999982 
-6.23612e-05 -0.0083029 -0.999966 
-6.21917e-05 -0.0108547 -0.999941 
-6.16896e-05 -0.0136213 -0.999907 
-6.20436e-05 -0.0166015 -0.999862 
-6.05867e-05 -0.0193599 -0.999813 
-6.5375e-05 -0.0218376 -0.999762 
-5.58079e-05 -0.0239908 -0.999712 
-6.84636e-05 -0.0257448 -0.999669 
-5.68108e-05 -0.026276 -0.999655 
-3.91649e-05 -0.0225438 -0.999746 
-3.22859e-05 -0.00118495 -0.999999 
0.000149424 0.000220719 1 
0.00618178 -0.0185902 0.999808 
0.00940757 -0.0262385 0.999611 
0.0111828 -0.0278743 0.999549 
0.0123191 -0.0262644 0.999579 
0.0130432 -0.0235284 0.999638 
0.0135652 -0.0204429 0.999699 
0.0139158 -0.017223 0.999755 
0.0141902 -0.0140283 0.999801 
0.0144154 -0.0110203 0.999835 
0.0145795 -0.00828141 0.999859 
0.0146977 -0.00579826 0.999875 
0.0147775 -0.00350614 0.999885 
0.0148189 -0.00131048 0.999889 
0.0148324 0.000899333 0.99989 
0.014819 0.00323741 0.999885 
0.0147601 0.00582294 0.999874 
0.0146788 0.00880007 0.999854 
0.0145746 0.0123194 0.999818 
0.0144296 0.0165525 0.999759 
0.0142378 0.0216972 0.999663 
0.0140541 0.0280782 0.999507 
0.0138103 0.035974 0.999257 
0.0135176 0.045804 0.998859 
0.0131686 0.0580709 0.998226 
0.0127453 0.0733821 0.997222 
0.0123056 0.0928248 0.995606 
0.0117964 0.117041 0.993057 
0.0112506 0.147375 0.989017 
0.0106928 0.185351 0.982614 
0.0101623 0.232671 0.972502 
0.00969633 0.291496 0.956523 
0.009341 0.362342 0.931998 
0.00916635 0.448862 0.893554 
0.0091234 0.549536 0.83542 
0.00906919 0.66018 0.751053 
0.00863007 0.776349 0.630244 
0.00736239 0.882169 0.470876 
0.00463207 0.962365 0.27172 
0.00115442 0.998591 0.0530454 
-0.00252092 0.985345 -0.170552 
-0.00623467 0.925453 -0.378812 
-0.00797327 0.83305 -0.553141 
-0.00887716 0.720996 -0.692882 
-0.00902597 0.605749 -0.795605 
-0.00909665 0.497911 -0.86718 
-0.00919941 0.404562 -0.914464 
-0.0094615 0.325624 -0.945452 
-0.00985391 0.260331 -0.965469 
-0.0103879 0.207868 -0.978102 
-0.0109631 0.165628 -0.986127 
-0.0115061 0.131371 -0.991267 
-0.0120259 0.104046 -0.9945 
-0.0125369 0.0825539 -0.996508 
-0.012988 0.0654341 -0.997772 
-0.0133643 0.0516423 -0.998576 
-0.0136954 0.0406569 -0.999079 
-0.0139766 0.0318555 -0.999395 
-0.0142272 0.0247897 -0.999591 
-0.0144068 0.0191187 -0.999713 
-0.0145041 0.0144447 -0.99979 
-0.014646 0.0106351 -0.999836 
-0.0147656 0.00745947 -0.999863 
-0.0148262 0.00475357 -0.999879 
-0.0148724 0.00238374 -0.999887 
-0.0149132 0.000235924 -0.999889 
-0.0149063 -0.00180841 -0.999887 
-0.0149009 -0.00386671 -0.999881 
-0.0148109 -0.00599437 -0.999872 
-0.0147724 -0.00830785 -0.999856 
-0.0146843 -0.0108197 -0.999834 
-0.0145975 -0.0135051 -0.999802 
-0.0143344 -0.0162234 -0.999766 
-0.0141474 -0.0189302 -0.999721 
-0.0138713 -0.0214242 -0.999674 
-0.0134059 -0.0236134 -0.999631 
-0.0126404 -0.0251196 -0.999605 
-0.0113542 -0.0248662 -0.999626 
-0.00696236 -0.0194022 -0.999788 
0.000219688 0.000276011 -1 
0.00218806 -0.0135402 0.999906 
0.00699663 -0.0279433 0.999585 
0.0115817 -0.0301517 0.999478 
0.0143757 -0.0289519 0.999477 
0.0160633 -0.0260759 0.999531 
0.0171642 -0.0228914 0.999591 
0.0179221 -0.0196948 0.999645 
0.0184703 -0.0165366 0.999693 
0.0188975 -0.0134819 0.999731 
0.0192241 -0.0106106 0.999759 
0.0194551 -0.0079652 0.999779 
0.0196165 -0.00554336 0.999792 
0.0197194 -0.00328909 0.9998 
0.0197677 -0.0011089 0.999804 
0.0197744 0.00110017 0.999804 
0.0197423 0.00344373 0.999799 
0.0196571 0.00604945 0.999788 
0.0195383 0.00904724 0.999768 
0.0193804 0.0125846 0.999733 
0.0191705 0.016827 0.999675 
0.0189267 0.0220096 0.999579 
0.018642 0.0284104 0.999422 
0.0183069 0.0363434 0.999172 
0.0179187 0.0462162 0.998771 
0.0174796 0.0585659 0.998131 
0.0170191 0.0741002 0.997106 
0.0164839 0.0934034 0.995492 
0.0159148 0.117407 0.992956 
0.01541 0.147623 0.988924 
0.0150123 0.185313 0.982565 
0.0148112 0.232213 0.972552 
0.0148749 0.289836 0.956961 
0.0154625 0.361648 0.932187 
0.0164002 0.446108 0.894829 
0.0177363 0.545533 0.837902 
0.0190908 0.656822 0.753804 
0.0193198 0.772332 0.634925 
0.0172849 0.880075 0.474519 
0.0114083 0.961702 0.273858 
0.00292646 0.998467 0.0552704 
-0.00648868 0.985034 -0.172239 
-0.015527 0.923403 -0.383519 
-0.019047 0.829504 -0.558176 
-0.0197565 0.718193 -0.695563 
-0.0185312 0.604811 -0.796153 
-0.0170386 0.49763 -0.867222 
-0.015907 0.403123 -0.915007 
-0.0150949 0.325153 -0.945541 
-0.0147666 0.260492 -0.965363 
-0.0148376 0.207916 -0.978034 
-0.0151267 0.165457 -0.986101 
-0.0156289 0.131779 -0.991156 
-0.0161968 0.10489 -0.994352 
-0.0166957 0.0831118 -0.9964 
-0.0171579 0.0656102 -0.997698 
-0.0176964 0.0519744 -0.998492 
-0.018144 0.0409776 -0.998995 
-0.0185329 0.0321669 -0.999311 
-0.0188779 0.0250923 -0.999507 
-0.0190702 0.019279 -0.999632 
-0.019293 0.0146078 -0.999707 
-0.0194859 0.0107804 -0.999752 
-0.0196328 0.00757808 -0.999779 
-0.0197317 0.00484222 -0.999794 
-0.01981 0.00245344 -0.999801 
-0.0198571 0.000277681 -0.999803 
-0.0198926 -0.00179864 -0.999801 
-0.0198186 -0.0038645 -0.999796 
-0.0197644 -0.00601396 -0.999787 
-0.0196501 -0.00831125 -0.999772 
-0.0194872 -0.0107777 -0.999752 
-0.0192841 -0.0133691 -0.999725 
-0.0189807 -0.0159832 -0.999692 
-0.0186022 -0.018559 -0.999655 
-0.0180985 -0.0210815 -0.999614 
-0.0172378 -0.0232937 -0.99958 
-0.0160467 -0.0249023 -0.999561 
-0.0136584 -0.0245549 -0.999605 
-0.00920677 -0.0191633 -0.999774 
-0.000512884 -0.000101164 -1 
-0.000123637 3.73376e-07 1 
0.00204617 -0.0285275 0.999591 
0.00937308 -0.0356492 0.99932 
0.0131397 -0.0322687 0.999393 
0.015628 -0.0281504 0.999482 
0.0171295 -0.0242579 0.999559 
0.0181474 -0.0206536 0.999622 
0.0188987 -0.017285 0.999672 
0.0194571 -0.0140951 0.999711 
0.019865 -0.0110979 0.999741 
0.0201586 -0.00834191 0.999762 
0.020357 -0.00582418 0.999776 
0.0204786 -0.00348876 0.999784 
0.0205411 -0.00124702 0.999788 
0.0205517 0.00101235 0.999788 
0.0205136 0.00340523 0.999784 
0.0204369 0.00604446 0.999773 
0.0203128 0.00907714 0.999752 
0.020138 0.0126473 0.999717 
0.0198757 0.0169188 0.999659 
0.0196354 0.0221602 0.999562 
0.0193376 0.0285828 0.999404 
0.0189877 0.0365459 0.999152 
0.0185914 0.0464561 0.998747 
0.0181618 0.0588064 0.998104 
0.0177132 0.0742136 0.997085 
0.0172445 0.0933537 0.995484 
0.0168999 0.117587 0.992919 
0.0166887 0.147668 0.988896 
0.0167336 0.185198 0.982559 
0.0172006 0.231566 0.972667 
0.0182288 0.289473 0.957013 
0.0201616 0.359528 0.932916 
0.0228555 0.444673 0.895402 
0.0265035 0.542232 0.839811 
0.0300949 0.655052 0.754984 
0.0323463 0.77059 0.63651 
0.0299151 0.881918 0.470453 
0.0208664 0.962506 0.270455 
0.00539321 0.998605 0.0525165 
-0.0118928 0.98575 -0.167795 
-0.0281953 0.918638 -0.394093 
-0.0334357 0.81704 -0.575611 
-0.032285 0.704066 -0.709401 
-0.0281862 0.590043 -0.80688 
-0.0242095 0.484837 -0.874269 
-0.0212535 0.395043 -0.918417 
-0.0189403 0.319239 -0.947485 
-0.0175397 0.256626 -0.966352 
-0.0168501 0.205641 -0.978482 
-0.0166449 0.164383 -0.986256 
-0.016777 0.131314 -0.991199 
-0.0170971 0.104734 -0.994353 
-0.0175099 0.0832825 -0.996372 
-0.0179739 0.0662104 -0.997644 
-0.0183995 0.0524118 -0.998456 
-0.0188227 0.0413621 -0.998967 
-0.0192059 0.0324947 -0.999287 
-0.0195426 0.0253672 -0.999487 
-0.0198137 0.0195779 -0.999612 
-0.020054 0.0148604 -0.999688 
-0.0202451 0.0109808 -0.999735 
-0.0203981 0.00774428 -0.999762 
-0.0205331 0.00498291 -0.999777 
-0.0206025 0.00255737 -0.999784 
-0.0206348 0.000349554 -0.999787 
-0.0206317 -0.00175541 -0.999786 
-0.020578 -0.00385823 -0.999781 
-0.020552 -0.00604946 -0.99977 
-0.0203943 -0.00836148 -0.999757 
-0.0201915 -0.0108133 -0.999738 
-0.0199199 -0.0133436 -0.999713 
-0.0195625 -0.0158759 -0.999683 
-0.0190936 -0.0183736 -0.999649 
-0.0184582 -0.0208218 -0.999613 
-0.0174937 -0.0231385 -0.999579 
-0.016042 -0.0250194 -0.999558 
-0.0136565 -0.0246302 -0.999603 
-0.00951689 -0.0190481 -0.999773 
-0.000273076 -2.10067e-05 -1 
-0.00132352 -0.0559445 0.998433 
0.00413739 -0.0431803 0.999059 
0.00883968 -0.040559 0.999138 
0.0124334 -0.0340884 0.999341 
0.0145188 -0.0289208 0.999476 
0.0159352 -0.0245202 0.999572 
0.0169307 -0.0207325 0.999642 
0.0176951 -0.0173186 0.999693 
0.0182618 -0.0141193 0.999734 
0.0186655 -0.0111163 0.999764 
0.0189667 -0.00834268 0.999785 
0.0191696 -0.00580508 0.999799 
0.0192863 -0.00345332 0.999808 
0.0193513 -0.0011885 0.999812 
0.0193657 0.00109819 0.999812 
0.0193208 0.00351126 0.999807 
0.0192589 0.0061784 0.999795 
0.0191467 0.00923207 0.999774 
0.0190117 0.0128329 0.999737 
0.0187735 0.0171172 0.999677 
0.0184881 0.0223176 0.99958 
0.0181991 0.0287236 0.999422 
0.0178786 0.0366391 0.999169 
0.0175259 0.0464675 0.998766 
0.0171643 0.0586904 0.998129 
0.0168209 0.0738749 0.997126 
0.0165412 0.0927334 0.995554 
0.0164127 0.116294 0.993079 
0.0165253 0.145544 0.989214 
0.0170409 0.181694 0.983208 
0.0181577 0.226403 0.973864 
0.0201106 0.281196 0.95944 
0.0233183 0.348253 0.93711 
0.0278242 0.428711 0.903013 
0.0341743 0.522993 0.851651 
0.040939 0.629 0.776327 
0.0479226 0.744689 0.665689 
0.0487796 0.85623 0.514286 
0.0398946 0.949018 0.312686 
0.00938226 0.998278 0.0579136 
-0.0259264 0.97507 -0.220378 
-0.0561474 0.911876 -0.406607 
-0.0524813 0.82887 -0.556974 
-0.0478756 0.709766 -0.702809 
-0.0391961 0.594412 -0.803205 
-0.0316216 0.489603 -0.871372 
-0.0261155 0.396961 -0.917464 
-0.0218926 0.320602 -0.946961 
-0.0191821 0.257759 -0.966019 
-0.0175879 0.206674 -0.978252 
-0.0167643 0.165333 -0.986095 
-0.016449 0.13205 -0.991107 
-0.0164612 0.105345 -0.994299 
-0.0166941 0.083947 -0.99633 
-0.0170031 0.0666972 -0.997628 
-0.0173521 0.0528446 -0.998452 
-0.0177263 0.0417871 -0.998969 
-0.0180608 0.0328548 -0.999297 
-0.0183638 0.025653 -0.999502 
-0.0186483 0.0198469 -0.999629 
-0.0188983 0.0151135 -0.999707 
-0.0190651 0.0111925 -0.999756 
-0.0191896 0.00790794 -0.999785 
-0.019388 0.00513099 -0.999799 
-0.0194231 0.002667 -0.999808 
-0.0194405 0.000429315 -0.999811 
-0.0194155 -0.00170454 -0.99981 
-0.0194462 -0.00384763 -0.999804 
-0.0192949 -0.00605944 -0.999795 
-0.0191643 -0.00840837 -0.999781 
-0.0189442 -0.0108735 -0.999761 
-0.018651 -0.0133788 -0.999737 
-0.0182755 -0.0158409 -0.999707 
-0.0177544 -0.0182782 -0.999675 
-0.0170137 -0.0206824 -0.999641 
-0.0160954 -0.023247 -0.9996 
-0.0147443 -0.0251559 -0.999575 
-0.0125968 -0.0247928 -0.999613 
-0.00893195 -0.0191411 -0.999777 
-0.000273068 -4.18022e-05 -1 
-0.00321367 -0.0942711 0.995541 
0.00309037 -0.0558808 0.998433 
0.00674812 -0.0475957 0.998844 
0.0105642 -0.0375304 0.99924 
0.0125591 -0.0311571 0.999436 
0.0139768 -0.0259382 0.999566 
0.014999 -0.0217348 0.999651 
0.0157801 -0.0180551 0.999712 
0.0163603 -0.0146882 0.999758 
0.0167684 -0.0115428 0.999793 
0.0170758 -0.00865193 0.999817 
0.017285 -0.00602409 0.999832 
0.0173992 -0.00359562 0.999842 
0.0174672 -0.00127292 0.999847 
0.0174885 0.00105879 0.999847 
0.0174407 0.00351975 0.999842 
0.0173879 0.0062234 0.999829 
0.0172757 0.00930692 0.999807 
0.0170964 0.0129127 0.99977 
0.0168857 0.0172426 0.999709 
0.016667 0.0225277 0.999607 
0.0164173 0.028992 0.999445 
0.0161419 0.0369719 0.999186 
0.0158498 0.0468746 0.998775 
0.0155706 0.0591561 0.998127 
0.0153442 0.0743997 0.99711 
0.0152367 0.0933782 0.995514 
0.0153327 0.116985 0.993015 
0.0157593 0.146215 0.989127 
0.0167272 0.182432 0.983076 
0.0184947 0.227188 0.973675 
0.0214049 0.28208 0.959152 
0.0260722 0.349695 0.936501 
0.0327621 0.43069 0.901905 
0.0424564 0.522953 0.851303 
0.0540103 0.632494 0.77268 
0.0685635 0.745736 0.662704 
0.075193 0.862526 0.500394 
0.0657277 0.957608 0.280476 
-0.02572 0.992591 -0.118753 
-0.0922226 0.913042 -0.397302 
-0.0811086 0.79364 -0.602956 
-0.0643297 0.690189 -0.720764 
-0.0486402 0.57594 -0.816044 
-0.036963 0.472612 -0.880495 
-0.0288456 0.384275 -0.922768 
-0.0232368 0.311151 -0.950076 
-0.0196297 0.251112 -0.967759 
-0.0174072 0.201881 -0.979255 
-0.0161683 0.162443 -0.986585 
-0.015496 0.130107 -0.991379 
-0.0152449 0.103901 -0.994471 
-0.0153401 0.0831616 -0.996418 
-0.0154887 0.066182 -0.997687 
-0.0157178 0.0525314 -0.998496 
-0.0160581 0.0416971 -0.999001 
-0.0163151 0.0328196 -0.999328 
-0.0165509 0.0256545 -0.999534 
-0.016832 0.0199102 -0.99966 
-0.0170929 0.0152006 -0.999738 
-0.0172239 0.0112727 -0.999788 
-0.0173447 0.0080032 -0.999818 
-0.0174898 0.00520103 -0.999834 
-0.0175316 0.00272856 -0.999843 
-0.0175638 0.000458761 -0.999846 
-0.017566 -0.00170535 -0.999844 
-0.0175655 -0.00386885 -0.999838 
-0.0174548 -0.00612115 -0.999829 
-0.0172808 -0.00849203 -0.999815 
-0.0170324 -0.0109688 -0.999795 
-0.016743 -0.0134906 -0.999769 
-0.0163632 -0.0159193 -0.999739 
-0.0157512 -0.0182189 -0.99971 
-0.0151511 -0.0208119 -0.999669 
-0.0142385 -0.0233247 -0.999627 
-0.0130098 -0.0252417 -0.999597 
-0.0111432 -0.0249317 -0.999627 
-0.00796631 -0.019244 -0.999783 
-0.000239584 -3.53572e-05 -1 
0.00108633 -0.0678079 0.997698 
0.00525835 -0.0559885 0.998418 
0.00799115 -0.045827 0.998917 
0.00996906 -0.0376553 0.999241 
0.0114646 -0.0309398 0.999455 
0.0125305 -0.0257692 0.999589 
0.0133913 -0.0215719 0.999678 
0.0140259 -0.0179608 0.99974 
0.0145197 -0.0146079 0.999788 
0.0148727 -0.0114603 0.999824 
0.0151421 -0.00857074 0.999849 
0.0153286 -0.00593791 0.999865 
0.0154247 -0.00350376 0.999875 
0.0154847 -0.00116711 0.999879 
0.0155053 0.00118362 0.999879 
0.0154584 0.00366343 0.999874 
0.0154125 0.00638705 0.999861 
0.0153207 0.00949361 0.999838 
0.0151962 0.0131249 0.999798 
0.0150046 0.0174351 0.999735 
0.0147821 0.0226481 0.999634 
0.0145655 0.0290525 0.999472 
0.014339 0.0369426 0.999215 
0.0141136 0.0466823 0.99881 
0.0139097 0.0587598 0.998175 
0.0137778 0.0736701 0.997187 
0.0137903 0.0920948 0.995655 
0.0140231 0.114921 0.993276 
0.0146031 0.143121 0.989597 
0.0157583 0.177834 0.983934 
0.017733 0.220309 0.975269 
0.0210217 0.273009 0.961782 
0.0260346 0.335355 0.941732 
0.0340488 0.413165 0.91002 
0.0456385 0.501178 0.86414 
0.0621047 0.601024 0.796815 
0.0857186 0.708475 0.70051 
0.114182 0.82237 0.557377 
-0.117163 0.795455 -0.594578 
-0.0808902 0.673372 -0.734865 
-0.0571704 0.571524 -0.818591 
-0.0409725 0.469403 -0.882033 
-0.0305379 0.381671 -0.923794 
-0.0236833 0.308328 -0.950985 
-0.0193834 0.248597 -0.968413 
-0.0167461 0.200262 -0.979599 
-0.015139 0.160605 -0.986903 
-0.014299 0.129036 -0.991537 
-0.0139188 0.103583 -0.994523 
-0.0137953 0.0826744 -0.996481 
-0.0138701 0.0660903 -0.997717 
-0.0140535 0.0526947 -0.998512 
-0.0142423 0.0416963 -0.999029 
-0.0144832 0.0329618 -0.999352 
-0.0147275 0.0258817 -0.999557 
-0.0149193 0.020052 -0.999688 
-0.0151055 0.0152898 -0.999769 
-0.0152563 0.0113955 -0.999819 
-0.0153994 0.00811129 -0.999849 
-0.015474 0.00525285 -0.999866 
-0.0155397 0.00275065 -0.999875 
-0.0155764 0.00045977 -0.999879 
-0.015598 -0.00172994 -0.999877 
-0.0155693 -0.00391735 -0.999871 
-0.0154279 -0.00619206 -0.999862 
-0.0153114 -0.00861533 -0.999846 
-0.0151172 -0.0111409 -0.999824 
-0.0147988 -0.0136382 -0.999797 
-0.0143717 -0.0160349 -0.999768 
-0.0138586 -0.018436 -0.999734 
-0.0132639 -0.0208551 -0.999695 
-0.0124046 -0.0233296 -0.999651 
-0.011316 -0.0252984 -0.999616 
-0.00970272 -0.0250461 -0.999639 
-0.00695611 -0.0193681 -0.999788 
-0.000207042 -3.72974e-05 -1 
0.00148879 -0.0382154 0.999268 
0.00514813 -0.0557968 0.998429 
0.007782 -0.0484398 0.998796 
0.00910096 -0.0400207 0.999157 
0.0101509 -0.0323873 0.999424 
0.0109729 -0.0268693 0.999579 
0.011691 -0.0224261 0.99968 
0.0122178 -0.0186185 0.999752 
0.012639 -0.0151368 0.999806 
0.0129486 -0.0118786 0.999846 
0.0131833 -0.00888052 0.999874 
0.0133529 -0.00616519 0.999892 
0.0134371 -0.00366192 0.999903 
0.0134902 -0.00126785 0.999908 
0.0135112 0.0011278 0.999908 
0.0134712 0.00364266 0.999903 
0.0134314 0.00640553 0.999889 
0.01335 0.00953859 0.999865 
0.0131866 0.0131758 0.999826 
0.0130356 0.0175492 0.999761 
0.0128749 0.0228555 0.999656 
0.0127044 0.0293366 0.999489 
0.0125252 0.0373097 0.999225 
0.0123599 0.0471881 0.99881 
0.0122172 0.0593711 0.998161 
0.0121612 0.0744237 0.997153 
0.012267 0.0930959 0.995582 
0.0126036 0.116241 0.993141 
0.013297 0.144843 0.989365 
0.0145624 0.179781 0.983599 
0.0167762 0.223929 0.974461 
0.0201182 0.275687 0.961037 
0.0259588 0.342604 0.939121 
0.0344257 0.418583 0.907526 
0.0479385 0.507131 0.860535 
0.0685398 0.600896 0.796383 
0.106077 0.707175 0.699036 
-0.101722 0.695385 -0.711402 
-0.0624514 0.579349 -0.812684 
-0.0435645 0.482411 -0.874861 
-0.0311825 0.393287 -0.918887 
-0.0234546 0.316894 -0.948171 
-0.0186577 0.254346 -0.966933 
-0.0157321 0.203944 -0.978856 
-0.0139864 0.163756 -0.986402 
-0.0129728 0.131136 -0.99128 
-0.0124493 0.104966 -0.994398 
-0.0122514 0.083874 -0.996401 
-0.0122234 0.066974 -0.99768 
-0.0123176 0.0533254 -0.998501 
-0.0124729 0.0422768 -0.999028 
-0.012646 0.0333917 -0.999362 
-0.0128326 0.0262014 -0.999574 
-0.0130056 0.0203274 -0.999709 
-0.0131838 0.0155311 -0.999792 
-0.0132903 0.0115633 -0.999845 
-0.0133987 0.00823075 -0.999876 
-0.0135072 0.00536555 -0.999894 
-0.0135483 0.00283104 -0.999904 
-0.0135644 0.000505686 -0.999908 
-0.0135443 -0.00171156 -0.999907 
-0.0135622 -0.00393015 -0.9999 
-0.0134744 -0.00624918 -0.99989 
-0.0133437 -0.00869277 -0.999873 
-0.0131418 -0.0112567 -0.99985 
-0.0128825 -0.0137941 -0.999822 
-0.0125095 -0.0162143 -0.99979 
-0.0119929 -0.0185234 -0.999756 
-0.011443 -0.0209539 -0.999715 
-0.0106719 -0.0234271 -0.999669 
-0.00970347 -0.0253654 -0.999631 
-0.00831745 -0.0251268 -0.99965 
-0.00596853 -0.0194311 -0.999793 
-0.000178117 -3.68743e-05 -1 
0.00606929 -0.0728073 0.997328 
0.00756769 -0.0539424 0.998515 
0.00847572 -0.0449698 0.998952 
0.00889547 -0.0371412 0.99927 
0.0092445 -0.0308737 0.999481 
0.00972701 -0.0259079 0.999617 
0.0101781 -0.0218457 0.99971 
0.0104916 -0.0182675 0.999778 
0.0107814 -0.0148995 0.999831 