# vtk DataFile Version 3.0 
Exported using Morpho https://github.com/Morpho-lang/morpho 
ASCII 
DATASET UNSTRUCTURED_GRID 

POINTS 2148 float 
-8.32618 -2.88146 0 
-8.11405 -2.88146 0 
-7.90192 -2.88146 0 
-7.68979 -2.88146 0 
-7.47765 -2.88146 0 
-7.26552 -2.88146 0 
-7.05339 -2.88146 0 
-6.84126 -2.88146 0 
-6.62913 -2.88146 0 
-6.41699 -2.88146 0 
-6.20486 -2.88146 0 
-5.99273 -2.88146 0 
-5.7806 -2.88146 0 
-5.56847 -2.88146 0 
-5.35633 -2.88146 0 
-5.1442 -2.88146 0 
-4.93207 -2.88146 0 
-4.71994 -2.88146 0 
-4.50781 -2.88146 0 
-4.29567 -2.88146 0 
-4.08354 -2.88146 0 
-3.87141 -2.88146 0 
-3.65928 -2.88146 0 
-3.44715 -2.88146 0 
-3.23501 -2.88146 0 
-3.02288 -2.88146 0 
-2.81075 -2.88146 0 
-2.59862 -2.88146 0 
-2.38649 -2.88146 0 
-2.17435 -2.88146 0 
-1.96222 -2.88146 0 
-1.75009 -2.88146 0 
-1.53796 -2.88146 0 
-1.32583 -2.88146 0 
-1.11369 -2.88146 0 
-0.901561 -2.88146 0 
-0.689429 -2.88146 0 
-0.477297 -2.88146 0 
-0.265165 -2.88146 0 
-0.053033 -2.88146 0 
0.159099 -2.88146 0 
0.371231 -2.88146 0 
0.583363 -2.88146 0 
0.795495 -2.88146 0 
1.00763 -2.88146 0 
1.21976 -2.88146 0 
1.43189 -2.88146 0 
1.64402 -2.88146 0 
1.85616 -2.88146 0 
2.06829 -2.88146 0 
2.28042 -2.88146 0 
2.49255 -2.88146 0 
2.70468 -2.88146 0 
2.91682 -2.88146 0 
3.12895 -2.88146 0 
3.34108 -2.88146 0 
3.55321 -2.88146 0 
3.76534 -2.88146 0 
3.97748 -2.88146 0 
4.18961 -2.88146 0 
4.40174 -2.88146 0 
4.61387 -2.88146 0 
4.826 -2.88146 0 
5.03814 -2.88146 0 
5.25027 -2.88146 0 
5.4624 -2.88146 0 
5.67453 -2.88146 0 
5.88666 -2.88146 0 
6.0988 -2.88146 0 
6.31093 -2.88146 0 
6.52306 -2.88146 0 
6.73519 -2.88146 0 
6.94732 -2.88146 0 
7.15946 -2.88146 0 
7.37159 -2.88146 0 
7.58372 -2.88146 0 
7.79585 -2.88146 0 
8.00798 -2.88146 0 
8.22012 -2.88146 0 
8.53831 -2.88146 0 
-8.53831 -2.71985 0 
-8.29095 -2.6601 0 
-8.05896 -2.66291 0 
-7.82595 -2.66566 0 
-7.59818 -2.66948 0 
-7.36429 -2.67197 0 
-7.13463 -2.66955 0 
-6.9069 -2.67222 0 
-6.68551 -2.6779 0 
-6.45646 -2.67404 0 
-6.22783 -2.67475 0 
-6.00502 -2.66661 0 
-5.78474 -2.66818 0 
-5.5648 -2.66424 0 
-5.34235 -2.67273 0 
-5.12521 -2.67007 0 
-4.9056 -2.67446 0 
-4.68852 -2.67204 0 
-4.47086 -2.67309 0 
-4.25606 -2.67076 0 
-4.04287 -2.66937 0 
-3.82904 -2.66945 0 
-3.61636 -2.6698 0 
-3.40301 -2.67012 0 
-3.19123 -2.67085 0 
-2.97999 -2.67023 0 
-2.76795 -2.67121 0 
-2.55713 -2.67096 0 
-2.34667 -2.67132 0 
-2.13505 -2.67095 0 
-1.92391 -2.67057 0 
-1.71427 -2.66806 0 
-1.50239 -2.66885 0 
-1.28905 -2.66796 0 
-1.07645 -2.66487 0 
-0.865423 -2.66023 0 
-0.654456 -2.65739 0 
-0.444555 -2.65669 0 
-0.239607 -2.63377 0 
-0.0313693 -2.63971 0 
0.171692 -2.63494 0 
0.397761 -2.67167 0 
0.605656 -2.64525 0 
0.822484 -2.66303 0 
1.03187 -2.66108 0 
1.24363 -2.6657 0 
1.45542 -2.6683 0 
1.66571 -2.66824 0 
1.87676 -2.66969 0 
2.08734 -2.67238 0 
2.2969 -2.67097 0 
2.50666 -2.67139 0 
2.71788 -2.67212 0 
2.92761 -2.67072 0 
3.13741 -2.67051 0 
3.34483 -2.66581 0 
3.5524 -2.67088 0 
3.76266 -2.6709 0 
3.9751 -2.66901 0 
4.18555 -2.67082 0 
4.39856 -2.67064 0 
4.61169 -2.67009 0 
4.82406 -2.66996 0 
5.03601 -2.67067 0 
5.24928 -2.66965 0 
5.46099 -2.66957 0 
5.67316 -2.66817 0 
5.88282 -2.67044 0 
6.09544 -2.66979 0 
6.30793 -2.67273 0 
6.52181 -2.67098 0 
6.73526 -2.66914 0 
6.9486 -2.66979 0 
7.16438 -2.67054 0 
7.38024 -2.66839 0 
7.59559 -2.6637 0 
7.81296 -2.65931 0 
8.0314 -2.65169 0 
8.29075 -2.70965 0 
8.53831 -2.66933 0 
-8.42701 -2.4851 0 
-8.17486 -2.44527 0 
-7.94453 -2.45457 0 
-7.71812 -2.45166 0 
-7.492 -2.46771 0 
-7.26425 -2.46259 0 
-7.03557 -2.46408 0 
-6.82017 -2.46062 0 
-6.60599 -2.47507 0 
-6.45343 -2.37179 0 
-6.29957 -2.47687 0 
-6.07586 -2.45933 0 
-5.85086 -2.45844 0 
-5.63181 -2.45543 0 
-5.40716 -2.46474 0 
-5.19021 -2.46098 0 
-4.9699 -2.46716 0 
-4.75445 -2.46541 0 
-4.53488 -2.46639 0 
-4.3188 -2.46148 0 
-4.10479 -2.45736 0 
-3.89174 -2.45842 0 
-3.67801 -2.45732 0 
-3.46583 -2.45997 0 
-3.252 -2.45863 0 
-3.04207 -2.45872 0 
-2.82968 -2.46089 0 
-2.61755 -2.45958 0 
-2.40663 -2.45952 0 
-2.19589 -2.46163 0 
-1.98174 -2.45961 0 
-1.77028 -2.45445 0 
-1.55728 -2.45605 0 
-1.34249 -2.45642 0 
-1.12493 -2.45048 0 
-0.908088 -2.44084 0 
-0.691629 -2.4342 0 
-0.476089 -2.42673 0 
-0.270028 -2.38798 0 
-0.0626608 -2.39675 0 
0.14436 -2.38752 0 
0.359732 -2.45613 0 
0.574343 -2.41843 0 
0.795804 -2.44594 0 
1.01405 -2.43949 0 
1.22751 -2.44967 0 
1.44231 -2.45486 0 
1.65676 -2.45459 0 
1.8702 -2.45859 0 
2.08489 -2.46142 0 
2.29651 -2.45961 0 
2.51019 -2.46251 0 
2.72094 -2.46097 0 
2.93112 -2.45856 0 
3.14115 -2.45711 0 
3.34958 -2.45163 0 
3.5594 -2.45784 0 
3.77193 -2.46049 0 
3.98302 -2.45575 0 
4.19683 -2.46088 0 
4.41118 -2.46051 0 
4.62374 -2.45867 0 
4.8357 -2.458 0 
5.04886 -2.46038 0 
5.25978 -2.45709 0 
5.47094 -2.4575 0 
5.67953 -2.45319 0 
5.89189 -2.45982 0 
6.10133 -2.45626 0 
6.31246 -2.46379 0 
6.52483 -2.46046 0 
6.73716 -2.45736 0 
6.95277 -2.46017 0 
7.16808 -2.45952 0 
7.3833 -2.45348 0 
7.60238 -2.44679 0 
7.82475 -2.43874 0 
8.06277 -2.44511 0 
8.29653 -2.50467 0 
8.53831 -2.4572 0 
-8.53831 -2.26627 0 
-8.30715 -2.26746 0 
-8.05046 -2.23745 0 
-7.82618 -2.23804 0 
-7.5937 -2.24771 0 
-7.37518 -2.25703 0 
-7.1402 -2.25911 0 
-6.9209 -2.24216 0 
-6.70839 -2.24848 0 
-6.44698 -2.19204 0 
-6.19786 -2.2585 0 
-5.97239 -2.25275 0 
-5.75717 -2.24481 0 
-5.5344 -2.25537 0 
-5.32252 -2.25068 0 
-5.1035 -2.2573 0 
-4.89358 -2.25393 0 
-4.67802 -2.26029 0 
-4.46553 -2.25492 0 
-4.25447 -2.24805 0 
-4.04299 -2.24454 0 
-3.83222 -2.24656 0 
-3.62132 -2.24476 0 
-3.41031 -2.24967 0 
-3.20246 -2.2434 0 
-2.99209 -2.24817 0 
-2.78226 -2.24918 0 
-2.57274 -2.2466 0 
-2.36428 -2.24662 0 
-2.15216 -2.25256 0 
-1.94268 -2.24456 0 
-1.72953 -2.24122 0 
-1.51641 -2.2422 0 
-1.30036 -2.24252 0 
-1.08398 -2.23183 0 
-0.866557 -2.21904 0 
-0.652036 -2.20708 0 
-0.445655 -2.18824 0 
-0.248805 -2.12046 0 
-0.0577032 -2.15273 0 
0.144812 -2.13705 0 
0.351003 -2.23544 0 
0.554903 -2.1782 0 
0.766529 -2.22751 0 
0.9867 -2.22241 0 
1.2076 -2.22998 0 
1.4216 -2.23895 0 
1.63556 -2.24027 0 
1.85042 -2.24563 0 
2.06503 -2.25292 0 
2.27997 -2.24817 0 
2.49254 -2.25347 0 
2.70535 -2.24921 0 
2.9153 -2.24625 0 
3.12559 -2.24532 0 
3.33588 -2.23672 0 
3.54512 -2.24502 0 
3.7556 -2.24936 0 
3.96708 -2.24337 0 
4.1797 -2.25051 0 
4.39333 -2.25089 0 
4.60777 -2.24723 0 
4.82045 -2.24537 0 
5.03184 -2.24954 0 
5.24415 -2.24375 0 
5.45403 -2.24469 0 
5.66372 -2.23798 0 
5.87272 -2.248 0 
6.08285 -2.24226 0 
6.29334 -2.2531 0 
6.50515 -2.24969 0 
6.71768 -2.24633 0 
6.93295 -2.25067 0 
7.15015 -2.24925 0 
7.36844 -2.24081 0 
7.58945 -2.2356 0 
7.81821 -2.22626 0 
8.05297 -2.23688 0 
8.29577 -2.28584 0 
8.53831 -2.24506 0 
-8.42662 -2.04976 0 
-8.19698 -2.05853 0 
-7.96465 -2.01626 0 
-7.73866 -2.03233 0 
-7.52434 -2.02709 0 
-7.29901 -2.05704 0 
-7.08408 -2.03678 0 
-6.87397 -2.01821 0 
-6.6507 -2.05468 0 
-6.45084 -1.96682 0 
-6.24378 -2.05561 0 
-6.02244 -2.05352 0 
-5.79547 -2.03294 0 
-5.5766 -2.0509 0 
-5.35682 -2.0368 0 
-5.14177 -2.05086 0 
-4.92553 -2.03809 0 
-4.71512 -2.05063 0 
-4.50293 -2.04441 0 
-4.29141 -2.03596 0 
-4.08022 -2.03267 0 
-3.86751 -2.03322 0 
-3.65728 -2.03248 0 
-3.44483 -2.03692 0 
-3.23633 -2.0286 0 
-3.0269 -2.03488 0 
-2.81737 -2.03585 0 
-2.60806 -2.03322 0 
-2.39824 -2.03078 0 
-2.18955 -2.04064 0 
-1.98043 -2.03058 0 
-1.76871 -2.02854 0 
-1.55353 -2.02551 0 
-1.33879 -2.02682 0 
-1.12211 -2.01561 0 
-0.9027 -2.00145 0 
-0.681875 -1.98245 0 
-0.466781 -1.95136 0 
-0.273212 -1.86381 0 
-0.0735047 -1.893 0 
0.122661 -1.88944 0 
0.343206 -2.00274 0 
0.550782 -1.93999 0 
0.76279 -2.0013 0 
0.978816 -2.00477 0 
1.20375 -2.01595 0 
1.42705 -2.02035 0 
1.64544 -2.02549 0 
1.8604 -2.03011 0 
2.07227 -2.04251 0 
2.28224 -2.03233 0 
2.49124 -2.04277 0 
2.69988 -2.0338 0 
2.90708 -2.03264 0 
3.11691 -2.03314 0 
3.33265 -2.02824 0 
3.5481 -2.03188 0 
3.75871 -2.03664 0 
3.97357 -2.03317 0 
4.18723 -2.03965 0 
4.40227 -2.04152 0 
4.61622 -2.03509 0 
4.82789 -2.03307 0 
5.04021 -2.03709 0 
5.24988 -2.03005 0 
5.45956 -2.03017 0 
5.67016 -2.02485 0 
5.8798 -2.03474 0 
6.08962 -2.02879 0 
6.2994 -2.04217 0 
6.51056 -2.03856 0 
6.72341 -2.03451 0 
6.93652 -2.04135 0 
7.15139 -2.03666 0 
7.36906 -2.02898 0 
7.59629 -2.02652 0 
7.8282 -2.01804 0 
8.06459 -2.02719 0 
8.30005 -2.07306 0 
8.53831 -2.03293 0 
-8.53831 -1.83087 0 
-8.29948 -1.84664 0 
-8.06718 -1.8272 0 
-7.80834 -1.81825 0 
-7.58128 -1.80593 0 
-7.34935 -1.84534 0 
-7.12524 -1.82278 0 
-6.90426 -1.79614 0 
-6.68529 -1.83765 0 
-6.45453 -1.76582 0 
-6.22583 -1.84154 0 
-6.00012 -1.85138 0 
-5.7786 -1.82287 0 
-5.56244 -1.84426 0 
-5.34961 -1.82096 0 
-5.14056 -1.84168 0 
-4.93555 -1.81798 0 
-4.72925 -1.83509 0 
-4.52151 -1.83213 0 
-4.31146 -1.82384 0 
-4.09982 -1.81986 0 
-3.88803 -1.82254 0 
-3.67467 -1.81928 0 
-3.46301 -1.82657 0 
-3.25048 -1.81425 0 
-3.04008 -1.82139 0 
-2.82932 -1.82236 0 
-2.61819 -1.8194 0 
-2.40604 -1.81707 0 
-2.19221 -1.82549 0 
-1.9771 -1.81681 0 
-1.75932 -1.81515 0 
-1.53976 -1.80866 0 
-1.3185 -1.80832 0 
-1.0918 -1.79649 0 
-0.862508 -1.78008 0 
-0.639126 -1.75026 0 
-0.435976 -1.69175 0 
-0.186929 -1.62985 0 
0.012901 -1.64577 0 
0.20297 -1.58203 0 
0.315734 -1.77679 0 
0.53619 -1.72122 0 
0.768362 -1.7759 0 
1.0009 -1.79356 0 
1.22818 -1.80372 0 
1.45065 -1.80557 0 
1.66984 -1.80946 0 
1.88469 -1.81412 0 
2.09288 -1.82463 0 
2.2972 -1.80852 0 
2.4993 -1.82701 0 
2.70429 -1.8153 0 
2.91449 -1.81826 0 
3.12945 -1.82483 0 
3.34561 -1.81978 0 
3.55533 -1.81821 0 
3.77063 -1.82791 0 
3.98395 -1.82162 0 
4.19886 -1.83064 0 
4.41337 -1.82987 0 
4.62577 -1.82258 0 
4.83849 -1.82009 0 
5.04799 -1.82277 0 
5.25795 -1.81488 0 
5.46942 -1.81807 0 
5.67946 -1.81078 0 
5.88799 -1.82172 0 
6.09702 -1.81483 0 
6.30559 -1.83059 0 
6.51703 -1.82649 0 
6.72998 -1.8236 0 
6.94045 -1.82589 0 
7.15395 -1.82313 0 
7.37755 -1.81939 0 
7.60309 -1.81715 0 
7.83438 -1.80707 0 
8.06729 -1.81665 0 
8.30241 -1.85647 0 
8.53831 -1.8208 0 
-8.53831 -1.61358 0 
-8.31084 -1.63594 0 
[...]
POINT_DATA 2148 
VECTORS vectors float
-4.21573e-06 -0.000834971 1 
0.000204852 -0.0170717 0.999854 
2.43172e-05 -0.0213843 0.999771 
9.27618e-05 -0.0214988 0.999769 
6.9697e-05 -0.0197406 0.999805 
7.81347e-05 -0.0174602 0.999848 
7.55527e-05 -0.0151174 0.999886 
7.60417e-05 -0.0127148 0.999919 
7.73813e-05 -0.0102595 0.999947 
7.48203e-05 -0.00783533 0.999969 
7.83581e-05 -0.00553763 0.999985 
7.47021e-05 -0.00337768 0.999994 
7.85944e-05 -0.00132986 0.999999 
7.44661e-05 0.000673056 1 
7.86909e-05 0.00271867 0.999996 
7.50639e-05 0.00492097 0.999988 
7.76787e-05 0.0073989 0.999973 
7.54002e-05 0.0102864 0.999947 
7.62408e-05 0.0137427 0.999906 
7.50859e-05 0.0179537 0.999839 
7.46172e-05 0.0231468 0.999732 
7.3684e-05 0.0295961 0.999562 
7.27347e-05 0.0376442 0.999291 
7.11821e-05 0.0477193 0.998861 
6.97936e-05 0.060358 0.998177 
6.73416e-05 0.0762331 0.99709 
6.48631e-05 0.0961746 0.995364 
6.13216e-05 0.121215 0.992626 
5.71611e-05 0.152597 0.988288 
5.16704e-05 0.191801 0.981434 
4.5165e-05 0.240508 0.970647 
3.6874e-05 0.300524 0.953774 
2.71103e-05 0.373461 0.927646 
1.54724e-05 0.460332 0.887747 
2.78049e-06 0.560554 0.828118 
-9.61882e-06 0.670674 0.741752 
-1.90074e-05 0.783068 0.621937 
-2.32049e-05 0.885378 0.464872 
-1.58968e-05 0.961878 0.273478 
-4.63034e-06 0.998302 0.0582493 
1.04881e-05 0.986723 -0.16241 
2.06983e-05 0.929556 -0.368682 
2.28395e-05 0.838445 -0.544987 
1.45825e-05 0.72921 -0.68429 
3.70988e-06 0.616741 -0.787166 
-8.94007e-06 0.510784 -0.859709 
-2.14188e-05 0.416827 -0.908986 
-3.18603e-05 0.33674 -0.941598 
-4.11477e-05 0.270234 -0.962795 
-4.89304e-05 0.216006 -0.976392 
-5.394e-05 0.171981 -0.9851 
-5.93576e-05 0.136636 -0.990621 
-6.3236e-05 0.108418 -0.994105 
-6.60868e-05 0.0859395 -0.9963 
-6.87793e-05 0.0680134 -0.997684 
-6.96066e-05 0.0536284 -0.998561 
-7.3404e-05 0.0424818 -0.999097 
-7.25866e-05 0.0334771 -0.999439 
-7.41888e-05 0.0262473 -0.999655 
-7.51863e-05 0.0204324 -0.999791 
-7.53621e-05 0.0157365 -0.999876 
-7.60983e-05 0.0119048 -0.999929 
-7.62278e-05 0.00873162 -0.999962 
-7.67631e-05 0.00604793 -0.999982 
-7.65111e-05 0.0037084 -0.999993 
-7.7191e-05 0.00158469 -0.999999 
-7.62961e-05 -0.000438107 -1 
-7.7628e-05 -0.00245941 -0.999997 
-7.5724e-05 -0.0045711 -0.99999 
-7.7454e-05 -0.00683837 -0.999977 
-7.59652e-05 -0.0092638 -0.999957 
-7.6088e-05 -0.0118333 -0.99993 
-7.67603e-05 -0.0143696 -0.999897 
-7.44277e-05 -0.0168865 -0.999857 
-8.17062e-05 -0.0193921 -0.999812 
-6.05223e-05 -0.0218657 -0.999761 
-0.000104701 -0.023698 -0.999719 
-3.89495e-05 -0.0235473 -0.999723 
-8.38692e-05 -0.0203435 -0.999793 
-4.69376e-05 -0.00142603 -0.999999 
-2.29489e-05 0.000234827 1 
0.00798552 -0.0133898 0.999878 
0.0105593 -0.0192094 0.99976 
0.0114726 -0.0209896 0.999714 
0.0119926 -0.02037 0.999721 
0.0122862 -0.0182899 0.999757 
0.012665 -0.0157757 0.999795 
0.0128476 -0.0132419 0.99983 
0.0128294 -0.010762 0.99986 
0.013017 -0.00820093 0.999882 
0.0130679 -0.00576829 0.999898 
0.0134066 -0.00351234 0.999904 
0.0133363 -0.00138172 0.99991 
0.0135087 0.000705733 0.999909 
0.0132618 0.0028778 0.999908 
0.013436 0.00517583 0.999896 
0.0132402 0.00780314 0.999882 
0.0132995 0.0108562 0.999853 
0.0131684 0.0145415 0.999808 
0.0131468 0.0190002 0.999733 
0.0130344 0.0244709 0.999616 
0.0128473 0.0312977 0.999428 
0.0126245 0.0397855 0.999128 
0.0123702 0.0504562 0.99865 
0.0120612 0.0637499 0.997893 
0.0117413 0.0803925 0.996694 
0.0113187 0.101353 0.994786 
0.0108985 0.127486 0.99178 
0.0103974 0.160095 0.987047 
0.00987289 0.200942 0.979553 
0.0093174 0.251431 0.96783 
0.00880381 0.312926 0.949737 
0.00815861 0.388068 0.921595 
0.00754716 0.477695 0.878493 
0.00696484 0.579966 0.814611 
0.00632541 0.690277 0.723518 
0.00539055 0.801124 0.598474 
0.00403587 0.899394 0.43712 
0.00256325 0.968565 0.248747 
0.000265442 0.999387 0.035011 
-0.00207098 0.984361 -0.176152 
-0.00332371 0.919612 -0.392813 
-0.0054672 0.826851 -0.562394 
-0.00605984 0.714672 -0.699433 
-0.00693653 0.604352 -0.796687 
-0.00749109 0.500079 -0.865947 
-0.00805852 0.407981 -0.912955 
-0.0086763 0.330131 -0.943895 
-0.00924363 0.265249 -0.964136 
-0.00976473 0.212583 -0.977094 
-0.0103302 0.169627 -0.985454 
-0.0108045 0.135165 -0.990764 
-0.0112343 0.107402 -0.994152 
-0.0116904 0.0854003 -0.996278 
-0.0120456 0.0678218 -0.997625 
-0.0125389 0.0539406 -0.998465 
-0.0126248 0.0428926 -0.999 
-0.012811 0.0338314 -0.999345 
-0.0130599 0.0265242 -0.999563 
-0.0131468 0.0206985 -0.999699 
-0.0132696 0.0159347 -0.999785 
-0.0133954 0.0120484 -0.999838 
-0.0134894 0.00884153 -0.99987 
-0.0135172 0.00613225 -0.99989 
-0.01359 0.00375623 -0.999901 
-0.0136087 0.00161498 -0.999906 
-0.0136723 -0.000424898 -0.999906 
-0.0135677 -0.00243381 -0.999905 
-0.0135231 -0.00454118 -0.999898 
-0.0133814 -0.0067881 -0.999887 
-0.013309 -0.00915704 -0.99987 
-0.0132092 -0.0116159 -0.999845 
-0.0130372 -0.0141458 -0.999815 
-0.0127684 -0.0167003 -0.999779 
-0.0124847 -0.0192177 -0.999737 
-0.0120862 -0.0214326 -0.999697 
-0.0114334 -0.0227435 -0.999676 
-0.0102315 -0.0223506 -0.999698 
-0.0061071 -0.0169512 -0.999838 
0.000253306 0.000325878 -1 
0.00618864 -0.00996207 0.999931 
0.0119263 -0.0189398 0.999749 
0.0139533 -0.0207074 0.999688 
0.0152762 -0.0208798 0.999665 
0.0160671 -0.019512 0.999681 
0.0166032 -0.0171399 0.999715 
0.0169668 -0.0145495 0.99975 
0.0172888 -0.0121564 0.999777 
0.0174371 -0.00982695 0.9998 
0.0181275 -0.00818395 0.999802 
0.017635 -0.00655323 0.999823 
0.017827 -0.00426009 0.999832 
0.017884 -0.00204728 0.999838 
0.017966 5.55715e-05 0.999839 
0.0179462 0.00224417 0.999836 
0.0179852 0.00449805 0.999828 
0.0179129 0.00705174 0.999815 
0.0178593 0.00995426 0.999791 
0.0177368 0.0134894 0.999752 
0.0176116 0.0177363 0.999688 
0.0174407 0.0229205 0.999585 
0.0172031 0.0293215 0.999422 
0.0169429 0.0373373 0.999159 
0.0166243 0.0472904 0.998743 
0.0162875 0.0598789 0.998073 
0.0159177 0.0753705 0.997029 
0.0155035 0.0950204 0.995355 
0.0151063 0.119643 0.992702 
0.0147162 0.150273 0.988535 
0.0143436 0.188399 0.981988 
0.0140759 0.236499 0.97153 
0.0139805 0.294981 0.955401 
0.0138944 0.366652 0.930254 
0.0138942 0.452951 0.891427 
0.0140066 0.554286 0.832208 
0.0139279 0.665934 0.745881 
0.0129374 0.780419 0.625123 
0.0105954 0.884574 0.46628 
0.00761027 0.960106 0.279534 
0.00175627 0.997681 0.0680427 
-0.00428842 0.988777 -0.149339 
-0.00788149 0.932753 -0.360431 
-0.0123411 0.841267 -0.540479 
-0.0132837 0.727778 -0.685684 
-0.0142949 0.612402 -0.790417 
-0.0141432 0.506819 -0.861937 
-0.0139984 0.412891 -0.910673 
-0.0140101 0.332894 -0.94286 
-0.0140403 0.266824 -0.963643 
-0.0142148 0.212523 -0.977053 
-0.0145729 0.169652 -0.985396 
-0.0149401 0.134852 -0.990753 
-0.0153481 0.107282 -0.99411 
-0.0157771 0.0853565 -0.996226 
-0.0161762 0.067871 -0.997563 
-0.0165856 0.0540206 -0.998402 
-0.0168108 0.0426925 -0.998947 
-0.0171048 0.0336688 -0.999287 
-0.0173769 0.026458 -0.999499 
-0.0175512 0.020573 -0.999634 
-0.0177326 0.0158095 -0.999718 
-0.0178847 0.0119538 -0.999769 
-0.0180032 0.00876218 -0.9998 
-0.0180706 0.00603764 -0.999818 
-0.0181456 0.00367981 -0.999829 
-0.018157 0.00152808 -0.999834 
-0.0181807 -0.000499237 -0.999835 
-0.0181058 -0.00255534 -0.999833 
-0.0180709 -0.0046491 -0.999826 
-0.0178506 -0.00683701 -0.999817 
-0.0177101 -0.00915592 -0.999801 
-0.0174971 -0.0115528 -0.99978 
-0.0172073 -0.0140684 -0.999753 
-0.0168093 -0.0166137 -0.999721 
-0.016273 -0.0191359 -0.999684 
-0.0154839 -0.0212823 -0.999654 
-0.0142731 -0.0223398 -0.999649 
-0.0123212 -0.0220184 -0.999682 
-0.00891852 -0.0170249 -0.999815 
-0.000300981 -0.000100615 -1 
-0.000199114 -4.2688e-05 1 
0.00938004 -0.0168981 0.999813 
0.0127963 -0.02078 0.999702 
0.014658 -0.0214112 0.999663 
0.0159461 -0.0205548 0.999662 
0.0167286 -0.0184699 0.999689 
0.017275 -0.0157323 0.999727 
0.017667 -0.0132436 0.999756 
0.0179837 -0.0109019 0.999779 
0.0182978 -0.0081591 0.999799 
0.0184643 -0.00555044 0.999814 
0.0186122 -0.0032862 0.999821 
0.0187007 -0.00117937 0.999824 
0.018783 0.000987742 0.999823 
0.018803 0.00311984 0.999818 
0.0188024 0.00550767 0.999808 
0.0187434 0.00809632 0.999792 
0.0186583 0.0112018 0.999763 
0.0185338 0.014876 0.999718 
0.0183678 0.0193177 0.999645 
0.0181641 0.0247883 0.999528 
0.0179262 0.0315385 0.999342 
0.0176668 0.0399476 0.999046 
0.0173826 0.0504451 0.998576 
0.017105 0.0633607 0.997844 
0.0168206 0.0796852 0.996678 
0.016579 0.100046 0.994845 
0.0164306 0.125444 0.991965 
0.0164068 0.15696 0.987469 
0.0165155 0.196836 0.980297 
0.0170021 0.245349 0.969286 
0.0177877 0.305993 0.951868 
0.0188273 0.379707 0.924915 
0.0200797 0.468671 0.883144 
0.0215878 0.571278 0.820473 
0.022502 0.684396 0.728763 
0.0216749 0.797763 0.602581 
0.0184244 0.895953 0.443767 
0.0135167 0.964882 0.262337 
0.00322711 0.997949 0.0639258 
-0.00791954 0.988415 -0.151568 
-0.0140004 0.934661 -0.355265 
-0.0215899 0.847698 -0.530039 
-0.02194 0.740201 -0.672027 
-0.022436 0.623097 -0.781823 
-0.0211872 0.513009 -0.858122 
-0.0196424 0.41923 -0.907668 
-0.0183908 0.338263 -0.940872 
-0.0173535 0.270809 -0.962477 
-0.0167357 0.216641 -0.976108 
-0.0164814 0.172015 -0.984956 
-0.0164676 0.137371 -0.990383 
-0.0165574 0.108959 -0.993908 
-0.016804 0.0868772 -0.996077 
-0.0171014 0.0692051 -0.997456 
-0.0173485 0.0548509 -0.998344 
-0.0176297 0.0435694 -0.998895 
-0.0179158 0.0344984 -0.999244 
-0.0181334 0.0271022 -0.999468 
-0.0183405 0.021137 -0.999608 
-0.018523 0.0162912 -0.999696 
-0.0186787 0.0123217 -0.99975 
-0.018805 0.00905469 -0.999782 
-0.0189001 0.00629844 -0.999802 
-0.0189612 0.00388047 -0.999813 
-0.018981 0.0017041 -0.999818 
-0.0189478 -0.000364229 -0.99982 
-0.0189577 -0.00241341 -0.999817 
-0.0188085 -0.00451393 -0.999813 
-0.0187 -0.00671025 -0.999803 
-0.0184498 -0.00897063 -0.99979 
-0.0181391 -0.0113087 -0.999772 
-0.0178277 -0.0138118 -0.999746 
-0.0173166 -0.0163769 -0.999716 
-0.0166331 -0.018999 -0.999681 
-0.0156832 -0.02122 -0.999652 
-0.0142817 -0.0222298 -0.999651 
-0.0122176 -0.0218852 -0.999686 
-0.00910943 -0.0171488 -0.999811 
1.25541e-05 -1.9686e-05 -1 
0.00624458 -0.0112761 0.999917 
0.0106678 -0.0201751 0.99974 
0.0129906 -0.0217149 0.99968 
0.014676 -0.0216797 0.999657 
0.015654 -0.0202903 0.999672 
0.0165223 -0.0177257 0.999706 
0.0169157 -0.0151506 0.999742 
0.0172111 -0.0127767 0.99977 
0.0177948 -0.010366 0.999788 
0.0175463 -0.00829899 0.999812 
0.0182349 -0.00612031 0.999815 
0.0183361 -0.0038555 0.999824 
0.0183207 -0.00160019 0.999831 
0.0185498 0.000555138 0.999828 
0.0184651 0.00276816 0.999826 
0.0185849 0.00510843 0.999814 
0.0184201 0.00772448 0.9998 
0.0184287 0.0107038 0.999773 
0.0182803 0.0142688 0.999731 
0.018082 0.018574 0.999664 
0.0178771 0.0238392 0.999556 
0.0176672 0.0303903 0.999382 
0.017444 0.0384375 0.999109 
0.0172526 0.0485877 0.99867 
0.0170276 0.0609742 0.997994 
0.0169167 0.0765418 0.996923 
0.0168749 0.0959187 0.995246 
0.0169923 0.120058 0.992621 
0.0173654 0.150234 0.988498 
0.01805 0.187859 0.98203 
0.0191908 0.233486 0.972171 
0.0208891 0.290575 0.956624 
0.0232578 0.361373 0.932131 
0.0260708 0.446171 0.894568 
0.0294344 0.545652 0.837495 
0.0323883 0.65812 0.752216 
0.033393 0.77584 0.630046 
0.0306897 0.881774 0.470673 
0.0253083 0.95538 0.294294 
0.0069593 0.996553 0.0826712 
-0.0111497 0.991241 -0.131596 
-0.0227677 0.935079 -0.353707 
-0.0342502 0.843923 -0.535369 
-0.0331277 0.736438 -0.675694 
-0.0319186 0.620752 -0.783357 
-0.0286294 0.508795 -0.860411 
-0.0253044 0.410826 -0.911363 
-0.0224666 0.33084 -0.943419 
-0.0203259 0.265809 -0.963811 
-0.0186934 0.212703 -0.976938 
-0.0178325 0.170399 -0.985214 
-0.0172683 0.136586 -0.990478 
-0.0170485 0.109363 -0.993856 
-0.0169548 0.0873752 -0.996031 
-0.0170007 0.0695383 -0.997434 
-0.0171961 0.0551366 -0.998331 
-0.0173757 0.043482 -0.998903 
-0.0175737 0.0343477 -0.999255 
-0.0177939 0.0269661 -0.999478 
-0.0180339 0.0210475 -0.999616 
-0.0182169 0.0162051 -0.999703 
-0.0183343 0.012263 -0.999757 
-0.0184422 0.00901466 -0.999789 
-0.0185607 0.00624603 -0.999808 
-0.0185821 0.00384364 -0.99982 
-0.0185973 0.0016484 -0.999826 
-0.0185517 -0.000454984 -0.999828 
-0.0185465 -0.00253514 -0.999825 
-0.0183978 -0.00466657 -0.99982 
-0.018295 -0.00685429 -0.999809 
-0.0180316 -0.00910929 -0.999796 
-0.0177103 -0.0114497 -0.999778 
-0.0172931 -0.0138385 -0.999755 
-0.0167707 -0.0164151 -0.999725 
-0.0160579 -0.0190846 -0.999689 
-0.0150783 -0.0214163 -0.999657 
-0.0136053 -0.0223406 -0.999658 
-0.0116645 -0.0219279 -0.999692 
-0.00883136 -0.0170175 -0.999816 
-2.23795e-05 -3.89941e-05 -1 
-0.00024393 8.7177e-05 1 
0.00830911 -0.0176097 0.99981 
0.0109674 -0.0216257 0.999706 
0.0128345 -0.0221798 0.999672 
0.013791 -0.0209979 0.999684 
0.0149286 -0.0185024 0.999717 
0.015226 -0.0157548 0.99976 
0.015377 -0.0131924 0.999795 
0.0161651 -0.0108165 0.999811 
0.015816 -0.00844317 0.999839 
0.0167548 -0.00602853 0.999841 
0.0170087 -0.00370902 0.999848 
0.0168599 -0.00148879 0.999857 
0.0171231 0.000671101 0.999853 
0.0169339 0.00284969 0.999853 
0.0171167 0.00514305 0.99984 
0.0168549 0.0076525 0.999829 
0.0169564 0.010566 0.9998 
0.0168028 0.0140021 0.999761 
0.0165902 0.0181999 0.999697 
0.0163985 0.0233643 0.999593 
0.0162554 0.0297252 0.999426 
0.0160526 0.0376512 0.999162 
0.0160267 0.0475846 0.998739 
0.0158168 0.0597334 0.998089 
0.0159439 0.0751 0.997049 
0.0161282 0.0939671 0.995445 
0.0165583 0.117563 0.992927 
0.0173577 0.146991 0.988985 
0.0187341 0.184496 0.982655 
0.0207911 0.230692 0.972805 
0.0237496 0.288531 0.957176 
0.0278458 0.359822 0.932605 
0.0328871 0.446644 0.894107 
0.0390472 0.550669 0.83381 
0.0450546 0.668684 0.74218 
0.0489723 0.787592 0.614248 
0.049316 0.886376 0.460332 
0.0314391 0.975814 0.216329 
-0.0018811 0.999917 -0.0127733 
-0.0385096 0.971236 -0.234983 
-0.0348107 0.940369 -0.338371 
-0.0503144 0.841789 -0.537456 
-0.0470758 0.72143 -0.690885 
-0.0419252 0.59849 -0.800032 
-0.0357609 0.488031 -0.872093 
-0.0302297 0.394123 -0.91856 
-0.0256612 0.316897 -0.948113 
-0.0222224 0.254665 -0.966774 
-0.01982 0.205564 -0.978443 
-0.0181772 0.165594 -0.986027 
-0.0171292 0.133865 -0.990852 
-0.0164407 0.107653 -0.994053 
-0.0160864 0.0860332 -0.996162 
-0.0159824 0.0683178 -0.997536 
-0.0159649 0.0541243 -0.998407 
-0.0160276 0.0430584 -0.998944 
-0.0162306 0.0339347 -0.999292 
-0.0163228 0.0266691 -0.999511 
-0.0166106 0.0208449 -0.999645 
-0.0167314 0.0160543 -0.999731 
-0.0167862 0.0121681 -0.999785 
-0.0168487 0.00891014 -0.999818 
-0.0169961 0.00619602 -0.999836 
-0.0169531 0.0037735 -0.999849 
-0.0169935 0.0015409 -0.999854 
-0.0169033 -0.000582552 -0.999857 
-0.0169241 -0.00268006 -0.999853 
-0.0167429 -0.0048364 -0.999848 
-0.0166958 -0.00702429 -0.999836 
-0.0164092 -0.00928666 -0.999822 
-0.0160602 -0.0116062 -0.999804 
-0.0156644 -0.0139819 -0.99978 
-0.0151402 -0.0165317 -0.999749 
-0.0144656 -0.019291 -0.999709 
-0.0136173 -0.021647 -0.999673 
-0.0123176 -0.0226096 -0.999668 
-0.0105652 -0.022062 -0.999701 
-0.00808272 -0.0170131 -0.999823 
-8.20511e-06 -3.22707e-05 -1 
9.07295e-05 -0.000138371 1 
0.00706007 -0.016733 0.999835 
0.00933268 -0.0218319 0.999718 
0.0110012 -0.0224733 0.999687 
0.0116924 -0.0212407 0.999706 
0.0128238 -0.0187932 0.999741 
0.0130987 -0.0160344 0.999786 
0.0133906 -0.0132712 0.999822 
0.0140925 -0.0107048 0.999843 
0.0137139 -0.00831015 0.999871 
0.0147179 -0.00602712 0.999874 
0.0150185 -0.00373031 0.99988 
0.0147092 -0.00156162 0.999891 
0.0150436 0.000566672 0.999887 
0.0147738 0.00270278 0.999887 
0.014972 0.00503058 0.999875 
0.0147451 0.00763355 0.999862 
0.0147754 0.0106285 0.999834 
0.0147013 0.0141138 0.999792 
0.0145442 0.0183564 0.999726 
0.0144021 0.0235557 0.999619 
0.0143404 0.0299911 0.999447 
0.0142318 0.0379435 0.999179 
0.0142472 0.0476482 0.998763 
0.0141597 0.0595391 0.998126 
0.0144198 0.0742712 0.997134 
0.0148782 0.0929836 0.995556 
0.0156548 0.116327 0.993088 
0.0169593 0.145615 0.989196 
0.0189215 0.182084 0.983101 
0.0218779 0.22748 0.973537 
0.0261505 0.284727 0.958252 
0.0321779 0.356126 0.933884 
0.0399932 0.444978 0.894648 
0.0500131 0.551509 0.832668 
0.0612473 0.667464 0.742119 
0.0729221 0.775963 0.626549 
0.0718483 0.902567 0.424512 
0.0821716 0.95711 0.277828 
0.0153375 0.998427 0.0539314 
-0.0579185 0.979362 -0.193638 
-0.106924 0.925474 -0.363407 
-0.0668505 0.886308 -0.458246 
-0.0658309 0.74135 -0.667882 
-0.0554987 0.616779 -0.785178 
-0.0452438 0.498172 -0.865897 
-0.0364597 0.40041 -0.91561 
-0.0294097 0.320274 -0.946868 
-0.0241897 0.255302 -0.966559 
-0.020531 0.204444 -0.978663 
-0.0180646 0.163645 -0.986354 
-0.0163585 0.130543 -0.991308 
-0.0153108 0.104609 -0.994396 
-0.0147283 0.0834281 -0.996405 
-0.0144562 0.0664194 -0.997687 
-0.0142197 0.0531134 -0.998487 
-0.0142527 0.0420745 -0.999013 
-0.0143531 0.0333904 -0.999339 
-0.0143526 0.0264945 -0.999546 
-0.0145766 0.0208348 -0.999677 
-0.0146834 0.0161255 -0.999762 
-0.0147095 0.0122381 -0.999817 
-0.0147825 0.00900503 -0.99985 
-0.0148182 0.00621687 -0.999871 
-0.0148362 0.00375026 -0.999883 
-0.0148622 0.00150959 -0.999888 
-0.0148091 -0.000665323 -0.99989 
-0.0147668 -0.00282346 -0.999887 
-0.0146293 -0.00504709 -0.99988 
-0.0145452 -0.00726223 -0.999868 
-0.0142923 -0.00955993 -0.999852 
-0.0138729 -0.0118202 -0.999834 
-0.0135252 -0.0141928 -0.999808 
-0.0130497 -0.0168095 -0.999774 
-0.0124189 -0.0195269 -0.999732 
-0.0116648 -0.0218748 -0.999693 
-0.0105798 -0.0228423 -0.999683 
-0.00906849 -0.0221693 -0.999713 
-0.00697786 -0.0169344 -0.999832 
-4.22551e-06 -3.75199e-05 -1 
-1.31332e-05 -4.11034e-06 1 
0.00602192 -0.0169967 0.999837 
0.00786754 -0.0220702 0.999725 
0.00929504 -0.0225625 0.999702 
0.00981516 -0.0215103 0.99972 
0.0108231 -0.0190013 0.999761 
0.0111753 -0.0160931 0.999808 
0.0114001 -0.0134181 0.999845 
0.0120904 -0.0108761 0.999868 
0.0116595 -0.00862166 0.999895 
0.0125199 -0.00619416 0.999902 
0.0129011 -0.00396836 0.999909 
0.012586 -0.00177237 0.999919 
0.0128718 0.000456261 0.999917 
0.012642 0.00268815 0.999916 
0.012862 0.00501225 0.999905 
0.0126378 0.00758952 0.999891 
0.0127215 0.0105207 0.999864 
0.012592 0.014033 0.999822 
0.0125161 0.0180783 0.999758 
0.0124279 0.0231278 0.999655 
0.0124133 0.0293903 0.999491 
0.0123465 0.0370513 0.999237 
0.0124183 0.0465758 0.998838 
0.012467 0.058262 0.998223 
0.0128464 0.0727103 0.99727 
0.0134606 0.0905411 0.995802 
0.0144559 0.112974 0.993493 
0.0160436 0.141077 0.989869 
0.018508 0.176124 0.984194 
0.0222473 0.221264 0.97496 
0.0278261 0.279179 0.959836 
0.0360135 0.352594 0.935083 
0.0472237 0.444307 0.894629 
0.062249 0.548459 0.833857 
0.0811559 0.65247 0.753457 
0.101924 0.793546 0.599914 
0.133745 0.870402 0.473827 
-0.142538 0.846134 -0.513556 
-0.0909337 0.816126 -0.570675 
-0.0779689 0.667053 -0.740919 
-0.0601552 0.543602 -0.837185 
-0.0462003 0.432918 -0.900249 
-0.0353667 0.344473 -0.93813 
-0.027512 0.273375 -0.961514 
-0.0220928 0.216947 -0.975933 
-0.0185238 0.174021 -0.984568 
-0.0160324 0.138439 -0.990241 
-0.0144655 0.111103 -0.993704 
-0.0135088 0.088709 -0.995966 
-0.0129649 0.0706467 -0.997417 
-0.0125527 0.0566129 -0.998317 
-0.0124606 0.0449518 -0.998911 
-0.0124208 0.0356215 -0.999288 
-0.012364 0.0283148 -0.999523 
-0.0124701 0.0221663 -0.999677 
-0.0126333 0.01737 -0.999769 
-0.012647 0.0132547 -0.999832 
-0.0126736 0.00979384 -0.999872 
-0.0127059 0.0068586 -0.999896 
-0.0127553 0.00432074 -0.999909 
-0.0127453 0.00196382 -0.999917 
-0.0127245 -0.000242025 -0.999919 
-0.0127028 -0.00248611 -0.999916 
-0.0125776 -0.00473001 -0.99991 
-0.0125025 -0.0070762 -0.999897 
-0.0123002 -0.00937509 -0.99988 
-0.0118281 -0.0117269 -0.999861 
-0.0115019 -0.0141116 -0.999834 
-0.0111276 -0.0166653 -0.999799 
-0.0105318 -0.0194385 -0.999756 
-0.00991596 -0.0218341 -0.999712 
-0.00898071 -0.0229013 -0.999697 
-0.00775408 -0.0223703 -0.99972 
-0.00598265 -0.0174489 -0.99983 
3.30957e-06 -3.01948e-05 -1 
-6.15783e-06 -3.34765e-05 1 
0.00502011 -0.0172172 0.999839 
0.00653551 -0.0221967 0.999732 
0.00771653 -0.0226335 0.999714 