# vtk DataFile Version 3.0 
Exported using Morpho https://github.com/Morpho-lang/morpho 
ASCII 
DATASET UNSTRUCTURED_GRID 

POINTS 2113 float 
-8.32618 -2.88146 0 
-8.11405 -2.88146 0 
-7.90192 -2.88146 0 
-7.68979 -2.88146 0 
-7.47765 -2.88146 0 
-7.26552 -2.88146 0 
-7.05339 -2.88146 0 
-6.84126 -2.88146 0 
-6.62913 -2.88146 0 
-6.41699 -2.88146 0 
-6.20486 -2.88146 0 
-5.99273 -2.88146 0 
-5.7806 -2.88146 0 
-5.56847 -2.88146 0 
-5.35633 -2.88146 0 
-5.1442 -2.88146 0 
-4.93207 -2.88146 0 
-4.71994 -2.88146 0 
-4.50781 -2.88146 0 
-4.29567 -2.88146 0 
-4.08354 -2.88146 0 
-3.87141 -2.88146 0 
-3.65928 -2.88146 0 
-3.44715 -2.88146 0 
-3.23501 -2.88146 0 
-3.02288 -2.88146 0 
-2.81075 -2.88146 0 
-2.59862 -2.88146 0 
-2.38649 -2.88146 0 
-2.17435 -2.88146 0 
-1.96222 -2.88146 0 
-1.75009 -2.88146 0 
-1.53796 -2.88146 0 
-1.32583 -2.88146 0 
-1.11369 -2.88146 0 
-0.901561 -2.88146 0 
-0.689429 -2.88146 0 
-0.477297 -2.88146 0 
-0.265165 -2.88146 0 
-0.053033 -2.88146 0 
0.159099 -2.88146 0 
0.371231 -2.88146 0 
0.583363 -2.88146 0 
0.795495 -2.88146 0 
1.00763 -2.88146 0 
1.21976 -2.88146 0 
1.43189 -2.88146 0 
1.64402 -2.88146 0 
1.85616 -2.88146 0 
2.06829 -2.88146 0 
2.28042 -2.88146 0 
2.49255 -2.88146 0 
2.70468 -2.88146 0 
2.91682 -2.88146 0 
3.12895 -2.88146 0 
3.34108 -2.88146 0 
3.55321 -2.88146 0 
3.76534 -2.88146 0 
3.97748 -2.88146 0 
4.18961 -2.88146 0 
4.40174 -2.88146 0 
4.61387 -2.88146 0 
4.826 -2.88146 0 
5.03814 -2.88146 0 
5.25027 -2.88146 0 
5.4624 -2.88146 0 
5.67453 -2.88146 0 
5.88666 -2.88146 0 
6.0988 -2.88146 0 
6.31093 -2.88146 0 
6.52306 -2.88146 0 
6.73519 -2.88146 0 
6.94732 -2.88146 0 
7.15946 -2.88146 0 
7.37159 -2.88146 0 
7.58372 -2.88146 0 
7.79585 -2.88146 0 
8.00798 -2.88146 0 
8.22012 -2.88146 0 
8.53831 -2.88146 0 
-8.53831 -2.73805 0 
-8.30561 -2.65726 0 
-8.07513 -2.66271 0 
-7.84702 -2.66638 0 
-7.62334 -2.66149 0 
-7.39782 -2.66707 0 
-7.16989 -2.66636 0 
-6.94803 -2.6729 0 
-6.72001 -2.67085 0 
-6.4995 -2.67547 0 
-6.27629 -2.67071 0 
-6.05886 -2.6711 0 
-5.8413 -2.66928 0 
-5.6253 -2.66988 0 
-5.40914 -2.6696 0 
-5.19321 -2.66874 0 
-4.97805 -2.66776 0 
-4.7651 -2.6705 0 
-4.54826 -2.66645 0 
-4.33702 -2.67112 0 
-4.12148 -2.66682 0 
-3.91045 -2.67207 0 
-3.6955 -2.6702 0 
-3.4813 -2.67276 0 
-3.26664 -2.67168 0 
-3.05242 -2.67098 0 
-2.83831 -2.67112 0 
-2.62266 -2.66926 0 
-2.40651 -2.66597 0 
-2.19298 -2.66577 0 
-1.97803 -2.6678 0 
-1.75943 -2.663 0 
-1.543 -2.66186 0 
-1.32573 -2.6588 0 
-1.11003 -2.66123 0 
-0.895509 -2.66244 0 
-0.671396 -2.67081 0 
-0.467823 -2.64619 0 
-0.275977 -2.67349 0 
-0.0537239 -2.67865 0 
0.163235 -2.66341 0 
0.371654 -2.65631 0 
0.59481 -2.66503 0 
0.810603 -2.66112 0 
1.02451 -2.66215 0 
1.23813 -2.65996 0 
1.45458 -2.66432 0 
1.67247 -2.66686 0 
1.88941 -2.66885 0 
2.10675 -2.66946 0 
2.3226 -2.66882 0 
2.53776 -2.66938 0 
2.7517 -2.6694 0 
2.96681 -2.67038 0 
3.18081 -2.67181 0 
3.39331 -2.66862 0 
3.60733 -2.67257 0 
3.82007 -2.66956 0 
4.03232 -2.67202 0 
4.2447 -2.67124 0 
4.45736 -2.66924 0 
4.66659 -2.66712 0 
4.87564 -2.66814 0 
5.08614 -2.66848 0 
5.29765 -2.67022 0 
5.50673 -2.66803 0 
5.71836 -2.67201 0 
5.92741 -2.67043 0 
6.13921 -2.6739 0 
6.3484 -2.67085 0 
6.56257 -2.67441 0 
6.77163 -2.66865 0 
6.98744 -2.67239 0 
7.20041 -2.66696 0 
7.41248 -2.66199 0 
7.62841 -2.66207 0 
7.84299 -2.65394 0 
8.06312 -2.65387 0 
8.30883 -2.71482 0 
8.53831 -2.66933 0 
-8.4315 -2.48105 0 
-8.17843 -2.44765 0 
-7.94999 -2.45048 0 
-7.73248 -2.44631 0 
-7.50643 -2.45018 0 
-7.28211 -2.46003 0 
-7.05516 -2.45487 0 
-6.8361 -2.4716 0 
-6.60936 -2.46224 0 
-6.39605 -2.46881 0 
-6.17806 -2.45836 0 
-5.96735 -2.45897 0 
-5.75486 -2.45645 0 
-5.5439 -2.45771 0 
-5.33198 -2.45757 0 
-5.11955 -2.45615 0 
-4.90885 -2.45343 0 
-4.69742 -2.46034 0 
-4.48438 -2.45133 0 
-4.27611 -2.45996 0 
-4.06277 -2.45307 0 
-3.85401 -2.46214 0 
-3.63776 -2.46171 0 
-3.42627 -2.46336 0 
-3.21372 -2.46147 0 
-3.00115 -2.46008 0 
-2.78791 -2.46048 0 
-2.57248 -2.45745 0 
-2.35903 -2.44949 0 
-2.14331 -2.45161 0 
-1.92707 -2.45496 0 
-1.70716 -2.44647 0 
-1.48765 -2.44499 0 
-1.2688 -2.44075 0 
-1.05412 -2.44139 0 
-0.825824 -2.4602 0 
-0.612808 -2.44347 0 
-0.398702 -2.41303 0 
-0.184571 -2.48154 0 
0.0388756 -2.47252 0 
0.0524515 -2.27926 0 
0.270794 -2.43304 0 
0.498489 -2.45549 0 
0.72446 -2.44595 0 
0.945575 -2.44095 0 
1.1583 -2.44034 0 
1.37807 -2.44684 0 
1.59703 -2.45391 0 
1.81741 -2.45654 0 
2.0361 -2.4597 0 
2.25556 -2.45817 0 
2.47371 -2.45798 0 
2.68921 -2.4573 0 
2.90446 -2.46106 0 
3.12138 -2.46099 0 
3.33305 -2.45848 0 
3.55057 -2.4623 0 
3.76257 -2.46106 0 
3.97975 -2.4606 0 
4.19064 -2.46183 0 
4.40466 -2.46077 0 
4.61994 -2.45212 0 
4.82928 -2.45212 0 
5.03717 -2.45589 0 
5.25 -2.45895 0 
5.46107 -2.4547 0 
5.6737 -2.46162 0 
5.88417 -2.45866 0 
6.09601 -2.46551 0 
6.30678 -2.46049 0 
6.5213 -2.46949 0 
6.73656 -2.45672 0 
6.95258 -2.46684 0 
7.17301 -2.45598 0 
7.39257 -2.44543 0 
7.61272 -2.44713 0 
7.83586 -2.43372 0 
8.06391 -2.43816 0 
8.2968 -2.49906 0 
8.53831 -2.4572 0 
-8.53831 -2.27038 0 
-8.29826 -2.26849 0 
-8.04256 -2.23935 0 
-7.81612 -2.22308 0 
-7.59148 -2.23833 0 
-7.35635 -2.24611 0 
-7.12973 -2.25156 0 
-6.89108 -2.25496 0 
-6.67583 -2.26543 0 
-6.44203 -2.25109 0 
-6.23419 -2.25289 0 
-6.01325 -2.24169 0 
-5.8047 -2.24324 0 
-5.59107 -2.24205 0 
-5.38069 -2.24443 0 
-5.16827 -2.24464 0 
-4.95515 -2.23978 0 
-4.74149 -2.24571 0 
-4.53239 -2.24313 0 
-4.31408 -2.24068 0 
-4.11009 -2.2458 0 
-3.89136 -2.24423 0 
-3.68532 -2.25729 0 
-3.46631 -2.25084 0 
-3.25726 -2.25097 0 
-3.04522 -2.24854 0 
-2.8329 -2.2478 0 
-2.62087 -2.24705 0 
-2.40655 -2.23574 0 
-2.18995 -2.23726 0 
-1.97341 -2.23857 0 
-1.75975 -2.23713 0 
-1.53441 -2.23157 0 
-1.31335 -2.2252 0 
-1.09473 -2.21949 0 
-0.875183 -2.25121 0 
-0.654845 -2.23118 0 
-0.438812 -2.2052 0 
-0.19028 -2.27371 0 
-0.0521292 -2.08522 0 
0.170469 -2.07447 0 
0.303484 -2.22976 0 
0.526888 -2.24568 0 
0.749897 -2.23063 0 
0.956455 -2.21278 0 
1.17603 -2.22558 0 
1.39327 -2.23065 0 
1.61138 -2.24257 0 
1.82738 -2.24311 0 
2.03871 -2.24303 0 
2.2512 -2.24781 0 
2.46821 -2.24723 0 
2.68378 -2.24425 0 
2.89604 -2.24917 0 
3.10836 -2.25259 0 
3.32369 -2.24348 0 
3.53251 -2.25654 0 
3.75055 -2.24787 0 
3.96013 -2.25593 0 
4.17933 -2.24785 0 
4.3873 -2.25171 0 
4.60128 -2.24586 0 
4.82032 -2.23684 0 
5.02883 -2.23873 0 
5.23497 -2.24918 0 
5.44854 -2.24263 0 
5.66112 -2.2526 0 
5.8746 -2.24675 0 
6.08502 -2.25651 0 
6.2965 -2.24935 0 
6.50815 -2.26344 0 
6.7184 -2.2449 0 
6.93289 -2.25922 0 
7.14995 -2.25114 0 
7.37354 -2.23533 0 
7.59941 -2.23348 0 
7.83104 -2.22538 0 
8.06783 -2.22619 0 
8.30115 -2.2807 0 
8.53831 -2.24506 0 
-8.42678 -2.06115 0 
-8.19308 -2.05837 0 
-7.96625 -2.01502 0 
-7.73657 -2.00781 0 
-7.51026 -2.03534 0 
-7.28489 -2.03431 0 
-7.05179 -2.05495 0 
-6.83679 -2.03597 0 
-6.61643 -2.06512 0 
-6.41046 -2.02502 0 
-6.1954 -2.04336 0 
-5.98874 -2.02051 0 
-5.77639 -2.02971 0 
-5.56611 -2.02582 0 
-5.35455 -2.03154 0 
-5.14189 -2.03259 0 
-4.92502 -2.03023 0 
-4.71703 -2.02926 0 
-4.49646 -2.03867 0 
-4.29217 -2.01886 0 
-4.07291 -2.04342 0 
-3.86338 -2.02778 0 
-3.64626 -2.05513 0 
-3.43482 -2.03611 0 
-3.22352 -2.03905 0 
-3.01089 -2.03602 0 
-2.79947 -2.03316 0 
-2.58765 -2.03183 0 
-2.36742 -2.02387 0 
-2.15039 -2.02349 0 
-1.93887 -2.01852 0 
-1.71393 -2.02989 0 
-1.49013 -2.01724 0 
-1.27157 -2.00628 0 
-1.04372 -2.01109 0 
-0.831393 -2.03431 0 
-0.61677 -2.01003 0 
-0.440832 -1.9302 0 
-0.274424 -2.06648 0 
-0.0589331 -1.88365 0 
0.145196 -1.86205 0 
0.370876 -1.96136 0 
0.539778 -2.03398 0 
0.742687 -1.99776 0 
0.967951 -1.99877 0 
1.18803 -2.00853 0 
1.41003 -2.01887 0 
1.62715 -2.02715 0 
1.84111 -2.02595 0 
2.05786 -2.02864 0 
2.27601 -2.03728 0 
2.49324 -2.03524 0 
2.70789 -2.03079 0 
2.92071 -2.03644 0 
3.13495 -2.04223 0 
3.3479 -2.02914 0 
3.5634 -2.05065 0 
3.77598 -2.0344 0 
3.99318 -2.05205 0 
4.20197 -2.03144 0 
4.4143 -2.04151 0 
4.6352 -2.04183 0 
4.84596 -2.02134 0 
5.05206 -2.02165 0 
5.26272 -2.03897 0 
5.4702 -2.02322 0 
5.67113 -2.04376 0 
5.87153 -2.02583 0 
6.07482 -2.04478 0 
6.28329 -2.0389 0 
6.49679 -2.05282 0 
6.71341 -2.03753 0 
6.93238 -2.05051 0 
7.15387 -2.04488 0 
7.37327 -2.02339 0 
7.59808 -2.02521 0 
7.82814 -2.01472 0 
8.06318 -2.01876 0 
8.30095 -2.06125 0 
8.53831 -2.03293 0 
-8.53831 -1.82962 0 
-8.31024 -1.85129 0 
-8.08297 -1.81918 0 
-7.83989 -1.80247 0 
-7.58751 -1.81433 0 
-7.36109 -1.82414 0 
-7.11783 -1.84954 0 
-6.89225 -1.82136 0 
-6.66382 -1.85002 0 
-6.44505 -1.81273 0 
-6.22817 -1.82826 0 
-6.01745 -1.80117 0 
-5.80812 -1.81444 0 
-5.59536 -1.81027 0 
-5.38347 -1.81666 0 
-5.17321 -1.82021 0 
-4.96086 -1.82383 0 
-4.74425 -1.81175 0 
-4.53455 -1.83434 0 
-4.32113 -1.79986 0 
-4.11078 -1.83569 0 
-3.89973 -1.8164 0 
-3.68173 -1.84568 0 
-3.47263 -1.82765 0 
-3.25679 -1.82536 0 
-3.04613 -1.82428 0 
-2.83267 -1.81872 0 
-2.61955 -1.81598 0 
-2.40548 -1.81819 0 
-2.17862 -1.81075 0 
-1.95937 -1.79801 0 
-1.74266 -1.82291 0 
-1.51473 -1.81044 0 
-1.28431 -1.79055 0 
-1.05991 -1.80445 0 
-0.825445 -1.81317 0 
-0.625992 -1.76557 0 
-0.415125 -1.69571 0 
-0.236346 -1.82894 0 
0.355632 -1.74286 0 
0.578023 -1.78625 0 
0.79652 -1.78409 0 
1.01286 -1.78222 0 
1.22997 -1.79701 0 
1.44213 -1.80177 0 
1.65152 -1.80892 0 
1.86612 -1.8115 0 
2.08245 -1.81833 0 
2.29709 -1.82467 0 
2.51088 -1.82132 0 
2.72319 -1.81646 0 
2.92966 -1.8172 0 
3.13627 -1.8305 0 
3.34247 -1.80984 0 
3.54927 -1.84063 0 
3.75346 -1.81638 0 
3.96279 -1.84393 0 
4.17385 -1.81955 0 
4.38809 -1.82948 0 
4.60258 -1.84085 0 
4.82083 -1.8119 0 
5.03565 -1.8039 0 
5.24349 -1.82507 0 
5.45277 -1.81142 0 
5.66799 -1.82184 0 
5.87838 -1.81383 0 
6.08896 -1.8295 0 
6.30032 -1.82711 0 
6.51039 -1.84536 0 
6.72093 -1.82267 0 
6.93236 -1.84481 0 
7.14791 -1.83286 0 
7.36969 -1.81247 0 
7.59677 -1.81477 0 
7.82941 -1.8064 0 
8.06774 -1.80925 0 
8.30239 -1.84459 0 
8.53831 -1.8208 0 
-8.53831 -1.61379 0 
-8.30048 -1.63083 0 
-8.05818 -1.60877 0 
-7.7979 -1.61042 0 
[...]
POINT_DATA 2113 
VECTORS vectors float
-7.85213e-05 -0.000479716 1 
5.39358e-05 -0.0147983 0.99989 
-7.62318e-05 -0.0193332 0.999813 
-3.26459e-05 -0.0197731 0.999804 
-4.74132e-05 -0.0183405 0.999832 
-4.06755e-05 -0.016252 0.999868 
-4.31814e-05 -0.0140789 0.999901 
-4.25256e-05 -0.0119548 0.999929 
-4.28492e-05 -0.00981572 0.999952 
-4.26998e-05 -0.00765237 0.999971 
-4.30206e-05 -0.00550082 0.999985 
-4.26498e-05 -0.00339976 0.999994 
-4.30732e-05 -0.00136443 0.999999 
-4.2712e-05 0.000646254 1 
-4.30897e-05 0.00270914 0.999996 
-4.25924e-05 0.00492542 0.999988 
-4.2714e-05 0.00741175 0.999973 
-4.25072e-05 0.01029 0.999947 
-4.22781e-05 0.0137206 0.999906 
-4.18804e-05 0.0178756 0.99984 
-4.16973e-05 0.0229794 0.999736 
-4.07969e-05 0.0292909 0.999571 
-4.06537e-05 0.0371442 0.99931 
-3.935e-05 0.0469488 0.998897 
-3.8785e-05 0.0592222 0.998245 
-3.70258e-05 0.0746082 0.997213 
-3.56832e-05 0.0938996 0.995582 
-3.37754e-05 0.118094 0.993002 
-3.10241e-05 0.14842 0.988924 
-2.76721e-05 0.186327 0.982488 
-2.5156e-05 0.233524 0.972351 
-1.75265e-05 0.292008 0.956416 
-1.6741e-05 0.363677 0.931525 
-8.67668e-06 0.450256 0.892899 
-1.01409e-06 0.548954 0.835852 
-1.49355e-06 0.659738 0.751496 
5.71032e-06 0.774524 0.632544 
2.811e-06 0.880275 0.474464 
2.7142e-06 0.96064 0.277795 
1.13746e-06 0.998405 0.0564585 
-1.93975e-06 0.985474 -0.169824 
-3.08627e-06 0.924957 -0.380071 
-4.48983e-06 0.829864 -0.557965 
-2.44451e-06 0.717699 -0.696353 
7.49245e-07 0.6035 -0.797363 
5.79161e-06 0.497429 -0.867505 
1.17778e-05 0.404421 -0.914573 
1.70033e-05 0.325917 -0.945398 
2.20652e-05 0.261182 -0.965289 
2.61788e-05 0.208611 -0.977999 
2.95666e-05 0.166324 -0.986071 
3.25105e-05 0.132454 -0.991189 
3.45211e-05 0.105388 -0.994431 
3.67192e-05 0.083783 -0.996484 
3.77865e-05 0.0665503 -0.997783 
3.91075e-05 0.0527985 -0.998605 
3.99977e-05 0.041807 -0.999126 
4.08536e-05 0.0330154 -0.999455 
4.10769e-05 0.0259544 -0.999663 
4.19904e-05 0.0202705 -0.999795 
4.20784e-05 0.0156601 -0.999877 
4.24049e-05 0.0118778 -0.999929 
4.24653e-05 0.00872869 -0.999962 
4.30475e-05 0.00605145 -0.999982 
4.26846e-05 0.00370724 -0.999993 
4.30342e-05 0.00156838 -0.999999 
4.27893e-05 -0.00046909 -1 
4.31955e-05 -0.00249835 -0.999997 
4.26715e-05 -0.00458956 -0.999989 
4.30409e-05 -0.00677097 -0.999977 
4.29756e-05 -0.009015 -0.999959 
4.23617e-05 -0.0112875 -0.999936 
4.2746e-05 -0.0135607 -0.999908 
4.47749e-05 -0.0158656 -0.999874 
3.41927e-05 -0.0182701 -0.999833 
6.1559e-05 -0.0205418 -0.999789 
1.63506e-05 -0.0220748 -0.999756 
5.88961e-05 -0.0215442 -0.999768 
6.261e-05 -0.0188342 -0.999823 
-3.75342e-05 -0.000826396 -1 
1.99613e-05 0.000179253 1 
0.00568172 -0.00986191 0.999935 
0.00816591 -0.0174433 0.999815 
0.00908305 -0.0189468 0.999779 
0.00993515 -0.0189425 0.999771 
0.0100007 -0.0172891 0.999801 
0.0103641 -0.0150575 0.999833 
0.0102719 -0.0128288 0.999865 
0.0105837 -0.0105644 0.999888 
0.0105069 -0.00836121 0.99991 
0.0108254 -0.00614027 0.999923 
0.0108688 -0.00401911 0.999933 
0.0109999 -0.00193792 0.999938 
0.010997 0.000110913 0.99994 
0.0110104 0.00220373 0.999937 
0.0110301 0.00443075 0.999929 
0.0110756 0.00689845 0.999915 
0.0108581 0.00971337 0.999894 
0.0110105 0.0131181 0.999853 
0.0106771 0.0171247 0.999796 
0.0107938 0.0221445 0.999697 
0.0103996 0.0282105 0.999548 
0.0103131 0.035907 0.999302 
0.00997527 0.0454907 0.998915 
0.0097659 0.0575399 0.998295 
0.00949286 0.0726344 0.997313 
0.00913379 0.0915811 0.995756 
0.0088227 0.115574 0.99326 
0.00860684 0.145804 0.989276 
0.00834536 0.183192 0.983042 
0.00807076 0.230152 0.973121 
0.00823575 0.289499 0.957143 
0.00852453 0.361626 0.932284 
0.00916857 0.448575 0.893698 
0.00980932 0.550278 0.834924 
0.0103688 0.662533 0.748961 
0.00987709 0.78371 0.621049 
0.00961946 0.884419 0.466594 
0.0056561 0.957167 0.28948 
0.00106827 0.998348 0.05744 
-0.00394002 0.98448 -0.175453 
-0.00805029 0.923942 -0.382449 
-0.00979609 0.822964 -0.568009 
-0.0104231 0.708261 -0.705873 
-0.00991574 0.593776 -0.804569 
-0.00928524 0.488372 -0.872586 
-0.00851128 0.395368 -0.918484 
-0.00810277 0.316797 -0.948459 
-0.0079742 0.252653 -0.967524 
-0.00809025 0.200741 -0.979611 
-0.00838276 0.159513 -0.98716 
-0.00869339 0.126679 -0.991906 
-0.00904053 0.100637 -0.994882 
-0.00935298 0.0797721 -0.996769 
-0.00961858 0.0632434 -0.997952 
-0.0100463 0.0501619 -0.998691 
-0.0101034 0.0396231 -0.999164 
-0.010486 0.0312527 -0.999457 
-0.010545 0.0245374 -0.999643 
-0.0107157 0.0191187 -0.99976 
-0.0109204 0.014707 -0.999832 
-0.0111184 0.0111322 -0.999876 
-0.0111216 0.00813511 -0.999905 
-0.0111597 0.00554629 -0.999922 
-0.0111302 0.00324496 -0.999933 
-0.0112769 0.00115288 -0.999936 
-0.0110966 -0.00088089 -0.999938 
-0.0111915 -0.00288547 -0.999933 
-0.0109861 -0.00496382 -0.999927 
-0.0110731 -0.00707903 -0.999914 
-0.0107925 -0.00930487 -0.999898 
-0.0109078 -0.0114999 -0.999874 
-0.0104918 -0.0137953 -0.99985 
-0.0104955 -0.0160948 -0.999815 
-0.0103049 -0.0183815 -0.999778 
-0.00978002 -0.0202916 -0.999746 
-0.00932371 -0.021064 -0.999735 
-0.00791645 -0.0204028 -0.99976 
-0.00324817 -0.0133403 -0.999906 
0.000146723 0.000351053 -1 
0.00401913 -0.00692218 0.999968 
0.0104892 -0.0167663 0.999804 
0.0124716 -0.0186035 0.999749 
0.0136442 -0.0192367 0.999722 
0.0144806 -0.0181542 0.99973 
0.0149557 -0.0161195 0.999758 
0.0153034 -0.0137856 0.999788 
0.0155323 -0.0116104 0.999812 
0.015782 -0.0093621 0.999832 
0.0159078 -0.00726327 0.999847 
0.0160661 -0.00515753 0.999858 
0.0161513 -0.0031478 0.999865 
0.0162245 -0.00112783 0.999868 
0.0162529 0.000895896 0.999868 
0.0162561 0.00300607 0.999863 
0.0162288 0.00529217 0.999854 
0.0161803 0.00784261 0.999838 
0.0160521 0.0108096 0.999813 
0.015969 0.0143811 0.999769 
0.0157622 0.0185974 0.999703 
0.0155984 0.0238992 0.999593 
0.0153142 0.030296 0.999424 
0.0150282 0.0385398 0.999144 
0.0146764 0.0486202 0.99871 
0.0142993 0.0612801 0.998018 
0.0138898 0.0771287 0.996924 
0.0134727 0.0970398 0.995189 
0.0130992 0.122261 0.992411 
0.0128688 0.153557 0.988056 
0.0127823 0.193061 0.981103 
0.012994 0.242405 0.970088 
0.0138558 0.30447 0.952421 
0.0152688 0.38041 0.924692 
0.017491 0.471202 0.881852 
0.019981 0.574723 0.818104 
0.0211086 0.69645 0.717295 
0.0222439 0.810382 0.585479 
0.0203415 0.910971 0.411969 
0.00916768 0.979983 0.198869 
-0.00242872 0.999048 -0.043555 
-0.0052041 0.998178 -0.0601162 
-0.0148008 0.95688 -0.290107 
-0.020102 0.866928 -0.498028 
-0.022103 0.750722 -0.660248 
-0.0208814 0.63115 -0.77538 
-0.0184403 0.5228 -0.852256 
-0.0159219 0.424165 -0.905445 
-0.0141111 0.340954 -0.939974 
-0.0131159 0.27184 -0.962253 
-0.0126583 0.215971 -0.976318 
-0.0126773 0.171445 -0.985112 
-0.0129077 0.135961 -0.99063 
-0.013269 0.107988 -0.994064 
-0.0136719 0.0856878 -0.996228 
-0.014099 0.0678079 -0.997599 
-0.0145121 0.0539004 -0.998441 
-0.0148701 0.0424692 -0.998987 
-0.0152029 0.0335803 -0.99932 
-0.0154818 0.0262733 -0.999535 
-0.0157136 0.0205663 -0.999665 
-0.0159088 0.0158611 -0.999748 
-0.0161028 0.0119913 -0.999798 
-0.0162109 0.00885077 -0.999829 
-0.016291 0.00618334 -0.999848 
-0.0163334 0.00378442 -0.999859 
-0.0163928 0.00161881 -0.999864 
-0.0163584 -0.000453441 -0.999866 
-0.0163508 -0.00247595 -0.999863 
-0.0162469 -0.00453159 -0.999858 
-0.016203 -0.00661638 -0.999847 
-0.0160129 -0.00880379 -0.999833 
-0.0158354 -0.0110085 -0.999814 
-0.0155124 -0.0133029 -0.999791 
-0.0151697 -0.0156567 -0.999762 
-0.0146713 -0.0180347 -0.99973 
-0.0138984 -0.0199408 -0.999705 
-0.0127212 -0.02047 -0.99971 
-0.0110569 -0.0201018 -0.999737 
-0.00762074 -0.0144503 -0.999867 
-0.000240997 9.72161e-06 -1 
-2.62679e-05 -5.85979e-05 1 
0.00783316 -0.0143374 0.999867 
0.0113791 -0.0187623 0.999759 
0.0131549 -0.0194828 0.999724 
0.0143256 -0.0189364 0.999718 
0.0150747 -0.0169313 0.999743 
0.0155726 -0.0145498 0.999773 
0.0159771 -0.0121223 0.999799 
0.0162739 -0.00998559 0.999818 
0.0165123 -0.00768834 0.999834 
0.0166863 -0.00570261 0.999845 
0.0168346 -0.00361169 0.999852 
0.0169301 -0.0016245 0.999855 
0.0169858 0.000434362 0.999856 
0.0170011 0.00252855 0.999852 
0.0169801 0.00479158 0.999844 
0.0169235 0.00732296 0.99983 
0.0168185 0.0102494 0.999806 
0.0166889 0.0136397 0.999768 
0.016514 0.0179266 0.999703 
0.0163058 0.0227997 0.999607 
0.0160391 0.0292643 0.999443 
0.015734 0.0367828 0.999199 
0.0153823 0.0467844 0.998787 
0.0150154 0.0586874 0.998163 
0.0146383 0.073747 0.99717 
0.0142903 0.0925763 0.995603 
0.014039 0.11604 0.993145 
0.0140095 0.145615 0.989242 
0.014278 0.182923 0.983024 
0.0150637 0.229337 0.973231 
0.0166068 0.285776 0.958153 
0.0193861 0.358816 0.933207 
0.0234964 0.445398 0.895024 
0.0288211 0.545918 0.837343 
0.0326371 0.661332 0.749383 
0.0370962 0.779884 0.624824 
0.036697 0.887594 0.459162 
0.0170467 0.977512 0.210191 
0.00864609 0.998145 0.0602686 
-0.0287601 0.978995 -0.201846 
-0.0283797 0.942901 -0.331863 
-0.0349105 0.84678 -0.530796 
-0.0355514 0.728095 -0.684554 
-0.0321069 0.615951 -0.78713 
-0.0261092 0.507146 -0.861464 
-0.0214199 0.412643 -0.910641 
-0.0179076 0.332679 -0.94287 
-0.0158156 0.267083 -0.963544 
-0.0146705 0.214909 -0.976524 
-0.0140664 0.171866 -0.98502 
-0.0139377 0.13666 -0.99052 
-0.0140847 0.108696 -0.993975 
-0.0143605 0.0866515 -0.996135 
-0.0147305 0.0690351 -0.997505 
-0.0151124 0.0547208 -0.998387 
-0.0154856 0.0435828 -0.99893 
-0.0158212 0.0342711 -0.999287 
-0.0161257 0.0270702 -0.999503 
-0.0163927 0.0210295 -0.999644 
-0.0166112 0.0163599 -0.999728 
-0.0167991 0.0124217 -0.999782 
-0.0169499 0.00907499 -0.999815 
-0.0170439 0.00635514 -0.999835 
-0.0171061 0.00398873 -0.999846 
-0.0171104 0.00176097 -0.999852 
-0.0171658 -0.000337942 -0.999853 
-0.017056 -0.00240266 -0.999852 
-0.0170128 -0.00444454 -0.999845 
-0.0168698 -0.00650807 -0.999837 
-0.0167126 -0.00862415 -0.999823 
-0.0164448 -0.0107927 -0.999807 
-0.0161402 -0.0130719 -0.999784 
-0.0156233 -0.0153612 -0.99976 
-0.0149289 -0.0177808 -0.99973 
-0.0140977 -0.0197975 -0.999705 
-0.0127178 -0.0204026 -0.999711 
-0.0106063 -0.0198384 -0.999747 
-0.00753503 -0.0141021 -0.999872 
1.09478e-05 4.70266e-05 -1 
0.00380115 -0.00760301 0.999964 
0.00944717 -0.018047 0.999793 
0.0116709 -0.0195293 0.999741 
0.0132497 -0.019824 0.999716 
0.014323 -0.0185701 0.999725 
0.0149762 -0.0163077 0.999755 
0.015564 -0.013777 0.999784 
0.0158787 -0.011602 0.999807 
0.0163183 -0.00941717 0.999822 
0.0163387 -0.00739434 0.999839 
0.0166237 -0.00537194 0.999847 
0.0166754 -0.00342368 0.999855 
0.0168073 -0.00138252 0.999858 
0.0168493 0.000673311 0.999858 
0.0168828 0.0028195 0.999854 
0.0168572 0.00513868 0.999845 
0.0167867 0.00778577 0.999829 
0.016667 0.0107254 0.999804 
0.0165625 0.0144149 0.999759 
0.0162975 0.0185749 0.999695 
0.0161593 0.0239785 0.999582 
0.0158412 0.0304072 0.999412 
0.0156186 0.038612 0.999132 
0.0152311 0.048622 0.998701 
0.0148977 0.0610413 0.998024 
0.0145774 0.0766054 0.996955 
0.0143379 0.0958778 0.99529 
0.0142651 0.11989 0.992685 
0.0145081 0.15095 0.988435 
0.0152583 0.189139 0.981832 
0.0167432 0.235076 0.971833 
0.0193747 0.29548 0.955152 
0.0238469 0.368535 0.929308 
0.0303997 0.454092 0.890436 
0.0391656 0.559382 0.827984 
0.0471837 0.671539 0.739466 
0.0570119 0.785157 0.616668 
0.0682545 0.869197 0.489733 
0.0407971 0.949042 0.312498 
0.0176292 0.997055 0.0746341 
-0.0486797 0.979936 -0.193275 
-0.0605882 0.903962 -0.423298 
-0.054417 0.827316 -0.559095 
-0.052206 0.715424 -0.696738 
-0.0420312 0.596242 -0.801704 
-0.0325975 0.490841 -0.870639 
-0.0253809 0.398541 -0.916799 
-0.0205441 0.322413 -0.946376 
-0.0175297 0.26006 -0.965433 
-0.0156878 0.208486 -0.9779 
-0.0146977 0.166371 -0.985954 
-0.0143031 0.132571 -0.99107 
-0.0142623 0.105752 -0.99429 
-0.014427 0.0843455 -0.996332 
-0.0147778 0.0673132 -0.997622 
-0.0150275 0.0534364 -0.998458 
-0.015484 0.0423804 -0.998982 
-0.0157073 0.0334747 -0.999316 
-0.0160979 0.0262498 -0.999526 
-0.0162771 0.0206345 -0.999655 
-0.016531 0.0159628 -0.999736 
-0.0167353 0.0119775 -0.999788 
-0.016788 0.0088069 -0.99982 
-0.0168831 0.00613848 -0.999839 
-0.0170263 0.00372869 -0.999848 
-0.0170318 0.00155893 -0.999854 
-0.017073 -0.000447639 -0.999854 
-0.0169543 -0.00241347 -0.999853 
-0.0169433 -0.00439265 -0.999847 
-0.0167159 -0.00639829 -0.99984 
-0.0165663 -0.0085094 -0.999827 
-0.016243 -0.0107388 -0.99981 
-0.0159053 -0.0130451 -0.999788 
-0.0153738 -0.0154105 -0.999763 
-0.01463 -0.0178641 -0.999733 
-0.0137238 -0.019866 -0.999708 
-0.0124132 -0.0204301 -0.999714 
-0.0104613 -0.0198926 -0.999747 
-0.00723295 -0.0141569 -0.999874 
-7.17085e-05 5.2841e-05 -1 
-2.70446e-05 7.54293e-05 1 
0.00663658 -0.0142876 0.999876 
0.00976602 -0.0194374 0.999763 
0.0114643 -0.0201107 0.999732 
0.0127301 -0.0193505 0.999732 
0.0135058 -0.0172352 0.99976 
0.0142645 -0.0145612 0.999792 
0.0144198 -0.0122086 0.999821 
0.0150034 -0.00991237 0.999838 
0.0149515 -0.00778934 0.999858 
0.0153023 -0.00575276 0.999866 
0.0152065 -0.00375858 0.999877 
0.0154162 -0.00172922 0.99988 
0.0154446 0.000368736 0.999881 
0.0155234 0.00253193 0.999876 
0.0155376 0.00482293 0.999868 
0.0155125 0.00738913 0.999852 
0.0153098 0.0104082 0.999829 
0.0153603 0.0138424 0.999786 
0.014904 0.0180785 0.999725 
0.0149918 0.0231184 0.99962 
0.0145954 0.0293636 0.999462 
0.0145401 0.0373181 0.999198 
0.014118 0.0468185 0.998804 
0.0138101 0.0589947 0.998163 
0.0135661 0.0737656 0.997183 
0.0133938 0.092349 0.995637 
0.0134387 0.115373 0.993231 
0.0138405 0.144032 0.989476 
0.0147947 0.181769 0.98323 
0.0165815 0.226825 0.973794 
0.0197024 0.282072 0.959191 
0.0249123 0.351994 0.935671 
0.0332715 0.436509 0.899085 
0.0449628 0.535043 0.843627 
0.061214 0.651941 0.755795 
0.0816178 0.751773 0.654351 
0.112743 0.848408 0.517197 
0.0746405 0.949577 0.30452 
-0.102585 0.88598 -0.452234 
-0.0816009 0.779623 -0.62091 
-0.063093 0.664231 -0.74486 
-0.04702 0.556036 -0.829827 
-0.0347761 0.459695 -0.887395 
-0.0265543 0.377496 -0.92563 
-0.0211288 0.308699 -0.950925 
-0.0175618 0.249728 -0.968157 
-0.0154003 0.200907 -0.979489 
-0.0142139 0.161381 -0.98679 
-0.0136105 0.129409 -0.991498 
-0.0133948 0.103771 -0.994511 
-0.0134654 0.0837153 -0.996399 
-0.013717 0.0672206 -0.997644 
-0.0138096 0.0539353 -0.998449 
-0.0143166 0.0431528 -0.998966 
-0.0144096 0.0345523 -0.999299 
-0.0149106 0.0273946 -0.999513 
-0.0149168 0.0214701 -0.999658 
-0.0152319 0.0166327 -0.999746 
-0.015532 0.0126525 -0.999799 
-0.0153988 0.00925382 -0.999839 
-0.0154072 0.00639839 -0.999861 
-0.0156893 0.00398137 -0.999869 
-0.0155903 0.00174654 -0.999877 
-0.0156233 -0.000435101 -0.999878 
-0.0155282 -0.00252392 -0.999876 
-0.0155449 -0.00458461 -0.999869 
-0.0153605 -0.0066312 -0.99986 
-0.0152884 -0.00868758 -0.999845 
-0.0148282 -0.0108536 -0.999831 
-0.0146471 -0.0130791 -0.999807 
-0.0140766 -0.015386 -0.999783 
-0.0133294 -0.0178877 -0.999751 
-0.0125558 -0.0199884 -0.999721 
-0.0113016 -0.0205929 -0.999724 
-0.00951377 -0.0199359 -0.999756 
-0.00676903 -0.0140707 -0.999878 
-6.67157e-05 5.03852e-05 -1 
7.32286e-05 -1.55583e-05 1 
0.0060802 -0.0142184 0.99988 
0.00855359 -0.0196901 0.99977 
0.0101755 -0.0202865 0.999742 
0.0109343 -0.0193791 0.999752 
0.0118901 -0.016953 0.999786 
0.0124077 -0.0145323 0.999817 
0.0124309 -0.0122752 0.999847 
0.0131072 -0.0100593 0.999863 
0.0130268 -0.00786166 0.999884 
0.0132854 -0.00571795 0.999895 
0.0131934 -0.0036724 0.999906 
0.0134896 -0.00151202 0.999908 
0.0135211 0.000711338 0.999908 
0.0135805 0.00296115 0.999903 
0.0136228 0.00539527 0.999893 
0.0136132 0.00813395 0.999874 
0.0134116 0.0114222 0.999845 
0.013383 0.0149623 0.999798 
0.0130565 0.0199239 0.999716 
0.0130193 0.0250727 0.999601 
0.0128409 0.0324744 0.99939 
0.0126018 0.0403971 0.999104 
0.0123068 0.0509953 0.998623 
0.0120218 0.0638608 0.997886 
0.0118889 0.0796131 0.996755 
0.0118573 0.0993438 0.994983 
0.0121119 0.123892 0.992222 
0.0128852 0.155223 0.987795 
0.0140976 0.193734 0.980953 
0.0165521 0.24276 0.969945 
0.0205123 0.299015 0.954028 
0.0269287 0.370256 0.92854 
0.0376939 0.457459 0.888432 
0.0543888 0.557822 0.828176 
0.0770523 0.652307 0.754028 
0.113266 0.744058 0.658444 
-0.114358 0.772783 -0.624282 
-0.0784462 0.666661 -0.741221 
-0.0535354 0.560017 -0.826749 
-0.0373028 0.463325 -0.885403 
-0.0271537 0.379611 -0.924748 
-0.0208834 0.310229 -0.950432 
-0.0169862 0.252483 -0.967452 
-0.0145141 0.203031 -0.979065 
-0.0130866 0.162724 -0.986585 
-0.0122989 0.130311 -0.991397 
-0.0119191 0.104227 -0.994482 
-0.0118208 0.0836216 -0.996427 
-0.0120195 0.0673939 -0.997654 
-0.0120049 0.0544181 -0.998446 
-0.012491 0.0436432 -0.998969 
-0.0125884 0.0347387 -0.999317 
-0.0130602 0.027402 -0.999539 
-0.0130708 0.0214391 -0.999685 
-0.0133825 0.0166617 -0.999772 
-0.0136662 0.0125915 -0.999827 
-0.0134849 0.00921052 -0.999867 
-0.013535 0.00632325 -0.999888 
-0.0136834 0.00382335 -0.999899 
-0.0137013 0.00144915 -0.999905 
-0.0136939 -0.000673682 -0.999906 
-0.0135021 -0.00273968 -0.999905 
-0.013602 -0.00474194 -0.999896 
-0.0133393 -0.00673124 -0.999888 
-0.0133525 -0.008729 -0.999873 
-0.0128499 -0.0108921 -0.999858 
-0.0127176 -0.013146 -0.999833 
-0.0121787 -0.0154944 -0.999806 
-0.0114199 -0.0179393 -0.999774 
-0.0108539 -0.0200596 -0.99974 
-0.00980887 -0.0207215 -0.999737 
-0.00832669 -0.0200922 -0.999763 
-0.00596699 -0.014488 -0.999877 
-5.30916e-05 5.09114e-05 -1 
5.30651e-05 8.65849e-05 1 
0.00512346 -0.0139437 0.99989 
0.00703832 -0.0197848 0.999779 
0.00852103 -0.0204485 0.999755 
0.00911407 -0.0195559 0.999767 
0.0100766 -0.0173546 0.999799 
0.0104194 -0.0146567 0.999838 
0.010583 -0.0122899 0.999868 
0.0112148 -0.0099952 0.999887 
0.0109582 -0.00803118 0.999908 
0.01141 -0.00611211 0.999916 
0.0112745 -0.00407832 0.999928 
0.0115624 -0.0019279 0.999931 
0.0116517 0.000236098 0.999932 
0.0116565 0.00250853 0.999929 
0.0117249 0.00486111 0.999919 
0.011753 0.0074782 0.999903 
0.0116943 0.0104839 0.999877 
0.0114351 0.0141853 0.999834 
0.0115065 0.0182243 0.999768 
0.0110553 0.0237808 0.999656 
0.0112896 0.0297977 0.999492 
0.0108073 0.0375865 0.999235 
0.0107357 0.0465843 0.998857 
0.0104456 0.0583092 0.998244 
0.0102608 0.0727284 0.997299 
0.0102311 0.0900912 0.995881 
0.0103643 0.112019 0.993652 
0.0109173 0.139971 0.990095 
0.0117515 0.172838 0.98488 
0.0134137 0.216592 0.97617 
0.0161343 0.268749 0.963075 
0.0205462 0.326447 0.944992 
0.0278469 0.401321 0.915514 
0.0410455 0.492982 0.869071 
0.0587862 0.577829 0.814038 
0.0855266 0.659515 0.74681 
-0.0888774 0.672375 -0.734856 
-0.0563178 0.577259 -0.814617 
-0.0370969 0.480123 -0.876416 
-0.0260616 0.3945 -0.918526 
-0.0194118 0.321124 -0.946838 
-0.0155676 0.261038 -0.965203 
-0.0132764 0.211127 -0.977368 
-0.0117662 0.168782 -0.985583 
-0.0108972 0.134907 -0.990798 
-0.0104336 0.107612 -0.994138 
-0.0102188 0.085784 -0.996261 
-0.0102855 0.0685727 -0.997593 
-0.010373 0.0546392 -0.998452 
-0.0107174 0.0433373 -0.999003 
-0.0108156 0.0345072 -0.999346 
-0.0112713 0.0274378 -0.99956 
-0.0112417 0.0215823 -0.999704 
-0.0114889 0.0167514 -0.999794 
-0.0118374 0.012848 -0.999847 
-0.0116185 0.00960432 -0.999886 
-0.0117154 0.00670712 -0.999909 
-0.0117587 0.0040329 -0.999923 
-0.0118946 0.00174015 -0.999928 
-0.0117101 -0.000575446 -0.999931 
-0.0115991 -0.00272493 -0.999929 
-0.0116379 -0.00483499 -0.999921 
-0.0114443 -0.00691378 -0.999911 
-0.0114054 -0.00897524 -0.999895 
-0.0109126 -0.0111404 -0.999878 
-0.0108365 -0.0133483 -0.999852 
-0.0103025 -0.0156434 -0.999825 
-0.00962922 -0.0181256 -0.999789 
-0.00910729 -0.020182 -0.999755 
-0.00819328 -0.0207801 -0.99975 
-0.00698139 -0.0201587 -0.999772 
-0.00495199 -0.0142124 -0.999887 
-3.78353e-05 5.01968e-05 -1 
2.11967e-05 4.55256e-05 1 
0.00425114 -0.0143764 0.999888 
0.00589312 -0.0199695 0.999783 
0.00715115 -0.0204589 0.999765 
0.00749075 -0.0198431 0.999775 
0.0083658 -0.0177893 0.999807 
0.00875005 -0.0152154 0.999846 
0.00882065 -0.0127306 0.99988 
0.00932991 -0.010314 0.999903 
0.00921999 -0.00807357 0.999925 
0.00947138 -0.00588575 0.999938 
0.00951003 -0.00368383 0.999948 