# vtk DataFile Version 3.0 
Exported using Morpho https://github.com/Morpho-lang/morpho 
ASCII 
DATASET UNSTRUCTURED_GRID 

POINTS 2076 float 
-8.32618 -2.88146 0 
-8.11405 -2.88146 0 
-7.90192 -2.88146 0 
-7.68979 -2.88146 0 
-7.47765 -2.88146 0 
-7.26552 -2.88146 0 
-7.05339 -2.88146 0 
-6.84126 -2.88146 0 
-6.62913 -2.88146 0 
-6.41699 -2.88146 0 
-6.20486 -2.88146 0 
-5.99273 -2.88146 0 
-5.7806 -2.88146 0 
-5.56847 -2.88146 0 
-5.35633 -2.88146 0 
-5.1442 -2.88146 0 
-4.93207 -2.88146 0 
-4.71994 -2.88146 0 
-4.50781 -2.88146 0 
-4.29567 -2.88146 0 
-4.08354 -2.88146 0 
-3.87141 -2.88146 0 
-3.65928 -2.88146 0 
-3.44715 -2.88146 0 
-3.23501 -2.88146 0 
-3.02288 -2.88146 0 
-2.81075 -2.88146 0 
-2.59862 -2.88146 0 
-2.38649 -2.88146 0 
-2.17435 -2.88146 0 
-1.96222 -2.88146 0 
-1.75009 -2.88146 0 
-1.53796 -2.88146 0 
-1.32583 -2.88146 0 
-1.11369 -2.88146 0 
-0.901561 -2.88146 0 
-0.689429 -2.88146 0 
-0.477297 -2.88146 0 
-0.265165 -2.88146 0 
-0.053033 -2.88146 0 
0.159099 -2.88146 0 
0.371231 -2.88146 0 
0.583363 -2.88146 0 
0.795495 -2.88146 0 
1.00763 -2.88146 0 
1.21976 -2.88146 0 
1.43189 -2.88146 0 
1.64402 -2.88146 0 
1.85616 -2.88146 0 
2.06829 -2.88146 0 
2.28042 -2.88146 0 
2.49255 -2.88146 0 
2.70468 -2.88146 0 
2.91682 -2.88146 0 
3.12895 -2.88146 0 
3.34108 -2.88146 0 
3.55321 -2.88146 0 
3.76534 -2.88146 0 
3.97748 -2.88146 0 
4.18961 -2.88146 0 
4.40174 -2.88146 0 
4.61387 -2.88146 0 
4.826 -2.88146 0 
5.03814 -2.88146 0 
5.25027 -2.88146 0 
5.4624 -2.88146 0 
5.67453 -2.88146 0 
5.88666 -2.88146 0 
6.0988 -2.88146 0 
6.31093 -2.88146 0 
6.52306 -2.88146 0 
6.73519 -2.88146 0 
6.94732 -2.88146 0 
7.15946 -2.88146 0 
7.37159 -2.88146 0 
7.58372 -2.88146 0 
7.79585 -2.88146 0 
8.00798 -2.88146 0 
8.22012 -2.88146 0 
8.53831 -2.88146 0 
-8.53831 -2.72097 0 
-8.30376 -2.66923 0 
-8.07877 -2.66419 0 
-7.85807 -2.66601 0 
-7.6249 -2.67823 0 
-7.38154 -2.68671 0 
-7.14548 -2.68126 0 
-6.9174 -2.67435 0 
-6.6977 -2.6658 0 
-6.47916 -2.66175 0 
-6.26415 -2.66257 0 
-6.04932 -2.66169 0 
-5.83389 -2.66538 0 
-5.61766 -2.66741 0 
-5.40133 -2.66805 0 
-5.18626 -2.66968 0 
-4.97119 -2.66929 0 
-4.75727 -2.66935 0 
-4.54397 -2.67099 0 
-4.32974 -2.67064 0 
-4.11584 -2.6703 0 
-3.90172 -2.66872 0 
-3.68941 -2.67028 0 
-3.47459 -2.67008 0 
-3.2599 -2.67143 0 
-3.04182 -2.66898 0 
-2.82568 -2.6663 0 
-2.61169 -2.66809 0 
-2.39333 -2.66695 0 
-2.17503 -2.66231 0 
-1.95688 -2.66475 0 
-1.73587 -2.66467 0 
-1.52206 -2.66128 0 
-1.30203 -2.66441 0 
-1.08057 -2.66572 0 
-0.859997 -2.66603 0 
-0.637286 -2.66532 0 
-0.416102 -2.66437 0 
-0.195564 -2.67583 0 
0.0464358 -2.70143 0 
0.101716 -2.52241 0 
0.288701 -2.68292 0 
0.513525 -2.67083 0 
0.735788 -2.67208 0 
0.958735 -2.67159 0 
1.17919 -2.66678 0 
1.39565 -2.66816 0 
1.6158 -2.66648 0 
1.83157 -2.66582 0 
2.0485 -2.66627 0 
2.2645 -2.66845 0 
2.48141 -2.66838 0 
2.69708 -2.67171 0 
2.91547 -2.66859 0 
3.13316 -2.67188 0 
3.35155 -2.67195 0 
3.56343 -2.66775 0 
3.7778 -2.67005 0 
3.99232 -2.67156 0 
4.20807 -2.67154 0 
4.4168 -2.66739 0 
4.635 -2.67828 0 
4.84818 -2.6683 0 
5.06318 -2.67581 0 
5.27152 -2.66893 0 
5.4822 -2.66855 0 
5.69507 -2.67122 0 
5.90739 -2.67135 0 
6.11846 -2.66958 0 
6.32848 -2.66784 0 
6.54026 -2.66787 0 
6.75375 -2.66864 0 
6.96787 -2.66795 0 
7.18243 -2.66692 0 
7.40074 -2.66605 0 
7.61638 -2.66459 0 
7.83159 -2.65597 0 
8.04783 -2.64913 0 
8.30399 -2.72212 0 
8.53831 -2.66933 0 
-8.43055 -2.49255 0 
-8.18423 -2.45843 0 
-7.95028 -2.44862 0 
-7.71434 -2.47798 0 
-7.45769 -2.50645 0 
-7.34897 -2.32581 0 
-7.19525 -2.49443 0 
-6.94721 -2.47777 0 
-6.7135 -2.45508 0 
-6.49034 -2.4489 0 
-6.26595 -2.44368 0 
-6.04447 -2.44627 0 
-5.82315 -2.45305 0 
-5.60155 -2.45697 0 
-5.38182 -2.45751 0 
-5.16398 -2.45968 0 
-4.94766 -2.45849 0 
-4.73212 -2.4584 0 
-4.51727 -2.46138 0 
-4.30286 -2.46008 0 
-4.08839 -2.45976 0 
-3.87646 -2.45525 0 
-3.66198 -2.46014 0 
-3.44733 -2.45918 0 
-3.22898 -2.46387 0 
-3.01338 -2.45683 0 
-2.80049 -2.45055 0 
-2.58254 -2.45741 0 
-2.36611 -2.45362 0 
-2.14803 -2.44856 0 
-1.92543 -2.4547 0 
-1.71522 -2.44083 0 
-1.49672 -2.44696 0 
-1.27593 -2.45202 0 
-1.05745 -2.45133 0 
-0.834901 -2.45535 0 
-0.611831 -2.45305 0 
-0.391198 -2.45266 0 
-0.175847 -2.32687 0 
-0.136889 -2.50379 0 
0.0898369 -2.33642 0 
0.332143 -2.47895 0 
0.560042 -2.46479 0 
0.782592 -2.46599 0 
0.998049 -2.46028 0 
1.21046 -2.45058 0 
1.42827 -2.45761 0 
1.63872 -2.44928 0 
1.85401 -2.45176 0 
2.06921 -2.45231 0 
2.28431 -2.45648 0 
2.50044 -2.45653 0 
2.71525 -2.46243 0 
2.92571 -2.44958 0 
3.13439 -2.46615 0 
3.3458 -2.45796 0 
3.55787 -2.45239 0 
3.76816 -2.45843 0 
3.98074 -2.46164 0 
4.19423 -2.46524 0 
4.41282 -2.45108 0 
4.62112 -2.47453 0 
4.82881 -2.45197 0 
5.03957 -2.46824 0 
5.24865 -2.45568 0 
5.45873 -2.45637 0 
5.67167 -2.46111 0 
5.8841 -2.46122 0 
6.09591 -2.45764 0 
6.30692 -2.45315 0 
6.51658 -2.45468 0 
6.72941 -2.45675 0 
6.94414 -2.45616 0 
7.16078 -2.4537 0 
7.37848 -2.45666 0 
7.60453 -2.44635 0 
7.82849 -2.43535 0 
8.06394 -2.44146 0 
8.29794 -2.52005 0 
8.53831 -2.4572 0 
-8.53831 -2.26625 0 
-8.32504 -2.27525 0 
-8.09049 -2.24702 0 
-7.84292 -2.25562 0 
-7.59688 -2.30936 0 
-7.33404 -2.14152 0 
-7.09688 -2.29859 0 
-6.87125 -2.26628 0 
-6.64968 -2.23859 0 
-6.42973 -2.2355 0 
-6.20932 -2.23071 0 
-5.99085 -2.23492 0 
-5.77418 -2.24337 0 
-5.55872 -2.24657 0 
-5.34525 -2.24609 0 
-5.13424 -2.24796 0 
-4.92299 -2.24668 0 
-4.71259 -2.24671 0 
-4.51047 -2.23998 0 
-4.30726 -2.24815 0 
-4.09804 -2.2476 0 
-3.88823 -2.24044 0 
-3.67955 -2.24729 0 
-3.46978 -2.24707 0 
-3.25704 -2.25504 0 
-3.04277 -2.24549 0 
-2.82947 -2.23487 0 
-2.61573 -2.24529 0 
-2.40046 -2.24024 0 
-2.18543 -2.23674 0 
-1.9643 -2.24595 0 
-1.74578 -2.21898 0 
-1.53014 -2.23035 0 
-1.31188 -2.23916 0 
-1.09058 -2.23671 0 
-0.869046 -2.24533 0 
-0.644032 -2.24602 0 
-0.413552 -2.24241 0 
-0.253846 -2.10639 0 
-0.0327659 -2.16358 0 
0.192834 -2.12666 0 
0.329838 -2.28311 0 
0.518952 -2.23472 0 
0.730918 -2.26258 0 
0.957404 -2.2483 0 
1.17338 -2.23595 0 
1.39375 -2.24724 0 
1.61383 -2.23054 0 
1.82727 -2.23928 0 
2.04839 -2.24009 0 
2.26903 -2.24373 0 
2.48638 -2.24678 0 
2.70731 -2.24865 0 
2.92358 -2.23871 0 
3.14426 -2.25193 0 
3.35872 -2.24398 0 
3.57201 -2.23708 0 
3.78508 -2.24633 0 
3.99879 -2.25136 0 
4.21978 -2.26088 0 
4.4243 -2.2288 0 
4.6264 -2.26285 0 
4.8183 -2.21735 0 
5.01383 -2.25723 0 
5.22265 -2.24055 0 
5.42946 -2.24436 0 
5.64359 -2.25244 0 
5.85895 -2.25141 0 
6.07142 -2.24719 0 
6.28393 -2.24146 0 
6.49708 -2.23971 0 
6.70845 -2.245 0 
6.92385 -2.2451 0 
7.14144 -2.24332 0 
7.36254 -2.24426 0 
7.58385 -2.24255 0 
7.81819 -2.22656 0 
8.05898 -2.2318 0 
8.29877 -2.30865 0 
8.53831 -2.24506 0 
-8.42744 -2.03788 0 
-8.21861 -2.05179 0 
-7.96982 -2.05946 0 
-7.75009 -2.01735 0 
-7.58621 -2.12099 0 
-7.41359 -1.95378 0 
-7.11897 -2.09031 0 
-6.90419 -2.05485 0 
-6.68488 -2.02892 0 
-6.46233 -2.02211 0 
-6.24222 -2.0192 0 
-6.0205 -2.02169 0 
-5.80067 -2.02927 0 
-5.58471 -2.03413 0 
-5.36862 -2.0336 0 
-5.15385 -2.03341 0 
-4.94245 -2.03495 0 
-4.72905 -2.03364 0 
-4.5173 -2.02117 0 
-4.31148 -2.02966 0 
-4.10253 -2.03336 0 
-3.8906 -2.02672 0 
-3.67939 -2.03199 0 
-3.46452 -2.03574 0 
-3.25117 -2.04341 0 
-3.03844 -2.03147 0 
-2.82263 -2.02117 0 
-2.60897 -2.03178 0 
-2.39512 -2.02504 0 
-2.17205 -2.02867 0 
-1.95725 -2.03142 0 
-1.73619 -2.00369 0 
-1.51877 -2.01405 0 
-1.29916 -2.02625 0 
-1.07631 -2.02503 0 
-0.852875 -2.03647 0 
-0.618991 -2.04399 0 
-0.443112 -1.97688 0 
0.387477 -2.01557 0 
0.603778 -2.02733 0 
0.806361 -2.04933 0 
1.01069 -2.02427 0 
1.22417 -2.02422 0 
1.4305 -2.03027 0 
1.6371 -2.00948 0 
1.85069 -2.02789 0 
2.06001 -2.01932 0 
2.26703 -2.03252 0 
2.48172 -2.0321 0 
2.69155 -2.03991 0 
2.90521 -2.02342 0 
3.11768 -2.04398 0 
3.33146 -2.03126 0 
3.54318 -2.02325 0 
3.75621 -2.03 0 
3.96411 -2.0376 0 
4.17635 -2.05689 0 
4.38703 -2.01451 0 
4.60365 -2.03973 0 
4.82457 -2.01248 0 
5.04624 -2.03934 0 
5.25403 -2.02197 0 
5.47014 -2.03853 0 
5.68489 -2.04566 0 
5.89564 -2.03941 0 
6.10568 -2.03446 0 
6.31747 -2.02948 0 
6.52808 -2.0258 0 
6.73954 -2.0332 0 
6.95344 -2.03316 0 
7.17111 -2.03293 0 
7.38874 -2.03096 0 
7.6142 -2.03608 0 
7.85804 -2.02647 0 
8.08237 -2.01342 0 
8.30437 -2.10012 0 
8.53831 -2.03293 0 
-8.53831 -1.82838 0 
-8.30976 -1.81136 0 
-8.08358 -1.86365 0 
-7.85645 -1.82676 0 
-7.58639 -1.83982 0 
-7.34867 -1.72553 0 
-7.18683 -1.88735 0 
-6.96657 -1.84492 0 
-6.7482 -1.82222 0 
-6.51994 -1.81162 0 
-6.29524 -1.80769 0 
-6.07 -1.81151 0 
-5.84421 -1.8179 0 
-5.62214 -1.8206 0 
-5.40465 -1.82272 0 
-5.18542 -1.82296 0 
-4.96795 -1.82048 0 
-4.75488 -1.82438 0 
-4.53925 -1.81069 0 
-4.32297 -1.81323 0 
-4.11337 -1.81992 0 
-3.89924 -1.81471 0 
-3.6835 -1.81731 0 
-3.47213 -1.82605 0 
-3.25336 -1.8302 0 
-3.03406 -1.82096 0 
-2.81855 -1.80552 0 
-2.60662 -1.81688 0 
-2.37907 -1.82005 0 
-2.16494 -1.81179 0 
-1.93964 -1.82205 0 
-1.71244 -1.79014 0 
-1.4896 -1.80256 0 
-1.26423 -1.81718 0 
-1.03525 -1.81749 0 
-0.797447 -1.84173 0 
-0.604818 -1.78936 0 
0.577338 -1.82049 0 
0.800782 -1.82409 0 
1.01689 -1.80986 0 
1.22703 -1.80454 0 
1.43666 -1.80744 0 
1.65582 -1.79661 0 
1.87139 -1.81236 0 
2.0874 -1.8029 0 
2.30148 -1.82009 0 
2.51457 -1.81591 0 
2.72179 -1.8232 0 
2.92091 -1.79065 0 
3.11657 -1.83201 0 
3.32427 -1.81418 0 
3.53609 -1.8099 0 
3.75184 -1.81806 0 
3.96797 -1.81933 0 
4.17475 -1.84521 0 
4.3918 -1.80417 0 
4.60618 -1.8372 0 
4.79564 -1.78115 0 
4.99906 -1.8333 0 
5.2106 -1.80929 0 
5.42913 -1.83 0 
5.64674 -1.83772 0 
5.86028 -1.8288 0 
6.07196 -1.8226 0 
6.28352 -1.81947 0 
6.49772 -1.81384 0 
6.71307 -1.81906 0 
6.92657 -1.8209 0 
7.14429 -1.82233 0 
7.36585 -1.81818 0 
7.58963 -1.82596 0 
7.81874 -1.83465 0 
8.06804 -1.79549 0 
8.30379 -1.88135 0 
8.53831 -1.8208 0 
-8.53831 -1.6141 0 
-8.30848 -1.59289 0 
-8.08294 -1.64814 0 
-7.86146 -1.60514 0 
-7.64332 -1.6618 0 
-7.42856 -1.54827 0 
-7.12267 -1.65683 0 
-6.90373 -1.61712 0 
-6.67782 -1.60941 0 
-6.45109 -1.59832 0 
[...]
POINT_DATA 2076 
VECTORS vectors float
-7.04495e-05 -0.000259929 1 
0.000151588 -0.0147869 0.999891 
8.44826e-05 -0.019807 0.999804 
0.000108248 -0.0202823 0.999794 
9.43151e-05 -0.0186997 0.999825 
0.000102058 -0.0165736 0.999863 
9.9657e-05 -0.0143836 0.999897 
0.000100619 -0.012149 0.999926 
0.000100203 -0.00984845 0.999951 
0.00010004 -0.00754073 0.999972 
0.000101066 -0.00528639 0.999986 
0.000100072 -0.00312939 0.999995 
0.000101124 -0.00106791 0.999999 
0.000100707 0.000956335 1 
0.000100666 0.00302818 0.999995 
0.000100824 0.00524956 0.999986 
0.000100337 0.00773432 0.99997 
9.99856e-05 0.0106118 0.999944 
9.96573e-05 0.0140325 0.999902 
9.85451e-05 0.0181754 0.999835 
9.83091e-05 0.0232463 0.99973 
9.64413e-05 0.0294994 0.999565 
9.59431e-05 0.0372421 0.999306 
9.32312e-05 0.0468619 0.998901 
9.17929e-05 0.0588361 0.998268 
8.85551e-05 0.0737738 0.997275 
8.52979e-05 0.0924315 0.995719 
8.13784e-05 0.115728 0.993281 
7.52011e-05 0.144899 0.989447 
6.79657e-05 0.181609 0.983371 
6.34491e-05 0.226201 0.974081 
4.95917e-05 0.282042 0.959402 
3.92118e-05 0.350877 0.936421 
2.46026e-05 0.434248 0.900793 
8.44634e-06 0.532863 0.846201 
-7.4312e-06 0.644548 0.764564 
-2.07845e-05 0.762462 0.647033 
-2.42131e-05 0.873278 0.487223 
-1.84467e-05 0.958204 0.286085 
-6.94808e-06 0.99842 0.0561932 
1.48081e-05 0.983862 -0.17893 
2.32726e-05 0.918375 -0.39571 
2.32896e-05 0.817586 -0.575806 
1.47612e-05 0.701197 -0.712968 
-7.20409e-07 0.585416 -0.810733 
-1.70117e-05 0.480137 -0.877194 
-3.18775e-05 0.389383 -0.921076 
-4.54912e-05 0.313738 -0.94951 
-5.62978e-05 0.25183 -0.967771 
-6.51848e-05 0.201739 -0.979439 
-7.30956e-05 0.16144 -0.986883 
-7.83332e-05 0.129131 -0.991628 
-8.30981e-05 0.103219 -0.994659 
-8.82285e-05 0.0824774 -0.996593 
-8.9089e-05 0.0660881 -0.997814 
-9.33627e-05 0.0525207 -0.99862 
-9.38635e-05 0.0417671 -0.999127 
-9.71549e-05 0.0331274 -0.999451 
-9.58912e-05 0.0261688 -0.999658 
-0.000100908 0.0205361 -0.999789 
-9.57532e-05 0.0159538 -0.999873 
-0.000104069 0.0121903 -0.999926 
-9.6033e-05 0.00904436 -0.999959 
-0.000103813 0.00636787 -0.99998 
-9.92549e-05 0.00402145 -0.999992 
-0.000101573 0.00187993 -0.999998 
-0.000100907 -0.000162861 -1 
-0.000100888 -0.00220102 -0.999998 
-0.000100874 -0.00431465 -0.999991 
-0.000100687 -0.00654524 -0.999979 
-0.000100401 -0.0088796 -0.999961 
-0.000100334 -0.0112597 -0.999937 
-0.000100679 -0.0136258 -0.999907 
-9.90085e-05 -0.0159631 -0.999873 
-0.000105485 -0.0183428 -0.999832 
-7.98158e-05 -0.0206594 -0.999787 
-0.000140349 -0.0223884 -0.999749 
-5.83443e-05 -0.021702 -0.999764 
-8.90539e-05 -0.0183158 -0.999832 
-2.80882e-05 -0.00050419 -1 
0.000187421 0.00021528 1 
0.00420586 -0.00905914 0.99995 
0.00719409 -0.0170649 0.999829 
0.00811632 -0.019362 0.99978 
0.00819635 -0.0194055 0.999778 
0.00820236 -0.0175066 0.999813 
0.00871477 -0.0151008 0.999848 
0.00917914 -0.0127324 0.999877 
0.00960816 -0.0104026 0.9999 
0.00983428 -0.00808995 0.999919 
0.00988088 -0.00586407 0.999934 
0.0099752 -0.00368906 0.999943 
0.00987657 -0.00158598 0.99995 
0.00985638 0.000487311 0.999951 
0.00988482 0.00259659 0.999948 
0.00983128 0.0048283 0.99994 
0.00983754 0.00730985 0.999925 
0.00979359 0.0101531 0.9999 
0.00962878 0.0135101 0.999862 
0.0095369 0.0175948 0.9998 
0.00939713 0.0225838 0.999701 
0.00928003 0.0287415 0.999544 
0.00896947 0.0362995 0.999301 
0.00868737 0.0458115 0.998912 
0.00827133 0.0576694 0.998301 
0.00794603 0.0727572 0.997318 
0.00762609 0.0914989 0.995776 
0.00708897 0.114696 0.993375 
0.00663753 0.144342 0.989506 
0.00640113 0.181351 0.983398 
0.00615809 0.227956 0.973652 
0.00632378 0.286731 0.95799 
0.00710667 0.356755 0.934171 
0.00835621 0.444211 0.895883 
0.010428 0.548464 0.836109 
0.0129185 0.665662 0.746142 
0.0146997 0.788915 0.614326 
0.0137105 0.899778 0.436132 
0.00745937 0.976646 0.214724 
-0.00181573 0.998463 -0.0553933 
-0.0082249 0.992817 -0.119359 
-0.00999822 0.948251 -0.317364 
-0.0140768 0.851564 -0.524061 
-0.0134903 0.732496 -0.680637 
-0.011277 0.609993 -0.792326 
-0.0091524 0.498465 -0.866862 
-0.00735325 0.403717 -0.914854 
-0.00642133 0.323356 -0.946256 
-0.00607364 0.258976 -0.965865 
-0.00611824 0.206673 -0.978391 
-0.00636722 0.164883 -0.986293 
-0.00682121 0.131335 -0.991315 
-0.00717029 0.10466 -0.994482 
-0.0077131 0.0829961 -0.99652 
-0.00801708 0.066001 -0.997787 
-0.00839718 0.0521927 -0.998602 
-0.0089286 0.041596 -0.999095 
-0.00907921 0.0329292 -0.999416 
-0.00923992 0.0259381 -0.999621 
-0.00947338 0.020258 -0.99975 
-0.00981823 0.0158008 -0.999827 
-0.00941083 0.0119647 -0.999884 
-0.00999204 0.00881005 -0.999911 
-0.00972105 0.00612493 -0.999934 
-0.0101205 0.00382953 -0.999941 
-0.0100961 0.00170333 -0.999948 
-0.00996056 -0.000356617 -0.99995 
-0.00995143 -0.00240759 -0.999948 
-0.00999068 -0.00450342 -0.99994 
-0.00997922 -0.00667397 -0.999928 
-0.00985717 -0.00894409 -0.999911 
-0.00969017 -0.011284 -0.999889 
-0.00954321 -0.0136332 -0.999862 
-0.00930638 -0.015968 -0.999829 
-0.00903465 -0.0183461 -0.999791 
-0.00867988 -0.0204276 -0.999754 
-0.00825251 -0.0212308 -0.999741 
-0.00713532 -0.0200975 -0.999773 
-0.00205639 -0.0128503 -0.999915 
3.83521e-05 7.8753e-05 -1 
0.00243925 -0.00428968 0.999988 
0.00978318 -0.0161913 0.999821 
0.0118614 -0.0187588 0.999754 
0.0131174 -0.0195674 0.999722 
0.0137713 -0.0181388 0.999741 
0.0149251 -0.0170912 0.999743 
0.0142463 -0.0154941 0.999778 
0.0146125 -0.0129083 0.99981 
0.0149259 -0.0104464 0.999834 
0.0150752 -0.00813107 0.999853 
0.0151989 -0.00584334 0.999867 
0.0153172 -0.00364816 0.999876 
0.0153678 -0.00149359 0.999881 
0.0154123 0.000646057 0.999881 
0.0154412 0.00281963 0.999877 
0.0154098 0.00512732 0.999868 
0.0153626 0.00768912 0.999852 
0.0152545 0.0106409 0.999827 
0.0150518 0.0141241 0.999787 
0.0148848 0.0183729 0.99972 
0.0146232 0.0235583 0.999616 
0.0143139 0.0298674 0.999451 
0.0138767 0.0377754 0.99919 
0.0134045 0.0476125 0.998776 
0.012813 0.0601146 0.998109 
0.0121893 0.0755422 0.997068 
0.0115196 0.0945786 0.995451 
0.0107935 0.118912 0.992846 
0.0101731 0.149044 0.988778 
0.00976909 0.18693 0.982325 
0.00972655 0.235297 0.971875 
0.0105381 0.291789 0.956425 
0.0123367 0.363814 0.93139 
0.0156221 0.451765 0.892 
0.0206627 0.554343 0.832031 
0.0265115 0.672381 0.73973 
0.0312775 0.795489 0.605161 
0.0294863 0.905888 0.422489 
0.0256592 0.978258 0.2058 
0.0115694 0.987905 0.154626 
-0.0141943 0.993668 -0.111458 
-0.0253746 0.929117 -0.368915 
-0.0304591 0.820848 -0.570334 
-0.0266409 0.699073 -0.714554 
-0.02117 0.582671 -0.812432 
-0.0163241 0.478965 -0.877682 
-0.0125016 0.387954 -0.921594 
-0.0105246 0.314384 -0.949237 
-0.00959028 0.25251 -0.967547 
-0.00947541 0.202304 -0.979277 
-0.00984207 0.16192 -0.986755 
-0.0104798 0.129326 -0.991547 
-0.0111819 0.103429 -0.994574 
-0.0119306 0.0828473 -0.996491 
-0.0124893 0.0663934 -0.997715 
-0.0131391 0.0531328 -0.998501 
-0.013682 0.0422877 -0.999012 
-0.0140924 0.033623 -0.999335 
-0.0144654 0.0265599 -0.999543 
-0.0147487 0.0208129 -0.999675 
-0.0151133 0.0160449 -0.999757 
-0.0151122 0.0123027 -0.99981 
-0.0154866 0.00920273 -0.999838 
-0.0154414 0.00648563 -0.99986 
-0.0156398 0.00412604 -0.999869 
-0.0156653 0.00195783 -0.999875 
-0.015629 -0.000131499 -0.999878 
-0.0155876 -0.00219286 -0.999876 
-0.0155335 -0.00428534 -0.99987 
-0.015451 -0.006429 -0.99986 
-0.0152896 -0.00861841 -0.999846 
-0.0150856 -0.0109003 -0.999827 
-0.0148266 -0.013233 -0.999803 
-0.0144721 -0.0155788 -0.999774 
-0.0139496 -0.0179492 -0.999742 
-0.0132377 -0.0200285 -0.999712 
-0.0121937 -0.020643 -0.999713 
-0.0104558 -0.0195025 -0.999755 
-0.00677774 -0.0133002 -0.999889 
0.00035317 7.71602e-05 -1 
-9.41592e-05 0.000264585 1 
0.00666001 -0.0121464 0.999904 
0.0109359 -0.0181161 0.999776 
0.0129721 -0.0196087 0.999724 
0.0142644 -0.019432 0.999709 
0.0153982 -0.0170035 0.999737 
0.0154351 -0.0144213 0.999777 
0.0158098 -0.0120313 0.999803 
0.0161521 -0.00973309 0.999822 
0.0163468 -0.0075056 0.999838 
0.016519 -0.00531272 0.999849 
0.0166446 -0.00315755 0.999856 
0.0167285 -0.00103864 0.99986 
0.0167942 0.00107194 0.999858 
0.0168277 0.00323423 0.999853 
0.0168073 0.00553609 0.999843 
0.0167497 0.00811803 0.999827 
0.0166406 0.0110941 0.9998 
0.0165071 0.0144971 0.999759 
0.0162096 0.0185294 0.999697 
0.0158991 0.0236207 0.999595 
0.0154727 0.0298072 0.999436 
0.0150136 0.0375128 0.999183 
0.0144079 0.0469179 0.998795 
0.0137737 0.0589689 0.998165 
0.0130048 0.0738239 0.997186 
0.0121843 0.0922365 0.995663 
0.0114319 0.115564 0.993234 
0.0106991 0.144213 0.989489 
0.0102446 0.1798 0.98365 
0.0103407 0.225201 0.974257 
0.0114331 0.280297 0.959845 
0.014102 0.347905 0.937424 
0.0189869 0.42919 0.903015 
0.0270402 0.526926 0.849481 
0.0378719 0.639606 0.76777 
0.0498337 0.762741 0.644781 
0.0550381 0.884078 0.464087 
0.0710435 0.943191 0.324566 
0.00874876 0.99921 0.0387765 
-0.057799 0.964756 -0.25672 
-0.045796 0.922608 -0.38301 
-0.054669 0.827587 -0.558668 
-0.0430056 0.71453 -0.698282 
-0.0320251 0.592143 -0.805197 
-0.0227757 0.487192 -0.872998 
-0.0159782 0.396359 -0.917956 
-0.012243 0.319489 -0.947511 
-0.0104494 0.258325 -0.966002 
-0.00988513 0.206318 -0.978435 
-0.0101692 0.164856 -0.986265 
-0.0108182 0.131809 -0.991216 
-0.0116448 0.104699 -0.994436 
-0.0125122 0.083794 -0.996405 
-0.0132964 0.066252 -0.997714 
-0.014038 0.0528626 -0.998503 
-0.0146891 0.0421058 -0.999005 
-0.0152185 0.0334032 -0.999326 
-0.0156698 0.0263638 -0.99953 
-0.0160643 0.0204779 -0.999661 
-0.0164742 0.0160908 -0.999735 
-0.0166223 0.0123928 -0.999785 
-0.0169516 0.00949766 -0.999811 
-0.0169677 0.00690361 -0.999832 
-0.0170633 0.0044751 -0.999844 
-0.0170987 0.00228431 -0.999851 
-0.0170583 0.000144517 -0.999854 
-0.0170064 -0.00196784 -0.999853 
-0.0169333 -0.00407279 -0.999848 
-0.0168137 -0.00621352 -0.999839 
-0.0166238 -0.00839725 -0.999827 
-0.0163581 -0.0106226 -0.99981 
-0.0160189 -0.0129485 -0.999788 
-0.0155688 -0.0153101 -0.999762 
-0.0149545 -0.0177641 -0.99973 
-0.0141061 -0.0199454 -0.999702 
-0.0127853 -0.020528 -0.999708 
-0.0106891 -0.0191226 -0.99976 
-0.00719175 -0.0131499 -0.999888 
0.000461734 4.4077e-05 -1 
0.00308433 -0.00509552 0.999982 
0.00933436 -0.0169389 0.999813 
0.012201 -0.0194921 0.999736 
0.0136824 -0.0203398 0.999699 
0.0146135 -0.0195583 0.999702 
0.0146351 -0.0180257 0.99973 
0.0158217 -0.0146715 0.999767 
0.0160918 -0.0124281 0.999793 
0.0162252 -0.0101226 0.999817 
0.016379 -0.00787411 0.999835 
0.0165378 -0.00569376 0.999847 
0.0166937 -0.00349721 0.999855 
0.0168365 -0.00132237 0.999857 
0.0169269 0.000820933 0.999856 
0.0169493 0.00303213 0.999852 
0.0169207 0.00539206 0.999842 
0.0168434 0.00798529 0.999826 
0.0166924 0.0110083 0.9998 
0.0164408 0.014573 0.999759 
0.0161843 0.0186995 0.999694 
0.0158227 0.0237694 0.999592 
0.0154004 0.0301932 0.999425 
0.0148544 0.0379176 0.99917 
0.0142759 0.047834 0.998753 
0.0135608 0.0598611 0.998115 
0.012683 0.0748491 0.997114 
0.0117364 0.0937311 0.995528 
0.0109029 0.116805 0.993095 
0.0100648 0.145387 0.989324 
0.00956039 0.182253 0.983205 
0.00967115 0.225962 0.974088 
0.0107152 0.280867 0.959687 
0.013971 0.345433 0.938339 
0.0204204 0.425037 0.904945 
0.0316085 0.519146 0.854101 
0.0488417 0.628089 0.776607 
0.0723332 0.752647 0.654439 
0.101305 0.834673 0.541349 
-0.0969747 0.866924 -0.488916 
-0.0729744 0.756137 -0.650332 
-0.0504235 0.652385 -0.756208 
-0.0340559 0.548279 -0.835602 
-0.0219765 0.453823 -0.890821 
-0.0150497 0.376396 -0.926337 
-0.0110212 0.308667 -0.951106 
-0.00948442 0.25095 -0.967954 
-0.00904928 0.204234 -0.97888 
-0.00949324 0.165648 -0.986139 
-0.0102362 0.133141 -0.991044 
-0.0111748 0.107296 -0.994164 
-0.0120045 0.086013 -0.996222 
-0.0130203 0.0689918 -0.997532 
-0.0137189 0.0550055 -0.998392 
-0.0144043 0.0439762 -0.998929 
-0.0150495 0.0349422 -0.999276 
-0.0155892 0.0277969 -0.999492 
-0.0161071 0.0218578 -0.999631 
-0.0162454 0.0170651 -0.999722 
-0.0166432 0.0129835 -0.999777 
-0.016779 0.00955968 -0.999814 
-0.0169975 0.00659955 -0.999834 
-0.0170496 0.00419561 -0.999846 
-0.0171753 0.00189888 -0.999851 
-0.0171965 -0.000265093 -0.999852 
-0.0171174 -0.00236168 -0.999851 
-0.0169903 -0.0044663 -0.999846 
-0.0168043 -0.00660281 -0.999837 
-0.0165643 -0.00874508 -0.999825 
-0.0163076 -0.0109544 -0.999807 
-0.0159429 -0.0132621 -0.999785 
-0.0154633 -0.0156357 -0.999758 
-0.0148254 -0.0180613 -0.999727 
-0.0139618 -0.0202253 -0.999698 
-0.0125372 -0.0206013 -0.999709 
-0.0105001 -0.019014 -0.999764 
-0.00716366 -0.0127088 -0.999894 
0.000225728 4.89701e-05 -1 
0.000132463 0.000193468 1 
0.00644705 -0.0129538 0.999895 
0.0103528 -0.019005 0.999766 
0.0117798 -0.0203195 0.999724 
0.0131813 -0.019784 0.999717 
0.0127975 -0.0173595 0.999767 
0.0146341 -0.0154761 0.999773 
0.0146297 -0.0131317 0.999807 
0.014708 -0.0108381 0.999833 
0.0148522 -0.00852144 0.999853 
0.0150163 -0.00629316 0.999867 
0.0152081 -0.004048 0.999876 
0.0153752 -0.00178621 0.99988 
0.0154606 0.000446895 0.99988 
0.0154942 0.00269182 0.999876 
0.0154594 0.00510808 0.999867 
0.0153456 0.00777689 0.999852 
0.0152322 0.010782 0.999826 
0.0149008 0.0143908 0.999785 
0.0146261 0.0187384 0.999717 
0.0143239 0.0238564 0.999613 
0.0138408 0.0303036 0.999445 
0.0133058 0.0382854 0.999178 
0.0127511 0.0479543 0.998768 
0.0119879 0.0602857 0.998109 
0.0110534 0.0759662 0.997049 
0.00997876 0.0950952 0.995418 
0.00906365 0.117686 0.993009 
0.00812413 0.148339 0.988903 
0.00730043 0.183766 0.982943 
0.0072417 0.22927 0.973336 
0.00759513 0.28468 0.958592 
0.0108248 0.350042 0.936671 
0.0180832 0.428697 0.903267 
0.0317646 0.520414 0.853323 
0.0579906 0.63058 0.773955 
0.0916036 0.713848 0.694284 
-0.0942962 0.731879 -0.674879 
-0.0543791 0.624628 -0.779027 
-0.0302729 0.526687 -0.84952 
-0.0172054 0.442213 -0.896745 
-0.0105792 0.366945 -0.930183 
-0.00712559 0.300226 -0.953841 
-0.00645559 0.244896 -0.969528 
-0.00653601 0.198625 -0.980054 
-0.00751224 0.160583 -0.986994 
-0.00846664 0.12963 -0.991526 
-0.00957456 0.105098 -0.994416 
-0.0102104 0.0856775 -0.996271 
-0.0114438 0.0697887 -0.997496 
-0.0121157 0.0562967 -0.998341 
-0.0127859 0.044945 -0.998908 
-0.0134822 0.0356166 -0.999275 
-0.0140217 0.0280922 -0.999507 
-0.014649 0.022175 -0.999647 
-0.0146794 0.0172551 -0.999743 
-0.0152462 0.0131403 -0.999797 
-0.0149579 0.0101553 -0.999837 
-0.0155984 0.00732306 -0.999852 
-0.015464 0.00476487 -0.999869 
-0.0157121 0.00236218 -0.999874 
-0.015786 0.000117865 -0.999875 
-0.0156589 -0.00204096 -0.999875 
-0.0155012 -0.00418707 -0.999871 
-0.0153138 -0.00633164 -0.999863 
-0.0150422 -0.00849914 -0.999851 
-0.0148015 -0.0107215 -0.999833 
-0.014469 -0.0130136 -0.999811 
-0.0140362 -0.0153898 -0.999783 
-0.0134256 -0.0178734 -0.99975 
-0.0127574 -0.0201791 -0.999715 
-0.0117791 -0.0208504 -0.999713 
-0.00959956 -0.0191873 -0.99977 
-0.00679297 -0.0127604 -0.999896 
0.000149398 5.11119e-05 -1 
-0.000159439 -1.57074e-06 1 
0.00570652 -0.0126501 0.999904 
0.00881408 -0.0190734 0.999779 
0.00993767 -0.0205317 0.99974 
0.0113712 -0.0203118 0.999729 
0.0110503 -0.0184319 0.999769 
0.0126227 -0.0148872 0.99981 
0.0126129 -0.0125602 0.999842 
0.0128459 -0.0102028 0.999865 
0.0129933 -0.00792836 0.999884 
0.0131959 -0.00566611 0.999897 
0.0133954 -0.00336851 0.999905 
0.0135143 -0.00109344 0.999908 
0.0135512 0.00116772 0.999907 
0.0135932 0.00351552 0.999901 
0.0135281 0.00605035 0.99989 
0.0133804 0.0088786 0.999871 
0.0132428 0.0120932 0.999839 
0.0129324 0.0160981 0.999787 
0.0126064 0.0207983 0.999704 
0.0122853 0.0264333 0.999575 
0.0117741 0.0336768 0.999363 
0.0111762 0.0423899 0.999039 
0.0106153 0.0531701 0.998529 
0.0097751 0.066741 0.997722 
0.00867589 0.0837003 0.996453 
0.00744752 0.104859 0.994459 
0.00650918 0.130577 0.991417 
0.00506597 0.162118 0.986758 
0.0040367 0.202394 0.979296 
0.00312428 0.24923 0.968439 
0.00256606 0.311125 0.950365 
0.00523832 0.37941 0.925214 
0.0120372 0.456736 0.889521 
0.0301134 0.550853 0.834059 
0.0514373 0.627022 0.777301 
-0.0557165 0.636517 -0.769248 
-0.0229331 0.544904 -0.838185 
-0.00805383 0.460539 -0.887603 
-0.00286318 0.38575 -0.922599 
-0.00159944 0.320019 -0.94741 
-0.00205096 0.25867 -0.965964 
-0.00305501 0.210078 -0.97768 
-0.00459933 0.168184 -0.985745 
-0.00594443 0.135787 -0.99072 
-0.00720015 0.109044 -0.994011 
-0.00830293 0.0869511 -0.996178 
-0.00951935 0.0686323 -0.997597 
-0.010306 0.0549116 -0.998438 
-0.0110561 0.0435279 -0.998991 
-0.0117236 0.034488 -0.999336 
-0.0121831 0.0273295 -0.999552 
-0.012836 0.0216644 -0.999683 
-0.0122723 0.0179409 -0.999764 
-0.0132287 0.0143226 -0.99981 
-0.0131257 0.0106046 -0.999858 
-0.0136307 0.00731476 -0.99988 
-0.0136152 0.00452223 -0.999897 
-0.013853 0.00211813 -0.999902 
-0.0138681 -8.58842e-05 -0.999904 
-0.0137197 -0.00224967 -0.999903 
-0.0135598 -0.00441449 -0.999898 
-0.0133915 -0.00659095 -0.999889 
-0.0131261 -0.00877473 -0.999875 
-0.0128464 -0.0109508 -0.999858 
-0.0125252 -0.0132557 -0.999834 
-0.0121069 -0.0156486 -0.999804 
-0.0115237 -0.0181255 -0.999769 
-0.0109097 -0.02036 -0.999733 
-0.0100869 -0.0209159 -0.99973 
-0.00819965 -0.0192885 -0.99978 
-0.00597945 -0.0130285 -0.999897 
0.000169449 5.06877e-05 -1 
-0.000134522 5.2777e-05 1 
0.00482731 -0.0126675 0.999908 
0.00741261 -0.0192515 0.999787 
0.0083698 -0.020725 0.99975 
0.00958104 -0.0204571 0.999745 
0.00939977 -0.0182783 0.999789 
0.0108404 -0.0158209 0.999816 
0.0107279 -0.013362 0.999853 
0.0109527 -0.0110042 0.999879 
0.0111349 -0.00875734 0.9999 
0.0113224 -0.00649569 0.999915 
0.0115271 -0.00421182 0.999925 
0.0116451 -0.00192373 0.99993 
0.0116869 0.000343513 0.999932 
0.0117388 0.00267759 0.999928 
0.0117158 0.00512737 0.999918 
0.0115965 0.0078369 0.999902 
0.011431 0.0109483 0.999875 
0.0112947 0.0145327 0.999831 
0.0109317 0.0190142 0.999759 
0.0105986 0.0243521 0.999647 
0.0102719 0.0307997 0.999473 
0.00965719 0.038965 0.999194 
0.00909831 0.0490636 0.998754 
0.00841138 0.0611285 0.998094 
0.00742596 0.0763082 0.997057 
0.00616488 0.0955376 0.995407 
0.00480992 0.120838 0.992661 
0.00329139 0.148244 0.988945 
0.00144571 0.185832 0.98258 
-0.000821614 0.22902 0.973421 
-0.00300537 0.281915 0.959435 
-0.00618543 0.351381 0.936212 
-0.00700636 0.421649 0.906732 
-0.000736636 0.501711 0.865035 
-0.000338625 0.575448 0.817838 
-0.00184056 0.578103 -0.815961 
0.0104104 0.497731 -0.867269 
0.0113419 0.420786 -0.907089 
0.0083936 0.351361 -0.936202 
0.00428825 0.287725 -0.957703 
0.0016991 0.23332 -0.972399 
-0.00102831 0.186785 -0.9824 
-0.00297202 0.150072 -0.988671 
-0.00465312 0.120782 -0.992668 
-0.00604281 0.096893 -0.995276 
-0.00737273 0.0759645 -0.997083 
-0.00825384 0.0609266 -0.998108 
-0.0090639 0.0482774 -0.998793 
-0.00972476 0.0381373 -0.999225 
-0.0102018 0.0302961 -0.999489 
-0.0106697 0.0237742 -0.99966 
-0.0107003 0.0178041 -0.999784 
-0.0114409 0.0132047 -0.999847 
-0.0111794 0.00984175 -0.999889 
-0.0119269 0.00731319 -0.999902 
-0.0116971 0.00489701 -0.99992 
-0.0120185 0.00251359 -0.999925 
-0.0119918 0.000215552 -0.999928 
-0.0118715 -0.00196796 -0.999928 
-0.0117184 -0.00418542 -0.999923 
-0.0115833 -0.00639178 -0.999912 
-0.011366 -0.00858184 -0.999899 
-0.011038 -0.0108177 -0.999881 
-0.0107539 -0.0131014 -0.999856 
-0.0103923 -0.0154846 -0.999826 
-0.00987347 -0.0179749 -0.99979 
-0.00931814 -0.0203244 -0.99975 
-0.0086923 -0.0209785 -0.999742 
-0.00704098 -0.0194405 -0.999786 
-0.00503955 -0.0129856 -0.999903 
0.00017859 4.94449e-05 -1 
-0.00019577 6.18696e-05 1 
0.00390225 -0.01253 0.999914 
0.00610294 -0.0192135 0.999797 
0.00703705 -0.0208172 0.999759 
0.00805684 -0.0203578 0.99976 
0.00780076 -0.0179506 0.999808 
0.00913841 -0.0156571 0.999836 
0.00900506 -0.0131692 0.999873 
0.00919337 -0.0108064 0.999899 
0.00940584 -0.00848937 0.99992 
0.00958021 -0.00619568 0.999935 
0.00975167 -0.00389462 0.999945 
0.00982587 -0.00159989 0.99995 
0.00988173 0.000735066 0.999951 
0.00989781 0.0030898 0.999946 
0.00986337 0.00559047 0.999936 
0.00975503 0.00839218 0.999917 
0.00957306 0.0115604 0.999887 