# vtk DataFile Version 3.0 
Exported using Morpho https://github.com/Morpho-lang/morpho 
ASCII 
DATASET UNSTRUCTURED_GRID 

POINTS 2131 float 
-8.32618 -2.88146 0 
-8.11405 -2.88146 0 
-7.90192 -2.88146 0 
-7.68979 -2.88146 0 
-7.47765 -2.88146 0 
-7.26552 -2.88146 0 
-7.05339 -2.88146 0 
-6.84126 -2.88146 0 
-6.62913 -2.88146 0 
-6.41699 -2.88146 0 
-6.20486 -2.88146 0 
-5.99273 -2.88146 0 
-5.7806 -2.88146 0 
-5.56847 -2.88146 0 
-5.35633 -2.88146 0 
-5.1442 -2.88146 0 
-4.93207 -2.88146 0 
-4.71994 -2.88146 0 
-4.50781 -2.88146 0 
-4.29567 -2.88146 0 
-4.08354 -2.88146 0 
-3.87141 -2.88146 0 
-3.65928 -2.88146 0 
-3.44715 -2.88146 0 
-3.23501 -2.88146 0 
-3.02288 -2.88146 0 
-2.81075 -2.88146 0 
-2.59862 -2.88146 0 
-2.38649 -2.88146 0 
-2.17435 -2.88146 0 
-1.96222 -2.88146 0 
-1.75009 -2.88146 0 
-1.53796 -2.88146 0 
-1.32583 -2.88146 0 
-1.11369 -2.88146 0 
-0.901561 -2.88146 0 
-0.689429 -2.88146 0 
-0.477297 -2.88146 0 
-0.265165 -2.88146 0 
-0.053033 -2.88146 0 
0.159099 -2.88146 0 
0.371231 -2.88146 0 
0.583363 -2.88146 0 
0.795495 -2.88146 0 
1.00763 -2.88146 0 
1.21976 -2.88146 0 
1.43189 -2.88146 0 
1.64402 -2.88146 0 
1.85616 -2.88146 0 
2.06829 -2.88146 0 
2.28042 -2.88146 0 
2.49255 -2.88146 0 
2.70468 -2.88146 0 
2.91682 -2.88146 0 
3.12895 -2.88146 0 
3.34108 -2.88146 0 
3.55321 -2.88146 0 
3.76534 -2.88146 0 
3.97748 -2.88146 0 
4.18961 -2.88146 0 
4.40174 -2.88146 0 
4.61387 -2.88146 0 
4.826 -2.88146 0 
5.03814 -2.88146 0 
5.25027 -2.88146 0 
5.4624 -2.88146 0 
5.67453 -2.88146 0 
5.88666 -2.88146 0 
6.0988 -2.88146 0 
6.31093 -2.88146 0 
6.52306 -2.88146 0 
6.73519 -2.88146 0 
6.94732 -2.88146 0 
7.15946 -2.88146 0 
7.37159 -2.88146 0 
7.58372 -2.88146 0 
7.79585 -2.88146 0 
8.00798 -2.88146 0 
8.22012 -2.88146 0 
8.53831 -2.88146 0 
-8.53831 -2.73869 0 
-8.24603 -2.65575 0 
-8.0235 -2.65379 0 
-7.78664 -2.66422 0 
-7.55627 -2.66652 0 
-7.32767 -2.66889 0 
-7.10227 -2.66854 0 
-6.88031 -2.66933 0 
-6.66029 -2.66984 0 
-6.44212 -2.66989 0 
-6.22505 -2.67001 0 
-6.0092 -2.67018 0 
-5.79398 -2.67026 0 
-5.57892 -2.66988 0 
-5.36448 -2.66939 0 
-5.15105 -2.66958 0 
-4.93762 -2.66984 0 
-4.72401 -2.66938 0 
-4.51116 -2.66981 0 
-4.29795 -2.66988 0 
-4.08459 -2.66928 0 
-3.87222 -2.66974 0 
-3.65929 -2.66938 0 
-3.44661 -2.66959 0 
-3.23424 -2.66954 0 
-3.02209 -2.6698 0 
-2.81003 -2.67018 0 
-2.59813 -2.67092 0 
-2.38779 -2.66992 0 
-2.1781 -2.67208 0 
-1.96704 -2.67293 0 
-1.75555 -2.67327 0 
-1.54361 -2.67246 0 
-1.33125 -2.67167 0 
-1.11682 -2.66935 0 
-0.901269 -2.66743 0 
-0.683505 -2.66457 0 
-0.463119 -2.66044 0 
-0.257658 -2.62674 0 
-0.0602952 -2.64915 0 
0.156224 -2.67485 0 
0.372965 -2.672 0 
0.582986 -2.6526 0 
0.792116 -2.66928 0 
1.00722 -2.66918 0 
1.22058 -2.66962 0 
1.43592 -2.67435 0 
1.64938 -2.67379 0 
1.86148 -2.67309 0 
2.07211 -2.67184 0 
2.28339 -2.67171 0 
2.49425 -2.67109 0 
2.70541 -2.67072 0 
2.91676 -2.66994 0 
3.1283 -2.66994 0 
3.34042 -2.6697 0 
3.55273 -2.66945 0 
3.76499 -2.66939 0 
3.97729 -2.66934 0 
4.18957 -2.66912 0 
4.40211 -2.66943 0 
4.61472 -2.6699 0 
4.82717 -2.66973 0 
5.03949 -2.66936 0 
5.2518 -2.66919 0 
5.46422 -2.66926 0 
5.67661 -2.66951 0 
5.88856 -2.6697 0 
6.10022 -2.66992 0 
6.31185 -2.67033 0 
6.52378 -2.67066 0 
6.73576 -2.67034 0 
6.94837 -2.67025 0 
7.1626 -2.66973 0 
7.37743 -2.66768 0 
7.5922 -2.66515 0 
7.80838 -2.65973 0 
8.02326 -2.64734 0 
8.28525 -2.70558 0 
8.53831 -2.66933 0 
-8.42455 -2.52415 0 
-8.18518 -2.40999 0 
-7.94959 -2.4488 0 
-7.71762 -2.451 0 
-7.48876 -2.45758 0 
-7.26516 -2.45893 0 
-7.04491 -2.45775 0 
-6.82818 -2.45868 0 
-6.61446 -2.45853 0 
-6.40149 -2.45876 0 
-6.18998 -2.45838 0 
-5.97914 -2.45852 0 
-5.76798 -2.4589 0 
-5.55694 -2.45808 0 
-5.34677 -2.45665 0 
-5.13615 -2.45726 0 
-4.925 -2.45797 0 
-4.71407 -2.45685 0 
-4.50239 -2.45806 0 
-4.29018 -2.4585 0 
-4.07888 -2.45677 0 
-3.86671 -2.45812 0 
-3.65455 -2.4576 0 
-3.44257 -2.45759 0 
-3.23075 -2.45757 0 
-3.01892 -2.45831 0 
-2.80732 -2.45902 0 
-2.59651 -2.4594 0 
-2.38599 -2.45878 0 
-2.17588 -2.46056 0 
-1.96634 -2.46331 0 
-1.75501 -2.46434 0 
-1.54375 -2.46187 0 
-1.33024 -2.46061 0 
-1.11314 -2.45719 0 
-0.893034 -2.4535 0 
-0.669798 -2.44753 0 
-0.45311 -2.42536 0 
-0.26069 -2.34843 0 
-0.0727716 -2.3897 0 
0.132575 -2.46463 0 
0.353476 -2.45625 0 
0.573137 -2.42897 0 
0.795541 -2.44975 0 
1.00967 -2.45609 0 
1.22392 -2.45652 0 
1.4382 -2.46713 0 
1.65186 -2.46472 0 
1.8622 -2.46198 0 
2.07368 -2.46167 0 
2.28408 -2.46082 0 
2.49462 -2.46011 0 
2.70573 -2.45966 0 
2.91668 -2.45825 0 
3.12845 -2.45829 0 
3.34061 -2.45797 0 
3.55286 -2.45748 0 
3.76527 -2.45741 0 
3.97783 -2.45744 0 
4.18959 -2.4565 0 
4.40174 -2.45776 0 
4.61475 -2.45838 0 
4.82722 -2.45786 0 
5.03967 -2.4572 0 
5.25229 -2.45713 0 
5.46481 -2.4573 0 
5.67683 -2.45723 0 
5.88832 -2.4576 0 
6.09929 -2.45791 0 
6.3098 -2.45866 0 
6.52009 -2.45963 0 
6.73117 -2.45905 0 
6.94292 -2.45863 0 
7.15513 -2.45891 0 
7.37078 -2.45533 0 
7.58852 -2.44849 0 
7.80316 -2.43538 0 
8.04655 -2.44316 0 
8.28882 -2.499 0 
8.53831 -2.4572 0 
-8.53831 -2.26867 0 
-8.33408 -2.26162 0 
-8.00754 -2.22363 0 
-7.77853 -2.23865 0 
-7.53865 -2.24619 0 
-7.30808 -2.2479 0 
-7.08282 -2.24773 0 
-6.85954 -2.24727 0 
-6.64135 -2.24589 0 
-6.42648 -2.24711 0 
-6.21168 -2.24595 0 
-5.99866 -2.24583 0 
-5.78634 -2.24695 0 
-5.57345 -2.24618 0 
-5.36055 -2.24356 0 
-5.1487 -2.24448 0 
-4.93655 -2.24565 0 
-4.7242 -2.24441 0 
-4.51143 -2.24614 0 
-4.29854 -2.24722 0 
-4.08532 -2.24443 0 
-3.87272 -2.24638 0 
-3.65991 -2.24586 0 
-3.44717 -2.24561 0 
-3.23483 -2.24551 0 
-3.02312 -2.2465 0 
-2.81204 -2.24742 0 
-2.60138 -2.24785 0 
-2.39128 -2.24748 0 
-2.1812 -2.24887 0 
-1.97152 -2.25129 0 
-1.76226 -2.25391 0 
-1.55063 -2.24934 0 
-1.33818 -2.24695 0 
-1.12284 -2.24366 0 
-0.901328 -2.23807 0 
-0.679523 -2.22242 0 
-0.471065 -2.17755 0 
-0.262913 -2.0833 0 
-0.0616552 -2.11517 0 
0.131179 -2.24428 0 
0.355574 -2.23876 0 
0.569698 -2.18885 0 
0.784175 -2.23578 0 
1.01279 -2.23731 0 
1.22852 -2.23862 0 
1.44083 -2.25679 0 
1.65169 -2.25116 0 
1.8642 -2.25107 0 
2.07473 -2.25014 0 
2.28484 -2.24956 0 
2.4943 -2.24795 0 
2.70356 -2.24875 0 
2.91466 -2.24637 0 
3.12547 -2.24663 0 
3.33728 -2.24617 0 
3.54936 -2.2455 0 
3.76158 -2.24547 0 
3.97406 -2.24562 0 
4.18653 -2.24373 0 
4.39841 -2.24572 0 
4.61125 -2.24733 0 
4.82453 -2.24604 0 
5.03713 -2.24522 0 
5.25002 -2.24519 0 
5.46282 -2.24532 0 
5.67523 -2.24523 0 
5.8873 -2.24534 0 
6.09826 -2.24564 0 
6.30856 -2.24654 0 
6.51841 -2.24754 0 
6.72806 -2.24767 0 
6.93929 -2.24709 0 
7.15174 -2.24545 0 
7.36421 -2.24342 0 
7.57766 -2.23002 0 
7.81445 -2.23326 0 
8.05351 -2.23404 0 
8.29399 -2.28378 0 
8.53831 -2.24506 0 
-8.44647 -1.99323 0 
-8.21194 -2.08358 0 
-7.97169 -1.99784 0 
-7.73282 -2.03364 0 
-7.50105 -2.0354 0 
-7.27656 -2.03634 0 
-7.05342 -2.0387 0 
-6.83622 -2.03568 0 
-6.62323 -2.03296 0 
-6.41012 -2.03577 0 
-6.19883 -2.03352 0 
-5.9884 -2.03317 0 
-5.77714 -2.03519 0 
-5.56546 -2.03452 0 
-5.35462 -2.03081 0 
-5.14336 -2.03207 0 
-4.93195 -2.03329 0 
-4.72103 -2.03113 0 
-4.50982 -2.03461 0 
-4.29717 -2.036 0 
-4.08472 -2.03261 0 
-3.87197 -2.03466 0 
-3.65915 -2.03424 0 
-3.44624 -2.03401 0 
-3.23433 -2.0334 0 
-3.0228 -2.03473 0 
-2.81138 -2.03537 0 
-2.60093 -2.03609 0 
-2.39002 -2.03604 0 
-2.17864 -2.03705 0 
-1.9681 -2.03847 0 
-1.75582 -2.04205 0 
-1.54251 -2.03493 0 
-1.3269 -2.03009 0 
-1.10362 -2.02716 0 
-0.875084 -2.01697 0 
-0.654139 -1.97951 0 
-0.432272 -1.92126 0 
-0.171938 -1.83332 0 
0.0213781 -1.82321 0 
0.152277 -2.02036 0 
0.363949 -2.00388 0 
0.557612 -1.9237 0 
0.766794 -2.00134 0 
0.98491 -2.0269 0 
1.21866 -2.01871 0 
1.43772 -2.04023 0 
1.65418 -2.03891 0 
1.86692 -2.03879 0 
2.07803 -2.0384 0 
2.28834 -2.03794 0 
2.4972 -2.03565 0 
2.70759 -2.03763 0 
2.9176 -2.03418 0 
3.12881 -2.03488 0 
3.34037 -2.03415 0 
3.55224 -2.03338 0 
3.76469 -2.03356 0 
3.97666 -2.03339 0 
4.18882 -2.03119 0 
4.40108 -2.03323 0 
4.61285 -2.03618 0 
4.82483 -2.03389 0 
5.0379 -2.03349 0 
5.2498 -2.03234 0 
5.4616 -2.03344 0 
5.6741 -2.03316 0 
5.88587 -2.03358 0 
6.09721 -2.03323 0 
6.30701 -2.03433 0 
6.51625 -2.03537 0 
6.72523 -2.03516 0 
6.93452 -2.03549 0 
7.14618 -2.03307 0 
7.35977 -2.02741 0 
7.58895 -2.02734 0 
7.82168 -2.02604 0 
8.05744 -2.02231 0 
8.29589 -2.06693 0 
8.53831 -2.03293 0 
-8.58731 -1.82198 0 
-8.25552 -1.83468 0 
-8.04664 -1.80553 0 
-7.77186 -1.81735 0 
-7.53756 -1.82385 0 
-7.30638 -1.82291 0 
-7.08249 -1.82945 0 
-6.85974 -1.8246 0 
-6.64235 -1.81974 0 
-6.4285 -1.82436 0 
-6.21439 -1.82147 0 
-6.00165 -1.82045 0 
-5.78963 -1.82342 0 
-5.57682 -1.82335 0 
-5.36357 -1.81862 0 
-5.1509 -1.81983 0 
-4.93821 -1.82083 0 
-4.72582 -1.81828 0 
-4.51348 -1.82209 0 
-4.30072 -1.82433 0 
-4.08853 -1.82015 0 
-3.8764 -1.82301 0 
-3.66309 -1.82232 0 
-3.45044 -1.82266 0 
-3.23763 -1.82122 0 
-3.02621 -1.82248 0 
-2.81563 -1.82351 0 
-2.60511 -1.82354 0 
-2.39563 -1.82438 0 
-2.18449 -1.82559 0 
-1.97075 -1.82416 0 
-1.75868 -1.82805 0 
-1.54446 -1.81692 0 
-1.32055 -1.81312 0 
-1.08799 -1.80908 0 
-0.857903 -1.78651 0 
-0.622051 -1.74179 0 
-0.353235 -1.70073 0 
-0.1744 -1.5148 0 
-1.38056e-07 -1.5553 0 
0.156818 -1.52008 0 
0.228485 -1.77845 0 
0.418087 -1.71808 0 
0.711833 -1.74499 0 
0.932653 -1.78939 0 
1.15499 -1.81343 0 
1.40432 -1.82297 0 
1.62532 -1.8264 0 
1.84474 -1.82621 0 
2.05952 -1.82687 0 
2.2727 -1.82727 0 
2.48504 -1.82368 0 
2.69573 -1.8268 0 
2.90773 -1.82244 0 
3.11958 -1.8235 0 
3.33243 -1.82249 0 
3.54551 -1.82157 0 
3.75873 -1.82216 0 
3.97258 -1.82098 0 
4.18524 -1.81935 0 
4.39873 -1.82156 0 
4.61259 -1.82368 0 
4.82661 -1.8228 0 
5.03923 -1.82098 0 
5.25159 -1.81968 0 
5.46435 -1.8216 0 
5.67631 -1.82098 0 
5.88761 -1.82161 0 
6.09781 -1.82047 0 
6.30707 -1.82188 0 
6.51573 -1.82304 0 
6.72411 -1.82269 0 
6.93278 -1.82257 0 
7.14309 -1.82025 0 
7.36538 -1.82229 0 
7.592 -1.81959 0 
7.82212 -1.81546 0 
8.05739 -1.81034 0 
8.29625 -1.84918 0 
8.53831 -1.8208 0 
-8.41113 -1.66149 0 
-8.18935 -1.56356 0 
[...]
POINT_DATA 2131 
VECTORS vectors float
-0.000111417 -0.00046204 1 
0.000169081 -0.0221923 0.999754 
-2.32197e-05 -0.027291 0.999628 
5.21288e-05 -0.0268067 0.999641 
2.94204e-05 -0.0246834 0.999695 
3.58192e-05 -0.0221226 0.999755 
3.39388e-05 -0.0192191 0.999815 
3.4477e-05 -0.016097 0.99987 
3.45278e-05 -0.0130132 0.999915 
3.46933e-05 -0.0101545 0.999948 
3.48441e-05 -0.00758406 0.999971 
3.49095e-05 -0.00526474 0.999986 
3.49824e-05 -0.00311416 0.999995 
3.49682e-05 -0.00103434 0.999999 
3.49121e-05 0.00107944 0.999999 
3.48922e-05 0.0033379 0.999994 
3.48728e-05 0.00586169 0.999983 
3.45889e-05 0.00878649 0.999961 
3.45519e-05 0.0122636 0.999925 
3.4256e-05 0.0164722 0.999864 
3.40371e-05 0.0216352 0.999766 
3.34723e-05 0.0280348 0.999607 
3.31088e-05 0.0360503 0.99935 
3.2756e-05 0.0458487 0.998948 
3.15214e-05 0.0582292 0.998303 
3.12203e-05 0.0737985 0.997273 
2.87753e-05 0.0933534 0.995633 
2.94666e-05 0.117847 0.993032 
2.5717e-05 0.148375 0.988931 
2.32655e-05 0.187684 0.982229 
2.12024e-05 0.236254 0.971691 
1.64502e-05 0.296127 0.955148 
1.45607e-05 0.368752 0.929528 
5.01012e-06 0.455789 0.890088 
1.80027e-06 0.557206 0.830374 
-2.35975e-06 0.666869 0.745175 
-1.04423e-05 0.780074 0.625687 
-1.12504e-05 0.883673 0.468105 
-6.99082e-06 0.961391 0.275186 
-3.56373e-06 0.998372 0.0570358 
5.99194e-06 0.986278 -0.16509 
9.80794e-06 0.927832 -0.372998 
1.37574e-05 0.834279 -0.551342 
2.40021e-06 0.724552 -0.68922 
2.65058e-06 0.612745 -0.79028 
-2.26659e-06 0.505218 -0.862992 
-1.25226e-05 0.411296 -0.911502 
-1.34746e-05 0.331236 -0.943548 
-1.96082e-05 0.264923 -0.964269 
-2.21991e-05 0.210962 -0.977494 
-2.50102e-05 0.167501 -0.985872 
-2.74405e-05 0.13273 -0.991152 
-2.86426e-05 0.105021 -0.99447 
-3.01175e-05 0.0828197 -0.996565 
-3.19106e-05 0.0655526 -0.997849 
-3.18316e-05 0.0517057 -0.998662 
-3.29457e-05 0.0406396 -0.999174 
-3.33834e-05 0.0318004 -0.999494 
-3.39422e-05 0.0247573 -0.999693 
-3.3812e-05 0.0189579 -0.99982 
-3.45531e-05 0.0143123 -0.999898 
-3.46845e-05 0.0105278 -0.999945 
-3.46777e-05 0.00737443 -0.999973 
-3.48971e-05 0.00470369 -0.999989 
-3.4904e-05 0.00237886 -0.999997 
-3.50714e-05 0.000275833 -1 
-3.4893e-05 -0.00172113 -0.999999 
-3.50703e-05 -0.00371823 -0.999993 
-3.49098e-05 -0.00581051 -0.999983 
-3.4879e-05 -0.00809244 -0.999967 
-3.47973e-05 -0.0106315 -0.999943 
-3.4589e-05 -0.0134396 -0.99991 
-3.45148e-05 -0.0164144 -0.999865 
-3.41325e-05 -0.0193362 -0.999813 
-3.66233e-05 -0.0219716 -0.999759 
-2.81757e-05 -0.0243524 -0.999703 
-5.02288e-05 -0.0265405 -0.999648 
-1.12584e-05 -0.0274272 -0.999624 
-3.84653e-05 -0.0233771 -0.999727 
-5.95853e-05 -0.000968946 -1 
3.22156e-06 0.000180664 1 
0.00747395 -0.0190913 0.99979 
0.0107146 -0.0257635 0.999611 
0.0124135 -0.0272466 0.999552 
0.0135224 -0.0254976 0.999583 
0.0141979 -0.022734 0.999641 
0.014694 -0.0196727 0.999698 
0.0150234 -0.0165233 0.999751 
0.0152824 -0.0134179 0.999793 
0.015496 -0.0105016 0.999825 
0.0156523 -0.00784898 0.999847 
0.0157591 -0.00545447 0.999861 
0.0158254 -0.00324146 0.99987 
0.0158692 -0.00110788 0.999873 
0.0158882 0.00104916 0.999873 
0.0158608 0.00333852 0.999869 
0.0158015 0.00589299 0.999858 
0.0157381 0.00885272 0.999837 
0.0156234 0.0123572 0.999802 
0.0154798 0.0166042 0.999742 
0.0153186 0.0218174 0.999645 
0.0150882 0.0282317 0.999488 
0.0148194 0.0361975 0.999235 
0.0145422 0.0462162 0.998826 
0.014206 0.0587213 0.998173 
0.0138068 0.0744119 0.997132 
0.0133464 0.0941125 0.995472 
0.0128169 0.11882 0.992833 
0.0122656 0.149561 0.988676 
0.0115586 0.187969 0.982107 
0.0108569 0.236038 0.971683 
0.0101521 0.295617 0.955253 
0.00943144 0.367487 0.929981 
0.00872485 0.453793 0.891065 
0.00808364 0.554582 0.83209 
0.0073512 0.667297 0.744755 
0.00637655 0.783354 0.621542 
0.00493213 0.889919 0.456092 
0.00363354 0.963578 0.267402 
0.000733956 0.997893 0.0648735 
-0.00163977 0.986614 -0.163065 
-0.0038612 0.927035 -0.374956 
-0.00618088 0.83497 -0.550261 
-0.00681866 0.726499 -0.687134 
-0.0077305 0.612081 -0.790757 
-0.00842709 0.504744 -0.863228 
-0.00903252 0.410743 -0.911706 
-0.00976245 0.330386 -0.943795 
-0.0104943 0.264415 -0.964352 
-0.0112217 0.211035 -0.977414 
-0.0118857 0.167825 -0.985745 
-0.0125147 0.133242 -0.991005 
-0.0130956 0.105679 -0.994314 
-0.0136423 0.0837785 -0.996391 
-0.0140488 0.0661741 -0.997709 
-0.0144139 0.0521719 -0.998534 
-0.0147307 0.0410052 -0.99905 
-0.0149903 0.0320789 -0.999373 
-0.0151861 0.024892 -0.999575 
-0.0153875 0.0191246 -0.999699 
-0.0155741 0.0144757 -0.999774 
-0.0157213 0.0106691 -0.999819 
-0.0158036 0.00747991 -0.999847 
-0.015878 0.00478558 -0.999862 
-0.0159272 0.00243814 -0.99987 
-0.0159518 0.000312081 -0.999873 
-0.0159355 -0.0017049 -0.999872 
-0.0159413 -0.00372059 -0.999866 
-0.0158998 -0.00582531 -0.999857 
-0.0158165 -0.00810518 -0.999842 
-0.0156986 -0.0106107 -0.99982 
-0.0155619 -0.0133206 -0.99979 
-0.015383 -0.0161476 -0.999751 
-0.0151691 -0.0189753 -0.999705 
-0.0148773 -0.0216688 -0.999655 
-0.0143567 -0.0241086 -0.999606 
-0.0135476 -0.02586 -0.999574 
-0.0123472 -0.025734 -0.999593 
-0.00826258 -0.0206019 -0.999754 
0.000148693 0.000508323 -1 
0.00284781 -0.0143401 0.999893 
0.00778996 -0.0266923 0.999613 
0.0126344 -0.029106 0.999496 
0.0153908 -0.0280894 0.999487 
0.0170326 -0.0252994 0.999535 
0.0180825 -0.0221126 0.999592 
0.0188246 -0.0189302 0.999644 
0.0193611 -0.015856 0.999687 
0.0197777 -0.0128958 0.999721 
0.0200907 -0.0100894 0.999747 
0.0203207 -0.00752052 0.999765 
0.0204718 -0.00517858 0.999777 
0.0205615 -0.00299059 0.999784 
0.0206152 -0.000868835 0.999787 
0.0206307 0.00128241 0.999786 
0.0205855 0.0035849 0.999782 
0.0205015 0.00615993 0.999771 
0.0203997 0.00913397 0.99975 
0.0202506 0.0126773 0.999715 
0.0200498 0.0169584 0.999655 
0.019821 0.0221781 0.999558 
0.019535 0.0286636 0.999398 
0.0192063 0.036697 0.999142 
0.0188393 0.0467322 0.99873 
0.0184278 0.0592827 0.998071 
0.017986 0.0750697 0.997016 
0.0175162 0.0948637 0.995336 
0.0170421 0.119625 0.992673 
0.0165962 0.150629 0.988451 
0.0160898 0.188747 0.981894 
0.0156774 0.236106 0.971601 
0.0154082 0.294736 0.955454 
0.0154451 0.366771 0.930183 
0.0156055 0.453348 0.891197 
0.0158889 0.555449 0.831399 
0.0158624 0.670506 0.741734 
0.0148865 0.788934 0.614298 
0.0127698 0.89311 0.449657 
0.0103218 0.962082 0.272564 
0.00264821 0.996918 0.0784101 
-0.00374506 0.990292 -0.138951 
-0.00971823 0.933077 -0.359545 
-0.0145878 0.83832 -0.544983 
-0.0156386 0.722852 -0.690826 
-0.0159048 0.608735 -0.793214 
-0.0158382 0.502217 -0.864597 
-0.0153724 0.408499 -0.912629 
-0.0154096 0.328944 -0.944224 
-0.0155879 0.264034 -0.964387 
-0.015876 0.210788 -0.977403 
-0.0162853 0.167962 -0.985659 
-0.0167423 0.133413 -0.990919 
-0.0172833 0.106025 -0.994213 
-0.0178065 0.0841198 -0.996297 
-0.0182681 0.0665347 -0.997617 
-0.0186926 0.0524978 -0.998446 
-0.0190753 0.0412969 -0.998965 
-0.0194089 0.0323333 -0.999289 
-0.0197023 0.025138 -0.99949 
-0.0199961 0.0193899 -0.999612 
-0.0201616 0.0146627 -0.999689 
-0.0203109 0.0107889 -0.999735 
-0.0204736 0.00759844 -0.999762 
-0.0205776 0.00488201 -0.999776 
-0.0206412 0.00250657 -0.999784 
-0.0206963 0.000355203 -0.999786 
-0.0207451 -0.00168603 -0.999783 
-0.0206889 -0.00371689 -0.999779 
-0.0206121 -0.00583666 -0.999771 
-0.0204895 -0.00811834 -0.999757 
-0.0203054 -0.0105901 -0.999738 
-0.0200718 -0.013218 -0.999711 
-0.0197721 -0.0159119 -0.999678 
-0.0193786 -0.0186313 -0.999639 
-0.0188574 -0.0214031 -0.999593 
-0.0179531 -0.0238868 -0.999553 
-0.0167447 -0.0256603 -0.99953 
-0.0143903 -0.0253443 -0.999575 
-0.0101349 -0.0203237 -0.999742 
-0.000172968 -4.68234e-05 -1 
5.1992e-05 4.0009e-05 1 
0.00247302 -0.0264426 0.999647 
0.0108417 -0.0332783 0.999387 
0.0144689 -0.0307614 0.999422 
0.0168155 -0.0270832 0.999492 
0.0182397 -0.023309 0.999562 
0.0192103 -0.0198015 0.999619 
0.0199325 -0.0165488 0.999664 
0.0204705 -0.013481 0.9997 
0.0208703 -0.0105821 0.999726 
0.0211493 -0.00789722 0.999745 
0.0213401 -0.00546313 0.999757 
0.0214605 -0.0032099 0.999765 
0.021517 -0.00103104 0.999768 
0.0215199 0.0011753 0.999768 
0.0214851 0.0035098 0.999763 
0.0214041 0.0061065 0.999752 
0.0212613 0.00909529 0.999733 
0.0211697 0.0126756 0.999696 
0.0209452 0.0169447 0.999637 
0.0206527 0.0221625 0.999541 
0.0204328 0.028694 0.999379 
0.0200908 0.0366949 0.999125 
0.0197345 0.046696 0.998714 
0.0193448 0.0591387 0.998062 
0.0190227 0.0748717 0.997012 
0.0187121 0.0944675 0.995352 
0.0184845 0.11904 0.992717 
0.0183216 0.149297 0.988623 
0.0183445 0.187029 0.982183 
0.0186394 0.23378 0.972111 
0.019282 0.291163 0.956479 
0.0204734 0.361647 0.93209 
0.022084 0.446228 0.894647 
0.0239468 0.545975 0.837459 
0.0254745 0.660232 0.75063 
0.0257549 0.779653 0.625682 
0.0244297 0.882097 0.470433 
0.0199703 0.959721 0.280246 
0.00480961 0.997685 0.0678405 
-0.00715918 0.990162 -0.139744 
-0.0176021 0.930713 -0.365325 
-0.0260354 0.836058 -0.548023 
-0.0255713 0.724705 -0.688584 
-0.0249343 0.602021 -0.798091 
-0.0233096 0.496518 -0.867713 
-0.0210973 0.404341 -0.914365 
-0.0198959 0.326679 -0.944926 
-0.0189723 0.261992 -0.964883 
-0.0184742 0.209691 -0.977593 
-0.0183073 0.167485 -0.985705 
-0.0184061 0.133772 -0.990841 
-0.0185936 0.106435 -0.994146 
-0.0189015 0.0844756 -0.996246 
-0.0192475 0.0669685 -0.997569 
-0.0196037 0.0529267 -0.998406 
-0.0199483 0.0416941 -0.998931 
-0.0202696 0.0326953 -0.99926 
-0.0205619 0.025461 -0.999464 
-0.0208206 0.0196297 -0.999591 
-0.0210219 0.0148819 -0.999668 
-0.0212712 0.011021 -0.999713 
-0.0213859 0.00776386 -0.999741 
-0.0214765 0.00501011 -0.999757 
-0.0215203 0.00259912 -0.999765 
-0.0216001 0.00041983 -0.999767 
-0.0216233 -0.00165044 -0.999765 
-0.0215819 -0.00371671 -0.99976 
-0.0214864 -0.00586468 -0.999752 
-0.0213519 -0.00817188 -0.999739 
-0.0211442 -0.0106467 -0.99972 
-0.0208482 -0.0132186 -0.999695 
-0.020462 -0.0158172 -0.999666 
-0.0199695 -0.0184599 -0.99963 
-0.0193037 -0.0211981 -0.999589 
-0.0183166 -0.0238294 -0.999548 
-0.0168654 -0.02583 -0.999524 
-0.0145844 -0.0254128 -0.999571 
-0.0107056 -0.0201449 -0.99974 
5.40798e-05 0.000102403 -1 
-0.000769301 -0.0498102 0.998758 
0.00539139 -0.0380795 0.99926 
0.0101212 -0.0370135 0.999264 
0.0136422 -0.0321996 0.999388 
0.0156935 -0.0276466 0.999495 
0.0170244 -0.023497 0.999579 
0.0180169 -0.0198256 0.999641 
0.0187221 -0.016585 0.999687 
0.0192435 -0.0135261 0.999723 
0.0196682 -0.0105867 0.999751 
0.0199306 -0.00789287 0.99977 
0.0201173 -0.00544224 0.999783 
0.0202527 -0.00315855 0.99979 
0.0203069 -0.000953606 0.999793 
0.0202855 0.00126838 0.999793 
0.0202631 0.0036332 0.999788 
0.0202038 0.00626009 0.999776 
0.0200973 0.00927929 0.999755 
0.0199301 0.0128047 0.999719 
0.0198034 0.0171443 0.999657 
0.0195231 0.0223644 0.999559 
0.0192581 0.0287919 0.9994 
0.0190167 0.0368631 0.999139 
0.0187573 0.0468899 0.998724 
0.0185299 0.0593924 0.998063 
0.0183215 0.0748379 0.997027 
0.0182191 0.0941814 0.995388 
0.0182619 0.118142 0.992829 
0.0186105 0.148431 0.988748 
0.0193051 0.186041 0.982352 
0.0205051 0.232502 0.97238 
0.0223458 0.290435 0.956634 
0.0250737 0.360158 0.932554 
0.0286954 0.445067 0.895038 
0.0329566 0.5482 0.835698 
0.0371927 0.666486 0.744589 
0.0407033 0.784336 0.618999 
0.0402174 0.892217 0.449813 
0.0253039 0.980334 0.195719 
-0.00282837 0.999705 -0.0241138 
-0.0144105 0.985919 -0.166604 
-0.0303499 0.923792 -0.381691 
-0.0435675 0.833026 -0.551516 
-0.0390445 0.725595 -0.687014 
-0.0350092 0.609542 -0.79198 
-0.0311304 0.493585 -0.86914 
-0.0265582 0.399554 -0.916325 
-0.0235405 0.32166 -0.946563 
-0.0213194 0.258345 -0.965817 
-0.0198302 0.207025 -0.978135 
-0.0189289 0.165618 -0.986008 
-0.0184592 0.132477 -0.991014 
-0.0182892 0.105575 -0.994243 
-0.0183001 0.0840472 -0.996294 
-0.0184569 0.0667159 -0.997601 
-0.0186741 0.0528262 -0.998429 
-0.018921 0.0416885 -0.998951 
-0.019181 0.0327301 -0.99928 
-0.019427 0.0255396 -0.999485 
-0.0196421 0.0197249 -0.999612 
-0.0198987 0.0150167 -0.999689 
-0.0200777 0.0111185 -0.999737 
-0.0201805 0.00786935 -0.999765 
-0.0202755 0.00508924 -0.999781 
-0.0203717 0.00267436 -0.999789 
-0.0203991 0.000472229 -0.999792 
-0.0203977 -0.0016285 -0.999791 
-0.020354 -0.00372329 -0.999786 
-0.0202137 -0.005901 -0.999778 
-0.0201012 -0.00824542 -0.999764 
-0.0198919 -0.010741 -0.999744 
-0.0195605 -0.013293 -0.99972 
-0.0191381 -0.0158098 -0.999692 
-0.0185965 -0.018383 -0.999658 
-0.0178229 -0.0210965 -0.999619 
-0.016913 -0.0240642 -0.999567 
-0.0155676 -0.0260511 -0.999539 
-0.0135059 -0.025583 -0.999581 
-0.0101709 -0.0201935 -0.999744 
2.54468e-05 6.57059e-05 -1 
-0.00300091 -0.0796375 0.996819 
0.00438401 -0.0449737 0.998979 
0.0081329 -0.0411419 0.99912 
0.011595 -0.0348434 0.999326 
0.0135636 -0.0294922 0.999473 
0.0148707 -0.0247585 0.999583 
0.0158966 -0.0208161 0.999657 
0.0165969 -0.0173583 0.999712 
0.0171003 -0.0141308 0.999754 
0.0175464 -0.0110728 0.999785 
0.0177996 -0.00825027 0.999808 
0.0179801 -0.00569744 0.999822 
0.0181311 -0.00334672 0.99983 
0.0181929 -0.00108754 0.999834 
0.0181575 0.00118923 0.999834 
0.0181433 0.00359157 0.999829 
0.0180908 0.00624801 0.999817 
0.0179686 0.00928624 0.999795 
0.0178658 0.0128497 0.999758 
0.017722 0.0171404 0.999696 
0.0175475 0.0224152 0.999595 
0.0173499 0.0287813 0.999435 
0.0171494 0.0367591 0.999177 
0.0169844 0.0466386 0.998767 
0.0168406 0.0589027 0.998122 
0.0168552 0.0742199 0.997099 
0.0170104 0.0931522 0.995507 
0.0174073 0.116698 0.993015 
0.0181942 0.145902 0.989132 
0.019522 0.182391 0.983032 
0.0216201 0.228063 0.973406 
0.0246541 0.283982 0.958512 
0.0291096 0.352278 0.935443 
0.0351825 0.438553 0.898016 
0.042863 0.544482 0.837677 
0.0518423 0.661825 0.747864 
0.0609723 0.78629 0.614842 
0.0589446 0.915735 0.397437 
0.064751 0.970164 0.233642 
0.00050598 1 0.000299983 
-0.0601368 0.975318 -0.212458 
-0.0369901 0.964578 -0.261192 
-0.0601205 0.887952 -0.45599 
-0.0589183 0.738455 -0.671724 
-0.0490858 0.623172 -0.780543 
-0.0403899 0.513225 -0.857303 
-0.0325417 0.405229 -0.913636 
-0.0272034 0.325414 -0.94518 
-0.0233398 0.260167 -0.965281 
-0.0206886 0.208203 -0.977867 
-0.0189509 0.166459 -0.985866 
-0.0178714 0.132914 -0.990966 
-0.0172813 0.10617 -0.994198 
-0.0169724 0.0845219 -0.996277 
-0.0169064 0.0671937 -0.997597 
-0.0169583 0.0532368 -0.998438 
-0.0170867 0.0420382 -0.99897 
-0.0172658 0.0330407 -0.999305 
-0.0174354 0.0257696 -0.999516 
-0.0175798 0.0199002 -0.999647 
-0.0178064 0.0151552 -0.999727 
-0.0179782 0.0112234 -0.999775 
-0.0180821 0.00793508 -0.999805 
-0.018128 0.00514119 -0.999822 
-0.0182173 0.00270542 -0.99983 
-0.0182771 0.000474231 -0.999833 
-0.0182762 -0.00164906 -0.999832 
-0.0182648 -0.00377818 -0.999826 
-0.0181199 -0.00598475 -0.999818 
-0.0179822 -0.00835493 -0.999803 
-0.0177906 -0.0108904 -0.999782 
-0.0174252 -0.0134329 -0.999758 
-0.0169693 -0.0159023 -0.99973 
-0.0163525 -0.0183419 -0.999698 
-0.0157476 -0.0212597 -0.99965 
-0.0149115 -0.0242494 -0.999595 
-0.0137149 -0.0262398 -0.999562 
-0.0119282 -0.0257886 -0.999596 
-0.00905364 -0.0203344 -0.999752 
2.39216e-05 7.50211e-05 -1 
0.0020803 -0.0465284 0.998915 
0.00611004 -0.0442287 0.999003 
0.0089454 -0.0401414 0.999154 
0.0108 -0.0344665 0.999347 
0.0121688 -0.0290157 0.999505 
0.0131551 -0.0243762 0.999616 
0.0140086 -0.0205578 0.999691 
0.0145566 -0.0171923 0.999746 
0.0149705 -0.0139774 0.99979 
0.0153666 -0.0109186 0.999822 
0.0155744 -0.00811385 0.999846 
0.0157299 -0.00556858 0.999861 
0.0158727 -0.00320929 0.999869 
0.015927 -0.000939373 0.999873 
0.0158873 0.00135019 0.999873 
0.0158733 0.00376924 0.999867 
0.0158208 0.00643738 0.999854 
0.0157143 0.00949789 0.999831 
0.0156517 0.0130992 0.999792 
0.0155566 0.0173925 0.999728 
0.015364 0.022557 0.999627 
0.0152607 0.0289365 0.999465 
0.0151323 0.0368027 0.999208 
0.0150789 0.0465639 0.998801 
0.0150879 0.0586302 0.998166 
0.0152361 0.0733804 0.997188 
0.0155989 0.0918046 0.995655 
0.0162837 0.114612 0.993277 
0.0174438 0.142968 0.989574 
0.0192803 0.177902 0.983859 
0.0220803 0.221568 0.974895 
0.0262789 0.27648 0.96066 
0.0325975 0.346185 0.9376 
0.0416154 0.435283 0.899331 
0.0537541 0.540416 0.839679 
0.0696128 0.663269 0.745136 
0.0870072 0.812974 0.575762 
0.116505 0.89032 0.440178 
-0.108768 0.907122 -0.40657 
-0.0846717 0.812518 -0.576754 
-0.0741455 0.676513 -0.732688 
-0.058077 0.568883 -0.820365 
-0.0438478 0.46324 -0.885148 
-0.034989 0.373011 -0.927167 
-0.0283231 0.301318 -0.953103 
-0.0236484 0.243063 -0.969722 
-0.0204144 0.196022 -0.980387 
-0.0182455 0.157993 -0.987272 
-0.016815 0.127192 -0.991736 
-0.0159627 0.10228 -0.994628 
-0.0154284 0.0819656 -0.996516 
-0.0151927 0.0655185 -0.997736 
-0.0151064 0.0521838 -0.998523 
-0.0151295 0.0414003 -0.999028 
-0.0152362 0.032663 -0.99935 
-0.0153299 0.0255997 -0.999555 
-0.0154467 0.019898 -0.999683 
-0.015611 0.0152012 -0.999763 
-0.0157611 0.0112895 -0.999812 
-0.0158409 0.0080218 -0.999842 
-0.015896 0.0052315 -0.99986 
-0.0159473 0.00276976 -0.999869 
-0.0160009 0.000515828 -0.999872 
-0.0159881 -0.00163697 -0.999871 
-0.0159528 -0.00379328 -0.999866 
-0.0158552 -0.0060482 -0.999856 
-0.0157096 -0.00845638 -0.999841 
-0.0155064 -0.0110183 -0.999819 
-0.0151831 -0.0136111 -0.999792 
-0.0147504 -0.0161039 -0.999762 
-0.0142022 -0.0186042 -0.999726 
-0.0136282 -0.0213996 -0.999678 
-0.0127957 -0.0242319 -0.999624 
-0.0117917 -0.026332 -0.999584 
-0.0103037 -0.0259632 -0.99961 
-0.00786235 -0.0205078 -0.999759 
1.93912e-05 7.30044e-05 -1 
0.00103589 -0.00578711 0.999983 
0.0057585 -0.042781 0.999068 
0.00827588 -0.0423883 0.999067 
0.00957882 -0.0366346 0.999283 
0.0105756 -0.030553 0.999477 
0.0113826 -0.0255176 0.99961 
0.0120905 -0.0213723 0.999698 
0.0125657 -0.0178657 0.999761 
0.0129143 -0.0145188 0.999811 
0.0132562 -0.0113245 0.999848 
0.0134461 -0.0084303 0.999874 
0.0135819 -0.00580192 0.999891 
0.013715 -0.00337926 0.9999 
0.0137711 -0.00106408 0.999905 
0.0137367 0.00126161 0.999905 
0.0137193 0.00371765 0.999899 
0.0136709 0.00641441 0.999886 
0.0135869 0.00948285 0.999863 
0.0135434 0.0130933 0.999823 
0.0134077 0.0174111 0.999759 
0.0133077 0.0226896 0.999654 
0.0132659 0.0291311 0.999488 
0.0132081 0.0370657 0.999226 
0.013233 0.0468518 0.998814 
0.0133382 0.0589433 0.998172 
0.0136542 0.0738753 0.997174 
0.0142121 0.0923421 0.995626 
0.0151676 0.115323 0.993212 
0.0166677 0.143577 0.989499 
0.0190378 0.179032 0.983659 
0.022672 0.223987 0.974328 
0.0281846 0.280896 0.959324 
0.0369093 0.356463 0.93358 
0.0496037 0.44845 0.89243 
0.0682053 0.560922 0.825054 
0.095487 0.70794 0.699788 
0.138095 0.788779 0.598964 
-0.136291 0.809233 -0.571461 
-0.100952 0.712132 -0.69475 
-0.073155 0.573848 -0.815688 
-0.0525947 0.473117 -0.879429 
-0.039923 0.381012 -0.923708 
-0.0307175 0.304298 -0.952081 
-0.0246158 0.244709 -0.969284 
-0.0204581 0.196771 -0.980236 
-0.0176806 0.15832 -0.987229 
-0.0158322 0.127368 -0.991729 
-0.0146769 0.102366 -0.994639 
-0.013933 0.0821499 -0.996523 
-0.0135287 0.0656963 -0.997748 
-0.013319 0.0523764 -0.998539 
-0.0132486 0.0415899 -0.999047 
-0.0133019 0.032894 -0.99937 
-0.0133118 0.025746 -0.99958 
-0.0133425 0.0199355 -0.999712 
-0.0134932 0.0152447 -0.999793 
-0.0136394 0.0113643 -0.999842 
-0.0137052 0.00810535 -0.999873 
-0.0137753 0.00530829 -0.999891 
-0.0137911 0.00282101 -0.999901 
-0.0138354 0.000547131 -0.999904 
-0.0138137 -0.00163074 -0.999903 
-0.0137611 -0.00381312 -0.999898 
-0.0137135 -0.00610966 -0.999887 
-0.0135547 -0.0085312 -0.999872 
-0.0133767 -0.0111351 -0.999849 
-0.0130978 -0.0137737 -0.999819 
-0.0127256 -0.016317 -0.999786 
-0.0122181 -0.0188173 -0.999748 
-0.0116613 -0.0215307 -0.9997 
-0.0109003 -0.0243593 -0.999644 
-0.0100036 -0.0264348 -0.9996 
-0.00874646 -0.0260566 -0.999622 
-0.00669835 -0.0205794 -0.999766 
1.63623e-05 7.3592e-05 -1 
-0.00511154 -0.121725 0.992551 
0.00588203 -0.0680611 0.997664 
0.00824385 -0.0464978 0.998884 
0.00886566 -0.038856 0.999205 
0.00932174 -0.0321681 0.999439 
0.0098037 -0.0266011 0.999598 
0.0103313 -0.0221724 0.999701 
0.0106393 -0.0184075 0.999774 