# vtk DataFile Version 3.0 
Exported using Morpho https://github.com/Morpho-lang/morpho 
ASCII 
DATASET UNSTRUCTURED_GRID 

POINTS 2142 float 
-8.32618 -2.88146 0 
-8.11405 -2.88146 0 
-7.90192 -2.88146 0 
-7.68979 -2.88146 0 
-7.47765 -2.88146 0 
-7.26552 -2.88146 0 
-7.05339 -2.88146 0 
-6.84126 -2.88146 0 
-6.62913 -2.88146 0 
-6.41699 -2.88146 0 
-6.20486 -2.88146 0 
-5.99273 -2.88146 0 
-5.7806 -2.88146 0 
-5.56847 -2.88146 0 
-5.35633 -2.88146 0 
-5.1442 -2.88146 0 
-4.93207 -2.88146 0 
-4.71994 -2.88146 0 
-4.50781 -2.88146 0 
-4.29567 -2.88146 0 
-4.08354 -2.88146 0 
-3.87141 -2.88146 0 
-3.65928 -2.88146 0 
-3.44715 -2.88146 0 
-3.23501 -2.88146 0 
-3.02288 -2.88146 0 
-2.81075 -2.88146 0 
-2.59862 -2.88146 0 
-2.38649 -2.88146 0 
-2.17435 -2.88146 0 
-1.96222 -2.88146 0 
-1.75009 -2.88146 0 
-1.53796 -2.88146 0 
-1.32583 -2.88146 0 
-1.11369 -2.88146 0 
-0.901561 -2.88146 0 
-0.689429 -2.88146 0 
-0.477297 -2.88146 0 
-0.265165 -2.88146 0 
-0.053033 -2.88146 0 
0.159099 -2.88146 0 
0.371231 -2.88146 0 
0.583363 -2.88146 0 
0.795495 -2.88146 0 
1.00763 -2.88146 0 
1.21976 -2.88146 0 
1.43189 -2.88146 0 
1.64402 -2.88146 0 
1.85616 -2.88146 0 
2.06829 -2.88146 0 
2.28042 -2.88146 0 
2.49255 -2.88146 0 
2.70468 -2.88146 0 
2.91682 -2.88146 0 
3.12895 -2.88146 0 
3.34108 -2.88146 0 
3.55321 -2.88146 0 
3.76534 -2.88146 0 
3.97748 -2.88146 0 
4.18961 -2.88146 0 
4.40174 -2.88146 0 
4.61387 -2.88146 0 
4.826 -2.88146 0 
5.03814 -2.88146 0 
5.25027 -2.88146 0 
5.4624 -2.88146 0 
5.67453 -2.88146 0 
5.88666 -2.88146 0 
6.0988 -2.88146 0 
6.31093 -2.88146 0 
6.52306 -2.88146 0 
6.73519 -2.88146 0 
6.94732 -2.88146 0 
7.15946 -2.88146 0 
7.37159 -2.88146 0 
7.58372 -2.88146 0 
7.79585 -2.88146 0 
8.00798 -2.88146 0 
8.22012 -2.88146 0 
8.53831 -2.88146 0 
-8.53831 -2.73911 0 
-8.24455 -2.65513 0 
-8.02131 -2.65115 0 
-7.78599 -2.66195 0 
-7.55446 -2.66687 0 
-7.32468 -2.66849 0 
-7.09941 -2.66913 0 
-6.87664 -2.6698 0 
-6.65639 -2.66983 0 
-6.43866 -2.67016 0 
-6.22187 -2.67039 0 
-6.006 -2.67025 0 
-5.79107 -2.67022 0 
-5.57635 -2.66976 0 
-5.36253 -2.66966 0 
-5.14904 -2.66989 0 
-4.93533 -2.66986 0 
-4.72166 -2.66933 0 
-4.50887 -2.66961 0 
-4.29571 -2.66914 0 
-4.08284 -2.66978 0 
-3.87 -2.66983 0 
-3.65735 -2.66967 0 
-3.4445 -2.67005 0 
-3.2321 -2.67014 0 
-3.02006 -2.66953 0 
-2.80785 -2.66994 0 
-2.5961 -2.66966 0 
-2.38431 -2.66969 0 
-2.17268 -2.66953 0 
-1.96066 -2.66986 0 
-1.74879 -2.6698 0 
-1.5366 -2.67008 0 
-1.32437 -2.66944 0 
-1.1121 -2.66856 0 
-0.899342 -2.66813 0 
-0.685965 -2.66774 0 
-0.471544 -2.66825 0 
-0.254756 -2.67234 0 
-0.0473864 -2.64427 0 
0.152939 -2.65342 0 
0.365905 -2.66815 0 
0.581903 -2.66746 0 
0.795044 -2.66858 0 
1.00785 -2.66831 0 
1.2202 -2.66878 0 
1.43328 -2.6708 0 
1.64564 -2.6706 0 
1.85745 -2.67055 0 
2.06974 -2.67058 0 
2.28134 -2.67001 0 
2.49306 -2.66989 0 
2.70514 -2.66997 0 
2.91729 -2.66994 0 
3.12958 -2.66986 0 
3.3415 -2.66955 0 
3.55356 -2.66959 0 
3.76599 -2.66976 0 
3.97778 -2.66907 0 
4.18934 -2.66968 0 
4.40154 -2.66974 0 
4.61394 -2.66966 0 
4.82631 -2.66956 0 
5.03839 -2.66959 0 
5.25098 -2.66976 0 
5.46315 -2.6694 0 
5.67513 -2.66929 0 
5.88749 -2.66957 0 
6.09971 -2.66991 0 
6.31225 -2.67098 0 
6.52336 -2.67 0 
6.73475 -2.67106 0 
6.94743 -2.67104 0 
7.16108 -2.67023 0 
7.37568 -2.66842 0 
7.59046 -2.66607 0 
7.80673 -2.66059 0 
8.02198 -2.64789 0 
8.2841 -2.70449 0 
8.53831 -2.66933 0 
-8.4242 -2.52367 0 
-8.18628 -2.40834 0 
-7.95158 -2.44129 0 
-7.71809 -2.44964 0 
-7.48885 -2.458 0 
-7.26516 -2.45773 0 
-7.04488 -2.45913 0 
-6.82825 -2.45926 0 
-6.61516 -2.45817 0 
-6.40299 -2.45903 0 
-6.19172 -2.45914 0 
-5.98125 -2.45853 0 
-5.77044 -2.45875 0 
-5.56028 -2.45743 0 
-5.34994 -2.4573 0 
-5.13871 -2.45813 0 
-4.92717 -2.4582 0 
-4.71634 -2.45675 0 
-4.50464 -2.45773 0 
-4.29318 -2.457 0 
-4.08126 -2.45804 0 
-3.86969 -2.45744 0 
-3.65791 -2.45799 0 
-3.44554 -2.45885 0 
-3.23284 -2.45861 0 
-3.02101 -2.45741 0 
-2.80906 -2.45843 0 
-2.5969 -2.45772 0 
-2.38505 -2.45782 0 
-2.17314 -2.45749 0 
-1.96123 -2.45828 0 
-1.74885 -2.45791 0 
-1.53664 -2.45843 0 
-1.32424 -2.45689 0 
-1.11121 -2.45548 0 
-0.897584 -2.4549 0 
-0.683122 -2.4545 0 
-0.469827 -2.45284 0 
-0.256508 -2.45871 0 
-0.0485455 -2.40876 0 
0.156077 -2.41196 0 
0.361391 -2.45256 0 
0.579704 -2.45412 0 
0.796221 -2.45481 0 
1.00999 -2.45486 0 
1.22274 -2.45572 0 
1.43535 -2.46004 0 
1.64738 -2.45895 0 
1.86 -2.4599 0 
2.07135 -2.45881 0 
2.28274 -2.45813 0 
2.49468 -2.45841 0 
2.70672 -2.45849 0 
2.91904 -2.45857 0 
3.13073 -2.45781 0 
3.34258 -2.45753 0 
3.55509 -2.45811 0 
3.76705 -2.45764 0 
3.97853 -2.4565 0 
4.1906 -2.45782 0 
4.40309 -2.45819 0 
4.61562 -2.45811 0 
4.82749 -2.45731 0 
5.04021 -2.45819 0 
5.25238 -2.45775 0 
5.46424 -2.457 0 
5.67685 -2.4576 0 
5.8892 -2.45794 0 
6.10028 -2.45746 0 
6.31076 -2.45999 0 
6.52137 -2.45777 0 
6.73087 -2.45944 0 
6.94148 -2.46048 0 
7.15373 -2.45977 0 
7.36891 -2.45674 0 
7.58638 -2.45034 0 
7.80147 -2.4372 0 
8.04494 -2.44375 0 
8.28798 -2.49744 0 
8.53831 -2.4572 0 
-8.53831 -2.26881 0 
-8.3334 -2.25786 0 
-8.01433 -2.21433 0 
-7.7804 -2.23623 0 
-7.53861 -2.2456 0 
-7.3079 -2.24642 0 
-7.08095 -2.24837 0 
-6.85823 -2.24793 0 
-6.64007 -2.24526 0 
-6.4255 -2.24681 0 
-6.21157 -2.24698 0 
-5.99873 -2.24606 0 
-5.7864 -2.24687 0 
-5.5737 -2.24473 0 
-5.36167 -2.24456 0 
-5.14949 -2.24625 0 
-4.93647 -2.24647 0 
-4.72343 -2.24406 0 
-4.5112 -2.24581 0 
-4.29836 -2.24465 0 
-4.08593 -2.24599 0 
-3.87352 -2.24525 0 
-3.66127 -2.24599 0 
-3.44884 -2.24732 0 
-3.23617 -2.24741 0 
-3.02349 -2.2453 0 
-2.81151 -2.24658 0 
-2.59951 -2.24595 0 
-2.38757 -2.24592 0 
-2.17564 -2.24555 0 
-1.96357 -2.24645 0 
-1.7513 -2.24624 0 
-1.53832 -2.24622 0 
-1.32476 -2.24428 0 
-1.11078 -2.24213 0 
-0.896356 -2.24124 0 
-0.683071 -2.23855 0 
-0.466852 -2.23882 0 
-0.250735 -2.24169 0 
-0.0371647 -2.17335 0 
0.152322 -2.15483 0 
0.349925 -2.22813 0 
0.565954 -2.24014 0 
0.786737 -2.24123 0 
1.00361 -2.24041 0 
1.21825 -2.24128 0 
1.43137 -2.24799 0 
1.64425 -2.24673 0 
1.85647 -2.24889 0 
2.06876 -2.24665 0 
2.28005 -2.24593 0 
2.49129 -2.24676 0 
2.70298 -2.24694 0 
2.91484 -2.24726 0 
3.12709 -2.24566 0 
3.33871 -2.2454 0 
3.55046 -2.24667 0 
3.76287 -2.24573 0 
3.97497 -2.24396 0 
4.18664 -2.24575 0 
4.39851 -2.24674 0 
4.61112 -2.24673 0 
4.82385 -2.24511 0 
5.03608 -2.24671 0 
5.24872 -2.2457 0 
5.46103 -2.24448 0 
5.67297 -2.246 0 
5.88557 -2.24636 0 
6.09777 -2.24539 0 
6.3089 -2.24815 0 
6.51937 -2.24581 0 
6.72922 -2.24696 0 
6.93906 -2.24852 0 
7.15 -2.24737 0 
7.36268 -2.24542 0 
7.57657 -2.23316 0 
7.81255 -2.23498 0 
8.05169 -2.23455 0 
8.29294 -2.28187 0 
8.53831 -2.24506 0 
-8.4608 -1.99261 0 
-8.22233 -2.07278 0 
-7.9709 -1.99362 0 
-7.73115 -2.03127 0 
-7.50011 -2.03273 0 
-7.27296 -2.03591 0 
-7.05052 -2.03791 0 
-6.8335 -2.03584 0 
-6.62029 -2.03221 0 
-6.40798 -2.03488 0 
-6.19708 -2.03466 0 
-5.98645 -2.03381 0 
-5.77559 -2.03502 0 
-5.56491 -2.03224 0 
-5.3539 -2.03228 0 
-5.14203 -2.03478 0 
-4.93017 -2.03479 0 
-4.71878 -2.03164 0 
-4.50691 -2.03398 0 
-4.29509 -2.03251 0 
-4.08343 -2.03371 0 
-3.87165 -2.03307 0 
-3.66002 -2.03357 0 
-3.44832 -2.03554 0 
-3.23624 -2.03607 0 
-3.02424 -2.03303 0 
-2.81259 -2.03483 0 
-2.60029 -2.03415 0 
-2.38799 -2.03397 0 
-2.17569 -2.03357 0 
-1.96352 -2.03444 0 
-1.75046 -2.03435 0 
-1.5364 -2.03424 0 
-1.32182 -2.03113 0 
-1.10724 -2.02775 0 
-0.893792 -2.02474 0 
-0.676873 -2.02448 0 
-0.461206 -2.02359 0 
-0.240359 -2.02919 0 
-0.0505242 -1.91869 0 
0.140222 -1.90054 0 
0.345837 -1.99476 0 
0.556193 -2.02236 0 
0.778604 -2.02811 0 
1.00042 -2.02503 0 
1.21714 -2.02667 0 
1.43306 -2.0347 0 
1.64647 -2.03372 0 
1.85872 -2.03702 0 
2.07034 -2.03408 0 
2.28195 -2.03352 0 
2.49367 -2.03493 0 
2.70535 -2.03527 0 
2.91745 -2.03585 0 
3.12906 -2.03353 0 
3.34082 -2.03331 0 
3.55303 -2.03511 0 
3.76519 -2.03387 0 
3.97669 -2.03132 0 
4.18812 -2.03348 0 
4.4008 -2.03536 0 
4.61352 -2.03539 0 
4.82527 -2.03268 0 
5.03721 -2.0349 0 
5.24939 -2.03351 0 
5.4618 -2.03225 0 
5.67405 -2.03353 0 
5.88575 -2.03483 0 
6.09686 -2.03299 0 
6.3073 -2.03674 0 
6.51674 -2.0331 0 
6.7254 -2.03502 0 
6.93504 -2.03648 0 
7.14544 -2.03426 0 
7.35719 -2.03074 0 
7.5843 -2.03005 0 
7.81646 -2.02752 0 
8.05331 -2.02334 0 
8.29397 -2.06455 0 
8.53831 -2.03293 0 
-8.61353 -1.83012 0 
-8.28184 -1.82212 0 
-8.06812 -1.81467 0 
-7.77418 -1.8132 0 
-7.53943 -1.81865 0 
-7.3071 -1.82391 0 
-7.07981 -1.82698 0 
-6.85703 -1.82385 0 
-6.63963 -1.81927 0 
-6.42511 -1.82273 0 
-6.21146 -1.82216 0 
-5.99931 -1.82166 0 
-5.78702 -1.82303 0 
-5.57485 -1.82017 0 
-5.36235 -1.82021 0 
-5.1497 -1.8233 0 
-4.93664 -1.8231 0 
-4.72376 -1.81944 0 
-4.51103 -1.82205 0 
-4.29825 -1.82078 0 
-4.08505 -1.82165 0 
-3.87202 -1.82102 0 
-3.65936 -1.82136 0 
-3.44704 -1.82335 0 
-3.23434 -1.82426 0 
-3.02221 -1.82068 0 
-2.80934 -1.82338 0 
-2.59629 -1.82267 0 
-2.38335 -1.82233 0 
-2.17113 -1.82115 0 
-1.95815 -1.82243 0 
-1.74416 -1.82225 0 
-1.52981 -1.82128 0 
-1.31572 -1.81614 0 
-1.10299 -1.81005 0 
-0.886588 -1.81016 0 
-0.673213 -1.80754 0 
-0.450683 -1.81441 0 
-0.248833 -1.79962 0 
-0.0691613 -1.65961 0 
0.116353 -1.64666 0 
0.327521 -1.76339 0 
0.543654 -1.79571 0 
0.760581 -1.81456 0 
0.986738 -1.81106 0 
1.20905 -1.81031 0 
1.42672 -1.82213 0 
1.64384 -1.81997 0 
1.85725 -1.82385 0 
2.06978 -1.8214 0 
2.28223 -1.82154 0 
2.49437 -1.82297 0 
2.70649 -1.82385 0 
2.91834 -1.82388 0 
3.1303 -1.82163 0 
3.34208 -1.82111 0 
3.55375 -1.82337 0 
3.76535 -1.82136 0 
3.97755 -1.81934 0 
4.18972 -1.82081 0 
4.40114 -1.82399 0 
4.61269 -1.82289 0 
4.82462 -1.82029 0 
5.03653 -1.8226 0 
5.24904 -1.82142 0 
5.4609 -1.81956 0 
5.673 -1.82118 0 
5.88495 -1.82233 0 
6.09608 -1.82066 0 
6.30632 -1.82474 0 
6.51571 -1.82062 0 
6.72434 -1.82222 0 
6.93303 -1.82443 0 
7.14275 -1.8206 0 
7.36174 -1.82418 0 
7.58619 -1.82214 0 
7.81552 -1.81667 0 
8.05331 -1.81228 0 
8.29439 -1.84731 0 
8.53831 -1.8208 0 
-8.46435 -1.66117 0 
-8.22981 -1.56472 0 
[...]
POINT_DATA 2142 
VECTORS vectors float
-0.000165945 -0.00081065 1 
0.00022208 -0.0221584 0.999754 
-3.75464e-06 -0.0275256 0.999621 
8.04094e-05 -0.0273402 0.999626 
5.64002e-05 -0.0253875 0.999678 
6.27775e-05 -0.022861 0.999739 
6.10636e-05 -0.0199121 0.999802 
6.15589e-05 -0.0167214 0.99986 
6.16916e-05 -0.0135622 0.999908 
6.20302e-05 -0.0106304 0.999943 
6.2295e-05 -0.00799288 0.999968 
6.2364e-05 -0.00561321 0.999984 
6.2551e-05 -0.00340879 0.999994 
6.24618e-05 -0.00128275 0.999999 
6.24708e-05 0.000869988 1 
6.23934e-05 0.00316239 0.999995 
6.2264e-05 0.00571786 0.999984 
6.19459e-05 0.00867063 0.999962 
6.16911e-05 0.0121765 0.999926 
6.10422e-05 0.016433 0.999865 
6.10916e-05 0.0215371 0.999768 
5.98129e-05 0.0278826 0.999611 
5.93743e-05 0.0358204 0.999358 
5.78401e-05 0.0457173 0.998954 
5.72667e-05 0.0580841 0.998312 
5.48564e-05 0.0735026 0.997295 
5.29712e-05 0.0930145 0.995665 
5.015e-05 0.117539 0.993068 
4.68511e-05 0.148314 0.98894 
4.23409e-05 0.186851 0.982388 
3.74717e-05 0.234902 0.972019 
2.99304e-05 0.294332 0.955703 
2.292e-05 0.366829 0.930288 
1.41037e-05 0.453 0.89151 
2.86972e-06 0.553136 0.833091 
-7.02595e-06 0.664047 0.747691 
-1.55341e-05 0.778131 0.628102 
-1.71068e-05 0.882686 0.469964 
-1.69028e-05 0.961441 0.275013 
4.34471e-07 0.998444 0.0557712 
6.53691e-06 0.985639 -0.168864 
1.83789e-05 0.926069 -0.377355 
1.83339e-05 0.832541 -0.553964 
8.56225e-06 0.721917 -0.69198 
2.90361e-06 0.609131 -0.793069 
-6.07511e-06 0.501716 -0.865033 
-2.06621e-05 0.408161 -0.91291 
-2.53673e-05 0.328641 -0.944455 
-3.45795e-05 0.262921 -0.964817 
-3.98723e-05 0.209473 -0.977814 
-4.47677e-05 0.166438 -0.986052 
-4.85988e-05 0.132003 -0.991249 
-5.16587e-05 0.104551 -0.99452 
-5.40517e-05 0.0827024 -0.996574 
-5.60524e-05 0.0653229 -0.997864 
-5.74825e-05 0.0514871 -0.998674 
-5.87969e-05 0.0404492 -0.999182 
-5.96653e-05 0.0316086 -0.9995 
-6.02512e-05 0.0244599 -0.999701 
-6.13613e-05 0.0188126 -0.999823 
-6.13684e-05 0.0142011 -0.999899 
-6.1967e-05 0.0104329 -0.999946 
-6.19973e-05 0.00724758 -0.999974 
-6.23974e-05 0.00455893 -0.99999 
-6.25227e-05 0.00222028 -0.999998 
-6.25623e-05 0.000103831 -1 
-6.25127e-05 -0.00190375 -0.999998 
-6.28018e-05 -0.00390722 -0.999992 
-6.20124e-05 -0.00600624 -0.999982 
-6.2945e-05 -0.00829035 -0.999966 
-6.1825e-05 -0.0108029 -0.999942 
-6.19785e-05 -0.0136337 -0.999907 
-6.17502e-05 -0.0165993 -0.999862 
-6.15334e-05 -0.0193614 -0.999813 
-6.4407e-05 -0.0218035 -0.999762 
-5.38045e-05 -0.0238991 -0.999714 
-8.24398e-05 -0.0257312 -0.999669 
-2.89092e-05 -0.0263106 -0.999654 
-7.47295e-05 -0.0224684 -0.999748 
-2.12819e-05 -0.001574 -0.999999 
0.00011589 0.000259932 1 
0.00686232 -0.019596 0.999784 
0.00998567 -0.0262124 0.999607 
0.011679 -0.0277623 0.999546 
0.0127625 -0.0261584 0.999576 
0.0134607 -0.0234177 0.999635 
0.0139386 -0.0203385 0.999696 
0.0142797 -0.0171082 0.999752 
0.0145633 -0.0139159 0.999797 
0.0147742 -0.0109313 0.999831 
0.0149289 -0.00821791 0.999855 
0.0150463 -0.00576648 0.99987 
0.0151162 -0.00350552 0.99988 
0.0151648 -0.0013301 0.999884 
0.0151742 0.000860527 0.999884 
0.0151436 0.00318659 0.99988 
0.0150908 0.00577838 0.999869 
0.0150272 0.00876886 0.999849 
0.0149038 0.0122937 0.999813 
0.0147583 0.0165414 0.999754 
0.0145999 0.0217583 0.999657 
0.0143868 0.0281618 0.9995 
0.0141752 0.0362038 0.999244 
0.0138899 0.0462245 0.998835 
0.0135721 0.0587624 0.99818 
0.0131546 0.0742043 0.997156 
0.0127108 0.0939408 0.995497 
0.0122255 0.118605 0.992866 
0.0116838 0.149518 0.98869 
0.0111158 0.188134 0.98208 
0.0105278 0.236331 0.971616 
0.00997055 0.295832 0.955188 
0.00945105 0.368687 0.929506 
0.00896757 0.45455 0.890676 
0.00852039 0.55458 0.832087 
0.00798605 0.665575 0.746288 
0.00716238 0.77999 0.625751 
0.00570881 0.885045 0.465471 
0.0033331 0.964396 0.264441 
0.000908642 0.998759 0.0498057 
-0.00229827 0.986712 -0.16246 
-0.00463645 0.927984 -0.372592 
-0.00656772 0.833146 -0.553015 
-0.00765361 0.722242 -0.691598 
-0.00829753 0.607552 -0.794237 
-0.00871655 0.50123 -0.86527 
-0.00915016 0.408455 -0.912733 
-0.00966925 0.328933 -0.944304 
-0.0102313 0.263478 -0.964611 
-0.0108164 0.210049 -0.977631 
-0.011415 0.167104 -0.985873 
-0.011977 0.132677 -0.991087 
-0.0124955 0.10515 -0.994378 
-0.0129682 0.0832164 -0.996447 
-0.0133882 0.0657467 -0.997747 
-0.0137626 0.0518564 -0.99856 
-0.0140774 0.0407666 -0.99907 
-0.0143452 0.0318828 -0.999389 
-0.0146184 0.0247949 -0.999586 
-0.0147562 0.0190428 -0.99971 
-0.0148834 0.014372 -0.999786 
-0.0149702 0.0105309 -0.999832 
-0.0150902 0.00735473 -0.999859 
-0.0151713 0.00465528 -0.999874 
-0.0152121 0.00229184 -0.999882 
-0.0152485 0.000154253 -0.999884 
-0.0152608 -0.00187209 -0.999882 
-0.0152397 -0.00389619 -0.999876 
-0.0151766 -0.00600531 -0.999867 
-0.0151135 -0.00830749 -0.999851 
-0.0150613 -0.010801 -0.999828 
-0.0148573 -0.013467 -0.999799 
-0.0146593 -0.016215 -0.999761 
-0.0144866 -0.0189169 -0.999716 
-0.0142126 -0.0213942 -0.99967 
-0.0137277 -0.0235694 -0.999628 
-0.0129387 -0.0250509 -0.999602 
-0.0117007 -0.0248141 -0.999624 
-0.00752959 -0.0197243 -0.999777 
0.00019215 0.00050265 -1 
0.00257187 -0.0139616 0.999899 
0.00683372 -0.0281014 0.999582 
0.0114588 -0.0301017 0.999481 
0.0142697 -0.029007 0.999477 
0.015946 -0.026098 0.999532 
0.0170195 -0.0228645 0.999594 
0.0177537 -0.0196399 0.999649 
0.0183067 -0.016479 0.999697 
0.0187385 -0.0134342 0.999734 
0.0190537 -0.0105599 0.999763 
0.0192854 -0.00792812 0.999783 
0.0194481 -0.00553317 0.999796 
0.0195447 -0.00329876 0.999804 
0.0196033 -0.00114332 0.999807 
0.0196081 0.00104516 0.999807 
0.0195661 0.00338442 0.999803 
0.019492 0.00598973 0.999792 
0.0193908 0.00898094 0.999772 
0.0192307 0.0125279 0.999737 
0.0190492 0.0167987 0.999677 
0.0188326 0.0220374 0.99958 
0.0186047 0.0285099 0.99942 
0.0182602 0.0364607 0.999168 
0.0178966 0.0464553 0.99876 
0.0174812 0.0589278 0.998109 
0.0170934 0.0746896 0.99706 
0.0166031 0.0942339 0.995412 
0.016145 0.118865 0.992779 
0.0157216 0.149685 0.988609 
0.0153792 0.188099 0.98203 
0.0151877 0.236017 0.97163 
0.0152179 0.295078 0.955352 
0.015482 0.367016 0.930086 
0.0160537 0.453037 0.891347 
0.0167312 0.553165 0.832904 
0.0171056 0.664446 0.74714 
0.0164798 0.779601 0.62606 
0.014019 0.88465 0.466045 
0.00868716 0.963275 0.268378 
0.0023114 0.998655 0.0518046 
-0.00627257 0.985903 -0.167198 
-0.0115228 0.928704 -0.370643 
-0.0154256 0.832194 -0.55427 
-0.0169054 0.718008 -0.695829 
-0.0169033 0.604154 -0.796688 
-0.0163178 0.499179 -0.866345 
-0.0155717 0.405663 -0.91389 
-0.0152373 0.327428 -0.944753 
-0.0151209 0.262538 -0.964803 
-0.0152525 0.209737 -0.977639 
-0.0155451 0.167062 -0.985824 
-0.0159423 0.132766 -0.991019 
-0.0163957 0.105336 -0.994301 
-0.0168636 0.0834231 -0.996372 
-0.0173213 0.0660098 -0.997669 
-0.0177462 0.0521118 -0.998484 
-0.0181297 0.0409857 -0.998995 
-0.0184704 0.0320989 -0.999314 
-0.0187695 0.0249754 -0.999512 
-0.0190097 0.0192176 -0.999635 
-0.0191972 0.0145204 -0.99971 
-0.0193441 0.0106616 -0.999756 
-0.0194769 0.00746306 -0.999782 
-0.0195856 0.00473752 -0.999797 
-0.0196475 0.00235653 -0.999804 
-0.0196779 0.00019772 -0.999806 
-0.0196937 -0.00186013 -0.999804 
-0.0196887 -0.00391222 -0.999799 
-0.019659 -0.00604648 -0.999788 
-0.019532 -0.00832936 -0.999775 
-0.019315 -0.0107603 -0.999756 
-0.0190879 -0.0133436 -0.999729 
-0.0187921 -0.0159528 -0.999696 
-0.018429 -0.0185279 -0.999658 
-0.0179267 -0.0210531 -0.999618 
-0.017048 -0.0232818 -0.999584 
-0.0158279 -0.0248261 -0.999566 
-0.0134763 -0.0243923 -0.999612 
-0.00941397 -0.0195786 -0.999764 
-0.000457578 -0.000111893 -1 
3.06641e-05 1.03036e-05 1 
0.0017007 -0.028906 0.999581 
0.00938292 -0.0358869 0.999312 
0.013171 -0.0323204 0.999391 
0.0155936 -0.0280937 0.999484 
0.0170596 -0.0241267 0.999563 
0.0180683 -0.0205101 0.999626 
0.0188075 -0.0171602 0.999676 
0.0193605 -0.01399 0.999715 
0.0197747 -0.0110149 0.999744 
0.0200678 -0.0082762 0.999764 
0.0202654 -0.00579031 0.999778 
0.0203908 -0.00348994 0.999786 
0.0204521 -0.00127183 0.99979 
0.020466 0.000961862 0.99979 
0.0204352 0.00333152 0.999786 
0.0203566 0.00596789 0.999775 
0.0202331 0.00899858 0.999755 
0.0200761 0.012559 0.99972 
0.0198774 0.0168604 0.99966 
0.0196531 0.0221028 0.999563 
0.0193845 0.0285551 0.999404 
0.0190494 0.0365047 0.999152 
0.0187473 0.0465379 0.998741 
0.0184063 0.0590455 0.998086 
0.0179997 0.0745025 0.997058 
0.0176904 0.0940456 0.995411 
0.0174533 0.118458 0.992806 
0.0173819 0.149063 0.988675 
0.0174881 0.186654 0.98227 
0.0180311 0.234272 0.972004 
0.0189783 0.292052 0.956214 
0.0204879 0.362723 0.931672 
0.0226756 0.448735 0.893377 
0.0251901 0.548588 0.835713 
0.0272996 0.659956 0.750808 
0.0278248 0.774929 0.631436 
0.0245544 0.88296 0.468805 
0.0157824 0.96352 0.267171 
0.00341049 0.999171 0.0405572 
-0.0124601 0.985837 -0.167243 
-0.0208002 0.930628 -0.365376 
-0.0262869 0.834935 -0.54972 
-0.0275951 0.718399 -0.695084 
-0.0262217 0.602547 -0.797652 
-0.0238493 0.496664 -0.867615 
-0.0213972 0.404777 -0.914165 
-0.0196133 0.326063 -0.945144 
-0.0184178 0.262441 -0.964772 
-0.0177166 0.20953 -0.977642 
-0.017408 0.167078 -0.98579 
-0.0174035 0.133142 -0.990944 
-0.0175824 0.105836 -0.994228 
-0.0178713 0.0839705 -0.996308 
-0.0182167 0.066478 -0.997622 
-0.0185793 0.052554 -0.998445 
-0.0189467 0.0414455 -0.998961 
-0.0192631 0.0324775 -0.999287 
-0.0195261 0.0252503 -0.99949 
-0.0198496 0.0195218 -0.999612 
-0.0200497 0.014791 -0.99969 
-0.0202032 0.0108882 -0.999737 
-0.0203111 0.00763084 -0.999765 
-0.0204881 0.00489425 -0.999778 
-0.0205217 0.00247297 -0.999786 
-0.0205156 0.00027914 -0.999789 
-0.0205641 -0.00180057 -0.999787 
-0.0205727 -0.0038839 -0.999781 
-0.0204356 -0.00603464 -0.999773 
-0.0203297 -0.00835121 -0.999758 
-0.0201111 -0.0108077 -0.999739 
-0.0198303 -0.0133417 -0.999714 
-0.0194704 -0.0158502 -0.999685 
-0.0189864 -0.0183066 -0.999652 
-0.0183346 -0.0207806 -0.999616 
-0.0173674 -0.0231576 -0.999581 
-0.0158768 -0.024952 -0.999563 
-0.0134633 -0.0244078 -0.999611 
-0.00957073 -0.019374 -0.999766 
-0.000229966 3.13786e-05 -1 
-0.00205816 -0.0611022 0.998129 
0.00404994 -0.0441664 0.999016 
0.0090361 -0.0407176 0.99913 
0.0125491 -0.0341086 0.999339 
0.0145987 -0.0287485 0.99948 
0.0159947 -0.0242609 0.999578 
0.016995 -0.0204926 0.999646 
0.0177198 -0.0171367 0.999696 
0.0182513 -0.0139771 0.999736 
0.0186862 -0.0109774 0.999765 
0.0189785 -0.008231 0.999786 
0.0191725 -0.00573104 0.9998 
0.0193082 -0.00341077 0.999808 
0.0193543 -0.0011781 0.999812 
0.0193723 0.00108133 0.999812 
0.0193622 0.00348479 0.999806 
0.0192855 0.00614382 0.999795 
0.0191445 0.00918637 0.999775 
0.0190086 0.012774 0.999738 
0.0188097 0.0170835 0.999677 
0.0186151 0.022341 0.999577 
0.0183684 0.028793 0.999417 
0.0181429 0.0368343 0.999157 
0.0178833 0.0467474 0.998747 
0.0175747 0.0589887 0.998104 
0.0173874 0.0745879 0.997063 
0.0172582 0.0937306 0.995448 
0.0173002 0.117757 0.992892 
0.0176104 0.147647 0.988883 
0.0184075 0.1854 0.982491 
0.0196891 0.231226 0.972701 
0.0218198 0.288717 0.957166 
0.0248887 0.358899 0.933044 
0.0290727 0.443428 0.895838 
0.0340883 0.542083 0.839634 
0.0390258 0.652032 0.757187 
0.0418009 0.769483 0.637298 
0.0390056 0.879085 0.475066 
0.0256198 0.964248 0.26376 
0.0084859 0.998256 0.0584217 
-0.0225472 0.986348 -0.163122 
-0.0356294 0.927175 -0.372931 
-0.040954 0.832138 -0.553054 
-0.0403922 0.713874 -0.699108 
-0.0364106 0.595344 -0.802645 
-0.0313173 0.489439 -0.871475 
-0.0265786 0.397407 -0.917257 
-0.0231619 0.321691 -0.946561 
-0.020623 0.258606 -0.965763 
-0.0189727 0.207077 -0.978141 
-0.017941 0.165243 -0.98609 
-0.0174886 0.132201 -0.991069 
-0.0173007 0.105253 -0.994295 
-0.0173321 0.0836123 -0.996348 
-0.0174801 0.0663225 -0.997645 
-0.0177085 0.0524724 -0.998465 
-0.0180522 0.0415276 -0.998974 
-0.0182873 0.0325739 -0.999302 
-0.0185086 0.0254009 -0.999506 
-0.0187444 0.0195981 -0.999632 
-0.0190225 0.0149087 -0.999708 
-0.0191642 0.0109894 -0.999756 
-0.0192708 0.00774145 -0.999784 
-0.0193907 0.00496794 -0.9998 
-0.0194461 0.00253325 -0.999808 
-0.019468 0.000314839 -0.99981 
-0.0194778 -0.00179369 -0.999809 
-0.0194489 -0.00389257 -0.999803 
-0.0193416 -0.00607709 -0.999794 
-0.0192273 -0.0084108 -0.99978 
-0.0189777 -0.0108811 -0.999761 
-0.0186764 -0.013382 -0.999736 
-0.0183064 -0.0158485 -0.999707 
-0.0177271 -0.0181963 -0.999677 
-0.0169943 -0.0206059 -0.999643 
-0.0160849 -0.0232473 -0.9996 
-0.0147246 -0.0250993 -0.999577 
-0.0125392 -0.0245884 -0.999619 
-0.00903812 -0.019457 -0.99977 
-0.000228349 -2.69196e-06 -1 
-0.00473009 -0.10195 0.994778 
0.0031589 -0.0580492 0.998309 
0.0069812 -0.0475774 0.998843 
0.0106677 -0.0372638 0.999249 
0.0126073 -0.0307491 0.999448 
0.0139997 -0.0255673 0.999575 
0.0150257 -0.0214386 0.999657 
0.0157621 -0.0178624 0.999716 
0.0162927 -0.0145459 0.999761 
0.0167437 -0.0114201 0.999795 
0.017037 -0.00855378 0.999818 
0.0172358 -0.00596744 0.999834 
0.0173787 -0.00357901 0.999843 
0.0174236 -0.00129157 0.999847 
0.0174505 0.00101401 0.999847 
0.0174631 0.00344959 0.999842 
0.0173882 0.00613695 0.99983 
0.0172438 0.00920678 0.999809 
0.0171356 0.0128129 0.999771 
0.0169371 0.0171158 0.99971 
0.0168101 0.0224384 0.999607 
0.016557 0.0288336 0.999447 
0.0163799 0.036851 0.999187 
0.0161861 0.0466786 0.998779 
0.0160703 0.0590702 0.998124 
0.0160043 0.0744026 0.9971 
0.0161333 0.093567 0.995482 
0.01649 0.117382 0.99295 
0.0172484 0.14703 0.988982 
0.0185999 0.183796 0.982788 
0.0207467 0.229275 0.97314 
0.0240176 0.285587 0.958052 
0.0286985 0.354261 0.934706 
0.0351166 0.436335 0.899099 
0.0432196 0.531634 0.845871 
0.0521298 0.641472 0.765373 
0.0597785 0.756566 0.651179 
0.0593439 0.872875 0.484322 
0.0469094 0.955924 0.289843 
0.0240729 0.99568 0.0896801 
-0.0412731 0.986848 -0.156293 
-0.059523 0.923966 -0.377814 
-0.0622818 0.823949 -0.56323 
-0.0560048 0.709067 -0.702913 
-0.0474741 0.588982 -0.806751 
-0.0387292 0.482111 -0.875254 
-0.0313058 0.392057 -0.919408 
-0.025956 0.31616 -0.948351 
-0.0221023 0.254501 -0.96682 
-0.0195171 0.204255 -0.978723 
-0.0178325 0.163527 -0.986378 
-0.0168139 0.130577 -0.991296 
-0.0163339 0.104467 -0.994394 
-0.0160938 0.0831526 -0.996407 
-0.0160383 0.0660252 -0.997689 
-0.0161844 0.0525195 -0.998489 
-0.0163577 0.0414987 -0.999005 
-0.0165351 0.0326627 -0.99933 
-0.0167206 0.0255205 -0.999534 
-0.0169175 0.0197136 -0.999663 
-0.0171278 0.0150009 -0.999741 
-0.0172737 0.0111155 -0.999789 
-0.0173938 0.00786486 -0.999818 
-0.0174526 0.00505218 -0.999835 
-0.0175331 0.00259606 -0.999843 
-0.0175788 0.00036058 -0.999845 
-0.0175545 -0.00177251 -0.999844 
-0.017488 -0.00389842 -0.999839 
-0.0174147 -0.00612525 -0.99983 
-0.0173097 -0.00849102 -0.999814 
-0.017063 -0.0110004 -0.999794 
-0.0167097 -0.013477 -0.99977 
-0.0163225 -0.0158917 -0.99974 
-0.015737 -0.0182062 -0.99971 
-0.0150826 -0.0207091 -0.999672 
-0.0141952 -0.0233101 -0.999627 
-0.0129774 -0.0252052 -0.999598 
-0.0110876 -0.0247567 -0.999632 
-0.00805483 -0.0195859 -0.999776 
-0.000194446 6.1899e-06 -1 
0.00100306 -0.0762132 0.997091 
0.00552389 -0.0552213 0.998459 
0.00813233 -0.044704 0.998967 
0.010021 -0.0366174 0.999279 
0.0114347 -0.0301934 0.999479 
0.0125092 -0.025229 0.999603 
0.0133556 -0.0212481 0.999685 
0.0139566 -0.0177656 0.999745 
0.0144125 -0.0144658 0.999791 
0.0148145 -0.0113421 0.999826 
0.0150635 -0.00849086 0.99985 
0.0152462 -0.00589872 0.999866 
0.0153714 -0.00350733 0.999876 
0.0154123 -0.00120042 0.999881 
0.0154467 0.00112432 0.99988 
0.0154855 0.00357915 0.999874 
0.0153942 0.00626848 0.999862 
0.0152494 0.00934372 0.99984 
0.0152005 0.012983 0.9998 
0.0150335 0.0172827 0.999738 
0.0149023 0.0225067 0.999636 
0.0147314 0.0289025 0.999474 
0.0145975 0.0367739 0.999217 
0.0144996 0.0465184 0.998812 
0.0144926 0.0586269 0.998175 
0.0145138 0.0734072 0.997196 
0.0148586 0.0920722 0.995641 
0.0154265 0.114833 0.993265 
0.0164716 0.143213 0.989555 
0.0181862 0.178237 0.983819 
0.0208416 0.221175 0.975011 
0.024787 0.273796 0.961468 
0.0305028 0.338014 0.940647 
0.0385131 0.4146 0.909188 
0.049362 0.504331 0.862099 
0.0628023 0.60694 0.792262 
0.0785331 0.718068 0.691528 
0.0898809 0.832015 0.547424 
0.0941339 0.928626 0.358876 
-0.104645 0.906192 -0.409715 
-0.0910776 0.805084 -0.586127 
-0.0738823 0.689315 -0.720684 
-0.0582876 0.577389 -0.814386 
-0.0450853 0.471466 -0.880731 
-0.0349309 0.383014 -0.923082 
-0.0278782 0.309688 -0.950429 
-0.0228493 0.248695 -0.968312 
-0.0195468 0.200381 -0.979523 
-0.017388 0.161278 -0.986756 
-0.0159756 0.129119 -0.9915 
-0.0151398 0.103135 -0.994552 
-0.0147343 0.0824576 -0.996486 
-0.0145586 0.065902 -0.99772 
-0.0145177 0.0523649 -0.998522 
-0.0145745 0.041375 -0.999037 
-0.0147169 0.0326554 -0.999358 
-0.0148775 0.0256109 -0.999561 
-0.0150061 0.0197837 -0.999692 
-0.0151403 0.0150285 -0.999772 
-0.0152882 0.0111549 -0.999821 
-0.0153788 0.00789666 -0.999851 
-0.0154771 0.00508164 -0.999867 
-0.0155179 0.00261401 -0.999876 
-0.0155392 0.000347594 -0.999879 
-0.0155405 -0.00181366 -0.999878 
-0.0155069 -0.00397616 -0.999872 
-0.0154309 -0.00623374 -0.999862 
-0.0153055 -0.00861458 -0.999846 
-0.0150318 -0.0111337 -0.999825 
-0.0147649 -0.0136796 -0.999797 
-0.0143416 -0.0160435 -0.999768 
-0.0137715 -0.0183406 -0.999737 
-0.0131703 -0.020854 -0.999696 
-0.0122997 -0.0233538 -0.999652 
-0.0112239 -0.0253018 -0.999617 
-0.00959313 -0.024876 -0.999645 
-0.00698439 -0.0196205 -0.999783 
-0.000171611 2.81581e-06 -1 
0.00332718 -0.0621432 0.998062 
0.00574786 -0.0520156 0.99863 
0.0078902 -0.0445425 0.998976 
0.00910237 -0.0378808 0.999241 
0.0100953 -0.0312174 0.999462 
0.0109321 -0.02609 0.9996 
0.0116465 -0.021975 0.999691 
0.0121553 -0.0183593 0.999758 
0.0125435 -0.0149475 0.99981 
0.0128979 -0.0117068 0.999848 
0.0131158 -0.00874847 0.999876 
0.0132833 -0.00607744 0.999893 
0.0133933 -0.003618 0.999904 
0.0134208 -0.0012655 0.999909 
0.0134596 0.00110478 0.999909 
0.0134753 0.00359458 0.999903 
0.0134332 0.00632767 0.99989 
0.0133403 0.00943515 0.999866 
0.0132407 0.0130266 0.999827 
0.0131488 0.0173641 0.999763 
0.0130225 0.0225123 0.999662 
0.0129364 0.0289408 0.999497 
0.0128406 0.0366964 0.999244 
0.0128035 0.0463123 0.998845 
0.0128384 0.0581731 0.998224 
0.0130364 0.073053 0.997243 
0.0134391 0.0910841 0.995753 
0.014222 0.113759 0.993407 
0.0154889 0.14158 0.989806 
0.0174723 0.175664 0.984295 
0.0205173 0.217526 0.975839 
0.0250644 0.269115 0.962782 
0.0316447 0.331288 0.942999 
0.0411642 0.405984 0.912953 
0.0547785 0.493522 0.868007 
0.0734208 0.592712 0.802061 
0.0993167 0.699508 0.70769 
0.129148 0.808588 0.574026 
-0.12937 0.78807 -0.601838 
-0.093642 0.683011 -0.724381 
-0.0689292 0.573396 -0.816373 
-0.0512641 0.475199 -0.878384 
-0.0380775 0.384425 -0.922371 
-0.0293688 0.31082 -0.950015 
-0.0234105 0.250649 -0.967795 
-0.0193578 0.20125 -0.979349 
-0.0167219 0.161857 -0.986673 
-0.0150117 0.129831 -0.991423 
-0.0139592 0.10401 -0.994478 
-0.0133515 0.0831452 -0.996448 
-0.013003 0.0662989 -0.997715 
-0.0128696 0.0527997 -0.998522 
-0.0128718 0.0418605 -0.999041 
-0.0129259 0.0330285 -0.999371 
-0.0130097 0.0258875 -0.99958 
-0.0131266 0.0200702 -0.999712 
-0.0132467 0.0152892 -0.999795 
-0.0133497 0.0113635 -0.999846 
-0.0134144 0.0080664 -0.999877 
-0.0135151 0.00523427 -0.999895 
-0.0135314 0.00272503 -0.999905 
-0.0135506 0.000438625 -0.999908 
-0.0135541 -0.00175667 -0.999907 
-0.0135297 -0.00394667 -0.999901 
-0.0134278 -0.00623511 -0.99989 
-0.013325 -0.00865831 -0.999874 
-0.0131348 -0.0112607 -0.99985 
-0.0128415 -0.0138156 -0.999822 
-0.0124601 -0.0161934 -0.999791 
-0.0119755 -0.0185267 -0.999757 
-0.0113885 -0.0209593 -0.999715 
-0.0106195 -0.0235264 -0.999667 
-0.0096729 -0.0253813 -0.999631 
-0.00824286 -0.0249085 -0.999656 
-0.00602152 -0.0197822 -0.999786 
-0.000146678 5.41322e-06 -1 
0.00341471 -0.00584405 0.999977 
0.00747128 -0.0422035 0.999081 
0.00831128 -0.0404909 0.999145 
0.00874246 -0.0355729 0.999329 
0.00911046 -0.0301704 0.999503 
0.00959643 -0.0255939 0.999626 