# vtk DataFile Version 3.0 
Exported using Morpho https://github.com/Morpho-lang/morpho 
ASCII 
DATASET UNSTRUCTURED_GRID 

POINTS 2122 float 
-8.32618 -2.88146 0 
-8.11405 -2.88146 0 
-7.90192 -2.88146 0 
-7.68979 -2.88146 0 
-7.47765 -2.88146 0 
-7.26552 -2.88146 0 
-7.05339 -2.88146 0 
-6.84126 -2.88146 0 
-6.62913 -2.88146 0 
-6.41699 -2.88146 0 
-6.20486 -2.88146 0 
-5.99273 -2.88146 0 
-5.7806 -2.88146 0 
-5.56847 -2.88146 0 
-5.35633 -2.88146 0 
-5.1442 -2.88146 0 
-4.93207 -2.88146 0 
-4.71994 -2.88146 0 
-4.50781 -2.88146 0 
-4.29567 -2.88146 0 
-4.08354 -2.88146 0 
-3.87141 -2.88146 0 
-3.65928 -2.88146 0 
-3.44715 -2.88146 0 
-3.23501 -2.88146 0 
-3.02288 -2.88146 0 
-2.81075 -2.88146 0 
-2.59862 -2.88146 0 
-2.38649 -2.88146 0 
-2.17435 -2.88146 0 
-1.96222 -2.88146 0 
-1.75009 -2.88146 0 
-1.53796 -2.88146 0 
-1.32583 -2.88146 0 
-1.11369 -2.88146 0 
-0.901561 -2.88146 0 
-0.689429 -2.88146 0 
-0.477297 -2.88146 0 
-0.265165 -2.88146 0 
-0.053033 -2.88146 0 
0.159099 -2.88146 0 
0.371231 -2.88146 0 
0.583363 -2.88146 0 
0.795495 -2.88146 0 
1.00763 -2.88146 0 
1.21976 -2.88146 0 
1.43189 -2.88146 0 
1.64402 -2.88146 0 
1.85616 -2.88146 0 
2.06829 -2.88146 0 
2.28042 -2.88146 0 
2.49255 -2.88146 0 
2.70468 -2.88146 0 
2.91682 -2.88146 0 
3.12895 -2.88146 0 
3.34108 -2.88146 0 
3.55321 -2.88146 0 
3.76534 -2.88146 0 
3.97748 -2.88146 0 
4.18961 -2.88146 0 
4.40174 -2.88146 0 
4.61387 -2.88146 0 
4.826 -2.88146 0 
5.03814 -2.88146 0 
5.25027 -2.88146 0 
5.4624 -2.88146 0 
5.67453 -2.88146 0 
5.88666 -2.88146 0 
6.0988 -2.88146 0 
6.31093 -2.88146 0 
6.52306 -2.88146 0 
6.73519 -2.88146 0 
6.94732 -2.88146 0 
7.15946 -2.88146 0 
7.37159 -2.88146 0 
7.58372 -2.88146 0 
7.79585 -2.88146 0 
8.00798 -2.88146 0 
8.22012 -2.88146 0 
8.53831 -2.88146 0 
-8.53831 -2.71682 0 
-8.25816 -2.65868 0 
-8.03483 -2.65406 0 
-7.7954 -2.66777 0 
-7.56339 -2.66629 0 
-7.334 -2.6687 0 
-7.10722 -2.66918 0 
-6.88425 -2.66965 0 
-6.66309 -2.67009 0 
-6.44389 -2.67 0 
-6.22653 -2.67006 0 
-6.0102 -2.67016 0 
-5.79441 -2.66997 0 
-5.57956 -2.66987 0 
-5.36519 -2.66986 0 
-5.15102 -2.66966 0 
-4.93753 -2.66984 0 
-4.72409 -2.66993 0 
-4.51062 -2.66972 0 
-4.29749 -2.66945 0 
-4.08479 -2.66951 0 
-3.872 -2.6695 0 
-3.65934 -2.66939 0 
-3.4466 -2.66965 0 
-3.23425 -2.66949 0 
-3.02206 -2.66961 0 
-2.81007 -2.66995 0 
-2.59817 -2.67076 0 
-2.38732 -2.67029 0 
-2.17708 -2.67149 0 
-1.96671 -2.67246 0 
-1.75556 -2.67354 0 
-1.54407 -2.67325 0 
-1.33191 -2.67208 0 
-1.11893 -2.66908 0 
-0.905838 -2.66751 0 
-0.691069 -2.66597 0 
-0.475655 -2.66222 0 
-0.26339 -2.64486 0 
-0.0492944 -2.64599 0 
0.165091 -2.64212 0 
0.370048 -2.62861 0 
0.577355 -2.65783 0 
0.794785 -2.66411 0 
1.00983 -2.6677 0 
1.22421 -2.67032 0 
1.43955 -2.67245 0 
1.65168 -2.67266 0 
1.86306 -2.67311 0 
2.07417 -2.6731 0 
2.28513 -2.67233 0 
2.49543 -2.67122 0 
2.7055 -2.66967 0 
2.91625 -2.67052 0 
3.1283 -2.67001 0 
3.34052 -2.66959 0 
3.55277 -2.66934 0 
3.76491 -2.66934 0 
3.97711 -2.66941 0 
4.18929 -2.66956 0 
4.40168 -2.66959 0 
4.6144 -2.66984 0 
4.8265 -2.66935 0 
5.0388 -2.66952 0 
5.25147 -2.6695 0 
5.46375 -2.66917 0 
5.67599 -2.66911 0 
5.88828 -2.66969 0 
6.1005 -2.67005 0 
6.31221 -2.67032 0 
6.52395 -2.67046 0 
6.73589 -2.67034 0 
6.94847 -2.67043 0 
7.1626 -2.6699 0 
7.37765 -2.66822 0 
7.59231 -2.66548 0 
7.80836 -2.65979 0 
8.02316 -2.64764 0 
8.2854 -2.70618 0 
8.53831 -2.66933 0 
-8.42209 -2.50776 0 
-8.18126 -2.4146 0 
-7.94503 -2.45375 0 
-7.7161 -2.45403 0 
-7.48718 -2.45667 0 
-7.26292 -2.45941 0 
-7.04356 -2.45825 0 
-6.82663 -2.45949 0 
-6.61223 -2.45936 0 
-6.39992 -2.45853 0 
-6.18867 -2.45849 0 
-5.97749 -2.45877 0 
-5.76699 -2.45799 0 
-5.55658 -2.4578 0 
-5.34571 -2.45799 0 
-5.13517 -2.45734 0 
-4.92428 -2.45784 0 
-4.71284 -2.45824 0 
-4.50149 -2.45775 0 
-4.29036 -2.45709 0 
-4.07863 -2.45749 0 
-3.86681 -2.45748 0 
-3.65467 -2.45767 0 
-3.44278 -2.45758 0 
-3.23083 -2.45751 0 
-3.01903 -2.4578 0 
-2.80735 -2.45863 0 
-2.59612 -2.4596 0 
-2.38564 -2.45921 0 
-2.17563 -2.45992 0 
-1.96654 -2.46181 0 
-1.75609 -2.46469 0 
-1.54418 -2.46405 0 
-1.33231 -2.46151 0 
-1.11941 -2.45538 0 
-0.903161 -2.45283 0 
-0.686776 -2.44912 0 
-0.469727 -2.43716 0 
-0.258328 -2.39836 0 
-0.0499977 -2.40875 0 
0.158456 -2.39007 0 
0.366443 -2.37214 0 
0.578664 -2.42271 0 
0.794472 -2.44426 0 
1.01287 -2.45308 0 
1.23194 -2.46146 0 
1.44534 -2.46148 0 
1.65697 -2.46259 0 
1.86775 -2.46373 0 
2.07828 -2.46376 0 
2.28736 -2.46119 0 
2.49669 -2.45945 0 
2.70703 -2.45807 0 
2.91825 -2.45926 0 
3.12992 -2.45849 0 
3.34187 -2.45777 0 
3.55379 -2.45719 0 
3.7659 -2.45724 0 
3.97795 -2.45732 0 
4.19048 -2.45784 0 
4.40343 -2.45837 0 
4.61535 -2.45773 0 
4.82747 -2.4572 0 
5.04026 -2.45798 0 
5.2525 -2.45726 0 
5.46482 -2.4569 0 
5.67722 -2.45704 0 
5.88918 -2.45812 0 
6.09977 -2.45685 0 
6.30931 -2.45872 0 
6.51988 -2.45923 0 
6.73103 -2.45911 0 
6.94289 -2.45899 0 
7.15509 -2.45929 0 
7.37087 -2.45647 0 
7.58887 -2.44901 0 
7.80336 -2.43542 0 
8.04642 -2.44363 0 
8.28873 -2.5001 0 
8.53831 -2.4572 0 
-8.53831 -2.26549 0 
-8.32826 -2.2582 0 
-8.00872 -2.23071 0 
-7.78033 -2.2389 0 
-7.54451 -2.2463 0 
-7.31103 -2.24895 0 
-7.08459 -2.24674 0 
-6.8625 -2.24835 0 
-6.64345 -2.24787 0 
-6.42724 -2.24629 0 
-6.21303 -2.24597 0 
-5.9998 -2.24679 0 
-5.78652 -2.24546 0 
-5.57403 -2.24515 0 
-5.36161 -2.24587 0 
-5.14872 -2.24472 0 
-4.93638 -2.24543 0 
-4.72395 -2.24643 0 
-4.51099 -2.24569 0 
-4.2984 -2.24457 0 
-4.08623 -2.24554 0 
-3.87358 -2.24544 0 
-3.66112 -2.24571 0 
-3.44884 -2.2454 0 
-3.23684 -2.24546 0 
-3.02511 -2.24576 0 
-2.81395 -2.24684 0 
-2.60332 -2.24814 0 
-2.39324 -2.24763 0 
-2.1838 -2.2487 0 
-1.97384 -2.24895 0 
-1.76521 -2.25404 0 
-1.55379 -2.25359 0 
-1.34028 -2.24837 0 
-1.12961 -2.23587 0 
-0.916733 -2.23733 0 
-0.694524 -2.22852 0 
-0.476568 -2.20731 0 
-0.258972 -2.15304 0 
-0.0450268 -2.15906 0 
0.165326 -2.13237 0 
0.351617 -2.08015 0 
0.551085 -2.17898 0 
0.772801 -2.21478 0 
0.995055 -2.2345 0 
1.21564 -2.24929 0 
1.43412 -2.24807 0 
1.64893 -2.2502 0 
1.86067 -2.25289 0 
2.07156 -2.25407 0 
2.28272 -2.24982 0 
2.49272 -2.24771 0 
2.70274 -2.24677 0 
2.91397 -2.24787 0 
3.12548 -2.24705 0 
3.33745 -2.24617 0 
3.54976 -2.24517 0 
3.76197 -2.24525 0 
3.97433 -2.24519 0 
4.18646 -2.24638 0 
4.39944 -2.24732 0 
4.61259 -2.24551 0 
4.82459 -2.24512 0 
5.03712 -2.24639 0 
5.24987 -2.2451 0 
5.46245 -2.24474 0 
5.67496 -2.24513 0 
5.88747 -2.2458 0 
6.09857 -2.24438 0 
6.30874 -2.24554 0 
6.51785 -2.24733 0 
6.72804 -2.24783 0 
6.93949 -2.24765 0 
7.15207 -2.24591 0 
7.36452 -2.24494 0 
7.57787 -2.23068 0 
7.81417 -2.23303 0 
8.05307 -2.23469 0 
8.29378 -2.28527 0 
8.53831 -2.24506 0 
-8.4354 -1.99983 0 
-8.20105 -2.08221 0 
-7.9624 -2.00347 0 
-7.73006 -2.0285 0 
-7.4973 -2.03794 0 
-7.27241 -2.03756 0 
-7.05111 -2.03572 0 
-6.83414 -2.03735 0 
-6.62022 -2.03601 0 
-6.40831 -2.03398 0 
-6.19746 -2.03365 0 
-5.98641 -2.03496 0 
-5.77597 -2.03297 0 
-5.56537 -2.03273 0 
-5.35396 -2.03401 0 
-5.14284 -2.03234 0 
-4.93156 -2.03319 0 
-4.71939 -2.03488 0 
-4.50747 -2.03377 0 
-4.29566 -2.03231 0 
-4.08329 -2.03393 0 
-3.87108 -2.03358 0 
-3.65895 -2.03357 0 
-3.4467 -2.0334 0 
-3.23473 -2.03355 0 
-3.02315 -2.03381 0 
-2.81189 -2.03504 0 
-2.60115 -2.03639 0 
-2.39064 -2.03566 0 
-2.17945 -2.03758 0 
-1.96848 -2.03588 0 
-1.75506 -2.04326 0 
-1.54015 -2.04144 0 
-1.32624 -2.02913 0 
-1.10906 -2.01316 0 
-0.881449 -2.021 0 
-0.65427 -2.00233 0 
-0.425444 -1.96948 0 
-0.230735 -1.84813 0 
-0.0630048 -1.90904 0 
0.125658 -1.85063 0 
0.323881 -1.80565 0 
0.54822 -1.92083 0 
0.764841 -1.98248 0 
0.993025 -2.01184 0 
1.21879 -2.0318 0 
1.43978 -2.03304 0 
1.65461 -2.03589 0 
1.86664 -2.04064 0 
2.07737 -2.04342 0 
2.28708 -2.0381 0 
2.4961 -2.03544 0 
2.70664 -2.03555 0 
2.91697 -2.03626 0 
3.12772 -2.03542 0 
3.33905 -2.03451 0 
3.55063 -2.03316 0 
3.76272 -2.03336 0 
3.97461 -2.03296 0 
4.18655 -2.03419 0 
4.39848 -2.03625 0 
4.6103 -2.03317 0 
4.82216 -2.03269 0 
5.03404 -2.03459 0 
5.24665 -2.03307 0 
5.4591 -2.03269 0 
5.67168 -2.03304 0 
5.884 -2.03426 0 
6.096 -2.0322 0 
6.30664 -2.03278 0 
6.51561 -2.03418 0 
6.72413 -2.03587 0 
6.93419 -2.03627 0 
7.14605 -2.03363 0 
7.35977 -2.02881 0 
7.58837 -2.02773 0 
7.82086 -2.02583 0 
8.05628 -2.02314 0 
8.29531 -2.06883 0 
8.53831 -2.03293 0 
-8.56987 -1.8267 0 
-8.24662 -1.83766 0 
-8.03709 -1.80992 0 
-7.76973 -1.80728 0 
-7.53766 -1.82661 0 
-7.30492 -1.82501 0 
-7.08028 -1.82501 0 
-6.85766 -1.82554 0 
-6.64049 -1.82418 0 
-6.4256 -1.82188 0 
-6.21232 -1.82126 0 
-5.99994 -1.8232 0 
-5.78723 -1.82064 0 
-5.57511 -1.82031 0 
-5.36283 -1.82225 0 
-5.14986 -1.8201 0 
-4.93726 -1.82084 0 
-4.72477 -1.82345 0 
-4.51147 -1.82198 0 
-4.29857 -1.82034 0 
-4.08565 -1.8224 0 
-3.8728 -1.82177 0 
-3.66009 -1.82159 0 
-3.44735 -1.82153 0 
-3.23524 -1.82154 0 
-3.02401 -1.82187 0 
-2.81326 -1.82327 0 
-2.60274 -1.82444 0 
-2.39257 -1.82369 0 
-2.18143 -1.82557 0 
-1.96785 -1.82307 0 
-1.75438 -1.83109 0 
-1.54023 -1.82375 0 
-1.32297 -1.80749 0 
-1.0877 -1.79847 0 
-0.85781 -1.79832 0 
-0.621382 -1.77738 0 
-0.406255 -1.70931 0 
-0.180124 -1.57029 0 
0.000183995 -1.60934 0 
0.206189 -1.55269 0 
0.489806 -1.65935 0 
0.727459 -1.73359 0 
0.960737 -1.78366 0 
1.19815 -1.81206 0 
1.42904 -1.81646 0 
1.65272 -1.81916 0 
1.86803 -1.8262 0 
2.07954 -1.8311 0 
2.28938 -1.82465 0 
2.50097 -1.82402 0 
2.71135 -1.82367 0 
2.92153 -1.82424 0 
3.13209 -1.82347 0 
3.34302 -1.8224 0 
3.55485 -1.8213 0 
3.76655 -1.82115 0 
3.97834 -1.82078 0 
4.19014 -1.82194 0 
4.40159 -1.82381 0 
4.61305 -1.82065 0 
4.82456 -1.82008 0 
5.03654 -1.82254 0 
5.24855 -1.82067 0 
5.46107 -1.82065 0 
5.67269 -1.82009 0 
5.88403 -1.82251 0 
6.09494 -1.81973 0 
6.30518 -1.82082 0 
6.51496 -1.821 0 
6.7231 -1.82278 0 
6.93146 -1.82403 0 
7.14254 -1.82084 0 
7.36509 -1.82343 0 
7.59154 -1.82061 0 
7.81981 -1.81469 0 
8.056 -1.8119 0 
8.2957 -1.85173 0 
8.53831 -1.8208 0 
-8.41711 -1.66222 0 
-8.20265 -1.57225 0 
-7.95509 -1.61169 0 
[...]
POINT_DATA 2122 
VECTORS vectors float
-0.000162646 -0.000733963 1 
0.000199922 -0.0209886 0.99978 
-6.25813e-06 -0.0257421 0.999669 
7.1754e-05 -0.0255289 0.999674 
4.82672e-05 -0.0237858 0.999717 
5.51102e-05 -0.021521 0.999768 
5.3142e-05 -0.018867 0.999822 
5.36525e-05 -0.0159545 0.999873 
5.37571e-05 -0.0130203 0.999915 
5.39556e-05 -0.0102575 0.999947 
5.41764e-05 -0.00774534 0.99997 
5.43018e-05 -0.00546355 0.999985 
5.43559e-05 -0.00333744 0.999994 
5.43539e-05 -0.00127138 0.999999 
5.43482e-05 0.000838082 1 
5.4223e-05 0.00310145 0.999995 
5.41265e-05 0.00563657 0.999984 
5.39111e-05 0.00857344 0.999963 
5.3644e-05 0.0120633 0.999927 
5.31797e-05 0.016286 0.999867 
5.2994e-05 0.0214587 0.99977 
5.19992e-05 0.0278647 0.999612 
5.14716e-05 0.0358845 0.999356 
5.08251e-05 0.0456838 0.998956 
4.91428e-05 0.0580551 0.998313 
4.82395e-05 0.0736032 0.997288 
4.53779e-05 0.093132 0.995654 
4.46654e-05 0.117607 0.99306 
4.07593e-05 0.148103 0.988972 
3.62563e-05 0.187161 0.982329 
3.22236e-05 0.235739 0.971816 
2.66449e-05 0.295585 0.955316 
2.00543e-05 0.368114 0.929781 
1.10102e-05 0.454884 0.890551 
3.60335e-06 0.555448 0.831551 
-8.69446e-06 0.666716 0.745312 
-1.26577e-05 0.781112 0.624391 
-1.49659e-05 0.883921 0.467637 
-1.20986e-05 0.961644 0.274299 
-4.17003e-06 0.99842 0.0561835 
9.64695e-06 0.985868 -0.167523 
1.3614e-05 0.926336 -0.376698 
1.77088e-05 0.833417 -0.552645 
7.31012e-06 0.723215 -0.690623 
1.59682e-06 0.611271 -0.791421 
-3.95943e-06 0.503955 -0.86373 
-1.74397e-05 0.409705 -0.912218 
-2.25968e-05 0.329907 -0.944013 
-2.98315e-05 0.263935 -0.964541 
-3.46435e-05 0.210264 -0.977645 
-3.9355e-05 0.167027 -0.985952 
-4.17936e-05 0.132359 -0.991202 
-4.47031e-05 0.104492 -0.994526 
-4.78699e-05 0.0827936 -0.996567 
-4.8199e-05 0.0654094 -0.997859 
-5.02221e-05 0.0515334 -0.998671 
-5.09947e-05 0.0404592 -0.999181 
-5.19213e-05 0.0316006 -0.999501 
-5.2459e-05 0.0244934 -0.9997 
-5.31754e-05 0.0187724 -0.999824 
-5.34268e-05 0.0141593 -0.9999 
-5.37487e-05 0.0103075 -0.999947 
-5.40173e-05 0.00712197 -0.999975 
-5.41978e-05 0.00442656 -0.99999 
-5.43324e-05 0.00208037 -0.999998 
-5.44133e-05 -3.86618e-05 -1 
-5.43283e-05 -0.00204307 -0.999998 
-5.45714e-05 -0.00403647 -0.999992 
-5.41263e-05 -0.00612016 -0.999981 
-5.43231e-05 -0.00839451 -0.999965 
-5.40307e-05 -0.0109054 -0.999941 
-5.38494e-05 -0.01365 -0.999907 
-5.37935e-05 -0.016519 -0.999864 
-5.32666e-05 -0.0192991 -0.999814 
-5.63223e-05 -0.0217752 -0.999763 
-4.6315e-05 -0.0239185 -0.999714 
-7.18703e-05 -0.0256878 -0.99967 
-2.38943e-05 -0.0261866 -0.999657 
-5.61495e-05 -0.0224735 -0.999747 
-1.58292e-05 -0.00139748 -0.999999 
0.000104175 0.000249122 1 
0.00707581 -0.0175876 0.99982 
0.0102437 -0.0240637 0.999658 
0.0117651 -0.0257261 0.9996 
0.0128975 -0.0244203 0.999619 
0.0135123 -0.0220418 0.999666 
0.013969 -0.0192866 0.999716 
0.0142971 -0.0163576 0.999764 
0.0145443 -0.0134035 0.999804 
0.0147518 -0.0105875 0.999835 
0.0149028 -0.00800292 0.999857 
0.0150051 -0.00564709 0.999871 
0.015078 -0.00345577 0.99988 
0.0151155 -0.00134002 0.999885 
0.0151198 0.000810102 0.999885 
0.0151051 0.00310998 0.999881 
0.0150527 0.00567374 0.999871 
0.0149744 0.00864104 0.999851 
0.0148768 0.0121671 0.999815 
0.0147519 0.0164263 0.999756 
0.0145825 0.0216316 0.99966 
0.0143733 0.0280624 0.999503 
0.0141147 0.0360231 0.999251 
0.0138557 0.0460445 0.998843 
0.0135466 0.0585386 0.998193 
0.0131742 0.0742014 0.997156 
0.012746 0.0938556 0.995504 
0.012258 0.118538 0.992874 
0.0117696 0.14943 0.988702 
0.0111241 0.187464 0.982208 
0.0105297 0.235532 0.971809 
0.00992391 0.294993 0.955448 
0.0093312 0.366637 0.930317 
0.00879308 0.452823 0.891557 
0.00834057 0.552918 0.833194 
0.00776683 0.663954 0.747733 
0.0069118 0.778757 0.627287 
0.00555468 0.884384 0.466726 
0.00380283 0.962073 0.272766 
0.000744161 0.998667 0.0516181 
-0.00241496 0.984684 -0.174334 
-0.00542321 0.926919 -0.375222 
-0.0063847 0.836374 -0.548122 
-0.00740513 0.723478 -0.690308 
-0.0080399 0.609022 -0.793112 
-0.0085044 0.501987 -0.864833 
-0.00899747 0.407264 -0.913266 
-0.00957992 0.328166 -0.944572 
-0.0101804 0.262932 -0.964761 
-0.0107971 0.209836 -0.977677 
-0.011412 0.167018 -0.985888 
-0.0119986 0.132774 -0.991074 
-0.0125745 0.105516 -0.994338 
-0.012974 0.0835136 -0.996422 
-0.0133763 0.0659563 -0.997733 
-0.0137306 0.0519708 -0.998554 
-0.0140348 0.0408139 -0.999068 
-0.0142883 0.0318952 -0.999389 
-0.0144989 0.0247365 -0.999589 
-0.0146689 0.0189676 -0.999712 
-0.0147908 0.0142683 -0.999789 
-0.0149252 0.01043 -0.999834 
-0.0150458 0.00723692 -0.999861 
-0.0151119 0.00452297 -0.999876 
-0.0151604 0.00215261 -0.999883 
-0.0151996 1.28519e-05 -0.999884 
-0.0152114 -0.00201225 -0.999882 
-0.0151806 -0.00402671 -0.999877 
-0.0150987 -0.00611812 -0.999867 
-0.015051 -0.0083905 -0.999852 
-0.0149534 -0.0108582 -0.999829 
-0.0148272 -0.0135015 -0.999799 
-0.0146574 -0.0162298 -0.999761 
-0.014455 -0.0189092 -0.999717 
-0.0141846 -0.0213902 -0.999671 
-0.0137396 -0.0235552 -0.999628 
-0.0130049 -0.0250037 -0.999603 
-0.0118227 -0.0247655 -0.999623 
-0.00751791 -0.0196272 -0.999779 
0.000212884 0.000409219 -1 
0.00283061 -0.0129531 0.999912 
0.00787684 -0.0246155 0.999666 
0.0123121 -0.026854 0.999564 
0.0147655 -0.0263724 0.999543 
0.0162843 -0.0240794 0.999577 
0.0172547 -0.0213164 0.999624 
0.0179455 -0.0184734 0.999668 
0.0184479 -0.0156095 0.999708 
0.0188379 -0.0128 0.999741 
0.0191361 -0.0101219 0.999766 
0.0193471 -0.00763271 0.999784 
0.0194897 -0.00533356 0.999796 
0.0195843 -0.00318054 0.999803 
0.0196271 -0.00108079 0.999807 
0.0196272 0.00107099 0.999807 
0.0195964 0.0033752 0.999802 
0.0195197 0.00595503 0.999792 
0.0194085 0.00894528 0.999772 
0.0192669 0.0124901 0.999736 
0.019087 0.0167647 0.999677 
0.0188578 0.0220036 0.99958 
0.0185888 0.0284699 0.999422 
0.0182782 0.0365101 0.999166 
0.0179432 0.0465473 0.998755 
0.0175684 0.0591023 0.998097 
0.0171566 0.0748264 0.997049 
0.0167209 0.0945436 0.99538 
0.0162857 0.119236 0.992732 
0.0158972 0.150085 0.988545 
0.0155707 0.188545 0.981941 
0.0152899 0.235478 0.971759 
0.0151608 0.293685 0.955782 
0.0153558 0.365833 0.930554 
0.015792 0.451868 0.891945 
0.0164157 0.550713 0.834533 
0.0166614 0.663601 0.747901 
0.0159505 0.779841 0.625774 
0.0136881 0.885731 0.463997 
0.00971631 0.962936 0.269553 
0.00192751 0.998604 0.0527922 
-0.00619246 0.985599 -0.168983 
-0.0136562 0.927064 -0.374653 
-0.0157721 0.833967 -0.551589 
-0.0165387 0.721372 -0.69235 
-0.0164248 0.604433 -0.796487 
-0.015811 0.496514 -0.867885 
-0.0154187 0.403763 -0.914734 
-0.0151597 0.325787 -0.945322 
-0.0151296 0.261458 -0.965096 
-0.0153159 0.209016 -0.977792 
-0.0156624 0.166873 -0.985854 
-0.0160786 0.13293 -0.990995 
-0.0165353 0.105628 -0.994268 
-0.0169639 0.0836988 -0.996347 
-0.0173935 0.0661871 -0.997656 
-0.0177938 0.0522082 -0.998478 
-0.0181552 0.0410484 -0.998992 
-0.0184698 0.0321066 -0.999314 
-0.0187391 0.0249251 -0.999514 
-0.0189789 0.0191332 -0.999637 
-0.0191772 0.0144175 -0.999712 
-0.0193383 0.010561 -0.999757 
-0.0194797 0.00734991 -0.999783 
-0.0195764 0.00461131 -0.999798 
-0.0196499 0.00222576 -0.999804 
-0.0196903 6.30111e-05 -0.999806 
-0.0197044 -0.00198857 -0.999804 
-0.0197034 -0.00403113 -0.999798 
-0.0196255 -0.00613259 -0.999789 
-0.0194915 -0.0083782 -0.999775 
-0.0193216 -0.0108049 -0.999755 
-0.0191035 -0.0133624 -0.999728 
-0.0188272 -0.0159663 -0.999695 
-0.0184646 -0.0185379 -0.999658 
-0.0179775 -0.0210516 -0.999617 
-0.0171482 -0.0232322 -0.999583 
-0.0160161 -0.0247519 -0.999565 
-0.01381 -0.0243869 -0.999607 
-0.00983307 -0.0195174 -0.999761 
-0.000526416 -0.000121413 -1 
1.62454e-05 1.63838e-05 1 
0.00277264 -0.0232959 0.999725 
0.0104378 -0.0298495 0.9995 
0.0137518 -0.0285278 0.999498 
0.0159078 -0.025636 0.999545 
0.0172822 -0.0223976 0.9996 
0.018211 -0.0192801 0.999648 
0.0189037 -0.0162796 0.999689 
0.0194177 -0.0133777 0.999722 
0.0197928 -0.0106023 0.999748 
0.0200602 -0.00801342 0.999767 
0.0202426 -0.00562858 0.999779 
0.0203524 -0.00339727 0.999787 
0.0204079 -0.00124072 0.999791 
0.0204169 0.000951003 0.999791 
0.0203797 0.00329536 0.999787 
0.0203053 0.00589909 0.999776 
0.0201915 0.00890096 0.999757 
0.0200349 0.0124632 0.999722 
0.0198395 0.0167513 0.999663 
0.0196093 0.0219763 0.999566 
0.01934 0.0284355 0.999409 
0.0190447 0.0364498 0.999154 
0.0187298 0.0464348 0.998746 
0.0184038 0.0588944 0.998095 
0.018084 0.0744683 0.997059 
0.0178015 0.093918 0.995421 
0.0175999 0.118206 0.992833 
0.0175451 0.148479 0.98876 
0.0177034 0.186035 0.982384 
0.0181507 0.23243 0.972444 
0.0189594 0.289332 0.957041 
0.020319 0.359368 0.932975 
0.0222878 0.443758 0.895869 
0.0248668 0.541772 0.840158 
0.0265977 0.651023 0.758592 
0.0271226 0.770135 0.637305 
0.024733 0.879333 0.475566 
0.0181439 0.961273 0.274999 
0.00342387 0.998818 0.0484782 
-0.0126551 0.98357 -0.180083 
-0.02699 0.928694 -0.369863 
-0.0278354 0.842821 -0.537474 
-0.0277733 0.727822 -0.685204 
-0.0258328 0.609375 -0.792461 
-0.0232628 0.500802 -0.865249 
-0.0212514 0.405365 -0.913908 
-0.0195673 0.326424 -0.945021 
-0.0184244 0.262123 -0.964859 
-0.0177839 0.209863 -0.977569 
-0.0175373 0.167371 -0.985738 
-0.0175247 0.133379 -0.99091 
-0.0176811 0.106135 -0.994195 
-0.0179399 0.0842363 -0.996284 
-0.0182526 0.0667138 -0.997605 
-0.0185813 0.0526869 -0.998438 
-0.0189029 0.041457 -0.998961 
-0.019203 0.0324656 -0.999288 
-0.0194518 0.0252049 -0.999493 
-0.0197327 0.0194145 -0.999617 
-0.0199742 0.0146826 -0.999693 
-0.0200908 0.0107438 -0.99974 
-0.0202539 0.00751368 -0.999767 
-0.0203699 0.00475218 -0.999781 
-0.0204396 0.00233393 -0.999788 
-0.0204732 0.000141767 -0.99979 
-0.0204701 -0.0019362 -0.999789 
-0.0204293 -0.00400435 -0.999783 
-0.0204031 -0.00615618 -0.999773 
-0.0202422 -0.00842187 -0.99976 
-0.0200358 -0.0108269 -0.999741 
-0.0197618 -0.0133287 -0.999716 
-0.019406 -0.0158429 -0.999686 
-0.0189463 -0.0183407 -0.999652 
-0.0183266 -0.0207895 -0.999616 
-0.0174064 -0.0230765 -0.999582 
-0.0160353 -0.0248451 -0.999563 
-0.0138408 -0.0244014 -0.999606 
-0.0101774 -0.0193199 -0.999762 
-0.000302327 9.81011e-06 -1 
-6.56746e-05 -0.0333124 0.999445 
0.00558691 -0.0325603 0.999454 
0.00989927 -0.0330762 0.999404 
0.0129861 -0.0298569 0.99947 
0.0149675 -0.0260318 0.999549 
0.0162314 -0.0224934 0.999615 
0.017138 -0.0192469 0.999668 
0.0178445 -0.0162221 0.999709 
0.0183552 -0.0133292 0.999743 
0.0187197 -0.0105569 0.999769 
0.0189849 -0.00796169 0.999788 
0.0191758 -0.00555979 0.999801 
0.0192729 -0.00332032 0.999809 
0.0193269 -0.00114657 0.999813 
0.0193447 0.00107043 0.999812 
0.0192982 0.00343066 0.999808 
0.0192305 0.00605499 0.999797 
0.0191312 0.0090846 0.999776 
0.0189754 0.0126586 0.99974 
0.0187836 0.0169557 0.99968 
0.0185821 0.0222051 0.999581 
0.018339 0.0286606 0.999421 
0.0180962 0.0366765 0.999163 
0.0178528 0.0466506 0.998752 
0.0176326 0.059072 0.998098 
0.0174678 0.0745559 0.997064 
0.0174111 0.0938752 0.995432 
0.0175282 0.117951 0.992865 
0.017918 0.147951 0.988832 
0.0187158 0.18552 0.982462 
0.0200074 0.231254 0.972688 
0.0220276 0.289555 0.956908 
0.0249465 0.359774 0.932706 
0.0290716 0.443663 0.895722 
0.034308 0.543153 0.838932 
0.0384775 0.661191 0.74923 
0.0415028 0.783148 0.620449 
0.0390941 0.895559 0.443222 
0.0345049 0.964856 0.260505 
0.00798999 0.997484 0.0704431 
-0.0198139 0.989115 -0.145805 
-0.0473119 0.931168 -0.361508 
-0.0462973 0.834376 -0.549248 
-0.0418876 0.72247 -0.690132 
-0.0364509 0.601603 -0.797963 
-0.0308537 0.490843 -0.870701 
-0.0265482 0.397052 -0.917412 
-0.0231632 0.320243 -0.947052 
-0.0207386 0.257616 -0.966025 
-0.0191742 0.206953 -0.978163 
-0.0181867 0.165394 -0.98606 
-0.0176451 0.132136 -0.991074 
-0.017429 0.105259 -0.994292 
-0.0174427 0.0838098 -0.996329 
-0.0175681 0.0665397 -0.997629 
-0.0177641 0.0526643 -0.998454 
-0.0179912 0.0415317 -0.998975 
-0.0182528 0.0326077 -0.999302 
-0.018506 0.0254339 -0.999505 
-0.0187103 0.0195772 -0.999633 
-0.018901 0.0148136 -0.999712 
-0.0190879 0.010942 -0.999758 
-0.0191931 0.00766708 -0.999786 
-0.0193154 0.00488623 -0.999802 
-0.0193687 0.00244129 -0.999809 
-0.019393 0.000222594 -0.999812 
-0.0193704 -0.00188284 -0.999811 
-0.0193859 -0.00398575 -0.999804 
-0.0192445 -0.00615346 -0.999796 
-0.0191126 -0.00846455 -0.999782 
-0.0188976 -0.010883 -0.999762 
-0.0186191 -0.0133539 -0.999737 
-0.0182284 -0.0157958 -0.999709 
-0.0177201 -0.0182357 -0.999677 
-0.0169957 -0.0206451 -0.999642 
-0.0161224 -0.0231839 -0.999601 
-0.0148651 -0.0249683 -0.999578 
-0.0129117 -0.0245352 -0.999616 
-0.00971038 -0.0193669 -0.999765 
-0.000292108 -2.38874e-05 -1 
-0.00129179 -0.0425424 0.999094 
0.00443017 -0.0388715 0.999234 
0.00795647 -0.0368346 0.99929 
0.0110786 -0.032373 0.999414 
0.0130161 -0.0278349 0.999528 
0.0142997 -0.0237367 0.999616 
0.015237 -0.0201881 0.99968 
0.0159627 -0.0169426 0.999729 
0.016487 -0.0139013 0.999767 
0.0168556 -0.0109956 0.999797 
0.0171228 -0.00828531 0.999819 
0.017324 -0.00579764 0.999833 
0.0174148 -0.00348136 0.999842 
0.0174702 -0.00125287 0.999847 
0.0175001 0.00100188 0.999846 
0.0174514 0.00340273 0.999842 
0.0173928 0.00605682 0.99983 
0.0173178 0.00909668 0.999809 
0.0171738 0.0126923 0.999772 
0.0170027 0.0170032 0.999711 
0.0168428 0.0222496 0.999611 
0.0166224 0.0286602 0.999451 
0.0164612 0.0366756 0.999192 
0.0163095 0.0465951 0.998781 
0.016211 0.0588991 0.998132 
0.0162151 0.0741578 0.997115 
0.0163913 0.0931183 0.99552 
0.0168233 0.116687 0.993026 
0.0176321 0.14589 0.989144 
0.0189937 0.182179 0.983082 
0.0212366 0.228217 0.973379 
0.0243737 0.284246 0.958441 
0.0289774 0.352505 0.935361 
0.0355107 0.435214 0.899626 
0.0442346 0.541353 0.839631 
0.0530379 0.659548 0.749789 
0.0610914 0.786067 0.615115 
0.06671 0.889841 0.451367 
0.0634334 0.969737 0.235769 
-0.000805941 0.999995 -0.003192 
-0.0733852 0.95847 -0.275589 
-0.0744642 0.843898 -0.53131 
-0.0615699 0.724809 -0.686194 
-0.049339 0.604254 -0.795263 
-0.0391346 0.490026 -0.870829 
-0.0317261 0.393189 -0.91891 
-0.0262459 0.314875 -0.94877 
-0.0224075 0.252949 -0.96722 
-0.0198444 0.203173 -0.978942 
-0.0181724 0.162894 -0.986476 
-0.0171246 0.130144 -0.991347 
-0.0165285 0.103837 -0.994457 
-0.016317 0.0830433 -0.996412 
-0.0162312 0.0660227 -0.997686 
-0.0162778 0.052362 -0.998495 
-0.0163853 0.0413131 -0.999012 
-0.0166009 0.0325651 -0.999332 
-0.0167442 0.0253679 -0.999538 
-0.0169507 0.0196009 -0.999664 
-0.0171547 0.0149014 -0.999742 
-0.0172522 0.0109954 -0.999791 
-0.0173392 0.00772076 -0.99982 
-0.0175007 0.00494152 -0.999835 
-0.017527 0.00248193 -0.999843 
-0.0175579 0.000239379 -0.999846 
-0.0175692 -0.00188565 -0.999844 
-0.0175101 -0.00399588 -0.999839 
-0.0174281 -0.00620608 -0.999829 
-0.0172645 -0.0085323 -0.999815 
-0.0170063 -0.0109705 -0.999795 
-0.0167602 -0.0134683 -0.999769 
-0.016342 -0.0158408 -0.999741 
-0.0157546 -0.0181667 -0.999711 
-0.0151826 -0.0207807 -0.999669 
-0.0143144 -0.0232684 -0.999627 
-0.0131724 -0.0250515 -0.999599 
-0.011488 -0.02466 -0.99963 
-0.00873748 -0.019451 -0.999773 
-0.000255486 -1.51594e-05 -1 
0.00168663 -0.0420237 0.999115 
0.0055573 -0.0419902 0.999103 
0.00848634 -0.0375912 0.999257 
0.0104034 -0.0327276 0.99941 
0.0118412 -0.0278035 0.999543 
0.012797 -0.0236625 0.999638 
0.0135976 -0.020069 0.999706 
0.0141778 -0.0168632 0.999757 
0.0146241 -0.0138093 0.999798 
0.0149382 -0.0108953 0.999829 
0.0151688 -0.00818577 0.999851 
0.0153508 -0.00569281 0.999866 
0.0154202 -0.00337716 0.999875 
0.0154694 -0.00113835 0.99988 
0.0155017 0.00113319 0.999879 
0.015452 0.00354332 0.999874 
0.0154021 0.00620787 0.999862 
0.0153495 0.00926383 0.999839 
0.015221 0.0128486 0.999802 
0.0150836 0.0171641 0.999739 
0.0149833 0.0223982 0.999637 
0.0148362 0.0287673 0.999476 
0.0147064 0.0365842 0.999222 
0.0146365 0.0463127 0.99882 
0.0146439 0.0584207 0.998185 
0.0147922 0.0733572 0.997196 
0.0151633 0.0918008 0.995662 
0.0158519 0.114652 0.993279 
0.0169996 0.14295 0.989584 
0.0188441 0.178024 0.983846 
0.0216769 0.22173 0.974867 
0.025943 0.277029 0.960511 
0.0321624 0.343999 0.938419 
0.0417649 0.434798 0.899559 
0.0550512 0.539527 0.840166 
0.0707148 0.661204 0.746866 
0.0903054 0.781195 0.617721 
0.114878 0.889391 0.442478 
-0.118883 0.871205 -0.476308 
-0.0888318 0.737498 -0.669481 
-0.0651426 0.611795 -0.78833 
-0.0483351 0.495345 -0.86735 
-0.036955 0.395269 -0.917822 
-0.0289783 0.313537 -0.949134 
-0.0235989 0.249618 -0.968057 
-0.0200814 0.19993 -0.979604 
-0.0178035 0.160177 -0.986928 
-0.0163521 0.128394 -0.991588 
-0.015485 0.102997 -0.994561 
-0.0149551 0.0821836 -0.996505 
-0.0147302 0.0656169 -0.997736 
-0.0146653 0.0521603 -0.998531 
-0.0147043 0.0413617 -0.999036 
-0.0147642 0.0325103 -0.999362 
-0.0149237 0.0254732 -0.999564 
-0.0150444 0.0196692 -0.999693 
-0.0151655 0.014923 -0.999774 
-0.0152796 0.0110519 -0.999822 
-0.0154013 0.00779308 -0.999851 
-0.0154603 0.00496767 -0.999868 
-0.015518 0.00249517 -0.999876 
-0.0155436 0.000242335 -0.999879 
-0.0155428 -0.00190659 -0.999877 
-0.0155371 -0.00405351 -0.999871 
-0.015395 -0.00627544 -0.999862 
-0.0152948 -0.0086566 -0.999846 
-0.0150421 -0.0111163 -0.999825 
-0.0147411 -0.01359 -0.999799 
-0.0143826 -0.0160208 -0.999768 
-0.0138642 -0.0184187 -0.999734 
-0.0132951 -0.020849 -0.999694 
-0.0124752 -0.0232924 -0.999651 
-0.0114653 -0.0251152 -0.999619 
-0.0100146 -0.0247563 -0.999643 
-0.00765574 -0.0195511 -0.99978 
-0.000223849 -1.72206e-05 -1 
-0.000418125 -0.0328957 0.999459 
0.00491046 -0.0434762 0.999042 
0.00768619 -0.0410934 0.999126 
0.00919243 -0.0357005 0.99932 
0.0103147 -0.0296948 0.999506 
0.0111135 -0.0251063 0.999623 
0.0117999 -0.0211577 0.999707 
0.0122896 -0.017712 0.999768 
0.0126849 -0.0144987 0.999814 
0.0129657 -0.0114415 0.99985 
0.0131688 -0.00860337 0.999876 
0.0133411 -0.00601279 0.999893 
0.0134017 -0.00361656 0.999904 
0.0134461 -0.00131602 0.999909 
0.0134832 0.0010009 0.999909 
0.0134386 0.00344859 0.999904 
0.0133979 0.00614768 0.999891 
0.0133687 0.00922522 0.999868 
0.0132514 0.0128216 0.99983 
0.0131391 0.0171093 0.999767 
0.0129946 0.0223207 0.999666 
0.0129468 0.0288178 0.999501 
0.0129022 0.0367215 0.999242 
0.012923 0.0465316 0.998833 
0.0130215 0.0585967 0.998197 
0.0132941 0.0734648 0.997209 
0.0138363 0.0918869 0.995673 
0.0147495 0.114706 0.99329 
0.016204 0.142996 0.989591 
0.0184757 0.178006 0.983856 
0.022098 0.223598 0.974431 
0.0272621 0.27762 0.960304 
0.0360224 0.354636 0.93431 
0.0488541 0.445435 0.893981 
0.0682655 0.555974 0.828392 
0.0941524 0.673444 0.733218 
0.135095 0.789342 0.598906 
-0.132167 0.775063 -0.617907 
-0.0864517 0.638228 -0.764977 
-0.0597759 0.516361 -0.854283 
-0.0431595 0.410922 -0.910648 
-0.0321464 0.324487 -0.945344 
-0.024848 0.255171 -0.966577 
-0.0202238 0.20216 -0.979144 
-0.0173534 0.161992 -0.98664 
-0.0154604 0.12939 -0.991473 
-0.0142814 0.103531 -0.994524 
-0.0135756 0.0827883 -0.996475 
-0.0131843 0.0661228 -0.997724 
-0.0130037 0.0526387 -0.998529 
-0.0129321 0.0417058 -0.999046 
-0.0129475 0.0328557 -0.999376 
-0.0130245 0.0257206 -0.999584 
-0.0131183 0.0198943 -0.999716 
-0.0132323 0.015141 -0.999798 
-0.0132936 0.0112062 -0.999849 
-0.0133808 0.00791282 -0.999879 
-0.0134634 0.00508498 -0.999896 
-0.0134983 0.00258645 -0.999906 
-0.0135063 0.000300409 -0.999909 
-0.0134957 -0.00187213 -0.999907 
-0.0134687 -0.00404185 -0.999901 
-0.0134088 -0.00631851 -0.99989 
-0.0132596 -0.00870954 -0.999874 
-0.0130681 -0.011232 -0.999852 
-0.0128175 -0.0137552 -0.999823 
-0.0124885 -0.0161948 -0.999791 
-0.0119816 -0.0184951 -0.999757 
-0.0114575 -0.0209346 -0.999715 
-0.010722 -0.0233787 -0.999669 
-0.00982924 -0.0251839 -0.999635 
-0.00858246 -0.0248204 -0.999655 
-0.00657548 -0.0196024 -0.999786 
-0.000193537 -1.67737e-05 -1 
0.00385188 -0.0505663 0.998713 
0.00757658 -0.0478064 0.998828 
0.00834535 -0.0410796 0.999121 
0.00892514 -0.0342939 0.999372 
0.00930519 -0.0287773 0.999543 
0.00983036 -0.0242825 0.999657 
0.0102352 -0.0205702 0.999736 
0.0105283 -0.0172407 0.999796 
0.0108033 -0.0140908 0.999842 