# vtk DataFile Version 3.0 
Exported using Morpho https://github.com/Morpho-lang/morpho 
ASCII 
DATASET UNSTRUCTURED_GRID 

POINTS 2204 float 
-8.32618 -2.88146 0 
-8.11405 -2.88146 0 
-7.90192 -2.88146 0 
-7.68979 -2.88146 0 
-7.47765 -2.88146 0 
-7.26552 -2.88146 0 
-7.05339 -2.88146 0 
-6.84126 -2.88146 0 
-6.62913 -2.88146 0 
-6.41699 -2.88146 0 
-6.20486 -2.88146 0 
-5.99273 -2.88146 0 
-5.7806 -2.88146 0 
-5.56847 -2.88146 0 
-5.35633 -2.88146 0 
-5.1442 -2.88146 0 
-4.93207 -2.88146 0 
-4.71994 -2.88146 0 
-4.50781 -2.88146 0 
-4.29567 -2.88146 0 
-4.08354 -2.88146 0 
-3.87141 -2.88146 0 
-3.65928 -2.88146 0 
-3.44715 -2.88146 0 
-3.23501 -2.88146 0 
-3.02288 -2.88146 0 
-2.81075 -2.88146 0 
-2.59862 -2.88146 0 
-2.38649 -2.88146 0 
-2.17435 -2.88146 0 
-1.96222 -2.88146 0 
-1.75009 -2.88146 0 
-1.53796 -2.88146 0 
-1.32583 -2.88146 0 
-1.11369 -2.88146 0 
-0.901561 -2.88146 0 
-0.689429 -2.88146 0 
-0.477297 -2.88146 0 
-0.265165 -2.88146 0 
-0.053033 -2.88146 0 
0.159099 -2.88146 0 
0.371231 -2.88146 0 
0.583363 -2.88146 0 
0.795495 -2.88146 0 
1.00763 -2.88146 0 
1.21976 -2.88146 0 
1.43189 -2.88146 0 
1.64402 -2.88146 0 
1.85616 -2.88146 0 
2.06829 -2.88146 0 
2.28042 -2.88146 0 
2.49255 -2.88146 0 
2.70468 -2.88146 0 
2.91682 -2.88146 0 
3.12895 -2.88146 0 
3.34108 -2.88146 0 
3.55321 -2.88146 0 
3.76534 -2.88146 0 
3.97748 -2.88146 0 
4.18961 -2.88146 0 
4.40174 -2.88146 0 
4.61387 -2.88146 0 
4.826 -2.88146 0 
5.03814 -2.88146 0 
5.25027 -2.88146 0 
5.4624 -2.88146 0 
5.67453 -2.88146 0 
5.88666 -2.88146 0 
6.0988 -2.88146 0 
6.31093 -2.88146 0 
6.52306 -2.88146 0 
6.73519 -2.88146 0 
6.94732 -2.88146 0 
7.15946 -2.88146 0 
7.37159 -2.88146 0 
7.58372 -2.88146 0 
7.79585 -2.88146 0 
8.00798 -2.88146 0 
8.22012 -2.88146 0 
8.53831 -2.88146 0 
-8.53831 -2.74011 0 
-8.31249 -2.6426 0 
-8.07699 -2.66831 0 
-7.84646 -2.66378 0 
-7.61716 -2.67368 0 
-7.38201 -2.66735 0 
-7.15632 -2.6667 0 
-6.93173 -2.66861 0 
-6.70803 -2.66499 0 
-6.48801 -2.66417 0 
-6.26988 -2.66557 0 
-6.05192 -2.66849 0 
-5.83359 -2.66672 0 
-5.61786 -2.66649 0 
-5.40191 -2.66569 0 
-5.18876 -2.66745 0 
-4.97354 -2.6684 0 
-4.75986 -2.66771 0 
-4.54697 -2.67212 0 
-4.33157 -2.66841 0 
-4.12362 -2.67753 0 
-3.90305 -2.66947 0 
-3.69709 -2.67586 0 
-3.47962 -2.66917 0 
-3.2729 -2.67071 0 
-3.06046 -2.67042 0 
-2.84949 -2.66979 0 
-2.63789 -2.66743 0 
-2.42706 -2.66912 0 
-2.21592 -2.67064 0 
-2.00304 -2.67238 0 
-1.78847 -2.67193 0 
-1.57394 -2.67037 0 
-1.36068 -2.67181 0 
-1.1415 -2.66515 0 
-0.925243 -2.66497 0 
-0.709411 -2.66113 0 
-0.493272 -2.65561 0 
-0.283681 -2.66153 0 
-0.0675786 -2.66417 0 
0.145085 -2.67169 0 
0.372212 -2.66718 0 
0.584741 -2.6648 0 
0.803113 -2.66965 0 
1.01608 -2.67063 0 
1.24423 -2.68263 0 
1.47056 -2.68947 0 
1.69207 -2.67542 0 
1.90843 -2.67784 0 
2.12108 -2.67044 0 
2.33159 -2.66757 0 
2.54707 -2.67026 0 
2.75851 -2.66872 0 
2.97221 -2.67197 0 
3.1852 -2.67307 0 
3.40383 -2.67585 0 
3.61375 -2.67127 0 
3.83139 -2.67628 0 
4.04195 -2.67121 0 
4.25497 -2.6737 0 
4.4678 -2.67215 0 
4.67828 -2.66828 0 
4.88788 -2.66784 0 
5.09989 -2.66944 0 
5.31012 -2.66951 0 
5.52338 -2.6721 0 
5.73341 -2.67003 0 
5.94545 -2.67118 0 
6.15594 -2.66918 0 
6.36636 -2.66836 0 
6.57699 -2.66742 0 
6.78823 -2.66628 0 
7.00177 -2.66728 0 
7.21537 -2.666 0 
7.42981 -2.66542 0 
7.64547 -2.66431 0 
7.86458 -2.66428 0 
8.07974 -2.65391 0 
8.32161 -2.72881 0 
8.53831 -2.66933 0 
-8.53831 -2.50231 0 
-8.30505 -2.42347 0 
-8.06592 -2.45948 0 
-7.82847 -2.45376 0 
-7.58306 -2.47765 0 
-7.34482 -2.45733 0 
-7.11382 -2.45759 0 
-6.88713 -2.4587 0 
-6.66242 -2.45108 0 
-6.44137 -2.44958 0 
-6.22102 -2.45333 0 
-6.00302 -2.45701 0 
-5.7864 -2.45232 0 
-5.5692 -2.45367 0 
-5.35555 -2.44987 0 
-5.13933 -2.4565 0 
-4.92627 -2.45511 0 
-4.71067 -2.45672 0 
-4.49727 -2.46388 0 
-4.28795 -2.45316 0 
-4.07047 -2.47911 0 
-3.86245 -2.45186 0 
-3.64819 -2.47381 0 
-3.44191 -2.45103 0 
-3.22992 -2.46172 0 
-3.01943 -2.45795 0 
-2.80917 -2.45698 0 
-2.59599 -2.45452 0 
-2.38524 -2.45649 0 
-2.17181 -2.46101 0 
-1.95708 -2.4642 0 
-1.74243 -2.46227 0 
-1.53026 -2.4574 0 
-1.31395 -2.46305 0 
-1.09225 -2.45164 0 
-0.880106 -2.44623 0 
-0.66591 -2.4406 0 
-0.456456 -2.42724 0 
-0.241484 -2.44495 0 
-0.0327664 -2.44349 0 
0.198129 -2.47334 0 
0.410838 -2.44842 0 
0.630259 -2.45597 0 
0.838783 -2.45312 0 
1.07094 -2.48177 0 
1.27139 -2.45991 0 
1.46599 -2.49741 0 
1.64702 -2.44128 0 
1.84476 -2.47117 0 
2.05215 -2.46226 0 
2.26362 -2.45232 0 
2.47526 -2.46063 0 
2.68754 -2.4542 0 
2.89813 -2.46036 0 
3.10855 -2.46231 0 
3.32419 -2.47518 0 
3.53915 -2.45903 0 
3.75406 -2.47406 0 
3.96792 -2.46089 0 
4.18056 -2.46474 0 
4.39235 -2.4645 0 
4.60413 -2.4572 0 
4.81575 -2.45301 0 
5.02713 -2.45814 0 
5.23952 -2.45594 0 
5.45248 -2.46368 0 
5.66542 -2.45813 0 
5.87832 -2.46176 0 
6.09148 -2.45792 0 
6.3045 -2.45583 0 
6.51736 -2.45421 0 
6.73122 -2.45277 0 
6.94868 -2.4554 0 
7.16766 -2.45324 0 
7.3881 -2.45253 0 
7.60995 -2.45154 0 
7.83595 -2.45478 0 
8.06578 -2.43806 0 
8.29902 -2.51783 0 
8.53831 -2.4572 0 
-8.53831 -2.2734 0 
-8.30631 -2.20276 0 
-8.07299 -2.25338 0 
-7.83404 -2.24591 0 
-7.59435 -2.27978 0 
-7.3578 -2.25294 0 
-7.11884 -2.24999 0 
-6.88724 -2.24834 0 
-6.66797 -2.23358 0 
-6.44957 -2.23629 0 
-6.22717 -2.24115 0 
-6.00609 -2.24377 0 
-5.78415 -2.24126 0 
-5.56808 -2.23907 0 
-5.34596 -2.2404 0 
-5.13123 -2.24328 0 
-4.91005 -2.24755 0 
-4.69312 -2.24712 0 
-4.48464 -2.24982 0 
-4.25731 -2.25433 0 
-4.05634 -2.26411 0 
-3.87573 -2.20719 0 
-3.69193 -2.26251 0 
-3.49159 -2.23949 0 
-3.27891 -2.24888 0 
-3.07157 -2.24567 0 
-2.86312 -2.24302 0 
-2.65398 -2.24526 0 
-2.43957 -2.24176 0 
-2.22925 -2.24927 0 
-2.01627 -2.25404 0 
-1.80326 -2.25276 0 
-1.59072 -2.24391 0 
-1.37569 -2.24985 0 
-1.16043 -2.25054 0 
-0.934283 -2.22601 0 
-0.722968 -2.22265 0 
-0.509806 -2.20438 0 
-0.289275 -2.22265 0 
-0.0777437 -2.21684 0 
0.14149 -2.27251 0 
0.36395 -2.23493 0 
0.581757 -2.24534 0 
0.797123 -2.23138 0 
1.0129 -2.28294 0 
1.22588 -2.24235 0 
1.4373 -2.26839 0 
1.64633 -2.22459 0 
1.85533 -2.2519 0 
2.06568 -2.24956 0 
2.27437 -2.23627 0 
2.48472 -2.24857 0 
2.69696 -2.24094 0 
2.9067 -2.24733 0 
3.11476 -2.24733 0 
3.32163 -2.27046 0 
3.52993 -2.24542 0 
3.74163 -2.26854 0 
3.95583 -2.25312 0 
4.17175 -2.25605 0 
4.38565 -2.25451 0 
4.59892 -2.24629 0 
4.80959 -2.23966 0 
5.02167 -2.24615 0 
5.23395 -2.24527 0 
5.44917 -2.25386 0 
5.66247 -2.24798 0 
5.87692 -2.25177 0 
6.0902 -2.24693 0 
6.30261 -2.24344 0 
6.5158 -2.24143 0 
6.72959 -2.23895 0 
6.94411 -2.24488 0 
7.16421 -2.24226 0 
7.38547 -2.24083 0 
7.61227 -2.24241 0 
7.84202 -2.24688 0 
8.07393 -2.22981 0 
8.30493 -2.30851 0 
8.53831 -2.24506 0 
-8.53831 -2.05262 0 
-8.30333 -1.98672 0 
-8.06529 -2.04591 0 
-7.83393 -2.02673 0 
-7.61126 -2.07744 0 
-7.39846 -2.02797 0 
-7.18083 -2.04891 0 
-6.94333 -2.0411 0 
-6.7206 -2.01904 0 
-6.4992 -2.01666 0 
-6.28172 -2.0275 0 
-6.06133 -2.03074 0 
-5.84276 -2.03314 0 
-5.6216 -2.02498 0 
-5.40364 -2.03414 0 
-5.18153 -2.02876 0 
-4.96543 -2.04233 0 
-4.74425 -2.03928 0 
-4.52797 -2.03227 0 
-4.3174 -2.05987 0 
-4.093 -2.03765 0 
-3.87711 -2.00172 0 
-3.65982 -2.03591 0 
-3.44029 -2.03495 0 
-3.233 -2.03388 0 
-3.02494 -2.03066 0 
-2.81494 -2.02961 0 
-2.6015 -2.03666 0 
-2.38794 -2.02956 0 
-2.17724 -2.03906 0 
-1.96734 -2.04108 0 
-1.75956 -2.0357 0 
-1.54456 -2.03096 0 
-1.33314 -2.03441 0 
-1.1135 -2.04185 0 
-0.899655 -2.00003 0 
-0.691378 -1.99649 0 
-0.462599 -1.99381 0 
-0.255354 -1.99626 0 
-0.0482164 -1.99009 0 
0.155305 -2.06513 0 
0.362804 -2.01061 0 
0.573554 -2.03193 0 
0.787258 -2.01497 0 
1.00719 -2.07233 0 
1.21962 -2.02792 0 
1.43183 -2.05898 0 
1.64467 -2.00685 0 
1.85399 -2.03709 0 
2.05938 -2.03224 0 
2.28084 -2.02876 0 
2.49628 -2.0356 0 
2.70181 -2.02524 0 
2.91339 -2.03244 0 
3.11964 -2.03205 0 
3.32857 -2.05705 0 
3.53652 -2.028 0 
3.7435 -2.06048 0 
3.95544 -2.04059 0 
4.16682 -2.04915 0 
4.38305 -2.04523 0 
4.59249 -2.03243 0 
4.79868 -2.02084 0 
5.00551 -2.03368 0 
5.21726 -2.03322 0 
5.43133 -2.0459 0 
5.64709 -2.03743 0 
5.86162 -2.04295 0 
6.07656 -2.03685 0 
6.29121 -2.0313 0 
6.50482 -2.02906 0 
6.71936 -2.02585 0 
6.93601 -2.03115 0 
7.1524 -2.03248 0 
7.37609 -2.02993 0 
7.60094 -2.03426 0 
7.83246 -2.03886 0 
8.0663 -2.02208 0 
8.30378 -2.09461 0 
8.53831 -2.03293 0 
-8.53831 -1.83194 0 
-8.30553 -1.76852 0 
-8.07192 -1.8357 0 
-7.83968 -1.81184 0 
-7.60842 -1.85671 0 
-7.37772 -1.80724 0 
-7.1411 -1.84862 0 
-6.91505 -1.82425 0 
-6.6863 -1.80518 0 
-6.46238 -1.80129 0 
-6.24117 -1.81538 0 
-6.02107 -1.81736 0 
-5.80018 -1.82267 0 
-5.57637 -1.81523 0 
-5.35636 -1.8272 0 
-5.13368 -1.82045 0 
-4.91627 -1.83735 0 
-4.69828 -1.82943 0 
-4.48043 -1.82469 0 
-4.26643 -1.85954 0 
-4.0535 -1.82335 0 
-3.8339 -1.79199 0 
-3.63 -1.83519 0 
-3.43164 -1.81077 0 
-3.23252 -1.81921 0 
-3.02229 -1.81782 0 
-2.81495 -1.81375 0 
-2.60752 -1.82718 0 
-2.40237 -1.81117 0 
-2.19556 -1.82392 0 
-1.98689 -1.82493 0 
-1.77885 -1.81584 0 
-1.57171 -1.81841 0 
-1.35444 -1.81465 0 
-1.14155 -1.83014 0 
-0.923784 -1.78718 0 
-0.700865 -1.76858 0 
-0.490246 -1.79063 0 
-0.254401 -1.76719 0 
-0.0574102 -1.74848 0 
0.146364 -1.84134 0 
0.352328 -1.78859 0 
0.571213 -1.81136 0 
0.776119 -1.7866 0 
0.988453 -1.85973 0 
1.21369 -1.82637 0 
1.44861 -1.84699 0 
1.62905 -1.75515 0 
1.82024 -1.81564 0 
2.02798 -1.81159 0 
2.23783 -1.83137 0 
2.47318 -1.82621 0 
2.68876 -1.80575 0 
2.89529 -1.82419 0 
3.11523 -1.81259 0 
3.31909 -1.84356 0 
3.54205 -1.8236 0 
3.76226 -1.84849 0 
3.97949 -1.82968 0 
4.19411 -1.84161 0 
4.4035 -1.82952 0 
4.61171 -1.81363 0 
4.82226 -1.80442 0 
5.03109 -1.82053 0 
5.23828 -1.81487 0 
5.44325 -1.83714 0 
5.65284 -1.82219 0 
5.86288 -1.83381 0 
6.07816 -1.82726 0 
6.28918 -1.81801 0 
6.50165 -1.81711 0 
6.71624 -1.81384 0 
6.93256 -1.81965 0 
7.1515 -1.81844 0 
7.36967 -1.82064 0 
7.59619 -1.82307 0 
7.82363 -1.83114 0 
8.06359 -1.81709 0 
8.30199 -1.88347 0 
8.53831 -1.8208 0 
-8.53831 -1.61534 0 
[...]
POINT_DATA 2204 
VECTORS vectors float
-3.064e-05 -0.000469787 1 
5.53296e-05 -0.0132247 0.999913 
-0.000104069 -0.0169368 0.999857 
-2.73965e-05 -0.0175825 0.999845 
-4.98099e-05 -0.0169054 0.999857 
-4.65281e-05 -0.0153067 0.999883 
-4.57564e-05 -0.0133486 0.999911 
-4.6211e-05 -0.0113261 0.999936 
-4.62571e-05 -0.00929772 0.999957 
-4.62148e-05 -0.00725368 0.999974 
-4.63334e-05 -0.00519472 0.999987 
-4.61789e-05 -0.00312875 0.999995 
-4.64216e-05 -0.00105627 0.999999 
-4.61551e-05 0.00104963 0.999999 
-4.63388e-05 0.00325167 0.999995 
-4.61259e-05 0.00564294 0.999984 
-4.5909e-05 0.00834025 0.999965 
-4.62041e-05 0.0114822 0.999934 
-4.49743e-05 0.015228 0.999884 
-4.6187e-05 0.0197785 0.999804 
-4.38122e-05 0.025358 0.999678 
-4.52601e-05 0.0322822 0.999479 
-4.2728e-05 0.0408841 0.999164 
-4.30827e-05 0.0516274 0.998666 
-4.11748e-05 0.0650329 0.997883 
-3.99719e-05 0.0817831 0.99665 
-3.81076e-05 0.102709 0.994711 
-3.58534e-05 0.128818 0.991668 
-3.29744e-05 0.161307 0.986904 
-2.96156e-05 0.2016 0.979468 
-2.52231e-05 0.251288 0.967912 
-2.02737e-05 0.312035 0.95007 
-1.421e-05 0.385302 0.92279 
-7.64011e-06 0.471824 0.881693 
-1.01925e-06 0.570965 0.820974 
5.04501e-06 0.67917 0.733981 
8.6868e-06 0.78913 0.614226 
9.53779e-06 0.888924 0.458055 
6.53434e-06 0.963361 0.268209 
1.70076e-06 0.998468 0.0553319 
-4.19391e-06 0.986722 -0.162419 
-8.69275e-06 0.931146 -0.364646 
-9.01478e-06 0.842152 -0.539241 
-7.83368e-06 0.735463 -0.677565 
-1.85319e-06 0.624997 -0.780627 
4.38497e-06 0.52035 -0.853953 
1.04229e-05 0.4276 -0.903968 
1.81275e-05 0.347582 -0.93765 
2.23144e-05 0.280581 -0.95983 
2.76654e-05 0.225512 -0.97424 
3.14428e-05 0.180658 -0.983546 
3.42877e-05 0.144422 -0.989516 
3.71947e-05 0.115241 -0.993338 
3.89224e-05 0.0918037 -0.995777 
4.09202e-05 0.0730364 -0.997329 
4.17337e-05 0.0580284 -0.998315 
4.34914e-05 0.0460115 -0.998941 
4.35334e-05 0.0363796 -0.999338 
4.48281e-05 0.0286434 -0.99959 
4.49874e-05 0.0224128 -0.999749 
4.54148e-05 0.0173632 -0.999849 
4.57987e-05 0.0132235 -0.999913 
4.59856e-05 0.00978091 -0.999952 
4.60448e-05 0.00686504 -0.999976 
4.64258e-05 0.00432639 -0.999991 
4.61699e-05 0.00203434 -0.999998 
4.65683e-05 -0.000121462 -1 
4.62642e-05 -0.00222889 -0.999998 
4.6426e-05 -0.00434179 -0.999991 
4.63054e-05 -0.00647811 -0.999979 
4.62942e-05 -0.00863149 -0.999963 
4.62256e-05 -0.0107915 -0.999942 
4.61306e-05 -0.0129596 -0.999916 
4.54939e-05 -0.0151609 -0.999885 
4.90124e-05 -0.0172959 -0.99985 
4.21753e-05 -0.0190313 -0.999819 
4.64136e-05 -0.0196665 -0.999807 
3.96043e-05 -0.0197522 -0.999805 
7.20476e-05 -0.0161636 -0.999869 
-3.35698e-05 -0.000994944 -1 
4.35817e-05 0.00019704 1 
0.00561255 -0.00951896 0.999939 
0.00761288 -0.0143602 0.999868 
0.00861562 -0.0169629 0.999819 
0.00910854 -0.0169402 0.999815 
0.00942124 -0.0158043 0.999831 
0.00960726 -0.0140391 0.999855 
0.00975428 -0.0119904 0.999881 
0.00990476 -0.00987924 0.999902 
0.0100023 -0.00779631 0.99992 
0.0100591 -0.00572387 0.999933 
0.0100879 -0.0036463 0.999942 
0.010147 -0.00154555 0.999947 
0.0101853 0.000573498 0.999948 
0.0102069 0.00279123 0.999944 
0.0101884 0.00515769 0.999935 
0.0101589 0.00783826 0.999918 
0.010126 0.0109264 0.999889 
0.0100207 0.014581 0.999843 
0.00995388 0.0190709 0.999769 
0.00976591 0.0243647 0.999655 
0.00969382 0.0313471 0.999462 
0.00941846 0.03944 0.999178 
0.00924195 0.0501172 0.998701 
0.00892901 0.0627529 0.997989 
0.00860039 0.0789436 0.996842 
0.00820772 0.0990105 0.995053 
0.00777857 0.124099 0.992239 
0.00724702 0.155168 0.987861 
0.0066509 0.193727 0.981033 
0.00598227 0.241707 0.970331 
0.00526103 0.301004 0.953608 
0.00449383 0.372803 0.9279 
0.00366902 0.457484 0.889211 
0.00292059 0.557946 0.829872 
0.00215281 0.667145 0.744925 
0.00150928 0.77901 0.62701 
0.000992957 0.881902 0.471431 
0.00045418 0.958084 0.286486 
4.72915e-05 0.997485 0.0708782 
-0.000303167 0.988974 -0.148086 
-0.000764983 0.930233 -0.366967 
-0.00126615 0.841187 -0.540743 
-0.00179837 0.73158 -0.681753 
-0.0024759 0.621066 -0.783754 
-0.00313664 0.509503 -0.860463 
-0.00393863 0.413134 -0.910662 
-0.00486795 0.331907 -0.9433 
-0.00561936 0.266803 -0.963735 
-0.00637302 0.214188 -0.976772 
-0.00701378 0.171847 -0.985099 
-0.00753533 0.136918 -0.990554 
-0.00801067 0.109313 -0.993975 
-0.00840196 0.0869187 -0.99618 
-0.00877567 0.0690822 -0.997572 
-0.00906029 0.0544963 -0.998473 
-0.00936728 0.043297 -0.999018 
-0.00953867 0.0339963 -0.999376 
-0.00974872 0.0267752 -0.999594 
-0.00988321 0.0208851 -0.999733 
-0.0100184 0.0161033 -0.99982 
-0.0101422 0.0122011 -0.999874 
-0.0102166 0.00894871 -0.999908 
-0.0102471 0.00614276 -0.999929 
-0.0102821 0.00369433 -0.99994 
-0.0102638 0.00142755 -0.999946 
-0.0102795 -0.000688742 -0.999947 
-0.010255 -0.00277826 -0.999944 
-0.0102313 -0.0048458 -0.999936 
-0.0101795 -0.00692762 -0.999924 
-0.0101064 -0.00902624 -0.999908 
-0.010011 -0.0111428 -0.999888 
-0.00986085 -0.0133037 -0.999863 
-0.00968213 -0.0154298 -0.999834 
-0.00943594 -0.0173087 -0.999806 
-0.00906647 -0.018661 -0.999785 
-0.00835717 -0.0192183 -0.99978 
-0.00727058 -0.0175987 -0.999819 
-0.00530851 -0.0133801 -0.999896 
0.000130545 0.000413707 -1 
3.33035e-05 -0.000147346 1 
0.00587247 -0.0113579 0.999918 
0.00919928 -0.0155269 0.999837 
0.0108844 -0.0172216 0.999792 
0.0115233 -0.016662 0.999795 
0.0122672 -0.0153347 0.999807 
0.012667 -0.0135387 0.999828 
0.0129504 -0.0114703 0.99985 
0.0131995 -0.00933286 0.999869 
0.0134149 -0.00726944 0.999884 
0.0135199 -0.00520214 0.999895 
0.0135995 -0.00315189 0.999903 
0.0137198 -0.0010724 0.999905 
0.0137526 0.00107881 0.999905 
0.0138371 0.00331782 0.999899 
0.0137491 0.00579242 0.999889 
0.0137505 0.00855209 0.999869 
0.0136759 0.0118112 0.999837 
0.0135047 0.0156623 0.999786 
0.0135293 0.0202546 0.999703 
0.0129796 0.026086 0.999575 
0.0130866 0.0330198 0.999369 
0.0125445 0.0418933 0.999043 
0.0124777 0.0525423 0.998541 
0.0119232 0.0660981 0.997742 
0.0114946 0.0829087 0.996491 
0.0109712 0.103825 0.994535 
0.0104212 0.130245 0.991427 
0.00977993 0.162707 0.986626 
0.00905761 0.203435 0.979047 
0.00831425 0.254007 0.967167 
0.00760999 0.315863 0.948774 
0.00693868 0.389556 0.920977 
0.00611749 0.478219 0.87822 
0.00547942 0.582274 0.812974 
0.00477408 0.690661 0.723163 
0.00392636 0.800857 0.598842 
0.00295168 0.897366 0.441277 
0.00148975 0.96933 0.245757 
6.20273e-05 0.999399 0.0346568 
-0.00131136 0.979418 -0.201837 
-0.0027582 0.915862 -0.401484 
-0.00378045 0.819024 -0.573747 
-0.00469487 0.712771 -0.701381 
-0.00516755 0.59347 -0.80484 
-0.00616986 0.498158 -0.867064 
-0.00635736 0.414854 -0.909866 
-0.00765993 0.347842 -0.937522 
-0.00796679 0.285663 -0.958297 
-0.00871057 0.230685 -0.972989 
-0.00944393 0.184848 -0.982722 
-0.0100281 0.148403 -0.988876 
-0.0106778 0.118387 -0.99291 
-0.0111653 0.0945536 -0.995457 
-0.0116074 0.075325 -0.997091 
-0.0119475 0.0598106 -0.998138 
-0.012486 0.0472365 -0.998806 
-0.0126828 0.0373416 -0.999222 
-0.013085 0.0293078 -0.999485 
-0.0132914 0.0229697 -0.999648 
-0.0134995 0.0178574 -0.999749 
-0.0136969 0.0136097 -0.999814 
-0.0138153 0.010081 -0.999854 
-0.013853 0.00712363 -0.999879 
-0.0139483 0.00453165 -0.999892 
-0.0139008 0.00219125 -0.999901 
-0.0139354 1.76691e-06 -0.999903 
-0.0138926 -0.00210717 -0.999901 
-0.0138498 -0.00417747 -0.999895 
-0.0137646 -0.00624764 -0.999886 
-0.0136314 -0.00833447 -0.999872 
-0.0134222 -0.0104345 -0.999855 
-0.0131596 -0.0126215 -0.999834 
-0.0128543 -0.0147906 -0.999808 
-0.0124279 -0.0166967 -0.999783 
-0.0117612 -0.018047 -0.999768 
-0.0107204 -0.0189697 -0.999763 
-0.0091248 -0.017579 -0.999804 
-0.00500702 -0.0130425 -0.999902 
-0.000319753 -0.000143667 -1 
0.000127073 2.08751e-06 1 
0.00635784 -0.0121879 0.999906 
0.0101397 -0.0162091 0.999817 
0.0117928 -0.0174446 0.999778 
0.0128231 -0.0166005 0.99978 
0.0135204 -0.0154271 0.99979 
0.0139745 -0.0135656 0.99981 
0.0142537 -0.0113967 0.999833 
0.0145244 -0.00936859 0.999851 
0.014697 -0.00731479 0.999865 
0.0148444 -0.00523622 0.999876 
0.0149427 -0.00316239 0.999883 
0.0150615 -0.0010473 0.999886 
0.015117 0.00110012 0.999885 
0.0151556 0.00344979 0.999879 
0.0151436 0.00594247 0.999868 
0.0151122 0.00885464 0.999847 
0.0150383 0.0122045 0.999812 
0.0149199 0.0160525 0.99976 
0.0147797 0.0211585 0.999667 
0.0145388 0.0267381 0.999537 
0.0142752 0.032802 0.99936 
0.0140248 0.0402077 0.999093 
0.0136662 0.0500128 0.998655 
0.0132239 0.0629697 0.997928 
0.0127588 0.0786711 0.996819 
0.0122495 0.0982657 0.995085 
0.0117258 0.122727 0.992371 
0.0111754 0.153822 0.988035 
0.0106348 0.191699 0.981396 
0.0101019 0.239 0.970967 
0.00962697 0.296916 0.954855 
0.00926311 0.366786 0.930259 
0.00881283 0.450886 0.892538 
0.00835645 0.548217 0.836294 
0.00808183 0.661408 0.749983 
0.00720997 0.771018 0.636772 
0.00595849 0.873879 0.486107 
0.00346913 0.956244 0.292551 
0.000854238 0.996674 0.0814869 
-0.00180162 0.989423 -0.145047 
-0.0044866 0.932582 -0.360931 
-0.0062641 0.842065 -0.539339 
-0.00772465 0.733166 -0.680005 
-0.00772003 0.622556 -0.782537 
-0.00878186 0.517496 -0.85564 
-0.00885982 0.426049 -0.904657 
-0.00965049 0.347722 -0.937548 
-0.00982924 0.282144 -0.959322 
-0.0102909 0.22749 -0.973726 
-0.0108169 0.183154 -0.983025 
-0.0112943 0.146897 -0.989087 
-0.0118387 0.117266 -0.99303 
-0.0123904 0.0940734 -0.995488 
-0.0128758 0.0752513 -0.997081 
-0.0133114 0.060185 -0.998098 
-0.0137425 0.0480177 -0.998752 
-0.0140811 0.0380437 -0.999177 
-0.0144104 0.0299617 -0.999447 
-0.0146557 0.0233823 -0.999619 
-0.0148601 0.0181134 -0.999726 
-0.015025 0.0138179 -0.999792 
-0.0151545 0.010289 -0.999832 
-0.0152363 0.00726787 -0.999858 
-0.0153103 0.00463802 -0.999872 
-0.0153216 0.0022414 -0.99988 
-0.0153624 3.67522e-05 -0.999882 
-0.0152687 -0.00208601 -0.999881 
-0.0151954 -0.00415232 -0.999876 
-0.0150563 -0.00619789 -0.999867 
-0.0148895 -0.00827575 -0.999855 
-0.0146848 -0.010391 -0.999838 
-0.0143617 -0.0125008 -0.999819 
-0.0139604 -0.0146555 -0.999795 
-0.013367 -0.016471 -0.999775 
-0.0125843 -0.0177814 -0.999763 
-0.011488 -0.0187796 -0.999758 
-0.00970297 -0.0175868 -0.999798 
-0.00622571 -0.0129731 -0.999896 
-2.51492e-05 2.27932e-06 -1 
1.36998e-05 -4.57874e-05 1 
0.00580849 -0.0125482 0.999904 
0.0093713 -0.0167104 0.999816 
0.0107894 -0.0176343 0.999786 
0.0120727 -0.0167997 0.999786 
0.0125896 -0.015836 0.999795 
0.0132013 -0.0141765 0.999812 
0.0135637 -0.0119661 0.999836 
0.0137622 -0.00986367 0.999857 
0.0139826 -0.00778441 0.999872 
0.0142101 -0.00575401 0.999882 
0.0143639 -0.00370225 0.99989 
0.0144915 -0.00163025 0.999894 
0.0145424 0.00055284 0.999894 
0.0146244 0.00283692 0.999889 
0.0146114 0.00537343 0.999879 
0.0146307 0.00814666 0.99986 
0.014546 0.0114523 0.999829 
0.0143984 0.0153113 0.999779 
0.0143666 0.0198308 0.9997 
0.0140302 0.0257668 0.99957 
0.0136519 0.0329254 0.999365 
0.0134523 0.0418285 0.999034 
0.0130412 0.0530164 0.998508 
0.012686 0.0664424 0.99771 
0.0122622 0.0828722 0.996485 
0.0118341 0.103476 0.994562 
0.0114867 0.129929 0.991457 
0.0111114 0.162078 0.986715 
0.0108838 0.202099 0.979305 
0.0107551 0.250765 0.967988 
0.0108035 0.309373 0.950879 
0.0110154 0.382373 0.923942 
0.0112308 0.467577 0.883881 
0.0112498 0.569608 0.821839 
0.0117054 0.676741 0.736128 
0.0108481 0.785444 0.618837 
0.00857779 0.893232 0.449515 
0.00513078 0.965364 0.260857 
0.000824902 0.998698 0.051006 
-0.00309569 0.987131 -0.159881 
-0.00729326 0.932362 -0.361452 
-0.00966751 0.844147 -0.536024 
-0.0114552 0.736596 -0.676236 
-0.010976 0.623217 -0.781972 
-0.0116393 0.518681 -0.854889 
-0.0110086 0.426826 -0.904267 
-0.0112417 0.346993 -0.9378 
-0.0108565 0.281213 -0.959584 
-0.0109105 0.228408 -0.973504 
-0.0110911 0.181957 -0.983244 
-0.0113211 0.144886 -0.989384 
-0.0116692 0.11698 -0.993066 
-0.0120415 0.0933125 -0.995564 
-0.0124701 0.0751228 -0.997096 
-0.0129177 0.059939 -0.998118 
-0.0131948 0.0478731 -0.998766 
-0.0136368 0.0381623 -0.999179 
-0.0138903 0.0302027 -0.999447 
-0.0141517 0.0236773 -0.999619 
-0.0143299 0.0182727 -0.99973 
-0.0144921 0.0140472 -0.999796 
-0.014613 0.0105733 -0.999837 
-0.0147369 0.00755788 -0.999863 
-0.0147634 0.00487404 -0.999879 
-0.0148812 0.00245751 -0.999886 
-0.0148046 0.000191654 -0.99989 
-0.014805 -0.00195494 -0.999888 
-0.0146647 -0.0040342 -0.999884 
-0.0144796 -0.00608225 -0.999877 
-0.0142971 -0.00815785 -0.999865 
-0.0140376 -0.010261 -0.999849 
-0.0137236 -0.0124002 -0.999829 
-0.0132753 -0.0145284 -0.999806 
-0.0126608 -0.0164004 -0.999785 
-0.0118102 -0.0176199 -0.999775 
-0.0106464 -0.0185655 -0.999771 
-0.0089701 -0.0176379 -0.999804 
-0.00592684 -0.0131074 -0.999897 
-6.70346e-05 -2.39149e-05 -1 
7.52153e-05 -2.87929e-05 1 
0.00527918 -0.0126959 0.999905 
0.00843147 -0.0168462 0.999823 
0.0098171 -0.017892 0.999792 
0.0111284 -0.0169937 0.999794 
0.0116773 -0.015813 0.999807 
0.0124495 -0.0139222 0.999826 
0.0127232 -0.0117596 0.99985 
0.012943 -0.00958407 0.99987 
0.0131685 -0.00747549 0.999885 
0.0134231 -0.0054112 0.999895 
0.0135819 -0.00335965 0.999902 
0.013723 -0.0012428 0.999905 
0.0137724 0.00100939 0.999905 
0.0138663 0.00337489 0.999898 
0.013839 0.00600159 0.999886 
0.0138767 0.00890228 0.999864 
0.0137624 0.0123057 0.99983 
0.013624 0.0163784 0.999773 
0.0136387 0.0212341 0.999681 
0.0132467 0.0271332 0.999544 
0.0128305 0.0347074 0.999315 
0.0127525 0.0433231 0.99898 
0.0123378 0.0536798 0.998482 
0.012043 0.0663648 0.997723 
0.0117415 0.0831178 0.996471 
0.0114719 0.103616 0.994551 
0.0112749 0.128676 0.991623 
0.0111568 0.159327 0.987163 
0.0112432 0.197668 0.980204 
0.0114908 0.244438 0.969597 
0.0120394 0.301374 0.95343 
0.0128112 0.369712 0.929058 
0.0138474 0.454875 0.890448 
0.0145714 0.551575 0.833998 
0.0158398 0.661548 0.749736 
0.0156316 0.777201 0.629059 
0.0127045 0.879412 0.475892 
0.00788928 0.964693 0.263258 
0.00179498 0.998122 0.0612368 
-0.00446903 0.988348 -0.152144 
-0.0105842 0.934896 -0.354763 
-0.013989 0.842466 -0.538568 
-0.0160934 0.738768 -0.673768 
-0.0147244 0.6295 -0.776861 
-0.0146335 0.518663 -0.854854 
-0.0132942 0.417552 -0.908556 
-0.0132144 0.348934 -0.937054 
-0.012066 0.289795 -0.957013 
-0.0115604 0.234631 -0.972016 
-0.0112651 0.189342 -0.981847 
-0.0112194 0.148222 -0.98889 
-0.0113217 0.11825 -0.992919 
-0.0115861 0.0951565 -0.995395 
-0.0118492 0.075384 -0.997084 
-0.0122543 0.0605683 -0.998089 
-0.012521 0.0477284 -0.998782 
-0.0129546 0.0375235 -0.999212 
-0.0131304 0.0294526 -0.99948 
-0.0134552 0.0230621 -0.999643 
-0.0136057 0.0179676 -0.999746 
-0.0137 0.0138005 -0.999811 
-0.0138024 0.0102726 -0.999852 
-0.0139845 0.00728206 -0.999876 
-0.0139953 0.00466863 -0.999891 
-0.0141199 0.00233964 -0.999898 
-0.0140432 0.000123887 -0.999901 
-0.0140017 -0.00198761 -0.9999 
-0.0138894 -0.0040842 -0.999895 
-0.0137175 -0.0061117 -0.999887 
-0.0134925 -0.00815017 -0.999876 
-0.0132042 -0.0102459 -0.99986 
-0.0128782 -0.0123785 -0.99984 
-0.01243 -0.0145459 -0.999817 
-0.0118376 -0.0163887 -0.999796 
-0.0109983 -0.0176175 -0.999784 
-0.00985478 -0.0184722 -0.999781 
-0.00822504 -0.017592 -0.999811 
-0.00549097 -0.0130699 -0.9999 
-7.67909e-05 -2.24869e-05 -1 
5.68659e-05 -2.75475e-05 1 
0.0046805 -0.0127597 0.999908 
0.0076061 -0.0170715 0.999825 
0.00891043 -0.0181307 0.999796 
0.0101913 -0.0171681 0.999801 
0.0104284 -0.0160855 0.999816 
0.0113159 -0.0143366 0.999833 
0.0115059 -0.0121531 0.99986 
0.0116932 -0.00998142 0.999882 
0.0118669 -0.00780856 0.999899 
0.0121302 -0.00569018 0.99991 
0.012307 -0.00365325 0.999918 
0.0124766 -0.00154565 0.999921 
0.0125527 0.000657068 0.999921 
0.0126385 0.00310116 0.999915 
0.0126481 0.00565587 0.999904 
0.0126748 0.00867823 0.999882 
0.0125852 0.0119944 0.999849 
0.0124185 0.0160661 0.999794 
0.0124963 0.0211083 0.999699 
0.0120883 0.02733 0.999553 
0.0115064 0.0339839 0.999356 
0.0115816 0.0423776 0.999035 
0.0112257 0.0528977 0.998537 
0.0109829 0.0656409 0.997783 
0.0108359 0.0812199 0.996637 
0.0106557 0.101333 0.994795 
0.0106653 0.125895 0.991986 
0.0108494 0.158127 0.987359 
0.0112499 0.199138 0.979907 
0.0120088 0.246104 0.969169 
0.0131963 0.30349 0.952743 
0.0147723 0.377167 0.926027 
0.0168591 0.46554 0.884867 
0.0186525 0.564503 0.82522 
0.0209437 0.685445 0.727824 
0.0209765 0.805642 0.592031 
0.0158069 0.91185 0.410219 
0.00944833 0.979304 0.202176 
0.000277365 0.999964 0.00848239 
-0.00634287 0.98932 -0.145618 
-0.015756 0.923923 -0.382255 
-0.020106 0.834241 -0.551034 
-0.0218896 0.7268 -0.6865 
-0.0189754 0.619054 -0.785119 
-0.0194854 0.539163 -0.841976 
-0.0162482 0.454763 -0.890464 
-0.014711 0.353373 -0.935367 
-0.0126869 0.272251 -0.962143 
-0.011675 0.220373 -0.975346 
-0.011137 0.176053 -0.984318 
-0.0107522 0.140197 -0.990065 
-0.0105946 0.112551 -0.993589 
-0.0108543 0.0902052 -0.995864 
-0.010869 0.0720985 -0.997338 
-0.0113879 0.0579173 -0.998256 
-0.0113551 0.046553 -0.998851 
-0.0118943 0.0376919 -0.999219 
-0.0119044 0.0301533 -0.999474 
-0.0122753 0.0238329 -0.999641 
-0.0123407 0.0185176 -0.999752 
-0.0123814 0.0141945 -0.999823 
-0.0124423 0.0105646 -0.999867 
-0.0125999 0.00741613 -0.999893 
-0.012722 0.00462452 -0.999908 
-0.0128201 0.00212837 -0.999916 
-0.0127049 -0.000156944 -0.999919 
-0.0127625 -0.00229548 -0.999916 
-0.012572 -0.00433322 -0.999912 
-0.0123763 -0.00636137 -0.999903 
-0.0121612 -0.00839958 -0.999891 
-0.0118812 -0.0105006 -0.999874 
-0.0115873 -0.012624 -0.999853 
-0.0111337 -0.0147402 -0.999829 
-0.0106418 -0.0165908 -0.999806 
-0.0098673 -0.0177646 -0.999794 
-0.00886066 -0.0185734 -0.999788 
-0.00733892 -0.0174276 -0.999821 
-0.00495979 -0.0130294 -0.999903 
-6.75913e-05 -2.19872e-05 -1 
4.98566e-05 -2.4729e-05 1 
0.00401573 -0.0129133 0.999909 
0.00657464 -0.0172383 0.99983 
0.00750373 -0.0183712 0.999803 
0.00872356 -0.0174847 0.999809 
0.00895968 -0.0162267 0.999828 
0.00977098 -0.0141656 0.999852 
0.00993935 -0.0119611 0.999879 
0.0101269 -0.00973579 0.999901 
0.0102962 -0.00752774 0.999919 
0.0104748 -0.00548155 0.99993 
0.0106728 -0.00340636 0.999937 
0.0108253 -0.00129464 0.999941 
0.0109883 0.00104947 0.999939 
0.0109911 0.00343849 0.999934 
0.0111101 0.00619677 0.999919 
0.0110274 0.00910741 0.999898 
0.0110078 0.0126192 0.99986 
0.010791 0.0166361 0.999803 
0.0110246 0.0212652 0.999713 
0.010451 0.0266907 0.999589 
0.00998257 0.0339892 0.999372 
0.0100149 0.0430721 0.999022 
0.00970843 0.0537858 0.998505 
0.00957357 0.0669052 0.997713 
0.00958297 0.0834518 0.996466 
0.00955429 0.10427 0.994503 
0.00980479 0.129582 0.99152 
0.0103452 0.164737 0.986283 
0.0110843 0.203934 0.978922 
0.0123745 0.251614 0.967749 
0.0144135 0.315151 0.948932 
0.0170412 0.390905 0.920273 
0.0205141 0.479764 0.877158 
0.0235798 0.587132 0.809148 
0.0276043 0.710628 0.703026 
0.026886 0.842796 0.537562 
0.0215207 0.930875 0.364704 
0.014101 0.983915 0.178079 
-0.00584118 0.998786 -0.0489202 
-0.0152334 0.965546 -0.259786 
-0.0258788 0.949671 -0.312179 
-0.0265971 0.877425 -0.478975 
-0.0293241 0.77755 -0.628136 
-0.0257417 0.650061 -0.759446 
-0.0223414 0.518877 -0.854557 
-0.0176466 0.414572 -0.909845 
-0.0154893 0.332428 -0.943001 
-0.0133483 0.278486 -0.960348 
-0.0115236 0.216385 -0.97624 
-0.0106883 0.175621 -0.9844 
-0.00998946 0.142363 -0.989764 
-0.00957659 0.114626 -0.993363 
-0.00964876 0.0912097 -0.995785 
-0.00960046 0.0728046 -0.9973 
-0.00996898 0.0579174 -0.998272 
-0.00982944 0.0464165 -0.998874 
-0.0103235 0.0371325 -0.999257 
-0.0102951 0.0295599 -0.99951 
-0.0106564 0.0233842 -0.99967 
-0.0107079 0.0182321 -0.999776 
-0.0107264 0.0139222 -0.999846 
-0.0108192 0.0102231 -0.999889 
-0.011025 0.00705242 -0.999914 
-0.0109786 0.00448808 -0.99993 
-0.0111882 0.00218308 -0.999935 
-0.0109403 7.2673e-05 -0.99994 
-0.0111088 -0.00200351 -0.999936 
-0.0109173 -0.00404355 -0.999932 
-0.0107428 -0.00607077 -0.999924 
-0.0105333 -0.00813208 -0.999911 
-0.010302 -0.01022 -0.999895 
-0.0100162 -0.0123873 -0.999873 
-0.00960313 -0.0145516 -0.999848 
-0.00920058 -0.0164545 -0.999822 
-0.00854933 -0.0177141 -0.999807 
-0.00780205 -0.0186364 -0.999796 