# vtk DataFile Version 3.0 
Exported using Morpho https://github.com/Morpho-lang/morpho 
ASCII 
DATASET UNSTRUCTURED_GRID 

POINTS 2187 float 
-8.32618 -2.88146 0 
-8.11405 -2.88146 0 
-7.90192 -2.88146 0 
-7.68979 -2.88146 0 
-7.47765 -2.88146 0 
-7.26552 -2.88146 0 
-7.05339 -2.88146 0 
-6.84126 -2.88146 0 
-6.62913 -2.88146 0 
-6.41699 -2.88146 0 
-6.20486 -2.88146 0 
-5.99273 -2.88146 0 
-5.7806 -2.88146 0 
-5.56847 -2.88146 0 
-5.35633 -2.88146 0 
-5.1442 -2.88146 0 
-4.93207 -2.88146 0 
-4.71994 -2.88146 0 
-4.50781 -2.88146 0 
-4.29567 -2.88146 0 
-4.08354 -2.88146 0 
-3.87141 -2.88146 0 
-3.65928 -2.88146 0 
-3.44715 -2.88146 0 
-3.23501 -2.88146 0 
-3.02288 -2.88146 0 
-2.81075 -2.88146 0 
-2.59862 -2.88146 0 
-2.38649 -2.88146 0 
-2.17435 -2.88146 0 
-1.96222 -2.88146 0 
-1.75009 -2.88146 0 
-1.53796 -2.88146 0 
-1.32583 -2.88146 0 
-1.11369 -2.88146 0 
-0.901561 -2.88146 0 
-0.689429 -2.88146 0 
-0.477297 -2.88146 0 
-0.265165 -2.88146 0 
-0.053033 -2.88146 0 
0.159099 -2.88146 0 
0.371231 -2.88146 0 
0.583363 -2.88146 0 
0.795495 -2.88146 0 
1.00763 -2.88146 0 
1.21976 -2.88146 0 
1.43189 -2.88146 0 
1.64402 -2.88146 0 
1.85616 -2.88146 0 
2.06829 -2.88146 0 
2.28042 -2.88146 0 
2.49255 -2.88146 0 
2.70468 -2.88146 0 
2.91682 -2.88146 0 
3.12895 -2.88146 0 
3.34108 -2.88146 0 
3.55321 -2.88146 0 
3.76534 -2.88146 0 
3.97748 -2.88146 0 
4.18961 -2.88146 0 
4.40174 -2.88146 0 
4.61387 -2.88146 0 
4.826 -2.88146 0 
5.03814 -2.88146 0 
5.25027 -2.88146 0 
5.4624 -2.88146 0 
5.67453 -2.88146 0 
5.88666 -2.88146 0 
6.0988 -2.88146 0 
6.31093 -2.88146 0 
6.52306 -2.88146 0 
6.73519 -2.88146 0 
6.94732 -2.88146 0 
7.15946 -2.88146 0 
7.37159 -2.88146 0 
7.58372 -2.88146 0 
7.79585 -2.88146 0 
8.00798 -2.88146 0 
8.22012 -2.88146 0 
8.53831 -2.88146 0 
-8.53831 -2.72645 0 
-8.2559 -2.6572 0 
-8.03205 -2.64822 0 
-7.7947 -2.66482 0 
-7.56146 -2.66595 0 
-7.33169 -2.66872 0 
-7.10515 -2.66907 0 
-6.88225 -2.66957 0 
-6.66191 -2.66992 0 
-6.44346 -2.67006 0 
-6.22629 -2.67008 0 
-6.01023 -2.67003 0 
-5.79497 -2.66995 0 
-5.58016 -2.66978 0 
-5.36595 -2.66968 0 
-5.15212 -2.66955 0 
-4.93878 -2.66972 0 
-4.72537 -2.66967 0 
-4.51232 -2.66968 0 
-4.29936 -2.66962 0 
-4.08665 -2.66965 0 
-3.87395 -2.66963 0 
-3.66123 -2.66945 0 
-3.44866 -2.66942 0 
-3.23601 -2.66936 0 
-3.02336 -2.66923 0 
-2.81091 -2.66921 0 
-2.59878 -2.66949 0 
-2.38683 -2.66968 0 
-2.17543 -2.67054 0 
-1.96351 -2.67093 0 
-1.75174 -2.67136 0 
-1.53997 -2.67183 0 
-1.32795 -2.67198 0 
-1.11594 -2.67231 0 
-0.903538 -2.67228 0 
-0.690455 -2.67374 0 
-0.476479 -2.67361 0 
-0.263839 -2.66423 0 
-0.0530161 -2.66689 0 
0.159434 -2.66766 0 
0.37175 -2.66784 0 
0.584783 -2.67167 0 
0.798691 -2.67326 0 
1.01182 -2.67302 0 
1.22421 -2.67193 0 
1.43572 -2.67181 0 
1.6477 -2.6716 0 
1.85934 -2.67122 0 
2.0708 -2.67078 0 
2.28214 -2.67025 0 
2.49376 -2.66984 0 
2.70562 -2.66963 0 
2.9178 -2.66959 0 
3.12997 -2.66946 0 
3.34207 -2.66936 0 
3.55413 -2.66927 0 
3.76611 -2.66925 0 
3.97847 -2.66976 0 
4.19072 -2.66986 0 
4.40266 -2.66959 0 
4.61476 -2.66956 0 
4.82681 -2.66936 0 
5.03879 -2.66909 0 
5.25112 -2.66933 0 
5.46351 -2.6695 0 
5.67572 -2.66945 0 
5.88778 -2.66956 0 
6.09982 -2.6699 0 
6.31074 -2.66923 0 
6.52166 -2.67071 0 
6.73402 -2.67088 0 
6.94733 -2.66998 0 
7.16139 -2.66942 0 
7.37633 -2.66761 0 
7.59118 -2.66515 0 
7.80741 -2.65984 0 
8.02279 -2.64797 0 
8.28503 -2.7057 0 
8.53831 -2.66933 0 
-8.42166 -2.50637 0 
-8.18708 -2.40999 0 
-7.94667 -2.44284 0 
-7.7158 -2.45258 0 
-7.48516 -2.45649 0 
-7.2608 -2.45905 0 
-7.04057 -2.45855 0 
-6.82433 -2.45871 0 
-6.61076 -2.45872 0 
-6.39847 -2.45881 0 
-6.18723 -2.45851 0 
-5.97665 -2.4582 0 
-5.76595 -2.45817 0 
-5.55552 -2.45765 0 
-5.34504 -2.45746 0 
-5.13469 -2.45709 0 
-4.92369 -2.45772 0 
-4.71283 -2.45747 0 
-4.5017 -2.45761 0 
-4.29061 -2.45741 0 
-4.07929 -2.45754 0 
-3.86772 -2.45759 0 
-3.65607 -2.45723 0 
-3.4441 -2.45731 0 
-3.2319 -2.45731 0 
-3.01971 -2.4571 0 
-2.8077 -2.45704 0 
-2.59586 -2.45761 0 
-2.38456 -2.45772 0 
-2.17369 -2.45849 0 
-1.96316 -2.46029 0 
-1.75126 -2.46068 0 
-1.5398 -2.46131 0 
-1.3282 -2.46169 0 
-1.11607 -2.46163 0 
-0.904345 -2.46182 0 
-0.691077 -2.46532 0 
-0.476412 -2.46386 0 
-0.263041 -2.44408 0 
-0.049876 -2.44703 0 
0.160593 -2.45066 0 
0.371998 -2.45221 0 
0.584972 -2.46154 0 
0.79919 -2.46485 0 
1.0127 -2.46373 0 
1.22447 -2.46087 0 
1.43695 -2.46215 0 
1.64879 -2.46128 0 
1.86004 -2.46036 0 
2.0708 -2.45931 0 
2.28198 -2.45872 0 
2.49356 -2.45807 0 
2.7057 -2.45794 0 
2.91789 -2.4577 0 
3.12999 -2.45734 0 
3.34207 -2.45719 0 
3.554 -2.45689 0 
3.76588 -2.457 0 
3.97785 -2.4581 0 
4.19006 -2.45825 0 
4.40226 -2.45754 0 
4.61414 -2.45761 0 
4.82619 -2.45725 0 
5.0383 -2.4567 0 
5.25038 -2.45723 0 
5.46261 -2.45756 0 
5.67481 -2.45736 0 
5.88669 -2.45743 0 
6.09807 -2.45799 0 
6.30913 -2.45665 0 
6.51898 -2.45853 0 
6.72923 -2.45989 0 
6.94102 -2.45924 0 
7.15405 -2.45838 0 
7.36962 -2.45528 0 
7.58737 -2.44857 0 
7.80278 -2.43622 0 
8.04607 -2.44398 0 
8.2886 -2.49934 0 
8.53831 -2.4572 0 
-8.53831 -2.26727 0 
-8.32708 -2.23939 0 
-8.02298 -2.22187 0 
-7.78332 -2.2341 0 
-7.54774 -2.24628 0 
-7.31317 -2.24756 0 
-7.08679 -2.24788 0 
-6.86401 -2.24681 0 
-6.64603 -2.2463 0 
-6.43067 -2.24674 0 
-6.21632 -2.24632 0 
-6.00289 -2.24576 0 
-5.79 -2.24615 0 
-5.57681 -2.24531 0 
-5.36396 -2.24507 0 
-5.1512 -2.24443 0 
-4.93862 -2.24571 0 
-4.72553 -2.24521 0 
-4.51281 -2.24554 0 
-4.29995 -2.24516 0 
-4.08733 -2.24538 0 
-3.87466 -2.24551 0 
-3.66189 -2.24508 0 
-3.44911 -2.2453 0 
-3.23619 -2.24538 0 
-3.0233 -2.24516 0 
-2.81065 -2.24509 0 
-2.59848 -2.24582 0 
-2.38698 -2.24587 0 
-2.17604 -2.24677 0 
-1.96517 -2.2483 0 
-1.75479 -2.25029 0 
-1.54212 -2.2497 0 
-1.33071 -2.25007 0 
-1.11865 -2.25016 0 
-0.905343 -2.24801 0 
-0.692527 -2.25454 0 
-0.477859 -2.25006 0 
-0.265482 -2.21813 0 
-0.051477 -2.22553 0 
0.164469 -2.22605 0 
0.373282 -2.23107 0 
0.584587 -2.24795 0 
0.798337 -2.25474 0 
1.01126 -2.25182 0 
1.225 -2.24955 0 
1.43737 -2.252 0 
1.64902 -2.25024 0 
1.85957 -2.24865 0 
2.07032 -2.24781 0 
2.28127 -2.24708 0 
2.49236 -2.24649 0 
2.70413 -2.24643 0 
2.91641 -2.24591 0 
3.12871 -2.24526 0 
3.34093 -2.24501 0 
3.55306 -2.24464 0 
3.76523 -2.24472 0 
3.97735 -2.24611 0 
4.18952 -2.24653 0 
4.40159 -2.24561 0 
4.61377 -2.24548 0 
4.82578 -2.24517 0 
5.03805 -2.2446 0 
5.2505 -2.24507 0 
5.4629 -2.24548 0 
5.6751 -2.24529 0 
5.88671 -2.24519 0 
6.09806 -2.24582 0 
6.30874 -2.24425 0 
6.51862 -2.24581 0 
6.72797 -2.24764 0 
6.93832 -2.24756 0 
7.1503 -2.24588 0 
7.36367 -2.24339 0 
7.57805 -2.2311 0 
7.81419 -2.23393 0 
8.05284 -2.23472 0 
8.29359 -2.28419 0 
8.53831 -2.24506 0 
-8.45644 -1.99044 0 
-8.20805 -2.05382 0 
-7.95262 -2.00746 0 
-7.71722 -2.02292 0 
-7.48671 -2.03728 0 
-7.2615 -2.03537 0 
-7.04114 -2.03667 0 
-6.82572 -2.03413 0 
-6.61348 -2.03347 0 
-6.40248 -2.03443 0 
-6.19225 -2.03391 0 
-5.98238 -2.03332 0 
-5.77201 -2.03421 0 
-5.56162 -2.03306 0 
-5.3511 -2.03273 0 
-5.14035 -2.03205 0 
-4.92897 -2.03392 0 
-4.71774 -2.03307 0 
-4.5061 -2.03365 0 
-4.29451 -2.03304 0 
-4.08277 -2.03332 0 
-3.87077 -2.03351 0 
-3.6586 -2.03308 0 
-3.44618 -2.03344 0 
-3.23377 -2.03356 0 
-3.02148 -2.03337 0 
-2.8095 -2.03333 0 
-2.59847 -2.03341 0 
-2.38807 -2.03405 0 
-2.1777 -2.03498 0 
-1.96748 -2.03685 0 
-1.75658 -2.03797 0 
-1.54578 -2.0392 0 
-1.33112 -2.03646 0 
-1.11877 -2.03693 0 
-0.906265 -2.02953 0 
-0.69345 -2.0391 0 
-0.479207 -2.02929 0 
-0.268392 -1.98051 0 
-0.0610641 -1.99962 0 
0.157686 -2.00291 0 
0.376482 -2.00088 0 
0.584509 -2.02812 0 
0.797038 -2.04081 0 
1.00962 -2.03633 0 
1.22191 -2.03788 0 
1.43714 -2.04041 0 
1.64812 -2.03723 0 
1.85771 -2.03659 0 
2.0679 -2.0362 0 
2.27836 -2.03565 0 
2.48921 -2.03472 0 
2.7001 -2.03487 0 
2.91185 -2.03441 0 
3.12416 -2.03345 0 
3.33653 -2.03301 0 
3.54895 -2.0325 0 
3.76131 -2.03283 0 
3.97411 -2.03429 0 
4.18683 -2.03481 0 
4.3994 -2.03374 0 
4.61188 -2.03367 0 
4.82447 -2.03301 0 
5.03673 -2.03251 0 
5.24939 -2.03309 0 
5.46205 -2.0335 0 
5.6745 -2.0332 0 
5.88633 -2.03283 0 
6.09729 -2.03369 0 
6.30728 -2.03149 0 
6.5165 -2.03342 0 
6.72562 -2.03487 0 
6.93472 -2.03518 0 
7.14548 -2.03308 0 
7.3582 -2.02866 0 
7.58578 -2.02796 0 
7.81731 -2.02609 0 
8.05442 -2.02385 0 
8.29474 -2.0672 0 
8.53831 -2.03293 0 
-8.59569 -1.79746 0 
-8.29105 -1.8175 0 
-8.05528 -1.82065 0 
-7.78239 -1.80483 0 
-7.54066 -1.82115 0 
-7.30986 -1.82374 0 
-7.08093 -1.82485 0 
-6.85892 -1.82189 0 
-6.6412 -1.82046 0 
-6.42647 -1.8218 0 
-6.21317 -1.82158 0 
-6.0005 -1.8209 0 
-5.78816 -1.8222 0 
-5.57569 -1.82091 0 
-5.36327 -1.82033 0 
-5.15106 -1.81963 0 
-4.93874 -1.82181 0 
-4.72641 -1.8207 0 
-4.51432 -1.82152 0 
-4.30202 -1.82076 0 
-4.08987 -1.82097 0 
-3.8778 -1.82129 0 
-3.6656 -1.82087 0 
-3.45341 -1.82133 0 
-3.24125 -1.82138 0 
-3.02947 -1.82124 0 
-2.81811 -1.8213 0 
-2.60727 -1.82126 0 
-2.39701 -1.82148 0 
-2.18775 -1.82262 0 
-1.97845 -1.82463 0 
-1.76873 -1.82614 0 
-1.55734 -1.82571 0 
-1.34522 -1.82507 0 
-1.12728 -1.81951 0 
-0.909707 -1.81073 0 
-0.690229 -1.81643 0 
-0.470889 -1.80161 0 
-0.260589 -1.72729 0 
-0.0639848 -1.75736 0 
0.143699 -1.77824 0 
0.367986 -1.77738 0 
0.592375 -1.79938 0 
0.801139 -1.82148 0 
1.01592 -1.819 0 
1.236 -1.82761 0 
1.44914 -1.82724 0 
1.65905 -1.82318 0 
1.8691 -1.82406 0 
2.07875 -1.82416 0 
2.28829 -1.82379 0 
2.49748 -1.82234 0 
2.70756 -1.82279 0 
2.91831 -1.82236 0 
3.12945 -1.82118 0 
3.34095 -1.82069 0 
3.55273 -1.8202 0 
3.76409 -1.81988 0 
3.97539 -1.82276 0 
4.18762 -1.82304 0 
4.39919 -1.82119 0 
4.61086 -1.82178 0 
4.82314 -1.8211 0 
5.03541 -1.82007 0 
5.24745 -1.82114 0 
5.46008 -1.82156 0 
5.67253 -1.82122 0 
5.88456 -1.82059 0 
6.09564 -1.82119 0 
6.30576 -1.81912 0 
6.51511 -1.8209 0 
6.72384 -1.82242 0 
6.93271 -1.82218 0 
7.14246 -1.82009 0 
7.36225 -1.82264 0 
7.58593 -1.81946 0 
7.81613 -1.81609 0 
8.05348 -1.81293 0 
8.29452 -1.85004 0 
8.53831 -1.8208 0 
-8.50018 -1.62097 0 
-8.2499 -1.59005 0 
[...]
POINT_DATA 2187 
VECTORS vectors float
-0.000179269 -0.000632922 1 
0.000204747 -0.0213137 0.999773 
6.44912e-06 -0.0268425 0.99964 
8.1308e-05 -0.0269259 0.999637 
5.6343e-05 -0.0249637 0.999688 
6.48616e-05 -0.0223361 0.999751 
6.23524e-05 -0.0194097 0.999812 
6.30916e-05 -0.0163282 0.999867 
6.31661e-05 -0.0132678 0.999912 
6.3421e-05 -0.0103855 0.999946 
6.36671e-05 -0.00775228 0.99997 
6.38027e-05 -0.00535049 0.999986 
6.39023e-05 -0.0031078 0.999995 
6.38682e-05 -0.000928997 1 
6.3886e-05 0.00129088 0.999999 
6.37165e-05 0.00366442 0.999993 
6.36386e-05 0.00631478 0.99998 
6.33047e-05 0.00938028 0.999956 
6.30157e-05 0.0130197 0.999915 
6.25295e-05 0.0174212 0.999848 
6.19962e-05 0.0228117 0.99974 
6.12793e-05 0.0294713 0.999566 
6.03228e-05 0.0377486 0.999287 
5.91796e-05 0.048077 0.998844 
5.76949e-05 0.0610011 0.998138 
5.58588e-05 0.0771985 0.997016 
5.35605e-05 0.0975117 0.995234 
5.04434e-05 0.122976 0.99241 
4.74107e-05 0.154844 0.987939 
4.16623e-05 0.194593 0.980884 
3.69687e-05 0.244126 0.969744 
3.00165e-05 0.304574 0.952489 
2.07057e-05 0.378284 0.92569 
1.17409e-05 0.465696 0.884945 
9.35196e-07 0.566087 0.824345 
-9.19538e-06 0.675951 0.736947 
-1.80426e-05 0.787638 0.616138 
-1.84788e-05 0.888587 0.458709 
-1.33148e-05 0.963139 0.269003 
-5.96923e-06 0.998577 0.0533239 
1.23473e-05 0.98614 -0.165915 
1.71953e-05 0.928463 -0.371424 
1.68404e-05 0.839061 -0.544037 
1.5469e-05 0.730857 -0.68253 
3.94163e-06 0.618714 -0.785616 
-6.59174e-06 0.512973 -0.858405 
-1.68751e-05 0.419167 -0.907909 
-2.56121e-05 0.338934 -0.94081 
-3.3482e-05 0.272109 -0.962267 
-3.96697e-05 0.217406 -0.976081 
-4.47811e-05 0.173126 -0.9849 
-4.90201e-05 0.137598 -0.990488 
-5.2151e-05 0.109185 -0.994021 
-5.48154e-05 0.0865025 -0.996252 
-5.68654e-05 0.06841 -0.997657 
-5.85142e-05 0.0539685 -0.998543 
-5.97201e-05 0.0424246 -0.9991 
-6.09321e-05 0.0332409 -0.999447 
-6.16286e-05 0.0258703 -0.999665 
-6.24045e-05 0.019923 -0.999802 
-6.27209e-05 0.0150855 -0.999886 
-6.32367e-05 0.0111234 -0.999938 
-6.35597e-05 0.00783277 -0.999969 
-6.36012e-05 0.00503925 -0.999987 
-6.39021e-05 0.00260442 -0.999997 
-6.39819e-05 0.00040319 -1 
-6.40252e-05 -0.0016804 -0.999999 
-6.37961e-05 -0.00375241 -0.999993 
-6.41271e-05 -0.00590496 -0.999983 
-6.36021e-05 -0.00821198 -0.999966 
-6.3522e-05 -0.0107845 -0.999942 
-6.36198e-05 -0.0135421 -0.999908 
-6.27958e-05 -0.016404 -0.999865 
-6.33045e-05 -0.0190812 -0.999818 
-6.67785e-05 -0.0215809 -0.999767 
-4.9577e-05 -0.0238459 -0.999716 
-9.40691e-05 -0.0255998 -0.999672 
-2.0478e-05 -0.0256932 -0.99967 
-7.7427e-05 -0.0219953 -0.999758 
5.50768e-06 -0.00125483 -0.999999 
0.000215751 0.000202543 1 
0.00546347 -0.0180817 0.999822 
0.00889173 -0.0254641 0.999636 
0.0104439 -0.027121 0.999578 
0.0116784 -0.0257562 0.9996 
0.0123396 -0.0230108 0.999659 
0.0128515 -0.0199337 0.999719 
0.0132078 -0.0167695 0.999772 
0.0134745 -0.0136572 0.999816 
0.0136798 -0.0107186 0.999849 
0.0138335 -0.00801499 0.999872 
0.0139427 -0.00554379 0.999887 
0.0140111 -0.00324256 0.999897 
0.0140502 -0.00101573 0.999901 
0.0140578 0.00124194 0.9999 
0.014042 0.00364778 0.999895 
0.0139854 0.00632469 0.999882 
0.0139112 0.0094196 0.999859 
0.0138055 0.0130863 0.999819 
0.0136704 0.0175189 0.999753 
0.0134958 0.0229422 0.999646 
0.013281 0.0296443 0.999472 
0.0130277 0.0379782 0.999194 
0.0127163 0.048373 0.998748 
0.0123473 0.0613876 0.998038 
0.0119174 0.0777015 0.996905 
0.0114144 0.0981392 0.995107 
0.0108238 0.12371 0.992259 
0.0101572 0.155658 0.987759 
0.00936473 0.195227 0.980713 
0.00854409 0.245061 0.96947 
0.00757415 0.304987 0.952327 
0.00658016 0.378636 0.925522 
0.0055462 0.465726 0.884912 
0.0045093 0.565638 0.824641 
0.00352033 0.675168 0.737656 
0.00255574 0.787163 0.616739 
0.00169958 0.888104 0.45964 
0.00096233 0.963575 0.267436 
0.000169261 0.998564 0.053569 
-0.000602577 0.98597 -0.166923 
-0.00140219 0.928589 -0.371108 
-0.00222606 0.837436 -0.546531 
-0.0031022 0.729413 -0.684066 
-0.00407622 0.616977 -0.786971 
-0.00511584 0.511591 -0.859214 
-0.00614548 0.418669 -0.908118 
-0.00715651 0.338775 -0.94084 
-0.00811933 0.27229 -0.962181 
-0.00900421 0.217831 -0.975945 
-0.00980365 0.173683 -0.984753 
-0.0105231 0.138212 -0.990347 
-0.0111503 0.109765 -0.993895 
-0.0116912 0.0869986 -0.99614 
-0.0121615 0.0688291 -0.997554 
-0.0125598 0.0543233 -0.998444 
-0.012882 0.0426943 -0.999005 
-0.0131888 0.0335024 -0.999352 
-0.0134121 0.0260848 -0.99957 
-0.0136089 0.0201012 -0.999705 
-0.0137637 0.0152337 -0.999789 
-0.0138904 0.0112503 -0.99984 
-0.0139979 0.00794057 -0.99987 
-0.0140667 0.00512714 -0.999888 
-0.0141102 0.00267138 -0.999897 
-0.0141428 0.000448312 -0.9999 
-0.0141498 -0.00165437 -0.999899 
-0.0141302 -0.00374178 -0.999893 
-0.0140985 -0.00591067 -0.999883 
-0.0140897 -0.00821802 -0.999867 
-0.0138968 -0.0106944 -0.999846 
-0.0137415 -0.0133381 -0.999817 
-0.0135716 -0.0160393 -0.999779 
-0.0133686 -0.0187128 -0.999736 
-0.0130927 -0.0212064 -0.999689 
-0.0126651 -0.023416 -0.999646 
-0.0119525 -0.0247856 -0.999621 
-0.010747 -0.0243517 -0.999646 
-0.00573086 -0.0181968 -0.999818 
0.000161977 0.000291224 -1 
0.00230626 -0.0111539 0.999935 
0.00663975 -0.0275649 0.999598 
0.0113433 -0.0291355 0.999511 
0.0141224 -0.0282349 0.999502 
0.0157971 -0.0254757 0.999551 
0.0168487 -0.0222696 0.99961 
0.0175723 -0.0190934 0.999663 
0.0180923 -0.0159864 0.999709 
0.0184883 -0.0130107 0.999744 
0.018786 -0.0102043 0.999771 
0.0190024 -0.00760272 0.999791 
0.0191494 -0.00519984 0.999803 
0.0192376 -0.00293578 0.999811 
0.0192808 -0.000729564 0.999814 
0.0192795 0.00152451 0.999813 
0.0192408 0.00393621 0.999807 
0.0191569 0.00663597 0.999794 
0.0190401 0.00975277 0.999771 
0.0188789 0.0134506 0.999731 
0.0186756 0.0179144 0.999665 
0.0184219 0.0233784 0.999557 
0.0181157 0.0301287 0.999382 
0.0177546 0.0385132 0.9991 
0.017328 0.0489807 0.998649 
0.0168357 0.0620811 0.997929 
0.0162762 0.0784831 0.996783 
0.0156466 0.0990065 0.994964 
0.0149459 0.124678 0.992085 
0.0142062 0.15678 0.987531 
0.0134215 0.196739 0.980364 
0.0125232 0.245337 0.969357 
0.0116844 0.306454 0.951814 
0.0107711 0.37918 0.92526 
0.00986222 0.465706 0.884884 
0.00892374 0.565327 0.824819 
0.00787531 0.673959 0.738726 
0.00648407 0.785832 0.618406 
0.00482834 0.887928 0.459956 
0.00302044 0.963662 0.267106 
0.000522109 0.998718 0.0506105 
-0.00196624 0.985795 -0.167944 
-0.00423877 0.928247 -0.37194 
-0.00593318 0.837117 -0.546992 
-0.00732566 0.728098 -0.685434 
-0.00850398 0.615788 -0.787866 
-0.00951424 0.510802 -0.859646 
-0.0104283 0.418625 -0.908099 
-0.0113058 0.33868 -0.940834 
-0.0121758 0.27251 -0.962076 
-0.0130228 0.218333 -0.975787 
-0.0138203 0.174085 -0.984634 
-0.0146237 0.138776 -0.990216 
-0.0153528 0.110278 -0.993782 
-0.0160147 0.0874699 -0.996038 
-0.0166097 0.0692646 -0.99746 
-0.0171402 0.054739 -0.998354 
-0.0176235 0.0431858 -0.998912 
-0.0179876 0.0338365 -0.999265 
-0.018311 0.0263651 -0.999485 
-0.0186024 0.0203539 -0.99962 
-0.0187795 0.0154075 -0.999705 
-0.0189852 0.0114121 -0.999755 
-0.0191548 0.00808435 -0.999784 
-0.0192139 0.00523028 -0.999802 
-0.0193084 0.00275694 -0.99981 
-0.0193784 0.000512134 -0.999812 
-0.0193619 -0.00161443 -0.999811 
-0.0193166 -0.0037194 -0.999806 
-0.0193007 -0.00590773 -0.999796 
-0.0191416 -0.00819413 -0.999783 
-0.018979 -0.0106388 -0.999763 
-0.0187507 -0.0131817 -0.999737 
-0.0184664 -0.0157849 -0.999705 
-0.0180934 -0.018386 -0.999667 
-0.0175774 -0.0208982 -0.999627 
-0.0167273 -0.023073 -0.999594 
-0.0155596 -0.0244608 -0.99958 
-0.0133176 -0.0238696 -0.999626 
-0.00923014 -0.0182507 -0.999791 
-0.000420286 -0.000104856 -1 
-0.000246104 6.39628e-05 1 
0.0019283 -0.0285582 0.99959 
0.00920365 -0.0343126 0.999369 
0.0131396 -0.0313592 0.999422 
0.0155257 -0.0274798 0.999502 
0.0170338 -0.0236036 0.999576 
0.0180232 -0.0200639 0.999636 
0.0187274 -0.0167444 0.999684 
0.019254 -0.0136499 0.999721 
0.0196439 -0.010747 0.999749 
0.0199208 -0.00804167 0.999769 
0.020107 -0.00554397 0.999782 
0.0202203 -0.00320689 0.99979 
0.0202738 -0.000937696 0.999794 
0.0202777 0.00136276 0.999793 
0.0202354 0.00381296 0.999788 
0.0201495 0.00653542 0.999776 
0.0200175 0.00968094 0.999753 
0.0198418 0.0133966 0.999713 
0.0196176 0.0178826 0.999648 
0.0193453 0.0233612 0.99954 
0.0190215 0.0301227 0.999365 
0.0186447 0.0385222 0.999084 
0.0182156 0.0489927 0.998633 
0.0177366 0.062089 0.997913 
0.0172154 0.0784775 0.996767 
0.0166618 0.0989543 0.994952 
0.0160798 0.12441 0.992101 
0.01557 0.156458 0.987562 
0.0150816 0.196027 0.980482 
0.0146379 0.244749 0.969476 
0.0142934 0.304496 0.952406 
0.0140459 0.37734 0.925968 
0.0138289 0.463344 0.886071 
0.0135072 0.562787 0.826492 
0.0128587 0.671062 0.74129 
0.0113021 0.783429 0.621379 
0.00894804 0.88642 0.462795 
0.00582731 0.962636 0.270736 
0.00101389 0.99861 0.0527046 
-0.00392619 0.985001 -0.172503 
-0.00801625 0.927149 -0.374608 
-0.010644 0.836139 -0.548414 
-0.0123073 0.726801 -0.686738 
-0.0133161 0.614512 -0.788795 
-0.0138283 0.510067 -0.860024 
-0.0139913 0.416888 -0.90885 
-0.0141993 0.337358 -0.941269 
-0.0145064 0.272144 -0.962147 
-0.014894 0.218406 -0.975744 
-0.0153836 0.174865 -0.984472 
-0.015879 0.139305 -0.990122 
-0.0164245 0.110783 -0.993709 
-0.0169786 0.0879328 -0.995982 
-0.0175138 0.0696817 -0.997416 
-0.0180152 0.0551094 -0.998318 
-0.0184715 0.0434652 -0.998884 
-0.0188618 0.034106 -0.99924 
-0.0192128 0.0266061 -0.999461 
-0.01948 0.020515 -0.9996 
-0.0197717 0.0156311 -0.999682 
-0.0199499 0.0115721 -0.999734 
-0.0200822 0.00819424 -0.999765 
-0.0202539 0.00534603 -0.999781 
-0.0203054 0.00283276 -0.99979 
-0.0203186 0.000556022 -0.999793 
-0.020363 -0.00159847 -0.999791 
-0.0203704 -0.00373643 -0.999786 
-0.0202691 -0.00593448 -0.999777 
-0.0201098 -0.00824829 -0.999764 
-0.0199068 -0.0106748 -0.999745 
-0.0196295 -0.0131568 -0.999721 
-0.0192666 -0.0156768 -0.999691 
-0.018787 -0.0182173 -0.999658 
-0.0181186 -0.0206768 -0.999622 
-0.0171661 -0.0229475 -0.999589 
-0.0156811 -0.024542 -0.999576 
-0.0132663 -0.0237845 -0.999629 
-0.00929671 -0.0179604 -0.999795 
-0.000206519 -2.21105e-05 -1 
-0.00273542 -0.0611082 0.998127 
0.00454021 -0.0427867 0.999074 
0.00991243 -0.0380199 0.999228 
0.013043 -0.0325718 0.999384 
0.0150664 -0.0275775 0.999506 
0.0163505 -0.0233952 0.999593 
0.01726 -0.0197345 0.999656 
0.0179073 -0.0164515 0.999704 
0.0184113 -0.0134126 0.999741 
0.0187976 -0.0105418 0.999768 
0.0190641 -0.00785939 0.999787 
0.0192415 -0.00537511 0.9998 
0.0193584 -0.00303666 0.999808 
0.0194027 -0.000764557 0.999811 
0.0194021 0.00154771 0.999811 
0.0193541 0.00401541 0.999805 
0.0192789 0.00676579 0.999791 
0.0191399 0.00992895 0.999768 
0.0189685 0.0136719 0.999727 
0.0187441 0.0181755 0.999659 
0.0184851 0.0236761 0.999549 
0.0181842 0.0304583 0.999371 
0.017841 0.0388702 0.999085 
0.0174701 0.0493505 0.998629 
0.0170776 0.0624295 0.997903 
0.0166838 0.0787681 0.996753 
0.016322 0.0991814 0.994935 
0.0160447 0.124662 0.99207 
0.0158316 0.155919 0.987643 
0.0157983 0.194868 0.980702 
0.015971 0.242939 0.96991 
0.0163912 0.302048 0.953152 
0.0170325 0.373503 0.927473 
0.017867 0.459941 0.887769 
0.018487 0.558804 0.829094 
0.0187324 0.667694 0.7442 
0.0171884 0.78023 0.625256 
0.0142628 0.884105 0.46707 
0.00980514 0.961078 0.276102 
0.00198924 0.99799 0.0633349 
-0.00617065 0.985941 -0.166981 
-0.0130815 0.924625 -0.380654 
-0.0165702 0.833831 -0.551771 
-0.0182565 0.724498 -0.689035 
-0.0188876 0.613175 -0.789722 
-0.0183745 0.508216 -0.861033 
-0.0174863 0.413896 -0.910156 
-0.0168061 0.336468 -0.941545 
-0.016222 0.271446 -0.962317 
-0.0159045 0.218068 -0.975804 
-0.0158311 0.174681 -0.984498 
-0.0159363 0.139492 -0.990095 
-0.0161827 0.111201 -0.993666 
-0.0165194 0.0884345 -0.995945 
-0.0168997 0.0701722 -0.997392 
-0.0172936 0.0555592 -0.998306 
-0.0176727 0.0438507 -0.998882 
-0.0180109 0.0344239 -0.999245 
-0.0183921 0.0269352 -0.999468 
-0.0186474 0.0207908 -0.99961 
-0.0188594 0.0158084 -0.999697 
-0.0190753 0.0117447 -0.999749 
-0.0192268 0.00834101 -0.99978 
-0.0193527 0.00545161 -0.999798 
-0.0194292 0.00291284 -0.999807 
-0.0194667 0.000607096 -0.99981 
-0.019478 -0.00157763 -0.999809 
-0.0194456 -0.0037428 -0.999804 
-0.0193549 -0.00597109 -0.999795 
-0.0191834 -0.00830996 -0.999781 
-0.0189727 -0.0107364 -0.999762 
-0.0186775 -0.013191 -0.999739 
-0.0182882 -0.0156517 -0.99971 
-0.0177667 -0.0181532 -0.999677 
-0.0169997 -0.0205532 -0.999644 
-0.0160898 -0.0230288 -0.999605 
-0.0147675 -0.0246651 -0.999587 
-0.012586 -0.023948 -0.999634 
-0.00889894 -0.018027 -0.999798 
-0.000262272 -4.5822e-05 -1 
-0.00638868 -0.109695 0.993945 
0.00415005 -0.0536175 0.998553 
0.00817876 -0.0437912 0.999007 
0.0113184 -0.0358177 0.999294 
0.0132114 -0.0297045 0.999471 
0.0144775 -0.0248508 0.999586 
0.0154 -0.0207401 0.999666 
0.0160587 -0.0172191 0.999723 
0.0165688 -0.0140258 0.999764 
0.016968 -0.0110318 0.999795 
0.017242 -0.00823637 0.999817 
0.0174223 -0.00565475 0.999832 
0.0175493 -0.00324521 0.999841 
0.0175941 -0.000915527 0.999845 
0.0175955 0.00144269 0.999844 
0.0175525 0.00394414 0.999838 
0.0174947 0.00671629 0.999824 
0.0173551 0.00989337 0.9998 
0.0172068 0.0136388 0.999759 
0.0169952 0.0181313 0.999691 
0.0167699 0.0236119 0.999581 
0.0165163 0.0303447 0.999403 
0.0162342 0.0386769 0.99912 
0.0159507 0.0490248 0.99867 
0.0156759 0.0619095 0.997959 
0.0154431 0.0779458 0.996838 
0.0152984 0.0979061 0.995078 
0.0152962 0.122713 0.992324 
0.0154932 0.153382 0.988045 
0.0159807 0.191218 0.981417 
0.0168345 0.237906 0.971142 
0.018117 0.295191 0.955266 
0.0198609 0.365104 0.930755 
0.0219383 0.448702 0.893412 
0.02415 0.548339 0.835907 
0.0257848 0.660677 0.750227 
0.0248882 0.776795 0.629262 
0.0214163 0.884633 0.465796 
0.0156112 0.961775 0.273397 
0.00340082 0.99771 0.0675547 
-0.00882051 0.987883 -0.154952 
-0.0193947 0.925573 -0.378072 
-0.0247133 0.825591 -0.563728 
-0.0257541 0.716321 -0.697296 
-0.0252778 0.603376 -0.797056 
-0.023146 0.496131 -0.867939 
-0.0209706 0.404872 -0.914133 
-0.0190644 0.328834 -0.944195 
-0.0174976 0.265496 -0.963953 
-0.0164035 0.21363 -0.976777 
-0.0157283 0.171472 -0.985064 
-0.0153821 0.137399 -0.990396 
-0.0152929 0.109818 -0.993834 
-0.0153757 0.0875762 -0.996039 
-0.0155652 0.0696925 -0.997447 
-0.0158219 0.0553221 -0.998343 
-0.0161078 0.0437775 -0.998911 
-0.0164084 0.0345429 -0.999269 
-0.0166592 0.0269773 -0.999497 
-0.016931 0.0209214 -0.999638 
-0.0171559 0.0160025 -0.999725 
-0.0173146 0.0118988 -0.999779 
-0.0174447 0.00847068 -0.999812 
-0.0175436 0.00555166 -0.999831 
-0.0176242 0.00299412 -0.99984 
-0.0176634 0.000662082 -0.999844 
-0.0176614 -0.00154986 -0.999843 
-0.017613 -0.003745 -0.999838 
-0.0175218 -0.00600708 -0.999828 
-0.0173583 -0.00838476 -0.999814 
-0.0171536 -0.0108377 -0.999794 
-0.0168501 -0.0132816 -0.99977 
-0.0164468 -0.0157147 -0.999741 
-0.0158542 -0.0181164 -0.99971 
-0.0151995 -0.0206703 -0.999671 
-0.0143014 -0.0230943 -0.999631 
-0.0130983 -0.0247519 -0.999608 
-0.0112274 -0.0240838 -0.999647 
-0.00805644 -0.0181271 -0.999803 
-0.000232221 -3.68853e-05 -1 
0.00535152 -0.0400827 0.999182 
0.0076642 -0.0483186 0.998803 
0.00932751 -0.0424954 0.999053 
0.0109505 -0.0353157 0.999316 
0.0121169 -0.0294081 0.999494 
0.0130579 -0.0245269 0.999614 
0.0137498 -0.020534 0.999695 
0.0142839 -0.0170909 0.999752 
0.0147099 -0.0139381 0.999795 
0.0150521 -0.0109572 0.999827 
0.015289 -0.0081616 0.99985 
0.0154457 -0.00557363 0.999865 
0.015559 -0.00315344 0.999874 
0.015594 -0.000810086 0.999878 
0.0155904 0.00156468 0.999877 
0.0155532 0.0040915 0.999871 
0.0155174 0.00689069 0.999856 
0.0153562 0.0100719 0.999831 
0.0152598 0.0138701 0.999787 
0.0150427 0.0183584 0.999718 
0.0148688 0.023891 0.999604 
0.0146687 0.0306734 0.999422 
0.0144543 0.0390603 0.999132 
0.0142626 0.0494739 0.998674 
0.0141103 0.0624171 0.99795 
0.0140448 0.0785219 0.996813 
0.0141264 0.0985603 0.995031 
0.0144298 0.123481 0.992242 
0.0150479 0.154256 0.987916 
0.01611 0.192482 0.981168 
0.0177374 0.239776 0.970666 
0.0200548 0.298241 0.95428 
0.023169 0.369432 0.928969 
0.0269581 0.457433 0.888836 
0.031325 0.560622 0.827479 
0.0348926 0.679047 0.733266 
0.0346899 0.799199 0.600065 
0.0311742 0.90239 0.429791 
0.018136 0.980845 0.193945 
0.00287511 0.999771 0.0212234 
-0.00359951 0.99942 -0.0338483 
-0.0220319 0.961876 -0.272597 
-0.0334833 0.862293 -0.505302 
-0.0360054 0.742592 -0.668776 
-0.0336405 0.629289 -0.776443 
-0.0293551 0.516437 -0.855822 
-0.0252955 0.417103 -0.908507 
-0.0217944 0.336432 -0.941456 
-0.0189669 0.270535 -0.962523 
-0.0169299 0.216893 -0.976048 
-0.0155639 0.173641 -0.984686 
-0.0147152 0.138825 -0.990208 
-0.0142623 0.110905 -0.993729 
-0.0140789 0.0884089 -0.995985 
-0.0140726 0.0703308 -0.997424 
-0.0141859 0.0558212 -0.99834 
-0.0143655 0.0441713 -0.998921 
-0.0145734 0.0348059 -0.999288 
-0.0148043 0.0272396 -0.999519 
-0.015027 0.0211399 -0.999664 
-0.0151908 0.01615 -0.999754 
-0.0153424 0.0120321 -0.99981 
-0.0154591 0.00858551 -0.999844 
-0.0155393 0.00564165 -0.999863 
-0.0156124 0.00305968 -0.999873 
-0.0156545 0.000709729 -0.999877 
-0.0156447 -0.0015295 -0.999876 
-0.0155893 -0.00375277 -0.999871 
-0.0154827 -0.00604479 -0.999862 
-0.0153556 -0.00846816 -0.999846 
-0.0151814 -0.0109598 -0.999825 
-0.0148608 -0.013399 -0.9998 
-0.0144174 -0.0157773 -0.999772 
-0.0139275 -0.0182686 -0.999736 
-0.0133023 -0.0207774 -0.999696 
-0.0124836 -0.0231897 -0.999653 
-0.0113975 -0.0248546 -0.999626 
-0.0097607 -0.0241891 -0.99966 
-0.00702934 -0.0182189 -0.999809 
-0.000187291 -3.9796e-05 -1 
0.00239197 -0.0486285 0.998814 
0.0080839 -0.0511359 0.998659 
0.00950656 -0.0431259 0.999024 
0.0102881 -0.0361961 0.999292 
0.0108745 -0.029795 0.999497 
0.0115084 -0.0249193 0.999623 
0.012014 -0.0208198 0.999711 
0.0124281 -0.0173316 0.999773 
0.0127721 -0.0141478 0.999818 
0.0130556 -0.011124 0.999853 
0.0132574 -0.00829103 0.999878 
0.0133912 -0.00566518 0.999894 
0.0134898 -0.00320902 0.999904 
0.0135182 -0.000837064 0.999908 
0.0135102 0.0015653 0.999908 
0.0134717 0.00411078 0.999901 
0.0134095 0.00692031 0.999886 
0.0133424 0.0101615 0.999859 
0.0132081 0.0139166 0.999816 
0.0130932 0.0184783 0.999744 
0.0129305 0.0239365 0.99963 
0.0127774 0.0306464 0.999449 
0.01263 0.0389175 0.999163 
0.0125254 0.0491448 0.998713 
0.0124834 0.0617946 0.998011 
0.0125604 0.077434 0.996918 
0.0128252 0.0967598 0.995225 
0.0133651 0.120635 0.992607 
0.014289 0.150099 0.988568 
0.0157658 0.186301 0.982366 
0.0179703 0.231058 0.972774 
0.021086 0.286033 0.957988 
0.0252927 0.352285 0.935551 
0.0307334 0.434116 0.900333 
0.0376095 0.532257 0.845747 
0.0446839 0.645978 0.762047 
0.0492714 0.770788 0.635183 
0.0465135 0.892711 0.448222 
0.0418443 0.962311 0.268712 
-0.00123232 0.999988 -0.00478384 
-0.0256107 0.983358 -0.179862 
-0.0428361 0.909846 -0.412729 
-0.049708 0.795129 -0.604399 
-0.0472923 0.679421 -0.732223 
-0.0398661 0.571278 -0.819788 
-0.0329996 0.470854 -0.881594 
-0.0273643 0.384308 -0.922799 
-0.0226919 0.312092 -0.949781 
-0.019133 0.252878 -0.967309 
-0.01659 0.204491 -0.978728 
-0.0148491 0.165112 -0.986163 
-0.0137057 0.133071 -0.991012 
-0.0130262 0.107023 -0.994171 
-0.0126571 0.0858539 -0.996227 
-0.0125008 0.0686769 -0.997561 
-0.0124942 0.0547694 -0.998421 
-0.012578 0.0435133 -0.998974 
-0.0127092 0.0344013 -0.999327 
-0.0128892 0.0270237 -0.999552 
-0.0130766 0.0210524 -0.999693 
-0.0131787 0.0161089 -0.999783 
-0.0133065 0.0120188 -0.999839 
-0.0134014 0.00858715 -0.999873 
-0.0134611 0.00564523 -0.999893 
-0.0135282 0.00305693 -0.999904 
-0.0135755 0.000685491 -0.999908 
-0.0135592 -0.00157213 -0.999907 
-0.0135082 -0.00382105 -0.999901 
-0.0134362 -0.00614969 -0.999891 
-0.0133022 -0.0085943 -0.999875 
-0.0130966 -0.0110742 -0.999853 
-0.0128398 -0.0135637 -0.999826 
-0.0124674 -0.0159904 -0.999794 
-0.0119886 -0.0184302 -0.999758 
-0.011408 -0.020903 -0.999716 
-0.0106902 -0.0232994 -0.999671 
-0.0097605 -0.0249702 -0.999641 
-0.00835091 -0.0242796 -0.99967 
-0.00600683 -0.0182677 -0.999815 