# vtk DataFile Version 3.0 
Exported using Morpho https://github.com/Morpho-lang/morpho 
ASCII 
DATASET UNSTRUCTURED_GRID 

POINTS 2054 float 
-8.48528 -2.82843 0 
-8.20636 -2.82843 0 
-7.94054 -2.82843 0 
-7.6904 -2.82843 0 
-7.45357 -2.82843 0 
-7.22694 -2.82843 0 
-7.00705 -2.82843 0 
-6.79111 -2.82843 0 
-6.57731 -2.82843 0 
-6.36453 -2.82843 0 
-6.15219 -2.82843 0 
-5.94 -2.82843 0 
-5.72786 -2.82843 0 
-5.51573 -2.82843 0 
-5.3036 -2.82843 0 
-5.09147 -2.82843 0 
-4.87933 -2.82843 0 
-4.6672 -2.82843 0 
-4.45507 -2.82843 0 
-4.24294 -2.82843 0 
-4.03081 -2.82843 0 
-3.81867 -2.82843 0 
-3.60654 -2.82843 0 
-3.39441 -2.82843 0 
-3.18228 -2.82843 0 
-2.97015 -2.82843 0 
-2.75801 -2.82843 0 
-2.54588 -2.82843 0 
-2.33375 -2.82843 0 
-2.12162 -2.82843 0 
-1.90949 -2.82843 0 
-1.69735 -2.82843 0 
-1.48522 -2.82843 0 
-1.27309 -2.82843 0 
-1.06096 -2.82843 0 
-0.848825 -2.82843 0 
-0.636693 -2.82843 0 
-0.424561 -2.82843 0 
-0.212429 -2.82843 0 
-0.000296761 -2.82843 0 
0.211835 -2.82843 0 
0.423967 -2.82843 0 
0.636099 -2.82843 0 
0.848231 -2.82843 0 
1.06036 -2.82843 0 
1.2725 -2.82843 0 
1.48463 -2.82843 0 
1.69676 -2.82843 0 
1.90889 -2.82843 0 
2.12102 -2.82843 0 
2.33316 -2.82843 0 
2.54529 -2.82843 0 
2.75742 -2.82843 0 
2.96955 -2.82843 0 
3.18168 -2.82843 0 
3.39382 -2.82843 0 
3.60595 -2.82843 0 
3.81808 -2.82843 0 
4.03021 -2.82843 0 
4.24234 -2.82843 0 
4.45448 -2.82843 0 
4.66661 -2.82843 0 
4.87874 -2.82843 0 
5.09087 -2.82843 0 
5.303 -2.82843 0 
5.51514 -2.82843 0 
5.72727 -2.82843 0 
5.93941 -2.82843 0 
6.15159 -2.82843 0 
6.36393 -2.82843 0 
6.57672 -2.82843 0 
6.79055 -2.82843 0 
7.00652 -2.82843 0 
7.22647 -2.82843 0 
7.45313 -2.82843 0 
7.69005 -2.82843 0 
7.9403 -2.82843 0 
8.20621 -2.82843 0 
8.48528 -2.82843 0 
-8.48528 -2.5495 0 
-8.30526 -2.64845 0 
-8.07062 -2.59995 0 
-7.83904 -2.59637 0 
-7.59595 -2.59733 0 
-7.36578 -2.59177 0 
-7.13796 -2.5933 0 
-6.90908 -2.59428 0 
-6.68421 -2.5916 0 
-6.46568 -2.58832 0 
-6.24926 -2.58859 0 
-6.03358 -2.58941 0 
-5.81848 -2.59013 0 
-5.60402 -2.59075 0 
-5.39005 -2.59135 0 
-5.17642 -2.59186 0 
-4.96311 -2.59223 0 
-4.75009 -2.59242 0 
-4.53736 -2.59244 0 
-4.32497 -2.59236 0 
-4.1128 -2.59242 0 
-3.90059 -2.59259 0 
-3.68835 -2.5926 0 
-3.47627 -2.59248 0 
-3.26428 -2.59251 0 
-3.05216 -2.59271 0 
-2.83986 -2.59283 0 
-2.62755 -2.59274 0 
-2.41539 -2.59253 0 
-2.20336 -2.59238 0 
-1.99135 -2.59238 0 
-1.77924 -2.59246 0 
-1.56704 -2.59244 0 
-1.35495 -2.59215 0 
-1.14319 -2.59183 0 
-0.931581 -2.59195 0 
-0.719663 -2.59256 0 
-0.507197 -2.59324 0 
-0.294425 -2.59354 0 
-0.0817689 -2.59344 0 
0.130587 -2.59325 0 
0.342804 -2.59322 0 
0.555051 -2.59322 0 
0.767233 -2.59303 0 
0.97919 -2.59278 0 
1.19107 -2.59278 0 
1.40311 -2.59289 0 
1.61524 -2.59286 0 
1.82732 -2.59279 0 
2.03943 -2.59281 0 
2.25163 -2.5928 0 
2.46381 -2.59266 0 
2.67591 -2.59254 0 
2.88801 -2.59237 0 
3.10001 -2.59226 0 
3.31203 -2.59216 0 
3.52402 -2.59207 0 
3.73601 -2.59208 0 
3.94815 -2.59221 0 
4.16052 -2.5923 0 
4.37309 -2.59232 0 
4.58593 -2.59227 0 
4.79921 -2.5922 0 
5.01319 -2.59212 0 
5.22833 -2.5921 0 
5.44534 -2.59239 0 
5.6657 -2.59346 0 
5.89185 -2.59569 0 
6.12685 -2.59429 0 
6.36853 -2.59189 0 
6.6108 -2.57787 0 
6.84491 -2.61411 0 
7.08804 -2.58476 0 
7.34858 -2.60369 0 
7.58803 -2.59327 0 
7.83059 -2.59326 0 
8.06387 -2.59199 0 
8.30038 -2.64348 0 
8.48528 -2.54936 0 
-8.48528 -2.28369 0 
-8.25701 -2.4138 0 
-8.01078 -2.35334 0 
-7.73666 -2.37963 0 
-7.49744 -2.35565 0 
-7.26898 -2.35831 0 
-7.03324 -2.36676 0 
-6.7997 -2.36275 0 
-6.5773 -2.35166 0 
-6.35808 -2.3495 0 
-6.14038 -2.35058 0 
-5.92336 -2.35185 0 
-5.70723 -2.35272 0 
-5.49199 -2.35362 0 
-5.27734 -2.35447 0 
-5.0632 -2.35505 0 
-4.84958 -2.35534 0 
-4.63641 -2.35533 0 
-4.42363 -2.35504 0 
-4.21126 -2.35485 0 
-3.99909 -2.35513 0 
-3.78684 -2.3554 0 
-3.57461 -2.35516 0 
-3.36263 -2.35498 0 
-3.15066 -2.35537 0 
-2.93843 -2.35586 0 
-2.72604 -2.35589 0 
-2.51374 -2.35551 0 
-2.30162 -2.35509 0 
-2.08964 -2.35496 0 
-1.87761 -2.35518 0 
-1.66544 -2.3554 0 
-1.45322 -2.35518 0 
-1.2412 -2.35438 0 
-1.02967 -2.35407 0 
-0.818162 -2.35505 0 
-0.606054 -2.35676 0 
-0.393243 -2.3579 0 
-0.180256 -2.35789 0 
0.0323765 -2.35727 0 
0.244686 -2.35692 0 
0.456926 -2.35692 0 
0.669206 -2.35667 0 
0.881318 -2.35598 0 
1.09315 -2.35559 0 
1.305 -2.35583 0 
1.51709 -2.35595 0 
1.72919 -2.35571 0 
1.9412 -2.35566 0 
2.15334 -2.3558 0 
2.36559 -2.3556 0 
2.57772 -2.35522 0 
2.78976 -2.35507 0 
3.0019 -2.35461 0 
3.21373 -2.35451 0 
3.42571 -2.35439 0 
3.63769 -2.35431 0 
3.84965 -2.35453 0 
4.06183 -2.35491 0 
4.27435 -2.35507 0 
4.48707 -2.35507 0 
4.70017 -2.35506 0 
4.91376 -2.35498 0 
5.12819 -2.35502 0 
5.34378 -2.35528 0 
5.56106 -2.35662 0 
5.78097 -2.35971 0 
6.00401 -2.36251 0 
6.2308 -2.3624 0 
6.45748 -2.35551 0 
6.68075 -2.33423 0 
6.88797 -2.39744 0 
7.05313 -2.27289 0 
7.24377 -2.40237 0 
7.48542 -2.36016 0 
7.73055 -2.36599 0 
7.99177 -2.33552 0 
8.24864 -2.40698 0 
8.48528 -2.28345 0 
-8.48528 -2.03355 0 
-8.25312 -2.18214 0 
-8.03669 -2.07913 0 
-7.83956 -2.18231 0 
-7.6106 -2.12852 0 
-7.38852 -2.10959 0 
-7.16268 -2.14097 0 
-6.9229 -2.1435 0 
-6.70119 -2.12055 0 
-6.48111 -2.11285 0 
-6.26282 -2.11284 0 
-6.045 -2.1151 0 
-5.82775 -2.11658 0 
-5.61153 -2.11776 0 
-5.3962 -2.1192 0 
-5.18144 -2.1203 0 
-4.96732 -2.12084 0 
-4.75387 -2.12105 0 
-4.54086 -2.12091 0 
-4.32822 -2.12045 0 
-4.11596 -2.12045 0 
-3.90382 -2.12107 0 
-3.69156 -2.12116 0 
-3.47938 -2.12058 0 
-3.26746 -2.12068 0 
-3.05542 -2.12154 0 
-2.84307 -2.12198 0 
-2.63064 -2.12162 0 
-2.41836 -2.12087 0 
-2.20626 -2.12031 0 
-1.99426 -2.12034 0 
-1.78217 -2.1207 0 
-1.56989 -2.12074 0 
-1.35755 -2.11993 0 
-1.14542 -2.11838 0 
-0.934012 -2.11859 0 
-0.722404 -2.12089 0 
-0.509943 -2.12344 0 
-0.296911 -2.12431 0 
-0.0840921 -2.12359 0 
0.128295 -2.12281 0 
0.340414 -2.12274 0 
0.552564 -2.12288 0 
0.76478 -2.12226 0 
0.976792 -2.1213 0 
1.18855 -2.12128 0 
1.40042 -2.12188 0 
1.61256 -2.12177 0 
1.82458 -2.12141 0 
2.03655 -2.12164 0 
2.24875 -2.12174 0 
2.46099 -2.12114 0 
2.67302 -2.12065 0 
2.88504 -2.12054 0 
3.09728 -2.1194 0 
3.30873 -2.11968 0 
3.52086 -2.1195 0 
3.7329 -2.11938 0 
3.94484 -2.11986 0 
4.15715 -2.12044 0 
4.36983 -2.12035 0 
4.58282 -2.1204 0 
4.79606 -2.12017 0 
5.01004 -2.12012 0 
5.22483 -2.12002 0 
5.44073 -2.12051 0 
5.6582 -2.123 0 
5.8782 -2.12696 0 
6.10217 -2.12971 0 
6.33095 -2.12707 0 
6.567 -2.11601 0 
6.82301 -2.12303 0 
7.06572 -2.04567 0 
7.29733 -2.17484 0 
7.54632 -2.11408 0 
7.79371 -2.13741 0 
8.02274 -2.07453 0 
8.25027 -2.1738 0 
8.48528 -2.0332 0 
-8.48528 -1.79671 0 
-8.25436 -1.93882 0 
-8.01299 -1.83977 0 
-7.78596 -1.953 0 
-7.5297 -1.87194 0 
-7.2756 -1.88722 0 
-7.05707 -1.93544 0 
-6.84369 -1.89677 0 
-6.62219 -1.88079 0 
-6.40169 -1.87606 0 
-6.18206 -1.87854 0 
-5.96274 -1.881 0 
-5.74458 -1.88208 0 
-5.52796 -1.88344 0 
-5.31232 -1.88506 0 
-5.09736 -1.88569 0 
-4.88338 -1.88564 0 
-4.67019 -1.88555 0 
-4.45737 -1.88507 0 
-4.24485 -1.88447 0 
-4.03271 -1.88482 0 
-3.82061 -1.88562 0 
-3.60832 -1.88529 0 
-3.39617 -1.88464 0 
-3.18427 -1.88547 0 
-2.97209 -1.88672 0 
-2.7596 -1.88684 0 
-2.54714 -1.88601 0 
-2.33483 -1.88505 0 
-2.12268 -1.8846 0 
-1.91058 -1.885 0 
-1.69824 -1.88561 0 
-1.48561 -1.88547 0 
-1.27286 -1.88413 0 
-1.06032 -1.88216 0 
-0.848858 -1.8839 0 
-0.636875 -1.88781 0 
-0.424169 -1.89034 0 
-0.211518 -1.89004 0 
0.000731944 -1.88866 0 
0.21257 -1.88788 0 
0.424308 -1.88807 0 
0.636257 -1.88793 0 
0.848362 -1.88664 0 
1.06025 -1.88556 0 
1.27191 -1.88605 0 
1.48381 -1.88664 0 
1.69595 -1.886 0 
1.90782 -1.88577 0 
2.11974 -1.88637 0 
2.33202 -1.88609 0 
2.54419 -1.88502 0 
2.75607 -1.88472 0 
2.96812 -1.88462 0 
3.18055 -1.88217 0 
3.39117 -1.88415 0 
3.60398 -1.8838 0 
3.81618 -1.88366 0 
4.02827 -1.88469 0 
4.24071 -1.88523 0 
4.4544 -1.88509 0 
4.66716 -1.88476 0 
4.88099 -1.88493 0 
5.09545 -1.88466 0 
5.31057 -1.88453 0 
5.52653 -1.88564 0 
5.7436 -1.88981 0 
5.96352 -1.89563 0 
6.18733 -1.89813 0 
6.41543 -1.89522 0 
6.65059 -1.89622 0 
6.87542 -1.86913 0 
7.11122 -1.81621 0 
7.31223 -1.94975 0 
7.53264 -1.87683 0 
7.77077 -1.89068 0 
8.01717 -1.8297 0 
8.25014 -1.93148 0 
8.48528 -1.79628 0 
-8.48528 -1.57009 0 
-8.24868 -1.70836 0 
-8.015 -1.61096 0 
-7.76734 -1.73071 0 
-7.54593 -1.61782 0 
-7.32306 -1.66278 0 
-7.05152 -1.7082 0 
-6.79786 -1.66675 0 
-6.56099 -1.64764 0 
-6.33267 -1.64541 0 
-6.10856 -1.64921 0 
-5.88638 -1.65073 0 
-5.66697 -1.65153 0 
-5.44986 -1.65353 0 
-5.23379 -1.65525 0 
-5.01882 -1.6551 0 
-4.80519 -1.6548 0 
-4.59235 -1.65478 0 
-4.37976 -1.65422 0 
-4.16737 -1.65386 0 
-3.95537 -1.65471 0 
-3.74326 -1.6554 0 
-3.5309 -1.65455 0 
-3.31876 -1.65426 0 
-3.10682 -1.65593 0 
-2.89443 -1.65705 0 
-2.68177 -1.65644 0 
-2.46924 -1.65516 0 
-2.25682 -1.65408 0 
-2.04447 -1.65386 0 
-1.83202 -1.65455 0 
-1.61911 -1.65506 0 
-1.40572 -1.65429 0 
-1.19212 -1.65207 0 
-0.97885 -1.64982 0 
-0.767325 -1.65372 0 
-0.555434 -1.6581 0 
-0.343588 -1.65935 0 
-0.132061 -1.65818 0 
0.0792288 -1.65687 0 
0.290417 -1.65682 0 
0.501823 -1.6575 0 
0.713729 -1.65709 0 
0.925861 -1.65545 0 
1.13768 -1.65488 0 
1.34929 -1.65604 0 
1.56128 -1.6563 0 
1.77337 -1.65516 0 
1.985 -1.65561 0 
2.19698 -1.65642 0 
2.40939 -1.65525 0 
2.62143 -1.65394 0 
2.83323 -1.65414 0 
3.04553 -1.65355 0 
3.25842 -1.64868 0 
3.46746 -1.65522 0 
3.68272 -1.65284 0 
3.89574 -1.65288 0 
4.10731 -1.65378 0 
4.32287 -1.65565 0 
4.53627 -1.65249 0 
4.74932 -1.65397 0 
4.96428 -1.65355 0 
5.17935 -1.65257 0 
5.3944 -1.65202 0 
5.60927 -1.65354 0 
5.82513 -1.66019 0 
6.04295 -1.66711 0 
6.26383 -1.66843 0 
6.48537 -1.66776 0 
6.70098 -1.65646 0 
6.91299 -1.6206 0 
7.11709 -1.6046 0 
7.3526 -1.69716 0 
7.60698 -1.65764 0 
7.8325 -1.64214 0 
8.05985 -1.58842 0 
8.2608 -1.69223 0 
8.48528 -1.56961 0 
-8.48528 -1.35019 0 
-8.24958 -1.48044 0 
-8.0219 -1.3751 0 
-7.79713 -1.50391 0 
-7.58956 -1.39834 0 
-7.36199 -1.38754 0 
-7.16079 -1.49923 0 
-6.93764 -1.46284 0 
[...]
POINT_DATA 2054 
VECTORS vectors float
0.0031528 -0.00541916 0.99998 
0.0034028 -0.00993057 0.999945 
0.00292055 -0.00713949 0.99997 
0.00346667 -0.00201953 0.999992 
0.00274287 0.00208871 0.999994 
0.00308522 0.00548189 0.99998 
0.00286131 0.00706208 0.999971 
0.00276434 0.00801383 0.999964 
0.00273828 0.00762906 0.999967 
0.00266371 0.00726735 0.99997 
0.00253841 0.0117863 0.999927 
0.00259352 0.0229031 0.999734 
0.00252344 0.037357 0.999299 
0.00258975 0.0512958 0.99868 
0.00252131 0.0656487 0.99784 
0.00241255 0.0861366 0.99628 
0.00226698 0.115232 0.993336 
0.00215795 0.150272 0.988642 
0.00202287 0.187149 0.982329 
0.00184915 0.223853 0.974621 
0.00167835 0.258544 0.965998 
0.00147531 0.287232 0.95786 
0.00129449 0.304874 0.952392 
0.00107842 0.308836 0.951115 
0.000833442 0.300184 0.953881 
0.000575902 0.281016 0.959703 
0.000354721 0.252182 0.96768 
0.000167497 0.214329 0.976762 
1.19258e-05 0.170307 0.985391 
-8.94536e-05 0.12471 0.992193 
-0.000151313 0.0809119 0.996721 
-0.000126602 0.0392877 0.999228 
-5.69984e-05 -0.000846511 1 
1.35092e-05 -0.0383807 0.999263 
0.000124874 -0.07069 0.997498 
0.000223845 -0.0957613 0.995404 
0.000352299 -0.113199 0.993572 
0.000531575 -0.12346 0.992349 
0.000680407 -0.126671 0.991945 
0.00085528 -0.122458 0.992473 
0.00104507 -0.110396 0.993887 
0.00116294 -0.0903323 0.995911 
0.00134053 -0.0629741 0.998014 
0.0014658 -0.029839 0.999554 
0.0015487 0.00797693 0.999967 
0.00162535 0.0509786 0.998698 
0.00159661 0.100862 0.994899 
0.00156661 0.159066 0.987267 
0.00142476 0.22602 0.974122 
0.00130771 0.302168 0.953254 
0.00105616 0.389471 0.921038 
0.000806036 0.490453 0.871468 
0.000557825 0.605118 0.796136 
0.000190503 0.727776 0.685815 
-5.20361e-05 0.846234 0.532812 
-0.00035554 0.942798 0.333364 
-0.000540045 0.995763 0.0919592 
-0.000623696 0.985081 -0.172091 
-0.000770539 0.905506 -0.424333 
-0.000952481 0.775137 -0.631792 
-0.00124065 0.62453 -0.781 
-0.00152467 0.479081 -0.877769 
-0.00178529 0.353089 -0.935588 
-0.00203377 0.253179 -0.967417 
-0.00226313 0.179777 -0.983705 
-0.00239164 0.126824 -0.991922 
-0.00240726 0.0859785 -0.996294 
-0.0024971 0.054241 -0.998525 
-0.00256392 0.0325498 -0.999467 
-0.00258643 0.0212022 -0.999772 
-0.00277572 0.0165033 -0.99986 
-0.00270655 0.0133364 -0.999907 
-0.00279525 0.0100483 -0.999946 
-0.00312598 0.00712068 -0.99997 
-0.0026624 0.00253578 -0.999993 
-0.00354743 -0.0024668 -0.999991 
-0.0028401 -0.00782835 -0.999965 
-0.00345835 -0.0101604 -0.999942 
-0.00308452 -0.00549159 -0.99998 
0.00103979 -0.00362988 0.999993 
0.0023411 -0.00817763 0.999964 
0.00315611 -0.00813791 0.999962 
0.00447613 -0.00497228 0.999978 
0.00633384 -0.000825379 0.99998 
0.00779155 0.00353644 0.999963 
0.00776818 0.00709446 0.999945 
0.00720248 0.00919264 0.999932 
0.00654751 0.0101556 0.999927 
0.00609242 0.0107911 0.999923 
0.00571784 0.0138353 0.999888 
0.00495224 0.0217587 0.999751 
0.00350279 0.0340982 0.999412 
0.00129331 0.0486343 0.998816 
-0.00190982 0.064836 0.997894 
-0.00668191 0.085298 0.996333 
-0.0138447 0.112616 0.993542 
-0.0242878 0.14657 0.988902 
-0.0387337 0.184652 0.98204 
-0.0578287 0.22416 0.972835 
-0.0820688 0.26259 0.961411 
-0.111942 0.296602 0.948418 
-0.14793 0.321928 0.935136 
-0.189642 0.334717 0.923039 
-0.234984 0.333056 0.913157 
-0.280509 0.31696 0.906008 
-0.32257 0.287597 0.901796 
-0.357862 0.247088 0.90049 
-0.383888 0.19898 0.901686 
-0.39961 0.147864 0.904681 
-0.405597 0.0976685 0.908819 
-0.403464 0.0502416 0.913615 
-0.394933 0.0058673 0.918691 
-0.381255 -0.0349858 0.923808 
-0.362868 -0.0709098 0.929139 
-0.339932 -0.100368 0.935079 
-0.313319 -0.122301 0.94174 
-0.284669 -0.136395 0.948873 
-0.255636 -0.142504 0.956213 
-0.227363 -0.140546 0.963614 
-0.20047 -0.130539 0.970964 
-0.175363 -0.112728 0.978029 
-0.152565 -0.0876293 0.984401 
-0.132515 -0.0564242 0.989574 
-0.115158 -0.0199667 0.993146 
-0.100502 0.0216564 0.994701 
-0.0884369 0.0692694 0.99367 
-0.0789358 0.12414 0.98912 
-0.071728 0.187299 0.979681 
-0.0667642 0.259886 0.963329 
-0.0640158 0.343581 0.936939 
-0.0634163 0.44045 0.895535 
-0.0645859 0.551051 0.831968 
-0.0669364 0.672279 0.737266 
-0.0697385 0.795211 0.602308 
-0.0719398 0.904473 0.420421 
-0.0718753 0.978675 0.192432 
-0.0680907 0.995425 -0.0670324 
-0.060383 0.942864 -0.327659 
-0.0504557 0.830556 -0.554645 
-0.0405315 0.685632 -0.726819 
-0.0318487 0.536681 -0.843184 
-0.0249425 0.402758 -0.914967 
-0.0197246 0.292874 -0.955947 
-0.0160155 0.208699 -0.977849 
-0.0133973 0.146538 -0.989114 
-0.0116152 0.0999912 -0.994921 
-0.0102237 0.0645037 -0.997865 
-0.00933882 0.03949 -0.999176 
-0.00851363 0.0250784 -0.999649 
-0.00866123 0.0186626 -0.999788 
-0.00825561 0.0140234 -0.999868 
-0.00882302 0.010275 -0.999908 
-0.0081437 0.00511962 -0.999954 
-0.00634232 -0.000221822 -0.99998 
-0.00400168 -0.00470561 -0.999981 
-0.00277896 -0.00809599 -0.999963 
-0.00203063 -0.00810139 -0.999965 
-0.00118628 -0.00367886 -0.999993 
0.00153145 -0.00526575 0.999985 
0.00121117 -0.00831843 0.999965 
0.0023985 -0.00731462 0.99997 
0.00557005 -0.004141 0.999976 
0.00756071 0.000713347 0.999971 
0.00813083 0.00597725 0.999949 
0.00722036 0.0103143 0.999921 
0.0055903 0.0128842 0.999901 
0.00408461 0.0142828 0.99989 
0.00294249 0.0163074 0.999863 
0.00154026 0.0218359 0.99976 
-0.000804291 0.0321717 0.999482 
-0.00439278 0.0463828 0.998914 
-0.00935041 0.0636251 0.99793 
-0.0163952 0.085053 0.996242 
-0.0270406 0.11295 0.993233 
-0.0430592 0.148465 0.98798 
-0.0661229 0.190746 0.97941 
-0.0976924 0.237658 0.966424 
-0.138969 0.286418 0.947973 
-0.190983 0.333507 0.9232 
-0.254699 0.374288 0.891649 
-0.329978 0.403162 0.853566 
-0.413484 0.414464 0.81071 
-0.498822 0.404483 0.766531 
-0.57873 0.373152 0.725141 
-0.646822 0.323984 0.690403 
-0.69865 0.262948 0.665392 
-0.732529 0.196891 0.65164 
-0.74944 0.131615 0.648858 
-0.752008 0.0704532 0.655378 
-0.743276 0.014501 0.668828 
-0.725648 -0.0361397 0.687117 
-0.700527 -0.0811325 0.708999 
-0.667518 -0.119555 0.734933 
-0.626454 -0.15022 0.764846 
-0.578893 -0.172036 0.797049 
-0.527851 -0.184177 0.829127 
-0.476054 -0.186289 0.859458 
-0.425163 -0.178535 0.887334 
-0.376249 -0.161547 0.912326 
-0.330621 -0.136488 0.933842 
-0.289612 -0.104633 0.951408 
-0.253897 -0.0672724 0.964889 
-0.223283 -0.0248262 0.974437 
-0.197527 0.0228973 0.98003 
-0.176879 0.0767185 0.981238 
-0.160936 0.137721 0.977309 
-0.14931 0.207517 0.96677 
-0.141835 0.288072 0.947047 
-0.138687 0.381321 0.913981 
-0.139347 0.488204 0.861533 
-0.142831 0.607343 0.781495 
-0.147994 0.732785 0.664172 
-0.152494 0.85176 0.501249 
-0.153612 0.944803 0.289397 
-0.148163 0.988223 0.0382422 
-0.134496 0.964746 -0.226219 
-0.114356 0.875622 -0.469264 
-0.0918356 0.742291 -0.663755 
-0.070727 0.594191 -0.801208 
-0.053009 0.454564 -0.889135 
-0.0391491 0.336071 -0.941023 
-0.0287967 0.242627 -0.969692 
-0.0213134 0.172369 -0.984802 
-0.0162223 0.120403 -0.992593 
-0.0129056 0.0816582 -0.996577 
-0.0106729 0.0534583 -0.998513 
-0.00902784 0.0351152 -0.999343 
-0.00817324 0.0252609 -0.999647 
-0.00766535 0.0200866 -0.999769 
-0.0095151 0.0157404 -0.999831 
-0.00854965 0.0131989 -0.999876 
-0.00968395 0.00822337 -0.999919 
-0.0078306 0.00207726 -0.999967 
-0.00530623 -0.00346135 -0.99998 
-0.00194789 -0.00647855 -0.999977 
-0.000887722 -0.00808565 -0.999967 
-0.0014599 -0.00537066 -0.999985 
4.77909e-05 -0.00411562 0.999992 
0.000950603 -0.00810721 0.999967 
0.00369613 -0.00877722 0.999955 
0.00511187 -0.00634868 0.999967 
0.00697324 -0.0030767 0.999971 
0.0070544 0.00282619 0.999971 
0.0061828 0.00915303 0.999939 
0.00385059 0.0140659 0.999894 
0.000978094 0.0167609 0.999859 
-0.00142376 0.0182532 0.999832 
-0.00378749 0.0215782 0.99976 
-0.00701097 0.0294694 0.999541 
-0.011564 0.0424401 0.999032 
-0.017426 0.059667 0.998066 
-0.0250746 0.0815489 0.996354 
-0.0360717 0.11018 0.993257 
-0.0528317 0.147633 0.98763 
-0.0779203 0.194644 0.977774 
-0.113746 0.250291 0.961466 
-0.162523 0.312334 0.935967 
-0.225928 0.377091 0.898197 
-0.305059 0.438983 0.845123 
-0.399825 0.490435 0.774347 
-0.506482 0.521834 0.686415 
-0.616296 0.524014 0.587868 
-0.718835 0.49367 0.489454 
-0.805762 0.435211 0.401671 
-0.872356 0.358022 0.332888 
-0.918043 0.272801 0.287708 
-0.945281 0.188261 0.266463 
-0.957602 0.109534 0.266461 
-0.958298 0.0384268 0.283174 
-0.949742 -0.0252156 0.312015 
-0.933319 -0.0820649 0.349544 
-0.909352 -0.132456 0.394379 
-0.876044 -0.175732 0.449072 
-0.832335 -0.210495 0.512748 
-0.779373 -0.234801 0.580901 
-0.720179 -0.24695 0.64835 
-0.657626 -0.246065 0.712025 
-0.593706 -0.232628 0.770323 
-0.530704 -0.208122 0.821607 
-0.471364 -0.174818 0.864439 
-0.417985 -0.134914 0.89838 
-0.371367 -0.089673 0.924146 
-0.331206 -0.0395633 0.942729 
-0.297697 0.0156931 0.954531 
-0.271204 0.076962 0.95944 
-0.251155 0.145687 0.95692 
-0.236971 0.224146 0.945306 
-0.228923 0.314345 0.921293 
-0.226893 0.417799 0.879752 
-0.22971 0.534152 0.813582 
-0.235539 0.659743 0.713625 
-0.242215 0.785298 0.569771 
-0.2447 0.893289 0.377035 
-0.239046 0.961132 0.138136 
-0.22151 0.967052 -0.125479 
-0.192379 0.904797 -0.379911 
-0.156649 0.788883 -0.594243 
-0.12087 0.646688 -0.753117 
-0.0893247 0.504543 -0.858753 
-0.063871 0.379051 -0.923169 
-0.0443274 0.277054 -0.959831 
-0.029934 0.198891 -0.979564 
-0.0198361 0.140926 -0.989821 
-0.0132502 0.0981581 -0.995083 
-0.00929895 0.0665268 -0.997741 
-0.00680805 0.0442957 -0.998995 
-0.00511801 0.0310098 -0.999506 
-0.00451406 0.0242373 -0.999696 
-0.00560103 0.0191482 -0.999801 
-0.00612406 0.0137618 -0.999887 
-0.00857727 0.00686342 -0.99994 
-0.00741204 -0.000831714 -0.999972 
-0.00511184 -0.00516623 -0.999974 
-0.00339382 -0.00818413 -0.999961 
-0.000552451 -0.00765613 -0.999971 
3.62974e-05 -0.00413396 -0.999991 
-0.000408805 -0.00395964 0.999992 
0.00203275 -0.0088375 0.999959 
0.00425902 -0.00963786 0.999944 
0.00594555 -0.00753439 0.999954 
0.00465113 -0.00277029 0.999985 
0.00299473 0.00547604 0.999981 
0.00159087 0.0124409 0.999921 
-0.00237795 0.0171132 0.999851 
-0.00583745 0.0193969 0.999795 
-0.00909534 0.0211753 0.999734 
-0.0129962 0.0263138 0.999569 
-0.0182577 0.0371617 0.999142 
-0.0248004 0.0534816 0.998261 
-0.0325683 0.0750341 0.996649 
-0.0425617 0.103549 0.993713 
-0.0572131 0.141948 0.988219 
-0.0796748 0.192438 0.978069 
-0.113153 0.255495 0.960166 
-0.160715 0.329936 0.930222 
-0.224846 0.412603 0.882725 
-0.306733 0.497234 0.811587 
-0.405657 0.574009 0.711305 
-0.517194 0.629699 0.579646 
-0.631203 0.649426 0.424063 
-0.735117 0.624703 0.263343 
-0.820246 0.559916 0.117003 
-0.883518 0.468396 -0.00128225 
-0.927 0.365419 -0.0844942 
-0.955635 0.263069 -0.132503 
-0.97432 0.168286 -0.149603 
-0.986422 0.0834304 -0.141457 
-0.993421 0.00806541 -0.114235 
-0.995553 -0.0592662 -0.0732194 
-0.992532 -0.12008 -0.0214565 
-0.98364 -0.175408 0.0410414 
-0.966953 -0.224584 0.12068 
-0.939747 -0.265704 0.215122 
-0.901258 -0.295329 0.31704 
-0.852914 -0.310226 0.419879 
-0.796436 -0.308745 0.519968 
-0.734174 -0.291365 0.613266 
-0.669358 -0.260583 0.695742 
-0.606157 -0.21975 0.764385 
-0.548028 -0.171722 0.818643 
-0.495942 -0.118147 0.860281 
-0.450109 -0.0594053 0.890995 
-0.411813 0.00457464 0.911257 
-0.381708 0.074862 0.921246 
-0.359014 0.153468 0.920628 
-0.343401 0.242358 0.90738 
-0.335751 0.343534 0.877072 
-0.335222 0.457273 0.823728 
-0.339195 0.581467 0.739488 
-0.344775 0.709641 0.614443 
-0.348261 0.828039 0.439392 
-0.340475 0.914488 0.218605 
-0.319049 0.946932 -0.0390897 
-0.281703 0.911746 -0.298937 
-0.233014 0.817161 -0.527211 
-0.181587 0.686641 -0.703953 
-0.134349 0.546343 -0.826716 
-0.0952318 0.417444 -0.903699 
-0.0644426 0.308803 -0.94894 
-0.0413063 0.22352 -0.973824 
-0.0246421 0.159753 -0.986849 
-0.0134637 0.113059 -0.993497 
-0.00674125 0.0787244 -0.996874 
-0.00307345 0.0533863 -0.998569 
-0.00103719 0.0364831 -0.999334 
0.000182642 0.0275598 -0.99962 
0.00011718 0.0232442 -0.99973 
-0.000529558 0.0190593 -0.999818 
-0.00126888 0.0121745 -0.999925 
-0.00593602 0.00546384 -0.999967 
-0.00567588 -0.00238138 -0.999981 
-0.005757 -0.00756528 -0.999955 
-0.0041098 -0.00952445 -0.999946 
-0.00183624 -0.00889105 -0.999959 
0.000448881 -0.00394739 -0.999992 
-0.000350498 -0.00345198 0.999994 
0.00201469 -0.00945974 0.999953 
0.00263317 -0.010709 0.999939 
0.00374683 -0.00905654 0.999952 
-0.00038529 -0.00490528 0.999988 
-0.0019488 0.00319092 0.999993 
-0.00446078 0.0130359 0.999905 
-0.00898012 0.0190328 0.999779 
-0.012488 0.0212311 0.999697 
-0.0162216 0.0240375 0.999579 
-0.0213151 0.0320185 0.99926 
-0.027927 0.0467118 0.998518 
-0.0355619 0.0674134 0.997091 
-0.0444326 0.0949783 0.994487 
-0.0562977 0.132665 0.989561 
-0.07423 0.18413 0.980095 
-0.101748 0.251362 0.96253 
-0.142381 0.33424 0.931671 
-0.199197 0.430614 0.880279 
-0.273795 0.534724 0.799442 
-0.365009 0.635106 0.680741 
-0.467663 0.715119 0.519516 
-0.570989 0.755339 0.321612 
-0.661707 0.741598 0.110346 
-0.731791 0.67633 -0.0840234 
-0.78034 0.576263 -0.242879 
-0.811582 0.460998 -0.358909 
-0.832491 0.345868 -0.432821 
-0.849045 0.23954 -0.470897 
-0.865015 0.144994 -0.480339 
-0.881884 0.0617769 -0.467402 
-0.89902 -0.0121358 -0.437739 
-0.915087 -0.0790252 -0.395438 
-0.929089 -0.141004 -0.341922 
-0.940562 -0.199458 -0.274882 
-0.949464 -0.253792 -0.184683 
-0.950445 -0.301341 -0.0764691 
-0.940464 -0.337142 0.0431654 
-0.918652 -0.356717 0.169796 
-0.884919 -0.35753 0.298481 
-0.840252 -0.339843 0.422473 
-0.787782 -0.306233 0.534435 
-0.732419 -0.260643 0.62899 
-0.67834 -0.206357 0.705175 
-0.627224 -0.145208 0.765183 
-0.580474 -0.0779979 0.810534 
-0.540907 -0.00458019 0.84107 
-0.509729 0.0760935 0.856963 
-0.485489 0.165865 0.858364 
-0.469333 0.266485 0.841851 
-0.462226 0.378704 0.801829 
-0.461449 0.501234 0.732004 
-0.462668 0.629277 0.624459 
-0.461756 0.752492 0.469613 
-0.453039 0.852094 0.262091 
-0.423449 0.905562 0.0254688 
-0.377691 0.895412 -0.235767 
-0.316577 0.823048 -0.471563 
-0.250308 0.709119 -0.659163 
-0.186699 0.576007 -0.795839 
-0.133518 0.447362 -0.88433 
-0.0909732 0.33629 -0.937354 
-0.0582603 0.245391 -0.967672 
-0.0341613 0.176222 -0.983758 
-0.0172925 0.125741 -0.991912 
-0.0064735 0.089215 -0.995991 
-0.0004017 0.0621473 -0.998067 
0.0025815 0.0423459 -0.9991 
0.0041278 0.0300939 -0.999539 
0.00501059 0.0248192 -0.999679 
0.00536024 0.0222562 -0.999738 
0.00535696 0.0183068 -0.999818 
0.00423484 0.0118046 -0.999921 
-0.000698578 0.00238665 -0.999997 
-0.0022761 -0.0066452 -0.999975 
-0.00339794 -0.010401 -0.99994 
-0.00290163 -0.0117131 -0.999927 
-0.00192184 -0.00930741 -0.999955 
0.000501909 -0.0034578 -0.999994 
-0.000427955 -0.00333466 0.999994 
0.000922622 -0.00938983 0.999955 
-0.000632772 -0.0107402 0.999942 
-0.000274468 -0.0102964 0.999947 
-0.00488089 -0.00646489 0.999967 
-0.0079441 0.00254681 0.999965 
-0.00840118 0.0102755 0.999912 
-0.0117024 0.0178408 0.999772 
-0.0142653 0.0218879 0.999659 
-0.0167192 0.0238703 0.999575 
-0.0203695 0.0288418 0.999376 
-0.025716 0.0407312 0.998839 
-0.0322968 0.0599411 0.997679 
-0.0397248 0.0860326 0.9955 
-0.0489432 0.12157 0.991375 
-0.062233 0.171153 0.983277 
-0.0828437 0.238729 0.967546 
-0.114141 0.325344 0.938682 
-0.159211 0.429671 0.888839 
-0.220208 0.547585 0.807254 
-0.296423 0.668073 0.682504 
-0.38305 0.771684 0.507717 
-0.469859 0.834896 0.286674 
-0.543659 0.838253 0.0420268 
-0.596748 0.779942 -0.188634 
-0.630227 0.678213 -0.377943 
-0.648755 0.556453 -0.519112 
-0.659405 0.433019 -0.614556 
-0.668948 0.318549 -0.671592 
-0.681321 0.217019 -0.699074 
-0.698505 0.128533 -0.703968 
-0.720485 0.0509978 -0.691593 
-0.745417 -0.0183827 -0.666345 
-0.771703 -0.0822827 -0.630638 
-0.798775 -0.142983 -0.584393 
-0.827809 -0.20187 -0.523431 
-0.860752 -0.25854 -0.438479 
-0.889446 -0.309528 -0.33627 
-0.911068 -0.349792 -0.218177 
-0.923196 -0.374547 -0.0861574 
-0.923131 -0.380556 0.0548326 
-0.909183 -0.36703 0.19666 
-0.882436 -0.335719 0.329544 
-0.847132 -0.289903 0.445335 
-0.807379 -0.232883 0.54213 
-0.765289 -0.16662 0.621748 
-0.723981 -0.092132 0.68364 
-0.68792 -0.00966397 0.725722 
-0.658182 0.0817454 0.748408 
-0.633398 0.182997 0.751877 
-0.616665 0.294857 0.729921 
-0.608229 0.416485 0.67572 
-0.602036 0.543391 0.585046 
-0.592447 0.667432 0.451155 
-0.574418 0.77403 0.266311 
-0.540726 0.840528 0.0335961 
-0.479735 0.856169 -0.191909 
-0.404064 0.801627 -0.440598 
-0.324693 0.706394 -0.628952 
-0.243787 0.586276 -0.77256 
-0.176869 0.463279 -0.868384 
-0.122811 0.353178 -0.92746 
-0.0813672 0.262547 -0.961482 
-0.0498835 0.188925 -0.980724 
-0.0273725 0.134994 -0.990468 
-0.0121543 0.0968282 -0.995227 
-0.0025412 0.0690062 -0.997613 
0.0027195 0.0482195 -0.998833 
0.0052843 0.0333291 -0.99943 
0.00675229 0.0252579 -0.999658 
0.00793833 0.022703 -0.999711 
0.00881239 0.0208671 -0.999743 
0.00897529 0.0154669 -0.99984 
0.0062193 0.00595119 -0.999963 
0.00371005 -0.00312888 -0.999988 
0.00185756 -0.00996096 -0.999949 
3.9354e-05 -0.0109853 -0.99994 
-0.000861361 -0.00975482 -0.999952 
0.000600342 -0.00311755 -0.999995 
-0.000120058 -0.00313127 0.999995 
-0.000829013 -0.00899391 0.999959 
-0.00340559 -0.00986273 0.999946 
-0.00443851 -0.00984083 0.999942 
-0.00813969 -0.00323415 0.999962 
-0.0104504 0.00781645 0.999915 
-0.0120992 0.0143771 0.999823 
-0.0140297 0.0219746 0.99966 
-0.0154899 0.0251867 0.999563 
-0.0175026 0.0278978 0.999458 
-0.0208043 0.035924 0.999138 
-0.0253608 0.0521382 0.998318 
-0.030576 0.0761724 0.996626 
-0.0370147 0.108362 0.993422 
-0.046114 0.153077 0.987138 
-0.0602427 0.215957 0.974543 
-0.0820919 0.300435 0.950263 
-0.114104 0.405511 0.90694 
-0.1588 0.529235 0.833483 
-0.216209 0.663414 0.716335 
-0.283358 0.789211 0.544843 
-0.352583 0.879528 0.319557 
-0.412172 0.909182 0.0591795 
-0.453265 0.869086 -0.198092 
-0.476914 0.774649 -0.415298 
-0.488292 0.652492 -0.579505 
-0.492285 0.524292 -0.694819 
-0.495143 0.403437 -0.769462 
-0.501629 0.29585 -0.812921 
-0.513642 0.202594 -0.833743 
-0.531951 0.122319 -0.837894 
-0.555702 0.0522234 -0.82974 
-0.582947 -0.0108997 -0.812437 
-0.612766 -0.0698163 -0.787175 
-0.645924 -0.126681 -0.752817 
-0.685871 -0.183077 -0.704318 
-0.734453 -0.23874 -0.635281 
-0.783095 -0.289693 -0.550309 
-0.830739 -0.331596 -0.44712 
-0.873968 -0.360009 -0.326455 
-0.908387 -0.371613 -0.191667 
-0.929783 -0.364714 -0.0498802 
-0.936416 -0.339525 0.0885831 
-0.930261 -0.297907 0.214162 
-0.914205 -0.242481 0.324703 
-0.890155 -0.17499 0.420717 
-0.862177 -0.0963035 0.49737 
-0.835377 -0.00684173 0.549635 
-0.810131 0.0932132 0.578792 
-0.785845 0.203495 0.583984 
-0.767529 0.323724 0.553265 
-0.752778 0.449486 0.480924 
-0.732107 0.572195 0.369611 
-0.700424 0.681247 0.212858 
-0.651974 0.758218 0.00592779 
-0.581053 0.779455 -0.234153 
-0.488838 0.767521 -0.414668 
-0.395172 0.672094 -0.626202 
-0.296975 0.572599 -0.764157 
-0.218022 0.459292 -0.861114 
-0.153735 0.35611 -0.921711 
-0.104521 0.267499 -0.957872 
-0.0682451 0.197826 -0.977859 
-0.0402468 0.139084 -0.989462 
-0.0218464 0.0998306 -0.994765 
-0.0091266 0.0721905 -0.997349 
-0.00126412 0.0518008 -0.998657 
0.00318449 0.0368356 -0.999316 
0.00562552 0.0270447 -0.999618 
0.00716025 0.0225898 -0.999719 
0.00856081 0.0218207 -0.999725 
0.00961471 0.0203664 -0.999746 
0.00974187 0.014792 -0.999843 
0.00871834 0.00568966 -0.999946 
0.00665162 -0.00444718 -0.999968 
0.00456287 -0.00984776 -0.999941 
0.0017101 -0.0119011 -0.999928 
0.00102545 -0.00854625 -0.999963 
1.54612e-05 -0.00318879 -0.999995 
5.81463e-05 -0.00309183 0.999995 
-0.00224387 -0.00847878 0.999962 
-0.00398576 -0.00871523 0.999954 
-0.00599877 -0.00798059 0.99995 
-0.0073242 -0.000495528 0.999973 
-0.0078727 0.0107596 0.999911 
-0.0114382 0.0199041 0.999736 
-0.0129162 0.0264732 0.999566 
-0.0146416 0.0286861 0.999481 
-0.0167377 0.0330377 0.999314 
-0.0193638 0.0448717 0.998805 
-0.0221824 0.0653355 0.997617 
-0.0255061 0.0944958 0.995198 
-0.0306468 0.133017 0.99064 
-0.039458 0.188226 0.981333 
-0.0535254 0.266104 0.962457 