# vtk DataFile Version 3.0 
Exported using Morpho https://github.com/Morpho-lang/morpho 
ASCII 
DATASET UNSTRUCTURED_GRID 

POINTS 2054 float 
-8.48528 -2.82843 0 
-8.20636 -2.82843 0 
-7.94054 -2.82843 0 
-7.6904 -2.82843 0 
-7.45357 -2.82843 0 
-7.22694 -2.82843 0 
-7.00705 -2.82843 0 
-6.79111 -2.82843 0 
-6.57731 -2.82843 0 
-6.36453 -2.82843 0 
-6.15219 -2.82843 0 
-5.94 -2.82843 0 
-5.72786 -2.82843 0 
-5.51573 -2.82843 0 
-5.3036 -2.82843 0 
-5.09147 -2.82843 0 
-4.87933 -2.82843 0 
-4.6672 -2.82843 0 
-4.45507 -2.82843 0 
-4.24294 -2.82843 0 
-4.03081 -2.82843 0 
-3.81867 -2.82843 0 
-3.60654 -2.82843 0 
-3.39441 -2.82843 0 
-3.18228 -2.82843 0 
-2.97015 -2.82843 0 
-2.75801 -2.82843 0 
-2.54588 -2.82843 0 
-2.33375 -2.82843 0 
-2.12162 -2.82843 0 
-1.90949 -2.82843 0 
-1.69735 -2.82843 0 
-1.48522 -2.82843 0 
-1.27309 -2.82843 0 
-1.06096 -2.82843 0 
-0.848825 -2.82843 0 
-0.636693 -2.82843 0 
-0.424561 -2.82843 0 
-0.212429 -2.82843 0 
-0.000296761 -2.82843 0 
0.211835 -2.82843 0 
0.423967 -2.82843 0 
0.636099 -2.82843 0 
0.848231 -2.82843 0 
1.06036 -2.82843 0 
1.2725 -2.82843 0 
1.48463 -2.82843 0 
1.69676 -2.82843 0 
1.90889 -2.82843 0 
2.12102 -2.82843 0 
2.33316 -2.82843 0 
2.54529 -2.82843 0 
2.75742 -2.82843 0 
2.96955 -2.82843 0 
3.18168 -2.82843 0 
3.39382 -2.82843 0 
3.60595 -2.82843 0 
3.81808 -2.82843 0 
4.03021 -2.82843 0 
4.24234 -2.82843 0 
4.45448 -2.82843 0 
4.66661 -2.82843 0 
4.87874 -2.82843 0 
5.09087 -2.82843 0 
5.303 -2.82843 0 
5.51514 -2.82843 0 
5.72727 -2.82843 0 
5.93941 -2.82843 0 
6.15159 -2.82843 0 
6.36393 -2.82843 0 
6.57672 -2.82843 0 
6.79055 -2.82843 0 
7.00652 -2.82843 0 
7.22647 -2.82843 0 
7.45313 -2.82843 0 
7.69005 -2.82843 0 
7.9403 -2.82843 0 
8.20621 -2.82843 0 
8.48528 -2.82843 0 
-8.48528 -2.5495 0 
-8.30526 -2.64845 0 
-8.07062 -2.59995 0 
-7.83904 -2.59637 0 
-7.59595 -2.59733 0 
-7.36578 -2.59177 0 
-7.13796 -2.5933 0 
-6.90908 -2.59428 0 
-6.68421 -2.5916 0 
-6.46568 -2.58832 0 
-6.24926 -2.58859 0 
-6.03358 -2.58941 0 
-5.81848 -2.59013 0 
-5.60402 -2.59075 0 
-5.39005 -2.59135 0 
-5.17642 -2.59186 0 
-4.96311 -2.59223 0 
-4.75009 -2.59242 0 
-4.53736 -2.59244 0 
-4.32497 -2.59236 0 
-4.1128 -2.59242 0 
-3.90059 -2.59259 0 
-3.68835 -2.5926 0 
-3.47627 -2.59248 0 
-3.26428 -2.59251 0 
-3.05216 -2.59271 0 
-2.83986 -2.59283 0 
-2.62755 -2.59274 0 
-2.41539 -2.59253 0 
-2.20336 -2.59238 0 
-1.99135 -2.59238 0 
-1.77924 -2.59246 0 
-1.56704 -2.59244 0 
-1.35495 -2.59215 0 
-1.14319 -2.59183 0 
-0.931581 -2.59195 0 
-0.719663 -2.59256 0 
-0.507197 -2.59324 0 
-0.294425 -2.59354 0 
-0.0817689 -2.59344 0 
0.130587 -2.59325 0 
0.342804 -2.59322 0 
0.555051 -2.59322 0 
0.767233 -2.59303 0 
0.97919 -2.59278 0 
1.19107 -2.59278 0 
1.40311 -2.59289 0 
1.61524 -2.59286 0 
1.82732 -2.59279 0 
2.03943 -2.59281 0 
2.25163 -2.5928 0 
2.46381 -2.59266 0 
2.67591 -2.59254 0 
2.88801 -2.59237 0 
3.10001 -2.59226 0 
3.31203 -2.59216 0 
3.52402 -2.59207 0 
3.73601 -2.59208 0 
3.94815 -2.59221 0 
4.16052 -2.5923 0 
4.37309 -2.59232 0 
4.58593 -2.59227 0 
4.79921 -2.5922 0 
5.01319 -2.59212 0 
5.22833 -2.5921 0 
5.44534 -2.59239 0 
5.6657 -2.59346 0 
5.89185 -2.59569 0 
6.12685 -2.59429 0 
6.36853 -2.59189 0 
6.6108 -2.57787 0 
6.84491 -2.61411 0 
7.08804 -2.58476 0 
7.34858 -2.60369 0 
7.58803 -2.59327 0 
7.83059 -2.59326 0 
8.06387 -2.59199 0 
8.30038 -2.64348 0 
8.48528 -2.54936 0 
-8.48528 -2.28369 0 
-8.25701 -2.4138 0 
-8.01078 -2.35334 0 
-7.73666 -2.37963 0 
-7.49744 -2.35565 0 
-7.26898 -2.35831 0 
-7.03324 -2.36676 0 
-6.7997 -2.36275 0 
-6.5773 -2.35166 0 
-6.35808 -2.3495 0 
-6.14038 -2.35058 0 
-5.92336 -2.35185 0 
-5.70723 -2.35272 0 
-5.49199 -2.35362 0 
-5.27734 -2.35447 0 
-5.0632 -2.35505 0 
-4.84958 -2.35534 0 
-4.63641 -2.35533 0 
-4.42363 -2.35504 0 
-4.21126 -2.35485 0 
-3.99909 -2.35513 0 
-3.78684 -2.3554 0 
-3.57461 -2.35516 0 
-3.36263 -2.35498 0 
-3.15066 -2.35537 0 
-2.93843 -2.35586 0 
-2.72604 -2.35589 0 
-2.51374 -2.35551 0 
-2.30162 -2.35509 0 
-2.08964 -2.35496 0 
-1.87761 -2.35518 0 
-1.66544 -2.3554 0 
-1.45322 -2.35518 0 
-1.2412 -2.35438 0 
-1.02967 -2.35407 0 
-0.818162 -2.35505 0 
-0.606054 -2.35676 0 
-0.393243 -2.3579 0 
-0.180256 -2.35789 0 
0.0323765 -2.35727 0 
0.244686 -2.35692 0 
0.456926 -2.35692 0 
0.669206 -2.35667 0 
0.881318 -2.35598 0 
1.09315 -2.35559 0 
1.305 -2.35583 0 
1.51709 -2.35595 0 
1.72919 -2.35571 0 
1.9412 -2.35566 0 
2.15334 -2.3558 0 
2.36559 -2.3556 0 
2.57772 -2.35522 0 
2.78976 -2.35507 0 
3.0019 -2.35461 0 
3.21373 -2.35451 0 
3.42571 -2.35439 0 
3.63769 -2.35431 0 
3.84965 -2.35453 0 
4.06183 -2.35491 0 
4.27435 -2.35507 0 
4.48707 -2.35507 0 
4.70017 -2.35506 0 
4.91376 -2.35498 0 
5.12819 -2.35502 0 
5.34378 -2.35528 0 
5.56106 -2.35662 0 
5.78097 -2.35971 0 
6.00401 -2.36251 0 
6.2308 -2.3624 0 
6.45748 -2.35551 0 
6.68075 -2.33423 0 
6.88797 -2.39744 0 
7.05313 -2.27289 0 
7.24377 -2.40237 0 
7.48542 -2.36016 0 
7.73055 -2.36599 0 
7.99177 -2.33552 0 
8.24864 -2.40698 0 
8.48528 -2.28345 0 
-8.48528 -2.03355 0 
-8.25312 -2.18214 0 
-8.03669 -2.07913 0 
-7.83956 -2.18231 0 
-7.6106 -2.12852 0 
-7.38852 -2.10959 0 
-7.16268 -2.14097 0 
-6.9229 -2.1435 0 
-6.70119 -2.12055 0 
-6.48111 -2.11285 0 
-6.26282 -2.11284 0 
-6.045 -2.1151 0 
-5.82775 -2.11658 0 
-5.61153 -2.11776 0 
-5.3962 -2.1192 0 
-5.18144 -2.1203 0 
-4.96732 -2.12084 0 
-4.75387 -2.12105 0 
-4.54086 -2.12091 0 
-4.32822 -2.12045 0 
-4.11596 -2.12045 0 
-3.90382 -2.12107 0 
-3.69156 -2.12116 0 
-3.47938 -2.12058 0 
-3.26746 -2.12068 0 
-3.05542 -2.12154 0 
-2.84307 -2.12198 0 
-2.63064 -2.12162 0 
-2.41836 -2.12087 0 
-2.20626 -2.12031 0 
-1.99426 -2.12034 0 
-1.78217 -2.1207 0 
-1.56989 -2.12074 0 
-1.35755 -2.11993 0 
-1.14542 -2.11838 0 
-0.934012 -2.11859 0 
-0.722404 -2.12089 0 
-0.509943 -2.12344 0 
-0.296911 -2.12431 0 
-0.0840921 -2.12359 0 
0.128295 -2.12281 0 
0.340414 -2.12274 0 
0.552564 -2.12288 0 
0.76478 -2.12226 0 
0.976792 -2.1213 0 
1.18855 -2.12128 0 
1.40042 -2.12188 0 
1.61256 -2.12177 0 
1.82458 -2.12141 0 
2.03655 -2.12164 0 
2.24875 -2.12174 0 
2.46099 -2.12114 0 
2.67302 -2.12065 0 
2.88504 -2.12054 0 
3.09728 -2.1194 0 
3.30873 -2.11968 0 
3.52086 -2.1195 0 
3.7329 -2.11938 0 
3.94484 -2.11986 0 
4.15715 -2.12044 0 
4.36983 -2.12035 0 
4.58282 -2.1204 0 
4.79606 -2.12017 0 
5.01004 -2.12012 0 
5.22483 -2.12002 0 
5.44073 -2.12051 0 
5.6582 -2.123 0 
5.8782 -2.12696 0 
6.10217 -2.12971 0 
6.33095 -2.12707 0 
6.567 -2.11601 0 
6.82301 -2.12303 0 
7.06572 -2.04567 0 
7.29733 -2.17484 0 
7.54632 -2.11408 0 
7.79371 -2.13741 0 
8.02274 -2.07453 0 
8.25027 -2.1738 0 
8.48528 -2.0332 0 
-8.48528 -1.79671 0 
-8.25436 -1.93882 0 
-8.01299 -1.83977 0 
-7.78596 -1.953 0 
-7.5297 -1.87194 0 
-7.2756 -1.88722 0 
-7.05707 -1.93544 0 
-6.84369 -1.89677 0 
-6.62219 -1.88079 0 
-6.40169 -1.87606 0 
-6.18206 -1.87854 0 
-5.96274 -1.881 0 
-5.74458 -1.88208 0 
-5.52796 -1.88344 0 
-5.31232 -1.88506 0 
-5.09736 -1.88569 0 
-4.88338 -1.88564 0 
-4.67019 -1.88555 0 
-4.45737 -1.88507 0 
-4.24485 -1.88447 0 
-4.03271 -1.88482 0 
-3.82061 -1.88562 0 
-3.60832 -1.88529 0 
-3.39617 -1.88464 0 
-3.18427 -1.88547 0 
-2.97209 -1.88672 0 
-2.7596 -1.88684 0 
-2.54714 -1.88601 0 
-2.33483 -1.88505 0 
-2.12268 -1.8846 0 
-1.91058 -1.885 0 
-1.69824 -1.88561 0 
-1.48561 -1.88547 0 
-1.27286 -1.88413 0 
-1.06032 -1.88216 0 
-0.848858 -1.8839 0 
-0.636875 -1.88781 0 
-0.424169 -1.89034 0 
-0.211518 -1.89004 0 
0.000731944 -1.88866 0 
0.21257 -1.88788 0 
0.424308 -1.88807 0 
0.636257 -1.88793 0 
0.848362 -1.88664 0 
1.06025 -1.88556 0 
1.27191 -1.88605 0 
1.48381 -1.88664 0 
1.69595 -1.886 0 
1.90782 -1.88577 0 
2.11974 -1.88637 0 
2.33202 -1.88609 0 
2.54419 -1.88502 0 
2.75607 -1.88472 0 
2.96812 -1.88462 0 
3.18055 -1.88217 0 
3.39117 -1.88415 0 
3.60398 -1.8838 0 
3.81618 -1.88366 0 
4.02827 -1.88469 0 
4.24071 -1.88523 0 
4.4544 -1.88509 0 
4.66716 -1.88476 0 
4.88099 -1.88493 0 
5.09545 -1.88466 0 
5.31057 -1.88453 0 
5.52653 -1.88564 0 
5.7436 -1.88981 0 
5.96352 -1.89563 0 
6.18733 -1.89813 0 
6.41543 -1.89522 0 
6.65059 -1.89622 0 
6.87542 -1.86913 0 
7.11122 -1.81621 0 
7.31223 -1.94975 0 
7.53264 -1.87683 0 
7.77077 -1.89068 0 
8.01717 -1.8297 0 
8.25014 -1.93148 0 
8.48528 -1.79628 0 
-8.48528 -1.57009 0 
-8.24868 -1.70836 0 
-8.015 -1.61096 0 
-7.76734 -1.73071 0 
-7.54593 -1.61782 0 
-7.32306 -1.66278 0 
-7.05152 -1.7082 0 
-6.79786 -1.66675 0 
-6.56099 -1.64764 0 
-6.33267 -1.64541 0 
-6.10856 -1.64921 0 
-5.88638 -1.65073 0 
-5.66697 -1.65153 0 
-5.44986 -1.65353 0 
-5.23379 -1.65525 0 
-5.01882 -1.6551 0 
-4.80519 -1.6548 0 
-4.59235 -1.65478 0 
-4.37976 -1.65422 0 
-4.16737 -1.65386 0 
-3.95537 -1.65471 0 
-3.74326 -1.6554 0 
-3.5309 -1.65455 0 
-3.31876 -1.65426 0 
-3.10682 -1.65593 0 
-2.89443 -1.65705 0 
-2.68177 -1.65644 0 
-2.46924 -1.65516 0 
-2.25682 -1.65408 0 
-2.04447 -1.65386 0 
-1.83202 -1.65455 0 
-1.61911 -1.65506 0 
-1.40572 -1.65429 0 
-1.19212 -1.65207 0 
-0.97885 -1.64982 0 
-0.767325 -1.65372 0 
-0.555434 -1.6581 0 
-0.343588 -1.65935 0 
-0.132061 -1.65818 0 
0.0792288 -1.65687 0 
0.290417 -1.65682 0 
0.501823 -1.6575 0 
0.713729 -1.65709 0 
0.925861 -1.65545 0 
1.13768 -1.65488 0 
1.34929 -1.65604 0 
1.56128 -1.6563 0 
1.77337 -1.65516 0 
1.985 -1.65561 0 
2.19698 -1.65642 0 
2.40939 -1.65525 0 
2.62143 -1.65394 0 
2.83323 -1.65414 0 
3.04553 -1.65355 0 
3.25842 -1.64868 0 
3.46746 -1.65522 0 
3.68272 -1.65284 0 
3.89574 -1.65288 0 
4.10731 -1.65378 0 
4.32287 -1.65565 0 
4.53627 -1.65249 0 
4.74932 -1.65397 0 
4.96428 -1.65355 0 
5.17935 -1.65257 0 
5.3944 -1.65202 0 
5.60927 -1.65354 0 
5.82513 -1.66019 0 
6.04295 -1.66711 0 
6.26383 -1.66843 0 
6.48537 -1.66776 0 
6.70098 -1.65646 0 
6.91299 -1.6206 0 
7.11709 -1.6046 0 
7.3526 -1.69716 0 
7.60698 -1.65764 0 
7.8325 -1.64214 0 
8.05985 -1.58842 0 
8.2608 -1.69223 0 
8.48528 -1.56961 0 
-8.48528 -1.35019 0 
-8.24958 -1.48044 0 
-8.0219 -1.3751 0 
-7.79713 -1.50391 0 
-7.58956 -1.39834 0 
-7.36199 -1.38754 0 
-7.16079 -1.49923 0 
-6.93764 -1.46284 0 
[...]
POINT_DATA 2054 
VECTORS vectors float
0.00150744 -0.00983948 0.99995 
0.00603894 -0.00999387 0.999933 
0.000274576 -0.0071768 0.999973 
0.00581238 -0.00202159 0.999982 
0.00331835 0.00210803 0.999992 
0.00479158 0.00548389 0.999974 
0.00519938 0.00704712 0.999962 
0.00530696 0.00799381 0.999954 
0.00637783 0.0075762 0.999951 
0.00650886 0.00713964 0.999953 
0.00602987 0.0116289 0.999914 
0.00645007 0.0228078 0.999719 
0.0056577 0.0373332 0.999287 
0.00542668 0.0512455 0.998671 
0.00541979 0.065491 0.997838 
0.0051822 0.0859246 0.996288 
0.0046498 0.115052 0.993349 
0.00440422 0.150153 0.988653 
0.00397734 0.187059 0.982341 
0.00334774 0.223786 0.974633 
0.00293767 0.258535 0.965998 
0.00236301 0.287296 0.957839 
0.00173286 0.304968 0.952361 
0.00103331 0.308899 0.951094 
0.000391642 0.300217 0.953871 
-0.000142181 0.281068 0.959688 
-0.000447404 0.252282 0.967654 
-0.000543731 0.214452 0.976734 
-0.000418806 0.17042 0.985371 
-0.000214009 0.124819 0.99218 
-0.000170134 0.0810462 0.99671 
4.27064e-05 0.0394451 0.999222 
0.000246168 -0.000709954 1 
0.000381414 -0.0383017 0.999266 
0.000767016 -0.0706586 0.9975 
0.00100197 -0.0957429 0.995406 
0.00134776 -0.113175 0.993574 
0.00182329 -0.123431 0.992352 
0.00194426 -0.126647 0.991946 
0.00229922 -0.122442 0.992473 
0.00256831 -0.110371 0.993887 
0.0023557 -0.0902783 0.995914 
0.00273133 -0.06287 0.998018 
0.00281307 -0.0296815 0.999556 
0.00269459 0.0081577 0.999963 
0.00309679 0.051167 0.998685 
0.00320388 0.101073 0.994874 
0.00325681 0.159319 0.987222 
0.00342676 0.226312 0.974049 
0.00394933 0.30247 0.953151 
0.00351392 0.389756 0.920912 
0.00310308 0.490719 0.871313 
0.00250303 0.605394 0.795922 
0.00109861 0.728054 0.685519 
0.000646256 0.846461 0.53245 
-6.11084e-05 0.942929 0.332994 
-0.000581901 0.995794 0.0916178 
-0.000573752 0.985021 -0.172433 
-0.000651849 0.905339 -0.42469 
-0.00070026 0.774871 -0.632119 
-0.00139024 0.624217 -0.78125 
-0.00235254 0.478752 -0.877947 
-0.00322681 0.352739 -0.935716 
-0.00411304 0.252835 -0.967501 
-0.00476707 0.179513 -0.983744 
-0.0049049 0.126672 -0.991933 
-0.00535237 0.0858555 -0.996293 
-0.00628171 0.0540745 -0.998517 
-0.00598207 0.0323526 -0.999459 
-0.00589512 0.0210643 -0.999761 
-0.00672599 0.0164394 -0.999842 
-0.00528819 0.013304 -0.999897 
-0.00532697 0.0100246 -0.999936 
-0.00535625 0.0071152 -0.999961 
-0.00274021 0.00254165 -0.999993 
-0.006132 -0.00248894 -0.999979 
-3.07724e-05 -0.00788768 -0.999968 
-0.00641067 -0.0102322 -0.999928 
-0.00108516 -0.00969733 -0.999952 
-0.00911077 0.000339634 0.999959 
0.00249437 -0.0083299 0.999962 
0.00320668 -0.00820149 0.999961 
0.00453759 -0.00497725 0.999977 
0.00641374 -0.000832251 0.999979 
0.00793858 0.00355076 0.999962 
0.00789198 0.00711791 0.999944 
0.00732161 0.00920394 0.999931 
0.00665676 0.0101504 0.999926 
0.00620264 0.0107363 0.999923 
0.00584934 0.0137408 0.999889 
0.00509425 0.0216761 0.999752 
0.00364748 0.0340572 0.999413 
0.00144103 0.0486044 0.998817 
-0.00176144 0.0647586 0.997899 
-0.00653401 0.0851693 0.996345 
-0.0137019 0.112481 0.993559 
-0.0241639 0.146467 0.988921 
-0.0386338 0.184583 0.982058 
-0.0577504 0.224118 0.97285 
-0.0820037 0.262582 0.961419 
-0.111871 0.296639 0.948415 
-0.147839 0.322002 0.935125 
-0.189531 0.334804 0.92303 
-0.234865 0.333144 0.913156 
-0.280391 0.317059 0.90601 
-0.322464 0.287723 0.901794 
-0.357777 0.247233 0.900484 
-0.383826 0.199126 0.90168 
-0.39957 0.148006 0.904675 
-0.405574 0.0978164 0.908813 
-0.403455 0.0503975 0.91361 
-0.394938 0.00600938 0.918688 
-0.381265 -0.0348843 0.923807 
-0.362874 -0.0708526 0.929141 
-0.33993 -0.100343 0.935082 
-0.313304 -0.122287 0.941747 
-0.284645 -0.136382 0.948882 
-0.255603 -0.142488 0.956224 
-0.227328 -0.140524 0.963626 
-0.200442 -0.130506 0.970975 
-0.175336 -0.112679 0.97804 
-0.152533 -0.0875425 0.984414 
-0.132478 -0.0563033 0.989586 
-0.115104 -0.0198165 0.993156 
-0.100442 0.0218263 0.994704 
-0.0883716 0.0694541 0.993663 
-0.0788691 0.12435 0.989099 
-0.0716593 0.187536 0.979641 
-0.0667042 0.260139 0.963264 
-0.0639644 0.343831 0.936851 
-0.0633793 0.440699 0.895415 
-0.0645721 0.551308 0.8318 
-0.0669374 0.672538 0.73703 
-0.0697552 0.795442 0.602002 
-0.0719712 0.904633 0.420072 
-0.0719038 0.978742 0.19208 
-0.0681077 0.9954 -0.0673753 
-0.0603809 0.942749 -0.327993 
-0.0504479 0.830354 -0.554948 
-0.0405433 0.685374 -0.727062 
-0.0318826 0.536399 -0.843362 
-0.025004 0.402467 -0.915093 
-0.0198062 0.292594 -0.956032 
-0.0161172 0.20847 -0.977896 
-0.0135141 0.146383 -0.989136 
-0.011749 0.0998789 -0.99493 
-0.0103516 0.0643762 -0.997872 
-0.009481 0.0393565 -0.99918 
-0.00863395 0.0249717 -0.999651 
-0.00880161 0.0186397 -0.999788 
-0.00836633 0.0140056 -0.999867 
-0.00895206 0.010291 -0.999907 
-0.00829748 0.0051309 -0.999952 
-0.00642411 -0.00023345 -0.999979 
-0.00403731 -0.00470717 -0.999981 
-0.00282558 -0.00816884 -0.999963 
-0.00216402 -0.00825266 -0.999964 
0.0088642 0.000910688 -0.999961 
-0.00384678 -0.00285362 0.999989 
0.00126492 -0.00849296 0.999963 
0.00232271 -0.00733542 0.999971 
0.00558193 -0.00418061 0.999976 
0.00761055 0.000716765 0.999971 
0.00820229 0.00601155 0.999948 
0.0072798 0.0103676 0.99992 
0.00563174 0.0129294 0.999901 
0.0041263 0.0142945 0.999889 
0.00300307 0.0162657 0.999863 
0.00162275 0.0217713 0.999762 
-0.000711009 0.0321299 0.999484 
-0.00430098 0.0463634 0.998915 
-0.00925527 0.0635902 0.997933 
-0.0162867 0.084978 0.99625 
-0.0269245 0.112851 0.993247 
-0.0429512 0.148374 0.987998 
-0.0660371 0.190677 0.979429 
-0.0976316 0.237612 0.966441 
-0.13892 0.286389 0.947989 
-0.190918 0.333505 0.923214 
-0.254597 0.374323 0.891663 
-0.329838 0.403236 0.853585 
-0.413324 0.414573 0.810736 
-0.498666 0.40462 0.76656 
-0.578595 0.373309 0.725167 
-0.646716 0.324152 0.690424 
-0.698575 0.263115 0.665405 
-0.732482 0.197054 0.651644 
-0.749415 0.131778 0.648854 
-0.752003 0.0706172 0.655366 
-0.74329 0.0146554 0.668808 
-0.725674 -0.0360135 0.687095 
-0.700558 -0.0810447 0.708979 
-0.667544 -0.119505 0.734917 
-0.626471 -0.150197 0.764837 
-0.578894 -0.172028 0.79705 
-0.527838 -0.184168 0.829138 
-0.476034 -0.18627 0.859474 
-0.425142 -0.1785 0.887351 
-0.37623 -0.161492 0.912344 
-0.330603 -0.136414 0.933859 
-0.289584 -0.104531 0.951428 
-0.253857 -0.0671503 0.964908 
-0.223235 -0.0246846 0.974452 
-0.197469 0.0230535 0.980038 
-0.176826 0.0768913 0.981234 
-0.160883 0.137905 0.977292 
-0.149262 0.207707 0.966736 
-0.14179 0.288269 0.946994 
-0.138657 0.38153 0.913898 
-0.139337 0.488425 0.861409 
-0.14284 0.607576 0.781312 
-0.148019 0.73301 0.663918 
-0.152523 0.851939 0.500935 
-0.153636 0.944905 0.289051 
-0.148168 0.988236 0.037897 
-0.134472 0.964674 -0.226543 
-0.114311 0.875475 -0.469549 
-0.0917908 0.74209 -0.663986 
-0.0707027 0.593963 -0.80138 
-0.0530121 0.454325 -0.889257 
-0.0391757 0.335837 -0.941105 
-0.0288414 0.242425 -0.969741 
-0.0213649 0.172222 -0.984827 
-0.0162844 0.120307 -0.992603 
-0.0129794 0.0815729 -0.996583 
-0.0107488 0.0533547 -0.998518 
-0.00908876 0.0350219 -0.999345 
-0.00823375 0.0252269 -0.999648 
-0.00766955 0.0200923 -0.999769 
-0.00964909 0.0157878 -0.999829 
-0.00857832 0.0132443 -0.999876 
-0.00978883 0.0082647 -0.999918 
-0.00786743 0.00208814 -0.999967 
-0.00532052 -0.00350852 -0.99998 
-0.00185679 -0.0064756 -0.999977 
-0.000932131 -0.00825439 -0.999966 
0.00425925 -0.00289193 -0.999988 
0.00145232 -0.00281122 0.999996 
0.000913894 -0.00822191 0.999966 
0.00372525 -0.00884576 0.999954 
0.00513126 -0.00636409 0.999967 
0.00704359 -0.00312768 0.99997 
0.00714035 0.0028385 0.999971 
0.00625492 0.00921075 0.999938 
0.00389741 0.0141438 0.999892 
0.00100724 0.0168256 0.999858 
-0.00139311 0.0182546 0.999832 
-0.00374166 0.0215213 0.999761 
-0.00696034 0.0294031 0.999544 
-0.011522 0.042397 0.999035 
-0.0173856 0.0596245 0.99807 
-0.0250191 0.0814725 0.996362 
-0.0359902 0.110066 0.993273 
-0.0527316 0.147501 0.987655 
-0.0778163 0.194516 0.977808 
-0.113644 0.250177 0.961508 
-0.162419 0.31223 0.93602 
-0.225802 0.377004 0.898266 
-0.304888 0.438931 0.845212 
-0.399608 0.490444 0.774454 
-0.506248 0.521917 0.686525 
-0.616084 0.524161 0.587959 
-0.71867 0.493851 0.489515 
-0.805646 0.435397 0.4017 
-0.872283 0.358197 0.332892 
-0.918 0.272963 0.287692 
-0.945259 0.188416 0.26643 
-0.957597 0.109687 0.266413 
-0.95831 0.0385744 0.283114 
-0.949767 -0.0250832 0.311952 
-0.933351 -0.0819571 0.349482 
-0.909389 -0.132375 0.394321 
-0.876081 -0.175682 0.449018 
-0.832367 -0.210474 0.512705 
-0.779391 -0.234796 0.580879 
-0.720177 -0.246946 0.648354 
-0.657605 -0.246042 0.712053 
-0.593672 -0.232585 0.770363 
-0.530656 -0.208055 0.821656 
-0.471302 -0.174729 0.864491 
-0.417906 -0.134807 0.898433 
-0.371276 -0.0895464 0.924195 
-0.331114 -0.0394253 0.942767 
-0.29761 0.01584 0.954556 
-0.271127 0.0771194 0.959449 
-0.251088 0.145842 0.956914 
-0.236913 0.224311 0.945281 
-0.22888 0.314522 0.921244 
-0.226866 0.417997 0.879665 
-0.229705 0.534371 0.813439 
-0.235552 0.659966 0.713415 
-0.242236 0.785496 0.569489 
-0.244718 0.89343 0.376691 
-0.23905 0.961186 0.137755 
-0.221491 0.967006 -0.125861 
-0.192337 0.904661 -0.380256 
-0.156591 0.78868 -0.594527 
-0.120819 0.646448 -0.753331 
-0.0892905 0.504289 -0.858907 
-0.0638558 0.378797 -0.923274 
-0.0443242 0.276825 -0.959898 
-0.0299362 0.198712 -0.979601 
-0.0198419 0.140805 -0.989839 
-0.0132625 0.098073 -0.995091 
-0.00932622 0.0664404 -0.997747 
-0.00683776 0.0441965 -0.999 
-0.00513155 0.0309491 -0.999508 
-0.00453446 0.0242566 -0.999696 
-0.00564002 0.0192138 -0.9998 
-0.00620362 0.0138319 -0.999885 
-0.00866272 0.00689529 -0.999939 
-0.00749302 -0.000878457 -0.999972 
-0.00511868 -0.0051666 -0.999974 
-0.00342433 -0.0082502 -0.99996 
-0.000505004 -0.00775448 -0.99997 
-0.00153942 -0.00216332 -0.999997 
0.0038662 -0.00474129 0.999982 
0.00201886 -0.00898496 0.999958 
0.00432707 -0.00968089 0.999944 
0.00603897 -0.00760205 0.999953 
0.00473282 -0.00283008 0.999985 
0.00306075 0.00548278 0.99998 
0.00164555 0.0125087 0.999921 
-0.00236443 0.0172012 0.999849 
-0.00584177 0.0194417 0.999794 
-0.00910185 0.0211325 0.999735 
-0.0130094 0.0262181 0.999572 
-0.018294 0.0370732 0.999145 
-0.0248581 0.0534037 0.998264 
-0.0326266 0.0749282 0.996655 
-0.0425905 0.10339 0.993729 
-0.0571971 0.141744 0.98825 
-0.0796184 0.192216 0.978118 
-0.113064 0.255275 0.960235 
-0.160596 0.329722 0.930319 
-0.224688 0.412396 0.882862 
-0.306523 0.497053 0.811777 
-0.405396 0.573897 0.711545 
-0.516911 0.629694 0.579904 
-0.630946 0.649528 0.424287 
-0.734915 0.624876 0.263495 
-0.820105 0.560109 0.117075 
-0.883423 0.468574 -0.00127578 
-0.926936 0.365574 -0.0845344 
-0.955587 0.263205 -0.132578 
-0.974282 0.168413 -0.149702 
-0.986395 0.083554 -0.141572 
-0.993406 0.00818252 -0.114354 
-0.995551 -0.0591596 -0.0733322 
-0.992542 -0.119983 -0.0215641 
-0.983659 -0.175327 0.0409327 
-0.96698 -0.224529 0.120569 
-0.939775 -0.265682 0.215025 
-0.901279 -0.295331 0.316978 
-0.852919 -0.310228 0.419866 
-0.79642 -0.308731 0.520001 
-0.734137 -0.291319 0.613333 
-0.669298 -0.26051 0.695827 
-0.606072 -0.219654 0.764479 
-0.547931 -0.171605 0.818733 
-0.495838 -0.11802 0.860358 
-0.450008 -0.0592663 0.891056 
-0.411729 0.00472097 0.911294 
-0.381633 0.0750123 0.921265 
-0.358956 0.153635 0.920623 
-0.343353 0.242533 0.907352 
-0.33572 0.343738 0.877004 
-0.335211 0.457502 0.823606 
-0.339201 0.581708 0.739296 
-0.344789 0.709872 0.614168 
-0.34827 0.828225 0.439034 
-0.340465 0.914595 0.218174 
-0.319013 0.946924 -0.0395647 
-0.281634 0.911615 -0.299399 
-0.232917 0.816932 -0.52761 
-0.181477 0.686352 -0.704264 
-0.134242 0.546031 -0.82694 
-0.095134 0.417129 -0.903855 
-0.0643485 0.308501 -0.949045 
-0.0412115 0.223261 -0.973887 
-0.0245447 0.159562 -0.986883 
-0.0133743 0.112931 -0.993513 
-0.00667461 0.0786306 -0.996882 
-0.00303223 0.0532788 -0.998575 
-0.0010121 0.0363753 -0.999338 
0.000212963 0.027519 -0.999621 
0.000141267 0.0232969 -0.999729 
-0.000527453 0.0191459 -0.999817 
-0.00128526 0.0122206 -0.999925 
-0.00601297 0.0054716 -0.999967 
-0.00575254 -0.00242798 -0.999981 
-0.00585684 -0.00766503 -0.999954 
-0.0041693 -0.00955116 -0.999946 
-0.0018117 -0.00905757 -0.999957 
-0.00478745 -0.00496547 -0.999977 
0.00264664 -0.00536551 0.999983 
0.00200475 -0.00960149 0.999952 
0.00270804 -0.0107805 0.999938 
0.00382959 -0.00916521 0.999951 
-0.000362441 -0.00501199 0.999988 
-0.00193692 0.00315096 0.999993 
-0.00447212 0.0130935 0.999904 
-0.00902412 0.0191077 0.999777 
-0.0125368 0.021229 0.999696 
-0.0162723 0.0239377 0.999581 
-0.0213918 0.0318866 0.999263 
-0.0280433 0.0466004 0.99852 
-0.0357024 0.0672926 0.997094 
-0.0445615 0.0948018 0.994498 
-0.0563813 0.132424 0.989588 
-0.0742542 0.183848 0.980146 
-0.101714 0.251074 0.962609 
-0.142296 0.33396 0.931785 
-0.199065 0.430335 0.880446 
-0.273613 0.534449 0.799687 
-0.36478 0.634878 0.681077 
-0.467409 0.714997 0.519912 
-0.570753 0.755353 0.321998 
-0.661515 0.741724 0.110652 
-0.731648 0.676509 -0.0838263 
-0.780232 0.576451 -0.24278 
-0.811494 0.46117 -0.358887 
-0.832411 0.346015 -0.432858 
-0.848963 0.23967 -0.470978 
-0.864932 0.145112 -0.480454 
-0.881807 0.0618864 -0.467532 
-0.898959 -0.012034 -0.437868 
-0.915043 -0.0789277 -0.395559 
-0.92906 -0.140909 -0.342041 
-0.940541 -0.199373 -0.275013 
-0.949452 -0.253732 -0.184828 
-0.950442 -0.301317 -0.0766078 
-0.940467 -0.337146 0.0430651 
-0.918655 -0.356728 0.169759 
-0.884913 -0.357522 0.298506 
-0.840227 -0.33981 0.422549 
-0.787735 -0.306169 0.534541 
-0.73235 -0.260556 0.629106 
-0.678257 -0.20625 0.705286 
-0.627142 -0.145085 0.765274 
-0.580402 -0.0778652 0.810599 
-0.540848 -0.00442627 0.841109 
-0.509689 0.0762674 0.856972 
-0.485457 0.166064 0.858344 
-0.469314 0.26672 0.841787 
-0.462218 0.378968 0.80171 
-0.46145 0.501517 0.731809 
-0.462671 0.629555 0.624177 
-0.461744 0.752729 0.469245 
-0.452995 0.852257 0.261637 
-0.423364 0.905616 0.0249531 
-0.377563 0.895326 -0.236299 
-0.316417 0.822834 -0.472043 
-0.250132 0.708824 -0.659547 
-0.186523 0.575674 -0.796121 
-0.13335 0.447021 -0.884528 
-0.0908104 0.335951 -0.937492 
-0.05809 0.245072 -0.967763 
-0.0339799 0.175957 -0.983811 
-0.0171077 0.125554 -0.991939 
-0.00630308 0.0890942 -0.996003 
-0.000266526 0.0620445 -0.998073 
0.00267645 0.0422186 -0.999105 
0.0041983 0.0299771 -0.999542 
0.00507604 0.0247958 -0.99968 
0.00542812 0.0223228 -0.999736 
0.00542244 0.0183944 -0.999816 
0.00427847 0.0118508 -0.999921 
-0.000721828 0.00234272 -0.999997 
-0.00232357 -0.00676612 -0.999975 
-0.00347446 -0.0105001 -0.999939 
-0.00297904 -0.0118522 -0.999925 
-0.00188993 -0.00943391 -0.999954 
-0.00317571 -0.0059394 -0.999978 
-3.64831e-05 -0.00664047 0.999979 
0.000937861 -0.00950884 0.999954 
-0.000615983 -0.0108103 0.999941 
-0.000256041 -0.0104115 0.999946 
-0.00492738 -0.006608 0.999966 
-0.00802248 0.00249648 0.999965 
-0.00846909 0.0102997 0.999911 
-0.0117898 0.0179198 0.99977 
-0.014338 0.0219332 0.999657 
-0.0167689 0.0238109 0.999576 
-0.0204236 0.028704 0.999379 
-0.0258047 0.0406013 0.998842 
-0.0324189 0.0598285 0.997682 
-0.0398531 0.0858863 0.995508 
-0.0490413 0.121353 0.991397 
-0.0622768 0.170879 0.983322 
-0.082829 0.238438 0.967619 
-0.114074 0.325068 0.938785 
-0.1591 0.429402 0.888989 
-0.220059 0.547305 0.807484 
-0.29624 0.667805 0.682845 
-0.382851 0.771487 0.508166 
-0.469674 0.834831 0.287162 
-0.543515 0.838324 0.0424683 
-0.596645 0.780104 -0.188288 
-0.630151 0.678422 -0.377693 
-0.648691 0.556677 -0.518951 
-0.659342 0.433236 -0.614471 
-0.668875 0.318744 -0.671572 
-0.681233 0.217185 -0.699108 
-0.698409 0.128678 -0.704036 
-0.720395 0.0511248 -0.691677 
-0.745343 -0.0182695 -0.666431 
-0.771646 -0.082178 -0.630722 
-0.798727 -0.142887 -0.584482 
-0.82776 -0.20179 -0.52354 
-0.860704 -0.258487 -0.438604 
-0.889406 -0.309508 -0.336397 
-0.911043 -0.349796 -0.218275 
-0.923188 -0.374556 -0.0862063 
-0.923132 -0.380553 0.0548431 
-0.909182 -0.367004 0.196715 
-0.882421 -0.335672 0.329633 
-0.847104 -0.289832 0.445435 
-0.807344 -0.232794 0.542221 
-0.765255 -0.166514 0.621818 
-0.723958 -0.0919991 0.683682 
-0.687908 -0.00950193 0.725736 
-0.65818 0.0819502 0.748387 
-0.633402 0.183247 0.751813 
-0.616666 0.295146 0.729803 
-0.608227 0.416803 0.675526 
-0.602024 0.543706 0.584766 
-0.59241 0.667708 0.450795 
-0.574344 0.774233 0.26588 
-0.540603 0.840626 0.0331128 
-0.479571 0.856146 -0.192419 
-0.403868 0.801464 -0.441073 
-0.324494 0.706142 -0.629339 
-0.243596 0.585982 -0.772843 
-0.176696 0.462982 -0.868577 
-0.122655 0.352882 -0.927594 
-0.0812133 0.262247 -0.961577 
-0.0497201 0.188644 -0.980786 
-0.0271987 0.134773 -0.990503 
-0.0119794 0.0966833 -0.995243 
-0.00238505 0.0689147 -0.99762 
0.00284116 0.0481211 -0.998838 
0.00536468 0.0331968 -0.999435 
0.0068116 0.0251542 -0.99966 
0.00800515 0.0227043 -0.99971 
0.00889933 0.0209515 -0.999741 
0.00907634 0.0155466 -0.999838 
0.00629468 0.00593359 -0.999963 
0.0037506 -0.00322598 -0.999988 
0.00186952 -0.0101398 -0.999947 
1.5263e-05 -0.0109913 -0.99994 
-0.000875234 -0.00987284 -0.999951 
-0.000300661 -0.00634201 -0.99998 
-2.32801e-05 -0.00681198 0.999977 
-0.000822738 -0.00909661 0.999958 
-0.00344351 -0.00991824 0.999945 
-0.00448472 -0.00996463 0.99994 
-0.00823637 -0.00333946 0.999961 
-0.0105522 0.00782185 0.999914 
-0.0122083 0.0144394 0.999821 
-0.0141177 0.0220686 0.999657 
-0.0155373 0.0252122 0.999561 
-0.0175237 0.0278116 0.99946 
-0.020831 0.0357977 0.999142 
-0.0254087 0.0520433 0.998322 
-0.0306302 0.0760792 0.996631 
-0.0370516 0.108211 0.993437 
-0.0461146 0.152854 0.987172 
-0.0602005 0.215692 0.974604 
-0.0820106 0.300179 0.950351 
-0.113991 0.405275 0.90706 
-0.158658 0.528992 0.833664 
-0.216043 0.663157 0.716623 
-0.283177 0.788988 0.54526 
-0.352415 0.879411 0.320063 
-0.412043 0.909207 0.0596871 
-0.45318 0.86923 -0.197654 
-0.476862 0.774873 -0.414938 
-0.488256 0.652767 -0.579225 
-0.492254 0.524592 -0.694614 
-0.495102 0.403723 -0.769338 
-0.501575 0.2961 -0.812864 
-0.513572 0.202805 -0.833735 
-0.531876 0.122499 -0.837916 
-0.555632 0.0523817 -0.829777 
-0.582889 -0.0107595 -0.812481 
-0.612713 -0.0696996 -0.787226 
-0.645871 -0.12659 -0.752878 
-0.685814 -0.183018 -0.704389 
-0.734392 -0.238715 -0.635361 
-0.783042 -0.289693 -0.550386 
-0.830704 -0.331605 -0.447179 
-0.873958 -0.360013 -0.326479 
-0.908394 -0.371604 -0.191654 
-0.929795 -0.364688 -0.0498331 
-0.936425 -0.339484 0.0886489 
-0.930264 -0.297848 0.214234 
-0.914204 -0.242404 0.324762 
-0.890158 -0.17489 0.420753 
-0.862185 -0.0961725 0.497382 
-0.83539 -0.00666856 0.549618 
-0.810141 0.0934317 0.578742 
-0.785847 0.203757 0.58389 
-0.767519 0.324023 0.553104 
-0.752748 0.449792 0.480684 
-0.732051 0.572473 0.369292 
-0.700333 0.681459 0.212477 
-0.651841 0.758335 0.00551232 
-0.580879 0.779457 -0.234579 
-0.488646 0.767411 -0.415097 
-0.394989 0.671885 -0.626541 
-0.296814 0.572352 -0.764405 
-0.217888 0.459056 -0.861274 
-0.153622 0.355893 -0.921814 
-0.104423 0.267279 -0.957945 
-0.0681499 0.19759 -0.977913 
-0.0401487 0.138871 -0.989496 
-0.0217468 0.0996836 -0.994782 
-0.00903027 0.0721165 -0.997355 
-0.00118333 0.0517503 -0.998659 
0.00323977 0.0367559 -0.999319 
0.00566046 0.0269254 -0.999621 
0.00718406 0.0225159 -0.999721 
0.00860265 0.0218512 -0.999724 
0.0096879 0.020468 -0.999744 
0.00983668 0.0148754 -0.999841 
0.00882259 0.00568233 -0.999945 
0.0067403 -0.00455734 -0.999967 
0.00462405 -0.00997515 -0.99994 
0.00172153 -0.0120954 -0.999925 
0.00104651 -0.00857655 -0.999963 
-0.000728212 -0.00818711 -0.999967 
0.000689752 -0.00720434 0.999974 
-0.00228775 -0.00857199 0.999961 
-0.00403644 -0.00875889 0.999954 
-0.0060727 -0.00809242 0.999949 
-0.00739614 -0.000569415 0.999973 
-0.00791637 0.0107958 0.99991 
-0.0115055 0.0200104 0.999734 
-0.012954 0.0265819 0.999563 
-0.0146541 0.0286869 0.999481 
-0.0167357 0.0329447 0.999317 
-0.0193595 0.0447805 0.998809 
-0.022169 0.0652714 0.997621 
-0.025468 0.0944034 0.995208 
-0.0305841 0.132848 0.990665 
-0.0393735 0.187988 0.981382 