# vtk DataFile Version 3.0 
Exported using Morpho https://github.com/Morpho-lang/morpho 
ASCII 
DATASET UNSTRUCTURED_GRID 

POINTS 3402 float 
-1.60085 -6.88747 2.41587e-08 
-1.36511 -6.93805 -6.71895e-08 
-1.17304 -6.97309 1.09696e-07 
-0.983092 -7.00239 6.54664e-08 
-0.7431 -7.03191 -9.29876e-08 
-0.529589 -7.05121 1.35355e-07 
-0.313448 -7.06412 -1.4025e-07 
-0.126584 -7.06993 7.38682e-08 
0.086405 -7.07054 1.44851e-07 
0.330565 -7.06334 -1.39647e-07 
0.532413 -7.051 1.21741e-07 
0.741711 -7.03206 -4.19429e-09 
0.950761 -7.00686 7.13553e-08 
1.17236 -6.9732 -5.14441e-08 
1.38152 -6.9348 2.27413e-07 
1.62036 -6.88291 -1.07689e-07 
-2.41323 -6.64653 -9.38638e-08 
-2.20523 -6.71841 1.55166e-08 
-1.9711 -6.79079 -1.87506e-07 
-1.78299 -6.84258 5.54465e-09 
-1.5611 -6.63233 -9.2329e-10 
-1.36006 -6.69876 1.20973e-10 
-1.14676 -6.7195 2.86319e-09 
-0.916228 -6.76735 -6.49699e-10 
-0.681531 -6.77446 1.59241e-09 
-0.470441 -6.80742 8.21031e-11 
-0.268498 -6.79375 1.39129e-09 
-0.0591694 -6.80913 -8.06726e-10 
0.165314 -6.81617 -4.55984e-10 
0.384046 -6.79159 3.07672e-10 
0.593117 -6.78681 -3.00841e-10 
0.808421 -6.7672 6.92882e-11 
1.02421 -6.74439 -3.50958e-10 
1.23358 -6.71255 -1.43863e-09 
1.44491 -6.67642 -2.55342e-10 
1.66359 -6.62314 9.01848e-10 
1.84815 -6.82527 -9.38885e-08 
2.0458 -6.76866 2.10515e-07 
2.28666 -6.69113 -8.37144e-08 
-2.84636 -6.47288 -1.06761e-07 
-2.63569 -6.56149 -3.81475e-09 
-2.42171 -6.4038 -4.17381e-10 
-2.19063 -6.46262 -1.42436e-10 
-1.99018 -6.54012 1.1308e-09 
-1.77824 -6.58319 5.12155e-11 
-1.53905 -6.39539 8.41432e-09 
-1.31907 -6.43527 -8.79574e-09 
-1.10245 -6.46525 -5.53812e-10 
-0.901236 -6.52672 3.87474e-10 
-0.696345 -6.50793 5.48869e-09 
-0.479397 -6.53446 5.86776e-09 
-0.271183 -6.51807 -8.97498e-09 
-0.0671158 -6.53934 6.59078e-10 
0.143637 -6.55214 7.36728e-10 
0.352133 -6.52639 7.63365e-10 
0.563719 -6.51513 5.91749e-10 
0.775464 -6.51179 -3.04259e-10 
0.990682 -6.4851 1.76047e-10 
1.21066 -6.46386 3.82743e-09 
1.43007 -6.42129 4.09285e-09 
1.65229 -6.37386 -6.81963e-09 
1.88803 -6.55877 -3.98093e-10 
2.0997 -6.50741 -8.23915e-10 
2.30855 -6.42789 1.04599e-09 
2.49989 -6.61442 -9.88008e-08 
2.68458 -6.54164 1.60324e-07 
2.94351 -6.42929 8.04958e-08 
-3.28906 -6.25956 -9.10923e-08 
-3.07353 -6.36816 1.88992e-08 
-2.85005 -6.2169 5.60778e-11 
-2.62886 -6.3 -2.18018e-10 
-2.38505 -6.15243 -1.19548e-09 
-2.17652 -6.23267 -2.89296e-09 
-1.94177 -6.27957 -6.62938e-09 
-1.73989 -6.32624 -7.38458e-09 
-1.54808 -6.15258 1.29374e-09 
-1.33193 -6.19984 3.50156e-09 
-1.10733 -6.22354 -4.97063e-09 
-0.893131 -6.26381 4.65302e-09 
-0.695298 -6.25272 -5.94708e-09 
-0.492232 -6.28241 4.07668e-10 
-0.27318 -6.27552 1.52997e-09 
-0.0620694 -6.27851 -2.66603e-09 
0.142153 -6.28833 5.0025e-10 
0.348761 -6.27443 2.16801e-09 
0.559281 -6.26146 -1.50782e-09 
0.763127 -6.262 5.02244e-10 
0.967455 -6.23667 1.48737e-09 
1.18599 -6.22442 -7.22276e-09 
1.39577 -6.18265 3.49474e-09 
1.61799 -6.13389 3.34249e-09 
1.85065 -6.29279 5.70993e-09 
2.05764 -6.2523 1.71775e-09 
2.26346 -6.18056 -1.15083e-09 
2.51425 -6.34185 1.86725e-10 
2.7403 -6.28827 -1.01657e-09 
2.94843 -6.16846 -3.47543e-10 
3.16464 -6.32337 -3.59763e-08 
3.36767 -6.21762 6.55126e-08 
-3.72133 -6.01263 -6.36255e-08 
-3.50751 -6.13982 -2.59915e-08 
-3.28253 -6.00354 -9.83881e-11 
-3.06766 -6.10923 3.04792e-10 
-2.8251 -5.96887 8.20062e-10 
-2.60395 -6.05146 -2.96223e-09 
-2.38148 -5.91206 2.28368e-10 
-2.1671 -5.97827 -2.76897e-09 
-1.96406 -6.04243 9.16409e-09 
-1.74712 -6.06249 -3.57574e-11 
-1.53029 -5.92958 4.19806e-10 
-1.33107 -5.98696 5.86309e-11 
-1.12166 -6.00597 1.65092e-09 
-0.898804 -6.03968 -1.12442e-09 
-0.686609 -6.02188 -3.19087e-09 
-0.48673 -6.05947 -2.29161e-09 
-0.281947 -6.04249 -1.1392e-09 
-0.07103 -6.04148 1.24895e-09 
0.139454 -6.04754 5.80672e-10 
0.343866 -6.03692 -4.14618e-10 
0.545304 -6.03887 -1.88412e-10 
0.75957 -6.02069 9.17967e-10 
0.980399 -6.02138 2.12286e-09 
1.18092 -5.98532 -2.29343e-09 
1.3983 -5.9757 1.20332e-09 
1.60913 -5.91672 1.58148e-09 
1.82781 -6.04794 -8.83191e-09 
2.03482 -6.00546 -1.26508e-09 
2.25848 -5.94571 3.6458e-09 
2.47774 -6.09758 5.37098e-09 
2.69045 -6.04147 -4.79982e-10 
2.90839 -5.93598 2.02613e-09 
3.16347 -6.06674 4.65517e-10 
3.37416 -5.95886 2.05131e-10 
3.59175 -6.09092 9.35868e-08 
-3.93567 -5.87456 -2.2281e-08 
-3.70468 -5.7603 -3.67057e-11 
-3.49779 -5.88157 5.41179e-11 
-3.25661 -5.75635 5.13955e-10 
-3.03832 -5.85422 -1.18033e-09 
-2.8166 -5.72563 1.93909e-10 
-2.602 -5.80798 3.83288e-09 
-2.39752 -5.69779 -7.86329e-11 
-2.17819 -5.75633 5.64565e-10 
-1.96376 -5.81609 4.25588e-10 
-1.75775 -5.8457 2.56763e-09 
-1.55225 -5.73574 -2.87893e-11 
-1.30946 -5.77773 -4.58954e-10 
-1.10218 -5.77364 5.8881e-10 
-0.901019 -5.83809 -3.32736e-10 
-0.701819 -5.7892 2.58009e-10 
-0.504391 -5.83323 -2.46754e-11 
-0.301221 -5.81892 6.70914e-10 
-0.0926128 -5.81554 1.12098e-09 
0.116705 -5.82732 -1.10822e-10 
0.327742 -5.81958 -1.68894e-10 
0.54109 -5.81561 1.58295e-10 
0.744556 -5.80504 -1.4888e-10 
0.962972 -5.80643 -2.02056e-10 
1.18637 -5.77545 -6.51813e-10 
1.39845 -5.77324 -2.49307e-10 
1.62396 -5.71277 -6.78766e-10 
1.82085 -5.8231 -2.85697e-09 
2.0496 -5.79888 2.90064e-09 
2.26802 -5.72821 1.38089e-09 
2.46293 -5.84941 -7.08872e-09 
2.6624 -5.80269 -1.9858e-09 
2.87782 -5.70692 3.29722e-09 
3.11999 -5.82211 2.25125e-09 
3.34462 -5.71564 9.38201e-10 
3.59327 -5.82797 -2.96896e-11 
3.81704 -5.95233 -7.66071e-08 
4.03061 -5.80984 5.71641e-08 
-4.37386 -5.55602 -5.217e-08 
-4.1549 -5.72161 -1.1089e-07 
-3.92302 -5.6245 4.41971e-11 
-3.67959 -5.51745 6.85616e-10 
-3.45806 -5.62253 -1.06997e-09 
-3.23483 -5.50384 -1.26481e-09 
-3.03422 -5.60318 1.51222e-09 
-2.82285 -5.51204 -6.06442e-10 
-2.60673 -5.58072 5.37356e-10 
-2.40171 -5.49102 1.23565e-09 
-2.18898 -5.55375 -1.37409e-10 
-1.97047 -5.60702 -2.06515e-10 
-1.75988 -5.62446 5.45959e-10 
-1.56884 -5.52119 1.81622e-10 
-1.368 -5.59134 1.23093e-10 
-1.14641 -5.56748 4.68325e-11 
-0.909126 -5.62263 5.33598e-11 
-0.689409 -5.59179 2.37231e-10 
-0.468031 -5.61836 1.36519e-10 
-0.254266 -5.6099 5.16033e-11 
-0.038824 -5.60988 9.59878e-11 
0.172629 -5.62223 -2.90945e-10 
0.389914 -5.61865 3.25864e-11 
0.59495 -5.5928 -3.26654e-10 
0.812806 -5.612 -8.99352e-11 
1.0326 -5.60381 -5.12969e-10 
1.2544 -5.56514 7.57686e-11 
1.46282 -5.57449 -4.44077e-10 
1.68065 -5.50641 2.25349e-10 
1.85611 -5.61607 3.62043e-10 
2.06101 -5.58816 -8.65796e-10 
2.2549 -5.51532 -1.34188e-10 
2.46021 -5.60779 8.25172e-10 
2.66322 -5.58564 1.03799e-09 
2.89444 -5.50402 -8.70053e-10 
3.10687 -5.59098 -3.98244e-09 
3.31592 -5.47551 -1.09915e-09 
3.55861 -5.57994 -4.68167e-11 
3.80876 -5.68756 -4.56662e-10 
4.01275 -5.55418 -2.50706e-10 
4.23926 -5.65939 5.2673e-08 
-4.58844 -5.38017 -7.71096e-08 
-4.34178 -5.3159 1.4445e-10 
-4.12971 -5.47369 2.13774e-10 
-3.88402 -5.37006 -1.85008e-09 
-3.65662 -5.27363 -1.03771e-09 
-3.4496 -5.37409 5.77345e-10 
-3.23533 -5.29289 -6.55211e-10 
-3.01909 -5.37356 4.33777e-10 
-2.81882 -5.29626 -3.90353e-10 
-2.62653 -5.37016 1.68178e-10 
-2.41763 -5.29426 -1.39089e-10 
-2.19185 -5.34838 3.8672e-10 
-1.98512 -5.39694 2.67895e-10 
-1.78023 -5.40838 1.66498e-11 
-1.54595 -5.34469 1.24521e-10 
-1.31892 -5.40208 4.84443e-11 
-1.11372 -5.35523 1.72308e-11 
-0.942301 -5.4364 -4.61082e-12 
-0.750815 -5.39451 2.1803e-11 
-0.540775 -5.41605 4.21455e-11 
-0.33375 -5.42072 6.05545e-12 
-0.109268 -5.41348 1.72552e-11 
0.106387 -5.41685 9.26694e-12 
0.31466 -5.4259 -2.10069e-11 
0.522951 -5.40177 -1.64624e-11 
0.751679 -5.41225 -3.2645e-11 
0.95523 -5.41721 -1.36561e-11 
1.16666 -5.39514 -3.10452e-11 
1.39985 -5.37755 -7.362e-12 
1.59052 -5.34368 -3.39933e-11 
1.83739 -5.36448 -1.28335e-10 
2.01972 -5.3771 -3.12922e-10 
2.22645 -5.32399 -4.00486e-10 
2.45716 -5.38911 -1.82577e-10 
2.68375 -5.39759 2.51435e-10 
2.89302 -5.30444 -1.5163e-10 
3.10079 -5.37099 -2.7721e-09 
3.29924 -5.25645 -9.89257e-11 
3.51832 -5.34094 2.67717e-09 
3.76078 -5.429 1.05722e-09 
3.97984 -5.30898 -6.21432e-10 
4.21447 -5.40441 -3.95236e-12 
4.43619 -5.50638 -3.69715e-08 
-4.79707 -5.19501 -6.89278e-08 
-4.54796 -5.14348 3.46057e-10 
-4.30325 -5.06668 -2.86346e-09 
-4.09637 -5.2253 -5.23906e-10 
-3.86012 -5.12353 4.71483e-10 
-3.6482 -5.05373 -2.65672e-09 
-3.45326 -5.14809 2.18829e-09 
-3.2562 -5.09519 -1.00894e-09 
-3.03081 -5.16439 3.70594e-11 
-2.81689 -5.09906 7.23405e-10 
-2.60384 -5.15179 -1.27189e-10 
-2.35915 -5.12013 -6.76906e-11 
-2.14956 -5.15498 1.44714e-12 
-1.94758 -5.19311 1.21563e-11 
-1.7379 -5.21392 7.29083e-11 
-1.55177 -5.12529 1.54371e-11 
-1.36523 -5.20963 1.23285e-11 
-1.16044 -5.16504 3.65174e-12 
-0.92429 -5.21144 4.81837e-12 
-0.688544 -5.1993 2.80816e-12 
-0.477853 -5.21019 8.82963e-13 
-0.260291 -5.22496 7.58506e-13 
-0.0442386 -5.20529 -1.37803e-13 
0.16569 -5.20632 -1.77514e-12 
0.369451 -5.20971 -4.38195e-12 
0.600378 -5.21843 -6.2509e-12 
0.807976 -5.20212 -1.89752e-12 
1.0098 -5.21692 -6.98709e-12 
1.24109 -5.21446 -4.15791e-12 
1.43258 -5.16036 -1.42312e-11 
1.66819 -5.18333 -5.56255e-11 
1.89601 -5.1722 -4.10486e-11 
2.09851 -5.15613 -1.71662e-11 
2.29103 -5.09125 -2.59187e-11 
2.43489 -5.19758 -2.20935e-10 
2.65919 -5.20616 -1.97451e-10 
2.87054 -5.11366 -1.07625e-10 
3.09268 -5.16201 -4.84232e-10 
3.30747 -5.05915 6.31497e-11 
3.51916 -5.13114 1.50357e-09 
3.73613 -5.19156 -6.35463e-09 
3.93113 -5.06934 1.845e-09 
4.17223 -5.15092 2.66701e-09 
4.41069 -5.23955 2.71601e-10 
4.64415 -5.33216 -8.45536e-08 
4.8568 -5.13921 1.12911e-07 
-5.0032 -4.9968 9.32301e-09 
-4.75953 -4.96115 -4.43822e-11 
-4.50926 -4.89703 -6.41253e-10 
-4.26159 -4.82969 -1.41754e-09 
-4.06496 -4.98545 -4.98282e-10 
-3.85901 -4.89972 4.42724e-09 
-3.65756 -4.85591 -1.418e-10 
-3.4433 -4.92634 1.42387e-10 
-3.23989 -4.88321 9.62211e-10 
-3.05415 -4.96983 4.70634e-13 
-2.87327 -4.8956 -5.94e-11 
-2.65784 -4.94407 1.69071e-10 
-2.45252 -4.95945 -1.63838e-11 
-2.21208 -4.95796 -1.4289e-11 
-1.99543 -4.97963 1.92642e-11 
-1.78916 -5.00346 8.50351e-12 
[...]
POINT_DATA 3402 
VECTORS vectors float
0.00821266 -0.00213281 0.999962 
0.00689436 -0.00101166 0.999974 
0.0175888 -0.00327641 0.999838 
0.00851247 -0.00175831 0.999961 
0.00669562 9.51127e-05 0.999976 
0.0106607 -0.00164865 0.99994 
0.0103798 0.000617669 0.999944 
0.0179635 -0.00116936 0.999836 
0.00358217 2.34416e-05 0.999992 
0.00912866 0.00109421 0.999956 
0.0123489 4.28455e-05 0.999922 
0.0103474 0.00181358 0.999943 
0.00912589 0.00056666 0.999957 
0.00863734 0.00190455 0.999959 
0.00986704 0.00150299 0.999949 
0.000417826 0.000488508 0.999999 
0.00760551 -0.0019118 0.999968 
0.00536387 -0.00252046 0.999981 
0.00739277 -0.00171079 0.99997 
0.0186488 -0.00460641 0.999814 
-0.0156133 0.00414787 0.99987 
-0.00321779 0.000284704 0.999995 
-0.0124386 2.45445e-05 0.999923 
0.00774865 -0.000644037 0.99997 
-0.0229622 0.00182189 0.999735 
-0.00498625 -0.000291976 0.999988 
-0.0223067 0.00032312 0.999751 
-0.0236559 0.000145903 0.99972 
0.0020447 0.00182905 0.999996 
-0.0216621 -0.00140023 0.999764 
-0.00793948 -0.00139279 0.999968 
-0.0230126 -0.00263777 0.999732 
-0.00418614 -2.68496e-05 0.999991 
-0.0185834 -0.00229775 0.999825 
0.00286606 0.00116387 0.999995 
0.000212916 -0.000915961 1 
0.0132396 0.00345394 0.999905 
0.00790725 0.00215186 0.999965 
0.000392587 0.000487136 0.999999 
0.0056799 -0.00195875 0.999981 
0.00643617 -0.00327904 0.999973 
0.00682977 -0.00128834 0.999976 
-0.0029296 0.000915839 0.999995 
0.000350717 -0.00166502 0.999999 
-0.0248469 0.00686101 0.999668 
0.0322517 -0.00933568 0.999436 
0.0427333 -0.00713816 0.999061 
0.0276755 -0.00477804 0.999605 
0.0476004 -0.00767284 0.998837 
0.0459428 -0.00676372 0.998921 
0.0434267 -0.00486134 0.999045 
0.0563007 -0.00106574 0.998413 
0.054067 -0.00018595 0.998537 
0.0504607 0.00120871 0.998725 
0.0491111 0.00249733 0.99879 
0.05576 0.00476465 0.998433 
0.0385532 0.00456798 0.999246 
0.0493791 0.00735913 0.998753 
0.0323468 0.00538874 0.999462 
0.0277421 0.00517594 0.999602 
0.0269507 0.00852048 0.9996 
-0.022212 -0.00620678 0.999734 
0.00835379 0.00376535 0.999958 
0.000820237 -0.00125665 0.999999 
0.0140758 0.00534922 0.999885 
0.00674205 0.00227451 0.999973 
0.00053271 0.000713775 0.999999 
0.00549257 -0.0024296 0.999981 
0.00450147 -0.00267735 0.999985 
0.00883139 -0.00425277 0.999952 
-0.00548106 0.00237118 0.999982 
0.0197507 -0.00685774 0.999781 
0.0121525 -0.00335339 0.99992 
0.0401698 -0.0106395 0.999136 
0.0454633 -0.0107883 0.998908 
0.13131 -0.0335302 0.990774 
0.127906 -0.0275613 0.991403 
0.13617 -0.0235206 0.990406 
0.1301 -0.0187182 0.991324 
0.140656 -0.0152468 0.989941 
0.134931 -0.0105346 0.990799 
0.135129 -0.00535004 0.990814 
0.137131 -0.00058967 0.990553 
0.134784 0.00310875 0.99087 
0.137242 0.00729798 0.990511 
0.132366 0.0117873 0.991131 
0.13858 0.016605 0.990212 
0.132966 0.0203495 0.990912 
0.136031 0.0260842 0.990361 
0.124205 0.0273738 0.991879 
0.126587 0.0333254 0.991396 
0.0437462 0.012344 0.998966 
0.0239754 0.00731203 0.999686 
0.0219374 0.00818285 0.999726 
-0.017849 -0.00728051 0.999814 
0.00744419 0.00547265 0.999957 
0.0146087 0.0081862 0.99986 
0.00671987 0.00308226 0.999972 
0.00648437 0.0038222 0.999971 
0.00457181 -0.00253131 0.999985 
0.00405447 -0.00273121 0.999987 
0.0100686 -0.00546517 0.999934 
-0.000360076 -0.000296935 1 
0.00917848 -0.00458158 0.999947 
0.0203856 -0.00815612 0.999759 
0.113591 -0.0457872 0.992472 
0.124976 -0.045027 0.991137 
0.123304 -0.0406431 0.991536 
0.134091 -0.0386795 0.990214 
0.113728 -0.0298508 0.993064 
0.113419 -0.0254559 0.993221 
0.108313 -0.0202312 0.993911 
0.112528 -0.0162895 0.993515 
0.0970833 -0.0102363 0.995224 
0.106332 -0.00785439 0.9943 
0.0966118 -0.00408248 0.995314 
0.0946373 -0.00101614 0.995511 
0.0994031 0.00223362 0.995045 
0.0949948 0.00538825 0.995463 
0.105108 0.00942436 0.994416 
0.100144 0.0123702 0.994896 
0.112515 0.0180008 0.993487 
0.106455 0.0212725 0.99409 
0.119848 0.0278731 0.992401 
0.112406 0.0306642 0.993189 
0.133795 0.0414246 0.990143 
0.114867 0.0392425 0.992605 
0.120698 0.0455074 0.991646 
0.0326794 0.0123684 0.999389 
0.0146694 0.00664492 0.99987 
0.000791666 -9.67525e-05 1 
0.00588918 0.00220547 0.99998 
0.00380558 0.00143383 0.999992 
0.0021252 0.00100737 0.999996 
0.00350011 -0.00267507 0.999989 
0.00927865 -0.00586231 0.99994 
0.0029583 -0.00188039 0.999994 
0.00191363 -0.00120531 0.999997 
0.013608 -0.00702364 0.999883 
0.105027 -0.0525698 0.993079 
0.115165 -0.0524731 0.991959 
0.120826 -0.0514987 0.991337 
0.116539 -0.0445621 0.992186 
0.113684 -0.0390392 0.99275 
0.106232 -0.0326897 0.993804 
0.0628307 -0.0173417 0.997874 
0.0603718 -0.0139303 0.998079 
0.0436614 -0.00847425 0.999011 
0.0583744 -0.00877716 0.998256 
0.0394769 -0.00462615 0.99921 
0.0443741 -0.00358931 0.999009 
0.0399212 -0.00209378 0.999201 
0.0380435 -0.000832384 0.999276 
0.0431155 0.000977109 0.99907 
0.040881 0.00244345 0.999161 
0.0433548 0.00405971 0.999052 
0.0428252 0.00551447 0.999067 
0.0524251 0.00883875 0.998586 
0.0523589 0.0110419 0.998567 
0.0606831 0.0147845 0.998048 
0.0639931 0.0185537 0.997778 
0.103802 0.0331978 0.994044 
0.118399 0.0418538 0.992084 
0.115169 0.0454809 0.992304 
0.127878 0.0542553 0.990305 
0.102996 0.0474021 0.993552 
0.10158 0.051035 0.993517 
0.0108375 0.00533061 0.999927 
-0.00137378 -0.00107804 0.999998 
0.0110622 0.00674726 0.999916 
0.0039237 0.0029259 0.999987 
0.00462983 0.0027425 0.999984 
0.0022787 -0.00207637 0.999994 
0.00318135 -0.00203762 0.999992 
0.00521058 -0.00371665 0.99998 
-0.00421199 0.00262995 0.999988 
0.00941151 -0.00561679 0.99994 
0.0988392 -0.0584605 0.993385 
0.106834 -0.0584718 0.992556 
0.121309 -0.0629878 0.990614 
0.111591 -0.0530784 0.992336 
0.0701754 -0.0313907 0.997041 
0.0668972 -0.026724 0.997402 
0.0598898 -0.0213783 0.997976 
0.0487646 -0.0157227 0.998687 
0.0204074 -0.00604639 0.999774 
0.0237651 -0.0059847 0.9997 
0.014652 -0.00314064 0.999888 
0.0169601 -0.00279055 0.999852 
0.0102964 -0.00145708 0.999946 
0.0120407 -0.00108162 0.999927 
0.00960862 -0.000566358 0.999954 
0.0100531 -0.000218319 0.99995 
0.0111817 0.000527647 0.999937 
0.0115057 0.000853133 0.999934 
0.0100781 0.00134626 0.999948 
0.0144637 0.00226384 0.999893 
0.0169647 0.00349292 0.99985 
0.0175022 0.00405341 0.999839 
0.0240823 0.006624 0.999688 
0.0220264 0.00673837 0.999735 
0.0512368 0.0171891 0.998539 
0.0647542 0.0241191 0.99761 
0.0632203 0.0259933 0.997661 
0.107375 0.0470899 0.993103 
0.115992 0.0554625 0.991701 
0.123233 0.0654775 0.990215 
0.101831 0.0573495 0.993147 
0.0938275 0.0575069 0.993926 
-0.00118353 -0.000875333 0.999999 
-0.00207161 -0.000584769 0.999998 
0.0138152 0.0110795 0.999843 
0.00319556 0.00266915 0.999991 
0.00313705 -0.00259058 0.999991 
0.00979161 -0.00749156 0.999924 
0.0142905 -0.0105375 0.999842 
-0.00230404 0.00224065 0.999995 
0.0828343 -0.0572742 0.994916 
0.0985118 -0.0633235 0.993119 
0.116068 -0.0713926 0.990672 
0.108982 -0.0618588 0.992117 
0.071786 -0.0386628 0.996671 
0.0660375 -0.0328949 0.997275 
0.0307465 -0.0142183 0.999426 
0.0241065 -0.0101423 0.999658 
0.0217629 -0.00828251 0.999729 
0.0134142 -0.00463564 0.999899 
0.00427073 -0.00149632 0.99999 
0.0050014 -0.00133015 0.999987 
0.00180325 -0.000448255 0.999998 
0.00355818 -0.00061087 0.999994 
0.00117269 -0.000244959 0.999999 
0.0015712 -0.000310631 0.999999 
0.00134208 -0.00012945 0.999999 
0.00117605 -9.31051e-05 0.999999 
0.00120081 2.57024e-05 0.999999 
0.00145296 0.000193053 0.999999 
0.00124983 0.000272247 0.999999 
0.00188331 0.000424293 0.999998 
0.00265641 0.000605884 0.999996 
0.0035753 0.000909816 0.999993 
0.00469657 0.00134612 0.999988 
0.0048848 0.00158348 0.999987 
0.0114399 0.0041349 0.999926 
0.0209933 0.008246 0.999746 
0.0231069 0.00986542 0.999684 
0.051043 0.0234227 0.998422 
0.0777378 0.0388754 0.996216 
0.0802371 0.0443386 0.995789 
0.114321 0.0671593 0.991171 
0.113603 0.0720602 0.99091 
0.0907939 0.0599814 0.994062 
0.00902116 0.00644624 0.999938 
-0.0118254 -0.00855761 0.999893 
0.0142186 0.00956296 0.999853 
0.00350414 0.00285842 0.999989 
0.00178874 -0.00169195 0.999996 
0.0143768 -0.0122979 0.999821 
-0.00882779 0.00890293 0.999921 
-0.00981777 0.00799359 0.99992 
0.0836593 -0.0627246 0.994518 
0.112442 -0.0810631 0.990346 
0.108838 -0.073351 0.99135 
0.0848606 -0.0544682 0.994903 
0.0652101 -0.0387053 0.997121 
0.0306884 -0.0173635 0.999378 
0.0235508 -0.0120935 0.99965 
0.00875352 -0.00404841 0.999954 
0.00521756 -0.00221196 0.999984 
0.0040609 -0.00161854 0.999991 
0.00200762 -0.000953993 0.999998 
7.86578e-05 -0.000240785 1 
0.000339854 -0.00019814 1 
-0.000280724 1.19461e-05 1 
-9.77803e-05 -6.48602e-05 1 
-0.000233083 -6.24852e-05 1 
-0.000213855 2.08054e-05 1 
-0.000146158 -1.14002e-05 1 
-0.00022319 3.99014e-06 1 
-0.000244093 4.59215e-05 1 
-0.00025179 0.00011621 1 
-0.000267146 0.000111459 1 
-0.000198125 -3.27449e-06 1 
-3.95401e-05 9.18964e-05 1 
0.000156126 8.53343e-05 1 
0.000176804 0.000204618 1 
0.000738894 0.000498529 1 
0.00222066 0.000966624 0.999997 
0.00512934 0.00222418 0.999984 
0.00492701 0.00234948 0.999985 
0.0179972 0.00860743 0.999801 
0.0335963 0.0174364 0.999284 
0.03614 0.020514 0.999136 
0.0714493 0.0434417 0.996498 
0.0797972 0.0525222 0.995427 
0.112887 0.0776884 0.990566 
0.0904971 0.0660315 0.993705 
0.0783135 0.0603686 0.995099 
-0.00557692 -0.00568817 0.999968 
0.00993166 0.0059093 0.999933 
0.00184626 0.00194301 0.999996 
0.00402706 0.00342092 0.999985 
0.00260354 -0.00255187 0.999992 
0.0141708 -0.0141142 0.9998 
-0.0126769 0.012008 0.999848 
0.06371 -0.0549978 0.996452 
0.0691516 -0.0557641 0.996046 
0.108892 -0.0861623 0.990312 
0.0866169 -0.0655248 0.994085 
0.0657195 -0.0462833 0.996764 
0.0341946 -0.0231266 0.999148 
0.0312224 -0.0195618 0.999321 
0.0106851 -0.00643875 0.999922 
0.0068321 -0.00396225 0.999969 
0.00291318 -0.00144789 0.999995 
0.000920378 -0.000345351 1 
0.000389447 -0.000341811 1 
1.11242e-06 -0.000156471 1 
-0.000465095 -4.29504e-05 1 
-0.000430009 5.97501e-05 1 
-0.000445064 4.74435e-05 1 
-0.000483068 -8.63784e-05 1 
-0.000430665 -3.6087e-05 1 
-0.000435692 -3.14252e-05 1 
-0.000359201 -9.61846e-05 1 
-0.000337942 1.09219e-05 1 
-0.000314826 2.88304e-05 1 
-0.000300173 9.7137e-05 1 
-0.000287415 0.0001242 1 
-0.000254849 -4.36122e-05 1 
-0.000259721 3.47758e-05 1 
-0.000335247 5.08512e-05 1 
-0.000308666 -7.11931e-05 1 
-0.000249557 4.24371e-05 1 
3.66505e-05 4.36835e-05 1 
0.000522337 0.000248787 1 
0.000591335 0.000365452 1 
0.00332773 0.00175358 0.999993 
0.0109654 0.00592886 0.999922 
0.0126209 0.00731989 0.999894 
0.0336788 0.0209385 0.999213 
0.0347969 0.023466 0.999119 
0.0756484 0.0536953 0.995688 
0.108274 0.0809557 0.990819 
0.107819 0.0862319 0.990424 
0.0806488 0.0666396 0.994512 
0.00266247 0.00265123 0.999993 
-0.00518973 -0.00256243 0.999983 
0.0110064 0.013697 0.999846 
0.0022302 0.00212429 0.999995 
0.00248732 -0.00288616 0.999992 
0.0137227 -0.0145541 0.9998 
-0.012166 0.0113782 0.999861 
0.0539201 -0.0517546 0.997203 
0.100694 -0.0917653 0.990677 
0.104896 -0.0887043 0.990519 
0.0742609 -0.0612847 0.995354 
0.040401 -0.0321458 0.998666 
0.0319096 -0.0238849 0.999205 
0.012457 -0.00915314 0.999881 
0.00759617 -0.00529451 0.999957 
0.00190118 -0.00130798 0.999997 
0.000821241 -0.000530394 1 
0.000188975 -4.70352e-05 1 
-3.84978e-05 3.88104e-05 1 
-0.000201115 4.757e-05 1 
-0.00020378 3.29443e-05 1 
-0.00021264 -5.78443e-05 1 
-0.000241922 8.36486e-05 1 
-0.000237784 3.86511e-05 1 
-0.000189962 -3.89698e-05 1 
-0.000288567 -7.65826e-05 1 
-0.000234163 -6.85462e-05 1 
-0.000337299 -1.92744e-05 1 
-0.000317558 -4.97273e-05 1 
-0.000255419 -3.43331e-06 1 
-0.000194015 4.78852e-05 1 
-0.00013779 8.42495e-05 1 
-0.00012409 2.17208e-05 1 
-0.000263964 6.37302e-05 1 
-0.000165844 6.1656e-05 1 
-0.000256253 2.63199e-05 1 
-0.0003106 -5.17458e-06 1 
-0.000271286 -0.000249357 1 
-0.000183472 7.61155e-05 1 
-4.66626e-05 2.81998e-05 1 
0.000308348 0.0003058 1 
0.00249556 0.00143119 0.999996 
0.00228483 0.00128325 0.999997 
0.00991623 0.00631824 0.999931 
0.0103509 0.00716346 0.999921 
0.0324066 0.0235144 0.999198 
0.0647786 0.0500307 0.996645 
0.0706003 0.0584166 0.995793 
0.10152 0.0876718 0.990963 
0.0844337 0.0772692 0.993428 
0.00236813 0.00361969 0.999991 
-0.0113459 -0.0109081 0.999876 
0.0189172 0.0184187 0.999651 
0.00303659 0.00380575 0.999987 
0.00195187 -0.00232884 0.999995 
0.013662 -0.0149061 0.999796 
-0.0122793 0.0129288 0.999841 
0.0464642 -0.0494863 0.997693 
0.0979855 -0.0990589 0.990246 
0.0856208 -0.082673 0.992892 
0.0796756 -0.0705667 0.99432 
0.0356438 -0.030875 0.998888 
0.0147293 -0.0123781 0.999815 
0.00889195 -0.00714219 0.999935 
0.00251547 -0.00209844 0.999995 
0.000810806 -0.000816661 0.999999 
-6.58747e-05 -0.000163227 1 
-0.0001785 2.86156e-06 1 
-0.000182641 9.87342e-05 1 
-0.000165634 0.000123363 1 
-0.000144764 -3.49958e-05 1 
-8.50852e-05 2.91223e-05 1 
-0.00011591 1.57444e-05 1 
-0.000117781 5.35605e-05 1 
-5.38432e-05 8.69122e-06 1 
-0.000112177 -1.53383e-05 1 
-0.00015218 -6.13913e-06 1 
-0.000186901 -8.07894e-05 1 
-0.000198815 4.30867e-06 1 
-0.00016119 -8.36345e-05 1 
-0.000146115 -4.40679e-05 1 
-0.000122562 -1.54727e-05 1 
-7.4772e-05 2.20751e-05 1 
2.03899e-05 0.000109393 1 
-5.91378e-06 0.000160925 1 
-0.000216247 2.40083e-05 1 
-0.000147117 3.33792e-05 1 
-0.000139633 9.13195e-06 1 
-0.000210724 -0.000168279 1 
-0.000230411 -7.06987e-05 1 
-0.000279831 -4.60152e-05 1 
-0.000149856 -0.00012034 1 
0.000194099 5.91068e-05 1 
0.000119995 9.05114e-06 1 
0.00211089 0.00135718 0.999997 
0.00837132 0.00617585 0.999946 
0.0237959 0.0187526 0.999541 
0.0298279 0.0254446 0.999231 
0.0616173 0.0548632 0.996591 
0.0928864 0.0871863 0.991852 
0.0929312 0.0914374 0.991465 
0.0649821 0.0664744 0.99567 
-0.00261112 -0.00530174 0.999982 
0.0067688 0.00432365 0.999968 
0.00267033 0.00315325 0.99999 
0.00208253 -0.00267399 0.999993 
0.00940046 -0.0112234 0.999893 
-0.00862265 0.00955403 0.999917 
0.0545978 -0.0623682 0.996559 
0.0942822 -0.102424 0.990263 
0.077603 -0.0809261 0.993695 
0.0416931 -0.0415376 0.998267 
0.0510785 -0.0477694 0.997552 
0.0189414 -0.0177505 0.999663 
0.00870489 -0.00773034 0.999932 
0.00293078 -0.00262558 0.999992 
0.00114757 -0.00102574 0.999999 
6.45441e-05 -0.000200528 1 
-0.000195845 -4.021e-05 1 
-0.000251102 1.38632e-06 1 
-0.000236296 2.23554e-05 1 
-0.000182221 1.5241e-05 1 
-9.07933e-05 4.96057e-05 1 
-0.000123784 -8.041e-05 1 
-8.30666e-05 6.41046e-05 1 
-3.31631e-05 -7.59044e-05 1 
1.60566e-05 8.01001e-05 1 
6.15557e-06 -5.34951e-05 1 
-1.72118e-06 0.000106201 1 
-1.80634e-05 -5.3015e-05 1 
-6.52641e-05 -1.30724e-05 1 
-3.50845e-06 -8.05966e-05 1 
-4.93069e-05 -2.75103e-05 1 
-9.65187e-05 -1.21822e-05 1 
-0.000103566 -3.76518e-05 1 
-0.000155169 -1.21173e-05 1 
-6.61086e-05 0.000102778 1 
4.62206e-07 0.000177412 1 
-3.23656e-05 5.367e-05 1 
-6.19265e-05 -3.56285e-05 1 
-9.56451e-05 -5.52177e-05 1 
-0.000218191 -1.25255e-05 1 
-0.000205414 -7.19096e-05 1 
-0.000138279 -0.000202106 1 
-0.000167044 -6.53416e-05 1 
-7.34825e-05 -0.000104976 1 
2.40231e-05 -3.74209e-05 1 
0.00127031 0.00109185 0.999999 
0.00361631 0.00288737 0.999989 
0.00801537 0.00700744 0.999943 
0.0217879 0.019841 0.999566 
0.0493177 0.0470125 0.997676 
0.084573 0.0854249 0.992749 
0.0975199 0.103194 0.989869 
0.0675112 0.0727099 0.995065 
0.00506207 0.00515475 0.999974 
0.00377482 0.00636652 0.999973 
0.00202879 0.00238531 0.999994 
0.00231423 -0.00312292 0.999992 
0.00503487 -0.00744504 0.99996 
-0.00536048 0.0056288 0.99997 
0.061397 -0.0755291 0.995251 
0.0905411 -0.105483 0.990291 
0.0679138 -0.076158 0.99478 
0.0336621 -0.0359604 0.998786 
0.0140899 -0.0140857 0.999802 
0.00405826 -0.00401201 0.999984 
0.0014793 -0.00142378 0.999998 
0.000276044 -0.00027423 1 
-5.14823e-05 -4.60224e-06 1 
-0.000157126 3.46282e-05 1 
-0.000174692 5.42875e-06 1 
-0.000160523 -2.39385e-06 1 
-0.000164092 -9.0991e-06 1 
-0.000167867 -2.01489e-06 1 
-0.00017086 -1.02605e-06 1 
-0.000154639 -5.23029e-05 1 
-0.000105881 -5.31557e-05 1 
-4.08994e-05 -4.97655e-05 1 
-1.18318e-05 1.12816e-05 1 
-1.42814e-05 3.76764e-05 1 
1.23867e-05 1.30576e-06 1 
5.29318e-05 -2.45899e-05 1 
4.25198e-05 -6.69096e-05 1 
1.50697e-05 -1.71767e-05 1 
-4.23523e-06 2.71238e-05 1 
6.24361e-06 -3.24498e-05 1 
-1.65297e-05 9.98064e-05 1 
-0.000152424 -1.88937e-05 1 
-9.04762e-05 2.9886e-05 1 
-0.000102977 0.000176368 1 
-3.11596e-05 4.03793e-05 1 
-2.48891e-05 -2.98939e-06 1 
-2.60349e-05 1.56368e-05 1 
1.56347e-05 -2.0993e-06 1 
-7.21335e-06 -5.60044e-05 1 
-6.74911e-05 -0.000118806 1 
-0.000107773 -0.000126929 1 
-9.33931e-05 -9.07387e-05 1 
-0.000151559 4.93794e-05 1 
0.000253423 0.000231278 1 
0.000601986 0.000632779 1 
0.00388744 0.0035847 0.999986 
0.00971274 0.0094479 0.999908 
0.0317968 0.0319747 0.998983 
0.0495427 0.0525164 0.997391 
0.074912 0.0834369 0.993694 
0.0903746 0.106083 0.990242 
0.0642258 0.0794289 0.994769 
-0.00351145 -0.00223216 0.999991 
0.00859281 0.0139132 0.999866 
0.00274134 0.00376617 0.999988 
0.00229481 -0.00357412 0.99999 
0.00777589 -0.0119423 0.999899 
-0.00482711 0.00606936 0.99997 
0.0579688 -0.0772347 0.995326 
0.0854932 -0.109192 0.990337 
0.0713778 -0.0866047 0.993683 
0.0400682 -0.0464964 0.998115 
0.0148108 -0.0163333 0.999757 
0.00962414 -0.0101363 0.999902 
0.00208379 -0.00207653 0.999996 
0.000414376 -0.000467182 1 
-1.28891e-05 -4.52321e-05 1 
-0.000114713 6.29461e-05 1 
-0.00010023 5.15911e-05 1 
-5.62022e-05 -1.08652e-06 1 
-5.58393e-05 -5.18169e-06 1 
-5.10194e-05 1.83927e-05 1 
-9.46953e-05 6.64064e-06 1 
-0.000118644 1.37492e-05 1 
-0.000118725 -2.82542e-05 1 
-0.00013408 -8.37025e-05 1 
-0.000115194 -0.000100727 1 
-0.00014469 -1.69254e-05 1 
-5.34487e-05 -5.00827e-05 1 
-0.000227879 8.01707e-05 1 
-0.000603021 3.15729e-05 1 
-0.0019729 0.000117803 0.999998 
-0.0035424 6.38743e-05 0.999994 
-0.00142797 -1.18014e-05 0.999999 
-0.0005095 -6.96953e-06 1 
-0.000422302 -0.00010476 1 
6.09988e-05 9.74236e-05 1 
-4.32006e-05 8.52706e-05 1 
-2.43501e-05 8.49827e-05 1 
-9.12229e-06 3.75163e-05 1 
-2.86122e-05 -1.05219e-05 1 
-4.84544e-06 -1.43017e-05 1 
1.87909e-05 -2.28907e-05 1 
1.94309e-05 -3.93668e-05 1 
2.72452e-05 -6.59563e-06 1 
-9.94533e-05 -8.38028e-05 1 
-0.000257507 -7.82961e-05 1 
-0.000226864 -0.000107195 1 
-0.000111351 -4.38951e-05 1 
-7.81527e-05 2.94085e-05 1 
0.00117364 0.00113259 0.999999 
0.00225002 0.00234212 0.999995 
0.0113632 0.0118705 0.999865 
0.0212226 0.0236037 0.999496 
0.0420685 0.0494909 0.997888 
0.0705656 0.0869753 0.993708 
0.0852843 0.110428 0.990218 
0.0599684 0.081133 0.994897 
-0.00675267 -0.00886782 0.999938 
0.00693736 0.00978585 0.999928 
0.00280607 0.00461392 0.999984 
0.00270535 -0.00437008 0.999986 
0.00593196 -0.00845609 0.999947 
-0.00118809 0.00143915 0.999998 
0.0596125 -0.0858443 0.994523 
0.0812604 -0.11221 0.990356 
0.0570353 -0.0756079 0.995505 
0.0350278 -0.0439026 0.998422 
0.0135346 -0.0161005 0.999779 
0.00379445 -0.00401511 0.999985 
0.00171918 -0.00164543 0.999997 
0.000166721 -0.000127686 1 
-9.6647e-05 4.40943e-05 1 
-0.000113583 4.95061e-05 1 
-5.80369e-05 7.69861e-06 1 
-9.71956e-06 -2.15477e-05 1 
1.64501e-05 -1.92141e-05 1 
9.0547e-06 2.51706e-05 1 
-2.84526e-05 5.2573e-05 1 
-4.89631e-05 2.86725e-05 1 
3.00671e-05 -3.55597e-05 1 
-4.96271e-05 3.95819e-05 1 
-0.000278972 -9.02258e-05 1 
-0.000370546 0.000148484 1 
-0.00126224 0.000226725 0.999999 
-0.00539196 0.00145696 0.999985 
-0.0112748 0.00216897 0.999934 
-0.026123 0.00351609 0.999653 
-0.0383231 0.0027385 0.999262 
-0.0390362 -5.60543e-05 0.999238 
-0.0267288 -0.00190387 0.999641 
-0.00738106 -0.00117991 0.999972 
-0.0181846 -0.0040087 0.999827 
-0.00165642 -0.000324309 0.999999 
-0.00390287 -0.00108327 0.999992 
-8.46641e-05 6.02076e-05 1 
-0.000125108 -3.73813e-06 1 
-1.15818e-05 -7.75128e-06 1 
-2.96146e-05 -4.18332e-05 1 
-3.73797e-05 -3.64718e-05 1 
-2.69405e-05 -8.40322e-06 1 
-9.58599e-05 -4.33407e-05 1 
5.42225e-06 4.40937e-05 1 
-0.000127452 1.22836e-05 1 
-8.23856e-05 -0.000106307 1 
-0.00013091 -6.54263e-05 1 
-4.72499e-05 -0.000131551 1 