# vtk DataFile Version 3.0 
Exported using Morpho https://github.com/Morpho-lang/morpho 
ASCII 
DATASET UNSTRUCTURED_GRID 

POINTS 3402 float 
-1.5998 -6.88771 -6.29761e-07 
-1.36587 -6.93788 1.75637e-06 
-1.1732 -6.97304 -2.89285e-06 
-0.982067 -7.00249 -1.70484e-06 
-0.743202 -7.03186 2.43187e-06 
-0.52997 -7.05114 -3.54186e-06 
-0.314261 -7.06406 3.66417e-06 
-0.125894 -7.06993 -1.93907e-06 
0.087318 -7.07052 -3.79088e-06 
0.329875 -7.06335 3.65963e-06 
0.532198 -7.05101 -3.18703e-06 
0.742072 -7.03204 1.04171e-07 
0.950948 -7.00685 -1.86481e-06 
1.17251 -6.97317 1.34786e-06 
1.38222 -6.93462 -5.95174e-06 
1.62001 -6.88295 2.81888e-06 
-2.41317 -6.64652 2.45558e-06 
-2.20547 -6.71831 -4.03791e-07 
-1.97244 -6.79037 4.9053e-06 
-1.78312 -6.84254 -1.38856e-07 
-1.56078 -6.63295 1.79086e-15 
-1.35969 -6.69958 -3.28184e-15 
-1.14758 -6.72131 2.08361e-15 
-0.916393 -6.76683 2.2592e-15 
-0.680746 -6.7745 -3.65508e-15 
-0.470532 -6.80817 4.0102e-15 
-0.268803 -6.79518 -4.69588e-15 
-0.0592611 -6.8095 4.84972e-15 
0.165319 -6.8161 2.30166e-15 
0.384201 -6.79227 -2.37557e-15 
0.593194 -6.78778 2.79741e-15 
0.808148 -6.76766 7.76241e-16 
1.0248 -6.74481 6.02258e-16 
1.23444 -6.71318 4.20379e-15 
1.44421 -6.67686 3.33052e-15 
1.66287 -6.62363 -5.3871e-15 
1.84759 -6.82538 2.45376e-06 
2.04683 -6.76829 -5.51039e-06 
2.28616 -6.69126 2.1908e-06 
-2.84657 -6.4728 2.79297e-06 
-2.63583 -6.56143 1.08216e-07 
-2.42194 -6.40424 -2.17257e-15 
-2.19047 -6.46306 -2.68686e-16 
-1.99062 -6.54018 -5.73276e-15 
-1.7792 -6.58395 -1.90222e-15 
-1.53924 -6.3955 -3.18958e-15 
-1.31979 -6.43455 3.45866e-15 
-1.10184 -6.46465 2.36384e-16 
-0.90125 -6.52691 -1.64973e-16 
-0.696937 -6.50771 -2.21196e-15 
-0.479035 -6.53409 -2.33249e-15 
-0.271101 -6.51749 3.45133e-15 
-0.0670605 -6.53916 -1.37382e-16 
0.143804 -6.55189 -2.62515e-16 
0.35188 -6.52605 -3.32906e-16 
0.563699 -6.51485 -2.52224e-16 
0.775605 -6.51139 9.60219e-17 
0.990693 -6.48511 -9.00787e-17 
1.21038 -6.46378 -1.48698e-15 
1.42991 -6.42085 -1.59394e-15 
1.65299 -6.37363 2.5386e-15 
1.88898 -6.56046 2.95165e-15 
2.10001 -6.50743 3.04181e-15 
2.30838 -6.42838 -4.95831e-15 
2.49935 -6.61457 2.57872e-06 
2.68566 -6.54114 -4.19362e-06 
2.94367 -6.42917 -2.1122e-06 
-3.28911 -6.25953 2.38221e-06 
-3.07359 -6.36814 -4.91826e-07 
-2.8502 -6.21705 -2.24114e-15 
-2.62907 -6.30063 -1.41098e-15 
-2.3851 -6.15223 5.51029e-16 
-2.17684 -6.23333 1.19362e-15 
-1.94153 -6.27957 2.56148e-15 
-1.73894 -6.32594 2.89685e-15 
-1.54826 -6.15208 -4.95107e-16 
-1.3318 -6.19849 -1.29063e-15 
-1.10672 -6.22363 1.77839e-15 
-0.892099 -6.26213 -2.05932e-15 
-0.695835 -6.25324 2.54571e-15 
-0.492995 -6.28147 -3.30381e-17 
-0.272775 -6.27543 -7.03274e-16 
-0.0618997 -6.27871 1.02959e-15 
0.142125 -6.28764 -1.83108e-16 
0.348517 -6.27455 -7.67662e-16 
0.559473 -6.26027 5.86844e-16 
0.763052 -6.26209 -2.16429e-16 
0.967045 -6.23535 -4.74028e-16 
1.1861 -6.2246 2.8034e-15 
1.39535 -6.18128 -1.36625e-15 
1.618 -6.13293 -1.35053e-15 
1.85049 -6.2922 -2.20646e-15 
2.05711 -6.25233 -6.56173e-16 
2.26358 -6.18074 3.40309e-16 
2.51475 -6.34355 1.34394e-15 
2.74076 -6.28811 7.23174e-15 
2.94852 -6.16841 1.03543e-15 
3.16424 -6.32355 9.46487e-07 
3.36789 -6.21747 -1.72312e-06 
-3.72137 -6.01261 1.66459e-06 
-3.50759 -6.13978 6.85108e-07 
-3.28273 -6.00379 -2.4689e-15 
-3.06798 -6.10996 -1.30523e-15 
-2.82513 -5.96864 -3.15085e-16 
-2.60403 -6.05157 1.17822e-15 
-2.38095 -5.91106 -7.43538e-17 
-2.16672 -5.97742 1.03318e-15 
-1.96359 -6.04113 -3.55019e-15 
-1.74753 -6.06206 5.97389e-17 
-1.52982 -5.93006 -2.66652e-16 
-1.33073 -5.98708 -1.84789e-16 
-1.12273 -6.00737 -4.56602e-16 
-0.898914 -6.03975 5.37082e-16 
-0.686176 -6.02199 1.20505e-15 
-0.487134 -6.06036 7.28172e-16 
-0.282437 -6.04253 4.44536e-16 
-0.0706348 -6.04164 -5.16151e-16 
0.139816 -6.04804 -2.70298e-16 
0.343953 -6.03677 1.07648e-16 
0.544429 -6.03972 2.14754e-16 
0.759907 -6.0208 -4.95747e-16 
0.981186 -6.02178 -9.56378e-16 
1.1807 -5.98574 1.02065e-15 
1.39835 -5.97613 -4.83338e-16 
1.60898 -5.91697 -5.8903e-16 
1.82795 -6.0476 3.44136e-15 
2.03444 -6.00431 5.44518e-16 
2.2586 -5.94449 -1.51803e-15 
2.47735 -6.09736 -2.10014e-15 
2.69007 -6.04124 2.10854e-16 
2.90893 -5.93622 -8.23845e-16 
3.1641 -6.06785 -1.49311e-16 
3.37419 -5.95945 3.47023e-15 
3.59195 -6.09081 -2.45099e-06 
-3.93578 -5.87451 5.86993e-07 
-3.70499 -5.76077 -1.71309e-15 
-3.49823 -5.88225 -1.72121e-15 
-3.25673 -5.75647 -1.78926e-16 
-3.03827 -5.85458 4.51359e-16 
-2.81621 -5.72457 -6.63689e-17 
-2.60139 -5.80725 -1.57186e-15 
-2.39767 -5.69797 1.97434e-17 
-2.17839 -5.75614 -1.91345e-16 
-1.96401 -5.81637 -2.10442e-16 
-1.75755 -5.84597 -1.08348e-15 
-1.55258 -5.73569 3.63753e-17 
-1.30984 -5.77824 2.20027e-16 
-1.10188 -5.77294 -2.54344e-16 
-0.901132 -5.8387 1.10091e-16 
-0.701596 -5.78846 -8.19566e-17 
-0.504389 -5.83303 2.74859e-16 
-0.301116 -5.81864 -2.26773e-16 
-0.092687 -5.81498 -4.55723e-16 
0.116749 -5.82701 4.87917e-17 
0.327705 -5.81934 6.79197e-17 
0.541327 -5.81572 -7.67615e-17 
0.744287 -5.80487 5.93337e-17 
0.962898 -5.80668 9.47472e-17 
1.18648 -5.77548 2.68015e-16 
1.39848 -5.77391 1.01368e-16 
1.62412 -5.71281 2.37522e-16 
1.82004 -5.82358 1.29436e-15 
2.04984 -5.79942 -1.14966e-15 
2.2687 -5.72814 -6.39931e-16 
2.4625 -5.84888 2.84806e-15 
2.66152 -5.80174 8.93137e-16 
2.87743 -5.7059 -1.36021e-15 
3.11994 -5.82229 -9.27927e-16 
3.34464 -5.71581 -3.97058e-16 
3.59324 -5.82818 -1.19561e-16 
3.81685 -5.95244 2.00517e-06 
4.0307 -5.80975 -1.49051e-06 
-4.37386 -5.55602 1.37146e-06 
-4.15497 -5.72156 2.90322e-06 
-3.92354 -5.62523 -3.07673e-15 
-3.67984 -5.5175 -2.30469e-16 
-3.45795 -5.62281 4.38153e-16 
-3.23427 -5.50252 5.23758e-16 
-3.03382 -5.60204 -5.75207e-16 
-2.8227 -5.51214 1.96402e-16 
-2.60672 -5.58087 -2.30791e-16 
-2.40196 -5.4917 -5.1499e-16 
-2.18936 -5.5541 5.82979e-17 
-1.97067 -5.60785 7.18024e-17 
-1.75972 -5.62474 -2.52412e-16 
-1.56877 -5.52071 -7.11594e-17 
-1.36782 -5.5911 -4.8026e-17 
-1.14733 -5.5664 -1.80364e-17 
-0.909224 -5.62197 -1.64884e-17 
-0.688648 -5.59163 -9.97214e-17 
-0.467462 -5.61805 -5.40343e-17 
-0.254561 -5.60957 -2.62821e-17 
-0.0389129 -5.60932 -4.28378e-17 
0.172805 -5.62198 1.1808e-16 
0.389987 -5.61832 -1.12161e-17 
0.594582 -5.59209 1.27956e-16 
0.812657 -5.61168 4.08128e-17 
1.03264 -5.60334 2.07124e-16 
1.25462 -5.56412 -2.73746e-17 
1.46254 -5.57471 1.84551e-16 
1.68099 -5.50564 -9.54297e-17 
1.8562 -5.61652 -1.32114e-16 
2.06117 -5.58912 3.41182e-16 
2.25484 -5.51577 7.5861e-17 
2.46049 -5.60792 -3.31849e-16 
2.66311 -5.58574 -3.90766e-16 
2.89429 -5.50391 3.81179e-16 
3.10636 -5.58994 1.57227e-15 
3.31528 -5.47428 4.3837e-16 
3.55854 -5.57992 8.80247e-18 
3.80956 -5.68839 1.80025e-17 
4.01341 -5.5546 2.96928e-15 
4.2394 -5.65926 -1.38389e-06 
-4.58847 -5.38013 2.02062e-06 
-4.34228 -5.31657 -2.89723e-15 
-4.13008 -5.47419 -3.76897e-15 
-3.88376 -5.3702 7.67276e-16 
-3.65566 -5.27234 4.09621e-16 
-3.44936 -5.37342 -2.17204e-16 
-3.23523 -5.29284 2.35423e-16 
-3.01897 -5.3734 -1.68424e-16 
-2.81931 -5.29703 1.54585e-16 
-2.62708 -5.37072 -4.0908e-17 
-2.41779 -5.29401 5.30557e-17 
-2.19162 -5.3483 -1.61514e-16 
-1.98461 -5.39695 -1.10028e-16 
-1.78017 -5.40772 -1.03291e-17 
-1.54572 -5.34448 -5.09316e-17 
-1.31905 -5.40187 -2.07559e-17 
-1.11282 -5.35559 -7.64244e-18 
-0.941605 -5.43699 3.82671e-19 
-0.751274 -5.39465 -9.79519e-18 
-0.54137 -5.41605 -1.77031e-17 
-0.334139 -5.42098 -3.24301e-18 
-0.109292 -5.41373 -7.53811e-18 
0.106502 -5.41718 -2.3623e-18 
0.314676 -5.42624 8.89597e-18 
0.522884 -5.40178 8.25475e-18 
0.752003 -5.41236 1.4237e-17 
0.955267 -5.4169 8.46844e-18 
1.16645 -5.39507 1.33377e-17 
1.39992 -5.37722 6.08914e-18 
1.59064 -5.34351 1.24524e-17 
1.8376 -5.36355 4.78485e-17 
2.01938 -5.37638 1.3269e-16 
2.22607 -5.32418 1.64844e-16 
2.45736 -5.38912 6.1912e-17 
2.68422 -5.39862 -9.82151e-17 
2.8934 -5.30537 1.0012e-16 
3.10081 -5.37087 1.10546e-15 
3.299 -5.25627 5.70584e-17 
3.51752 -5.33989 -1.05365e-15 
3.76066 -5.42901 -3.84851e-16 
3.98051 -5.30903 2.25179e-16 
4.21446 -5.40494 -3.83988e-16 
4.4361 -5.50641 9.63408e-07 
-4.79709 -5.19497 1.80616e-06 
-4.54826 -5.14425 -3.81766e-15 
-4.30331 -5.06677 1.17639e-15 
-4.09659 -5.22539 2.59862e-16 
-3.85975 -5.1228 -1.59562e-16 
-3.64782 -5.05363 9.85655e-16 
-3.45325 -5.14778 -8.24261e-16 
-3.25682 -5.09617 3.80248e-16 
-3.03083 -5.16497 -3.62867e-17 
-2.81665 -5.09902 -2.83637e-16 
-2.60389 -5.15151 4.87359e-17 
-2.35862 -5.11939 2.76434e-17 
-2.14918 -5.15467 -3.48411e-18 
-1.94785 -5.19239 -5.90278e-18 
-1.73794 -5.21384 -2.9824e-17 
-1.55166 -5.12602 -7.00879e-18 
-1.36527 -5.21038 -5.65295e-18 
-1.16094 -5.16591 -1.67858e-18 
-0.924766 -5.21196 -1.92551e-18 
-0.688585 -5.20005 -1.27068e-18 
-0.477708 -5.21106 -6.21514e-19 
-0.260303 -5.22585 -3.45405e-19 
-0.0442532 -5.20599 -3.52906e-20 
0.165759 -5.20704 7.05983e-19 
0.369608 -5.21041 1.86054e-18 
0.600424 -5.21945 2.64395e-18 
0.807997 -5.2026 9.90777e-19 
1.01006 -5.21776 2.93844e-18 
1.2413 -5.21516 1.95643e-18 
1.4328 -5.16097 5.95493e-18 
1.6677 -5.18316 2.23381e-17 
1.89549 -5.17241 1.87429e-17 
2.09903 -5.15511 8.69603e-18 
2.29104 -5.09087 1.19776e-17 
2.43407 -5.19723 9.52872e-17 
2.65942 -5.20615 7.49442e-17 
2.87085 -5.11365 3.3778e-17 
3.093 -5.1626 1.99986e-16 
3.30805 -5.05991 -3.91715e-17 
3.51896 -5.13117 -5.53155e-16 
3.73558 -5.19071 2.50605e-15 
3.93026 -5.06821 -7.41105e-16 
4.17234 -5.15136 -1.13338e-15 
4.41081 -5.24025 -3.78565e-15 
4.64404 -5.33221 2.2135e-06 
4.85691 -5.13904 -2.94844e-06 
-5.00314 -4.99683 -2.46014e-07 
-4.76026 -4.96201 -1.94512e-15 
-4.50954 -4.89714 2.73607e-16 
-4.26051 -4.82901 5.91757e-16 
-4.06413 -4.98414 2.12323e-16 
-3.85904 -4.89938 -1.73933e-15 
-3.65819 -4.85677 2.329e-17 
-3.44367 -4.92681 -6.15233e-17 
-3.24011 -4.88343 -3.71158e-16 
-3.05421 -4.97023 -7.72572e-18 
-2.87315 -4.89498 2.02682e-17 
-2.65748 -4.94342 -6.8875e-17 
-2.45243 -4.9592 6.61375e-18 
-2.21217 -4.9583 5.89635e-18 
-1.99597 -4.97972 -7.50834e-18 
[...]
POINT_DATA 3402 
VECTORS vectors float
0.0384563 -0.00897558 0.999529 
0.0365173 -0.00658993 0.999606 
0.05056 -0.00924139 0.999098 
0.0392548 -0.00654989 0.999396 
0.0360895 -0.0025273 0.999596 
0.0415602 -0.00414758 0.999456 
0.0418969 -0.000152919 0.999454 
0.0525724 -0.00241535 0.998965 
0.0317383 0.000267224 0.999729 
0.0387624 0.00299177 0.999526 
0.0437917 0.00188797 0.99935 
0.0411346 0.00518716 0.999436 
0.0387772 0.00403092 0.999487 
0.0372985 0.00661251 0.999493 
0.0370001 0.00642548 0.99947 
0.0222725 0.00584858 0.999816 
0.0325334 -0.0102654 0.999549 
0.0300151 -0.0107964 0.999653 
0.0361606 -0.00947786 0.999534 
0.0520799 -0.0127617 0.998884 
-0.015808 0.00420078 0.999868 
-0.00327461 0.000293558 1.00002 
-0.0126909 4.63685e-05 0.999912 
0.0077721 -0.000632331 1.00005 
-0.0233167 0.00185787 0.999722 
-0.0050092 -0.000289423 0.999981 
-0.0225874 0.000327889 0.99973 
-0.0239726 0.00014452 0.999707 
0.00206765 0.00184702 0.999997 
-0.0219909 -0.00142301 0.999743 
-0.00802721 -0.0014057 0.999959 
-0.0233179 -0.00267368 0.999716 
-0.00424076 -3.2049e-05 0.99999 
-0.0188595 -0.00233933 0.999808 
0.00286163 0.00116882 0.999987 
0.000170293 -0.000939354 1 
0.0426882 0.0112639 0.999183 
0.0335322 0.00951819 0.999507 
0.020761 0.00777405 0.999831 
0.0283443 -0.0114692 0.999573 
0.0307643 -0.0131383 0.999534 
0.0068415 -0.00128354 0.999984 
-0.00303579 0.000950023 0.999989 
0.000327128 -0.00167531 0.999994 
-0.025188 0.00695535 0.999653 
0.0321192 -0.00932557 0.999519 
0.0427156 -0.00711289 0.999155 
0.0274073 -0.00473223 0.999661 
0.0476586 -0.00768801 0.998876 
0.0458614 -0.00676172 0.999 
0.0433361 -0.00486955 0.999123 
0.0563082 -0.00105 0.998498 
0.0540761 -0.000188403 0.998609 
0.0504286 0.00120554 0.998796 
0.0490417 0.00249269 0.998863 
0.0558073 0.00476967 0.998497 
0.0384121 0.00455154 0.999323 
0.0493994 0.00736106 0.99881 
0.0322074 0.00535828 0.99956 
0.0275769 0.00512998 0.999644 
0.026793 0.00849723 0.999674 
-0.0225628 -0.00630734 0.999723 
0.00842189 0.00380089 0.999948 
0.0007756 -0.0012883 0.999993 
0.0419228 0.0157555 0.999144 
0.0318828 0.0117637 0.99943 
0.0189736 0.00907774 0.999713 
0.0267013 -0.0130899 0.99956 
0.0259771 -0.0130806 0.99959 
0.00887432 -0.0042739 0.999961 
-0.00563722 0.00243364 0.999986 
0.0195819 -0.006791 0.999843 
0.0118835 -0.0032578 0.999972 
0.0401031 -0.0106067 0.999228 
0.0454508 -0.0107696 0.998975 
0.131612 -0.0336075 0.990755 
0.128157 -0.0276183 0.991388 
0.136526 -0.0235768 0.990385 
0.130309 -0.0187525 0.991319 
0.140986 -0.0152777 0.989889 
0.135207 -0.0105537 0.990804 
0.135402 -0.00536246 0.990757 
0.137417 -0.000588508 0.990507 
0.135035 0.00311396 0.990865 
0.137555 0.00731241 0.990449 
0.132563 0.0118052 0.991124 
0.138925 0.0166449 0.990166 
0.133186 0.0203813 0.990917 
0.136393 0.0261607 0.99031 
0.124425 0.0274199 0.991915 
0.126872 0.0333956 0.991388 
0.0437536 0.0123372 0.999069 
0.0237853 0.00724659 0.999727 
0.0217463 0.00811761 0.999797 
-0.0181433 -0.00739889 0.999818 
0.00747699 0.0055042 0.999966 
0.0146917 0.00823541 0.999854 
0.0273128 0.0132692 0.999544 
0.0283648 0.0157666 0.999479 
0.024001 -0.0142568 0.999564 
0.0238634 -0.014087 0.999595 
0.010122 -0.00549312 0.999941 
-0.00044822 -0.000256055 1.00001 
0.00892346 -0.00446208 1 
0.0202133 -0.00807639 0.999819 
0.113825 -0.0458832 0.992496 
0.125287 -0.0451376 0.991149 
0.123546 -0.0407299 0.991533 
0.134375 -0.0387619 0.990183 
0.113858 -0.0298855 0.993048 
0.113523 -0.0254778 0.993202 
0.1084 -0.0202505 0.99391 
0.112667 -0.0163083 0.993491 
0.097102 -0.0102341 0.995246 
0.106446 -0.00786077 0.994307 
0.0966584 -0.0040822 0.995313 
0.0946758 -0.00101867 0.995522 
0.0994921 0.0022345 0.995045 
0.0950094 0.00538872 0.995474 
0.105236 0.00943582 0.994407 
0.100191 0.0123754 0.994919 
0.112653 0.0180195 0.993462 
0.106513 0.0212876 0.994084 
0.120045 0.0279175 0.992369 
0.112512 0.0306918 0.993174 
0.134132 0.0415373 0.99009 
0.115037 0.0393032 0.992647 
0.120985 0.0456078 0.991654 
0.0326322 0.0123381 0.999509 
0.014466 0.00655655 0.999886 
0.00045534 -0.000266282 1.00004 
0.00586442 0.00218569 0.999982 
0.00378863 0.00142043 1 
0.0203413 0.0115289 0.999635 
0.0220723 -0.0151368 0.99955 
0.00933238 -0.00589579 0.99995 
0.00291812 -0.00185751 1 
0.00163327 -0.00104763 1.00004 
0.0134161 -0.00692003 0.999936 
0.105252 -0.0526829 0.993125 
0.115444 -0.0526043 0.991988 
0.121027 -0.0515849 0.991294 
0.116693 -0.0446218 0.992156 
0.113825 -0.0390877 0.992726 
0.106321 -0.0327203 0.993796 
0.0627933 -0.0173313 0.997887 
0.0603642 -0.0139279 0.99809 
0.0435589 -0.0084559 0.999021 
0.0583587 -0.00877481 0.998273 
0.0394169 -0.00461942 0.99921 
0.0443045 -0.00358302 0.999008 
0.0398644 -0.00209207 0.999201 
0.0379756 -0.000834109 0.999279 
0.0430738 0.000977422 0.999085 
0.0408198 0.00244162 0.999157 
0.0432958 0.00405428 0.999058 
0.0427511 0.00550519 0.999073 
0.0523829 0.00883253 0.998616 
0.0523118 0.0110335 0.99858 
0.0606198 0.014769 0.998061 
0.0639938 0.0185551 0.997786 
0.103885 0.0332283 0.994034 
0.118603 0.0419212 0.992047 
0.115298 0.0455303 0.992279 
0.128207 0.0544027 0.990265 
0.103163 0.0474847 0.993637 
0.10181 0.0511449 0.993585 
0.0106346 0.0052186 0.999978 
-0.00167281 -0.00125426 1.00004 
0.0111505 0.00680146 0.999936 
0.0229369 0.0152224 0.999532 
0.0240925 0.0155103 0.999528 
0.0188034 -0.0151901 0.999536 
0.0208713 -0.0145 0.999533 
0.00521758 -0.00372271 0.999997 
-0.00450399 0.00282108 1.00002 
0.00920637 -0.0054869 0.99999 
0.0990481 -0.0585835 0.993441 
0.107085 -0.0586104 0.992604 
0.121547 -0.0631105 0.99056 
0.111734 -0.0531467 0.992303 
0.070153 -0.0313836 0.997058 
0.0668804 -0.026717 0.997418 
0.0598456 -0.0213617 0.997983 
0.0487103 -0.0157065 0.998712 
0.0203427 -0.00602812 0.999762 
0.0236964 -0.00596778 0.999687 
0.0145938 -0.00312859 0.999876 
0.0168974 -0.0027811 0.999842 
0.0102353 -0.00145109 0.999928 
0.011989 -0.00107796 0.999913 
0.0095506 -0.000564271 0.999938 
0.0100033 -0.000219124 0.999933 
0.011123 0.000527415 0.999922 
0.011451 0.000848423 0.999917 
0.0100199 0.0013419 0.999932 
0.0144069 0.00225542 0.999879 
0.0168987 0.00348287 0.999838 
0.0174454 0.00403984 0.999826 
0.0240113 0.00660676 0.999678 
0.0219569 0.00671565 0.999722 
0.0511597 0.0171626 0.998569 
0.0647358 0.0241131 0.997612 
0.0631947 0.0259837 0.997674 
0.107502 0.0471457 0.993081 
0.11618 0.0555495 0.991656 
0.123488 0.0656131 0.990155 
0.10208 0.0574929 0.993218 
0.0940402 0.0576401 0.994005 
-0.00147061 -0.00106063 1.00004 
-0.00216096 -0.000640003 1.00001 
0.0139182 0.0111636 0.999843 
0.019635 0.0150255 0.999632 
0.019832 -0.0165926 0.999489 
0.00986124 -0.00754681 0.999946 
0.0144075 -0.0106254 0.999861 
-0.00257366 0.00244051 1.00003 
0.0829972 -0.057387 0.995006 
0.0987421 -0.063472 0.993155 
0.116286 -0.0715255 0.990619 
0.109134 -0.0619462 0.992079 
0.0717867 -0.0386634 0.996684 
0.0660153 -0.0328832 0.997292 
0.0306816 -0.014187 0.999418 
0.0240289 -0.0101111 0.999654 
0.021706 -0.00826191 0.999723 
0.0133417 -0.00461092 0.999888 
0.00422833 -0.00148462 0.999972 
0.00496296 -0.00132063 0.999969 
0.00177913 -0.000443289 0.99998 
0.00352823 -0.000604959 0.999974 
0.00114927 -0.000241621 0.999985 
0.00154927 -0.000309289 0.999981 
0.00131971 -0.000127729 0.999982 
0.00115529 -9.28579e-05 0.999982 
0.00117881 2.49512e-05 0.999981 
0.00142913 0.000191875 0.999981 
0.00122907 0.000270186 0.999982 
0.00185704 0.000420916 0.99998 
0.00262387 0.000599785 0.999979 
0.00354429 0.000903266 0.999975 
0.00465945 0.00133642 0.99997 
0.0048444 0.00157122 0.999969 
0.0113847 0.00411633 0.99991 
0.0209332 0.0082249 0.999739 
0.0230358 0.00983615 0.999675 
0.0509828 0.0233961 0.998453 
0.0777458 0.0388778 0.996215 
0.0802528 0.0443485 0.995803 
0.114509 0.0672742 0.991123 
0.113814 0.072194 0.990856 
0.0909827 0.0601036 0.994146 
0.00883833 0.00631573 0.999991 
-0.0121846 -0.00882149 0.999917 
0.0143233 0.00963363 0.999852 
0.0193242 0.0161276 0.99957 
0.0171119 -0.0155547 0.999539 
0.0145063 -0.0124115 0.999843 
-0.00911483 0.00915442 0.999935 
-0.0101434 0.00824493 0.999942 
0.083848 -0.0628672 0.9946 
0.112671 -0.0812237 0.99029 
0.109008 -0.0734685 0.991305 
0.0849369 -0.0545166 0.99491 
0.0651854 -0.0386896 0.997138 
0.0306202 -0.0173273 0.999376 
0.0234895 -0.0120615 0.999649 
0.00870805 -0.00402661 0.999936 
0.00517629 -0.00219422 0.999965 
0.00402715 -0.00160514 0.999975 
0.00198236 -0.000946555 0.999981 
7.00489e-05 -0.000238431 0.999982 
0.00032706 -0.000194636 0.999982 
-0.000287195 1.36289e-05 0.999983 
-0.000104523 -6.35784e-05 0.999983 
-0.00023688 -6.21964e-05 0.999981 
-0.000217944 2.19634e-05 0.999982 
-0.000149667 -1.10371e-05 0.999982 
-0.000226517 4.05616e-06 0.999982 
-0.00024765 4.57981e-05 0.999982 
-0.00025598 0.000116137 0.999982 
-0.000272552 0.000111133 0.999982 
-0.000203397 -4.77422e-06 0.999982 
-4.76428e-05 9.04378e-05 0.999983 
0.000144718 8.1844e-05 0.999983 
0.000167054 0.000202474 0.999983 
0.000718858 0.000493266 0.999982 
0.00218867 0.000954807 0.999983 
0.00509702 0.00221096 0.999965 
0.00488809 0.00233209 0.999967 
0.0179361 0.00857908 0.999789 
0.0335277 0.0174018 0.999287 
0.0360727 0.0204755 0.999137 
0.0714453 0.0434395 0.99651 
0.0798341 0.0525463 0.995434 
0.113108 0.0778384 0.990509 
0.0907104 0.0661932 0.993794 
0.0784659 0.0604852 0.995201 
-0.00587215 -0.00593142 0.999999 
0.010003 0.00594848 0.999962 
0.0185565 0.0168558 0.999422 
0.0212232 0.0185258 0.999442 
0.0180855 -0.0179259 0.999505 
0.0143047 -0.014247 0.999823 
-0.0129935 0.0122999 0.999853 
0.0638147 -0.0550867 0.99659 
0.0692652 -0.0558583 0.99617 
0.109121 -0.0863489 0.990258 
0.0867025 -0.0655898 0.994082 
0.0657012 -0.0462705 0.99678 
0.0341231 -0.0230815 0.999151 
0.0311605 -0.0195236 0.999322 
0.0106337 -0.00640728 0.999906 
0.00678927 -0.0039406 0.999951 
0.0028812 -0.00143141 0.999977 
0.00090415 -0.000337136 0.999982 
0.000379843 -0.00033922 0.999983 
-5.96601e-06 -0.000153821 0.999981 
-0.000468117 -4.26121e-05 0.999982 
-0.000432142 6.05614e-05 0.999982 
-0.000446003 4.79134e-05 0.999981 
-0.0004849 -8.70462e-05 0.999981 
-0.000431306 -3.58322e-05 0.999983 
-0.000436882 -3.12348e-05 0.999981 
-0.000359655 -9.7014e-05 0.999982 
-0.000338316 1.13029e-05 0.999982 
-0.000315111 2.87953e-05 0.999982 
-0.000300547 9.74012e-05 0.99998 
-0.000287845 0.000124738 0.999983 
-0.000255203 -4.45158e-05 0.999982 
-0.000259963 3.48207e-05 0.99998 
-0.00033727 5.09914e-05 0.999984 
-0.00031001 -7.25834e-05 0.999982 
-0.000252195 4.17009e-05 0.999982 
3.13658e-05 4.13881e-05 0.999983 
0.000513011 0.000244525 0.999981 
0.000578994 0.000359844 0.999985 
0.00329666 0.00173755 0.999975 
0.010919 0.00590457 0.999906 
0.0125682 0.00728832 0.999878 
0.0336244 0.0209028 0.999214 
0.0347343 0.0234241 0.999122 
0.0756681 0.0537084 0.9957 
0.108481 0.0811105 0.990765 
0.108041 0.0864094 0.990364 
0.0808441 0.0667951 0.994607 
0.00246487 0.00248326 1.00004 
-0.00529025 -0.0026379 1.00002 
0.0110921 0.0138019 0.999843 
0.015004 0.0146063 0.999716 
0.0167163 -0.0186139 0.999538 
0.0138541 -0.0146909 0.999819 
-0.012462 0.0116706 0.999861 
0.0539749 -0.051808 0.997331 
0.100934 -0.0919772 0.990616 
0.105136 -0.0889079 0.990464 
0.074287 -0.0613099 0.995359 
0.040346 -0.0321046 0.998672 
0.031847 -0.0238388 0.999208 
0.0124047 -0.00911763 0.999865 
0.00755142 -0.00526658 0.999941 
0.00187773 -0.00129362 0.99998 
0.000806676 -0.000521926 0.999982 
0.000181405 -4.27058e-05 0.999983 
-4.06418e-05 3.9796e-05 0.999983 
-0.000202979 4.86498e-05 0.99998 
-0.000204144 3.35487e-05 0.999984 
-0.000212539 -5.8635e-05 0.999982 
-0.00024156 8.42722e-05 0.999981 
-0.000238058 3.87689e-05 0.999981 
-0.000189121 -3.91505e-05 0.999983 
-0.000289059 -7.69778e-05 0.999982 
-0.00023342 -6.87393e-05 0.999982 
-0.000337966 -1.89961e-05 0.999982 
-0.000318005 -5.00306e-05 0.999982 
-0.000255613 -3.41547e-06 0.999982 
-0.000194012 4.79817e-05 0.999982 
-0.000137399 8.46237e-05 0.999982 
-0.000123769 2.14352e-05 0.999982 
-0.000265297 6.36771e-05 0.999985 
-0.000164862 6.19955e-05 0.999979 
-0.000256457 2.65639e-05 0.999981 
-0.000311484 -4.8146e-06 0.999982 
-0.000272968 -0.000251851 0.999984 
-0.000185431 7.66273e-05 0.999981 
-5.10137e-05 2.55846e-05 0.999982 
0.000298795 0.000301848 0.999985 
0.00246993 0.00141662 0.999978 
0.00226109 0.00126759 0.999979 
0.00986892 0.00628812 0.999914 
0.0103042 0.00713112 0.999905 
0.0323477 0.0234704 0.999199 
0.064776 0.0500302 0.996658 
0.0706154 0.0584322 0.995803 
0.10172 0.0878436 0.990908 
0.0845847 0.0774071 0.993487 
0.00218422 0.00344642 1.00007 
-0.0116619 -0.011223 0.999866 
0.0190731 0.0185724 0.99964 
0.0169765 0.0199966 0.999553 
0.0151447 -0.0180727 0.999544 
0.0137874 -0.0150407 0.999807 
-0.0125719 0.013247 0.999842 
0.0464985 -0.0495263 0.997843 
0.0982396 -0.0993168 0.9902 
0.0857174 -0.0827648 0.992864 
0.0797278 -0.0706147 0.994306 
0.0355802 -0.0308213 0.998904 
0.0146817 -0.0123404 0.9998 
0.00884803 -0.00710932 0.99992 
0.0024898 -0.00208036 0.999977 
0.000794914 -0.000806463 0.999982 
-7.14179e-05 -0.00016017 0.999983 
-0.000181342 4.40175e-06 0.999982 
-0.000183514 9.93819e-05 0.999981 
-0.0001659 0.000124228 0.999981 
-0.000144871 -3.57968e-05 0.999985 
-8.44597e-05 2.95044e-05 0.999979 
-0.000115975 1.5835e-05 0.999984 
-0.00011778 5.38486e-05 0.999981 
-5.33997e-05 8.54777e-06 0.999986 
-0.000112274 -1.54114e-05 0.99998 
-0.00015223 -5.92047e-06 0.999983 
-0.000187286 -8.13185e-05 0.999983 
-0.000198901 4.85704e-06 0.999983 
-0.000161169 -8.40826e-05 0.999983 
-0.000146136 -4.42357e-05 0.999982 
-0.00012254 -1.56263e-05 0.999984 
-7.45555e-05 2.20167e-05 0.999981 
2.15332e-05 0.000109943 0.999982 
-4.83615e-06 0.000161668 0.999981 
-0.000217306 2.33372e-05 0.999985 
-0.000147302 3.33393e-05 0.999982 
-0.000139225 9.63576e-06 0.999982 
-0.000210887 -0.000169127 0.999981 
-0.000230608 -7.09015e-05 0.999982 
-0.00028104 -4.61563e-05 0.999983 
-0.000151051 -0.000121594 0.999981 
0.000189209 5.58393e-05 0.999983 
0.000112629 4.25049e-06 0.999983 
0.00209013 0.00134249 0.999977 
0.00832654 0.00614111 0.999928 
0.0237303 0.0186996 0.999544 
0.0297795 0.0254041 0.999224 
0.0616055 0.0548547 0.996604 
0.0930393 0.0873246 0.991811 
0.0931967 0.0917092 0.991448 
0.0650561 0.0665533 0.995849 
-0.00285448 -0.00557615 1 
0.00678078 0.00431176 0.999994 
0.0177796 0.0211095 0.999423 
0.015763 -0.0200299 0.999466 
0.009473 -0.0113077 0.999919 
-0.0088875 0.0098634 0.999934 
0.0546873 -0.0624721 0.996698 
0.0945008 -0.102662 0.990214 
0.0776769 -0.0810042 0.993683 
0.0416496 -0.0414918 0.998278 
0.0510596 -0.0477538 0.997559 
0.0188787 -0.0176933 0.999655 
0.00866648 -0.00769553 0.999915 
0.00290743 -0.00260682 0.999974 
0.00113186 -0.0010131 0.999982 
5.91524e-05 -0.000196494 0.999983 
-0.000197907 -3.88871e-05 0.999982 
-0.000251816 1.64444e-06 0.999981 
-0.000236703 2.23812e-05 0.999981 
-0.000182361 1.49946e-05 0.999982 
-9.02e-05 5.01284e-05 0.999982 
-0.000123909 -8.13983e-05 0.999982 
-8.28345e-05 6.51145e-05 0.999982 
-3.28654e-05 -7.67567e-05 0.999983 
1.65619e-05 8.10136e-05 0.999983 
6.45559e-06 -5.43427e-05 0.999983 
-1.30915e-06 0.000107357 0.999983 
-1.78188e-05 -5.3523e-05 0.999983 
-6.53738e-05 -1.27139e-05 0.999983 
-2.95724e-06 -8.10242e-05 0.999983 
-4.91695e-05 -2.74394e-05 0.999983 
-9.6792e-05 -1.20933e-05 0.999983 
-0.00010373 -3.81084e-05 0.999983 
-0.000156002 -1.25842e-05 0.999983 
-6.60872e-05 0.00010288 0.999981 
1.36227e-06 0.000178162 0.999983 
-3.21079e-05 5.36364e-05 0.999983 
-6.17779e-05 -3.59837e-05 0.999982 
-9.53666e-05 -5.53214e-05 0.999983 
-0.000219152 -1.22137e-05 0.999982 
-0.000205734 -7.17857e-05 0.999981 
-0.000138339 -0.000203124 0.999982 
-0.000168277 -6.51411e-05 0.999982 
-7.37448e-05 -0.000105395 0.999984 
1.86892e-05 -4.21905e-05 0.99998 
0.00125185 0.00108004 0.999985 
0.00358757 0.00286322 0.999972 
0.00797924 0.0069781 0.999926 
0.0217359 0.0197927 0.99956 
0.0492744 0.0469696 0.997684 
0.0846793 0.0855335 0.992725 
0.0977776 0.103463 0.989801 
0.0676303 0.0728255 0.995156 
0.00489181 0.00494803 1.00001 
0.00377547 0.00638339 1.00001 
0.0154528 0.0187598 0.999544 
0.015111 -0.0205021 0.999531 
0.00506271 -0.00748567 0.999991 
-0.00557539 0.00589673 0.999993 
0.0615021 -0.0756572 0.995347 
0.0907517 -0.105725 0.990225 
0.067946 -0.0761965 0.994771 
0.0336031 -0.0358968 0.998805 
0.014044 -0.0140405 0.999788 
0.00402978 -0.0039854 0.999966 
0.00146342 -0.00140973 0.999981 
0.000269828 -0.000268526 0.999983 
-5.38715e-05 -2.4009e-06 0.999982 
-0.000157733 3.51524e-05 0.999981 
-0.000174916 5.47132e-06 0.999981 
-0.000160579 -2.43212e-06 0.999982 
-0.000164237 -9.24112e-06 0.999982 
-0.000168145 -2.1318e-06 0.999983 
-0.000171206 -8.59436e-07 0.999983 
-0.000154893 -5.24744e-05 0.999983 
-0.000106011 -5.3249e-05 0.999983 
-4.06881e-05 -4.99298e-05 0.999983 
-1.16603e-05 1.14714e-05 0.999983 
-1.42137e-05 3.80009e-05 0.999983 
1.35001e-05 1.09373e-06 0.999982 
5.57435e-05 -2.46769e-05 0.999982 
4.87299e-05 -6.75477e-05 0.999982 
2.11166e-05 -1.71743e-05 0.999982 
-2.15383e-06 2.75334e-05 0.999982 
7.78836e-06 -3.28881e-05 0.999982 
-1.57558e-05 0.000100896 0.999983 
-0.000153294 -1.96156e-05 0.999985 
-9.0616e-05 2.93403e-05 0.999983 
-0.000103547 0.000177225 0.999983 
-3.11265e-05 4.02278e-05 0.999983 
-2.47757e-05 -3.01017e-06 0.999984 
-2.58593e-05 1.59611e-05 0.999982 
1.61156e-05 -1.92376e-06 0.999983 
-6.54138e-06 -5.5935e-05 0.999982 
-6.76375e-05 -0.000119076 0.999982 
-0.00010769 -0.00012712 0.99998 
-9.27538e-05 -9.10132e-05 0.999981 
-0.000152906 4.98431e-05 0.999985 
0.000245333 0.000224217 0.999982 
0.000591532 0.000624162 0.999981 
0.00385996 0.00355975 0.999969 
0.00966775 0.00940425 0.999893 
0.0317628 0.0319402 0.998979 
0.049513 0.0524849 0.99742 
0.074967 0.0834935 0.993673 
0.0905747 0.106322 0.990176 
0.0643582 0.0795946 0.99485 
-0.00373289 -0.00250581 1.00002 
0.00865909 0.0140176 0.999874 
0.0149926 0.0204868 0.999609 
0.0141281 -0.0213861 0.999591 
0.00783066 -0.0120258 0.999909 
-0.00504913 0.00637673 1 
0.0580895 -0.0773939 0.995441 
0.0856812 -0.109432 0.990281 
0.071443 -0.0866815 0.993665 
0.0400417 -0.0464632 0.998137 
0.0147651 -0.0162797 0.999744 
0.00958968 -0.0101 0.999885 
0.00206651 -0.00205857 0.999978 
0.000406726 -0.000460005 0.999983 
-1.5964e-05 -4.24461e-05 0.999983 
-0.000115517 6.37133e-05 0.999982 
-0.000100378 5.18759e-05 0.999981 
-5.60384e-05 -1.16121e-06 0.999982 
-5.56813e-05 -5.26359e-06 0.999982 
-5.08541e-05 1.84511e-05 0.999983 
-9.46762e-05 6.5665e-06 0.999983 
-0.000118816 1.39121e-05 0.999983 
-0.000118913 -2.83561e-05 0.999983 
-0.000134119 -8.39967e-05 0.999983 
-0.000114899 -0.000101292 0.999983 
-0.000143572 -1.72231e-05 0.999982 
-4.73185e-05 -5.22105e-05 0.999982 
-0.000189438 7.27056e-05 0.999981 
-0.000532485 2.08363e-05 0.999982 
-0.00179958 0.000101375 0.999983 
-0.00332626 5.80994e-05 0.99998 
-0.00130016 -8.8912e-06 0.999981 
-0.000451064 -1.32779e-06 0.999981 
-0.000373995 -9.56297e-05 0.999981 
6.58566e-05 9.88249e-05 0.999983 
-3.56401e-05 8.76448e-05 0.999982 
-2.41056e-05 8.51031e-05 0.999983 
-8.80367e-06 3.76258e-05 0.999983 
-2.8749e-05 -1.0691e-05 0.999982 
-4.72635e-06 -1.43075e-05 0.999983 
1.901e-05 -2.28991e-05 0.999983 
1.96753e-05 -3.94014e-05 0.999983 
2.80525e-05 -6.14626e-06 0.999982 
-9.95951e-05 -8.415e-05 0.999984 
-0.000258969 -7.84553e-05 0.999982 
-0.000227745 -0.000107768 0.99998 
-0.000112654 -4.53175e-05 0.999982 
-8.25597e-05 2.6103e-05 0.999983 
0.0011599 0.00111915 0.999981 
0.00222789 0.00232022 0.999977 
0.0113238 0.0118292 0.999851 
0.0211627 0.0235364 0.999487 
0.0420391 0.0494589 0.997914 
0.0706368 0.0870613 0.993692 
0.0854586 0.110659 0.99016 
0.0600929 0.0813061 0.994987 
-0.0069949 -0.00920774 0.999966 
0.00697613 0.00983808 0.999922 
0.0149185 0.0232871 0.999567 
0.014713 -0.023946 0.999559 
0.00595736 -0.00848819 0.999955 
-0.00138092 0.00172528 1.00004 
0.0597454 -0.0860355 0.994625 
0.0814276 -0.11244 0.990298 
0.0570522 -0.0756288 0.995513 
0.0349881 -0.0438508 0.99843 
0.0134861 -0.0160398 0.999767 