# vtk DataFile Version 3.0 
Exported using Morpho https://github.com/Morpho-lang/morpho 
ASCII 
DATASET UNSTRUCTURED_GRID 

POINTS 3402 float 
-1.58862 -6.89052 1.79147e-05 
-1.36642 -6.93796 -5.4559e-05 
-1.1792 -6.96988 7.48815e-05 
-0.983556 -7.00226 4.85129e-05 
-0.738968 -7.03152 -7.45362e-05 
-0.526296 -7.05081 0.000106703 
-0.32391 -7.06378 -0.000108947 
-0.126098 -7.06899 5.90836e-05 
0.0980682 -7.07062 0.000100817 
0.329783 -7.06313 -0.000102691 
0.528881 -7.05126 9.36105e-05 
0.741478 -7.03229 -1.3734e-05 
0.953358 -7.00673 5.6727e-05 
1.18165 -6.97174 -4.03858e-05 
1.39195 -6.93216 0.000167119 
1.61216 -6.88453 -7.89012e-05 
-2.41209 -6.64663 -7.23452e-05 
-2.21505 -6.71505 1.65357e-05 
-1.98878 -6.78577 -0.000133185 
-1.78313 -6.84226 5.77131e-06 
-1.55943 -6.63475 -4.13157e-05 
-1.35555 -6.70617 -4.98687e-05 
-1.15316 -6.73525 3.22399e-05 
-0.918291 -6.76235 6.8716e-06 
-0.676394 -6.77531 4.46067e-05 
-0.472035 -6.81435 4.34902e-05 
-0.269922 -6.80379 3.44053e-05 
-0.0602195 -6.8117 -3.0866e-05 
0.165673 -6.81665 -4.67873e-05 
0.384489 -6.79756 6.71316e-06 
0.594491 -6.79442 3.86655e-05 
0.805409 -6.77078 1.39603e-05 
1.02906 -6.74796 -3.30941e-05 
1.24033 -6.71655 1.92402e-05 
1.43822 -6.68188 8.49585e-06 
1.66146 -6.62645 -2.06389e-05 
1.84251 -6.82608 -6.79214e-05 
2.06249 -6.76333 0.000152459 
2.28238 -6.69153 -6.2024e-05 
-2.8501 -6.47142 -8.05693e-05 
-2.63583 -6.56147 4.84094e-06 
-2.42396 -6.40517 -5.43211e-05 
-2.1883 -6.46646 -1.59484e-05 
-1.99387 -6.54124 2.20656e-05 
-1.78476 -6.5875 -6.17806e-06 
-1.53991 -6.39685 3.1862e-05 
-1.32884 -6.43196 -6.12893e-05 
-1.0977 -6.45698 -2.97206e-06 
-0.899318 -6.53277 1.25186e-05 
-0.70135 -6.50229 3.38999e-05 
-0.474976 -6.53276 3.47171e-05 
-0.270863 -6.51308 -3.83226e-05 
-0.0670481 -6.53711 -6.77133e-06 
0.14472 -6.55171 -1.79738e-05 
0.350917 -6.52231 -6.99959e-06 
0.563721 -6.51415 2.06163e-05 
0.777624 -6.50722 1.60939e-05 
0.98835 -6.48667 -1.05441e-05 
1.20995 -6.46187 1.80115e-05 
1.42798 -6.41976 4.06428e-05 
1.65584 -6.37325 -4.76021e-05 
1.89283 -6.57133 2.98114e-05 
2.10377 -6.50743 3.54583e-05 
2.30929 -6.43197 8.0819e-06 
2.48663 -6.61874 -7.29992e-05 
2.69727 -6.53586 0.000119052 
2.95559 -6.42321 6.39605e-05 
-3.29183 -6.25814 -6.99132e-05 
-3.07695 -6.36668 1.83548e-05 
-2.85112 -6.21764 -2.9458e-05 
-2.62963 -6.3041 -5.48277e-05 
-2.38567 -6.15311 -2.46053e-05 
-2.1802 -6.23854 -2.39997e-05 
-1.9408 -6.28126 -3.22106e-05 
-1.73117 -6.32497 -3.04946e-05 
-1.55086 -6.15037 -4.31713e-06 
-1.32907 -6.18615 1.08775e-05 
-1.10166 -6.22083 -1.79078e-06 
-0.881081 -6.24775 4.28793e-05 
-0.703691 -6.2614 -3.44584e-05 
-0.497963 -6.27381 7.69587e-08 
-0.270126 -6.27626 1.78869e-06 
-0.0606079 -6.28059 -2.52505e-05 
0.143123 -6.28064 -1.21691e-05 
0.344771 -6.27596 5.50213e-06 
0.558913 -6.25088 5.92939e-06 
0.764063 -6.26367 2.23807e-05 
0.963835 -6.22419 5.09496e-06 
1.18856 -6.22467 -2.15376e-05 
1.39182 -6.17027 2.46608e-05 
1.61824 -6.12494 1.63298e-05 
1.85293 -6.28487 2.82376e-06 
2.04961 -6.25694 2.15282e-05 
2.26668 -6.18316 -1.52452e-05 
2.51436 -6.35428 2.75861e-05 
2.74527 -6.28645 3.96659e-05 
2.94862 -6.16926 -1.10731e-05 
3.16239 -6.3243 -2.95973e-05 
3.36546 -6.21842 4.49642e-05 
-3.72129 -6.01273 -4.81899e-05 
-3.50943 -6.13889 -1.39029e-05 
-3.2837 -6.00444 -4.59022e-05 
-3.06943 -6.11365 -1.95999e-05 
-2.82635 -5.96896 1.89796e-05 
-2.60526 -6.05343 -1.22337e-05 
-2.37693 -5.90254 -1.85356e-06 
-2.16419 -5.9694 -2.12059e-05 
-1.95871 -6.03013 2.29959e-05 
-1.75052 -6.05801 -1.14661e-05 
-1.52769 -5.93112 2.0165e-06 
-1.32476 -5.99004 9.6742e-06 
-1.13218 -6.02179 1.44366e-05 
-0.903801 -6.04599 -9.92903e-07 
-0.679584 -6.02167 -2.11625e-05 
-0.492834 -6.0661 -1.98722e-05 
-0.282708 -6.04273 -1.57251e-05 
-0.0690983 -6.04296 -7.73627e-06 
0.142051 -6.05467 -1.85121e-06 
0.345249 -6.03679 1.33738e-06 
0.54006 -6.04755 -3.98194e-06 
0.763034 -6.02355 1.53566e-05 
0.985455 -6.02633 1.91176e-05 
1.17824 -5.99198 -1.44746e-05 
1.40041 -5.98121 6.46849e-06 
1.60871 -5.92008 -9.28806e-07 
1.82739 -6.04703 -5.34392e-05 
2.03094 -5.99277 -2.0405e-05 
2.26015 -5.9335 4.14684e-05 
2.47721 -6.09258 5.1153e-06 
2.68585 -6.04404 7.73371e-06 
2.91443 -5.93871 -4.15197e-07 
3.16731 -6.07359 3.97631e-05 
3.37442 -5.9617 9.15874e-05 
3.59235 -6.09075 6.97206e-05 
-3.93647 -5.87424 -1.3561e-05 
-3.70693 -5.76348 -3.39197e-05 
-3.50028 -5.88596 -3.92841e-05 
-3.25871 -5.75875 6.05641e-06 
-3.03825 -5.85886 5.11594e-06 
-2.81296 -5.71582 1.00874e-05 
-2.59625 -5.80064 3.7807e-05 
-2.39967 -5.70055 1.069e-05 
-2.17979 -5.75724 3.64741e-06 
-1.96589 -5.82169 -1.70644e-06 
-1.75768 -5.84873 4.13297e-06 
-1.55549 -5.73651 4.31698e-07 
-1.31624 -5.78306 6.44639e-06 
-1.09631 -5.76591 7.20847e-06 
-0.902673 -5.84101 6.09879e-07 
-0.697361 -5.78282 -2.83075e-06 
-0.503762 -5.83243 -1.46205e-05 
-0.30348 -5.8167 -6.47162e-06 
-0.0909528 -5.81164 -2.04571e-06 
0.115547 -5.82409 -4.15524e-06 
0.327431 -5.81807 -8.26767e-07 
0.543869 -5.81381 6.19884e-07 
0.741286 -5.80427 -1.62658e-06 
0.962552 -5.80818 3.00967e-06 
1.1871 -5.7749 -4.98821e-06 
1.39867 -5.77783 -6.57485e-06 
1.6265 -5.71495 -7.13867e-06 
1.8152 -5.82766 -3.04416e-05 
2.0527 -5.80637 9.1143e-06 
2.27314 -5.73091 1.84633e-05 
2.45826 -5.84643 -3.06066e-05 
2.65492 -5.79238 -3.52557e-05 
2.87489 -5.69763 1.99322e-05 
3.11969 -5.82441 2.98686e-05 
3.34615 -5.71903 2.01569e-05 
3.59249 -5.82897 7.57717e-06 
3.81674 -5.95249 -5.98342e-05 
4.03681 -5.80538 4.7621e-05 
-4.37492 -5.55532 -3.57973e-05 
-4.15623 -5.72075 -8.39783e-05 
-3.92636 -5.62974 -4.95151e-05 
-3.68141 -5.51834 1.22542e-07 
-3.45789 -5.62545 4.40668e-06 
-3.2298 -5.4931 4.80819e-06 
-3.03024 -5.59325 1.85092e-05 
-2.82231 -5.514 1.82258e-06 
-2.60707 -5.58268 1.15675e-05 
-2.40318 -5.49834 1.80374e-05 
-2.19208 -5.55667 1.42768e-05 
-1.97359 -5.61212 1.00675e-05 
-1.75674 -5.62854 1.03299e-05 
-1.56797 -5.51697 9.00944e-06 
-1.36475 -5.58845 4.98687e-06 
-1.15089 -5.56023 2.13337e-06 
-0.914 -5.61536 -1.28342e-06 
-0.682638 -5.59461 -2.47485e-06 
-0.465663 -5.61702 -6.12727e-06 
-0.257126 -5.60756 -3.03998e-06 
-0.0394765 -5.60678 6.11784e-07 
0.174292 -5.62019 2.40651e-07 
0.390638 -5.61558 -6.96262e-07 
0.591544 -5.58946 -3.31581e-06 
0.811885 -5.60888 -3.64696e-06 
1.033 -5.60006 -3.47085e-06 
1.25668 -5.55655 -2.54977e-06 
1.45965 -5.5751 -5.78349e-06 
1.68117 -5.50021 -1.77914e-06 
1.85691 -5.61793 -7.99546e-07 
2.06153 -5.59529 -5.04423e-06 
2.25527 -5.51763 -8.72138e-07 
2.4631 -5.61072 1.13298e-05 
2.66331 -5.58684 3.0422e-06 
2.89236 -5.50229 -8.36927e-06 
3.10234 -5.58296 -2.59487e-05 
3.31096 -5.4649 -2.06541e-05 
3.55891 -5.58087 -1.91284e-05 
3.81363 -5.69325 -1.53387e-05 
4.01805 -5.55699 3.24536e-05 
4.24182 -5.65732 3.79057e-05 
-4.58964 -5.37907 -5.81479e-05 
-4.34543 -5.32035 -3.41703e-05 
-4.13266 -5.47717 -5.3464e-05 
-3.88311 -5.37133 -2.65672e-05 
-3.64922 -5.26404 1.00484e-05 
-3.44759 -5.36863 2.21725e-05 
-3.2343 -5.2933 1.09674e-05 
-3.01863 -5.37225 8.76356e-06 
-2.82369 -5.30313 3.73752e-06 
-2.63104 -5.37563 4.03862e-06 
-2.41853 -5.29099 7.74663e-06 
-2.18965 -5.34691 1.38775e-05 
-1.98102 -5.39614 1.30635e-05 
-1.78076 -5.40191 1.21446e-05 
-1.54313 -5.34399 6.90867e-06 
-1.32188 -5.40066 2.93546e-06 
-1.10882 -5.35657 6.55684e-07 
-0.934905 -5.44317 -1.35082e-06 
-0.756504 -5.39206 -1.23341e-06 
-0.543262 -5.41409 -8.35815e-07 
-0.336001 -5.42142 7.28718e-07 
-0.108875 -5.41425 2.18462e-06 
0.107171 -5.4185 1.85739e-06 
0.314247 -5.42829 4.22473e-07 
0.522895 -5.40028 -1.11608e-06 
0.753939 -5.41199 -2.41206e-06 
0.955759 -5.414 -2.95947e-06 
1.16543 -5.39467 -2.47603e-06 
1.39863 -5.37552 -1.86264e-06 
1.59114 -5.3439 -2.05047e-06 
1.84079 -5.3561 -2.26312e-06 
2.01591 -5.37259 -3.94562e-06 
2.22495 -5.32435 -5.35446e-06 
2.45809 -5.39021 -3.66501e-07 
2.68821 -5.40811 -1.89269e-06 
2.89723 -5.3142 -1.47395e-05 
3.10063 -5.36989 -2.73881e-05 
3.29845 -5.25489 -8.17791e-06 
3.51199 -5.33259 -1.43536e-06 
3.75933 -5.43005 -9.89411e-06 
3.98666 -5.31059 1.3651e-05 
4.2136 -5.40736 3.96823e-05 
4.42596 -5.51432 -3.29369e-05 
-4.79825 -5.19385 -5.28168e-05 
-4.55028 -5.1496 -2.77328e-05 
-4.30388 -5.0676 -4.56648e-05 
-4.09765 -5.22682 -3.71257e-05 
-3.85772 -5.1188 2.91984e-06 
-3.64365 -5.05287 3.06197e-06 
-3.45378 -5.14368 1.47097e-05 
-3.26234 -5.10382 3.17815e-06 
-3.03163 -5.17053 6.26892e-06 
-2.81503 -5.09838 8.61481e-06 
-2.60379 -5.14848 5.19252e-06 
-2.35542 -5.11432 4.24772e-06 
-2.14751 -5.15416 4.63406e-06 
-1.94865 -5.18855 5.89384e-06 
-1.73877 -5.21322 5.46879e-06 
-1.55137 -5.12943 8.24166e-07 
-1.36372 -5.21491 1.40975e-06 
-1.1654 -5.17107 1.68701e-07 
-0.925691 -5.21441 4.50136e-07 
-0.689805 -5.20612 1.19006e-06 
-0.476854 -5.21729 1.84868e-06 
-0.260619 -5.23161 2.38314e-06 
-0.0446514 -5.21063 1.86953e-06 
0.166253 -5.21171 1.00395e-06 
0.370697 -5.21499 1.24996e-07 
0.60072 -5.22699 -5.90343e-07 
0.807393 -5.20578 -8.86879e-07 
1.01215 -5.22348 -1.16385e-06 
1.24206 -5.2192 -7.37286e-07 
1.43459 -5.16387 -3.21781e-07 
1.66786 -5.18046 -1.21278e-06 
1.88785 -5.17493 -2.35322e-06 
2.10539 -5.14808 -2.25253e-06 
2.29001 -5.09092 -3.41511e-06 
2.42678 -5.1935 -4.90216e-06 
2.66176 -5.20485 -7.90709e-06 
2.8718 -5.11267 -1.00529e-05 
3.09615 -5.16811 -1.02619e-05 
3.31303 -5.06724 -9.08592e-07 
3.51647 -5.13124 -1.0456e-07 
3.73159 -5.18493 -5.07051e-05 
3.92399 -5.05946 7.21499e-06 
4.17402 -5.15573 3.20733e-05 
4.41062 -5.24447 -2.93497e-06 
4.63952 -5.33595 -6.17251e-05 
4.86814 -5.12726 9.0018e-05 
-5.00372 -4.99607 5.50733e-06 
-4.76501 -4.9679 1.16502e-05 
-4.51156 -4.89645 -2.41386e-05 
-4.25477 -4.8259 -1.02204e-05 
-4.05917 -4.97617 -1.38878e-05 
-3.85933 -4.89497 4.99012e-06 
-3.66289 -4.86402 5.03301e-06 
-3.4471 -4.93309 9.45149e-06 
-3.24181 -4.88347 9.64576e-06 
-3.05355 -4.9724 3.65476e-06 
-2.87155 -4.88957 3.44804e-06 
-2.65523 -4.94007 3.56975e-06 
-2.45171 -4.95807 1.93067e-06 
-2.21356 -4.95814 -2.19123e-07 
-1.99695 -4.97977 -8.09883e-07 
[...]
POINT_DATA 3402 
VECTORS vectors float
0.184197 -0.0403189 0.981031 
0.171108 -0.0327447 0.983013 
0.190022 -0.0344618 0.980994 
0.19492 -0.0293322 0.978489 
0.194942 -0.0181264 0.979731 
0.184136 -0.0152631 0.981958 
0.183136 -0.00498259 0.982157 
0.214519 -0.00674578 0.975693 
0.183758 0.00213351 0.982117 
0.180815 0.0103289 0.982663 
0.186201 0.0106584 0.981634 
0.18884 0.020278 0.980939 
0.1888 0.0215874 0.980938 
0.17857 0.0283389 0.98276 
0.159325 0.0288994 0.98622 
0.135592 0.0323465 0.989661 
0.147501 -0.0487248 0.987352 
0.149232 -0.0489645 0.986913 
0.181753 -0.0494008 0.981252 
0.2078 -0.0503019 0.975902 
-0.0192889 0.00510793 1.00145 
-0.00509142 0.000625926 1.00208 
-0.0170361 0.00052671 1.00078 
0.0067654 -0.00028871 1.00258 
-0.0287949 0.00239331 1.00107 
-0.00631589 -0.000183787 1.00144 
-0.0270292 0.000399709 1.00089 
-0.0291592 0.000168177 1.00106 
0.00141064 0.00204684 1.00164 
-0.0270903 -0.00177539 1.00085 
-0.0100991 -0.00163581 1.00143 
-0.0282405 -0.00324292 1.00098 
-0.00592566 -0.000227305 1.00161 
-0.023282 -0.00301958 1.00105 
0.0021211 0.00109897 1.00146 
-0.00121892 -0.00146572 1.00171 
0.186912 0.0487609 0.980507 
0.15676 0.0456765 0.986043 
0.11664 0.0406168 0.991769 
0.142669 -0.058915 0.987569 
0.150748 -0.060046 0.986229 
0.00602765 -0.000884747 1.00175 
-0.00511705 0.00163097 1.0015 
-0.000906683 -0.00154447 1.00156 
-0.0307252 0.00844166 1.00094 
0.0304926 -0.00921161 0.998564 
0.0425056 -0.00679589 0.998045 
0.0238204 -0.00411964 0.999039 
0.0486217 -0.00791625 0.998232 
0.0446712 -0.00670494 0.998073 
0.0421625 -0.00497623 0.998221 
0.0562166 -0.000843923 0.997437 
0.0541043 -0.000221324 0.997657 
0.0499622 0.00116301 0.997918 
0.0480176 0.00242469 0.998004 
0.0563871 0.00483303 0.997548 
0.0364857 0.00432491 0.998471 
0.0497303 0.00739626 0.99795 
0.030371 0.00496551 0.998521 
0.0255439 0.00456922 0.999107 
0.0248562 0.0082128 0.998819 
-0.0280159 -0.00785185 1.00113 
0.00864146 0.00405732 1.00141 
-0.00051247 -0.00196992 1.00148 
0.169473 0.0619488 0.983013 
0.168491 0.062682 0.983167 
0.11637 0.0490215 0.991537 
0.126529 -0.0619071 0.989721 
0.13288 -0.0625139 0.988774 
0.00869454 -0.00422879 1.00175 
-0.00837298 0.00352921 1.00167 
0.0175551 -0.00599494 0.999098 
0.00868943 -0.0021246 0.999314 
0.0392618 -0.0102022 0.998193 
0.0452158 -0.0105202 0.998079 
0.135176 -0.0345127 0.989891 
0.131001 -0.0282706 0.990712 
0.140908 -0.0242693 0.989347 
0.132425 -0.0191305 0.990645 
0.145066 -0.0156481 0.989473 
0.138309 -0.0107563 0.989807 
0.138815 -0.00553145 0.990882 
0.14087 -0.000570876 0.99021 
0.137822 0.00317143 0.990081 
0.14148 0.00749958 0.990367 
0.134752 0.0120051 0.990625 
0.143122 0.0171236 0.989466 
0.135518 0.0207191 0.990171 
0.14088 0.0271102 0.989573 
0.126703 0.0278955 0.990814 
0.130169 0.0341928 0.990472 
0.0437446 0.0122155 0.997867 
0.0214531 0.00645089 0.999228 
0.0194555 0.00734076 0.998969 
-0.0227508 -0.00920993 1.0015 
0.0070811 0.00559662 1.00173 
0.0152869 0.00865076 1.0014 
0.11091 0.052774 0.99211 
0.124284 0.0680648 0.989668 
0.113796 -0.0670655 0.990969 
0.115847 -0.0646797 0.990889 
0.010174 -0.00552588 1.00168 
-0.00226243 0.000594184 1.00173 
0.00583064 -0.00301459 0.999331 
0.0181854 -0.00713272 0.999094 
0.116363 -0.0469268 0.991398 
0.12882 -0.0463905 0.989898 
0.126195 -0.0416894 0.990706 
0.137711 -0.0397298 0.989535 
0.11553 -0.030335 0.99441 
0.114922 -0.0257769 0.994513 
0.109362 -0.0204621 0.995481 
0.11449 -0.0165513 0.994561 
0.0974255 -0.010224 0.997138 
0.10783 -0.00793381 0.99606 
0.0973574 -0.00408462 0.99677 
0.0952137 -0.00105272 0.997247 
0.100617 0.00224439 0.996587 
0.0952745 0.0053959 0.997231 
0.106838 0.00959432 0.995908 
0.100864 0.0124449 0.996785 
0.114399 0.0182519 0.994576 
0.107239 0.0214834 0.995583 
0.122578 0.0284912 0.993456 
0.113859 0.031045 0.994537 
0.138236 0.0429178 0.989496 
0.116735 0.0399185 0.991628 
0.124219 0.0467192 0.990538 
0.0319997 0.0119425 0.998223 
0.0120023 0.00548926 0.999665 
-0.00358686 -0.00230884 0.999454 
0.00488178 0.00158787 1.00164 
0.00294877 0.0009033 1.0018 
0.113083 0.0649266 0.991177 
0.111549 -0.0725333 0.990892 
0.00945347 -0.00597393 1.00175 
0.00180508 -0.00122164 1.00172 
-0.0017268 0.000837864 0.999416 
0.0111921 -0.00571395 0.999265 
0.107671 -0.0538978 0.991837 
0.11857 -0.0540783 0.99067 
0.123578 -0.0526762 0.992167 
0.118675 -0.045391 0.993244 
0.115644 -0.0397086 0.993958 
0.107485 -0.0331235 0.995248 
0.0624253 -0.0172256 0.999608 
0.0602707 -0.0138924 0.999751 
0.0424862 -0.00826917 1.00071 
0.0581785 -0.00875196 1.00006 
0.0388363 -0.00455502 1.00069 
0.0435198 -0.00350784 1.00036 
0.0392693 -0.00208096 1.00076 
0.0372423 -0.000857127 1.00082 
0.0426769 0.000985622 1.00089 
0.040142 0.00242454 1.00041 
0.0426599 0.00399323 1.00062 
0.0419348 0.00540516 1.00069 
0.0519308 0.00876991 1.00057 
0.0518465 0.0109513 1.00028 
0.0598511 0.014582 0.999779 
0.064106 0.0185977 0.999444 
0.104977 0.0336329 0.995455 
0.121232 0.0427917 0.993062 
0.116934 0.0461527 0.993479 
0.132109 0.0561638 0.989443 
0.104771 0.0483022 0.992224 
0.104258 0.0523011 0.99211 
0.00827081 0.00391428 0.999317 
-0.00524308 -0.00335583 0.999388 
0.0117382 0.0071674 1.00187 
0.11887 0.0741277 0.989959 
0.111834 0.0710493 0.991031 
0.0992838 -0.0741209 0.992143 
0.107161 -0.0722732 0.991418 
0.00473069 -0.00341944 1.00188 
-0.00799626 0.0050996 0.999456 
0.00678803 -0.00394938 0.999338 
0.101227 -0.0598631 0.992096 
0.109804 -0.0601151 0.991189 
0.124568 -0.0646689 0.99119 
0.113577 -0.0540235 0.99331 
0.0698841 -0.0313026 0.998868 
0.0667408 -0.0266574 0.99919 
0.0593084 -0.0211592 0.99954 
0.0481129 -0.0155341 1.00063 
0.0196338 -0.00582815 1.00095 
0.0229343 -0.00578174 1.00076 
0.01397 -0.00299861 1.00109 
0.0162203 -0.00267842 1.00102 
0.00950422 -0.00138085 1.00084 
0.011422 -0.00103866 1.00106 
0.00888626 -0.000540121 1.0009 
0.00944492 -0.000229087 1.00091 
0.010445 0.000526176 1.00091 
0.0108396 0.000793516 1.00089 
0.00937189 0.00129651 1.00092 
0.0137727 0.00216055 1.00094 
0.0161529 0.00337142 1.00097 
0.0168646 0.00389851 1.00095 
0.023187 0.00640844 1.00089 
0.0212013 0.00646576 1.00079 
0.0502587 0.016852 1.00053 
0.0645125 0.0240437 0.999146 
0.0629654 0.0259019 0.999399 
0.109125 0.047859 0.994306 
0.118587 0.0566694 0.992356 
0.126727 0.0673382 0.990558 
0.104741 0.0590309 0.991624 
0.096261 0.0590381 0.992463 
-0.0049103 -0.00327949 0.999404 
-0.00391962 -0.00172805 1.00186 
0.0147361 0.0119031 1.00148 
0.0817121 0.06179 0.994451 
0.097979 -0.0770137 0.992164 
0.0102654 -0.00787539 1.00189 
0.0154311 -0.0114143 1.00177 
-0.00578791 0.00483087 0.999481 
0.0845918 -0.0584928 0.993527 
0.101332 -0.0651429 0.991867 
0.119037 -0.0732032 0.991007 
0.111102 -0.0630777 0.992944 
0.0717888 -0.0386666 0.998439 
0.0657623 -0.0327476 0.999093 
0.0299836 -0.0138473 1.00067 
0.0231494 -0.00975998 1.001 
0.0210987 -0.00804459 1.0012 
0.0125353 -0.00433428 1.00093 
0.00374232 -0.00135141 1.00071 
0.00452672 -0.00121252 1.00076 
0.00150032 -0.000386546 1.00063 
0.003174 -0.00053516 1.00069 
0.000890016 -0.000204142 1.00051 
0.00130474 -0.000295049 1.00064 
0.00106335 -0.000107444 1.00063 
0.000918074 -9.00111e-05 1.00064 
0.000928134 1.59421e-05 1.00064 
0.00115562 0.000178681 1.00064 
0.000996045 0.000246468 1.00063 
0.00155463 0.000382357 1.00065 
0.00225809 0.000530383 1.00067 
0.0031861 0.000828176 1.00068 
0.00424377 0.00122824 1.00071 
0.00437481 0.00142842 1.00075 
0.0107874 0.00391527 1.00101 
0.0203154 0.00801105 1.00105 
0.0222101 0.00949706 1.00088 
0.050325 0.0231085 1.00043 
0.0777978 0.0388854 0.997747 
0.0804213 0.0444567 0.997574 
0.116912 0.0687349 0.991715 
0.116489 0.0738894 0.991261 
0.0929147 0.0613463 0.992625 
0.00668161 0.00476645 0.999318 
-0.0164984 -0.0119855 0.999367 
0.0152666 0.0101985 1.00147 
0.0889847 0.0774432 0.992775 
0.0877895 -0.0750294 0.993278 
0.0157072 -0.0135014 1.00178 
-0.0125382 0.0121593 0.999583 
-0.0140632 0.011263 0.999455 
0.0859097 -0.0644233 0.993058 
0.115527 -0.0832316 0.990375 
0.111151 -0.0749458 0.99168 
0.0858531 -0.0550983 0.996624 
0.0649145 -0.0385172 0.998937 
0.029879 -0.0169377 1.00078 
0.0228276 -0.0117151 1.00113 
0.00821614 -0.00379095 1.00084 
0.00470902 -0.00199285 1.00076 
0.00365221 -0.00145481 1.00071 
0.00169578 -0.000863766 1.00055 
-2.42059e-05 -0.000212756 1.00058 
0.000183489 -0.000155225 1.00057 
-0.000359674 3.27409e-05 1.00058 
-0.000176803 -4.94009e-05 1.00057 
-0.000277029 -5.9717e-05 1.00068 
-0.000262421 3.59229e-05 1.00059 
-0.000186008 -6.98424e-06 1.00059 
-0.000261711 4.79671e-06 1.0006 
-0.000285333 4.45037e-05 1.0006 
-0.000300909 0.000115618 1.00059 
-0.000332652 0.000108026 1.00057 
-0.000260043 -2.19453e-05 1.00057 
-0.000138553 7.43893e-05 1.00056 
1.52235e-05 4.11088e-05 1.00057 
5.8555e-05 0.000179647 1.00056 
0.000497518 0.000437048 1.00059 
0.001808 0.000814393 1.00052 
0.00474817 0.00206798 1.00075 
0.00444534 0.00213372 1.0007 
0.0172838 0.0082775 1.00091 
0.0327715 0.0170211 1.00084 
0.035339 0.0200544 1.00062 
0.0714111 0.0434206 0.998256 
0.0802834 0.0528401 0.99713 
0.115904 0.0797373 0.990839 
0.0929718 0.0679174 0.992121 
0.0799336 0.061604 0.993646 
-0.009374 -0.00881506 0.99945 
0.0104572 0.00603007 1.00199 
0.121085 0.106499 0.986636 
0.111515 0.0933289 0.989213 
0.0839656 -0.08276 0.993131 
0.0155565 -0.0155316 1.00177 
-0.0168034 0.0158126 0.999572 
0.0647846 -0.0559062 0.994885 
0.070281 -0.0567108 0.994548 
0.111967 -0.088671 0.990161 
0.0877397 -0.0663779 0.995656 
0.0654996 -0.0461294 0.998564 
0.0333186 -0.0225771 1.00069 
0.0304647 -0.0190942 1.00083 
0.0100697 -0.00605936 1.00074 
0.00631464 -0.00370348 1.00081 
0.00251193 -0.00124078 1.0007 
0.000718078 -0.000241996 1.00057 
0.000274412 -0.000313151 1.00056 
-8.5323e-05 -0.000123702 1.00068 
-0.000502609 -3.95371e-05 1.00061 
-0.000455042 6.96267e-05 1.0006 
-0.000456215 5.35498e-05 1.00063 
-0.00050582 -9.6097e-05 1.00062 
-0.000438175 -3.24715e-05 1.00053 
-0.000451067 -2.886e-05 1.00063 
-0.000364128 -0.000107823 1.00062 
-0.000342224 1.63197e-05 1.00062 
-0.000317956 2.82678e-05 1.00062 
-0.000304555 0.000100626 1.00072 
-0.000291959 0.000131699 1.00052 
-0.000258613 -5.56141e-05 1.00061 
-0.000260953 3.58945e-05 1.00071 
-0.000358945 5.39822e-05 1.0005 
-0.00032445 -8.94944e-05 1.0006 
-0.000279429 3.40476e-05 1.00057 
-2.42688e-05 1.68816e-05 1.00055 
0.000407478 0.00019575 1.00065 
0.000440447 0.000297028 1.00047 
0.00294014 0.00155279 1.00076 
0.0104215 0.00564484 1.0009 
0.0119946 0.00694318 1.00085 
0.0330475 0.0205225 1.00069 
0.034031 0.0229565 1.00065 
0.0758941 0.0538529 0.99745 
0.111098 0.0830693 0.99117 
0.110826 0.0886477 0.990596 
0.0829519 0.0684682 0.992956 
0.000107171 0.000491183 0.999445 
-0.00720761 -0.00413694 1.0021 
0.0118063 0.014838 1.00141 
0.0595675 0.0560754 0.996192 
0.072125 -0.0847591 0.993781 
0.0151077 -0.0159782 1.00172 
-0.0160297 0.015195 0.999688 
0.0544329 -0.0522623 0.99579 
0.103944 -0.0946268 0.990422 
0.108111 -0.0914286 0.990245 
0.0746279 -0.0616351 0.997009 
0.0397091 -0.0316272 1.00026 
0.0311577 -0.0233322 1.00075 
0.0118403 -0.00873542 1.00074 
0.00706293 -0.004963 1.00099 
0.00160847 -0.00112891 1.00063 
0.000642371 -0.000425645 1.00057 
9.92916e-05 4.79673e-06 1.00055 
-6.20918e-05 4.91469e-05 1.00056 
-0.000224115 6.15326e-05 1.00069 
-0.000206455 4.01657e-05 1.00052 
-0.000211197 -6.88992e-05 1.0006 
-0.000236685 9.2034e-05 1.00063 
-0.00024199 4.01465e-05 1.00059 
-0.000178412 -4.14201e-05 1.00062 
-0.000295709 -8.19947e-05 1.00059 
-0.000223694 -7.1118e-05 1.0006 
-0.000346613 -1.5403e-05 1.0006 
-0.000323539 -5.39237e-05 1.0006 
-0.000258065 -3.06714e-06 1.0006 
-0.000194085 4.91121e-05 1.00059 
-0.000132766 8.93733e-05 1.00061 
-0.000119785 1.78207e-05 1.00061 
-0.000282724 6.28494e-05 1.00051 
-0.000151765 6.65845e-05 1.00071 
-0.000258829 2.97564e-05 1.00071 
-0.000321485 4.87784e-07 1.0006 
-0.000291495 -0.0002823 1.00049 
-0.000206566 8.49843e-05 1.00068 
-9.79381e-05 -3.75637e-06 1.00057 
0.000191927 0.000259548 1.00047 
0.00217664 0.0012499 1.00063 
0.00198805 0.00108669 1.00062 
0.00936074 0.00596597 1.00087 
0.00977983 0.0067688 1.00076 
0.0317126 0.0229929 1.00068 
0.0647802 0.0500533 0.99841 
0.0707438 0.0585782 0.997528 
0.104279 0.0900545 0.991342 
0.0860804 0.0787611 0.992234 
7.53583e-05 0.00144086 0.999114 
-0.0155236 -0.0150678 0.999758 
0.0207983 0.020231 1.00105 
0.072463 0.088843 0.993241 
0.0706729 -0.0925342 0.993044 
0.0150558 -0.0163326 1.00161 
-0.0161016 0.0170856 0.999618 
0.0466891 -0.0497716 0.996195 
0.101311 -0.102434 0.989502 
0.0869209 -0.0839084 0.99382 
0.0803452 -0.0711899 0.995589 
0.0348586 -0.030212 1.00068 
0.0141829 -0.0119482 1.00071 
0.00837251 -0.00675434 1.001 
0.00219443 -0.00187229 1.00064 
0.000616587 -0.000692284 1.00058 
-0.000132876 -0.000126828 1.00055 
-0.000212152 2.08939e-05 1.00058 
-0.00019227 0.000106099 1.00062 
-0.000168678 0.000134966 1.00062 
-0.000146217 -4.63104e-05 1.00051 
-7.66424e-05 3.45232e-05 1.00069 
-0.000117008 1.69701e-05 1.00047 
-0.000118102 5.74041e-05 1.00065 
-4.79411e-05 6.61072e-06 1.00045 
-0.000113927 -1.63069e-05 1.00064 
-0.000152841 -3.13746e-06 1.00054 
-0.000192479 -8.80285e-05 1.00055 
-0.000199956 1.17526e-05 1.00055 
-0.000161161 -8.9616e-05 1.00055 
-0.000146501 -4.63009e-05 1.00056 
-0.00012233 -1.74738e-05 1.00047 
-7.20987e-05 2.13598e-05 1.00066 
3.57689e-05 0.000116886 1.00057 
8.64919e-06 0.00017093 1.00057 
-0.000231166 1.46557e-05 1.00048 
-0.000149657 3.28024e-05 1.00056 
-0.000134144 1.60641e-05 1.0006 
-0.000212831 -0.000179465 1.00062 
-0.000232419 -7.3272e-05 1.00062 
-0.000294673 -4.71734e-05 1.00053 
-0.000163181 -0.000136019 1.00069 
0.000136159 1.98755e-05 1.00055 
2.96483e-05 -4.9462e-05 1.00056 
0.0018569 0.0011767 1.00073 
0.00784322 0.00576376 1.00083 
0.0230017 0.018111 1.0011 
0.0292756 0.0249851 1.00051 
0.0614581 0.0547487 0.998354 
0.095006 0.0890954 0.992678 
0.0962202 0.0948216 0.990321 
0.0655988 0.0671544 0.993938 
-0.00579769 -0.00888963 0.999597 
0.00645406 0.00354931 1.00198 
0.0985831 0.121988 0.987417 
0.0826158 -0.111726 0.990183 
0.0100297 -0.011894 1.00191 
-0.0120592 0.0135684 0.999526 
0.0554893 -0.0634056 0.994991 
0.0971589 -0.105547 0.989763 
0.0785856 -0.0819616 0.995125 
0.0411372 -0.0409469 0.99997 
0.0508445 -0.0475788 0.999242 
0.0181773 -0.0170551 1.00093 
0.00825486 -0.00732054 1.00084 
0.00264201 -0.00239416 1.00065 
0.000953797 -0.000869293 1.00058 
-4.90016e-07 -0.000151726 1.00055 
-0.000219807 -2.49329e-05 1.00058 
-0.00025937 4.0425e-06 1.00062 
-0.000241306 2.24625e-05 1.00063 
-0.000184145 1.17251e-05 1.00061 
-8.27266e-05 5.69422e-05 1.00058 
-0.000125727 -9.41157e-05 1.00057 
-8.00035e-05 7.80917e-05 1.00056 
-2.92984e-05 -8.76475e-05 1.00054 
2.26091e-05 9.25723e-05 1.00053 
1.00303e-05 -6.51809e-05 1.00053 
3.66671e-06 0.00012182 1.00053 
-1.51421e-05 -5.9903e-05 1.00053 
-6.71715e-05 -8.15085e-06 1.00053 
3.15082e-06 -8.62919e-05 1.00054 
-4.79438e-05 -2.6579e-05 1.00053 
-0.00010059 -1.08971e-05 1.00054 
-0.000105957 -4.37998e-05 1.00055 
-0.000166684 -1.85152e-05 1.00054 
-6.59647e-05 0.000104182 1.00063 
1.27023e-05 0.00018744 1.00054 
-2.90423e-05 5.31538e-05 1.00054 
-6.02004e-05 -4.04378e-05 1.00055 
-9.18127e-05 -5.65332e-05 1.00058 
-0.000231376 -8.41762e-06 1.00059 
-0.000209493 -6.99485e-05 1.00062 
-0.000138834 -0.000215778 1.00061 
-0.000182103 -6.14021e-05 1.0006 
-7.48703e-05 -0.000109024 1.00051 
-4.08377e-05 -9.77246e-05 1.00064 
0.00103796 0.00094615 1.0005 
0.00326415 0.00258996 1.00071 
0.0075892 0.0066643 1.00084 
0.0211593 0.0192548 1.00086 
0.0487499 0.0464497 0.999369 
0.0860415 0.0869157 0.993958 
0.101019 0.106848 0.989602 
0.0689345 0.0740825 0.993706 
0.00283614 0.00245258 0.999467 
0.00335507 0.00608544 1.00214 
0.0841419 0.102947 0.990914 
0.075657 -0.1064 0.991249 
0.00500794 -0.00745434 1.00204 
-0.00813815 0.00908849 0.999554 
0.0625759 -0.076963 0.993872 
0.0934135 -0.108784 0.99022 
0.0683389 -0.0766691 0.996111 
0.0329385 -0.0351805 1.00061 
0.0135636 -0.0135705 1.00088 
0.00371091 -0.00368762 1.00071 
0.00128401 -0.0012516 1.00058 
0.000199871 -0.000203644 1.00053 
-7.95679e-05 2.15361e-05 1.00057 
-0.000164015 4.06117e-05 1.00062 
-0.00017744 5.73067e-06 1.00063 
-0.000161327 -2.90673e-06 1.0006 
-0.00016603 -1.09416e-05 1.00057 
-0.000171642 -3.66265e-06 1.00055 
-0.000175532 1.29739e-06 1.00054 
-0.000157987 -5.45603e-05 1.00054 
-0.000107719 -5.4274e-05 1.00053 
-3.81498e-05 -5.18761e-05 1.00053 
-1.00772e-05 1.38964e-05 1.00054 
-1.57247e-05 4.28117e-05 1.00055 
1.72575e-05 -2.73284e-07 1.00058 
7.0215e-05 -2.33262e-05 1.00059 
7.81058e-05 -7.29714e-05 1.00062 
4.87147e-05 -1.65358e-05 1.00062 
7.89004e-06 3.20116e-05 1.00059 
1.72557e-05 -3.97107e-05 1.0006 
-1.02527e-05 0.000113997 1.00056 
-0.000164752 -2.8796e-05 1.00044 
-9.30371e-05 2.19943e-05 1.00053 
-0.000110902 0.00018802 1.00053 
-3.08461e-05 3.83223e-05 1.00053 
-2.34214e-05 -3.14506e-06 1.00054 
-2.37647e-05 1.99471e-05 1.00055 
2.19919e-05 1.39393e-07 1.00055 
1.87388e-06 -5.5039e-05 1.00057 
-6.9782e-05 -0.000122353 1.00057 
-0.000106437 -0.000129286 1.00072 
-8.37414e-05 -9.41804e-05 1.00062 
-0.000166929 5.85622e-05 1.0005 
0.000154173 0.000143437 1.00055 
0.000471971 0.000525983 1.00065 
0.00355141 0.0032792 1.00062 
0.00917575 0.00892757 1.00105 
0.031423 0.0315957 1.00029 
0.0491443 0.0521192 0.999396 
0.0754733 0.0840048 0.994686 
0.0931157 0.109354 0.990241 
0.0657617 0.0813489 0.993387 
-0.00638041 -0.00578226 0.999521 
0.00913518 0.0148959 1.00163 
0.0636626 0.0867967 0.99393 
0.0654705 -0.101492 0.992411 
0.00821647 -0.0126374 1.00171 
-0.00769743 0.0100493 0.999443 
0.0592806 -0.0789631 0.993774 
0.0880337 -0.112424 0.990174 
0.0722071 -0.0875778 0.994902 
0.0397557 -0.0461031 1.00004 
0.0142709 -0.0156954 1.00075 
0.00921287 -0.00970349 1.00082 
0.00187253 -0.00185624 1.00064 
0.000320125 -0.000378789 1.00053 
-4.98308e-05 -1.17765e-05 1.00054 
-0.000124068 7.18587e-05 1.0006 
-0.000101882 5.5056e-05 1.00063 
-5.41342e-05 -2.10718e-06 1.0006 
-5.38449e-05 -6.28066e-06 1.00057 
-4.89423e-05 1.91539e-05 1.00055 
-9.44524e-05 5.59263e-06 1.00053 
-0.000121056 1.60266e-05 1.00053 
-0.000121633 -2.98127e-05 1.00052 
-0.000135959 -8.67593e-05 1.00054 
-0.000114513 -0.000106679 1.00055 
-0.000145514 -1.53512e-05 1.0006 
-2.32091e-05 -6.41962e-05 1.00063 
6.86775e-05 2.82033e-05 1.00068 
-2.17405e-05 -5.68412e-05 1.0007 
-0.00020197 -4.71733e-05 1.00076 
-0.000400452 -9.52678e-06 1.0008 
-0.000244575 1.88752e-05 1.00077 
-5.05995e-05 3.97863e-05 1.00072 
-5.0428e-05 -3.89437e-05 1.00082 
9.55173e-05 0.000108801 1.00058 
-3.12635e-06 9.95806e-05 1.00065 
-2.30854e-05 8.5666e-05 1.00055 
-8.41532e-06 3.77238e-05 1.00055 
-3.06081e-05 -1.28328e-05 1.00052 
-3.34687e-06 -1.44097e-05 1.00054 
2.16542e-05 -2.30044e-05 1.00053 
2.24324e-05 -3.99216e-05 1.00054 
3.82673e-05 -3.39176e-07 1.00055 
-0.000101408 -8.86832e-05 1.00049 
-0.000277527 -8.04116e-05 1.0006 
-0.000238393 -0.000114717 1.00072 
-0.000125592 -6.05879e-05 1.00058 
-0.000132791 -1.06643e-05 1.00056 
0.00100592 0.000967879 1.00059 
0.00197922 0.00207539 1.00067 
0.0108854 0.01137 1.00099 
0.0205089 0.0228004 1.00065 
0.0417738 0.0491556 0.99985 
0.0715113 0.0881134 0.994964 
0.0876237 0.113531 0.990205 
0.0613518 0.0830666 0.993475 
-0.00989653 -0.0132872 0.999413 
0.00719027 0.0100836 1.00142 
0.0648866 0.104495 0.992178 
0.0681485 -0.114894 0.990812 
0.00592639 -0.00832091 1.00171 
-0.003676 0.00512994 0.999454 
0.0611049 -0.0879872 0.992964 
0.0835191 -0.115332 0.990435 
0.0572658 -0.0758929 0.997206 
0.0345424 -0.0432659 1.00008 
0.0129587 -0.0153772 1.00091 
0.00352436 -0.00368884 1.00072 
0.00151745 -0.00141756 1.00059 
0.000112702 -7.18474e-05 1.00054 
-0.000112141 5.67059e-05 1.00058 
-0.000117186 5.24685e-05 1.00062 
-5.68709e-05 7.47348e-06 1.00061 
-6.22811e-06 -2.32433e-05 1.00058 
2.21025e-05 -2.1851e-05 1.00054 
1.50712e-05 2.66654e-05 1.00054 
-2.73826e-05 5.61276e-05 1.00053 
-4.97392e-05 3.08797e-05 1.00052 