# vtk DataFile Version 3.0 
Exported using Morpho https://github.com/Morpho-lang/morpho 
ASCII 
DATASET UNSTRUCTURED_GRID 

POINTS 3402 float 
-1.60098 -6.88744 5.46509e-11 
-1.365 -6.93807 -1.52112e-10 
-1.17303 -6.97309 2.46021e-10 
-0.983231 -7.00238 1.49595e-10 
-0.743089 -7.03191 -2.10068e-10 
-0.529542 -7.05121 3.06295e-10 
-0.313326 -7.06412 -3.17448e-10 
-0.126664 -7.06993 1.65333e-10 
0.086301 -7.07054 3.2837e-10 
0.330617 -7.06333 -3.15751e-10 
0.53245 -7.05099 2.75261e-10 
0.741651 -7.03207 -8.63356e-12 
0.950769 -7.00686 1.61268e-10 
1.17233 -6.97321 -1.16184e-10 
1.3815 -6.9348 5.16468e-10 
1.62038 -6.8829 -2.44447e-10 
-2.41323 -6.64653 -2.13203e-10 
-2.20519 -6.71842 3.51839e-11 
-1.97095 -6.79083 -4.25249e-10 
-1.78299 -6.84258 1.35361e-11 
-1.56166 -6.63112 -3.40932e-11 
-1.36061 -6.69752 4.82144e-12 
-1.14538 -6.71647 1.03114e-10 
-0.916048 -6.7683 -2.42131e-11 
-0.682864 -6.77432 5.96394e-11 
-0.470318 -6.80613 1.71419e-12 
-0.267978 -6.79122 5.24453e-11 
-0.0590438 -6.80848 -3.15865e-11 
0.165354 -6.81643 -1.61378e-11 
0.38376 -6.79037 1.18531e-11 
0.59303 -6.78514 -1.2716e-11 
0.808702 -6.76643 2.31345e-12 
1.02321 -6.74376 -1.26546e-11 
1.23221 -6.7113 -5.40602e-11 
1.44605 -6.67586 -1.00042e-11 
1.66494 -6.62242 3.41873e-11 
1.84817 -6.82527 -2.13982e-10 
2.04575 -6.76867 4.77963e-10 
2.2867 -6.69111 -1.89973e-10 
-2.84635 -6.47289 -2.42528e-10 
-2.63569 -6.56149 -8.07921e-12 
-2.42129 -6.40298 -1.382e-11 
-2.19081 -6.46179 -4.89312e-12 
-1.9895 -6.54013 4.22471e-11 
-1.77654 -6.58174 3.20368e-12 
-1.53864 -6.39513 3.14204e-10 
-1.31816 -6.43666 -3.27923e-10 
-1.10337 -6.46585 -1.98991e-11 
-0.901052 -6.52664 1.41161e-11 
-0.695372 -6.50806 2.04457e-10 
-0.47996 -6.53522 2.18194e-10 
-0.27135 -6.51899 -3.34948e-10 
-0.0671911 -6.53952 2.53824e-11 
0.143376 -6.55263 2.72809e-11 
0.35258 -6.52684 2.82479e-11 
0.563894 -6.51564 2.24308e-11 
0.775303 -6.51208 -1.14411e-11 
0.990486 -6.4852 6.07326e-12 
1.21107 -6.46383 1.42724e-10 
1.43025 -6.42216 1.52946e-10 
1.651 -6.37412 -2.55196e-10 
1.8863 -6.55575 -1.58263e-11 
2.09933 -6.50744 -3.07114e-11 
2.30891 -6.42703 3.8797e-11 
2.4999 -6.61442 -2.25448e-10 
2.68451 -6.54167 3.63964e-10 
2.94351 -6.42929 1.81829e-10 
-3.28906 -6.25956 -2.07163e-10 
-3.07352 -6.36816 4.33097e-11 
-2.84981 -6.21664 2.5962e-12 
-2.62846 -6.29887 -7.37233e-12 
-2.38498 -6.15285 -4.42286e-11 
-2.17602 -6.23158 -1.07758e-10 
-1.94225 -6.27969 -2.47331e-10 
-1.74144 -6.32679 -2.75347e-10 
-1.54785 -6.15353 4.81799e-11 
-1.33201 -6.20208 1.31793e-10 
-1.10835 -6.22332 -1.87538e-10 
-0.894716 -6.26653 1.71099e-10 
-0.694562 -6.2522 -2.19971e-10 
-0.490964 -6.28392 1.70383e-11 
-0.273829 -6.27576 5.54793e-11 
-0.0623718 -6.27821 -9.96475e-11 
0.142224 -6.28945 1.91209e-11 
0.348937 -6.27428 8.24952e-11 
0.557798 -6.26489 -6.11916e-11 
0.764239 -6.26093 2.12093e-11 
0.968305 -6.23877 5.67853e-11 
1.18592 -6.22409 -2.69532e-10 
1.39652 -6.18491 1.30284e-10 
1.618 -6.13558 1.24323e-10 
1.85105 -6.29361 2.12987e-10 
2.05838 -6.25251 6.41487e-11 
2.26331 -6.18028 -4.32449e-11 
2.51319 -6.33891 5.93512e-12 
2.73961 -6.28865 -3.82865e-11 
2.94828 -6.16855 -1.30431e-11 
3.16464 -6.32337 -8.10891e-11 
3.36767 -6.21762 1.47928e-10 
-3.72132 -6.01263 -1.44691e-10 
-3.50751 -6.13982 -5.84253e-11 
-3.28219 -6.00305 -2.89225e-12 
-3.06707 -6.10789 1.15711e-11 
-2.82506 -5.96936 3.06014e-11 
-2.60384 -6.05131 -1.10421e-10 
-2.38243 -5.91371 8.57566e-12 
-2.1678 -5.97967 -1.03854e-10 
-1.96474 -6.04457 3.42407e-10 
-1.74645 -6.06316 -2.97727e-13 
-1.53108 -5.9288 1.42363e-11 
-1.33134 -5.98684 1.30969e-12 
-1.12012 -6.00377 6.33707e-11 
-0.898793 -6.03989 -4.12887e-11 
-0.687259 -6.02161 -1.19556e-10 
-0.485954 -6.05808 -8.49571e-11 
-0.281199 -6.04238 -4.17575e-11 
-0.0716686 -6.04136 4.62087e-11 
0.138788 -6.04691 2.1069e-11 
0.343834 -6.0373 -1.62574e-11 
0.547878 -6.03657 -2.70712e-12 
0.758167 -6.02171 3.16336e-11 
0.978925 -6.02087 7.74302e-11 
1.18124 -5.98484 -8.43025e-11 
1.39831 -5.97509 4.49806e-11 
1.60947 -5.91638 5.94709e-11 
1.82749 -6.04857 -3.30156e-10 
2.03538 -6.00733 -4.69683e-11 
2.25837 -5.94774 1.35115e-10 
2.4785 -6.09765 2.00534e-10 
2.69107 -6.04214 -1.80314e-11 
2.90749 -5.93567 7.53191e-11 
3.16228 -6.0647 1.64942e-11 
3.37411 -5.95781 6.08212e-12 
3.59173 -6.09093 2.12609e-10 
-3.93566 -5.87457 -5.00864e-11 
-3.70413 -5.75948 -7.30792e-13 
-3.49696 -5.88034 2.61464e-12 
-3.25647 -5.75623 1.91881e-11 
-3.03842 -5.85368 -4.42406e-11 
-2.81725 -5.72743 7.53497e-12 
-2.60303 -5.80915 1.422e-10 
-2.39727 -5.69757 -2.90627e-12 
-2.17782 -5.75675 2.16449e-11 
-1.96342 -5.81575 1.56323e-11 
-1.75821 -5.84532 9.47283e-11 
-1.55182 -5.73583 -6.26087e-13 
-1.30913 -5.777 -1.70037e-11 
-1.1025 -5.77478 2.18546e-11 
-0.900821 -5.83712 -1.26129e-11 
-0.702038 -5.79045 9.81359e-12 
-0.50455 -5.83355 -7.12435e-13 
-0.301215 -5.8194 2.48352e-11 
-0.0925462 -5.81652 4.17437e-11 
0.116597 -5.82783 -4.07063e-12 
0.327793 -5.82009 -6.26927e-12 
0.540728 -5.81498 5.42767e-12 
0.744982 -5.80559 -5.41802e-12 
0.963078 -5.80608 -7.05667e-12 
1.18621 -5.77546 -2.43087e-11 
1.39841 -5.77207 -9.19409e-12 
1.6238 -5.7129 -2.57604e-11 
1.82229 -5.82236 -1.04434e-10 
2.04927 -5.79805 1.08212e-10 
2.26684 -5.72847 4.98996e-11 
2.46362 -5.85033 -2.63478e-10 
2.66382 -5.80424 -7.34325e-11 
2.87856 -5.70856 1.22507e-10 
3.12007 -5.82184 8.40607e-11 
3.34468 -5.71545 3.50756e-11 
3.59331 -5.82761 -1.28911e-12 
3.81705 -5.95232 -1.74094e-10 
4.0306 -5.80984 1.30374e-10 
-4.37385 -5.55603 -1.17762e-10 
-4.15491 -5.7216 -2.51986e-10 
-3.92206 -5.62321 2.68819e-12 
-3.67913 -5.51736 2.55723e-11 
-3.45826 -5.62208 -3.98737e-11 
-3.23577 -5.5061 -4.68508e-11 
-3.0349 -5.60511 5.67164e-11 
-2.82314 -5.51192 -2.31902e-11 
-2.60679 -5.58049 1.97867e-11 
-2.40126 -5.49004 4.58719e-11 
-2.18841 -5.55324 -5.10209e-12 
-1.97017 -5.60562 -7.89921e-12 
-1.76006 -5.62418 2.01416e-11 
-1.56896 -5.52204 6.76883e-12 
-1.36809 -5.59164 4.59556e-12 
-1.14477 -5.56935 1.79975e-12 
-0.909115 -5.62352 2.00613e-12 
-0.690687 -5.59227 8.79275e-12 
-0.469065 -5.61892 5.04858e-12 
-0.253901 -5.61055 1.88373e-12 
-0.03868 -5.61085 3.55763e-12 
0.172368 -5.62264 -1.08431e-11 
0.389748 -5.61912 1.23569e-12 
0.595576 -5.59405 -1.21903e-11 
0.813027 -5.61246 -3.30385e-12 
1.03257 -5.60452 -1.911e-11 
1.25401 -5.56682 2.82239e-12 
1.46321 -5.57406 -1.64891e-11 
1.67995 -5.50772 8.32628e-12 
1.85589 -5.61526 1.34726e-11 
2.06078 -5.58665 -3.21408e-11 
2.25509 -5.51454 -4.55934e-12 
2.45975 -5.60778 3.04468e-11 
2.66345 -5.58549 3.92284e-11 
2.89466 -5.50416 -3.21474e-11 
3.10773 -5.59276 -1.48624e-10 
3.31702 -5.47759 -4.10419e-11 
3.55872 -5.58002 -1.83465e-12 
3.80736 -5.68613 -1.66038e-11 
4.01165 -5.55342 -9.46037e-12 
4.23923 -5.65941 1.18916e-10 
-4.58844 -5.38017 -1.7507e-10 
-4.3409 -5.31469 6.80872e-12 
-4.1291 -5.4728 9.33048e-12 
-3.88451 -5.36983 -6.89073e-11 
-3.65826 -5.27585 -3.87102e-11 
-3.45004 -5.37529 2.16841e-11 
-3.23547 -5.29303 -2.45842e-11 
-3.01932 -5.37385 1.61578e-11 
-2.81807 -5.29505 -1.45106e-11 
-2.62561 -5.36932 6.61097e-12 
-2.41734 -5.29465 -5.17186e-12 
-2.19225 -5.34847 1.43214e-11 
-1.98596 -5.39687 9.93608e-12 
-1.78036 -5.40943 5.98809e-13 
-1.54631 -5.34501 4.62481e-12 
-1.31885 -5.40244 1.7911e-12 
-1.11531 -5.35465 6.35658e-13 
-0.943334 -5.43543 -1.87503e-13 
-0.750146 -5.3941 8.04925e-13 
-0.539707 -5.41597 1.56537e-12 
-0.332973 -5.42023 2.19272e-13 
-0.10914 -5.41299 6.3773e-13 
0.106173 -5.4162 3.53243e-13 
0.314598 -5.42528 -7.77686e-13 
0.523107 -5.4017 -6.01559e-13 
0.75109 -5.41202 -1.20474e-12 
0.955202 -5.41766 -4.88834e-13 
1.16704 -5.39527 -1.14755e-12 
1.39956 -5.37806 -2.49324e-13 
1.59034 -5.34394 -1.26887e-12 
1.83714 -5.36602 -4.81176e-12 
2.02022 -5.37829 -1.16478e-11 
2.22715 -5.32366 -1.48492e-11 
2.45682 -5.38917 -6.9248e-12 
2.68298 -5.39598 9.36571e-12 
2.89244 -5.30299 -5.26965e-12 
3.10078 -5.37124 -1.03423e-10 
3.29975 -5.2568 -3.29131e-12 
3.51969 -5.34273 9.98268e-11 
3.76094 -5.42901 3.94813e-11 
3.97881 -5.30895 -2.3213e-11 
4.21434 -5.40336 -9.96462e-13 
4.43621 -5.50636 -8.42854e-11 
-4.79706 -5.19502 -1.5635e-10 
-4.54743 -5.14212 1.42286e-11 
-4.30318 -5.06656 -1.06749e-10 
-4.09596 -5.2252 -1.95233e-11 
-3.86081 -5.12486 1.79235e-11 
-3.64877 -5.05398 -9.96414e-11 
-3.45333 -5.14856 8.18238e-11 
-3.25526 -5.09361 -3.78207e-11 
-3.03083 -5.1635 1.0615e-12 
-2.81733 -5.09913 2.69788e-11 
-2.60376 -5.15224 -4.75299e-12 
-2.36006 -5.12133 -2.53149e-12 
-2.15014 -5.15547 3.6969e-14 
-1.94712 -5.19428 4.51057e-13 
-1.73782 -5.21404 2.71041e-12 
-1.55195 -5.12398 5.67966e-13 
-1.36505 -5.20835 4.53347e-13 
-1.15959 -5.16338 1.34456e-13 
-0.923463 -5.21046 1.79321e-13 
-0.688439 -5.19798 1.03157e-13 
-0.478123 -5.20861 3.1075e-14 
-0.260301 -5.22335 2.78104e-14 
-0.0442417 -5.20402 -5.80684e-15 
0.165569 -5.20503 -6.60544e-14 
0.369188 -5.20846 -1.62265e-13 
0.600273 -5.21664 -2.31348e-13 
0.807899 -5.20127 -6.89099e-14 
1.00935 -5.21546 -2.58817e-13 
1.24069 -5.2132 -1.52491e-13 
1.43229 -5.15931 -5.27961e-13 
1.66916 -5.18361 -2.06966e-12 
1.89663 -5.17188 -1.50771e-12 
2.09775 -5.15777 -6.26905e-13 
2.29094 -5.09193 -9.63289e-13 
2.43619 -5.19809 -8.15466e-12 
2.65885 -5.20614 -7.38635e-12 
2.86998 -5.11367 -4.16105e-12 
3.09219 -5.16113 -1.80291e-11 
3.30656 -5.05796 2.2056e-12 
3.51947 -5.1311 5.64408e-11 
3.73705 -5.19301 -2.3699e-10 
3.93256 -5.07124 6.85354e-11 
4.17215 -5.15021 9.93367e-11 
4.4104 -5.23837 1.0138e-11 
4.64414 -5.33216 -1.91939e-10 
4.85679 -5.13922 2.57125e-10 
-5.00319 -4.9968 2.09048e-11 
-4.75826 -4.95967 -1.28022e-12 
-4.50883 -4.89677 -2.3837e-11 
-4.26349 -4.8309 -5.2659e-11 
-4.06642 -4.98772 -1.8261e-11 
-3.85902 -4.90026 1.65111e-10 
-3.65654 -4.85451 -5.68285e-12 
-3.44268 -4.92569 5.37748e-12 
-3.23959 -4.88277 3.59278e-11 
-3.054 -4.96916 -4.37119e-14 
-2.87339 -4.89654 -2.22807e-12 
-2.6584 -4.94519 6.28795e-12 
-2.45268 -4.95989 -6.08993e-13 
-2.21186 -4.95727 -5.30331e-13 
-1.99463 -4.97943 7.1781e-13 
[...]
POINT_DATA 3402 
VECTORS vectors float
0.00158116 -0.000530309 0.999999 
0.000856718 1.65589e-05 1 
0.0076083 -0.00142625 0.99997 
0.00179201 -0.000556645 0.999998 
0.00135388 0.000359889 0.999999 
0.00353777 -0.000891425 0.999993 
0.00240056 0.00058365 0.999997 
0.00774075 -0.000636669 0.99997 
-0.00090693 1.60473e-05 1 
0.00297261 0.000498344 0.999995 
0.00421009 -0.00025515 0.999991 
0.00295285 0.00084523 0.999995 
0.00257909 -7.99907e-05 0.999997 
0.00230242 0.000737104 0.999997 
0.00399754 0.000540046 0.999992 
-0.00179487 -0.000200184 0.999998 
0.00257566 -0.000407284 0.999997 
0.00126888 -0.000899724 0.999999 
0.00125104 -0.00014781 0.999999 
0.00816347 -0.00205554 0.999965 
-0.0155148 0.00412088 0.999871 
-0.00319555 0.00028155 0.999995 
-0.0123106 1.44533e-05 0.999924 
0.00772589 -0.000648857 0.99997 
-0.0227747 0.00180261 0.999739 
-0.00498257 -0.00029271 0.999988 
-0.0221603 0.000320576 0.999754 
-0.0234919 0.000147106 0.999724 
0.00202505 0.00181891 0.999996 
-0.021489 -0.00138828 0.999768 
-0.00789992 -0.00138629 0.999968 
-0.0228536 -0.00261902 0.999735 
-0.00416408 -2.5076e-05 0.999991 
-0.0184392 -0.0022762 0.999827 
0.00286308 0.00116009 0.999995 
0.000229688 -0.000904976 1 
0.00558817 0.00142218 0.999983 
0.00263963 0.00073359 0.999996 
-0.00163342 -0.00041355 0.999999 
0.00178693 -0.000435572 0.999998 
0.00181401 -0.00121836 0.999998 
0.00681568 -0.00128827 0.999976 
-0.00287689 0.000899042 0.999995 
0.000356141 -0.00165723 0.999999 
-0.0246703 0.00681176 0.999672 
0.0323264 -0.00934181 0.999434 
0.0427454 -0.00715241 0.99906 
0.0278228 -0.00480318 0.999601 
0.0475706 -0.00766487 0.998838 
0.0459893 -0.00676504 0.998919 
0.043478 -0.00485707 0.999043 
0.0562988 -0.0010744 0.998413 
0.0540642 -0.000184617 0.998537 
0.0504802 0.00121049 0.998724 
0.0491508 0.00249996 0.998788 
0.0557364 0.0047621 0.998434 
0.0386316 0.00457711 0.999243 
0.0493702 0.00735839 0.998753 
0.032425 0.00540575 0.99946 
0.0278334 0.00520135 0.999599 
0.0270388 0.00853367 0.999598 
-0.0220273 -0.00615367 0.999738 
0.00831127 0.00374424 0.999958 
0.000838426 -0.00124178 0.999999 
0.00628426 0.00240032 0.999977 
0.0019284 0.000599854 0.999998 
-0.000523704 4.47514e-05 1 
0.00192242 -0.000731551 0.999998 
0.00120701 -0.00092694 0.999999 
0.00880238 -0.00423876 0.999952 
-0.00540106 0.00233926 0.999983 
0.0198444 -0.0068948 0.999779 
0.0123016 -0.00340632 0.999919 
0.0402086 -0.0106582 0.999134 
0.0454718 -0.0107989 0.998907 
0.131144 -0.0334879 0.990798 
0.127768 -0.02753 0.991422 
0.135976 -0.0234901 0.990434 
0.129985 -0.0186993 0.99134 
0.140474 -0.0152297 0.989967 
0.134781 -0.0105243 0.990819 
0.134977 -0.00534321 0.990834 
0.136973 -0.000590296 0.990575 
0.134648 0.00310591 0.990889 
0.137069 0.00729003 0.990535 
0.132258 0.0117774 0.991145 
0.13839 0.0165832 0.990239 
0.132847 0.0203321 0.990928 
0.135832 0.0260422 0.99039 
0.124087 0.0273492 0.991894 
0.126431 0.0332871 0.991417 
0.0437446 0.0123484 0.998966 
0.0240804 0.0073482 0.999683 
0.0220437 0.00821922 0.999723 
-0.0176945 -0.00721804 0.999817 
0.0074209 0.00545325 0.999958 
0.0145595 0.00815739 0.999861 
0.00272895 0.00113686 0.999996 
0.00226205 0.00146003 0.999996 
0.00162374 -0.000811431 0.999998 
0.00112886 -0.000923835 0.999999 
0.0100343 -0.00544723 0.999935 
-0.000316777 -0.000316853 1 
0.0093192 -0.00464754 0.999946 
0.0204815 -0.00820046 0.999757 
0.113465 -0.0457355 0.992489 
0.124808 -0.0449673 0.991161 
0.123171 -0.0405956 0.991555 
0.133936 -0.0386342 0.990237 
0.113655 -0.0298316 0.993072 
0.113361 -0.0254436 0.993228 
0.108265 -0.0202204 0.993916 
0.112451 -0.016279 0.993524 
0.0970737 -0.0102377 0.995225 
0.10627 -0.00785091 0.994306 
0.0965859 -0.00408259 0.995316 
0.0946164 -0.00101477 0.995513 
0.0993541 0.00223313 0.99505 
0.094987 0.00538799 0.995464 
0.105036 0.00941809 0.994424 
0.100121 0.0123675 0.994898 
0.112439 0.0179902 0.993496 
0.106422 0.021264 0.994094 
0.119739 0.0278484 0.992415 
0.112347 0.0306487 0.993196 
0.133609 0.0413624 0.990171 
0.114776 0.0392101 0.992617 
0.120542 0.0454529 0.991667 
0.0327078 0.0123859 0.999388 
0.0147814 0.0066936 0.999868 
0.000977232 -3.2598e-06 1 
0.00589703 0.00221331 0.99998 
0.00381023 0.00143862 0.999992 
0.000357406 4.58823e-05 1 
0.00112961 -0.000975907 0.999999 
0.00924504 -0.00584132 0.99994 
0.00297585 -0.00189028 0.999994 
0.00206836 -0.00129236 0.999997 
0.0137147 -0.00708123 0.999881 
0.104907 -0.0525094 0.993095 
0.115014 -0.0524026 0.991981 
0.120714 -0.0514506 0.991353 
0.116453 -0.0445288 0.992197 
0.113605 -0.0390122 0.99276 
0.106183 -0.0326727 0.99381 
0.0628517 -0.0173475 0.997872 
0.0603759 -0.0139316 0.998078 
0.0437185 -0.0084845 0.999008 
0.0583829 -0.00877845 0.998256 
0.0395104 -0.00462992 0.999208 
0.0444125 -0.00359276 0.999007 
0.0399526 -0.00209475 0.999199 
0.0380811 -0.000831438 0.999274 
0.043139 0.000976956 0.999069 
0.0409147 0.00244447 0.99916 
0.0433874 0.00406268 0.99905 
0.0428662 0.00551961 0.999066 
0.052449 0.0088423 0.998584 
0.0523852 0.0110466 0.998566 
0.0607176 0.014793 0.998045 
0.0639931 0.0185531 0.997778 
0.103756 0.033181 0.994049 
0.118286 0.0418164 0.992099 
0.115096 0.0454533 0.992314 
0.127697 0.0541743 0.990333 
0.102909 0.047359 0.993563 
0.101459 0.0509769 0.993533 
0.0109502 0.00539281 0.999926 
-0.0012088 -0.000980815 0.999999 
0.0110103 0.00671534 0.999917 
0.00144844 0.00116852 0.999998 
0.00160269 0.000881235 0.999998 
0.000830204 -0.000805241 0.999999 
0.00124684 -0.000752079 0.999999 
0.00520298 -0.00371075 0.99998 
-0.00405087 0.00252445 0.999989 
0.00952522 -0.00568875 0.999938 
0.0987279 -0.0583949 0.9934 
0.1067 -0.0583978 0.992575 
0.121177 -0.0629195 0.990635 
0.111511 -0.0530403 0.992347 
0.0701878 -0.0313946 0.99704 
0.0669067 -0.0267279 0.997401 
0.0599137 -0.0213872 0.997974 
0.0487951 -0.0157317 0.998685 
0.0204432 -0.00605651 0.999773 
0.0238029 -0.00599402 0.999699 
0.0146845 -0.00314733 0.999887 
0.0169949 -0.00279578 0.999852 
0.01033 -0.00146038 0.999946 
0.0120694 -0.00108365 0.999927 
0.00964069 -0.000567507 0.999953 
0.0100808 -0.000217872 0.999949 
0.011214 0.000527776 0.999937 
0.0115359 0.000855729 0.999933 
0.0101103 0.00134869 0.999948 
0.0144951 0.00226848 0.999892 
0.0170011 0.00349847 0.999849 
0.0175339 0.00406097 0.999838 
0.0241212 0.00663345 0.999687 
0.0220649 0.00675095 0.999734 
0.0512796 0.0172038 0.998536 
0.0647638 0.0241222 0.997609 
0.0632346 0.0259986 0.99766 
0.107305 0.0470588 0.993112 
0.115888 0.0554139 0.991715 
0.123092 0.0654021 0.990238 
0.101699 0.0572734 0.993165 
0.0937151 0.0574364 0.993941 
-0.00102519 -0.000773124 0.999999 
-0.00202698 -0.000557303 0.999998 
0.0137546 0.0110306 0.999845 
0.000990082 0.000928493 0.999999 
0.0013845 -0.00112569 0.999998 
0.00975058 -0.00745884 0.999925 
0.0142235 -0.0104873 0.999844 
-0.00215521 0.00213038 0.999995 
0.0827485 -0.0572149 0.994927 
0.0983883 -0.0632439 0.993136 
0.115946 -0.0713185 0.990692 
0.108897 -0.06181 0.99213 
0.0717854 -0.0386623 0.99667 
0.0660498 -0.0329013 0.997274 
0.0307823 -0.0142355 0.999425 
0.0241493 -0.0101595 0.999657 
0.0217945 -0.00829394 0.999728 
0.0134545 -0.00464934 0.999899 
0.00429419 -0.00150279 0.99999 
0.0050227 -0.00133542 0.999986 
0.00181659 -0.000451006 0.999998 
0.00357471 -0.000614133 0.999993 
0.0011857 -0.000246808 0.999999 
0.00158337 -0.000311376 0.999999 
0.00135446 -0.000130399 0.999999 
0.00118755 -9.32405e-05 0.999999 
0.00121299 2.61167e-05 0.999999 
0.00146616 0.000193706 0.999999 
0.00126136 0.000273385 0.999999 
0.00189784 0.00042616 0.999998 
0.00267447 0.000609263 0.999996 
0.00359244 0.000913437 0.999993 
0.00471716 0.00135149 0.999988 
0.00490711 0.00159025 0.999987 
0.0114706 0.00414522 0.999926 
0.0210267 0.00825778 0.999745 
0.0231459 0.0098815 0.999683 
0.051077 0.0234377 0.99842 
0.0777325 0.0388737 0.996216 
0.0802283 0.0443331 0.99579 
0.114215 0.0670951 0.991188 
0.113485 0.0719857 0.990928 
0.0906945 0.0599172 0.994075 
0.00912253 0.00651855 0.999937 
-0.0116275 -0.00841216 0.999897 
0.0141578 0.00952142 0.999854 
0.00149293 0.00114561 0.999998 
0.000691971 -0.000692997 1 
0.0143032 -0.0122334 0.999823 
-0.00866933 0.00876414 0.999924 
-0.00963831 0.00785502 0.999923 
0.0835599 -0.0626496 0.994531 
0.112315 -0.0809738 0.990368 
0.108743 -0.0732855 0.991365 
0.0848186 -0.0544415 0.994908 
0.0652239 -0.0387141 0.997119 
0.0307261 -0.0173835 0.999377 
0.0235848 -0.0121112 0.999648 
0.0087788 -0.00406054 0.999953 
0.00524044 -0.00222179 0.999984 
0.00407965 -0.00162598 0.99999 
0.00202162 -0.000958119 0.999997 
8.34534e-05 -0.000242093 1 
0.000346965 -0.000200086 1 
-0.000277129 1.10132e-05 1 
-9.40133e-05 -6.55732e-05 1 
-0.000230953 -6.2649e-05 1 
-0.000211571 2.01662e-05 1 
-0.000144188 -1.16021e-05 1 
-0.000221324 3.95338e-06 1 
-0.000242098 4.59899e-05 1 
-0.000249445 0.00011625 1 
-0.000264134 0.000111641 1 
-0.000195176 -2.44209e-06 1 
-3.5036e-05 9.27075e-05 1 
0.000162457 8.7265e-05 1 
0.000182229 0.000205814 1 
0.000750047 0.000501466 1 
0.0022383 0.000973138 0.999997 
0.00514732 0.00223153 0.999984 
0.00494857 0.00235912 0.999985 
0.018031 0.00862316 0.9998 
0.0336343 0.0174555 0.999282 
0.0361772 0.0205352 0.999134 
0.0714515 0.0434428 0.996498 
0.0797766 0.0525088 0.995429 
0.112764 0.0776048 0.990587 
0.0903851 0.0659465 0.993721 
0.0782338 0.0603076 0.995109 
-0.00541388 -0.00555386 0.99997 
0.00988994 0.00588539 0.999934 
0.000440287 0.000540489 1 
0.00163821 0.00142215 0.999998 
0.00111143 -0.00107067 0.999999 
0.0140949 -0.0140391 0.999802 
-0.0125022 0.011847 0.999852 
0.0636571 -0.0549529 0.996458 
0.0690933 -0.0557157 0.996053 
0.108766 -0.0860589 0.990335 
0.0865694 -0.0654888 0.994091 
0.0657297 -0.0462905 0.996763 
0.034234 -0.0231514 0.999146 
0.0312564 -0.0195829 0.99932 
0.0107136 -0.00645619 0.999922 
0.00685588 -0.00397427 0.999969 
0.00293088 -0.001457 0.999995 
0.000929361 -0.000349895 1 
0.000394797 -0.000343264 1 
5.0452e-06 -0.000157939 1 
-0.000463409 -4.3142e-05 1 
-0.000428811 5.92977e-05 1 
-0.000444532 4.71831e-05 1 
-0.000482043 -8.6014e-05 1 
-0.000430301 -3.62258e-05 1 
-0.000435027 -3.15294e-05 1 
-0.00035894 -9.57298e-05 1 
-0.000337726 1.07136e-05 1 
-0.00031466 2.88486e-05 1 
-0.000299959 9.699e-05 1 
-0.000287167 0.000123904 1 
-0.000254645 -4.31144e-05 1 
-0.000259572 3.47536e-05 1 
-0.00033411 5.07803e-05 1 
-0.000307909 -7.04255e-05 1 
-0.000248072 4.28496e-05 1 
3.96033e-05 4.49638e-05 1 
0.00052751 0.000251147 1 
0.000598183 0.000368564 1 
0.00334493 0.00176245 0.999993 
0.0109911 0.00594236 0.999922 
0.0126501 0.00733741 0.999893 
0.0337089 0.0209582 0.999212 
0.0348314 0.0234891 0.999117 
0.0756373 0.053688 0.995689 
0.108159 0.0808694 0.990839 
0.107696 0.0861331 0.990446 
0.0805463 0.0665581 0.994526 
0.00277161 0.00274408 0.999992 
-0.00513826 -0.00252424 0.999984 
0.0109564 0.0136368 0.999847 
0.000707607 0.000684405 1 
0.00101637 -0.00118659 0.999999 
0.0136478 -0.0144761 0.999802 
-0.0120028 0.0112169 0.999865 
0.0538934 -0.0517285 0.997206 
0.10056 -0.0916479 0.990701 
0.104763 -0.0885916 0.990543 
0.0742464 -0.0612707 0.995356 
0.0404311 -0.0321684 0.998664 
0.0319442 -0.0239103 0.999204 
0.012486 -0.00917284 0.99988 
0.00762105 -0.00531004 0.999957 
0.00191417 -0.00131594 0.999997 
0.000829321 -0.000535087 1 
0.000193195 -4.94469e-05 1 
-3.72909e-05 3.82528e-05 1 
-0.000200074 4.69719e-05 1 
-0.000203567 3.26069e-05 1 
-0.000212692 -5.74114e-05 1 
-0.000242115 8.33046e-05 1 
-0.000237633 3.85854e-05 1 
-0.000190421 -3.88702e-05 1 
-0.000288295 -7.63646e-05 1 
-0.000234566 -6.8439e-05 1 
-0.000336929 -1.94266e-05 1 
-0.000317308 -4.95604e-05 1 
-0.000255308 -3.44244e-06 1 
-0.000194014 4.78312e-05 1 
-0.000138004 8.40432e-05 1 
-0.000124264 2.18771e-05 1 
-0.000263233 6.37579e-05 1 
-0.000166377 6.14702e-05 1 
-0.000256135 2.61861e-05 1 
-0.000310103 -5.36737e-06 1 
-0.000270344 -0.000247979 1 
-0.000182376 7.58432e-05 1 
-4.42308e-05 2.96545e-05 1 
0.000313654 0.000308003 1 
0.00250975 0.00143926 0.999996 
0.00229797 0.00129192 0.999997 
0.00994254 0.006335 0.999931 
0.0103768 0.00718135 0.99992 
0.0324391 0.0235388 0.999196 
0.0647802 0.0500311 0.996645 
0.0705916 0.0584076 0.995794 
0.10141 0.0875764 0.990983 
0.0843531 0.0771956 0.993441 
0.00247025 0.00371589 0.99999 
-0.0111718 -0.0107347 0.99988 
0.0188291 0.0183316 0.999655 
0.00119157 0.00148399 0.999998 
0.000813979 -0.000950495 0.999999 
0.013591 -0.0148296 0.999798 
-0.012118 0.0127533 0.999845 
0.0464487 -0.0494679 0.997695 
0.0978458 -0.0989171 0.990274 
0.0855666 -0.0826214 0.992901 
0.0796458 -0.0705395 0.994324 
0.035679 -0.0309048 0.998885 
0.0147558 -0.0123991 0.999814 
0.00891638 -0.00716047 0.999935 
0.00252968 -0.00210846 0.999995 
0.000819632 -0.000822322 0.999999 
-6.27906e-05 -0.000164928 1 
-0.000176911 2.00078e-06 1 
-0.000182146 9.83691e-05 1 
-0.000165482 0.000122885 1 
-0.000144704 -3.45584e-05 1 
-8.54267e-05 2.89129e-05 1 
-0.000115874 1.56944e-05 1 
-0.000117783 5.34012e-05 1 
-5.40872e-05 8.7693e-06 1 
-0.000112125 -1.52981e-05 1 
-0.000152152 -6.25901e-06 1 
-0.000186689 -8.04979e-05 1 
-0.000198765 4.0073e-06 1 
-0.000161202 -8.33867e-05 1 
-0.000146102 -4.39749e-05 1 
-0.000122574 -1.53879e-05 1 
-7.48913e-05 2.21072e-05 1 
1.97615e-05 0.00010909 1 
-6.50574e-06 0.000160514 1 
-0.000215666 2.4375e-05 1 
-0.000147013 3.34005e-05 1 
-0.000139855 8.85573e-06 1 
-0.00021063 -0.000167809 1 
-0.000230296 -7.05848e-05 1 
-0.000279155 -4.59329e-05 1 
-0.000149181 -0.000119642 1 
0.000196822 6.09254e-05 1 
0.000124089 1.17222e-05 1 
0.00212239 0.00136533 0.999997 
0.00839619 0.00619514 0.999946 
0.0238322 0.018782 0.99954 
0.0298547 0.0254669 0.99923 
0.0616237 0.0548678 0.99659 
0.0928014 0.0871093 0.991867 
0.092786 0.0912888 0.991492 
0.0649475 0.0664372 0.995675 
-0.00247688 -0.0051504 0.999984 
0.00675909 0.00432625 0.999968 
0.000933877 0.00108761 0.999999 
0.000822985 -0.00107076 0.999999 
0.00935857 -0.0111744 0.999894 
-0.00847654 0.00938334 0.99992 
0.0545524 -0.0623153 0.996565 
0.0941615 -0.102293 0.990288 
0.0775617 -0.0808825 0.993701 
0.0417169 -0.0415626 0.998265 
0.0510886 -0.0477778 0.997551 
0.018976 -0.0177821 0.999662 
0.00872625 -0.00774969 0.999932 
0.00294373 -0.00263599 0.999992 
0.00115628 -0.00103274 0.999999 
6.75432e-05 -0.000202769 1 
-0.000194689 -4.09504e-05 1 
-0.000250698 1.23968e-06 1 
-0.000236065 2.23393e-05 1 
-0.000182142 1.53752e-05 1 
-9.11177e-05 4.93195e-05 1 
-0.000123715 -7.98678e-05 1 
-8.31932e-05 6.35508e-05 1 
-3.3327e-05 -7.5436e-05 1 
1.57775e-05 7.95975e-05 1 
5.98975e-06 -5.30297e-05 1 
-1.9487e-06 0.000105565 1 
-1.82005e-05 -5.27346e-05 1 
-6.52072e-05 -1.32687e-05 1 
-3.81898e-06 -8.03598e-05 1 
-4.93862e-05 -2.7549e-05 1 
-9.63702e-05 -1.22306e-05 1 
-0.000103477 -3.74005e-05 1 
-0.000154711 -1.18612e-05 1 
-6.61202e-05 0.00010272 1 
-3.16032e-08 0.000176996 1 
-3.25075e-05 5.36875e-05 1 
-6.20087e-05 -3.54331e-05 1 
-9.57966e-05 -5.51599e-05 1 
-0.000217661 -1.26972e-05 1 
-0.000205234 -7.1975e-05 1 
-0.000138242 -0.000201543 1 
-0.000166355 -6.54437e-05 1 
-7.33254e-05 -0.000104735 1 
2.69883e-05 -3.47781e-05 1 
0.00128054 0.0010984 0.999999 
0.00363224 0.00290076 0.999989 
0.00803545 0.00702376 0.999943 
0.0218166 0.0198676 0.999565 
0.0493411 0.0470357 0.997674 
0.0845141 0.0853646 0.992759 
0.0973773 0.103046 0.989899 
0.0674493 0.0726501 0.995074 
0.00515622 0.00526901 0.999973 
0.00377196 0.00635435 0.999973 
0.000676206 0.000826299 0.999999 
0.000881552 -0.00118906 0.999999 
0.00501716 -0.00741956 0.99996 
-0.00524187 0.00548089 0.999971 
0.0613425 -0.0754628 0.99526 
0.0904242 -0.105349 0.990316 
0.0678954 -0.0761362 0.994783 
0.0336949 -0.0359958 0.998784 
0.0141155 -0.0141109 0.999801 
0.00407408 -0.00402678 0.999984 
0.00148811 -0.00143157 0.999998 
0.00027949 -0.000277389 1 
-5.01466e-05 -5.8307e-06 1 
-0.000156782 3.43335e-05 1 
-0.000174565 5.40361e-06 1 
-0.000160491 -2.37278e-06 1 
-0.00016401 -9.02052e-06 1 
-0.000167713 -1.95095e-06 1 
-0.000170667 -1.11721e-06 1 
-0.000154496 -5.22072e-05 1 
-0.000105809 -5.31031e-05 1 
-4.10164e-05 -4.96736e-05 1 
-1.19318e-05 1.1178e-05 1 
-1.43423e-05 3.75048e-05 1 
1.16819e-05 1.43521e-06 1 
5.12189e-05 -2.45227e-05 1 
3.88005e-05 -6.65403e-05 1 
1.14448e-05 -1.71737e-05 1 
-5.51551e-06 2.68933e-05 1 
5.30603e-06 -3.22209e-05 1 
-1.69963e-05 9.91992e-05 1 
-0.000151948 -1.84981e-05 1 
-9.04077e-05 3.01806e-05 1 
-0.000102664 0.000175895 1 
-3.11785e-05 4.04618e-05 1 
-2.49515e-05 -2.97723e-06 1 
-2.61317e-05 1.54582e-05 1 
1.53695e-05 -2.19635e-06 1 
-7.58229e-06 -5.60416e-05 1 
-6.74115e-05 -0.000118656 1 
-0.000107816 -0.00012682 1 
-9.37371e-05 -9.05845e-05 1 
-0.000150802 4.91388e-05 1 
0.00025792 0.000235196 1 
0.000607775 0.000637551 1 
0.00390268 0.00359854 0.999986 
0.00973773 0.00947214 0.999908 
0.0318156 0.0319937 0.998982 
0.0495592 0.0525338 0.997389 
0.0748804 0.0834043 0.993698 
0.0902634 0.10595 0.990266 
0.0641561 0.0793416 0.994781 
-0.0033893 -0.00208118 0.999992 
0.0085538 0.0138526 0.999867 
0.00102801 0.00139721 0.999998 
0.000784634 -0.00124624 0.999999 
0.00774362 -0.0118933 0.999899 
-0.00470463 0.00589982 0.999972 
0.057906 -0.0771519 0.995336 
0.085389 -0.109059 0.990361 
0.071341 -0.0865614 0.993689 
0.0400831 -0.0465149 0.998113 
0.0148361 -0.016363 0.999756 
0.00964323 -0.0101565 0.999902 
0.00209339 -0.00208649 0.999996 
0.000418614 -0.000471158 1 
-1.11754e-05 -4.67841e-05 1 
-0.000114261 6.25159e-05 1 
-0.000100145 5.14315e-05 1 
-5.62922e-05 -1.04551e-06 1 
-5.59261e-05 -5.13653e-06 1 
-5.11104e-05 1.83601e-05 1 
-9.47048e-05 6.68109e-06 1 
-0.00011855 1.36601e-05 1 
-0.000118623 -2.81984e-05 1 
-0.000134069 -8.35326e-05 1 
-0.000115385 -0.0001004 1 
-0.000145428 -1.67186e-05 1 
-5.71881e-05 -4.88095e-05 1 
-0.000250054 8.45081e-05 1 
-0.000643621 3.77615e-05 1 
-0.00206961 0.000126981 0.999998 
-0.00366109 6.71117e-05 0.999993 
-0.00150038 -1.34765e-05 0.999999 
-0.000543743 -1.02751e-05 1 
-0.00045052 -0.000110122 1 
5.80099e-05 9.65701e-05 1 
-4.77187e-05 8.38596e-05 1 
-2.45071e-05 8.49065e-05 1 
-9.33608e-06 3.74413e-05 1 
-2.85383e-05 -1.04296e-05 1 
-4.91145e-06 -1.42986e-05 1 
1.86697e-05 -2.28857e-05 1 
1.92948e-05 -3.93477e-05 1 
2.6802e-05 -6.84157e-06 1 
-9.93743e-05 -8.36119e-05 1 
-0.000256701 -7.82074e-05 1 
-0.000226374 -0.000106877 1 
-0.000110615 -4.30997e-05 1 
-7.5705e-05 3.1248e-05 1 
0.00118125 0.00114003 0.999999 
0.00226232 0.00235429 0.999995 
0.011385 0.0118933 0.999864 
0.0212557 0.023641 0.999495 
0.0420849 0.0495087 0.997887 
0.0705258 0.0869272 0.993715 
0.0851874 0.1103 0.990241 
0.059903 0.0810419 0.994909 
-0.00661914 -0.00868045 0.99994 
0.00691364 0.00975351 0.999929 
0.000983602 0.00167894 0.999998 
0.000915395 -0.00144877 0.999999 
0.00591533 -0.00843416 0.999947 
-0.00108163 0.00128119 0.999999 
0.059543 -0.0857442 0.994536 
0.0811673 -0.112081 0.990379 
0.057026 -0.0755962 0.995507 
0.0350496 -0.0439311 0.99842 
0.0135615 -0.0161342 0.999778 
0.0038065 -0.00402968 0.999985 
0.00172855 -0.00165598 0.999997 
0.00016916 -0.000130213 1 
-9.59137e-05 4.3481e-05 1 
-0.000113404 4.93576e-05 1 
-5.80839e-05 7.70619e-06 1 
-9.87062e-06 -2.14747e-05 1 
1.62113e-05 -1.91069e-05 1 
8.80534e-06 2.51108e-05 1 
-2.85051e-05 5.24222e-05 1 
-4.89414e-05 2.85912e-05 1 
2.94526e-05 -3.52629e-05 1 
-5.07046e-05 3.9752e-05 1 
-0.00028856 -8.4402e-05 1 
-0.000390601 0.000156552 1 
-0.00132082 0.000246519 0.999999 
-0.00555441 0.00150517 0.999983 
-0.0114439 0.00220489 0.999932 
-0.02646 0.00357535 0.999643 
-0.038633 0.00276247 0.99925 
-0.0393311 -6.80942e-05 0.999226 
-0.0271011 -0.00193546 0.999631 
-0.00758899 -0.00121768 0.99997 
-0.0184502 -0.00406717 0.999822 
-0.00176026 -0.000352495 0.999998 
-0.00401853 -0.00111869 0.999991 
-9.66908e-05 5.60124e-05 1 
-0.00014189 -1.05232e-05 1 
-1.23678e-05 -8.06713e-06 1 
-2.95486e-05 -4.1724e-05 1 
-3.73282e-05 -3.64022e-05 1 
-2.69233e-05 -8.48587e-06 1 
-9.5434e-05 -4.3095e-05 1 
4.92141e-06 4.36984e-05 1 
-0.000127328 1.20057e-05 1 
-8.24347e-05 -0.000106063 1 
-0.000130662 -6.55211e-05 1 
-4.71894e-05 -0.000131097 1 