# vtk DataFile Version 3.0 
Exported using Morpho https://github.com/Morpho-lang/morpho 
ASCII 
DATASET UNSTRUCTURED_GRID 

POINTS 3402 float 
-1.60103 -6.88743 -1.00558e-11 
-1.36496 -6.93807 2.79649e-11 
-1.17303 -6.97309 -4.53129e-11 
-0.983278 -7.00237 -2.73962e-11 
-0.743081 -7.03192 3.86564e-11 
-0.529537 -7.05121 -5.63013e-11 
-0.313287 -7.06412 5.83797e-11 
-0.126684 -7.06993 -3.05169e-11 
0.0862695 -7.07054 -6.03281e-11 
0.330637 -7.06333 5.80471e-11 
0.532451 -7.05099 -5.0606e-11 
0.741639 -7.03207 1.68633e-12 
0.950766 -7.00686 -2.96737e-11 
1.17234 -6.97321 2.13738e-11 
1.38149 -6.9348 -9.47911e-11 
1.62039 -6.8829 4.48708e-11 
-2.41323 -6.64653 3.91182e-11 
-2.2052 -6.71842 -6.47038e-12 
-1.9709 -6.79084 7.81168e-11 
-1.78299 -6.84258 -2.45138e-12 
-1.56239 -6.62938 -5.46919e-15 
-1.36137 -6.69591 6.95033e-16 
-1.14232 -6.71482 1.66133e-14 
-0.916845 -6.7676 -3.91905e-15 
-0.684999 -6.77407 9.80313e-15 
-0.470344 -6.80423 2.75007e-16 
-0.267222 -6.78762 8.58034e-15 
-0.0588037 -6.80756 -5.29282e-15 
0.165513 -6.81697 -2.37383e-15 
0.383215 -6.78861 1.91897e-15 
0.593043 -6.7829 -2.24604e-15 
0.808573 -6.76531 4.13412e-16 
1.02175 -6.7431 -1.98225e-15 
1.23054 -6.70908 -8.73536e-15 
1.44764 -6.67538 -1.53918e-15 
1.66708 -6.62172 5.41509e-15 
1.84819 -6.82526 3.92302e-11 
2.04572 -6.76868 -8.77347e-11 
2.28672 -6.69111 3.48766e-11 
-2.84635 -6.47289 4.45077e-11 
-2.63568 -6.56149 1.4926e-12 
-2.4206 -6.40172 -2.11998e-15 
-2.19081 -6.46042 -8.04338e-16 
-1.98871 -6.54024 6.62151e-15 
-1.77406 -6.57935 6.60334e-16 
-1.53783 -6.39449 1.4742e-14 
-1.31772 -6.43908 -1.52911e-14 
-1.10437 -6.46562 -3.15628e-15 
-0.900249 -6.52717 2.32888e-15 
-0.694027 -6.50783 3.37985e-14 
-0.480746 -6.53665 3.56766e-14 
-0.271688 -6.52003 -1.57561e-14 
-0.0671588 -6.53934 4.25106e-15 
0.143099 -6.55356 4.46666e-15 
0.353262 -6.5272 4.65312e-15 
0.564238 -6.51694 3.82539e-15 
0.775344 -6.51196 -1.88223e-15 
0.990042 -6.4857 8.38042e-16 
1.21141 -6.46338 2.35573e-14 
1.43035 -6.42401 2.53031e-14 
1.64883 -6.37433 -1.23751e-14 
1.8838 -6.55118 -2.66076e-15 
2.09909 -6.50742 -4.87465e-15 
2.30942 -6.42587 6.0785e-15 
2.49991 -6.61441 4.13286e-11 
2.68448 -6.54168 -6.68318e-11 
2.94351 -6.42929 -3.34336e-11 
-3.28906 -6.25956 3.8002e-11 
-3.07352 -6.36816 -7.92665e-12 
-2.84951 -6.21633 3.69273e-16 
-2.62783 -6.29715 -1.22523e-15 
-2.385 -6.15376 -7.27359e-15 
-2.17547 -6.23022 -1.78651e-14 
-1.94314 -6.28034 -1.21178e-14 
-1.74364 -6.3277 -1.30878e-14 
-1.5477 -6.15493 7.88183e-15 
-1.33182 -6.20507 2.21905e-14 
-1.10982 -6.2227 -3.17016e-14 
-0.896695 -6.27023 2.73888e-14 
-0.693772 -6.25205 -3.57325e-14 
-0.489235 -6.28582 3.39426e-15 
-0.274601 -6.27623 8.53494e-15 
-0.0628393 -6.27794 -1.64837e-14 
0.142197 -6.29103 3.34569e-15 
0.348519 -6.27397 1.38275e-14 
0.556836 -6.26839 -1.10721e-14 
0.764603 -6.26068 3.77055e-15 
0.969932 -6.24132 1.00366e-14 
1.18616 -6.22339 -1.27606e-14 
1.39765 -6.18792 2.14613e-14 
1.61809 -6.13796 2.04044e-14 
1.85181 -6.29438 3.5033e-14 
2.05929 -6.25347 1.06608e-14 
2.26319 -6.1801 -7.09159e-15 
2.51129 -6.33465 8.93812e-16 
2.73878 -6.28939 -5.95447e-15 
2.94806 -6.16868 -2.08633e-15 
3.16465 -6.32337 1.49142e-11 
3.36766 -6.21763 -2.71828e-11 
-3.72132 -6.01263 2.65387e-11 
-3.5075 -6.13982 1.07543e-11 
-3.28166 -6.00228 -5.0423e-16 
-3.06611 -6.10578 1.84756e-15 
-2.82513 -5.9705 5.0184e-15 
-2.60383 -6.05131 -1.81841e-14 
-2.38382 -5.91586 1.3902e-15 
-2.1688 -5.98141 -1.72612e-14 
-1.96538 -6.0473 1.67361e-14 
-1.74557 -6.06401 4.32713e-16 
-1.53211 -5.92805 1.9186e-15 
-1.33121 -5.98704 1.61628e-16 
-1.11845 -6.00101 1.09079e-14 
-0.899105 -6.04098 -6.67797e-15 
-0.688103 -6.02137 -2.00245e-14 
-0.48476 -6.05644 -1.38702e-14 
-0.280254 -6.04229 -6.66872e-15 
-0.0725752 -6.04163 7.48261e-15 
0.137796 -6.0466 3.26371e-15 
0.344328 -6.03819 -2.69583e-15 
0.550081 -6.03497 2.22994e-16 
0.757863 -6.02216 4.68431e-15 
0.976395 -6.02051 1.19484e-14 
1.18145 -5.9848 -1.36247e-14 
1.39864 -5.97457 7.55831e-15 
1.6102 -5.91632 9.96439e-15 
1.82684 -6.0494 -1.642e-14 
2.03584 -6.00984 -7.80891e-15 
2.2584 -5.95043 2.20413e-14 
2.47989 -6.09706 3.3168e-14 
2.69223 -6.04383 -2.93987e-15 
2.90622 -5.9357 1.23916e-14 
3.1603 -6.06153 2.60219e-15 
3.37405 -5.95619 9.60126e-16 
3.59173 -6.09093 -3.90034e-11 
-3.93566 -5.87457 9.2197e-12 
-3.70332 -5.75833 8.14705e-15 
-3.49561 -5.87835 4.07329e-16 
-3.25651 -5.75647 3.14006e-15 
-3.03868 -5.85325 -7.35172e-15 
-2.81806 -5.72983 1.42586e-15 
-2.60438 -5.8105 2.32096e-14 
-2.39699 -5.69765 -3.90171e-16 
-2.17732 -5.75764 3.8008e-15 
-1.96325 -5.8156 2.58086e-15 
-1.75917 -5.84513 1.52977e-14 
-1.5515 -5.73588 6.4287e-17 
-1.30929 -5.77624 -2.84402e-15 
-1.10267 -5.77638 3.6151e-15 
-0.900434 -5.83603 -2.12708e-15 
-0.70211 -5.79216 1.64514e-15 
-0.504867 -5.83404 -9.05489e-17 
-0.300959 -5.82 4.04552e-15 
-0.0924909 -5.81802 6.891e-15 
0.116359 -5.82858 -6.34222e-16 
0.327834 -5.8212 -1.04779e-15 
0.540368 -5.81351 1.06033e-15 
0.745709 -5.80722 -7.00199e-16 
0.96309 -5.80585 -1.00485e-15 
1.18597 -5.77581 -4.04807e-15 
1.39842 -5.77039 -1.47041e-15 
1.62391 -5.71365 -4.41157e-15 
1.82458 -5.82156 -1.6543e-14 
2.04902 -5.79719 1.79058e-14 
2.26513 -5.72919 7.62287e-15 
2.46451 -5.85146 -1.18475e-14 
2.6656 -5.8063 -1.20566e-14 
2.87969 -5.71051 2.01197e-14 
3.12031 -5.8216 1.39437e-14 
3.34519 -5.71562 5.82727e-15 
3.59336 -5.82705 5.82112e-15 
3.81705 -5.95232 3.19376e-11 
4.0306 -5.80984 -2.39095e-11 
-4.37385 -5.55603 2.16475e-11 
-4.15491 -5.7216 4.62268e-11 
-3.9205 -5.62122 4.13283e-16 
-3.67856 -5.51741 4.18222e-15 
-3.45874 -5.62165 -6.5695e-15 
-3.23696 -5.50922 -7.59995e-15 
-3.03571 -5.60764 9.46451e-15 
-2.82373 -5.51198 -4.0262e-15 
-2.60701 -5.58028 3.19188e-15 
-2.40054 -5.48914 7.54569e-15 
-2.18772 -5.55276 -8.21576e-16 
-1.96979 -5.60374 -1.35604e-15 
-1.7602 -5.62419 3.31215e-15 
-1.56912 -5.52328 1.12626e-15 
-1.36757 -5.59178 7.7239e-16 
-1.14226 -5.57209 3.24808e-16 
-0.909288 -5.62426 3.32086e-16 
-0.692582 -5.59326 1.44111e-15 
-0.470699 -5.61977 8.22993e-16 
-0.253736 -5.61163 3.12185e-16 
-0.0385757 -5.61226 5.93147e-16 
0.172084 -5.62311 -1.78902e-15 
0.389316 -5.61948 2.04931e-16 
0.596601 -5.59579 -2.0197e-15 
0.813178 -5.61305 -5.36277e-16 
1.03257 -5.60537 -3.15591e-15 
1.25341 -5.56908 4.49296e-16 
1.46356 -5.5733 -2.71531e-15 
1.6786 -5.50958 1.33547e-15 
1.85543 -5.61403 2.16565e-15 
2.06054 -5.58481 -5.21547e-15 
2.25556 -5.5135 -5.74456e-16 
2.45921 -5.60847 4.8234e-15 
2.6639 -5.58546 6.70771e-15 
2.89496 -5.50438 -5.23773e-15 
3.10888 -5.59506 -2.45751e-14 
3.31849 -5.48036 -6.84203e-15 
3.55894 -5.58054 -3.03511e-16 
3.80526 -5.6841 -2.66008e-15 
4.0102 -5.55225 -1.38812e-15 
4.23923 -5.65941 -2.18656e-11 
-4.58844 -5.38017 3.21192e-11 
-4.3396 -5.31279 1.16956e-15 
-4.12837 -5.47155 1.51918e-15 
-3.88553 -5.36979 -1.13569e-14 
-3.66052 -5.27894 -6.4117e-15 
-3.45062 -5.37682 3.61324e-15 
-3.23569 -5.29347 -4.09636e-15 
-3.01977 -5.37443 2.65208e-15 
-2.81718 -5.29366 -2.3597e-15 
-2.62435 -5.3684 1.21571e-15 
-2.41695 -5.29517 -8.32795e-16 
-2.19284 -5.34847 2.33512e-15 
-1.98716 -5.39659 1.6212e-15 
-1.7806 -5.41076 -9.97031e-15 
-1.54662 -5.34529 7.61366e-16 
-1.31873 -5.40257 2.95141e-16 
-1.11829 -5.35393 -1.35746e-14 
-0.944531 -5.4339 2.61991e-15 
-0.749282 -5.39322 -1.61326e-14 
-0.538071 -5.41562 2.60021e-16 
-0.331506 -5.41935 -4.43327e-15 
-0.108714 -5.41212 -1.32195e-14 
0.105852 -5.41504 -7.48854e-15 
0.314416 -5.42418 1.61888e-14 
0.523418 -5.40146 1.19449e-14 
0.750171 -5.41144 -1.98283e-16 
0.955222 -5.41798 9.1615e-15 
1.16753 -5.39537 -1.87717e-16 
1.39872 -5.37858 5.74629e-15 
1.59006 -5.34409 -2.08707e-16 
1.83694 -5.3682 -8.02476e-16 
2.02086 -5.37977 -1.93696e-15 
2.22829 -5.32315 -2.42781e-15 
2.45641 -5.38951 -1.16812e-15 
2.68197 -5.39407 1.53603e-15 
2.8918 -5.30133 -7.97414e-16 
3.10097 -5.37182 -1.71664e-14 
3.30081 -5.25751 -3.61779e-16 
3.52161 -5.3452 1.64455e-14 
3.76117 -5.42927 6.48079e-15 
3.97772 -5.3092 -3.81373e-15 
4.21378 -5.40148 -3.38486e-16 
4.43621 -5.50636 1.54655e-11 
-4.79706 -5.19502 2.87035e-11 
-4.54673 -5.14012 2.32212e-15 
-4.3033 -5.0666 -1.76477e-14 
-4.09546 -5.22544 -3.26448e-15 
-3.86176 -5.12673 3.05808e-15 
-3.6495 -5.05454 -1.65926e-14 
-3.4536 -5.14928 1.35183e-14 
-3.2542 -5.09165 -6.28601e-15 
-3.03103 -5.16246 5.37793e-17 
-2.81807 -5.0992 4.44262e-15 
-2.60369 -5.1528 -7.83187e-16 
-2.36126 -5.12276 -4.23151e-16 
-2.15086 -5.15602 -2.31073e-16 
-1.94646 -5.19571 -7.07061e-15 
-1.73764 -5.21413 4.45951e-16 
-1.55199 -5.12203 -1.17662e-14 
-1.36492 -5.20658 -9.35976e-15 
-1.15813 -5.16055 -2.78825e-15 
-0.922215 -5.20882 -3.65807e-15 
-0.688172 -5.19595 -2.10578e-15 
-0.478549 -5.20603 -6.28956e-16 
-0.260411 -5.22071 -4.46033e-15 
-0.0443263 -5.2019 9.48375e-16 
0.165367 -5.20295 1.36906e-15 
0.368836 -5.20652 3.33213e-15 
0.6 -5.21383 4.81448e-15 
0.80766 -5.19985 1.4026e-15 
1.00869 -5.21319 5.38943e-15 
1.24003 -5.2111 3.16897e-15 
1.43205 -5.15771 1.09436e-14 
1.67087 -5.18397 -3.4177e-16 
1.89696 -5.17138 -2.45227e-16 
2.0968 -5.15989 1.11364e-14 
2.29065 -5.09281 1.72381e-14 
2.43788 -5.19863 -1.32306e-15 
2.65846 -5.20608 -1.22403e-15 
2.86909 -5.11364 -7.46574e-16 
3.09165 -5.16026 -3.00734e-15 
3.3054 -5.05651 3.27631e-16 
3.51993 -5.13123 9.40859e-15 
3.73816 -5.19488 -1.13042e-14 
3.93436 -5.07374 1.11881e-14 
4.17241 -5.14953 1.64024e-14 
4.40986 -5.23675 1.43941e-15 
4.64414 -5.33216 3.52313e-11 
4.85679 -5.13922 -4.71795e-11 
-5.0032 -4.9968 -3.84029e-12 
-4.75642 -4.95748 -2.79844e-16 
-4.50844 -4.89645 -3.93388e-15 
-4.26629 -4.8326 -8.72376e-15 
-4.06848 -4.99088 -2.90936e-15 
-3.85921 -4.90109 2.72547e-14 
-3.65523 -4.8528 -1.04364e-15 
-3.44184 -4.92512 9.51366e-16 
-3.23927 -4.88196 5.92739e-15 
-3.05364 -4.96821 -5.1529e-15 
-2.87332 -4.89759 -3.60014e-16 
-2.65907 -4.94678 1.03799e-15 
-2.45287 -4.96042 1.28894e-14 
-2.21136 -4.95593 1.10928e-14 
-1.99349 -4.9793 -1.48873e-14 
-1.78776 -5.00134 -6.53301e-15 
[...]
POINT_DATA 3402 
VECTORS vectors float
-0.000607921 4.33328e-05 1 
-0.000982506 0.000279914 0.999999 
0.00300942 -0.00058686 0.999995 
-0.000576621 -9.46879e-05 1 
-0.000347509 0.000351289 1 
0.000793181 -0.000499163 1 
-0.000557207 0.00046955 1 
0.00311442 -0.000359166 0.999995 
-0.00196584 1.62281e-05 0.999998 
0.000647713 0.000222117 1 
0.00085788 -0.000298499 1 
0.000168564 0.000401267 1 
0.000182804 -0.000263986 1 
-0.000136599 0.000226931 1 
0.00136746 0.000130039 0.999999 
-0.00214305 -0.00037738 0.999998 
0.000404229 0.000175672 1 
-0.000162061 -0.000243536 1 
-0.000872265 0.000362712 1 
0.00328577 -0.000874721 0.999994 
-0.0155103 0.00411963 0.999871 
-0.00319468 0.000281437 0.999995 
-0.0123046 1.40119e-05 0.999924 
0.00772441 -0.000649035 0.99997 
-0.0227657 0.00180167 0.999739 
-0.00498263 -0.000292727 0.999988 
-0.0221533 0.000320451 0.999755 
-0.0234842 0.000147182 0.999724 
0.00202389 0.00181841 0.999996 
-0.0214807 -0.00138771 0.999768 
-0.00789822 -0.00138599 0.999968 
-0.022846 -0.00261813 0.999736 
-0.00416325 -2.50243e-05 0.999991 
-0.0184323 -0.00227518 0.999828 
0.00286281 0.00115988 0.999995 
0.000230288 -0.000904501 1 
0.00198259 0.000485424 0.999998 
0.000407493 0.000147701 1 
-0.00195097 -0.000625426 0.999998 
8.48307e-05 0.000188532 1 
-9.78958e-05 -0.000305901 1 
0.00681476 -0.00128819 0.999976 
-0.00287445 0.000898274 0.999995 
0.00035621 -0.00165679 0.999999 
-0.024662 0.00680943 0.999673 
0.0323302 -0.00934214 0.999434 
0.0427459 -0.00715309 0.99906 
0.0278299 -0.0048044 0.999601 
0.0475692 -0.0076645 0.998839 
0.0459916 -0.00676511 0.998919 
0.0434805 -0.00485686 0.999042 
0.0562986 -0.00107483 0.998413 
0.054064 -0.00018455 0.998537 
0.0504811 0.00121057 0.998724 
0.0491527 0.00250008 0.998788 
0.0557352 0.00476197 0.998434 
0.0386354 0.00457756 0.999243 
0.0493698 0.00735835 0.998753 
0.0324288 0.00540659 0.999459 
0.0278379 0.00520259 0.999599 
0.0270432 0.00853433 0.999598 
-0.0220184 -0.00615111 0.999739 
0.00830905 0.00374317 0.999958 
0.000839119 -0.00124113 0.999999 
0.00244955 0.000970563 0.999997 
-0.000155218 -0.000122854 1 
-0.00093627 -0.000272127 1 
0.000197371 5.90086e-05 1 
-0.000254761 -0.000116473 1 
0.0088008 -0.00423801 0.999952 
-0.0053973 0.00233777 0.999983 
0.019849 -0.00689663 0.999779 
0.012309 -0.00340896 0.999918 
0.0402105 -0.0106591 0.999134 
0.0454721 -0.0107994 0.998907 
0.131136 -0.0334859 0.990799 
0.127761 -0.0275284 0.991423 
0.135967 -0.0234886 0.990435 
0.129979 -0.0186984 0.99134 
0.140465 -0.0152289 0.989968 
0.134774 -0.0105237 0.990821 
0.13497 -0.00534289 0.990835 
0.136965 -0.000590327 0.990576 
0.134641 0.00310577 0.99089 
0.13706 0.00728965 0.990536 
0.132253 0.0117768 0.991146 
0.138381 0.0165821 0.99024 
0.132841 0.0203313 0.990929 
0.135823 0.0260402 0.990391 
0.124081 0.027348 0.991895 
0.126424 0.0332852 0.991418 
0.0437445 0.0123486 0.998966 
0.0240856 0.00734998 0.999683 
0.022049 0.00822103 0.999723 
-0.0176871 -0.00721504 0.999818 
0.00741962 0.00545224 0.999958 
0.014557 0.00815594 0.999861 
0.000625908 0.000167435 1 
0.000202983 0.000304232 1 
8.21288e-05 6.14984e-05 1 
-0.000268452 -4.2752e-05 1 
0.0100325 -0.00544628 0.999935 
-0.00031479 -0.000317761 1 
0.00932612 -0.00465079 0.999946 
0.0204863 -0.00820267 0.999756 
0.113459 -0.0457329 0.99249 
0.1248 -0.0449643 0.991163 
0.123165 -0.0405932 0.991556 
0.133928 -0.038632 0.990238 
0.113652 -0.0298307 0.993073 
0.113358 -0.025443 0.993228 
0.108262 -0.0202199 0.993917 
0.112447 -0.0162785 0.993524 
0.0970732 -0.0102378 0.995225 
0.106267 -0.00785073 0.994307 
0.0965846 -0.0040826 0.995316 
0.0946154 -0.00101471 0.995513 
0.0993516 0.0022331 0.99505 
0.0949867 0.00538798 0.995464 
0.105033 0.00941778 0.994424 
0.10012 0.0123673 0.994899 
0.112435 0.0179897 0.993496 
0.10642 0.0212636 0.994094 
0.119734 0.0278472 0.992415 
0.112344 0.030648 0.993197 
0.1336 0.0413593 0.990172 
0.114771 0.0392085 0.992618 
0.120534 0.0454502 0.991668 
0.0327092 0.0123868 0.999388 
0.0147868 0.00669597 0.999868 
0.000986431 1.37009e-06 1 
0.00589724 0.0022136 0.99998 
0.00381033 0.00143878 0.999992 
-0.000551844 -0.000431481 1 
-0.000209544 -1.44931e-05 1 
0.00924328 -0.00584022 0.99994 
0.00297659 -0.00189069 0.999994 
0.00207602 -0.00129667 0.999997 
0.01372 -0.00708411 0.999881 
0.104901 -0.0525064 0.993096 
0.115007 -0.0523991 0.991982 
0.120708 -0.0514482 0.991354 
0.116449 -0.0445272 0.992198 
0.113601 -0.0390109 0.99276 
0.106181 -0.0326719 0.99381 
0.0628527 -0.0173478 0.997872 
0.060376 -0.0139316 0.998078 
0.0437215 -0.00848502 0.999008 
0.0583832 -0.0087785 0.998256 
0.0395121 -0.00463011 0.999208 
0.0444144 -0.00359293 0.999007 
0.0399542 -0.0020948 0.999199 
0.038083 -0.000831392 0.999274 
0.0431401 0.00097695 0.999069 
0.0409164 0.00244452 0.99916 
0.043389 0.00406282 0.99905 
0.0428683 0.00551987 0.999065 
0.0524502 0.00884247 0.998584 
0.0523865 0.0110468 0.998566 
0.0607193 0.0147934 0.998045 
0.0639931 0.0185531 0.997778 
0.103754 0.0331801 0.994049 
0.11828 0.0418146 0.992099 
0.115093 0.0454519 0.992314 
0.127688 0.0541703 0.990334 
0.102905 0.0473568 0.993563 
0.101453 0.050974 0.993534 
0.0109559 0.00539592 0.999925 
-0.00120063 -0.000975998 0.999999 
0.0110077 0.00671372 0.999917 
4.53022e-05 0.000185118 1 
1.00491e-05 -9.19842e-05 1 
-0.000301909 0.000134938 1 
-5.78561e-05 0.0001137 1 
0.0052025 -0.0037104 0.99998 
-0.00404287 0.00251921 0.999989 
0.00953088 -0.00569233 0.999938 
0.0987223 -0.0583916 0.9934 
0.106693 -0.0583941 0.992576 
0.12117 -0.0629162 0.990636 
0.111507 -0.0530384 0.992347 
0.0701884 -0.0313948 0.99704 
0.0669071 -0.0267281 0.997401 
0.0599148 -0.0213876 0.997974 
0.0487966 -0.0157322 0.998685 
0.020445 -0.00605701 0.999773 
0.0238048 -0.00599448 0.999699 
0.0146861 -0.00314767 0.999887 
0.0169966 -0.00279604 0.999852 
0.0103317 -0.00146054 0.999946 
0.0120708 -0.00108375 0.999927 
0.00964228 -0.000567564 0.999953 
0.0100821 -0.00021785 0.999949 
0.0112156 0.000527782 0.999937 
0.0115374 0.000855857 0.999933 
0.010112 0.00134881 0.999948 
0.0144966 0.00226871 0.999892 
0.0170029 0.00349874 0.999849 
0.0175355 0.00406135 0.999838 
0.0241231 0.0066339 0.999687 
0.0220668 0.00675158 0.999734 
0.0512816 0.0172046 0.998536 
0.0647642 0.0241223 0.997609 
0.0632352 0.0259989 0.99766 
0.107301 0.0470573 0.993112 
0.115883 0.0554115 0.991716 
0.123085 0.0653984 0.990239 
0.101693 0.0572696 0.993166 
0.0937095 0.0574329 0.993942 
-0.00101736 -0.000768068 0.999999 
-0.00202492 -0.000556035 0.999998 
0.0137516 0.0110281 0.999845 
-0.000251206 -4.89613e-05 1 
1.77187e-05 -4.60347e-06 1 
0.00974849 -0.00745717 0.999925 
0.0142201 -0.0104848 0.999844 
-0.00214783 0.00212491 0.999995 
0.0827441 -0.0572118 0.994927 
0.0983822 -0.0632399 0.993137 
0.11594 -0.0713149 0.990693 
0.108893 -0.0618077 0.99213 
0.0717853 -0.0386623 0.996671 
0.0660504 -0.0329016 0.997274 
0.0307841 -0.0142364 0.999425 
0.0241514 -0.0101603 0.999657 
0.021796 -0.00829451 0.999728 
0.0134565 -0.00465002 0.999899 
0.00429535 -0.00150311 0.99999 
0.00502375 -0.00133568 0.999986 
0.00181725 -0.000451141 0.999998 
0.00357551 -0.000614292 0.999993 
0.00118634 -0.000246899 0.999999 
0.00158397 -0.000311412 0.999999 
0.00135506 -0.000130445 0.999999 
0.00118811 -9.3247e-05 0.999999 
0.00121359 2.6137e-05 0.999999 
0.00146681 0.000193738 0.999999 
0.00126193 0.000273441 0.999999 
0.00189855 0.000426251 0.999998 
0.00267536 0.00060943 0.999996 
0.00359328 0.000913614 0.999993 
0.00471817 0.00135176 0.999988 
0.0049082 0.00159058 0.999987 
0.0114721 0.00414574 0.999926 
0.0210285 0.00825838 0.999745 
0.0231478 0.00988229 0.999683 
0.0510786 0.0234384 0.99842 
0.0777321 0.0388735 0.996216 
0.0802278 0.0443328 0.99579 
0.11421 0.067092 0.991189 
0.11348 0.071982 0.990929 
0.0906895 0.059914 0.994075 
0.00912757 0.00652214 0.999937 
-0.0116176 -0.00840495 0.999897 
0.0141547 0.00951931 0.999855 
0.000154582 8.8396e-05 1 
-0.00032838 0.000237719 1 
0.0142995 -0.0122302 0.999823 
-0.00866146 0.00875724 0.999924 
-0.00962942 0.00784815 0.999923 
0.083555 -0.0626459 0.994532 
0.112309 -0.0809694 0.990369 
0.108738 -0.0732823 0.991366 
0.0848164 -0.0544401 0.994908 
0.0652245 -0.0387145 0.997119 
0.030728 -0.0173845 0.999377 
0.0235865 -0.0121121 0.999648 
0.00878007 -0.00406115 0.999953 
0.00524157 -0.00222228 0.999984 
0.00408059 -0.00162635 0.99999 
0.0020223 -0.000958321 0.999997 
8.36875e-05 -0.000242157 1 
0.000347314 -0.000200181 1 
-0.000276955 1.09681e-05 1 
-9.38271e-05 -6.56082e-05 1 
-0.000230848 -6.2657e-05 1 
-0.000211459 2.01348e-05 1 
-0.000144091 -1.16121e-05 1 
-0.000221232 3.95158e-06 1 
-0.000242 4.59933e-05 1 
-0.000249329 0.000116252 1 
-0.000263987 0.000111649 1 
-0.00019503 -2.4011e-06 1 
-3.48166e-05 9.27469e-05 1 
0.000162765 8.73593e-05 1 
0.000182495 0.000205872 1 
0.000750601 0.000501612 1 
0.00223915 0.000973454 0.999997 
0.00514822 0.0022319 0.999984 
0.00494964 0.0023596 0.999985 
0.0180327 0.00862395 0.9998 
0.0336361 0.0174565 0.999282 
0.036179 0.0205363 0.999134 
0.0714515 0.0434429 0.996498 
0.0797755 0.0525081 0.995429 
0.112758 0.0776008 0.990588 
0.0903795 0.0659423 0.993722 
0.0782297 0.0603045 0.99511 
-0.00540576 -0.00554717 0.99997 
0.00988784 0.00588416 0.999934 
-0.00049408 -0.000337062 1 
0.000186531 0.00016548 1 
-8.94611e-05 8.92451e-05 1 
0.0140911 -0.0140354 0.999802 
-0.0124936 0.0118391 0.999852 
0.0636544 -0.0549506 0.996458 
0.0690903 -0.0557132 0.996053 
0.108759 -0.0860538 0.990336 
0.086567 -0.065487 0.994091 
0.0657302 -0.0462908 0.996763 
0.034236 -0.0231526 0.999146 
0.0312581 -0.0195839 0.999319 
0.010715 -0.00645705 0.999922 
0.00685707 -0.00397487 0.999969 
0.00293174 -0.00145745 0.999995 
0.000929797 -0.000350116 1 
0.000395061 -0.000343335 1 
5.23664e-06 -0.00015801 1 
-0.000463326 -4.31517e-05 1 
-0.000428752 5.92755e-05 1 
-0.000444506 4.71703e-05 1 
-0.000481992 -8.59963e-05 1 
-0.000430283 -3.62326e-05 1 
-0.000434994 -3.15345e-05 1 
-0.000358927 -9.57076e-05 1 
-0.000337716 1.07034e-05 1 
-0.000314652 2.88494e-05 1 
-0.000299948 9.69828e-05 1 
-0.000287155 0.000123889 1 
-0.000254634 -4.309e-05 1 
-0.000259564 3.47526e-05 1 
-0.000334054 5.07771e-05 1 
-0.000307872 -7.03878e-05 1 
-0.000247999 4.28698e-05 1 
3.97467e-05 4.50261e-05 1 
0.000527761 0.000251262 1 
0.000598517 0.000368716 1 
0.00334578 0.00176288 0.999993 
0.0109924 0.00594304 0.999922 
0.0126515 0.00733828 0.999893 
0.0337104 0.0209592 0.999212 
0.0348331 0.0234902 0.999117 
0.0756367 0.0536876 0.995689 
0.108154 0.0808652 0.99084 
0.10769 0.0861283 0.990447 
0.0805413 0.0665541 0.994527 
0.002777 0.00274868 0.999992 
-0.00513583 -0.00252244 0.999984 
0.0109538 0.0136338 0.999847 
-0.000269808 -0.000253953 1 
-0.00012429 5.90063e-05 1 
0.0136441 -0.0144722 0.999802 
-0.0119947 0.0112089 0.999865 
0.053892 -0.0517272 0.997206 
0.100554 -0.0916422 0.990702 
0.104757 -0.0885861 0.990545 
0.0742456 -0.06127 0.995356 
0.0404325 -0.0321695 0.998664 
0.0319459 -0.0239116 0.999204 
0.0124875 -0.00917382 0.99988 
0.0076223 -0.00531082 0.999957 
0.00191481 -0.00131633 0.999997 
0.000829716 -0.000535316 1 
0.000193402 -4.95652e-05 1 
-3.7232e-05 3.82256e-05 1 
-0.000200022 4.69423e-05 1 
-0.000203556 3.25904e-05 1 
-0.000212695 -5.73902e-05 1 
-0.000242125 8.32878e-05 1 
-0.000237625 3.85822e-05 1 
-0.000190444 -3.88654e-05 1 
-0.000288282 -7.6354e-05 1 
-0.000234586 -6.84338e-05 1 
-0.00033691 -1.94341e-05 1 
-0.000317295 -4.95522e-05 1 
-0.000255303 -3.44285e-06 1 
-0.000194015 4.78286e-05 1 
-0.000138014 8.40331e-05 1 
-0.000124272 2.18846e-05 1 
-0.000263197 6.37593e-05 1 
-0.000166403 6.14611e-05 1 
-0.00025613 2.61795e-05 1 
-0.000310078 -5.3765e-06 1 
-0.000270297 -0.000247912 1 
-0.000182322 7.58298e-05 1 
-4.41113e-05 2.9726e-05 1 
0.000313912 0.00030811 1 
0.00251045 0.00143966 0.999996 
0.00229862 0.00129234 0.999997 
0.00994387 0.00633585 0.99993 
0.0103781 0.00718224 0.99992 
0.0324408 0.02354 0.999196 
0.0647803 0.0500311 0.996645 
0.0705911 0.0584071 0.995794 
0.101404 0.0875717 0.990984 
0.084349 0.0771919 0.993442 
0.00247537 0.0037207 0.99999 
-0.0111632 -0.0107261 0.99988 
0.0188247 0.0183272 0.999655 
2.14888e-05 0.000118426 1 
-0.000157839 0.000165953 1 
0.0135874 -0.0148258 0.999798 
-0.0121099 0.0127445 0.999845 
0.0464478 -0.0494669 0.997695 
0.097839 -0.0989101 0.990275 
0.0855639 -0.0826189 0.992901 
0.0796443 -0.0705381 0.994324 
0.0356807 -0.0309063 0.998885 
0.0147571 -0.0124001 0.999814 
0.00891761 -0.00716139 0.999935 
0.00253038 -0.00210895 0.999995 
0.000820066 -0.000822601 0.999999 
-6.26407e-05 -0.000165011 1 
-0.000176834 1.95867e-06 1 
-0.000182122 9.83509e-05 1 
-0.000165474 0.000122862 1 
-0.000144702 -3.45371e-05 1 
-8.54435e-05 2.89028e-05 1 
-0.000115872 1.5692e-05 1 
-0.000117783 5.33934e-05 1 
-5.40993e-05 8.77312e-06 1 
-0.000112122 -1.52962e-05 1 
-0.00015215 -6.26492e-06 1 
-0.000186679 -8.04835e-05 1 
-0.000198763 3.99241e-06 1 
-0.000161202 -8.33744e-05 1 
-0.000146101 -4.39703e-05 1 
-0.000122574 -1.53837e-05 1 
-7.48972e-05 2.21088e-05 1 
1.97307e-05 0.000109076 1 
-6.53484e-06 0.000160494 1 
-0.000215637 2.43929e-05 1 
-0.000147008 3.34016e-05 1 
-0.000139866 8.84217e-06 1 
-0.000210625 -0.000167786 1 
-0.000230291 -7.0579e-05 1 
-0.000279122 -4.59288e-05 1 
-0.000149148 -0.000119608 1 
0.000196954 6.1014e-05 1 
0.00012429 1.18532e-05 1 
0.00212296 0.00136573 0.999997 
0.00839744 0.00619611 0.999946 
0.023834 0.0187835 0.999539 
0.029856 0.025468 0.99923 
0.0616239 0.054868 0.99659 
0.0927973 0.0871055 0.991868 
0.0927787 0.0912814 0.991494 
0.0649457 0.0664353 0.995675 
-0.00247023 -0.00514291 0.999984 
0.00675853 0.00432628 0.999968 
-0.000136178 -0.000140671 1 
-0.000151336 0.000140851 1 
0.00935647 -0.011172 0.999894 
-0.00846928 0.00937487 0.99992 
0.05455 -0.0623126 0.996565 
0.0941556 -0.102287 0.990289 
0.0775596 -0.0808803 0.993702 
0.041718 -0.0415638 0.998265 
0.0510891 -0.0477781 0.997551 
0.0189778 -0.0177836 0.999662 
0.00872733 -0.00775066 0.999932 
0.00294437 -0.0026365 0.999992 
0.00115671 -0.00103308 0.999999 
6.76891e-05 -0.000202878 1 
-0.000194632 -4.09868e-05 1 
-0.000250678 1.23234e-06 1 
-0.000236054 2.23384e-05 1 
-0.000182138 1.53818e-05 1 
-9.11336e-05 4.93056e-05 1 
-0.000123712 -7.98413e-05 1 
-8.31995e-05 6.35237e-05 1 
-3.33351e-05 -7.54129e-05 1 
1.57638e-05 7.95727e-05 1 
5.98167e-06 -5.30067e-05 1 
-1.95983e-06 0.000105534 1 
-1.82071e-05 -5.27205e-05 1 
-6.52042e-05 -1.32784e-05 1 
-3.83432e-06 -8.03481e-05 1 
-4.93901e-05 -2.7551e-05 1 
-9.63629e-05 -1.2233e-05 1 
-0.000103472 -3.73882e-05 1 
-0.000154688 -1.18488e-05 1 
-6.61208e-05 0.000102718 1 
-5.5727e-08 0.000176976 1 
-3.25144e-05 5.36884e-05 1 
-6.20127e-05 -3.54235e-05 1 
-9.5804e-05 -5.51571e-05 1 
-0.000217635 -1.27056e-05 1 
-0.000205225 -7.1978e-05 1 
-0.00013824 -0.000201515 1 
-0.000166321 -6.54485e-05 1 
-7.33175e-05 -0.000104723 1 
2.71326e-05 -3.46494e-05 1 
0.00128104 0.00109872 0.999999 
0.00363303 0.00290142 0.999989 
0.00803646 0.00702459 0.999943 
0.021818 0.0198689 0.999565 
0.0493422 0.0470368 0.997674 
0.0845112 0.0853617 0.992759 
0.0973703 0.103039 0.9899 
0.0674462 0.0726471 0.995075 
0.0051609 0.00527468 0.999973 
0.00377176 0.00635368 0.999973 
-0.00019407 -0.00021333 1 
-7.78382e-05 8.44211e-05 1 
0.00501623 -0.00741823 0.99996 
-0.00523599 0.00547355 0.999971 
0.0613398 -0.0754595 0.99526 
0.0904186 -0.105342 0.990317 
0.0678944 -0.0761351 0.994783 
0.0336966 -0.0359975 0.998784 
0.0141168 -0.0141122 0.999801 
0.00407487 -0.00402752 0.999984 
0.00148854 -0.00143195 0.999998 
0.000279657 -0.000277542 1 
-5.00812e-05 -5.89091e-06 1 
-0.000156765 3.43189e-05 1 
-0.000174559 5.40232e-06 1 
-0.000160489 -2.37175e-06 1 
-0.000164006 -9.01665e-06 1 
-0.000167705 -1.94783e-06 1 
-0.000170657 -1.12169e-06 1 
-0.000154489 -5.22024e-05 1 
-0.000105805 -5.31005e-05 1 
-4.10221e-05 -4.9669e-05 1 
-1.19369e-05 1.11729e-05 1 
-1.43461e-05 3.74969e-05 1 
1.16434e-05 1.44196e-06 1 
5.11273e-05 -2.45187e-05 1 
3.86025e-05 -6.65214e-05 1 
1.12503e-05 -1.71732e-05 1 
-5.58454e-06 2.68819e-05 1 
5.25689e-06 -3.22101e-05 1 
-1.70208e-05 9.91691e-05 1 
-0.000151925 -1.84788e-05 1 
-9.04046e-05 3.01946e-05 1 
-0.000102648 0.000175872 1 
-3.11796e-05 4.04659e-05 1 
-2.49546e-05 -2.97656e-06 1 
-2.61365e-05 1.54495e-05 1 
1.53565e-05 -2.2011e-06 1 
-7.60033e-06 -5.60434e-05 1 
-6.74077e-05 -0.000118648 1 
-0.000107818 -0.000126815 1 
-9.37538e-05 -9.05768e-05 1 
-0.000150765 4.91272e-05 1 
0.00025814 0.000235387 1 
0.000608057 0.000637783 1 
0.00390343 0.00359923 0.999986 
0.00973898 0.00947337 0.999908 
0.0318166 0.0319947 0.998982 
0.0495599 0.0525346 0.997389 
0.0748788 0.0834027 0.993699 
0.090258 0.105943 0.990267 
0.0641526 0.0793372 0.994781 
-0.00338324 -0.00207369 0.999992 
0.00855182 0.0138495 0.999868 
6.99227e-06 1.81706e-05 1 
-9.94054e-05 7.40279e-05 1 
0.00774198 -0.0118908 0.999899 
-0.00469855 0.00589141 0.999972 
0.0579029 -0.0771477 0.995337 
0.0853839 -0.109053 0.990362 
0.0713391 -0.0865592 0.993689 
0.0400838 -0.0465158 0.998113 
0.0148373 -0.0163645 0.999756 
0.00964419 -0.0101575 0.999902 
0.00209386 -0.00208698 0.999996 
0.00041882 -0.000471351 1 
-1.10915e-05 -4.68601e-05 1 
-0.000114239 6.24946e-05 1 
-0.000100141 5.14237e-05 1 
-5.62967e-05 -1.04348e-06 1 
-5.59304e-05 -5.13431e-06 1 
-5.11149e-05 1.83585e-05 1 
-9.47053e-05 6.68306e-06 1 
-0.000118545 1.36558e-05 1 
-0.000118618 -2.81958e-05 1 
-0.000134069 -8.35242e-05 1 
-0.000115396 -0.000100383 1 
-0.00014547 -1.67068e-05 1 
-5.73959e-05 -4.87405e-05 1 
-0.000251207 8.47337e-05 1 
-0.000645726 3.80809e-05 1 
-0.00207463 0.000127459 0.999998 
-0.00366681 6.72726e-05 0.999993 
-0.001504 -1.35596e-05 0.999999 
-0.00054556 -1.04497e-05 1 
-0.000452013 -0.000110406 1 
5.77983e-05 9.65118e-05 1 
-4.7964e-05 8.37837e-05 1 
-2.45153e-05 8.49024e-05 1 
-9.34761e-06 3.74373e-05 1 
-2.85347e-05 -1.04251e-05 1 
-4.91473e-06 -1.42984e-05 1 
1.86638e-05 -2.28854e-05 1 
1.92881e-05 -3.93467e-05 1 
2.67803e-05 -6.85359e-06 1 
-9.93704e-05 -8.36026e-05 1 
-0.000256662 -7.82031e-05 1 
-0.00022635 -0.000106861 1 
-0.000110579 -4.30605e-05 1 
-7.55854e-05 3.13378e-05 1 
0.00118163 0.00114039 0.999999 
0.00226294 0.0023549 0.999995 
0.011386 0.0118945 0.999864 
0.0212574 0.0236428 0.999494 
0.0420857 0.0495095 0.997887 
0.0705239 0.0869248 0.993715 
0.0851826 0.110293 0.990242 
0.0598997 0.0810373 0.99491 
-0.00661252 -0.00867117 0.999941 
0.00691241 0.00975183 0.999929 
-1.16993e-05 0.00013191 1 
-1.84263e-05 2.15926e-05 1 
0.00591444 -0.00843296 0.999947 
-0.00107635 0.00127335 0.999999 
0.0595395 -0.0857392 0.994537 
0.0811627 -0.112075 0.99038 
0.0570255 -0.0755956 0.995507 
0.0350506 -0.0439324 0.998419 
0.0135628 -0.0161358 0.999778 
0.00380709 -0.0040304 0.999985 
0.00172901 -0.0016565 0.999997 
0.000169278 -0.000130336 1 
-9.58777e-05 4.34508e-05 1 
-0.000113395 4.93502e-05 1 
-5.80862e-05 7.70658e-06 1 
-9.87807e-06 -2.14711e-05 1 
1.61996e-05 -1.91017e-05 1 
8.79307e-06 2.51079e-05 1 
-2.85078e-05 5.24147e-05 1 
-4.89402e-05 2.85874e-05 1 
2.94219e-05 -3.52478e-05 1 
-5.07625e-05 3.97639e-05 1 
-0.000289087 -8.4088e-05 1 
-0.000391626 0.000156964 1 
-0.00132361 0.000247464 0.999999 
-0.00556259 0.00150761 0.999983 
-0.0114516 0.00220654 0.999932 
-0.0264758 0.00357824 0.999643 
-0.0386478 0.00276361 0.999249 
-0.0393451 -6.87052e-05 0.999226 
-0.0271186 -0.00193696 0.99963 
-0.00759915 -0.00121954 0.99997 
-0.0184622 -0.00406981 0.999821 
-0.00176544 -0.000353916 0.999998 
-0.00402417 -0.00112042 0.999991 
-9.73443e-05 5.57829e-05 1 
-0.000142796 -1.08897e-05 1 
-1.24113e-05 -8.0848e-06 1 
-2.95456e-05 -4.17187e-05 1 
-3.7326e-05 -3.63988e-05 1 
-2.69224e-05 -8.48995e-06 1 
-9.54132e-05 -4.30831e-05 1 
4.89691e-06 4.36791e-05 1 
-0.000127322 1.19921e-05 1 
-8.24372e-05 -0.000106051 1 
-0.00013065 -6.55256e-05 1 
-4.71862e-05 -0.000131075 1 
0.000139372 7.70971e-05 1 
0.000611481 0.000535477 1 
0.00419262 0.00453148 0.999981 
0.00938482 0.0112192 0.999893 
0.0270223 0.0337138 0.999066 
0.0491263 0.0650494 0.996672 
0.0760377 0.105117 0.991549 