# vtk DataFile Version 3.0 
Exported using Morpho https://github.com/Morpho-lang/morpho 
ASCII 
DATASET UNSTRUCTURED_GRID 

POINTS 3402 float 
-1.60104 -6.88743 -2.79856e-14 
-1.36496 -6.93808 7.78271e-14 
-1.17302 -6.97309 -1.26107e-13 
-0.983288 -7.00237 -7.62448e-14 
-0.743081 -7.03192 1.07582e-13 
-0.529537 -7.05121 -1.56688e-13 
-0.313276 -7.06412 1.62473e-13 
-0.126686 -7.06993 -8.49293e-14 
0.0862633 -7.07054 -1.67895e-13 
0.330635 -7.06333 1.61547e-13 
0.53245 -7.05099 -1.40838e-13 
0.741638 -7.03207 4.69277e-15 
0.950766 -7.00686 -8.25827e-14 
1.17234 -6.97321 5.94839e-14 
1.38149 -6.9348 -2.63808e-13 
1.62039 -6.8829 1.24877e-13 
-2.41323 -6.64653 1.08867e-13 
-2.20519 -6.71842 -1.80073e-14 
-1.97089 -6.79085 2.17402e-13 
-1.78299 -6.84258 -6.82235e-15 
-1.56287 -6.62841 -1.20944e-17 
-1.36134 -6.69527 1.53086e-18 
-1.14106 -6.71327 4.21379e-17 
-0.917076 -6.7679 -9.45886e-18 
-0.686364 -6.77385 2.2837e-17 
-0.47054 -6.8031 2.12604e-18 
-0.266722 -6.78551 2.07076e-17 
-0.0586285 -6.80697 -1.20724e-17 
0.165673 -6.81748 -5.26024e-18 
0.38282 -6.78754 4.66822e-18 
0.593061 -6.78174 -5.64723e-18 
0.808066 -6.76465 1.20286e-18 
1.02085 -6.74296 -4.89211e-18 
1.22979 -6.7074 -2.13596e-17 
1.44856 -6.67536 -3.6444e-18 
1.66855 -6.62157 1.25836e-17 
1.84819 -6.82526 1.0918e-13 
2.04571 -6.76868 -2.44169e-13 
2.28672 -6.69111 9.7063e-14 
-2.84635 -6.47289 1.23867e-13 
-2.63568 -6.56149 4.15396e-15 
-2.42013 -6.401 -5.52001e-18 
-2.19064 -6.45953 -1.38084e-18 
-1.98837 -6.54052 1.58693e-17 
-1.77251 -6.57768 1.07844e-18 
-1.53717 -6.39378 1.7044e-17 
-1.31769 -6.44116 -1.39974e-17 
-1.10484 -6.46534 -3.75961e-18 
-0.89958 -6.52738 5.55338e-18 
-0.69318 -6.50744 1.07007e-16 
-0.481269 -6.53773 1.09177e-16 
-0.272008 -6.52043 -1.92773e-17 
-0.0669895 -6.53886 1.30902e-17 
0.143034 -6.5543 9.59442e-18 
0.353647 -6.52717 1.03837e-17 
0.564422 -6.518 1.26534e-17 
0.775531 -6.51161 -3.69054e-18 
0.990307 -6.48617 1.60862e-17 
1.21105 -6.46255 3.31399e-16 
1.43015 -6.42564 6.03488e-17 
1.64716 -6.37436 -2.09381e-17 
1.88235 -6.54812 -7.05974e-18 
2.09913 -6.50754 -1.10998e-17 
2.30976 -6.42529 1.405e-17 
2.49992 -6.61441 1.15019e-13 
2.68447 -6.54168 -1.85996e-13 
2.94351 -6.42929 -9.30469e-14 
-3.28906 -6.25956 1.05761e-13 
-3.07352 -6.36816 -2.20602e-14 
-2.84941 -6.21633 9.15021e-19 
-2.62744 -6.2961 -2.83327e-18 
-2.38509 -6.15445 -1.5661e-17 
-2.17522 -6.22947 -4.39018e-17 
-1.94384 -6.28106 -1.73132e-17 
-1.74502 -6.32825 -1.52746e-17 
-1.5477 -6.1558 1.0822e-17 
-1.3315 -6.20679 6.96223e-17 
-1.11078 -6.22208 -1.06802e-16 
-0.897755 -6.27244 4.55264e-17 
-0.693377 -6.25226 -1.07644e-16 
-0.488249 -6.28683 2.56711e-17 
-0.274934 -6.27657 6.26073e-18 
-0.0631791 -6.27793 -4.12766e-17 
0.142043 -6.29211 1.15011e-17 
0.348254 -6.27378 3.27132e-17 
0.556416 -6.26975 -3.16489e-17 
0.763977 -6.2608 -5.92798e-18 
0.970902 -6.24307 -3.37952e-18 
1.18715 -6.22279 -8.65634e-17 
1.39828 -6.18971 4.90507e-17 
1.61827 -6.13947 4.7347e-17 
1.85228 -6.29456 1.09087e-16 
2.05989 -6.25446 2.63624e-17 
2.26313 -6.18006 -1.57593e-17 
2.50997 -6.33192 2.57047e-18 
2.73829 -6.2902 -1.3608e-17 
2.948 -6.16891 -5.23889e-18 
3.16465 -6.32337 4.15069e-14 
3.36766 -6.21763 -7.56508e-14 
-3.72132 -6.01263 7.38584e-14 
-3.5075 -6.13982 2.99294e-14 
-3.28136 -6.00186 -1.08895e-18 
-3.06552 -6.10446 4.46614e-18 
-2.82521 -5.97149 1.09576e-17 
-2.60394 -6.05139 -4.10468e-17 
-2.38473 -5.91713 1.41424e-18 
-2.16943 -5.98237 -4.5958e-17 
-1.96555 -6.04879 3.0904e-17 
-1.7451 -6.06456 1.33306e-17 
-1.53257 -5.92795 -5.62185e-18 
-1.33089 -5.9875 5.76886e-18 
-1.1177 -5.99948 3.49629e-17 
-0.899475 -6.04218 -1.5061e-17 
-0.688636 -6.02158 -5.41976e-17 
-0.484047 -6.05573 -2.65953e-17 
-0.279751 -6.04235 -1.07003e-17 
-0.0731334 -6.04217 1.34525e-17 
0.137253 -6.04687 3.83363e-19 
0.344868 -6.03887 6.68805e-18 
0.550131 -6.03458 -9.27417e-18 
0.75859 -6.02289 3.34956e-17 
0.975376 -6.02047 4.32531e-19 
1.18141 -5.98532 -2.98691e-17 
1.39901 -5.97455 2.37303e-17 
1.61083 -5.91666 2.79853e-17 
1.82637 -6.04982 -3.27845e-17 
2.03587 -6.0114 -2.37959e-17 
2.25849 -5.95202 4.56685e-17 
2.48091 -6.09621 1.05128e-16 
2.69325 -6.04536 -6.2563e-18 
2.90538 -5.93597 2.7259e-17 
3.15896 -6.0595 6.35811e-18 
3.37405 -5.95526 2.28738e-18 
3.59173 -6.09093 -1.08548e-13 
-3.93566 -5.87457 2.56587e-14 
-3.70286 -5.75775 2.27467e-17 
-3.49474 -5.87709 1.00462e-18 
-3.25667 -5.75688 6.52137e-18 
-3.0389 -5.85317 -1.88082e-17 
-2.81851 -5.73128 9.37568e-18 
-2.60517 -5.81111 4.55003e-17 
-2.39687 -5.69804 3.13744e-18 
-2.17707 -5.75834 1.73966e-17 
-1.96343 -5.81574 2.56683e-18 
-1.75995 -5.84534 2.48089e-17 
-1.55153 -5.73588 3.70334e-18 
-1.30986 -5.77602 -1.19203e-17 
-1.10267 -5.77745 9.6946e-18 
-0.90006 -5.8357 -4.76631e-18 
-0.702053 -5.7932 4.54332e-18 
-0.504982 -5.83444 7.19907e-19 
-0.300722 -5.82036 8.33278e-18 
-0.0924367 -5.81908 1.60251e-17 
0.116191 -5.82914 -6.23471e-19 
0.32796 -5.82227 -4.20443e-18 
0.540887 -5.81306 6.30158e-18 
0.745276 -5.80834 -9.7775e-18 
0.96325 -5.80565 3.57983e-18 
1.18586 -5.77647 -1.04957e-17 
1.3985 -5.76944 -1.99408e-18 
1.62422 -5.71457 -1.48988e-17 
1.82621 -5.82126 -1.43246e-17 
2.04904 -5.79694 4.50306e-17 
2.2641 -5.72983 -3.0891e-18 
2.46502 -5.85199 -3.64894e-18 
2.66658 -5.80756 -2.92293e-17 
2.88045 -5.71151 4.73235e-17 
3.12053 -5.8215 3.45627e-17 
3.34579 -5.71603 1.47426e-17 
3.59349 -5.82682 1.6432e-17 
3.81705 -5.95232 8.88837e-14 
4.0306 -5.80984 -6.6541e-14 
-4.37385 -5.55603 6.02457e-14 
-4.15491 -5.7216 1.28651e-13 
-3.91947 -5.62 1.0918e-18 
-3.67825 -5.51754 8.69904e-18 
-3.45915 -5.62147 -1.52139e-17 
-3.2376 -5.51113 -1.3102e-17 
-3.03612 -5.60909 2.56255e-17 
-2.8242 -5.5122 -1.59493e-17 
-2.60724 -5.58022 2.9566e-18 
-2.40005 -5.48903 1.87356e-17 
-2.18738 -5.55275 -1.43097e-18 
-1.96954 -5.60274 -4.43817e-18 
-1.76034 -5.62454 8.12846e-18 
-1.56909 -5.52394 3.04358e-18 
-1.36673 -5.59151 2.91668e-18 
-1.14056 -5.57391 1.6882e-18 
-0.909413 -5.62437 5.15521e-19 
-0.693806 -5.5939 3.07685e-18 
-0.471835 -5.62022 1.46255e-18 
-0.253895 -5.61229 6.39799e-19 
-0.0386656 -5.61308 1.52961e-18 
0.171914 -5.62329 -4.17778e-18 
0.388952 -5.61953 4.16691e-19 
0.597209 -5.59655 -4.83001e-18 
0.813211 -5.61333 -5.97703e-19 
1.03259 -5.60573 -7.56357e-18 
1.25292 -5.57038 7.34358e-19 
1.46362 -5.57272 -6.55616e-18 
1.67747 -5.51072 1.7961e-18 
1.85505 -5.6133 2.86331e-18 
2.06045 -5.58395 -1.00689e-17 
2.25601 -5.51308 4.43761e-18 
2.459 -5.60938 4.22584e-18 
2.66419 -5.58566 2.29773e-17 
2.89515 -5.50449 -1.12453e-17 
3.1096 -5.59631 -5.79152e-17 
3.31934 -5.48197 -1.88222e-17 
3.55906 -5.58113 -9.54213e-19 
3.80401 -5.68294 -6.37594e-18 
4.00944 -5.55161 -3.63257e-18 
4.23923 -5.65941 -6.08526e-14 
-4.58844 -5.38017 8.93889e-14 
-4.33887 -5.31158 2.95392e-18 
-4.12814 -5.47094 3.56068e-18 
-3.88637 -5.36997 -2.61074e-17 
-3.66189 -5.28081 -1.62416e-17 
-3.45091 -5.37763 9.23828e-18 
-3.23587 -5.29394 -9.33415e-18 
-3.02016 -5.37491 5.11921e-18 
-2.81681 -5.29313 -4.06195e-18 
-2.62364 -5.3681 7.18129e-18 
-2.41673 -5.2955 -1.78393e-18 
-2.19323 -5.34837 4.41802e-18 
-1.98792 -5.39629 3.11243e-18 
-1.78072 -5.41147 -2.78592e-17 
-1.5466 -5.34539 1.72106e-18 
-1.31863 -5.40273 6.17841e-19 
-1.12073 -5.35316 -3.78955e-17 
-0.945375 -5.4325 7.21674e-18 
-0.748632 -5.3925 -4.49547e-17 
-0.536958 -5.41522 6.55017e-19 
-0.330329 -5.41863 -1.2356e-17 
-0.108246 -5.41141 -3.68436e-17 
0.105679 -5.41409 -2.0862e-17 
0.314232 -5.42316 4.5129e-17 
0.523654 -5.40116 3.32778e-17 
0.749602 -5.41079 -4.37497e-19 
0.955231 -5.41787 2.55196e-17 
1.16773 -5.39523 -3.8252e-19 
1.39791 -5.37865 1.60626e-17 
1.58981 -5.34392 -4.48508e-19 
1.83683 -5.36962 -2.13101e-18 
2.0213 -5.38042 -4.79637e-18 
2.22911 -5.32281 -4.80369e-18 
2.45627 -5.38998 -3.19579e-18 
2.68145 -5.39322 3.15545e-18 
2.89157 -5.30062 -3.04798e-19 
3.10129 -5.37234 -4.23676e-17 
3.30173 -5.25809 7.39628e-18 
3.52281 -5.34674 3.78226e-17 
3.76133 -5.42957 1.38854e-17 
3.97726 -5.30948 -8.43969e-18 
4.21327 -5.40019 -6.77835e-19 
4.43621 -5.50636 4.3041e-14 
-4.79706 -5.19502 7.98829e-14 
-4.54643 -5.13891 5.45139e-18 
-4.30355 -5.06677 -4.23512e-17 
-4.09523 -5.22584 -8.69483e-18 
-3.86228 -5.12784 9.96772e-18 
-3.64991 -5.05504 -4.19428e-17 
-3.45392 -5.14983 3.07049e-17 
-3.25377 -5.09069 -1.65161e-17 
-3.03133 -5.16204 -4.00117e-18 
-2.81865 -5.09925 9.72456e-18 
-2.60373 -5.15315 -1.87413e-18 
-2.36185 -5.12332 -1.11254e-18 
-2.15123 -5.15614 -6.51439e-19 
-1.946 -5.19632 -1.95733e-17 
-1.7374 -5.21405 9.94889e-19 
-1.55194 -5.12068 -3.28079e-17 
-1.36512 -5.20498 -2.60996e-17 
-1.1569 -5.15873 -7.77199e-18 
-0.921386 -5.20774 -1.01893e-17 
-0.687914 -5.19458 -5.87035e-18 
-0.478833 -5.20421 -1.7544e-18 
-0.260562 -5.21886 -1.24157e-17 
-0.044446 -5.20038 2.63995e-18 
0.165202 -5.2015 3.8163e-18 
0.368662 -5.20522 9.28737e-18 
0.599688 -5.21184 1.34238e-17 
0.807399 -5.19878 3.91026e-18 
1.00827 -5.21159 1.50248e-17 
1.23959 -5.20948 8.83831e-18 
1.43202 -5.15661 3.05012e-17 
1.67213 -5.18415 -7.98148e-19 
1.8968 -5.17092 -4.47251e-19 
2.0962 -5.16095 3.09293e-17 
2.29032 -5.0932 4.78744e-17 
2.43881 -5.19885 -2.31001e-18 
2.65826 -5.20607 -2.86e-18 
2.86854 -5.11365 -3.58368e-18 
3.09145 -5.1601 -8.67719e-18 
3.30476 -5.05582 -6.33723e-19 
3.52025 -5.13143 2.42091e-17 
3.7387 -5.19591 -1.55117e-17 
3.9353 -5.07518 2.19892e-17 
4.17281 -5.14926 3.88802e-17 
4.40957 -5.23593 3.75917e-18 
4.64414 -5.33216 9.80499e-14 
4.85679 -5.13922 -1.31303e-13 
-5.0032 -4.9968 -1.06877e-14 
-4.75539 -4.95618 -6.39359e-19 
-4.50839 -4.89636 -9.21303e-18 
-4.26806 -4.83365 -2.13981e-17 
-4.06976 -4.9928 -3.96593e-18 
-3.85949 -4.90167 6.24506e-17 
-3.65455 -4.85202 -5.60945e-18 
-3.44138 -4.92509 5.45938e-18 
-3.23912 -4.88137 1.31124e-17 
-3.05336 -4.96765 -1.44561e-17 
-2.87304 -4.89797 -6.41804e-19 
-2.6593 -4.94769 2.46951e-18 
-2.45291 -4.96058 3.59319e-17 
-2.21091 -4.95482 3.09222e-17 
-1.99279 -4.97917 -4.14865e-17 
-1.7871 -5.00046 -1.82197e-17 
[...]
POINT_DATA 3402 
VECTORS vectors float
-0.000406882 0.000113387 1 
-0.000397343 0.000112861 1 
0.000174361 -9.03583e-05 1 
-0.000565842 3.56944e-05 1 
5.48102e-05 0.000124471 1 
0.000110947 -0.000198224 1 
-0.000981032 0.000227548 0.999999 
0.000364457 -0.000126286 1 
-0.000598032 2.49676e-05 1 
0.000269204 5.33636e-05 1 
-0.00036308 -0.000159464 1 
-0.000334574 0.000140741 1 
-4.51741e-05 -0.000151914 1 
-0.000432546 2.89903e-05 1 
0.000393414 4.12935e-05 1 
-0.000386451 -0.000120336 1 
-3.02789e-05 0.000134159 1 
0.00022494 -0.000126241 1 
-0.000637239 0.000256494 1 
0.000169602 -0.00017377 1 
-0.0155102 0.0041196 0.999871 
-0.00319466 0.000281435 0.999995 
-0.0123045 1.40038e-05 0.999924 
0.00772438 -0.000649038 0.99997 
-0.0227655 0.00180165 0.999739 
-0.00498263 -0.000292727 0.999988 
-0.0221532 0.000320448 0.999755 
-0.0234841 0.000147184 0.999724 
0.00202386 0.0018184 0.999996 
-0.0214805 -0.0013877 0.999768 
-0.00789819 -0.00138599 0.999968 
-0.0228459 -0.00261811 0.999736 
-0.00416324 -2.50237e-05 0.999991 
-0.0184322 -0.00227516 0.999828 
0.00286281 0.00115988 0.999995 
0.000230297 -0.000904492 1 
0.000128036 4.68548e-05 1 
6.95458e-06 5.67018e-05 1 
-0.000251762 -0.000217566 1 
9.2915e-05 9.11763e-05 1 
-0.000130626 -6.79803e-05 1 
0.00681474 -0.00128819 0.999976 
-0.0028744 0.000898259 0.999995 
0.000356209 -0.00165678 0.999999 
-0.0246618 0.00680938 0.999673 
0.0323302 -0.00934215 0.999434 
0.0427459 -0.00715311 0.99906 
0.02783 -0.00480442 0.999601 
0.0475692 -0.00766449 0.998839 
0.0459917 -0.00676511 0.998919 
0.0434805 -0.00485686 0.999042 
0.0562986 -0.00107484 0.998413 
0.054064 -0.000184549 0.998537 
0.0504811 0.00121057 0.998724 
0.0491527 0.00250009 0.998788 
0.0557352 0.00476197 0.998434 
0.0386355 0.00457757 0.999243 
0.0493698 0.00735835 0.998753 
0.0324289 0.0054066 0.999459 
0.027838 0.00520262 0.999599 
0.0270433 0.00853434 0.999598 
-0.0220183 -0.00615106 0.999739 
0.00830901 0.00374315 0.999958 
0.00083913 -0.00124112 0.999999 
0.000199879 0.000188003 1 
-0.000255132 -0.000119448 1 
0.000293629 6.21897e-05 1 
0.000107345 3.56273e-05 1 
4.97105e-07 -5.39855e-05 1 
0.00880077 -0.00423799 0.999952 
-0.00539722 0.00233774 0.999983 
0.0198491 -0.00689666 0.999779 
0.0123091 -0.00340901 0.999918 
0.0402106 -0.0106591 0.999134 
0.0454721 -0.0107994 0.998907 
0.131136 -0.0334858 0.990799 
0.127761 -0.0275284 0.991423 
0.135967 -0.0234886 0.990435 
0.129979 -0.0186983 0.99134 
0.140465 -0.0152289 0.989968 
0.134774 -0.0105237 0.990821 
0.13497 -0.00534288 0.990835 
0.136965 -0.000590328 0.990576 
0.134641 0.00310577 0.99089 
0.13706 0.00728964 0.990536 
0.132253 0.0117768 0.991146 
0.138381 0.0165821 0.99024 
0.13284 0.0203312 0.990929 
0.135822 0.0260401 0.990391 
0.124081 0.0273479 0.991895 
0.126423 0.0332852 0.991418 
0.0437445 0.0123486 0.998966 
0.0240857 0.00735002 0.999683 
0.0220491 0.00822107 0.999723 
-0.017687 -0.00721498 0.999818 
0.00741959 0.00545222 0.999958 
0.014557 0.00815591 0.999861 
5.30741e-05 -2.41046e-05 1 
-7.36693e-05 3.967e-05 1 
0.000135767 4.13202e-06 1 
9.37338e-06 -2.85173e-05 1 
0.0100325 -0.00544626 0.999935 
-0.000314751 -0.000317778 1 
0.00932626 -0.00465086 0.999946 
0.0204864 -0.00820272 0.999756 
0.113458 -0.0457328 0.99249 
0.124799 -0.0449642 0.991163 
0.123165 -0.0405932 0.991556 
0.133928 -0.0386319 0.990238 
0.113652 -0.0298306 0.993073 
0.113358 -0.025443 0.993228 
0.108262 -0.0202199 0.993917 
0.112447 -0.0162785 0.993524 
0.0970732 -0.0102378 0.995225 
0.106267 -0.00785073 0.994307 
0.0965846 -0.0040826 0.995316 
0.0946154 -0.00101471 0.995513 
0.0993516 0.0022331 0.99505 
0.0949867 0.00538798 0.995464 
0.105033 0.00941778 0.994424 
0.10012 0.0123673 0.994899 
0.112435 0.0179897 0.993496 
0.10642 0.0212636 0.994094 
0.119734 0.0278472 0.992415 
0.112344 0.030648 0.993197 
0.1336 0.0413593 0.990172 
0.114771 0.0392085 0.992618 
0.120534 0.0454501 0.991668 
0.0327093 0.0123868 0.999388 
0.014787 0.00669602 0.999868 
0.000986621 1.46568e-06 1 
0.00589724 0.00221361 0.99998 
0.00381032 0.00143878 0.999992 
0.00016543 -4.66667e-05 1 
9.02306e-05 -5.20953e-05 1 
0.00924324 -0.00584019 0.99994 
0.00297661 -0.0018907 0.999994 
0.00207617 -0.00129676 0.999997 
0.0137202 -0.00708417 0.999881 
0.104901 -0.0525063 0.993096 
0.115007 -0.052399 0.991982 
0.120708 -0.0514482 0.991354 
0.116449 -0.0445271 0.992198 
0.113601 -0.0390109 0.99276 
0.106181 -0.0326719 0.99381 
0.0628528 -0.0173478 0.997872 
0.060376 -0.0139316 0.998078 
0.0437215 -0.00848504 0.999008 
0.0583832 -0.0087785 0.998256 
0.0395122 -0.00463011 0.999208 
0.0444144 -0.00359294 0.999007 
0.0399542 -0.0020948 0.999199 
0.038083 -0.000831391 0.999274 
0.0431402 0.00097695 0.999069 
0.0409164 0.00244452 0.99916 
0.043389 0.00406282 0.99905 
0.0428683 0.00551988 0.999065 
0.0524502 0.00884248 0.998584 
0.0523865 0.0110468 0.998566 
0.0607193 0.0147934 0.998045 
0.0639931 0.0185531 0.997778 
0.103754 0.0331801 0.994049 
0.11828 0.0418145 0.992099 
0.115093 0.0454519 0.992314 
0.127688 0.0541702 0.990334 
0.102905 0.0473568 0.993563 
0.101453 0.0509739 0.993534 
0.010956 0.00539598 0.999925 
-0.00120046 -0.000975899 0.999999 
0.0110077 0.00671369 0.999917 
0.000181096 0.000120283 1 
7.09259e-05 -2.02874e-05 1 
0.000180882 -7.86585e-05 1 
0.000225395 -7.30728e-05 1 
0.00520249 -0.00371039 0.99998 
-0.00404271 0.0025191 0.999989 
0.009531 -0.0056924 0.999938 
0.0987221 -0.0583915 0.9934 
0.106693 -0.058394 0.992576 
0.12117 -0.0629161 0.990636 
0.111507 -0.0530384 0.992347 
0.0701884 -0.0313948 0.99704 
0.0669071 -0.0267281 0.997401 
0.0599148 -0.0213876 0.997974 
0.0487966 -0.0157322 0.998685 
0.020445 -0.00605702 0.999773 
0.0238048 -0.00599449 0.999699 
0.0146861 -0.00314768 0.999887 
0.0169966 -0.00279604 0.999852 
0.0103317 -0.00146054 0.999946 
0.0120708 -0.00108375 0.999927 
0.00964231 -0.000567565 0.999953 
0.0100822 -0.000217849 0.999949 
0.0112156 0.000527783 0.999937 
0.0115375 0.000855859 0.999933 
0.010112 0.00134881 0.999948 
0.0144966 0.00226871 0.999892 
0.017003 0.00349875 0.999849 
0.0175355 0.00406136 0.999838 
0.0241232 0.00663391 0.999687 
0.0220669 0.00675159 0.999734 
0.0512817 0.0172046 0.998536 
0.0647642 0.0241223 0.997609 
0.0632353 0.0259989 0.99766 
0.107301 0.0470572 0.993112 
0.115883 0.0554115 0.991716 
0.123084 0.0653983 0.990239 
0.101693 0.0572695 0.993166 
0.0937094 0.0574328 0.993942 
-0.0010172 -0.000767963 0.999999 
-0.00202488 -0.00055601 0.999998 
0.0137515 0.0110281 0.999845 
4.84949e-05 1.27968e-05 1 
0.000236663 -0.000122861 1 
0.00974844 -0.00745713 0.999925 
0.0142201 -0.0104847 0.999844 
-0.00214768 0.0021248 0.999995 
0.0827441 -0.0572118 0.994927 
0.0983821 -0.0632399 0.993137 
0.11594 -0.0713149 0.990693 
0.108893 -0.0618076 0.99213 
0.0717853 -0.0386623 0.996671 
0.0660504 -0.0329016 0.997274 
0.0307841 -0.0142364 0.999425 
0.0241515 -0.0101603 0.999657 
0.0217961 -0.00829452 0.999728 
0.0134565 -0.00465004 0.999899 
0.00429537 -0.00150312 0.99999 
0.00502377 -0.00133569 0.999986 
0.00181726 -0.000451144 0.999998 
0.00357552 -0.000614295 0.999993 
0.00118635 -0.000246901 0.999999 
0.00158398 -0.000311413 0.999999 
0.00135508 -0.000130446 0.999999 
0.00118812 -9.32471e-05 0.999999 
0.0012136 2.61374e-05 0.999999 
0.00146682 0.000193738 0.999999 
0.00126194 0.000273442 0.999999 
0.00189856 0.000426253 0.999998 
0.00267538 0.000609434 0.999996 
0.0035933 0.000913618 0.999993 
0.0047182 0.00135176 0.999988 
0.00490822 0.00159059 0.999987 
0.0114722 0.00414575 0.999926 
0.0210285 0.0082584 0.999745 
0.0231479 0.0098823 0.999683 
0.0510787 0.0234384 0.99842 
0.0777321 0.0388735 0.996216 
0.0802277 0.0443328 0.99579 
0.11421 0.0670919 0.991189 
0.11348 0.071982 0.990929 
0.0906894 0.0599139 0.994075 
0.00912767 0.00652221 0.999937 
-0.0116174 -0.0084048 0.999897 
0.0141547 0.00951926 0.999855 
0.000205694 0.00010311 1 
0.000220682 -0.000111406 1 
0.0142994 -0.0122301 0.999823 
-0.00866129 0.0087571 0.999924 
-0.00962924 0.00784801 0.999923 
0.0835549 -0.0626458 0.994532 
0.112309 -0.0809694 0.990369 
0.108738 -0.0732822 0.991366 
0.0848164 -0.0544401 0.994908 
0.0652245 -0.0387145 0.997119 
0.030728 -0.0173845 0.999377 
0.0235865 -0.0121121 0.999648 
0.0087801 -0.00406116 0.999953 
0.00524159 -0.00222229 0.999984 
0.00408061 -0.00162636 0.99999 
0.00202232 -0.000958325 0.999997 
8.36923e-05 -0.000242158 1 
0.000347321 -0.000200183 1 
-0.000276952 1.09672e-05 1 
-9.38233e-05 -6.56089e-05 1 
-0.000230846 -6.26571e-05 1 
-0.000211456 2.01342e-05 1 
-0.000144089 -1.16123e-05 1 
-0.000221231 3.95155e-06 1 
-0.000241998 4.59934e-05 1 
-0.000249327 0.000116252 1 
-0.000263984 0.00011165 1 
-0.000195027 -2.40025e-06 1 
-3.48121e-05 9.27477e-05 1 
0.000162772 8.73613e-05 1 
0.0001825 0.000205874 1 
0.000750612 0.000501615 1 
0.00223917 0.000973461 0.999997 
0.00514824 0.00223191 0.999984 
0.00494966 0.0023596 0.999985 
0.0180327 0.00862396 0.9998 
0.0336362 0.0174565 0.999282 
0.036179 0.0205363 0.999134 
0.0714515 0.0434429 0.996498 
0.0797755 0.0525081 0.995429 
0.112758 0.0776007 0.990588 
0.0903794 0.0659422 0.993722 
0.0782297 0.0603044 0.99511 
-0.00540559 -0.00554703 0.99997 
0.00988779 0.00588413 0.999934 
0.000145395 2.63939e-05 1 
0.000199761 0.000145496 1 
0.000232153 -0.000131582 1 
0.0140911 -0.0140353 0.999802 
-0.0124934 0.0118389 0.999852 
0.0636543 -0.0549505 0.996458 
0.0690902 -0.0557132 0.996054 
0.108759 -0.0860537 0.990336 
0.086567 -0.0654869 0.994091 
0.0657302 -0.0462908 0.996763 
0.034236 -0.0231527 0.999146 
0.0312581 -0.0195839 0.999319 
0.010715 -0.00645707 0.999922 
0.0068571 -0.00397489 0.999969 
0.00293176 -0.00145746 0.999995 
0.000929806 -0.000350121 1 
0.000395066 -0.000343337 1 
5.24056e-06 -0.000158012 1 
-0.000463324 -4.31519e-05 1 
-0.00042875 5.92751e-05 1 
-0.000444505 4.71701e-05 1 
-0.000481991 -8.59959e-05 1 
-0.000430282 -3.62327e-05 1 
-0.000434993 -3.15346e-05 1 
-0.000358926 -9.57071e-05 1 
-0.000337715 1.07032e-05 1 
-0.000314652 2.88494e-05 1 
-0.000299948 9.69826e-05 1 
-0.000287154 0.000123889 1 
-0.000254634 -4.30895e-05 1 
-0.000259564 3.47526e-05 1 
-0.000334052 5.0777e-05 1 
-0.000307871 -7.0387e-05 1 
-0.000247997 4.28702e-05 1 
3.97496e-05 4.50274e-05 1 
0.000527767 0.000251264 1 
0.000598524 0.000368719 1 
0.00334579 0.00176289 0.999993 
0.0109925 0.00594305 0.999922 
0.0126516 0.0073383 0.999893 
0.0337105 0.0209592 0.999212 
0.0348332 0.0234902 0.999117 
0.0756367 0.0536876 0.995689 
0.108154 0.0808652 0.99084 
0.10769 0.0861282 0.990447 
0.0805412 0.066554 0.994527 
0.00277711 0.00274877 0.999992 
-0.00513578 -0.0025224 0.999984 
0.0109538 0.0136337 0.999847 
3.46883e-05 -3.59689e-05 1 
0.000161977 -0.000101933 1 
0.013644 -0.0144721 0.999802 
-0.0119945 0.0112087 0.999865 
0.053892 -0.0517271 0.997206 
0.100554 -0.091642 0.990702 
0.104756 -0.088586 0.990545 
0.0742456 -0.06127 0.995356 
0.0404325 -0.0321695 0.998664 
0.0319459 -0.0239116 0.999204 
0.0124875 -0.00917384 0.99988 
0.00762233 -0.00531084 0.999957 
0.00191482 -0.00131634 0.999997 
0.000829724 -0.000535321 1 
0.000193407 -4.95677e-05 1 
-3.72308e-05 3.8225e-05 1 
-0.000200021 4.69417e-05 1 
-0.000203556 3.259e-05 1 
-0.000212695 -5.73898e-05 1 
-0.000242125 8.32874e-05 1 
-0.000237625 3.85821e-05 1 
-0.000190444 -3.88653e-05 1 
-0.000288282 -7.63537e-05 1 
-0.000234586 -6.84336e-05 1 
-0.00033691 -1.94342e-05 1 
-0.000317295 -4.9552e-05 1 
-0.000255303 -3.44286e-06 1 
-0.000194015 4.78285e-05 1 
-0.000138014 8.40329e-05 1 
-0.000124273 2.18848e-05 1 
-0.000263196 6.37593e-05 1 
-0.000166403 6.1461e-05 1 
-0.00025613 2.61794e-05 1 
-0.000310077 -5.37669e-06 1 
-0.000270296 -0.00024791 1 
-0.000182321 7.58295e-05 1 
-4.41088e-05 2.97275e-05 1 
0.000313918 0.000308112 1 
0.00251046 0.00143967 0.999996 
0.00229863 0.00129235 0.999997 
0.0099439 0.00633587 0.99993 
0.0103781 0.00718226 0.99992 
0.0324408 0.02354 0.999196 
0.0647803 0.0500311 0.996645 
0.0705911 0.0584071 0.995794 
0.101404 0.0875717 0.990984 
0.0843489 0.0771918 0.993442 
0.00247547 0.0037208 0.99999 
-0.011163 -0.0107259 0.99988 
0.0188246 0.0183271 0.999655 
0.000136805 9.29252e-05 1 
0.000194239 -0.000119631 1 
0.0135873 -0.0148257 0.999798 
-0.0121098 0.0127444 0.999845 
0.0464478 -0.0494669 0.997695 
0.0978388 -0.09891 0.990275 
0.0855639 -0.0826188 0.992901 
0.0796442 -0.070538 0.994324 
0.0356808 -0.0309063 0.998885 
0.0147571 -0.0124002 0.999814 
0.00891763 -0.00716141 0.999935 
0.0025304 -0.00210896 0.999995 
0.000820075 -0.000822606 0.999999 
-6.26377e-05 -0.000165012 1 
-0.000176832 1.95781e-06 1 
-0.000182121 9.83506e-05 1 
-0.000165474 0.000122862 1 
-0.000144701 -3.45367e-05 1 
-8.54438e-05 2.89026e-05 1 
-0.000115872 1.5692e-05 1 
-0.000117783 5.33932e-05 1 
-5.40995e-05 8.77319e-06 1 
-0.000112122 -1.52961e-05 1 
-0.00015215 -6.26504e-06 1 
-0.000186679 -8.04832e-05 1 
-0.000198763 3.99211e-06 1 
-0.000161202 -8.33742e-05 1 
-0.000146101 -4.39702e-05 1 
-0.000122574 -1.53836e-05 1 
-7.48973e-05 2.21089e-05 1 
1.97301e-05 0.000109075 1 
-6.53544e-06 0.000160494 1 
-0.000215637 2.43933e-05 1 
-0.000147008 3.34016e-05 1 
-0.000139867 8.84189e-06 1 
-0.000210625 -0.000167786 1 
-0.00023029 -7.05788e-05 1 
-0.000279121 -4.59287e-05 1 
-0.000149147 -0.000119607 1 
0.000196957 6.10159e-05 1 
0.000124294 1.18558e-05 1 
0.00212297 0.00136573 0.999997 
0.00839746 0.00619613 0.999946 
0.023834 0.0187835 0.999539 
0.029856 0.025468 0.99923 
0.0616239 0.054868 0.99659 
0.0927972 0.0871055 0.991868 
0.0927786 0.0912812 0.991494 
0.0649457 0.0664353 0.995675 
-0.00247009 -0.00514275 0.999984 
0.00675852 0.00432627 0.999968 
0.000140278 7.4802e-05 1 
0.000181957 -0.000133598 1 
0.00935642 -0.0111719 0.999894 
-0.00846913 0.00937469 0.99992 
0.05455 -0.0623125 0.996565 
0.0941555 -0.102287 0.990289 
0.0775596 -0.0808802 0.993702 
0.041718 -0.0415638 0.998265 
0.0510891 -0.0477781 0.997551 
0.0189778 -0.0177837 0.999662 
0.00872735 -0.00775068 0.999932 
0.00294438 -0.00263651 0.999992 
0.00115672 -0.00103309 0.999999 
6.76921e-05 -0.00020288 1 
-0.000194631 -4.09876e-05 1 
-0.000250677 1.23219e-06 1 
-0.000236053 2.23384e-05 1 
-0.000182138 1.53819e-05 1 
-9.11339e-05 4.93053e-05 1 
-0.000123712 -7.98408e-05 1 
-8.31996e-05 6.35231e-05 1 
-3.33352e-05 -7.54125e-05 1 
1.57635e-05 7.95722e-05 1 
5.9815e-06 -5.30063e-05 1 
-1.96006e-06 0.000105533 1 
-1.82072e-05 -5.27202e-05 1 
-6.52041e-05 -1.32786e-05 1 
-3.83463e-06 -8.03478e-05 1 
-4.93902e-05 -2.7551e-05 1 
-9.63628e-05 -1.2233e-05 1 
-0.000103472 -3.73879e-05 1 
-0.000154688 -1.18486e-05 1 
-6.61208e-05 0.000102718 1 
-5.62231e-08 0.000176976 1 
-3.25146e-05 5.36884e-05 1 
-6.20128e-05 -3.54233e-05 1 
-9.58041e-05 -5.5157e-05 1 
-0.000217635 -1.27058e-05 1 
-0.000205225 -7.19781e-05 1 
-0.00013824 -0.000201515 1 
-0.00016632 -6.54486e-05 1 
-7.33174e-05 -0.000104723 1 
2.71356e-05 -3.46468e-05 1 
0.00128105 0.00109872 0.999999 
0.00363304 0.00290144 0.999989 
0.00803648 0.0070246 0.999943 
0.021818 0.0198689 0.999565 
0.0493422 0.0470368 0.997674 
0.0845111 0.0853617 0.992759 
0.0973702 0.103038 0.9899 
0.0674461 0.0726471 0.995075 
0.005161 0.0052748 0.999973 
0.00377175 0.00635366 0.999973 
0.000150214 0.000102274 1 
0.000135672 -9.46626e-05 1 
0.00501621 -0.0074182 0.99996 
-0.00523587 0.0054734 0.999971 
0.0613398 -0.0754594 0.99526 
0.0904184 -0.105342 0.990317 
0.0678944 -0.0761351 0.994783 
0.0336966 -0.0359976 0.998784 
0.0141168 -0.0141122 0.999801 
0.00407489 -0.00402753 0.999984 
0.00148855 -0.00143196 0.999998 
0.000279661 -0.000277545 1 
-5.00799e-05 -5.89214e-06 1 
-0.000156764 3.43186e-05 1 
-0.000174559 5.40229e-06 1 
-0.000160489 -2.37173e-06 1 
-0.000164006 -9.01657e-06 1 
-0.000167705 -1.94777e-06 1 
-0.000170657 -1.12178e-06 1 
-0.000154489 -5.22023e-05 1 
-0.000105805 -5.31005e-05 1 
-4.10223e-05 -4.96689e-05 1 
-1.1937e-05 1.11728e-05 1 
-1.43462e-05 3.74968e-05 1 
1.16425e-05 1.4421e-06 1 
5.11254e-05 -2.45186e-05 1 
3.85984e-05 -6.6521e-05 1 
1.12462e-05 -1.71732e-05 1 
-5.58598e-06 2.68817e-05 1 
5.25587e-06 -3.22099e-05 1 
-1.70213e-05 9.91685e-05 1 
-0.000151925 -1.84784e-05 1 
-9.04045e-05 3.01949e-05 1 
-0.000102648 0.000175871 1 
-3.11796e-05 4.0466e-05 1 
-2.49546e-05 -2.97655e-06 1 
-2.61366e-05 1.54493e-05 1 
1.53562e-05 -2.2012e-06 1 
-7.6007e-06 -5.60435e-05 1 
-6.74077e-05 -0.000118648 1 
-0.000107818 -0.000126815 1 
-9.37542e-05 -9.05767e-05 1 
-0.000150764 4.9127e-05 1 
0.000258144 0.000235391 1 
0.000608063 0.000637788 1 
0.00390345 0.00359924 0.999986 
0.00973901 0.00947339 0.999908 
0.0318166 0.0319947 0.998982 
0.0495599 0.0525346 0.997389 
0.0748788 0.0834026 0.993699 
0.0902579 0.105943 0.990267 
0.0641525 0.0793371 0.994781 
-0.00338312 -0.00207354 0.999992 
0.00855178 0.0138494 0.999868 
7.45766e-05 2.75867e-05 1 
7.93246e-05 -5.02261e-05 1 
0.00774195 -0.0118907 0.999899 
-0.00469842 0.00589123 0.999972 
0.0579028 -0.0771476 0.995337 
0.0853838 -0.109053 0.990362 
0.0713391 -0.0865591 0.993689 
0.0400838 -0.0465158 0.998113 
0.0148373 -0.0163645 0.999756 
0.00964421 -0.0101575 0.999902 
0.00209387 -0.00208699 0.999996 
0.000418824 -0.000471355 1 
-1.10898e-05 -4.68617e-05 1 
-0.000114238 6.24942e-05 1 
-0.000100141 5.14235e-05 1 
-5.62967e-05 -1.04344e-06 1 
-5.59305e-05 -5.13427e-06 1 
-5.1115e-05 1.83585e-05 1 
-9.47053e-05 6.6831e-06 1 
-0.000118545 1.36557e-05 1 
-0.000118618 -2.81958e-05 1 
-0.000134069 -8.3524e-05 1 
-0.000115396 -0.000100383 1 
-0.00014547 -1.67066e-05 1 
-5.74003e-05 -4.87391e-05 1 
-0.000251231 8.47384e-05 1 
-0.00064577 3.80876e-05 1 
-0.00207474 0.00012747 0.999998 
-0.00366693 6.7276e-05 0.999993 
-0.00150408 -1.35613e-05 0.999999 
-0.000545597 -1.04533e-05 1 
-0.000452044 -0.000110412 1 
5.77929e-05 9.65104e-05 1 
-4.79695e-05 8.3782e-05 1 
-2.45155e-05 8.49023e-05 1 
-9.34785e-06 3.74372e-05 1 
-2.85347e-05 -1.0425e-05 1 
-4.9148e-06 -1.42984e-05 1 
1.86637e-05 -2.28854e-05 1 
1.9288e-05 -3.93467e-05 1 
2.67799e-05 -6.85384e-06 1 
-9.93703e-05 -8.36024e-05 1 
-0.000256661 -7.8203e-05 1 
-0.00022635 -0.000106861 1 
-0.000110578 -4.30597e-05 1 
-7.5583e-05 3.13396e-05 1 
0.00118163 0.0011404 0.999999 
0.00226295 0.00235491 0.999995 
0.011386 0.0118945 0.999864 
0.0212574 0.0236429 0.999494 
0.0420857 0.0495095 0.997887 
0.0705238 0.0869248 0.993715 
0.0851825 0.110293 0.990242 
0.0598997 0.0810372 0.99491 
-0.00661238 -0.00867097 0.999941 
0.00691239 0.00975179 0.999929 
4.73577e-05 4.98547e-05 1 
6.4908e-05 -2.82016e-05 1 
0.00591442 -0.00843294 0.999947 
-0.00107624 0.00127319 0.999999 
0.0595394 -0.0857391 0.994537 
0.0811627 -0.112075 0.99038 
0.0570255 -0.0755956 0.995507 
0.0350506 -0.0439324 0.998419 
0.0135629 -0.0161359 0.999778 
0.0038071 -0.00403041 0.999985 
0.00172902 -0.00165651 0.999997 
0.00016928 -0.000130338 1 
-9.58769e-05 4.34502e-05 1 
-0.000113395 4.935e-05 1 
-5.80863e-05 7.70658e-06 1 
-9.87822e-06 -2.1471e-05 1 
1.61993e-05 -1.91016e-05 1 
8.79282e-06 2.51079e-05 1 
-2.85078e-05 5.24146e-05 1 
-4.89402e-05 2.85873e-05 1 
2.94213e-05 -3.52475e-05 1 
-5.07637e-05 3.97642e-05 1 
-0.000289099 -8.40813e-05 1 
-0.000391647 0.000156973 1 
-0.00132366 0.000247482 0.999999 
-0.00556276 0.00150766 0.999983 
-0.0114517 0.00220657 0.999932 
-0.0264761 0.0035783 0.999643 
-0.0386481 0.00276363 0.999249 
-0.0393453 -6.87178e-05 0.999226 
-0.0271189 -0.00193699 0.99963 
-0.00759936 -0.00121957 0.99997 
-0.0184625 -0.00406986 0.999821 
-0.00176554 -0.000353944 0.999998 
-0.00402427 -0.00112046 0.999991 
-9.73598e-05 5.57775e-05 1 
-0.000142812 -1.08963e-05 1 
-1.24122e-05 -8.08517e-06 1 
-2.95455e-05 -4.17186e-05 1 
-3.73259e-05 -3.63988e-05 1 
-2.69224e-05 -8.49004e-06 1 
-9.54128e-05 -4.30828e-05 1 
4.8964e-06 4.36787e-05 1 
-0.000127322 1.19919e-05 1 
-8.24373e-05 -0.00010605 1 
-0.00013065 -6.55257e-05 1 
-4.71861e-05 -0.000131074 1 
0.000139374 7.70993e-05 1 
0.000611486 0.000535482 1 
0.00419264 0.0045315 0.999981 
0.00938485 0.0112192 0.999893 
0.0270224 0.0337138 0.999066 
0.0491263 0.0650494 0.996672 
0.0760376 0.105117 0.991549 
0.0648336 0.0921817 0.993629 
0.00964387 0.0150542 0.99984 
0.00375276 0.00365203 0.999986 