# vtk DataFile Version 3.0 
Exported using Morpho https://github.com/Morpho-lang/morpho 
ASCII 
DATASET UNSTRUCTURED_GRID 

POINTS 3402 float 
-1.60103 -6.88743 -1.44913e-11 
-1.36496 -6.93807 4.03e-11 
-1.17303 -6.97309 -6.53001e-11 
-0.983278 -7.00237 -3.9481e-11 
-0.743081 -7.03192 5.57074e-11 
-0.529537 -7.05121 -8.11356e-11 
-0.313287 -7.06412 8.41306e-11 
-0.126684 -7.06993 -4.39772e-11 
0.0862695 -7.07054 -8.69389e-11 
0.330637 -7.06333 8.36515e-11 
0.532451 -7.05099 -7.29282e-11 
0.741639 -7.03207 2.42955e-12 
0.950766 -7.00686 -4.27624e-11 
1.17234 -6.97321 3.08016e-11 
1.38149 -6.9348 -1.36604e-10 
1.62039 -6.8829 6.46636e-11 
-2.41323 -6.64653 5.63735e-11 
-2.2052 -6.71842 -9.32443e-12 
-1.9709 -6.79084 1.12574e-10 
-1.78299 -6.84258 -3.53282e-12 
-1.56196 -6.63041 1.21219e-12 
-1.36086 -6.69683 -2.83502e-13 
-1.14461 -6.71478 -3.70573e-12 
-0.915973 -6.76886 9.21188e-13 
-0.683637 -6.77422 -1.84002e-12 
-0.470296 -6.80537 -6.13265e-14 
-0.26768 -6.78976 -1.70527e-12 
-0.0589538 -6.80811 8.86882e-13 
0.165402 -6.81662 8.18349e-13 
0.383559 -6.78966 -4.07513e-13 
0.593016 -6.78421 2.33471e-13 
0.808741 -6.76599 -4.22921e-14 
1.02263 -6.74345 5.02238e-13 
1.23149 -6.71048 1.84183e-12 
1.44669 -6.67561 4.36362e-13 
1.66577 -6.62208 -1.28951e-12 
1.84819 -6.82526 5.65351e-11 
2.04572 -6.76868 -1.26435e-10 
2.28672 -6.69111 5.02609e-11 
-2.84635 -6.47289 6.41403e-11 
-2.63568 -6.56149 2.15099e-12 
-2.42103 -6.40248 5.95308e-13 
-2.19085 -6.46126 1.42272e-13 
-1.98916 -6.54015 -1.68389e-12 
-1.77555 -6.58083 3.28037e-14 
-1.53835 -6.39492 -9.53709e-12 
-1.31783 -6.43759 9.97745e-12 
-1.10384 -6.46596 6.40853e-13 
-0.900844 -6.52675 -3.99311e-13 
-0.694828 -6.50803 -6.11744e-12 
-0.480274 -6.53574 -6.74739e-12 
-0.271465 -6.51945 1.01539e-11 
-0.067207 -6.53952 -7.5092e-13 
0.143246 -6.55296 -8.39703e-13 
0.352852 -6.52703 -8.53908e-13 
0.564031 -6.51608 -6.05877e-13 
0.775274 -6.5121 3.43269e-13 
0.990317 -6.48536 -2.41804e-13 
1.21125 -6.46372 -4.29737e-12 
1.4303 -6.4228 -4.5511e-12 
1.65019 -6.37423 7.63889e-12 
1.88529 -6.55396 4.47899e-13 
2.09919 -6.50743 1.14019e-12 
2.30911 -6.42655 -1.52677e-12 
2.49991 -6.61441 5.95591e-11 
2.68448 -6.54168 -9.63115e-11 
2.94351 -6.42929 -4.81811e-11 
-3.28906 -6.25956 5.4765e-11 
-3.07352 -6.36816 -1.14233e-11 
-2.84967 -6.21649 -1.4623e-13 
-2.62821 -6.29819 2.10049e-13 
-2.38497 -6.15318 1.32715e-12 
-2.17578 -6.231 3.17867e-12 
-1.94258 -6.27988 7.35316e-12 
-1.74232 -6.32714 8.29951e-12 
-1.54777 -6.15409 -1.42642e-12 
-1.33199 -6.20331 -3.77782e-12 
-1.10893 -6.22313 5.26801e-12 
-0.895549 -6.26804 -5.71679e-12 
-0.694215 -6.25206 7.00151e-12 
-0.490254 -6.28473 -1.82527e-13 
-0.274169 -6.27593 -2.07755e-12 
-0.0625518 -6.27807 2.98777e-12 
0.142247 -6.29008 -4.71517e-13 
0.348838 -6.27415 -2.23553e-12 
0.557301 -6.26647 1.03548e-12 
0.764499 -6.26072 -2.63639e-13 
0.968944 -6.23982 -1.43708e-12 
1.18596 -6.22385 8.13664e-12 
1.39696 -6.18615 -3.94013e-12 
1.61801 -6.13654 -3.8365e-12 
1.85134 -6.29398 -6.49361e-12 
2.05875 -6.2528 -1.86392e-12 
2.26325 -6.18018 1.33747e-12 
2.51248 -6.33722 -2.6513e-13 
2.73926 -6.28889 1.55435e-12 
2.94819 -6.16859 4.69265e-13 
3.16465 -6.32337 2.14928e-11 
3.36766 -6.21763 -3.91732e-11 
-3.72132 -6.01263 3.82452e-11 
-3.5075 -6.13982 1.54979e-11 
-3.28198 -6.00275 5.44734e-14 
-3.0667 -6.10707 -4.18135e-13 
-2.82507 -5.96975 -9.42154e-13 
-2.60381 -6.05128 3.33797e-12 
-2.38298 -5.9146 -2.64725e-13 
-2.1682 -5.9804 3.0826e-12 
-1.96505 -6.04571 -1.02149e-11 
-1.74609 -6.06351 3.05361e-13 
-1.53152 -5.92843 -6.84695e-13 
-1.33136 -5.98686 -1.30358e-13 
-1.11937 -6.00261 -1.61233e-12 
-0.898874 -6.04021 1.35167e-12 
-0.687603 -6.02146 3.39736e-12 
-0.485479 -6.05737 2.61252e-12 
-0.280803 -6.04232 1.40197e-12 
-0.0720308 -6.04139 -1.47816e-12 
0.138388 -6.04669 -7.44514e-13 
0.343979 -6.03762 3.99972e-13 
0.548895 -6.03572 8.17595e-13 
0.757883 -6.02195 -1.33908e-12 
0.977921 -6.02068 -2.72821e-12 
1.18137 -5.98472 2.72947e-12 
1.3984 -5.97482 -1.29056e-12 
1.60972 -5.91628 -1.70573e-12 
1.82725 -6.04892 9.77443e-12 
2.03562 -6.00835 1.3994e-12 
2.25836 -5.94885 -4.24207e-12 
2.47902 -6.09752 -6.01033e-12 
2.69148 -6.0427 5.75967e-13 
2.90698 -5.93561 -2.27682e-12 
3.16152 -6.06346 -6.2931e-13 
3.37409 -5.95717 -2.26241e-13 
3.59173 -6.09093 -5.62081e-11 
-3.93566 -5.87457 1.32864e-11 
-3.70381 -5.75901 1.18872e-14 
-3.49644 -5.87957 -1.0675e-13 
-3.25645 -5.75626 -5.93879e-13 
-3.03851 -5.85346 1.30394e-12 
-2.8176 -5.72842 -1.19003e-13 
-2.60359 -5.80975 -4.41441e-12 
-2.39715 -5.69753 1.36121e-13 
-2.17761 -5.75706 -5.426e-13 
-1.9633 -5.81563 -4.34989e-13 
-1.75855 -5.84518 -3.0225e-12 
-1.55164 -5.73586 1.26348e-13 
-1.30909 -5.77664 5.25995e-13 
-1.1026 -5.77542 -6.60811e-13 
-0.900689 -5.83662 3.38711e-13 
-0.702095 -5.79115 -2.83718e-13 
-0.504683 -5.83374 3.79463e-14 
-0.301139 -5.81965 -7.81191e-13 
-0.092524 -5.8171 -1.24795e-12 
0.116512 -5.82812 1.47295e-13 
0.327817 -5.82046 1.86408e-13 
0.540576 -5.81443 -2.52284e-13 
0.745242 -5.80615 1.90734e-13 
0.963081 -5.80597 3.12034e-13 
1.18612 -5.77553 7.00582e-13 
1.3984 -5.77139 3.04218e-13 
1.62379 -5.71311 6.79229e-13 
1.82316 -5.822 3.5014e-12 
2.04913 -5.79765 -3.24281e-12 
2.26616 -5.72871 -1.81954e-12 
2.46399 -5.85082 8.12568e-12 
2.66457 -5.80509 2.26823e-12 
2.879 -5.70941 -3.77279e-12 
3.12015 -5.82172 -2.48136e-12 
3.34482 -5.71545 -1.02979e-12 
3.59333 -5.82737 8.70337e-15 
3.81705 -5.95232 4.60256e-11 
4.0306 -5.80984 -3.44561e-11 
-4.37385 -5.55603 3.11962e-11 
-4.15491 -5.7216 6.66178e-11 
-3.92146 -5.62243 -1.18224e-13 
-3.67889 -5.51735 -7.92786e-13 
-3.45842 -5.62187 1.20729e-12 
-3.23627 -5.50737 1.48075e-12 
-3.03525 -5.60616 -1.65144e-12 
-2.82335 -5.51191 5.91726e-13 
-2.60686 -5.58039 -6.1336e-13 
-2.40098 -5.48959 -1.40721e-12 
-2.18811 -5.553 1.70759e-13 
-1.97002 -5.60484 2.09018e-13 
-1.76012 -5.62411 -6.18209e-13 
-1.56903 -5.52254 -1.97465e-13 
-1.36799 -5.59175 -1.37063e-13 
-1.14379 -5.57043 -3.78162e-14 
-0.909168 -5.6239 -5.62764e-14 
-0.691432 -5.59263 -2.69438e-13 
-0.469695 -5.61926 -1.55772e-13 
-0.253777 -5.61097 -5.38818e-14 
-0.0386147 -5.61142 -1.02662e-13 
0.172243 -5.62285 3.25425e-13 
0.389612 -5.61932 -3.81291e-14 
0.595957 -5.59477 3.6246e-13 
0.813119 -5.61269 1.01744e-13 
1.03257 -5.60489 5.70742e-13 
1.25378 -5.56775 -9.68354e-14 
1.46338 -5.57378 5.00812e-13 
1.67947 -5.50847 -2.7134e-13 
1.85573 -5.61477 -4.37347e-13 
2.06067 -5.58585 1.02322e-12 
2.25525 -5.5141 2.3252e-13 
2.45951 -5.60794 -1.01894e-12 
2.66362 -5.58544 -1.06087e-12 
2.89478 -5.50425 1.01392e-12 
3.1082 -5.59373 4.43431e-12 
3.31763 -5.47873 1.19538e-12 
3.5588 -5.58016 6.01347e-14 
3.80652 -5.6853 5.87311e-13 
4.01105 -5.55295 4.76254e-13 
4.23923 -5.65941 -3.15104e-11 
-4.58844 -5.38017 4.62872e-11 
-4.34038 -5.31395 -1.6233e-13 
-4.12878 -5.47229 -3.04782e-13 
-3.88486 -5.36976 2.07948e-12 
-3.65918 -5.27711 1.15129e-12 
-3.45029 -5.37594 -6.32259e-13 
-3.23555 -5.29316 7.04963e-13 
-3.01948 -5.37406 -4.92664e-13 
-2.81768 -5.29443 4.51745e-13 
-2.62509 -5.3689 -1.29971e-13 
-2.41718 -5.29486 1.7238e-13 
-2.19249 -5.34849 -4.44666e-13 
-1.98644 -5.39679 -3.07957e-13 
-1.78046 -5.40999 -1.44661e-14 
-1.54648 -5.34517 -1.39198e-13 
-1.31891 -5.40263 -5.43601e-14 
-1.11625 -5.35433 -1.96524e-14 
-0.943859 -5.43486 3.8122e-15 
-0.749799 -5.39379 -2.33646e-14 
-0.539068 -5.41586 -4.57289e-14 
-0.332445 -5.4199 -6.41992e-15 
-0.109011 -5.41267 -1.91394e-14 
0.106044 -5.41578 -1.08401e-14 
0.314541 -5.42489 2.34373e-14 
0.523219 -5.40163 1.73012e-14 
0.750729 -5.41183 3.61473e-14 
0.955205 -5.41785 1.32772e-14 
1.16725 -5.39534 3.52552e-14 
1.39929 -5.37831 8.31038e-15 
1.59024 -5.34404 3.83688e-14 
1.83705 -5.36689 1.38933e-13 
2.02048 -5.37893 3.39821e-13 
2.22759 -5.32346 4.56499e-13 
2.45664 -5.38926 1.91906e-13 
2.68256 -5.39515 -2.83257e-13 
2.89215 -5.30225 2.0161e-13 
3.10082 -5.37144 3.04347e-12 
3.30012 -5.25705 1.79555e-13 
3.52046 -5.34373 -3.02129e-12 
3.76103 -5.42908 -1.21013e-12 
3.97831 -5.309 7.08939e-13 
4.21417 -5.40265 -1.60511e-13 
4.43621 -5.50636 2.22874e-11 
-4.79706 -5.19502 4.13647e-11 
-4.54713 -5.14133 -4.5967e-13 
-4.30319 -5.06654 3.18701e-12 
-4.09574 -5.22524 5.56097e-13 
-3.8612 -5.12563 -4.81317e-13 
-3.64908 -5.05417 2.90181e-12 
-3.45341 -5.14883 -2.44203e-12 
-3.25479 -5.09277 1.11514e-12 
-3.03088 -5.16304 -9.51882e-14 
-2.8176 -5.09916 -8.13302e-13 
-2.60372 -5.15247 1.44409e-13 
-2.36056 -5.12196 7.23267e-14 
-2.15044 -5.15573 -3.41367e-16 
-1.94686 -5.1949 -1.02702e-14 
-1.73776 -5.2141 -8.18714e-14 
-1.55202 -5.1232 -1.70351e-14 
-1.36489 -5.20759 -1.35448e-14 
-1.1591 -5.16231 -4.03563e-15 
-0.922995 -5.20983 -5.2971e-15 
-0.688351 -5.19719 -3.04918e-15 
-0.478289 -5.20763 -9.10771e-16 
-0.260328 -5.22234 -6.43173e-15 
-0.0442617 -5.20322 1.36742e-15 
0.165493 -5.20424 1.98213e-15 
0.369042 -5.20771 4.82471e-15 
0.600188 -5.21556 6.97012e-15 
0.807826 -5.20074 2.03101e-15 
1.00909 -5.21459 7.80249e-15 
1.24043 -5.21241 4.58784e-15 
1.43216 -5.15868 1.58444e-14 
1.6698 -5.18376 6.17063e-14 
1.89684 -5.17169 4.69357e-14 
2.09736 -5.15866 1.61504e-14 
2.29085 -5.09231 2.49979e-14 
2.4369 -5.19833 2.56214e-13 
2.65868 -5.20612 2.17268e-13 
2.86963 -5.11366 9.06585e-14 
3.09195 -5.16071 5.23663e-13 
3.30607 -5.05733 -8.46995e-14 
3.51965 -5.13113 -1.63677e-12 
3.73753 -5.19379 7.13911e-12 
3.93333 -5.07228 -2.12949e-12 
4.17219 -5.14989 -2.97632e-12 
4.41019 -5.2377 -5.64047e-13 
4.64414 -5.33216 5.07719e-11 
4.85679 -5.13922 -6.79906e-11 
-5.0032 -4.9968 -5.53427e-12 
-4.75752 -4.9588 -3.02263e-14 
-4.50863 -4.89663 7.14791e-13 
-4.2646 -4.83159 1.55318e-12 
-4.06725 -4.989 6.09172e-13 
-3.85907 -4.90058 -4.94446e-12 
-3.65599 -4.85377 1.14312e-13 
-3.44233 -4.9254 -1.33383e-13 
-3.23945 -4.88247 -1.0748e-12 
-3.05387 -4.96877 -7.3732e-15 
-2.87341 -4.89702 7.24134e-14 
-2.6587 -4.94583 -1.88503e-13 
-2.45277 -4.96012 1.86578e-14 
-2.21169 -4.95678 1.60589e-14 
-1.99417 -4.97936 -2.15541e-14 
[...]
POINT_DATA 3402 
VECTORS vectors float
-0.000607922 4.33328e-05 1 
-0.000982507 0.000279914 0.999999 
0.00300943 -0.000586861 0.999995 
-0.000576621 -9.4688e-05 1 
-0.00034751 0.000351289 1 
0.000793182 -0.000499164 1 
-0.000557207 0.00046955 1 
0.00311443 -0.000359167 0.999995 
-0.00196584 1.62281e-05 0.999998 
0.000647713 0.000222117 1 
0.000857882 -0.000298499 1 
0.000168565 0.000401267 1 
0.000182804 -0.000263987 1 
-0.000136599 0.000226931 1 
0.00136746 0.000130039 0.999999 
-0.00214306 -0.00037738 0.999998 
0.00040423 0.000175672 1 
-0.000162061 -0.000243536 1 
-0.000872266 0.000362712 1 
0.00328577 -0.000874721 0.999994 
-0.0155103 0.00411963 0.999871 
-0.00319468 0.000281437 0.999995 
-0.0123046 1.40119e-05 0.999924 
0.00772441 -0.000649035 0.99997 
-0.0227657 0.00180167 0.999739 
-0.00498263 -0.000292727 0.999988 
-0.0221533 0.000320451 0.999755 
-0.0234842 0.000147182 0.999724 
0.00202389 0.00181841 0.999996 
-0.0214807 -0.00138771 0.999768 
-0.00789822 -0.00138599 0.999968 
-0.022846 -0.00261813 0.999736 
-0.00416325 -2.50243e-05 0.999991 
-0.0184323 -0.00227518 0.999828 
0.00286281 0.00115988 0.999995 
0.000230288 -0.000904501 1 
0.00198259 0.000485425 0.999998 
0.000407494 0.000147701 1 
-0.00195098 -0.000625427 0.999998 
8.48306e-05 0.000188532 1 
-9.78958e-05 -0.000305902 1 
0.00681476 -0.00128819 0.999976 
-0.00287445 0.000898274 0.999995 
0.00035621 -0.00165679 0.999999 
-0.024662 0.00680943 0.999673 
0.0323302 -0.00934214 0.999434 
0.0427459 -0.00715309 0.99906 
0.0278299 -0.0048044 0.999601 
0.0475692 -0.0076645 0.998839 
0.0459916 -0.00676511 0.998919 
0.0434805 -0.00485686 0.999042 
0.0562986 -0.00107483 0.998413 
0.054064 -0.00018455 0.998537 
0.0504811 0.00121057 0.998724 
0.0491527 0.00250008 0.998788 
0.0557352 0.00476197 0.998434 
0.0386354 0.00457756 0.999243 
0.0493698 0.00735835 0.998753 
0.0324288 0.00540659 0.999459 
0.0278379 0.00520259 0.999599 
0.0270432 0.00853433 0.999598 
-0.0220184 -0.00615111 0.999739 
0.00830905 0.00374317 0.999958 
0.000839119 -0.00124113 0.999999 
0.00244956 0.000970564 0.999997 
-0.000155218 -0.000122854 1 
-0.000936272 -0.000272128 1 
0.000197371 5.90086e-05 1 
-0.000254762 -0.000116473 1 
0.0088008 -0.00423801 0.999952 
-0.0053973 0.00233777 0.999983 
0.019849 -0.00689663 0.999779 
0.012309 -0.00340896 0.999918 
0.0402105 -0.0106591 0.999134 
0.0454721 -0.0107994 0.998907 
0.131136 -0.0334859 0.990799 
0.127761 -0.0275284 0.991423 
0.135967 -0.0234886 0.990435 
0.129979 -0.0186984 0.99134 
0.140465 -0.0152289 0.989968 
0.134774 -0.0105237 0.990821 
0.13497 -0.00534289 0.990835 
0.136965 -0.000590327 0.990576 
0.134641 0.00310577 0.99089 
0.13706 0.00728965 0.990536 
0.132253 0.0117768 0.991146 
0.138381 0.0165821 0.99024 
0.132841 0.0203313 0.990929 
0.135823 0.0260402 0.990391 
0.124081 0.027348 0.991895 
0.126424 0.0332852 0.991418 
0.0437445 0.0123486 0.998966 
0.0240856 0.00734998 0.999683 
0.022049 0.00822103 0.999723 
-0.0176871 -0.00721504 0.999818 
0.00741962 0.00545224 0.999958 
0.014557 0.00815594 0.999861 
0.000625909 0.000167435 1 
0.000202983 0.000304233 1 
8.21287e-05 6.14985e-05 1 
-0.000268452 -4.2752e-05 1 
0.0100325 -0.00544628 0.999935 
-0.00031479 -0.000317761 1 
0.00932612 -0.00465079 0.999946 
0.0204863 -0.00820267 0.999756 
0.113459 -0.0457329 0.99249 
0.1248 -0.0449643 0.991163 
0.123165 -0.0405932 0.991556 
0.133928 -0.038632 0.990238 
0.113652 -0.0298307 0.993073 
0.113358 -0.025443 0.993228 
0.108262 -0.0202199 0.993917 
0.112447 -0.0162785 0.993524 
0.0970732 -0.0102378 0.995225 
0.106267 -0.00785073 0.994307 
0.0965846 -0.0040826 0.995316 
0.0946154 -0.00101471 0.995513 
0.0993516 0.0022331 0.99505 
0.0949867 0.00538798 0.995464 
0.105033 0.00941778 0.994424 
0.10012 0.0123673 0.994899 
0.112435 0.0179897 0.993496 
0.10642 0.0212636 0.994094 
0.119734 0.0278472 0.992415 
0.112344 0.030648 0.993197 
0.1336 0.0413593 0.990172 
0.114771 0.0392085 0.992618 
0.120534 0.0454502 0.991668 
0.0327092 0.0123868 0.999388 
0.0147868 0.00669597 0.999868 
0.000986431 1.37009e-06 1 
0.00589724 0.0022136 0.99998 
0.00381033 0.00143878 0.999992 
-0.000551845 -0.000431481 1 
-0.000209545 -1.44931e-05 1 
0.00924328 -0.00584022 0.99994 
0.00297659 -0.00189069 0.999994 
0.00207602 -0.00129667 0.999997 
0.01372 -0.00708411 0.999881 
0.104901 -0.0525064 0.993096 
0.115007 -0.0523991 0.991982 
0.120708 -0.0514482 0.991354 
0.116449 -0.0445272 0.992198 
0.113601 -0.0390109 0.99276 
0.106181 -0.0326719 0.99381 
0.0628527 -0.0173478 0.997872 
0.060376 -0.0139316 0.998078 
0.0437215 -0.00848502 0.999008 
0.0583832 -0.0087785 0.998256 
0.0395121 -0.00463011 0.999208 
0.0444144 -0.00359293 0.999007 
0.0399542 -0.0020948 0.999199 
0.038083 -0.000831392 0.999274 
0.0431401 0.00097695 0.999069 
0.0409164 0.00244452 0.99916 
0.043389 0.00406282 0.99905 
0.0428683 0.00551987 0.999065 
0.0524502 0.00884247 0.998584 
0.0523865 0.0110468 0.998566 
0.0607193 0.0147934 0.998045 
0.0639931 0.0185531 0.997778 
0.103754 0.0331801 0.994049 
0.11828 0.0418146 0.992099 
0.115093 0.0454519 0.992314 
0.127688 0.0541703 0.990334 
0.102905 0.0473568 0.993563 
0.101453 0.050974 0.993534 
0.0109559 0.00539592 0.999925 
-0.00120063 -0.000975998 0.999999 
0.0110077 0.00671372 0.999917 
4.5302e-05 0.000185118 1 
1.0049e-05 -9.19843e-05 1 
-0.00030191 0.000134939 1 
-5.78564e-05 0.000113701 1 
0.0052025 -0.0037104 0.99998 
-0.00404287 0.00251921 0.999989 
0.00953088 -0.00569233 0.999938 
0.0987223 -0.0583916 0.9934 
0.106693 -0.0583941 0.992576 
0.12117 -0.0629162 0.990636 
0.111507 -0.0530384 0.992347 
0.0701884 -0.0313948 0.99704 
0.0669071 -0.0267281 0.997401 
0.0599148 -0.0213876 0.997974 
0.0487966 -0.0157322 0.998685 
0.020445 -0.00605701 0.999773 
0.0238048 -0.00599448 0.999699 
0.0146861 -0.00314767 0.999887 
0.0169966 -0.00279604 0.999852 
0.0103317 -0.00146054 0.999946 
0.0120708 -0.00108375 0.999927 
0.00964228 -0.000567564 0.999953 
0.0100821 -0.00021785 0.999949 
0.0112156 0.000527782 0.999937 
0.0115374 0.000855857 0.999933 
0.010112 0.00134881 0.999948 
0.0144966 0.00226871 0.999892 
0.0170029 0.00349874 0.999849 
0.0175355 0.00406135 0.999838 
0.0241231 0.0066339 0.999687 
0.0220668 0.00675158 0.999734 
0.0512816 0.0172046 0.998536 
0.0647642 0.0241223 0.997609 
0.0632352 0.0259989 0.99766 
0.107301 0.0470573 0.993112 
0.115883 0.0554115 0.991716 
0.123085 0.0653984 0.990239 
0.101693 0.0572696 0.993166 
0.0937095 0.0574329 0.993942 
-0.00101736 -0.000768068 0.999999 
-0.00202492 -0.000556035 0.999998 
0.0137516 0.0110281 0.999845 
-0.000251207 -4.89614e-05 1 
1.77184e-05 -4.60332e-06 1 
0.00974849 -0.00745717 0.999925 
0.0142201 -0.0104848 0.999844 
-0.00214783 0.00212491 0.999995 
0.0827441 -0.0572118 0.994927 
0.0983822 -0.0632399 0.993137 
0.11594 -0.0713149 0.990693 
0.108893 -0.0618077 0.99213 
0.0717853 -0.0386623 0.996671 
0.0660504 -0.0329016 0.997274 
0.0307841 -0.0142364 0.999425 
0.0241514 -0.0101603 0.999657 
0.021796 -0.00829451 0.999728 
0.0134565 -0.00465002 0.999899 
0.00429535 -0.00150311 0.99999 
0.00502375 -0.00133568 0.999986 
0.00181725 -0.000451141 0.999998 
0.00357551 -0.000614292 0.999993 
0.00118634 -0.000246899 0.999999 
0.00158397 -0.000311412 0.999999 
0.00135506 -0.000130445 0.999999 
0.00118811 -9.3247e-05 0.999999 
0.00121359 2.6137e-05 0.999999 
0.00146681 0.000193738 0.999999 
0.00126193 0.000273441 0.999999 
0.00189855 0.000426251 0.999998 
0.00267536 0.00060943 0.999996 
0.00359328 0.000913614 0.999993 
0.00471817 0.00135176 0.999988 
0.0049082 0.00159058 0.999987 
0.0114721 0.00414574 0.999926 
0.0210285 0.00825838 0.999745 
0.0231478 0.00988229 0.999683 
0.0510786 0.0234384 0.99842 
0.0777321 0.0388735 0.996216 
0.0802278 0.0443328 0.99579 
0.11421 0.067092 0.991189 
0.11348 0.071982 0.990929 
0.0906895 0.059914 0.994075 
0.00912757 0.00652214 0.999937 
-0.0116176 -0.00840495 0.999897 
0.0141547 0.00951931 0.999855 
0.000154581 8.8396e-05 1 
-0.00032838 0.00023772 1 
0.0142995 -0.0122302 0.999823 
-0.00866146 0.00875724 0.999924 
-0.00962942 0.00784815 0.999923 
0.083555 -0.0626459 0.994532 
0.112309 -0.0809694 0.990369 
0.108738 -0.0732823 0.991366 
0.0848164 -0.0544401 0.994908 
0.0652245 -0.0387145 0.997119 
0.030728 -0.0173845 0.999377 
0.0235865 -0.0121121 0.999648 
0.00878007 -0.00406115 0.999953 
0.00524157 -0.00222228 0.999984 
0.00408059 -0.00162635 0.99999 
0.0020223 -0.000958321 0.999997 
8.36875e-05 -0.000242157 1 
0.000347314 -0.000200181 1 
-0.000276955 1.09681e-05 1 
-9.38271e-05 -6.56082e-05 1 
-0.000230848 -6.2657e-05 1 
-0.000211459 2.01348e-05 1 
-0.000144091 -1.16121e-05 1 
-0.000221232 3.95158e-06 1 
-0.000242 4.59933e-05 1 
-0.000249329 0.000116252 1 
-0.000263987 0.000111649 1 
-0.00019503 -2.4011e-06 1 
-3.48166e-05 9.27469e-05 1 
0.000162765 8.73593e-05 1 
0.000182495 0.000205872 1 
0.000750601 0.000501612 1 
0.00223915 0.000973454 0.999997 
0.00514822 0.0022319 0.999984 
0.00494964 0.0023596 0.999985 
0.0180327 0.00862395 0.9998 
0.0336361 0.0174565 0.999282 
0.036179 0.0205363 0.999134 
0.0714515 0.0434429 0.996498 
0.0797755 0.0525081 0.995429 
0.112758 0.0776008 0.990588 
0.0903795 0.0659423 0.993722 
0.0782297 0.0603045 0.99511 
-0.00540576 -0.00554717 0.99997 
0.00988784 0.00588416 0.999934 
-0.00049408 -0.000337063 1 
0.000186531 0.00016548 1 
-8.94615e-05 8.92454e-05 1 
0.0140911 -0.0140354 0.999802 
-0.0124936 0.0118391 0.999852 
0.0636544 -0.0549506 0.996458 
0.0690903 -0.0557132 0.996053 
0.108759 -0.0860538 0.990336 
0.086567 -0.065487 0.994091 
0.0657302 -0.0462908 0.996763 
0.034236 -0.0231526 0.999146 
0.0312581 -0.0195839 0.999319 
0.010715 -0.00645705 0.999922 
0.00685707 -0.00397487 0.999969 
0.00293174 -0.00145745 0.999995 
0.000929797 -0.000350116 1 
0.000395061 -0.000343335 1 
5.23664e-06 -0.00015801 1 
-0.000463326 -4.31517e-05 1 
-0.000428752 5.92755e-05 1 
-0.000444506 4.71703e-05 1 
-0.000481992 -8.59963e-05 1 
-0.000430283 -3.62326e-05 1 
-0.000434994 -3.15345e-05 1 
-0.000358927 -9.57076e-05 1 
-0.000337716 1.07034e-05 1 
-0.000314652 2.88494e-05 1 
-0.000299948 9.69828e-05 1 
-0.000287155 0.000123889 1 
-0.000254634 -4.309e-05 1 
-0.000259564 3.47526e-05 1 
-0.000334054 5.07771e-05 1 
-0.000307872 -7.03878e-05 1 
-0.000247999 4.28698e-05 1 
3.97467e-05 4.50261e-05 1 
0.000527761 0.000251262 1 
0.000598517 0.000368716 1 
0.00334578 0.00176288 0.999993 
0.0109924 0.00594304 0.999922 
0.0126515 0.00733828 0.999893 
0.0337104 0.0209592 0.999212 
0.0348331 0.0234902 0.999117 
0.0756367 0.0536876 0.995689 
0.108154 0.0808652 0.99084 
0.10769 0.0861283 0.990447 
0.0805413 0.0665541 0.994527 
0.002777 0.00274868 0.999992 
-0.00513583 -0.00252244 0.999984 
0.0109538 0.0136338 0.999847 
-0.000269809 -0.000253953 1 
-0.000124291 5.90065e-05 1 
0.0136441 -0.0144722 0.999802 
-0.0119947 0.0112089 0.999865 
0.053892 -0.0517272 0.997206 
0.100554 -0.0916422 0.990702 
0.104757 -0.0885861 0.990545 
0.0742456 -0.06127 0.995356 
0.0404325 -0.0321695 0.998664 
0.0319459 -0.0239116 0.999204 
0.0124875 -0.00917382 0.99988 
0.0076223 -0.00531082 0.999957 
0.00191481 -0.00131633 0.999997 
0.000829716 -0.000535316 1 
0.000193402 -4.95652e-05 1 
-3.7232e-05 3.82256e-05 1 
-0.000200022 4.69423e-05 1 
-0.000203556 3.25904e-05 1 
-0.000212695 -5.73902e-05 1 
-0.000242125 8.32878e-05 1 
-0.000237625 3.85822e-05 1 
-0.000190444 -3.88654e-05 1 
-0.000288282 -7.6354e-05 1 
-0.000234586 -6.84338e-05 1 
-0.00033691 -1.94341e-05 1 
-0.000317295 -4.95522e-05 1 
-0.000255303 -3.44285e-06 1 
-0.000194015 4.78286e-05 1 
-0.000138014 8.40331e-05 1 
-0.000124272 2.18846e-05 1 
-0.000263197 6.37593e-05 1 
-0.000166403 6.14611e-05 1 
-0.00025613 2.61795e-05 1 
-0.000310078 -5.3765e-06 1 
-0.000270297 -0.000247912 1 
-0.000182322 7.58298e-05 1 
-4.41113e-05 2.9726e-05 1 
0.000313912 0.00030811 1 
0.00251045 0.00143966 0.999996 
0.00229862 0.00129234 0.999997 
0.00994387 0.00633585 0.99993 
0.0103781 0.00718224 0.99992 
0.0324408 0.02354 0.999196 
0.0647803 0.0500311 0.996645 
0.0705911 0.0584071 0.995794 
0.101404 0.0875717 0.990984 
0.084349 0.0771919 0.993442 
0.00247537 0.0037207 0.99999 
-0.0111632 -0.0107261 0.99988 
0.0188247 0.0183272 0.999655 
2.14887e-05 0.000118426 1 
-0.00015784 0.000165953 1 
0.0135874 -0.0148258 0.999798 
-0.0121099 0.0127445 0.999845 
0.0464478 -0.0494669 0.997695 
0.097839 -0.0989101 0.990275 
0.0855639 -0.0826189 0.992901 
0.0796443 -0.0705381 0.994324 
0.0356807 -0.0309063 0.998885 
0.0147571 -0.0124001 0.999814 
0.00891761 -0.00716139 0.999935 
0.00253038 -0.00210895 0.999995 
0.000820066 -0.000822601 0.999999 
-6.26407e-05 -0.000165011 1 
-0.000176834 1.95867e-06 1 
-0.000182122 9.83509e-05 1 
-0.000165474 0.000122862 1 
-0.000144702 -3.45371e-05 1 
-8.54435e-05 2.89028e-05 1 
-0.000115872 1.5692e-05 1 
-0.000117783 5.33934e-05 1 
-5.40993e-05 8.77312e-06 1 
-0.000112122 -1.52962e-05 1 
-0.00015215 -6.26492e-06 1 
-0.000186679 -8.04835e-05 1 
-0.000198763 3.99241e-06 1 
-0.000161202 -8.33744e-05 1 
-0.000146101 -4.39703e-05 1 
-0.000122574 -1.53837e-05 1 
-7.48972e-05 2.21088e-05 1 
1.97307e-05 0.000109076 1 
-6.53484e-06 0.000160494 1 
-0.000215637 2.43929e-05 1 
-0.000147008 3.34016e-05 1 
-0.000139866 8.84217e-06 1 
-0.000210625 -0.000167786 1 
-0.000230291 -7.0579e-05 1 
-0.000279122 -4.59288e-05 1 
-0.000149148 -0.000119608 1 
0.000196954 6.1014e-05 1 
0.00012429 1.18532e-05 1 
0.00212296 0.00136573 0.999997 
0.00839744 0.00619611 0.999946 
0.023834 0.0187835 0.999539 
0.029856 0.025468 0.99923 
0.0616239 0.054868 0.99659 
0.0927973 0.0871055 0.991868 
0.0927787 0.0912814 0.991494 
0.0649457 0.0664353 0.995675 
-0.00247023 -0.00514291 0.999984 
0.00675853 0.00432628 0.999968 
-0.000136179 -0.000140672 1 
-0.000151336 0.000140851 1 
0.00935647 -0.011172 0.999894 
-0.00846928 0.00937487 0.99992 
0.05455 -0.0623126 0.996565 
0.0941556 -0.102287 0.990289 
0.0775596 -0.0808803 0.993702 
0.041718 -0.0415638 0.998265 
0.0510891 -0.0477781 0.997551 
0.0189778 -0.0177836 0.999662 
0.00872733 -0.00775066 0.999932 
0.00294437 -0.0026365 0.999992 
0.00115671 -0.00103308 0.999999 
6.76891e-05 -0.000202878 1 
-0.000194632 -4.09868e-05 1 
-0.000250678 1.23234e-06 1 
-0.000236054 2.23384e-05 1 
-0.000182138 1.53818e-05 1 
-9.11336e-05 4.93056e-05 1 
-0.000123712 -7.98413e-05 1 
-8.31995e-05 6.35237e-05 1 
-3.33351e-05 -7.54129e-05 1 
1.57638e-05 7.95727e-05 1 
5.98167e-06 -5.30067e-05 1 
-1.95983e-06 0.000105534 1 
-1.82071e-05 -5.27205e-05 1 
-6.52042e-05 -1.32784e-05 1 
-3.83432e-06 -8.03481e-05 1 
-4.93901e-05 -2.7551e-05 1 
-9.63629e-05 -1.2233e-05 1 
-0.000103472 -3.73882e-05 1 
-0.000154688 -1.18488e-05 1 
-6.61208e-05 0.000102718 1 
-5.5727e-08 0.000176976 1 
-3.25144e-05 5.36884e-05 1 
-6.20127e-05 -3.54235e-05 1 
-9.5804e-05 -5.51571e-05 1 
-0.000217635 -1.27056e-05 1 
-0.000205225 -7.1978e-05 1 
-0.00013824 -0.000201515 1 
-0.000166321 -6.54485e-05 1 
-7.33175e-05 -0.000104723 1 
2.71326e-05 -3.46494e-05 1 
0.00128104 0.00109872 0.999999 
0.00363303 0.00290142 0.999989 
0.00803646 0.00702459 0.999943 
0.021818 0.0198689 0.999565 
0.0493422 0.0470368 0.997674 
0.0845112 0.0853617 0.992759 
0.0973703 0.103039 0.9899 
0.0674462 0.0726471 0.995075 
0.0051609 0.00527468 0.999973 
0.00377176 0.00635368 0.999973 
-0.00019407 -0.000213331 1 
-7.78384e-05 8.44214e-05 1 
0.00501623 -0.00741823 0.99996 
-0.00523599 0.00547355 0.999971 
0.0613398 -0.0754595 0.99526 
0.0904186 -0.105342 0.990317 
0.0678944 -0.0761351 0.994783 
0.0336966 -0.0359975 0.998784 
0.0141168 -0.0141122 0.999801 
0.00407487 -0.00402752 0.999984 
0.00148854 -0.00143195 0.999998 
0.000279657 -0.000277542 1 
-5.00812e-05 -5.89091e-06 1 
-0.000156765 3.43189e-05 1 
-0.000174559 5.40232e-06 1 
-0.000160489 -2.37175e-06 1 
-0.000164006 -9.01665e-06 1 
-0.000167705 -1.94783e-06 1 
-0.000170657 -1.12169e-06 1 
-0.000154489 -5.22024e-05 1 
-0.000105805 -5.31005e-05 1 
-4.10221e-05 -4.9669e-05 1 
-1.19369e-05 1.11729e-05 1 
-1.43461e-05 3.74969e-05 1 
1.16434e-05 1.44196e-06 1 
5.11273e-05 -2.45187e-05 1 
3.86025e-05 -6.65214e-05 1 
1.12503e-05 -1.71732e-05 1 
-5.58454e-06 2.68819e-05 1 
5.25689e-06 -3.22101e-05 1 
-1.70208e-05 9.91691e-05 1 
-0.000151925 -1.84788e-05 1 
-9.04046e-05 3.01946e-05 1 
-0.000102648 0.000175872 1 
-3.11796e-05 4.04659e-05 1 
-2.49546e-05 -2.97656e-06 1 
-2.61365e-05 1.54495e-05 1 
1.53565e-05 -2.2011e-06 1 
-7.60033e-06 -5.60434e-05 1 
-6.74077e-05 -0.000118648 1 
-0.000107818 -0.000126815 1 
-9.37538e-05 -9.05768e-05 1 
-0.000150765 4.91272e-05 1 
0.00025814 0.000235387 1 
0.000608057 0.000637783 1 
0.00390343 0.00359923 0.999986 
0.00973898 0.00947337 0.999908 
0.0318166 0.0319947 0.998982 
0.0495599 0.0525346 0.997389 
0.0748788 0.0834027 0.993699 
0.090258 0.105943 0.990267 
0.0641526 0.0793372 0.994781 
-0.00338324 -0.00207369 0.999992 
0.00855182 0.0138495 0.999868 
6.99218e-06 1.81706e-05 1 
-9.94056e-05 7.40281e-05 1 
0.00774198 -0.0118908 0.999899 
-0.00469855 0.00589141 0.999972 
0.0579029 -0.0771477 0.995337 
0.0853839 -0.109053 0.990362 
0.0713391 -0.0865592 0.993689 
0.0400838 -0.0465158 0.998113 
0.0148373 -0.0163645 0.999756 
0.00964419 -0.0101575 0.999902 
0.00209386 -0.00208698 0.999996 
0.00041882 -0.000471351 1 
-1.10915e-05 -4.68601e-05 1 
-0.000114239 6.24946e-05 1 
-0.000100141 5.14237e-05 1 
-5.62967e-05 -1.04348e-06 1 
-5.59304e-05 -5.13431e-06 1 
-5.11149e-05 1.83585e-05 1 
-9.47053e-05 6.68306e-06 1 
-0.000118545 1.36558e-05 1 
-0.000118618 -2.81958e-05 1 
-0.000134069 -8.35242e-05 1 
-0.000115396 -0.000100383 1 
-0.00014547 -1.67068e-05 1 
-5.73959e-05 -4.87405e-05 1 
-0.000251207 8.47337e-05 1 
-0.000645726 3.80809e-05 1 
-0.00207463 0.000127459 0.999998 
-0.00366681 6.72726e-05 0.999993 
-0.001504 -1.35596e-05 0.999999 
-0.00054556 -1.04497e-05 1 
-0.000452013 -0.000110406 1 
5.77983e-05 9.65118e-05 1 
-4.7964e-05 8.37837e-05 1 
-2.45153e-05 8.49024e-05 1 
-9.34761e-06 3.74373e-05 1 
-2.85347e-05 -1.04251e-05 1 
-4.91473e-06 -1.42984e-05 1 
1.86638e-05 -2.28854e-05 1 
1.92881e-05 -3.93467e-05 1 
2.67803e-05 -6.85359e-06 1 
-9.93704e-05 -8.36026e-05 1 
-0.000256662 -7.82031e-05 1 
-0.00022635 -0.000106861 1 
-0.000110579 -4.30605e-05 1 
-7.55854e-05 3.13378e-05 1 
0.00118163 0.00114039 0.999999 
0.00226294 0.0023549 0.999995 
0.011386 0.0118945 0.999864 
0.0212574 0.0236428 0.999494 
0.0420857 0.0495095 0.997887 
0.0705239 0.0869248 0.993715 
0.0851826 0.110293 0.990242 
0.0598997 0.0810373 0.99491 
-0.00661252 -0.00867117 0.999941 
0.00691241 0.00975183 0.999929 
-1.16993e-05 0.00013191 1 
-1.84264e-05 2.15926e-05 1 
0.00591444 -0.00843296 0.999947 
-0.00107635 0.00127335 0.999999 
0.0595395 -0.0857392 0.994537 
0.0811627 -0.112075 0.99038 
0.0570255 -0.0755956 0.995507 
0.0350506 -0.0439324 0.998419 
0.0135628 -0.0161358 0.999778 
0.00380709 -0.0040304 0.999985 
0.00172901 -0.0016565 0.999997 
0.000169278 -0.000130336 1 
-9.58777e-05 4.34508e-05 1 
-0.000113395 4.93502e-05 1 
-5.80862e-05 7.70658e-06 1 
-9.87807e-06 -2.14711e-05 1 
1.61996e-05 -1.91017e-05 1 
8.79307e-06 2.51079e-05 1 
-2.85078e-05 5.24147e-05 1 
-4.89402e-05 2.85874e-05 1 
2.94219e-05 -3.52478e-05 1 
-5.07625e-05 3.97639e-05 1 
-0.000289087 -8.4088e-05 1 
-0.000391626 0.000156964 1 
-0.00132361 0.000247464 0.999999 
-0.00556259 0.00150761 0.999983 
-0.0114516 0.00220654 0.999932 
-0.0264758 0.00357824 0.999643 
-0.0386478 0.00276361 0.999249 
-0.0393451 -6.87052e-05 0.999226 
-0.0271186 -0.00193696 0.99963 
-0.00759915 -0.00121954 0.99997 
-0.0184622 -0.00406981 0.999821 
-0.00176544 -0.000353916 0.999998 
-0.00402417 -0.00112042 0.999991 
-9.73443e-05 5.57829e-05 1 
-0.000142796 -1.08897e-05 1 
-1.24113e-05 -8.0848e-06 1 
-2.95456e-05 -4.17187e-05 1 
-3.7326e-05 -3.63988e-05 1 
-2.69224e-05 -8.48995e-06 1 
-9.54132e-05 -4.30831e-05 1 
4.89691e-06 4.36791e-05 1 
-0.000127322 1.19921e-05 1 
-8.24372e-05 -0.000106051 1 
-0.00013065 -6.55256e-05 1 
-4.71862e-05 -0.000131075 1 
0.000139372 7.70971e-05 1 
0.000611481 0.000535477 1 
0.00419262 0.00453148 0.999981 
0.00938482 0.0112192 0.999893 
0.0270223 0.0337138 0.999066 
0.0491263 0.0650494 0.996672 
0.0760377 0.105117 0.991549 
0.0648337 0.0921818 0.993629 