# vtk DataFile Version 3.0 
Exported using Morpho https://github.com/Morpho-lang/morpho 
ASCII 
DATASET UNSTRUCTURED_GRID 

POINTS 3402 float 
-1.60098 -6.88744 -1.87085e-08 
-1.365 -6.93807 5.20535e-08 
-1.17303 -6.97309 -8.50234e-08 
-0.983231 -7.00237 -5.06323e-08 
-0.743089 -7.03191 7.20324e-08 
-0.529542 -7.05121 -1.04843e-07 
-0.313326 -7.06412 1.08632e-07 
-0.126664 -7.06993 -5.7246e-08 
0.086301 -7.07054 -1.1214e-07 
0.330617 -7.06333 1.08183e-07 
0.53245 -7.05099 -9.42955e-08 
0.741651 -7.03207 3.28716e-09 
0.950769 -7.00686 -5.52477e-08 
1.17233 -6.97321 3.98903e-08 
1.3815 -6.9348 -1.76055e-07 
1.62038 -6.8829 8.33735e-08 
-2.41323 -6.64653 7.2652e-08 
-2.20519 -6.71842 -1.20493e-08 
-1.97095 -6.79083 1.45158e-07 
-1.78299 -6.84258 -4.31248e-09 
-1.56134 -6.63183 7.10348e-10 
-1.3603 -6.69824 -1.21805e-10 
-1.14619 -6.71824 -2.14148e-09 
-0.916146 -6.76774 5.17169e-10 
-0.682078 -6.77442 -1.19462e-09 
-0.470381 -6.80689 -3.11199e-11 
-0.26828 -6.79272 -1.06891e-09 
-0.0591243 -6.80887 6.24025e-10 
0.165326 -6.81627 3.78041e-10 
0.383937 -6.79109 -2.4523e-10 
0.593074 -6.78612 2.31304e-10 
0.808561 -6.76689 -4.24985e-11 
1.0238 -6.74412 2.71112e-10 
1.233 -6.71206 1.10786e-09 
1.44538 -6.67618 2.22753e-10 
1.66414 -6.62283 -7.23381e-10 
1.84817 -6.82527 7.26894e-08 
2.04575 -6.76867 -1.62985e-07 
2.2867 -6.69111 6.48071e-08 
-2.84635 -6.47289 8.26323e-08 
-2.63569 -6.56149 2.94862e-09 
-2.42154 -6.40347 3.01193e-10 
-2.19072 -6.46228 9.58152e-11 
-1.98989 -6.54012 -9.09936e-10 
-1.77754 -6.58262 -4.83164e-11 
-1.53889 -6.39531 -6.24825e-09 
-1.31865 -6.43582 6.52312e-09 
-1.10285 -6.46557 3.97809e-10 
-0.901181 -6.52665 -2.74565e-10 
-0.695939 -6.50802 -4.05152e-09 
-0.479633 -6.53477 -4.35233e-09 
-0.271248 -6.51846 6.65885e-09 
-0.0671515 -6.53944 -5.04785e-10 
0.143526 -6.55233 -5.43483e-10 
0.352314 -6.5266 -5.60563e-10 
0.563777 -6.5153 -4.3718e-10 
0.775387 -6.51196 2.26864e-10 
0.990617 -6.48512 -1.24827e-10 
1.21084 -6.46388 -2.83302e-09 
1.43016 -6.42163 -3.02766e-09 
1.65178 -6.37399 5.06123e-09 
1.88732 -6.55754 3.13724e-10 
2.09953 -6.50743 6.46048e-10 
2.3087 -6.42754 -8.29205e-10 
2.4999 -6.61442 7.64758e-08 
2.68451 -6.54167 -1.24113e-07 
2.94351 -6.42929 -6.23218e-08 
-3.28906 -6.25956 7.04963e-08 
-3.07352 -6.36816 -1.46431e-08 
-2.84995 -6.21679 -6.33149e-11 
-2.6287 -6.29955 1.43743e-10 
-2.38502 -6.1526 8.75163e-10 
-2.17631 -6.23223 2.12886e-09 
-1.94196 -6.2796 4.89465e-09 
-1.74053 -6.32646 5.46488e-09 
-1.54797 -6.15295 -9.48041e-10 
-1.33198 -6.20077 -2.59746e-09 
-1.10775 -6.22345 3.6796e-09 
-0.893804 -6.26494 -3.47226e-09 
-0.694974 -6.25246 4.41671e-09 
-0.491705 -6.28304 -2.97621e-10 
-0.273454 -6.27561 -1.15594e-09 
-0.0621925 -6.27837 1.97731e-09 
0.142182 -6.28879 -3.67606e-10 
0.348888 -6.27437 -1.59703e-09 
0.558571 -6.26297 1.09567e-09 
0.763691 -6.26143 -3.56649e-10 
0.967757 -6.23758 -1.10472e-09 
1.18594 -6.22427 5.35355e-09 
1.39607 -6.18358 -2.58769e-09 
1.61799 -6.13457 -2.48226e-09 
1.8508 -6.29315 -4.23958e-09 
2.05797 -6.25236 -1.26231e-09 
2.26339 -6.18045 8.63847e-10 
2.51384 -6.34064 -1.28411e-10 
2.74 -6.28842 8.26763e-10 
2.94837 -6.1685 2.71129e-10 
3.16464 -6.32337 2.7888e-08 
3.36767 -6.21762 -5.07322e-08 
-3.72132 -6.01263 4.92354e-08 
-3.50751 -6.13982 2.01161e-08 
-3.28239 -6.00334 5.12953e-11 
-3.06742 -6.10869 -2.41084e-10 
-2.82508 -5.96907 -6.10366e-10 
-2.60391 -6.05141 2.19289e-09 
-2.38186 -5.91273 -1.70954e-10 
-2.16738 -5.97884 2.05853e-09 
-1.96436 -6.04332 -6.78621e-09 
-1.74684 -6.06277 4.35545e-11 
-1.53062 -5.92925 -3.13872e-10 
-1.33122 -5.9869 -4.00568e-11 
-1.12099 -6.00504 -1.22008e-09 
-0.898779 -6.03973 8.35058e-10 
-0.686886 -6.02177 2.34499e-09 
-0.486419 -6.05889 1.68982e-09 
-0.28163 -6.04245 8.48043e-10 
-0.0712959 -6.04142 -9.28646e-10 
0.139187 -6.04726 -4.30246e-10 
0.343805 -6.03705 3.05109e-10 
0.546499 -6.03781 1.59749e-10 
0.758846 -6.02122 -6.89292e-10 
0.979844 -6.02115 -1.5782e-09 
1.18106 -5.9851 1.69701e-09 
1.39829 -5.97544 -8.85386e-10 
1.60926 -5.91657 -1.17022e-09 
1.82768 -6.04819 6.53474e-09 
2.03506 -6.00624 9.30931e-10 
2.25842 -5.94654 -2.70618e-09 
2.47804 -6.09765 -3.97814e-09 
2.69071 -6.04172 3.63394e-10 
2.90803 -5.93585 -1.49498e-09 
3.163 -6.06591 -3.47871e-10 
3.37414 -5.95844 -1.25485e-10 
3.59173 -6.09093 -7.24381e-08 
-3.93566 -5.87457 1.72424e-08 
-3.70445 -5.75996 1.22225e-11 
-3.49746 -5.88107 -5.69704e-11 
-3.25655 -5.7563 -3.83117e-10 
-3.03837 -5.85399 8.74991e-10 
-2.81687 -5.72637 -1.35349e-10 
-2.60242 -5.80846 -2.83806e-09 
-2.39742 -5.69769 6.42429e-11 
-2.17804 -5.75649 -4.17944e-10 
-1.96361 -5.81594 -3.02879e-10 
-1.75793 -5.84553 -1.89939e-09 
-1.55206 -5.73578 2.63105e-11 
-1.30929 -5.77741 3.41477e-10 
-1.10234 -5.77411 -4.34515e-10 
-0.90094 -5.83768 2.443e-10 
-0.701927 -5.78971 -1.9378e-10 
-0.504442 -5.83336 1.62091e-11 
-0.301238 -5.81912 -4.97188e-10 
-0.09258 -5.81593 -8.26643e-10 
0.116665 -5.82752 8.41392e-11 
0.327765 -5.81978 1.24645e-10 
0.540922 -5.8154 -1.20299e-10 
0.744732 -5.80519 1.12006e-10 
0.963035 -5.80626 1.532e-10 
1.1863 -5.77544 4.77441e-10 
1.39843 -5.77275 1.86038e-10 
1.62388 -5.7128 4.99078e-10 
1.82144 -5.82279 2.11396e-09 
2.04945 -5.79853 -2.14707e-09 
2.26754 -5.7283 -1.02686e-09 
2.46321 -5.84978 5.25445e-09 
2.66299 -5.80333 1.46628e-09 
2.87811 -5.7076 -2.44431e-09 
3.12002 -5.82201 -1.66169e-09 
3.34464 -5.71556 -6.92593e-10 
3.59329 -5.82783 2.06834e-11 
3.81705 -5.95232 5.93086e-08 
4.0306 -5.80984 -4.42281e-08 
-4.37385 -5.55603 4.03843e-08 
-4.15491 -5.7216 8.58199e-08 
-3.92264 -5.62397 -6.05488e-11 
-3.67941 -5.51742 -5.10609e-10 
-3.45814 -5.62235 7.92439e-10 
-3.23522 -5.50476 9.38477e-10 
-3.0345 -5.60397 -1.1195e-09 
-2.82297 -5.51199 4.47993e-10 
-2.60675 -5.58063 -3.92963e-10 
-2.40153 -5.49059 -9.14427e-10 
-2.18874 -5.55353 1.03935e-10 
-1.97034 -5.60643 1.53554e-10 
-1.75997 -5.62432 -4.01311e-10 
-1.56889 -5.52154 -1.33401e-10 
-1.36807 -5.59148 -9.14586e-11 
-1.14574 -5.56825 -3.36046e-11 
-0.909105 -5.62303 -3.90713e-11 
-0.689936 -5.59196 -1.74965e-10 
-0.46845 -5.61858 -1.00484e-10 
-0.254097 -5.61015 -3.68394e-11 
-0.0387622 -5.61028 -6.99563e-11 
0.172515 -5.6224 2.14955e-10 
0.389853 -5.61886 -2.48093e-11 
0.595207 -5.59332 2.41374e-10 
0.812903 -5.6122 6.55075e-11 
1.03259 -5.60411 3.78357e-10 
1.25424 -5.56584 -5.77014e-11 
1.46299 -5.57432 3.27726e-10 
1.68038 -5.50695 -1.6771e-10 
1.85603 -5.61574 -2.71602e-10 
2.06091 -5.58752 6.45295e-10 
2.25497 -5.51499 1.0176e-10 
2.46002 -5.60776 -6.16074e-10 
2.66331 -5.58557 -7.65447e-10 
2.89454 -5.50408 6.44121e-10 
3.10721 -5.5917 2.94439e-09 
3.31636 -5.47636 8.09315e-10 
3.55866 -5.57997 3.77164e-11 
3.80819 -5.68697 3.42837e-10 
4.01229 -5.55387 2.17721e-10 
4.23923 -5.65941 -4.0787e-08 
-4.58844 -5.38017 5.9678e-08 
-4.34142 -5.31541 -1.30363e-10 
-4.12946 -5.47332 -1.90186e-10 
-3.88422 -5.36997 1.3681e-09 
-3.65729 -5.27453 7.66296e-10 
-3.44977 -5.37457 -4.28181e-10 
-3.23539 -5.29294 4.8307e-10 
-3.01919 -5.37368 -3.21676e-10 
-2.8185 -5.29575 2.89327e-10 
-2.62614 -5.3698 -1.22614e-10 
-2.41751 -5.29442 1.05119e-10 
-2.19202 -5.34842 -2.85686e-10 
-1.98547 -5.39692 -1.98137e-10 
-1.78028 -5.40882 -1.11978e-11 
-1.54611 -5.34483 -9.16597e-11 
-1.31887 -5.40223 -3.55051e-11 
-1.11437 -5.35499 -1.26605e-11 
-0.942745 -5.436 3.50933e-12 
-0.750527 -5.39436 -1.5812e-11 
-0.540341 -5.41603 -3.08427e-11 
-0.333446 -5.42053 -4.30422e-12 
-0.109228 -5.41329 -1.2624e-11 
0.106301 -5.41659 -7.05173e-12 
0.314639 -5.42565 1.54146e-11 
0.523011 -5.40175 1.17866e-11 
0.751441 -5.41216 2.38467e-11 
0.955214 -5.41741 9.44118e-12 
1.16682 -5.3952 2.28363e-11 
1.39975 -5.37777 5.00516e-12 
1.59045 -5.3438 2.51861e-11 
1.83727 -5.36512 9.4647e-11 
2.01993 -5.37759 2.29621e-10 
2.22673 -5.32385 2.95522e-10 
2.45701 -5.38912 1.35402e-10 
2.68343 -5.3969 -1.85813e-10 
2.89277 -5.30382 1.09799e-10 
3.10078 -5.37109 2.04291e-09 
3.29944 -5.25659 7.36182e-11 
3.51887 -5.34166 -1.98351e-09 
3.76086 -5.42901 -7.86984e-10 
3.97941 -5.30896 4.62096e-10 
4.21444 -5.404 -9.6945e-12 
4.43621 -5.50636 2.86e-08 
-4.79706 -5.19502 5.33504e-08 
-4.54774 -5.14292 -2.88949e-10 
-4.30322 -5.06663 2.11449e-09 
-4.09622 -5.22526 3.82774e-10 
-3.86039 -5.12406 -3.48783e-10 
-3.64845 -5.05382 1.96556e-09 
-3.45328 -5.14829 -1.6211e-09 
-3.2558 -5.09453 7.47825e-10 
-3.03081 -5.16401 -2.81852e-11 
-2.81706 -5.09909 -5.35318e-10 
-2.6038 -5.15198 9.45601e-11 
-2.35952 -5.12064 4.968e-11 
-2.14981 -5.15519 -5.7981e-13 
-1.94739 -5.1936 -8.48248e-12 
-1.73787 -5.21397 -5.37677e-11 
-1.55185 -5.12476 -1.12297e-11 
-1.36517 -5.2091 -8.95856e-12 
-1.16009 -5.16438 -2.65785e-12 
-0.923949 -5.21105 -3.5401e-12 
-0.688506 -5.19876 -2.03228e-12 
-0.477962 -5.20955 -6.09474e-13 
-0.260291 -5.22431 -5.47934e-13 
-0.044236 -5.20478 1.19405e-13 
0.165641 -5.2058 1.30761e-12 
0.369342 -5.2092 3.20448e-12 
0.600339 -5.2177 4.58108e-12 
0.80795 -5.20178 1.35592e-12 
1.00962 -5.21632 5.12732e-12 
1.24093 -5.21395 3.0151e-12 
1.43245 -5.15993 1.04537e-11 
1.66857 -5.18345 4.09461e-11 
1.8963 -5.17206 3.0054e-11 
2.09818 -5.15681 1.20328e-11 
2.291 -5.09153 1.85675e-11 
2.43543 -5.1978 1.62923e-10 
2.65904 -5.20615 1.45831e-10 
2.87031 -5.11367 7.8277e-11 
3.09247 -5.16163 3.55002e-10 
3.30709 -5.05865 -4.57371e-11 
3.51929 -5.13112 -1.11225e-09 
3.7365 -5.19215 4.70466e-09 
3.93172 -5.07012 -1.36848e-09 
4.17219 -5.15063 -1.96877e-09 
4.41058 -5.23906 -2.42073e-10 
4.64414 -5.33216 6.54498e-08 
4.85679 -5.13922 -8.73728e-08 
-5.00319 -4.9968 -7.22273e-09 
-4.75901 -4.96055 1.59457e-11 
-4.50909 -4.89693 4.72404e-10 
-4.26236 -4.83018 1.03933e-09 
-4.06555 -4.98638 3.69548e-10 
-3.85901 -4.89995 -3.27238e-09 
-3.65714 -4.85533 1.06321e-10 
-3.44304 -4.92605 -1.03456e-10 
-3.23976 -4.88303 -7.11829e-10 
-3.05409 -4.96955 -1.87241e-13 
-2.87333 -4.896 4.50019e-11 
-2.65808 -4.94453 -1.24613e-10 
-2.45259 -4.95963 1.21227e-11 
-2.212 -4.95769 1.05255e-11 
-1.99509 -4.97955 -1.42251e-11 
-1.78894 -5.00312 -6.18588e-12 
[...]
POINT_DATA 3402 
VECTORS vectors float
0.00158134 -0.000530357 0.999997 
0.000856858 1.65417e-05 0.999998 
0.00760873 -0.00142633 0.999968 
0.0017922 -0.000556686 0.999996 
0.001354 0.000359896 0.999997 
0.00353801 -0.000891462 0.999992 
0.00240082 0.000583663 0.999995 
0.00774119 -0.000636697 0.999968 
-0.000906875 1.60465e-05 0.999998 
0.0029728 0.000498371 0.999994 
0.00421039 -0.000255149 0.999989 
0.00295309 0.000845271 0.999994 
0.00257929 -7.99785e-05 0.999995 
0.00230263 0.000737149 0.999995 
0.00399776 0.000540078 0.99999 
-0.0017949 -0.000200179 0.999997 
0.00257584 -0.000407325 0.999995 
0.00126898 -0.000899774 0.999997 
0.00125121 -0.000147849 0.999998 
0.00816394 -0.00205565 0.999963 
-0.0155148 0.00412088 0.999871 
-0.00319555 0.00028155 0.999995 
-0.0123106 1.44538e-05 0.999924 
0.00772589 -0.000648857 0.99997 
-0.0227747 0.00180261 0.999739 
-0.00498257 -0.00029271 0.999988 
-0.0221603 0.000320576 0.999754 
-0.0234919 0.000147106 0.999724 
0.00202505 0.00181892 0.999996 
-0.021489 -0.00138828 0.999768 
-0.00789992 -0.0013863 0.999968 
-0.0228536 -0.00261902 0.999735 
-0.00416408 -2.50761e-05 0.999991 
-0.0184392 -0.0022762 0.999827 
0.00286308 0.00116009 0.999995 
0.000229687 -0.000904977 1 
0.00558849 0.00142226 0.999982 
0.00263981 0.000733635 0.999995 
-0.00163345 -0.000413548 0.999998 
0.00178705 -0.000435613 0.999997 
0.00181416 -0.00121844 0.999996 
0.00681568 -0.00128827 0.999976 
-0.00287689 0.000899043 0.999995 
0.000356141 -0.00165723 0.999999 
-0.0246703 0.00681176 0.999672 
0.0323264 -0.00934181 0.999434 
0.0427453 -0.00715241 0.99906 
0.0278227 -0.00480318 0.999601 
0.0475706 -0.00766487 0.998838 
0.0459893 -0.00676504 0.998919 
0.043478 -0.00485707 0.999042 
0.0562988 -0.0010744 0.998413 
0.0540642 -0.000184617 0.998537 
0.0504802 0.00121049 0.998724 
0.0491508 0.00249996 0.998788 
0.0557364 0.0047621 0.998434 
0.0386316 0.00457711 0.999243 
0.0493702 0.00735839 0.998753 
0.0324249 0.00540575 0.999459 
0.0278334 0.00520135 0.999599 
0.0270388 0.00853367 0.999598 
-0.0220273 -0.00615367 0.999738 
0.00831127 0.00374424 0.999959 
0.000838425 -0.00124178 0.999999 
0.00628461 0.00240045 0.999976 
0.00192857 0.000599907 0.999997 
-0.000523725 4.47557e-05 0.999999 
0.00192255 -0.000731606 0.999997 
0.00120711 -0.000926998 0.999998 
0.00880238 -0.00423876 0.999952 
-0.00540107 0.00233927 0.999983 
0.0198444 -0.0068948 0.999779 
0.0123015 -0.00340631 0.999918 
0.0402086 -0.0106582 0.999134 
0.0454718 -0.0107989 0.998907 
0.131144 -0.0334879 0.990797 
0.127768 -0.02753 0.991422 
0.135976 -0.0234901 0.990434 
0.129985 -0.0186993 0.99134 
0.140474 -0.0152297 0.989967 
0.134781 -0.0105243 0.990819 
0.134977 -0.00534322 0.990834 
0.136973 -0.000590296 0.990575 
0.134648 0.00310591 0.990889 
0.137069 0.00729003 0.990535 
0.132258 0.0117774 0.991145 
0.13839 0.0165832 0.990239 
0.132847 0.0203321 0.990928 
0.135832 0.0260422 0.990389 
0.124087 0.0273492 0.991894 
0.126431 0.0332871 0.991417 
0.0437446 0.0123484 0.998966 
0.0240804 0.0073482 0.999683 
0.0220437 0.00821922 0.999723 
-0.0176945 -0.00721805 0.999817 
0.0074209 0.00545325 0.999958 
0.0145595 0.0081574 0.999861 
0.00272912 0.00113694 0.999995 
0.00226222 0.00146012 0.999995 
0.00162385 -0.000811489 0.999997 
0.00112896 -0.000923897 0.999998 
0.0100343 -0.00544723 0.999935 
-0.000316779 -0.000316852 1 
0.00931919 -0.00464754 0.999946 
0.0204815 -0.00820046 0.999757 
0.113465 -0.0457354 0.992489 
0.124808 -0.0449673 0.991161 
0.123171 -0.0405956 0.991555 
0.133936 -0.0386342 0.990237 
0.113655 -0.0298316 0.993072 
0.113361 -0.0254436 0.993228 
0.108265 -0.0202204 0.993917 
0.112451 -0.016279 0.993524 
0.0970737 -0.0102377 0.995225 
0.10627 -0.00785091 0.994306 
0.0965859 -0.00408259 0.995316 
0.0946165 -0.00101477 0.995513 
0.0993541 0.00223313 0.99505 
0.094987 0.00538799 0.995464 
0.105036 0.00941809 0.994424 
0.100121 0.0123675 0.994899 
0.112439 0.0179902 0.993496 
0.106422 0.021264 0.994094 
0.119739 0.0278484 0.992415 
0.112347 0.0306487 0.993196 
0.13361 0.0413624 0.990171 
0.114776 0.0392101 0.992617 
0.120542 0.0454529 0.991667 
0.0327078 0.0123859 0.999388 
0.0147814 0.00669359 0.999868 
0.000977222 -3.26482e-06 0.999999 
0.00589703 0.00221331 0.99998 
0.00381023 0.00143862 0.999992 
0.000357443 4.5898e-05 0.999999 
0.00112969 -0.000975971 0.999998 
0.00924504 -0.00584132 0.99994 
0.00297585 -0.00189028 0.999994 
0.00206835 -0.00129235 0.999997 
0.0137147 -0.00708123 0.999881 
0.104907 -0.0525094 0.993095 
0.115014 -0.0524026 0.991981 
0.120714 -0.0514506 0.991353 
0.116453 -0.0445288 0.992198 
0.113605 -0.0390122 0.99276 
0.106183 -0.0326727 0.99381 
0.0628517 -0.0173475 0.997872 
0.0603759 -0.0139316 0.998079 
0.0437185 -0.0084845 0.999008 
0.0583829 -0.00877845 0.998256 
0.0395104 -0.00462992 0.999209 
0.0444125 -0.00359276 0.999007 
0.0399526 -0.00209475 0.999199 
0.0380811 -0.000831438 0.999275 
0.043139 0.000976956 0.999069 
0.0409147 0.00244447 0.99916 
0.0433874 0.00406268 0.99905 
0.0428662 0.00551961 0.999066 
0.0524491 0.0088423 0.998585 
0.0523852 0.0110466 0.998566 
0.0607176 0.014793 0.998046 
0.0639931 0.0185531 0.997778 
0.103756 0.033181 0.994049 
0.118286 0.0418164 0.992099 
0.115096 0.0454533 0.992314 
0.127697 0.0541743 0.990333 
0.102909 0.047359 0.993563 
0.101459 0.0509769 0.993533 
0.0109502 0.00539281 0.999925 
-0.00120881 -0.00098082 0.999999 
0.0110103 0.00671535 0.999917 
0.00144853 0.00116859 0.999997 
0.0016028 0.000881299 0.999997 
0.000830267 -0.000805296 0.999998 
0.00124692 -0.000752129 0.999998 
0.00520298 -0.00371076 0.99998 
-0.00405087 0.00252446 0.999989 
0.00952522 -0.00568874 0.999938 
0.0987279 -0.0583949 0.9934 
0.1067 -0.0583978 0.992575 
0.121177 -0.0629195 0.990635 
0.111511 -0.0530403 0.992347 
0.0701878 -0.0313946 0.99704 
0.0669067 -0.0267279 0.997401 
0.0599137 -0.0213872 0.997975 
0.0487951 -0.0157317 0.998685 
0.0204432 -0.00605651 0.999773 
0.0238029 -0.00599402 0.999699 
0.0146845 -0.00314733 0.999887 
0.0169949 -0.00279578 0.999852 
0.01033 -0.00146038 0.999946 
0.0120694 -0.00108365 0.999927 
0.00964069 -0.000567507 0.999953 
0.0100808 -0.000217872 0.999949 
0.011214 0.000527776 0.999937 
0.0115359 0.000855729 0.999933 
0.0101103 0.00134869 0.999948 
0.0144951 0.00226848 0.999893 
0.0170011 0.00349847 0.999849 
0.0175339 0.00406097 0.999838 
0.0241212 0.00663345 0.999687 
0.0220649 0.00675095 0.999734 
0.0512796 0.0172038 0.998536 
0.0647638 0.0241222 0.997609 
0.0632346 0.0259986 0.99766 
0.107305 0.0470588 0.993112 
0.115888 0.0554139 0.991715 
0.123092 0.0654021 0.990238 
0.101699 0.0572734 0.993165 
0.0937151 0.0574364 0.993941 
-0.0010252 -0.000773129 0.999999 
-0.00202699 -0.000557305 0.999998 
0.0137547 0.0110306 0.999845 
0.00099016 0.000928557 0.999998 
0.00138459 -0.00112577 0.999997 
0.00975058 -0.00745884 0.999925 
0.0142235 -0.0104873 0.999844 
-0.00215522 0.00213038 0.999995 
0.0827485 -0.0572149 0.994927 
0.0983883 -0.0632439 0.993136 
0.115946 -0.0713186 0.990692 
0.108897 -0.06181 0.99213 
0.0717854 -0.0386624 0.996671 
0.0660498 -0.0329013 0.997274 
0.0307823 -0.0142355 0.999425 
0.0241493 -0.0101595 0.999657 
0.0217945 -0.00829394 0.999728 
0.0134545 -0.00464934 0.999899 
0.00429419 -0.00150279 0.99999 
0.0050227 -0.00133542 0.999987 
0.00181659 -0.000451006 0.999998 
0.00357471 -0.000614133 0.999993 
0.0011857 -0.000246808 0.999999 
0.00158337 -0.000311376 0.999999 
0.00135446 -0.000130399 0.999999 
0.00118755 -9.32405e-05 0.999999 
0.00121299 2.61167e-05 0.999999 
0.00146616 0.000193706 0.999999 
0.00126136 0.000273385 0.999999 
0.00189784 0.00042616 0.999998 
0.00267447 0.000609263 0.999996 
0.00359244 0.000913437 0.999993 
0.00471715 0.00135149 0.999988 
0.00490711 0.00159025 0.999987 
0.0114706 0.00414522 0.999926 
0.0210267 0.00825778 0.999745 
0.0231459 0.0098815 0.999683 
0.051077 0.0234377 0.99842 
0.0777325 0.0388737 0.996216 
0.0802283 0.0443331 0.99579 
0.114215 0.0670951 0.991188 
0.113485 0.0719857 0.990929 
0.0906945 0.0599172 0.994075 
0.00912253 0.00651854 0.999937 
-0.0116275 -0.00841217 0.999897 
0.0141578 0.00952142 0.999855 
0.00149302 0.00114568 0.999997 
0.000692024 -0.000693045 0.999999 
0.0143032 -0.0122334 0.999823 
-0.00866934 0.00876415 0.999924 
-0.00963832 0.00785503 0.999923 
0.0835599 -0.0626496 0.994531 
0.112315 -0.0809738 0.990368 
0.108743 -0.0732855 0.991365 
0.0848186 -0.0544415 0.994908 
0.0652239 -0.0387141 0.99712 
0.0307261 -0.0173835 0.999377 
0.0235848 -0.0121112 0.999649 
0.0087788 -0.00406054 0.999953 
0.00524044 -0.00222179 0.999984 
0.00407965 -0.00162598 0.99999 
0.00202162 -0.000958119 0.999998 
8.34532e-05 -0.000242093 1 
0.000346965 -0.000200086 1 
-0.000277129 1.10132e-05 1 
-9.40135e-05 -6.55731e-05 1 
-0.000230953 -6.2649e-05 1 
-0.000211571 2.01662e-05 1 
-0.000144188 -1.16021e-05 1 
-0.000221324 3.95338e-06 1 
-0.000242098 4.59899e-05 1 
-0.000249445 0.00011625 1 
-0.000264134 0.000111641 1 
-0.000195176 -2.44213e-06 1 
-3.50362e-05 9.27074e-05 1 
0.000162456 8.72649e-05 1 
0.000182229 0.000205814 1 
0.000750046 0.000501466 1 
0.00223829 0.000973138 0.999997 
0.00514732 0.00223153 0.999984 
0.00494857 0.00235912 0.999985 
0.018031 0.00862316 0.9998 
0.0336343 0.0174555 0.999282 
0.0361772 0.0205352 0.999135 
0.0714515 0.0434428 0.996498 
0.0797766 0.0525088 0.995429 
0.112764 0.0776048 0.990587 
0.0903851 0.0659465 0.993721 
0.0782338 0.0603076 0.995109 
-0.00541389 -0.00555387 0.99997 
0.00988995 0.00588539 0.999934 
0.000440331 0.000540534 0.999999 
0.00163832 0.00142223 0.999997 
0.00111151 -0.00107074 0.999998 
0.0140949 -0.0140391 0.999802 
-0.0125022 0.0118471 0.999852 
0.0636571 -0.0549529 0.996458 
0.0690933 -0.0557157 0.996053 
0.108766 -0.0860589 0.990335 
0.0865695 -0.0654888 0.994091 
0.0657297 -0.0462905 0.996763 
0.034234 -0.0231514 0.999146 
0.0312564 -0.0195829 0.99932 
0.0107136 -0.00645619 0.999922 
0.00685588 -0.00397427 0.999969 
0.00293087 -0.001457 0.999995 
0.00092936 -0.000349895 1 
0.000394797 -0.000343264 1 
5.045e-06 -0.000157939 1 
-0.000463409 -4.3142e-05 1 
-0.000428811 5.92978e-05 1 
-0.000444532 4.71831e-05 1 
-0.000482043 -8.6014e-05 1 
-0.000430301 -3.62258e-05 1 
-0.000435027 -3.15294e-05 1 
-0.00035894 -9.57298e-05 1 
-0.000337726 1.07136e-05 1 
-0.00031466 2.88486e-05 1 
-0.000299959 9.699e-05 1 
-0.000287167 0.000123904 1 
-0.000254645 -4.31144e-05 1 
-0.000259572 3.47536e-05 1 
-0.00033411 5.07803e-05 1 
-0.00030791 -7.04256e-05 1 
-0.000248072 4.28496e-05 1 
3.96032e-05 4.49638e-05 1 
0.00052751 0.000251147 1 
0.000598183 0.000368564 1 
0.00334493 0.00176245 0.999993 
0.0109911 0.00594236 0.999922 
0.0126501 0.00733741 0.999893 
0.0337089 0.0209582 0.999212 
0.0348314 0.0234891 0.999117 
0.0756374 0.053688 0.995689 
0.108159 0.0808695 0.990839 
0.107696 0.0861331 0.990446 
0.0805463 0.0665581 0.994526 
0.0027716 0.00274407 0.999992 
-0.00513827 -0.00252424 0.999984 
0.0109564 0.0136368 0.999847 
0.000707665 0.000684458 0.999999 
0.00101644 -0.00118667 0.999998 
0.0136478 -0.0144761 0.999802 
-0.0120028 0.0112169 0.999865 
0.0538934 -0.0517285 0.997206 
0.10056 -0.0916479 0.990701 
0.104763 -0.0885916 0.990543 
0.0742464 -0.0612707 0.995356 
0.0404311 -0.0321684 0.998665 
0.0319442 -0.0239103 0.999204 
0.012486 -0.00917284 0.99988 
0.00762105 -0.00531004 0.999957 
0.00191417 -0.00131594 0.999997 
0.00082932 -0.000535087 1 
0.000193195 -4.94468e-05 1 
-3.7291e-05 3.82529e-05 1 
-0.000200074 4.69719e-05 1 
-0.000203567 3.26069e-05 1 
-0.000212692 -5.74114e-05 1 
-0.000242115 8.33046e-05 1 
-0.000237633 3.85854e-05 1 
-0.000190421 -3.88702e-05 1 
-0.000288295 -7.63647e-05 1 
-0.000234566 -6.8439e-05 1 
-0.000336929 -1.94266e-05 1 
-0.000317308 -4.95604e-05 1 
-0.000255308 -3.44244e-06 1 
-0.000194015 4.78312e-05 1 
-0.000138004 8.40432e-05 1 
-0.000124264 2.18771e-05 1 
-0.000263233 6.37579e-05 1 
-0.000166377 6.14702e-05 1 
-0.000256135 2.61862e-05 1 
-0.000310103 -5.36736e-06 1 
-0.000270344 -0.000247979 1 
-0.000182376 7.58432e-05 1 
-4.4231e-05 2.96544e-05 1 
0.000313653 0.000308002 1 
0.00250975 0.00143926 0.999996 
0.00229797 0.00129192 0.999997 
0.00994254 0.006335 0.999931 
0.0103768 0.00718135 0.99992 
0.0324391 0.0235388 0.999197 
0.0647802 0.0500311 0.996645 
0.0705916 0.0584076 0.995794 
0.10141 0.0875764 0.990983 
0.0843531 0.0771956 0.993441 
0.00247025 0.00371588 0.99999 
-0.0111718 -0.0107347 0.99988 
0.0188291 0.0183316 0.999655 
0.00119164 0.00148409 0.999997 
0.000814034 -0.000950558 0.999998 
0.013591 -0.0148296 0.999798 
-0.012118 0.0127533 0.999845 
0.0464487 -0.0494679 0.997695 
0.0978458 -0.0989171 0.990273 
0.0855666 -0.0826215 0.992901 
0.0796458 -0.0705395 0.994324 
0.035679 -0.0309048 0.998886 
0.0147558 -0.0123991 0.999814 
0.00891638 -0.00716047 0.999935 
0.00252968 -0.00210846 0.999995 
0.000819632 -0.000822322 0.999999 
-6.27908e-05 -0.000164928 1 
-0.000176911 2.00083e-06 1 
-0.000182147 9.83691e-05 1 
-0.000165482 0.000122886 1 
-0.000144704 -3.45584e-05 1 
-8.54267e-05 2.89129e-05 1 
-0.000115874 1.56944e-05 1 
-0.000117783 5.34012e-05 1 
-5.40872e-05 8.7693e-06 1 
-0.000112125 -1.52981e-05 1 
-0.000152152 -6.25901e-06 1 
-0.000186689 -8.04979e-05 1 
-0.000198765 4.00731e-06 1 
-0.000161202 -8.33867e-05 1 
-0.000146102 -4.39749e-05 1 
-0.000122574 -1.53879e-05 1 
-7.48913e-05 2.21072e-05 1 
1.97615e-05 0.000109091 1 
-6.5057e-06 0.000160514 1 
-0.000215666 2.43749e-05 1 
-0.000147013 3.34005e-05 1 
-0.000139855 8.85575e-06 1 
-0.00021063 -0.000167809 1 
-0.000230296 -7.05848e-05 1 
-0.000279155 -4.59329e-05 1 
-0.000149181 -0.000119642 1 
0.000196822 6.09253e-05 1 
0.000124089 1.17221e-05 1 
0.00212239 0.00136533 0.999997 
0.00839619 0.00619514 0.999946 
0.0238322 0.018782 0.99954 
0.0298547 0.0254669 0.99923 
0.0616237 0.0548678 0.99659 
0.0928014 0.0871093 0.991867 
0.092786 0.0912888 0.991492 
0.0649475 0.0664372 0.995674 
-0.00247689 -0.00515041 0.999984 
0.0067591 0.00432625 0.999968 
0.000933943 0.00108768 0.999998 
0.000823042 -0.00107083 0.999998 
0.00935858 -0.0111745 0.999894 
-0.00847655 0.00938335 0.99992 
0.0545524 -0.0623153 0.996564 
0.0941615 -0.102293 0.990288 
0.0775617 -0.0808825 0.993701 
0.0417169 -0.0415626 0.998265 
0.0510886 -0.0477778 0.997551 
0.018976 -0.0177821 0.999662 
0.00872625 -0.00774969 0.999932 
0.00294373 -0.00263598 0.999992 
0.00115628 -0.00103274 0.999999 
6.75431e-05 -0.000202769 1 
-0.000194689 -4.09504e-05 1 
-0.000250698 1.23969e-06 1 
-0.000236065 2.23393e-05 1 
-0.000182142 1.53752e-05 1 
-9.11177e-05 4.93195e-05 1 
-0.000123715 -7.98679e-05 1 
-8.31932e-05 6.35508e-05 1 
-3.3327e-05 -7.5436e-05 1 
1.57775e-05 7.95975e-05 1 
5.98976e-06 -5.30297e-05 1 
-1.94869e-06 0.000105565 1 
-1.82005e-05 -5.27346e-05 1 
-6.52072e-05 -1.32687e-05 1 
-3.81896e-06 -8.03598e-05 1 
-4.93862e-05 -2.7549e-05 1 
-9.63702e-05 -1.22306e-05 1 
-0.000103477 -3.74005e-05 1 
-0.000154711 -1.18613e-05 1 
-6.61202e-05 0.00010272 1 
-3.1577e-08 0.000176996 1 
-3.25075e-05 5.36875e-05 1 
-6.20087e-05 -3.54331e-05 1 
-9.57966e-05 -5.51599e-05 1 
-0.000217661 -1.26972e-05 1 
-0.000205234 -7.1975e-05 1 
-0.000138242 -0.000201543 1 
-0.000166355 -6.54437e-05 1 
-7.33254e-05 -0.000104735 1 
2.69882e-05 -3.47782e-05 1 
0.00128054 0.0010984 0.999999 
0.00363224 0.00290076 0.999989 
0.00803545 0.00702376 0.999943 
0.0218166 0.0198676 0.999565 
0.0493411 0.0470357 0.997674 
0.0845141 0.0853647 0.992759 
0.0973773 0.103046 0.989899 
0.0674493 0.0726501 0.995074 
0.00515622 0.00526901 0.999973 
0.00377196 0.00635435 0.999973 
0.000676255 0.000826353 0.999999 
0.000881612 -0.00118913 0.999998 
0.00501716 -0.00741956 0.99996 
-0.00524188 0.0054809 0.999971 
0.0613425 -0.0754628 0.99526 
0.0904242 -0.105349 0.990316 
0.0678954 -0.0761362 0.994783 
0.0336949 -0.0359958 0.998784 
0.0141155 -0.0141109 0.999801 
0.00407408 -0.00402678 0.999984 
0.00148811 -0.00143157 0.999998 
0.00027949 -0.000277389 1 
-5.01467e-05 -5.83063e-06 1 
-0.000156782 3.43335e-05 1 
-0.000174565 5.40361e-06 1 
-0.000160491 -2.37278e-06 1 
-0.00016401 -9.02052e-06 1 
-0.000167713 -1.95095e-06 1 
-0.000170667 -1.1172e-06 1 
-0.000154496 -5.22072e-05 1 
-0.000105809 -5.31031e-05 1 
-4.10164e-05 -4.96736e-05 1 
-1.19318e-05 1.1178e-05 1 
-1.43422e-05 3.75048e-05 1 
1.1682e-05 1.4352e-06 1 
5.1219e-05 -2.45228e-05 1 
3.88007e-05 -6.65403e-05 1 
1.1445e-05 -1.71737e-05 1 
-5.51544e-06 2.68933e-05 1 
5.30609e-06 -3.22209e-05 1 
-1.69963e-05 9.91993e-05 1 
-0.000151948 -1.84981e-05 1 
-9.04077e-05 3.01806e-05 1 
-0.000102664 0.000175895 1 
-3.11785e-05 4.04618e-05 1 
-2.49515e-05 -2.97724e-06 1 
-2.61317e-05 1.54583e-05 1 
1.53695e-05 -2.19635e-06 1 
-7.58227e-06 -5.60416e-05 1 
-6.74116e-05 -0.000118656 1 
-0.000107816 -0.00012682 1 
-9.37371e-05 -9.05845e-05 1 
-0.000150803 4.91388e-05 1 
0.00025792 0.000235195 1 
0.000607775 0.000637551 1 
0.00390268 0.00359854 0.999986 
0.00973772 0.00947214 0.999908 
0.0318156 0.0319937 0.998982 
0.0495592 0.0525338 0.997389 
0.0748805 0.0834043 0.993699 
0.0902634 0.10595 0.990266 
0.0641561 0.0793416 0.994781 
-0.0033893 -0.00208119 0.999992 
0.0085538 0.0138526 0.999867 
0.00102808 0.0013973 0.999998 
0.00078469 -0.00124633 0.999998 
0.00774363 -0.0118933 0.999899 
-0.00470464 0.00589983 0.999971 
0.057906 -0.0771519 0.995336 
0.085389 -0.109059 0.990361 
0.071341 -0.0865614 0.993689 
0.0400831 -0.0465149 0.998113 
0.0148361 -0.016363 0.999756 
0.00964323 -0.0101565 0.999902 
0.00209339 -0.00208649 0.999996 
0.000418614 -0.000471158 1 
-1.11755e-05 -4.67841e-05 1 
-0.000114261 6.25159e-05 1 
-0.000100145 5.14316e-05 1 
-5.62922e-05 -1.04552e-06 1 
-5.59261e-05 -5.13653e-06 1 
-5.11104e-05 1.83601e-05 1 
-9.47048e-05 6.68108e-06 1 
-0.00011855 1.36601e-05 1 
-0.000118623 -2.81984e-05 1 
-0.000134069 -8.35326e-05 1 
-0.000115385 -0.0001004 1 
-0.000145428 -1.67186e-05 1 
-5.71879e-05 -4.88096e-05 1 
-0.000250053 8.45079e-05 1 
-0.000643619 3.77612e-05 1 
-0.0020696 0.00012698 0.999998 
-0.00366109 6.71116e-05 0.999993 
-0.00150038 -1.34764e-05 0.999999 
-0.000543741 -1.02749e-05 1 
-0.000450519 -0.000110122 1 
5.80101e-05 9.65701e-05 1 
-4.77184e-05 8.38597e-05 1 
-2.4507e-05 8.49065e-05 1 
-9.33606e-06 3.74413e-05 1 
-2.85383e-05 -1.04296e-05 1 
-4.91144e-06 -1.42986e-05 1 
1.86697e-05 -2.28857e-05 1 
1.92948e-05 -3.93477e-05 1 
2.6802e-05 -6.84155e-06 1 
-9.93743e-05 -8.3612e-05 1 
-0.000256701 -7.82075e-05 1 
-0.000226374 -0.000106877 1 
-0.000110615 -4.30997e-05 1 
-7.57051e-05 3.12479e-05 1 
0.00118125 0.00114003 0.999999 
0.00226232 0.00235429 0.999995 
0.011385 0.0118933 0.999865 
0.0212557 0.023641 0.999495 
0.0420849 0.0495087 0.997887 
0.0705258 0.0869272 0.993715 
0.0851874 0.1103 0.990241 
0.059903 0.0810419 0.994909 
-0.00661914 -0.00868046 0.99994 
0.00691364 0.00975352 0.999929 
0.000983671 0.00167905 0.999997 
0.000915459 -0.00144887 0.999998 
0.00591533 -0.00843416 0.999947 
-0.00108164 0.0012812 0.999999 
0.059543 -0.0857442 0.994536 
0.0811673 -0.112081 0.990379 
0.057026 -0.0755962 0.995507 
0.0350496 -0.0439311 0.99842 
0.0135615 -0.0161342 0.999778 
0.0038065 -0.00402968 0.999985 
0.00172855 -0.00165598 0.999997 
0.000169159 -0.000130213 1 
-9.59137e-05 4.3481e-05 1 
-0.000113404 4.93576e-05 1 
-5.80839e-05 7.70619e-06 1 
-9.87061e-06 -2.14747e-05 1 
1.62113e-05 -1.91069e-05 1 
8.80535e-06 2.51108e-05 1 
-2.85051e-05 5.24222e-05 1 
-4.89414e-05 2.85912e-05 1 
2.94527e-05 -3.52629e-05 1 
-5.07045e-05 3.9752e-05 1 
-0.000288559 -8.44023e-05 1 
-0.0003906 0.000156552 1 
-0.00132082 0.000246518 0.999999 
-0.00555441 0.00150517 0.999984 
-0.0114439 0.00220489 0.999932 
-0.02646 0.00357535 0.999644 
-0.038633 0.00276247 0.99925 
-0.0393311 -6.80936e-05 0.999226 
-0.0271011 -0.00193546 0.999631 
-0.00758898 -0.00121768 0.999971 
-0.0184502 -0.00406717 0.999822 
-0.00176026 -0.000352494 0.999999 
-0.00401853 -0.00111869 0.999991 
-9.66901e-05 5.60127e-05 1 
-0.000141889 -1.05228e-05 1 
-1.23677e-05 -8.06712e-06 1 
-2.95486e-05 -4.1724e-05 1 
-3.73282e-05 -3.64022e-05 1 
-2.69233e-05 -8.48586e-06 1 
-9.5434e-05 -4.3095e-05 1 
4.92144e-06 4.36985e-05 1 
-0.000127328 1.20058e-05 1 
-8.24348e-05 -0.000106063 1 