# vtk DataFile Version 3.0 
Exported using Morpho https://github.com/Morpho-lang/morpho 
ASCII 
DATASET UNSTRUCTURED_GRID 

POINTS 3402 float 
-1.60103 -6.88743 -1.43364e-11 
-1.36496 -6.93807 3.98691e-11 
-1.17303 -6.97309 -6.46018e-11 
-0.983278 -7.00237 -3.90587e-11 
-0.743081 -7.03192 5.51117e-11 
-0.529537 -7.05121 -8.02679e-11 
-0.313287 -7.06412 8.3231e-11 
-0.126684 -7.06993 -4.3507e-11 
0.0862695 -7.07054 -8.60091e-11 
0.330637 -7.06333 8.27569e-11 
0.532451 -7.05099 -7.21483e-11 
0.741639 -7.03207 2.40369e-12 
0.950766 -7.00686 -4.23052e-11 
1.17234 -6.97321 3.04722e-11 
1.38149 -6.9348 -1.35143e-10 
1.62039 -6.8829 6.3972e-11 
-2.41323 -6.64653 5.57706e-11 
-2.2052 -6.71842 -9.22472e-12 
-1.9709 -6.79084 1.1137e-10 
-1.78299 -6.84258 -3.49502e-12 
-1.56216 -6.62991 -4.70675e-15 
-1.36101 -6.69637 9.31936e-16 
-1.14407 -6.71359 1.43503e-14 
-0.915936 -6.76927 -3.50484e-15 
-0.684197 -6.77412 7.5737e-15 
-0.470306 -6.80482 2.34783e-16 
-0.267462 -6.78873 6.87168e-15 
-0.0588837 -6.80785 -3.81221e-15 
0.165451 -6.81677 -2.80107e-15 
0.383398 -6.78915 1.60463e-15 
0.593025 -6.78356 -1.24638e-15 
0.808691 -6.76566 2.27404e-16 
1.02221 -6.74326 -1.86838e-15 
1.23102 -6.70983 -7.2703e-15 
1.44715 -6.67547 -1.57096e-15 
1.66639 -6.62189 4.89102e-15 
1.84819 -6.82526 5.59304e-11 
2.04572 -6.76868 -1.25083e-10 
2.28672 -6.69111 4.97233e-11 
-2.84635 -6.47289 6.34543e-11 
-2.63568 -6.56149 2.12799e-12 
-2.42083 -6.40211 -2.14848e-15 
-2.19085 -6.46086 -5.99613e-16 
-1.98893 -6.54018 6.25768e-15 
-1.77483 -6.58013 1.04377e-16 
-1.53811 -6.39474 3.95178e-14 
-1.3177 -6.43833 -4.12943e-14 
-1.10413 -6.46592 -2.57551e-15 
-0.900636 -6.52692 1.70267e-15 
-0.694441 -6.50795 2.55136e-14 
-0.480499 -6.53617 2.77083e-14 
-0.271565 -6.51975 -4.20971e-14 
-0.0671951 -6.53946 3.15621e-15 
0.143167 -6.55324 3.45548e-15 
0.353052 -6.52713 3.54387e-15 
0.564132 -6.51647 2.65641e-15 
0.775292 -6.51205 -1.42863e-15 
0.990185 -6.48551 8.79134e-16 
1.21135 -6.46358 1.78718e-14 
1.43033 -6.42334 1.90268e-14 
1.64956 -6.37429 -3.18595e-14 
1.88457 -6.55264 -1.92012e-15 
2.09913 -6.50742 -4.34985e-15 
2.30926 -6.42621 5.69626e-15 
2.49991 -6.61441 5.8922e-11 
2.68448 -6.54168 -9.52814e-11 
2.94351 -6.42929 -4.76658e-11 
-3.28906 -6.25956 5.41792e-11 
-3.07352 -6.36816 -1.13011e-11 
-2.84959 -6.21641 4.84639e-16 
-2.62803 -6.29769 -8.94764e-16 
-2.38498 -6.15345 -5.52191e-15 
-2.17562 -6.23061 -1.3342e-14 
-1.94284 -6.28008 -3.07524e-14 
-1.74296 -6.32741 -3.44915e-14 
-1.54773 -6.1545 5.96004e-15 
-1.33192 -6.20417 1.61021e-14 
-1.10935 -6.22294 -2.26654e-14 
-0.896116 -6.2691 2.26909e-14 
-0.693993 -6.25203 -2.83915e-14 
-0.489757 -6.28527 1.40778e-15 
-0.274389 -6.27607 7.85783e-15 
-0.0626871 -6.278 -1.24528e-14 
0.142237 -6.29053 2.16691e-15 
0.3487 -6.27406 9.74459e-15 
0.557053 -6.26744 -5.81079e-15 
0.764573 -6.26068 1.76292e-15 
0.969423 -6.24054 6.54537e-15 
1.18603 -6.22364 -3.37909e-14 
1.39729 -6.18701 1.63501e-14 
1.61804 -6.13722 1.57809e-14 
1.85157 -6.29419 2.68514e-14 
2.05901 -6.25309 7.87587e-15 
2.26322 -6.18013 -5.49594e-15 
2.51192 -6.33599 9.42265e-16 
2.73903 -6.28911 -5.73249e-15 
2.94813 -6.16863 -1.81237e-15 
3.16465 -6.32337 2.1263e-11 
3.36766 -6.21763 -3.87543e-11 
-3.72132 -6.01263 3.78362e-11 
-3.5075 -6.13982 1.53321e-11 
-3.28182 -6.00252 -2.85448e-16 
-3.06642 -6.10645 1.61189e-15 
-2.82509 -5.97009 3.8783e-15 
-2.60382 -6.05128 -1.38529e-14 
-2.38338 -5.91522 1.08592e-15 
-2.16849 -5.9809 -1.29146e-14 
-1.96523 -6.04649 4.2671e-14 
-1.74583 -6.06375 -6.95283e-16 
-1.53181 -5.92822 2.34794e-15 
-1.3313 -5.98692 3.81493e-16 
-1.1189 -6.00182 7.27355e-15 
-0.898971 -6.04054 -5.41772e-15 
-0.687843 -6.02139 -1.45145e-14 
-0.485131 -6.0569 -1.07478e-14 
-0.280533 -6.0423 -5.55205e-15 
-0.0722927 -6.04148 5.97858e-15 
0.138101 -6.04662 2.87641e-15 
0.344133 -6.03789 -1.81357e-15 
0.549494 -6.0353 -2.01664e-15 
0.75784 -6.02205 4.86589e-15 
0.97718 -6.02058 1.05431e-14 
1.18143 -5.98472 -1.09834e-14 
1.3985 -5.97468 5.49589e-15 
1.60994 -5.91627 7.26033e-15 
1.82706 -6.04916 -4.09792e-14 
2.03575 -6.00907 -5.85361e-15 
2.25837 -5.94962 1.73091e-14 
2.47943 -6.09734 2.50535e-14 
2.69182 -6.0432 -2.33457e-15 
2.90662 -5.93563 9.44683e-15 
3.16095 -6.06254 2.37491e-15 
3.37407 -5.95669 8.60908e-16 
3.59173 -6.09093 -5.56069e-11 
-3.93566 -5.87457 1.31443e-11 
-3.70357 -5.75867 1.1731e-14 
-3.49605 -5.87899 3.93106e-16 
-3.25647 -5.75634 2.43849e-15 
-3.03859 -5.85334 -5.47812e-15 
-2.81783 -5.7291 7.04955e-16 
-2.60398 -5.81013 1.80933e-14 
-2.39707 -5.69756 -4.70382e-16 
-2.17747 -5.75733 2.47708e-15 
-1.96325 -5.8156 1.86819e-15 
-1.75883 -5.84513 1.2229e-14 
-1.55155 -5.73587 -3.1818e-16 
-1.30915 -5.77643 -2.17059e-15 
-1.10264 -5.77588 2.74487e-15 
-0.900575 -5.83631 -1.48458e-15 
-0.70211 -5.79164 1.20397e-15 
-0.504777 -5.83388 -1.25796e-16 
-0.301059 -5.81982 3.18413e-15 
-0.0925092 -5.81753 5.20484e-15 
0.116441 -5.82834 -5.65108e-16 
0.32783 -5.82079 -7.81407e-16 
0.540476 -5.81399 8.80924e-16 
0.745454 -5.80664 -7.42731e-16 
0.96308 -5.80591 -1.10517e-15 
1.18605 -5.77563 -2.97151e-15 
1.39841 -5.77091 -1.21168e-15 
1.62383 -5.71333 -3.0122e-15 
1.82383 -5.82178 -1.38497e-14 
2.04907 -5.79741 1.35195e-14 
2.26566 -5.72893 6.93522e-15 
2.46425 -5.85114 -3.34147e-14 
2.66508 -5.80567 -9.32701e-15 
2.87933 -5.70996 1.55334e-14 
3.12022 -5.82165 1.04137e-14 
3.34497 -5.71551 4.33282e-15 
3.59334 -5.82721 8.54774e-15 
3.81705 -5.95232 4.55333e-11 
4.0306 -5.80984 -3.40876e-11 
-4.37385 -5.55603 3.08625e-11 
-4.15491 -5.7216 6.59053e-11 
-3.92101 -5.62185 4.24442e-16 
-3.67873 -5.51737 3.25262e-15 
-3.45856 -5.62176 -5.00774e-15 
-3.23661 -5.50827 -6.01904e-15 
-3.03548 -5.60688 6.97923e-15 
-2.82353 -5.51193 -2.6719e-15 
-2.60693 -5.58033 2.50882e-15 
-2.40077 -5.48934 5.80458e-15 
-2.18792 -5.55286 -6.78301e-16 
-1.96991 -5.6043 -9.26224e-16 
-1.76015 -5.62413 2.54929e-15 
-1.56908 -5.5229 8.33212e-16 
-1.36783 -5.59178 5.74607e-16 
-1.14307 -5.5712 1.89176e-16 
-0.909223 -5.6241 2.41045e-16 
-0.691981 -5.59293 1.11097e-15 
-0.470169 -5.61951 6.39794e-16 
-0.253737 -5.61129 2.28969e-16 
-0.0385858 -5.61182 4.35341e-16 
0.172163 -5.62298 -1.35499e-15 
0.389483 -5.61942 1.57237e-16 
0.596256 -5.59527 -1.51632e-15 
0.813158 -5.61286 -4.17746e-16 
1.03257 -5.60513 -2.38154e-15 
1.25361 -5.5684 3.80236e-16 
1.46348 -5.57356 -2.07443e-15 
1.67907 -5.50901 1.08754e-15 
1.85559 -5.61441 1.75641e-15 
2.0606 -5.58533 -4.148e-15 
2.25539 -5.5138 -7.78279e-16 
2.45935 -5.60816 4.03327e-15 
2.66375 -5.58544 4.65189e-15 
2.89487 -5.50432 -4.12859e-15 
3.10852 -5.59438 -1.85166e-14 
3.31805 -5.47952 -5.04981e-15 
3.55887 -5.58032 -2.42213e-16 
3.80591 -5.68472 -2.2827e-15 
4.01063 -5.55261 -1.63101e-15 
4.23923 -5.65941 -3.11734e-11 
-4.58844 -5.38017 4.57921e-11 
-4.34 -5.31339 7.54641e-16 
-4.12857 -5.47192 1.22432e-15 
-3.88517 -5.36976 -8.63743e-15 
-3.65983 -5.27799 -4.81538e-15 
-3.45046 -5.37637 2.66967e-15 
-3.23561 -5.2933 -2.99701e-15 
-3.01962 -5.37423 2.03624e-15 
-2.81743 -5.29404 -1.848e-15 
-2.62473 -5.36864 6.76511e-16 
-2.41707 -5.29501 -6.85706e-16 
-2.19265 -5.34849 1.82199e-15 
-1.98678 -5.39671 1.26291e-15 
-1.78053 -5.41037 -1.42919e-14 
-1.54658 -5.34526 5.78618e-16 
-1.31901 -5.40276 2.2531e-16 
-1.11695 -5.3541 -1.94245e-14 
-0.944205 -5.43441 3.76433e-15 
-0.749555 -5.39353 -2.30917e-14 
-0.538593 -5.41576 1.92777e-16 
-0.332014 -5.41965 -6.34508e-15 
-0.108883 -5.41242 -1.89171e-14 
0.10595 -5.41544 -1.07146e-14 
0.314486 -5.42457 2.31653e-14 
0.523311 -5.40156 1.70988e-14 
0.750461 -5.41166 -1.50431e-16 
0.955213 -5.41793 1.31204e-14 
1.16739 -5.39536 -1.45156e-16 
1.39904 -5.37846 8.21555e-15 
1.59015 -5.34408 -1.59172e-16 
1.83699 -5.36751 -5.89063e-16 
2.02066 -5.37935 -1.43376e-15 
2.22792 -5.32331 -1.87887e-15 
2.45652 -5.38937 -8.30014e-16 
2.68227 -5.3946 1.17418e-15 
2.89197 -5.30178 -7.54578e-16 
3.10088 -5.37161 -1.27906e-14 
3.30044 -5.25726 -5.82071e-16 
3.52101 -5.34444 1.25338e-14 
3.76109 -5.42916 4.9913e-15 
3.97801 -5.30909 -2.92875e-15 
4.214 -5.4021 3.19454e-16 
4.43621 -5.50636 2.2049e-11 
-4.79706 -5.19502 4.09223e-11 
-4.54693 -5.14074 1.85536e-15 
-4.30323 -5.06656 -1.33038e-14 
-4.0956 -5.22531 -2.37244e-15 
-3.86147 -5.12616 2.11576e-15 
-3.64929 -5.05434 -1.22566e-14 
-3.45349 -5.14904 1.01942e-14 
-3.25449 -5.09221 -4.68433e-15 
-3.03094 -5.16275 2.70003e-16 
-2.81782 -5.09918 3.37896e-15 
-2.6037 -5.15263 -5.98196e-16 
-2.36091 -5.12236 -3.08159e-16 
-2.15065 -5.15588 -3.36055e-16 
-1.94667 -5.19531 -1.01446e-14 
-1.73771 -5.21412 3.39797e-16 
-1.55206 -5.12262 -1.68372e-14 
-1.36474 -5.20702 -1.33884e-14 
-1.15874 -5.16146 -3.98893e-15 
-0.922671 -5.20934 -5.2354e-15 
-0.688271 -5.1966 -3.01368e-15 
-0.478413 -5.20688 -9.00157e-16 
-0.260362 -5.22158 -6.36216e-15 
-0.0442878 -5.2026 1.35266e-15 
0.165435 -5.20363 1.95911e-15 
0.36894 -5.20715 4.76859e-15 
0.600107 -5.21475 6.88921e-15 
0.807754 -5.20032 2.00735e-15 
1.0089 -5.21393 7.71193e-15 
1.24024 -5.2118 4.53458e-15 
1.4321 -5.15822 1.56603e-14 
1.6703 -5.18387 -2.57654e-16 
1.89693 -5.17155 -1.92005e-16 
2.09709 -5.15927 1.59577e-14 
2.29076 -5.09256 2.46999e-14 
2.43738 -5.19848 -1.04384e-15 
2.65857 -5.2061 -9.1292e-16 
2.86937 -5.11365 -4.4476e-16 
3.09179 -5.16046 -2.21487e-15 
3.30574 -5.05692 3.15603e-16 
3.51978 -5.13117 6.92695e-15 
3.73785 -5.19432 -2.96823e-14 
3.93384 -5.07299 8.72552e-15 
4.17228 -5.1497 1.24031e-14 
4.41003 -5.23723 1.87336e-15 
4.64414 -5.33216 5.02289e-11 
4.85679 -5.13922 -6.72634e-11 
-5.0032 -4.9968 -5.47508e-12 
-4.75698 -4.95816 -1.58961e-18 
-4.50853 -4.89654 -2.97736e-15 
-4.26541 -4.83208 -6.51819e-15 
-4.06784 -4.98991 -2.41686e-15 
-3.85913 -4.90082 2.06081e-14 
-3.65561 -4.85329 -5.87973e-16 
-3.44209 -4.92524 6.12896e-16 
-3.23935 -4.88223 4.48101e-15 
-3.05377 -4.9685 -7.30419e-15 
-2.87339 -4.89731 -2.91014e-16 
-2.65889 -4.94629 7.85311e-16 
-2.45283 -4.96028 1.84418e-14 
-2.21154 -4.95639 1.58726e-14 
-1.99384 -4.97933 -2.13037e-14 
[...]
POINT_DATA 3402 
VECTORS vectors float
-0.000607922 4.33328e-05 1 
-0.000982507 0.000279914 0.999999 
0.00300943 -0.000586861 0.999995 
-0.000576621 -9.4688e-05 1 
-0.00034751 0.000351289 1 
0.000793182 -0.000499164 1 
-0.000557207 0.00046955 1 
0.00311443 -0.000359167 0.999995 
-0.00196584 1.62281e-05 0.999998 
0.000647713 0.000222117 1 
0.000857881 -0.000298499 1 
0.000168565 0.000401267 1 
0.000182804 -0.000263986 1 
-0.000136599 0.000226931 1 
0.00136746 0.000130039 0.999999 
-0.00214306 -0.00037738 0.999998 
0.00040423 0.000175672 1 
-0.000162061 -0.000243536 1 
-0.000872266 0.000362712 1 
0.00328577 -0.000874721 0.999994 
-0.0155103 0.00411963 0.999871 
-0.00319468 0.000281437 0.999995 
-0.0123046 1.40119e-05 0.999924 
0.00772441 -0.000649035 0.99997 
-0.0227657 0.00180167 0.999739 
-0.00498263 -0.000292727 0.999988 
-0.0221533 0.000320451 0.999755 
-0.0234842 0.000147182 0.999724 
0.00202389 0.00181841 0.999996 
-0.0214807 -0.00138771 0.999768 
-0.00789822 -0.00138599 0.999968 
-0.022846 -0.00261813 0.999736 
-0.00416325 -2.50243e-05 0.999991 
-0.0184323 -0.00227518 0.999828 
0.00286281 0.00115988 0.999995 
0.000230288 -0.000904501 1 
0.00198259 0.000485425 0.999998 
0.000407494 0.000147701 1 
-0.00195098 -0.000625427 0.999998 
8.48307e-05 0.000188532 1 
-9.78958e-05 -0.000305902 1 
0.00681476 -0.00128819 0.999976 
-0.00287445 0.000898274 0.999995 
0.00035621 -0.00165679 0.999999 
-0.024662 0.00680943 0.999673 
0.0323302 -0.00934214 0.999434 
0.0427459 -0.00715309 0.99906 
0.0278299 -0.0048044 0.999601 
0.0475692 -0.0076645 0.998839 
0.0459916 -0.00676511 0.998919 
0.0434805 -0.00485686 0.999042 
0.0562986 -0.00107483 0.998413 
0.054064 -0.00018455 0.998537 
0.0504811 0.00121057 0.998724 
0.0491527 0.00250008 0.998788 
0.0557352 0.00476197 0.998434 
0.0386354 0.00457756 0.999243 
0.0493698 0.00735835 0.998753 
0.0324288 0.00540659 0.999459 
0.0278379 0.00520259 0.999599 
0.0270432 0.00853433 0.999598 
-0.0220184 -0.00615111 0.999739 
0.00830905 0.00374317 0.999958 
0.000839119 -0.00124113 0.999999 
0.00244956 0.000970564 0.999997 
-0.000155218 -0.000122854 1 
-0.000936272 -0.000272128 1 
0.000197371 5.90086e-05 1 
-0.000254762 -0.000116473 1 
0.0088008 -0.00423801 0.999952 
-0.0053973 0.00233777 0.999983 
0.019849 -0.00689663 0.999779 
0.012309 -0.00340896 0.999918 
0.0402105 -0.0106591 0.999134 
0.0454721 -0.0107994 0.998907 
0.131136 -0.0334859 0.990799 
0.127761 -0.0275284 0.991423 
0.135967 -0.0234886 0.990435 
0.129979 -0.0186984 0.99134 
0.140465 -0.0152289 0.989968 
0.134774 -0.0105237 0.990821 
0.13497 -0.00534289 0.990835 
0.136965 -0.000590327 0.990576 
0.134641 0.00310577 0.99089 
0.13706 0.00728965 0.990536 
0.132253 0.0117768 0.991146 
0.138381 0.0165821 0.99024 
0.132841 0.0203313 0.990929 
0.135823 0.0260402 0.990391 
0.124081 0.027348 0.991895 
0.126424 0.0332852 0.991418 
0.0437445 0.0123486 0.998966 
0.0240856 0.00734998 0.999683 
0.022049 0.00822103 0.999723 
-0.0176871 -0.00721504 0.999818 
0.00741962 0.00545224 0.999958 
0.014557 0.00815594 0.999861 
0.000625909 0.000167435 1 
0.000202983 0.000304233 1 
8.21288e-05 6.14985e-05 1 
-0.000268452 -4.2752e-05 1 
0.0100325 -0.00544628 0.999935 
-0.00031479 -0.000317761 1 
0.00932612 -0.00465079 0.999946 
0.0204863 -0.00820267 0.999756 
0.113459 -0.0457329 0.99249 
0.1248 -0.0449643 0.991163 
0.123165 -0.0405932 0.991556 
0.133928 -0.038632 0.990238 
0.113652 -0.0298307 0.993073 
0.113358 -0.025443 0.993228 
0.108262 -0.0202199 0.993917 
0.112447 -0.0162785 0.993524 
0.0970732 -0.0102378 0.995225 
0.106267 -0.00785073 0.994307 
0.0965846 -0.0040826 0.995316 
0.0946154 -0.00101471 0.995513 
0.0993516 0.0022331 0.99505 
0.0949867 0.00538798 0.995464 
0.105033 0.00941778 0.994424 
0.10012 0.0123673 0.994899 
0.112435 0.0179897 0.993496 
0.10642 0.0212636 0.994094 
0.119734 0.0278472 0.992415 
0.112344 0.030648 0.993197 
0.1336 0.0413593 0.990172 
0.114771 0.0392085 0.992618 
0.120534 0.0454502 0.991668 
0.0327092 0.0123868 0.999388 
0.0147868 0.00669597 0.999868 
0.000986431 1.37009e-06 1 
0.00589724 0.0022136 0.99998 
0.00381033 0.00143878 0.999992 
-0.000551845 -0.000431481 1 
-0.000209545 -1.44931e-05 1 
0.00924328 -0.00584022 0.99994 
0.00297659 -0.00189069 0.999994 
0.00207602 -0.00129667 0.999997 
0.01372 -0.00708411 0.999881 
0.104901 -0.0525064 0.993096 
0.115007 -0.0523991 0.991982 
0.120708 -0.0514482 0.991354 
0.116449 -0.0445272 0.992198 
0.113601 -0.0390109 0.99276 
0.106181 -0.0326719 0.99381 
0.0628527 -0.0173478 0.997872 
0.060376 -0.0139316 0.998078 
0.0437215 -0.00848502 0.999008 
0.0583832 -0.0087785 0.998256 
0.0395121 -0.00463011 0.999208 
0.0444144 -0.00359293 0.999007 
0.0399542 -0.0020948 0.999199 
0.038083 -0.000831392 0.999274 
0.0431401 0.00097695 0.999069 
0.0409164 0.00244452 0.99916 
0.043389 0.00406282 0.99905 
0.0428683 0.00551987 0.999065 
0.0524502 0.00884247 0.998584 
0.0523865 0.0110468 0.998566 
0.0607193 0.0147934 0.998045 
0.0639931 0.0185531 0.997778 
0.103754 0.0331801 0.994049 
0.11828 0.0418146 0.992099 
0.115093 0.0454519 0.992314 
0.127688 0.0541703 0.990334 
0.102905 0.0473568 0.993563 
0.101453 0.050974 0.993534 
0.0109559 0.00539592 0.999925 
-0.00120063 -0.000975998 0.999999 
0.0110077 0.00671372 0.999917 
4.5302e-05 0.000185118 1 
1.0049e-05 -9.19843e-05 1 
-0.00030191 0.000134939 1 
-5.78564e-05 0.000113701 1 
0.0052025 -0.0037104 0.99998 
-0.00404287 0.00251921 0.999989 
0.00953088 -0.00569233 0.999938 
0.0987223 -0.0583916 0.9934 
0.106693 -0.0583941 0.992576 
0.12117 -0.0629162 0.990636 
0.111507 -0.0530384 0.992347 
0.0701884 -0.0313948 0.99704 
0.0669071 -0.0267281 0.997401 
0.0599148 -0.0213876 0.997974 
0.0487966 -0.0157322 0.998685 
0.020445 -0.00605701 0.999773 
0.0238048 -0.00599448 0.999699 
0.0146861 -0.00314767 0.999887 
0.0169966 -0.00279604 0.999852 
0.0103317 -0.00146054 0.999946 
0.0120708 -0.00108375 0.999927 
0.00964228 -0.000567564 0.999953 
0.0100821 -0.00021785 0.999949 
0.0112156 0.000527782 0.999937 
0.0115374 0.000855857 0.999933 
0.010112 0.00134881 0.999948 
0.0144966 0.00226871 0.999892 
0.0170029 0.00349874 0.999849 
0.0175355 0.00406135 0.999838 
0.0241231 0.0066339 0.999687 
0.0220668 0.00675158 0.999734 
0.0512816 0.0172046 0.998536 
0.0647642 0.0241223 0.997609 
0.0632352 0.0259989 0.99766 
0.107301 0.0470573 0.993112 
0.115883 0.0554115 0.991716 
0.123085 0.0653984 0.990239 
0.101693 0.0572696 0.993166 
0.0937095 0.0574329 0.993942 
-0.00101736 -0.000768068 0.999999 
-0.00202492 -0.000556035 0.999998 
0.0137516 0.0110281 0.999845 
-0.000251207 -4.89614e-05 1 
1.77184e-05 -4.60333e-06 1 
0.00974849 -0.00745717 0.999925 
0.0142201 -0.0104848 0.999844 
-0.00214783 0.00212491 0.999995 
0.0827441 -0.0572118 0.994927 
0.0983822 -0.0632399 0.993137 
0.11594 -0.0713149 0.990693 
0.108893 -0.0618077 0.99213 
0.0717853 -0.0386623 0.996671 
0.0660504 -0.0329016 0.997274 
0.0307841 -0.0142364 0.999425 
0.0241514 -0.0101603 0.999657 
0.021796 -0.00829451 0.999728 
0.0134565 -0.00465002 0.999899 
0.00429535 -0.00150311 0.99999 
0.00502375 -0.00133568 0.999986 
0.00181725 -0.000451141 0.999998 
0.00357551 -0.000614292 0.999993 
0.00118634 -0.000246899 0.999999 
0.00158397 -0.000311412 0.999999 
0.00135506 -0.000130445 0.999999 
0.00118811 -9.3247e-05 0.999999 
0.00121359 2.6137e-05 0.999999 
0.00146681 0.000193738 0.999999 
0.00126193 0.000273441 0.999999 
0.00189855 0.000426251 0.999998 
0.00267536 0.00060943 0.999996 
0.00359328 0.000913614 0.999993 
0.00471817 0.00135176 0.999988 
0.0049082 0.00159058 0.999987 
0.0114721 0.00414574 0.999926 
0.0210285 0.00825838 0.999745 
0.0231478 0.00988229 0.999683 
0.0510786 0.0234384 0.99842 
0.0777321 0.0388735 0.996216 
0.0802278 0.0443328 0.99579 
0.11421 0.067092 0.991189 
0.11348 0.071982 0.990929 
0.0906895 0.059914 0.994075 
0.00912757 0.00652214 0.999937 
-0.0116176 -0.00840495 0.999897 
0.0141547 0.00951931 0.999855 
0.000154581 8.8396e-05 1 
-0.00032838 0.00023772 1 
0.0142995 -0.0122302 0.999823 
-0.00866146 0.00875724 0.999924 
-0.00962942 0.00784815 0.999923 
0.083555 -0.0626459 0.994532 
0.112309 -0.0809694 0.990369 
0.108738 -0.0732823 0.991366 
0.0848164 -0.0544401 0.994908 
0.0652245 -0.0387145 0.997119 
0.030728 -0.0173845 0.999377 
0.0235865 -0.0121121 0.999648 
0.00878007 -0.00406115 0.999953 
0.00524157 -0.00222228 0.999984 
0.00408059 -0.00162635 0.99999 
0.0020223 -0.000958321 0.999997 
8.36875e-05 -0.000242157 1 
0.000347314 -0.000200181 1 
-0.000276955 1.09681e-05 1 
-9.38271e-05 -6.56082e-05 1 
-0.000230848 -6.2657e-05 1 
-0.000211459 2.01348e-05 1 
-0.000144091 -1.16121e-05 1 
-0.000221232 3.95158e-06 1 
-0.000242 4.59933e-05 1 
-0.000249329 0.000116252 1 
-0.000263987 0.000111649 1 
-0.00019503 -2.4011e-06 1 
-3.48166e-05 9.27469e-05 1 
0.000162765 8.73593e-05 1 
0.000182495 0.000205872 1 
0.000750601 0.000501612 1 
0.00223915 0.000973454 0.999997 
0.00514822 0.0022319 0.999984 
0.00494964 0.0023596 0.999985 
0.0180327 0.00862395 0.9998 
0.0336361 0.0174565 0.999282 
0.036179 0.0205363 0.999134 
0.0714515 0.0434429 0.996498 
0.0797755 0.0525081 0.995429 
0.112758 0.0776008 0.990588 
0.0903795 0.0659423 0.993722 
0.0782297 0.0603045 0.99511 
-0.00540576 -0.00554717 0.99997 
0.00988784 0.00588416 0.999934 
-0.00049408 -0.000337063 1 
0.000186531 0.00016548 1 
-8.94615e-05 8.92454e-05 1 
0.0140911 -0.0140354 0.999802 
-0.0124936 0.0118391 0.999852 
0.0636544 -0.0549506 0.996458 
0.0690903 -0.0557132 0.996053 
0.108759 -0.0860538 0.990336 
0.086567 -0.065487 0.994091 
0.0657302 -0.0462908 0.996763 
0.034236 -0.0231526 0.999146 
0.0312581 -0.0195839 0.999319 
0.010715 -0.00645705 0.999922 
0.00685707 -0.00397487 0.999969 
0.00293174 -0.00145745 0.999995 
0.000929797 -0.000350116 1 
0.000395061 -0.000343335 1 
5.23664e-06 -0.00015801 1 
-0.000463326 -4.31517e-05 1 
-0.000428752 5.92755e-05 1 
-0.000444506 4.71703e-05 1 
-0.000481992 -8.59963e-05 1 
-0.000430283 -3.62326e-05 1 
-0.000434994 -3.15345e-05 1 
-0.000358927 -9.57076e-05 1 
-0.000337716 1.07034e-05 1 
-0.000314652 2.88494e-05 1 
-0.000299948 9.69828e-05 1 
-0.000287155 0.000123889 1 
-0.000254634 -4.309e-05 1 
-0.000259564 3.47526e-05 1 
-0.000334054 5.07771e-05 1 
-0.000307872 -7.03878e-05 1 
-0.000247999 4.28698e-05 1 
3.97467e-05 4.50261e-05 1 
0.000527761 0.000251262 1 
0.000598517 0.000368716 1 
0.00334578 0.00176288 0.999993 
0.0109924 0.00594304 0.999922 
0.0126515 0.00733828 0.999893 
0.0337104 0.0209592 0.999212 
0.0348331 0.0234902 0.999117 
0.0756367 0.0536876 0.995689 
0.108154 0.0808652 0.99084 
0.10769 0.0861283 0.990447 
0.0805413 0.0665541 0.994527 
0.002777 0.00274868 0.999992 
-0.00513583 -0.00252244 0.999984 
0.0109538 0.0136338 0.999847 
-0.000269809 -0.000253953 1 
-0.000124291 5.90065e-05 1 
0.0136441 -0.0144722 0.999802 
-0.0119947 0.0112089 0.999865 
0.053892 -0.0517272 0.997206 
0.100554 -0.0916422 0.990702 
0.104757 -0.0885861 0.990545 
0.0742456 -0.06127 0.995356 
0.0404325 -0.0321695 0.998664 
0.0319459 -0.0239116 0.999204 
0.0124875 -0.00917382 0.99988 
0.0076223 -0.00531082 0.999957 
0.00191481 -0.00131633 0.999997 
0.000829716 -0.000535316 1 
0.000193402 -4.95652e-05 1 
-3.7232e-05 3.82256e-05 1 
-0.000200022 4.69423e-05 1 
-0.000203556 3.25904e-05 1 
-0.000212695 -5.73902e-05 1 
-0.000242125 8.32878e-05 1 
-0.000237625 3.85822e-05 1 
-0.000190444 -3.88654e-05 1 
-0.000288282 -7.6354e-05 1 
-0.000234586 -6.84338e-05 1 
-0.00033691 -1.94341e-05 1 
-0.000317295 -4.95522e-05 1 
-0.000255303 -3.44285e-06 1 
-0.000194015 4.78286e-05 1 
-0.000138014 8.40331e-05 1 
-0.000124272 2.18846e-05 1 
-0.000263197 6.37593e-05 1 
-0.000166403 6.14611e-05 1 
-0.00025613 2.61795e-05 1 
-0.000310078 -5.3765e-06 1 
-0.000270297 -0.000247912 1 
-0.000182322 7.58298e-05 1 
-4.41113e-05 2.9726e-05 1 
0.000313912 0.00030811 1 
0.00251045 0.00143966 0.999996 
0.00229862 0.00129234 0.999997 
0.00994387 0.00633585 0.99993 
0.0103781 0.00718224 0.99992 
0.0324408 0.02354 0.999196 
0.0647803 0.0500311 0.996645 
0.0705911 0.0584071 0.995794 
0.101404 0.0875717 0.990984 
0.084349 0.0771919 0.993442 
0.00247537 0.0037207 0.99999 
-0.0111632 -0.0107261 0.99988 
0.0188247 0.0183272 0.999655 
2.14887e-05 0.000118426 1 
-0.00015784 0.000165953 1 
0.0135874 -0.0148258 0.999798 
-0.0121099 0.0127445 0.999845 
0.0464478 -0.0494669 0.997695 
0.097839 -0.0989101 0.990275 
0.0855639 -0.0826189 0.992901 
0.0796443 -0.0705381 0.994324 
0.0356807 -0.0309063 0.998885 
0.0147571 -0.0124001 0.999814 
0.00891761 -0.00716139 0.999935 
0.00253038 -0.00210895 0.999995 
0.000820066 -0.000822601 0.999999 
-6.26407e-05 -0.000165011 1 
-0.000176834 1.95867e-06 1 
-0.000182122 9.83509e-05 1 
-0.000165474 0.000122862 1 
-0.000144702 -3.45371e-05 1 
-8.54435e-05 2.89028e-05 1 
-0.000115872 1.5692e-05 1 
-0.000117783 5.33934e-05 1 
-5.40993e-05 8.77312e-06 1 
-0.000112122 -1.52962e-05 1 
-0.00015215 -6.26492e-06 1 
-0.000186679 -8.04835e-05 1 
-0.000198763 3.99241e-06 1 
-0.000161202 -8.33744e-05 1 
-0.000146101 -4.39703e-05 1 
-0.000122574 -1.53837e-05 1 
-7.48972e-05 2.21088e-05 1 
1.97307e-05 0.000109076 1 
-6.53484e-06 0.000160494 1 
-0.000215637 2.43929e-05 1 
-0.000147008 3.34016e-05 1 
-0.000139866 8.84217e-06 1 
-0.000210625 -0.000167786 1 
-0.000230291 -7.0579e-05 1 
-0.000279122 -4.59288e-05 1 
-0.000149148 -0.000119608 1 
0.000196954 6.1014e-05 1 
0.00012429 1.18532e-05 1 
0.00212296 0.00136573 0.999997 
0.00839744 0.00619611 0.999946 
0.023834 0.0187835 0.999539 
0.029856 0.025468 0.99923 
0.0616239 0.054868 0.99659 
0.0927973 0.0871055 0.991868 
0.0927787 0.0912814 0.991494 
0.0649457 0.0664353 0.995675 
-0.00247023 -0.00514291 0.999984 
0.00675853 0.00432628 0.999968 
-0.000136179 -0.000140672 1 
-0.000151336 0.000140851 1 
0.00935647 -0.011172 0.999894 
-0.00846928 0.00937487 0.99992 
0.05455 -0.0623126 0.996565 
0.0941556 -0.102287 0.990289 
0.0775596 -0.0808803 0.993702 
0.041718 -0.0415638 0.998265 
0.0510891 -0.0477781 0.997551 
0.0189778 -0.0177836 0.999662 
0.00872733 -0.00775066 0.999932 
0.00294437 -0.0026365 0.999992 
0.00115671 -0.00103308 0.999999 
6.76891e-05 -0.000202878 1 
-0.000194632 -4.09868e-05 1 
-0.000250678 1.23234e-06 1 
-0.000236054 2.23384e-05 1 
-0.000182138 1.53818e-05 1 
-9.11336e-05 4.93056e-05 1 
-0.000123712 -7.98413e-05 1 
-8.31995e-05 6.35237e-05 1 
-3.33351e-05 -7.54129e-05 1 
1.57638e-05 7.95727e-05 1 
5.98167e-06 -5.30067e-05 1 
-1.95983e-06 0.000105534 1 
-1.82071e-05 -5.27205e-05 1 
-6.52042e-05 -1.32784e-05 1 
-3.83432e-06 -8.03481e-05 1 
-4.93901e-05 -2.7551e-05 1 
-9.63629e-05 -1.2233e-05 1 
-0.000103472 -3.73882e-05 1 
-0.000154688 -1.18488e-05 1 
-6.61208e-05 0.000102718 1 
-5.5727e-08 0.000176976 1 
-3.25144e-05 5.36884e-05 1 
-6.20127e-05 -3.54235e-05 1 
-9.5804e-05 -5.51571e-05 1 
-0.000217635 -1.27056e-05 1 
-0.000205225 -7.1978e-05 1 
-0.00013824 -0.000201515 1 
-0.000166321 -6.54485e-05 1 
-7.33175e-05 -0.000104723 1 
2.71326e-05 -3.46494e-05 1 
0.00128104 0.00109872 0.999999 
0.00363303 0.00290142 0.999989 
0.00803646 0.00702459 0.999943 
0.021818 0.0198689 0.999565 
0.0493422 0.0470368 0.997674 
0.0845112 0.0853617 0.992759 
0.0973703 0.103039 0.9899 
0.0674462 0.0726471 0.995075 
0.0051609 0.00527468 0.999973 
0.00377176 0.00635368 0.999973 
-0.00019407 -0.000213331 1 
-7.78384e-05 8.44213e-05 1 
0.00501623 -0.00741823 0.99996 
-0.00523599 0.00547355 0.999971 
0.0613398 -0.0754595 0.99526 
0.0904186 -0.105342 0.990317 
0.0678944 -0.0761351 0.994783 
0.0336966 -0.0359975 0.998784 
0.0141168 -0.0141122 0.999801 
0.00407487 -0.00402752 0.999984 
0.00148854 -0.00143195 0.999998 
0.000279657 -0.000277542 1 
-5.00812e-05 -5.89091e-06 1 
-0.000156765 3.43189e-05 1 
-0.000174559 5.40232e-06 1 
-0.000160489 -2.37175e-06 1 
-0.000164006 -9.01665e-06 1 
-0.000167705 -1.94783e-06 1 
-0.000170657 -1.12169e-06 1 
-0.000154489 -5.22024e-05 1 
-0.000105805 -5.31005e-05 1 
-4.10221e-05 -4.9669e-05 1 
-1.19369e-05 1.11729e-05 1 
-1.43461e-05 3.74969e-05 1 
1.16434e-05 1.44196e-06 1 
5.11273e-05 -2.45187e-05 1 
3.86025e-05 -6.65214e-05 1 
1.12503e-05 -1.71732e-05 1 
-5.58454e-06 2.68819e-05 1 
5.25689e-06 -3.22101e-05 1 
-1.70208e-05 9.91691e-05 1 
-0.000151925 -1.84788e-05 1 
-9.04046e-05 3.01946e-05 1 
-0.000102648 0.000175872 1 
-3.11796e-05 4.04659e-05 1 
-2.49546e-05 -2.97656e-06 1 
-2.61365e-05 1.54495e-05 1 
1.53565e-05 -2.2011e-06 1 
-7.60033e-06 -5.60434e-05 1 
-6.74077e-05 -0.000118648 1 
-0.000107818 -0.000126815 1 
-9.37538e-05 -9.05768e-05 1 
-0.000150765 4.91272e-05 1 
0.00025814 0.000235387 1 
0.000608057 0.000637783 1 
0.00390343 0.00359923 0.999986 
0.00973898 0.00947337 0.999908 
0.0318166 0.0319947 0.998982 
0.0495599 0.0525346 0.997389 
0.0748788 0.0834027 0.993699 
0.090258 0.105943 0.990267 
0.0641526 0.0793372 0.994781 
-0.00338324 -0.00207369 0.999992 
0.00855182 0.0138495 0.999868 
6.99218e-06 1.81706e-05 1 
-9.94056e-05 7.40281e-05 1 
0.00774198 -0.0118908 0.999899 
-0.00469855 0.00589141 0.999972 
0.0579029 -0.0771477 0.995337 
0.0853839 -0.109053 0.990362 
0.0713391 -0.0865592 0.993689 
0.0400838 -0.0465158 0.998113 
0.0148373 -0.0163645 0.999756 
0.00964419 -0.0101575 0.999902 
0.00209386 -0.00208698 0.999996 
0.00041882 -0.000471351 1 
-1.10915e-05 -4.68601e-05 1 
-0.000114239 6.24946e-05 1 
-0.000100141 5.14237e-05 1 
-5.62967e-05 -1.04348e-06 1 
-5.59304e-05 -5.13431e-06 1 
-5.11149e-05 1.83585e-05 1 
-9.47053e-05 6.68306e-06 1 
-0.000118545 1.36558e-05 1 
-0.000118618 -2.81958e-05 1 
-0.000134069 -8.35242e-05 1 
-0.000115396 -0.000100383 1 
-0.00014547 -1.67068e-05 1 
-5.73959e-05 -4.87405e-05 1 
-0.000251207 8.47337e-05 1 
-0.000645726 3.80809e-05 1 
-0.00207463 0.000127459 0.999998 
-0.00366681 6.72726e-05 0.999993 
-0.001504 -1.35596e-05 0.999999 
-0.00054556 -1.04497e-05 1 
-0.000452013 -0.000110406 1 
5.77983e-05 9.65118e-05 1 
-4.7964e-05 8.37837e-05 1 
-2.45153e-05 8.49024e-05 1 
-9.34761e-06 3.74373e-05 1 
-2.85347e-05 -1.04251e-05 1 
-4.91473e-06 -1.42984e-05 1 
1.86638e-05 -2.28854e-05 1 
1.92881e-05 -3.93467e-05 1 
2.67803e-05 -6.85359e-06 1 
-9.93704e-05 -8.36026e-05 1 
-0.000256662 -7.82031e-05 1 
-0.00022635 -0.000106861 1 
-0.000110579 -4.30605e-05 1 
-7.55854e-05 3.13378e-05 1 
0.00118163 0.00114039 0.999999 
0.00226294 0.0023549 0.999995 
0.011386 0.0118945 0.999864 
0.0212574 0.0236428 0.999494 
0.0420857 0.0495095 0.997887 
0.0705239 0.0869248 0.993715 
0.0851826 0.110293 0.990242 
0.0598997 0.0810373 0.99491 
-0.00661252 -0.00867117 0.999941 
0.00691241 0.00975183 0.999929 
-1.16993e-05 0.00013191 1 
-1.84264e-05 2.15926e-05 1 
0.00591444 -0.00843296 0.999947 
-0.00107635 0.00127335 0.999999 
0.0595395 -0.0857392 0.994537 
0.0811627 -0.112075 0.99038 
0.0570255 -0.0755956 0.995507 
0.0350506 -0.0439324 0.998419 
0.0135628 -0.0161358 0.999778 
0.00380709 -0.0040304 0.999985 
0.00172901 -0.0016565 0.999997 
0.000169278 -0.000130336 1 
-9.58777e-05 4.34508e-05 1 
-0.000113395 4.93502e-05 1 
-5.80862e-05 7.70658e-06 1 
-9.87807e-06 -2.14711e-05 1 
1.61996e-05 -1.91017e-05 1 
8.79307e-06 2.51079e-05 1 
-2.85078e-05 5.24147e-05 1 
-4.89402e-05 2.85874e-05 1 
2.94219e-05 -3.52478e-05 1 
-5.07625e-05 3.97639e-05 1 
-0.000289087 -8.4088e-05 1 
-0.000391626 0.000156964 1 
-0.00132361 0.000247464 0.999999 
-0.00556259 0.00150761 0.999983 
-0.0114516 0.00220654 0.999932 
-0.0264758 0.00357824 0.999643 
-0.0386478 0.00276361 0.999249 
-0.0393451 -6.87052e-05 0.999226 
-0.0271186 -0.00193696 0.99963 
-0.00759915 -0.00121954 0.99997 
-0.0184622 -0.00406981 0.999821 
-0.00176544 -0.000353916 0.999998 
-0.00402417 -0.00112042 0.999991 
-9.73443e-05 5.57829e-05 1 
-0.000142796 -1.08897e-05 1 
-1.24113e-05 -8.0848e-06 1 
-2.95456e-05 -4.17187e-05 1 
-3.7326e-05 -3.63988e-05 1 
-2.69224e-05 -8.48995e-06 1 
-9.54132e-05 -4.30831e-05 1 
4.89691e-06 4.36791e-05 1 
-0.000127322 1.19921e-05 1 
-8.24372e-05 -0.000106051 1 
-0.00013065 -6.55256e-05 1 
-4.71862e-05 -0.000131075 1 
0.000139372 7.70971e-05 1 
0.000611481 0.000535477 1 
0.00419262 0.00453148 0.999981 
0.00938482 0.0112192 0.999893 
0.0270223 0.0337138 0.999066 
0.0491263 0.0650494 0.996672 
0.0760377 0.105117 0.991549 
0.0648337 0.0921818 0.993629 