# vtk DataFile Version 3.0 
Exported using Morpho https://github.com/Morpho-lang/morpho 
ASCII 
DATASET UNSTRUCTURED_GRID 

POINTS 3402 float 
-1.58862 -6.89052 1.79147e-05 
-1.36642 -6.93796 -5.4559e-05 
-1.1792 -6.96988 7.48815e-05 
-0.983556 -7.00226 4.85129e-05 
-0.738968 -7.03152 -7.45362e-05 
-0.526296 -7.05081 0.000106703 
-0.32391 -7.06378 -0.000108947 
-0.126098 -7.06899 5.90836e-05 
0.0980682 -7.07062 0.000100817 
0.329783 -7.06313 -0.000102691 
0.528881 -7.05126 9.36105e-05 
0.741478 -7.03229 -1.3734e-05 
0.953358 -7.00673 5.6727e-05 
1.18165 -6.97174 -4.03858e-05 
1.39195 -6.93216 0.000167119 
1.61216 -6.88453 -7.89012e-05 
-2.41209 -6.64663 -7.23452e-05 
-2.21505 -6.71505 1.65357e-05 
-1.98878 -6.78577 -0.000133185 
-1.78313 -6.84226 5.77131e-06 
-1.55926 -6.63502 6.12378e-18 
-1.35677 -6.70436 9.47597e-18 
-1.15222 -6.73325 -4.98953e-18 
-0.917542 -6.76295 -1.0864e-18 
-0.677364 -6.77514 -7.73103e-18 
-0.471535 -6.81283 -8.46375e-18 
-0.270029 -6.8022 -5.10111e-18 
-0.0597834 -6.8114 4.78665e-18 
0.165544 -6.81639 7.56408e-18 
0.38439 -6.79648 -8.8696e-19 
0.594571 -6.79321 -6.91094e-18 
0.805588 -6.77024 -2.54113e-18 
1.02821 -6.74759 6.1225e-18 
1.23899 -6.71534 -4.82839e-18 
1.44001 -6.681 -2.40879e-18 
1.66115 -6.62612 6.17426e-18 
1.84251 -6.82608 -6.79214e-05 
2.06249 -6.76333 0.000152459 
2.28238 -6.69153 -6.2024e-05 
-2.8501 -6.47142 -8.05693e-05 
-2.63583 -6.56147 4.84094e-06 
-2.42343 -6.40538 9.46836e-18 
-2.18889 -6.46574 2.91718e-18 
-1.9934 -6.5409 -2.23756e-18 
-1.78376 -6.58712 1.58967e-18 
-1.5398 -6.39615 -5.74831e-18 
-1.32655 -6.43221 1.08461e-17 
-1.0984 -6.45844 2.42153e-19 
-0.89991 -6.53106 -2.06745e-18 
-0.700308 -6.50381 -5.45047e-18 
-0.476144 -6.53289 -5.77875e-18 
-0.27082 -6.51403 6.45867e-18 
-0.0669745 -6.53757 8.23418e-19 
0.144551 -6.55151 3.4031e-18 
0.351218 -6.52273 1.43502e-18 
0.563557 -6.51432 -4.03914e-18 
0.777544 -6.50795 -3.05413e-18 
0.989112 -6.48607 2.52379e-18 
1.2095 -6.46243 -2.91145e-18 
1.42807 -6.41905 -7.61622e-18 
1.65562 -6.37278 8.71801e-18 
1.89174 -6.57001 -6.674e-18 
2.10374 -6.5068 -8.26826e-18 
2.3087 -6.43132 6.81436e-19 
2.48663 -6.61874 -7.29992e-05 
2.69727 -6.53586 0.000119052 
2.95559 -6.42321 6.39605e-05 
-3.29183 -6.25814 -6.99132e-05 
-3.07695 -6.36668 1.83548e-05 
-2.85096 -6.21764 5.89001e-18 
-2.62971 -6.30351 1.04248e-17 
-2.38547 -6.15236 4.19772e-18 
-2.17919 -6.23706 3.7424e-18 
-1.94067 -6.28071 5.04313e-18 
-1.7331 -6.32485 4.92293e-18 
-1.55045 -6.15087 9.62643e-19 
-1.32982 -6.18981 -1.80444e-18 
-1.10291 -6.2223 5.01508e-21 
-0.882913 -6.24981 -7.71732e-18 
-0.702208 -6.261 5.90792e-18 
-0.49705 -6.27566 -3.53099e-19 
-0.270647 -6.27602 -1.71998e-19 
-0.0609699 -6.28018 4.39425e-18 
0.142845 -6.2826 2.3804e-18 
0.345393 -6.27596 -7.73533e-19 
0.559266 -6.25294 -1.28226e-18 
0.763656 -6.26325 -4.14522e-18 
0.964394 -6.22675 -8.91725e-19 
1.18829 -6.22517 3.57819e-18 
1.39297 -6.17322 -4.28899e-18 
1.6183 -6.12723 -2.78556e-18 
1.8527 -6.28558 -1.46369e-19 
2.05055 -6.2566 -3.93602e-18 
2.26586 -6.182 3.26138e-18 
2.51475 -6.35296 -5.00212e-18 
2.74446 -6.28639 -1.02624e-17 
2.94878 -6.16887 2.03021e-18 
3.16239 -6.3243 -2.95973e-05 
3.36546 -6.21842 4.49642e-05 
-3.72129 -6.01273 -4.81899e-05 
-3.50943 -6.13889 -1.39029e-05 
-3.28355 -6.00447 8.9533e-18 
-3.06926 -6.1131 3.96479e-18 
-2.82582 -5.96841 -3.7736e-18 
-2.60478 -6.05269 1.62107e-18 
-2.37799 -5.90492 4.00161e-19 
-2.16483 -5.97176 3.85241e-18 
-1.96005 -6.033 -3.42127e-18 
-1.74982 -6.05921 2.3188e-18 
-1.5281 -5.93103 -2.12789e-19 
-1.32461 -5.98815 -1.65364e-18 
-1.1312 -6.01833 -2.7301e-18 
-0.903551 -6.04482 2.25017e-20 
-0.680041 -6.02013 3.51278e-18 
-0.491892 -6.06484 3.22076e-18 
-0.282755 -6.04253 2.76464e-18 
-0.0690931 -6.04276 1.63519e-18 
0.141931 -6.05307 4.58613e-19 
0.344649 -6.03633 -3.11348e-19 
0.540296 -6.04615 7.47424e-19 
0.762578 -6.02216 -2.6462e-18 
0.984809 -6.02504 -3.39698e-18 
1.1788 -5.99026 2.3974e-18 
1.39966 -5.97962 -1.08498e-18 
1.60877 -5.91913 2.38598e-19 
1.82713 -6.04751 9.33341e-18 
2.0324 -5.9953 3.65235e-18 
2.25996 -5.93672 -7.70546e-18 
2.47683 -6.09314 -4.24766e-19 
2.68658 -6.04345 -1.28782e-18 
2.91295 -5.93787 7.06051e-19 
3.16674 -6.07271 -6.71725e-18 
3.37441 -5.96148 -1.74522e-17 
3.59235 -6.09075 6.97206e-05 
-3.93647 -5.87424 -1.3561e-05 
-3.70655 -5.76301 6.33802e-18 
-3.49999 -5.88531 7.52702e-18 
-3.25799 -5.75787 -1.30902e-18 
-3.03812 -5.8575 -1.27049e-18 
-2.81386 -5.7182 -1.7026e-18 
-2.59765 -5.80258 -6.6451e-18 
-2.39902 -5.69969 -1.86942e-18 
-2.1794 -5.75651 -6.29411e-19 
-1.96545 -5.81983 6.75184e-19 
-1.75746 -5.8479 -3.55628e-19 
-1.55475 -5.7361 -2.69018e-20 
-1.31601 -5.78224 -1.17044e-18 
-1.09659 -5.76727 -1.20209e-18 
-0.902209 -5.84092 -1.58905e-19 
-0.698593 -5.78423 4.50923e-19 
-0.503578 -5.83258 2.70396e-18 
-0.303327 -5.81742 1.24115e-18 
-0.0914758 -5.81228 4.63765e-19 
0.115691 -5.82455 6.43948e-19 
0.327966 -5.8187 1.17583e-19 
0.543432 -5.81382 -3.68274e-20 
0.741579 -5.80541 3.84768e-19 
0.962759 -5.80798 -5.7504e-19 
1.18698 -5.77528 8.10062e-19 
1.39867 -5.77715 1.20289e-18 
1.62583 -5.71426 1.18477e-18 
1.81611 -5.82669 5.24367e-18 
2.05184 -5.80416 -1.51548e-18 
2.27224 -5.72968 -3.26811e-18 
2.45931 -5.84689 5.19508e-18 
2.65641 -5.79495 6.33098e-18 
2.87559 -5.69972 -3.50411e-18 
3.11968 -5.82358 -5.20886e-18 
3.34551 -5.71784 -3.45655e-18 
3.59274 -5.8289 -1.16316e-18 
3.81674 -5.95249 -5.98342e-05 
4.03681 -5.80538 4.7621e-05 
-4.37492 -5.55532 -3.57973e-05 
-4.15623 -5.72075 -8.39783e-05 
-3.92587 -5.62885 9.44556e-18 
-3.68073 -5.51781 -2.82372e-19 
-3.45772 -5.62433 -1.233e-18 
-3.23111 -5.49534 -9.77876e-19 
-3.03126 -5.59553 -3.23811e-18 
-2.82227 -5.51333 -1.7371e-19 
-2.60689 -5.58207 -1.94375e-18 
-2.40298 -5.49668 -3.08449e-18 
-2.19151 -5.55621 -2.6424e-18 
-1.97314 -5.61112 -1.83711e-18 
-1.75722 -5.62795 -1.85098e-18 
-1.56832 -5.518 -1.5946e-18 
-1.36555 -5.58936 -8.67395e-19 
-1.15063 -5.56159 -3.74149e-19 
-0.913939 -5.61621 2.75343e-19 
-0.682526 -5.59436 4.85886e-19 
-0.466089 -5.61697 1.13535e-18 
-0.256471 -5.60783 5.71866e-19 
-0.0393671 -5.60713 -1.31873e-19 
0.173949 -5.62062 -8.24872e-20 
0.390471 -5.61627 1.14809e-19 
0.592197 -5.58961 5.70539e-19 
0.812069 -5.60939 6.67496e-19 
1.03293 -5.60074 5.79728e-19 
1.25614 -5.55827 4.50015e-19 
1.4604 -5.57527 9.90457e-19 
1.68138 -5.50162 2.79386e-19 
1.8567 -5.61805 8.71012e-20 
2.06166 -5.59425 8.77381e-19 
2.25512 -5.51752 2.08728e-19 
2.46232 -5.60997 -2.0958e-18 
2.66312 -5.58647 -5.85414e-19 
2.89292 -5.50284 1.32344e-18 
3.10341 -5.58468 4.39619e-18 
3.31201 -5.46726 3.73246e-18 
3.55856 -5.58032 3.78911e-18 
3.813 -5.6924 2.4597e-18 
4.01705 -5.5565 -6.97808e-18 
4.24182 -5.65732 3.79057e-05 
-4.58964 -5.37907 -5.81479e-05 
-4.34478 -5.31963 5.9604e-18 
-4.13211 -5.47659 1.00626e-17 
-3.88296 -5.37068 4.42332e-18 
-3.65067 -5.26589 -2.07636e-18 
-3.44901 -5.37097 -4.12643e-18 
-3.23355 -5.29255 -1.86884e-18 
-3.01865 -5.37244 -1.50536e-18 
-2.82258 -5.30174 -6.77214e-19 
-2.63017 -5.37443 -6.79113e-19 
-2.41847 -5.29193 -1.38385e-18 
-2.19063 -5.34708 -2.47887e-18 
-1.98092 -5.39728 -2.41552e-18 
-1.7809 -5.40287 -2.20001e-18 
-1.54386 -5.34384 -1.23597e-18 
-1.32109 -5.40017 -5.11551e-19 
-1.10946 -5.35712 -1.08812e-19 
-0.934695 -5.44275 2.67842e-19 
-0.756419 -5.39206 2.36444e-19 
-0.543384 -5.41507 1.4506e-19 
-0.335614 -5.42158 -1.58296e-19 
-0.109013 -5.41436 -4.15864e-19 
0.107013 -5.41837 -3.49603e-19 
0.314425 -5.4279 -8.55155e-20 
0.522843 -5.40092 1.92273e-19 
0.75352 -5.41231 4.29056e-19 
0.955655 -5.41472 5.382e-19 
1.16557 -5.39475 4.45745e-19 
1.39911 -5.37572 3.14507e-19 
1.59098 -5.34336 3.63623e-19 
1.84148 -5.35706 3.67732e-19 
2.01564 -5.37387 6.69009e-19 
2.2249 -5.32441 9.18307e-19 
2.45812 -5.38984 8.52113e-20 
2.68718 -5.40566 2.6182e-19 
2.89618 -5.31185 2.62061e-18 
3.10078 -5.37016 4.68911e-18 
3.29845 -5.2553 1.42247e-18 
3.51332 -5.33436 3.9999e-19 
3.75955 -5.42953 2.11455e-18 
3.98497 -5.30998 -2.52781e-18 
4.21383 -5.40694 -6.86702e-18 
4.42596 -5.51432 -3.29369e-05 
-4.79825 -5.19385 -5.28168e-05 
-4.54982 -5.14838 5.16432e-18 
-4.30366 -5.06732 8.03938e-18 
-4.09712 -5.22618 6.66119e-18 
-3.85914 -5.12053 -6.43492e-19 
-3.64377 -5.05291 -5.97062e-19 
-3.45333 -5.14391 -2.53898e-18 
-3.2616 -5.10276 -6.11801e-19 
-3.03135 -5.16916 -1.06101e-18 
-2.81547 -5.09865 -1.48607e-18 
-2.6039 -5.14937 -9.45905e-19 
-2.35615 -5.11534 -7.55185e-19 
-2.14727 -5.15443 -8.03584e-19 
-1.94891 -5.18891 -1.05396e-18 
-1.73848 -5.21341 -9.64498e-19 
-1.55145 -5.12893 -1.12561e-19 
-1.36412 -5.21481 -2.39082e-19 
-1.16444 -5.16946 -2.20702e-20 
-0.925843 -5.21393 -8.6807e-20 
-0.689311 -5.20459 -2.33758e-19 
-0.477055 -5.21573 -3.52404e-19 
-0.260526 -5.23031 -4.48211e-19 
-0.0445275 -5.20957 -3.4314e-19 
0.166136 -5.21066 -1.81445e-19 
0.370461 -5.21398 -2.38135e-20 
0.600626 -5.22516 9.96321e-20 
0.807663 -5.20503 1.51879e-19 
1.01161 -5.22221 2.02889e-19 
1.242 -5.21843 1.22547e-19 
1.43426 -5.16352 4.40635e-20 
1.6673 -5.18137 2.07959e-19 
1.88861 -5.17468 4.31888e-19 
2.10491 -5.14878 3.96812e-19 
2.29012 -5.09041 6.11096e-19 
2.42871 -5.19459 8.69373e-19 
2.66115 -5.20545 1.4495e-18 
2.87183 -5.11309 1.82e-18 
3.09527 -5.16664 1.73636e-18 
3.31173 -5.06519 1.04458e-19 
3.51726 -5.13134 -2.12881e-20 
3.73262 -5.18632 8.98108e-18 
3.92544 -5.06161 -1.12235e-18 
4.17347 -5.15443 -5.70469e-18 
4.41078 -5.2437 2.31463e-18 
4.63952 -5.33595 -6.17251e-05 
4.86814 -5.12726 9.0018e-05 
-5.00372 -4.99607 5.50733e-06 
-4.76397 -4.96657 -2.15698e-18 
-4.51098 -4.89652 4.53834e-18 
-4.25585 -4.82606 1.43658e-18 
-4.06006 -4.97787 2.41602e-18 
-3.85895 -4.89578 -5.72774e-19 
-3.66248 -4.86267 -8.67703e-19 
-3.4462 -4.93136 -1.65507e-18 
-3.24153 -4.88361 -1.61776e-18 
-3.05373 -4.97205 -6.25514e-19 
-2.87202 -4.89093 -6.04496e-19 
-2.65562 -4.94055 -6.2505e-19 
-2.45188 -4.95821 -3.39488e-19 
-2.21327 -4.95851 6.48647e-20 
-1.99697 -4.97998 1.86274e-19 
[...]
POINT_DATA 3402 
VECTORS vectors float
0.184197 -0.0403189 0.981031 
0.171108 -0.0327447 0.983013 
0.190022 -0.0344618 0.980994 
0.19492 -0.0293322 0.978489 
0.194942 -0.0181264 0.979731 
0.184136 -0.0152631 0.981958 
0.183136 -0.00498259 0.982157 
0.214519 -0.00674578 0.975693 
0.183758 0.00213351 0.982117 
0.180815 0.0103289 0.982663 
0.186201 0.0106584 0.981634 
0.18884 0.020278 0.980939 
0.1888 0.0215874 0.980938 
0.17857 0.0283389 0.98276 
0.159325 0.0288994 0.98622 
0.135592 0.0323465 0.989661 
0.147501 -0.0487248 0.987352 
0.149232 -0.0489645 0.986913 
0.181753 -0.0494008 0.981252 
0.2078 -0.0503019 0.975902 
-0.0192889 0.00510793 1.00145 
-0.00509142 0.000625926 1.00208 
-0.0170361 0.00052671 1.00078 
0.0067654 -0.00028871 1.00258 
-0.0287949 0.00239331 1.00107 
-0.00631589 -0.000183787 1.00144 
-0.0270292 0.000399709 1.00089 
-0.0291592 0.000168177 1.00106 
0.00141064 0.00204684 1.00164 
-0.0270903 -0.00177539 1.00085 
-0.0100991 -0.00163581 1.00143 
-0.0282405 -0.00324292 1.00098 
-0.00592566 -0.000227305 1.00161 
-0.023282 -0.00301958 1.00105 
0.0021211 0.00109897 1.00146 
-0.00121892 -0.00146572 1.00171 
0.186912 0.0487609 0.980507 
0.15676 0.0456765 0.986043 
0.11664 0.0406168 0.991769 
0.142669 -0.058915 0.987569 
0.150748 -0.060046 0.986229 
0.00602765 -0.000884747 1.00175 
-0.00511705 0.00163097 1.0015 
-0.000906683 -0.00154447 1.00156 
-0.0307252 0.00844166 1.00094 
0.0304926 -0.00921161 0.998564 
0.0425056 -0.00679589 0.998045 
0.0238204 -0.00411964 0.999039 
0.0486217 -0.00791625 0.998232 
0.0446712 -0.00670494 0.998073 
0.0421625 -0.00497623 0.998221 
0.0562166 -0.000843923 0.997437 
0.0541043 -0.000221324 0.997657 
0.0499622 0.00116301 0.997918 
0.0480176 0.00242469 0.998004 
0.0563871 0.00483303 0.997548 
0.0364857 0.00432491 0.998471 
0.0497303 0.00739626 0.99795 
0.030371 0.00496551 0.998521 
0.0255439 0.00456922 0.999107 
0.0248562 0.0082128 0.998819 
-0.0280159 -0.00785185 1.00113 
0.00864146 0.00405732 1.00141 
-0.00051247 -0.00196992 1.00148 
0.169473 0.0619488 0.983013 
0.168491 0.062682 0.983167 
0.11637 0.0490215 0.991537 
0.126529 -0.0619071 0.989721 
0.13288 -0.0625139 0.988774 
0.00869454 -0.00422879 1.00175 
-0.00837298 0.00352921 1.00167 
0.0175551 -0.00599494 0.999098 
0.00868943 -0.0021246 0.999314 
0.0392618 -0.0102022 0.998193 
0.0452158 -0.0105202 0.998079 
0.135176 -0.0345127 0.989891 
0.131001 -0.0282706 0.990712 
0.140908 -0.0242693 0.989347 
0.132425 -0.0191305 0.990645 
0.145066 -0.0156481 0.989473 
0.138309 -0.0107563 0.989807 
0.138815 -0.00553145 0.990882 
0.14087 -0.000570876 0.99021 
0.137822 0.00317143 0.990081 
0.14148 0.00749958 0.990367 
0.134752 0.0120051 0.990625 
0.143122 0.0171236 0.989466 
0.135518 0.0207191 0.990171 
0.14088 0.0271102 0.989573 
0.126703 0.0278955 0.990814 
0.130169 0.0341928 0.990472 
0.0437446 0.0122155 0.997867 
0.0214531 0.00645089 0.999228 
0.0194555 0.00734076 0.998969 
-0.0227508 -0.00920993 1.0015 
0.0070811 0.00559662 1.00173 
0.0152869 0.00865076 1.0014 
0.11091 0.052774 0.99211 
0.124284 0.0680648 0.989668 
0.113796 -0.0670655 0.990969 
0.115847 -0.0646797 0.990889 
0.010174 -0.00552588 1.00168 
-0.00226243 0.000594184 1.00173 
0.00583064 -0.00301459 0.999331 
0.0181854 -0.00713272 0.999094 
0.116363 -0.0469268 0.991398 
0.12882 -0.0463905 0.989898 
0.126195 -0.0416894 0.990706 
0.137711 -0.0397298 0.989535 
0.11553 -0.030335 0.99441 
0.114922 -0.0257769 0.994513 
0.109362 -0.0204621 0.995481 
0.11449 -0.0165513 0.994561 
0.0974255 -0.010224 0.997138 
0.10783 -0.00793381 0.99606 
0.0973574 -0.00408462 0.99677 
0.0952137 -0.00105272 0.997247 
0.100617 0.00224439 0.996587 
0.0952745 0.0053959 0.997231 
0.106838 0.00959432 0.995908 
0.100864 0.0124449 0.996785 
0.114399 0.0182519 0.994576 
0.107239 0.0214834 0.995583 
0.122578 0.0284912 0.993456 
0.113859 0.031045 0.994537 
0.138236 0.0429178 0.989496 
0.116735 0.0399185 0.991628 
0.124219 0.0467192 0.990538 
0.0319997 0.0119425 0.998223 
0.0120023 0.00548926 0.999665 
-0.00358686 -0.00230884 0.999454 
0.00488178 0.00158787 1.00164 
0.00294877 0.0009033 1.0018 
0.113083 0.0649266 0.991177 
0.111549 -0.0725333 0.990892 
0.00945347 -0.00597393 1.00175 
0.00180508 -0.00122164 1.00172 
-0.0017268 0.000837864 0.999416 
0.0111921 -0.00571395 0.999265 
0.107671 -0.0538978 0.991837 
0.11857 -0.0540783 0.99067 
0.123578 -0.0526762 0.992167 
0.118675 -0.045391 0.993244 
0.115644 -0.0397086 0.993958 
0.107485 -0.0331235 0.995248 
0.0624253 -0.0172256 0.999608 
0.0602707 -0.0138924 0.999751 
0.0424862 -0.00826917 1.00071 
0.0581785 -0.00875196 1.00006 
0.0388363 -0.00455502 1.00069 
0.0435198 -0.00350784 1.00036 
0.0392693 -0.00208096 1.00076 
0.0372423 -0.000857127 1.00082 
0.0426769 0.000985622 1.00089 
0.040142 0.00242454 1.00041 
0.0426599 0.00399323 1.00062 
0.0419348 0.00540516 1.00069 
0.0519308 0.00876991 1.00057 
0.0518465 0.0109513 1.00028 
0.0598511 0.014582 0.999779 
0.064106 0.0185977 0.999444 
0.104977 0.0336329 0.995455 
0.121232 0.0427917 0.993062 
0.116934 0.0461527 0.993479 
0.132109 0.0561638 0.989443 
0.104771 0.0483022 0.992224 
0.104258 0.0523011 0.99211 
0.00827081 0.00391428 0.999317 
-0.00524308 -0.00335583 0.999388 
0.0117382 0.0071674 1.00187 
0.11887 0.0741277 0.989959 
0.111834 0.0710493 0.991031 
0.0992838 -0.0741209 0.992143 
0.107161 -0.0722732 0.991418 
0.00473069 -0.00341944 1.00188 
-0.00799626 0.0050996 0.999456 
0.00678803 -0.00394938 0.999338 
0.101227 -0.0598631 0.992096 
0.109804 -0.0601151 0.991189 
0.124568 -0.0646689 0.99119 
0.113577 -0.0540235 0.99331 
0.0698841 -0.0313026 0.998868 
0.0667408 -0.0266574 0.99919 
0.0593084 -0.0211592 0.99954 
0.0481129 -0.0155341 1.00063 
0.0196338 -0.00582815 1.00095 
0.0229343 -0.00578174 1.00076 
0.01397 -0.00299861 1.00109 
0.0162203 -0.00267842 1.00102 
0.00950422 -0.00138085 1.00084 
0.011422 -0.00103866 1.00106 
0.00888626 -0.000540121 1.0009 
0.00944492 -0.000229087 1.00091 
0.010445 0.000526176 1.00091 
0.0108396 0.000793516 1.00089 
0.00937189 0.00129651 1.00092 
0.0137727 0.00216055 1.00094 
0.0161529 0.00337142 1.00097 
0.0168646 0.00389851 1.00095 
0.023187 0.00640844 1.00089 
0.0212013 0.00646576 1.00079 
0.0502587 0.016852 1.00053 
0.0645125 0.0240437 0.999146 
0.0629654 0.0259019 0.999399 
0.109125 0.047859 0.994306 
0.118587 0.0566694 0.992356 
0.126727 0.0673382 0.990558 
0.104741 0.0590309 0.991624 
0.096261 0.0590381 0.992463 
-0.0049103 -0.00327949 0.999404 
-0.00391962 -0.00172805 1.00186 
0.0147361 0.0119031 1.00148 
0.0817121 0.06179 0.994451 
0.097979 -0.0770137 0.992164 
0.0102654 -0.00787539 1.00189 
0.0154311 -0.0114143 1.00177 
-0.00578791 0.00483087 0.999481 
0.0845918 -0.0584928 0.993527 
0.101332 -0.0651429 0.991867 
0.119037 -0.0732032 0.991007 
0.111102 -0.0630777 0.992944 
0.0717888 -0.0386666 0.998439 
0.0657623 -0.0327476 0.999093 
0.0299836 -0.0138473 1.00067 
0.0231494 -0.00975998 1.001 
0.0210987 -0.00804459 1.0012 
0.0125353 -0.00433428 1.00093 
0.00374232 -0.00135141 1.00071 
0.00452672 -0.00121252 1.00076 
0.00150032 -0.000386546 1.00063 
0.003174 -0.00053516 1.00069 
0.000890016 -0.000204142 1.00051 
0.00130474 -0.000295049 1.00064 
0.00106335 -0.000107444 1.00063 
0.000918074 -9.00111e-05 1.00064 
0.000928134 1.59421e-05 1.00064 
0.00115562 0.000178681 1.00064 
0.000996045 0.000246468 1.00063 
0.00155463 0.000382357 1.00065 
0.00225809 0.000530383 1.00067 
0.0031861 0.000828176 1.00068 
0.00424377 0.00122824 1.00071 
0.00437481 0.00142842 1.00075 
0.0107874 0.00391527 1.00101 
0.0203154 0.00801105 1.00105 
0.0222101 0.00949706 1.00088 
0.050325 0.0231085 1.00043 
0.0777978 0.0388854 0.997747 
0.0804213 0.0444567 0.997574 
0.116912 0.0687349 0.991715 
0.116489 0.0738894 0.991261 
0.0929147 0.0613463 0.992625 
0.00668161 0.00476645 0.999318 
-0.0164984 -0.0119855 0.999367 
0.0152666 0.0101985 1.00147 
0.0889847 0.0774432 0.992775 
0.0877895 -0.0750294 0.993278 
0.0157072 -0.0135014 1.00178 
-0.0125382 0.0121593 0.999583 
-0.0140632 0.011263 0.999455 
0.0859097 -0.0644233 0.993058 
0.115527 -0.0832316 0.990375 
0.111151 -0.0749458 0.99168 
0.0858531 -0.0550983 0.996624 
0.0649145 -0.0385172 0.998937 
0.029879 -0.0169377 1.00078 
0.0228276 -0.0117151 1.00113 
0.00821614 -0.00379095 1.00084 
0.00470902 -0.00199285 1.00076 
0.00365221 -0.00145481 1.00071 
0.00169578 -0.000863766 1.00055 
-2.42059e-05 -0.000212756 1.00058 
0.000183489 -0.000155225 1.00057 
-0.000359674 3.27409e-05 1.00058 
-0.000176803 -4.94009e-05 1.00057 
-0.000277029 -5.9717e-05 1.00068 
-0.000262421 3.59229e-05 1.00059 
-0.000186008 -6.98424e-06 1.00059 
-0.000261711 4.79671e-06 1.0006 
-0.000285333 4.45037e-05 1.0006 
-0.000300909 0.000115618 1.00059 
-0.000332652 0.000108026 1.00057 
-0.000260043 -2.19453e-05 1.00057 
-0.000138553 7.43893e-05 1.00056 
1.52235e-05 4.11088e-05 1.00057 
5.8555e-05 0.000179647 1.00056 
0.000497518 0.000437048 1.00059 
0.001808 0.000814393 1.00052 
0.00474817 0.00206798 1.00075 
0.00444534 0.00213372 1.0007 
0.0172838 0.0082775 1.00091 
0.0327715 0.0170211 1.00084 
0.035339 0.0200544 1.00062 
0.0714111 0.0434206 0.998256 
0.0802834 0.0528401 0.99713 
0.115904 0.0797373 0.990839 
0.0929718 0.0679174 0.992121 
0.0799336 0.061604 0.993646 
-0.009374 -0.00881506 0.99945 
0.0104572 0.00603007 1.00199 
0.121085 0.106499 0.986636 
0.111515 0.0933289 0.989213 
0.0839656 -0.08276 0.993131 
0.0155565 -0.0155316 1.00177 
-0.0168034 0.0158126 0.999572 
0.0647846 -0.0559062 0.994885 
0.070281 -0.0567108 0.994548 
0.111967 -0.088671 0.990161 
0.0877397 -0.0663779 0.995656 
0.0654996 -0.0461294 0.998564 
0.0333186 -0.0225771 1.00069 
0.0304647 -0.0190942 1.00083 
0.0100697 -0.00605936 1.00074 
0.00631464 -0.00370348 1.00081 
0.00251193 -0.00124078 1.0007 
0.000718078 -0.000241996 1.00057 
0.000274412 -0.000313151 1.00056 
-8.5323e-05 -0.000123702 1.00068 
-0.000502609 -3.95371e-05 1.00061 
-0.000455042 6.96267e-05 1.0006 
-0.000456215 5.35498e-05 1.00063 
-0.00050582 -9.6097e-05 1.00062 
-0.000438175 -3.24715e-05 1.00053 
-0.000451067 -2.886e-05 1.00063 
-0.000364128 -0.000107823 1.00062 
-0.000342224 1.63197e-05 1.00062 
-0.000317956 2.82678e-05 1.00062 
-0.000304555 0.000100626 1.00072 
-0.000291959 0.000131699 1.00052 
-0.000258613 -5.56141e-05 1.00061 
-0.000260953 3.58945e-05 1.00071 
-0.000358945 5.39822e-05 1.0005 
-0.00032445 -8.94944e-05 1.0006 
-0.000279429 3.40476e-05 1.00057 
-2.42688e-05 1.68816e-05 1.00055 
0.000407478 0.00019575 1.00065 
0.000440447 0.000297028 1.00047 
0.00294014 0.00155279 1.00076 
0.0104215 0.00564484 1.0009 
0.0119946 0.00694318 1.00085 
0.0330475 0.0205225 1.00069 
0.034031 0.0229565 1.00065 
0.0758941 0.0538529 0.99745 
0.111098 0.0830693 0.99117 
0.110826 0.0886477 0.990596 
0.0829519 0.0684682 0.992956 
0.000107171 0.000491183 0.999445 
-0.00720761 -0.00413694 1.0021 
0.0118063 0.014838 1.00141 
0.0595675 0.0560754 0.996192 
0.072125 -0.0847591 0.993781 
0.0151077 -0.0159782 1.00172 
-0.0160297 0.015195 0.999688 
0.0544329 -0.0522623 0.99579 
0.103944 -0.0946268 0.990422 
0.108111 -0.0914286 0.990245 
0.0746279 -0.0616351 0.997009 
0.0397091 -0.0316272 1.00026 
0.0311577 -0.0233322 1.00075 
0.0118403 -0.00873542 1.00074 
0.00706293 -0.004963 1.00099 
0.00160847 -0.00112891 1.00063 
0.000642371 -0.000425645 1.00057 
9.92916e-05 4.79673e-06 1.00055 
-6.20918e-05 4.91469e-05 1.00056 
-0.000224115 6.15326e-05 1.00069 
-0.000206455 4.01657e-05 1.00052 
-0.000211197 -6.88992e-05 1.0006 
-0.000236685 9.2034e-05 1.00063 
-0.00024199 4.01465e-05 1.00059 
-0.000178412 -4.14201e-05 1.00062 
-0.000295709 -8.19947e-05 1.00059 
-0.000223694 -7.1118e-05 1.0006 
-0.000346613 -1.5403e-05 1.0006 
-0.000323539 -5.39237e-05 1.0006 
-0.000258065 -3.06714e-06 1.0006 
-0.000194085 4.91121e-05 1.00059 
-0.000132766 8.93733e-05 1.00061 
-0.000119785 1.78207e-05 1.00061 
-0.000282724 6.28494e-05 1.00051 
-0.000151765 6.65845e-05 1.00071 
-0.000258829 2.97564e-05 1.00071 
-0.000321485 4.87784e-07 1.0006 
-0.000291495 -0.0002823 1.00049 
-0.000206566 8.49843e-05 1.00068 
-9.79381e-05 -3.75637e-06 1.00057 
0.000191927 0.000259548 1.00047 
0.00217664 0.0012499 1.00063 
0.00198805 0.00108669 1.00062 
0.00936074 0.00596597 1.00087 
0.00977983 0.0067688 1.00076 
0.0317126 0.0229929 1.00068 
0.0647802 0.0500533 0.99841 
0.0707438 0.0585782 0.997528 
0.104279 0.0900545 0.991342 
0.0860804 0.0787611 0.992234 
7.53583e-05 0.00144086 0.999114 
-0.0155236 -0.0150678 0.999758 
0.0207983 0.020231 1.00105 
0.072463 0.088843 0.993241 
0.0706729 -0.0925342 0.993044 
0.0150558 -0.0163326 1.00161 
-0.0161016 0.0170856 0.999618 
0.0466891 -0.0497716 0.996195 
0.101311 -0.102434 0.989502 
0.0869209 -0.0839084 0.99382 
0.0803452 -0.0711899 0.995589 
0.0348586 -0.030212 1.00068 
0.0141829 -0.0119482 1.00071 
0.00837251 -0.00675434 1.001 
0.00219443 -0.00187229 1.00064 
0.000616587 -0.000692284 1.00058 
-0.000132876 -0.000126828 1.00055 
-0.000212152 2.08939e-05 1.00058 
-0.00019227 0.000106099 1.00062 
-0.000168678 0.000134966 1.00062 
-0.000146217 -4.63104e-05 1.00051 
-7.66424e-05 3.45232e-05 1.00069 
-0.000117008 1.69701e-05 1.00047 
-0.000118102 5.74041e-05 1.00065 
-4.79411e-05 6.61072e-06 1.00045 
-0.000113927 -1.63069e-05 1.00064 
-0.000152841 -3.13746e-06 1.00054 
-0.000192479 -8.80285e-05 1.00055 
-0.000199956 1.17526e-05 1.00055 
-0.000161161 -8.9616e-05 1.00055 
-0.000146501 -4.63009e-05 1.00056 
-0.00012233 -1.74738e-05 1.00047 
-7.20987e-05 2.13598e-05 1.00066 
3.57689e-05 0.000116886 1.00057 
8.64919e-06 0.00017093 1.00057 
-0.000231166 1.46557e-05 1.00048 
-0.000149657 3.28024e-05 1.00056 
-0.000134144 1.60641e-05 1.0006 
-0.000212831 -0.000179465 1.00062 
-0.000232419 -7.3272e-05 1.00062 
-0.000294673 -4.71734e-05 1.00053 
-0.000163181 -0.000136019 1.00069 
0.000136159 1.98755e-05 1.00055 
2.96483e-05 -4.9462e-05 1.00056 
0.0018569 0.0011767 1.00073 
0.00784322 0.00576376 1.00083 
0.0230017 0.018111 1.0011 
0.0292756 0.0249851 1.00051 
0.0614581 0.0547487 0.998354 
0.095006 0.0890954 0.992678 
0.0962202 0.0948216 0.990321 
0.0655988 0.0671544 0.993938 
-0.00579769 -0.00888963 0.999597 
0.00645406 0.00354931 1.00198 
0.0985831 0.121988 0.987417 
0.0826158 -0.111726 0.990183 
0.0100297 -0.011894 1.00191 
-0.0120592 0.0135684 0.999526 
0.0554893 -0.0634056 0.994991 
0.0971589 -0.105547 0.989763 
0.0785856 -0.0819616 0.995125 
0.0411372 -0.0409469 0.99997 
0.0508445 -0.0475788 0.999242 
0.0181773 -0.0170551 1.00093 
0.00825486 -0.00732054 1.00084 
0.00264201 -0.00239416 1.00065 
0.000953797 -0.000869293 1.00058 
-4.90016e-07 -0.000151726 1.00055 
-0.000219807 -2.49329e-05 1.00058 
-0.00025937 4.0425e-06 1.00062 
-0.000241306 2.24625e-05 1.00063 
-0.000184145 1.17251e-05 1.00061 
-8.27266e-05 5.69422e-05 1.00058 
-0.000125727 -9.41157e-05 1.00057 
-8.00035e-05 7.80917e-05 1.00056 
-2.92984e-05 -8.76475e-05 1.00054 
2.26091e-05 9.25723e-05 1.00053 
1.00303e-05 -6.51809e-05 1.00053 
3.66671e-06 0.00012182 1.00053 
-1.51421e-05 -5.9903e-05 1.00053 
-6.71715e-05 -8.15085e-06 1.00053 
3.15082e-06 -8.62919e-05 1.00054 
-4.79438e-05 -2.6579e-05 1.00053 
-0.00010059 -1.08971e-05 1.00054 
-0.000105957 -4.37998e-05 1.00055 
-0.000166684 -1.85152e-05 1.00054 
-6.59647e-05 0.000104182 1.00063 
1.27023e-05 0.00018744 1.00054 
-2.90423e-05 5.31538e-05 1.00054 
-6.02004e-05 -4.04378e-05 1.00055 
-9.18127e-05 -5.65332e-05 1.00058 
-0.000231376 -8.41762e-06 1.00059 
-0.000209493 -6.99485e-05 1.00062 
-0.000138834 -0.000215778 1.00061 
-0.000182103 -6.14021e-05 1.0006 
-7.48703e-05 -0.000109024 1.00051 
-4.08377e-05 -9.77246e-05 1.00064 
0.00103796 0.00094615 1.0005 
0.00326415 0.00258996 1.00071 
0.0075892 0.0066643 1.00084 
0.0211593 0.0192548 1.00086 
0.0487499 0.0464497 0.999369 
0.0860415 0.0869157 0.993958 
0.101019 0.106848 0.989602 
0.0689345 0.0740825 0.993706 
0.00283614 0.00245258 0.999467 
0.00335507 0.00608544 1.00214 
0.0841419 0.102947 0.990914 
0.075657 -0.1064 0.991249 
0.00500794 -0.00745434 1.00204 
-0.00813815 0.00908849 0.999554 
0.0625759 -0.076963 0.993872 
0.0934135 -0.108784 0.99022 
0.0683389 -0.0766691 0.996111 
0.0329385 -0.0351805 1.00061 
0.0135636 -0.0135705 1.00088 
0.00371091 -0.00368762 1.00071 
0.00128401 -0.0012516 1.00058 
0.000199871 -0.000203644 1.00053 
-7.95679e-05 2.15361e-05 1.00057 
-0.000164015 4.06117e-05 1.00062 
-0.00017744 5.73067e-06 1.00063 
-0.000161327 -2.90673e-06 1.0006 
-0.00016603 -1.09416e-05 1.00057 
-0.000171642 -3.66265e-06 1.00055 
-0.000175532 1.29739e-06 1.00054 
-0.000157987 -5.45603e-05 1.00054 
-0.000107719 -5.4274e-05 1.00053 
-3.81498e-05 -5.18761e-05 1.00053 
-1.00772e-05 1.38964e-05 1.00054 
-1.57247e-05 4.28117e-05 1.00055 
1.72575e-05 -2.73284e-07 1.00058 
7.0215e-05 -2.33262e-05 1.00059 
7.81058e-05 -7.29714e-05 1.00062 
4.87147e-05 -1.65358e-05 1.00062 
7.89004e-06 3.20116e-05 1.00059 
1.72557e-05 -3.97107e-05 1.0006 
-1.02527e-05 0.000113997 1.00056 
-0.000164752 -2.8796e-05 1.00044 
-9.30371e-05 2.19943e-05 1.00053 
-0.000110902 0.00018802 1.00053 
-3.08461e-05 3.83223e-05 1.00053 
-2.34214e-05 -3.14506e-06 1.00054 
-2.37647e-05 1.99471e-05 1.00055 
2.19919e-05 1.39393e-07 1.00055 
1.87388e-06 -5.5039e-05 1.00057 
-6.9782e-05 -0.000122353 1.00057 
-0.000106437 -0.000129286 1.00072 
-8.37414e-05 -9.41804e-05 1.00062 
-0.000166929 5.85622e-05 1.0005 
0.000154173 0.000143437 1.00055 
0.000471971 0.000525983 1.00065 
0.00355141 0.0032792 1.00062 
0.00917575 0.00892757 1.00105 
0.031423 0.0315957 1.00029 
0.0491443 0.0521192 0.999396 
0.0754733 0.0840048 0.994686 
0.0931157 0.109354 0.990241 
0.0657617 0.0813489 0.993387 
-0.00638041 -0.00578226 0.999521 
0.00913518 0.0148959 1.00163 
0.0636626 0.0867967 0.99393 
0.0654705 -0.101492 0.992411 
0.00821647 -0.0126374 1.00171 
-0.00769743 0.0100493 0.999443 
0.0592806 -0.0789631 0.993774 
0.0880337 -0.112424 0.990174 
0.0722071 -0.0875778 0.994902 
0.0397557 -0.0461031 1.00004 
0.0142709 -0.0156954 1.00075 
0.00921287 -0.00970349 1.00082 
0.00187253 -0.00185624 1.00064 
0.000320125 -0.000378789 1.00053 
-4.98308e-05 -1.17765e-05 1.00054 
-0.000124068 7.18587e-05 1.0006 
-0.000101882 5.5056e-05 1.00063 
-5.41342e-05 -2.10718e-06 1.0006 
-5.38449e-05 -6.28066e-06 1.00057 
-4.89423e-05 1.91539e-05 1.00055 
-9.44524e-05 5.59263e-06 1.00053 
-0.000121056 1.60266e-05 1.00053 
-0.000121633 -2.98127e-05 1.00052 
-0.000135959 -8.67593e-05 1.00054 
-0.000114513 -0.000106679 1.00055 
-0.000145514 -1.53512e-05 1.0006 
-2.32091e-05 -6.41962e-05 1.00063 
6.86775e-05 2.82033e-05 1.00068 
-2.17405e-05 -5.68412e-05 1.0007 
-0.00020197 -4.71733e-05 1.00076 
-0.000400452 -9.52678e-06 1.0008 
-0.000244575 1.88752e-05 1.00077 
-5.05995e-05 3.97863e-05 1.00072 
-5.0428e-05 -3.89437e-05 1.00082 
9.55173e-05 0.000108801 1.00058 
-3.12635e-06 9.95806e-05 1.00065 
-2.30854e-05 8.5666e-05 1.00055 
-8.41532e-06 3.77238e-05 1.00055 
-3.06081e-05 -1.28328e-05 1.00052 
-3.34687e-06 -1.44097e-05 1.00054 
2.16542e-05 -2.30044e-05 1.00053 
2.24324e-05 -3.99216e-05 1.00054 
3.82673e-05 -3.39176e-07 1.00055 
-0.000101408 -8.86832e-05 1.00049 
-0.000277527 -8.04116e-05 1.0006 
-0.000238393 -0.000114717 1.00072 
-0.000125592 -6.05879e-05 1.00058 
-0.000132791 -1.06643e-05 1.00056 
0.00100592 0.000967879 1.00059 
0.00197922 0.00207539 1.00067 
0.0108854 0.01137 1.00099 
0.0205089 0.0228004 1.00065 
0.0417738 0.0491556 0.99985 
0.0715113 0.0881134 0.994964 
0.0876237 0.113531 0.990205 
0.0613518 0.0830666 0.993475 
-0.00989653 -0.0132872 0.999413 
0.00719027 0.0100836 1.00142 
0.0648866 0.104495 0.992178 
0.0681485 -0.114894 0.990812 
0.00592639 -0.00832091 1.00171 
-0.003676 0.00512994 0.999454 
0.0611049 -0.0879872 0.992964 
0.0835191 -0.115332 0.990435 
0.0572658 -0.0758929 0.997206 
0.0345424 -0.0432659 1.00008 
0.0129587 -0.0153772 1.00091 
0.00352436 -0.00368884 1.00072 
0.00151745 -0.00141756 1.00059 
0.000112702 -7.18474e-05 1.00054 
-0.000112141 5.67059e-05 1.00058 
-0.000117186 5.24685e-05 1.00062 
-5.68709e-05 7.47348e-06 1.00061 
-6.22811e-06 -2.32433e-05 1.00058 
2.21025e-05 -2.1851e-05 1.00054 
1.50712e-05 2.66654e-05 1.00054 
-2.73826e-05 5.61276e-05 1.00053 
-4.97392e-05 3.08797e-05 1.00052 