# vtk DataFile Version 3.0 
Exported using Morpho https://github.com/Morpho-lang/morpho 
ASCII 
DATASET UNSTRUCTURED_GRID 

POINTS 3402 float 
-1.60109 -6.883 8.31128e-05 
-1.37735 -6.93107 -0.000152108 
-1.1521 -6.97246 0.000164728 
-0.974177 -6.99952 0.000291269 
-0.736098 -7.02848 -0.000185463 
-0.555567 -7.045 9.77486e-05 
-0.309755 -7.05986 -0.000374752 
-0.108033 -7.06639 0.000130458 
0.0769354 -7.06633 0.000427036 
0.331916 -7.05892 -9.89188e-05 
0.521967 -7.04745 0.000113567 
0.767081 -7.02512 0.000161217 
0.945459 -7.00337 0.000273746 
1.18738 -6.96633 0.000158294 
1.37371 -6.93185 0.000525854 
1.63166 -6.87525 -0.000295885 
-2.41882 -6.63967 -0.000209223 
-2.20528 -6.71355 -0.000270831 
-1.97011 -6.78681 -0.000643108 
-1.80574 -6.83268 -8.07046e-05 
-1.56165 -6.63596 -0.000177472 
-1.34337 -6.70293 0.000132829 
-1.13398 -6.68335 3.65126e-05 
-0.910789 -6.77874 -0.000357676 
-0.697288 -6.73753 -0.0001644 
-0.480028 -6.81148 -0.000191562 
-0.258836 -6.78255 0.000122894 
-0.0527102 -6.76753 0.000100381 
0.167984 -6.82969 -2.30509e-05 
0.372481 -6.76032 -6.83405e-05 
0.596215 -6.79809 7.89822e-06 
0.797941 -6.72292 -7.21471e-05 
1.01801 -6.75593 -0.000134351 
1.22509 -6.67467 -8.95879e-05 
1.4512 -6.69429 -0.000245521 
1.67894 -6.62225 0.000221117 
1.86223 -6.81724 -0.000349496 
2.02343 -6.77077 0.000846338 
2.29154 -6.68412 -0.00016153 
-2.84046 -6.47047 -0.000451982 
-2.64202 -6.55411 -0.000231677 
-2.4163 -6.39534 0.000102878 
-2.19225 -6.46082 0.000240283 
-1.98217 -6.54881 0.000567493 
-1.75394 -6.54291 0.000254145 
-1.53338 -6.35114 0.000186183 
-1.33105 -6.41414 -0.000103245 
-1.11728 -6.41046 -4.67838e-05 
-0.902411 -6.48636 -0.000148252 
-0.68397 -6.45788 1.67148e-05 
-0.474214 -6.51387 3.52718e-05 
-0.270015 -6.47994 -4.00234e-05 
-0.0641776 -6.48251 4.24574e-05 
0.140111 -6.51854 -5.52286e-06 
0.351544 -6.47398 -3.58679e-05 
0.562244 -6.49184 -2.94242e-05 
0.773589 -6.45092 -0.000104126 
0.989731 -6.45474 -9.78316e-05 
1.20557 -6.39976 -9.80419e-05 
1.42065 -6.41047 3.21066e-07 
1.6246 -6.3334 -8.54448e-05 
1.86908 -6.49773 6.15685e-05 
2.09527 -6.53432 -0.00027841 
2.31051 -6.43587 -4.73739e-05 
2.52257 -6.60129 -0.000457035 
2.68566 -6.53669 0.000923538 
2.91164 -6.43829 0.000611167 
-3.27393 -6.26206 -0.000411809 
-3.0701 -6.36457 -0.000243034 
-2.85183 -6.22057 8.43646e-05 
-2.62569 -6.28711 0.000186838 
-2.38054 -6.11917 9.85522e-05 
-2.16822 -6.18709 0.000183435 
-1.9451 -6.26507 0.000113499 
-1.73483 -6.2686 0.000168405 
-1.53585 -6.14402 9.89705e-05 
-1.32852 -6.18839 -4.48455e-05 
-1.10721 -6.22127 -2.53149e-05 
-0.895956 -6.26351 -6.00314e-05 
-0.691895 -6.25528 4.34337e-05 
-0.481184 -6.27079 4.30083e-05 
-0.274668 -6.2634 5.2166e-05 
-0.067465 -6.28128 4.05401e-06 
0.14536 -6.28191 -1.92887e-05 
0.355961 -6.26914 -1.68917e-05 
0.564526 -6.25838 -1.5383e-05 
0.769002 -6.25017 -7.83328e-05 
0.974499 -6.23078 -6.96781e-05 
1.18101 -6.20595 -8.03751e-05 
1.40164 -6.16958 -4.12564e-07 
1.61598 -6.12447 -1.72839e-05 
1.8342 -6.23222 1.04815e-05 
2.05701 -6.24492 3.6733e-05 
2.26264 -6.1471 -3.89157e-05 
2.49657 -6.29803 -0.000130554 
2.71773 -6.28449 -6.44043e-05 
2.95 -6.19092 -0.000182344 
3.15543 -6.32237 1.48718e-05 
3.37207 -6.20977 0.000238307 
-3.71358 -6.0116 -0.000348715 
-3.50472 -6.13569 -0.000308884 
-3.28177 -6.00771 4.51863e-05 
-3.05835 -6.09551 0.000128797 
-2.80889 -5.94423 0.000122516 
-2.59317 -6.01515 7.19939e-05 
-2.37822 -5.8977 4.96065e-05 
-2.16468 -5.95949 2.311e-05 
-1.95389 -6.02516 2.10065e-05 
-1.73857 -6.06882 0.000121667 
-1.53635 -5.98066 4.74181e-05 
-1.31987 -6.02827 -9.25328e-06 
-1.12052 -6.04305 -1.33679e-05 
-0.922751 -6.08829 -1.97481e-05 
-0.711452 -6.08834 3.92272e-05 
-0.493434 -6.09141 4.55109e-05 
-0.27029 -6.08894 5.38621e-05 
-0.0637687 -6.09681 1.56906e-05 
0.146799 -6.10399 -2.81378e-06 
0.349573 -6.08378 -1.05125e-06 
0.552308 -6.07978 -7.51322e-06 
0.761581 -6.08267 -2.95952e-05 
0.975596 -6.05534 -2.37779e-05 
1.19074 -6.04249 -2.80944e-05 
1.40586 -6.00399 4.66062e-06 
1.61918 -5.95921 -9.36854e-06 
1.81719 -6.03379 -4.12026e-05 
2.02687 -6.00795 1.28384e-05 
2.24193 -5.93616 -4.34634e-05 
2.46643 -6.02096 -3.2215e-05 
2.69147 -6.02582 -0.000263995 
2.91135 -5.92409 -0.000109881 
3.16208 -6.0632 -0.000117731 
3.36816 -5.94997 1.82224e-05 
3.58649 -6.08816 0.000258835 
-3.93676 -5.86777 -0.000294456 
-3.70453 -5.7596 -1.28056e-05 
-3.49332 -5.87264 0.000122089 
-3.24222 -5.7324 0.000104051 
-3.02196 -5.81984 7.41206e-05 
-2.807 -5.70998 7.58263e-05 
-2.59467 -5.7851 1.75851e-05 
-2.39816 -5.71874 2.46349e-06 
-2.18775 -5.78172 -3.34857e-05 
-1.97977 -5.84582 -4.82098e-05 
-1.76833 -5.8937 9.02819e-06 
-1.59088 -5.80292 -8.88856e-06 
-1.34846 -5.85771 -4.25654e-06 
-1.11743 -5.85129 -4.36552e-06 
-0.892156 -5.91251 9.43673e-06 
-0.694951 -5.84015 2.37457e-05 
-0.513411 -5.91334 3.56645e-05 
-0.313975 -5.86877 2.45719e-05 
-0.100896 -5.87175 8.66363e-06 
0.112816 -5.90347 -1.20659e-06 
0.318597 -5.86045 -5.57433e-06 
0.541437 -5.8856 -6.54408e-06 
0.754399 -5.86533 -8.37716e-06 
0.975022 -5.88568 -6.30164e-06 
1.20039 -5.8469 -1.31194e-06 
1.41576 -5.84232 5.77981e-06 
1.65533 -5.79124 1.21789e-06 
1.84726 -5.86439 -9.21195e-06 
2.06263 -5.82847 1.85845e-05 
2.27798 -5.75962 -2.27521e-05 
2.45625 -5.82262 -8.70634e-05 
2.67344 -5.79336 -9.03813e-05 
2.87074 -5.6907 -4.01795e-05 
3.11195 -5.78302 -2.2998e-05 
3.33937 -5.68482 -9.68105e-06 
3.59347 -5.83643 -0.000118489 
3.81557 -5.94746 7.40554e-06 
4.00693 -5.82003 0.000309589 
-4.36008 -5.56009 -0.000378946 
-4.13883 -5.72693 -0.000477093 
-3.9122 -5.6087 5.51944e-05 
-3.6577 -5.48797 0.00012645 
-3.44015 -5.58972 8.66805e-05 
-3.22355 -5.48584 8.73188e-05 
-3.02519 -5.58523 1.43489e-05 
-2.83084 -5.52828 1.70265e-05 
-2.62036 -5.60122 -1.39154e-05 
-2.41942 -5.55356 -3.09661e-05 
-2.19857 -5.61424 -4.57242e-05 
-1.98116 -5.68023 -5.61881e-05 
-1.79189 -5.66264 -3.39932e-05 
-1.56551 -5.56538 -1.44843e-05 
-1.36452 -5.65583 -9.95148e-06 
-1.14841 -5.61208 -4.64934e-06 
-0.919756 -5.67311 3.012e-06 
-0.695059 -5.60724 4.60603e-06 
-0.472121 -5.65014 6.54347e-06 
-0.250761 -5.62943 2.27104e-07 
-0.0319162 -5.64456 -4.59984e-06 
0.164494 -5.64511 -6.91499e-06 
0.400819 -5.64395 -6.62541e-06 
0.603405 -5.63202 -5.01812e-06 
0.826929 -5.64247 -3.45327e-06 
1.03358 -5.64757 -1.54421e-06 
1.25695 -5.61468 9.94162e-08 
1.47503 -5.63066 1.84239e-06 
1.68683 -5.54726 2.7184e-06 
1.87679 -5.66048 7.5271e-06 
2.07688 -5.66717 1.37184e-05 
2.27341 -5.58225 6.85298e-06 
2.46872 -5.63062 -1.2094e-05 
2.65775 -5.62396 -1.39535e-05 
2.88299 -5.52373 6.90059e-06 
3.08792 -5.56635 3.61534e-05 
3.29182 -5.45644 -3.49201e-05 
3.53218 -5.55164 -9.98388e-05 
3.78606 -5.67643 -0.000121527 
4.00843 -5.56675 0.00010611 
4.24036 -5.65173 0.000110079 
-4.56645 -5.39169 -0.000505248 
-4.33393 -5.30955 0.000119372 
-4.13153 -5.47705 3.81182e-05 
-3.87117 -5.33987 8.6206e-05 
-3.65248 -5.2515 9.21729e-05 
-3.43365 -5.34651 5.62612e-05 
-3.23608 -5.30759 4.60674e-05 
-3.02951 -5.39492 8.34963e-06 
-2.84576 -5.35077 -1.16622e-05 
-2.65352 -5.42709 -2.32629e-05 
-2.45141 -5.35572 -2.15234e-05 
-2.2241 -5.40085 -2.35426e-05 
-2.00754 -5.45602 -2.6231e-05 
-1.78843 -5.42499 -1.39566e-05 
-1.55453 -5.35318 -4.67949e-06 
-1.32191 -5.41896 -4.41007e-06 
-1.11904 -5.35487 -2.21868e-06 
-0.941892 -5.45252 -1.42231e-06 
-0.762362 -5.37042 -1.88291e-06 
-0.54426 -5.41464 -2.11463e-06 
-0.335168 -5.41625 -3.45169e-06 
-0.105756 -5.41408 -4.66526e-06 
0.100117 -5.39642 -4.68294e-06 
0.307727 -5.43454 -4.56339e-06 
0.523212 -5.39748 -2.9141e-06 
0.74239 -5.41509 -2.09868e-06 
0.954552 -5.41399 -1.50629e-06 
1.16428 -5.40391 -1.15672e-06 
1.40017 -5.39968 -7.8509e-07 
1.59759 -5.34466 -5.27725e-08 
1.8529 -5.37645 3.33599e-06 
2.04131 -5.44691 8.04483e-06 
2.26978 -5.37353 8.92209e-06 
2.50219 -5.44832 1.4823e-05 
2.70395 -5.45529 1.59321e-05 
2.91123 -5.35156 2.14193e-05 
3.09892 -5.38919 2.11089e-05 
3.31024 -5.27558 -1.09395e-05 
3.50574 -5.32263 -4.7915e-05 
3.74337 -5.39966 -2.89617e-05 
3.96453 -5.29244 3.82128e-05 
4.21655 -5.40521 6.95788e-05 
4.45643 -5.48321 -0.000285582 
-4.78313 -5.20011 -0.000487557 
-4.55005 -5.14355 0.000185209 
-4.28473 -5.04728 0.000219105 
-4.07411 -5.20557 0.00017519 
-3.84095 -5.08676 7.8307e-05 
-3.65231 -5.06178 6.77976e-05 
-3.47105 -5.16483 1.86041e-05 
-3.28949 -5.13695 7.33112e-06 
-3.07029 -5.21373 -8.51643e-07 
-2.86146 -5.15975 -9.23955e-06 
-2.63815 -5.20777 -1.15899e-05 
-2.37792 -5.14266 -4.72074e-06 
-2.15364 -5.17941 -4.04753e-06 
-1.9481 -5.21489 -3.8191e-06 
-1.72795 -5.19312 -1.12176e-06 
-1.5298 -5.10847 1.72189e-07 
-1.35782 -5.20481 -8.70459e-07 
-1.16665 -5.13404 -6.17494e-07 
-0.934931 -5.19279 -1.32289e-06 
-0.679609 -5.17788 -1.79245e-06 
-0.470196 -5.19366 -2.24477e-06 
-0.24873 -5.21105 -2.67719e-06 
-0.0388751 -5.17879 -2.27319e-06 
0.179951 -5.1837 -1.92816e-06 
0.373053 -5.20027 -1.59328e-06 
0.604804 -5.19164 -1.01283e-06 
0.809353 -5.19065 -7.54709e-07 
1.01045 -5.1894 -6.93255e-07 
1.2377 -5.20389 -8.22355e-07 
1.43073 -5.1562 -6.63829e-07 
1.66941 -5.16078 -1.66927e-07 
1.88097 -5.15718 9.15554e-07 
2.09709 -5.20174 2.9914e-06 
2.28528 -5.10436 2.05738e-06 
2.4687 -5.21781 7.62241e-06 
2.69687 -5.27573 1.66103e-05 
2.90842 -5.17115 1.79831e-05 
3.12436 -5.2154 1.99642e-05 
3.33497 -5.10551 8.70723e-06 
3.52749 -5.13745 -1.23268e-05 
3.71318 -5.16288 1.95552e-05 
3.91279 -5.05676 -2.15907e-05 
4.15663 -5.12754 1.50471e-05 
4.41543 -5.23327 -2.76063e-05 
4.6606 -5.31151 -0.000196296 
4.81293 -5.17374 0.000665852 
-4.99493 -4.99693 7.67314e-05 
-4.75582 -4.9569 6.40693e-05 
-4.49284 -4.88022 0.000245026 
-4.24765 -4.80388 0.000161434 
-4.05067 -4.96537 0.000159813 
-3.87235 -4.89799 4.76741e-05 
-3.68528 -4.8928 2.25217e-05 
-3.4814 -4.97827 8.60667e-06 
-3.28936 -4.94093 -2.56593e-06 
-3.09618 -5.02421 -4.41031e-06 
-2.88826 -4.92751 -1.81882e-06 
-2.66586 -4.97014 -1.21937e-06 
-2.45696 -4.96333 5.60518e-07 
-2.20446 -4.95296 1.1246e-06 
[...]
POINT_DATA 3402 
VECTORS vectors float
0.347654 -0.0803153 0.900325 
0.348921 -0.0680592 0.897524 
0.353267 -0.0610601 0.904016 
0.356121 -0.0511508 0.903126 
0.348648 -0.0359527 0.90855 
0.354309 -0.0270725 0.905755 
0.348956 -0.0126615 0.906436 
0.357095 -0.00658092 0.908888 
0.353057 0.00176813 0.905787 
0.34887 0.0165349 0.907677 
0.351792 0.0267124 0.906066 
0.349192 0.03646 0.908545 
0.350072 0.0463943 0.907607 
0.34411 0.0562462 0.90982 
0.343984 0.065653 0.907761 
0.332353 0.08069 0.906717 
0.326788 -0.118987 0.908214 
0.328687 -0.105846 0.906877 
0.344962 -0.0963434 0.904467 
0.346919 -0.0904414 0.907833 
0.368497 -0.0858574 0.957983 
0.386959 -0.0777456 0.94564 
0.356143 -0.0604698 0.970713 
0.386141 -0.0499307 0.947955 
0.355266 -0.0350694 0.971786 
0.384485 -0.0252558 0.949973 
0.366624 -0.0140857 0.964178 
0.358119 -0.00318283 0.972074 
0.384251 0.0096063 0.951055 
0.360513 0.0203573 0.970363 
0.379774 0.033574 0.952647 
0.357285 0.0429446 0.970274 
0.379252 0.0576317 0.950763 
0.358028 0.0662745 0.967869 
0.381394 0.0842643 0.944854 
0.369482 0.0926157 0.955521 
0.340429 0.09501 0.911572 
0.338188 0.095976 0.908178 
0.321281 0.111254 0.90616 
0.316662 -0.137556 0.911161 
0.321134 -0.128686 0.911149 
0.357974 -0.137377 0.95322 
0.358257 -0.123698 0.955191 
0.370223 -0.115487 0.947019 
0.344124 -0.0948718 0.971468 
0.164528 -0.041586 1.02261 
0.181707 -0.0373605 1.02309 
0.152346 -0.026126 1.0239 
0.180276 -0.0245025 1.02437 
0.14537 -0.0157973 1.02508 
0.171825 -0.0126186 1.0264 
0.140513 -0.00495604 1.0275 
0.140283 -0.00179064 1.02436 
0.168174 0.00370547 1.02638 
0.141721 0.008178 1.02577 
0.163106 0.0146276 1.02708 
0.148992 0.0186924 1.02424 
0.169953 0.0266841 1.0257 
0.157789 0.0300699 1.02352 
0.193291 0.0432618 1.02157 
0.171594 0.0454993 1.02278 
0.338621 0.0973694 0.973272 
0.373549 0.121519 0.943574 
0.362703 0.13132 0.95214 
0.3259 0.128311 0.912208 
0.325185 0.127305 0.913203 
0.312368 0.137519 0.909646 
0.304764 -0.158371 0.911485 
0.309643 -0.148597 0.911693 
0.350897 -0.162644 0.951618 
0.343564 -0.146072 0.95823 
0.185123 -0.0735786 1.01928 
0.17901 -0.0645518 1.02164 
0.182044 -0.0574613 1.02325 
0.142042 -0.0394407 1.02447 
0.0357041 -0.0094527 1.02154 
0.0408391 -0.00884677 1.02458 
0.0323979 -0.00582754 1.01978 
0.0373689 -0.00608797 1.02423 
0.0245135 -0.00382519 1.01915 
0.0292678 -0.00362042 1.02416 
0.0200276 -0.000492539 1.02075 
0.023891 -0.000378314 1.01856 
0.0294929 0.000754883 1.02372 
0.0229718 0.00165951 1.01917 
0.0274349 0.00321483 1.0234 
0.0262586 0.00399644 1.01928 
0.0326564 0.00593394 1.02386 
0.0339932 0.00691826 1.02016 
0.0431095 0.00993146 1.02566 
0.0413544 0.0115252 1.02237 
0.14416 0.0418668 1.02482 
0.195755 0.0645572 1.02042 
0.176861 0.0667308 1.02157 
0.33188 0.132902 0.965505 
0.350591 0.151533 0.953356 
0.348963 0.168006 0.949831 
0.306125 0.154201 0.909398 
0.302364 0.164072 0.911405 
0.292713 -0.180073 0.910534 
0.298402 -0.169467 0.910528 
0.33967 -0.186866 0.951076 
0.33606 -0.170563 0.956531 
0.187531 -0.0899658 1.01831 
0.176102 -0.0767768 1.0213 
0.0514264 -0.0209008 1.02469 
0.0439439 -0.0168496 1.02421 
0.0432791 -0.0143705 1.02619 
0.0261638 -0.00699578 1.01979 
0.00174021 -0.00043625 1.0112 
0.00232535 -0.000531799 1.01233 
0.000502458 -0.000333576 1.00996 
0.00152014 -0.000856374 1.01176 
-5.69548e-05 -0.00061864 1.00998 
-0.000483707 -0.00084351 1.01136 
-0.00154279 0.000167242 1.01042 
-0.000370685 0.00010364 1.00982 
-0.000301518 -8.91995e-06 1.01132 
-0.000854056 8.92661e-05 1.00974 
-0.000512564 0.000350537 1.01111 
-6.32257e-05 0.000401357 1.01003 
0.000597424 0.000590509 1.01159 
0.00143479 0.000568433 1.0105 
0.00283151 0.000761021 1.01298 
0.00249956 0.00105083 1.01155 
0.0260901 0.00762353 1.01981 
0.0476743 0.0163113 1.02626 
0.0452468 0.0175324 1.02393 
0.149869 0.0620536 1.02766 
0.203796 0.0919986 1.01132 
0.200347 0.0997215 1.01516 
0.337418 0.178153 0.953147 
0.33294 0.189685 0.952964 
0.296047 0.174141 0.909707 
0.285931 -0.190871 0.910713 
0.326511 -0.210774 0.950591 
0.328294 -0.196956 0.953287 
0.191616 -0.109608 1.01626 
0.179048 -0.0938539 1.02032 
0.0547618 -0.027273 1.02544 
0.044919 -0.0203188 1.02507 
0.00486547 -0.00211954 1.01334 
0.00322777 -0.00162247 1.01262 
0.00323364 -0.00119077 1.01309 
0.00057611 2.74688e-05 1.0102 
-0.000791325 0.000337658 1.00865 
-0.000946987 0.000180285 1.00843 
-0.000788138 -5.29565e-05 1.00867 
-0.000966442 -0.000225941 1.00858 
-0.000797401 -0.00030687 1.00872 
-0.00108384 -0.000108559 1.00856 
-0.000929515 0.000106453 1.0084 
-0.000852986 -1.84306e-05 1.00852 
-0.00105856 7.39386e-05 1.00876 
-0.000966181 5.08837e-05 1.00847 
-0.00121728 7.42723e-05 1.00875 
-0.00104344 9.75462e-05 1.00852 
-0.00124824 7.33301e-06 1.00874 
-0.00103021 -5.84456e-06 1.00851 
-0.00123306 -0.000179298 1.00876 
-0.00116839 3.97268e-05 1.00851 
0.000440072 0.000218329 1.01004 
0.004116 0.00155582 1.01338 
0.00318823 0.00153683 1.01233 
0.0316996 0.0142384 1.02156 
0.0631546 0.0304068 1.02654 
0.058183 0.0294198 1.02547 
0.179979 0.0975782 1.01964 
0.196053 0.115647 1.01446 
0.331044 0.205572 0.949419 
0.289343 0.186 0.911557 
0.284434 0.194805 0.910134 
0.272594 -0.213108 0.907276 
0.279974 -0.201221 0.909425 
0.312304 -0.218944 0.9538 
0.190455 -0.128191 1.01451 
0.176691 -0.109723 1.01943 
0.054252 -0.0323156 1.02577 
0.0510508 -0.0279948 1.02578 
0.0064777 -0.00343735 1.01412 
0.00361872 -0.00179451 1.01309 
-0.000889372 9.06595e-05 1.0083 
-0.000733506 -0.000152579 1.00843 
-0.000671348 0.000184128 1.00851 
-0.000559017 0.000443178 1.00871 
-0.000601506 0.000332153 1.00852 
-0.000665341 0.000132296 1.00849 
-0.000653191 1.62319e-05 1.0084 
-0.000740595 -0.000157448 1.00856 
-0.000801588 -0.000365735 1.00848 
-0.00061232 -5.00612e-05 1.00891 
-0.000521041 0.000111757 1.00852 
-0.000652269 3.53796e-05 1.00847 
-0.000647834 0.000211946 1.00845 
-0.000673551 1.35225e-05 1.00839 
-0.000721596 0.000216702 1.00844 
-0.000727377 -1.26326e-05 1.00835 
-0.000839636 0.000147265 1.00842 
-0.000839294 -7.09635e-05 1.00836 
-0.00097592 0.000113724 1.00836 
-0.000618082 -0.000241888 1.00809 
-0.000729189 -0.000305424 1.00836 
-0.000865514 -0.000317639 1.00839 
-0.000790677 -0.00020146 1.00841 
0.000569602 0.000676946 1.01012 
0.00854617 0.00460886 1.01477 
0.00938773 0.00465018 1.01491 
0.0577536 0.0318997 1.02584 
0.0608652 0.0366865 1.02589 
0.186184 0.1196 1.01625 
0.313864 0.210548 0.9559 
0.31749 0.227918 0.949294 
0.275495 0.205774 0.906282 
0.266323 -0.224046 0.905255 
0.297036 -0.244239 0.951987 
0.310356 -0.235379 0.949393 
0.18791 -0.137183 1.01396 
0.0687828 -0.0487552 1.02579 
0.0529164 -0.0349013 1.02634 
0.00732543 -0.00504242 1.01471 
0.00430155 -0.00265741 1.01346 
-0.000761214 0.000172638 1.00839 
-0.000752877 0.00043131 1.00824 
-0.000362564 6.63646e-05 1.00805 
-0.000475739 -0.000411683 1.00856 
-0.000510843 5.79563e-05 1.00906 
-0.00063338 0.000555045 1.00855 
-0.000509129 0.000266948 1.00799 
-0.000493421 8.6999e-05 1.0081 
-0.000362575 -3.6617e-06 1.00801 
-0.000543343 -2.37477e-05 1.00799 
-0.000344856 -0.000247022 1.00782 
-0.000576181 -0.000282772 1.00818 
-0.000627851 1.07897e-05 1.00826 
-0.0005014 5.52607e-05 1.00825 
-0.000467033 0.000108417 1.00822 
-0.000473219 0.000142914 1.00816 
-0.00040871 0.000104846 1.00817 
-0.00040723 0.000131009 1.00807 
-0.000470307 0.000159909 1.00805 
-0.000570339 0.000116018 1.00803 
-0.000586003 -2.11161e-05 1.00798 
-0.000379147 -0.000191434 1.00791 
-0.000553331 -0.000348854 1.00846 
-0.000482627 -0.000152522 1.00855 
-0.000531672 -0.000155218 1.00855 
-0.000608047 -0.000128647 1.00839 
-0.00023926 -6.62224e-06 1.00854 
-0.00036009 -0.000199269 1.00857 
0.00797136 0.00441521 1.01473 
0.00981401 0.00606678 1.01556 
0.0625991 0.0410982 1.02643 
0.177331 0.122679 1.01846 
0.193784 0.144952 1.0123 
0.305168 0.238435 0.950419 
0.264695 0.218451 0.908775 
0.259247 -0.235158 0.903248 
0.289649 -0.258011 0.95042 
0.191086 -0.164045 1.00988 
0.189522 -0.15004 1.01201 
0.0600562 -0.0460843 1.02662 
0.011351 -0.00878062 1.01594 
0.00818832 -0.00620522 1.01508 
-0.000595603 3.62517e-05 1.0086 
-0.0008883 0.000215627 1.00827 
-0.000766422 -3.16005e-05 1.00835 
-0.000428231 0.00012093 1.0087 
-0.000253547 -7.18685e-05 1.00828 
-0.000429195 -0.00020194 1.00838 
-0.000422873 0.000277931 1.00841 
-0.00024392 0.000440384 1.00787 
-0.000131074 0.000230725 1.00781 
-0.000257358 5.45094e-05 1.00788 
-0.00015045 -5.37222e-05 1.00799 
-0.000116747 -8.36836e-05 1.00799 
-0.000306317 -0.00010081 1.0082 
-0.000499531 -2.54477e-05 1.00809 
-0.000432224 -4.19012e-05 1.00808 
-0.00035633 1.37377e-05 1.0081 
-0.000307679 9.31409e-05 1.00803 
-0.00028154 9.40746e-05 1.00803 
-0.00022366 7.5455e-05 1.00801 
-0.000158051 0.000135446 1.00799 
-0.000224017 0.000338681 1.00786 
-0.000359808 4.79535e-05 1.00766 
-0.000204049 -5.80083e-05 1.00776 
-0.000337337 -9.52527e-05 1.00773 
-0.000428851 -0.000233563 1.00774 
-0.000527833 -0.000219184 1.0081 
-0.000581055 -0.000190151 1.00801 
-0.00046203 -0.00013996 1.00856 
-0.000513472 -0.00011573 1.00838 
-0.000575849 -0.000129356 1.00834 
-0.000557404 -0.000276421 1.00854 
-0.000465161 -0.000298122 1.00863 
0.00973972 0.00651411 1.01577 
0.0533028 0.0385995 1.02697 
0.0651009 0.0508585 1.02612 
0.182867 0.149072 1.01328 
0.294223 0.249404 0.952665 
0.259181 0.228885 0.914015 
0.255717 0.232433 0.911392 
0.247499 -0.247992 0.903647 
0.27664 -0.265893 0.953308 
0.192428 -0.178865 1.00728 
0.0742486 -0.0667265 1.02657 
0.0711362 -0.0593408 1.0261 
0.0118324 -0.0100261 1.01626 
0.000152966 -0.000446241 1.00894 
-0.000483479 8.43267e-05 1.00831 
-0.000533474 0.000142372 1.0081 
-0.000510508 0.00024567 1.00822 
-0.000343292 9.16492e-05 1.0079 
-0.000522104 -0.000214824 1.00819 
-0.00042631 -8.95202e-05 1.00813 
-0.000353663 -0.000177591 1.00807 
-0.000277511 -7.27675e-05 1.00828 
-0.000245797 0.000433094 1.00826 
-0.000334661 0.000248904 1.00786 
-0.00015145 -1.95914e-05 1.00798 
-0.000140224 -6.08969e-05 1.00797 
-0.000183571 -7.12868e-05 1.00793 
-0.000192301 8.22604e-05 1.00781 
-0.000252694 2.65596e-06 1.00765 
-0.000210346 -0.00015986 1.00786 
-0.000189356 -2.84033e-05 1.008 
-0.000208195 4.62382e-05 1.00799 
-0.000204363 7.28743e-05 1.00804 
-0.00020903 3.85479e-05 1.00799 
-0.000217842 2.69152e-05 1.00818 
-0.000150322 0.000304235 1.00812 
-7.80715e-05 0.000216215 1.00755 
9.4358e-05 -0.000153469 1.00781 
-6.20575e-06 2.77185e-05 1.00782 
-0.000139342 -4.3718e-05 1.00776 
-0.000405838 -8.45742e-05 1.00802 
-0.000514572 -0.000123377 1.00755 
-0.000629284 -0.000235139 1.00823 
-0.000497287 -3.61777e-05 1.00851 
-0.000483135 -7.40914e-05 1.00823 
-0.000606597 -0.000205331 1.00825 
-0.000702141 -0.000350317 1.00814 
-0.00047266 -0.000424832 1.00869 
0.00701857 0.00567223 1.01493 
0.0101969 0.0085575 1.01555 
0.0601919 0.0500492 1.02636 
0.1631 0.143005 1.01775 
0.276501 0.250663 0.958143 
0.281346 0.270733 0.948606 
0.243277 0.244373 0.90289 
0.234972 -0.259479 0.902336 
0.265928 -0.275593 0.953375 
0.190382 -0.189951 1.00502 
0.0773075 -0.0748842 1.02646 
0.0189523 -0.0181358 1.01853 
0.0152568 -0.0139003 1.01718 
0.000227507 -0.000552561 1.00877 
-0.000478993 0.00017364 1.00805 
-0.000352893 0.000298464 1.00812 
-0.000198336 9.88302e-05 1.00805 
-0.00019199 8.15273e-05 1.00843 
-0.000130432 4.20258e-05 1.00781 
-0.000265254 -8.85592e-05 1.00787 
-0.000353089 -0.000135552 1.008 
-0.000438825 -0.000184715 1.00807 
-0.000608082 0.000101189 1.00821 
-0.000422526 0.00036864 1.00785 
-0.000341881 3.96389e-05 1.00771 
-0.000188686 -4.57917e-05 1.00791 
-0.000281623 -9.68352e-05 1.00783 
-0.000107338 -4.92661e-05 1.00802 
-0.000106277 -8.16789e-05 1.00778 
0.00015423 -0.000112367 1.00784 
4.63508e-05 -7.39421e-06 1.00797 
-6.78919e-05 3.60825e-05 1.00795 
-0.000121418 9.47804e-05 1.00798 
-0.000143493 8.54473e-05 1.00792 
-0.000198192 7.03144e-05 1.00791 
-0.000287508 8.202e-05 1.0079 
-0.000354462 0.000125797 1.00778 
1.74903e-05 -1.21651e-05 1.00776 
-2.07457e-05 1.06621e-06 1.00815 
-0.000136545 0.0002442 1.00789 
-0.000227568 -7.11397e-05 1.00755 
-0.000145817 0.00018158 1.00764 
-0.000215419 -0.000183918 1.00736 
-0.000276839 -0.000109101 1.00758 
-0.000466412 -0.0001578 1.0078 
-0.000287069 -0.000134935 1.00787 
-0.000356589 -1.2798e-06 1.00824 
-0.000309053 -0.000121433 1.00792 
-0.00064205 -0.000556277 1.00821 
-0.000764331 -0.000198469 1.00854 
-0.000328236 -9.96978e-06 1.00827 
0.00860172 0.00679111 1.01524 
0.0490559 0.0444918 1.02572 
0.150895 0.142273 1.02218 
0.188583 0.19119 1.00188 
0.268919 0.285093 0.947477 
0.229181 0.258044 0.907732 
0.223372 -0.267053 0.90441 
0.258258 -0.290797 0.949678 
0.183543 -0.197403 1.00518 
0.0807577 -0.0834233 1.02571 
0.0210118 -0.0210228 1.01905 
0.00198237 -0.00191064 1.0098 
0.00106058 -0.00159506 1.00936 
-0.00053048 0.000114176 1.00822 
-0.000433187 6.80729e-05 1.00806 
-0.00025744 3.51121e-05 1.0085 
-0.000125363 2.68216e-05 1.0079 
-0.000177968 0.000112937 1.00796 
-0.000112639 3.99953e-05 1.0078 
-0.000209728 -1.51889e-05 1.00787 
-0.000348168 -8.01798e-07 1.00789 
-0.000498396 8.83896e-05 1.00777 
-0.000589237 2.21626e-05 1.00761 
-0.00046204 0.00023249 1.00783 
-0.000403512 5.11627e-05 1.00753 
-0.000387902 -7.81146e-05 1.00799 
-0.000375728 -0.000132259 1.0076 
-0.000328142 -0.000131588 1.00797 
-0.00019371 -0.000203435 1.0077 
-0.000104395 -0.000245901 1.0082 
-3.74353e-05 8.19039e-05 1.00811 
-6.57357e-05 0.00010399 1.00801 
-5.24163e-05 0.000100324 1.00795 
-3.86922e-05 0.00011882 1.00789 
-0.000107257 0.000143395 1.00782 
-5.82408e-05 0.000161665 1.00766 
1.44748e-06 2.97409e-06 1.00754 
-0.000142345 -0.000242835 1.00769 
-0.000115065 1.83377e-05 1.00786 
-6.71565e-05 0.000268186 1.00782 
-2.23977e-05 3.33524e-06 1.0075 
0.000136551 -1.59016e-05 1.00791 
0.00011389 -1.59632e-05 1.00744 
9.94235e-05 -6.26627e-05 1.00801 
-0.000116438 -5.61335e-05 1.00774 
-0.000352521 -0.000136308 1.00775 
-0.000193144 -2.18098e-05 1.0081 
-0.00020004 -0.000196856 1.00796 
-0.000547151 -0.000323204 1.00828 
-0.0003848 -0.000180642 1.00795 
-0.000313621 -0.000602623 1.00818 
0.0037001 0.00355853 1.01298 
0.0309802 0.0312327 1.02288 
0.0659407 0.0685742 1.02747 
0.154402 0.169596 1.01512 
0.250882 0.286379 0.954175 
0.22252 0.263617 0.913134 
0.212317 -0.273078 0.909747 
0.245941 -0.29943 0.950818 
0.161646 -0.188754 1.01079 
0.0659862 -0.0728989 1.02649 
0.0168894 -0.017335 1.01797 
0.0017028 -0.00134682 1.00947 
2.21672e-05 0.000419744 1.00787 
-0.000323836 7.03843e-05 1.00747 
-0.000269506 9.26997e-05 1.00832 
-0.000271983 0.000142985 1.00806 
-0.00023771 -0.000141744 1.00785 
-0.000243101 -2.5926e-06 1.00789 
-0.000134005 2.40641e-05 1.00784 
-0.000104853 5.74009e-05 1.00786 
-0.000101537 5.69262e-05 1.00787 
-0.000157975 8.71145e-05 1.00783 
-0.000181964 0.000115581 1.00772 
-0.00013408 0.000135233 1.00766 
-0.000200295 1.36337e-05 1.00768 
-0.000167679 0.00017764 1.00763 
-0.000229583 -8.34252e-05 1.00763 
-0.000265865 -2.57029e-05 1.00764 
-0.000231832 -0.000277161 1.00773 
-0.000176229 -0.00016173 1.00779 
-0.000175929 -0.000316537 1.00793 
-0.000226566 -3.9978e-05 1.00806 
-0.000126942 3.00279e-05 1.00795 
-5.40119e-05 6.50385e-05 1.00792 
3.66797e-06 8.62043e-05 1.008 
1.79722e-05 0.000164706 1.0079 
-8.4288e-05 0.000114029 1.00769 
6.4899e-05 -5.52497e-05 1.008 
0.000112667 -6.3776e-05 1.00785 
2.45763e-05 2.81603e-05 1.00791 
2.97787e-05 8.91282e-05 1.00782 
9.73498e-05 -3.98944e-05 1.00779 
-3.81358e-05 -3.13235e-05 1.00802 
6.27284e-05 1.75979e-05 1.00787 
-6.52021e-05 4.45463e-05 1.00793 
-0.000114301 0.000200578 1.00767 
9.36708e-06 5.47782e-05 1.00739 
-0.000113583 -0.000215526 1.00764 
-0.000250734 -1.4869e-05 1.00772 
-4.0301e-05 -0.000250004 1.00789 
-0.000122144 -0.000121616 1.00806 
-0.000122818 -0.000432465 1.00831 
-0.000455009 -0.000492719 1.00805 
0.00142274 0.00189436 1.01065 
0.0123928 0.0128872 1.01628 
0.0508502 0.0561525 1.02716 
0.139571 0.164771 1.0177 
0.243012 0.296268 0.953885 
0.213823 0.269387 0.910256 
0.202145 -0.279371 0.909592 
0.231454 -0.30376 0.953654 
0.144922 -0.18291 1.01384 
0.0526622 -0.0632502 1.02664 
0.0128804 -0.0142053 1.01712 
0.00106381 -0.000960414 1.00923 
-0.000407172 0.000393853 1.00828 
-0.000227962 0.00036455 1.00829 
-0.000151036 0.000101529 1.0079 
-0.000145024 -4.06348e-05 1.00773 
-0.000153834 -9.83403e-05 1.0078 
-0.000147981 -4.43534e-05 1.00786 
-0.000116768 1.5802e-05 1.00787 
-9.1111e-05 3.62369e-05 1.00789 
-8.61844e-05 8.60379e-05 1.00785 
-7.32447e-05 0.000104571 1.00777 
-1.50566e-05 9.04925e-05 1.00775 
2.2155e-05 9.35345e-05 1.00778 
2.69077e-05 0.000107408 1.00774 
-3.40792e-05 0.000102115 1.00764 
-7.9486e-05 -2.47228e-05 1.00759 
-9.92614e-05 -0.000184811 1.00764 
-5.16942e-05 -0.000266931 1.00774 
-6.473e-05 -0.000248272 1.0078 
-0.000118284 -0.000149658 1.00793 
-0.000108662 -7.91556e-05 1.00794 
-5.73485e-05 -1.36628e-05 1.0079 
-1.21279e-05 1.06541e-05 1.0079 
8.97496e-05 3.34547e-05 1.00808 
0.000153942 0.000298781 1.00781 
2.57587e-05 3.16878e-05 1.00754 
4.77987e-05 -9.97731e-05 1.00777 
1.59675e-06 -1.58646e-05 1.00785 
1.11915e-05 1.54156e-05 1.0079 
3.60524e-05 6.58659e-05 1.00785 
3.14438e-05 6.65629e-06 1.00786 
-5.33126e-05 2.86287e-05 1.0079 
-7.14873e-05 4.48513e-05 1.00788 
-0.000110761 5.08699e-05 1.00777 
-2.16289e-06 0.000100432 1.00789 
0.000334778 -0.000138025 1.00759 
0.000323649 -5.07272e-05 1.00778 
0.000189149 -0.000208762 1.00756 
0.00023808 -0.000108651 1.00808 
0.000134756 -0.00020482 1.00784 
2.37613e-05 -0.000199152 1.00847 
-0.000335257 -0.000291254 1.00782 
-0.00047055 -0.000516364 1.00804 
0.00242592 0.00229754 1.01152 
0.00946685 0.0117822 1.01591 
0.0519037 0.0630616 1.0264 
0.140928 0.178243 1.01504 
0.234302 0.307636 0.950872 
0.201717 0.278375 0.90706 
0.190557 -0.286566 0.908619 
0.223389 -0.318225 0.949998 
0.140368 -0.191592 1.0127 
0.0539243 -0.0705804 1.02596 
0.0112631 -0.0138022 1.01681 
0.000840815 -0.000673504 1.0093 
-0.000473461 0.000487674 1.00788 
-0.000485406 0.00033504 1.00796 
-0.00042525 0.000204907 1.00808 
-0.000147349 6.84848e-05 1.00778 
-8.78822e-05 -1.19163e-05 1.00763 
-0.000103613 -7.43746e-05 1.00775 
-0.000116729 -7.60699e-05 1.00786 
-0.000111519 -2.24373e-05 1.00782 
-0.000107148 1.34998e-05 1.00783 
-9.82618e-05 5.01821e-05 1.00785 
-5.17416e-05 6.06407e-05 1.0078 
8.96056e-06 3.67282e-05 1.00781 
6.58225e-05 5.15921e-05 1.00778 
0.000102404 9.31214e-05 1.00776 
0.000123182 0.000129692 1.00771 
0.000118692 7.8655e-05 1.00764 
4.34845e-05 -4.94358e-05 1.00755 
6.12644e-05 -0.000320985 1.00769 
7.78709e-05 -0.000183874 1.00786 
-2.66627e-05 -0.000163157 1.00786 
1.75385e-06 -0.00011357 1.00793 
3.23578e-05 -7.23594e-05 1.00796 
3.62002e-05 -1.95305e-05 1.00791 
-6.74634e-05 3.81824e-06 1.0079 
-3.92192e-05 4.93339e-05 1.00829 
0.000189865 0.000216466 1.00789 
4.11427e-05 3.5108e-05 1.00785 
1.0143e-05 -2.23912e-05 1.0079 
-1.65954e-05 2.34296e-05 1.00791 
-1.01628e-05 5.3558e-05 1.00785 
-4.79243e-07 5.34703e-05 1.00789 
5.68792e-06 5.37152e-05 1.00784 
-1.12475e-05 2.7617e-05 1.00777 
0.000202504 -3.0207e-05 1.0077 
0.000158251 -9.15983e-05 1.00758 
0.000131267 -0.000189244 1.00758 
0.000166994 -0.000243168 1.00821 
0.000305059 -9.76837e-05 1.00797 
3.83223e-05 -6.25404e-05 1.00799 
0.000104249 -0.000133966 1.00792 
-0.000110567 -0.000106995 1.00821 
-4.17583e-05 -6.76539e-05 1.00825 
-8.58562e-05 -0.000251735 1.00826 
-0.000318758 -0.000416954 1.00795 
0.000418641 0.000450565 1.00875 
0.0101432 0.0122232 1.01625 
0.0500565 0.0651716 1.02588 
0.141963 0.195282 1.01181 
0.223217 0.319769 0.949574 
0.189836 0.286954 0.909037 
0.179629 -0.293365 0.910564 
0.209869 -0.32388 0.951555 
0.126349 -0.187422 1.01562 
0.044497 -0.0625797 1.02637 
0.00894799 -0.0114208 1.01605 
0.000371076 4.65459e-05 1.00875 
-0.000198512 0.000612146 1.008 
-0.000106736 0.000514614 1.00813 
-4.98259e-05 7.14145e-05 1.00774 
-9.56486e-05 1.04729e-05 1.00774 
-4.35619e-05 -6.81056e-06 1.0077 
-4.35485e-05 -3.62699e-05 1.00773 
-5.71711e-05 -6.57544e-05 1.00777 