# vtk DataFile Version 3.0 
Exported using Morpho https://github.com/Morpho-lang/morpho 
ASCII 
DATASET UNSTRUCTURED_GRID 

POINTS 1978 float 
-8.48529 -2.82843 1.08542e-09 
-8.25796 -2.82843 3.5727e-08 
-8.0264 -2.82843 7.09429e-08 
-7.76068 -2.82843 4.78945e-08 
-7.47809 -2.82843 3.58902e-08 
-7.22685 -2.82843 3.10477e-08 
-6.99833 -2.82843 4.4107e-08 
-6.77952 -2.82843 3.24237e-08 
-6.56003 -2.82843 2.64763e-08 
-6.34084 -2.82843 1.30774e-08 
-6.13465 -2.82843 1.48096e-08 
-5.92852 -2.82843 1.04618e-08 
-5.71406 -2.82843 6.68416e-09 
-5.50847 -2.82843 6.12833e-09 
-5.29318 -2.82843 -6.0022e-10 
-5.08357 -2.82843 7.11795e-10 
-4.86799 -2.82843 -3.5687e-09 
-4.66038 -2.82843 -3.03227e-09 
-4.44145 -2.82843 -4.71298e-09 
-4.22412 -2.82843 -1.08677e-08 
-4.00539 -2.82843 -1.46928e-08 
-3.79396 -2.82843 -2.10456e-08 
-3.5803 -2.82843 -2.38632e-08 
-3.36916 -2.82843 -3.44094e-08 
-3.15158 -2.82843 -4.32414e-08 
-2.94286 -2.82843 -5.22719e-08 
-2.73518 -2.82843 -5.89108e-08 
-2.54038 -2.82843 -7.3711e-08 
-2.32494 -2.82843 -9.6006e-08 
-2.11756 -2.82843 -9.58911e-08 
-1.90644 -2.82843 -9.29807e-08 
-1.69945 -2.82843 -7.68745e-08 
-1.50528 -2.82843 -5.29331e-08 
-1.28962 -2.82843 -6.46608e-08 
-1.1216 -2.82843 9.55721e-09 
-0.850269 -2.82843 1.49445e-08 
-0.630151 -2.82843 5.68007e-08 
-0.451218 -2.82843 -1.63351e-07 
-0.220098 -2.82843 1.75508e-07 
0.0256058 -2.82843 2.51745e-07 
0.218668 -2.82843 -1.58567e-07 
0.432746 -2.82843 -5.34107e-08 
0.646546 -2.82843 -4.51125e-08 
0.873024 -2.82843 1.12482e-08 
1.06947 -2.82843 -1.75566e-08 
1.26452 -2.82843 1.25745e-08 
1.45803 -2.82843 1.12832e-07 
1.70508 -2.82843 8.18968e-08 
1.90395 -2.82843 9.53634e-08 
2.11188 -2.82843 1.08008e-07 
2.3357 -2.82843 7.51246e-08 
2.52468 -2.82843 8.2019e-08 
2.74841 -2.82843 7.45031e-08 
2.96708 -2.82843 5.5161e-08 
3.17506 -2.82843 3.45717e-08 
3.38095 -2.82843 3.40391e-08 
3.60504 -2.82843 2.64333e-08 
3.80715 -2.82843 1.75701e-08 
4.02226 -2.82843 1.74727e-08 
4.24942 -2.82843 9.689e-09 
4.44907 -2.82843 5.57399e-09 
4.66259 -2.82843 3.12183e-09 
4.87077 -2.82843 4.2726e-09 
5.07541 -2.82843 2.76462e-10 
5.2904 -2.82843 -4.64492e-09 
5.50127 -2.82843 -3.2121e-09 
5.70514 -2.82843 -8.56773e-09 
5.92265 -2.82843 -1.20339e-08 
6.1432 -2.82843 -1.19769e-08 
6.34323 -2.82843 -2.06138e-08 
6.58175 -2.82843 -2.94669e-08 
6.79279 -2.82843 -1.71869e-08 
6.99291 -2.82843 -4.20592e-08 
7.25228 -2.82843 -5.31926e-08 
7.48084 -2.82843 -4.19175e-08 
7.72123 -2.82843 -5.82842e-08 
7.99002 -2.82843 -7.21664e-08 
8.17855 -2.82843 -5.43672e-08 
8.48529 -2.82844 -5.11392e-09 
-8.48528 -2.59007 7.53882e-09 
-8.25584 -2.58815 -3.08603e-08 
-8.02193 -2.5809 -3.97241e-08 
-7.78469 -2.61821 -4.938e-08 
-7.52486 -2.63313 -4.38663e-08 
-7.23343 -2.60952 -3.75082e-08 
-6.99662 -2.58944 -3.10779e-08 
-6.78225 -2.59374 -2.63186e-08 
-6.54886 -2.59685 -2.11321e-08 
-6.32706 -2.58372 -1.88724e-08 
-6.11013 -2.58409 -1.27793e-08 
-5.89212 -2.59064 -1.05254e-08 
-5.68019 -2.57768 -7.1836e-09 
-5.46313 -2.59082 -3.97799e-09 
-5.24905 -2.58529 -1.81349e-09 
-5.03202 -2.59158 5.40226e-10 
-4.82093 -2.58186 2.90984e-09 
-4.60214 -2.5946 5.59371e-09 
-4.38208 -2.59193 8.34329e-09 
-4.16286 -2.59149 1.19884e-08 
-3.94985 -2.5819 1.57145e-08 
-3.73688 -2.58517 2.05052e-08 
-3.52458 -2.58539 2.67365e-08 
-3.30844 -2.59662 3.41308e-08 
-3.09665 -2.59209 4.29257e-08 
-2.88609 -2.59634 5.18459e-08 
-2.68583 -2.58701 6.02165e-08 
-2.47615 -2.61202 7.63923e-08 
-2.25934 -2.6022 7.49627e-08 
-2.04922 -2.60519 8.46473e-08 
-1.83446 -2.59846 7.23505e-08 
-1.62642 -2.57907 5.81719e-08 
-1.42134 -2.59751 7.30099e-08 
-1.23984 -2.51984 -3.64103e-09 
-1.01553 -2.64039 4.63126e-08 
-0.776723 -2.58104 2.13377e-08 
-0.598794 -2.4701 -6.6154e-08 
-0.401154 -2.51294 -2.52539e-08 
-0.194596 -2.53626 -2.7162e-07 
0.00672031 -2.49807 9.73618e-08 
0.204287 -2.44172 2.70909e-07 
0.385615 -2.53016 -1.98815e-07 
0.595239 -2.54795 1.18886e-07 
0.824191 -2.59172 -5.281e-08 
1.05646 -2.56922 -6.33167e-09 
1.26357 -2.57728 -1.80317e-08 
1.51216 -2.64093 -7.42484e-08 
1.73418 -2.59883 -9.08869e-08 
1.94773 -2.61171 -7.6546e-08 
2.17336 -2.62281 -9.08681e-08 
2.37489 -2.57962 -6.24166e-08 
2.58726 -2.61608 -7.11524e-08 
2.80768 -2.60607 -5.69376e-08 
3.01452 -2.59042 -4.64091e-08 
3.22125 -2.58387 -3.65487e-08 
3.44173 -2.60196 -3.10642e-08 
3.64827 -2.57528 -2.31215e-08 
3.86228 -2.58916 -1.8304e-08 
4.0898 -2.60207 -1.38242e-08 
4.29875 -2.57115 -9.46269e-09 
4.51384 -2.5898 -6.66609e-09 
4.72769 -2.58504 -4.05876e-09 
4.9402 -2.58208 -1.62779e-09 
5.15499 -2.59471 8.86715e-10 
5.37327 -2.58965 3.10819e-09 
5.58436 -2.58077 5.79076e-09 
5.80032 -2.59488 8.82149e-09 
6.02458 -2.59544 1.20562e-08 
6.23814 -2.56839 1.51773e-08 
6.45788 -2.60886 2.07525e-08 
6.68452 -2.57724 2.41257e-08 
6.89265 -2.56183 2.83167e-08 
7.11837 -2.62249 3.64763e-08 
7.3666 -2.59241 3.4811e-08 
7.60257 -2.60239 3.9293e-08 
7.85766 -2.62405 5.38749e-08 
8.07154 -2.5325 2.89085e-08 
8.29757 -2.64192 3.90494e-08 
8.48528 -2.52569 2.22015e-08 
-8.48528 -2.34343 -1.98844e-08 
-8.23935 -2.35285 -5.06139e-09 
-7.99455 -2.34022 1.38518e-08 
-7.75505 -2.3956 6.49938e-10 
-7.55391 -2.24538 1.27065e-08 
-7.45633 -2.44876 -8.73298e-09 
-7.17782 -2.39551 1.38584e-09 
-6.94827 -2.33184 9.6946e-10 
-6.71499 -2.37407 -2.49124e-09 
-6.47914 -2.36083 3.90881e-10 
-6.24648 -2.34805 7.98769e-10 
-6.02289 -2.34974 -1.19828e-10 
-5.80779 -2.3438 1.26855e-10 
-5.57951 -2.34738 3.2814e-10 
-5.36416 -2.35054 -3.13399e-10 
-5.14149 -2.35464 -3.74005e-10 
-4.92728 -2.34477 -2.76942e-10 
-4.7041 -2.3561 -1.39603e-11 
-4.48496 -2.36093 1.49915e-10 
-4.26296 -2.35703 3.38361e-10 
-4.04829 -2.34363 -1.31689e-11 
-3.83224 -2.34177 1.37006e-10 
-3.61915 -2.34503 2.02947e-10 
-3.40219 -2.35845 1.21487e-09 
-3.1907 -2.35971 9.12289e-10 
-2.97683 -2.3646 2.16831e-10 
-2.77125 -2.35204 -3.83216e-09 
-2.56039 -2.37449 -2.78503e-09 
-2.353 -2.39198 2.22601e-09 
-2.12885 -2.3726 2.66737e-10 
-1.91857 -2.37839 -3.40195e-09 
-1.69921 -2.35619 -1.71854e-08 
-1.47567 -2.3416 -2.79059e-08 
-1.26232 -2.27881 -5.01658e-09 
-1.02454 -2.41032 -4.07685e-08 
-0.847124 -2.30607 -4.5096e-08 
-0.627008 -2.20756 2.00819e-08 
-0.398018 -2.20734 -4.84775e-08 
-0.184591 -2.1926 -1.1133e-07 
0.0271156 -2.18467 7.45536e-08 
0.268693 -2.10536 1.50613e-07 
0.466693 -2.21621 2.98108e-07 
0.677601 -2.26244 -1.07303e-07 
0.851875 -2.3479 -2.43377e-08 
1.06053 -2.31018 5.14573e-08 
1.2764 -2.32973 3.62833e-08 
1.47849 -2.43347 5.99642e-09 
1.66297 -2.36288 2.81057e-08 
1.87911 -2.38419 4.35217e-09 
2.09232 -2.41126 1.21996e-10 
2.30113 -2.36322 -1.72654e-10 
2.53352 -2.38094 -2.31985e-09 
2.73953 -2.39076 -4.22531e-09 
2.95486 -2.35449 2.12514e-09 
3.15894 -2.34496 1.17158e-09 
3.37438 -2.36707 -1.16696e-09 
3.5793 -2.33577 5.32166e-10 
3.79232 -2.34442 -2.95865e-10 
4.00872 -2.37047 -9.11816e-10 
4.21777 -2.33505 4.34228e-10 
4.43948 -2.34502 2.0055e-10 
4.64965 -2.34549 1.25832e-10 
4.86279 -2.34475 1.92683e-10 
5.08076 -2.35206 1.7151e-10 
5.29215 -2.35981 1.55563e-10 
5.50862 -2.34297 -1.0194e-10 
5.72696 -2.35355 -1.30636e-10 
5.944 -2.36577 8.94145e-11 
6.16026 -2.33567 -6.95707e-10 
6.39352 -2.35743 2.17261e-11 
6.60263 -2.356 -3.32073e-10 
6.82756 -2.3106 -3.77715e-09 
7.0566 -2.36805 -2.63424e-09 
7.27407 -2.38905 -4.17731e-09 
7.53367 -2.36786 -2.39996e-09 
7.77615 -2.40119 1.34332e-09 
7.99315 -2.30763 -1.42643e-08 
8.25726 -2.36957 6.65829e-09 
8.48528 -2.27847 2.31761e-08 
-8.48528 -2.09835 1.21251e-08 
-8.25126 -2.10694 -1.26574e-08 
-8.038 -2.09882 1.58205e-08 
-7.78874 -2.14666 1.20451e-08 
-7.50497 -2.0306 8.25612e-09 
-7.30007 -2.22221 1.90953e-08 
-7.06439 -2.13007 1.21518e-08 
-6.79086 -2.12493 -3.4439e-10 
-6.57891 -2.14087 3.21997e-09 
-6.34638 -2.12736 -4.52798e-10 
-6.12007 -2.11225 5.78054e-10 
-5.90864 -2.10308 -5.57505e-10 
-5.68848 -2.11932 4.14244e-11 
-5.46751 -2.10896 -7.21487e-10 
-5.25164 -2.12212 -5.23601e-10 
-5.03831 -2.11102 -6.41373e-11 
-4.81543 -2.12061 3.51656e-10 
-4.59761 -2.12532 5.50179e-10 
-4.3806 -2.12791 6.98503e-10 
-4.16761 -2.1112 1.32952e-09 
-3.95252 -2.10487 2.17209e-09 
-3.73905 -2.10455 2.95335e-09 
-3.524 -2.11805 3.24555e-09 
-3.31474 -2.12351 3.90669e-09 
-3.10292 -2.13131 4.26973e-09 
-2.89863 -2.12497 5.19557e-09 
-2.68405 -2.13024 3.30017e-09 
-2.47771 -2.14791 -1.23849e-09 
-2.26931 -2.1694 -7.36411e-09 
-2.04492 -2.13724 -4.72953e-09 
-1.83246 -2.14643 -1.66799e-08 
-1.60698 -2.12407 -1.67497e-08 
-1.39931 -2.06674 -4.60084e-08 
-1.17538 -1.95273 3.94417e-08 
-1.0877 -2.1469 -9.7371e-08 
-0.849684 -2.05963 8.79328e-08 
-0.604711 -1.94804 -1.64968e-07 
-0.365927 -1.93287 9.24991e-08 
-0.102121 -1.885 8.67404e-08 
0.089019 -1.57877 5.84804e-08 
0.132311 -1.88877 -1.85694e-07 
0.3356 -1.71347 -7.02985e-09 
0.496063 -1.91213 -4.33417e-08 
0.720807 -1.99194 -2.02028e-08 
0.954481 -2.05807 -6.80669e-08 
1.19598 -2.08124 4.84003e-09 
1.4492 -2.16963 6.33883e-10 
1.66107 -2.12568 2.55329e-08 
1.88012 -2.16037 5.11906e-09 
2.10533 -2.18204 9.25464e-09 
2.36122 -2.16319 9.84022e-09 
2.57314 -2.1442 1.66884e-10 
2.78075 -2.15754 -8.12018e-10 
2.98735 -2.10871 -5.09933e-09 
3.20687 -2.12131 -4.58489e-09 
3.40779 -2.11783 -4.19327e-09 
3.62363 -2.10034 -3.64137e-09 
3.84135 -2.11665 -1.986e-09 
4.04376 -2.12054 -1.54017e-09 
4.27229 -2.10806 -1.08646e-09 
4.48354 -2.1033 -1.0982e-09 
4.69769 -2.10694 -5.84074e-10 
4.91619 -2.1151 -3.99834e-11 
5.12973 -2.11354 3.0133e-10 
5.3417 -2.12337 4.9003e-10 
5.56517 -2.11323 5.26534e-10 
5.78261 -2.12127 4.2467e-10 
5.99339 -2.12151 3.57144e-10 
6.23419 -2.12018 -3.4645e-10 
6.44406 -2.10498 7.1093e-10 
6.65692 -2.11053 8.61071e-11 
6.91271 -2.09952 -1.86707e-09 
7.12776 -2.12908 -8.7723e-09 
7.35838 -2.17489 -1.76689e-08 
7.55172 -2.08025 -8.5986e-09 
7.7365 -2.16798 -6.68802e-09 
7.9544 -2.07275 -1.2367e-08 
8.20345 -2.14444 -8.98114e-09 
8.48528 -2.07869 -3.05021e-08 
-8.48528 -1.80662 -1.09097e-10 
-8.29912 -1.86306 -2.23262e-08 
-7.87887 -1.90252 -6.90713e-09 
-7.66176 -1.894 -1.5823e-08 
[...]
POINT_DATA 1978 
VECTORS vectors float
0.00604786 -0.0160661 0.999849 
0.00926993 -0.0426295 0.999047 
0.0106614 -0.0477935 0.998803 
0.0119827 -0.0673464 0.997664 
0.0112063 -0.0664525 0.997734 
0.00951175 -0.0543364 0.99848 
0.00849081 -0.0439701 0.998997 
0.00861159 -0.0340827 0.999382 
0.00866008 -0.0263765 0.999615 
0.00871874 -0.0205923 0.999746 
0.00853761 -0.0163044 0.99983 
0.00846569 -0.012173 0.999889 
0.0085548 -0.00827945 0.999928 
0.00871576 -0.00537697 0.999946 
0.00868445 -0.00237039 0.999959 
0.00875533 0.000229865 0.999961 
0.0087461 0.0027246 0.999957 
0.00882865 0.00520783 0.999947 
0.00884818 0.00842261 0.999925 
0.00886388 0.0122437 0.999885 
0.00870832 0.0166315 0.999823 
0.00853685 0.0220746 0.999719 
0.00838626 0.0293516 0.999533 
0.00825626 0.0388322 0.999211 
0.00800628 0.0518285 0.998623 
0.00764788 0.0675224 0.997688 
0.00727713 0.087335 0.996151 
0.00698703 0.110535 0.993847 
0.00647166 0.14332 0.989655 
0.00587508 0.184006 0.982907 
0.00505972 0.236488 0.971621 
0.00417447 0.298971 0.954253 
0.00307781 0.370663 0.928762 
0.00217224 0.465273 0.885164 
0.0012253 0.546556 0.837421 
8.6098e-05 0.691377 0.722494 
-0.000642264 0.80807 0.589085 
-0.000950285 0.889597 0.456746 
-0.000673902 0.974143 0.225929 
-3.55063e-05 0.99909 -0.0426627 
0.000720105 0.974006 -0.226522 
0.000802789 0.899532 -0.436855 
0.000481059 0.798906 -0.601456 
-0.000175057 0.67887 -0.734258 
-0.000932383 0.573235 -0.819391 
-0.00196931 0.474643 -0.880176 
-0.00348813 0.385426 -0.922732 
-0.00450498 0.296043 -0.955164 
-0.00527508 0.238683 -0.971083 
-0.00584531 0.187672 -0.982215 
-0.00642625 0.14226 -0.989808 
-0.00715875 0.113609 -0.993499 
-0.00754835 0.0861291 -0.996256 
-0.00788304 0.0651941 -0.997841 
-0.00800096 0.0501825 -0.998707 
-0.00824823 0.0383816 -0.999229 
-0.00836888 0.028312 -0.999563 
-0.00861262 0.0220496 -0.999719 
-0.00873791 0.0164778 -0.999826 
-0.00871199 0.0113346 -0.999897 
-0.00866912 0.00839845 -0.999926 
-0.00856397 0.0053239 -0.999948 
-0.00864506 0.00260129 -0.999958 
-0.00869206 0.000416422 -0.999961 
-0.00867135 -0.0025838 -0.999958 
-0.00867674 -0.00534521 -0.999947 
-0.00871064 -0.00777724 -0.999931 
-0.00869216 -0.0118085 -0.999892 
-0.00873775 -0.0163669 -0.999827 
-0.00879622 -0.0204552 -0.999752 
-0.0086478 -0.0277845 -0.999577 
-0.00853629 -0.0347772 -0.999357 
-0.00887557 -0.0426767 -0.999051 
-0.00925969 -0.0570429 -0.998331 
-0.00952157 -0.067818 -0.997654 
-0.0105695 -0.0703772 -0.997467 
-0.0102818 -0.0515098 -0.998622 
-0.0104433 -0.0466588 -0.998857 
-0.00665952 -0.0158905 -0.999846 
0.00304881 -0.010181 0.999944 
0.0223417 -0.0410999 0.998903 
0.0267742 -0.0503882 0.998369 
0.0283767 -0.0602646 0.997778 
0.0284267 -0.0630003 0.997606 
0.0294497 -0.0540056 0.998105 
0.0308941 -0.043644 0.998568 
0.0315632 -0.0349633 0.998888 
0.0318562 -0.0266826 0.999134 
0.0339252 -0.020778 0.999207 
0.0340464 -0.0159388 0.999291 
0.0339685 -0.0113928 0.999357 
0.035269 -0.00795685 0.999345 
0.0347391 -0.00486622 0.999383 
0.0351692 -0.00193648 0.999378 
0.0349568 0.000771421 0.999387 
0.0353763 0.00333424 0.999367 
0.034502 0.00620547 0.999384 
0.0344303 0.00961975 0.999359 
0.0342418 0.0136462 0.999319 
0.0342271 0.0184841 0.999242 
0.0335062 0.0247154 0.999131 
0.0328698 0.0328153 0.998919 
0.0314308 0.0434798 0.998558 
0.0305535 0.0571011 0.997899 
0.0288439 0.0743097 0.996816 
0.0273665 0.0952149 0.995079 
0.0243261 0.12229 0.992195 
0.0215549 0.15858 0.987109 
0.0185369 0.20321 0.978958 
0.0148779 0.260397 0.965385 
0.0114962 0.328708 0.94436 
0.00798816 0.408777 0.912598 
0.00468145 0.491231 0.871015 
0.00157234 0.604473 0.796623 
-0.00156568 0.735724 0.677279 
-0.00284823 0.829862 0.557961 
-0.00282703 0.916294 0.40049 
-0.00192093 0.977109 0.212736 
-0.000854849 1 -0.00109267 
-0.000182418 0.976359 -0.216162 
0.00017382 0.919899 -0.392157 
-0.00033084 0.825121 -0.564957 
-0.00174938 0.706631 -0.707579 
-0.00394952 0.581532 -0.813512 
-0.00634953 0.475683 -0.879592 
-0.0102148 0.367005 -0.930161 
-0.0143037 0.289872 -0.956956 
-0.0169894 0.229701 -0.973111 
-0.0201962 0.176812 -0.984036 
-0.0235436 0.139696 -0.989912 
-0.0252774 0.107664 -0.993864 
-0.0277446 0.0820657 -0.996239 
-0.030031 0.06347 -0.99753 
-0.0314731 0.0488994 -0.998306 
-0.0318653 0.0365409 -0.998823 
-0.0339175 0.0278885 -0.999034 
-0.0338633 0.0210233 -0.999204 
-0.0336385 0.0152142 -0.999317 
-0.0354888 0.0110468 -0.999307 
-0.0348775 0.00757054 -0.999362 
-0.0352254 0.00450539 -0.999368 
-0.0356777 0.00181823 -0.99936 
-0.0349626 -0.000817513 -0.999387 
-0.0351726 -0.00370784 -0.999373 
-0.0354699 -0.0065829 -0.999348 
-0.0342669 -0.00989426 -0.999362 
-0.0338189 -0.0140826 -0.999327 
-0.0344932 -0.0186347 -0.99923 
-0.0318828 -0.0241568 -0.999198 
-0.0325828 -0.0313529 -0.998975 
-0.0325014 -0.0393197 -0.998696 
-0.0291423 -0.0494063 -0.998352 
-0.0295245 -0.0597292 -0.997776 
-0.0283192 -0.0631539 -0.997601 
-0.0274946 -0.0580435 -0.997935 
-0.0268769 -0.051507 -0.998308 
-0.0223251 -0.0404181 -0.998932 
-0.00210179 -0.0118845 -0.999919 
0.000352447 -0.0142243 0.99989 
0.0215507 -0.0452551 0.998741 
0.0224388 -0.0503073 0.998477 
0.0259686 -0.0544484 0.998177 
0.0284763 -0.0570599 0.997963 
0.0309921 -0.0596094 0.997738 
0.0315057 -0.05176 0.99816 
0.0327063 -0.0418349 0.998586 
0.0339337 -0.0328009 0.998883 
0.0345259 -0.0253639 0.999079 
0.0353894 -0.0192646 0.999185 
0.0360426 -0.0143032 0.999246 
0.0370769 -0.0104362 0.999255 
0.0373332 -0.00674146 0.999278 
0.0375686 -0.00355172 0.999286 
0.0376956 -0.000608214 0.999287 
0.0377361 0.00204031 0.999283 
0.0375521 0.00490542 0.99928 
0.0372626 0.00810331 0.99927 
0.0369477 0.0119527 0.999243 
0.0365291 0.0165594 0.999193 
0.0359663 0.0224313 0.999099 
0.0351858 0.0299072 0.998931 
0.0340812 0.0397438 0.998626 
0.0325653 0.0521303 0.998107 
0.030462 0.0681746 0.997206 
0.0280113 0.0879421 0.99573 
0.0251485 0.11325 0.993246 
0.0222236 0.14471 0.989222 
0.0185435 0.188575 0.981881 
0.0147236 0.24046 0.970545 
0.0106664 0.309175 0.950943 
0.00699559 0.392871 0.919565 
0.00373589 0.487645 0.873032 
0.00128811 0.601356 0.798979 
-0.000755043 0.699977 0.714164 
-0.00098033 0.817786 0.575522 
-0.000785757 0.918191 0.396137 
-0.00148584 0.979662 0.20065 
-0.00190293 0.999827 -0.0186078 
-0.00169962 0.961102 -0.276195 
-0.00139519 0.8865 -0.462726 
-0.00204212 0.78663 -0.617418 
-0.00248153 0.695935 -0.7181 
-0.00402829 0.586398 -0.810011 
-0.00602176 0.476128 -0.879354 
-0.00875393 0.384793 -0.922959 
-0.0108159 0.318819 -0.947752 
-0.0146261 0.252295 -0.967538 
-0.0181431 0.197724 -0.980087 
-0.0213578 0.155008 -0.98768 
-0.0249212 0.117339 -0.992777 
-0.0276266 0.0913055 -0.995437 
-0.0299648 0.070467 -0.997062 
-0.032046 0.0546 -0.997992 
-0.0335561 0.0412399 -0.998583 
-0.0350711 0.03167 -0.998881 
-0.0360057 0.023817 -0.999065 
-0.0363871 0.0176094 -0.99918 
-0.0371727 0.0129823 -0.999222 
-0.0373109 0.00888926 -0.999262 
-0.0374663 0.00565897 -0.99928 
-0.0377376 0.00280668 -0.999282 
-0.0378093 4.8951e-05 -0.999283 
-0.0376565 -0.00268454 -0.999285 
-0.0376934 -0.00571236 -0.999271 
-0.0372388 -0.0090875 -0.999263 
-0.0365088 -0.0128774 -0.999248 
-0.0361764 -0.0173532 -0.999192 
-0.0350525 -0.0229436 -0.99912 
-0.0340449 -0.0290011 -0.998997 
-0.0333527 -0.0372119 -0.998748 
-0.0322571 -0.0469461 -0.998374 
-0.0312887 -0.0557073 -0.997954 
-0.029447 -0.0586285 -0.997843 
-0.0260553 -0.0545576 -0.998169 
-0.0221271 -0.050448 -0.998477 
-0.0209527 -0.04491 -0.998769 
-0.00107628 -0.0134861 -0.999902 
0.000815031 -0.0156004 0.999877 
0.0214858 -0.0436051 0.998816 
0.0211362 -0.0468359 0.998676 
0.0236779 -0.0493409 0.998501 
0.0328131 -0.0568047 0.997845 
0.0310067 -0.0558172 0.997958 
0.0341134 -0.0474601 0.998289 
0.036875 -0.0360369 0.998669 
0.0372023 -0.0288011 0.998892 
0.0393453 -0.0222624 0.998977 
0.0406868 -0.0170194 0.999026 
0.0424031 -0.012816 0.999017 
0.0424424 -0.00883276 0.999059 
0.043456 -0.00526909 0.999041 
0.0433996 -0.00218828 0.999055 
0.0440109 0.000547716 0.99903 
0.0435016 0.00339558 0.999047 
0.0429984 0.0064477 0.999054 
0.0425247 0.0100195 0.999044 
0.0426257 0.0142997 0.998988 
0.0422579 0.0196672 0.998912 
0.0414583 0.0264005 0.99879 
0.0399258 0.0350438 0.998587 
0.0383581 0.0458852 0.998209 
0.0361816 0.0599012 0.997547 
0.0339269 0.0772152 0.996436 
0.0304784 0.100142 0.994505 
0.0264451 0.12795 0.991427 
0.0220805 0.163258 0.986335 
0.0181542 0.212507 0.976989 
0.0135897 0.270823 0.962532 
0.0096476 0.347781 0.937524 
0.00645691 0.429711 0.90294 
0.00343187 0.534553 0.845126 
0.00158592 0.573525 0.819184 
2.68382e-06 0.699132 0.714992 
-0.000184187 0.820622 0.571472 
-0.000265794 0.92505 0.37985 
-0.000913398 0.994141 0.108109 
0.000615159 0.995459 -0.0952053 
-0.0014467 0.989972 -0.141255 
-0.000510763 0.939493 -0.342569 
-0.00128676 0.875106 -0.48393 
-0.00256657 0.76208 -0.647475 
-0.00403868 0.637608 -0.77035 
-0.00580232 0.514055 -0.857735 
-0.00802967 0.402066 -0.915574 
-0.0111366 0.321733 -0.946763 
-0.0148919 0.252901 -0.967375 
-0.0187811 0.196446 -0.980333 
-0.0235829 0.146787 -0.988886 
-0.0278623 0.114539 -0.993027 
-0.030888 0.0892056 -0.995533 
-0.0349631 0.0696116 -0.99696 
-0.0371448 0.0527355 -0.997916 
-0.039097 0.040817 -0.9984 
-0.0410436 0.0308632 -0.99868 
-0.0414828 0.022977 -0.998874 
-0.0421532 0.0172984 -0.99896 
-0.0430569 0.0121783 -0.998998 
-0.0437402 0.00830733 -0.999008 
-0.0439943 0.00502844 -0.999018 
-0.0438226 0.00208381 -0.999036 
-0.0440415 -0.000677407 -0.999029 
-0.0435301 -0.0035246 -0.999045 
-0.0434208 -0.00685096 -0.999033 
-0.0425518 -0.0104545 -0.999039 
-0.041687 -0.014394 -0.999026 
-0.0403343 -0.0195867 -0.998993 
-0.0397196 -0.024961 -0.998898 
-0.0382726 -0.031432 -0.998772 
-0.0369523 -0.0411931 -0.998467 
-0.0348819 -0.0503192 -0.998123 
-0.0321489 -0.0575987 -0.997821 
-0.0313412 -0.056715 -0.997898 
-0.0258041 -0.0517546 -0.998326 
-0.0218334 -0.0469648 -0.998656 
-0.0200537 -0.0471318 -0.998685 
-0.00328452 -0.0119963 -0.99992 
0.000432712 -0.0162312 0.999868 
0.0213756 -0.0397581 0.998978 
0.027073 -0.0463492 0.998557 
0.0329892 -0.0517788 0.998113 
0.0387479 -0.0573928 0.997598 
0.0369369 -0.0557443 0.997761 
0.041862 -0.0514499 0.997796 
0.0410213 -0.0427727 0.998241 
0.0443034 -0.0337253 0.998447 
0.0448547 -0.0267737 0.998633 
0.0467499 -0.0208279 0.998688 
0.0486552 -0.0160215 0.998686 
0.0493943 -0.0116358 0.99871 
0.049983 -0.00776914 0.998718 
0.050797 -0.00422249 0.998699 
0.0511557 -0.00129718 0.998688 
0.0511776 0.00163894 0.998687 
0.0510187 0.00460757 0.998686 
0.0506027 0.00794746 0.998686 
0.0502777 0.0118321 0.998664 
0.0497309 0.0166773 0.998622 
0.0489142 0.0226662 0.998544 
0.0476305 0.0302432 0.998406 
0.0460882 0.0395707 0.998152 
0.0440864 0.0514765 0.997699 
0.0417971 0.0662041 0.996929 
0.0387481 0.0853967 0.995592 
0.0351002 0.109904 0.99332 
0.0306331 0.140258 0.989639 
0.0253213 0.17997 0.983344 
0.0200407 0.237992 0.971058 
0.0149535 0.302993 0.952874 
0.0101938 0.380423 0.924754 
0.00569555 0.473529 0.880758 
0.000495871 0.662597 0.748974 
-0.000285876 0.771035 0.636792 
-0.001306 0.896367 0.443311 
-0.000849747 0.946969 0.321329 
-0.000768677 0.973946 0.226788 
-0.000202837 0.995726 0.0923632 
-0.00107461 0.982388 -0.186857 
-0.000280628 0.926346 -0.376674 
-0.00100573 0.82643 -0.56304 
-0.00207369 0.724219 -0.689566 
-0.00398813 0.598518 -0.801094 
-0.00562863 0.506929 -0.861967 
-0.00871611 0.430739 -0.902432 
-0.0125427 0.352031 -0.935902 
-0.0169951 0.279123 -0.960103 
-0.0213921 0.218877 -0.975516 
-0.0258423 0.168527 -0.985356 
-0.0317747 0.128868 -0.991151 
-0.0359157 0.0993984 -0.994398 
-0.0394302 0.0788584 -0.996104 
-0.0424142 0.0595208 -0.997324 
-0.0451112 0.0458582 -0.997927 
-0.0469208 0.0352336 -0.998275 
-0.0481859 0.0261847 -0.998494 
-0.0493753 0.019651 -0.998585 
-0.049717 0.0143565 -0.998659 
-0.0507974 0.00979436 -0.998659 
-0.0511945 0.00613509 -0.998668 
-0.051236 0.00295547 -0.998681 
-0.0514 0.000102037 -0.998677 
-0.0512017 -0.00285745 -0.998683 
-0.0506481 -0.00600106 -0.998697 
-0.0499933 -0.00979411 -0.9987 
-0.0491687 -0.0137996 -0.998694 
-0.0473643 -0.0183121 -0.998708 
-0.0468021 -0.023884 -0.998617 
-0.0454262 -0.0300763 -0.998513 
-0.0433963 -0.0377531 -0.998343 
-0.0416923 -0.0483327 -0.997959 
-0.0389928 -0.0562198 -0.997655 
-0.0371388 -0.0570972 -0.997676 
-0.030469 -0.0487463 -0.998346 
-0.0246952 -0.0448764 -0.998685 
-0.0213907 -0.0429272 -0.998848 
-0.00152836 -0.0124093 -0.999922 
0.00125862 -0.0134153 0.999906 
0.0191446 -0.040032 0.999014 
0.0249851 -0.0452437 0.998661 
0.0283214 -0.0453094 0.99857 
0.0345343 -0.0528824 0.998003 
0.039072 -0.0568541 0.997616 
0.0419827 -0.0461524 0.99805 
0.0436462 -0.0385205 0.998302 
0.0446424 -0.0297286 0.998559 
0.0462017 -0.0239227 0.998644 
0.0466626 -0.0188327 0.998731 
0.0476297 -0.0139651 0.998766 
0.0486317 -0.00980791 0.998767 
0.049505 -0.00605035 0.998754 
0.0494364 -0.00271519 0.998772 
0.0502718 0.000285934 0.998734 
0.0503039 0.00330781 0.998727 
0.0500329 0.00665443 0.998724 
0.0493692 0.0104602 0.998724 
0.0486202 0.0150708 0.998702 
0.0476337 0.0208206 0.998646 
0.0465819 0.0280101 0.99852 
0.0450789 0.03689 0.9983 
0.0434562 0.0480133 0.997899 
0.0410926 0.0619304 0.997232 
0.0384414 0.079905 0.996059 
0.0350997 0.102905 0.99407 
0.0309238 0.133827 0.99052 
0.026784 0.172659 0.984615 
0.0216563 0.223746 0.974405 
0.0145415 0.30287 0.952918 
0.00889011 0.388706 0.921317 
0.00385098 0.496327 0.868125 
0.00125484 0.598 0.801493 
0.00168247 0.595793 0.803135 
0.000182473 0.70668 0.707531 
-0.000743405 0.828544 0.559923 
-0.000494367 0.851695 0.524039 
-0.00258053 0.999225 0.0393184 
-0.00344611 0.995186 0.0979607 
-0.00426989 0.989406 -0.145127 
-0.00345937 0.938787 -0.344479 
-0.00170629 0.849537 -0.527526 
-0.00109971 0.741895 -0.670511 
-0.0017328 0.640303 -0.768119 
-0.00359491 0.525579 -0.850735 
-0.00833152 0.417437 -0.908666 
-0.0130935 0.328453 -0.944426 
-0.0187082 0.258415 -0.96585 
-0.0241253 0.20166 -0.979155 
-0.0285545 0.158452 -0.986952 
-0.0328417 0.119777 -0.992256 
-0.0354141 0.0956031 -0.994787 
-0.0395328 0.072799 -0.996561 
-0.0417936 0.0563521 -0.997534 
-0.043714 0.0434212 -0.998098 
-0.0461216 0.0327049 -0.998399 
-0.0471016 0.0247991 -0.99858 
-0.0481351 0.0182775 -0.998672 
-0.049321 0.0131419 -0.998695 
-0.0492215 0.008654 -0.998749 
-0.0498869 0.00495814 -0.998741 
-0.0498698 0.00186325 -0.998752 
-0.0500028 -0.00111809 -0.998747 
-0.0496369 -0.00418978 -0.998757 
-0.0496064 -0.00761097 -0.998738 
-0.0484299 -0.0115379 -0.998758 
-0.0477557 -0.0159333 -0.99873 
-0.0468299 -0.0204977 -0.998691 
-0.0445933 -0.0263918 -0.998655 
-0.0436914 -0.0331721 -0.998492 
-0.043311 -0.0415265 -0.998197 
-0.0406192 -0.0504326 -0.997899 
-0.0402731 -0.0568664 -0.997567 
-0.0365197 -0.0574914 -0.997676 
-0.0319353 -0.0489417 -0.99829 
-0.0252337 -0.0449517 -0.998667 
-0.0210402 -0.0407542 -0.998947 
-0.00164929 -0.0123478 -0.99992 
0.00179641 -0.0115525 0.999926 
0.0162167 -0.0424995 0.998964 
0.0228557 -0.0443254 0.998752 
0.0259532 -0.0482844 0.998496 
0.0334031 -0.058186 0.997745 
0.0312675 -0.0584913 0.997796 
0.0358264 -0.0510919 0.99805 
0.0342195 -0.04168 0.998542 
0.0385211 -0.0345199 0.99866 
0.0378154 -0.0276061 0.998902 
0.0389055 -0.0225092 0.998988 
0.0399392 -0.0173104 0.99905 
0.0401971 -0.0127096 0.999109 
0.0415654 -0.00870066 0.999096 
0.0421296 -0.00512221 0.999097 
0.0420301 -0.00175761 0.999113 
0.0429513 0.00122424 0.999075 
0.042891 0.00443517 0.999068 
0.0419945 0.00796138 0.999084 
0.0413663 0.0121773 0.999068 
0.0408255 0.0172794 0.999015 
0.039957 0.023611 0.998921 
0.0387637 0.0313061 0.998756 
0.0374027 0.0409334 0.99846 
0.0357373 0.0527096 0.997968 
0.0336059 0.0680812 0.997112 
0.031038 0.0875566 0.995674 
0.0280333 0.11342 0.993149 
0.0241756 0.148623 0.988596 
0.0207924 0.192118 0.981149 
0.0164228 0.253013 0.967321 
0.010029 0.334264 0.942423 
0.00536589 0.428431 0.903556 
0.00252578 0.51678 0.856112 
-0.000129292 0.727985 0.685588 
-0.00121386 0.875461 0.483285 
-0.00184042 0.95201 0.306076 
-0.00148764 0.97891 0.204278 
-0.000767927 0.95534 0.295515 
-0.00628062 0.999935 -0.0104882 
0.00117051 0.999152 0.0405726 
-0.00788655 0.977413 -0.211176 
-0.00600123 0.930151 -0.367115 
-0.00228186 0.825436 -0.564486 
-0.00119816 0.69994 -0.714198 
-0.00168747 0.58741 -0.809286 
-0.00605559 0.420236 -0.907392 
-0.00931135 0.338846 -0.940794 
-0.0142357 0.267384 -0.963482 
-0.01933 0.210947 -0.977305 
-0.0220875 0.171659 -0.984904 
-0.0265226 0.138766 -0.989968 
-0.0271417 0.110366 -0.993518 
-0.0315773 0.0842195 -0.995945 
-0.0339124 0.0657636 -0.997257 
-0.0355358 0.0506924 -0.99808 
-0.0380426 0.0382176 -0.998543 
-0.0391323 0.0292369 -0.998804 
-0.0403026 0.0217084 -0.99895 
-0.0413065 0.0155623 -0.999024 
-0.0421923 0.010827 -0.999049 
-0.0420964 0.00631601 -0.999092 
-0.0420504 0.00288261 -0.99911 
-0.0423138 -0.000296425 -0.999103 
-0.0418532 -0.00339912 -0.999116 
-0.0420298 -0.00687969 -0.999091 
-0.0413317 -0.010621 -0.999087 
-0.040718 -0.015124 -0.999054 
-0.0394494 -0.0199387 -0.999021 
-0.0382659 -0.0250316 -0.998952 
-0.0366244 -0.0320778 -0.998812 
-0.0369937 -0.0403957 -0.998497 
-0.0341894 -0.0508207 -0.99812 
-0.033928 -0.0586337 -0.997701 
-0.0294618 -0.057949 -0.997883 
-0.0278196 -0.0495892 -0.998382 
-0.0214695 -0.0454733 -0.998732 
-0.0190888 -0.0437561 -0.998858 
-0.0021649 -0.0117508 -0.999924 
0.00143182 -0.011283 0.999935 
0.0125406 -0.0427972 0.999002 
0.0190968 -0.0453696 0.998784 
0.0194105 -0.0502992 0.998545 
0.0257175 -0.057649 0.998004 
0.024257 -0.0598671 0.99791 
0.027607 -0.0506357 0.998334 
0.0265212 -0.0407213 0.998817 
0.0300563 -0.0330315 0.999 
0.0283516 -0.0271883 0.999226 
0.0308459 -0.0216828 0.999287 
0.0316239 -0.016607 0.99936 
0.031428 -0.0120505 0.999431 
0.0329205 -0.00807136 0.999424 
0.0337665 -0.0043499 0.999419 
0.0331951 -0.00101336 0.999446 
0.0341631 0.00215593 0.999413 
0.0333742 0.00555926 0.999426 
0.0327957 0.00966613 0.999413 
0.0324687 0.014584 0.999365 
0.0320396 0.0204236 0.999276 
0.0310434 0.0275433 0.999137 
0.0299663 0.0363736 0.998887 
0.0284959 0.0473169 0.998472 
0.027052 0.061108 0.997763 
0.0249387 0.0789854 0.996562 
0.0226469 0.102465 0.994477 
0.0198979 0.133835 0.990802 
0.0165051 0.177989 0.983892 
0.0139307 0.232504 0.972494 
0.00983175 0.30009 0.953858 
0.00524952 0.396512 0.918012 
0.0025651 0.493029 0.870007 
0.000339874 0.610044 0.792366 
0.000949262 0.619874 0.784702 
-0.000575936 0.864736 0.502222 
0.00507908 0.951625 0.307094 
0.00639363 0.995795 0.0913875 
0.00455983 0.998796 0.04894 
0.00340839 0.999546 0.0299163 
0.00202815 0.999994 -0.000617052 
-0.000528377 0.996313 -0.0855728 
-0.00394025 0.968312 -0.249728 
-0.00504785 0.843935 -0.536421 
-0.00100346 0.669604 -0.742716 
-0.00126924 0.561833 -0.827248 
-0.00298809 0.485033 -0.874488 
-0.00463013 0.388174 -0.921572 
-0.00806355 0.301018 -0.953582 
-0.0125012 0.234605 -0.972008 
-0.0162003 0.180154 -0.983503 
-0.0198191 0.137028 -0.990366 
-0.0226306 0.099433 -0.994784 
-0.0248542 0.0775636 -0.996676 
-0.0269987 0.0602475 -0.997816 
-0.0289965 0.0456319 -0.998536 
-0.029981 0.0351792 -0.998929 
-0.0313008 0.0265078 -0.999157 
-0.0323955 0.0194417 -0.999284 
-0.0326503 0.0138032 -0.999369 
-0.0342729 0.00896543 -0.999371 
-0.0330277 0.00481271 -0.999441 
-0.0334413 0.00130405 -0.999438 
-0.0329947 -0.00180874 -0.999452 
-0.0331209 -0.00513085 -0.999436 
-0.0325162 -0.00865013 -0.999432 
-0.0325918 -0.012768 -0.999385 
-0.031521 -0.0173225 -0.999351 
-0.0299761 -0.0222344 -0.999302 
-0.0300717 -0.028088 -0.999152 
-0.0276912 -0.0348236 -0.999008 
-0.0292457 -0.0417636 -0.998697 
-0.0258525 -0.0505751 -0.998384 
-0.0269481 -0.0585525 -0.997919 
-0.0232972 -0.0600938 -0.997919 
-0.0210143 -0.0509622 -0.998479 
-0.0161582 -0.045501 -0.998831 
-0.0143821 -0.0419782 -0.999014 
-0.000975341 -0.0116775 -0.999925 
0.000944928 -0.0113655 0.999923 
0.0090465 -0.0434348 0.999014 
0.0141007 -0.0459549 0.998841 
0.0146316 -0.0514104 0.99857 
0.0193186 -0.0601358 0.998002 