# vtk DataFile Version 3.0 
Exported using Morpho https://github.com/Morpho-lang/morpho 
ASCII 
DATASET UNSTRUCTURED_GRID 

POINTS 1978 float 
-8.48528 -2.82843 7.88919e-14 
-8.25591 -2.82843 1.52472e-13 
-8.02831 -2.82843 1.76003e-14 
-7.78822 -2.82843 1.20017e-13 
-7.51256 -2.82843 -8.31667e-14 
-7.25928 -2.82843 -9.78674e-14 
-6.99676 -2.82843 3.14807e-14 
-6.77619 -2.82843 -1.115e-13 
-6.56015 -2.82843 -9.39543e-14 
-6.34881 -2.82843 7.82643e-14 
-6.13221 -2.82843 -1.93334e-13 
-5.92467 -2.82843 -4.57401e-14 
-5.70715 -2.82843 -4.81794e-14 
-5.51381 -2.82843 -8.21087e-14 
-5.28452 -2.82843 -6.91732e-14 
-5.07972 -2.82843 -9.80859e-14 
-4.86668 -2.82843 -1.31973e-13 
-4.66196 -2.82843 -1.9761e-13 
-4.44727 -2.82843 -2.06615e-13 
-4.23254 -2.82843 -3.84088e-13 
-4.02185 -2.82843 -5.03616e-13 
-3.82369 -2.82843 -6.18463e-13 
-3.61476 -2.82843 -7.04129e-13 
-3.40464 -2.82843 -6.5829e-13 
-3.185 -2.82843 -7.78983e-13 
-2.96455 -2.82843 -1.096e-12 
-2.73614 -2.82843 -1.29094e-12 
-2.49484 -2.82843 -2.70638e-12 
-2.24842 -2.82843 -4.23727e-12 
-2.01337 -2.82843 -3.13232e-12 
-1.77271 -2.82843 -6.09096e-12 
-1.57349 -2.82843 -3.09697e-11 
-1.3429 -2.82843 -1.30089e-10 
-1.16511 -2.82843 -3.17221e-10 
-1.01495 -2.82843 -8.35387e-10 
-0.889733 -2.82843 -1.33707e-09 
-0.745947 -2.82843 -4.64614e-09 
-0.6378 -2.82843 -1.25978e-08 
-0.393321 -2.82843 -2.59019e-08 
0.290377 -2.82843 -1.29648e-08 
0.446166 -2.82843 4.44002e-08 
0.610896 -2.82843 9.2706e-09 
0.722727 -2.82843 5.12229e-09 
0.850654 -2.82843 2.50885e-09 
1.04971 -2.82843 8.70397e-10 
1.19397 -2.82843 2.56917e-10 
1.37866 -2.82843 8.85727e-11 
1.58628 -2.82843 2.58668e-11 
1.81701 -2.82843 -3.88776e-14 
2.06465 -2.82843 2.82765e-13 
2.29273 -2.82843 5.4735e-12 
2.53477 -2.82843 2.56396e-12 
2.74987 -2.82843 1.3989e-12 
2.96642 -2.82843 7.13815e-13 
3.17834 -2.82843 6.06567e-13 
3.40189 -2.82843 6.45615e-13 
3.62088 -2.82843 6.3775e-13 
3.82127 -2.82843 6.36625e-13 
4.03829 -2.82843 5.5928e-13 
4.25386 -2.82843 2.97459e-13 
4.45424 -2.82843 2.23415e-13 
4.66371 -2.82843 1.75043e-13 
4.86387 -2.82843 1.36778e-13 
5.07594 -2.82843 1.19575e-13 
5.28143 -2.82843 4.8261e-14 
5.50181 -2.82843 6.10372e-14 
5.70488 -2.82843 7.72542e-14 
5.92404 -2.82843 7.83664e-14 
6.14776 -2.82843 2.25964e-14 
6.35305 -2.82843 8.90649e-14 
6.58735 -2.82843 3.99679e-14 
6.80253 -2.82843 7.49047e-14 
7.00552 -2.82843 8.21064e-14 
7.28666 -2.82843 3.95591e-14 
7.505 -2.82843 4.18511e-14 
7.74834 -2.82843 -4.45679e-14 
8.02671 -2.82843 -2.17955e-14 
8.21878 -2.82843 -1.39892e-13 
8.48528 -2.82843 -9.41466e-14 
-8.48528 -2.58457 -4.26119e-14 
-8.25713 -2.59244 2.30334e-17 
-8.02558 -2.58835 -1.725e-18 
-7.78802 -2.6064 -7.80307e-18 
-7.54264 -2.63592 1.22051e-17 
-7.25432 -2.62366 6.6954e-17 
-7.00166 -2.60333 3.13284e-17 
-6.77717 -2.5945 -4.93902e-17 
-6.54772 -2.59032 -2.73061e-20 
-6.31796 -2.59751 4.04952e-17 
-6.09594 -2.58765 -7.65013e-18 
-5.87325 -2.59704 2.98784e-17 
-5.66962 -2.56594 2.17144e-17 
-5.44624 -2.60893 1.12818e-17 
-5.23176 -2.58325 -3.0353e-18 
-5.01604 -2.59425 6.27813e-18 
-4.80358 -2.58595 2.57646e-17 
-4.58793 -2.59853 3.84167e-17 
-4.36711 -2.59956 -3.77106e-18 
-4.15023 -2.59573 -1.32961e-16 
-3.9432 -2.58023 -3.45095e-16 
-3.7334 -2.59098 -7.16874e-16 
-3.5181 -2.58872 -1.69084e-15 
-3.29819 -2.59426 -1.00752e-14 
-3.07213 -2.5884 -3.07274e-14 
-2.84319 -2.59102 2.24782e-15 
-2.60451 -2.59821 7.58955e-15 
-2.3575 -2.6012 2.59165e-14 
-2.11327 -2.59619 9.55489e-14 
-1.87498 -2.61475 3.64094e-13 
-1.64847 -2.59232 1.40534e-12 
-1.4454 -2.64856 4.93286e-12 
-1.2487 -2.63687 2.51231e-11 
-1.09161 -2.64509 5.5459e-11 
-0.963875 -2.65374 2.76619e-11 
-0.87923 -2.54909 5.0442e-11 
-0.831032 -2.70294 1.34669e-10 
-0.527028 -2.77588 4.48948e-10 
-0.233255 -2.84732 4.92728e-10 
0.124941 -2.80427 -6.87532e-09 
0.241239 -2.73785 4.7064e-10 
0.574056 -2.74663 5.40444e-10 
0.734139 -2.68488 -7.18144e-10 
0.858818 -2.64645 -1.18621e-10 
0.987468 -2.70635 -2.26756e-11 
1.16189 -2.61778 -1.9652e-11 
1.32766 -2.63228 -7.14958e-12 
1.52857 -2.62545 -2.19598e-12 
1.75488 -2.62096 -7.12706e-13 
2.00115 -2.6189 -1.98816e-13 
2.25457 -2.59131 -5.75595e-14 
2.49345 -2.60283 -1.58913e-14 
2.7423 -2.57807 -5.1107e-15 
2.9698 -2.5789 -1.52398e-15 
3.2022 -2.59636 1.15952e-14 
3.43037 -2.59452 1.13996e-15 
3.63965 -2.577 3.7626e-16 
3.86084 -2.59902 1.82102e-16 
4.0837 -2.60014 1.38626e-16 
4.29284 -2.58343 5.5962e-17 
4.50493 -2.59446 -2.47944e-17 
4.71309 -2.58275 -3.25485e-17 
4.92649 -2.59612 -1.39558e-17 
5.13943 -2.58763 -1.94164e-18 
5.3604 -2.60329 -8.85396e-18 
5.57431 -2.58242 -2.07745e-17 
5.79224 -2.59888 -3.08429e-17 
6.02008 -2.60139 -3.57064e-17 
6.23839 -2.57793 -3.87306e-17 
6.46138 -2.60688 -2.97648e-17 
6.68912 -2.5844 -2.36242e-17 
6.90028 -2.56787 -1.55563e-17 
7.13595 -2.63944 -6.37406e-18 
7.38056 -2.58367 -2.87862e-19 
7.61025 -2.60848 -2.23466e-18 
7.87351 -2.63503 -2.87044e-18 
8.08474 -2.54816 1.0576e-18 
8.30916 -2.62452 -6.65499e-18 
8.48528 -2.5211 1.34763e-13 
-8.48528 -2.3453 -5.39394e-14 
-8.2554 -2.35443 -9.77878e-17 
-8.01423 -2.35413 -2.74031e-18 
-7.76993 -2.38159 1.30346e-19 
-7.55395 -2.23812 7.85997e-19 
-7.48709 -2.44818 3.25532e-20 
-7.20844 -2.41873 9.6106e-18 
-6.97494 -2.36189 9.25524e-18 
-6.73726 -2.36988 1.67419e-17 
-6.4954 -2.3654 2.23457e-17 
-6.26541 -2.36509 2.11473e-17 
-6.03331 -2.35913 1.25035e-17 
-5.82583 -2.34 7.27872e-18 
-5.5816 -2.35628 -7.47805e-18 
-5.37219 -2.36374 -1.95626e-17 
-5.14249 -2.35536 -1.82054e-17 
-4.92681 -2.35606 2.59043e-18 
-4.70237 -2.3605 4.20039e-17 
-4.48219 -2.37509 3.66913e-17 
-4.26041 -2.36863 -1.03012e-16 
-4.04996 -2.34798 -4.10509e-16 
-3.83342 -2.34825 -9.15653e-16 
-3.62141 -2.35503 -1.87311e-15 
-3.40154 -2.35647 -8.7651e-15 
-3.18198 -2.35807 -2.23244e-14 
-2.9533 -2.35226 1.51811e-15 
-2.72279 -2.36119 4.68596e-15 
-2.48608 -2.3698 1.55812e-14 
-2.247 -2.36892 4.76619e-14 
-2.00467 -2.37625 1.63742e-13 
-1.78265 -2.38553 4.34331e-13 
-1.54474 -2.39596 1.4643e-12 
-1.35857 -2.44914 5.30158e-12 
-1.17056 -2.44689 1.39497e-11 
-1.02156 -2.45866 3.38446e-11 
-0.849811 -2.40627 -2.59163e-11 
-0.722454 -2.67435 -2.91495e-10 
-0.474013 -2.69427 -1.88011e-10 
-0.33668 -2.75502 8.72211e-10 
-0.0320871 -2.85833 4.35992e-10 
0.36905 -2.74365 2.90656e-10 
0.470169 -2.69621 1.81301e-10 
0.679772 -2.54476 -1.25878e-10 
0.808322 -2.50646 -1.02674e-10 
1.00762 -2.5385 6.15851e-11 
1.14198 -2.41244 -1.90273e-11 
1.30382 -2.42204 -7.01629e-12 
1.48189 -2.42162 -1.94949e-12 
1.68894 -2.41537 -8.24576e-13 
1.92354 -2.40925 -2.91607e-13 
2.16573 -2.38554 -8.16325e-14 
2.42286 -2.36338 -2.46753e-14 
2.65699 -2.3636 -7.73795e-15 
2.90963 -2.34252 -2.22108e-15 
3.1432 -2.36028 2.75358e-14 
3.36758 -2.36347 1.077e-14 
3.58416 -2.33387 4.84108e-15 
3.80041 -2.36239 1.02084e-15 
4.01685 -2.37341 4.26844e-16 
4.22989 -2.34978 1.35329e-16 
4.44503 -2.35574 -6.33516e-18 
4.65084 -2.34758 -3.55079e-17 
4.86675 -2.35766 -9.4903e-18 
5.0756 -2.35471 1.59653e-17 
5.29651 -2.37086 1.88762e-17 
5.50855 -2.35166 1.0233e-17 
5.73111 -2.35995 -5.09619e-18 
5.94914 -2.37481 -1.73993e-17 
6.16908 -2.34844 -1.87654e-17 
6.40119 -2.36319 -2.26055e-17 
6.61526 -2.36001 -1.82213e-17 
6.83865 -2.31975 -1.25669e-17 
7.07118 -2.39168 -9.86786e-18 
7.28651 -2.38695 -3.55362e-18 
7.55019 -2.36411 -9.71693e-19 
7.78156 -2.42105 3.88712e-18 
7.99458 -2.32916 -5.29628e-19 
8.25027 -2.35888 3.4795e-18 
8.48528 -2.29156 3.65636e-14 
-8.48528 -2.11022 -8.8441e-14 
-8.25237 -2.10524 -1.32747e-17 
-8.04222 -2.11689 -2.24015e-18 
-7.79884 -2.14998 -1.91595e-18 
-7.5029 -2.03104 -2.07886e-18 
-7.29639 -2.23136 2.48001e-19 
-7.05677 -2.14862 2.14451e-18 
-6.80321 -2.1377 1.36734e-20 
-6.58069 -2.14608 1.19839e-18 
-6.34549 -2.134 -1.56741e-18 
-6.12469 -2.13283 -7.68425e-18 
-5.91373 -2.0961 -1.06321e-17 
-5.69025 -2.13668 -2.32499e-17 
-5.47067 -2.11367 -3.19595e-17 
-5.26015 -2.13544 -3.78162e-17 
-5.04058 -2.11987 -3.34983e-17 
-4.82383 -2.13162 -1.74697e-17 
-4.60351 -2.13739 -5.19279e-18 
-4.39187 -2.14566 -3.52153e-17 
-4.1848 -2.12186 -1.87688e-16 
-3.97019 -2.11619 -5.78032e-16 
-3.75717 -2.11389 -1.45409e-15 
-3.54266 -2.1239 -6.73413e-15 
-3.32359 -2.12116 -1.26275e-14 
-3.09958 -2.12607 -2.23353e-14 
-2.86541 -2.12089 -3.85579e-14 
-2.63079 -2.13199 2.63356e-15 
-2.38989 -2.13829 1.03278e-14 
-2.14283 -2.14698 2.10256e-14 
-1.90817 -2.14427 3.32063e-14 
-1.68058 -2.18297 1.4481e-14 
-1.46388 -2.17906 -1.24213e-13 
-1.29383 -2.24512 -2.10052e-12 
-1.13128 -2.24307 -5.51401e-12 
-0.980985 -2.29591 -1.63111e-11 
-0.829643 -2.26444 -4.92011e-11 
-0.750852 -2.53287 -3.06474e-11 
-0.621989 -2.69549 3.44863e-10 
-0.172819 -2.77959 4.79478e-10 
0.112609 -2.71544 -2.89869e-10 
0.331773 -2.64225 2.5773e-10 
0.599962 -2.63616 -1.64287e-10 
0.66358 -2.4031 -1.70183e-10 
0.92805 -2.4088 -2.10436e-10 
1.0153 -2.27341 1.77944e-10 
1.16227 -2.18524 -5.57378e-12 
1.32221 -2.20467 2.47194e-12 
1.5093 -2.20145 -5.17266e-13 
1.73295 -2.20125 -2.18887e-13 
1.96922 -2.18462 -1.00123e-13 
2.22049 -2.165 -4.08347e-14 
2.46219 -2.1242 -1.15703e-14 
2.71035 -2.14335 -3.14802e-15 
2.95258 -2.116 -1.1769e-15 
3.17689 -2.12473 1.92964e-14 
3.39277 -2.12111 9.4776e-15 
3.6169 -2.10288 4.59274e-15 
3.83449 -2.13313 9.23543e-16 
4.0464 -2.13669 3.86608e-16 
4.26791 -2.12148 1.34306e-16 
4.4745 -2.11334 2.65575e-17 
4.69348 -2.12089 9.87678e-18 
4.90263 -2.11784 2.33921e-17 
5.12504 -2.13209 3.72239e-17 
5.33414 -2.12958 3.6807e-17 
5.5588 -2.12534 2.71669e-17 
5.77841 -2.12851 1.64754e-17 
5.99265 -2.13582 9.68326e-18 
6.23075 -2.12908 4.37777e-18 
6.44479 -2.11614 1.73238e-18 
6.66062 -2.11524 3.06926e-19 
6.92053 -2.11524 1.75734e-18 
7.12914 -2.14171 -2.9994e-18 
7.36912 -2.17588 -9.4467e-19 
7.5718 -2.08852 -1.41268e-18 
7.76164 -2.17976 2.85818e-18 
7.97286 -2.08244 -1.55575e-19 
8.19749 -2.14152 4.21857e-19 
8.48528 -2.1022 1.40361e-14 
-8.48528 -1.80993 -6.59086e-14 
-8.31252 -1.86535 -9.15435e-18 
-7.89902 -1.9097 -8.37739e-19 
[...]
POINT_DATA 1978 
VECTORS vectors float
1.67094e-05 4.31471e-05 1 
1.81824e-06 -0.000181865 1 
-1.58915e-06 -0.000288866 1 
1.36097e-06 -0.000386241 1 
1.39305e-07 -0.000523525 1 
4.62847e-07 -0.000702421 1 
3.3405e-07 -0.000927364 1 
1.71856e-07 -0.00116977 0.999999 
2.57974e-07 -0.00143754 0.999999 
1.56127e-07 -0.00169649 0.999999 
1.67777e-07 -0.00196205 0.999998 
1.45595e-07 -0.00219738 0.999998 
8.38415e-08 -0.00242656 0.999997 
7.79172e-08 -0.00260198 0.999997 
3.80473e-08 -0.0027821 0.999996 
1.04623e-08 -0.00293838 0.999996 
2.57841e-09 -0.00307162 0.999995 
2.40163e-08 -0.00314333 0.999995 
8.40732e-09 -0.00309492 0.999995 
1.38311e-08 -0.00284627 0.999996 
-1.60783e-08 -0.00234539 0.999997 
-8.25035e-08 -0.00158848 0.999999 
-3.07595e-07 -0.000401685 1 
-1.01749e-06 0.00139331 0.999999 
-2.25091e-06 0.00417944 0.999991 
-4.65873e-06 0.00817497 0.999967 
-7.97837e-06 0.0137571 0.999905 
-1.16755e-05 0.0215037 0.999769 
-1.21618e-05 0.0323762 0.999476 
-1.35828e-05 0.0479015 0.998852 
1.65526e-05 0.072289 0.997384 
-2.5448e-05 0.103699 0.994609 
-0.000174205 0.160126 0.987097 
0.000221015 0.224165 0.974551 
-7.41436e-05 0.307867 0.951429 
0.000580121 0.384785 0.923006 
0.000201486 0.494024 0.869448 
0.000484236 0.596719 0.80245 
-0.000529026 0.89213 0.451779 
0.000367728 0.946185 -0.323626 
-0.00045 0.826605 -0.562783 
-0.000321148 0.626988 -0.779029 
-0.000443704 0.50887 -0.860843 
-0.000113846 0.402151 -0.915573 
0.000137452 0.277145 -0.960828 
2.7338e-06 0.208718 -0.977976 
3.89378e-05 0.148827 -0.988863 
4.30577e-05 0.102955 -0.994686 
4.69869e-06 0.0700533 -0.997543 
5.16654e-06 0.0468691 -0.998901 
1.16288e-05 0.0321341 -0.999484 
1.09761e-05 0.0208574 -0.999782 
5.66823e-06 0.0137792 -0.999905 
2.61266e-06 0.00818242 -0.999967 
1.62747e-06 0.00405691 -0.999992 
1.39962e-06 0.00109979 -0.999999 
-2.2511e-07 -0.000670047 -1 
-2.29425e-07 -0.00167099 -0.999999 
2.15906e-07 -0.00236918 -0.999997 
5.32216e-08 -0.00285223 -0.999996 
8.15699e-08 -0.00310821 -0.999995 
1.31511e-08 -0.00319081 -0.999995 
-3.00445e-08 -0.00313604 -0.999995 
-3.95138e-08 -0.00300027 -0.999996 
-4.07482e-08 -0.00283299 -0.999996 
-6.43953e-08 -0.00264043 -0.999997 
-1.06285e-07 -0.00244032 -0.999997 
-1.5638e-07 -0.00219278 -0.999998 
-1.13556e-07 -0.00191802 -0.999998 
-1.91182e-07 -0.00165573 -0.999999 
-1.94688e-07 -0.00135545 -0.999999 
-8.45534e-08 -0.00109754 -0.999999 
-2.08601e-07 -0.000881384 -1 
-2.69971e-07 -0.000632478 -1 
6.72446e-08 -0.000492293 -1 
-7.7253e-07 -0.000393579 -1 
6.37257e-07 -0.000320889 -1 
6.44611e-08 -0.000270491 -1 
-1.8751e-05 2.24005e-05 -1 
-0.000274034 6.85257e-05 1 
-0.000168487 -0.00031099 1 
-7.45301e-05 -0.000371644 1 
-1.17461e-05 -0.000433639 1 
3.62376e-05 -0.000533972 1 
7.88376e-05 -0.000723946 1 
0.000127512 -0.000932708 1 
0.000150083 -0.00116338 0.999999 
0.000165509 -0.00140986 0.999999 
0.000143809 -0.00166205 0.999999 
0.000113892 -0.00189332 0.999998 
5.59683e-05 -0.00212982 0.999998 
3.52782e-06 -0.00231202 0.999997 
-3.62364e-05 -0.00255118 0.999997 
-5.45799e-05 -0.00274218 0.999996 
-1.49649e-05 -0.002938 0.999996 
7.38995e-05 -0.0030876 0.999995 
0.000206858 -0.00314042 0.999995 
0.000376622 -0.00302068 0.999995 
0.000571852 -0.00265562 0.999996 
0.000794236 -0.00200731 0.999998 
0.000903215 -0.000960249 0.999999 
0.00102033 0.000650079 0.999999 
0.00106764 0.00303302 0.999995 
0.00112112 0.00651378 0.999978 
0.00110073 0.0113372 0.999935 
0.0010592 0.0181056 0.999836 
0.00106063 0.0278651 0.999611 
0.0012111 0.0419355 0.99912 
0.00121546 0.0625536 0.998041 
0.00139602 0.0926867 0.995694 
0.000733751 0.133725 0.991018 
0.00143264 0.193293 0.98114 
0.00386194 0.269801 0.962908 
0.00564867 0.349344 0.936977 
0.0454724 0.360988 0.931461 
0.0106405 0.433451 0.901114 
0.00584522 0.715193 0.698903 
0.000214389 0.96069 0.277624 
0.00553508 0.989922 -0.141505 
-0.0272716 0.939793 -0.340653 
-0.000528923 0.675307 -0.737536 
-0.0123755 0.494936 -0.868841 
-0.0128228 0.390534 -0.920499 
-0.000637008 0.313394 -0.949623 
-0.00495766 0.222836 -0.974843 
-0.00106195 0.165741 -0.986169 
-0.000686362 0.117236 -0.993104 
-0.000754501 0.0798825 -0.996804 
-0.000770511 0.053327 -0.998577 
-0.000965722 0.0354349 -0.999372 
-0.00093454 0.0233976 -0.999726 
-0.000984782 0.014477 -0.999895 
-0.000893934 0.00861971 -0.999962 
-0.000796266 0.00421047 -0.999991 
-0.000849864 0.00129274 -0.999999 
-0.00092458 -0.000455442 -0.999999 
-0.000769604 -0.00168643 -0.999998 
-0.00063026 -0.00247534 -0.999997 
-0.000488131 -0.00293889 -0.999996 
-0.000289564 -0.00315122 -0.999995 
-0.000140941 -0.00317772 -0.999995 
-2.61121e-05 -0.00306489 -0.999995 
3.37213e-05 -0.00287681 -0.999996 
3.55213e-05 -0.00266356 -0.999996 
5.45973e-06 -0.00243218 -0.999997 
-4.64356e-05 -0.00221471 -0.999998 
-0.000100196 -0.00196716 -0.999998 
-0.0001537 -0.00171282 -0.999999 
-0.000154034 -0.00147182 -0.999999 
-0.00016932 -0.00121993 -0.999999 
-0.000161707 -0.00100708 -0.999999 
-9.19041e-05 -0.000780443 -1 
-7.70984e-05 -0.000616551 -1 
-2.94639e-05 -0.000489568 -1 
1.94605e-05 -0.000395603 -1 
8.08975e-05 -0.000387455 -1 
0.00013466 -0.000322056 -1 
0.000211219 0.000114901 -1 
-0.000259943 9.32543e-05 1 
-0.000208025 -0.000478746 1 
-9.22859e-05 -0.000477139 1 
-6.59769e-07 -0.000521216 1 
7.00723e-05 -0.000645435 1 
7.61167e-05 -0.000617204 1 
0.000145057 -0.00080116 1 
0.000202247 -0.000992383 0.999999 
0.000230122 -0.00119572 0.999999 
0.000236676 -0.00141424 0.999999 
0.000205408 -0.00162386 0.999999 
0.000134761 -0.00183043 0.999998 
5.20089e-05 -0.0020125 0.999998 
-4.44268e-05 -0.00227021 0.999997 
-9.57277e-05 -0.00251368 0.999997 
-8.51782e-05 -0.00279184 0.999996 
1.50798e-05 -0.00304392 0.999995 
0.000221753 -0.00323361 0.999995 
0.00050057 -0.00325639 0.999995 
0.000853385 -0.00305056 0.999995 
0.00124332 -0.00256357 0.999996 
0.0016116 -0.00163304 0.999997 
0.00192391 -0.000220707 0.999998 
0.0022371 0.00188922 0.999996 
0.00252112 0.00479859 0.999985 
0.00284016 0.00887742 0.999957 
0.00309186 0.0144008 0.999892 
0.00343969 0.0220847 0.99975 
0.00432655 0.032953 0.999448 
0.00599376 0.0490921 0.998776 
0.00831197 0.0712368 0.997425 
0.0123377 0.1062 0.994268 
0.0148258 0.14706 0.989016 
0.0254366 0.202846 0.97888 
0.0418375 0.264203 0.963559 
0.0904949 0.32892 0.940012 
0.0272632 0.500148 0.865511 
0.0464934 0.744213 0.666322 
0.0413216 0.881737 0.469927 
0.00697445 0.996973 0.0774322 
-0.0227247 0.868207 -0.495681 
-0.0361881 0.780104 -0.624602 
-0.064205 0.513678 -0.855578 
-0.0606639 0.395665 -0.916389 
-0.02464 0.280141 -0.959643 
-0.0358863 0.209313 -0.97719 
-0.019731 0.164332 -0.986208 
-0.0119642 0.122422 -0.992406 
-0.00771605 0.0872282 -0.996158 
-0.00533629 0.0599111 -0.998189 
-0.00439294 0.0405851 -0.999166 
-0.0036559 0.0262096 -0.99965 
-0.00294078 0.0170847 -0.99985 
-0.00251768 0.00991634 -0.999948 
-0.00207287 0.00538035 -0.999983 
-0.0019221 0.00221822 -0.999996 
-0.00191667 4.4036e-05 -0.999998 
-0.0015858 -0.00144543 -0.999998 
-0.00126169 -0.0024224 -0.999996 
-0.000956886 -0.00303355 -0.999995 
-0.000590683 -0.00329236 -0.999994 
-0.000302707 -0.00331565 -0.999994 
-7.54674e-05 -0.00315465 -0.999995 
4.73015e-05 -0.00291645 -0.999996 
8.16947e-05 -0.00263697 -0.999997 
4.92638e-05 -0.00236898 -0.999997 
-3.06652e-05 -0.00212527 -0.999998 
-0.00011836 -0.00191315 -0.999998 
-0.000191992 -0.00168666 -0.999999 
-0.000237237 -0.00147646 -0.999999 
-0.000247121 -0.00127945 -0.999999 
-0.000231356 -0.00108235 -0.999999 
-0.000184945 -0.000884397 -1 
-0.000134725 -0.000729067 -1 
-6.27923e-05 -0.000588145 -1 
3.20635e-06 -0.000488301 -1 
7.04971e-05 -0.000474535 -1 
0.000164457 -0.00045937 -1 
0.000193278 3.22859e-05 -1 
-0.000150873 0.000225542 1 
-0.000133888 -0.000593707 1 
-6.74797e-05 -0.000565258 1 
4.90021e-06 -0.000584743 1 
9.54274e-05 -0.000719653 1 
0.000138223 -0.000781288 1 
0.000187547 -0.000953595 1 
0.000223535 -0.00114878 0.999999 
0.000234114 -0.00131095 0.999999 
0.000208801 -0.0014834 0.999999 
0.000153758 -0.00164573 0.999999 
7.63956e-05 -0.00179712 0.999998 
-1.65848e-05 -0.00203507 0.999998 
-8.56931e-05 -0.00229295 0.999997 
-0.000105691 -0.00259906 0.999997 
-3.57422e-05 -0.00293974 0.999996 
0.0001365 -0.00324828 0.999995 
0.000426712 -0.00346177 0.999994 
0.000799145 -0.00347142 0.999994 
0.0012579 -0.00326431 0.999994 
0.00178795 -0.00266455 0.999995 
0.00235408 -0.00161728 0.999996 
0.00292659 1.61512e-05 0.999996 
0.00360458 0.00231242 0.999991 
0.00432616 0.005486 0.999976 
0.00526225 0.00980875 0.999938 
0.0062896 0.0156822 0.999857 
0.00790095 0.0238717 0.999684 
0.0109018 0.0357244 0.999302 
0.016231 0.0520522 0.998512 
0.0226001 0.0767291 0.996796 
0.035928 0.105773 0.993741 
0.0453378 0.145186 0.988365 
0.0676879 0.183769 0.980636 
0.0883011 0.241697 0.966326 
0.140559 0.287621 0.947374 
0.0775884 0.459706 0.884675 
0.0241501 0.60403 0.796595 
0.0309366 0.963229 0.266893 
-0.0122094 0.985108 -0.171504 
-0.0724249 0.854725 -0.514004 
-0.0384028 0.62821 -0.777096 
-0.138726 0.443364 -0.885541 
-0.0746351 0.303033 -0.950053 
-0.0798344 0.232685 -0.96927 
-0.0705942 0.168887 -0.983104 
-0.0461754 0.137208 -0.989465 
-0.0297439 0.103364 -0.994199 
-0.0186314 0.0738864 -0.997093 
-0.0130714 0.0511694 -0.998604 
-0.00930399 0.0343232 -0.999367 
-0.00736015 0.022291 -0.999724 
-0.00529824 0.0141176 -0.999886 
-0.00441582 0.00827895 -0.999956 
-0.0036366 0.00443322 -0.999984 
-0.0031194 0.0016182 -0.999994 
-0.00265729 -0.000571229 -0.999996 
-0.00208892 -0.00196691 -0.999996 
-0.00159443 -0.00287866 -0.999995 
-0.00110303 -0.00342206 -0.999994 
-0.000683921 -0.00357298 -0.999993 
-0.000321547 -0.00345559 -0.999994 
-8.54012e-05 -0.00319437 -0.999995 
5.52858e-05 -0.0028434 -0.999996 
8.63381e-05 -0.00251482 -0.999997 
4.57121e-05 -0.00219935 -0.999998 
-3.53696e-05 -0.00194798 -0.999998 
-0.000120403 -0.00174691 -0.999998 
-0.000194482 -0.00154935 -0.999999 
-0.000231165 -0.00138448 -0.999999 
-0.000239452 -0.00122483 -0.999999 
-0.000216641 -0.00103428 -0.999999 
-0.00017921 -0.000885429 -1 
-0.000121528 -0.000731979 -1 
-7.30272e-05 -0.000654188 -1 
-1.41398e-05 -0.000564063 -1 
3.4568e-05 -0.00055284 -1 
0.000110379 -0.000533843 -1 
0.000133434 0.00010025 -1 
-2.2694e-05 0.000232653 1 
-5.44541e-05 -0.000667908 1 
2.02021e-05 -0.000626082 1 
6.97728e-05 -0.000678371 1 
0.000135288 -0.000790623 1 
0.000148589 -0.000841683 1 
0.000179676 -0.000935949 1 
0.000203834 -0.00104915 0.999999 
0.000223977 -0.0012029 0.999999 
0.00022014 -0.00134282 0.999999 
0.000190632 -0.00147352 0.999999 
0.000138554 -0.00160212 0.999999 
5.43869e-05 -0.0018088 0.999998 
-1.74211e-05 -0.00205075 0.999998 
-5.53774e-05 -0.00238716 0.999997 
-3.30548e-05 -0.00276314 0.999996 
0.000100744 -0.00318817 0.999995 
0.000347784 -0.00354925 0.999994 
0.000718051 -0.00377301 0.999993 
0.00116883 -0.0037901 0.999992 
0.00175327 -0.00348042 0.999992 
0.00244203 -0.00275422 0.999993 
0.00323062 -0.00148248 0.999994 
0.0041264 0.000351975 0.999991 
0.00522096 0.002938 0.999982 
0.00651505 0.00635708 0.999959 
0.00822889 0.0109697 0.999906 
0.010388 0.0171348 0.999799 
0.0141303 0.0261714 0.999558 
0.0206915 0.0380664 0.999061 
0.0303909 0.0556385 0.997988 
0.0447691 0.0764347 0.996069 
0.0678105 0.105219 0.992134 
0.0933819 0.134213 0.986543 
0.121638 0.182389 0.975673 
0.173559 0.217508 0.960504 
0.141444 0.427264 0.892994 
0.0982017 0.567267 0.817658 
0.0962331 0.856225 0.507561 
0.0645066 0.970043 0.234213 
-0.0664363 0.938155 -0.339781 
-0.132999 0.596503 -0.791515 
-0.135524 0.332072 -0.933468 
-0.141914 0.243944 -0.95935 
-0.119019 0.180988 -0.976257 
-0.0941394 0.125879 -0.987569 
-0.0653703 0.106056 -0.992209 
-0.0453473 0.0818683 -0.995611 
-0.0306972 0.0632394 -0.997526 
-0.0214745 0.0454328 -0.998737 
-0.0149417 0.0313835 -0.999396 
-0.0112991 0.0203898 -0.999728 
-0.00811985 0.0131225 -0.999881 
-0.00651258 0.00782194 -0.999948 
-0.00520576 0.00396255 -0.999979 
-0.00424526 0.00121904 -0.99999 
-0.00344027 -0.000801962 -0.999994 
-0.00262856 -0.00230996 -0.999994 
-0.00197766 -0.00323177 -0.999993 
-0.00139615 -0.00371767 -0.999992 
-0.000894702 -0.00388508 -0.999992 
-0.000490004 -0.00370815 -0.999993 
-0.000207362 -0.00338687 -0.999994 
-2.73638e-05 -0.00296638 -0.999996 
3.44751e-05 -0.0025593 -0.999997 
2.66922e-05 -0.00220922 -0.999998 
-3.67274e-05 -0.00191278 -0.999998 
-0.000111887 -0.00169561 -0.999999 
-0.000175062 -0.00153431 -0.999999 
-0.000221756 -0.00137797 -0.999999 
-0.000236021 -0.00124612 -0.999999 
-0.000223053 -0.00110755 -0.999999 
-0.000191638 -0.000952368 -1 
-0.000146232 -0.000817483 -1 
-0.000101635 -0.000719334 -1 
-3.76948e-05 -0.000626518 -1 
9.81571e-06 -0.00060064 -1 
8.2909e-05 -0.00059572 -1 
5.93957e-05 0.000163246 -1 
2.9266e-05 0.000144397 1 
5.67088e-05 -0.000681476 1 
-9.80628e-06 -0.000636773 1 
8.00175e-05 -0.000674309 1 
0.00011316 -0.000722026 1 
0.00018448 -0.000891145 1 
0.000219709 -0.00104015 0.999999 
0.000234611 -0.00114097 0.999999 
0.000245011 -0.00127224 0.999999 
0.000231766 -0.00137213 0.999999 
0.000207589 -0.00147455 0.999999 
0.000145735 -0.00163413 0.999999 
8.94117e-05 -0.00184106 0.999998 
3.86259e-05 -0.0021429 0.999998 
4.15357e-05 -0.0025425 0.999997 
9.97028e-05 -0.00298739 0.999996 
0.000277648 -0.00346808 0.999994 
0.000559525 -0.0038597 0.999992 
0.000945587 -0.00413108 0.999991 
0.00144632 -0.00415605 0.99999 
0.00208021 -0.00388109 0.99999 
0.0028545 -0.00318669 0.999991 
0.003764 -0.00203775 0.999991 
0.00486242 -0.000292916 0.999988 
0.00619298 0.00196313 0.999979 
0.00781826 0.00502968 0.999957 
0.00994307 0.00870813 0.999913 
0.0127632 0.0134964 0.999827 
0.0167389 0.0201394 0.999657 
0.0237667 0.0279323 0.999327 
0.0334931 0.038949 0.99868 
0.0481786 0.0504736 0.997563 
0.068281 0.0677685 0.995362 
0.0965976 0.0762206 0.992401 
0.129286 0.102903 0.986254 
0.162358 0.126413 0.978601 
0.202099 0.333685 0.920766 
0.177825 0.556791 0.811395 
0.155925 0.768462 0.620607 
0.0157616 0.998938 0.0432836 
-0.139339 0.838612 -0.526606 
-0.222174 0.51809 -0.825967 
-0.205601 0.239439 -0.948893 
-0.173473 0.159361 -0.97186 
-0.133036 0.115809 -0.984322 
-0.0953455 0.0767762 -0.992479 
-0.0682742 0.068184 -0.995334 
-0.048262 0.0544854 -0.997348 
-0.0339617 0.0434824 -0.998477 
-0.0236247 0.0320534 -0.999207 
-0.0169296 0.0224296 -0.999605 
-0.0119855 0.0140513 -0.999829 
-0.00920841 0.0088843 -0.999918 
-0.00723309 0.00493033 -0.999962 
-0.00576037 0.0018698 -0.999982 
-0.00459478 -0.000405386 -0.999989 
-0.00353875 -0.00209069 -0.999992 
-0.00269795 -0.00325713 -0.999991 
-0.00197632 -0.0039308 -0.99999 
-0.00137053 -0.0041931 -0.99999 
-0.000864706 -0.00414121 -0.999991 
-0.000501947 -0.0038242 -0.999993 
-0.000239493 -0.00336176 -0.999994 
-9.81533e-05 -0.00289165 -0.999996 
-5.27566e-05 -0.00243792 -0.999997 
-6.05872e-05 -0.00206712 -0.999998 
-0.000116609 -0.00177853 -0.999998 
-0.000175566 -0.00157802 -0.999999 
-0.000220304 -0.00144214 -0.999999 
-0.000256363 -0.00131938 -0.999999 
-0.000258703 -0.00120701 -0.999999 
-0.00023707 -0.00108734 -0.999999 
-0.000214484 -0.000971706 -0.999999 
-0.000167406 -0.000848766 -1 
-0.000133085 -0.000756668 -1 
-7.71658e-05 -0.00067255 -1 
-4.99873e-05 -0.000648828 -1 
1.32121e-05 -0.000637292 -1 
2.63005e-05 0.000105702 -1 
7.4917e-05 0.000144312 1 
0.000129107 -0.000699746 1 
8.77491e-05 -0.000674136 1 
0.000151775 -0.000731145 1 
0.000170465 -0.000801871 1 
0.000221105 -0.000912499 1 
0.000238118 -0.00101279 0.999999 
0.000271249 -0.00112958 0.999999 
0.000274646 -0.00121823 0.999999 
0.000282782 -0.00130695 0.999999 
0.000270196 -0.00138693 0.999999 
0.000234005 -0.00151092 0.999999 
0.000196156 -0.0016829 0.999999 
0.000157869 -0.00195229 0.999998 
0.000141133 -0.00232529 0.999997 
0.000184624 -0.00282518 0.999996 
0.000293029 -0.00333716 0.999994 
0.000521215 -0.00385829 0.999992 
0.00084253 -0.00427479 0.999991 
0.00128162 -0.00452888 0.999989 
0.00184179 -0.00451686 0.999988 
0.00256288 -0.0041544 0.999988 
0.00344851 -0.00337466 0.999988 
0.00455894 -0.00205186 0.999987 
0.00590798 -0.00029301 0.999983 
0.00759868 0.0021147 0.999969 
0.00966288 0.00489445 0.999941 
0.0124834 0.0083605 0.999887 
0.016647 0.0129648 0.999777 
0.0228459 0.018004 0.999577 
0.0330235 0.0238176 0.999171 
0.0465587 0.0296161 0.998476 
0.0661745 0.0380863 0.997081 
0.0929988 0.0406778 0.994835 
0.132443 0.0545312 0.989689 
0.183204 0.0596316 0.981265 
0.258246 0.234328 0.93723 
0.247304 0.447094 0.859621 
0.100218 0.683694 0.722855 
0.0282431 0.999529 0.0120448 
-0.0984924 0.730422 -0.675857 
-0.219728 0.343431 -0.913113 
-0.2794 0.233858 -0.93126 
-0.178727 0.0769672 -0.980884 
-0.129551 0.0615645 -0.98966 
-0.0932773 0.0365374 -0.99497 
-0.0685283 0.0385112 -0.996906 
-0.0492048 0.0335315 -0.998226 
-0.0347258 0.0285593 -0.998989 
-0.025038 0.0220678 -0.999443 
-0.0186528 0.015907 -0.999699 
-0.0138641 0.01184 -0.999834 
-0.0103764 0.00679856 -0.999923 
-0.00813529 0.00363208 -0.99996 
-0.00641434 0.000998196 -0.999979 
-0.00501224 -0.00120842 -0.999987 
-0.00388112 -0.00264696 -0.999989 
-0.00292687 -0.00377748 -0.999989 
-0.00215245 -0.00438471 -0.999988 
-0.00152229 -0.00458087 -0.999988 
-0.00103131 -0.00445662 -0.99999 
-0.000641448 -0.00406439 -0.999992 
-0.00038534 -0.00355868 -0.999994 
-0.000232387 -0.0029994 -0.999995 
-0.000169242 -0.00251305 -0.999997 
-0.000158759 -0.00208283 -0.999998 
-0.000189403 -0.00177306 -0.999998 
-0.000231742 -0.0015553 -0.999999 
-0.000269175 -0.00141613 -0.999999 
-0.000292962 -0.0013177 -0.999999 
-0.000294553 -0.00122179 -0.999999 
-0.000273305 -0.00111809 -0.999999 
-0.000247662 -0.0010038 -0.999999 
-0.000201625 -0.000877708 -1 
-0.00017726 -0.000797885 -1 
-0.000128224 -0.000716467 -1 
-0.000107486 -0.000689126 -1 
-4.95449e-05 -0.000677484 -1 
-8.92165e-06 0.000141765 -1 
0.000128901 0.000122392 1 
0.000194928 -0.000716346 1 
0.000151218 -0.000703232 1 
0.00019675 -0.000757226 1 
0.000202116 -0.000816761 1 
0.000242153 -0.000937502 1 
0.000267467 -0.00105097 0.999999 
0.000295365 -0.00116394 0.999999 
0.000305752 -0.00124303 0.999999 
0.00031427 -0.00130788 0.999999 
0.000303691 -0.00139358 0.999999 
0.000284031 -0.00150629 0.999999 
0.000263056 -0.00169547 0.999999 
0.000246735 -0.00199482 0.999998 
0.000248236 -0.00243378 0.999997 
0.000311179 -0.00296272 0.999996 
0.000428495 -0.00353114 0.999994 
0.000638538 -0.00406982 0.999992 
0.00094973 -0.00455915 0.999989 
0.00136202 -0.00486814 0.999987 
0.00190719 -0.00491387 0.999986 
0.00258526 -0.00464884 0.999986 
0.00347025 -0.00395517 0.999986 
0.00456083 -0.00283043 0.999986 
0.00598566 -0.00122397 0.999981 
0.00766503 0.000672206 0.99997 
0.00983502 0.0029251 0.999947 
0.0128013 0.00546489 0.999903 
0.0170321 0.00828268 0.999821 
0.0235318 0.0110554 0.999662 
0.0318982 0.0114758 0.999425 
0.0452055 0.0130351 0.998893 
0.0638262 0.0150068 0.997848 
0.0848284 0.00662443 0.996374 
0.119671 0.0136985 0.992719 
0.166243 0.0168258 0.985941 
0.207523 0.136218 0.9687 
0.327826 0.303843 0.894544 
0.218767 0.666354 0.712821 
0.0330413 0.9988 0.0361395 
-0.203125 0.739476 -0.641807 
-0.329987 0.338596 -0.881171 
-0.229752 0.131342 -0.964346 
-0.176587 0.0168784 -0.98414 
-0.12756 0.0144102 -0.991726 
-0.0858575 0.00402853 -0.996299 
-0.0627173 0.012785 -0.997949 
-0.0459478 0.0156465 -0.998821 
-0.0326756 0.0154293 -0.999347 
-0.0231059 0.0118682 -0.999663 
-0.016369 0.00892014 -0.999826 
-0.0124638 0.00656966 -0.999901 
-0.00929119 0.00300992 -0.999952 
-0.00725255 0.000718354 -0.999973 
-0.00568139 -0.0012192 -0.999983 
-0.00436492 -0.00285195 -0.999986 
-0.0033972 -0.00388547 -0.999987 
-0.00255093 -0.00464436 -0.999986 
-0.00188396 -0.00494158 -0.999986 
-0.00135601 -0.00489609 -0.999987 
-0.000935216 -0.00457518 -0.999989 
-0.000627467 -0.00405445 -0.999992 
-0.000421226 -0.00347148 -0.999994 
-0.000316643 -0.00289554 -0.999996 
-0.000260592 -0.00236695 -0.999997 
-0.000254154 -0.00195898 -0.999998 
-0.000271179 -0.00165967 -0.999999 
-0.000297547 -0.00147051 -0.999999 