# vtk DataFile Version 3.0 
Exported using Morpho https://github.com/Morpho-lang/morpho 
ASCII 
DATASET UNSTRUCTURED_GRID 

POINTS 1978 float 
-8.48523 -2.82836 -2.65011e-07 
-8.25744 -2.82839 -3.22706e-07 
-8.03281 -2.82838 1.02925e-06 
-7.75617 -2.82842 1.14018e-06 
-7.47604 -2.82839 7.86912e-07 
-7.21675 -2.8284 4.67608e-07 
-7.00893 -2.82841 2.99648e-07 
-6.77482 -2.8284 2.79516e-07 
-6.56119 -2.82841 1.90857e-07 
-6.34509 -2.8284 1.49402e-07 
-6.14376 -2.82841 1.01751e-07 
-5.92751 -2.82841 8.06353e-08 
-5.71412 -2.8284 5.18111e-08 
-5.5109 -2.8284 1.25705e-08 
-5.29461 -2.8284 4.74894e-09 
-5.08385 -2.8284 -1.13498e-08 
-4.86694 -2.8284 -2.52971e-08 
-4.66164 -2.8284 -5.47288e-08 
-4.44294 -2.8284 -7.41315e-08 
-4.22725 -2.8284 -9.39915e-08 
-4.00984 -2.8284 -1.17144e-07 
-3.79944 -2.8284 -1.52647e-07 
-3.58314 -2.8284 -2.01081e-07 
-3.37094 -2.8284 -2.61899e-07 
-3.14862 -2.82841 -3.21681e-07 
-2.93845 -2.82841 -3.79615e-07 
-2.72713 -2.82841 -4.34756e-07 
-2.53151 -2.82842 -5.01863e-07 
-2.3198 -2.82841 -5.46676e-07 
-2.10928 -2.82842 -5.89317e-07 
-1.90026 -2.82842 -5.2555e-07 
-1.69622 -2.82842 -4.757e-07 
-1.49395 -2.82843 -3.40424e-07 
-1.27561 -2.82842 -2.11869e-07 
-1.10233 -2.82842 -4.16553e-07 
-0.847002 -2.82842 -1.62806e-07 
-0.621925 -2.8284 -2.13602e-09 
-0.432554 -2.82838 -7.30708e-07 
-0.23575 -2.82838 -9.07304e-07 
0.00912947 -2.82836 1.56776e-06 
0.220613 -2.8284 4.64776e-07 
0.423201 -2.82838 -6.7353e-07 
0.643687 -2.8284 2.13825e-07 
0.87057 -2.82841 6.08002e-07 
1.07013 -2.82843 2.54481e-07 
1.26399 -2.82841 -2.06681e-08 
1.4529 -2.82843 2.6188e-07 
1.70175 -2.82842 5.5223e-07 
1.88585 -2.82842 5.16757e-07 
2.1033 -2.82842 5.78323e-07 
2.32967 -2.82841 5.97807e-07 
2.51804 -2.82841 4.99639e-07 
2.74465 -2.82841 4.6577e-07 
2.96404 -2.82841 3.93542e-07 
3.17466 -2.82841 3.05113e-07 
3.38264 -2.8284 2.43736e-07 
3.60875 -2.82841 1.96373e-07 
3.81192 -2.8284 1.45971e-07 
4.02665 -2.8284 1.18867e-07 
4.25251 -2.8284 9.79962e-08 
4.45097 -2.8284 6.30646e-08 
4.66262 -2.82841 5.49684e-08 
4.8714 -2.8284 2.60308e-08 
5.07411 -2.82841 7.05833e-09 
5.28969 -2.8284 5.14345e-09 
5.50039 -2.8284 -2.42367e-08 
5.70434 -2.8284 -5.37607e-08 
5.92261 -2.8284 -7.04874e-08 
6.14305 -2.8284 -1.10228e-07 
6.3424 -2.82841 -1.72103e-07 
6.58084 -2.8284 -1.87475e-07 
6.79083 -2.82841 -2.63912e-07 
6.99163 -2.82841 -3.65933e-07 
7.25031 -2.8284 -4.55486e-07 
7.48058 -2.82841 -6.08464e-07 
7.72247 -2.82841 -8.25116e-07 
7.9892 -2.8284 -1.09711e-06 
8.17415 -2.82838 2.00834e-07 
8.48522 -2.82834 3.48253e-07 
-8.48526 -2.59192 2.348e-07 
-8.25279 -2.581 -3.3762e-15 
-8.02165 -2.57629 1.96822e-15 
-7.79227 -2.62533 3.93409e-16 
-7.53083 -2.63248 2.61324e-16 
-7.2431 -2.61938 -2.17256e-16 
-6.98963 -2.57216 5.55661e-16 
-6.78192 -2.60531 3.3844e-17 
-6.54295 -2.58861 8.13431e-17 
-6.33068 -2.57275 3.5544e-16 
-6.10877 -2.59568 1.44738e-16 
-5.89172 -2.58966 1.34214e-16 
-5.6817 -2.57627 1.61409e-16 
-5.46478 -2.59177 7.09733e-17 
-5.24906 -2.586 4.85416e-17 
-5.03037 -2.59337 1.35622e-17 
-4.82037 -2.58085 -4.71589e-17 
-4.6017 -2.59622 -6.94067e-17 
-4.38273 -2.59189 -1.31846e-16 
-4.16382 -2.59204 -1.63531e-16 
-3.9515 -2.58129 -2.96567e-16 
-3.73771 -2.58577 -3.00034e-16 
-3.52466 -2.5832 -4.91959e-16 
-3.30688 -2.59677 -3.54203e-16 
-3.09431 -2.59047 -7.24333e-16 
-2.88224 -2.59794 -5.54228e-16 
-2.68065 -2.58733 -1.24924e-15 
-2.47285 -2.60954 -4.42645e-16 
-2.25665 -2.60769 -5.872e-16 
-2.04714 -2.6061 -7.01402e-16 
-1.83533 -2.59861 -1.08868e-15 
-1.62472 -2.59257 -1.02854e-15 
-1.41707 -2.60382 -1.06645e-15 
-1.23917 -2.5208 -5.83743e-16 
-1.02363 -2.6308 5.7372e-16 
-0.798438 -2.59007 3.93805e-16 
-0.602612 -2.52527 6.81666e-15 
-0.398837 -2.49985 5.10236e-15 
-0.17739 -2.54681 6.78742e-16 
0.018321 -2.46659 2.50683e-15 
0.208614 -2.53303 2.32717e-15 
0.405673 -2.49707 -7.66978e-15 
0.60525 -2.56857 -5.8782e-16 
0.835504 -2.58327 -9.54523e-16 
1.05914 -2.57581 8.01646e-17 
1.27061 -2.5809 -3.33777e-16 
1.51862 -2.65035 -2.45512e-15 
1.72281 -2.58669 2.95181e-15 
1.93799 -2.62199 -5.04273e-16 
2.16665 -2.62464 -1.95605e-16 
2.36499 -2.57966 2.33258e-15 
2.57976 -2.61859 -7.83284e-17 
2.80245 -2.60591 5.69545e-16 
3.01144 -2.59143 7.87745e-16 
3.21923 -2.5831 6.59921e-16 
3.44175 -2.6014 2.10716e-16 
3.64886 -2.57476 5.40616e-16 
3.86366 -2.5886 2.1895e-16 
4.09167 -2.60195 9.77176e-17 
4.30027 -2.57118 2.66846e-16 
4.51481 -2.58997 6.74878e-17 
4.72917 -2.58709 4.79258e-17 
4.94112 -2.58135 9.58882e-18 
5.15563 -2.59601 -3.74988e-17 
5.37429 -2.58989 -4.81706e-17 
5.58519 -2.58053 -1.29722e-16 
5.80121 -2.59536 -1.26811e-16 
6.02562 -2.59564 -1.13451e-16 
6.23879 -2.56786 -3.9503e-16 
6.45814 -2.60961 4.97397e-17 
6.68458 -2.57651 -3.73544e-16 
6.89291 -2.5619 -8.00181e-16 
7.11928 -2.62119 2.49853e-16 
7.36743 -2.5928 -4.82421e-16 
7.60231 -2.60379 4.49794e-17 
7.85852 -2.62274 9.28309e-16 
8.07092 -2.52898 -2.86207e-15 
8.29626 -2.64335 4.75208e-15 
8.48526 -2.52349 -6.44291e-08 
-8.48524 -2.35277 2.31949e-07 
-8.2317 -2.34684 1.35466e-15 
-7.98581 -2.3379 3.38245e-15 
-7.74804 -2.40316 2.00956e-15 
-7.55696 -2.24669 1.74543e-15 
-7.44957 -2.44818 2.59305e-15 
-7.17839 -2.39793 2.33417e-15 
-6.94107 -2.32413 1.65177e-15 
-6.71129 -2.38235 1.55141e-15 
-6.48244 -2.34467 1.15844e-15 
-6.23932 -2.35198 8.5272e-16 
-6.02297 -2.35646 6.34232e-16 
-5.8058 -2.34173 4.56392e-16 
-5.57773 -2.3461 3.21387e-16 
-5.363 -2.35096 1.55948e-16 
-5.13947 -2.35569 1.65672e-17 
-4.92728 -2.34351 -1.22292e-16 
-4.70399 -2.35689 -2.66122e-16 
-4.48604 -2.36057 -4.31499e-16 
-4.26401 -2.35782 -6.06135e-16 
-4.04936 -2.34267 -7.99177e-16 
-3.8323 -2.34124 -1.03271e-15 
-3.61872 -2.34216 -1.33356e-15 
-3.39922 -2.35627 -1.70669e-15 
-3.1872 -2.35674 -2.14566e-15 
-2.9718 -2.36397 -2.6564e-15 
-2.76589 -2.35388 -3.15362e-15 
-2.55441 -2.37151 -3.83873e-15 
-2.34747 -2.39369 -4.57937e-15 
-2.12769 -2.37854 -4.69534e-15 
-1.91742 -2.37995 -4.95553e-15 
-1.69535 -2.36856 -4.06018e-15 
-1.47482 -2.35436 -4.73569e-16 
-1.2584 -2.28369 -3.07242e-15 
-1.01868 -2.3966 1.93774e-15 
-0.81434 -2.32086 1.07676e-15 
-0.588045 -2.24052 2.40395e-15 
-0.394949 -2.13839 -1.38703e-14 
-0.215836 -2.21913 2.28975e-14 
0.0107645 -2.15967 -1.22594e-14 
0.23864 -2.20973 -1.11542e-14 
0.442898 -2.15444 -2.19738e-15 
0.624672 -2.27164 7.04748e-15 
0.83269 -2.3216 -7.06013e-15 
1.05854 -2.3352 -3.23177e-15 
1.26919 -2.32946 -9.08447e-16 
1.47184 -2.44099 2.68042e-15 
1.65682 -2.35631 4.1011e-15 
1.87386 -2.39512 5.10761e-15 
2.08886 -2.41967 4.92281e-15 
2.3003 -2.35773 4.43116e-15 
2.52577 -2.3848 4.0119e-15 
2.732 -2.39205 3.44287e-15 
2.94849 -2.35539 2.75596e-15 
3.15228 -2.34323 2.21881e-15 
3.36985 -2.3662 1.78383e-15 
3.5763 -2.33365 1.38202e-15 
3.79005 -2.34279 1.10023e-15 
4.00787 -2.36992 8.64044e-16 
4.21715 -2.33486 6.23759e-16 
4.43937 -2.34439 4.59319e-16 
4.64968 -2.34737 2.99049e-16 
4.86212 -2.3443 1.54693e-16 
5.08076 -2.35203 2.72376e-17 
5.29149 -2.36051 -1.10879e-16 
5.50821 -2.3418 -2.44866e-16 
5.72655 -2.35277 -4.08978e-16 
5.94316 -2.3655 -5.97756e-16 
6.15889 -2.33489 -7.75277e-16 
6.39277 -2.35714 -9.97789e-16 
6.60119 -2.35587 -1.28951e-15 
6.82698 -2.30973 -1.49785e-15 
7.05649 -2.36644 -1.9833e-15 
7.27487 -2.38847 -2.38205e-15 
7.53364 -2.36807 -2.25744e-15 
7.77487 -2.40139 -2.12743e-15 
7.99279 -2.30506 -3.10376e-15 
8.25934 -2.36906 4.05299e-17 
8.48526 -2.27693 -7.64026e-08 
-8.48526 -2.09533 -1.37544e-07 
-8.26574 -2.11664 -8.21716e-16 
-8.0333 -2.09626 1.75299e-15 
-7.78615 -2.14707 9.85981e-16 
-7.50908 -2.02989 4.62999e-16 
-7.30508 -2.21943 1.64374e-15 
-7.06968 -2.12905 1.19471e-15 
-6.79364 -2.12786 9.37533e-16 
-6.58763 -2.12732 8.12825e-16 
-6.3458 -2.13574 6.24062e-16 
-6.11964 -2.10937 4.74596e-16 
-5.91327 -2.10878 3.42582e-16 
-5.68875 -2.11729 2.48917e-16 
-5.46772 -2.10681 1.37591e-16 
-5.25168 -2.12307 5.94653e-17 
-5.03978 -2.10869 -1.71672e-17 
-4.8171 -2.12088 -1.06346e-16 
-4.60033 -2.12499 -2.01323e-16 
-4.38281 -2.12803 -2.96532e-16 
-4.17051 -2.11136 -3.87412e-16 
-3.95417 -2.10409 -5.1837e-16 
-3.74057 -2.10163 -6.72526e-16 
-3.52325 -2.11573 -8.76707e-16 
-3.31302 -2.11943 -1.12284e-15 
-3.09981 -2.12907 -1.41603e-15 
-2.89444 -2.12491 -1.71205e-15 
-2.67996 -2.13158 -2.06796e-15 
-2.47029 -2.14727 -2.58788e-15 
-2.26218 -2.17072 -3.29855e-15 
-2.03937 -2.14428 -2.86673e-15 
-1.82159 -2.15645 -2.85756e-15 
-1.59448 -2.13313 -2.67308e-15 
-1.38593 -2.07618 2.54337e-15 
-1.16786 -1.94422 -1.02336e-15 
-1.07254 -2.14552 5.85831e-15 
-0.836724 -2.07675 -5.49238e-16 
-0.625868 -1.95362 -4.32381e-15 
-0.353777 -1.87944 2.64625e-14 
-0.0848003 -1.88018 -8.31025e-15 
0.0795598 -1.61935 1.97494e-15 
0.183715 -1.90316 2.5652e-15 
0.31992 -1.63591 -3.04476e-15 
0.464655 -1.90675 -1.03338e-14 
0.732084 -1.99212 -3.17794e-17 
0.960648 -2.07515 -2.49673e-15 
1.18415 -2.08043 -1.57258e-15 
1.44319 -2.18504 9.49484e-16 
1.67779 -2.13261 2.53571e-15 
1.89603 -2.17347 2.59784e-15 
2.11121 -2.18916 3.27019e-15 
2.3649 -2.15422 2.7205e-15 
2.5744 -2.15024 2.36665e-15 
2.78061 -2.15801 2.07815e-15 
2.98548 -2.10657 1.54478e-15 
3.20581 -2.12069 1.252e-15 
3.4068 -2.11595 1.04154e-15 
3.62252 -2.09668 7.44867e-16 
3.8413 -2.11579 6.24453e-16 
4.04388 -2.1193 4.82854e-16 
4.27301 -2.10819 3.24749e-16 
4.4848 -2.10286 2.28985e-16 
4.6976 -2.1073 1.53912e-16 
4.91692 -2.11543 7.08314e-17 
5.12984 -2.11256 -1.36177e-17 
5.3412 -2.12359 -9.20599e-17 
5.56536 -2.11183 -1.69736e-16 
5.78236 -2.11983 -2.7735e-16 
5.99256 -2.12036 -3.91527e-16 
6.23434 -2.12041 -5.23463e-16 
6.44377 -2.10369 -6.49267e-16 
6.65684 -2.11083 -8.20033e-16 
6.91429 -2.09851 -9.69752e-16 
7.13066 -2.12832 -1.24699e-15 
7.36129 -2.17471 -1.49119e-15 
7.55401 -2.08026 -6.62028e-16 
7.73685 -2.16822 -1.14818e-15 
7.95448 -2.0703 -8.93525e-16 
8.20484 -2.1438 -1.62916e-15 
8.48526 -2.07848 -1.30852e-07 
-8.48525 -1.80974 -1.45698e-07 
-8.29083 -1.87079 -1.60224e-15 
-7.88516 -1.90163 2.01787e-16 
-7.66615 -1.89323 1.24083e-17 
[...]
POINT_DATA 1978 
VECTORS vectors float
0.0162362 -0.0123597 0.99978 
0.0272554 -0.0725507 0.996993 
0.0171884 -0.0999487 0.994848 
0.0123286 -0.0901464 0.995848 
0.0138192 -0.0714413 0.997349 
0.0178415 -0.0556484 0.998295 
0.0204633 -0.0444287 0.998814 
0.0213118 -0.0345538 0.999179 
0.0214828 -0.0263229 0.999432 
0.0223186 -0.0193456 0.999565 
0.022303 -0.0140321 0.999655 
0.0228975 -0.00956797 0.999699 
0.0227886 -0.005832 0.999729 
0.0228616 -0.00287644 0.999741 
0.0229968 -0.000547299 0.999744 
0.0230098 0.00134662 0.999743 
0.0230789 0.00336547 0.999735 
0.0228802 0.00544778 0.999731 
0.0228413 0.00789449 0.999717 
0.0225934 0.0108846 0.999693 
0.0224765 0.0148391 0.999644 
0.0222487 0.0198091 0.999562 
0.0218259 0.0264118 0.999419 
0.0212916 0.0348171 0.999173 
0.0209146 0.0464237 0.998707 
0.0205878 0.06099 0.997927 
0.0199319 0.0803355 0.996566 
0.0188163 0.103411 0.994457 
0.0176261 0.135139 0.990666 
0.015856 0.175201 0.9844 
0.0140694 0.225202 0.974206 
0.0115651 0.285658 0.958258 
0.00895301 0.358914 0.933326 
0.00553267 0.456591 0.889659 
0.00271576 0.545003 0.838431 
0.000148245 0.684216 0.729282 
-0.00163566 0.804682 0.593705 
-0.00245591 0.896434 0.443168 
-0.00191894 0.967955 0.251111 
-0.000204822 0.99979 -0.0204423 
0.00143191 0.971397 -0.237449 
0.00202944 0.904103 -0.427311 
0.00184104 0.798423 -0.602093 
0.00031742 0.667457 -0.74465 
-0.00263424 0.558621 -0.829418 
-0.00588224 0.456089 -0.889916 
-0.00813288 0.377031 -0.926163 
-0.010895 0.285616 -0.958278 
-0.0132277 0.229512 -0.973211 
-0.0157924 0.177843 -0.983929 
-0.016953 0.134491 -0.990766 
-0.0180889 0.105346 -0.994269 
-0.0194823 0.0789412 -0.996691 
-0.0202141 0.0591261 -0.998048 
-0.0209248 0.0445917 -0.998789 
-0.0215545 0.0339732 -0.999196 
-0.0220122 0.0254567 -0.99944 
-0.0219757 0.0193365 -0.999576 
-0.0226358 0.0146199 -0.999646 
-0.0227391 0.0108868 -0.999689 
-0.0229804 0.00805529 -0.999708 
-0.0235727 0.00564503 -0.999713 
-0.023219 0.00350239 -0.999729 
-0.0231969 0.00140198 -0.999736 
-0.0233141 -0.000703394 -0.999736 
-0.0229136 -0.00306642 -0.999738 
-0.022623 -0.00593112 -0.999733 
-0.0227124 -0.00940095 -0.999706 
-0.0219244 -0.0140656 -0.999666 
-0.0215504 -0.0193228 -0.999588 
-0.0217397 -0.0267283 -0.999414 
-0.0208985 -0.0346941 -0.999182 
-0.0196637 -0.043631 -0.998863 
-0.0184848 -0.0568001 -0.998224 
-0.0174003 -0.0717032 -0.997281 
-0.0174185 -0.0896148 -0.995831 
-0.0178772 -0.104855 -0.994329 
-0.0229118 -0.0883727 -0.99583 
-0.0224393 -0.00845076 -0.999727 
0.000933224 -0.0267778 0.999619 
0.0169434 -0.0634831 0.997834 
0.0364776 -0.0875819 0.995489 
0.0348222 -0.0885005 0.995467 
0.0356166 -0.0739207 0.996628 
0.0382746 -0.0571061 0.997639 
0.0457165 -0.0440171 0.997983 
0.0434889 -0.0347676 0.998453 
0.045911 -0.0263737 0.998595 
0.0496339 -0.0196913 0.998574 
0.0467197 -0.0138887 0.998812 
0.0485968 -0.00959616 0.998773 
0.0514985 -0.00612097 0.998655 
0.0495199 -0.00308022 0.998769 
0.0512137 -0.000640047 0.998688 
0.0502674 0.00165533 0.998735 
0.0525408 0.00383975 0.998612 
0.0497408 0.0062671 0.998743 
0.0501457 0.00914709 0.9987 
0.0494957 0.0127111 0.998694 
0.0501374 0.0171064 0.998596 
0.0482298 0.0226904 0.998579 
0.0477693 0.0299501 0.99841 
0.0444925 0.0395892 0.998226 
0.0444341 0.0521509 0.997651 
0.041692 0.0683738 0.996789 
0.0411603 0.0885693 0.995221 
0.0356298 0.114514 0.992784 
0.0322247 0.149732 0.988203 
0.0282342 0.193102 0.980775 
0.0240956 0.247603 0.968565 
0.0190294 0.315069 0.948881 
0.0130108 0.396035 0.918144 
0.0101501 0.482362 0.875917 
0.00395132 0.593724 0.804665 
0.000849827 0.715916 0.698185 
-0.00146723 0.816433 0.577433 
-0.00209814 0.911421 0.411468 
-0.00113274 0.981767 0.190086 
-0.000497976 0.999819 -0.0190819 
7.59236e-05 0.973164 -0.230114 
-0.000424802 0.909389 -0.415951 
-0.00117166 0.818645 -0.574298 
-0.00270483 0.692552 -0.721359 
-0.00633684 0.563761 -0.825922 
-0.0107393 0.460364 -0.887669 
-0.0130755 0.35503 -0.934765 
-0.0223477 0.284008 -0.958564 
-0.0242913 0.221317 -0.974902 
-0.0287355 0.167775 -0.985409 
-0.0372719 0.13209 -0.990538 
-0.0354339 0.100583 -0.994299 
-0.0396897 0.0758092 -0.996333 
-0.043425 0.057856 -0.997381 
-0.0459163 0.0442551 -0.997966 
-0.0446498 0.0330681 -0.998456 
-0.0496422 0.0254582 -0.998443 
-0.0484613 0.0192254 -0.998641 
-0.0474148 0.0141479 -0.998775 
-0.0530429 0.0106382 -0.998536 
-0.0504858 0.00758979 -0.998696 
-0.0512385 0.00499914 -0.998674 
-0.0525804 0.00264533 -0.998614 
-0.0497948 0.000300941 -0.99876 
-0.0506113 -0.00223143 -0.998716 
-0.0514925 -0.00491235 -0.998662 
-0.0482581 -0.0080417 -0.998803 
-0.0475084 -0.0121841 -0.998797 
-0.0508113 -0.0171532 -0.998562 
-0.0433914 -0.0231706 -0.99879 
-0.047624 -0.030902 -0.998388 
-0.048404 -0.0392405 -0.998058 
-0.0387268 -0.0499164 -0.998003 
-0.0418543 -0.0643288 -0.997052 
-0.0391301 -0.0796124 -0.996059 
-0.0356446 -0.0933914 -0.994991 
-0.0391428 -0.0842403 -0.995675 
-0.00967882 -0.0546214 -0.998452 
-0.00467648 -0.0243351 -0.9997 
0.00179518 -0.0220894 0.999742 
0.0291297 -0.0618974 0.997654 
0.0534782 -0.0853461 0.994917 
0.0548346 -0.0844623 0.99492 
0.0632613 -0.0766391 0.995054 
0.0563503 -0.0690985 0.99602 
0.0620397 -0.0535508 0.996639 
0.0668543 -0.0420956 0.996877 
0.0662648 -0.0323186 0.997281 
0.06925 -0.0245555 0.9973 
0.0705879 -0.0178346 0.997349 
0.0715574 -0.0130136 0.997354 
0.0731615 -0.00904665 0.997282 
0.0740317 -0.00551146 0.997243 
0.074707 -0.00269767 0.997204 
0.0752617 -1.06484e-05 0.997166 
0.0762636 0.00246414 0.997087 
0.0756258 0.00521765 0.997125 
0.0750252 0.00819059 0.99715 
0.0741857 0.0117541 0.997178 
0.0735879 0.0160216 0.997163 
0.0719744 0.0213356 0.997181 
0.0703142 0.0280407 0.997134 
0.0677936 0.0369585 0.997017 
0.06587 0.04834 0.99666 
0.063142 0.0634794 0.995987 
0.060645 0.082449 0.994752 
0.0562925 0.107049 0.992662 
0.0506934 0.137648 0.989186 
0.0447778 0.180122 0.982628 
0.037814 0.230931 0.972239 
0.0296629 0.29825 0.954031 
0.0206037 0.381261 0.924244 
0.0132509 0.475704 0.879508 
0.00562923 0.589549 0.807712 
0.000749208 0.698628 0.71549 
-0.00309552 0.825131 0.564939 
-0.00413561 0.916214 0.400667 
-0.00335048 0.973411 0.229032 
-0.00274124 0.999994 -0.00209445 
-0.00144023 0.97085 -0.239704 
-0.00107804 0.895004 -0.446061 
-0.00207545 0.805896 -0.592059 
-0.00425505 0.692135 -0.721756 
-0.0084089 0.571408 -0.820623 
-0.0149695 0.468572 -0.883302 
-0.0208759 0.376252 -0.926285 
-0.0292878 0.310894 -0.949997 
-0.0363579 0.243801 -0.969147 
-0.0422179 0.188445 -0.981179 
-0.0503895 0.147303 -0.987812 
-0.0547598 0.111271 -0.992284 
-0.0583125 0.0856013 -0.994625 
-0.0630306 0.065307 -0.995876 
-0.066073 0.050473 -0.99654 
-0.0672221 0.0381339 -0.997012 
-0.0706419 0.0296221 -0.997065 
-0.0719401 0.0225735 -0.997156 
-0.0720395 0.0169117 -0.997261 
-0.075115 0.0128723 -0.997094 
-0.0755951 0.00913205 -0.997099 
-0.075963 0.00609912 -0.997094 
-0.0764992 0.00334339 -0.997066 
-0.0759028 0.000637359 -0.997117 
-0.0750142 -0.00195053 -0.997183 
-0.0750757 -0.00482595 -0.997169 
-0.0734973 -0.00788744 -0.997267 
-0.0716334 -0.0114645 -0.997368 
-0.0719771 -0.0160497 -0.99728 
-0.0693965 -0.0219076 -0.997351 
-0.0681792 -0.0283602 -0.997273 
-0.0683587 -0.0369563 -0.996979 
-0.0646278 -0.0472427 -0.996794 
-0.0619279 -0.0591648 -0.996329 
-0.0600817 -0.0749793 -0.995377 
-0.0563273 -0.0872765 -0.994593 
-0.0549426 -0.0855618 -0.994818 
-0.0250538 -0.0572388 -0.998042 
-0.00481225 -0.0235253 -0.999685 
0.00858767 -0.0171803 0.999825 
0.0244873 -0.0546587 0.998201 
0.0491053 -0.0808813 0.995516 
0.0589379 -0.0853685 0.994609 
0.0601797 -0.0748646 0.99538 
0.0655181 -0.0616588 0.995949 
0.0666204 -0.0487734 0.996591 
0.0690275 -0.0364883 0.996951 
0.0703753 -0.0286753 0.997112 
0.0719775 -0.021418 0.99718 
0.0729634 -0.0160622 0.997209 
0.0739149 -0.0119937 0.997196 
0.0751838 -0.00821805 0.997139 
0.0760134 -0.00508716 0.997097 
0.0772667 -0.002091 0.997012 
0.0775313 0.000687741 0.996993 
0.078065 0.00374516 0.996945 
0.0779789 0.00690833 0.996935 
0.0773505 0.0104676 0.996953 
0.075855 0.0145385 0.997016 
0.0741187 0.0194885 0.997063 
0.0722477 0.0255557 0.997063 
0.0704894 0.0334226 0.996956 
0.0683343 0.0433487 0.996724 
0.0659479 0.0564211 0.99623 
0.0628964 0.0728994 0.995358 
0.0592133 0.0947965 0.993738 
0.0549249 0.122057 0.991006 
0.0497594 0.156294 0.986461 
0.0417083 0.204754 0.977929 
0.0338577 0.264488 0.963799 
0.0245591 0.341556 0.939546 
0.0150258 0.428074 0.903624 
0.00564031 0.5366 0.843822 
0.00534669 0.573415 0.819251 
-0.00089299 0.701484 0.71269 
-0.00427883 0.815854 0.578235 
-0.00472229 0.926732 0.375691 
-0.00358588 0.99437 0.105905 
-0.00221659 0.99648 -0.0838526 
-0.00175557 0.977954 -0.20883 
-0.0002751 0.944613 -0.328187 
-0.000145992 0.872667 -0.488314 
-0.00168331 0.744941 -0.66712 
-0.00535361 0.626926 -0.779069 
-0.0103842 0.516041 -0.856506 
-0.0202942 0.396903 -0.91764 
-0.0283621 0.310793 -0.950059 
-0.0370051 0.242166 -0.969534 
-0.0448143 0.18869 -0.981018 
-0.051922 0.139687 -0.988838 
-0.0570181 0.108356 -0.99248 
-0.0614316 0.0836328 -0.994605 
-0.0637982 0.0652133 -0.995834 
-0.0672464 0.0493594 -0.996519 
-0.0695544 0.0384909 -0.996839 
-0.0712317 0.0296346 -0.997023 
-0.0736763 0.0224772 -0.997033 
-0.0751921 0.0173615 -0.997022 
-0.076387 0.0126891 -0.997001 
-0.077168 0.0089641 -0.996981 
-0.0777253 0.00559725 -0.996963 
-0.0780129 0.00240617 -0.996953 
-0.0776106 -0.000539753 -0.996987 
-0.0771632 -0.00340029 -0.997016 
-0.0759693 -0.00661591 -0.997092 
-0.0750148 -0.00986666 -0.997137 
-0.073774 -0.0135317 -0.997187 
-0.0724959 -0.0186582 -0.997198 
-0.0707809 -0.0242155 -0.997202 
-0.0695156 -0.0310363 -0.997102 
-0.0675556 -0.0413712 -0.996862 
-0.066465 -0.051963 -0.996439 
-0.0653162 -0.0653988 -0.995723 
-0.061665 -0.077474 -0.99509 
-0.0611018 -0.0855036 -0.994466 
-0.0544887 -0.086754 -0.994741 
-0.0365617 -0.064069 -0.997274 
-0.00439841 -0.0260261 -0.999631 
0.0102101 -0.0171698 0.999819 
0.0196461 -0.0517372 0.998463 
0.0507566 -0.0883075 0.994803 
0.0536661 -0.0835275 0.995063 
0.0509474 -0.0709769 0.996181 
0.0610692 -0.0611511 0.996263 
0.0555073 -0.0536971 0.997018 
0.061955 -0.0429817 0.997158 
0.0605576 -0.0338187 0.997596 
0.0638697 -0.0261045 0.997621 
0.0643767 -0.0201974 0.997725 
0.0633574 -0.0156787 0.997872 
0.0656609 -0.0116105 0.997778 
0.0668309 -0.00812741 0.997735 
0.0675286 -0.00478142 0.99771 
0.0682243 -0.00170158 0.997672 
0.0691814 0.00174099 0.997606 
0.0693346 0.00518441 0.997584 
0.0692356 0.00884198 0.997565 
0.0678434 0.0127768 0.997618 
0.0662161 0.0173509 0.997658 
0.0643587 0.0228559 0.997669 
0.0630086 0.0297287 0.997574 
0.061207 0.0382062 0.997398 
0.0593659 0.0492015 0.997027 
0.056714 0.0631012 0.996398 
0.05386 0.0813788 0.995231 
0.050033 0.104886 0.993229 
0.0458867 0.134484 0.989857 
0.0411587 0.172591 0.984138 
0.0326998 0.228729 0.972946 
0.0257615 0.29142 0.956253 
0.0168226 0.366855 0.930132 
0.00791275 0.464034 0.885787 
-0.001193 0.660332 0.750972 
-0.00440216 0.778004 0.62825 
-0.00492536 0.882682 0.469955 
-0.0032793 0.935785 0.352539 
-0.00411781 0.976969 0.213339 
-0.00127788 0.999482 0.0321633 
-0.000299305 0.975078 -0.221877 
0.000803009 0.88886 -0.458173 
0.00144961 0.812924 -0.582368 
-0.000333447 0.700185 -0.713963 
-0.00408304 0.584906 -0.811094 
-0.00825723 0.486739 -0.873513 
-0.0158256 0.417375 -0.908601 
-0.0194616 0.351477 -0.935999 
-0.0276029 0.274461 -0.961207 
-0.0357443 0.214545 -0.976065 
-0.0436219 0.163673 -0.985555 
-0.0475569 0.123024 -0.991268 
-0.0521885 0.0945085 -0.99416 
-0.0544269 0.0746382 -0.995729 
-0.0581278 0.0562837 -0.996725 
-0.0598138 0.0436322 -0.99726 
-0.0618704 0.034122 -0.997505 
-0.0643205 0.0259564 -0.997596 
-0.0653594 0.0201185 -0.997663 
-0.0678149 0.0151885 -0.997586 
-0.0674695 0.0108107 -0.997667 
-0.0682177 0.00694807 -0.99765 
-0.068997 0.00330418 -0.997615 
-0.0685115 -6.57301e-05 -0.997654 
-0.0681455 -0.00336972 -0.997674 
-0.0678361 -0.00649123 -0.997679 
-0.0663616 -0.0100166 -0.997749 
-0.0649935 -0.0136285 -0.997797 
-0.065249 -0.0177776 -0.997715 
-0.0617307 -0.0233978 -0.997823 
-0.0606191 -0.0298359 -0.997719 
-0.0610595 -0.0379084 -0.997418 
-0.058092 -0.0498728 -0.99707 
-0.0588738 -0.0624915 -0.996312 
-0.0539178 -0.0770418 -0.995573 
-0.0525246 -0.0878418 -0.994753 
-0.0434489 -0.0836082 -0.995553 
-0.027656 -0.0578467 -0.997941 
-0.0065184 -0.0257051 -0.999641 
0.00638948 -0.0221048 0.999734 
0.0168143 -0.0541389 0.998389 
0.0376851 -0.0776866 0.996267 
0.0404554 -0.0900605 0.995118 
0.0434134 -0.0843121 0.995497 
0.0445842 -0.0634235 0.996995 
0.0475733 -0.0474361 0.997745 
0.0499904 -0.0390239 0.997991 
0.0511362 -0.0295695 0.998258 
0.0526324 -0.0236023 0.998339 
0.0520569 -0.0188448 0.99847 
0.0528452 -0.0142765 0.998505 
0.0547987 -0.0106615 0.998445 
0.056099 -0.00712264 0.998404 
0.0556617 -0.00364719 0.998447 
0.0575464 -6.18996e-06 0.998347 
0.0576547 0.0037962 0.998333 
0.0575185 0.00775282 0.998318 
0.0562668 0.0117799 0.99835 
0.0550824 0.0162711 0.998353 
0.0536834 0.0215203 0.99833 
0.0525052 0.0280372 0.998231 
0.0508474 0.0360966 0.998058 
0.0493953 0.0463439 0.997707 
0.0470497 0.0594966 0.997123 
0.0446346 0.076748 0.996055 
0.0413467 0.099102 0.994222 
0.0371681 0.129048 0.990946 
0.033021 0.1678 0.985273 
0.0273067 0.21856 0.975447 
0.0180231 0.29641 0.954898 
0.00967626 0.391397 0.920177 
0.0021933 0.500322 0.865841 
-0.00282013 0.620156 0.784476 
0.00022476 0.578878 0.815418 
-0.0033931 0.688759 0.724978 
-0.00473146 0.809705 0.586817 
-0.00370653 0.875125 0.483894 
-0.00236657 0.977881 0.209127 
-0.00149197 0.996903 -0.0786411 
-0.000752524 0.999382 -0.0354746 
0.000443678 0.963257 -0.268583 
0.00145263 0.870551 -0.492071 
0.0024496 0.754806 -0.655945 
0.00111435 0.633504 -0.773743 
-0.00164032 0.522492 -0.85265 
-0.00923295 0.413117 -0.910633 
-0.0156161 0.325376 -0.945466 
-0.0224007 0.256297 -0.966344 
-0.0308208 0.198168 -0.979688 
-0.0366137 0.152067 -0.987698 
-0.0394537 0.114897 -0.992598 
-0.0415195 0.0912382 -0.994968 
-0.0462187 0.0689265 -0.996555 
-0.0479758 0.0534042 -0.997424 
-0.0491959 0.0416378 -0.997925 
-0.0522687 0.0320407 -0.998123 
-0.0530028 0.02513 -0.998282 
-0.054404 0.0192673 -0.998337 
-0.0565938 0.0144404 -0.998297 
-0.0558219 0.00996667 -0.998395 
-0.0568739 0.00581382 -0.998368 
-0.0567883 0.0020303 -0.998388 
-0.0567371 -0.00172297 -0.998392 
-0.0558941 -0.0052622 -0.998427 
-0.0561702 -0.00862628 -0.998388 
-0.0540373 -0.0122296 -0.998468 
-0.0534638 -0.0160864 -0.998444 
-0.0529001 -0.0202846 -0.998398 
-0.0494474 -0.0261642 -0.998438 
-0.0490247 -0.0331681 -0.998251 
-0.0503708 -0.0421555 -0.997844 
-0.0455868 -0.0526462 -0.997577 
-0.0480981 -0.0637663 -0.99681 
-0.043239 -0.0785607 -0.995976 
-0.0431038 -0.0892215 -0.995083 
-0.035459 -0.086468 -0.995626 
-0.0199621 -0.0549415 -0.998288 
-0.00566794 -0.0250429 -0.999661 
0.0034073 -0.0264965 0.999633 
0.015234 -0.0614743 0.997991 
0.0304891 -0.0838903 0.99601 
0.0318883 -0.0903449 0.995405 
0.0372129 -0.0778081 0.996278 
0.0331461 -0.0658945 0.99728 
0.0381856 -0.0533763 0.997848 
0.0359948 -0.0422793 0.998462 
0.0411306 -0.0345205 0.998561 
0.0399996 -0.0274844 0.998826 
0.0409043 -0.0225278 0.998913 
0.042505 -0.0177155 0.998943 
0.0425397 -0.0137866 0.999004 
0.0447096 -0.0101783 0.998952 
0.0453835 -0.00660597 0.998951 
0.0455547 -0.00260207 0.998962 
0.0468214 0.0012645 0.998906 
0.0467302 0.00536942 0.998897 
0.0456453 0.00940007 0.998917 
0.0448637 0.013721 0.998903 
0.0440152 0.0185168 0.998863 
0.0431224 0.0241237 0.998782 
0.0419498 0.0308833 0.998646 
0.0406364 0.0394373 0.998399 
0.0391549 0.0501574 0.997977 
0.0371738 0.0644 0.997235 
0.0346921 0.0827735 0.995969 
0.0316393 0.107225 0.993736 
0.0275907 0.140018 0.98977 
0.0235053 0.181691 0.98308 
0.0184626 0.241439 0.970246 
0.0104078 0.329479 0.944112 
0.00401565 0.424826 0.905271 
-0.000768195 0.529365 0.848399 
-0.00472968 0.733729 0.679435 
-0.00321799 0.882794 0.469754 
-0.00106022 0.940529 0.339708 
0.000159141 0.980731 0.195375 
-0.00232018 0.961266 0.275622 
-0.00144375 0.9922 0.124722 
-0.000557265 0.999548 0.0304005 
-0.000963047 0.972965 -0.230939 
0.000397331 0.906153 -0.42297 
0.00242654 0.791076 -0.611705 
0.00344778 0.728207 -0.685349 
0.00339398 0.609112 -0.793082 
-0.00402357 0.421043 -0.90704 
-0.00925033 0.331735 -0.943329 
-0.0153052 0.258441 -0.965912 
-0.0227848 0.200119 -0.979512 
-0.0236058 0.169054 -0.985329 
-0.0298965 0.13608 -0.990251 
-0.0303438 0.106698 -0.993833 
-0.0352459 0.0805843 -0.996129 
-0.0375349 0.0624435 -0.997346 
-0.0388684 0.0483886 -0.998076 
-0.0412857 0.0369904 -0.998466 
-0.0421824 0.0291467 -0.998688 
-0.0435073 0.0225664 -0.998802 
-0.0446942 0.0170703 -0.998859 
-0.0458557 0.0125301 -0.998873 
-0.0458507 0.00768793 -0.998923 
-0.045756 0.00348871 -0.99895 
-0.0460472 -0.000677776 -0.998943 
-0.0452582 -0.00463423 -0.998968 
-0.0452204 -0.00845943 -0.998945 
-0.0441128 -0.0119819 -0.998959 
-0.0432297 -0.0158783 -0.998943 
-0.041681 -0.0201614 -0.998932 
-0.0403567 -0.0249479 -0.998878 
-0.0385603 -0.0320977 -0.998746 
-0.0394032 -0.0409074 -0.99839 
-0.0361473 -0.0530413 -0.997942 
-0.0366448 -0.0677633 -0.997033 
-0.0322514 -0.0819472 -0.996119 
-0.0334275 -0.0907718 -0.995315 
-0.0272015 -0.0900022 -0.995573 
-0.0191647 -0.06403 -0.997763 
-0.00328522 -0.0258751 -0.999651 
0.00287665 -0.0274756 0.999609 
0.011589 -0.0621363 0.997999 
0.0244961 -0.0894916 0.995689 
0.0229697 -0.0924409 0.995457 
0.0282079 -0.0827891 0.996172 
0.0254179 -0.0682316 0.99735 
0.0287941 -0.0524363 0.998213 
0.0274531 -0.0412606 0.998775 
0.0314176 -0.0331651 0.99896 
0.0297492 -0.0273457 0.999188 
0.0325145 -0.0220703 0.999231 
0.0337987 -0.0176477 0.999277 
0.0337327 -0.0137813 0.99934 
0.0357636 -0.0100077 0.999314 
0.0369159 -0.00583604 0.999305 
0.0365338 -0.00146974 0.999335 
0.0376046 0.00278083 0.999292 
0.0365661 0.00703506 0.999308 
0.0359739 0.0115513 0.999293 
0.0355261 0.0163294 0.999239 
0.0348736 0.0216148 0.999161 
0.0339879 0.0278537 0.999038 
0.0329992 0.0356599 0.998823 
0.0316785 0.0456356 0.998459 
0.0302863 0.0585472 0.997829 
0.0280933 0.0757155 0.996738 
0.0254662 0.0986429 0.994801 
0.0221522 0.129183 0.991378 
0.0179926 0.171676 0.984995 
0.0142003 0.228139 0.973532 
0.00873899 0.307118 0.951635 
0.00254294 0.408065 0.912956 
-0.00109781 0.517698 0.855568 
-0.00253225 0.634467 0.772948 
-0.00369102 0.639597 0.768705 
-0.00192598 0.85286 0.522126 
0.0041778 0.939631 0.342209 
0.00356889 0.99678 0.0798308 
0.00430478 0.998698 0.0511936 
0.00381886 0.9999 -0.0136347 
-0.00229828 0.994477 -0.104763 
-0.00219749 0.990836 -0.135092 
-0.00366603 0.969437 -0.24531 
0.000485338 0.846588 -0.532252 
0.00469237 0.657418 -0.753515 
0.00474358 0.553314 -0.832964 
0.00168185 0.500033 -0.866012 
-0.00136149 0.394959 -0.918704 
-0.00617642 0.30915 -0.951 
-0.0121583 0.236444 -0.971576 
-0.017312 0.17692 -0.984078 
-0.0221002 0.131852 -0.991029 
-0.0256325 0.0950309 -0.995148 
-0.0282457 0.0735042 -0.9969 
-0.0302089 0.057015 -0.99792 
-0.0322216 0.0434182 -0.998541 
-0.0329773 0.0342084 -0.998874 
-0.0342304 0.026682 -0.999061 
-0.0353048 0.0206244 -0.999168 
-0.0356539 0.0156003 -0.999246 
-0.0374913 0.0108835 -0.999241 
-0.0363945 0.00627011 -0.999322 
-0.0368082 0.00173412 -0.999325 
-0.0364048 -0.00250765 -0.999338 
-0.0362532 -0.00680037 -0.999323 
-0.0352962 -0.010641 -0.999324 
-0.035082 -0.0144296 -0.999284 
-0.033556 -0.0183152 -0.999273 
-0.031594 -0.0226415 -0.999248 
-0.0315358 -0.0281159 -0.999111 
-0.0288179 -0.0349622 -0.998977 
-0.0305109 -0.0422788 -0.998644 
-0.0267893 -0.0523842 -0.998272 
-0.0282527 -0.065119 -0.997482 
-0.0247534 -0.0803537 -0.996463 
-0.0241708 -0.0923562 -0.995437 
-0.0194765 -0.0889633 -0.995847 
-0.0123653 -0.0589593 -0.998182 
-0.0032478 -0.0267086 -0.999635 
0.00269429 -0.0276869 0.999601 
0.00861022 -0.0628908 0.997982 
0.0171831 -0.0900497 0.995791 
0.0165966 -0.0940669 0.995431 
0.0205439 -0.0820714 0.996419 
0.0181394 -0.0675714 0.997554 
0.0217119 -0.0546291 0.998275 