# vtk DataFile Version 3.0 
Exported using Morpho https://github.com/Morpho-lang/morpho 
ASCII 
DATASET UNSTRUCTURED_GRID 

POINTS 1978 float 
-8.48528 -2.82843 -4.23008e-10 
-8.25768 -2.82843 4.24805e-10 
-8.03255 -2.82843 3.1054e-09 
-7.75697 -2.82843 3.2655e-09 
-7.47423 -2.82843 2.51374e-09 
-7.22055 -2.82843 1.57699e-09 
-7.00569 -2.82843 1.27772e-09 
-6.77614 -2.82843 1.00912e-09 
-6.56099 -2.82843 7.80116e-10 
-6.34457 -2.82843 5.6196e-10 
-6.14397 -2.82843 4.00106e-10 
-5.92718 -2.82843 3.03408e-10 
-5.71411 -2.82843 1.84903e-10 
-5.51083 -2.82843 7.31756e-11 
-5.29459 -2.82843 2.00864e-11 
-5.0838 -2.82843 -4.61932e-11 
-4.867 -2.82843 -1.00821e-10 
-4.66164 -2.82843 -1.90443e-10 
-4.44292 -2.82843 -2.64423e-10 
-4.2272 -2.82843 -3.55052e-10 
-4.00974 -2.82843 -4.54041e-10 
-3.79935 -2.82843 -5.94817e-10 
-3.58324 -2.82843 -7.67401e-10 
-3.37088 -2.82843 -1.00547e-09 
-3.14883 -2.82843 -1.24822e-09 
-2.93855 -2.82843 -1.50203e-09 
-2.72742 -2.82843 -1.71925e-09 
-2.53178 -2.82843 -2.02694e-09 
-2.31984 -2.82843 -2.33179e-09 
-2.10958 -2.82843 -2.44083e-09 
-1.90074 -2.82843 -2.30854e-09 
-1.69625 -2.82843 -2.00437e-09 
-1.49422 -2.82843 -1.56594e-09 
-1.27489 -2.82843 -1.12093e-09 
-1.10399 -2.82843 -7.82872e-10 
-0.846946 -2.82843 -4.45207e-10 
-0.623015 -2.82843 5.60469e-11 
-0.4312 -2.82843 -1.77318e-09 
-0.235529 -2.82843 -2.30941e-09 
0.00858535 -2.82843 3.89842e-09 
0.220141 -2.82843 1.23698e-09 
0.423079 -2.82843 -1.88582e-09 
0.644568 -2.82843 3.41553e-10 
0.870186 -2.82843 1.29407e-09 
1.07036 -2.82843 6.9177e-10 
1.26469 -2.82843 4.06318e-10 
1.45259 -2.82843 1.7242e-09 
1.70173 -2.82843 2.20458e-09 
1.88675 -2.82843 2.21084e-09 
2.10363 -2.82843 2.62211e-09 
2.32975 -2.82843 2.28892e-09 
2.51825 -2.82843 2.04929e-09 
2.74492 -2.82843 1.92032e-09 
2.96423 -2.82843 1.50425e-09 
3.17469 -2.82843 1.15434e-09 
3.38263 -2.82843 9.67141e-10 
3.60876 -2.82843 7.60596e-10 
3.81185 -2.82843 5.5809e-10 
4.02661 -2.82843 4.70194e-10 
4.25248 -2.82843 3.62742e-10 
4.45094 -2.82843 2.39449e-10 
4.6627 -2.82843 1.90083e-10 
4.87129 -2.82843 1.12444e-10 
5.07421 -2.82843 3.55644e-11 
5.28964 -2.82843 -1.06019e-11 
5.50039 -2.82843 -8.94502e-11 
5.70435 -2.82843 -1.96265e-10 
5.92257 -2.82843 -2.95933e-10 
6.14302 -2.82843 -4.0318e-10 
6.3424 -2.82843 -6.23624e-10 
6.58079 -2.82843 -7.85249e-10 
6.79082 -2.82843 -9.14386e-10 
6.99146 -2.82843 -1.34293e-09 
7.25028 -2.82843 -1.7137e-09 
7.48059 -2.82843 -2.05824e-09 
7.72244 -2.82843 -2.83898e-09 
7.98925 -2.82843 -3.12496e-09 
8.17445 -2.82843 -8.3877e-10 
8.48528 -2.82843 2.20717e-10 
-8.48528 -2.59172 2.30087e-10 
-8.25273 -2.58156 -1.60678e-09 
-8.01887 -2.58162 4.29722e-09 
-7.78299 -2.623 2.1892e-09 
-7.52229 -2.63404 2.40104e-09 
-7.23505 -2.60177 4.32165e-10 
-6.99241 -2.59934 2.55988e-09 
-6.77841 -2.5839 6.79473e-10 
-6.5443 -2.59764 1.13906e-09 
-6.33276 -2.57411 7.94055e-10 
-6.11005 -2.59628 5.69762e-10 
-5.89193 -2.5892 4.17675e-10 
-5.68117 -2.57616 3.2158e-10 
-5.46417 -2.59174 1.66863e-10 
-5.24895 -2.58597 7.16499e-11 
-5.03058 -2.59297 -3.86214e-11 
-4.82035 -2.58069 -1.49892e-10 
-4.60176 -2.59583 -2.79992e-10 
-4.3826 -2.59169 -4.14952e-10 
-4.1639 -2.59184 -5.61455e-10 
-3.95173 -2.58133 -7.5891e-10 
-3.73823 -2.58634 -9.44518e-10 
-3.5254 -2.5843 -1.29327e-09 
-3.30775 -2.59741 -1.49397e-09 
-3.09521 -2.5911 -2.01765e-09 
-2.88321 -2.59783 -2.24411e-09 
-2.6816 -2.58688 -2.87264e-09 
-2.47317 -2.60852 -3.05374e-09 
-2.25678 -2.60589 -3.31449e-09 
-2.04739 -2.60492 -3.59654e-09 
-1.83476 -2.59863 -3.87358e-09 
-1.62388 -2.59053 -3.24729e-09 
-1.41624 -2.60176 -3.70317e-09 
-1.23923 -2.51668 6.29731e-10 
-1.0206 -2.62999 6.06703e-10 
-0.790292 -2.59002 8.66422e-10 
-0.590053 -2.53177 5.75246e-09 
-0.391509 -2.48544 3.72154e-09 
-0.176803 -2.54001 -5.12011e-10 
0.0170032 -2.47004 2.76358e-09 
0.207425 -2.5323 2.86426e-09 
0.407079 -2.50705 -6.47006e-09 
0.609826 -2.56974 -9.16886e-10 
0.837594 -2.57951 -1.79172e-09 
1.06032 -2.57151 6.86279e-10 
1.2683 -2.57391 2.97281e-10 
1.51725 -2.65032 1.93897e-09 
1.72377 -2.58874 4.17807e-09 
1.93874 -2.62009 2.72397e-09 
2.16803 -2.62402 3.23399e-09 
2.36736 -2.57913 3.78803e-09 
2.58227 -2.61884 2.60713e-09 
2.80449 -2.6058 2.48167e-09 
3.01276 -2.59116 2.1256e-09 
3.22046 -2.58349 1.70931e-09 
3.44254 -2.60188 1.28917e-09 
3.64956 -2.57522 1.14288e-09 
3.86402 -2.58896 7.94579e-10 
4.09144 -2.60184 6.06205e-10 
4.29983 -2.57124 5.35625e-10 
4.5143 -2.58978 3.0688e-10 
4.72842 -2.5866 2.03897e-10 
4.94049 -2.58138 8.7389e-11 
5.15507 -2.59561 -3.01644e-11 
5.37378 -2.58994 -1.13419e-10 
5.58489 -2.58069 -2.62722e-10 
5.80105 -2.59538 -3.9232e-10 
6.02545 -2.59571 -5.05904e-10 
6.23876 -2.56817 -7.78648e-10 
6.45818 -2.60944 -8.16964e-10 
6.68464 -2.57673 -1.15659e-09 
6.89277 -2.56212 -1.5671e-09 
7.11849 -2.62177 -1.58483e-09 
7.36754 -2.59325 -2.10554e-09 
7.60433 -2.60311 -2.12744e-09 
7.8598 -2.62328 -2.34903e-09 
8.0725 -2.52942 -4.1801e-09 
8.29774 -2.64349 1.71317e-09 
8.48528 -2.52329 3.3156e-11 
-8.48528 -2.35259 2.71749e-10 
-8.23489 -2.34772 4.56024e-10 
-7.9903 -2.34161 3.56082e-09 
-7.75251 -2.40156 2.04296e-09 
-7.55793 -2.24613 1.51789e-09 
-7.4551 -2.44684 3.19889e-09 
-7.17263 -2.3884 2.25785e-09 
-6.94796 -2.34013 1.90319e-09 
-6.7046 -2.37144 1.47631e-09 
-6.48426 -2.35074 1.19031e-09 
-6.2415 -2.3534 8.97584e-10 
-6.02475 -2.35695 6.47364e-10 
-5.8074 -2.34183 4.71663e-10 
-5.57956 -2.34652 3.33102e-10 
-5.36469 -2.35148 1.60251e-10 
-5.1409 -2.35605 2.45669e-11 
-4.92773 -2.34419 -1.21219e-10 
-4.70393 -2.35681 -2.61177e-10 
-4.48571 -2.36093 -4.30696e-10 
-4.26348 -2.35778 -6.04076e-10 
-4.04903 -2.34321 -7.95105e-10 
-3.83211 -2.34223 -1.02927e-09 
-3.61901 -2.34393 -1.34492e-09 
-3.40041 -2.35791 -1.68906e-09 
-3.18872 -2.35814 -2.1512e-09 
-2.97364 -2.36452 -2.62749e-09 
-2.76781 -2.35366 -3.1041e-09 
-2.556 -2.37109 -3.78745e-09 
-2.34782 -2.39141 -4.48592e-09 
-2.1282 -2.37567 -4.48925e-09 
-1.91836 -2.37969 -4.78301e-09 
-1.69633 -2.36576 -4.18697e-09 
-1.4761 -2.35066 -1.87016e-10 
-1.25678 -2.27794 -3.51968e-09 
-1.02149 -2.39641 5.3227e-10 
-0.82063 -2.32391 8.60221e-10 
-0.609655 -2.24618 3.83759e-09 
-0.412175 -2.15946 9.61049e-09 
-0.20413 -2.20368 3.70538e-09 
0.0250641 -2.16346 -8.73427e-09 
0.246801 -2.2114 -1.32474e-08 
0.442897 -2.15005 -2.00838e-09 
0.619122 -2.27721 7.20158e-09 
0.828927 -2.31752 -6.82121e-09 
1.05257 -2.32522 -2.97726e-09 
1.26777 -2.3251 -1.5579e-09 
1.47317 -2.43964 2.66967e-09 
1.65624 -2.3547 4.40149e-09 
1.87287 -2.3936 5.083e-09 
2.08927 -2.41891 4.79263e-09 
2.30002 -2.35784 4.51474e-09 
2.52782 -2.38418 4.01584e-09 
2.73267 -2.39206 3.41858e-09 
2.95018 -2.35545 2.74915e-09 
3.15307 -2.34407 2.21425e-09 
3.37071 -2.36697 1.77992e-09 
3.57695 -2.33531 1.38702e-09 
3.79069 -2.3439 1.09195e-09 
4.00801 -2.37023 8.6097e-10 
4.21725 -2.33533 6.17467e-10 
4.43911 -2.34499 4.58573e-10 
4.6495 -2.34723 2.95764e-10 
4.86214 -2.34472 1.50752e-10 
5.08065 -2.35229 2.71479e-11 
5.29172 -2.36079 -1.13449e-10 
5.50845 -2.34261 -2.45776e-10 
5.72684 -2.35355 -4.0999e-10 
5.94364 -2.36597 -6.00021e-10 
6.15945 -2.33568 -7.80404e-10 
6.3931 -2.35761 -9.98484e-10 
6.60178 -2.35618 -1.29467e-09 
6.82719 -2.31069 -1.50413e-09 
7.05631 -2.36722 -1.99372e-09 
7.2746 -2.38926 -2.39338e-09 
7.53428 -2.36872 -2.22744e-09 
7.77666 -2.40107 -2.24884e-09 
7.99303 -2.30529 -2.99681e-09 
8.25837 -2.3693 1.08289e-09 
8.48528 -2.27675 5.76439e-11 
-8.48528 -2.09573 -1.54819e-10 
-8.26387 -2.11462 -1.3869e-09 
-8.03142 -2.09969 1.55746e-09 
-7.7863 -2.14818 1.10323e-09 
-7.50814 -2.02904 4.9214e-10 
-7.30453 -2.2196 1.57961e-09 
-7.06364 -2.12567 1.12152e-09 
-6.79952 -2.13753 9.20181e-10 
-6.58684 -2.12442 7.53215e-10 
-6.34816 -2.13881 5.95462e-10 
-6.11946 -2.11043 4.68377e-10 
-5.91228 -2.10899 3.39199e-10 
-5.68809 -2.11781 2.46144e-10 
-5.46744 -2.1082 1.30207e-10 
-5.25149 -2.1239 5.80692e-11 
-5.0389 -2.11029 -2.82016e-11 
-4.81593 -2.12174 -1.16492e-10 
-4.59878 -2.12541 -2.16584e-10 
-4.38149 -2.12875 -3.08676e-10 
-4.16923 -2.11161 -4.11574e-10 
-3.95339 -2.10547 -5.33649e-10 
-3.73995 -2.1035 -7.03841e-10 
-3.52363 -2.11748 -8.96054e-10 
-3.31381 -2.1216 -1.13906e-09 
-3.10075 -2.13046 -1.43701e-09 
-2.89535 -2.12529 -1.72979e-09 
-2.68054 -2.13163 -2.12312e-09 
-2.47053 -2.14724 -2.61006e-09 
-2.2617 -2.16667 -3.41993e-09 
-2.03894 -2.1419 -3.19221e-09 
-1.8235 -2.15614 -2.78705e-09 
-1.59608 -2.12861 -2.26299e-09 
-1.38588 -2.07656 2.85422e-09 
-1.16575 -1.94571 -3.55498e-10 
-1.0624 -2.14266 5.47067e-09 
-0.827538 -2.06974 -1.14066e-09 
-0.605022 -1.95445 7.7295e-09 
-0.339867 -1.8759 -6.28737e-10 
-0.096947 -1.89364 2.20802e-09 
0.076806 -1.62135 2.68768e-09 
0.179705 -1.89352 2.21921e-09 
0.316002 -1.61332 -1.17759e-09 
0.458279 -1.89531 -1.11204e-09 
0.725736 -1.99564 -1.10656e-08 
0.95087 -2.0658 -1.65969e-09 
1.17879 -2.07763 -1.46496e-09 
1.44004 -2.18147 1.09771e-09 
1.67683 -2.13095 2.51435e-09 
1.89821 -2.17179 2.77658e-09 
2.11016 -2.18662 3.35608e-09 
2.36659 -2.15813 2.67842e-09 
2.57305 -2.14408 2.30226e-09 
2.78281 -2.16166 2.13434e-09 
2.98614 -2.1058 1.50927e-09 
3.20629 -2.122 1.2685e-09 
3.40755 -2.11732 1.05096e-09 
3.62337 -2.09921 7.39961e-10 
3.84154 -2.11677 6.40677e-10 
4.04408 -2.12042 4.86937e-10 
4.27271 -2.10869 3.33031e-10 
4.4842 -2.10396 2.36907e-10 
4.69742 -2.10793 1.51778e-10 
4.91641 -2.11586 7.57938e-11 
5.12979 -2.11369 -1.37212e-11 
5.34133 -2.1243 -9.43849e-11 
5.56528 -2.1129 -1.68538e-10 
5.78253 -2.12121 -2.79811e-10 
5.99289 -2.12136 -3.96843e-10 
6.23423 -2.12102 -5.21092e-10 
6.44397 -2.10492 -6.49953e-10 
6.65702 -2.11135 -8.25138e-10 
6.91344 -2.09962 -9.58732e-10 
7.12939 -2.12928 -1.24263e-09 
7.36051 -2.1753 -1.46046e-09 
7.55381 -2.08058 -6.5406e-10 
7.73734 -2.16829 -1.15392e-09 
7.95451 -2.07106 -9.44285e-10 
8.20364 -2.14486 -6.5531e-10 
8.48528 -2.07852 -1.42061e-10 
-8.48528 -1.80931 -1.9944e-10 
-8.2903 -1.86821 -1.9662e-09 
-7.88643 -1.90164 3.28744e-10 
-7.66804 -1.89502 -5.94892e-11 
[...]
POINT_DATA 1978 
VECTORS vectors float
0.00153576 -0.00288265 0.999995 
0.00146769 -0.0712051 0.99746 
0.00173461 -0.0984752 0.995138 
0.00211184 -0.0897434 0.995963 
0.00185873 -0.0713251 0.997451 
0.00156848 -0.0556468 0.998449 
0.00156484 -0.0444622 0.99901 
0.00142821 -0.0345515 0.999402 
0.00148335 -0.0263506 0.999652 
0.00145503 -0.019386 0.999811 
0.00145858 -0.0140914 0.9999 
0.00142262 -0.00960585 0.999953 
0.00149424 -0.00587068 0.999982 
0.00148031 -0.00293336 0.999995 
0.00150438 -0.000585412 0.999999 
0.00150506 0.00134101 0.999998 
0.00151673 0.00336953 0.999993 
0.00152882 0.00544829 0.999984 
0.00152678 0.00791588 0.999968 
0.00153313 0.0109354 0.999939 
0.00150944 0.0149033 0.999888 
0.00146993 0.0198808 0.999801 
0.00147778 0.0264964 0.999648 
0.00146082 0.034933 0.999389 
0.00141959 0.0465883 0.998913 
0.00131309 0.0611991 0.998125 
0.00124956 0.080561 0.996749 
0.00118598 0.103635 0.994615 
0.00108936 0.135403 0.99079 
0.00100899 0.17551 0.984477 
0.000878293 0.225529 0.974236 
0.000733046 0.286009 0.958227 
0.000516998 0.359334 0.933209 
0.000354205 0.456978 0.889478 
0.00018106 0.545242 0.838279 
2.86153e-05 0.684342 0.729161 
-6.82459e-05 0.804715 0.593661 
-0.000169331 0.896487 0.443071 
-7.51127e-05 0.967961 0.251101 
-2.36203e-05 0.999806 -0.0197008 
9.20825e-05 0.971379 -0.237537 
0.000115538 0.903995 -0.427543 
0.000126871 0.798358 -0.602184 
-1.93658e-06 0.66789 -0.74426 
-0.000118978 0.558646 -0.829406 
-0.000420469 0.456786 -0.889576 
-0.000565194 0.377214 -0.926126 
-0.000736414 0.285956 -0.958243 
-0.00100234 0.229938 -0.973205 
-0.000944255 0.178139 -0.984005 
-0.0011709 0.134741 -0.99088 
-0.00128944 0.105648 -0.994403 
-0.00128133 0.0791671 -0.996861 
-0.00138711 0.0592951 -0.99824 
-0.00144307 0.0447591 -0.998997 
-0.00140543 0.0341061 -0.999417 
-0.00145112 0.0255313 -0.999673 
-0.00154932 0.0194267 -0.99981 
-0.00145449 0.01468 -0.999891 
-0.00150991 0.0108964 -0.99994 
-0.00150177 0.00807671 -0.999966 
-0.00139849 0.00565417 -0.999983 
-0.00149099 0.00349735 -0.999993 
-0.0014825 0.00140305 -0.999998 
-0.00144491 -0.000734645 -0.999999 
-0.00151234 -0.00310872 -0.999994 
-0.00151228 -0.00595066 -0.999981 
-0.00143801 -0.00945734 -0.999954 
-0.00157294 -0.0141135 -0.999899 
-0.00152685 -0.0193419 -0.999812 
-0.00140179 -0.0267875 -0.99964 
-0.00159921 -0.0347147 -0.999396 
-0.00152164 -0.0435948 -0.999048 
-0.00164433 -0.0568385 -0.998382 
-0.00176244 -0.0716677 -0.997427 
-0.00156168 -0.0892789 -0.996006 
-0.00198667 -0.103437 -0.994634 
-0.00145101 -0.0869362 -0.996213 
-0.00130589 -0.00236883 -0.999996 
-0.000150215 -0.00206971 0.999998 
0.016903 -0.0619881 0.997934 
0.0348108 -0.0865658 0.995638 
0.0337438 -0.0878187 0.995565 
0.0344813 -0.0737283 0.996682 
0.0377809 -0.0569654 0.997661 
0.0441696 -0.0440471 0.998052 
0.0429499 -0.0348017 0.998471 
0.0446886 -0.0263448 0.998654 
0.0486112 -0.0197198 0.998623 
0.0457371 -0.0139356 0.998856 
0.0475808 -0.00962138 0.998821 
0.0504057 -0.00614894 0.99871 
0.0484868 -0.00310487 0.998819 
0.0501032 -0.000655821 0.998744 
0.0492102 0.00164417 0.998787 
0.0514179 0.00383779 0.99867 
0.0486894 0.00628106 0.998794 
0.049057 0.00917091 0.998754 
0.0484151 0.0127401 0.998746 
0.0490639 0.0171468 0.998648 
0.0472161 0.0227452 0.998626 
0.046709 0.0300233 0.998457 
0.043528 0.039678 0.998264 
0.0434237 0.052255 0.997689 
0.0407879 0.0685008 0.996817 
0.0402543 0.0887136 0.995243 
0.0348256 0.114721 0.992787 
0.0315005 0.149967 0.988189 
0.0275714 0.193346 0.980743 
0.0234966 0.247976 0.968481 
0.0185539 0.315534 0.948733 
0.0126369 0.396691 0.917865 
0.0099758 0.482159 0.876027 
0.00385307 0.593253 0.805007 
0.000858126 0.715501 0.698611 
-0.0014448 0.817386 0.576088 
-0.00216267 0.912058 0.410055 
-0.00107096 0.981698 0.190442 
-0.000344556 0.999826 -0.018667 
9.73727e-05 0.973559 -0.228437 
-0.000436655 0.90958 -0.415529 
-0.00122141 0.818069 -0.575118 
-0.00272278 0.692181 -0.721719 
-0.00620362 0.564465 -0.825434 
-0.0105114 0.4607 -0.887494 
-0.0127657 0.355326 -0.934655 
-0.0217596 0.284157 -0.958531 
-0.023761 0.221456 -0.974881 
-0.0280643 0.168014 -0.985385 
-0.036411 0.132294 -0.990542 
-0.0346205 0.100713 -0.994313 
-0.0387808 0.0759293 -0.996359 
-0.042471 0.0579831 -0.997414 
-0.0449288 0.0443484 -0.998005 
-0.043665 0.0331451 -0.998496 
-0.0485799 0.0255224 -0.998493 
-0.0474315 0.0192691 -0.998689 
-0.0463887 0.0141859 -0.998823 
-0.0519167 0.0106673 -0.998594 
-0.0494365 0.00760223 -0.998748 
-0.0501959 0.00500129 -0.998727 
-0.0514506 0.0026354 -0.998672 
-0.048765 0.000285635 -0.99881 
-0.0495332 -0.00224633 -0.99877 
-0.050399 -0.00493828 -0.998717 
-0.0472293 -0.00807947 -0.998851 
-0.0464815 -0.0122175 -0.998844 
-0.0497044 -0.0171839 -0.998616 
-0.0424351 -0.0231971 -0.99883 
-0.0465722 -0.0309164 -0.998436 
-0.0473534 -0.0392654 -0.998106 
-0.0377852 -0.0499384 -0.998037 
-0.0408336 -0.0642795 -0.997096 
-0.0381408 -0.0793631 -0.996116 
-0.0344341 -0.0925335 -0.995114 
-0.0374524 -0.0829429 -0.99585 
-0.0100521 -0.0533871 -0.998523 
0.000159047 -0.00247925 -0.999997 
0.000210967 -0.00224065 0.999997 
0.0283763 -0.0604427 0.997768 
0.0517316 -0.084135 0.995111 
0.0538084 -0.0839184 0.995019 
0.0623746 -0.0762125 0.995139 
0.0551199 -0.0690606 0.996089 
0.060944 -0.053539 0.996704 
0.065751 -0.0421468 0.996946 
0.0651571 -0.0323175 0.997352 
0.0681562 -0.0246036 0.997371 
0.0694767 -0.0178637 0.997424 
0.0704211 -0.0130307 0.997432 
0.0720598 -0.00906907 0.997359 
0.0729072 -0.00553408 0.997323 
0.0735624 -0.00270875 0.997287 
0.0740948 -1.66483e-05 0.997251 
0.0751069 0.0024641 0.997172 
0.0744528 0.0052221 0.997211 
0.0738407 0.00819987 0.997236 
0.0730357 0.0117708 0.99726 
0.0724786 0.0160438 0.997241 
0.0709017 0.0213722 0.997254 
0.0692475 0.028093 0.997204 
0.0667454 0.0370223 0.997083 
0.0648352 0.0484253 0.99672 
0.0621335 0.0635734 0.996041 
0.0596839 0.0825489 0.994798 
0.055326 0.107151 0.992702 
0.049765 0.137792 0.98921 
0.043974 0.180258 0.982636 
0.0370794 0.231096 0.972224 
0.0290624 0.298469 0.953977 
0.0202459 0.381144 0.924294 
0.0129436 0.476317 0.879179 
0.00553161 0.590334 0.80714 
0.000688398 0.699746 0.714392 
-0.00303778 0.823989 0.566598 
-0.00393878 0.914566 0.404417 
-0.00321949 0.973737 0.227652 
-0.00275992 0.999984 -0.00496961 
-0.00143685 0.970179 -0.242387 
-0.00133042 0.894808 -0.446449 
-0.00213236 0.806411 -0.591352 
-0.00430388 0.692524 -0.721382 
-0.00834618 0.571731 -0.820399 
-0.0146983 0.468475 -0.883355 
-0.0204332 0.376489 -0.926196 
-0.0287013 0.311201 -0.949911 
-0.0356288 0.24399 -0.969123 
-0.0413988 0.188646 -0.981172 
-0.0495071 0.147489 -0.987824 
-0.0537954 0.111395 -0.992319 
-0.0572944 0.0857506 -0.994668 
-0.0620346 0.0654329 -0.995927 
-0.0650522 0.0505699 -0.9966 
-0.0661635 0.0382061 -0.997077 
-0.0695837 0.0296734 -0.997135 
-0.0708481 0.0226069 -0.997231 
-0.0709019 0.0169375 -0.99734 
-0.0739945 0.0128838 -0.997175 
-0.074444 0.00913883 -0.997183 
-0.074826 0.00610328 -0.997178 
-0.0753371 0.00334179 -0.997153 
-0.0747429 0.000635538 -0.997203 
-0.0738514 -0.00195506 -0.997267 
-0.0739514 -0.00483175 -0.99725 
-0.0723661 -0.00790232 -0.997347 
-0.0705097 -0.0114888 -0.997445 
-0.0708856 -0.0160703 -0.997355 
-0.0682977 -0.0219259 -0.997424 
-0.0671008 -0.028381 -0.997342 
-0.0673486 -0.0369705 -0.997044 
-0.0635465 -0.0472567 -0.996859 
-0.0608389 -0.0591236 -0.996395 
-0.0590464 -0.0747082 -0.995456 
-0.0552019 -0.0866094 -0.994712 
-0.0533558 -0.0843658 -0.995005 
-0.0249634 -0.0558948 -0.998125 
-0.0011806 -0.00210061 -0.999997 
0.000906997 -0.0024631 0.999997 
0.0246191 -0.0533792 0.998271 
0.0479857 -0.0797274 0.995661 
0.0580965 -0.084592 0.994721 
0.05973 -0.0745227 0.995429 
0.06473 -0.0615516 0.996003 
0.0659736 -0.0487297 0.996631 
0.0683533 -0.0364786 0.996994 
0.0697157 -0.0286806 0.997155 
0.0713207 -0.021429 0.997223 
0.0722994 -0.0160729 0.997253 
0.0732768 -0.0120022 0.997239 
0.0745276 -0.00822489 0.997185 
0.0753635 -0.00508369 0.997143 
0.0765734 -0.0020893 0.997062 
0.0768646 0.000691799 0.997041 
0.0773716 0.00374898 0.996995 
0.077273 0.00691394 0.996986 
0.0766442 0.0104693 0.997004 
0.0751889 0.0145438 0.997063 
0.0734847 0.0194996 0.997106 
0.071638 0.0255837 0.997103 
0.0698804 0.0334562 0.996994 
0.0677369 0.043399 0.996759 
0.0653552 0.0564866 0.996262 
0.0623228 0.0729736 0.995385 
0.0586512 0.094895 0.993758 
0.05436 0.122184 0.991018 
0.0491686 0.156511 0.986452 
0.0412437 0.205045 0.977883 
0.0334689 0.264577 0.963784 
0.0242292 0.341619 0.939526 
0.0148826 0.427927 0.903691 
0.00561389 0.536334 0.843987 
0.00521081 0.57384 0.818951 
-0.000894367 0.702011 0.712165 
-0.00409895 0.816619 0.577162 
-0.00446556 0.928302 0.3718 
-0.00355569 0.994149 0.10796 
-0.00201668 0.996537 -0.0831253 
-0.00194281 0.978497 -0.206251 
2.01094e-05 0.944394 -0.328816 
-0.000223425 0.874435 -0.485143 
-0.00177012 0.745564 -0.666431 
-0.00529135 0.627286 -0.778771 
-0.0103232 0.515831 -0.856628 
-0.0200433 0.397077 -0.917567 
-0.0280423 0.310973 -0.950005 
-0.0365828 0.242292 -0.969513 
-0.0442466 0.188887 -0.981002 
-0.0514028 0.139777 -0.988848 
-0.0564343 0.108457 -0.992498 
-0.0608132 0.0837053 -0.994633 
-0.0632367 0.0652812 -0.995861 
-0.0666593 0.0494153 -0.996551 
-0.0689293 0.0385308 -0.996877 
-0.0706546 0.0296548 -0.99706 
-0.0730322 0.022495 -0.997076 
-0.0745191 0.0173657 -0.997068 
-0.0757349 0.0126868 -0.997047 
-0.0765039 0.00896189 -0.997029 
-0.0770506 0.00559602 -0.997012 
-0.0773323 0.00240923 -0.997002 
-0.0769395 -0.000538547 -0.997036 
-0.0764796 -0.00339904 -0.997065 
-0.0753218 -0.0066123 -0.997137 
-0.0743551 -0.00987004 -0.997183 
-0.0731196 -0.0135423 -0.997231 
-0.071848 -0.0186691 -0.997241 
-0.0701536 -0.0242287 -0.997242 
-0.0688803 -0.0310479 -0.997142 
-0.0669591 -0.0413685 -0.996898 
-0.0658145 -0.0519401 -0.996479 
-0.064597 -0.0652631 -0.995775 
-0.0611263 -0.0770902 -0.995149 
-0.0602986 -0.0848445 -0.994568 
-0.0535169 -0.08558 -0.994893 
-0.035642 -0.0628727 -0.997385 
-0.000838093 -0.00233431 -0.999997 
0.000758731 -0.0024141 0.999997 
0.0199344 -0.0501489 0.998543 
0.0500782 -0.0872348 0.994928 
0.0533173 -0.0829529 0.995126 
0.0507094 -0.0707229 0.996206 
0.060654 -0.0610491 0.99629 
0.0552356 -0.0536632 0.99703 
0.0615772 -0.042985 0.997176 
0.0602618 -0.0338283 0.997609 
0.0635172 -0.0261158 0.997639 
0.0640541 -0.0202056 0.997742 
0.0630932 -0.0156779 0.997884 
0.0653739 -0.0116044 0.997793 
0.066527 -0.00811407 0.997752 
0.0672248 -0.00476861 0.997726 
0.0679246 -0.00169014 0.997689 
0.0688589 0.00174328 0.997625 
0.0690095 0.00518286 0.997603 
0.0688968 0.00883527 0.997585 
0.0675304 0.0127648 0.997636 
0.0659179 0.0173466 0.997674 
0.0640932 0.0228553 0.997682 
0.0627288 0.0297358 0.997588 
0.0609406 0.038224 0.997409 
0.059098 0.0492292 0.997038 
0.0564489 0.0631343 0.996407 
0.0535937 0.0814148 0.995238 
0.049771 0.10494 0.993232 
0.0456261 0.134541 0.989857 
0.0408631 0.172759 0.984116 
0.0325015 0.228719 0.97295 
0.0255794 0.291579 0.956205 
0.0166656 0.367231 0.929981 
0.00789745 0.463952 0.885825 
-0.00111714 0.659156 0.752005 
-0.00423603 0.776666 0.629898 
-0.00490458 0.882775 0.469771 
-0.00368837 0.936205 0.351436 
-0.00402844 0.977583 0.210513 
-0.0017483 0.999521 0.0309113 
-0.000651134 0.974588 -0.224002 
0.000738366 0.887009 -0.461751 
0.00158588 0.814245 -0.580519 
-0.000265634 0.699903 -0.714238 
-0.00404372 0.585101 -0.810951 
-0.00820091 0.487014 -0.873356 
-0.0157078 0.417155 -0.9087 
-0.0193351 0.351284 -0.936069 
-0.0274334 0.274561 -0.961178 
-0.0354888 0.214588 -0.97606 
-0.0433223 0.163777 -0.985546 
-0.0472304 0.123266 -0.991249 
-0.05191 0.0945723 -0.994164 
-0.0541457 0.0747446 -0.995732 
-0.0578476 0.0563317 -0.996735 
-0.0595432 0.0436829 -0.997269 
-0.061613 0.0341394 -0.997516 
-0.0640257 0.0259701 -0.99761 
-0.0650796 0.0201176 -0.997677 
-0.0674883 0.0151819 -0.997605 
-0.0671722 0.0108018 -0.997683 
-0.0679217 0.00694476 -0.997666 
-0.0686736 0.00330771 -0.997634 
-0.0682128 -5.7769e-05 -0.997671 
-0.0678436 -0.00335715 -0.99769 
-0.0675226 -0.0064776 -0.997697 
-0.0660692 -0.010005 -0.997765 
-0.0647083 -0.0136241 -0.997811 
-0.0649215 -0.0177816 -0.997732 
-0.0614636 -0.0234055 -0.997835 
-0.0603413 -0.0298436 -0.997732 
-0.0607308 -0.0379138 -0.997434 
-0.0577909 -0.0498496 -0.997083 
-0.0585126 -0.0623751 -0.996336 
-0.0536173 -0.0766657 -0.995614 
-0.0520762 -0.0870067 -0.994846 
-0.0426625 -0.082297 -0.995694 
-0.0273853 -0.056549 -0.998024 
-0.00106906 -0.00214137 -0.999997 
0.000578597 -0.00225773 0.999997 
0.0169875 -0.0528791 0.998456 
0.0367881 -0.0762783 0.996408 
0.0401108 -0.0889833 0.995225 
0.0432972 -0.0837335 0.995547 
0.0444783 -0.063292 0.997003 
0.0474755 -0.0474215 0.997746 
0.0498788 -0.0390203 0.997993 
0.0510392 -0.0295837 0.998258 
0.0525016 -0.0236033 0.998342 
0.0519707 -0.0188376 0.998471 
0.0527689 -0.0142666 0.998505 
0.054696 -0.0106412 0.998446 
0.0559733 -0.00710152 0.998407 
0.0555693 -0.00362852 0.998448 
0.0574187 3.66689e-06 0.99835 
0.0575308 0.00379601 0.998337 
0.0573861 0.00774238 0.998322 
0.0561415 0.0117678 0.998353 
0.0549812 0.0162585 0.998355 
0.0535785 0.0215218 0.998332 
0.0524015 0.0280439 0.998232 
0.050747 0.0361184 0.998058 
0.0492969 0.0463806 0.997707 
0.0469474 0.0595457 0.997121 
0.0445274 0.0768141 0.996051 
0.0412383 0.0992067 0.994212 
0.0370598 0.129215 0.990924 
0.0329144 0.167992 0.985239 
0.0271345 0.218925 0.975364 
0.0180138 0.296575 0.95484 
0.00961979 0.391597 0.920086 
0.00222681 0.499898 0.866082 
-0.00285201 0.619725 0.784814 
0.000245038 0.579322 0.815099 
-0.00336369 0.689802 0.72399 
-0.00474841 0.811255 0.584673 
-0.00397042 0.8754 0.483382 
-0.00247987 0.977061 0.212946 
-0.00232687 0.996105 -0.0881455 
-0.000289681 0.999557 -0.029761 
0.00064502 0.964171 -0.26528 
0.000925261 0.871897 -0.489688 
0.00239921 0.753218 -0.657766 
0.00107969 0.633474 -0.773763 
-0.00163713 0.523011 -0.852324 
-0.00921065 0.41344 -0.910485 
-0.0155933 0.324968 -0.945597 
-0.0224315 0.255968 -0.966425 
-0.0307077 0.197814 -0.979758 
-0.0363751 0.152645 -0.987612 
-0.039444 0.115006 -0.992581 
-0.0413388 0.0914029 -0.994956 
-0.046128 0.0689889 -0.99655 
-0.0478519 0.0534631 -0.997423 
-0.0491222 0.0416657 -0.997923 
-0.0521551 0.0320587 -0.998124 
-0.0529064 0.0251271 -0.998283 
-0.0542969 0.0192583 -0.998339 
-0.0564661 0.0144261 -0.9983 
-0.0557097 0.00995348 -0.998397 
-0.0567584 0.0058091 -0.998371 
-0.0566717 0.00203152 -0.998391 
-0.0566261 -0.00170958 -0.998394 
-0.055785 -0.0052412 -0.998429 
-0.0560568 -0.00860513 -0.998391 
-0.0539469 -0.0122121 -0.998469 
-0.0533663 -0.0160784 -0.998446 
-0.0527922 -0.020285 -0.998399 
-0.0493683 -0.026167 -0.998438 
-0.048936 -0.0331798 -0.998251 
-0.0502361 -0.0421528 -0.997847 
-0.0455026 -0.0526096 -0.997578 
-0.0479568 -0.0636478 -0.996819 
-0.0431275 -0.0781804 -0.996006 
-0.042879 -0.088371 -0.995164 
-0.0349554 -0.085095 -0.995759 
-0.0200007 -0.0536961 -0.998357 
-0.000912087 -0.00231648 -0.999997 
0.00043081 -0.00219982 0.999997 
0.0151406 -0.0602261 0.99807 
0.0299952 -0.0824591 0.996143 
0.0317741 -0.0894563 0.995484 
0.0371514 -0.0774607 0.996303 
0.0331303 -0.0657842 0.997284 
0.0381383 -0.0533325 0.997848 
0.0359782 -0.0422771 0.998458 
0.0410829 -0.0345256 0.998559 
0.0399876 -0.027489 0.998822 
0.0408525 -0.022524 0.998911 
0.0424687 -0.017706 0.998941 
0.0425184 -0.0137673 0.999001 
0.0446506 -0.010154 0.998951 
0.045335 -0.00657987 0.99895 
0.0455077 -0.00258837 0.998961 
0.0467584 0.00126694 0.998905 
0.0466689 0.00535831 0.998896 
0.0455978 0.00938368 0.998916 
0.0448086 0.013705 0.998902 
0.0439803 0.0185014 0.998861 
0.0430729 0.0241207 0.998781 
0.041907 0.0308912 0.998644 
0.0405889 0.0394581 0.998397 
0.0391088 0.0501882 0.997974 
0.0371234 0.0644415 0.997231 
0.0346448 0.0828231 0.995962 
0.0315917 0.107294 0.993725 
0.0275502 0.14009 0.989755 
0.0234777 0.181826 0.98305 
0.0183781 0.241921 0.970122 
0.0105021 0.329071 0.944247 
0.00401138 0.424541 0.9054 
-0.000787666 0.529262 0.848458 
-0.00478808 0.733163 0.680036 
-0.00298172 0.881572 0.47204 
-0.000944897 0.94194 0.335779 
-0.00155811 0.983968 0.178346 
-0.00132121 0.961209 0.275818 
-0.000419719 0.993668 0.112364 
-0.00010638 0.998349 0.057463 
-0.00149222 0.977931 -0.208933 
0.000271065 0.907912 -0.41916 
0.00236005 0.79304 -0.609165 
0.00299058 0.729172 -0.684324 
0.00318512 0.607773 -0.794105 
-0.00409709 0.420681 -0.907199 
-0.00918741 0.332538 -0.943045 
-0.0152137 0.259445 -0.965638 
-0.0224849 0.201468 -0.979237 
-0.0238934 0.168074 -0.985485 
-0.0298835 0.135595 -0.990314 
-0.0302615 0.106777 -0.993822 
-0.0352166 0.0805768 -0.996126 
-0.037478 0.062482 -0.997342 
-0.0388271 0.0483957 -0.998073 
-0.0412329 0.0370122 -0.998464 
-0.0421433 0.0291472 -0.998686 
-0.0434599 0.0225558 -0.998801 
-0.0446479 0.0170503 -0.998857 
-0.0457987 0.0125076 -0.998872 
-0.0457917 0.00767266 -0.998922 
-0.0457095 0.00348593 -0.998949 
-0.0459915 -0.000669637 -0.998942 
-0.045208 -0.00461102 -0.998967 
-0.0451727 -0.00842942 -0.998944 
-0.0440712 -0.0119548 -0.998957 
-0.0431937 -0.0158612 -0.998941 
-0.0416502 -0.020153 -0.998929 
-0.0403197 -0.0249487 -0.998875 
-0.0385403 -0.0321007 -0.998741 
-0.0393582 -0.0409101 -0.998387 
-0.0361201 -0.0530102 -0.99794 
-0.0365984 -0.0676036 -0.997041 
-0.0322154 -0.0815128 -0.996152 
-0.0333216 -0.0899312 -0.99539 
-0.0269123 -0.0886383 -0.9957 
-0.0189446 -0.0627122 -0.997852 
-0.000406376 -0.00228335 -0.999997 
0.000477031 -0.00217592 0.999997 
0.0115052 -0.0608351 0.998082 
0.0242344 -0.0881337 0.995814 
0.0228905 -0.0915785 0.995535 
0.0281577 -0.082338 0.996207 
0.0254163 -0.0680677 0.997357 
0.0287876 -0.0524293 0.99821 
0.0274587 -0.0412717 0.998771 
0.0313983 -0.0331778 0.998956 
0.029775 -0.0273616 0.999182 
0.0324924 -0.0220393 0.999229 
0.0337723 -0.0176209 0.999274 
0.0337252 -0.0137442 0.999337 
0.0357319 -0.00996911 0.999312 
0.0368856 -0.00580812 0.999303 
0.0365021 -0.00145667 0.999333 
0.0375629 0.00277994 0.99929 
0.0365427 0.00702447 0.999307 
0.0359482 0.0115296 0.999287 
0.0354887 0.0163069 0.999237 
0.0348496 0.0216002 0.999159 
0.0339554 0.0278582 0.999035 
0.0329676 0.0356745 0.99882 
0.0316424 0.045662 0.998456 
0.03025 0.058581 0.997824 
0.0280573 0.0757627 0.996731 
0.0254379 0.0987026 0.994792 
0.0221176 0.129285 0.991361 
0.0179855 0.171837 0.984961 
0.0142052 0.228361 0.973473 
0.00871748 0.307482 0.951514 
0.00262875 0.407558 0.913175 
-0.000974781 0.51595 0.856618 
-0.00242308 0.635029 0.772484 
-0.00357704 0.638103 0.769942 
-0.0019697 0.855489 0.517817 
0.00303625 0.939747 0.341856 
0.00397268 0.996902 0.0785498 
0.00451083 0.99907 0.0428835 
0.0035729 0.999897 -0.0138925 
-0.00166294 0.994036 -0.109041 
-0.00226004 0.991053 -0.13345 
-0.00291986 0.961632 -0.274334 
0.00071715 0.846444 -0.532477 
0.0044946 0.658105 -0.752913 
0.00451993 0.553014 -0.83316 
0.00153222 0.499376 -0.866384 
-0.00140909 0.394883 -0.91873 
-0.00622822 0.308569 -0.951182 
-0.0122974 0.235342 -0.971835 
-0.0172398 0.177506 -0.983969 
-0.0219821 0.132566 -0.99093 
-0.0255922 0.0952331 -0.995126 
-0.0281945 0.073633 -0.996887 
-0.0301845 0.0570775 -0.997913 
-0.0321743 0.0434671 -0.998537 
-0.0329502 0.0342268 -0.998871 
-0.0341991 0.0266892 -0.999059 
-0.0352783 0.0206139 -0.999165 
-0.0356259 0.0155808 -0.999244 
-0.037456 0.0108616 -0.999239 
-0.0363578 0.00625624 -0.999319 
-0.0367826 0.00173643 -0.999322 
-0.036367 -0.00249266 -0.999335 
-0.036225 -0.00677083 -0.999321 
-0.0352706 -0.0106042 -0.999322 
-0.0350553 -0.0143968 -0.999282 
-0.0335447 -0.0182966 -0.99927 
-0.0315908 -0.0226341 -0.999245 
-0.031523 -0.0281168 -0.999108 
-0.0288243 -0.0349663 -0.998973 
-0.0305 -0.0422885 -0.99864 
-0.0267947 -0.0523667 -0.998268 
-0.0282385 -0.0650002 -0.997486 
-0.0247426 -0.0799837 -0.996489 
-0.0241053 -0.0914768 -0.995515 
-0.0192612 -0.087574 -0.995972 
-0.0123578 -0.0576431 -0.998261 
-0.00051814 -0.00217285 -0.999997 
0.000496694 -0.0021836 0.999998 
0.00852452 -0.0615989 0.998064 
0.0170145 -0.0886191 0.99592 
0.0165723 -0.093168 0.995512 