# vtk DataFile Version 3.0 
Exported using Morpho https://github.com/Morpho-lang/morpho 
ASCII 
DATASET UNSTRUCTURED_GRID 

POINTS 1978 float 
-12 -4 -3.53098e-12 
-11.6569 -4 2.00855e-11 
-11.3148 -4 2.25032e-11 
-10.9988 -4 1.68806e-11 
-10.6749 -4 1.00804e-11 
-10.3411 -4 3.64643e-12 
-10.0171 -4 -8.78089e-13 
-9.69984 -4 -2.57091e-12 
-9.36509 -4 -1.49397e-12 
-9.02294 -4 1.04577e-12 
-8.69377 -4 3.03708e-12 
-8.3726 -4 4.09205e-12 
-8.06844 -4 4.09495e-12 
-7.76905 -4 3.76381e-12 
-7.45906 -4 3.17377e-12 
-7.15917 -4 2.32108e-12 
-6.86948 -4 1.4913e-12 
-6.57724 -4 7.37657e-13 
-6.27529 -4 -1.09764e-13 
-6.0094 -4 -1.07256e-12 
-5.74519 -4 -2.84443e-12 
-5.45455 -4 -4.96364e-12 
-5.16526 -4 -7.61151e-12 
-4.85878 -4 -1.03006e-11 
-4.53697 -4 -1.21671e-11 
-4.19006 -4 -1.11755e-11 
-3.8517 -4 -3.86722e-12 
-3.53112 -4 1.03078e-11 
-3.17089 -4 2.93387e-11 
-2.88344 -4 5.8977e-11 
-2.5927 -4 9.79886e-11 
-2.28238 -4 1.53919e-10 
-1.9957 -4 2.00269e-10 
-1.74775 -4 1.93407e-10 
-1.55123 -4 2.14119e-10 
-1.36502 -4 1.56497e-10 
-1.18647 -4 1.07164e-10 
-1.02061 -4 -3.99556e-10 
-0.510818 -4 -1.02422e-09 
0.111118 -4 -4.74425e-11 
0.547654 -4 9.88365e-10 
0.844809 -4 1.8739e-10 
1.12649 -4 -1.13285e-10 
1.31153 -4 -2.205e-10 
1.61025 -4 -2.20404e-10 
1.87074 -4 -1.95908e-10 
2.07737 -4 -1.67835e-10 
2.32139 -4 -1.33172e-10 
2.54212 -4 -9.74317e-11 
2.83873 -4 -7.32969e-11 
3.15804 -4 -3.98409e-11 
3.48387 -4 -1.28971e-11 
3.86647 -4 4.50439e-12 
4.22078 -4 1.13814e-11 
4.56779 -4 1.21404e-11 
4.87971 -4 9.70711e-12 
5.17701 -4 7.03809e-12 
5.44975 -4 4.75523e-12 
5.72507 -4 2.94699e-12 
6.00424 -4 1.24624e-12 
6.27147 -4 1.14186e-13 
6.55084 -4 -7.46019e-13 
6.84385 -4 -1.51149e-12 
7.13386 -4 -2.52929e-12 
7.45258 -4 -3.51384e-12 
7.77057 -4 -3.89913e-12 
8.06648 -4 -4.32428e-12 
8.38479 -4 -4.01342e-12 
8.69008 -4 -2.71669e-12 
8.98058 -4 -1.23845e-12 
9.30137 -4 1.23507e-12 
9.63161 -4 2.93114e-12 
9.94384 -4 1.86233e-12 
10.295 -4 -2.34087e-12 
10.6177 -4 -9.41643e-12 
10.966 -4 -1.64173e-11 
11.2781 -4 -2.35139e-11 
11.6268 -4 -2.15214e-11 
12 -4 1.39223e-12 
-12 -3.71392 -9.50944e-13 
-11.6265 -3.67348 -1.0798e-11 
-11.3102 -3.64628 -1.2426e-11 
-10.9992 -3.64945 -1.15545e-11 
-10.6873 -3.66036 -8.92011e-12 
-10.3681 -3.67404 -5.83076e-12 
-10.0407 -3.66092 -3.17553e-12 
-9.71611 -3.65589 -1.39935e-12 
-9.39689 -3.67501 -3.9414e-13 
-9.06982 -3.68563 -3.3024e-13 
-8.74016 -3.675 -9.90701e-13 
-8.41944 -3.66987 -1.82895e-12 
-8.10675 -3.65274 -2.08275e-12 
-7.80405 -3.64973 -2.12402e-12 
-7.50049 -3.66507 -2.10174e-12 
-7.19258 -3.65849 -1.54218e-12 
-6.89464 -3.65355 -6.94628e-13 
-6.60413 -3.6669 1.66376e-13 
-6.30874 -3.68813 1.25504e-12 
-6.00871 -3.65894 2.73742e-12 
-5.71403 -3.67923 4.89536e-12 
-5.41922 -3.66236 7.10013e-12 
-5.10502 -3.66481 1.09747e-11 
-4.77131 -3.65317 1.51654e-11 
-4.41033 -3.64993 2.07637e-11 
-4.0341 -3.61596 2.76407e-11 
-3.68163 -3.59172 2.97205e-11 
-3.32736 -3.66432 4.36756e-11 
-2.98116 -3.64402 3.35115e-11 
-2.67777 -3.69275 7.42566e-11 
-2.37331 -3.74872 7.19325e-11 
-2.02961 -3.77082 1.06403e-11 
-1.73513 -3.76275 1.33083e-10 
-1.62706 -3.59697 -7.13538e-12 
-1.46868 -3.79803 -1.50725e-10 
-1.24317 -3.81056 -2.35654e-11 
-1.03868 -3.80763 3.61224e-11 
-0.860621 -3.93927 -2.48788e-10 
-0.297927 -3.95317 -3.7551e-10 
-0.0376846 -3.90994 9.60701e-10 
0.566272 -3.84008 2.46563e-11 
0.96538 -3.86307 -1.03452e-10 
0.967426 -3.66276 2.52368e-10 
1.14097 -3.79496 -1.40646e-10 
1.45562 -3.86646 -1.10699e-11 
1.71938 -3.80955 -1.0252e-10 
1.95123 -3.74645 5.59526e-11 
2.20217 -3.73991 -5.21017e-11 
2.45379 -3.62668 -5.86404e-11 
2.72473 -3.68298 -4.27336e-11 
3.05584 -3.65714 -4.71404e-11 
3.41854 -3.59807 -3.20625e-11 
3.78296 -3.63411 -3.30384e-11 
4.17132 -3.632 -2.48493e-11 
4.53733 -3.66014 -1.95237e-11 
4.8895 -3.65287 -1.34018e-11 
5.19189 -3.64763 -9.63821e-12 
5.49013 -3.67047 -6.844e-12 
5.78517 -3.67924 -4.54089e-12 
6.06466 -3.65681 -2.63002e-12 
6.34732 -3.66416 -1.15094e-12 
6.63818 -3.67121 4.47456e-14 
6.92902 -3.65935 9.68872e-13 
7.22925 -3.67711 1.6604e-12 
7.535 -3.67511 2.20891e-12 
7.83312 -3.65009 2.04854e-12 
8.13715 -3.67085 2.15728e-12 
8.44047 -3.65999 1.63843e-12 
8.73443 -3.64746 8.75644e-13 
9.05081 -3.68165 2.95109e-13 
9.37484 -3.68328 1.46038e-13 
9.6955 -3.66075 1.20407e-12 
10.0375 -3.69687 2.94977e-12 
10.373 -3.67046 5.29185e-12 
10.7104 -3.69412 1.02606e-11 
11.0326 -3.64476 1.10052e-11 
11.352 -3.67103 1.31038e-11 
11.6831 -3.68529 1.00459e-11 
12 -3.66488 4.90841e-13 
-12 -3.42254 1.40962e-12 
-11.7108 -3.32215 -1.88647e-12 
-11.3784 -3.31947 -6.03569e-12 
-11.0259 -3.30676 -5.72148e-12 
-10.69 -3.31691 -6.84437e-12 
-10.3591 -3.33639 -5.75409e-12 
-10.0228 -3.32617 -3.06613e-12 
-9.69541 -3.31968 -2.03307e-12 
-9.37038 -3.3463 -1.04696e-12 
-9.05386 -3.35903 -6.93072e-13 
-8.75341 -3.32681 -6.50024e-13 
-8.4515 -3.33975 -8.73948e-13 
-8.14152 -3.31699 -8.90509e-13 
-7.83219 -3.30562 -8.37028e-13 
-7.52514 -3.32556 -7.56764e-13 
-7.21844 -3.32452 -5.76424e-13 
-6.91422 -3.31372 -1.121e-13 
-6.6196 -3.32687 5.69855e-13 
-6.33087 -3.35997 1.36233e-12 
-6.04234 -3.34718 2.84975e-12 
-5.74479 -3.3553 4.0763e-12 
-5.44913 -3.32805 6.22714e-12 
-5.14477 -3.33216 8.9426e-12 
-4.82086 -3.3185 1.23012e-11 
-4.46535 -3.31011 1.78921e-11 
-4.09226 -3.27948 2.309e-11 
-3.70676 -3.2189 3.16982e-11 
-3.36522 -3.3025 3.08797e-11 
-3.04738 -3.32325 2.69223e-11 
-2.73405 -3.35467 7.89296e-11 
-2.469 -3.42838 7.00495e-11 
-2.20346 -3.53828 6.15805e-12 
-1.91899 -3.54637 1.00927e-10 
-1.72155 -3.41103 6.95231e-12 
-1.38961 -3.61116 -1.37558e-10 
-1.17651 -3.63389 -4.42768e-11 
-0.971343 -3.64925 -1.93816e-10 
-0.650823 -3.89038 8.752e-11 
-0.445883 -3.85016 6.61406e-12 
0.128955 -3.81527 -4.37721e-10 
0.308307 -3.92916 -4.04115e-11 
0.770167 -3.86888 3.41775e-10 
1.13761 -3.56816 -2.03859e-10 
1.2914 -3.73653 1.58968e-10 
1.51324 -3.68005 -9.32824e-11 
1.73588 -3.58148 -2.06669e-11 
1.98367 -3.51549 8.39229e-11 
2.22291 -3.45815 -4.27244e-11 
2.48225 -3.31438 -3.8988e-11 
2.76282 -3.36127 -3.41139e-11 
3.09503 -3.33171 -4.55963e-11 
3.4192 -3.22069 -3.03142e-11 
3.75203 -3.26155 -2.8434e-11 
4.11339 -3.2737 -2.27686e-11 
4.47686 -3.30582 -1.63257e-11 
4.82039 -3.32857 -1.20781e-11 
5.14723 -3.30207 -9.10956e-12 
5.44801 -3.33894 -6.24975e-12 
5.74162 -3.3575 -4.34694e-12 
6.03201 -3.32366 -2.6929e-12 
6.32207 -3.33071 -1.4727e-12 
6.61452 -3.34185 -5.6909e-13 
6.91141 -3.32633 1.29789e-13 
7.21108 -3.34133 5.30022e-13 
7.51309 -3.33995 7.80414e-13 
7.82398 -3.32083 8.75549e-13 
8.13569 -3.33057 7.42254e-13 
8.43285 -3.31044 8.16299e-13 
8.73936 -3.31231 6.45491e-13 
9.05065 -3.35652 4.88095e-13 
9.37045 -3.3571 8.93822e-13 
9.68643 -3.32647 1.9801e-12 
10.0148 -3.37881 3.20544e-12 
10.3572 -3.35763 5.53484e-12 
10.7086 -3.36925 6.78069e-12 
11.0418 -3.30789 4.21414e-12 
11.3664 -3.32447 6.55059e-12 
11.6802 -3.34653 1.43896e-12 
12 -3.34109 -2.77495e-13 
-12 -3.01438 1.17139e-12 
-11.6541 -2.98546 -8.9125e-15 
-11.3092 -2.99984 5.13466e-13 
-10.9704 -2.97418 -7.82232e-13 
-10.6434 -2.98058 -3.25908e-12 
-10.3155 -3.0042 -2.40186e-12 
-9.99051 -2.98849 -1.5049e-12 
-9.65959 -2.99297 -1.45602e-12 
-9.34894 -3.00667 -7.6786e-13 
-9.04546 -3.0122 -4.22798e-13 
-8.74107 -2.98527 -4.92058e-13 
-8.43418 -2.99853 -2.39904e-13 
-8.12352 -2.98023 1.71035e-13 
-7.80871 -2.97327 3.18909e-13 
-7.5002 -2.99361 1.62574e-13 
-7.19477 -2.99155 1.90572e-13 
-6.89299 -2.9813 3.19732e-13 
-6.60554 -2.98738 4.40826e-13 
-6.32517 -3.02873 1.01438e-12 
-6.03925 -3.01484 1.32665e-12 
-5.75182 -3.02866 1.81382e-12 
-5.44716 -2.99338 2.33928e-12 
-5.1321 -2.99383 4.23689e-12 
-4.78078 -2.98851 7.1054e-12 
-4.41945 -2.96919 1.13266e-11 
-4.04967 -2.9441 1.71397e-11 
-3.71754 -2.87314 9.37715e-12 
-3.39052 -2.94963 2.30099e-11 
-3.10494 -2.98262 2.57098e-11 
-2.83913 -3.0328 6.54638e-11 
-2.58335 -3.07164 4.20745e-12 
-2.34006 -3.19675 1.07022e-10 
-2.11547 -3.31407 1.09052e-10 
-1.90643 -3.26599 -1.37125e-10 
-1.46726 -3.42851 4.63124e-11 
-1.2254 -3.45496 7.53498e-11 
-1.01507 -3.47479 -2.30353e-10 
-0.815155 -3.78571 2.25057e-10 
-0.375279 -3.7218 6.88102e-11 
-0.208977 -3.82231 -3.28867e-10 
0.372681 -3.79372 -3.41488e-10 
0.630616 -3.68986 -1.93897e-10 
1.21984 -3.3666 2.57563e-10 
1.33702 -3.53126 2.18948e-11 
1.56194 -3.46226 -2.05785e-10 
1.83121 -3.34436 3.14756e-11 
2.08179 -3.25703 -2.95759e-11 
2.32319 -3.14398 9.87463e-11 
2.56599 -2.95817 -6.17025e-11 
2.7684 -3.06289 -6.10669e-11 
3.07234 -3.01432 -3.46796e-11 
3.42017 -2.90665 -1.68406e-11 
3.75782 -2.8989 -1.65873e-11 
4.08492 -2.91746 -1.46914e-11 
4.4356 -2.95109 -9.94658e-12 
4.77685 -2.98508 -7.25857e-12 
5.10858 -2.97109 -2.51193e-12 
5.43104 -3.00139 -2.41502e-12 
5.73153 -3.02358 -1.90354e-12 
6.03098 -2.99403 -1.2842e-12 
6.32579 -2.99957 -8.72111e-13 
6.61915 -3.0121 -6.60136e-13 
6.91663 -3.00051 -3.54793e-13 
7.21907 -3.00602 -1.66484e-13 
7.52781 -3.01249 -1.62652e-13 
7.83976 -2.99291 -3.43485e-13 
8.14173 -2.98385 -5.16814e-14 
8.44806 -2.9681 1.92361e-13 
8.75969 -2.97977 4.5551e-13 
9.07598 -3.02732 5.08816e-13 
9.38575 -3.01434 9.67836e-13 
9.69929 -2.98476 1.37004e-12 
10.0206 -3.05359 1.84088e-12 
10.3371 -3.01338 2.32389e-12 
10.6606 -3.05554 4.62851e-12 
10.9783 -2.97472 1.26704e-12 
11.3194 -2.98754 -6.24542e-13 
11.6617 -3.0058 -7.71038e-14 
12 -3.00906 -3.85242e-13 
-12 -2.68741 5.39931e-13 
-11.6659 -2.65643 1.72712e-12 
-11.3233 -2.67637 3.95363e-12 
-10.9915 -2.64242 2.09791e-12 
-10.658 -2.6413 -2.12828e-13 
-10.3304 -2.66627 -6.86639e-13 
-10.0014 -2.65724 -4.04308e-13 
-9.67305 -2.66793 -8.53422e-13 
-9.34514 -2.66355 -5.73735e-13 
-9.03678 -2.66819 -2.76357e-13 
-8.72083 -2.65114 -3.02512e-13 
-8.40877 -2.66504 -8.36179e-14 
-8.08923 -2.65528 3.97606e-13 
-7.77625 -2.64547 5.29293e-13 
-7.47061 -2.66447 4.46022e-13 
-7.16421 -2.66542 3.35158e-13 
-6.86975 -2.64864 2.26773e-13 
-6.57902 -2.66323 9.71084e-14 
-6.28559 -2.69325 1.28344e-13 
-6.00146 -2.67691 -1.40062e-13 
[...]
POINT_DATA 1978 
VECTORS vectors float
0.00133478 -0.00476957 0.999988 
0.000372768 -0.0366079 0.99933 
0.000583124 -0.0384883 0.999259 
0.000465097 -0.0275536 0.99962 
0.000438051 -0.0156073 0.999878 
0.000476388 -0.00541253 0.999985 
0.000505875 0.000973354 0.999999 
0.000478962 0.00318673 0.999995 
0.000425735 0.001725 0.999998 
0.000459748 -0.00143991 0.999999 
0.000508307 -0.00411457 0.999991 
0.000578076 -0.00576416 0.999983 
0.000650796 -0.00622323 0.99998 
0.000635314 -0.00577973 0.999983 
0.000642863 -0.0048353 0.999988 
0.000683849 -0.00374155 0.999993 
0.000724689 -0.00251994 0.999997 
0.00068071 -0.00121656 0.999999 
0.000713665 0.000263268 1 
0.000860659 0.00234191 0.999997 
0.000710307 0.00530052 0.999986 
0.000687027 0.00973527 0.999952 
0.000652546 0.0155762 0.999878 
0.000538966 0.0230659 0.999734 
0.000436225 0.032401 0.999475 
0.000324021 0.0444044 0.999014 
0.000407684 0.059465 0.99823 
0.000345246 0.077977 0.996955 
0.000386182 0.102945 0.994687 
0.000516859 0.126861 0.99192 
0.000435235 0.156635 0.987656 
0.000395923 0.199667 0.979864 
0.000368699 0.254112 0.967175 
0.000341805 0.310056 0.950718 
0.000305434 0.372088 0.928197 
2.66558e-05 0.43695 0.899486 
4.11379e-05 0.515512 0.856883 
-9.78542e-05 0.591826 0.806066 
0.000270096 0.858384 0.513008 
6.44242e-05 0.997247 -0.0741546 
0.000260312 0.838479 -0.544934 
0.000362342 0.662844 -0.748757 
-0.000332871 0.528479 -0.848946 
4.14909e-05 0.457282 -0.889322 
-0.000225028 0.347108 -0.937825 
-0.0004306 0.275057 -0.961428 
-0.000448986 0.231201 -0.972906 
-0.00051068 0.187934 -0.982182 
-0.00056923 0.158142 -0.987416 
-0.000363505 0.129376 -0.991595 
-0.000424156 0.102676 -0.994715 
-0.00021407 0.080255 -0.996774 
-0.000137226 0.0601678 -0.998188 
-0.000271875 0.044694 -0.999001 
-0.000434478 0.0321886 -0.999482 
-0.000587496 0.0229152 -0.999737 
-0.000680959 0.0152612 -0.999883 
-0.000777201 0.00960479 -0.999954 
-0.000728097 0.00542834 -0.999985 
-0.000777047 0.00239924 -0.999997 
-0.000808532 0.000345944 -1 
-0.000693266 -0.00116045 -0.999999 
-0.000714232 -0.00245562 -0.999997 
-0.000663051 -0.00376129 -0.999993 
-0.000556313 -0.00494206 -0.999988 
-0.000636765 -0.00586169 -0.999983 
-0.00063938 -0.00623091 -0.99998 
-0.000584905 -0.00559343 -0.999984 
-0.000683393 -0.00403221 -0.999992 
-0.000644588 -0.00178941 -0.999998 
-0.000507749 0.00141089 -0.999999 
-0.000556136 0.00368468 -0.999993 
-0.000432694 0.00242022 -0.999997 
-0.000421185 -0.00374021 -0.999993 
-0.000400216 -0.0131907 -0.999913 
-0.000351447 -0.0258608 -0.999665 
-0.0005567 -0.0377807 -0.999286 
-0.00037604 -0.0379373 -0.99928 
-0.000982331 -0.00416072 -0.999991 
0.000825983 -0.000714788 0.999999 
0.0139862 -0.0309257 0.999424 
0.0187849 -0.0339196 0.999248 
0.020271 -0.0269635 0.999431 
0.020442 -0.0167385 0.999651 
0.0205106 -0.00767462 0.99976 
0.0212725 -0.00149797 0.999773 
0.021964 0.00121682 0.999758 
0.0216458 0.00105752 0.999765 
0.0213165 -0.000877698 0.999772 
0.0212836 -0.00296683 0.999769 
0.0214871 -0.00447909 0.999759 
0.021721 -0.00516186 0.999751 
0.0216047 -0.00513342 0.999753 
0.0211016 -0.00453284 0.999767 
0.0210732 -0.00348375 0.999772 
0.02103 -0.0022409 0.999776 
0.0205997 -0.00080004 0.999787 
0.0197995 0.000982711 0.999803 
0.0199152 0.00365604 0.999795 
0.0189257 0.00710866 0.999796 
0.0181307 0.0119617 0.999764 
0.016602 0.0183288 0.999694 
0.0142764 0.0267131 0.999541 
0.0109233 0.0383141 0.999206 
0.00607222 0.0542442 0.998509 
-0.00134775 0.0744517 0.997224 
-0.00618483 0.0966841 0.995296 
-0.0161483 0.126336 0.991856 
-0.0186337 0.153954 0.987902 
-0.0219246 0.189401 0.981655 
-0.028491 0.246774 0.968654 
-0.032645 0.321057 0.946497 
-0.0682577 0.362627 0.929431 
-0.0365501 0.407243 0.912588 
-0.0318696 0.500577 0.865105 
-0.028305 0.60228 0.797783 
-0.00909663 0.686822 0.726769 
-0.00345181 0.948345 0.317221 
-0.00233283 0.99961 -0.0278118 
0.012011 0.822599 -0.568496 
0.0181888 0.604262 -0.796578 
0.0531875 0.597306 -0.800248 
0.0304432 0.535836 -0.843773 
0.020576 0.411812 -0.911036 
0.0246799 0.319373 -0.947308 
0.0367949 0.267645 -0.962815 
0.0299807 0.218198 -0.975444 
0.0364385 0.183102 -0.982418 
0.0220042 0.148942 -0.988601 
0.0140704 0.117821 -0.992935 
0.00838296 0.0905745 -0.995854 
-0.00103616 0.0674293 -0.997724 
-0.00739232 0.0489908 -0.998772 
-0.0117738 0.0347594 -0.999326 
-0.0149537 0.0239464 -0.999601 
-0.017401 0.0165595 -0.999711 
-0.0186232 0.010565 -0.999771 
-0.0195857 0.00607799 -0.99979 
-0.0206702 0.00307881 -0.999782 
-0.0209126 0.000778412 -0.999781 
-0.0209565 -0.0010001 -0.99978 
-0.0213443 -0.00241167 -0.999769 
-0.0208163 -0.00372967 -0.999776 
-0.0212 -0.00475543 -0.999764 
-0.0217896 -0.0052115 -0.999749 
-0.0215408 -0.00519505 -0.999754 
-0.022094 -0.00426133 -0.999747 
-0.0226422 -0.00273358 -0.99974 
-0.0218622 -0.000752159 -0.999761 
-0.0216818 0.00130985 -0.999764 
-0.0218 0.00174474 -0.999761 
-0.0203566 -0.000711976 -0.999793 
-0.0205854 -0.0073896 -0.999761 
-0.0196804 -0.0169744 -0.999662 
-0.0201265 -0.0275624 -0.999417 
-0.0175894 -0.0340874 -0.999264 
-0.0130556 -0.0294541 -0.999481 
-6.24022e-05 -0.000519636 -1 
1.14094e-05 -0.00112684 0.999999 
0.0132456 -0.0245501 0.999611 
0.0210061 -0.032415 0.999254 
0.0239377 -0.0273874 0.999338 
0.0248926 -0.0170327 0.999545 
0.0257596 -0.00842205 0.999633 
0.0267281 -0.00293756 0.999638 
0.0274946 -5.6525e-05 0.999622 
0.0277838 0.000402722 0.999614 
0.0280004 -0.000640554 0.999608 
0.027651 -0.00197951 0.999616 
0.0268819 -0.00330786 0.999633 
0.0262356 -0.00421418 0.999647 
0.0256827 -0.00451685 0.99966 
0.0252879 -0.00413623 0.999672 
0.0248962 -0.00312296 0.999685 
0.0244139 -0.00168962 0.999701 
0.0240238 3.28405e-05 0.999711 
0.023918 0.00207459 0.999712 
0.0232828 0.00487618 0.999717 
0.0222274 0.00874808 0.999715 
0.0206316 0.0138896 0.999691 
0.0185995 0.0202573 0.999622 
0.0151049 0.0288854 0.999469 
0.00982119 0.0407676 0.99912 
0.00109817 0.0581209 0.998309 
-0.0136143 0.0839038 0.996381 
-0.0243085 0.107707 0.993885 
-0.0390128 0.137163 0.98978 
-0.0516563 0.168599 0.98433 
-0.0585776 0.19604 0.978845 
-0.058999 0.23029 0.971332 
-0.0682557 0.28856 0.955026 
-0.106379 0.346036 0.932171 
-0.0707396 0.444353 0.893055 
-0.0612887 0.531963 0.844547 
-0.0515612 0.628429 0.776156 
-0.011738 0.795516 0.605819 
-0.0102672 0.888109 0.459519 
-0.0043062 0.996509 -0.0833701 
0.000483849 0.946993 -0.321255 
0.0181992 0.707896 -0.706083 
0.0705882 0.533292 -0.842981 
0.0443215 0.474606 -0.879082 
0.048605 0.388529 -0.920154 
0.0645843 0.326771 -0.942894 
0.0756814 0.274206 -0.958688 
0.0721483 0.229487 -0.970634 
0.0822219 0.203632 -0.975589 
0.0544781 0.161985 -0.985288 
0.0362856 0.12798 -0.991113 
0.0281045 0.105871 -0.993983 
0.0111697 0.0792185 -0.996795 
-0.000651917 0.0580533 -0.998313 
-0.00919546 0.0415453 -0.999094 
-0.0147032 0.0293548 -0.999461 
-0.0180354 0.0208439 -0.99962 
-0.0207744 0.0139842 -0.999686 
-0.0225779 0.00885409 -0.999706 
-0.0231644 0.00525297 -0.999718 
-0.0238736 0.00230465 -0.999712 
-0.0244556 2.81424e-05 -0.999701 
-0.0247725 -0.00169972 -0.999692 
-0.0252651 -0.00317909 -0.999676 
-0.0254701 -0.00416155 -0.999667 
-0.0258951 -0.00455063 -0.999654 
-0.0261695 -0.00418957 -0.999649 
-0.026722 -0.00308838 -0.999638 
-0.0274571 -0.00169782 -0.999622 
-0.0279794 -0.00035249 -0.999608 
-0.0278515 0.000787689 -0.999612 
-0.0277996 0.000395488 -0.999613 
-0.0269884 -0.00220244 -0.999633 
-0.0262383 -0.0082124 -0.999622 
-0.0253347 -0.0174936 -0.999526 
-0.0243254 -0.0280516 -0.99931 
-0.0216858 -0.0323987 -0.99924 
-0.0147789 -0.0261583 -0.999549 
-0.000414627 -0.00137874 -0.999999 
-0.000769625 -0.00107221 0.999999 
0.0123545 -0.0267827 0.999565 
0.0182868 -0.0330422 0.999287 
0.0195283 -0.0261023 0.999469 
0.0206764 -0.0164106 0.999652 
0.0219929 -0.00889918 0.999719 
0.0221775 -0.00383669 0.999747 
0.0228217 -0.000675957 0.999739 
0.0232424 0.000150642 0.99973 
0.0231915 -0.000260202 0.999731 
0.0218752 -0.00110303 0.99976 
0.0214689 -0.00240878 0.999767 
0.0202851 -0.00353125 0.999788 
0.0195526 -0.00402119 0.999801 
0.0194762 -0.00363982 0.999804 
0.0186907 -0.00251184 0.999822 
0.0175145 -0.000825211 0.999846 
0.016826 0.00122264 0.999858 
0.0172796 0.00353675 0.999844 
0.0160083 0.0068905 0.999848 
0.015081 0.0110435 0.999825 
0.012623 0.0171712 0.999773 
0.0104522 0.024633 0.999642 
0.00627968 0.0355282 0.999349 
-0.00113025 0.0506215 0.998717 
-0.0133564 0.0723501 0.99729 
-0.0340281 0.102923 0.994107 
-0.0492942 0.128187 0.990524 
-0.0689022 0.157443 0.985121 
-0.0868354 0.185522 0.978796 
-0.11021 0.217633 0.969788 
-0.109617 0.238125 0.965029 
-0.108551 0.268835 0.95705 
-0.138595 0.315442 0.938769 
-0.105648 0.422781 0.900052 
-0.0947516 0.513495 0.852845 
-0.0830754 0.610826 0.787395 
-0.0249631 0.728023 0.685098 
-0.0118286 0.928604 0.370883 
-0.00527622 0.968841 0.247629 
0.00193022 0.931693 -0.363241 
0.0205895 0.813617 -0.581036 
0.121436 0.490852 -0.862738 
0.0827498 0.456542 -0.885845 
0.089798 0.385441 -0.918353 
0.114171 0.323462 -0.939328 
0.119543 0.272806 -0.954613 
0.131947 0.245986 -0.960251 
0.134577 0.226711 -0.96462 
0.0912619 0.183878 -0.978703 
0.0696255 0.153302 -0.985724 
0.0525267 0.1269 -0.990524 
0.0307213 0.0962671 -0.994881 
0.0140955 0.0713812 -0.99735 
0.00200216 0.0510604 -0.998694 
-0.00567271 0.0364602 -0.999319 
-0.00896456 0.0262358 -0.999616 
-0.012572 0.0178105 -0.999762 
-0.0149171 0.0116479 -0.999821 
-0.0153374 0.00728676 -0.999856 
-0.0164466 0.00378305 -0.999858 
-0.0177073 0.0010463 -0.999843 
-0.0181853 -0.000998573 -0.999834 
-0.0189794 -0.00260084 -0.999816 
-0.0198977 -0.00370783 -0.999795 
-0.0197676 -0.00394081 -0.999797 
-0.0202534 -0.00329868 -0.999789 
-0.0204506 -0.00199221 -0.999789 
-0.021659 -0.000677211 -0.999765 
-0.0232481 0.000205055 -0.99973 
-0.0233417 0.000521899 -0.999727 
-0.0227388 -0.0007014 -0.999741 
-0.0236709 -0.00375662 -0.999713 
-0.022389 -0.00913803 -0.999708 
-0.0225533 -0.0164475 -0.99961 
-0.0199701 -0.0260059 -0.999462 
-0.0180989 -0.032326 -0.999313 
-0.0127413 -0.0263115 -0.999573 
1.62478e-05 -0.00126936 -0.999999 
-0.000278588 -0.00108236 0.999999 
0.00763597 -0.0267805 0.999612 
0.0116318 -0.0330766 0.999385 
0.0126858 -0.0272642 0.999548 
0.0134474 -0.0174342 0.999758 
0.0146213 -0.00991988 0.999844 
0.0149973 -0.0047551 0.999876 
0.0153892 -0.00113704 0.999881 
0.0150282 0.000279711 0.999887 
0.0146624 0.000256754 0.999892 
0.0136236 -0.000399895 0.999907 
0.0132354 -0.00171551 0.999911 
0.0122658 -0.00307886 0.99992 
0.01141 -0.00362589 0.999928 
0.0111249 -0.00315843 0.999933 
0.0101859 -0.0018162 0.999946 
0.00874845 0.000168835 0.999962 
0.00799147 0.00266601 0.999965 
0.0076296 0.00570601 0.999955 
0.00597831 0.00986343 0.999933 
0.0051259 0.0150709 0.999873 
0.00210222 0.0227554 0.999739 
-0.000231075 0.0323765 0.999476 
-0.00648224 0.0469569 0.998876 
-0.0169541 0.067238 0.997593 
-0.032847 0.0940473 0.995026 
-0.0575991 0.131399 0.989655 
-0.0743209 0.154657 0.985169 
-0.10343 0.191842 0.975961 
-0.128245 0.220764 0.966859 
-0.157101 0.252352 0.954797 
-0.169566 0.270046 0.947799 
-0.179722 0.289329 0.940207 
-0.189486 0.315158 0.92993 
-0.161673 0.368657 0.915398 
-0.147754 0.416792 0.896913 
-0.121209 0.590203 0.798103 
-0.0384622 0.720821 0.692054 
-0.0190812 0.839777 0.542596 
-0.00590964 0.99081 0.135129 
-0.00325579 0.958189 -0.286116 
0.0444083 0.692258 -0.720282 
0.168444 0.489291 -0.855699 
0.13245 0.424249 -0.895807 
0.147046 0.361544 -0.920686 
0.170862 0.305263 -0.936814 
0.185382 0.279713 -0.942016 
0.205847 0.283807 -0.936526 
0.168171 0.25001 -0.953527 
0.123793 0.206479 -0.970588 
0.092203 0.171933 -0.980784 
0.0764366 0.153706 -0.985156 
0.0514323 0.119961 -0.991445 
0.0304658 0.0885049 -0.99561 
0.0150667 0.0628543 -0.997909 
0.00559418 0.0440628 -0.999013 
0.000863478 0.0314627 -0.999505 
-0.00296131 0.0214438 -0.999766 
-0.005226 0.0142421 -0.999885 
-0.0056409 0.00926401 -0.999941 
-0.00723264 0.00516176 -0.999961 
-0.00866917 0.00203116 -0.99996 
-0.00962371 -0.000398626 -0.999954 
-0.0101103 -0.00212957 -0.999947 
-0.0115459 -0.00327572 -0.999928 
-0.0114389 -0.0035109 -0.999928 
-0.0117342 -0.00265189 -0.999928 
-0.0117069 -0.00117353 -0.999931 
-0.0130005 9.9755e-05 -0.999915 
-0.0150664 0.000701048 -0.999886 
-0.0149697 0.000626003 -0.999888 
-0.0144369 -0.000816056 -0.999895 
-0.0161303 -0.00421057 -0.999861 
-0.0149083 -0.00924896 -0.999846 
-0.0150731 -0.0163947 -0.999752 
-0.0127638 -0.0266618 -0.999563 
-0.0114306 -0.0323828 -0.99941 
-0.00821629 -0.0268117 -0.999607 
-1.15213e-05 -0.0012085 -0.999999 
-0.000241381 -0.00103355 0.999999 
0.00386254 -0.0261611 0.99965 
0.00637464 -0.033702 0.999412 
0.00709185 -0.0291102 0.999551 
0.00774624 -0.0196277 0.999777 
0.0084914 -0.0115795 0.999897 
0.00870344 -0.00589803 0.999945 
0.00892479 -0.00167787 0.999959 
0.00862233 0.000483964 0.999963 
0.00781995 0.00103924 0.999969 
0.00708974 0.000543306 0.999975 
0.00641536 -0.000860177 0.999979 
0.00588691 -0.00245367 0.99998 
0.0049381 -0.00331527 0.999982 
0.00431178 -0.00300289 0.999986 
0.00365528 -0.00170005 0.999992 
0.00208687 0.00044072 0.999998 
0.000888601 0.0032707 0.999994 
0.000153821 0.00687123 0.999976 
-0.00192976 0.0117514 0.999929 
-0.00264889 0.0173012 0.999847 
-0.0053207 0.0252004 0.999668 
-0.00796809 0.0360301 0.999319 
-0.0134294 0.051039 0.998606 
-0.0234833 0.0727846 0.997071 
-0.040351 0.103873 0.993772 
-0.0620742 0.139786 0.988234 
-0.0922988 0.183451 0.978686 
-0.115039 0.210524 0.970796 
-0.155339 0.260607 0.952866 
-0.184333 0.290304 0.939013 
-0.211336 0.312602 0.926076 
-0.23316 0.326292 0.916062 
-0.260627 0.345041 0.901676 
-0.210769 0.365237 0.90674 
-0.209643 0.410405 0.887478 
-0.132778 0.484278 0.86478 
-0.0595878 0.701744 0.709933 
-0.0128093 0.926057 0.377167 
-0.0070862 0.997494 -0.0703894 
0.000512031 0.894601 -0.446865 
0.0681901 0.697498 -0.713335 
0.227647 0.471535 -0.851958 
0.185234 0.410715 -0.89275 
0.207546 0.347071 -0.914585 
0.241434 0.321214 -0.915713 
0.264263 0.330619 -0.906011 
0.225117 0.307861 -0.924416 
0.176358 0.266647 -0.947522 
0.129784 0.216339 -0.967654 
0.119326 0.212941 -0.969751 
0.0943989 0.186478 -0.977914 
0.0632965 0.14072 -0.988024 
0.0431423 0.109216 -0.993081 
0.0262269 0.0782936 -0.996585 
0.0152945 0.0551067 -0.998363 
0.00951388 0.038945 -0.999196 
0.00549395 0.0269395 -0.999622 
0.00318603 0.0184529 -0.999825 
0.00224331 0.0124178 -0.99992 
0.00051481 0.00739455 -0.999973 
-0.00108404 0.00352419 -0.999993 
-0.00219621 0.000614295 -0.999997 
-0.00285879 -0.00151029 -0.999995 
-0.00419222 -0.0028743 -0.999987 
-0.00462142 -0.00319924 -0.999984 
-0.00464405 -0.00230012 -0.999987 
-0.00475579 -0.000666404 -0.999988 
-0.00575479 0.000867234 -0.999983 
-0.00775285 0.00135032 -0.999969 
-0.00780197 0.0010003 -0.999969 
-0.00790971 -0.000852557 -0.999968 
-0.00931847 -0.00487396 -0.999945 
-0.00895948 -0.0107941 -0.999902 
-0.00901815 -0.0183231 -0.999791 
-0.00684386 -0.0281725 -0.99958 
-0.00597831 -0.033596 -0.999418 
-0.00423462 -0.0272384 -0.99962 
1.29927e-05 -0.00123364 -0.999999 
-5.77419e-05 -0.0011748 0.999999 
0.00171495 -0.0266099 0.999644 
0.00287341 -0.0344083 0.999404 
0.00319418 -0.0284799 0.999589 
0.00368622 -0.0181916 0.999828 
0.00385196 -0.0102494 0.99994 
0.00380701 -0.00443897 0.999983 
0.00356691 -0.000423146 0.999994 
0.00283788 0.00162108 0.999995 
0.00179614 0.00197192 0.999996 
0.00128617 0.000899689 0.999999 
0.000514994 -0.000992201 0.999999 
-0.000127856 -0.00262672 0.999997 
-0.000926674 -0.00321714 0.999994 
-0.0017074 -0.00250124 0.999995 
-0.00250943 -0.00082069 0.999997 
-0.00397399 0.00177496 0.999991 
-0.00536457 0.005187 0.999972 
-0.00623648 0.00923222 0.999938 
-0.00821547 0.0149639 0.999854 
-0.00950783 0.0220453 0.999712 
-0.0121807 0.0325684 0.999395 
-0.0160202 0.0467263 0.998779 
-0.0229946 0.0668945 0.997495 
-0.0356745 0.0959385 0.994748 
-0.055615 0.135571 0.989205 
-0.0806946 0.17823 0.980674 
-0.110659 0.224934 0.96807 
-0.139751 0.25705 0.95624 
-0.180582 0.316118 0.931375 
-0.216556 0.353509 0.910019 
-0.240798 0.362997 0.900139 
-0.276587 0.385129 0.88044 
-0.317434 0.408554 0.855757 
-0.252628 0.359122 0.898449 
-0.301317 0.407419 0.862101 
-0.2726 0.464167 0.842757 
-0.150233 0.56355 0.812306 
-0.0221522 0.830394 0.556736 
-0.00683904 0.975771 0.218687 
0.0345597 0.81427 -0.579456 
0.0908082 0.576428 -0.812087 
0.28733 0.456433 -0.842087 
0.245879 0.396675 -0.884416 
0.278359 0.360132 -0.890405 
0.311346 0.361932 -0.878674 
0.288727 0.369009 -0.883442 
0.227637 0.334259 -0.914578 
0.216099 0.35318 -0.910256 
0.167243 0.27644 -0.946367 
0.149452 0.276453 -0.949335 
0.109768 0.227026 -0.967683 
0.075905 0.172925 -0.982006 
0.0524526 0.132635 -0.989776 
0.0340918 0.094627 -0.994929 
0.0220397 0.0651438 -0.997632 
0.0158482 0.045834 -0.998823 
0.0118389 0.0314705 -0.999435 
0.00964691 0.0218356 -0.999715 
0.00825719 0.0147803 -0.999857 
0.00649592 0.00897049 -0.999939 
0.00483706 0.00456318 -0.999978 
0.00351114 0.00114605 -0.999993 
0.00301712 -0.00121102 -0.999995 
0.00174747 -0.00264908 -0.999995 
0.00116643 -0.00305299 -0.999995 
0.00131488 -0.00215217 -0.999997 
0.000934233 -0.000263887 -1 
1.17913e-05 0.00154972 -0.999999 
-0.00169893 0.00219113 -0.999996 
-0.00222368 0.00165072 -0.999996 
-0.00294347 -0.00081204 -0.999995 
-0.00424841 -0.00543359 -0.999976 
-0.00412743 -0.0115267 -0.999925 
-0.00430965 -0.0195154 -0.9998 
-0.00277534 -0.0293371 -0.999566 
-0.00233712 -0.0345415 -0.999401 
-0.00180106 -0.0277057 -0.999615 
3.54979e-05 -0.00109898 -0.999999 
-8.84592e-05 -0.00123095 0.999999 
0.000305109 -0.0266072 0.999646 
0.000545198 -0.0348312 0.999393 
0.000479759 -0.0298068 0.999556 
0.000612007 -0.0194092 0.999811 
0.000383356 -0.0104842 0.999945 
9.14212e-05 -0.00424248 0.999991 
-0.000482996 0.000262713 1 
-0.00144626 0.00269854 0.999995 
-0.00248165 0.00309585 0.999992 
-0.00299098 0.00172226 0.999994 
-0.00362971 -0.000518205 0.999993 
-0.00433853 -0.00248067 0.999988 
-0.00487197 -0.00323706 0.999983 
-0.00564787 -0.00256437 0.999981 
-0.00651057 -0.00070913 0.999979 
-0.00767914 0.00212837 0.999968 
-0.00900233 0.00604028 0.999941 
-0.0103121 0.011026 0.999886 
-0.0120375 0.0176767 0.999771 
-0.0136146 0.0260386 0.999568 
-0.0163321 0.0381546 0.999138 
-0.020555 0.0553088 0.998258 
-0.0282852 0.07973 0.996415 
-0.042142 0.115501 0.992413 
-0.0618386 0.160947 0.985024 
-0.0858645 0.205319 0.974921 
-0.117349 0.260602 0.958288 
-0.147985 0.293123 0.944552 
-0.186739 0.358184 0.914786 
-0.22517 0.400332 0.888275 
-0.264473 0.433505 0.861468 
-0.289256 0.439075 0.850614 
-0.322341 0.455424 0.829871 
-0.369484 0.438611 0.819208 
-0.330288 0.392519 0.858393 
-0.27137 0.429524 0.861317 
-0.189363 0.451415 0.87199 
-0.0258023 0.786399 0.61718 
0.000154044 0.990855 0.134929 
-0.0197972 0.925828 -0.377426 
0.129502 0.557004 -0.820351 
0.351945 0.439044 -0.826665 
0.331407 0.395407 -0.856635 
0.381797 0.403127 -0.831697 
0.343747 0.400923 -0.849175 
0.297252 0.403314 -0.865436 
0.285555 0.428401 -0.857281 
0.249439 0.428609 -0.868375 
0.186226 0.349409 -0.918277 
0.137898 0.293509 -0.945958 
0.10637 0.257959 -0.960283 
0.0822905 0.204344 -0.975434 
0.0569341 0.155031 -0.986268 
0.0381934 0.110637 -0.993127 
0.0264717 0.0775492 -0.996637 
0.0198652 0.0539764 -0.998345 
0.0158516 0.0365574 -0.999206 
0.0137981 0.0256199 -0.999577 
0.0121725 0.0175502 -0.999772 
0.0105336 0.0109005 -0.999885 
0.00896838 0.00589162 -0.999942 
0.0076242 0.00208124 -0.999969 
0.00699377 -0.000619809 -0.999975 
0.00613828 -0.00248361 -0.999978 
0.00536393 -0.00313696 -0.999981 
0.00523563 -0.00246661 -0.999983 
0.00478841 -0.000424984 -0.999988 
0.00412497 0.00198053 -0.99999 
0.00275746 0.00316819 -0.999991 
0.00191419 0.00272277 -0.999994 
0.00114177 0.000241049 -0.999999 
-0.000223875 -0.00457994 -0.999989 
-0.000498186 -0.010833 -0.999941 
-0.000830266 -0.0194631 -0.99981 
-0.000252014 -0.0297616 -0.999557 
-7.7235e-05 -0.0348739 -0.999392 
-0.000255256 -0.0269424 -0.999637 