# vtk DataFile Version 3.0 
Exported using Morpho https://github.com/Morpho-lang/morpho 
ASCII 
DATASET UNSTRUCTURED_GRID 

POINTS 1978 float 
-8.48528 -2.82843 1.47688e-08 
-8.2454 -2.82843 2.44046e-08 
-8.00689 -2.82843 -9.54383e-09 
-7.74997 -2.82843 1.01733e-08 
-7.36687 -2.82843 8.67106e-09 
-7.11897 -2.82843 -1.40685e-08 
-6.91477 -2.82843 2.08921e-08 
-6.71882 -2.82843 2.9311e-09 
-6.52498 -2.82843 -7.38008e-09 
-6.32211 -2.82843 8.22571e-10 
-6.11844 -2.82843 1.90789e-09 
-5.90268 -2.82843 7.39318e-09 
-5.68378 -2.82843 3.53447e-09 
-5.46818 -2.82843 -3.21695e-09 
-5.26714 -2.82843 2.00375e-09 
-5.06492 -2.82843 5.36561e-09 
-4.85056 -2.82843 7.19212e-09 
-4.64187 -2.82843 1.17271e-09 
-4.4168 -2.82843 -7.74678e-10 
-4.19283 -2.82843 -6.90394e-09 
-3.97618 -2.82843 -6.89971e-09 
-3.77678 -2.82843 -1.33854e-08 
-3.5807 -2.82843 -2.16411e-08 
-3.37953 -2.82843 -3.0811e-08 
-3.16883 -2.82843 -5.02781e-08 
-2.95956 -2.82843 -7.58899e-08 
-2.73994 -2.82843 -1.15915e-07 
-2.52574 -2.82843 -1.95872e-07 
-2.24649 -2.82843 -2.46071e-07 
-2.04578 -2.82843 -3.12132e-07 
-1.79325 -2.82843 -3.73727e-07 
-1.60364 -2.82843 -4.53717e-07 
-1.31793 -2.82843 -5.0935e-07 
-1.12501 -2.82843 -4.35444e-07 
-0.960137 -2.82843 -3.77475e-07 
-0.773713 -2.82844 -2.09366e-07 
-0.569911 -2.82843 -5.07599e-07 
-0.403045 -2.82843 -1.50236e-07 
-0.184743 -2.82843 -3.57445e-08 
-0.0771797 -2.82843 5.74319e-08 
0.179512 -2.82842 7.74925e-08 
0.436299 -2.82841 -1.49993e-08 
0.600819 -2.82843 2.71823e-07 
0.791798 -2.82843 2.47803e-07 
0.953938 -2.82843 3.63261e-07 
1.16714 -2.82843 4.01318e-07 
1.32644 -2.82843 3.98004e-07 
1.52265 -2.82843 4.20305e-07 
1.71293 -2.82843 4.24992e-07 
2.01465 -2.82843 3.73382e-07 
2.23702 -2.82843 2.59847e-07 
2.51651 -2.82843 1.94438e-07 
2.75866 -2.82843 1.14437e-07 
2.99276 -2.82843 8.31162e-08 
3.20042 -2.82843 4.38035e-08 
3.39847 -2.82843 3.30105e-08 
3.58933 -2.82843 2.31749e-08 
3.78315 -2.82843 1.68223e-08 
3.99924 -2.82843 6.91725e-09 
4.21879 -2.82843 -6.88821e-10 
4.42626 -2.82843 1.99406e-09 
4.65123 -2.82843 1.51286e-09 
4.85979 -2.82843 -6.16934e-09 
5.06513 -2.82843 -1.42404e-09 
5.27252 -2.82843 -5.04318e-09 
5.48326 -2.82843 -5.67097e-09 
5.67806 -2.82843 1.95913e-09 
5.90564 -2.82843 -1.65119e-09 
6.13627 -2.82843 -7.50766e-09 
6.34519 -2.82843 -2.87479e-09 
6.58939 -2.82843 -9.13466e-09 
6.79302 -2.82843 -1.51895e-09 
6.97539 -2.82843 8.30024e-09 
7.27741 -2.82843 9.32477e-09 
7.52899 -2.82843 1.33697e-08 
7.7442 -2.82843 -1.79074e-08 
8.00117 -2.82843 -2.3334e-08 
8.25244 -2.82843 2.26727e-08 
8.48528 -2.82843 9.15629e-09 
-8.48528 -2.60939 -3.88059e-08 
-8.2088 -2.57493 -2.78142e-09 
-8.01396 -2.50562 -6.37857e-09 
-7.81589 -2.6035 -3.60841e-09 
-7.56129 -2.68154 -5.32808e-09 
-7.25401 -2.61322 -6.07799e-09 
-7.00934 -2.58165 -6.02081e-09 
-6.79447 -2.5783 -6.66332e-09 
-6.5808 -2.57106 -6.22008e-09 
-6.36368 -2.57801 -6.61456e-09 
-6.13871 -2.58059 -6.60315e-09 
-5.92531 -2.58899 -5.56833e-09 
-5.70011 -2.59101 -3.36888e-09 
-5.48197 -2.59432 -4.26623e-09 
-5.26716 -2.58536 -2.98217e-09 
-5.05053 -2.59512 -2.5112e-09 
-4.83973 -2.58307 -1.69669e-09 
-4.61296 -2.59724 -5.70024e-10 
-4.38433 -2.59694 7.71096e-10 
-4.15908 -2.59409 2.30551e-09 
-3.94949 -2.58228 4.15241e-09 
-3.74224 -2.58345 6.11971e-09 
-3.53247 -2.59149 8.03966e-09 
-3.31406 -2.59888 8.67327e-09 
-3.09234 -2.58975 8.64195e-09 
-2.86592 -2.59774 6.34608e-09 
-2.64095 -2.5934 -2.00276e-09 
-2.39881 -2.65205 2.16163e-08 
-2.16391 -2.61653 -1.81455e-08 
-1.94697 -2.67493 3.28063e-08 
-1.73162 -2.65347 -1.06472e-08 
-1.5025 -2.72676 -1.00171e-08 
-1.30536 -2.69621 -3.90489e-08 
-1.13515 -2.69638 8.20908e-08 
-0.873225 -2.72586 3.10201e-08 
-0.781178 -2.68923 1.13674e-07 
-0.669526 -2.75548 -2.16368e-08 
-0.505796 -2.74094 4.72717e-08 
-0.326545 -2.76383 -4.64544e-08 
-0.132212 -2.7016 -1.33411e-09 
0.155723 -2.74465 -1.71432e-08 
0.404485 -2.70211 -6.52583e-08 
0.662184 -2.74808 -8.43135e-08 
0.824471 -2.73862 1.16129e-08 
1.01927 -2.75053 8.58557e-08 
1.22211 -2.70088 -5.35484e-08 
1.40228 -2.69963 1.13689e-08 
1.59333 -2.66664 3.8984e-08 
1.81788 -2.70545 -2.11693e-08 
2.03172 -2.63892 -7.31424e-11 
2.28367 -2.66046 -2.87372e-09 
2.54434 -2.63161 -1.45142e-09 
2.79488 -2.62148 -9.26355e-09 
3.01999 -2.59796 -7.84797e-09 
3.23599 -2.58938 -8.52494e-09 
3.44306 -2.58299 -8.84994e-09 
3.64457 -2.58336 -7.47984e-09 
3.85667 -2.60031 -4.87468e-09 
4.08218 -2.59564 -3.17437e-09 
4.2962 -2.57577 -1.60608e-09 
4.51579 -2.5943 6.12375e-11 
4.73307 -2.58072 1.2954e-09 
4.94554 -2.58574 2.28666e-09 
5.15733 -2.59482 2.98379e-09 
5.3726 -2.59842 3.26798e-09 
5.57806 -2.57175 4.10752e-09 
5.79202 -2.59935 3.97932e-09 
6.02335 -2.59621 5.05487e-09 
6.24577 -2.57201 6.41785e-09 
6.47002 -2.61265 5.2976e-09 
6.69285 -2.57341 6.52368e-09 
6.88946 -2.54165 7.10585e-09 
7.10782 -2.65144 4.81566e-09 
7.38165 -2.6117 7.00167e-09 
7.60703 -2.57463 4.52678e-09 
7.84308 -2.6116 3.45085e-09 
8.04525 -2.53519 3.22566e-09 
8.24678 -2.61121 2.34292e-09 
8.48528 -2.57539 -3.02824e-08 
-8.48528 -2.39078 7.79622e-09 
-8.25284 -2.3124 -3.92283e-10 
-7.96708 -2.28946 -3.36495e-09 
-7.72677 -2.38814 -5.79923e-09 
-7.54666 -2.24227 -4.61528e-09 
-7.47371 -2.4882 -5.18833e-09 
-7.17127 -2.3912 -5.2331e-09 
-6.92646 -2.33654 -5.73414e-09 
-6.70169 -2.33413 -3.69104e-09 
-6.46881 -2.33367 -4.48328e-09 
-6.2297 -2.34745 -3.4526e-09 
-6.0095 -2.32981 -3.27294e-09 
-5.79496 -2.3582 -2.73277e-09 
-5.57082 -2.35485 -2.49483e-09 
-5.35734 -2.35364 -2.31215e-09 
-5.13827 -2.35815 -1.52646e-09 
-4.92692 -2.34155 -8.38723e-10 
-4.70503 -2.35777 1.17806e-10 
-4.48346 -2.36274 1.1892e-09 
-4.26112 -2.36208 2.28518e-09 
-4.04882 -2.34148 3.21713e-09 
-3.84091 -2.34036 3.5821e-09 
-3.63249 -2.34741 4.06336e-09 
-3.42573 -2.36235 4.56547e-09 
-3.21782 -2.36243 4.27925e-09 
-2.99593 -2.36492 -1.6538e-09 
-2.78248 -2.37284 -8.81465e-09 
-2.54726 -2.41473 -6.52838e-09 
-2.3267 -2.45515 -1.83886e-08 
-2.10635 -2.43566 2.64345e-09 
-1.88998 -2.50966 -7.24014e-09 
-1.59926 -2.56306 3.12746e-09 
-1.4218 -2.57623 5.7352e-09 
-1.23905 -2.56976 3.08618e-08 
-0.986302 -2.67914 -1.61123e-07 
-0.886315 -2.5652 2.05023e-07 
-0.608956 -2.66763 1.08788e-07 
-0.418151 -2.67667 -5.19142e-08 
-0.235886 -2.7086 3.37799e-08 
-0.000744127 -2.77538 -4.18443e-09 
0.292259 -2.77464 1.38724e-08 
0.515878 -2.73778 6.17341e-08 
0.694409 -2.65769 9.05216e-08 
0.888131 -2.66773 -5.40566e-08 
1.07322 -2.66045 3.40211e-08 
1.27014 -2.5799 8.48044e-08 
1.45643 -2.55242 -6.45423e-08 
1.6471 -2.49582 1.81168e-08 
1.81027 -2.54605 1.01336e-08 
2.10033 -2.47007 9.48835e-09 
2.33404 -2.48154 6.68556e-09 
2.52298 -2.40691 6.0862e-09 
2.7356 -2.42773 -1.88475e-09 
2.9709 -2.37666 4.976e-10 
3.18572 -2.35877 -2.92253e-09 
3.39874 -2.34471 -2.08563e-09 
3.60288 -2.33626 -3.8165e-09 
3.8027 -2.35668 -4.28958e-09 
4.00965 -2.37102 -3.62901e-09 
4.22677 -2.33493 -2.5561e-09 
4.4452 -2.34413 -1.40578e-09 
4.65352 -2.3404 -4.80526e-10 
4.871 -2.34127 5.50162e-10 
5.08391 -2.35305 1.4195e-09 
5.29523 -2.36595 1.87434e-09 
5.50084 -2.33625 2.05925e-09 
5.72147 -2.34892 2.32162e-09 
5.9364 -2.36469 3.01027e-09 
6.15806 -2.33862 3.35769e-09 
6.39349 -2.35738 4.03178e-09 
6.59788 -2.35001 4.18557e-09 
6.80581 -2.28816 3.32535e-09 
7.04356 -2.37145 6.49294e-09 
7.25506 -2.43603 6.49875e-09 
7.50884 -2.34627 5.92324e-09 
7.76247 -2.36554 4.34347e-09 
8.00169 -2.30595 -8.06028e-11 
8.2694 -2.3717 -1.07137e-09 
8.48528 -2.30066 4.67429e-09 
-8.48528 -2.13937 1.87893e-09 
-8.21164 -2.10013 -1.15615e-09 
-8.0256 -2.0239 2.37947e-09 
-7.78016 -2.1233 -2.04232e-09 
-7.50757 -2.01788 -1.08334e-09 
-7.31275 -2.25521 -3.68554e-09 
-7.03976 -2.12954 -1.34898e-09 
-6.80052 -2.08871 1.19651e-10 
-6.58096 -2.09941 -2.35607e-10 
-6.33598 -2.12186 8.5102e-10 
-6.11804 -2.08501 -2.54488e-10 
-5.89626 -2.09405 2.54387e-10 
-5.68964 -2.12255 3.92554e-10 
-5.47039 -2.11154 -3.1071e-11 
-5.25488 -2.11993 2.07933e-10 
-5.04518 -2.10526 3.23452e-10 
-4.82103 -2.10976 6.80071e-10 
-4.60406 -2.11809 9.999e-10 
-4.38543 -2.12345 1.27178e-09 
-4.17644 -2.10951 9.64106e-10 
-3.96421 -2.0958 5.09564e-10 
-3.75469 -2.10395 2.43904e-11 
-3.54641 -2.11041 -1.89638e-09 
-3.34837 -2.12088 -6.0554e-09 
-3.13189 -2.14429 -6.04913e-09 
-2.91447 -2.14791 -1.27345e-08 
-2.69516 -2.19597 -1.61348e-08 
-2.50283 -2.20354 -2.6664e-08 
-2.3363 -2.26208 -1.05505e-08 
-2.15793 -2.2446 -5.06223e-08 
-1.95652 -2.3244 -4.29001e-08 
-1.74168 -2.42991 -1.0473e-08 
-1.53949 -2.41671 -1.29847e-08 
-1.37317 -2.43089 5.44464e-08 
-1.18674 -2.46123 -1.58794e-07 
-1.06468 -2.57318 -4.75685e-08 
-0.731106 -2.61266 -2.6979e-07 
-0.388813 -2.54403 1.27056e-07 
-0.197982 -2.58785 1.07949e-07 
0.0559262 -2.68743 5.5979e-08 
0.299726 -2.65994 -1.17942e-08 
0.529665 -2.63475 4.06739e-08 
0.70347 -2.5697 1.44036e-07 
0.879086 -2.58442 -8.77916e-08 
1.09286 -2.56601 -8.02163e-08 
1.40309 -2.43251 6.25988e-08 
1.58012 -2.36754 -2.22817e-08 
1.7624 -2.32952 3.69405e-08 
1.9155 -2.41063 -9.69605e-09 
2.21131 -2.31365 1.71309e-08 
2.38908 -2.24066 1.8663e-08 
2.60931 -2.21405 3.23092e-08 
2.8092 -2.20808 9.99038e-09 
3.01458 -2.14237 1.24819e-08 
3.22649 -2.12802 7.06289e-09 
3.43412 -2.1041 3.24963e-09 
3.63577 -2.09188 1.42645e-09 
3.84027 -2.11737 -4.50869e-10 
4.04784 -2.13059 -1.13003e-09 
4.27012 -2.09623 -7.34877e-10 
4.47574 -2.08803 -9.60856e-10 
4.69455 -2.09915 -7.09048e-10 
4.91259 -2.10214 -6.44124e-10 
5.12779 -2.11532 -3.22393e-10 
5.3314 -2.11436 -3.44221e-10 
5.55478 -2.10577 -1.76512e-10 
5.76877 -2.10735 1.68032e-10 
5.98253 -2.11621 5.40117e-10 
6.21899 -2.11376 3.10624e-10 
6.42404 -2.09491 1.46314e-10 
6.62708 -2.08582 -3.1202e-10 
6.89629 -2.09563 -1.19457e-09 
7.10589 -2.12037 6.67654e-10 
7.31017 -2.19792 2.88888e-09 
7.51711 -2.07201 6.99233e-10 
7.72227 -2.13917 1.75404e-09 
7.95898 -2.07566 -2.68141e-09 
8.21875 -2.15302 -3.00624e-09 
8.48528 -2.08971 3.39937e-08 
-8.48528 -1.71446 -2.01701e-08 
-8.35505 -1.91155 1.36841e-09 
-7.90865 -1.84798 3.97348e-09 
[...]
POINT_DATA 1978 
VECTORS vectors float
0.00606789 -0.00686938 0.999958 
0.00465813 -0.05113 0.998681 
0.00472471 -0.0500426 0.998736 
0.00613384 -0.0289429 0.999561 
0.00581438 -0.0242189 0.999689 
0.0054965 -0.0308806 0.999508 
0.00502087 -0.038632 0.999241 
0.00507453 -0.048353 0.998817 
0.0049567 -0.0568276 0.998371 
0.00482409 -0.0637743 0.997952 
0.00468875 -0.0630417 0.998 
0.00456916 -0.0555634 0.998445 
0.00437271 -0.0420886 0.999104 
0.00460119 -0.0284372 0.999585 
0.00468026 -0.0181116 0.999825 
0.00463165 -0.0129736 0.999905 
0.00473033 -0.0115686 0.999922 
0.00473588 -0.0110778 0.999927 
0.00451669 -0.00749501 0.999962 
0.00437853 0.00118956 0.99999 
0.00427343 0.0150829 0.999877 
0.00413854 0.032746 0.999455 
0.00386165 0.0549856 0.99848 
0.00349362 0.0833453 0.996515 
0.00322115 0.117755 0.993038 
0.0028742 0.155587 0.987818 
0.0028053 0.195953 0.980609 
0.0024659 0.232171 0.972672 
0.00222256 0.27619 0.961101 
0.001996 0.303035 0.952977 
0.00149951 0.337902 0.94118 
0.000822066 0.370347 0.928893 
0.000307748 0.435744 0.90007 
-9.1697e-05 0.488118 0.872778 
-0.00115702 0.554238 0.832358 
-0.0015445 0.664781 0.747037 
-0.00110377 0.781551 0.623841 
-0.000946038 0.8844 0.466728 
-0.000451038 0.976466 0.215671 
0.000353818 0.998369 0.0570934 
0.000164325 0.966397 -0.257054 
0.000644693 0.845765 -0.533555 
0.000383292 0.744807 -0.66728 
0.000647005 0.639268 -0.768984 
0.00104749 0.55241 -0.833572 
-7.50609e-05 0.475847 -0.879528 
-1.23385e-05 0.42556 -0.90493 
-0.000725459 0.378663 -0.925534 
-0.0013194 0.349166 -0.93706 
-0.00194984 0.308717 -0.951152 
-0.00224609 0.276423 -0.961034 
-0.0025618 0.231345 -0.972869 
-0.00278659 0.189868 -0.981806 
-0.0030054 0.148851 -0.988855 
-0.00331538 0.114405 -0.993429 
-0.00364431 0.0844786 -0.996419 
-0.00397548 0.0587097 -0.998267 
-0.00404279 0.036504 -0.999325 
-0.00405493 0.0169023 -0.999849 
-0.00449763 0.00186776 -0.999988 
-0.00453008 -0.00759642 -0.999961 
-0.0045109 -0.0137116 -0.999896 
-0.0047707 -0.0172334 -0.99984 
-0.00469188 -0.0197716 -0.999793 
-0.00451743 -0.0231814 -0.999721 
-0.00479375 -0.0286524 -0.999578 
-0.00474094 -0.0346902 -0.999387 
-0.00444769 -0.0412905 -0.999137 
-0.00498089 -0.0464086 -0.99891 
-0.00467839 -0.0500416 -0.998736 
-0.00438616 -0.0545433 -0.998502 
-0.00566089 -0.0593942 -0.998218 
-0.00501182 -0.0621834 -0.998052 
-0.00516282 -0.0573524 -0.99834 
-0.00582963 -0.036139 -0.99933 
-0.00529305 -0.0147124 -0.999877 
-0.00484804 0.00286737 -0.999984 
-0.00417173 -0.00250286 -0.999988 
-0.00525957 -0.00823676 -0.999952 
-0.00103488 -0.00723263 0.999973 
0.0212796 -0.0423785 0.998875 
0.0339394 -0.0445281 0.998431 
0.0314253 -0.0386879 0.998757 
0.0267808 -0.0263776 0.999293 
0.0353479 -0.0269296 0.999012 
0.0392556 -0.0343034 0.99864 
0.0395572 -0.0427203 0.998304 
0.0388734 -0.0505945 0.997962 
0.0369875 -0.0554415 0.997777 
0.0353973 -0.0551152 0.997852 
0.0323059 -0.0488976 0.998281 
0.0301826 -0.0396306 0.998758 
0.0310259 -0.029144 0.999094 
0.031021 -0.0204724 0.999309 
0.0306631 -0.0150294 0.999417 
0.0307505 -0.0120574 0.999454 
0.0279484 -0.0086428 0.999572 
0.0241502 -0.00173564 0.999707 
0.0192233 0.0100773 0.999764 
0.0127589 0.0268377 0.999558 
0.00409961 0.0477549 0.998851 
-0.00657142 0.0736755 0.997261 
-0.0201275 0.106261 0.994135 
-0.0388022 0.145561 0.988588 
-0.0562325 0.186343 0.980874 
-0.0764308 0.225686 0.971197 
-0.0680386 0.257646 0.963841 
-0.104357 0.294228 0.950021 
-0.0846638 0.322842 0.942658 
-0.117972 0.35689 0.926667 
-0.0792856 0.394712 0.915378 
-0.113605 0.44319 0.8892 
-0.111173 0.495749 0.861321 
-0.0882533 0.595369 0.798591 
-0.115417 0.655741 0.746112 
-0.0534542 0.725196 0.686465 
-0.0425697 0.820708 0.56976 
-0.0181419 0.920102 0.391259 
-0.00625066 0.989462 0.144656 
0.00757385 0.976126 -0.217074 
0.0251577 0.858396 -0.51237 
0.0391374 0.712249 -0.700835 
0.0621194 0.619581 -0.782471 
0.071316 0.527045 -0.846839 
0.107772 0.463304 -0.879622 
0.109264 0.410074 -0.905484 
0.12617 0.374014 -0.918801 
0.0763667 0.338954 -0.937698 
0.10341 0.311958 -0.944452 
0.0755727 0.27476 -0.958539 
0.0706907 0.234806 -0.969469 
0.0545775 0.193847 -0.979513 
0.0434651 0.15772 -0.986527 
0.0284293 0.12229 -0.992087 
0.0144547 0.0912914 -0.995719 
0.00220021 0.0638971 -0.997954 
-0.00790681 0.038664 -0.999221 
-0.0160877 0.0186096 -0.999697 
-0.0229167 0.00441676 -0.999728 
-0.0264116 -0.0069067 -0.999627 
-0.0298968 -0.0137782 -0.999458 
-0.0310607 -0.0180965 -0.999354 
-0.0309655 -0.0214749 -0.99929 
-0.0307885 -0.0255817 -0.999199 
-0.0329176 -0.0301251 -0.999004 
-0.0306761 -0.0356127 -0.998895 
-0.0321982 -0.0410652 -0.998638 
-0.0353601 -0.0453912 -0.998343 
-0.0319521 -0.0505191 -0.998212 
-0.0370402 -0.0542825 -0.997838 
-0.0403936 -0.0558715 -0.997621 
-0.02959 -0.0573861 -0.997913 
-0.0353977 -0.0472976 -0.998253 
-0.0335281 -0.0328461 -0.998898 
-0.026361 -0.0172267 -0.999504 
-0.0255983 -0.0167439 -0.999532 
-0.0188942 -0.00957327 -0.999776 
-0.00701734 -0.00642775 -0.999954 
0.00150761 -0.00757413 0.999971 
0.0202863 -0.0391011 0.999029 
0.0367423 -0.0473346 0.998203 
0.0408829 -0.0346948 0.998561 
0.0408103 -0.0298243 0.998722 
0.0404805 -0.0266698 0.998824 
0.0468663 -0.0298284 0.998456 
0.0487991 -0.0369546 0.998125 
0.0475082 -0.0443033 0.997888 
0.0457548 -0.048327 0.997783 
0.0424132 -0.048621 0.997916 
0.0394851 -0.0439374 0.998254 
0.0372112 -0.0388461 0.998552 
0.0357856 -0.0309764 0.998879 
0.0352553 -0.023959 0.999091 
0.0347547 -0.0186671 0.999222 
0.0342275 -0.0146498 0.999307 
0.032658 -0.00942016 0.999422 
0.0284235 -0.000986588 0.999596 
0.0204463 0.0124924 0.999713 
0.00812215 0.0314519 0.999472 
-0.00690441 0.0540864 0.998513 
-0.0247451 0.0813301 0.99638 
-0.0449591 0.112304 0.992656 
-0.0711727 0.1491 0.986258 
-0.103837 0.191732 0.975939 
-0.13472 0.231046 0.963571 
-0.152803 0.263324 0.952529 
-0.165966 0.292573 0.941731 
-0.208127 0.330491 0.920576 
-0.192878 0.35014 0.916624 
-0.196583 0.392976 0.89829 
-0.204286 0.428597 0.880098 
-0.225896 0.474467 0.850795 
-0.144665 0.539435 0.829507 
-0.220523 0.589273 0.777256 
-0.100999 0.749008 0.654818 
-0.0571867 0.864499 0.499371 
-0.0164504 0.963559 0.26699 
0.00410483 0.999373 -0.03517 
0.00965405 0.927051 -0.374812 
0.0368091 0.804792 -0.592415 
0.103868 0.691141 -0.715217 
0.118478 0.584319 -0.802829 
0.147294 0.505103 -0.850397 
0.227041 0.452457 -0.862401 
0.226904 0.414883 -0.881128 
0.248902 0.390387 -0.886367 
0.185999 0.355933 -0.915814 
0.191744 0.324719 -0.926171 
0.156331 0.288065 -0.944764 
0.161919 0.268561 -0.949557 
0.12274 0.227511 -0.966009 
0.105574 0.193622 -0.975379 
0.0786733 0.156843 -0.984485 
0.0542462 0.122747 -0.990955 
0.0319279 0.091894 -0.995257 
0.0105811 0.0622916 -0.998002 
-0.00588146 0.0371537 -0.999292 
-0.0162603 0.0184691 -0.999697 
-0.0252494 0.0018148 -0.99968 
-0.0302282 -0.00898462 -0.999503 
-0.0333789 -0.016154 -0.999312 
-0.0349497 -0.0205484 -0.999178 
-0.035511 -0.0239294 -0.999083 
-0.0357714 -0.0272657 -0.998988 
-0.03655 -0.0310995 -0.998848 
-0.0381928 -0.0354846 -0.99864 
-0.0401629 -0.0399331 -0.998395 
-0.0422727 -0.0454902 -0.99807 
-0.0439161 -0.0496245 -0.997802 
-0.0448301 -0.0515621 -0.997663 
-0.0473038 -0.0518404 -0.997535 
-0.0462559 -0.0495947 -0.997698 
-0.0438266 -0.0408183 -0.998205 
-0.0371219 -0.0339105 -0.998735 
-0.0284013 -0.0366149 -0.998926 
-0.0179269 -0.0259594 -0.999502 
-0.00594852 -0.00694597 -0.999958 
-0.0002946 -0.0111754 0.999936 
0.0169684 -0.041425 0.998998 
0.0193677 -0.050623 0.99853 
0.0306869 -0.0391069 0.998764 
0.0284322 -0.030298 0.999137 
0.0443864 -0.0290707 0.998591 
0.0407681 -0.034505 0.998573 
0.0396146 -0.0406297 0.998389 
0.0394085 -0.0438041 0.998263 
0.0368401 -0.0442272 0.998342 
0.0329184 -0.0398435 0.998664 
0.0293817 -0.0353506 0.998943 
0.0278345 -0.0313036 0.999122 
0.0266982 -0.0264922 0.999293 
0.0263812 -0.0223449 0.999402 
0.0256436 -0.0181894 0.999506 
0.0243498 -0.0118835 0.999633 
0.0208497 -0.00222207 0.99978 
0.013153 0.0126184 0.999834 
-0.000114741 0.0330275 0.999455 
-0.0183642 0.0596313 0.998052 
-0.0400452 0.0900681 0.99513 
-0.0677764 0.126289 0.989676 
-0.0986331 0.164106 0.981499 
-0.132996 0.204887 0.969708 
-0.17718 0.251781 0.951427 
-0.209306 0.285241 0.935323 
-0.246628 0.319455 0.914944 
-0.254348 0.333052 0.907956 
-0.303715 0.371156 0.877497 
-0.300444 0.379172 0.875193 
-0.271323 0.389603 0.88011 
-0.329662 0.435134 0.837843 
-0.339302 0.468936 0.815459 
-0.345018 0.513026 0.785981 
-0.232455 0.531012 0.814856 
-0.189868 0.670551 0.717155 
-0.0912772 0.893065 0.440572 
-0.0297574 0.97729 0.209807 
0.0124503 0.993524 -0.112938 
0.0289751 0.920688 -0.389222 
0.0657739 0.779911 -0.622425 
0.15947 0.681585 -0.714151 
0.185532 0.58582 -0.788919 
0.23275 0.508555 -0.828975 
0.351553 0.447759 -0.822145 
0.360036 0.425794 -0.830105 
0.346222 0.408192 -0.844695 
0.254476 0.362791 -0.896451 
0.257224 0.339919 -0.904594 
0.255123 0.325126 -0.910607 
0.225598 0.295012 -0.928479 
0.184494 0.257144 -0.948598 
0.160822 0.230817 -0.959615 
0.122719 0.19078 -0.973932 
0.0896405 0.153703 -0.984043 
0.0600699 0.117706 -0.99123 
0.0312699 0.0801819 -0.99629 
0.00989491 0.0495546 -0.998723 
-0.00359827 0.0259745 -0.999656 
-0.0139431 0.0076196 -0.999874 
-0.0212 -0.00710423 -0.99975 
-0.0242084 -0.0163314 -0.999574 
-0.0260936 -0.0214974 -0.999428 
-0.0263837 -0.0243392 -0.999356 
-0.0271699 -0.0266773 -0.999275 
-0.028869 -0.0290695 -0.999161 
-0.0313911 -0.0325871 -0.998976 
-0.0338856 -0.0378198 -0.99871 
-0.0352397 -0.0424255 -0.998478 
-0.0366161 -0.0466513 -0.99824 
-0.0379545 -0.0490417 -0.998075 
-0.0396873 -0.047284 -0.998093 
-0.0424811 -0.0452655 -0.998071 
-0.0349849 -0.0434438 -0.998443 
-0.0336036 -0.0428971 -0.998514 
-0.0235556 -0.0483925 -0.998551 
-0.0150863 -0.0381688 -0.999157 
-0.00453766 -0.00797805 -0.999958 
0.0024055 -0.0109779 0.999935 
0.00510104 -0.0324599 0.99946 
0.0109899 -0.0499428 0.998692 
0.0172873 -0.0364021 0.999188 
0.0180793 -0.0310448 0.999355 
0.033513 -0.0302045 0.998982 
0.0270607 -0.0326895 0.999099 
0.0308595 -0.0375916 0.998817 
0.0307381 -0.0412617 0.998676 
0.0312399 -0.041272 0.99866 
0.0272653 -0.0369569 0.998945 
0.023011 -0.0321889 0.999217 
0.0197929 -0.0286328 0.999394 
0.0190662 -0.0266369 0.999463 
0.0177787 -0.0242364 0.999548 
0.0170315 -0.0210489 0.999633 
0.0165452 -0.0148248 0.999753 
0.0129047 -0.0035284 0.999911 
0.00565312 0.0133715 0.999895 
-0.00705901 0.0364349 0.999311 
-0.0241147 0.0648349 0.997605 
-0.0480879 0.101025 0.993721 
-0.0775318 0.140875 0.986987 
-0.11317 0.186852 0.975848 
-0.150264 0.227526 0.962109 
-0.194241 0.273293 0.942116 
-0.241228 0.316315 0.917471 
-0.278975 0.347412 0.895253 
-0.3257 0.386881 0.862695 
-0.346187 0.398428 0.849359 
-0.381325 0.424031 0.821455 
-0.392186 0.434219 0.810953 
-0.371158 0.429904 0.823058 
-0.451498 0.473952 0.755989 
-0.444613 0.513946 0.733607 
-0.331332 0.560108 0.759275 
-0.170433 0.735596 0.65563 
-0.108789 0.811852 0.573639 
-0.0503001 0.922168 0.383506 
-0.000416942 0.998618 0.0525526 
0.0259032 0.966185 -0.256548 
0.05834 0.872215 -0.485631 
0.266562 0.560197 -0.784298 
0.34572 0.521255 -0.780237 
0.33776 0.479958 -0.809666 
0.457799 0.463773 -0.758508 
0.459365 0.459294 -0.760285 
0.410787 0.434683 -0.80144 
0.334219 0.388591 -0.858658 
0.357896 0.398903 -0.844267 
0.325515 0.373993 -0.868429 
0.299761 0.356262 -0.884998 
0.255145 0.320488 -0.912244 
0.227746 0.303085 -0.925349 
0.178991 0.256569 -0.949808 
0.134769 0.211904 -0.967954 
0.0962739 0.167746 -0.981118 
0.0602583 0.119538 -0.990999 
0.0329455 0.0794788 -0.996292 
0.0142647 0.0489843 -0.998698 
0.000802894 0.0241569 -0.999708 
-0.00922975 0.00272021 -0.999954 
-0.0143022 -0.011683 -0.99983 
-0.0167398 -0.0198977 -0.999662 
-0.017262 -0.0234632 -0.999576 
-0.018582 -0.0248659 -0.999518 
-0.0198568 -0.0257771 -0.999471 
-0.0221386 -0.0279526 -0.999364 
-0.0253711 -0.0324172 -0.999152 
-0.0262775 -0.0370434 -0.998968 
-0.028063 -0.0421529 -0.998717 
-0.0312123 -0.0465491 -0.998428 
-0.0300144 -0.0439995 -0.998581 
-0.031235 -0.0425337 -0.998607 
-0.0253382 -0.0432624 -0.998742 
-0.0234396 -0.049384 -0.998505 
-0.0170708 -0.0564356 -0.99826 
-0.0118137 -0.0426321 -0.999021 
-0.00109583 -0.0076034 -0.999971 
0.000151112 -0.00839378 0.999965 
-1.79706e-05 -0.035615 0.999366 
0.00505146 -0.043426 0.999044 
0.00371939 -0.0513027 0.998676 
0.00912403 -0.0373799 0.99926 
0.0175108 -0.0322235 0.999327 
0.022995 -0.036664 0.999063 
0.0254183 -0.0398987 0.99888 
0.0259226 -0.039021 0.998902 
0.0240938 -0.0345163 0.999114 
0.0208542 -0.0295999 0.999344 
0.0178626 -0.0254972 0.999515 
0.0164595 -0.0243106 0.999569 
0.015605 -0.0240705 0.999589 
0.0146375 -0.0224832 0.99964 
0.014229 -0.0179238 0.999738 
0.0120417 -0.00750727 0.999899 
0.00595706 0.0109994 0.999922 
-0.00433619 0.0353376 0.999366 
-0.019342 0.0660359 0.99763 
-0.0401885 0.101854 0.993987 
-0.0692253 0.147743 0.9866 
-0.103856 0.19777 0.974731 
-0.146672 0.253873 0.956052 
-0.186027 0.291709 0.938243 
-0.234669 0.337878 0.911466 
-0.284734 0.39106 0.875213 
-0.313547 0.401625 0.860457 
-0.35843 0.436813 0.825059 
-0.407267 0.471022 0.782479 
-0.41513 0.456596 0.786884 
-0.464475 0.488434 0.738712 
-0.469158 0.485823 0.737473 
-0.51022 0.510691 0.692004 
-0.471989 0.48198 0.738188 
-0.444676 0.563265 0.696416 
-0.303555 0.59782 0.741934 
-0.332232 0.598316 0.729136 
-0.0732279 0.947158 0.312298 
0.0193856 0.995201 -0.095914 
0.0388993 0.975994 -0.214296 
0.0887911 0.788117 -0.609087 
0.391434 0.549241 -0.738318 
0.465015 0.511572 -0.722534 
0.470638 0.481061 -0.739648 
0.530246 0.497304 -0.686679 
0.512776 0.499434 -0.698302 
0.446953 0.460485 -0.766933 
0.425472 0.45435 -0.782649 
0.401875 0.44592 -0.799782 
0.361095 0.421853 -0.831655 
0.319598 0.398967 -0.859467 
0.292778 0.39738 -0.869696 
0.237086 0.347185 -0.907333 
0.184632 0.292371 -0.938313 
0.136775 0.24148 -0.960719 
0.0938868 0.185543 -0.978141 
0.060183 0.134023 -0.989149 
0.0354032 0.0935418 -0.994986 
0.0159373 0.0580477 -0.998187 
0.00128712 0.0279027 -0.99961 
-0.0077501 0.0035425 -0.999964 
-0.0126741 -0.0122002 -0.999845 
-0.0146631 -0.0204273 -0.999684 
-0.0152756 -0.0234081 -0.999609 
-0.0158798 -0.0237173 -0.999593 
-0.0167782 -0.023318 -0.999587 
-0.0186453 -0.0249316 -0.999515 
-0.0209537 -0.0288956 -0.999363 
-0.0221582 -0.0332941 -0.9992 
-0.0243302 -0.0399848 -0.998904 
-0.026662 -0.0437598 -0.998686 
-0.0254758 -0.0415243 -0.998813 
-0.0248979 -0.0399057 -0.998893 
-0.0205573 -0.0416769 -0.99892 
-0.0186571 -0.0524382 -0.99845 
-0.0147807 -0.0559769 -0.998323 
-0.00693856 -0.033517 -0.999414 
0.000833097 -0.00787591 -0.999969 
-9.60667e-05 -0.0068037 0.999977 
-0.00241007 -0.0436736 0.999043 
-0.00150155 -0.0527559 0.998606 
0.00349081 -0.0448355 0.998988 
0.00951335 -0.0336647 0.999388 
0.0158069 -0.0337593 0.999305 
0.0215314 -0.0382451 0.999036 
0.0234526 -0.0399813 0.998925 
0.0243152 -0.03837 0.998968 
0.0220411 -0.031729 0.999254 
0.0203469 -0.0270761 0.999426 
0.0179509 -0.0229244 0.999576 
0.0159426 -0.021635 0.999639 
0.015643 -0.0227169 0.99962 
0.0154884 -0.0230448 0.999615 
0.015183 -0.0198802 0.999687 
0.0138297 -0.0109925 0.999844 
0.0094805 0.00657857 0.999934 
0.00085162 0.0328927 0.999459 
-0.0116643 0.0649139 0.997823 
-0.0301321 0.104469 0.994072 
-0.055664 0.15007 0.987107 
-0.0891728 0.208386 0.973973 
-0.129872 0.267913 0.95465 
-0.179258 0.333723 0.92547 
-0.228117 0.376559 0.897867 
-0.280021 0.435479 0.855539 
-0.332536 0.48459 0.809069 
-0.379408 0.504208 0.775773 
-0.429146 0.532475 0.729591 
-0.463768 0.52239 0.715561 
-0.488575 0.518425 0.701804 
-0.544409 0.564346 0.620591 
-0.530988 0.537989 0.65469 
-0.58196 0.542855 0.605501 
-0.376719 0.470137 0.798157 
-0.387069 0.600741 0.699491 
-0.227742 0.658941 0.71689 
-0.169401 0.769774 0.615427 
-0.0154129 0.994885 0.0998333 
0.0500652 0.937687 -0.343856 
0.209104 0.671554 -0.710838 
0.535029 0.538509 -0.650962 
0.586871 0.509828 -0.629014 
0.561323 0.506088 -0.654821 
0.57432 0.537409 -0.617534 
0.527082 0.525355 -0.667972 
0.51751 0.532212 -0.670026 
0.483065 0.521481 -0.703353 
0.431106 0.497373 -0.75284 
0.390714 0.491102 -0.778563 
0.355018 0.493151 -0.794207 
0.295463 0.456471 -0.839248 
0.247323 0.422913 -0.871766 
0.199244 0.357415 -0.912445 
0.160603 0.318949 -0.934066 
0.116102 0.24922 -0.961462 
0.0761297 0.186135 -0.979571 
0.0469675 0.135868 -0.989613 
0.0244268 0.0912025 -0.995533 
0.00771318 0.0530589 -0.998562 
-0.00503665 0.0182265 -0.999821 
-0.0117985 -0.00400844 -0.999922 
-0.0147313 -0.0173466 -0.999741 
-0.0155186 -0.0226095 -0.999624 
-0.0157533 -0.0229295 -0.999613 
-0.01581 -0.021568 -0.999642 
-0.0166021 -0.0211285 -0.999639 
-0.0181618 -0.0235506 -0.999558 
-0.0195176 -0.0281877 -0.999412 
-0.0214385 -0.0351629 -0.999152 
-0.0236709 -0.0402881 -0.998908 
-0.0229643 -0.0385392 -0.998993 
-0.0220908 -0.0371623 -0.999065 
-0.0189914 -0.0369203 -0.999138 
-0.0170386 -0.0447163 -0.998854 
-0.0146094 -0.0543196 -0.998417 
-0.00750276 -0.0416718 -0.999103 
-0.000500321 -0.00806419 -0.999968 
0.00317374 -0.0071651 0.999969 
0.000831364 -0.0479938 0.998847 
-0.00135966 -0.0535877 0.998562 
0.00481606 -0.04283 0.999071 
0.00880071 -0.0348398 0.999354 
0.0140991 -0.0338949 0.999326 
0.0185337 -0.0382104 0.999098 
0.0180486 -0.0376984 0.999126 
0.0198243 -0.0342555 0.999217 
0.0153322 -0.0273312 0.999509 
0.0144767 -0.0227313 0.999637 
0.0133262 -0.0197914 0.999715 
0.01129 -0.0204583 0.999727 
0.0121374 -0.0226578 0.99967 
0.0131074 -0.0229586 0.999651 
0.0120419 -0.0170532 0.999782 
0.0101522 -0.00297969 0.999944 
0.00429135 0.021196 0.999766 
-0.00663972 0.0558739 0.998416 
-0.0219012 0.0979684 0.994949 
-0.0444394 0.149808 0.987716 
-0.0724155 0.206587 0.975745 
-0.110283 0.275839 0.954857 
-0.155484 0.345123 0.925589 
-0.209071 0.414325 0.88579 
-0.256587 0.468887 0.845167 
-0.306098 0.531556 0.78978 
-0.355265 0.582426 0.731141 
-0.398888 0.579827 0.710415 
-0.467842 0.622197 0.627689 
-0.498348 0.600734 0.625114 
-0.522472 0.590219 0.615357 
-0.554382 0.599613 0.57717 
-0.594442 0.600791 0.5345 
-0.573207 0.561273 0.596997 
-0.623656 0.581719 0.522166 
-0.529492 0.505216 0.681465 
-0.257486 0.653082 0.71217 
-0.139355 0.833426 0.534773 
0.0271025 0.995721 -0.0883534 
0.0939149 0.794017 -0.600597 
0.330263 0.564311 -0.756624 
0.576828 0.50855 -0.639255 
0.633432 0.539379 -0.554828 
0.606769 0.545862 -0.577812 
0.586932 0.567976 -0.576986 
0.569168 0.590228 -0.572433 
0.508408 0.560296 -0.653903 
0.483429 0.57801 -0.65742 
0.436051 0.579755 -0.68829 
0.373214 0.570404 -0.731677 
0.322915 0.555834 -0.766012 
0.271193 0.522673 -0.80825 
0.218178 0.458179 -0.861667 
0.176517 0.405769 -0.896768 
0.135374 0.324691 -0.936082 
0.0968155 0.252682 -0.962693 
0.0649619 0.194035 -0.978841 
0.0397367 0.140554 -0.989275 
0.0201881 0.0925906 -0.9955 
0.00448205 0.0487393 -0.998802 
-0.00465327 0.0167231 -0.999849 
-0.0103367 -0.00637876 -0.999926 
-0.0122649 -0.0191237 -0.999742 
-0.0125667 -0.0235986 -0.999643 
-0.0117713 -0.0227656 -0.999672 
-0.0120028 -0.0201464 -0.999725 
-0.0119621 -0.0191304 -0.999746 
-0.0124642 -0.0209524 -0.999703 
-0.0147081 -0.0268795 -0.999531 
-0.0156984 -0.0327333 -0.999341 
-0.0197339 -0.0372654 -0.999111 
-0.0176344 -0.0360094 -0.999196 
-0.0192689 -0.0345319 -0.999218 
-0.0158591 -0.0352496 -0.999253 
-0.0149807 -0.0437116 -0.998932 
-0.0125292 -0.0511521 -0.998612 
-0.0101711 -0.0463072 -0.998875 
-0.0022388 -0.00724093 -0.999971 
0.00158515 -0.00665562 0.999976 
0.00462513 -0.046183 0.998922 
0.00291644 -0.05364 0.998556 
0.00652778 -0.0415819 0.999114 
0.00924189 -0.0351616 0.999339 
0.00922875 -0.0321055 0.999442 
0.0122787 -0.0355316 0.999293 
0.0100228 -0.035469 0.999321 
0.00896349 -0.0304353 0.999497 
0.00518375 -0.0227709 0.999727 
0.00560611 -0.0191693 0.999801 
0.005397 -0.0186118 0.999812 
0.00292741 -0.0212196 0.999771 
0.00551827 -0.0236792 0.999704 
0.00705595 -0.0241181 0.999684 
0.00596305 -0.0178477 0.999823 
0.00432662 -0.00132573 0.99999 