# vtk DataFile Version 3.0 
Exported using Morpho https://github.com/Morpho-lang/morpho 
ASCII 
DATASET UNSTRUCTURED_GRID 

POINTS 1978 float 
-12 -4 -3.99993e-12 
-11.7051 -4 1.08094e-11 
-11.4118 -4 7.56069e-12 
-11.1152 -4 5.87647e-12 
-10.818 -4 4.17003e-12 
-10.4917 -4 3.27959e-12 
-10.1757 -4 2.76381e-12 
-9.83968 -4 2.62554e-12 
-9.48964 -4 2.06081e-12 
-9.15131 -4 1.93929e-12 
-8.72506 -4 1.79287e-12 
-8.25855 -4 1.13247e-12 
-7.94802 -4 6.37056e-13 
-7.6763 -4 2.96907e-13 
-7.40661 -4 5.22305e-14 
-7.15058 -4 -5.18405e-14 
-6.89323 -4 -1.41272e-13 
-6.58576 -4 -2.03784e-13 
-6.28546 -4 -2.48694e-13 
-5.96506 -4 -3.1338e-13 
-5.65161 -4 -5.63371e-13 
-5.35606 -4 -9.816e-13 
-5.0387 -4 -1.90491e-12 
-4.69664 -4 -3.05308e-12 
-4.36239 -4 -3.92759e-12 
-4.04165 -4 -5.66909e-12 
-3.68072 -4 -8.26797e-12 
-3.33754 -4 -1.00165e-11 
-3.0133 -4 -1.20623e-11 
-2.68684 -4 -1.35633e-11 
-2.40933 -4 -1.2664e-11 
-2.15707 -4 -1.16958e-11 
-1.90611 -4 -1.31161e-11 
-1.63192 -4 -1.41209e-11 
-1.35192 -4 -1.12853e-11 
-1.10018 -4 -7.88139e-12 
-0.836682 -4 -6.70747e-12 
-0.544863 -4 -2.02905e-12 
-0.25297 -4 2.53096e-12 
0.0336085 -4 1.23624e-12 
0.285935 -4 3.64678e-12 
0.539062 -4 -4.95204e-12 
0.789985 -4 2.40913e-12 
1.04211 -4 5.94189e-12 
1.29309 -4 9.69599e-12 
1.54515 -4 8.9594e-12 
1.78959 -4 1.69838e-11 
2.08716 -4 1.7682e-11 
2.402 -4 1.79897e-11 
2.74527 -4 1.65279e-11 
3.09514 -4 1.27477e-11 
3.43058 -4 8.82796e-12 
3.74541 -4 6.08968e-12 
4.04911 -4 4.6377e-12 
4.36839 -4 3.51338e-12 
4.68438 -4 2.77508e-12 
5.04709 -4 1.92722e-12 
5.33477 -4 1.28306e-12 
5.66746 -4 9.15287e-13 
5.93629 -4 4.88404e-13 
6.25104 -4 7.15979e-14 
6.50901 -4 -1.94147e-13 
6.81525 -4 -3.00767e-13 
7.09061 -4 -2.72611e-13 
7.40065 -4 -5.12074e-14 
7.71081 -4 1.34038e-13 
7.98648 -4 -1.33666e-13 
8.28544 -4 -6.07752e-13 
8.53623 -4 -9.18387e-13 
8.83725 -4 -1.81309e-12 
9.27581 -4 -2.34841e-12 
9.64523 -4 -2.38095e-12 
9.99571 -4 -2.35266e-12 
10.3043 -4 -3.51812e-12 
10.6983 -4 -7.08967e-12 
11.181 -4 -1.12504e-11 
11.5275 -4 -8.96093e-12 
11.7654 -4 -8.01807e-12 
12 -4 3.61652e-12 
-12 -3.75592 -4.80585e-13 
-11.5574 -3.66844 -9.55194e-12 
-11.3116 -3.38263 -6.33948e-13 
-11.2196 -3.68293 -1.08199e-11 
-10.8907 -3.66504 -8.2376e-12 
-10.5533 -3.68439 -6.25644e-12 
-10.1915 -3.65688 -4.22511e-12 
-9.84776 -3.66426 -3.07834e-12 
-9.49906 -3.64707 -2.54668e-12 
-9.09876 -3.70851 -2.48377e-12 
-8.64192 -3.7409 -1.76276e-12 
-8.25732 -3.69174 -9.073e-13 
-7.91761 -3.68103 -7.82564e-13 
-7.6037 -3.66625 -3.64676e-13 
-7.37599 -3.40926 -5.66618e-16 
-7.264 -3.68013 -1.83591e-13 
-6.96059 -3.6484 8.10075e-14 
-6.6587 -3.68074 2.28199e-13 
-6.33262 -3.66585 3.4445e-13 
-6.01801 -3.67155 6.99768e-13 
-5.70816 -3.66381 1.00596e-12 
-5.40923 -3.64781 1.40566e-12 
-5.11375 -3.66768 2.29697e-12 
-4.79771 -3.68881 3.67481e-12 
-4.46823 -3.67749 5.16152e-12 
-4.146 -3.66552 6.74802e-12 
-3.80353 -3.69572 1.07738e-11 
-3.44022 -3.67506 1.37521e-11 
-3.10323 -3.65644 1.72056e-11 
-2.76877 -3.6504 2.2489e-11 
-2.44761 -3.60386 2.24704e-11 
-2.16032 -3.58707 2.43596e-11 
-1.88324 -3.5922 2.76818e-11 
-1.60758 -3.61136 2.83251e-11 
-1.3438 -3.56345 1.21272e-11 
-1.07617 -3.56297 5.00885e-12 
-0.79437 -3.59443 -4.5522e-12 
-0.519608 -3.59375 -1.37422e-11 
-0.224835 -3.61388 -7.13601e-13 
0.061932 -3.58036 1.76209e-11 
0.317008 -3.5103 -1.45726e-11 
0.560028 -3.55221 1.64458e-11 
0.815463 -3.53544 6.89823e-12 
1.0816 -3.56123 -8.95897e-12 
1.34706 -3.57872 -1.62002e-11 
1.59901 -3.53608 -2.10518e-11 
1.88958 -3.63801 -3.52572e-11 
2.21813 -3.65551 -3.10737e-11 
2.56584 -3.67328 -2.80126e-11 
2.92575 -3.68205 -2.23247e-11 
3.28192 -3.66419 -1.56039e-11 
3.61923 -3.65287 -1.08489e-11 
3.94042 -3.64347 -7.66872e-12 
4.25287 -3.66384 -5.97717e-12 
4.5669 -3.66416 -4.08953e-12 
4.89168 -3.70929 -3.45268e-12 
5.21032 -3.64124 -1.9099e-12 
5.51066 -3.68905 -1.6309e-12 
5.80116 -3.61985 -8.56792e-13 
6.0862 -3.67367 -5.76352e-13 
6.36187 -3.60673 -1.90164e-13 
6.64624 -3.66801 7.766e-14 
6.93174 -3.63579 1.21056e-13 
7.2303 -3.67595 1.6058e-13 
7.54219 -3.67523 2.64501e-13 
7.84057 -3.62979 4.01101e-13 
8.12109 -3.64504 6.88347e-13 
8.39177 -3.56371 7.44574e-13 
8.68348 -3.64874 1.43805e-12 
9.0355 -3.73507 2.33181e-12 
9.41548 -3.68811 2.50052e-12 
9.768 -3.6719 2.97832e-12 
10.0888 -3.63455 3.50627e-12 
10.4583 -3.72066 5.98625e-12 
10.9633 -3.78143 1.1432e-11 
11.1996 -3.51022 7.36664e-12 
11.3731 -3.72761 1.15924e-11 
11.6721 -3.61275 5.12301e-12 
12 -3.73214 1.91336e-13 
-12 -3.5193 9.49396e-14 
-11.6698 -3.39883 7.45188e-13 
-11.2397 -3.06983 -1.18467e-12 
-10.9859 -3.34192 -1.6256e-12 
-10.6682 -3.34755 -1.35428e-12 
-10.3522 -3.35017 -1.13784e-12 
-10.0101 -3.33097 -1.09454e-12 
-9.69049 -3.31042 -8.47268e-13 
-9.35453 -3.35233 -3.77307e-13 
-9.05974 -3.3097 -2.36162e-13 
-8.77805 -3.45197 -6.58357e-13 
-8.41217 -3.41119 -5.51774e-13 
-8.05571 -3.37591 -2.06589e-13 
-7.73872 -3.34701 1.05857e-13 
-7.5479 -3.10731 -1.34851e-13 
-7.23495 -3.09686 -1.0089e-13 
-7.02358 -3.32621 -1.43488e-13 
-6.70829 -3.34375 -5.05802e-14 
-6.40303 -3.35557 1.34978e-13 
-6.0803 -3.34254 2.78479e-13 
-5.77629 -3.3268 2.29474e-13 
-5.48783 -3.3047 2.66165e-13 
-5.19602 -3.31485 4.08094e-13 
-4.89793 -3.35288 7.90829e-13 
-4.58998 -3.36069 8.63397e-13 
-4.26997 -3.33523 1.33561e-12 
-3.92911 -3.36971 2.54063e-12 
-3.57844 -3.37572 4.06389e-12 
-3.21952 -3.32733 4.85866e-12 
-2.87007 -3.3162 5.64974e-12 
-2.52987 -3.26335 6.93645e-12 
-2.20728 -3.20557 2.42029e-12 
-1.90133 -3.21273 5.14658e-12 
-1.60311 -3.20274 3.90223e-12 
-1.31359 -3.14616 -3.37325e-12 
-1.01768 -3.16528 2.7984e-12 
-0.75449 -3.15833 -3.00871e-12 
-0.458479 -3.20297 -1.11971e-11 
-0.155715 -3.24844 -9.14643e-12 
0.13256 -3.16341 9.21745e-12 
0.247807 -2.87017 2.00349e-12 
0.480945 -3.12655 2.38814e-11 
0.742358 -3.09084 6.25477e-12 
1.01629 -3.14108 1.21147e-12 
1.29695 -3.14688 -3.45829e-12 
1.6027 -3.16265 5.16715e-12 
1.9128 -3.26975 8.60138e-13 
2.22824 -3.31496 -5.81508e-12 
2.57106 -3.3446 -6.96226e-12 
2.9291 -3.3607 -6.53476e-12 
3.27933 -3.3289 -4.77972e-12 
3.61519 -3.31223 -2.57633e-12 
3.95009 -3.31249 -1.76955e-12 
4.27558 -3.32323 -1.35989e-12 
4.58622 -3.32628 -8.46545e-13 
4.89031 -3.38561 -9.56593e-13 
5.18346 -3.30057 -3.78739e-13 
5.4844 -3.34489 -3.88499e-13 
5.76687 -3.27196 -1.11909e-13 
6.05829 -3.31284 -1.49381e-13 
6.33526 -3.24951 -9.46966e-14 
6.62117 -3.31147 -9.85764e-14 
6.90645 -3.28668 -9.6057e-14 
7.19765 -3.33359 9.24668e-15 
7.49399 -3.34468 1.75602e-13 
7.80593 -3.30759 1.88324e-13 
8.12084 -3.26379 2.04038e-13 
8.44559 -3.22824 2.90788e-14 
8.75733 -3.32103 1.29128e-13 
9.08849 -3.42533 5.37356e-13 
9.43748 -3.36295 5.566e-13 
9.75541 -3.31647 8.91786e-13 
10.1534 -3.35049 9.44133e-13 
10.4349 -3.32299 7.0976e-13 
10.7324 -3.57961 5.54978e-12 
10.8594 -3.32275 1.19506e-12 
11.2209 -3.20877 -7.34359e-13 
11.5627 -3.34949 -8.52715e-13 
12 -3.46099 -1.30061e-13 
-12 -3.24299 1.20696e-13 
-11.5846 -3.12165 3.22086e-12 
-11.2816 -2.76642 -9.34582e-13 
-10.8983 -3.01054 -5.86278e-14 
-10.5804 -3.00387 -6.25178e-13 
-10.2453 -3.02091 -5.74064e-13 
-9.91468 -2.98348 -4.36268e-13 
-9.59197 -2.97178 -2.89918e-13 
-9.29442 -2.96594 2.57574e-14 
-8.96464 -2.97588 6.71904e-14 
-8.66984 -3.1065 1.77575e-13 
-8.34097 -3.09139 5.14596e-14 
-8.05647 -3.03702 -2.49448e-14 
-7.82258 -2.9227 -7.10512e-15 
-7.49947 -2.79112 -2.68381e-14 
-7.15335 -2.81646 3.74807e-14 
-6.87788 -3.01101 3.67883e-14 
-6.57921 -3.01976 6.39951e-14 
-6.28081 -3.03515 7.73793e-14 
-5.98493 -3.0057 3.53558e-14 
-5.70881 -2.9688 6.69801e-15 
-5.42514 -2.9626 7.93475e-14 
-5.14384 -2.97107 2.72385e-14 
-4.85952 -3.01988 2.18988e-13 
-4.55543 -3.02695 1.08908e-13 
-4.25192 -2.98402 2.10131e-13 
-3.94798 -3.04685 4.82591e-13 
-3.60692 -3.05793 2.82404e-13 
-3.24626 -3.00907 3.37009e-14 
-2.8769 -2.98034 3.13304e-13 
-2.54746 -2.90523 1.41497e-12 
-2.21286 -2.84604 -2.83791e-12 
-1.90459 -2.83885 1.72452e-13 
-1.59489 -2.82464 -3.69828e-13 
-1.26375 -2.77437 -2.64166e-12 
-0.994646 -2.72368 2.05224e-12 
-0.730518 -2.72748 3.63181e-11 
-0.462501 -2.81988 -5.67647e-11 
-0.162308 -2.86042 1.84889e-11 
-0.0280889 -2.60294 -1.13312e-11 
0.224936 -2.45793 -1.29371e-11 
0.489037 -2.62513 3.37109e-12 
0.710596 -2.66358 7.52193e-12 
0.995377 -2.72978 2.44347e-12 
1.28989 -2.74966 -6.41892e-14 
1.5905 -2.78767 8.49958e-14 
1.91059 -2.90269 7.13029e-13 
2.22835 -2.95363 -1.05543e-12 
2.55568 -3.00332 -9.89524e-13 
2.90234 -3.0334 -1.47155e-12 
3.24454 -2.99195 -7.00311e-13 
3.58589 -2.97653 -1.93153e-13 
3.91955 -2.9828 -1.22014e-13 
4.2504 -2.98966 -1.06491e-13 
4.5644 -2.98844 -4.01072e-15 
4.8708 -3.04128 -1.27751e-13 
5.15022 -2.95034 -1.0637e-15 
5.43911 -3.00201 -4.82075e-14 
5.72027 -2.93406 -7.96088e-16 
6.01486 -2.96326 -2.33777e-14 
6.31304 -2.92197 -3.18169e-14 
6.6175 -2.96096 -5.32776e-14 
6.92581 -2.96567 -3.98179e-14 
7.23483 -2.99517 -6.20244e-15 
7.53749 -3.01284 3.88516e-14 
7.84698 -2.97503 2.34541e-14 
8.16745 -2.93468 6.84327e-16 
8.45777 -2.85767 -9.52454e-14 
8.74275 -2.97272 -1.13491e-13 
9.06123 -3.09517 -1.17617e-13 
9.3547 -3.01222 -1.58012e-14 
9.65811 -2.9681 3.5961e-13 
9.99559 -3.05021 5.57299e-13 
10.3 -2.93994 3.18414e-13 
10.6248 -3.05547 3.18389e-14 
10.9603 -2.97971 1.44971e-13 
11.3376 -2.9162 -2.22006e-12 
11.654 -3.07665 -2.33633e-12 
12 -3.21294 3.79443e-13 
-12 -2.99434 -5.30179e-13 
-11.6465 -2.83614 2.26109e-12 
-11.4696 -2.48657 5.7741e-13 
-10.998 -2.65629 1.32769e-12 
-10.6865 -2.65992 2.01542e-13 
-10.3532 -2.69019 -1.06784e-13 
-10.019 -2.66683 -1.40466e-13 
-9.68409 -2.62747 -1.61901e-13 
-9.3663 -2.60173 -4.96838e-14 
-9.06415 -2.63876 9.37275e-14 
-8.72512 -2.7103 1.97676e-13 
-8.43978 -2.76271 1.484e-13 
-8.1419 -2.66924 -5.64684e-14 
-7.81299 -2.60711 -8.00322e-15 
-7.42626 -2.5193 -1.92136e-15 
-7.10352 -2.5157 -1.30325e-14 
-6.82169 -2.68488 4.18179e-15 
-6.52406 -2.69642 1.67151e-14 
-6.23165 -2.7037 -1.4594e-14 
-5.95643 -2.6529 -1.22125e-14 
[...]
POINT_DATA 1978 
VECTORS vectors float
0.000210341 -0.000897041 1 
-0.000327025 -0.0661913 0.997807 
0.000354734 -0.0535642 0.998564 
0.000317124 -0.0377719 0.999286 
8.22765e-05 -0.0250169 0.999687 
0.000138173 -0.0177909 0.999842 
0.000206857 -0.015384 0.999882 
4.47988e-05 -0.0134375 0.99991 
-0.000151927 -0.0106699 0.999943 
-0.000376485 -0.00803978 0.999968 
-0.000782275 -0.00577169 0.999983 
-0.000385168 -0.00455376 0.99999 
5.96248e-05 -0.00352417 0.999994 
-2.50664e-05 -0.00194714 0.999998 
8.18668e-05 -0.000435115 1 
0.000349714 0.000348549 1 
7.40183e-05 0.000759569 1 
0.000138969 0.00108501 0.999999 
0.000312781 0.00131524 0.999999 
0.000133121 0.00170521 0.999999 
0.000158969 0.00334299 0.999994 
0.000202738 0.00586136 0.999983 
0.000134109 0.00984497 0.999952 
0.000101539 0.0151431 0.999885 
0.000112291 0.0213475 0.999772 
8.99472e-05 0.0299105 0.999553 
2.88814e-05 0.0433433 0.99906 
0.000151524 0.0626716 0.998034 
0.000157151 0.0876196 0.996154 
5.36712e-05 0.122724 0.992441 
0.000120567 0.165954 0.986133 
0.000231832 0.211063 0.977472 
6.86525e-05 0.269583 0.962977 
9.96954e-06 0.359271 0.933233 
8.44899e-05 0.466921 0.884299 
8.34809e-05 0.579876 0.814705 
3.13782e-05 0.714851 0.699276 
5.13624e-06 0.861292 0.50811 
1.34074e-05 0.969791 0.243936 
9.95141e-06 0.998506 -0.0546436 
2.02604e-06 0.953204 -0.302329 
-2.33396e-05 0.852592 -0.522576 
-2.1958e-06 0.727854 -0.685732 
-2.58167e-05 0.598942 -0.800792 
-5.33563e-05 0.479783 -0.877387 
-0.000106075 0.380727 -0.924688 
-5.8017e-05 0.298681 -0.954353 
-0.000100859 0.221464 -0.975169 
-0.000119364 0.160127 -0.987096 
-0.000106348 0.113099 -0.993584 
-0.000110525 0.0797462 -0.996815 
-0.000113371 0.0566825 -0.998392 
-0.000152647 0.0407243 -0.99917 
-0.000110232 0.0293915 -0.999568 
-0.000188238 0.0205159 -0.99979 
-0.000138196 0.0140462 -0.999901 
-0.000182137 0.00957064 -0.999954 
-0.000183366 0.007258 -0.999974 
-0.000150733 0.00505757 -0.999987 
-0.000187412 0.00307341 -0.999995 
-0.000184635 0.000432842 -1 
-0.000155373 -0.000976064 -1 
-0.000187053 -0.001691 -0.999999 
-0.000223763 -0.00148106 -0.999999 
-0.000170348 -0.000323135 -1 
-0.00024606 0.000411985 -1 
-0.000135649 -0.0010486 -0.999999 
-7.35027e-05 -0.00426464 -0.999991 
-0.000162038 -0.00622558 -0.999981 
0.00019204 -0.00749691 -0.999972 
0.000196021 -0.00904445 -0.999959 
0.000136987 -0.0111294 -0.999938 
0.000126567 -0.0131608 -0.999913 
0.000280938 -0.0158293 -0.999875 
0.000648055 -0.0221976 -0.999753 
0.000467157 -0.0405308 -0.999178 
3.15862e-05 -0.0581351 -0.998309 
0.000343798 -0.0636474 -0.997972 
-0.000471179 -0.000679642 -1 
0.00155813 -0.000628604 0.999999 
0.034744 -0.0578966 0.997718 
0.038179 -0.0533277 0.997847 
0.0409727 -0.0449875 0.998147 
0.0437449 -0.0301881 0.998587 
0.0441747 -0.0205568 0.998812 
0.045564 -0.0151677 0.998846 
0.0441263 -0.0117835 0.998956 
0.0446036 -0.00930269 0.998961 
0.0424735 -0.00742072 0.99907 
0.0410463 -0.00586879 0.99914 
0.0424154 -0.00465931 0.999089 
0.0436012 -0.00306936 0.999044 
0.044052 -0.00160379 0.999028 
0.0450759 -0.000761367 0.998983 
0.0444766 -0.000116171 0.99901 
0.0469861 0.000649728 0.998895 
0.0459042 0.00115408 0.998945 
0.046618 0.00159433 0.998912 
0.046285 0.0021184 0.998926 
0.0456259 0.00358983 0.998952 
0.0455424 0.00589442 0.998945 
0.0448179 0.00887886 0.998956 
0.0442324 0.0131841 0.998934 
0.0439711 0.0189319 0.998853 
0.043163 0.0267872 0.998709 
0.0411954 0.0381808 0.998421 
0.0399849 0.0564642 0.997604 
0.0382671 0.0812919 0.995955 
0.0354874 0.115289 0.992698 
0.0321654 0.16001 0.986591 
0.0287012 0.215464 0.97609 
0.0249822 0.284233 0.95843 
0.0201619 0.373678 0.92734 
0.0146249 0.478001 0.878238 
0.00994083 0.597701 0.801657 
0.00609408 0.737013 0.675851 
0.00367187 0.872754 0.488147 
0.00274671 0.972392 0.233338 
0.00196817 0.998158 -0.0606317 
0.000405336 0.945599 -0.325335 
-0.00171862 0.847804 -0.530307 
-0.0050161 0.719711 -0.694255 
-0.00961367 0.584882 -0.811061 
-0.0144952 0.466897 -0.884193 
-0.0190706 0.367455 -0.929846 
-0.0241759 0.274409 -0.961309 
-0.0294004 0.197226 -0.979917 
-0.0339129 0.137788 -0.989881 
-0.0373017 0.09536 -0.994744 
-0.0396193 0.0659143 -0.997038 
-0.0409892 0.0461716 -0.998092 
-0.0423797 0.0326687 -0.998567 
-0.0432385 0.023314 -0.998793 
-0.0436668 0.0165004 -0.99891 
-0.044044 0.0117072 -0.998961 
-0.0453301 0.00824918 -0.998938 
-0.0448898 0.00581155 -0.998975 
-0.0461163 0.00370993 -0.998929 
-0.0450324 0.00184794 -0.998984 
-0.0464996 0.000485923 -0.998918 
-0.0457496 -0.000598079 -0.998953 
-0.0465112 -0.000990155 -0.998917 
-0.0457239 -0.000904682 -0.998954 
-0.0458107 -0.000511077 -0.99895 
-0.0462073 -0.0011238 -0.998931 
-0.0450305 -0.00260641 -0.998982 
-0.0456369 -0.004362 -0.998949 
-0.0438512 -0.0061718 -0.999019 
-0.0420758 -0.00773513 -0.999084 
-0.0437877 -0.00887234 -0.999001 
-0.0443974 -0.0104785 -0.998959 
-0.0453684 -0.0133382 -0.998881 
-0.0424318 -0.018395 -0.99893 
-0.0394132 -0.0314003 -0.99873 
-0.0445933 -0.0416154 -0.998138 
-0.0387474 -0.0497893 -0.998008 
-0.0320702 -0.0532697 -0.998065 
-0.000927691 -0.000877714 -0.999999 
0.000140533 -0.00115292 0.999999 
0.0290898 -0.0562973 0.99799 
0.0289676 -0.0476073 0.998446 
0.0391135 -0.0369201 0.998552 
0.0411283 -0.025768 0.998822 
0.0428537 -0.0182553 0.998915 
0.0425197 -0.0124031 0.999019 
0.0410631 -0.00911683 0.999115 
0.0400647 -0.00769773 0.999167 
0.040135 -0.00701623 0.99917 
0.0438055 -0.00593696 0.999022 
0.0447257 -0.00483529 0.998988 
0.0433843 -0.0036356 0.999052 
0.0382655 -0.00222263 0.999265 
0.0330565 -0.00113175 0.999453 
0.033794 -0.000184685 0.999429 
0.0417785 0.000489325 0.999127 
0.0411653 0.00103741 0.999152 
0.0420817 0.00142063 0.999113 
0.0417302 0.00216704 0.999127 
0.040046 0.00363021 0.999191 
0.0389782 0.00562073 0.999224 
0.0390894 0.00822575 0.999202 
0.0406738 0.011821 0.999103 
0.0397398 0.0167484 0.99907 
0.038344 0.0235205 0.998988 
0.0392045 0.0338078 0.998659 
0.0384275 0.0491074 0.998054 
0.0345455 0.0712265 0.996862 
0.0316289 0.103471 0.994129 
0.0273223 0.148556 0.988526 
0.0214308 0.208978 0.977685 
0.0185685 0.286778 0.957817 
0.0139928 0.38174 0.924164 
0.00887648 0.500747 0.865548 
0.00594487 0.636861 0.770956 
0.00301394 0.774266 0.632853 
0.000835789 0.900352 0.435161 
0.000858163 0.982562 0.185933 
0.000625526 0.995908 -0.0903667 
0.000593867 0.954217 -0.299114 
0.000129351 0.869407 -0.494097 
-0.00169101 0.753098 -0.657907 
-0.00491467 0.61683 -0.787081 
-0.0084106 0.490916 -0.871167 
-0.012137 0.38104 -0.924479 
-0.0183874 0.285735 -0.958132 
-0.0245468 0.203876 -0.978689 
-0.0299671 0.140182 -0.989672 
-0.0343014 0.0956017 -0.994828 
-0.0355636 0.0657939 -0.997199 
-0.0358776 0.0466095 -0.998269 
-0.0369624 0.0329451 -0.998773 
-0.0378063 0.0230749 -0.999019 
-0.0384085 0.0165087 -0.999126 
-0.0414298 0.0118167 -0.999072 
-0.0385725 0.00860523 -0.999219 
-0.0408039 0.00608649 -0.999149 
-0.0381702 0.00418849 -0.999262 
-0.0396731 0.00234588 -0.99921 
-0.0375128 0.00100643 -0.999296 
-0.0405212 -0.00010598 -0.999179 
-0.039872 -0.000680864 -0.999205 
-0.0416592 -0.00082687 -0.999132 
-0.0417985 -0.000781133 -0.999126 
-0.0401929 -0.00140862 -0.999191 
-0.0382404 -0.00278735 -0.999265 
-0.0354481 -0.00456109 -0.999361 
-0.0393989 -0.00628389 -0.999204 
-0.043626 -0.00757145 -0.999019 
-0.0414189 -0.00811233 -0.999109 
-0.0402805 -0.00923295 -0.999146 
-0.042438 -0.0144376 -0.998995 
-0.0402545 -0.0197858 -0.998994 
-0.0465008 -0.0245741 -0.998616 
-0.039275 -0.0305843 -0.99876 
-0.0334868 -0.0477337 -0.998299 
-0.0335041 -0.0578209 -0.997765 
-0.000490666 -0.001543 -0.999999 
0.000768866 -0.000968384 0.999999 
0.0237225 -0.0597646 0.997931 
0.0198339 -0.0498262 0.998561 
0.0272207 -0.0332145 0.999077 
0.0297954 -0.0234425 0.999281 
0.0316288 -0.0155983 0.999378 
0.0289623 -0.00988287 0.999532 
0.0271847 -0.00720729 0.999604 
0.0266568 -0.00683761 0.999621 
0.0281974 -0.00684061 0.999579 
0.0309656 -0.00582399 0.999503 
0.03143 -0.0045362 0.999496 
0.0303278 -0.00329552 0.999535 
0.0253912 -0.00216278 0.999675 
0.0225208 -0.00107021 0.999746 
0.0226694 -0.000287245 0.999743 
0.0279798 0.000375442 0.999608 
0.029427 0.00098644 0.999566 
0.0299503 0.00175949 0.99955 
0.0285468 0.0029779 0.999588 
0.0264023 0.00446018 0.999641 
0.0259388 0.00634416 0.999643 
0.0258237 0.00890573 0.999627 
0.0275795 0.0122081 0.999545 
0.0269767 0.0171906 0.999488 
0.0254792 0.0240937 0.999385 
0.0275476 0.0336053 0.999055 
0.0269663 0.0490489 0.998432 
0.0238953 0.0723609 0.997092 
0.0210506 0.105321 0.994215 
0.0173412 0.149525 0.988606 
0.0124139 0.21022 0.977575 
0.0104038 0.283867 0.958807 
0.00773668 0.382682 0.923848 
0.00481781 0.509126 0.860679 
0.0031174 0.643972 0.765043 
0.0012291 0.781738 0.623606 
-0.000300909 0.900297 0.435276 
-0.00126906 0.983775 0.179402 
-0.0013811 0.99968 -0.0252717 
-0.00113007 0.969051 -0.246858 
-0.000700995 0.884327 -0.466867 
-0.0013253 0.769761 -0.638331 
-0.00296045 0.640448 -0.767996 
-0.00507371 0.503589 -0.863929 
-0.00742346 0.383005 -0.923717 
-0.0113257 0.280488 -0.959791 
-0.0157403 0.204665 -0.978706 
-0.0198406 0.144197 -0.98935 
-0.0234608 0.0992256 -0.994788 
-0.0238847 0.0703214 -0.997238 
-0.02408 0.0495316 -0.998482 
-0.0247247 0.0345728 -0.999096 
-0.025383 0.024229 -0.999384 
-0.0255338 0.0172537 -0.999525 
-0.0279675 0.0122512 -0.999534 
-0.0252183 0.00918628 -0.99964 
-0.0277731 0.0066483 -0.999592 
-0.0255021 0.00470042 -0.999664 
-0.0265965 0.00288789 -0.999642 
-0.0253986 0.00144982 -0.999676 
-0.0273543 0.000290954 -0.999626 
-0.027545 -0.000422782 -0.99962 
-0.0288416 -0.000817156 -0.999584 
-0.029455 -0.00115478 -0.999565 
-0.0273557 -0.00193831 -0.999624 
-0.0251466 -0.00322396 -0.999679 
-0.0223136 -0.00480537 -0.999739 
-0.0268124 -0.00620579 -0.999621 
-0.0317271 -0.007265 -0.99947 
-0.0285233 -0.00732302 -0.999566 
-0.0273545 -0.00745539 -0.999598 
-0.0314843 -0.0108742 -0.999445 
-0.0274739 -0.0164232 -0.999488 
-0.0307389 -0.0252073 -0.99921 
-0.0274582 -0.0370967 -0.998934 
-0.0224248 -0.0552557 -0.99822 
-0.0218733 -0.0567941 -0.998146 
-0.000883551 -0.00145697 -0.999999 
0.000952122 -4.82738e-05 1 
0.0160301 -0.0629015 0.997891 
0.0123402 -0.0597481 0.998137 
0.0165379 -0.0402397 0.999053 
0.0183173 -0.0281256 0.999437 
0.0205083 -0.0181942 0.999624 
0.0191367 -0.0111032 0.999755 
0.0168283 -0.0070947 0.999833 
0.0163455 -0.00654272 0.999845 
0.0178375 -0.00702428 0.999816 
0.0187546 -0.00643702 0.999803 
0.0193935 -0.00495372 0.9998 
0.0185273 -0.00348285 0.999822 
0.0161157 -0.00204405 0.999868 
0.0149559 -0.00094985 0.999888 
0.0149541 -0.000173046 0.999888 
0.0185329 0.000469955 0.999828 
0.0194329 0.00123856 0.99981 
0.0191363 0.0022487 0.999814 
0.0176134 0.00354357 0.999839 
0.0163487 0.00520454 0.999853 
0.0155234 0.00720171 0.999854 
0.0157891 0.0100012 0.999825 
0.0171094 0.0137032 0.99976 
0.0161518 0.0190171 0.999689 
0.0154157 0.0271535 0.999512 
0.0172724 0.0380322 0.999127 
0.0165004 0.0551461 0.998342 
0.0143119 0.0821865 0.996514 
0.0114547 0.116951 0.993072 
0.00882725 0.166645 0.985977 
0.00567907 0.237176 0.97145 
0.00433123 0.320376 0.947281 
0.00221388 0.430311 0.902678 
-0.000304254 0.566599 0.823994 
-0.00119666 0.705034 0.709173 
-0.00183373 0.839104 0.543968 
-0.000646018 0.932788 0.360424 
-0.00249781 0.949767 0.312948 
-0.00267412 0.995604 0.093626 
-0.00151232 0.988573 -0.150734 
-0.000673875 0.915411 -0.402519 
-0.000725421 0.793944 -0.607991 
-0.00168623 0.652485 -0.7578 
-0.00288866 0.519576 -0.854419 
-0.00395608 0.394568 -0.918858 
-0.00642703 0.290002 -0.957004 
-0.0087183 0.208139 -0.97806 
-0.0113571 0.150531 -0.98854 
-0.014287 0.106886 -0.994169 
-0.0138499 0.0760887 -0.997005 
-0.0143328 0.0537016 -0.998454 
-0.0151829 0.0375536 -0.999179 
-0.0157817 0.026379 -0.999527 
-0.0156335 0.0186737 -0.999703 
-0.0172435 0.0134135 -0.999761 
-0.0156694 0.00991356 -0.999828 
-0.0169039 0.00711489 -0.999832 
-0.0162284 0.00497789 -0.999856 
-0.0170057 0.0031703 -0.99985 
-0.0165176 0.00173243 -0.999862 
-0.0178343 0.000551616 -0.999841 
-0.0178711 -0.00024641 -0.99984 
-0.0188045 -0.000824916 -0.999823 
-0.0190812 -0.00139982 -0.999817 
-0.0174483 -0.00224999 -0.999845 
-0.0156369 -0.00349998 -0.999872 
-0.0131031 -0.00510046 -0.999901 
-0.0156474 -0.00644759 -0.999857 
-0.0198111 -0.00716908 -0.999778 
-0.0175534 -0.00708234 -0.999821 
-0.0166615 -0.00670546 -0.999839 
-0.0199458 -0.00904408 -0.99976 
-0.0185853 -0.0160941 -0.999698 
-0.021175 -0.0261097 -0.999435 
-0.0192896 -0.0396616 -0.999027 
-0.0150893 -0.0551404 -0.998365 
-0.0136936 -0.0574573 -0.998254 
-0.000278604 -0.00165545 -0.999999 
0.000923602 0.00036698 1 
0.00609333 -0.0477753 0.99884 
0.0073142 -0.0615493 0.998077 
0.010274 -0.048417 0.998774 
0.0100035 -0.0331552 0.9994 
0.0114868 -0.0210225 0.999713 
0.0112134 -0.0128456 0.999855 
0.00975647 -0.00768149 0.999923 
0.00875505 -0.00653364 0.99994 
0.00968879 -0.00724869 0.999927 
0.0107428 -0.00710271 0.999917 
0.0109601 -0.00575251 0.999923 
0.0105517 -0.00413858 0.999936 
0.0101289 -0.00272008 0.999945 
0.00980958 -0.00151238 0.999951 
0.00907352 -0.000637312 0.999959 
0.00940982 0.000175765 0.999956 
0.0114196 0.000905401 0.999934 
0.011501 0.00185142 0.999932 
0.0105417 0.00305204 0.99994 
0.00988576 0.00465578 0.99994 
0.00881666 0.00666141 0.999939 
0.00865836 0.00912503 0.999921 
0.00881508 0.0124952 0.999883 
0.00884768 0.0169376 0.999817 
0.00868356 0.0237004 0.999681 
0.00858863 0.0344912 0.999368 
0.00926453 0.0479571 0.998806 
0.00874348 0.0701336 0.997499 
0.00609469 0.102627 0.994701 
0.0045476 0.148131 0.988957 
0.00266078 0.211013 0.97748 
0.00120271 0.306632 0.951827 
4.94767e-05 0.414835 0.909897 
-0.000487652 0.514626 0.857414 
-0.000789668 0.656459 0.754361 
-0.000238443 0.802901 0.596112 
0.00225164 0.913495 0.406844 
0.00188719 0.993469 0.114085 
0.000693554 0.999973 -0.00727414 
0.00162082 0.981445 -0.191738 
-0.00172483 0.943825 -0.33044 
0.000573528 0.889182 -0.457553 
0.000117298 0.724171 -0.68962 
-0.000360029 0.566438 -0.824104 
-0.000910545 0.431631 -0.90205 
-0.00262074 0.306615 -0.95183 
-0.00422409 0.22042 -0.975396 
-0.00545456 0.155252 -0.98786 
-0.00733077 0.111028 -0.99379 
-0.00707489 0.0790981 -0.996842 
-0.00762564 0.0541404 -0.998504 
-0.00823278 0.0374452 -0.999265 
-0.00853606 0.0263083 -0.999617 
-0.00862808 0.0188419 -0.999785 
-0.00958437 0.0136529 -0.999861 
-0.00876822 0.0101223 -0.99991 
-0.00968834 0.00744376 -0.999925 
-0.00944525 0.00537845 -0.999941 
-0.0101228 0.00357983 -0.999942 
-0.00990871 0.00209547 -0.999949 
-0.0107338 0.000804679 -0.999942 
-0.0106979 -0.00012333 -0.999943 
-0.0110274 -0.000810187 -0.999939 
-0.0111194 -0.0014366 -0.999937 
-0.00992823 -0.00227376 -0.999948 
-0.00879634 -0.00358903 -0.999955 
-0.00712056 -0.00534526 -0.99996 
-0.00820274 -0.00693938 -0.999942 
-0.0107337 -0.00747539 -0.999914 
-0.00954265 -0.00710875 -0.999929 
-0.00982437 -0.00654859 -0.99993 
-0.0121213 -0.00933881 -0.999883 
-0.0119744 -0.0176996 -0.999772 
-0.0138489 -0.0282821 -0.999504 
-0.0120179 -0.0418766 -0.999051 
-0.00923529 -0.0566931 -0.998349 
-0.00886823 -0.0588505 -0.998227 
-0.000596877 -0.00189826 -0.999998 
0.000262709 -0.00105054 0.999999 
0.00419408 -0.0587551 0.998264 
0.00664585 -0.0590441 0.998233 
0.00518044 -0.0412935 0.999134 
0.00488723 -0.0253108 0.999668 
0.0049424 -0.0154133 0.999869 
0.00476077 -0.00892627 0.999949 
0.00446743 -0.00651021 0.999969 
0.00473314 -0.00747316 0.999961 
0.00526392 -0.00785361 0.999955 
0.00584787 -0.00684477 0.999959 
0.00575253 -0.00513179 0.99997 
0.0057039 -0.00347039 0.999978 
0.00603254 -0.00215009 0.999979 
0.00606514 -0.00120306 0.999981 
0.0060891 -0.000456061 0.999981 
0.00630104 0.000342558 0.99998 
0.00709665 0.00124327 0.999974 
0.00702568 0.00238148 0.999972 
0.00680791 0.0038828 0.999969 
0.00643647 0.00564883 0.999963 
0.00586379 0.00791757 0.999951 
0.0053631 0.0107528 0.999928 
0.00487364 0.0144606 0.999884 
0.00454108 0.0199022 0.999792 
0.00417928 0.0284156 0.999587 
0.00343175 0.0407613 0.999163 
0.0039007 0.0572437 0.998353 
0.00294084 0.080977 0.996712 
0.00148135 0.120426 0.992721 
0.000491368 0.170111 0.985425 
5.35257e-06 0.247745 0.968825 
0.000111473 0.35314 0.935571 
-6.24037e-05 0.50053 0.865719 
0.000187061 0.670958 0.741495 
0.00108902 0.804527 0.593915 
0.00526675 0.886315 0.463054 
0.00334688 0.987477 0.157728 
0.00164052 0.965007 0.26222 
-0.000991921 0.999867 -0.016282 
-0.00152128 0.996103 -0.0881822 
-0.00291305 0.95927 -0.282477 
-0.00467001 0.849917 -0.526895 
-0.00046747 0.797524 -0.603288 
0.000754439 0.622149 -0.782899 
0.000419297 0.47047 -0.882416 
-0.000281844 0.335048 -0.942201 
-0.00098093 0.235241 -0.971936 
-0.00165583 0.166783 -0.985992 
-0.00248848 0.114348 -0.993438 
-0.00279153 0.0768029 -0.997042 
-0.003196 0.0525615 -0.998613 
-0.00365349 0.0366668 -0.999321 
-0.00402525 0.0258908 -0.999657 
-0.00449458 0.0184221 -0.99982 
-0.00522895 0.0134612 -0.999896 
-0.00546568 0.0100174 -0.999935 
-0.00605704 0.00744 -0.999954 
-0.00624127 0.00545989 -0.999966 
-0.00660322 0.00375524 -0.999971 
-0.00658147 0.00222866 -0.999976 
-0.00679143 0.000925771 -0.999977 
-0.00667415 -0.000116357 -0.999978 
-0.00650794 -0.00084699 -0.999978 
-0.00634001 -0.00151055 -0.999979 
-0.00582923 -0.00246496 -0.99998 
-0.00513447 -0.00383307 -0.999979 
-0.00451237 -0.00559402 -0.999974 
-0.0046608 -0.00720709 -0.999963 
-0.00536802 -0.00784803 -0.999955 
-0.00516431 -0.00713041 -0.999961 
-0.00525116 -0.00657849 -0.999965 
-0.00668999 -0.00998601 -0.999928 
-0.00625184 -0.0179205 -0.99982 
-0.00720305 -0.0286596 -0.999563 
-0.00600094 -0.0426851 -0.999071 
-0.00498078 -0.0573784 -0.99834 
-0.00508403 -0.0591706 -0.998235 
-0.000336694 -0.00159562 -0.999999 
6.96199e-05 -0.00182396 0.999998 
0.00279544 -0.0576882 0.998331 
0.00356422 -0.0560646 0.998421 
0.00227527 -0.0386744 0.999249 
0.00193649 -0.0238933 0.999713 
0.00193383 -0.0138882 0.999902 
0.00236279 -0.00793227 0.999966 
0.00293932 -0.00659192 0.999974 
0.00361122 -0.00798404 0.999962 
0.00416352 -0.00849829 0.999955 
0.00456685 -0.00721426 0.999964 
0.00491036 -0.00533215 0.999974 
0.00516143 -0.00350936 0.999981 
0.00528761 -0.00220347 0.999984 
0.00556697 -0.00131781 0.999984 
0.00617648 -0.000674706 0.999981 
0.00670557 0.000183475 0.999978 
0.00683714 0.0013619 0.999976 
0.00696222 0.00268499 0.999972 
0.00699392 0.00416919 0.999967 
0.00675632 0.00591067 0.99996 
0.00639347 0.0079997 0.999948 
0.00566973 0.0107464 0.999926 
0.00501874 0.0141948 0.999887 
0.00409345 0.0192011 0.999807 
0.00311519 0.0271387 0.999627 
0.00216847 0.038911 0.99924 
0.00146244 0.0575377 0.998342 
0.00065465 0.0870433 0.996204 
-2.30264e-05 0.123741 0.992315 
-0.000331956 0.184416 0.982848 
-0.000309245 0.26897 0.963148 
-0.000115841 0.394626 0.918842 
0.000443812 0.571862 0.820349 
0.00277033 0.729863 0.683587 
0.00588393 0.918124 0.396249 
-3.06123e-05 0.982294 0.187346 
-0.000230046 0.992729 0.12037 
-0.00154491 0.997249 0.0741123 
-0.00180355 0.99992 0.0125324 
-0.00124276 0.998739 -0.0501969 
-0.00148666 0.996395 -0.0848183 
-0.00272219 0.991319 -0.131453 
-0.00230017 0.681998 -0.73135 
-0.00427599 0.735904 -0.677072 
-0.00109274 0.51266 -0.858591 
-0.000176276 0.356549 -0.934277 
-7.93236e-05 0.253643 -0.967298 
-3.42618e-05 0.176748 -0.984256 
-0.000307711 0.124821 -0.992179 
-0.000755097 0.0855596 -0.996333 
-0.0013857 0.0570627 -0.99837 
-0.00217567 0.0392329 -0.999228 
-0.00301164 0.0275194 -0.999617 
-0.00389321 0.0195259 -0.999802 
-0.00479904 0.0139602 -0.999891 
-0.00575945 0.0104106 -0.999929 
-0.00621136 0.0078172 -0.99995 
-0.00653805 0.00583299 -0.999962 
-0.00662846 0.00412651 -0.99997 
-0.00660849 0.00267296 -0.999975 
-0.0065943 0.00123254 -0.999977 
-0.0064178 0.000100282 -0.999979 
-0.00626176 -0.00078427 -0.99998 
-0.00590021 -0.00155153 -0.999981 
-0.00542941 -0.0024175 -0.999982 
-0.00514159 -0.00376308 -0.99998 
-0.00492872 -0.00569283 -0.999972 
-0.00441424 -0.00762619 -0.999961 
-0.00406019 -0.00823897 -0.999958 