# vtk DataFile Version 3.0 
Exported using Morpho https://github.com/Morpho-lang/morpho 
ASCII 
DATASET UNSTRUCTURED_GRID 

POINTS 1978 float 
-12 -4 -4.86527e-10 
-11.7051 -4 1.30042e-09 
-11.4118 -4 9.14933e-10 
-11.1152 -4 6.97477e-10 
-10.818 -4 4.92246e-10 
-10.4917 -4 3.77384e-10 
-10.1757 -4 3.3678e-10 
-9.83968 -4 2.92247e-10 
-9.48964 -4 2.36102e-10 
-9.15132 -4 1.88219e-10 
-8.72506 -4 1.75109e-10 
-8.25854 -4 1.33705e-10 
-7.94801 -4 7.51872e-11 
-7.6763 -4 3.62229e-11 
-7.40661 -4 5.6315e-12 
-7.15058 -4 -5.9854e-12 
-6.89324 -4 -1.70152e-11 
-6.58576 -4 -2.40617e-11 
-6.28546 -4 -2.92506e-11 
-5.96506 -4 -3.62043e-11 
-5.65161 -4 -6.66333e-11 
-5.35606 -4 -1.15287e-10 
-5.0387 -4 -2.19516e-10 
-4.69664 -4 -3.48486e-10 
-4.36239 -4 -4.49858e-10 
-4.04165 -4 -6.44654e-10 
-3.68072 -4 -9.34817e-10 
-3.33754 -4 -1.14426e-09 
-3.0133 -4 -1.36847e-09 
-2.68684 -4 -1.64071e-09 
-2.40933 -4 -1.43356e-09 
-2.15707 -4 -1.5592e-09 
-1.90611 -4 -1.63848e-09 
-1.63192 -4 -1.72746e-09 
-1.35192 -4 -1.36242e-09 
-1.10018 -4 -9.17104e-10 
-0.836682 -4 -8.09817e-10 
-0.544863 -4 -2.58106e-10 
-0.25297 -4 3.15185e-10 
0.0336091 -4 1.69716e-10 
0.285934 -4 -6.36022e-10 
0.539061 -4 5.60914e-10 
0.789984 -4 1.69817e-10 
1.04211 -4 1.0295e-09 
1.29309 -4 1.18518e-09 
1.54514 -4 1.18853e-09 
1.78959 -4 2.03232e-09 
2.08716 -4 2.06192e-09 
2.402 -4 2.01149e-09 
2.74527 -4 1.83885e-09 
3.09514 -4 1.43794e-09 
3.43058 -4 1.01287e-09 
3.74541 -4 7.14012e-10 
4.04911 -4 5.43725e-10 
4.36838 -4 4.07351e-10 
4.68438 -4 3.12263e-10 
5.04709 -4 2.19873e-10 
5.33477 -4 1.50893e-10 
5.66746 -4 1.08014e-10 
5.93629 -4 5.77643e-11 
6.25105 -4 8.56463e-12 
6.50901 -4 -2.2934e-11 
6.81525 -4 -3.56507e-11 
7.0906 -4 -3.2317e-11 
7.40065 -4 -5.95521e-12 
7.71081 -4 1.55434e-11 
7.98648 -4 -1.63518e-11 
8.28544 -4 -7.39548e-11 
8.53623 -4 -1.10449e-10 
8.83724 -4 -1.9904e-10 
9.27581 -4 -2.49134e-10 
9.64524 -4 -2.66437e-10 
9.99571 -4 -2.75366e-10 
10.3043 -4 -3.92035e-10 
10.6983 -4 -7.09361e-10 
11.181 -4 -1.11339e-09 
11.5275 -4 -9.98805e-10 
11.7654 -4 -9.99977e-10 
12 -4 4.48088e-10 
-12 -3.75593 2.39514e-12 
-11.566 -3.67429 -9.63486e-10 
-11.3252 -3.39291 -1.20613e-10 
-11.2221 -3.68277 -1.04676e-09 
-10.893 -3.66796 -8.2572e-10 
-10.5564 -3.68416 -5.90098e-10 
-10.1937 -3.64886 -4.36984e-10 
-9.83394 -3.67219 -2.74031e-10 
-9.49448 -3.65383 -2.39273e-10 
-9.11218 -3.69966 -1.81529e-10 
-8.68368 -3.72093 -1.5713e-10 
-8.25129 -3.72019 -1.17152e-10 
-7.91395 -3.67742 -6.89325e-11 
-7.59936 -3.66572 -3.21212e-11 
-7.3808 -3.41039 -6.99418e-12 
-7.2544 -3.67482 -1.49327e-11 
-6.94656 -3.65436 1.09083e-11 
-6.64245 -3.67654 2.24096e-11 
-6.31747 -3.66405 3.45943e-11 
-6.00507 -3.67116 6.97298e-11 
-5.69859 -3.66337 9.90405e-11 
-5.40272 -3.6475 1.37086e-10 
-5.11044 -3.66854 2.22092e-10 
-4.79559 -3.68893 3.53107e-10 
-4.46796 -3.67714 4.9099e-10 
-4.14587 -3.66547 6.45482e-10 
-3.80544 -3.69781 1.0373e-09 
-3.44495 -3.67781 1.35702e-09 
-3.10051 -3.651 1.67422e-09 
-2.76398 -3.65078 2.3009e-09 
-2.4468 -3.60784 2.13527e-09 
-2.16178 -3.57183 2.48094e-09 
-1.8862 -3.62063 2.62888e-09 
-1.60687 -3.61605 2.66821e-09 
-1.34089 -3.56122 1.24133e-09 
-1.07206 -3.56507 5.30321e-10 
-0.788597 -3.59936 -4.67567e-10 
-0.507531 -3.59178 -1.45912e-09 
-0.224078 -3.61056 -1.23418e-10 
0.0513025 -3.57409 1.77172e-09 
0.307842 -3.52933 8.42298e-10 
0.554802 -3.52805 8.60088e-10 
0.808965 -3.53799 5.98927e-10 
1.07534 -3.56864 -1.09094e-09 
1.33918 -3.57847 -1.64492e-09 
1.59323 -3.54207 -2.10904e-09 
1.88865 -3.63645 -3.40453e-09 
2.21968 -3.65555 -2.8951e-09 
2.56827 -3.67183 -2.57693e-09 
2.9284 -3.68245 -2.1175e-09 
3.28503 -3.66502 -1.50584e-09 
3.62324 -3.65226 -1.04115e-09 
3.94421 -3.64371 -7.435e-10 
4.25586 -3.6635 -5.75874e-10 
4.56901 -3.66343 -3.89582e-10 
4.89256 -3.70894 -3.27489e-10 
5.21021 -3.64112 -1.8465e-10 
5.51023 -3.68898 -1.59778e-10 
5.80056 -3.61937 -8.42934e-11 
6.08537 -3.67272 -5.66406e-11 
6.3603 -3.60419 -1.93494e-11 
6.64474 -3.66773 7.60514e-12 
6.93021 -3.63577 1.18771e-11 
7.22955 -3.67716 1.60232e-11 
7.54243 -3.67697 2.5699e-11 
7.84166 -3.63017 3.95604e-11 
8.1222 -3.64504 6.89729e-11 
8.39314 -3.56223 7.3605e-11 
8.68506 -3.64569 1.3624e-10 
9.03377 -3.73573 2.13283e-10 
9.41143 -3.68616 2.2156e-10 
9.76492 -3.67281 2.83395e-10 
10.0852 -3.63405 3.19498e-10 
10.4552 -3.71775 5.37543e-10 
10.9627 -3.77914 9.54207e-10 
11.1969 -3.50979 8.17883e-10 
11.3711 -3.7311 9.30348e-10 
11.6731 -3.62252 5.7836e-10 
12 -3.73214 -4.90269e-11 
-12 -3.5193 5.08092e-11 
-11.6748 -3.3996 5.576e-11 
-11.2378 -3.08938 -5.21476e-11 
-10.9902 -3.34251 -1.8241e-10 
-10.6766 -3.34915 -1.62504e-10 
-10.3611 -3.3485 -1.21513e-10 
-10.0068 -3.33362 -1.23982e-10 
-9.68808 -3.31025 -8.38466e-11 
-9.36074 -3.34159 -4.45082e-11 
-9.06306 -3.32211 -1.60885e-11 
-8.76762 -3.41506 -6.07831e-11 
-8.41681 -3.44238 -4.44084e-11 
-8.07444 -3.38358 -2.26027e-11 
-7.74808 -3.34002 5.02398e-12 
-7.54739 -3.1067 -1.22098e-11 
-7.22604 -3.10815 -6.01763e-12 
-7.01473 -3.33269 -1.171e-11 
-6.70245 -3.33856 -5.41452e-12 
-6.39329 -3.35345 1.39761e-11 
-6.07013 -3.34193 2.77057e-11 
-5.76801 -3.32374 2.49084e-11 
-5.48358 -3.30276 2.67096e-11 
-5.19475 -3.31373 4.25591e-11 
-4.89908 -3.3543 7.82403e-11 
-4.59268 -3.35859 9.04736e-11 
-4.27416 -3.33574 1.31819e-10 
-3.93275 -3.37089 2.53692e-10 
-3.58758 -3.37762 3.67964e-10 
-3.23258 -3.3311 3.97364e-10 
-2.8678 -3.3172 5.89642e-10 
-2.5244 -3.26272 5.6775e-10 
-2.19677 -3.1989 5.75485e-10 
-1.89369 -3.22933 5.1727e-10 
-1.60622 -3.21431 2.67613e-10 
-1.31317 -3.14499 1.20057e-10 
-1.01997 -3.16545 4.31714e-11 
-0.746318 -3.18228 -2.66224e-10 
-0.464251 -3.18354 -1.01593e-09 
-0.183962 -3.21979 -9.82275e-10 
0.091472 -3.14413 -6.89587e-10 
0.283767 -2.97642 2.16411e-09 
0.503035 -3.06393 -1.05455e-10 
0.755491 -3.08432 6.12051e-10 
1.02315 -3.15306 2.48886e-10 
1.30171 -3.15135 -1.41479e-10 
1.59997 -3.15707 4.38274e-10 
1.90109 -3.26669 -8.72157e-11 
2.21735 -3.31673 -7.16449e-10 
2.56574 -3.34308 -7.86421e-10 
2.9279 -3.36166 -7.21173e-10 
3.28297 -3.3317 -4.3566e-10 
3.62073 -3.31237 -2.55054e-10 
3.95474 -3.31217 -1.77184e-10 
4.27773 -3.32279 -1.38122e-10 
4.58708 -3.32517 -8.66152e-11 
4.89032 -3.38478 -9.72451e-11 
5.1838 -3.30069 -3.76423e-11 
5.48433 -3.34482 -3.79261e-11 
5.76561 -3.27065 -1.14102e-11 
6.05633 -3.31099 -1.51415e-11 
6.3333 -3.24672 -1.02454e-11 
6.6202 -3.31097 -9.9822e-12 
6.90736 -3.28865 -9.10005e-12 
7.2 -3.33668 1.00292e-12 
7.49739 -3.34819 1.73362e-11 
7.80797 -3.30744 1.96488e-11 
8.12182 -3.26405 2.01057e-11 
8.44219 -3.22189 3.2919e-12 
8.75304 -3.31808 1.12399e-11 
9.08863 -3.42397 5.47899e-11 
9.44383 -3.36231 5.81841e-11 
9.76181 -3.31621 9.15826e-11 
10.1603 -3.35311 1.102e-10 
10.4372 -3.31328 9.33697e-11 
10.7275 -3.5799 5.21042e-10 
10.8536 -3.32248 1.25988e-10 
11.2238 -3.21167 -2.17714e-10 
11.5638 -3.36295 1.15235e-10 
12 -3.461 -3.5465e-11 
-12 -3.24299 2.44411e-11 
-11.5906 -3.12006 2.93694e-10 
-11.2674 -2.79155 1.8842e-11 
-10.891 -3.00467 -4.7565e-12 
-10.5744 -3.00561 -4.62287e-11 
-10.2367 -3.02861 -3.50258e-11 
-9.90465 -2.97929 -3.42615e-11 
-9.58413 -2.96349 -3.21042e-11 
-9.28629 -2.96399 1.27315e-12 
-8.9692 -2.98625 1.24721e-11 
-8.67411 -3.08115 9.63611e-12 
-8.36376 -3.10461 5.01634e-12 
-8.06267 -3.04901 -2.67676e-12 
-7.83075 -2.91804 -2.53919e-12 
-7.50798 -2.79377 -2.72951e-12 
-7.16505 -2.82049 1.27755e-12 
-6.87718 -3.00145 3.03657e-12 
-6.57511 -3.01939 6.62535e-12 
-6.27542 -3.03463 7.89346e-12 
-5.98183 -3.00421 2.63794e-12 
-5.70824 -2.96345 1.29253e-12 
-5.42741 -2.95919 6.5554e-12 
-5.14869 -2.96784 2.46357e-12 
-4.8663 -3.0205 1.58208e-11 
-4.56112 -3.02461 1.14001e-11 
-4.25739 -2.98464 1.59666e-11 
-3.95254 -3.05055 3.70676e-11 
-3.60895 -3.05684 5.09469e-11 
-3.24666 -3.01107 3.99343e-11 
-2.8886 -2.98236 2.97423e-11 
-2.5515 -2.91747 2.07933e-11 
-2.21585 -2.84379 -2.70798e-10 
-1.89545 -2.84218 3.50018e-12 
-1.58518 -2.83375 -1.30466e-10 
-1.26586 -2.75941 -1.17476e-10 
-0.993441 -2.73375 1.84899e-11 
-0.733571 -2.72944 -2.51915e-09 
-0.480155 -2.78547 1.23372e-09 
-0.195804 -2.82787 1.42066e-09 
0.00458465 -2.64207 4.60954e-10 
0.232451 -2.52529 -1.98697e-09 
0.484116 -2.55994 1.00027e-09 
0.727267 -2.62741 7.11423e-10 
0.990445 -2.73719 1.17996e-10 
1.27882 -2.76018 -1.96414e-11 
1.58049 -2.78039 -1.19172e-10 
1.90487 -2.89463 -3.26855e-11 
2.22168 -2.95682 -8.83433e-11 
2.55152 -3.00631 -4.64933e-11 
2.90759 -3.03756 -4.7223e-11 
3.24788 -2.99165 -8.69576e-11 
3.58865 -2.97866 -1.64064e-11 
3.9246 -2.9829 -8.72133e-12 
4.25448 -2.98794 -9.09296e-12 
4.5671 -2.98732 8.12098e-13 
4.87256 -3.04017 -1.09151e-11 
5.15052 -2.94899 -1.00491e-12 
5.4382 -3.00112 -4.98126e-12 
5.71877 -2.93185 -5.312e-14 
6.01397 -2.96062 -2.26748e-12 
6.31273 -2.91845 -3.31334e-12 
6.61751 -2.96165 -4.95007e-12 
6.92626 -2.96745 -4.00684e-12 
7.23525 -2.9995 -6.76432e-13 
7.53821 -3.01552 3.56192e-12 
7.84815 -2.97508 3.0446e-12 
8.16529 -2.9302 1.64769e-13 
8.45652 -2.85029 -8.05424e-12 
8.7413 -2.97115 -1.11516e-11 
9.06223 -3.0981 -1.40008e-11 
9.35593 -3.01227 -1.00625e-12 
9.66029 -2.96723 3.66032e-11 
9.99875 -3.0522 5.37622e-11 
10.2968 -2.93551 2.11417e-11 
10.6263 -3.04608 1.14361e-11 
10.965 -2.98374 4.94797e-11 
11.338 -2.91977 -1.44934e-10 
11.6534 -3.08714 -3.99595e-10 
12 -3.21294 -4.32082e-12 
-12 -2.99434 -6.34437e-11 
-11.6304 -2.8329 2.21461e-10 
-11.4572 -2.49303 6.18213e-11 
-11.0012 -2.64319 6.74649e-11 
-10.6922 -2.6566 1.30706e-13 
-10.3582 -2.6971 -1.02612e-11 
-10.0262 -2.66806 -1.59817e-11 
-9.69022 -2.62055 -2.02685e-11 
-9.3701 -2.59968 -4.01338e-12 
-9.06078 -2.64505 1.08921e-11 
-8.72827 -2.70326 2.10997e-11 
-8.42706 -2.75285 9.68541e-12 
-8.14694 -2.67804 -1.40755e-12 
-7.8172 -2.59801 -1.84103e-12 
-7.42751 -2.52197 -4.60588e-13 
-7.09781 -2.5209 -4.45552e-13 
-6.82124 -2.68141 6.45937e-13 
-6.52173 -2.69816 1.27566e-12 
-6.22941 -2.70184 -1.46982e-12 
-5.95426 -2.65088 -1.22621e-12 
[...]
POINT_DATA 1978 
VECTORS vectors float
0.000239846 -0.00118496 0.999999 
-0.000322579 -0.0661944 0.997807 
0.00119373 -0.0535643 0.998564 
0.00156405 -0.0377718 0.999285 
0.00140551 -0.0250167 0.999686 
0.0017566 -0.0177908 0.99984 
0.00219025 -0.015384 0.999879 
0.00225486 -0.0134376 0.999907 
0.0023247 -0.01067 0.99994 
0.00357778 -0.0080398 0.999961 
0.00476028 -0.00577159 0.999972 
0.00339214 -0.00455366 0.999984 
0.00137131 -0.00352413 0.999993 
0.000423699 -0.00194712 0.999998 
0.000489865 -0.000435101 1 
0.00096977 0.000348559 0.999999 
0.000769003 0.00075957 0.999999 
0.0011705 0.00108498 0.999999 
0.00174172 0.00131522 0.999998 
0.00155345 0.00170517 0.999997 
0.00148955 0.00334295 0.999993 
0.00170688 0.00586129 0.999981 
0.00200086 0.00984492 0.99995 
0.00218003 0.0151431 0.999883 
0.0022005 0.0213475 0.99977 
0.00242018 0.0299103 0.99955 
0.00246014 0.043343 0.999057 
0.0022342 0.0626713 0.998032 
0.00169078 0.0876194 0.996153 
0.000928085 0.122724 0.99244 
0.000636405 0.165954 0.986133 
0.0006554 0.211063 0.977472 
0.000326777 0.269583 0.962977 
0.000175291 0.359271 0.933233 
0.00027323 0.466921 0.884299 
0.000261886 0.579876 0.814705 
0.000157074 0.714852 0.699276 
8.07593e-05 0.861292 0.508111 
6.71118e-05 0.969791 0.243935 
3.96435e-05 0.998506 -0.0546446 
1.00648e-06 0.953204 -0.302328 
-5.17995e-05 0.852592 -0.522577 
-3.51916e-05 0.727853 -0.685733 
-9.70254e-05 0.598942 -0.800793 
-0.000196232 0.479783 -0.877387 
-0.00034429 0.380727 -0.924688 
-0.000485477 0.298681 -0.954353 
-0.00100375 0.221463 -0.975168 
-0.00168905 0.160126 -0.987095 
-0.00221807 0.113098 -0.993581 
-0.00222913 0.079746 -0.996813 
-0.00184421 0.0566824 -0.998391 
-0.00156983 0.0407242 -0.999169 
-0.00152345 0.0293915 -0.999567 
-0.00188783 0.0205159 -0.999788 
-0.00218625 0.0140461 -0.999899 
-0.00204307 0.00957058 -0.999952 
-0.00161016 0.00725797 -0.999972 
-0.00126642 0.00505759 -0.999986 
-0.00110804 0.00307342 -0.999995 
-0.00100245 0.000432802 -0.999999 
-0.000919797 -0.000976116 -0.999999 
-0.00106507 -0.00169105 -0.999998 
-0.00123456 -0.00148109 -0.999998 
-0.00128699 -0.000323112 -0.999999 
-0.00122919 0.000412068 -0.999999 
-0.000872551 -0.00104855 -0.999999 
-0.000749094 -0.00426466 -0.999991 
-0.00140314 -0.0062256 -0.99998 
-0.00292193 -0.00749688 -0.999968 
-0.00407703 -0.00904441 -0.999951 
-0.00293351 -0.0111294 -0.999934 
-0.00202761 -0.0131608 -0.999911 
-0.00267577 -0.0158291 -0.999871 
-0.00461199 -0.0221972 -0.999743 
-0.00388397 -0.0405306 -0.999171 
-0.00129713 -0.0581355 -0.998308 
0.000260937 -0.0636504 -0.997972 
-0.000583657 -0.00102111 -0.999999 
0.00160468 -0.00128494 0.999998 
0.0347467 -0.0578979 0.997718 
0.0381799 -0.0533287 0.997847 
0.0409749 -0.0449876 0.998147 
0.0437471 -0.030188 0.998586 
0.0441771 -0.0205567 0.998812 
0.0455663 -0.0151676 0.998846 
0.0441284 -0.0117835 0.998956 
0.0446062 -0.00930271 0.998961 
0.042476 -0.00742073 0.99907 
0.041049 -0.00586886 0.99914 
0.0424175 -0.00465938 0.999089 
0.0436033 -0.00306936 0.999044 
0.0440541 -0.0016038 0.999028 
0.0450769 -0.000761385 0.998983 
0.0444787 -0.000116146 0.99901 
0.0469883 0.000649743 0.998895 
0.0459064 0.0011541 0.998945 
0.0466202 0.00159434 0.998911 
0.0462873 0.00211838 0.998926 
0.0456281 0.00358981 0.998952 
0.0455444 0.00589441 0.998945 
0.0448201 0.00887884 0.998956 
0.0442346 0.0131841 0.998934 
0.0439734 0.0189319 0.998853 
0.0431652 0.0267871 0.998709 
0.0411978 0.0381807 0.998421 
0.0399871 0.0564641 0.997604 
0.038269 0.0812919 0.995955 
0.0354893 0.115289 0.992698 
0.0321669 0.16001 0.986591 
0.0287025 0.215464 0.97609 
0.0249835 0.284233 0.95843 
0.020163 0.373677 0.92734 
0.0146256 0.478001 0.878238 
0.00994133 0.5977 0.801658 
0.00609449 0.737012 0.675852 
0.00367205 0.872754 0.488146 
0.00274656 0.972392 0.233339 
0.00196778 0.998158 -0.0606315 
0.000405258 0.945598 -0.325337 
-0.00171853 0.847805 -0.530306 
-0.00501627 0.719711 -0.694255 
-0.00961414 0.584882 -0.811062 
-0.0144959 0.466896 -0.884193 
-0.0190715 0.367454 -0.929846 
-0.0241774 0.274409 -0.961309 
-0.0294021 0.197226 -0.979917 
-0.033915 0.137788 -0.989881 
-0.0373039 0.09536 -0.994744 
-0.0396213 0.0659142 -0.997038 
-0.0409913 0.0461716 -0.998092 
-0.0423816 0.0326687 -0.998567 
-0.0432407 0.023314 -0.998793 
-0.0436689 0.0165004 -0.99891 
-0.0440466 0.0117072 -0.998961 
-0.0453319 0.00824917 -0.998938 
-0.0448921 0.00581155 -0.998975 
-0.0461182 0.00370992 -0.998929 
-0.0450346 0.00184792 -0.998984 
-0.0465014 0.000485905 -0.998918 
-0.0457518 -0.000598095 -0.998953 
-0.0465131 -0.000990177 -0.998917 
-0.0457261 -0.000904695 -0.998954 
-0.0458129 -0.000511051 -0.99895 
-0.0462092 -0.00112376 -0.998931 
-0.0450326 -0.00260639 -0.998982 
-0.0456385 -0.00436202 -0.998949 
-0.0438534 -0.00617183 -0.999019 
-0.0420783 -0.00773516 -0.999084 
-0.04379 -0.00887233 -0.999001 
-0.0443996 -0.0104785 -0.998959 
-0.0453705 -0.0133382 -0.998881 
-0.0424342 -0.018395 -0.99893 
-0.0394159 -0.0314001 -0.998729 
-0.0445949 -0.0416153 -0.998138 
-0.0387498 -0.0497898 -0.998008 
-0.0320726 -0.0532719 -0.998065 
-0.000965146 -0.00190245 -0.999998 
0.000161579 -0.00209817 0.999998 
0.0290911 -0.0563001 0.99799 
0.0289678 -0.0476076 0.998446 
0.0391141 -0.0369202 0.998552 
0.0411289 -0.0257681 0.998822 
0.0428544 -0.0182553 0.998915 
0.0425204 -0.012403 0.999019 
0.0410638 -0.00911679 0.999115 
0.0400651 -0.00769773 0.999167 
0.0401355 -0.00701628 0.99917 
0.0438063 -0.00593696 0.999022 
0.0447267 -0.0048353 0.998988 
0.0433853 -0.00363563 0.999052 
0.0382655 -0.00222266 0.999265 
0.0330567 -0.00113173 0.999453 
0.0337943 -0.00018466 0.999429 
0.041779 0.000489362 0.999127 
0.0411658 0.00103743 0.999152 
0.0420823 0.00142062 0.999113 
0.0417308 0.00216701 0.999127 
0.0400464 0.0036302 0.999191 
0.0389786 0.00562072 0.999224 
0.0390899 0.00822577 0.999202 
0.0406744 0.011821 0.999103 
0.0397403 0.0167485 0.99907 
0.0383445 0.0235205 0.998988 
0.0392052 0.0338078 0.998659 
0.0384282 0.0491074 0.998054 
0.034546 0.0712263 0.996862 
0.0316293 0.10347 0.99413 
0.0273228 0.148556 0.988526 
0.021431 0.208978 0.977685 
0.0185688 0.286779 0.957817 
0.013993 0.38174 0.924164 
0.00887647 0.500748 0.865548 
0.00594498 0.636862 0.770955 
0.00301404 0.774268 0.63285 
0.000835754 0.900352 0.435161 
0.000858038 0.982562 0.185935 
0.000625941 0.995909 -0.0903588 
0.000594611 0.954215 -0.29912 
0.000129626 0.869404 -0.494101 
-0.00169089 0.753098 -0.657906 
-0.00491474 0.616829 -0.787082 
-0.00841073 0.490916 -0.871166 
-0.012137 0.381041 -0.924478 
-0.0183876 0.285737 -0.958132 
-0.0245471 0.203876 -0.978689 
-0.0299676 0.140182 -0.989672 
-0.034302 0.0956017 -0.994828 
-0.0355643 0.0657938 -0.997199 
-0.035878 0.0466095 -0.998269 
-0.0369629 0.0329451 -0.998773 
-0.0378068 0.0230749 -0.999019 
-0.0384089 0.0165087 -0.999126 
-0.0414305 0.0118167 -0.999072 
-0.0385729 0.00860524 -0.999219 
-0.0408045 0.0060865 -0.999149 
-0.0381705 0.0041885 -0.999262 
-0.0396736 0.00234588 -0.99921 
-0.0375131 0.00100641 -0.999296 
-0.0405216 -0.000106003 -0.999179 
-0.0398724 -0.000680891 -0.999205 
-0.0416596 -0.000826878 -0.999132 
-0.041799 -0.000781107 -0.999126 
-0.0401933 -0.0014086 -0.999191 
-0.0382409 -0.00278734 -0.999265 
-0.0354483 -0.0045611 -0.999361 
-0.0393994 -0.00628395 -0.999204 
-0.0436269 -0.00757151 -0.999019 
-0.0414195 -0.00811233 -0.999109 
-0.0402811 -0.0092329 -0.999146 
-0.0424387 -0.0144377 -0.998995 
-0.040255 -0.0197859 -0.998994 
-0.0465024 -0.024574 -0.998616 
-0.0392754 -0.0305843 -0.99876 
-0.033487 -0.0477342 -0.998299 
-0.0335052 -0.0578229 -0.997764 
-0.000519273 -0.0030114 -0.999995 
0.000800903 -0.0015981 0.999998 
0.0237228 -0.0597666 0.99793 
0.0198341 -0.0498265 0.998561 
0.0272206 -0.0332143 0.999078 
0.0297956 -0.0234425 0.999281 
0.031629 -0.0155982 0.999378 
0.0289624 -0.00988275 0.999532 
0.0271846 -0.00720719 0.999604 
0.0266567 -0.0068376 0.999621 
0.0281977 -0.00684069 0.999579 
0.0309656 -0.00582403 0.999504 
0.03143 -0.00453623 0.999496 
0.030328 -0.00329553 0.999535 
0.0253912 -0.00216277 0.999675 
0.0225208 -0.0010702 0.999746 
0.0226694 -0.000287257 0.999743 
0.0279797 0.000375429 0.999608 
0.0294271 0.000986422 0.999566 
0.0299504 0.00175947 0.99955 
0.0285468 0.0029779 0.999588 
0.0264023 0.00446018 0.999641 
0.0259389 0.00634414 0.999643 
0.0258237 0.00890571 0.999627 
0.0275796 0.012208 0.999545 
0.0269767 0.0171906 0.999488 
0.0254792 0.0240936 0.999385 
0.0275477 0.0336053 0.999055 
0.0269665 0.049049 0.998432 
0.0238954 0.072361 0.997092 
0.0210506 0.105321 0.994215 
0.0173414 0.149525 0.988606 
0.0124138 0.21022 0.977575 
0.0104038 0.283867 0.958807 
0.00773666 0.382682 0.923848 
0.0048178 0.509124 0.860679 
0.00311752 0.643971 0.765043 
0.0012293 0.781738 0.623605 
-0.000300558 0.900296 0.435277 
-0.00126796 0.983774 0.179406 
-0.00138082 0.99968 -0.0252754 
-0.00113041 0.969051 -0.246858 
-0.000701468 0.884329 -0.466863 
-0.00132543 0.76976 -0.638332 
-0.00296043 0.64045 -0.767994 
-0.00507374 0.50359 -0.863928 
-0.00742348 0.383005 -0.923717 
-0.0113256 0.280488 -0.959791 
-0.0157403 0.204665 -0.978706 
-0.0198406 0.144197 -0.98935 
-0.0234609 0.0992253 -0.994788 
-0.0238847 0.0703212 -0.997238 
-0.02408 0.0495316 -0.998482 
-0.0247247 0.0345728 -0.999096 
-0.025383 0.024229 -0.999384 
-0.0255338 0.0172537 -0.999525 
-0.0279675 0.0122512 -0.999534 
-0.0252182 0.00918629 -0.99964 
-0.0277732 0.00664831 -0.999592 
-0.0255021 0.00470043 -0.999664 
-0.0265966 0.00288788 -0.999642 
-0.0253986 0.0014498 -0.999676 
-0.0273544 0.000290938 -0.999626 
-0.027545 -0.000422795 -0.99962 
-0.0288417 -0.000817162 -0.999584 
-0.0294551 -0.00115477 -0.999565 
-0.0273557 -0.0019383 -0.999624 
-0.0251465 -0.00322396 -0.999679 
-0.0223135 -0.0048054 -0.999739 
-0.0268125 -0.00620584 -0.999621 
-0.0317273 -0.00726508 -0.99947 
-0.0285233 -0.00732303 -0.999566 
-0.0273545 -0.00745528 -0.999598 
-0.0314845 -0.0108741 -0.999445 
-0.027474 -0.0164231 -0.999488 
-0.030739 -0.0252074 -0.99921 
-0.0274583 -0.0370968 -0.998934 
-0.0224248 -0.0552567 -0.99822 
-0.0218739 -0.0567967 -0.998146 
-0.000918809 -0.00337887 -0.999994 
0.00104369 0.00126108 0.999999 
0.0160304 -0.0629045 0.997891 
0.0123404 -0.0597493 0.998137 
0.0165378 -0.04024 0.999053 
0.0183173 -0.0281257 0.999437 
0.0205084 -0.0181943 0.999624 
0.0191367 -0.0111031 0.999755 
0.0168282 -0.00709457 0.999833 
0.0163455 -0.00654269 0.999845 
0.0178376 -0.00702437 0.999816 
0.0187546 -0.00643711 0.999803 
0.0193934 -0.00495375 0.9998 
0.0185274 -0.00348284 0.999822 
0.0161156 -0.00204403 0.999868 
0.0149559 -0.000949847 0.999888 
0.0149541 -0.000173039 0.999888 
0.0185328 0.000469952 0.999828 
0.019433 0.00123856 0.99981 
0.0191363 0.0022487 0.999814 
0.0176134 0.00354358 0.999839 
0.0163487 0.00520455 0.999853 
0.0155234 0.00720172 0.999854 
0.0157891 0.0100012 0.999825 
0.0171094 0.0137032 0.99976 
0.0161518 0.0190171 0.999689 
0.0154157 0.0271535 0.999512 
0.0172724 0.0380321 0.999127 
0.0165004 0.0551461 0.998342 
0.0143118 0.0821866 0.996514 
0.0114547 0.116951 0.993072 
0.00882727 0.166645 0.985977 
0.00567907 0.237176 0.97145 
0.00433132 0.320375 0.947281 
0.00221396 0.430309 0.902679 
-0.000304289 0.5666 0.823993 
-0.00119682 0.705035 0.709172 
-0.0018341 0.839104 0.543969 
-0.000646668 0.932789 0.360423 
-0.00249756 0.949768 0.312944 
-0.00267457 0.995604 0.0936258 
-0.00151299 0.988573 -0.150738 
-0.00067429 0.915413 -0.402516 
-0.000725632 0.793944 -0.60799 
-0.00168631 0.652482 -0.757802 
-0.00288861 0.519576 -0.854419 
-0.00395606 0.394568 -0.918858 
-0.00642701 0.290002 -0.957005 
-0.00871828 0.208139 -0.97806 
-0.0113571 0.150532 -0.98854 
-0.0142871 0.106886 -0.994169 
-0.0138499 0.0760887 -0.997005 
-0.0143327 0.0537017 -0.998454 
-0.0151829 0.0375536 -0.999179 
-0.0157817 0.026379 -0.999527 
-0.0156335 0.0186737 -0.999703 
-0.0172435 0.0134135 -0.999761 
-0.0156694 0.00991355 -0.999828 
-0.0169038 0.0071149 -0.999832 
-0.0162284 0.00497789 -0.999856 
-0.0170057 0.0031703 -0.99985 
-0.0165176 0.00173242 -0.999862 
-0.0178343 0.000551606 -0.999841 
-0.0178711 -0.000246415 -0.99984 
-0.0188045 -0.00082492 -0.999823 
-0.0190812 -0.00139982 -0.999817 
-0.0174483 -0.00224999 -0.999845 
-0.015637 -0.00349998 -0.999872 
-0.0131031 -0.00510047 -0.999901 
-0.0156474 -0.00644765 -0.999857 
-0.0198111 -0.00716915 -0.999778 
-0.0175534 -0.00708238 -0.999821 
-0.0166614 -0.00670536 -0.999839 
-0.0199458 -0.00904395 -0.99976 
-0.0185853 -0.0160942 -0.999698 
-0.0211751 -0.0261097 -0.999435 
-0.0192896 -0.0396617 -0.999027 
-0.0150893 -0.0551411 -0.998365 
-0.0136939 -0.05746 -0.998254 
-0.000302903 -0.00428959 -0.999991 
0.00102137 0.00201707 0.999998 
0.00609347 -0.0477809 0.998839 
0.00731443 -0.061553 0.998077 
0.010274 -0.0484174 0.998774 
0.0100035 -0.0331553 0.9994 
0.0114868 -0.0210224 0.999713 
0.0112133 -0.0128455 0.999855 
0.00975637 -0.00768136 0.999923 
0.00875492 -0.00653359 0.99994 
0.00968877 -0.00724875 0.999927 
0.0107427 -0.0071028 0.999917 
0.0109601 -0.00575257 0.999923 
0.0105516 -0.00413857 0.999936 
0.0101288 -0.00272008 0.999945 
0.00980945 -0.00151237 0.999951 
0.00907345 -0.00063731 0.999959 
0.00940964 0.000175761 0.999956 
0.0114195 0.000905401 0.999934 
0.0115009 0.00185141 0.999932 
0.0105416 0.00305203 0.99994 
0.00988566 0.00465578 0.99994 
0.00881652 0.00666143 0.999939 
0.00865822 0.00912504 0.999921 
0.00881497 0.0124953 0.999883 
0.00884759 0.0169376 0.999817 
0.00868348 0.0237004 0.999681 
0.00858858 0.0344911 0.999368 
0.0092645 0.047957 0.998806 
0.00874344 0.0701337 0.997499 
0.00609467 0.102627 0.994701 
0.00454755 0.148131 0.988957 
0.00266072 0.211013 0.97748 
0.00120263 0.306634 0.951827 
4.93437e-05 0.414838 0.909895 
-0.00048775 0.514625 0.857415 
-0.000789655 0.656459 0.754362 
-0.000238557 0.802899 0.596115 
0.00225193 0.913493 0.406848 
0.00188684 0.99347 0.114082 
0.000693791 0.999973 -0.00727552 
0.00162072 0.981446 -0.191733 
-0.00172429 0.943827 -0.330437 
0.000573532 0.889182 -0.457552 
0.000117297 0.724171 -0.689621 
-0.000360091 0.566438 -0.824104 
-0.000910506 0.43163 -0.90205 
-0.00262071 0.306615 -0.95183 
-0.00422411 0.22042 -0.975396 
-0.00545453 0.155251 -0.98786 
-0.00733078 0.111028 -0.99379 
-0.0070748 0.0790981 -0.996842 
-0.00762559 0.0541403 -0.998504 
-0.00823275 0.0374451 -0.999265 
-0.00853601 0.0263083 -0.999617 
-0.00862802 0.0188419 -0.999785 
-0.00958431 0.0136529 -0.999861 
-0.00876813 0.0101223 -0.99991 
-0.00968823 0.00744377 -0.999925 
-0.00944515 0.00537846 -0.999941 
-0.0101227 0.00357983 -0.999942 
-0.00990863 0.00209547 -0.999949 
-0.0107337 0.000804667 -0.999942 
-0.0106978 -0.000123342 -0.999943 
-0.0110273 -0.000810191 -0.999939 
-0.0111193 -0.00143659 -0.999937 
-0.00992811 -0.00227374 -0.999948 
-0.00879628 -0.00358903 -0.999955 
-0.00712044 -0.00534529 -0.99996 
-0.00820264 -0.00693946 -0.999942 
-0.0107336 -0.00747548 -0.999914 
-0.00954257 -0.00710878 -0.999929 
-0.00982433 -0.00654848 -0.99993 
-0.0121213 -0.00933868 -0.999883 
-0.0119744 -0.0176996 -0.999772 
-0.013849 -0.0282822 -0.999504 
-0.012018 -0.0418768 -0.999051 
-0.00923536 -0.0566939 -0.998349 
-0.00886841 -0.0588531 -0.998227 
-0.000625618 -0.00487957 -0.999988 
0.00028736 -0.00244032 0.999997 
0.00419424 -0.0587589 0.998263 
0.00664592 -0.0590452 0.998233 
0.00518036 -0.0412936 0.999134 
0.00488713 -0.0253107 0.999668 
0.00494227 -0.0154133 0.999869 
0.00476064 -0.00892613 0.999949 
0.0044673 -0.0065101 0.999969 
0.004733 -0.00747323 0.999961 
0.00526379 -0.00785371 0.999955 
0.00584773 -0.00684483 0.999959 
0.00575243 -0.0051318 0.99997 
0.00570377 -0.00347039 0.999978 
0.00603242 -0.00215009 0.99998 
0.00606502 -0.00120305 0.999981 
0.00608895 -0.000456076 0.999981 
0.00630092 0.000342543 0.99998 
0.00709653 0.00124325 0.999974 
0.00702558 0.00238147 0.999972 
0.0068078 0.0038828 0.999969 
0.00643636 0.00564885 0.999963 
0.00586367 0.0079176 0.999951 
0.00536297 0.0107528 0.999928 
0.00487351 0.0144606 0.999884 
0.00454095 0.0199023 0.999792 
0.00417913 0.0284157 0.999587 
0.00343161 0.0407614 0.999163 
0.00390061 0.0572437 0.998353 
0.00294075 0.0809769 0.996712 
0.00148125 0.120426 0.992721 
0.000491258 0.170111 0.985425 
5.21074e-06 0.247744 0.968825 
0.000111417 0.353137 0.935572 
-6.22649e-05 0.500529 0.86572 
0.000187173 0.670958 0.741495 
0.00108925 0.804528 0.593914 
0.0052663 0.886319 0.463046 
0.00334627 0.987476 0.157731 
0.00164001 0.965007 0.262219 
-0.000990524 0.999867 -0.0162672 
-0.00152185 0.996103 -0.0881862 
-0.00291255 0.95927 -0.282476 
-0.00466937 0.849917 -0.526896 
-0.00046719 0.797524 -0.603287 
0.00075446 0.622148 -0.782899 
0.00041933 0.470471 -0.882415 
-0.000281742 0.335048 -0.942201 
-0.000980858 0.235242 -0.971936 
-0.00165575 0.166784 -0.985992 
-0.00248842 0.114348 -0.993438 
-0.00279141 0.076803 -0.997042 
-0.0031959 0.0525615 -0.998613 
-0.00365336 0.0366667 -0.999321 
-0.00402511 0.0258908 -0.999657 
-0.00449444 0.0184221 -0.99982 
-0.00522882 0.0134612 -0.999896 
-0.00546556 0.0100174 -0.999935 
-0.00605691 0.00744 -0.999954 
-0.00624116 0.0054599 -0.999966 
-0.00660311 0.00375525 -0.999971 
-0.00658135 0.00222866 -0.999976 
-0.00679132 0.000925765 -0.999977 
-0.00667403 -0.000116368 -0.999978 
-0.00650782 -0.000846997 -0.999978 
-0.00633986 -0.00151054 -0.999979 
-0.0058291 -0.00246495 -0.99998 
-0.00513434 -0.00383308 -0.999979 
-0.00451226 -0.00559405 -0.999974 
-0.00466068 -0.00720717 -0.999963 
-0.00536791 -0.00784813 -0.999955 
-0.00516418 -0.00713044 -0.999961 
-0.00525104 -0.00657836 -0.999965 
-0.00668987 -0.00998584 -0.999928 
-0.00625177 -0.0179205 -0.99982 
-0.00720297 -0.0286596 -0.999563 
-0.00600087 -0.0426854 -0.999071 
-0.00498077 -0.0573795 -0.99834 
-0.00508413 -0.0591736 -0.998235 
-0.000358772 -0.00450466 -0.99999 
7.60668e-05 -0.00441136 0.99999 
0.00279559 -0.057691 0.998331 
0.00356422 -0.0560654 0.998421 
0.00227516 -0.0386744 0.999249 
0.00193638 -0.0238931 0.999713 
0.0019337 -0.0138881 0.999902 
0.00236268 -0.00793208 0.999966 
0.00293923 -0.00659185 0.999974 
0.00361115 -0.00798409 0.999962 
0.00416347 -0.0084984 0.999955 
0.0045668 -0.00721432 0.999964 
0.00491031 -0.00533217 0.999974 
0.00516139 -0.00350935 0.999981 
0.00528754 -0.00220346 0.999984 
0.00556689 -0.00131782 0.999984 
0.00617645 -0.000674724 0.999981 
0.00670558 0.000183456 0.999978 
0.00683713 0.0013619 0.999976 
0.00696221 0.002685 0.999972 
0.00699392 0.0041692 0.999967 
0.00675631 0.00591066 0.99996 
0.00639347 0.00799969 0.999948 
0.00566971 0.0107465 0.999926 
0.00501871 0.0141948 0.999887 
0.00409339 0.019201 0.999807 
0.0031151 0.0271387 0.999627 
0.00216837 0.0389109 0.99924 
0.00146234 0.0575377 0.998342 
0.000654529 0.0870435 0.996204 
-2.31274e-05 0.123741 0.992315 
-0.000332052 0.184416 0.982848 
-0.00030929 0.26897 0.963149 
-0.000115921 0.394627 0.918841 
0.000443597 0.571864 0.820348 
0.00277003 0.729862 0.683588 
0.00588366 0.918123 0.396251 
-2.99034e-05 0.982294 0.187345 
-0.000229988 0.992729 0.12037 
-0.00154506 0.997249 0.0741136 
-0.00180374 0.99992 0.0125304 
-0.00124282 0.998739 -0.0501965 
-0.00148673 0.996396 -0.084816 
-0.00272167 0.991317 -0.131469 
-0.00229963 0.682001 -0.731348 
-0.00427576 0.735896 -0.677081 
-0.00109264 0.51266 -0.858591 
-0.000176318 0.356548 -0.934277 
-7.92686e-05 0.253643 -0.967298 
-3.41685e-05 0.176748 -0.984256 
-0.000307622 0.124821 -0.992179 
-0.000754985 0.0855597 -0.996333 
-0.00138561 0.0570626 -0.99837 
-0.00217557 0.0392329 -0.999228 
-0.00301155 0.0275194 -0.999617 
-0.00389313 0.0195259 -0.999802 
-0.00479899 0.0139602 -0.999891 
-0.00575945 0.0104106 -0.999929 
-0.00621137 0.00781721 -0.99995 
-0.00653805 0.005833 -0.999962 
-0.00662846 0.00412653 -0.99997 
-0.00660847 0.00267297 -0.999975 
-0.00659428 0.00123254 -0.999978 
-0.00641777 0.000100271 -0.999979 
-0.00626175 -0.000784279 -0.99998 
-0.00590018 -0.00155154 -0.999981 
-0.00542936 -0.0024175 -0.999982 
-0.00514156 -0.00376307 -0.99998 
-0.00492871 -0.00569285 -0.999972 
-0.00441421 -0.00762627 -0.999961 
-0.00406012 -0.00823909 -0.999958 
-0.0037689 -0.00732033 -0.999966 