# vtk DataFile Version 3.0 
Exported using Morpho https://github.com/Morpho-lang/morpho 
ASCII 
DATASET UNSTRUCTURED_GRID 

POINTS 1978 float 
-12 -4 -3.96555e-12 
-11.7051 -4 1.07164e-11 
-11.4118 -4 7.49564e-12 
-11.1152 -4 5.8259e-12 
-10.818 -4 4.13415e-12 
-10.4917 -4 3.25135e-12 
-10.1757 -4 2.74004e-12 
-9.83968 -4 2.60291e-12 
-9.48964 -4 2.04312e-12 
-9.15131 -4 1.92251e-12 
-8.72506 -4 1.77741e-12 
-8.25855 -4 1.12272e-12 
-7.94802 -4 6.31574e-13 
-7.6763 -4 2.94354e-13 
-7.40661 -4 5.17805e-14 
-7.15058 -4 -5.13942e-14 
-6.89323 -4 -1.40057e-13 
-6.58576 -4 -2.0203e-13 
-6.28546 -4 -2.46554e-13 
-5.96506 -4 -3.10683e-13 
-5.65161 -4 -5.58523e-13 
-5.35606 -4 -9.73153e-13 
-5.0387 -4 -1.88851e-12 
-4.69664 -4 -3.02679e-12 
-4.36239 -4 -3.89377e-12 
-4.04165 -4 -5.62027e-12 
-3.68072 -4 -8.19676e-12 
-3.33754 -4 -9.93023e-12 
-3.0133 -4 -1.19584e-11 
-2.68684 -4 -1.34467e-11 
-2.40933 -4 -1.2555e-11 
-2.15707 -4 -1.15952e-11 
-1.90611 -4 -1.30036e-11 
-1.63192 -4 -1.39995e-11 
-1.35192 -4 -1.11882e-11 
-1.10018 -4 -7.81352e-12 
-0.836682 -4 -6.64978e-12 
-0.544863 -4 -2.01164e-12 
-0.25297 -4 2.50923e-12 
0.0336085 -4 1.22563e-12 
0.285935 -4 3.61405e-12 
0.539062 -4 -4.90795e-12 
0.789985 -4 2.3882e-12 
1.04211 -4 5.89118e-12 
1.29309 -4 9.61258e-12 
1.54515 -4 8.88247e-12 
1.78959 -4 1.68377e-11 
2.08716 -4 1.75298e-11 
2.402 -4 1.78348e-11 
2.74527 -4 1.63856e-11 
3.09514 -4 1.26379e-11 
3.43058 -4 8.75195e-12 
3.74541 -4 6.03727e-12 
4.04911 -4 4.59779e-12 
4.36839 -4 3.48313e-12 
4.68438 -4 2.75118e-12 
5.04709 -4 1.91063e-12 
5.33477 -4 1.27202e-12 
5.66746 -4 9.07411e-13 
5.93629 -4 4.84202e-13 
6.25104 -4 7.0982e-14 
6.50901 -4 -1.92476e-13 
6.81525 -4 -2.98179e-13 
7.09061 -4 -2.70265e-13 
7.40065 -4 -5.07666e-14 
7.71081 -4 1.32884e-13 
7.98648 -4 -1.32517e-13 
8.28544 -4 -6.02525e-13 
8.53623 -4 -9.10487e-13 
8.83725 -4 -1.79747e-12 
9.27581 -4 -2.32817e-12 
9.64523 -4 -2.36044e-12 
9.99571 -4 -2.33242e-12 
10.3043 -4 -3.48782e-12 
10.6983 -4 -7.0285e-12 
11.181 -4 -1.11533e-11 
11.5275 -4 -8.88373e-12 
11.7654 -4 -7.94914e-12 
12 -4 3.58544e-12 
-12 -3.75592 -4.76373e-13 
-11.5555 -3.66712 5.95148e-14 
-11.3091 -3.38054 3.97088e-15 
-11.2182 -3.68295 6.73916e-14 
-10.8891 -3.66602 5.13103e-14 
-10.554 -3.6817 3.89858e-14 
-10.1997 -3.66219 2.62697e-14 
-9.83731 -3.65655 1.92152e-14 
-9.48581 -3.68587 1.57702e-14 
-9.11787 -3.67771 1.55478e-14 
-8.63893 -3.74597 1.09534e-14 
-8.25629 -3.68577 5.66888e-15 
-7.91598 -3.67927 4.87197e-15 
-7.60341 -3.66613 2.27064e-15 
-7.3754 -3.40818 -5.59295e-16 
-7.26838 -3.68105 1.14067e-15 
-6.96516 -3.64758 -5.06204e-16 
-6.66274 -3.68215 -1.42103e-15 
-6.3367 -3.66602 -2.146e-15 
-6.02197 -3.67183 -4.35927e-15 
-5.71124 -3.66424 -6.26595e-15 
-5.41147 -3.64794 -8.75513e-15 
-5.11539 -3.66747 -1.43072e-14 
-4.79909 -3.68883 -2.28889e-14 
-4.46827 -3.67756 -3.2142e-14 
-4.1445 -3.66567 -4.20215e-14 
-3.80324 -3.69546 -6.71258e-14 
-3.44493 -3.6774 -8.56527e-14 
-3.10087 -3.65245 -1.07181e-13 
-2.76556 -3.65092 -1.40065e-13 
-2.45013 -3.60763 -1.39886e-13 
-2.16349 -3.57414 -1.52272e-13 
-1.88396 -3.60509 -1.71675e-13 
-1.60601 -3.61016 -1.76449e-13 
-1.34332 -3.55935 -7.56132e-14 
-1.07585 -3.56127 -3.12893e-14 
-0.792155 -3.59425 2.8404e-14 
-0.518602 -3.58655 8.56106e-14 
-0.223297 -3.61891 4.34394e-15 
0.0570383 -3.59332 -1.09834e-13 
0.314786 -3.51924 9.13144e-14 
0.567238 -3.55797 -1.02414e-13 
0.819459 -3.5387 -4.28523e-14 
1.08324 -3.56069 5.58468e-14 
1.34531 -3.57695 1.00924e-13 
1.59772 -3.53716 1.31055e-13 
1.89089 -3.63854 2.19576e-13 
2.21966 -3.65478 1.93567e-13 
2.56598 -3.67395 1.7443e-13 
2.9245 -3.68195 1.39044e-13 
3.28081 -3.6641 9.71829e-14 
3.6182 -3.65306 6.75676e-14 
3.93921 -3.64373 4.77551e-14 
4.25191 -3.66404 3.72202e-14 
4.56613 -3.66441 2.54654e-14 
4.89138 -3.70921 2.15016e-14 
5.21038 -3.64158 1.18938e-14 
5.51075 -3.68903 1.01576e-14 
5.80136 -3.62064 5.33513e-15 
6.08644 -3.6738 3.58949e-15 
6.3623 -3.60741 1.18466e-15 
6.64668 -3.66797 -4.83646e-16 
6.93208 -3.63565 -7.54052e-16 
7.23032 -3.67556 -1.00037e-15 
7.54203 -3.675 -1.64714e-15 
7.84031 -3.62928 -2.49815e-15 
8.12083 -3.64526 -4.28755e-15 
8.39148 -3.56468 -4.63619e-15 
8.68314 -3.6493 -8.95521e-15 
9.03601 -3.73517 -1.45207e-14 
9.41661 -3.68844 -1.55688e-14 
9.76879 -3.6717 -1.8549e-14 
10.0897 -3.63531 -2.1829e-14 
10.4588 -3.72057 -3.72755e-14 
10.9636 -3.78181 -7.12017e-14 
11.2006 -3.50941 -4.58566e-14 
11.3732 -3.72566 -7.22192e-14 
11.6714 -3.61044 -3.19385e-14 
12 -3.73214 1.89597e-13 
-12 -3.5193 9.41741e-14 
-11.6683 -3.39767 -4.64485e-15 
-11.2408 -3.06523 7.34274e-15 
-10.9836 -3.34119 1.01353e-14 
-10.6651 -3.3479 8.45775e-15 
-10.3514 -3.34894 7.09877e-15 
-10.0148 -3.32629 6.80527e-15 
-9.68092 -3.32072 5.28183e-15 
-9.35948 -3.34911 2.34991e-15 
-9.05215 -3.30412 1.46563e-15 
-8.77371 -3.46345 4.10162e-15 
-8.41381 -3.40407 3.42889e-15 
-8.05563 -3.37421 1.28709e-15 
-7.73669 -3.34853 -6.57702e-16 
-7.5485 -3.10714 8.39025e-16 
-7.2359 -3.09612 6.2755e-16 
-7.0264 -3.32649 8.92503e-16 
-6.71018 -3.34497 3.15166e-16 
-6.40543 -3.35567 -8.4076e-16 
-6.08304 -3.34296 -1.7346e-15 
-5.77883 -3.32792 -1.43052e-15 
-5.48919 -3.30533 -1.65755e-15 
-5.19639 -3.3153 -2.54197e-15 
-4.89765 -3.35262 -4.92284e-15 
-4.58915 -3.36107 -5.37761e-15 
-4.26796 -3.33556 -8.31537e-15 
-3.9264 -3.36911 -1.58134e-14 
-3.5802 -3.37503 -2.53204e-14 
-3.22444 -3.32988 -3.03416e-14 
-2.86726 -3.31594 -3.51395e-14 
-2.52632 -3.26071 -4.32227e-14 
-2.20637 -3.19807 -1.47974e-14 
-1.90136 -3.21464 -3.23175e-14 
-1.60811 -3.20111 -2.43689e-14 
-1.31696 -3.148 2.07713e-14 
-1.01835 -3.16341 -1.72912e-14 
-0.750679 -3.15882 1.88283e-14 
-0.452021 -3.21164 6.98256e-14 
-0.155515 -3.23843 5.69777e-14 
0.131937 -3.16425 -5.94291e-14 
0.244763 -2.85935 -9.55357e-15 
0.473998 -3.12727 -1.49567e-13 
0.739545 -3.09111 -3.9016e-14 
1.01492 -3.1381 -7.54348e-15 
1.29563 -3.14282 2.12726e-14 
1.60607 -3.16285 -3.20334e-14 
1.91658 -3.27025 -5.21936e-15 
2.23039 -3.31358 3.61997e-14 
2.57233 -3.34572 4.34283e-14 
2.92883 -3.3587 4.07125e-14 
3.27832 -3.32807 2.97562e-14 
3.61383 -3.31146 1.60414e-14 
3.94875 -3.31245 1.10211e-14 
4.27465 -3.32357 8.47084e-15 
4.58572 -3.32662 5.27296e-15 
4.89007 -3.38583 5.95802e-15 
5.18358 -3.30087 2.35926e-15 
5.48439 -3.34433 2.41831e-15 
5.76734 -3.27373 6.9828e-16 
6.05891 -3.31304 9.303e-16 
6.33577 -3.25042 5.90263e-16 
6.62148 -3.31171 6.14066e-16 
6.90627 -3.28599 5.97986e-16 
7.19709 -3.33283 9.16565e-15 
7.49334 -3.34404 -1.09356e-15 
7.80557 -3.30718 -1.173e-15 
8.12079 -3.26395 -1.27066e-15 
8.44608 -3.23021 2.88236e-14 
8.75794 -3.32141 -8.03225e-16 
9.08808 -3.42608 -3.34769e-15 
9.43623 -3.36326 -3.46772e-15 
9.75413 -3.31659 -5.55534e-15 
10.1513 -3.34997 -5.88591e-15 
10.4343 -3.3249 -4.42941e-15 
10.7337 -3.57963 -3.45529e-14 
10.8611 -3.323 -7.43897e-15 
11.2191 -3.20776 4.5578e-15 
11.5635 -3.34608 5.31653e-15 
12 -3.46099 -1.28968e-13 
-12 -3.24299 1.1967e-13 
-11.5837 -3.12021 -2.00395e-14 
-11.2861 -2.76142 5.75898e-15 
-10.8991 -3.01005 3.58967e-16 
-10.582 -3.0033 3.88437e-15 
-10.2499 -3.0201 3.55993e-15 
-9.91647 -2.98012 2.71027e-15 
-9.58919 -2.97158 1.8066e-15 
-9.29393 -2.96884 2.55343e-14 
-8.966 -2.97512 -4.24601e-16 
-8.67544 -3.1151 -1.09518e-15 
-8.33765 -3.08498 -3.2133e-16 
-8.04982 -3.03583 -2.47272e-14 
-7.8195 -2.92164 -7.04126e-15 
-7.49656 -2.79074 -2.66023e-14 
-7.15197 -2.81511 3.71531e-14 
-6.87762 -3.01165 3.64664e-14 
-6.57964 -3.01971 -3.98496e-16 
-6.28217 -3.03567 -4.82086e-16 
-5.98618 -3.0063 3.50466e-14 
-5.70928 -2.9703 6.63882e-15 
-5.4246 -2.96357 -4.93457e-16 
-5.14268 -2.97197 2.70001e-14 
-4.85804 -3.01975 -1.36047e-15 
-4.55396 -3.02741 -6.79054e-16 
-4.25049 -2.98358 -1.30551e-15 
-3.94531 -3.04726 -3.0089e-15 
-3.60079 -3.05587 -1.7192e-15 
-3.2422 -3.00642 3.34753e-14 
-2.88219 -2.98198 -1.97548e-15 
-2.55345 -2.90846 -8.94762e-15 
-2.21736 -2.84335 1.76185e-14 
-1.89811 -2.83419 -8.97729e-16 
-1.58884 -2.82219 2.4508e-15 
-1.26647 -2.7788 1.62624e-14 
-0.995981 -2.72538 -1.27211e-14 
-0.731152 -2.72874 -2.26249e-13 
-0.455704 -2.82689 3.53953e-13 
-0.157465 -2.8679 -1.14245e-13 
-0.0299896 -2.60503 6.87487e-14 
0.217647 -2.44121 8.09938e-14 
0.488178 -2.62708 -2.14289e-14 
0.716034 -2.67157 -4.67694e-14 
0.997839 -2.73409 -1.49993e-14 
1.28823 -2.74558 3.16043e-16 
1.58721 -2.78967 -5.14383e-16 
1.91238 -2.90238 -4.38578e-15 
2.23223 -2.9511 6.59509e-15 
2.55683 -3.00602 6.26192e-15 
2.90118 -3.02528 9.014e-15 
3.24502 -2.99454 4.40108e-15 
3.58441 -2.97527 1.17762e-15 
3.91789 -2.98206 7.53636e-16 
4.24919 -2.98988 6.63139e-16 
4.56353 -2.9885 -3.9771e-15 
4.87063 -3.04125 7.94933e-16 
5.15032 -2.95033 -1.05362e-15 
5.43896 -3.00119 -4.7787e-14 
5.72053 -2.9357 -7.87841e-16 
6.01518 -2.96374 -2.31733e-14 
6.31311 -2.92259 -3.15383e-14 
6.61722 -2.96116 3.31637e-16 
6.92547 -2.96495 -3.94693e-14 
7.23464 -2.99419 -6.14804e-15 
7.53731 -3.01225 3.85113e-14 
7.84692 -2.97499 2.32486e-14 
8.1678 -2.93563 6.78054e-16 
8.45839 -2.86008 5.91584e-16 
8.74359 -2.97296 7.07724e-16 
9.06129 -3.09509 7.32957e-16 
9.35442 -3.01227 -1.56629e-14 
9.65752 -2.96813 -2.23992e-15 
9.9948 -3.04973 -3.47155e-15 
10.3007 -2.94099 -1.97931e-15 
10.6245 -3.05794 3.15509e-14 
10.959 -2.9783 -9.01797e-16 
11.3383 -2.91486 1.38265e-14 
11.6524 -3.07497 1.45581e-14 
12 -3.21294 3.76111e-13 
-12 -2.99434 -5.25615e-13 
-11.6494 -2.83534 -1.40746e-14 
-11.4725 -2.48378 -3.61399e-15 
-10.9989 -2.66035 -8.23373e-15 
-10.6839 -2.65905 -1.24071e-15 
-10.3508 -2.68959 6.69027e-16 
-10.0213 -2.66242 8.70375e-16 
-9.68583 -2.63331 1.01413e-15 
-9.36702 -2.5986 -4.92526e-14 
-9.06316 -2.64212 -5.82623e-16 
-8.72262 -2.71354 -1.22931e-15 
-8.43945 -2.76542 -9.23818e-16 
-8.14203 -2.66673 3.50607e-16 
-7.81402 -2.60868 -7.93266e-15 
-7.42684 -2.51931 -1.90464e-15 
-7.10388 -2.51409 -1.29187e-14 
-6.82158 -2.68505 4.14508e-15 
-6.52485 -2.69637 1.65689e-14 
-6.23286 -2.70469 -1.44665e-14 
-5.95722 -2.65375 -1.21053e-14 
[...]
POINT_DATA 1978 
VECTORS vectors float
0.000210341 -0.000897041 1 
-0.000327025 -0.0661913 0.997807 
0.000354734 -0.0535642 0.998564 
0.000317124 -0.0377719 0.999286 
8.22765e-05 -0.0250169 0.999687 
0.000138173 -0.0177909 0.999842 
0.000206857 -0.015384 0.999882 
4.47988e-05 -0.0134375 0.99991 
-0.000151927 -0.0106699 0.999943 
-0.000376485 -0.00803978 0.999968 
-0.000782275 -0.00577169 0.999983 
-0.000385168 -0.00455376 0.99999 
5.96248e-05 -0.00352417 0.999994 
-2.50664e-05 -0.00194714 0.999998 
8.18668e-05 -0.000435115 1 
0.000349714 0.000348549 1 
7.40183e-05 0.000759569 1 
0.000138969 0.00108501 0.999999 
0.000312781 0.00131524 0.999999 
0.000133121 0.00170521 0.999999 
0.000158969 0.00334299 0.999994 
0.000202738 0.00586136 0.999983 
0.000134109 0.00984497 0.999952 
0.000101539 0.0151431 0.999885 
0.000112291 0.0213475 0.999772 
8.99472e-05 0.0299105 0.999553 
2.88814e-05 0.0433433 0.99906 
0.000151524 0.0626716 0.998034 
0.000157151 0.0876196 0.996154 
5.36712e-05 0.122724 0.992441 
0.000120567 0.165954 0.986133 
0.000231832 0.211063 0.977472 
6.86525e-05 0.269583 0.962977 
9.96954e-06 0.359271 0.933233 
8.44899e-05 0.466921 0.884299 
8.34809e-05 0.579876 0.814705 
3.13782e-05 0.714851 0.699276 
5.13624e-06 0.861292 0.50811 
1.34074e-05 0.969791 0.243936 
9.95141e-06 0.998506 -0.0546436 
2.02604e-06 0.953204 -0.302329 
-2.33396e-05 0.852592 -0.522576 
-2.1958e-06 0.727854 -0.685732 
-2.58167e-05 0.598942 -0.800792 
-5.33563e-05 0.479783 -0.877387 
-0.000106075 0.380727 -0.924688 
-5.8017e-05 0.298681 -0.954353 
-0.000100859 0.221464 -0.975169 
-0.000119364 0.160127 -0.987096 
-0.000106348 0.113099 -0.993584 
-0.000110525 0.0797462 -0.996815 
-0.000113371 0.0566825 -0.998392 
-0.000152647 0.0407243 -0.99917 
-0.000110232 0.0293915 -0.999568 
-0.000188238 0.0205159 -0.99979 
-0.000138196 0.0140462 -0.999901 
-0.000182137 0.00957064 -0.999954 
-0.000183366 0.007258 -0.999974 
-0.000150733 0.00505757 -0.999987 
-0.000187412 0.00307341 -0.999995 
-0.000184635 0.000432842 -1 
-0.000155373 -0.000976064 -1 
-0.000187053 -0.001691 -0.999999 
-0.000223763 -0.00148106 -0.999999 
-0.000170348 -0.000323135 -1 
-0.00024606 0.000411985 -1 
-0.000135649 -0.0010486 -0.999999 
-7.35027e-05 -0.00426464 -0.999991 
-0.000162038 -0.00622558 -0.999981 
0.00019204 -0.00749691 -0.999972 
0.000196021 -0.00904445 -0.999959 
0.000136987 -0.0111294 -0.999938 
0.000126567 -0.0131608 -0.999913 
0.000280938 -0.0158293 -0.999875 
0.000648055 -0.0221976 -0.999753 
0.000467157 -0.0405308 -0.999178 
3.15862e-05 -0.0581351 -0.998309 
0.000343798 -0.0636474 -0.997972 
-0.000471179 -0.000679642 -1 
0.00155813 -0.000628604 0.999999 
0.034744 -0.0578966 0.997718 
0.038179 -0.0533277 0.997847 
0.0409727 -0.0449875 0.998147 
0.0437449 -0.0301881 0.998587 
0.0441747 -0.0205568 0.998812 
0.045564 -0.0151677 0.998846 
0.0441263 -0.0117835 0.998956 
0.0446036 -0.00930269 0.998961 
0.0424735 -0.00742072 0.99907 
0.0410463 -0.00586879 0.99914 
0.0424154 -0.00465931 0.999089 
0.0436012 -0.00306936 0.999044 
0.044052 -0.00160379 0.999028 
0.0450759 -0.000761367 0.998983 
0.0444766 -0.000116171 0.99901 
0.0469861 0.000649728 0.998895 
0.0459042 0.00115408 0.998945 
0.046618 0.00159433 0.998912 
0.046285 0.0021184 0.998926 
0.0456259 0.00358983 0.998952 
0.0455424 0.00589442 0.998945 
0.0448179 0.00887886 0.998956 
0.0442324 0.0131841 0.998934 
0.0439711 0.0189319 0.998853 
0.043163 0.0267872 0.998709 
0.0411954 0.0381808 0.998421 
0.0399849 0.0564642 0.997604 
0.0382671 0.0812919 0.995955 
0.0354874 0.115289 0.992698 
0.0321654 0.16001 0.986591 
0.0287012 0.215464 0.97609 
0.0249822 0.284233 0.95843 
0.0201619 0.373678 0.92734 
0.0146249 0.478001 0.878238 
0.00994083 0.597701 0.801657 
0.00609408 0.737013 0.675851 
0.00367187 0.872754 0.488147 
0.00274671 0.972392 0.233338 
0.00196817 0.998158 -0.0606317 
0.000405336 0.945599 -0.325335 
-0.00171862 0.847804 -0.530307 
-0.0050161 0.719711 -0.694255 
-0.00961367 0.584882 -0.811061 
-0.0144952 0.466897 -0.884193 
-0.0190706 0.367455 -0.929846 
-0.0241759 0.274409 -0.961309 
-0.0294004 0.197226 -0.979917 
-0.0339129 0.137788 -0.989881 
-0.0373017 0.09536 -0.994744 
-0.0396193 0.0659143 -0.997038 
-0.0409892 0.0461716 -0.998092 
-0.0423797 0.0326687 -0.998567 
-0.0432385 0.023314 -0.998793 
-0.0436668 0.0165004 -0.99891 
-0.044044 0.0117072 -0.998961 
-0.0453301 0.00824918 -0.998938 
-0.0448898 0.00581155 -0.998975 
-0.0461163 0.00370993 -0.998929 
-0.0450324 0.00184794 -0.998984 
-0.0464996 0.000485923 -0.998918 
-0.0457496 -0.000598079 -0.998953 
-0.0465112 -0.000990155 -0.998917 
-0.0457239 -0.000904682 -0.998954 
-0.0458107 -0.000511077 -0.99895 
-0.0462073 -0.0011238 -0.998931 
-0.0450305 -0.00260641 -0.998982 
-0.0456369 -0.004362 -0.998949 
-0.0438512 -0.0061718 -0.999019 
-0.0420758 -0.00773513 -0.999084 
-0.0437877 -0.00887234 -0.999001 
-0.0443974 -0.0104785 -0.998959 
-0.0453684 -0.0133382 -0.998881 
-0.0424318 -0.018395 -0.99893 
-0.0394132 -0.0314003 -0.99873 
-0.0445933 -0.0416154 -0.998138 
-0.0387474 -0.0497893 -0.998008 
-0.0320702 -0.0532697 -0.998065 
-0.000927691 -0.000877714 -0.999999 
0.000140533 -0.00115292 0.999999 
0.0290898 -0.0562973 0.99799 
0.0289676 -0.0476073 0.998446 
0.0391135 -0.0369201 0.998552 
0.0411283 -0.025768 0.998822 
0.0428537 -0.0182553 0.998915 
0.0425197 -0.0124031 0.999019 
0.0410631 -0.00911683 0.999115 
0.0400647 -0.00769773 0.999167 
0.040135 -0.00701623 0.99917 
0.0438055 -0.00593696 0.999022 
0.0447257 -0.00483529 0.998988 
0.0433843 -0.0036356 0.999052 
0.0382655 -0.00222263 0.999265 
0.0330565 -0.00113175 0.999453 
0.033794 -0.000184685 0.999429 
0.0417785 0.000489325 0.999127 
0.0411653 0.00103741 0.999152 
0.0420817 0.00142063 0.999113 
0.0417302 0.00216704 0.999127 
0.040046 0.00363021 0.999191 
0.0389782 0.00562073 0.999224 
0.0390894 0.00822575 0.999202 
0.0406738 0.011821 0.999103 
0.0397398 0.0167484 0.99907 
0.038344 0.0235205 0.998988 
0.0392045 0.0338078 0.998659 
0.0384275 0.0491074 0.998054 
0.0345455 0.0712265 0.996862 
0.0316289 0.103471 0.994129 
0.0273223 0.148556 0.988526 
0.0214308 0.208978 0.977685 
0.0185685 0.286778 0.957817 
0.0139928 0.38174 0.924164 
0.00887648 0.500747 0.865548 
0.00594487 0.636861 0.770956 
0.00301394 0.774266 0.632853 
0.000835789 0.900352 0.435161 
0.000858163 0.982562 0.185933 
0.000625526 0.995908 -0.0903667 
0.000593867 0.954217 -0.299114 
0.000129351 0.869407 -0.494097 
-0.00169101 0.753098 -0.657907 
-0.00491467 0.61683 -0.787081 
-0.0084106 0.490916 -0.871167 
-0.012137 0.38104 -0.924479 
-0.0183874 0.285735 -0.958132 
-0.0245468 0.203876 -0.978689 
-0.0299671 0.140182 -0.989672 
-0.0343014 0.0956017 -0.994828 
-0.0355636 0.0657939 -0.997199 
-0.0358776 0.0466095 -0.998269 
-0.0369624 0.0329451 -0.998773 
-0.0378063 0.0230749 -0.999019 
-0.0384085 0.0165087 -0.999126 
-0.0414298 0.0118167 -0.999072 
-0.0385725 0.00860523 -0.999219 
-0.0408039 0.00608649 -0.999149 
-0.0381702 0.00418849 -0.999262 
-0.0396731 0.00234588 -0.99921 
-0.0375128 0.00100643 -0.999296 
-0.0405212 -0.00010598 -0.999179 
-0.039872 -0.000680864 -0.999205 
-0.0416592 -0.00082687 -0.999132 
-0.0417985 -0.000781133 -0.999126 
-0.0401929 -0.00140862 -0.999191 
-0.0382404 -0.00278735 -0.999265 
-0.0354481 -0.00456109 -0.999361 
-0.0393989 -0.00628389 -0.999204 
-0.043626 -0.00757145 -0.999019 
-0.0414189 -0.00811233 -0.999109 
-0.0402805 -0.00923295 -0.999146 
-0.042438 -0.0144376 -0.998995 
-0.0402545 -0.0197858 -0.998994 
-0.0465008 -0.0245741 -0.998616 
-0.039275 -0.0305843 -0.99876 
-0.0334868 -0.0477337 -0.998299 
-0.0335041 -0.0578209 -0.997765 
-0.000490666 -0.001543 -0.999999 
0.000768866 -0.000968384 0.999999 
0.0237225 -0.0597646 0.997931 
0.0198339 -0.0498262 0.998561 
0.0272207 -0.0332145 0.999077 
0.0297954 -0.0234425 0.999281 
0.0316288 -0.0155983 0.999378 
0.0289623 -0.00988287 0.999532 
0.0271847 -0.00720729 0.999604 
0.0266568 -0.00683761 0.999621 
0.0281974 -0.00684061 0.999579 
0.0309656 -0.00582399 0.999503 
0.03143 -0.0045362 0.999496 
0.0303278 -0.00329552 0.999535 
0.0253912 -0.00216278 0.999675 
0.0225208 -0.00107021 0.999746 
0.0226694 -0.000287245 0.999743 
0.0279798 0.000375442 0.999608 
0.029427 0.00098644 0.999566 
0.0299503 0.00175949 0.99955 
0.0285468 0.0029779 0.999588 
0.0264023 0.00446018 0.999641 
0.0259388 0.00634416 0.999643 
0.0258237 0.00890573 0.999627 
0.0275795 0.0122081 0.999545 
0.0269767 0.0171906 0.999488 
0.0254792 0.0240937 0.999385 
0.0275476 0.0336053 0.999055 
0.0269663 0.0490489 0.998432 
0.0238953 0.0723609 0.997092 
0.0210506 0.105321 0.994215 
0.0173412 0.149525 0.988606 
0.0124139 0.21022 0.977575 
0.0104038 0.283867 0.958807 
0.00773668 0.382682 0.923848 
0.00481781 0.509126 0.860679 
0.0031174 0.643972 0.765043 
0.0012291 0.781738 0.623606 
-0.000300909 0.900297 0.435276 
-0.00126906 0.983775 0.179402 
-0.0013811 0.99968 -0.0252717 
-0.00113007 0.969051 -0.246858 
-0.000700995 0.884327 -0.466867 
-0.0013253 0.769761 -0.638331 
-0.00296045 0.640448 -0.767996 
-0.00507371 0.503589 -0.863929 
-0.00742346 0.383005 -0.923717 
-0.0113257 0.280488 -0.959791 
-0.0157403 0.204665 -0.978706 
-0.0198406 0.144197 -0.98935 
-0.0234608 0.0992256 -0.994788 
-0.0238847 0.0703214 -0.997238 
-0.02408 0.0495316 -0.998482 
-0.0247247 0.0345728 -0.999096 
-0.025383 0.024229 -0.999384 
-0.0255338 0.0172537 -0.999525 
-0.0279675 0.0122512 -0.999534 
-0.0252183 0.00918628 -0.99964 
-0.0277731 0.0066483 -0.999592 
-0.0255021 0.00470042 -0.999664 
-0.0265965 0.00288789 -0.999642 
-0.0253986 0.00144982 -0.999676 
-0.0273543 0.000290954 -0.999626 
-0.027545 -0.000422782 -0.99962 
-0.0288416 -0.000817156 -0.999584 
-0.029455 -0.00115478 -0.999565 
-0.0273557 -0.00193831 -0.999624 
-0.0251466 -0.00322396 -0.999679 
-0.0223136 -0.00480537 -0.999739 
-0.0268124 -0.00620579 -0.999621 
-0.0317271 -0.007265 -0.99947 
-0.0285233 -0.00732302 -0.999566 
-0.0273545 -0.00745539 -0.999598 
-0.0314843 -0.0108742 -0.999445 
-0.0274739 -0.0164232 -0.999488 
-0.0307389 -0.0252073 -0.99921 
-0.0274582 -0.0370967 -0.998934 
-0.0224248 -0.0552557 -0.99822 
-0.0218733 -0.0567941 -0.998146 
-0.000883551 -0.00145697 -0.999999 
0.000952122 -4.82738e-05 1 
0.0160301 -0.0629015 0.997891 
0.0123402 -0.0597481 0.998137 
0.0165379 -0.0402397 0.999053 
0.0183173 -0.0281256 0.999437 
0.0205083 -0.0181942 0.999624 
0.0191367 -0.0111032 0.999755 
0.0168283 -0.0070947 0.999833 
0.0163455 -0.00654272 0.999845 
0.0178375 -0.00702428 0.999816 
0.0187546 -0.00643702 0.999803 
0.0193935 -0.00495372 0.9998 
0.0185273 -0.00348285 0.999822 
0.0161157 -0.00204405 0.999868 
0.0149559 -0.00094985 0.999888 
0.0149541 -0.000173046 0.999888 
0.0185329 0.000469955 0.999828 
0.0194329 0.00123856 0.99981 
0.0191363 0.0022487 0.999814 
0.0176134 0.00354357 0.999839 
0.0163487 0.00520454 0.999853 
0.0155234 0.00720171 0.999854 
0.0157891 0.0100012 0.999825 
0.0171094 0.0137032 0.99976 
0.0161518 0.0190171 0.999689 
0.0154157 0.0271535 0.999512 
0.0172724 0.0380322 0.999127 
0.0165004 0.0551461 0.998342 
0.0143119 0.0821865 0.996514 
0.0114547 0.116951 0.993072 
0.00882725 0.166645 0.985977 
0.00567907 0.237176 0.97145 
0.00433123 0.320376 0.947281 
0.00221388 0.430311 0.902678 
-0.000304254 0.566599 0.823994 
-0.00119666 0.705034 0.709173 
-0.00183373 0.839104 0.543968 
-0.000646018 0.932788 0.360424 
-0.00249781 0.949767 0.312948 
-0.00267412 0.995604 0.093626 
-0.00151232 0.988573 -0.150734 
-0.000673875 0.915411 -0.402519 
-0.000725421 0.793944 -0.607991 
-0.00168623 0.652485 -0.7578 
-0.00288866 0.519576 -0.854419 
-0.00395608 0.394568 -0.918858 
-0.00642703 0.290002 -0.957004 
-0.0087183 0.208139 -0.97806 
-0.0113571 0.150531 -0.98854 
-0.014287 0.106886 -0.994169 
-0.0138499 0.0760887 -0.997005 
-0.0143328 0.0537016 -0.998454 
-0.0151829 0.0375536 -0.999179 
-0.0157817 0.026379 -0.999527 
-0.0156335 0.0186737 -0.999703 
-0.0172435 0.0134135 -0.999761 
-0.0156694 0.00991356 -0.999828 
-0.0169039 0.00711489 -0.999832 
-0.0162284 0.00497789 -0.999856 
-0.0170057 0.0031703 -0.99985 
-0.0165176 0.00173243 -0.999862 
-0.0178343 0.000551616 -0.999841 
-0.0178711 -0.00024641 -0.99984 
-0.0188045 -0.000824916 -0.999823 
-0.0190812 -0.00139982 -0.999817 
-0.0174483 -0.00224999 -0.999845 
-0.0156369 -0.00349998 -0.999872 
-0.0131031 -0.00510046 -0.999901 
-0.0156474 -0.00644759 -0.999857 
-0.0198111 -0.00716908 -0.999778 
-0.0175534 -0.00708234 -0.999821 
-0.0166615 -0.00670546 -0.999839 
-0.0199458 -0.00904408 -0.99976 
-0.0185853 -0.0160941 -0.999698 
-0.021175 -0.0261097 -0.999435 
-0.0192896 -0.0396616 -0.999027 
-0.0150893 -0.0551404 -0.998365 
-0.0136936 -0.0574573 -0.998254 
-0.000278604 -0.00165545 -0.999999 
0.000923602 0.00036698 1 
0.00609333 -0.0477753 0.99884 
0.0073142 -0.0615493 0.998077 
0.010274 -0.048417 0.998774 
0.0100035 -0.0331552 0.9994 
0.0114868 -0.0210225 0.999713 
0.0112134 -0.0128456 0.999855 
0.00975647 -0.00768149 0.999923 
0.00875505 -0.00653364 0.99994 
0.00968879 -0.00724869 0.999927 
0.0107428 -0.00710271 0.999917 
0.0109601 -0.00575251 0.999923 
0.0105517 -0.00413858 0.999936 
0.0101289 -0.00272008 0.999945 
0.00980958 -0.00151238 0.999951 
0.00907352 -0.000637312 0.999959 
0.00940982 0.000175765 0.999956 
0.0114196 0.000905401 0.999934 
0.011501 0.00185142 0.999932 
0.0105417 0.00305204 0.99994 
0.00988576 0.00465578 0.99994 
0.00881666 0.00666141 0.999939 
0.00865836 0.00912503 0.999921 
0.00881508 0.0124952 0.999883 
0.00884768 0.0169376 0.999817 
0.00868356 0.0237004 0.999681 
0.00858863 0.0344912 0.999368 
0.00926453 0.0479571 0.998806 
0.00874348 0.0701336 0.997499 
0.00609469 0.102627 0.994701 
0.0045476 0.148131 0.988957 
0.00266078 0.211013 0.97748 
0.00120271 0.306632 0.951827 
4.94767e-05 0.414835 0.909897 
-0.000487652 0.514626 0.857414 
-0.000789668 0.656459 0.754361 
-0.000238443 0.802901 0.596112 
0.00225164 0.913495 0.406844 
0.00188719 0.993469 0.114085 
0.000693554 0.999973 -0.00727414 
0.00162082 0.981445 -0.191738 
-0.00172483 0.943825 -0.33044 
0.000573528 0.889182 -0.457553 
0.000117298 0.724171 -0.68962 
-0.000360029 0.566438 -0.824104 
-0.000910545 0.431631 -0.90205 
-0.00262074 0.306615 -0.95183 
-0.00422409 0.22042 -0.975396 
-0.00545456 0.155252 -0.98786 
-0.00733077 0.111028 -0.99379 
-0.00707489 0.0790981 -0.996842 
-0.00762564 0.0541404 -0.998504 
-0.00823278 0.0374452 -0.999265 
-0.00853606 0.0263083 -0.999617 
-0.00862808 0.0188419 -0.999785 
-0.00958437 0.0136529 -0.999861 
-0.00876822 0.0101223 -0.99991 
-0.00968834 0.00744376 -0.999925 
-0.00944525 0.00537845 -0.999941 
-0.0101228 0.00357983 -0.999942 
-0.00990871 0.00209547 -0.999949 
-0.0107338 0.000804679 -0.999942 
-0.0106979 -0.00012333 -0.999943 
-0.0110274 -0.000810187 -0.999939 
-0.0111194 -0.0014366 -0.999937 
-0.00992823 -0.00227376 -0.999948 
-0.00879634 -0.00358903 -0.999955 
-0.00712056 -0.00534526 -0.99996 
-0.00820274 -0.00693938 -0.999942 
-0.0107337 -0.00747539 -0.999914 
-0.00954265 -0.00710875 -0.999929 
-0.00982437 -0.00654859 -0.99993 
-0.0121213 -0.00933881 -0.999883 
-0.0119744 -0.0176996 -0.999772 
-0.0138489 -0.0282821 -0.999504 
-0.0120179 -0.0418766 -0.999051 
-0.00923529 -0.0566931 -0.998349 
-0.00886823 -0.0588505 -0.998227 
-0.000596877 -0.00189826 -0.999998 
0.000262709 -0.00105054 0.999999 
0.00419408 -0.0587551 0.998264 
0.00664585 -0.0590441 0.998233 
0.00518044 -0.0412935 0.999134 
0.00488723 -0.0253108 0.999668 
0.0049424 -0.0154133 0.999869 
0.00476077 -0.00892627 0.999949 
0.00446743 -0.00651021 0.999969 
0.00473314 -0.00747316 0.999961 
0.00526392 -0.00785361 0.999955 
0.00584787 -0.00684477 0.999959 
0.00575253 -0.00513179 0.99997 
0.0057039 -0.00347039 0.999978 
0.00603254 -0.00215009 0.999979 
0.00606514 -0.00120306 0.999981 
0.0060891 -0.000456061 0.999981 
0.00630104 0.000342558 0.99998 
0.00709665 0.00124327 0.999974 
0.00702568 0.00238148 0.999972 
0.00680791 0.0038828 0.999969 
0.00643647 0.00564883 0.999963 
0.00586379 0.00791757 0.999951 
0.0053631 0.0107528 0.999928 
0.00487364 0.0144606 0.999884 
0.00454108 0.0199022 0.999792 
0.00417928 0.0284156 0.999587 
0.00343175 0.0407613 0.999163 
0.0039007 0.0572437 0.998353 
0.00294084 0.080977 0.996712 
0.00148135 0.120426 0.992721 
0.000491368 0.170111 0.985425 
5.35257e-06 0.247745 0.968825 
0.000111473 0.35314 0.935571 
-6.24037e-05 0.50053 0.865719 
0.000187061 0.670958 0.741495 
0.00108902 0.804527 0.593915 
0.00526675 0.886315 0.463054 
0.00334688 0.987477 0.157728 
0.00164052 0.965007 0.26222 
-0.000991921 0.999867 -0.016282 
-0.00152128 0.996103 -0.0881822 
-0.00291305 0.95927 -0.282477 
-0.00467001 0.849917 -0.526895 
-0.00046747 0.797524 -0.603288 
0.000754439 0.622149 -0.782899 
0.000419297 0.47047 -0.882416 
-0.000281844 0.335048 -0.942201 
-0.00098093 0.235241 -0.971936 
-0.00165583 0.166783 -0.985992 
-0.00248848 0.114348 -0.993438 
-0.00279153 0.0768029 -0.997042 
-0.003196 0.0525615 -0.998613 
-0.00365349 0.0366668 -0.999321 
-0.00402525 0.0258908 -0.999657 
-0.00449458 0.0184221 -0.99982 
-0.00522895 0.0134612 -0.999896 
-0.00546568 0.0100174 -0.999935 
-0.00605704 0.00744 -0.999954 
-0.00624127 0.00545989 -0.999966 
-0.00660322 0.00375524 -0.999971 
-0.00658147 0.00222866 -0.999976 
-0.00679143 0.000925771 -0.999977 
-0.00667415 -0.000116357 -0.999978 
-0.00650794 -0.00084699 -0.999978 
-0.00634001 -0.00151055 -0.999979 
-0.00582923 -0.00246496 -0.99998 
-0.00513447 -0.00383307 -0.999979 
-0.00451237 -0.00559402 -0.999974 
-0.0046608 -0.00720709 -0.999963 
-0.00536802 -0.00784803 -0.999955 
-0.00516431 -0.00713041 -0.999961 
-0.00525116 -0.00657849 -0.999965 
-0.00668999 -0.00998601 -0.999928 
-0.00625184 -0.0179205 -0.99982 
-0.00720305 -0.0286596 -0.999563 
-0.00600094 -0.0426851 -0.999071 
-0.00498078 -0.0573784 -0.99834 
-0.00508403 -0.0591706 -0.998235 
-0.000336694 -0.00159562 -0.999999 
6.96199e-05 -0.00182396 0.999998 
0.00279544 -0.0576882 0.998331 
0.00356422 -0.0560646 0.998421 
0.00227527 -0.0386744 0.999249 
0.00193649 -0.0238933 0.999713 
0.00193383 -0.0138882 0.999902 
0.00236279 -0.00793227 0.999966 
0.00293932 -0.00659192 0.999974 
0.00361122 -0.00798404 0.999962 
0.00416352 -0.00849829 0.999955 
0.00456685 -0.00721426 0.999964 
0.00491036 -0.00533215 0.999974 
0.00516143 -0.00350936 0.999981 
0.00528761 -0.00220347 0.999984 
0.00556697 -0.00131781 0.999984 
0.00617648 -0.000674706 0.999981 
0.00670557 0.000183475 0.999978 
0.00683714 0.0013619 0.999976 
0.00696222 0.00268499 0.999972 
0.00699392 0.00416919 0.999967 
0.00675632 0.00591067 0.99996 
0.00639347 0.0079997 0.999948 
0.00566973 0.0107464 0.999926 
0.00501874 0.0141948 0.999887 
0.00409345 0.0192011 0.999807 
0.00311519 0.0271387 0.999627 
0.00216847 0.038911 0.99924 
0.00146244 0.0575377 0.998342 
0.00065465 0.0870433 0.996204 
-2.30264e-05 0.123741 0.992315 
-0.000331956 0.184416 0.982848 
-0.000309245 0.26897 0.963148 
-0.000115841 0.394626 0.918842 
0.000443812 0.571862 0.820349 
0.00277033 0.729863 0.683587 
0.00588393 0.918124 0.396249 
-3.06123e-05 0.982294 0.187346 
-0.000230046 0.992729 0.12037 
-0.00154491 0.997249 0.0741123 
-0.00180355 0.99992 0.0125324 
-0.00124276 0.998739 -0.0501969 
-0.00148666 0.996395 -0.0848183 
-0.00272219 0.991319 -0.131453 
-0.00230017 0.681998 -0.73135 
-0.00427599 0.735904 -0.677072 
-0.00109274 0.51266 -0.858591 
-0.000176276 0.356549 -0.934277 
-7.93236e-05 0.253643 -0.967298 
-3.42618e-05 0.176748 -0.984256 
-0.000307711 0.124821 -0.992179 
-0.000755097 0.0855596 -0.996333 
-0.0013857 0.0570627 -0.99837 
-0.00217567 0.0392329 -0.999228 
-0.00301164 0.0275194 -0.999617 
-0.00389321 0.0195259 -0.999802 
-0.00479904 0.0139602 -0.999891 
-0.00575945 0.0104106 -0.999929 
-0.00621136 0.0078172 -0.99995 
-0.00653805 0.00583299 -0.999962 
-0.00662846 0.00412651 -0.99997 
-0.00660849 0.00267296 -0.999975 
-0.0065943 0.00123254 -0.999977 
-0.0064178 0.000100282 -0.999979 
-0.00626176 -0.00078427 -0.99998 
-0.00590021 -0.00155153 -0.999981 
-0.00542941 -0.0024175 -0.999982 
-0.00514159 -0.00376308 -0.99998 
-0.00492872 -0.00569283 -0.999972 
-0.00441424 -0.00762619 -0.999961 
-0.00406019 -0.00823897 -0.999958 