# vtk DataFile Version 3.0 
Exported using Morpho https://github.com/Morpho-lang/morpho 
ASCII 
DATASET UNSTRUCTURED_GRID 

POINTS 2054 float 
-8.48528 -2.82843 0 
-8.20636 -2.82843 0 
-7.94054 -2.82843 0 
-7.6904 -2.82843 0 
-7.45357 -2.82843 0 
-7.22694 -2.82843 0 
-7.00705 -2.82843 0 
-6.79111 -2.82843 0 
-6.57731 -2.82843 0 
-6.36453 -2.82843 0 
-6.15219 -2.82843 0 
-5.94 -2.82843 0 
-5.72786 -2.82843 0 
-5.51573 -2.82843 0 
-5.3036 -2.82843 0 
-5.09147 -2.82843 0 
-4.87933 -2.82843 0 
-4.6672 -2.82843 0 
-4.45507 -2.82843 0 
-4.24294 -2.82843 0 
-4.03081 -2.82843 0 
-3.81867 -2.82843 0 
-3.60654 -2.82843 0 
-3.39441 -2.82843 0 
-3.18228 -2.82843 0 
-2.97015 -2.82843 0 
-2.75801 -2.82843 0 
-2.54588 -2.82843 0 
-2.33375 -2.82843 0 
-2.12162 -2.82843 0 
-1.90949 -2.82843 0 
-1.69735 -2.82843 0 
-1.48522 -2.82843 0 
-1.27309 -2.82843 0 
-1.06096 -2.82843 0 
-0.848825 -2.82843 0 
-0.636693 -2.82843 0 
-0.424561 -2.82843 0 
-0.212429 -2.82843 0 
-0.000296761 -2.82843 0 
0.211835 -2.82843 0 
0.423967 -2.82843 0 
0.636099 -2.82843 0 
0.848231 -2.82843 0 
1.06036 -2.82843 0 
1.2725 -2.82843 0 
1.48463 -2.82843 0 
1.69676 -2.82843 0 
1.90889 -2.82843 0 
2.12102 -2.82843 0 
2.33316 -2.82843 0 
2.54529 -2.82843 0 
2.75742 -2.82843 0 
2.96955 -2.82843 0 
3.18168 -2.82843 0 
3.39382 -2.82843 0 
3.60595 -2.82843 0 
3.81808 -2.82843 0 
4.03021 -2.82843 0 
4.24234 -2.82843 0 
4.45448 -2.82843 0 
4.66661 -2.82843 0 
4.87874 -2.82843 0 
5.09087 -2.82843 0 
5.303 -2.82843 0 
5.51514 -2.82843 0 
5.72727 -2.82843 0 
5.93941 -2.82843 0 
6.15159 -2.82843 0 
6.36393 -2.82843 0 
6.57672 -2.82843 0 
6.79055 -2.82843 0 
7.00652 -2.82843 0 
7.22647 -2.82843 0 
7.45313 -2.82843 0 
7.69005 -2.82843 0 
7.9403 -2.82843 0 
8.20621 -2.82843 0 
8.48528 -2.82843 0 
-8.48528 -2.5495 0 
-8.30526 -2.64845 0 
-8.07062 -2.59995 0 
-7.83904 -2.59637 0 
-7.59595 -2.59733 0 
-7.36578 -2.59177 0 
-7.13796 -2.5933 0 
-6.90908 -2.59428 0 
-6.68421 -2.5916 0 
-6.46568 -2.58832 0 
-6.24926 -2.58859 0 
-6.03358 -2.58941 0 
-5.81848 -2.59013 0 
-5.60402 -2.59075 0 
-5.39005 -2.59135 0 
-5.17642 -2.59186 0 
-4.96311 -2.59223 0 
-4.75009 -2.59242 0 
-4.53736 -2.59244 0 
-4.32497 -2.59236 0 
-4.1128 -2.59242 0 
-3.90059 -2.59259 0 
-3.68835 -2.5926 0 
-3.47627 -2.59248 0 
-3.26428 -2.59251 0 
-3.05216 -2.59271 0 
-2.83986 -2.59283 0 
-2.62755 -2.59274 0 
-2.41539 -2.59253 0 
-2.20336 -2.59238 0 
-1.99135 -2.59238 0 
-1.77924 -2.59246 0 
-1.56704 -2.59244 0 
-1.35495 -2.59215 0 
-1.14319 -2.59183 0 
-0.931581 -2.59195 0 
-0.719663 -2.59256 0 
-0.507197 -2.59324 0 
-0.294425 -2.59354 0 
-0.0817689 -2.59344 0 
0.130587 -2.59325 0 
0.342804 -2.59322 0 
0.555051 -2.59322 0 
0.767233 -2.59303 0 
0.97919 -2.59278 0 
1.19107 -2.59278 0 
1.40311 -2.59289 0 
1.61524 -2.59286 0 
1.82732 -2.59279 0 
2.03943 -2.59281 0 
2.25163 -2.5928 0 
2.46381 -2.59266 0 
2.67591 -2.59254 0 
2.88801 -2.59237 0 
3.10001 -2.59226 0 
3.31203 -2.59216 0 
3.52402 -2.59207 0 
3.73601 -2.59208 0 
3.94815 -2.59221 0 
4.16052 -2.5923 0 
4.37309 -2.59232 0 
4.58593 -2.59227 0 
4.79921 -2.5922 0 
5.01319 -2.59212 0 
5.22833 -2.5921 0 
5.44534 -2.59239 0 
5.6657 -2.59346 0 
5.89185 -2.59569 0 
6.12685 -2.59429 0 
6.36853 -2.59189 0 
6.6108 -2.57787 0 
6.84491 -2.61411 0 
7.08804 -2.58476 0 
7.34858 -2.60369 0 
7.58803 -2.59327 0 
7.83059 -2.59326 0 
8.06387 -2.59199 0 
8.30038 -2.64348 0 
8.48528 -2.54936 0 
-8.48528 -2.28369 0 
-8.25701 -2.4138 0 
-8.01078 -2.35334 0 
-7.73666 -2.37963 0 
-7.49744 -2.35565 0 
-7.26898 -2.35831 0 
-7.03324 -2.36676 0 
-6.7997 -2.36275 0 
-6.5773 -2.35166 0 
-6.35808 -2.3495 0 
-6.14038 -2.35058 0 
-5.92336 -2.35185 0 
-5.70723 -2.35272 0 
-5.49199 -2.35362 0 
-5.27734 -2.35447 0 
-5.0632 -2.35505 0 
-4.84958 -2.35534 0 
-4.63641 -2.35533 0 
-4.42363 -2.35504 0 
-4.21126 -2.35485 0 
-3.99909 -2.35513 0 
-3.78684 -2.3554 0 
-3.57461 -2.35516 0 
-3.36263 -2.35498 0 
-3.15066 -2.35537 0 
-2.93843 -2.35586 0 
-2.72604 -2.35589 0 
-2.51374 -2.35551 0 
-2.30162 -2.35509 0 
-2.08964 -2.35496 0 
-1.87761 -2.35518 0 
-1.66544 -2.3554 0 
-1.45322 -2.35518 0 
-1.2412 -2.35438 0 
-1.02967 -2.35407 0 
-0.818162 -2.35505 0 
-0.606054 -2.35676 0 
-0.393243 -2.3579 0 
-0.180256 -2.35789 0 
0.0323765 -2.35727 0 
0.244686 -2.35692 0 
0.456926 -2.35692 0 
0.669206 -2.35667 0 
0.881318 -2.35598 0 
1.09315 -2.35559 0 
1.305 -2.35583 0 
1.51709 -2.35595 0 
1.72919 -2.35571 0 
1.9412 -2.35566 0 
2.15334 -2.3558 0 
2.36559 -2.3556 0 
2.57772 -2.35522 0 
2.78976 -2.35507 0 
3.0019 -2.35461 0 
3.21373 -2.35451 0 
3.42571 -2.35439 0 
3.63769 -2.35431 0 
3.84965 -2.35453 0 
4.06183 -2.35491 0 
4.27435 -2.35507 0 
4.48707 -2.35507 0 
4.70017 -2.35506 0 
4.91376 -2.35498 0 
5.12819 -2.35502 0 
5.34378 -2.35528 0 
5.56106 -2.35662 0 
5.78097 -2.35971 0 
6.00401 -2.36251 0 
6.2308 -2.3624 0 
6.45748 -2.35551 0 
6.68075 -2.33423 0 
6.88797 -2.39744 0 
7.05313 -2.27289 0 
7.24377 -2.40237 0 
7.48542 -2.36016 0 
7.73055 -2.36599 0 
7.99177 -2.33552 0 
8.24864 -2.40698 0 
8.48528 -2.28345 0 
-8.48528 -2.03355 0 
-8.25312 -2.18214 0 
-8.03669 -2.07913 0 
-7.83956 -2.18231 0 
-7.6106 -2.12852 0 
-7.38852 -2.10959 0 
-7.16268 -2.14097 0 
-6.9229 -2.1435 0 
-6.70119 -2.12055 0 
-6.48111 -2.11285 0 
-6.26282 -2.11284 0 
-6.045 -2.1151 0 
-5.82775 -2.11658 0 
-5.61153 -2.11776 0 
-5.3962 -2.1192 0 
-5.18144 -2.1203 0 
-4.96732 -2.12084 0 
-4.75387 -2.12105 0 
-4.54086 -2.12091 0 
-4.32822 -2.12045 0 
-4.11596 -2.12045 0 
-3.90382 -2.12107 0 
-3.69156 -2.12116 0 
-3.47938 -2.12058 0 
-3.26746 -2.12068 0 
-3.05542 -2.12154 0 
-2.84307 -2.12198 0 
-2.63064 -2.12162 0 
-2.41836 -2.12087 0 
-2.20626 -2.12031 0 
-1.99426 -2.12034 0 
-1.78217 -2.1207 0 
-1.56989 -2.12074 0 
-1.35755 -2.11993 0 
-1.14542 -2.11838 0 
-0.934012 -2.11859 0 
-0.722404 -2.12089 0 
-0.509943 -2.12344 0 
-0.296911 -2.12431 0 
-0.0840921 -2.12359 0 
0.128295 -2.12281 0 
0.340414 -2.12274 0 
0.552564 -2.12288 0 
0.76478 -2.12226 0 
0.976792 -2.1213 0 
1.18855 -2.12128 0 
1.40042 -2.12188 0 
1.61256 -2.12177 0 
1.82458 -2.12141 0 
2.03655 -2.12164 0 
2.24875 -2.12174 0 
2.46099 -2.12114 0 
2.67302 -2.12065 0 
2.88504 -2.12054 0 
3.09728 -2.1194 0 
3.30873 -2.11968 0 
3.52086 -2.1195 0 
3.7329 -2.11938 0 
3.94484 -2.11986 0 
4.15715 -2.12044 0 
4.36983 -2.12035 0 
4.58282 -2.1204 0 
4.79606 -2.12017 0 
5.01004 -2.12012 0 
5.22483 -2.12002 0 
5.44073 -2.12051 0 
5.6582 -2.123 0 
5.8782 -2.12696 0 
6.10217 -2.12971 0 
6.33095 -2.12707 0 
6.567 -2.11601 0 
6.82301 -2.12303 0 
7.06572 -2.04567 0 
7.29733 -2.17484 0 
7.54632 -2.11408 0 
7.79371 -2.13741 0 
8.02274 -2.07453 0 
8.25027 -2.1738 0 
8.48528 -2.0332 0 
-8.48528 -1.79671 0 
-8.25436 -1.93882 0 
-8.01299 -1.83977 0 
-7.78596 -1.953 0 
-7.5297 -1.87194 0 
-7.2756 -1.88722 0 
-7.05707 -1.93544 0 
-6.84369 -1.89677 0 
-6.62219 -1.88079 0 
-6.40169 -1.87606 0 
-6.18206 -1.87854 0 
-5.96274 -1.881 0 
-5.74458 -1.88208 0 
-5.52796 -1.88344 0 
-5.31232 -1.88506 0 
-5.09736 -1.88569 0 
-4.88338 -1.88564 0 
-4.67019 -1.88555 0 
-4.45737 -1.88507 0 
-4.24485 -1.88447 0 
-4.03271 -1.88482 0 
-3.82061 -1.88562 0 
-3.60832 -1.88529 0 
-3.39617 -1.88464 0 
-3.18427 -1.88547 0 
-2.97209 -1.88672 0 
-2.7596 -1.88684 0 
-2.54714 -1.88601 0 
-2.33483 -1.88505 0 
-2.12268 -1.8846 0 
-1.91058 -1.885 0 
-1.69824 -1.88561 0 
-1.48561 -1.88547 0 
-1.27286 -1.88413 0 
-1.06032 -1.88216 0 
-0.848858 -1.8839 0 
-0.636875 -1.88781 0 
-0.424169 -1.89034 0 
-0.211518 -1.89004 0 
0.000731944 -1.88866 0 
0.21257 -1.88788 0 
0.424308 -1.88807 0 
0.636257 -1.88793 0 
0.848362 -1.88664 0 
1.06025 -1.88556 0 
1.27191 -1.88605 0 
1.48381 -1.88664 0 
1.69595 -1.886 0 
1.90782 -1.88577 0 
2.11974 -1.88637 0 
2.33202 -1.88609 0 
2.54419 -1.88502 0 
2.75607 -1.88472 0 
2.96812 -1.88462 0 
3.18055 -1.88217 0 
3.39117 -1.88415 0 
3.60398 -1.8838 0 
3.81618 -1.88366 0 
4.02827 -1.88469 0 
4.24071 -1.88523 0 
4.4544 -1.88509 0 
4.66716 -1.88476 0 
4.88099 -1.88493 0 
5.09545 -1.88466 0 
5.31057 -1.88453 0 
5.52653 -1.88564 0 
5.7436 -1.88981 0 
5.96352 -1.89563 0 
6.18733 -1.89813 0 
6.41543 -1.89522 0 
6.65059 -1.89622 0 
6.87542 -1.86913 0 
7.11122 -1.81621 0 
7.31223 -1.94975 0 
7.53264 -1.87683 0 
7.77077 -1.89068 0 
8.01717 -1.8297 0 
8.25014 -1.93148 0 
8.48528 -1.79628 0 
-8.48528 -1.57009 0 
-8.24868 -1.70836 0 
-8.015 -1.61096 0 
-7.76734 -1.73071 0 
-7.54593 -1.61782 0 
-7.32306 -1.66278 0 
-7.05152 -1.7082 0 
-6.79786 -1.66675 0 
-6.56099 -1.64764 0 
-6.33267 -1.64541 0 
-6.10856 -1.64921 0 
-5.88638 -1.65073 0 
-5.66697 -1.65153 0 
-5.44986 -1.65353 0 
-5.23379 -1.65525 0 
-5.01882 -1.6551 0 
-4.80519 -1.6548 0 
-4.59235 -1.65478 0 
-4.37976 -1.65422 0 
-4.16737 -1.65386 0 
-3.95537 -1.65471 0 
-3.74326 -1.6554 0 
-3.5309 -1.65455 0 
-3.31876 -1.65426 0 
-3.10682 -1.65593 0 
-2.89443 -1.65705 0 
-2.68177 -1.65644 0 
-2.46924 -1.65516 0 
-2.25682 -1.65408 0 
-2.04447 -1.65386 0 
-1.83202 -1.65455 0 
-1.61911 -1.65506 0 
-1.40572 -1.65429 0 
-1.19212 -1.65207 0 
-0.97885 -1.64982 0 
-0.767325 -1.65372 0 
-0.555434 -1.6581 0 
-0.343588 -1.65935 0 
-0.132061 -1.65818 0 
0.0792288 -1.65687 0 
0.290417 -1.65682 0 
0.501823 -1.6575 0 
0.713729 -1.65709 0 
0.925861 -1.65545 0 
1.13768 -1.65488 0 
1.34929 -1.65604 0 
1.56128 -1.6563 0 
1.77337 -1.65516 0 
1.985 -1.65561 0 
2.19698 -1.65642 0 
2.40939 -1.65525 0 
2.62143 -1.65394 0 
2.83323 -1.65414 0 
3.04553 -1.65355 0 
3.25842 -1.64868 0 
3.46746 -1.65522 0 
3.68272 -1.65284 0 
3.89574 -1.65288 0 
4.10731 -1.65378 0 
4.32287 -1.65565 0 
4.53627 -1.65249 0 
4.74932 -1.65397 0 
4.96428 -1.65355 0 
5.17935 -1.65257 0 
5.3944 -1.65202 0 
5.60927 -1.65354 0 
5.82513 -1.66019 0 
6.04295 -1.66711 0 
6.26383 -1.66843 0 
6.48537 -1.66776 0 
6.70098 -1.65646 0 
6.91299 -1.6206 0 
7.11709 -1.6046 0 
7.3526 -1.69716 0 
7.60698 -1.65764 0 
7.8325 -1.64214 0 
8.05985 -1.58842 0 
8.2608 -1.69223 0 
8.48528 -1.56961 0 
-8.48528 -1.35019 0 
-8.24958 -1.48044 0 
-8.0219 -1.3751 0 
-7.79713 -1.50391 0 
-7.58956 -1.39834 0 
-7.36199 -1.38754 0 
-7.16079 -1.49923 0 
-6.93764 -1.46284 0 
[...]
POINT_DATA 2054 
VECTORS vectors float
0.000986472 -0.00261409 0.999996 
0.000312914 -0.0181133 0.999836 
0.000451069 -0.0215283 0.999768 
0.000493771 -0.0203237 0.999793 
0.00058501 -0.0184523 0.99983 
0.000641539 -0.0161835 0.999869 
0.000676065 -0.0139131 0.999903 
0.000697067 -0.0116578 0.999932 
0.000707237 -0.00939304 0.999956 
0.000712532 -0.00711652 0.999974 
0.000715242 -0.00485664 0.999988 
0.000716512 -0.00262761 0.999996 
0.000717066 -0.000410263 1 
0.000716903 0.00184795 0.999998 
0.000716023 0.00422904 0.999991 
0.000714246 0.00683962 0.999976 
0.000711553 0.00980761 0.999952 
0.000707798 0.0132826 0.999912 
0.000702676 0.0174412 0.999848 
0.000696046 0.022494 0.999747 
0.000687525 0.0286946 0.999588 
0.000676803 0.0363525 0.999339 
0.000663331 0.0458463 0.998948 
0.000646372 0.0576429 0.998337 
0.000625232 0.072316 0.997382 
0.00059882 0.0905696 0.99589 
0.00056599 0.113264 0.993565 
0.000525285 0.141434 0.989948 
0.000474947 0.176313 0.984334 
0.000413215 0.219324 0.975652 
0.000338269 0.272036 0.962287 
0.000248989 0.336028 0.941852 
0.000145856 0.412574 0.910924 
3.27414e-05 0.502097 0.864812 
-8.05885e-05 0.603237 0.797562 
-0.000176542 0.711646 0.702538 
-0.000230547 0.818851 0.574006 
-0.000218949 0.912154 0.409848 
-0.000134673 0.976696 0.21463 
-9.80948e-07 1 0.000972271 
0.000133032 0.9771 -0.212781 
0.000218065 0.912869 -0.408252 
0.000230444 0.819739 -0.572738 
0.000176962 0.712578 -0.701593 
8.1243e-05 0.604127 -0.796888 
-3.20275e-05 0.50289 -0.86435 
-0.00014517 0.413257 -0.910615 
-0.000248406 0.3366 -0.941648 
-0.000337788 0.272511 -0.962152 
-0.000412773 0.219712 -0.975565 
-0.000474574 0.176626 -0.984278 
-0.00052497 0.141687 -0.989911 
-0.000565726 0.113468 -0.993542 
-0.000598596 0.0907343 -0.995875 
-0.000624965 0.0724486 -0.997372 
-0.000646147 0.0577496 -0.998331 
-0.000663136 0.0459332 -0.998944 
-0.000676654 0.036424 -0.999336 
-0.000687429 0.0287548 -0.999586 
-0.00069587 0.0225458 -0.999746 
-0.000702489 0.0174869 -0.999847 
-0.000707603 0.0133238 -0.999911 
-0.000711334 0.00984525 -0.999951 
-0.000713952 0.0068743 -0.999976 
-0.000715533 0.00426119 -0.999991 
-0.000716244 0.00187881 -0.999998 
-0.000716323 -0.000377135 -1 
-0.000715753 -0.00258806 -0.999996 
-0.000713248 -0.00480573 -0.999988 
-0.000712175 -0.00705809 -0.999975 
-0.000701414 -0.00929266 -0.999957 
-0.000699484 -0.0115327 -0.999933 
-0.000675027 -0.0137272 -0.999906 
-0.000639473 -0.0159637 -0.999872 
-0.000586207 -0.0182044 -0.999834 
-0.000490705 -0.0200271 -0.999799 
-0.000451869 -0.0212062 -0.999775 
-0.000308641 -0.017766 -0.999842 
-0.000990205 -0.0026078 -0.999996 
-0.000158172 -0.000619033 1 
0.00385377 -0.0133083 0.999904 
0.0069535 -0.0188584 0.999798 
0.00845488 -0.0204325 0.999755 
0.00926951 -0.0192091 0.999773 
0.00991301 -0.0172252 0.999802 
0.0102895 -0.0149878 0.999835 
0.0105335 -0.0126363 0.999865 
0.01078 -0.0103017 0.999889 
0.0109973 -0.0080305 0.999907 
0.0111089 -0.00578371 0.999922 
0.0111769 -0.00355193 0.999931 
0.0112245 -0.00132722 0.999936 
0.0112513 0.000926613 0.999936 
0.0112521 0.0032779 0.999931 
0.0112268 0.0058213 0.99992 
0.0111753 0.00867416 0.9999 
0.0110966 0.0119772 0.999867 
0.010988 0.0158959 0.999813 
0.0108437 0.0206249 0.999728 
0.0106537 0.0264011 0.999595 
0.0104133 0.0335183 0.999384 
0.0101211 0.04233 0.999052 
0.009768 0.0532596 0.998533 
0.00933858 0.0668377 0.99772 
0.00882186 0.0837313 0.996449 
0.0082109 0.10475 0.994465 
0.00749662 0.130853 0.991374 
0.00666802 0.163167 0.986576 
0.00571741 0.203028 0.979156 
0.00464745 0.251953 0.967728 
0.00347687 0.311541 0.950226 
0.00224674 0.383209 0.923659 
0.00102716 0.467678 0.883898 
-8.0599e-05 0.564244 0.825608 
-0.000951436 0.669939 0.742416 
-0.00145849 0.778355 0.627822 
-0.00151299 0.878612 0.477534 
-0.00111587 0.956103 0.293028 
-0.000390773 0.996453 0.0841464 
0.000436798 0.991246 -0.132027 
0.00111044 0.941752 -0.336306 
0.00142479 0.858131 -0.513429 
0.00128212 0.755022 -0.655698 
0.000701567 0.646358 -0.763034 
-0.000217717 0.542115 -0.840304 
-0.00134707 0.447957 -0.894054 
-0.00256481 0.366314 -0.930488 
-0.00377562 0.297435 -0.954735 
-0.00491679 0.240316 -0.970682 
-0.00595453 0.193483 -0.981085 
-0.00687518 0.155396 -0.987828 
-0.00767627 0.12458 -0.99218 
-0.00836485 0.0997174 -0.994981 
-0.00894934 0.0797064 -0.996778 
-0.00944208 0.0636075 -0.99793 
-0.00985355 0.050662 -0.998667 
-0.010192 0.0402438 -0.999138 
-0.0104661 0.0318402 -0.999438 
-0.0106866 0.0250393 -0.999629 
-0.0108604 0.0195082 -0.999751 
-0.0109919 0.014971 -0.999828 
-0.0110829 0.0111983 -0.999876 
-0.0111342 0.00799793 -0.999906 
-0.0111437 0.00520619 -0.999924 
-0.0111009 0.00268207 -0.999935 
-0.0109862 0.000299894 -0.99994 
-0.0107952 -0.00205184 -0.99994 
-0.0106596 -0.00446263 -0.999933 
-0.0105552 -0.00692757 -0.99992 
-0.0106905 -0.00940974 -0.999899 
-0.00996381 -0.0118768 -0.99988 
-0.0102957 -0.0142639 -0.999845 
-0.00957091 -0.0168518 -0.999812 
-0.00914373 -0.0188467 -0.999781 
-0.00834062 -0.0200654 -0.999764 
-0.0068888 -0.01852 -0.999805 
-0.00384773 -0.0132952 -0.999904 
0.0001812 -0.000616393 -1 
0.000493092 -0.00103192 0.999999 
0.00514533 -0.0139954 0.999889 
0.00944198 -0.0190118 0.999775 
0.0114744 -0.0198372 0.999737 
0.0127277 -0.0181119 0.999755 
0.0134711 -0.0160879 0.99978 
0.0139134 -0.013752 0.999809 
0.0143216 -0.0113446 0.999833 
0.0146906 -0.00906368 0.999851 
0.0149121 -0.00683369 0.999865 
0.015061 -0.00461464 0.999876 
0.0151725 -0.00239177 0.999882 
0.0152498 -0.000145159 0.999884 
0.0152848 0.00217596 0.999881 
0.0152765 0.0046515 0.999872 
0.0152261 0.00738505 0.999857 
0.0151314 0.0105046 0.99983 
0.0149893 0.0141644 0.999787 
0.0147958 0.0185471 0.999719 
0.0145421 0.0238679 0.999609 
0.0142175 0.0303926 0.999437 
0.0138176 0.0384523 0.999165 
0.0133372 0.0484408 0.998737 
0.0127607 0.0608279 0.998067 
0.0120718 0.076216 0.997018 
0.0112609 0.0953594 0.995379 
0.0103203 0.119149 0.992823 
0.00924132 0.148624 0.988851 
0.00801954 0.185009 0.982704 
0.0066613 0.229716 0.973235 
0.00518872 0.284311 0.958718 
0.00364764 0.350318 0.936624 
0.0021136 0.428831 0.903382 
0.000693641 0.519883 0.854237 
-0.000482545 0.621542 0.783381 
-0.00128658 0.729232 0.684266 
-0.0016172 0.834442 0.551094 
-0.00144257 0.924165 0.381991 
-0.000844133 0.983162 0.182733 
-1.97361e-05 0.999477 -0.0323276 
0.000770319 0.969743 -0.244126 
0.00127929 0.900453 -0.43495 
0.00133966 0.80483 -0.593504 
0.000897682 0.69764 -0.716448 
4.55174e-06 0.590837 -0.806791 
-0.00122714 0.491869 -0.870669 
-0.00266611 0.404421 -0.914569 
-0.00418806 0.329689 -0.94408 
-0.00569434 0.267198 -0.963625 
-0.00712012 0.215627 -0.97645 
-0.00842829 0.173477 -0.984802 
-0.00959937 0.139277 -0.990207 
-0.0106276 0.111632 -0.993693 
-0.0115219 0.0893277 -0.995936 
-0.0122867 0.0713895 -0.997373 
-0.0129364 0.0569423 -0.998294 
-0.0134826 0.0453136 -0.998882 
-0.0139338 0.035943 -0.999257 
-0.0143008 0.0283666 -0.999495 
-0.0145961 0.0222139 -0.999647 
-0.0148263 0.0171873 -0.999742 
-0.0149958 0.013034 -0.999803 
-0.0151088 0.00954623 -0.99984 
-0.0151661 0.00654654 -0.999864 
-0.0151694 0.0038872 -0.999877 
-0.0151092 0.00144372 -0.999885 
-0.0149727 -0.000887027 -0.999888 
-0.0147798 -0.00317824 -0.999886 
-0.0145839 -0.0054762 -0.999879 
-0.0144883 -0.00776033 -0.999865 
-0.0145435 -0.0100194 -0.999844 
-0.0135847 -0.0121434 -0.999834 
-0.0143416 -0.0137622 -0.999802 
-0.0129215 -0.0157188 -0.999793 
-0.0125128 -0.017747 -0.999764 
-0.0113168 -0.0194182 -0.999747 
-0.00940101 -0.0187727 -0.99978 
-0.00512353 -0.0139592 -0.999889 
-0.000480508 -0.00102929 -0.999999 
0.0003066 -0.0011254 0.999999 
0.00524748 -0.0139503 0.999889 
0.00857208 -0.0186939 0.999789 
0.011142 -0.0201543 0.999735 
0.0122087 -0.0189113 0.999747 
0.0131207 -0.0170747 0.999768 
0.0140307 -0.014986 0.999789 
0.014574 -0.0125406 0.999815 
0.0148332 -0.010258 0.999837 
0.0150759 -0.00804111 0.999854 
0.0152955 -0.00584602 0.999866 
0.0154745 -0.00363577 0.999874 
0.0156008 -0.00139903 0.999877 
0.0156759 0.000894296 0.999877 
0.0157019 0.00330505 0.999871 
0.0156762 0.00592139 0.99986 
0.0155971 0.00885485 0.999839 
0.015463 0.0122436 0.999805 
0.01527 0.0162572 0.999751 
0.0150135 0.0210945 0.999665 
0.0146902 0.0269904 0.999528 
0.0142925 0.0342387 0.999311 
0.0138068 0.043205 0.998971 
0.0132236 0.0543179 0.998436 
0.0125393 0.0680922 0.9976 
0.0117428 0.0852009 0.996295 
0.0108199 0.106469 0.994257 
0.0097642 0.132849 0.991088 
0.00857885 0.165451 0.986181 
0.00727485 0.205573 0.978615 
0.00587325 0.254678 0.967008 
0.00440826 0.314325 0.949305 
0.00293594 0.385905 0.922534 
0.0015397 0.470129 0.882596 
0.000324354 0.566282 0.824212 
-0.000603879 0.671095 0.741371 
-0.00116414 0.778549 0.627583 
-0.00130379 0.87824 0.478219 
-0.00103803 0.955669 0.294443 
-0.00048419 0.996279 0.0861868 
0.00016395 0.991586 -0.129446 
0.000694525 0.942843 -0.333236 
0.000929172 0.860144 -0.510051 
0.000761167 0.757949 -0.652313 
0.000175778 0.650082 -0.759864 
-0.000769275 0.54648 -0.837472 
-0.00198339 0.45266 -0.891681 
-0.0033625 0.370986 -0.928632 
-0.00480564 0.301879 -0.953334 
-0.00623715 0.244405 -0.969653 
-0.00760251 0.197114 -0.980351 
-0.00886363 0.15855 -0.987311 
-0.0100034 0.127298 -0.991814 
-0.0110177 0.102032 -0.99472 
-0.0119036 0.0816376 -0.996591 
-0.0126734 0.065258 -0.997788 
-0.0133318 0.0520239 -0.998557 
-0.0138878 0.0413648 -0.999048 
-0.0143525 0.032764 -0.99936 
-0.0147333 0.0257891 -0.999559 
-0.0150354 0.0201061 -0.999685 
-0.0152694 0.015438 -0.999764 
-0.0154387 0.0115567 -0.999814 
-0.0155491 0.0082617 -0.999845 
-0.0156027 0.00539258 -0.999864 
-0.015605 0.00281302 -0.999874 
-0.015563 0.000413261 -0.999879 
-0.0154735 -0.00189412 -0.999878 
-0.0153233 -0.00417733 -0.999874 
-0.0151017 -0.00647412 -0.999865 
-0.0148251 -0.00882168 -0.999851 
-0.0144356 -0.0113654 -0.999831 
-0.01369 -0.0138648 -0.99981 
-0.0136022 -0.016096 -0.999778 
-0.012248 -0.0181196 -0.999761 
-0.0109469 -0.0196084 -0.999748 
-0.008504 -0.0185046 -0.999793 
-0.00512164 -0.0137498 -0.999892 
-0.000295834 -0.00112021 -0.999999 
0.000296455 -0.00116921 0.999999 
0.00446027 -0.0139324 0.999893 
0.007489 -0.0191706 0.999788 
0.0101067 -0.0199507 0.99975 
0.0109708 -0.0182255 0.999774 
0.012166 -0.0160582 0.999797 
0.0131857 -0.0139311 0.999816 
0.0133465 -0.011696 0.999843 
0.0136011 -0.0094513 0.999863 
0.0138611 -0.00725428 0.999878 
0.0141058 -0.00504785 0.999888 
0.014291 -0.00280932 0.999894 
0.0144105 -0.000526855 0.999896 
0.014477 0.00183903 0.999894 
0.0144912 0.00435961 0.999885 
0.0144455 0.00713171 0.99987 
0.0143415 0.0102736 0.999844 
0.0141811 0.0139362 0.999802 
0.0139579 0.0183048 0.999735 
0.0136691 0.0235942 0.999628 
0.0133156 0.0300562 0.99946 
0.0128867 0.0380137 0.999194 
0.0123648 0.0478662 0.998777 
0.0117491 0.0600704 0.998125 
0.0110441 0.0751854 0.997108 
0.0102348 0.0939566 0.995524 
0.00930949 0.117264 0.993057 
0.00827333 0.146107 0.989234 
0.00713993 0.181666 0.983334 
0.00592873 0.225294 0.974273 
0.00466697 0.278484 0.960429 
0.0033912 0.342787 0.939407 
0.00215673 0.41941 0.907794 
0.00103759 0.508626 0.860987 
0.000115097 0.608879 0.793263 
-0.000543285 0.715437 0.698677 
-0.000898862 0.820988 0.570945 
-0.000934093 0.913272 0.407349 
-0.000693522 0.977132 0.212631 
-0.000290802 1 -0.000225462 
0.000125031 0.977128 -0.212652 
0.000406906 0.913617 -0.406575 
0.000438337 0.821788 -0.569793 
0.000157588 0.716226 -0.697868 
-0.000433044 0.609425 -0.792843 
-0.00128927 0.509519 -0.860458 
-0.00234797 0.420522 -0.907279 
-0.00353187 0.343894 -0.939002 
-0.00476832 0.279529 -0.960125 
-0.00600352 0.226184 -0.974066 
-0.00719022 0.182369 -0.983204 
-0.00829533 0.146707 -0.989145 
-0.00930802 0.117823 -0.992991 
-0.0102198 0.0944502 -0.995477 
-0.0110148 0.0755684 -0.99708 
-0.0117284 0.0604508 -0.998102 
-0.0123351 0.0481439 -0.998764 
-0.0128488 0.0382443 -0.999186 
-0.0132835 0.0302413 -0.999454 
-0.013636 0.0237368 -0.999625 
-0.0139143 0.018398 -0.999734 
-0.0141244 0.0140166 -0.999802 
-0.0142768 0.0103326 -0.999845 
-0.0143687 0.00717715 -0.999871 
-0.0144059 0.0043981 -0.999887 
-0.014397 0.00187053 -0.999895 
-0.0143542 -0.000500429 -0.999897 
-0.0142664 -0.00279667 -0.999894 
-0.0140986 -0.00507147 -0.999888 
-0.0138336 -0.00735042 -0.999877 
-0.0135115 -0.00967595 -0.999862 
-0.0129477 -0.0119508 -0.999845 
-0.0120922 -0.0144102 -0.999823 
-0.0123591 -0.0162728 -0.999791 
-0.0109383 -0.0181821 -0.999775 
-0.00960761 -0.0196109 -0.999762 
-0.00723857 -0.0188247 -0.999797 
-0.00438275 -0.0137604 -0.999896 
-0.000286457 -0.00117018 -0.999999 
0.000254361 -0.00124816 0.999999 
0.00383797 -0.0141464 0.999893 
0.0062826 -0.0193506 0.999793 
0.00878446 -0.0199585 0.999762 
0.00921968 -0.0185529 0.999785 
0.0104131 -0.0165709 0.999808 
0.0115207 -0.013834 0.999838 
0.011764 -0.0112367 0.999868 
0.012013 -0.00887431 0.999888 
0.0122934 -0.00660539 0.999903 
0.0125445 -0.0043394 0.999912 
0.0127131 -0.00204092 0.999917 
0.0128167 0.000309437 0.999918 
0.0128729 0.0027643 0.999913 
0.0128725 0.00540937 0.999903 
0.0128047 0.00834751 0.999883 
0.0126829 0.0117062 0.999851 
0.0125081 0.0156513 0.999799 
0.0122701 0.0203839 0.999717 
0.0119707 0.0261339 0.999587 
0.0116122 0.0331698 0.999382 
0.0111779 0.0418475 0.999061 
0.0106529 0.0525964 0.998559 
0.0100489 0.065898 0.997776 
0.00937035 0.0823617 0.996558 
0.00859598 0.102807 0.994664 
0.00772257 0.128155 0.991724 
0.00676661 0.159451 0.987183 
0.00574587 0.197947 0.980196 
0.00468247 0.245054 0.969498 
0.00360273 0.3023 0.953206 
0.00253957 0.371209 0.928546 
0.00154158 0.452771 0.891626 
0.000668898 0.546709 0.837322 
-1.99381e-05 0.650415 0.759579 
-0.000485641 0.757447 0.652896 
-0.000711835 0.859137 0.511745 
-0.000701775 0.941794 0.336191 
-0.000509835 0.990997 0.133882 
-0.000231077 0.99679 -0.0800586 
2.29697e-05 0.958012 -0.286729 
0.000147917 0.88275 -0.469843 
6.56924e-05 0.784536 -0.620083 
-0.00025817 0.677505 -0.735518 
-0.000813612 0.572739 -0.819737 
-0.00156706 0.476744 -0.879041 
-0.00247121 0.392321 -0.919825 
-0.003467 0.320299 -0.94731 
-0.00450592 0.260164 -0.965554 
-0.0055479 0.210415 -0.977597 
-0.00654976 0.169622 -0.985488 
-0.00748995 0.136483 -0.990614 
-0.00836318 0.109639 -0.993936 
-0.00915134 0.0878843 -0.996089 
-0.00982823 0.0702944 -0.997478 
-0.0104849 0.0563104 -0.998358 
-0.0110101 0.0447207 -0.998939 
-0.0114656 0.0354591 -0.999305 
-0.0118463 0.0280057 -0.999538 
-0.0121711 0.021832 -0.999688 
-0.0123896 0.0168343 -0.999782 
-0.0125832 0.0126932 -0.99984 
-0.0127067 0.00917299 -0.999877 
-0.0127736 0.00613392 -0.9999 
-0.0127934 0.00343201 -0.999912 
-0.0127791 0.000955355 -0.999918 
-0.0127525 -0.00138841 -0.999918 
-0.012671 -0.00366107 -0.999913 
-0.0124852 -0.00590762 -0.999905 
-0.01222 -0.0081183 -0.999892 
-0.0118198 -0.0102647 -0.999877 
-0.0111838 -0.0124508 -0.99986 
-0.0106428 -0.0146302 -0.999836 
-0.0104945 -0.01675 -0.999805 
-0.00912339 -0.0188803 -0.99978 
-0.00773971 -0.0200902 -0.999768 
-0.00566493 -0.0184373 -0.999814 
-0.00350994 -0.01363 -0.999901 
-0.000260145 -0.00124483 -0.999999 
0.000209849 -0.00128808 0.999999 
0.00317928 -0.0142551 0.999893 
0.00507008 -0.0194501 0.999798 
0.00722377 -0.0202785 0.999768 
0.00756237 -0.0191241 0.999789 
0.00826362 -0.0170574 0.99982 
0.00971039 -0.0150851 0.999839 
0.00991386 -0.0127388 0.99987 
0.0100455 -0.0104179 0.999895 
0.0102835 -0.00815373 0.999914 
0.0105606 -0.00589984 0.999927 
0.0107906 -0.0036078 0.999935 
0.0109192 -0.0012566 0.99994 
0.010999 0.00115453 0.999939 
0.0110418 0.00369985 0.999932 
0.0110164 0.00646775 0.999918 
0.0109269 0.00957396 0.999894 
0.0107958 0.013151 0.999855 
0.0106173 0.0173776 0.999793 
0.010381 0.0224819 0.999693 
0.0100898 0.0286971 0.999537 
0.00974734 0.0363136 0.999293 
0.00933075 0.0457191 0.998911 
0.00883419 0.0573711 0.998314 
0.00827867 0.0717704 0.997387 
0.00766077 0.0895846 0.99595 
0.00695682 0.111701 0.993717 
0.00617562 0.139076 0.990262 
0.00533989 0.172804 0.984942 
0.00446748 0.214209 0.976778 
0.00357924 0.264754 0.964309 
0.00269714 0.325976 0.945374 
0.00184742 0.399307 0.916815 
0.00106968 0.485395 0.874294 
0.000409164 0.583209 0.812322 
-9.53842e-05 0.688849 0.724905 
-0.000424516 0.794311 0.607511 
-0.000572417 0.890218 0.455534 
-0.000552156 0.962571 0.271027 
-0.000413366 0.997977 0.063576 
-0.000231078 0.988692 -0.149957 
-8.86495e-05 0.936559 -0.350509 
-6.07985e-05 0.852002 -0.523538 
-0.000199218 0.749278 -0.662256 
-0.000520476 0.641946 -0.766749 
-0.001012 0.539721 -0.841843 
-0.0016493 0.4476 -0.894232 
-0.00239559 0.367434 -0.930047 
-0.00320874 0.299581 -0.954065 
-0.00406053 0.243205 -0.969966 
-0.00491543 0.196583 -0.980475 
-0.00573585 0.158401 -0.987358 
-0.0065156 0.127464 -0.991822 
-0.0072492 0.102376 -0.994719 
-0.00790568 0.0819745 -0.996603 
-0.0084509 0.0654388 -0.997821 
-0.00908863 0.0525382 -0.998578 
-0.00950825 0.0413036 -0.999101 
-0.00985743 0.0328477 -0.999412 
-0.0102511 0.0256237 -0.999619 
-0.0104574 0.0199163 -0.999747 
-0.0106405 0.0152137 -0.999828 
-0.01082 0.0113138 -0.999877 
-0.0109008 0.00792734 -0.999909 
-0.0109316 0.00499601 -0.999928 
-0.0109223 0.00238558 -0.999938 
-0.0109209 -5.5518e-05 -0.99994 
-0.0109087 -0.00236027 -0.999938 
-0.0108414 -0.00460699 -0.999931 
-0.0106248 -0.00682361 -0.99992 
-0.0102946 -0.00898865 -0.999907 
-0.00979271 -0.0112278 -0.999889 
-0.00903633 -0.0137065 -0.999865 
-0.00920612 -0.0161117 -0.999828 
-0.00838574 -0.0179722 -0.999803 
-0.00704734 -0.0197537 -0.99978 
-0.00575218 -0.0202261 -0.999779 
-0.00305898 -0.0142237 -0.999894 
-0.000189499 -0.00128708 -0.999999 
0.000169917 -0.00131259 0.999999 
0.00255017 -0.014339 0.999894 
0.00403656 -0.0196715 0.999798 
0.00580668 -0.0204398 0.999774 
0.00630031 -0.0188579 0.999802 
0.00663022 -0.0167379 0.999838 
0.00804559 -0.0146951 0.99986 
0.00814028 -0.0122279 0.999892 
0.00832254 -0.00984703 0.999917 
0.00856865 -0.0075476 0.999935 
0.00884451 -0.00524849 0.999947 
0.00904199 -0.00288953 0.999955 
0.00911636 -0.000481008 0.999958 
0.00918894 0.00199054 0.999956 
0.00921317 0.00461178 0.999947 
0.00917026 0.00750276 0.99993 
0.00907159 0.0107767 0.999901 
0.00894433 0.0145524 0.999854 
0.00878099 0.0190703 0.99978 
0.00855766 0.0245464 0.999662 
0.00829129 0.0312235 0.999478 
0.00797841 0.0394134 0.999191 
0.0075965 0.0495402 0.998743 
0.00715203 0.0620615 0.998047 
0.00666641 0.0775085 0.996969 
0.00612438 0.0966227 0.995302 
0.00550805 0.120343 0.992717 
0.00483791 0.149601 0.988735 
0.00413715 0.185513 0.982633 
0.00342076 0.229422 0.973321 
0.00270663 0.282713 0.959201 
0.00201129 0.346771 0.937948 
0.00135419 0.422802 0.906221 
0.00076496 0.510946 0.859613 
0.000272315 0.609752 0.792592 
-0.000102209 0.715065 0.699058 
-0.000347267 0.818903 0.573932 
-0.000456573 0.911026 0.412349 
-0.000442707 0.975895 0.218242 
-0.000347456 0.999991 0.00418198 
-0.000232512 0.977637 -0.210298 
-0.000162838 0.913949 -0.40583 
-0.000191925 0.821723 -0.569887 
-0.000351891 0.715802 -0.698303 
-0.000647893 0.609119 -0.793078 
-0.0010689 0.509813 -0.860285 
-0.0015973 0.421411 -0.906868 
-0.00220363 0.345139 -0.938549 
-0.00286055 0.281093 -0.959676 
-0.00355288 0.228073 -0.973637 
-0.00424506 0.184074 -0.982903 
-0.0049061 0.14813 -0.988956 
-0.0055463 0.119177 -0.992858 
-0.0061554 0.095532 -0.995407 
-0.00669019 0.0760774 -0.997079 
-0.0070997 0.0602462 -0.998158 
-0.00783791 0.0483888 -0.998798 
-0.00790821 0.0380853 -0.999243 
-0.00843196 0.0295753 -0.999527 
-0.00859409 0.0231076 -0.999696 
-0.00876738 0.0177909 -0.999803 
-0.00889918 0.0134175 -0.99987 
-0.00909414 0.00977376 -0.999911 
-0.00910217 0.00644323 -0.999938 
-0.00904956 0.00367361 -0.999952 
-0.00906342 0.00110311 -0.999958 
-0.00902963 -0.00127968 -0.999958 
-0.00902204 -0.00349049 -0.999953 
-0.0089496 -0.00557024 -0.999944 
-0.00868282 -0.00761764 -0.999933 
-0.0083792 -0.00973511 -0.999918 
-0.00791607 -0.0120151 -0.999896 
-0.00723586 -0.0144859 -0.999869 
-0.00763262 -0.0164527 -0.999836 
-0.00655502 -0.018585 -0.999806 