# vtk DataFile Version 3.0 
Exported using Morpho https://github.com/Morpho-lang/morpho 
ASCII 
DATASET UNSTRUCTURED_GRID 

POINTS 2054 float 
-8.48528 -2.82843 0 
-8.20636 -2.82843 0 
-7.94054 -2.82843 0 
-7.6904 -2.82843 0 
-7.45357 -2.82843 0 
-7.22694 -2.82843 0 
-7.00705 -2.82843 0 
-6.79111 -2.82843 0 
-6.57731 -2.82843 0 
-6.36453 -2.82843 0 
-6.15219 -2.82843 0 
-5.94 -2.82843 0 
-5.72786 -2.82843 0 
-5.51573 -2.82843 0 
-5.3036 -2.82843 0 
-5.09147 -2.82843 0 
-4.87933 -2.82843 0 
-4.6672 -2.82843 0 
-4.45507 -2.82843 0 
-4.24294 -2.82843 0 
-4.03081 -2.82843 0 
-3.81867 -2.82843 0 
-3.60654 -2.82843 0 
-3.39441 -2.82843 0 
-3.18228 -2.82843 0 
-2.97015 -2.82843 0 
-2.75801 -2.82843 0 
-2.54588 -2.82843 0 
-2.33375 -2.82843 0 
-2.12162 -2.82843 0 
-1.90949 -2.82843 0 
-1.69735 -2.82843 0 
-1.48522 -2.82843 0 
-1.27309 -2.82843 0 
-1.06096 -2.82843 0 
-0.848825 -2.82843 0 
-0.636693 -2.82843 0 
-0.424561 -2.82843 0 
-0.212429 -2.82843 0 
-0.000296761 -2.82843 0 
0.211835 -2.82843 0 
0.423967 -2.82843 0 
0.636099 -2.82843 0 
0.848231 -2.82843 0 
1.06036 -2.82843 0 
1.2725 -2.82843 0 
1.48463 -2.82843 0 
1.69676 -2.82843 0 
1.90889 -2.82843 0 
2.12102 -2.82843 0 
2.33316 -2.82843 0 
2.54529 -2.82843 0 
2.75742 -2.82843 0 
2.96955 -2.82843 0 
3.18168 -2.82843 0 
3.39382 -2.82843 0 
3.60595 -2.82843 0 
3.81808 -2.82843 0 
4.03021 -2.82843 0 
4.24234 -2.82843 0 
4.45448 -2.82843 0 
4.66661 -2.82843 0 
4.87874 -2.82843 0 
5.09087 -2.82843 0 
5.303 -2.82843 0 
5.51514 -2.82843 0 
5.72727 -2.82843 0 
5.93941 -2.82843 0 
6.15159 -2.82843 0 
6.36393 -2.82843 0 
6.57672 -2.82843 0 
6.79055 -2.82843 0 
7.00652 -2.82843 0 
7.22647 -2.82843 0 
7.45313 -2.82843 0 
7.69005 -2.82843 0 
7.9403 -2.82843 0 
8.20621 -2.82843 0 
8.48528 -2.82843 0 
-8.48528 -2.5495 0 
-8.30526 -2.64845 0 
-8.07062 -2.59995 0 
-7.83904 -2.59637 0 
-7.59595 -2.59733 0 
-7.36578 -2.59177 0 
-7.13796 -2.5933 0 
-6.90908 -2.59428 0 
-6.68421 -2.5916 0 
-6.46568 -2.58832 0 
-6.24926 -2.58859 0 
-6.03358 -2.58941 0 
-5.81848 -2.59013 0 
-5.60402 -2.59075 0 
-5.39005 -2.59135 0 
-5.17642 -2.59186 0 
-4.96311 -2.59223 0 
-4.75009 -2.59242 0 
-4.53736 -2.59244 0 
-4.32497 -2.59236 0 
-4.1128 -2.59242 0 
-3.90059 -2.59259 0 
-3.68835 -2.5926 0 
-3.47627 -2.59248 0 
-3.26428 -2.59251 0 
-3.05216 -2.59271 0 
-2.83986 -2.59283 0 
-2.62755 -2.59274 0 
-2.41539 -2.59253 0 
-2.20336 -2.59238 0 
-1.99135 -2.59238 0 
-1.77924 -2.59246 0 
-1.56704 -2.59244 0 
-1.35495 -2.59215 0 
-1.14319 -2.59183 0 
-0.931581 -2.59195 0 
-0.719663 -2.59256 0 
-0.507197 -2.59324 0 
-0.294425 -2.59354 0 
-0.0817689 -2.59344 0 
0.130587 -2.59325 0 
0.342804 -2.59322 0 
0.555051 -2.59322 0 
0.767233 -2.59303 0 
0.97919 -2.59278 0 
1.19107 -2.59278 0 
1.40311 -2.59289 0 
1.61524 -2.59286 0 
1.82732 -2.59279 0 
2.03943 -2.59281 0 
2.25163 -2.5928 0 
2.46381 -2.59266 0 
2.67591 -2.59254 0 
2.88801 -2.59237 0 
3.10001 -2.59226 0 
3.31203 -2.59216 0 
3.52402 -2.59207 0 
3.73601 -2.59208 0 
3.94815 -2.59221 0 
4.16052 -2.5923 0 
4.37309 -2.59232 0 
4.58593 -2.59227 0 
4.79921 -2.5922 0 
5.01319 -2.59212 0 
5.22833 -2.5921 0 
5.44534 -2.59239 0 
5.6657 -2.59346 0 
5.89185 -2.59569 0 
6.12685 -2.59429 0 
6.36853 -2.59189 0 
6.6108 -2.57787 0 
6.84491 -2.61411 0 
7.08804 -2.58476 0 
7.34858 -2.60369 0 
7.58803 -2.59327 0 
7.83059 -2.59326 0 
8.06387 -2.59199 0 
8.30038 -2.64348 0 
8.48528 -2.54936 0 
-8.48528 -2.28369 0 
-8.25701 -2.4138 0 
-8.01078 -2.35334 0 
-7.73666 -2.37963 0 
-7.49744 -2.35565 0 
-7.26898 -2.35831 0 
-7.03324 -2.36676 0 
-6.7997 -2.36275 0 
-6.5773 -2.35166 0 
-6.35808 -2.3495 0 
-6.14038 -2.35058 0 
-5.92336 -2.35185 0 
-5.70723 -2.35272 0 
-5.49199 -2.35362 0 
-5.27734 -2.35447 0 
-5.0632 -2.35505 0 
-4.84958 -2.35534 0 
-4.63641 -2.35533 0 
-4.42363 -2.35504 0 
-4.21126 -2.35485 0 
-3.99909 -2.35513 0 
-3.78684 -2.3554 0 
-3.57461 -2.35516 0 
-3.36263 -2.35498 0 
-3.15066 -2.35537 0 
-2.93843 -2.35586 0 
-2.72604 -2.35589 0 
-2.51374 -2.35551 0 
-2.30162 -2.35509 0 
-2.08964 -2.35496 0 
-1.87761 -2.35518 0 
-1.66544 -2.3554 0 
-1.45322 -2.35518 0 
-1.2412 -2.35438 0 
-1.02967 -2.35407 0 
-0.818162 -2.35505 0 
-0.606054 -2.35676 0 
-0.393243 -2.3579 0 
-0.180256 -2.35789 0 
0.0323765 -2.35727 0 
0.244686 -2.35692 0 
0.456926 -2.35692 0 
0.669206 -2.35667 0 
0.881318 -2.35598 0 
1.09315 -2.35559 0 
1.305 -2.35583 0 
1.51709 -2.35595 0 
1.72919 -2.35571 0 
1.9412 -2.35566 0 
2.15334 -2.3558 0 
2.36559 -2.3556 0 
2.57772 -2.35522 0 
2.78976 -2.35507 0 
3.0019 -2.35461 0 
3.21373 -2.35451 0 
3.42571 -2.35439 0 
3.63769 -2.35431 0 
3.84965 -2.35453 0 
4.06183 -2.35491 0 
4.27435 -2.35507 0 
4.48707 -2.35507 0 
4.70017 -2.35506 0 
4.91376 -2.35498 0 
5.12819 -2.35502 0 
5.34378 -2.35528 0 
5.56106 -2.35662 0 
5.78097 -2.35971 0 
6.00401 -2.36251 0 
6.2308 -2.3624 0 
6.45748 -2.35551 0 
6.68075 -2.33423 0 
6.88797 -2.39744 0 
7.05313 -2.27289 0 
7.24377 -2.40237 0 
7.48542 -2.36016 0 
7.73055 -2.36599 0 
7.99177 -2.33552 0 
8.24864 -2.40698 0 
8.48528 -2.28345 0 
-8.48528 -2.03355 0 
-8.25312 -2.18214 0 
-8.03669 -2.07913 0 
-7.83956 -2.18231 0 
-7.6106 -2.12852 0 
-7.38852 -2.10959 0 
-7.16268 -2.14097 0 
-6.9229 -2.1435 0 
-6.70119 -2.12055 0 
-6.48111 -2.11285 0 
-6.26282 -2.11284 0 
-6.045 -2.1151 0 
-5.82775 -2.11658 0 
-5.61153 -2.11776 0 
-5.3962 -2.1192 0 
-5.18144 -2.1203 0 
-4.96732 -2.12084 0 
-4.75387 -2.12105 0 
-4.54086 -2.12091 0 
-4.32822 -2.12045 0 
-4.11596 -2.12045 0 
-3.90382 -2.12107 0 
-3.69156 -2.12116 0 
-3.47938 -2.12058 0 
-3.26746 -2.12068 0 
-3.05542 -2.12154 0 
-2.84307 -2.12198 0 
-2.63064 -2.12162 0 
-2.41836 -2.12087 0 
-2.20626 -2.12031 0 
-1.99426 -2.12034 0 
-1.78217 -2.1207 0 
-1.56989 -2.12074 0 
-1.35755 -2.11993 0 
-1.14542 -2.11838 0 
-0.934012 -2.11859 0 
-0.722404 -2.12089 0 
-0.509943 -2.12344 0 
-0.296911 -2.12431 0 
-0.0840921 -2.12359 0 
0.128295 -2.12281 0 
0.340414 -2.12274 0 
0.552564 -2.12288 0 
0.76478 -2.12226 0 
0.976792 -2.1213 0 
1.18855 -2.12128 0 
1.40042 -2.12188 0 
1.61256 -2.12177 0 
1.82458 -2.12141 0 
2.03655 -2.12164 0 
2.24875 -2.12174 0 
2.46099 -2.12114 0 
2.67302 -2.12065 0 
2.88504 -2.12054 0 
3.09728 -2.1194 0 
3.30873 -2.11968 0 
3.52086 -2.1195 0 
3.7329 -2.11938 0 
3.94484 -2.11986 0 
4.15715 -2.12044 0 
4.36983 -2.12035 0 
4.58282 -2.1204 0 
4.79606 -2.12017 0 
5.01004 -2.12012 0 
5.22483 -2.12002 0 
5.44073 -2.12051 0 
5.6582 -2.123 0 
5.8782 -2.12696 0 
6.10217 -2.12971 0 
6.33095 -2.12707 0 
6.567 -2.11601 0 
6.82301 -2.12303 0 
7.06572 -2.04567 0 
7.29733 -2.17484 0 
7.54632 -2.11408 0 
7.79371 -2.13741 0 
8.02274 -2.07453 0 
8.25027 -2.1738 0 
8.48528 -2.0332 0 
-8.48528 -1.79671 0 
-8.25436 -1.93882 0 
-8.01299 -1.83977 0 
-7.78596 -1.953 0 
-7.5297 -1.87194 0 
-7.2756 -1.88722 0 
-7.05707 -1.93544 0 
-6.84369 -1.89677 0 
-6.62219 -1.88079 0 
-6.40169 -1.87606 0 
-6.18206 -1.87854 0 
-5.96274 -1.881 0 
-5.74458 -1.88208 0 
-5.52796 -1.88344 0 
-5.31232 -1.88506 0 
-5.09736 -1.88569 0 
-4.88338 -1.88564 0 
-4.67019 -1.88555 0 
-4.45737 -1.88507 0 
-4.24485 -1.88447 0 
-4.03271 -1.88482 0 
-3.82061 -1.88562 0 
-3.60832 -1.88529 0 
-3.39617 -1.88464 0 
-3.18427 -1.88547 0 
-2.97209 -1.88672 0 
-2.7596 -1.88684 0 
-2.54714 -1.88601 0 
-2.33483 -1.88505 0 
-2.12268 -1.8846 0 
-1.91058 -1.885 0 
-1.69824 -1.88561 0 
-1.48561 -1.88547 0 
-1.27286 -1.88413 0 
-1.06032 -1.88216 0 
-0.848858 -1.8839 0 
-0.636875 -1.88781 0 
-0.424169 -1.89034 0 
-0.211518 -1.89004 0 
0.000731944 -1.88866 0 
0.21257 -1.88788 0 
0.424308 -1.88807 0 
0.636257 -1.88793 0 
0.848362 -1.88664 0 
1.06025 -1.88556 0 
1.27191 -1.88605 0 
1.48381 -1.88664 0 
1.69595 -1.886 0 
1.90782 -1.88577 0 
2.11974 -1.88637 0 
2.33202 -1.88609 0 
2.54419 -1.88502 0 
2.75607 -1.88472 0 
2.96812 -1.88462 0 
3.18055 -1.88217 0 
3.39117 -1.88415 0 
3.60398 -1.8838 0 
3.81618 -1.88366 0 
4.02827 -1.88469 0 
4.24071 -1.88523 0 
4.4544 -1.88509 0 
4.66716 -1.88476 0 
4.88099 -1.88493 0 
5.09545 -1.88466 0 
5.31057 -1.88453 0 
5.52653 -1.88564 0 
5.7436 -1.88981 0 
5.96352 -1.89563 0 
6.18733 -1.89813 0 
6.41543 -1.89522 0 
6.65059 -1.89622 0 
6.87542 -1.86913 0 
7.11122 -1.81621 0 
7.31223 -1.94975 0 
7.53264 -1.87683 0 
7.77077 -1.89068 0 
8.01717 -1.8297 0 
8.25014 -1.93148 0 
8.48528 -1.79628 0 
-8.48528 -1.57009 0 
-8.24868 -1.70836 0 
-8.015 -1.61096 0 
-7.76734 -1.73071 0 
-7.54593 -1.61782 0 
-7.32306 -1.66278 0 
-7.05152 -1.7082 0 
-6.79786 -1.66675 0 
-6.56099 -1.64764 0 
-6.33267 -1.64541 0 
-6.10856 -1.64921 0 
-5.88638 -1.65073 0 
-5.66697 -1.65153 0 
-5.44986 -1.65353 0 
-5.23379 -1.65525 0 
-5.01882 -1.6551 0 
-4.80519 -1.6548 0 
-4.59235 -1.65478 0 
-4.37976 -1.65422 0 
-4.16737 -1.65386 0 
-3.95537 -1.65471 0 
-3.74326 -1.6554 0 
-3.5309 -1.65455 0 
-3.31876 -1.65426 0 
-3.10682 -1.65593 0 
-2.89443 -1.65705 0 
-2.68177 -1.65644 0 
-2.46924 -1.65516 0 
-2.25682 -1.65408 0 
-2.04447 -1.65386 0 
-1.83202 -1.65455 0 
-1.61911 -1.65506 0 
-1.40572 -1.65429 0 
-1.19212 -1.65207 0 
-0.97885 -1.64982 0 
-0.767325 -1.65372 0 
-0.555434 -1.6581 0 
-0.343588 -1.65935 0 
-0.132061 -1.65818 0 
0.0792288 -1.65687 0 
0.290417 -1.65682 0 
0.501823 -1.6575 0 
0.713729 -1.65709 0 
0.925861 -1.65545 0 
1.13768 -1.65488 0 
1.34929 -1.65604 0 
1.56128 -1.6563 0 
1.77337 -1.65516 0 
1.985 -1.65561 0 
2.19698 -1.65642 0 
2.40939 -1.65525 0 
2.62143 -1.65394 0 
2.83323 -1.65414 0 
3.04553 -1.65355 0 
3.25842 -1.64868 0 
3.46746 -1.65522 0 
3.68272 -1.65284 0 
3.89574 -1.65288 0 
4.10731 -1.65378 0 
4.32287 -1.65565 0 
4.53627 -1.65249 0 
4.74932 -1.65397 0 
4.96428 -1.65355 0 
5.17935 -1.65257 0 
5.3944 -1.65202 0 
5.60927 -1.65354 0 
5.82513 -1.66019 0 
6.04295 -1.66711 0 
6.26383 -1.66843 0 
6.48537 -1.66776 0 
6.70098 -1.65646 0 
6.91299 -1.6206 0 
7.11709 -1.6046 0 
7.3526 -1.69716 0 
7.60698 -1.65764 0 
7.8325 -1.64214 0 
8.05985 -1.58842 0 
8.2608 -1.69223 0 
8.48528 -1.56961 0 
-8.48528 -1.35019 0 
-8.24958 -1.48044 0 
-8.0219 -1.3751 0 
-7.79713 -1.50391 0 
-7.58956 -1.39834 0 
-7.36199 -1.38754 0 
-7.16079 -1.49923 0 
-6.93764 -1.46284 0 
[...]
POINT_DATA 2054 
VECTORS vectors float
0.00052571 -0.00165688 0.999998 
9.99895e-05 -0.0181105 0.999836 
0.000256501 -0.0215263 0.999768 
0.000270378 -0.0203229 0.999793 
0.000329349 -0.0184518 0.99983 
0.000363729 -0.0161831 0.999869 
0.000386182 -0.0139128 0.999903 
0.000400226 -0.0116575 0.999932 
0.000406893 -0.00939284 0.999956 
0.000410361 -0.00711638 0.999975 
0.000412073 -0.00485655 0.999988 
0.000412828 -0.00262757 0.999996 
0.000413166 -0.000410233 1 
0.000413071 0.00184798 0.999998 
0.000412575 0.00422908 0.999991 
0.000411545 0.00683967 0.999977 
0.00041 0.00980768 0.999952 
0.000407858 0.0132827 0.999912 
0.00040491 0.0174414 0.999848 
0.000401108 0.0224941 0.999747 
0.000396206 0.0286948 0.999588 
0.000390052 0.0363527 0.999339 
0.000382329 0.0458466 0.998948 
0.000372584 0.0576432 0.998337 
0.000360454 0.0723164 0.997382 
0.00034528 0.0905701 0.99589 
0.000326428 0.113264 0.993565 
0.000303058 0.141434 0.989948 
0.000274132 0.176313 0.984334 
0.000238651 0.219325 0.975652 
0.000195528 0.272037 0.962287 
0.000144089 0.336029 0.941852 
8.45308e-05 0.412575 0.910924 
1.89569e-05 0.502098 0.864811 
-4.71103e-05 0.603238 0.797561 
-0.000103534 0.711647 0.702538 
-0.000135816 0.818851 0.574006 
-0.000129556 0.912154 0.409848 
-7.99502e-05 0.976696 0.21463 
-5.80859e-07 1 0.000972269 
7.89844e-05 0.9771 -0.212781 
0.000129047 0.912869 -0.408252 
0.00013577 0.819739 -0.572738 
0.000103792 0.712578 -0.701593 
4.74951e-05 0.604128 -0.796887 
-1.85425e-05 0.502891 -0.86435 
-8.41321e-05 0.413258 -0.910614 
-0.000143756 0.336601 -0.941647 
-0.000195258 0.272512 -0.962152 
-0.000238391 0.219713 -0.975564 
-0.000273915 0.176627 -0.984278 
-0.000302877 0.141688 -0.989911 
-0.000326279 0.113468 -0.993542 
-0.00034516 0.0907348 -0.995875 
-0.000360289 0.072449 -0.997372 
-0.00037245 0.0577499 -0.998331 
-0.000382214 0.0459335 -0.998944 
-0.000389969 0.0364242 -0.999336 
-0.000396163 0.028755 -0.999586 
-0.000400997 0.022546 -0.999746 
-0.000404797 0.017487 -0.999847 
-0.000407745 0.0133239 -0.999911 
-0.000409881 0.00984532 -0.999951 
-0.000411388 0.00687435 -0.999976 
-0.000412287 0.00426122 -0.999991 
-0.000412685 0.00187884 -0.999998 
-0.000412737 -0.000377104 -1 
-0.000412493 -0.00258801 -0.999997 
-0.000410749 -0.00480564 -0.999988 
-0.000410644 -0.00705795 -0.999975 
-0.000402597 -0.00929244 -0.999957 
-0.000402427 -0.0115325 -0.999933 
-0.000385366 -0.0137269 -0.999906 
-0.000362278 -0.0159634 -0.999873 
-0.000330504 -0.0182038 -0.999834 
-0.0002681 -0.0200263 -0.999799 
-0.000257512 -0.0212041 -0.999775 
-9.6768e-05 -0.0177633 -0.999842 
-0.000530817 -0.00165258 -0.999998 
-0.000269448 0.000325988 1 
0.00385074 -0.0133034 0.999904 
0.00695025 -0.0188563 0.999798 
0.00845163 -0.0204307 0.999756 
0.00926625 -0.0192083 0.999773 
0.00990987 -0.0172247 0.999803 
0.0102862 -0.0149875 0.999835 
0.0105303 -0.012636 0.999865 
0.0107768 -0.0103015 0.999889 
0.0109941 -0.00803033 0.999907 
0.0111057 -0.00578359 0.999922 
0.0111737 -0.00355185 0.999931 
0.0112214 -0.00132717 0.999936 
0.0112481 0.000926646 0.999936 
0.011249 0.00327793 0.999931 
0.0112237 0.00582134 0.99992 
0.0111721 0.00867421 0.9999 
0.0110935 0.0119773 0.999867 
0.0109849 0.015896 0.999813 
0.0108406 0.0206251 0.999729 
0.0106507 0.0264012 0.999595 
0.0104103 0.0335185 0.999384 
0.0101182 0.0423302 0.999052 
0.00976515 0.0532598 0.998533 
0.00933583 0.066838 0.99772 
0.00881922 0.0837316 0.996449 
0.0082084 0.104751 0.994465 
0.0074943 0.130853 0.991373 
0.00666592 0.163168 0.986576 
0.00571558 0.203029 0.979156 
0.00464593 0.251953 0.967728 
0.00347571 0.311541 0.950226 
0.00224599 0.383209 0.923659 
0.00102685 0.467679 0.883898 
-8.04882e-05 0.564245 0.825608 
-0.000950975 0.669939 0.742416 
-0.00145781 0.778355 0.627822 
-0.00151229 0.878612 0.477534 
-0.00111537 0.956103 0.293028 
-0.000390616 0.996453 0.0841464 
0.000436554 0.991246 -0.132027 
0.00110988 0.941752 -0.336306 
0.00142408 0.858131 -0.513428 
0.00128148 0.755023 -0.655697 
0.000701175 0.646358 -0.763034 
-0.000217737 0.542116 -0.840304 
-0.00134666 0.447958 -0.894054 
-0.00256397 0.366314 -0.930488 
-0.00377438 0.297436 -0.954734 
-0.0049152 0.240317 -0.970682 
-0.00595263 0.193484 -0.981085 
-0.00687303 0.155396 -0.987828 
-0.00767392 0.12458 -0.99218 
-0.00836233 0.0997178 -0.994981 
-0.00894667 0.0797067 -0.996778 
-0.0094393 0.0636078 -0.99793 
-0.00985068 0.0506622 -0.998667 
-0.0101891 0.040244 -0.999138 
-0.0104631 0.0318404 -0.999438 
-0.0106836 0.0250395 -0.999629 
-0.0108573 0.0195083 -0.999751 
-0.0109888 0.0149711 -0.999828 
-0.0110797 0.0111983 -0.999876 
-0.0111311 0.00799798 -0.999906 
-0.0111405 0.00520623 -0.999924 
-0.0110977 0.0026821 -0.999935 
-0.010983 0.00029993 -0.99994 
-0.010792 -0.00205178 -0.99994 
-0.0106564 -0.00446253 -0.999933 
-0.0105519 -0.00692743 -0.99992 
-0.0106876 -0.00940953 -0.999899 
-0.00996018 -0.0118765 -0.99988 
-0.0102925 -0.0142635 -0.999845 
-0.00956741 -0.0168513 -0.999812 
-0.0091406 -0.0188459 -0.999781 
-0.00833736 -0.0200637 -0.999764 
-0.00688561 -0.0185179 -0.999805 
-0.00384468 -0.0132902 -0.999904 
0.000279138 0.000326002 -1 
0.000228552 -0.000183515 1 
0.00514428 -0.0139913 0.999889 
0.00943953 -0.0190095 0.999775 
0.0114725 -0.0198359 0.999737 
0.0127257 -0.0181113 0.999755 
0.0134691 -0.0160874 0.99978 
0.0139114 -0.0137516 0.999809 
0.0143196 -0.0113444 0.999833 
0.0146886 -0.00906349 0.999851 
0.0149101 -0.00683354 0.999865 
0.015059 -0.00461454 0.999876 
0.0151705 -0.0023917 0.999882 
0.0152478 -0.000145114 0.999884 
0.0152828 0.00217599 0.999881 
0.0152745 0.00465153 0.999873 
0.0152241 0.00738509 0.999857 
0.0151294 0.0105046 0.99983 
0.0149873 0.0141644 0.999787 
0.0147939 0.0185472 0.999719 
0.0145402 0.023868 0.999609 
0.0142156 0.0303927 0.999437 
0.0138158 0.0384524 0.999165 
0.0133354 0.048441 0.998737 
0.012759 0.0608281 0.998067 
0.0120701 0.0762162 0.997018 
0.0112593 0.0953596 0.995379 
0.0103189 0.119149 0.992823 
0.00923997 0.148624 0.988851 
0.00801834 0.185009 0.982704 
0.00666029 0.229716 0.973235 
0.00518792 0.284312 0.958718 
0.00364708 0.350318 0.936624 
0.00211329 0.428832 0.903382 
0.000693579 0.519883 0.854237 
-0.000482392 0.621542 0.783381 
-0.00128627 0.729232 0.684265 
-0.00161684 0.834442 0.551094 
-0.00144226 0.924165 0.381991 
-0.000843968 0.983162 0.182734 
-1.97659e-05 0.999477 -0.0323276 
0.000770105 0.969743 -0.244126 
0.00127895 0.900453 -0.43495 
0.00133931 0.80483 -0.593504 
0.000897416 0.69764 -0.716448 
4.45875e-06 0.590838 -0.80679 
-0.001227 0.491869 -0.870668 
-0.00266572 0.404421 -0.914569 
-0.00418742 0.329689 -0.94408 
-0.00569348 0.267199 -0.963625 
-0.00711905 0.215628 -0.97645 
-0.00842705 0.173478 -0.984802 
-0.00959797 0.139278 -0.990207 
-0.0106261 0.111633 -0.993693 
-0.0115203 0.0893279 -0.995936 
-0.012285 0.0713897 -0.997373 
-0.0129347 0.0569425 -0.998294 
-0.0134808 0.0453137 -0.998882 
-0.0139319 0.0359431 -0.999257 
-0.0142989 0.0283667 -0.999495 
-0.0145941 0.0222139 -0.999647 
-0.0148244 0.0171874 -0.999742 
-0.0149938 0.0130341 -0.999803 
-0.0151068 0.00954627 -0.99984 
-0.0151641 0.00654658 -0.999864 
-0.0151674 0.00388723 -0.999877 
-0.0151072 0.00144375 -0.999885 
-0.0149707 -0.000886975 -0.999888 
-0.0147778 -0.00317816 -0.999886 
-0.0145819 -0.00547607 -0.999879 
-0.0144863 -0.00776016 -0.999865 
-0.0145414 -0.0100192 -0.999844 
-0.013583 -0.0121431 -0.999834 
-0.0143396 -0.0137619 -0.999802 
-0.0129197 -0.0157183 -0.999793 
-0.0125108 -0.0177464 -0.999764 
-0.0113147 -0.0194168 -0.999747 
-0.00939857 -0.0187703 -0.99978 
-0.00512249 -0.0139552 -0.99989 
-0.000226466 -0.000183192 -1 
6.72149e-05 -0.000198869 1 
0.00524652 -0.0139461 0.999889 
0.0085707 -0.0186915 0.999789 
0.0111403 -0.0201523 0.999735 
0.0122075 -0.0189104 0.999747 
0.0131196 -0.0170741 0.999768 
0.0140294 -0.0149855 0.999789 
0.0145727 -0.0125403 0.999815 
0.014832 -0.0102578 0.999837 
0.0150748 -0.00804093 0.999854 
0.0152944 -0.00584588 0.999866 
0.0154733 -0.00363568 0.999874 
0.0155996 -0.00139896 0.999877 
0.0156748 0.000894339 0.999877 
0.0157007 0.00330509 0.999871 
0.0156751 0.00592142 0.99986 
0.015596 0.00885488 0.999839 
0.0154619 0.0122437 0.999805 
0.0152689 0.0162573 0.999751 
0.0150124 0.0210946 0.999665 
0.0146891 0.0269905 0.999528 
0.0142915 0.0342388 0.999311 
0.0138057 0.0432051 0.998971 
0.0132226 0.054318 0.998436 
0.0125383 0.0680924 0.9976 
0.0117419 0.0852011 0.996295 
0.010819 0.106469 0.994257 
0.00976342 0.132849 0.991088 
0.00857815 0.165451 0.986181 
0.00727424 0.205573 0.978615 
0.00587275 0.254679 0.967008 
0.00440788 0.314326 0.949305 
0.00293569 0.385905 0.922534 
0.00153958 0.47013 0.882596 
0.000324358 0.566282 0.824211 
-0.000603781 0.671096 0.741371 
-0.00116399 0.778549 0.627583 
-0.00130363 0.87824 0.478219 
-0.00103791 0.955669 0.294443 
-0.000484153 0.996279 0.0861868 
0.000163895 0.991586 -0.129446 
0.000694395 0.942843 -0.333236 
0.000929007 0.860144 -0.510051 
0.000761019 0.757949 -0.652313 
0.000175696 0.650083 -0.759864 
-0.000769256 0.54648 -0.837472 
-0.00198325 0.45266 -0.891681 
-0.00336222 0.370986 -0.928632 
-0.00480524 0.301879 -0.953334 
-0.00623663 0.244405 -0.969653 
-0.00760188 0.197114 -0.980351 
-0.00886291 0.15855 -0.987311 
-0.0100026 0.127298 -0.991814 
-0.0110169 0.102032 -0.99472 
-0.0119027 0.0816377 -0.996591 
-0.0126725 0.0652581 -0.997788 
-0.0133308 0.052024 -0.998557 
-0.0138868 0.0413649 -0.999048 
-0.0143514 0.0327641 -0.99936 
-0.0147322 0.0257892 -0.999559 
-0.0150343 0.0201061 -0.999685 
-0.0152683 0.0154381 -0.999764 
-0.0154376 0.0115568 -0.999814 
-0.015548 0.00826173 -0.999845 
-0.0156016 0.0053926 -0.999864 
-0.0156038 0.00281306 -0.999874 
-0.0155618 0.000413309 -0.999879 
-0.0154723 -0.00189405 -0.999879 
-0.015322 -0.00417722 -0.999874 
-0.0151004 -0.00647396 -0.999865 
-0.0148239 -0.00882149 -0.999851 
-0.0144343 -0.0113651 -0.999831 
-0.013689 -0.0138644 -0.99981 
-0.0136007 -0.0160955 -0.999778 
-0.0122468 -0.0181188 -0.999761 
-0.0109455 -0.0196067 -0.999748 
-0.00850258 -0.0185021 -0.999793 
-0.00512069 -0.0137456 -0.999892 
-6.41477e-05 -0.000196489 -1 
9.93561e-05 -0.000237971 1 
0.00445984 -0.0139281 0.999893 
0.00748822 -0.019168 0.999788 
0.010106 -0.0199491 0.99975 
0.0109703 -0.0182248 0.999774 
0.0121655 -0.0160577 0.999797 
0.0131851 -0.0139307 0.999816 
0.0133459 -0.0116958 0.999843 
0.0136005 -0.0094511 0.999863 
0.0138606 -0.0072541 0.999878 
0.0141052 -0.00504772 0.999888 
0.0142904 -0.00280922 0.999894 
0.0144099 -0.000526793 0.999896 
0.0144764 0.00183907 0.999894 
0.0144906 0.00435964 0.999886 
0.014445 0.00713174 0.99987 
0.0143409 0.0102736 0.999844 
0.0141805 0.0139362 0.999802 
0.0139573 0.0183049 0.999735 
0.0136685 0.0235942 0.999628 
0.0133151 0.0300563 0.99946 
0.0128862 0.0380138 0.999194 
0.0123643 0.0478662 0.998777 
0.0117486 0.0600705 0.998125 
0.0110436 0.0751855 0.997108 
0.0102344 0.0939568 0.995524 
0.00930909 0.117264 0.993057 
0.00827297 0.146107 0.989234 
0.00713962 0.181666 0.983334 
0.00592847 0.225294 0.974273 
0.00466676 0.278484 0.960429 
0.00339105 0.342787 0.939407 
0.00215663 0.41941 0.907794 
0.00103755 0.508626 0.860987 
0.000115095 0.60888 0.793263 
-0.000543258 0.715437 0.698677 
-0.000898822 0.820988 0.570945 
-0.000934056 0.913272 0.407349 
-0.0006935 0.977132 0.212631 
-0.000290802 1 -0.000225461 
0.00012501 0.977128 -0.212652 
0.000406869 0.913617 -0.406575 
0.000438298 0.821788 -0.569793 
0.000157561 0.716226 -0.697868 
-0.000433042 0.609426 -0.792843 
-0.00128923 0.509519 -0.860458 
-0.00234788 0.420522 -0.907279 
-0.00353172 0.343894 -0.939002 
-0.00476812 0.279529 -0.960125 
-0.00600325 0.226184 -0.974066 
-0.00718991 0.182369 -0.983204 
-0.00829497 0.146707 -0.989145 
-0.00930763 0.117823 -0.992991 
-0.0102193 0.0944503 -0.995477 
-0.0110143 0.0755686 -0.99708 
-0.0117279 0.0604509 -0.998102 
-0.0123345 0.048144 -0.998764 
-0.0128483 0.0382444 -0.999186 
-0.0132829 0.0302414 -0.999454 
-0.0136355 0.0237369 -0.999625 
-0.0139137 0.0183981 -0.999734 
-0.0141238 0.0140166 -0.999802 
-0.0142763 0.0103327 -0.999845 
-0.0143682 0.00717717 -0.999871 
-0.0144053 0.00439813 -0.999887 
-0.0143964 0.00187057 -0.999895 
-0.0143536 -0.000500366 -0.999897 
-0.0142658 -0.00279658 -0.999894 
-0.014098 -0.00507133 -0.999888 
-0.0138331 -0.00735024 -0.999877 
-0.013511 -0.00967574 -0.999862 
-0.0129472 -0.0119506 -0.999845 
-0.0120917 -0.0144098 -0.999823 
-0.0123585 -0.0162722 -0.999791 
-0.0109378 -0.0181815 -0.999775 
-0.00960702 -0.0196093 -0.999762 
-0.00723779 -0.0188221 -0.999797 
-0.00438232 -0.0137563 -0.999896 
-9.44053e-05 -0.000239305 -1 
8.86106e-05 -0.000296196 1 
0.00383762 -0.0141424 0.999893 
0.00628196 -0.0193479 0.999793 
0.00878401 -0.019957 0.999762 
0.00921927 -0.0185522 0.999785 
0.0104127 -0.0165703 0.999808 
0.0115203 -0.0138336 0.999838 
0.0117636 -0.0112364 0.999868 
0.0120125 -0.0088741 0.999888 
0.0122929 -0.00660522 0.999903 
0.012544 -0.00433927 0.999912 
0.0127126 -0.00204083 0.999917 
0.0128162 0.000309494 0.999918 
0.0128725 0.00276433 0.999913 
0.0128721 0.0054094 0.999903 
0.0128043 0.00834753 0.999883 
0.0126825 0.0117062 0.999851 
0.0125076 0.0156514 0.999799 
0.0122697 0.0203839 0.999717 
0.0119703 0.0261339 0.999587 
0.0116118 0.0331699 0.999382 
0.0111775 0.0418475 0.999061 
0.0106525 0.0525965 0.998559 
0.0100485 0.0658981 0.997776 
0.00937001 0.0823618 0.996558 
0.00859566 0.102807 0.994664 
0.00772228 0.128155 0.991724 
0.00676635 0.159451 0.987183 
0.00574565 0.197947 0.980196 
0.00468229 0.245054 0.969498 
0.00360259 0.302301 0.953206 
0.00253947 0.371209 0.928546 
0.00154152 0.452771 0.891626 
0.000668873 0.546709 0.837322 
-1.9936e-05 0.650415 0.759579 
-0.000485621 0.757447 0.652896 
-0.000711809 0.859137 0.511745 
-0.000701753 0.941794 0.336191 
-0.000509825 0.990997 0.133882 
-0.000231082 0.99679 -0.0800586 
2.29508e-05 0.958012 -0.286729 
0.000147891 0.88275 -0.469843 
6.567e-05 0.784536 -0.620083 
-0.000258178 0.677505 -0.735518 
-0.000813594 0.572739 -0.819737 
-0.00156701 0.476744 -0.879041 
-0.00247112 0.392321 -0.919825 
-0.00346687 0.320299 -0.94731 
-0.00450575 0.260164 -0.965554 
-0.00554769 0.210415 -0.977596 
-0.00654951 0.169622 -0.985487 
-0.00748967 0.136483 -0.990614 
-0.00836288 0.109639 -0.993936 
-0.00915101 0.0878844 -0.996089 
-0.00982788 0.0702945 -0.997478 
-0.0104845 0.0563104 -0.998358 
-0.0110097 0.0447208 -0.998939 
-0.0114652 0.0354591 -0.999305 
-0.0118459 0.0280057 -0.999538 
-0.0121707 0.021832 -0.999688 
-0.0123892 0.0168343 -0.999782 
-0.0125828 0.0126932 -0.99984 
-0.0127062 0.00917302 -0.999877 
-0.0127731 0.00613395 -0.9999 
-0.0127929 0.00343204 -0.999912 
-0.0127787 0.000955404 -0.999918 
-0.0127521 -0.00138833 -0.999918 
-0.0126705 -0.00366095 -0.999913 
-0.0124847 -0.00590746 -0.999905 
-0.0122196 -0.0081181 -0.999892 
-0.0118193 -0.0102645 -0.999877 
-0.0111834 -0.0124505 -0.99986 
-0.0106424 -0.0146298 -0.999836 
-0.0104941 -0.0167495 -0.999805 
-0.00912298 -0.0188795 -0.99978 
-0.00773922 -0.0200881 -0.999768 
-0.00566429 -0.018435 -0.999814 
-0.00350968 -0.0136256 -0.999901 
-9.50916e-05 -0.000294435 -1 
7.57122e-05 -0.000323693 1 
0.00317899 -0.0142511 0.999893 
0.00506959 -0.0194474 0.999798 
0.00722339 -0.0202768 0.999768 
0.00756209 -0.0191233 0.999789 
0.00826334 -0.0170568 0.99982 
0.00971005 -0.0150846 0.999839 
0.00991355 -0.0127385 0.99987 
0.0100452 -0.0104177 0.999895 
0.0102832 -0.00815352 0.999914 
0.0105603 -0.00589968 0.999927 
0.0107903 -0.00360768 0.999935 
0.0109189 -0.00125652 0.99994 
0.0109987 0.00115458 0.999939 
0.0110415 0.00369988 0.999932 
0.0110161 0.00646777 0.999918 
0.0109266 0.00957399 0.999894 
0.0107955 0.013151 0.999855 
0.0106171 0.0173776 0.999793 
0.0103807 0.0224819 0.999693 
0.0100895 0.0286971 0.999537 
0.00974707 0.0363137 0.999293 
0.00933049 0.0457192 0.998911 
0.00883394 0.0573712 0.998314 
0.00827844 0.0717705 0.997387 
0.00766055 0.0895847 0.99595 
0.00695663 0.111701 0.993717 
0.00617545 0.139076 0.990262 
0.00533974 0.172804 0.984942 
0.00446735 0.214209 0.976778 
0.00357914 0.264754 0.964309 
0.00269706 0.325976 0.945374 
0.00184737 0.399307 0.916815 
0.00106964 0.485395 0.874294 
0.000409147 0.583209 0.812322 
-9.53877e-05 0.688849 0.724905 
-0.000424511 0.794311 0.607511 
-0.000572408 0.890218 0.455534 
-0.000552148 0.962572 0.271027 
-0.000413364 0.997977 0.063576 
-0.000231082 0.988692 -0.149957 
-8.86578e-05 0.936559 -0.350509 
-6.08069e-05 0.852003 -0.523538 
-0.000199221 0.749278 -0.662256 
-0.000520467 0.641946 -0.766749 
-0.00101197 0.539722 -0.841843 
-0.00164926 0.4476 -0.894232 
-0.00239553 0.367434 -0.930046 
-0.00320865 0.299581 -0.954065 
-0.00406041 0.243205 -0.969966 
-0.00491529 0.196583 -0.980475 
-0.00573568 0.158401 -0.987358 
-0.00651542 0.127464 -0.991822 
-0.007249 0.102377 -0.994719 
-0.00790546 0.0819746 -0.996603 
-0.00845067 0.0654389 -0.997821 
-0.00908837 0.0525382 -0.998578 
-0.00950799 0.0413036 -0.999101 
-0.00985716 0.0328477 -0.999412 
-0.0102509 0.0256237 -0.999619 
-0.0104572 0.0199163 -0.999747 
-0.0106402 0.0152137 -0.999828 
-0.0108197 0.0113138 -0.999877 
-0.0109005 0.00792737 -0.999909 
-0.0109313 0.00499603 -0.999928 
-0.010922 0.00238562 -0.999938 
-0.0109206 -5.54544e-05 -0.99994 
-0.0109084 -0.00236017 -0.999938 
-0.0108411 -0.00460685 -0.999931 
-0.0106245 -0.00682342 -0.99992 
-0.0102943 -0.00898843 -0.999907 
-0.00979242 -0.0112276 -0.999889 
-0.00903607 -0.0137062 -0.999865 
-0.00920579 -0.0161111 -0.999828 
-0.00838542 -0.0179716 -0.999803 
-0.00704706 -0.0197525 -0.99978 
-0.00575173 -0.0202234 -0.999779 
-0.00305872 -0.0142197 -0.999894 
-6.17059e-05 -0.000323219 -1 
6.29153e-05 -0.000341867 1 
0.00254996 -0.0143349 0.999894 
0.00403621 -0.0196688 0.999798 
0.00580643 -0.0204381 0.999774 
0.00630012 -0.0188571 0.999802 
0.00663003 -0.0167373 0.999838 
0.00804538 -0.0146947 0.99986 
0.00814007 -0.0122276 0.999892 
0.00832233 -0.00984679 0.999917 
0.00856844 -0.00754739 0.999935 
0.00884428 -0.00524833 0.999947 
0.00904176 -0.00288942 0.999955 
0.00911613 -0.000480936 0.999958 
0.00918871 0.00199058 0.999956 
0.00921295 0.00461181 0.999947 
0.00917004 0.00750278 0.99993 
0.00907137 0.0107767 0.999901 
0.00894411 0.0145524 0.999854 
0.00878077 0.0190703 0.99978 
0.00855745 0.0245464 0.999662 
0.00829109 0.0312235 0.999478 
0.00797821 0.0394134 0.999191 
0.00759631 0.0495403 0.998743 
0.00715186 0.0620616 0.998047 
0.00666625 0.0775086 0.996969 
0.00612423 0.0966227 0.995302 
0.00550791 0.120343 0.992717 
0.00483779 0.149602 0.988735 
0.00413705 0.185513 0.982633 
0.00342067 0.229423 0.973321 
0.00270656 0.282713 0.959201 
0.00201124 0.346771 0.937948 
0.00135415 0.422802 0.906221 
0.000764932 0.510946 0.859613 
0.000272298 0.609752 0.792592 
-0.000102218 0.715065 0.699058 
-0.00034727 0.818903 0.573932 
-0.000456574 0.911026 0.412349 
-0.000442707 0.975895 0.218242 
-0.000347456 0.999991 0.00418198 
-0.000232513 0.977637 -0.210298 
-0.000162838 0.913949 -0.40583 
-0.000191922 0.821723 -0.569886 
-0.000351883 0.715802 -0.698303 
-0.000647877 0.609119 -0.793078 
-0.00106887 0.509813 -0.860285 
-0.00159726 0.421411 -0.906868 
-0.00220357 0.345139 -0.938549 
-0.00286048 0.281094 -0.959676 
-0.00355279 0.228073 -0.973637 
-0.00424496 0.184074 -0.982903 
-0.00490598 0.148131 -0.988956 
-0.00554616 0.119177 -0.992858 
-0.00615525 0.0955321 -0.995407 
-0.00669002 0.0760774 -0.997079 
-0.00709952 0.0602462 -0.998158 
-0.00783771 0.0483888 -0.998798 
-0.00790801 0.0380853 -0.999243 
-0.00843175 0.0295753 -0.999527 
-0.00859387 0.0231076 -0.999696 
-0.00876716 0.0177909 -0.999803 
-0.00889896 0.0134175 -0.99987 
-0.00909392 0.00977378 -0.999911 
-0.00910195 0.00644325 -0.999938 
-0.00904933 0.00367364 -0.999952 
-0.0090632 0.00110316 -0.999958 
-0.0090294 -0.00127959 -0.999958 
-0.00902181 -0.00349037 -0.999953 
-0.00894937 -0.00557007 -0.999944 
-0.0086826 -0.00761743 -0.999933 
-0.00837899 -0.00973487 -0.999918 
-0.00791588 -0.0120148 -0.999896 
-0.00723568 -0.0144855 -0.999869 
-0.00763241 -0.0164521 -0.999836 
-0.00655482 -0.0185843 -0.999806 