# vtk DataFile Version 3.0 
Exported using Morpho https://github.com/Morpho-lang/morpho 
ASCII 
DATASET UNSTRUCTURED_GRID 

POINTS 1978 float 
-8.48449 -2.82734 -1.51281e-06 
-8.2561 -2.82777 -8.77066e-06 
-8.02734 -2.8276 3.71487e-06 
-7.77427 -2.82779 8.33728e-06 
-7.46432 -2.82783 7.52875e-06 
-7.19045 -2.82789 2.54774e-06 
-6.99216 -2.82788 1.10126e-06 
-6.75336 -2.82801 1.34963e-06 
-6.55617 -2.82794 7.76018e-07 
-6.35176 -2.82792 1.28929e-06 
-6.14163 -2.82787 -1.14134e-07 
-5.93203 -2.82793 4.40915e-07 
-5.71486 -2.8279 1.14555e-07 
-5.5108 -2.82789 2.84606e-09 
-5.29228 -2.82787 8.75602e-08 
-5.08097 -2.82788 -1.52788e-07 
-4.86251 -2.82789 2.16972e-07 
-4.65562 -2.82788 3.64081e-08 
-4.43516 -2.82788 -1.31968e-07 
-4.2164 -2.82788 -1.71252e-07 
-3.99785 -2.82789 -2.35187e-07 
-3.78717 -2.82789 -3.6922e-07 
-3.57007 -2.82789 -6.06573e-07 
-3.35708 -2.8279 -5.29225e-07 
-3.13228 -2.82793 -5.28969e-07 
-2.9192 -2.82795 -5.37535e-07 
-2.7056 -2.82801 -4.03902e-07 
-2.50808 -2.82807 -1.85366e-07 
-2.2945 -2.82805 3.63844e-07 
-2.08285 -2.82812 1.13861e-06 
-1.87484 -2.82816 2.73701e-06 
-1.67094 -2.82816 2.11614e-06 
-1.47445 -2.82829 3.69102e-06 
-1.25775 -2.8282 6.19762e-06 
-1.08034 -2.82813 -1.84822e-06 
-0.82357 -2.82827 8.61305e-07 
-0.607253 -2.82806 -1.62726e-06 
-0.434146 -2.82804 8.12113e-07 
-0.20995 -2.82804 -8.64564e-06 
0.0141146 -2.82796 8.00452e-06 
0.216825 -2.82781 3.18181e-06 
0.415217 -2.82815 -2.32837e-07 
0.627256 -2.82808 4.86562e-06 
0.833692 -2.82836 9.45569e-06 
1.03548 -2.82829 -3.32141e-06 
1.24722 -2.82821 -5.62457e-06 
1.43584 -2.82825 -2.46718e-06 
1.67297 -2.82818 -2.03747e-06 
1.86121 -2.82817 -2.90168e-06 
2.08233 -2.8281 -1.06295e-06 
2.30176 -2.82806 3.429e-08 
2.49188 -2.82804 2.38553e-08 
2.72504 -2.82794 4.55993e-07 
2.9445 -2.82797 5.99345e-07 
3.16197 -2.82794 4.12747e-07 
3.36812 -2.8279 6.91053e-07 
3.5938 -2.82791 4.91854e-07 
3.79732 -2.82789 1.92032e-07 
4.01462 -2.82787 5.11485e-07 
4.24446 -2.82789 2.03799e-07 
4.44331 -2.82789 1.06689e-07 
4.6564 -2.8279 2.45188e-07 
4.86609 -2.82789 -1.85748e-07 
5.0695 -2.82791 6.2352e-08 
5.28714 -2.82788 -2.42131e-08 
5.49873 -2.8279 -2.10108e-07 
5.70245 -2.8279 -3.16286e-07 
5.92314 -2.82788 -3.38833e-07 
6.14535 -2.82789 -8.5662e-07 
6.34636 -2.82789 -5.36671e-07 
6.5887 -2.82788 -1.13558e-06 
6.79723 -2.82794 -4.97914e-07 
6.9942 -2.82792 -1.78768e-06 
7.25565 -2.82788 -2.36372e-06 
7.48416 -2.82792 -4.57602e-06 
7.71857 -2.82788 -7.46245e-06 
7.97974 -2.82781 -6.65749e-06 
8.16434 -2.82757 7.89092e-06 
8.48428 -2.82693 5.89752e-06 
-8.4848 -2.59604 3.52825e-06 
-8.24939 -2.58959 1.20642e-05 
-8.02197 -2.55343 -1.49909e-05 
-7.8149 -2.61264 -9.89869e-06 
-7.54267 -2.65018 1.38542e-05 
-7.23566 -2.62394 7.30557e-06 
-6.98224 -2.54985 -3.58486e-06 
-6.78921 -2.61191 7.7205e-07 
-6.55624 -2.56652 -9.88395e-07 
-6.33724 -2.57683 8.52993e-07 
-6.11948 -2.57495 -1.56982e-06 
-5.89842 -2.58859 -8.29938e-08 
-5.68678 -2.57051 -1.11267e-06 
-5.46712 -2.58425 -3.158e-07 
-5.24819 -2.57733 -6.1728e-07 
-5.02867 -2.5861 -6.7307e-07 
-4.81903 -2.57271 -1.13553e-06 
-4.60032 -2.58871 -4.52112e-07 
-4.38102 -2.58656 3.52869e-07 
-4.16255 -2.5843 -2.69317e-07 
-3.95165 -2.57284 -5.34748e-07 
-3.73784 -2.57856 -8.7421e-07 
-3.52546 -2.57488 1.30539e-06 
-3.3052 -2.59127 -3.95526e-07 
-3.0911 -2.58434 -1.82924e-07 
-2.87659 -2.59194 -8.38999e-07 
-2.67482 -2.58174 2.29521e-06 
-2.46498 -2.60514 2.68842e-07 
-2.24788 -2.6037 8.60455e-07 
-2.03734 -2.60003 2.60976e-06 
-1.82558 -2.59583 4.15845e-06 
-1.61813 -2.58287 5.04897e-06 
-1.40929 -2.5997 5.54705e-06 
-1.22486 -2.53334 4.33701e-06 
-0.98768 -2.62772 4.2639e-06 
-0.766539 -2.57614 9.5636e-07 
-0.582024 -2.48391 2.67413e-06 
-0.394073 -2.50901 -5.60428e-07 
-0.200727 -2.5534 4.49016e-06 
0.00451821 -2.509 -1.83219e-05 
0.206511 -2.45827 1.47261e-05 
0.399125 -2.52565 -9.73065e-08 
0.609589 -2.55878 9.58308e-06 
0.82954 -2.58157 -1.22507e-05 
1.05323 -2.59539 -2.82409e-06 
1.26177 -2.57174 -7.71532e-06 
1.4998 -2.6367 -4.19571e-06 
1.70985 -2.58456 -6.85905e-06 
1.93023 -2.62082 -4.82239e-07 
2.15753 -2.613 3.62884e-07 
2.36206 -2.57283 -3.35571e-06 
2.57515 -2.61469 -7.73909e-07 
2.79876 -2.59467 9.51138e-08 
3.01354 -2.59255 5.83524e-07 
3.22113 -2.57453 -4.40021e-07 
3.44076 -2.59353 -3.28927e-07 
3.64853 -2.56609 -1.26142e-07 
3.86359 -2.58246 9.70862e-07 
4.09277 -2.59743 -4.65968e-08 
4.30233 -2.56231 6.87172e-08 
4.51551 -2.58197 7.45897e-07 
4.72979 -2.57955 1.0404e-06 
4.94121 -2.57296 1.29134e-06 
5.15576 -2.59005 -4.38534e-07 
5.37437 -2.58201 -7.14549e-07 
5.5847 -2.57143 1.39173e-06 
5.8013 -2.58945 1.74142e-06 
6.02698 -2.58779 -2.39149e-07 
6.24061 -2.55958 5.23884e-07 
6.46229 -2.60498 3.16064e-06 
6.68858 -2.56766 1.13273e-06 
6.89433 -2.55251 1.52235e-06 
7.11934 -2.62137 1.17164e-06 
7.3676 -2.58915 4.79904e-07 
7.59987 -2.59418 6.90874e-06 
7.84826 -2.6181 6.01509e-06 
8.05752 -2.52208 8.60087e-06 
8.2902 -2.64345 -1.18867e-05 
8.48466 -2.52449 -4.66229e-06 
-8.48454 -2.3611 7.29114e-06 
-8.21304 -2.35996 3.47628e-06 
-7.94719 -2.29592 -9.33473e-07 
-7.7129 -2.42368 -1.01656e-05 
-7.5617 -2.25184 9.75879e-06 
-7.42929 -2.45986 -1.20547e-05 
-7.16975 -2.38858 1.85677e-07 
-6.92841 -2.30834 6.74951e-07 
-6.70877 -2.3654 1.3668e-07 
-6.47487 -2.33002 -4.40605e-07 
-6.24727 -2.33263 1.86679e-06 
-6.02432 -2.3426 1.16497e-06 
-5.80592 -2.33601 5.87957e-08 
-5.57591 -2.33402 2.75121e-07 
-5.36025 -2.33693 1.18178e-06 
-5.13654 -2.34163 8.14699e-07 
-4.92601 -2.32928 6.54027e-07 
-4.70323 -2.3439 2.81607e-07 
-4.48491 -2.34953 2.04888e-07 
-4.26447 -2.34609 4.33739e-07 
-4.05028 -2.32794 -3.09157e-07 
-3.83439 -2.32801 4.52071e-07 
-3.6224 -2.32736 6.0769e-07 
-3.40217 -2.3454 2.94361e-07 
-3.18999 -2.34555 -3.70222e-07 
-2.97307 -2.35387 -9.06891e-07 
-2.76659 -2.34232 -1.69987e-06 
-2.55502 -2.36386 -3.11191e-06 
-2.34533 -2.38768 -2.67902e-06 
-2.12339 -2.37105 -1.67564e-06 
-1.90999 -2.37021 -2.89603e-06 
-1.69072 -2.35554 -2.09841e-06 
-1.46734 -2.34952 -1.27746e-05 
-1.26308 -2.27816 -5.69375e-06 
-1.04014 -2.3931 -8.64803e-06 
-0.828744 -2.32761 6.59427e-06 
-0.609644 -2.21955 -8.32328e-07 
-0.38659 -2.18745 7.72163e-06 
-0.187208 -2.23907 -3.35261e-06 
0.0217179 -2.18804 -2.12868e-05 
0.209428 -2.08386 -3.0224e-05 
0.408535 -2.19203 4.36074e-05 
0.606742 -2.25823 -3.50784e-05 
0.820447 -2.32599 7.73761e-06 
1.03689 -2.35017 -2.38783e-06 
1.25785 -2.32653 1.12665e-05 
1.46859 -2.41913 -4.57953e-06 
1.65626 -2.34312 8.82639e-06 
1.87106 -2.39382 1.98232e-06 
2.08758 -2.4032 1.55367e-06 
2.3058 -2.3464 3.24262e-06 
2.53225 -2.37044 2.62934e-06 
2.73258 -2.37739 1.06895e-06 
2.95916 -2.35358 -2.07364e-07 
3.16062 -2.33063 4.30033e-07 
3.37608 -2.35069 5.03252e-07 
3.58093 -2.3194 -3.10159e-07 
3.79405 -2.33028 -8.17168e-07 
4.01121 -2.36032 -3.0778e-08 
4.22019 -2.32269 -2.05732e-07 
4.44205 -2.32939 -5.98457e-07 
4.65125 -2.33447 -4.35099e-07 
4.86273 -2.33045 -6.08991e-10 
5.08157 -2.3405 -4.46226e-07 
5.2915 -2.34808 -1.14512e-06 
5.50769 -2.32694 -1.02487e-06 
5.72633 -2.34065 8.04853e-07 
5.94277 -2.3534 -2.93831e-07 
6.15937 -2.3202 -2.25822e-06 
6.39409 -2.3471 -1.84953e-06 
6.60232 -2.34265 -2.46325e-07 
6.82582 -2.29335 -2.05138e-06 
7.05362 -2.35943 -3.72191e-06 
7.26856 -2.38525 -5.81222e-06 
7.52472 -2.35703 1.05575e-06 
7.7661 -2.38779 1.4094e-06 
7.98264 -2.29332 4.03159e-06 
8.25245 -2.36838 -2.54116e-05 
8.48465 -2.27379 -2.80237e-06 
-8.48457 -2.1187 -1.43423e-06 
-8.25123 -2.14801 2.04421e-05 
-8.05895 -2.04791 5.11408e-06 
-7.78579 -2.13081 -4.35982e-06 
-7.51614 -2.03014 -2.69408e-07 
-7.31004 -2.21628 8.35085e-06 
-7.068 -2.11974 5.679e-07 
-6.79287 -2.10095 1.87797e-06 
-6.59165 -2.11716 9.83051e-07 
-6.3521 -2.11294 1.47912e-06 
-6.11924 -2.09523 -1.28364e-07 
-5.91337 -2.09893 3.84979e-07 
-5.69003 -2.10549 5.71384e-07 
-5.46879 -2.09062 5.33235e-07 
-5.25196 -2.10747 -3.95956e-07 
-5.0408 -2.09083 1.96655e-08 
-4.81898 -2.10504 -7.75549e-07 
-4.60172 -2.11215 -4.1788e-08 
-4.38511 -2.11411 -1.09023e-06 
-4.17377 -2.09742 -6.90061e-07 
-3.95767 -2.08717 -7.13166e-07 
-3.74596 -2.08446 -3.73277e-07 
-3.52792 -2.10106 -1.36357e-06 
-3.31844 -2.10539 -1.81092e-06 
-3.10436 -2.11671 -5.67442e-07 
-2.89902 -2.11223 -1.40196e-06 
-2.68386 -2.11859 -6.52447e-07 
-2.47569 -2.14025 -1.60496e-06 
-2.26698 -2.16342 -1.81155e-06 
-2.04089 -2.13747 -4.26285e-06 
-1.8215 -2.14069 -6.89471e-06 
-1.59157 -2.1249 -3.74558e-06 
-1.38333 -2.07023 -1.64243e-06 
-1.16984 -1.9543 1.12442e-05 
-1.06514 -2.14709 4.16239e-07 
-0.826394 -2.08146 2.15185e-05 
-0.600793 -1.9442 -2.46264e-05 
-0.370914 -1.89654 2.49193e-05 
-0.161474 -1.92172 2.28418e-05 
0.031683 -1.81956 6.84592e-06 
0.217892 -1.60914 -3.13517e-05 
0.344846 -1.8345 4.96234e-05 
0.572387 -1.90116 -4.29561e-05 
0.77494 -2.03571 1.45789e-05 
0.981503 -2.06562 -2.27196e-05 
1.18075 -2.08819 3.45284e-07 
1.43658 -2.16296 4.69067e-06 
1.65569 -2.10908 8.19326e-06 
1.8739 -2.16431 3.68214e-06 
2.10487 -2.18013 -1.20413e-08 
2.36218 -2.14031 4.4929e-06 
2.56522 -2.11954 2.17141e-06 
2.7882 -2.1594 2.34801e-06 
2.98776 -2.09791 7.14597e-07 
3.20611 -2.10217 1.77046e-06 
3.40722 -2.09866 1.3004e-06 
3.62196 -2.08083 7.67249e-07 
3.84091 -2.10117 9.54051e-07 
4.04374 -2.10812 8.28754e-07 
4.27289 -2.09345 3.96033e-07 
4.48512 -2.08656 9.08227e-07 
4.69661 -2.09193 -2.07502e-07 
4.91661 -2.10116 1.69993e-07 
5.12848 -2.09852 7.64131e-07 
5.33936 -2.10885 9.72808e-08 
5.5642 -2.09609 -8.6542e-07 
5.78061 -2.10496 3.1928e-07 
5.99101 -2.10577 3.77085e-07 
6.23492 -2.10529 -5.76137e-07 
6.44333 -2.09082 -1.7107e-06 
6.65544 -2.09385 -1.07826e-07 
6.91384 -2.08423 1.49706e-06 
7.12652 -2.11987 -3.99299e-06 
7.3525 -2.16797 -2.93577e-06 
7.53917 -2.06462 -3.33589e-06 
7.72017 -2.15524 -2.51116e-07 
7.94 -2.06226 2.82334e-06 
8.19639 -2.14043 -1.09222e-05 
8.48472 -2.07475 -4.44624e-06 
-8.48464 -1.77373 -3.45658e-06 
-8.31936 -1.89115 1.14201e-05 
-7.88323 -1.8921 -7.8424e-06 
-7.65904 -1.87582 -3.65591e-06 
[...]
POINT_DATA 1978 
VECTORS vectors float
0.0386207 -0.0534353 0.997853 
0.0514241 -0.0828557 0.995281 
0.0470354 -0.103547 0.993552 
0.0412206 -0.101823 0.993983 
0.0395736 -0.0859525 0.995536 
0.0429559 -0.0680181 0.996785 
0.046526 -0.05679 0.997325 
0.0460748 -0.0438307 0.997997 
0.0468449 -0.0345077 0.998322 
0.0478893 -0.0261512 0.998549 
0.0475179 -0.0181508 0.998707 
0.0482171 -0.0127787 0.998776 
0.0486939 -0.00851221 0.998798 
0.0488548 -0.00542761 0.998811 
0.0491876 -0.00319328 0.998805 
0.0492005 -0.00143371 0.998808 
0.0492595 0.000414728 0.998805 
0.0488986 0.00267575 0.99882 
0.0488228 0.00561889 0.998812 
0.0486033 0.00920173 0.998796 
0.0484175 0.0138208 0.998752 
0.0480603 0.0193546 0.998679 
0.0476392 0.0263795 0.998539 
0.0468334 0.0349967 0.998313 
0.0461814 0.0468211 0.997859 
0.0451463 0.0615812 0.997105 
0.0439125 0.0812681 0.99575 
0.0419726 0.105034 0.993609 
0.0398769 0.138128 0.98964 
0.0371661 0.180081 0.98298 
0.0341266 0.232091 0.972128 
0.0298389 0.296169 0.954705 
0.0258423 0.370679 0.928437 
0.0209454 0.467528 0.883769 
0.0155055 0.556274 0.830893 
0.00973136 0.697816 0.716247 
0.00507371 0.814571 0.580074 
0.00251207 0.897963 0.440114 
0.000621909 0.976289 0.216426 
8.03782e-05 0.999791 -0.0201468 
-0.00127906 0.971834 -0.235776 
-0.00358616 0.908354 -0.418243 
-0.00650375 0.806056 -0.59182 
-0.0091291 0.697226 -0.716797 
-0.0149967 0.577136 -0.816558 
-0.0210517 0.469799 -0.88256 
-0.0246924 0.385207 -0.922536 
-0.0300548 0.295672 -0.95485 
-0.0335637 0.236473 -0.971089 
-0.0369877 0.182093 -0.982618 
-0.0394864 0.137997 -0.989676 
-0.0414551 0.10788 -0.993327 
-0.0436777 0.0803383 -0.995838 
-0.0451312 0.0606395 -0.997164 
-0.0462238 0.04557 -0.997914 
-0.0469615 0.0346586 -0.998319 
-0.047713 0.0257146 -0.998552 
-0.0479188 0.0192508 -0.998687 
-0.0483759 0.014177 -0.99875 
-0.0485976 0.00990272 -0.99879 
-0.0487606 0.00655175 -0.998809 
-0.0491439 0.00362801 -0.998805 
-0.0490598 0.000995483 -0.998814 
-0.0490138 -0.00141915 -0.998816 
-0.0490969 -0.00393772 -0.998806 
-0.0488668 -0.00670236 -0.998802 
-0.0485591 -0.00994151 -0.998791 
-0.0484664 -0.0141568 -0.998746 
-0.0479711 -0.0194784 -0.99868 
-0.0473396 -0.0253223 -0.99858 
-0.0472251 -0.0337232 -0.998339 
-0.0466597 -0.0427894 -0.998017 
-0.0449806 -0.053665 -0.997571 
-0.0440235 -0.0715952 -0.99649 
-0.0435756 -0.0910691 -0.994917 
-0.0445216 -0.110582 -0.992897 
-0.0471684 -0.12043 -0.991639 
-0.0516316 -0.102988 -0.993412 
-0.0420178 -0.0499421 -0.997901 
0.0226164 -0.0635674 0.997759 
0.0377496 -0.0792515 0.996213 
0.0463234 -0.092292 0.99471 
0.0485808 -0.0967555 0.994181 
0.0470204 -0.0865786 0.995208 
0.0490886 -0.0699101 0.996417 
0.0542994 -0.0553275 0.997069 
0.0523373 -0.0456891 0.997632 
0.0569863 -0.0345055 0.997846 
0.0565077 -0.025615 0.998125 
0.0586482 -0.0183789 0.998183 
0.0572816 -0.0127104 0.998338 
0.0595321 -0.0087601 0.998247 
0.0591938 -0.00557153 0.99829 
0.0601756 -0.00318166 0.998241 
0.0600133 -0.00103648 0.998255 
0.0608676 0.00109903 0.998204 
0.0593765 0.00369263 0.998287 
0.0590342 0.00694448 0.998291 
0.058783 0.0109483 0.99827 
0.0588195 0.0157548 0.998204 
0.0575767 0.0217108 0.998166 
0.0565263 0.0291395 0.998037 
0.0542493 0.0388531 0.997833 
0.0531837 0.0513079 0.997328 
0.0512263 0.0674626 0.996469 
0.049503 0.0874669 0.995002 
0.0455325 0.113924 0.992512 
0.0418595 0.149738 0.987909 
0.0378361 0.193851 0.980375 
0.0332555 0.249949 0.967766 
0.0280317 0.319417 0.94728 
0.0222332 0.402381 0.91526 
0.017555 0.488019 0.872765 
0.0115332 0.609873 0.792499 
0.00694557 0.732411 0.680891 
0.00381792 0.831323 0.555872 
0.00163964 0.916682 0.399642 
0.00012249 0.977669 0.210219 
-0.00190871 0.999978 -0.00837673 
-0.0037183 0.975876 -0.218292 
-0.00566324 0.912194 -0.409774 
-0.00771939 0.819679 -0.572867 
-0.010635 0.697102 -0.71701 
-0.0149746 0.572261 -0.819976 
-0.0199283 0.465553 -0.88489 
-0.0252576 0.360646 -0.932427 
-0.0310402 0.285566 -0.957944 
-0.0349079 0.221515 -0.974605 
-0.0399459 0.168096 -0.985039 
-0.0447701 0.130702 -0.990472 
-0.0462499 0.0997951 -0.993997 
-0.0498608 0.0754068 -0.99597 
-0.0522376 0.0572106 -0.997057 
-0.0547213 0.0439198 -0.997597 
-0.0551189 0.0328077 -0.998001 
-0.0577863 0.0249331 -0.998078 
-0.0577531 0.0184892 -0.99822 
-0.0576363 0.0130928 -0.998311 
-0.0605719 0.00919282 -0.998181 
-0.059765 0.00578772 -0.998254 
-0.0603014 0.00278449 -0.998235 
-0.0609445 5.75485e-05 -0.998199 
-0.0595016 -0.00260123 -0.998282 
-0.0598762 -0.0054222 -0.998249 
-0.0601505 -0.00837874 -0.998213 
-0.0581653 -0.0120275 -0.998293 
-0.0576954 -0.0168832 -0.998251 
-0.0585421 -0.0224486 -0.998094 
-0.0546218 -0.0293934 -0.998136 
-0.0562069 -0.0383165 -0.997747 
-0.0559151 -0.0484058 -0.997326 
-0.0502287 -0.061866 -0.996885 
-0.0509683 -0.0794556 -0.9956 
-0.0502653 -0.0959979 -0.994175 
-0.0499187 -0.108594 -0.992886 
-0.0489015 -0.0970647 -0.994157 
-0.0352837 -0.0804042 -0.996228 
-0.0218661 -0.0643826 -0.997756 
0.0221356 -0.06336 0.997782 
0.040793 -0.0768951 0.996266 
0.0548724 -0.0904401 0.994461 
0.055274 -0.0915096 0.994334 
0.0630638 -0.0860566 0.994346 
0.0551446 -0.0807378 0.995269 
0.0630617 -0.0653763 0.995931 
0.0685923 -0.0519945 0.996338 
0.0667806 -0.0412619 0.996991 
0.0704647 -0.0311524 0.99709 
0.0716599 -0.0229565 0.997226 
0.0721527 -0.0163877 0.99732 
0.0739741 -0.0116802 0.99725 
0.074788 -0.00775025 0.997228 
0.0753274 -0.00488398 0.997205 
0.0757608 -0.00236734 0.997181 
0.0765488 -2.6146e-05 0.997123 
0.0757949 0.00270148 0.997178 
0.075042 0.00584477 0.997222 
0.0743678 0.00970384 0.997242 
0.0740096 0.0143408 0.997213 
0.0725457 0.0199692 0.997225 
0.0710922 0.0268323 0.997169 
0.068762 0.0357521 0.997053 
0.0670481 0.0469583 0.996705 
0.0645157 0.0617613 0.996065 
0.0621806 0.0802234 0.994899 
0.0580388 0.10438 0.992908 
0.052917 0.135241 0.989467 
0.0477213 0.177774 0.982987 
0.0414184 0.230167 0.972346 
0.0342279 0.299113 0.953686 
0.0262938 0.383805 0.923149 
0.0200283 0.476346 0.879091 
0.0132892 0.585524 0.810615 
0.00824298 0.698733 0.715435 
0.00382682 0.819145 0.573625 
0.000425393 0.921227 0.38912 
-0.0020342 0.980778 0.195178 
-0.00329097 0.999658 -0.0256938 
-0.00428919 0.975472 -0.220066 
-0.00736807 0.910862 -0.412737 
-0.0104826 0.816924 -0.576716 
-0.0128904 0.70076 -0.713374 
-0.0167818 0.580967 -0.813871 
-0.0224743 0.472347 -0.881202 
-0.0278365 0.377036 -0.925863 
-0.0350272 0.308316 -0.950718 
-0.0409038 0.240886 -0.969755 
-0.0459776 0.185811 -0.981576 
-0.0529627 0.143138 -0.988361 
-0.0569121 0.108301 -0.992555 
-0.0602691 0.0841453 -0.994693 
-0.0642996 0.0634316 -0.995975 
-0.0672611 0.0491867 -0.996584 
-0.0683848 0.0372438 -0.997024 
-0.0713822 0.0286917 -0.997096 
-0.0724901 0.0214987 -0.997196 
-0.0723864 0.0156657 -0.997313 
-0.0752029 0.0113112 -0.997162 
-0.0755862 0.0072879 -0.997171 
-0.0759208 0.00402014 -0.997164 
-0.0766143 0.00104015 -0.997118 
-0.0761708 -0.00189013 -0.99715 
-0.0754607 -0.00465258 -0.997195 
-0.0757774 -0.00766601 -0.997153 
-0.0744032 -0.0111071 -0.997224 
-0.0727656 -0.0153164 -0.99729 
-0.0731081 -0.0205851 -0.997171 
-0.0703175 -0.0274084 -0.99721 
-0.0691499 -0.0349739 -0.997056 
-0.0692633 -0.0452485 -0.996634 
-0.065581 -0.0579444 -0.996228 
-0.0628353 -0.0718262 -0.995501 
-0.0619616 -0.0878561 -0.994277 
-0.0594548 -0.0991193 -0.99336 
-0.0584394 -0.0952279 -0.993805 
-0.0392756 -0.0782978 -0.996234 
-0.0255016 -0.0635512 -0.997691 
0.0232401 -0.0557299 0.998226 
0.0378601 -0.0733313 0.996654 
0.0486109 -0.0842954 0.995324 
0.0583747 -0.0903842 0.994269 
0.06165 -0.08442 0.994585 
0.0658353 -0.0735179 0.995182 
0.0680992 -0.0597788 0.99596 
0.0703413 -0.0453376 0.996554 
0.0721674 -0.0360361 0.996803 
0.0736033 -0.026743 0.996989 
0.0752987 -0.019731 0.997025 
0.0765318 -0.0148001 0.997015 
0.0774086 -0.0103884 0.997002 
0.0781594 -0.00704912 0.996973 
0.0790894 -0.00420363 0.996915 
0.0794193 -0.00162398 0.996896 
0.0795736 0.00127895 0.996885 
0.079303 0.00442252 0.996897 
0.0786116 0.00808742 0.996929 
0.0774187 0.0124174 0.996978 
0.0758375 0.017731 0.99702 
0.0741509 0.0240023 0.997016 
0.0724543 0.0319223 0.996919 
0.0705407 0.0416405 0.996698 
0.0683254 0.0543067 0.996243 
0.0654975 0.070117 0.995447 
0.0618691 0.0914327 0.993951 
0.0577282 0.118124 0.991386 
0.0526306 0.152463 0.986978 
0.0454373 0.200976 0.978618 
0.0382768 0.260478 0.9648 
0.0300083 0.338375 0.940617 
0.0219259 0.42481 0.905119 
0.0139567 0.526569 0.850092 
0.0131849 0.573996 0.818852 
0.00639887 0.705917 0.708316 
0.00249701 0.823975 0.566734 
0.00083186 0.927157 0.374711 
-0.000342838 0.984975 0.17279 
-0.00294975 0.999292 -0.0380364 
-0.00381296 0.970364 -0.241672 
-0.00396684 0.934806 -0.35526 
-0.00603739 0.833032 -0.55326 
-0.010939 0.72729 -0.686348 
-0.0146131 0.616379 -0.787373 
-0.0191002 0.51222 -0.858744 
-0.0267834 0.395272 -0.918285 
-0.0333455 0.313764 -0.948976 
-0.0410005 0.243097 -0.969225 
-0.04827 0.184769 -0.981669 
-0.0546456 0.135936 -0.98928 
-0.0591264 0.106496 -0.99262 
-0.064053 0.0808134 -0.994716 
-0.0662019 0.0633841 -0.995868 
-0.0691962 0.048365 -0.996491 
-0.071454 0.0375987 -0.996794 
-0.0732276 0.0286216 -0.996962 
-0.0752668 0.0212449 -0.996995 
-0.0767002 0.0158311 -0.996986 
-0.077814 0.0108362 -0.996966 
-0.0785764 0.00686007 -0.996941 
-0.0791978 0.0033951 -0.99691 
-0.0795947 0.000137886 -0.996884 
-0.0795088 -0.00286568 -0.996886 
-0.0790855 -0.00578743 -0.996907 
-0.0781801 -0.00908666 -0.996954 
-0.0773633 -0.0126773 -0.996979 
-0.07624 -0.0169795 -0.997003 
-0.0747515 -0.0231247 -0.996994 
-0.0730753 -0.0296008 -0.996947 
-0.0714644 -0.0377062 -0.996792 
-0.0693784 -0.0503472 -0.996381 
-0.0679724 -0.0628424 -0.99577 
-0.0665192 -0.0772879 -0.994842 
-0.0637006 -0.08742 -0.994195 
-0.0630378 -0.0940251 -0.993635 
-0.0576514 -0.0930237 -0.994059 
-0.0461297 -0.0783279 -0.995931 
-0.0241973 -0.0636236 -0.997706 
0.0219836 -0.052425 0.998425 
0.0271645 -0.0681025 0.997391 
0.051816 -0.0921488 0.994453 
0.055795 -0.0896349 0.994475 
0.0553438 -0.0812951 0.995226 
0.0633447 -0.0732843 0.995353 
0.0605435 -0.0649329 0.996116 
0.0654746 -0.0526388 0.996528 
0.065198 -0.041264 0.99708 
0.0687723 -0.0319899 0.997179 
0.0696907 -0.0244192 0.997328 
0.0691381 -0.0186126 0.997492 
0.0715309 -0.0137541 0.997401 
0.0721425 -0.00983776 0.997403 
0.0728806 -0.00653289 0.997376 
0.073426 -0.00371829 0.99735 
0.0740695 -0.000537006 0.997309 
0.0741372 0.0027708 0.997301 
0.0738001 0.00641278 0.997309 
0.0725187 0.01053 0.997368 
0.0709395 0.0154577 0.997418 
0.0690083 0.0213831 0.997444 
0.0676965 0.0285453 0.997355 
0.0659393 0.0371096 0.997191 
0.0642138 0.0479377 0.996842 
0.0616374 0.0614146 0.996267 
0.0588572 0.0791417 0.995187 
0.0550157 0.102394 0.993287 
0.0510611 0.13157 0.990061 
0.0460138 0.170341 0.984385 
0.0377948 0.227139 0.97321 
0.0307537 0.29432 0.955283 
0.0221785 0.372495 0.927858 
0.0141329 0.463337 0.886162 
0.00665196 0.657115 0.753879 
0.00157036 0.771555 0.636228 
-0.00138329 0.892828 0.450439 
-0.00560097 0.953905 0.300267 
-0.00365158 0.97398 0.226704 
-0.00596763 0.999738 0.02324 
-0.00522838 0.986679 -0.16266 
-0.00521447 0.936652 -0.350263 
-0.00430477 0.860384 -0.50976 
-0.00639947 0.722702 -0.691229 
-0.0097317 0.610867 -0.791802 
-0.0153682 0.505842 -0.862543 
-0.02228 0.423382 -0.905737 
-0.0270368 0.344014 -0.938672 
-0.0344569 0.265602 -0.963548 
-0.0419909 0.208558 -0.977183 
-0.0485237 0.158568 -0.986227 
-0.051543 0.121586 -0.991312 
-0.0581578 0.0902321 -0.994302 
-0.0591085 0.0727872 -0.99564 
-0.0626137 0.0555598 -0.99655 
-0.0645254 0.0428348 -0.997055 
-0.0666383 0.0332224 -0.997282 
-0.0689185 0.0248785 -0.997369 
-0.0701879 0.0186838 -0.997416 
-0.0722755 0.0134159 -0.997351 
-0.0722017 0.00869491 -0.997409 
-0.0729453 0.00468839 -0.997382 
-0.073833 0.00105374 -0.997327 
-0.0736361 -0.0022657 -0.997339 
-0.0734755 -0.0054803 -0.997338 
-0.0731563 -0.00855878 -0.99734 
-0.071878 -0.0122349 -0.997395 
-0.0707055 -0.0163624 -0.997421 
-0.0705491 -0.0214674 -0.997336 
-0.0672987 -0.0281755 -0.997395 
-0.0658514 -0.0358507 -0.997246 
-0.0655494 -0.0457407 -0.996862 
-0.0623505 -0.0601202 -0.996314 
-0.0624063 -0.0737586 -0.995385 
-0.0577385 -0.086782 -0.994616 
-0.056295 -0.0935558 -0.994085 
-0.048338 -0.0884596 -0.994974 
-0.0394785 -0.0741132 -0.996537 
-0.0218069 -0.0628458 -0.99781 
0.0158548 -0.0597004 0.998115 
0.0252295 -0.0711793 0.997219 
0.0399029 -0.0790088 0.996142 
0.0442427 -0.0935744 0.994695 
0.0478869 -0.0911055 0.994746 
0.0505547 -0.0744196 0.99601 
0.0539313 -0.0580364 0.996919 
0.0562459 -0.0478346 0.997332 
0.0577344 -0.0357068 0.997753 
0.0595822 -0.0283022 0.997882 
0.0589212 -0.0222062 0.998075 
0.0595044 -0.016337 0.998153 
0.0615921 -0.0122867 0.998084 
0.0625959 -0.00869521 0.998059 
0.0618785 -0.00554136 0.998126 
0.0636515 -0.00222238 0.998027 
0.0637323 0.00136081 0.998023 
0.0634317 0.00520364 0.99803 
0.062084 0.00934601 0.998084 
0.0607811 0.014162 0.998108 
0.0592535 0.019896 0.998102 
0.0579491 0.0268468 0.998016 
0.0562953 0.034996 0.997858 
0.0549634 0.0450335 0.99753 
0.0526857 0.0575415 0.997011 
0.0504282 0.073877 0.996054 
0.0473396 0.0950912 0.994408 
0.0432124 0.124007 0.991411 
0.0396424 0.16041 0.98633 
0.0340453 0.208833 0.97744 
0.0250848 0.284033 0.958589 
0.0163694 0.373061 0.927755 
0.00772523 0.491498 0.870939 
0.00229997 0.601709 0.798771 
0.00684973 0.587668 0.809166 
2.8387e-05 0.711201 0.703086 
-0.00360574 0.846731 0.532116 
-0.00277546 0.872248 0.489125 
-0.00356448 0.999634 0.0264063 
-0.00106869 0.994904 0.100911 
0.00120869 0.99221 -0.124641 
-0.00207329 0.947753 -0.319031 
-0.00369569 0.849778 -0.527261 
-0.00411557 0.758682 -0.651526 
-0.00486443 0.630406 -0.776335 
-0.00888214 0.516834 -0.856152 
-0.0157819 0.412312 -0.911016 
-0.0229245 0.316873 -0.948284 
-0.0301866 0.243642 -0.969477 
-0.0380737 0.191437 -0.98083 
-0.0415625 0.150409 -0.987821 
-0.0472817 0.106575 -0.993248 
-0.0480749 0.0860959 -0.995191 
-0.0514101 0.0661282 -0.996546 
-0.0534349 0.0516748 -0.997293 
-0.0547114 0.0403629 -0.997744 
-0.0577447 0.030947 -0.997909 
-0.0586496 0.0238045 -0.998052 
-0.0600239 0.0175934 -0.998099 
-0.0622654 0.0123851 -0.99804 
-0.0614774 0.00762279 -0.998137 
-0.0626794 0.00338829 -0.998085 
-0.0627751 -0.000309222 -0.998085 
-0.062891 -0.00389006 -0.99807 
-0.062283 -0.00721859 -0.998089 
-0.0626998 -0.0104645 -0.998035 
-0.0606298 -0.0142225 -0.998117 
-0.060303 -0.0188026 -0.998062 
-0.0596572 -0.0240388 -0.997989 
-0.0558575 -0.0311924 -0.998012 
-0.0553985 -0.0399064 -0.997728 
-0.0563631 -0.0509249 -0.997163 
-0.051313 -0.0631942 -0.996744 
-0.0534159 -0.074936 -0.995821 
-0.0482261 -0.0879569 -0.99502 
-0.0477341 -0.0943348 -0.99446 
-0.0400192 -0.0898019 -0.995223 
-0.0301378 -0.0706972 -0.997111 
-0.0171528 -0.0623212 -0.997931 
0.0111374 -0.0634544 0.997943 
0.0221469 -0.0748626 0.997016 
0.0347467 -0.088454 0.995543 
0.0365517 -0.0947809 0.994901 
0.0430072 -0.0866801 0.995372 
0.0385028 -0.0771022 0.996342 
0.0439962 -0.0643534 0.997009 
0.041664 -0.0512623 0.997885 
0.0473577 -0.0416033 0.998062 
0.0456577 -0.0326052 0.998484 
0.046377 -0.0263244 0.998636 
0.0482852 -0.0201184 0.998689 
0.0475179 -0.0153473 0.99881 
0.0502908 -0.0115947 0.998724 
0.0504819 -0.00830813 0.998746 
0.0503412 -0.00471055 0.998777 
0.0518661 -0.00110485 0.99871 
0.0516074 0.00281176 0.99872 
0.0502888 0.00687189 0.998768 
0.0493213 0.0114718 0.998773 
0.0484895 0.0168404 0.998737 
0.047388 0.0230133 0.998667 
0.0459959 0.0302014 0.998541 
0.0447428 0.0388436 0.998299 
0.043299 0.0492713 0.997904 
0.0415369 0.0629266 0.997213 
0.0392459 0.0804744 0.996047 
0.0365024 0.104213 0.993954 
0.0324486 0.137016 0.990113 
0.0290093 0.178691 0.983559 
0.0239375 0.240796 0.970369 
0.0150604 0.328438 0.944499 
0.00749818 0.43592 0.900059 
0.00145272 0.552222 0.833774 
-0.00262792 0.77357 0.633744 
-0.000741105 0.840436 0.542021 
-0.000963091 0.916557 0.399898 
0.000561031 0.961034 0.276394 
-0.00236668 0.963909 0.266339 
0.00158473 0.998031 0.0626575 
0.00145406 0.9996 -0.0285407 
-0.000478689 0.978769 -0.204917 
-0.00109231 0.914576 -0.40465 
-0.00257228 0.803817 -0.594863 
-0.00142427 0.723836 -0.690087 
-0.00345973 0.556245 -0.831114 
-0.00859236 0.4342 -0.900862 
-0.0144769 0.341227 -0.939981 
-0.0218206 0.254251 -0.966981 
-0.029017 0.191495 -0.98117 
-0.0284114 0.15397 -0.987735 
-0.0374755 0.132336 -0.99055 
-0.0356789 0.104298 -0.993993 
-0.0393721 0.0800686 -0.996076 
-0.0415585 0.0625264 -0.997238 
-0.0429314 0.04852 -0.997957 
-0.0452396 0.0368907 -0.998351 
-0.0464171 0.0286646 -0.998567 
-0.0477801 0.021508 -0.998683 
-0.0490978 0.0153335 -0.998733 
-0.0504001 0.0102942 -0.998733 
-0.0504158 0.00516236 -0.998772 
-0.0503396 0.000977323 -0.998789 
-0.0508408 -0.0029726 -0.998759 
-0.0501903 -0.00664893 -0.998774 
-0.0503614 -0.0101554 -0.998736 
-0.0493469 -0.0135848 -0.998746 
-0.0487461 -0.0179671 -0.998707 
-0.0472849 -0.0232358 -0.99867 
-0.0456457 -0.0292611 -0.998589 
-0.0440084 -0.0382007 -0.99837 
-0.0449634 -0.0492394 -0.997836 
-0.0413134 -0.0636958 -0.997176 
-0.0416461 -0.079015 -0.996067 
-0.036369 -0.090757 -0.995271 
-0.0378274 -0.0955201 -0.994773 
-0.0309521 -0.0931178 -0.99524 
-0.0260308 -0.0756211 -0.996865 
-0.0124996 -0.063123 -0.997947 
0.00884232 -0.0634492 0.997964 
0.0176311 -0.0764448 0.996984 
0.0280689 -0.09355 0.995285 
0.026952 -0.0971612 0.994968 
0.0330937 -0.0909534 0.995368 
0.0297645 -0.0793261 0.996466 
0.0332486 -0.0627865 0.997534 
0.03135 -0.0494499 0.998344 
0.0358637 -0.0396806 0.998627 
0.0331308 -0.0322684 0.998988 
0.0361029 -0.02522 0.999087 
0.0373111 -0.0196093 0.999168 
0.0364285 -0.0152078 0.999285 
0.0389132 -0.011595 0.999231 
0.0398568 -0.00787041 0.999221 
0.0391768 -0.00390567 0.999289 
0.0404447 7.30999e-05 0.999229 
0.0392168 0.00427802 0.999277 
0.038169 0.0090047 0.9993 
0.0379072 0.0143144 0.999233 
0.0370373 0.0203062 0.999156 
0.0360993 0.0270371 0.999036 
0.0349569 0.0351183 0.998826 
0.0336366 0.0448319 0.998483 
0.0325155 0.0571157 0.997895 
0.0306332 0.0732326 0.996905 
0.0285353 0.0948862 0.995145 
0.0256796 0.124165 0.992002 
0.0218454 0.16637 0.985902 
0.0191263 0.220064 0.97537 
0.0135901 0.29078 0.956784 
0.00707095 0.39315 0.919528 
0.00223604 0.506831 0.86215 
4.52623e-05 0.641522 0.767222 
-0.000789789 0.652583 0.757809 
0.00153963 0.884663 0.466355 
0.00753549 0.959306 0.282436 
0.00840876 0.995619 0.0911739 
0.00769421 0.998211 0.0611356 
0.0056401 0.999693 0.0230066 
0.00431991 0.999953 -0.00993775 
0.00284669 0.994231 -0.107182 
-0.000907838 0.966906 -0.25524 
-0.00218179 0.863696 -0.504243 
-0.000868385 0.626667 -0.779346 
-0.00190167 0.551363 -0.834372 
-0.00241689 0.488035 -0.87292 
-0.00547327 0.397602 -0.917653 
-0.0128914 0.300574 -0.95375 
-0.0183921 0.223637 -0.974584 
-0.0199588 0.179281 -0.983674 
-0.0268605 0.123573 -0.992035 
-0.0286262 0.0916239 -0.995441 
-0.0308029 0.0713785 -0.99704 
-0.0325748 0.0560221 -0.997956 
-0.0344177 0.0430669 -0.998535 
-0.0349745 0.0337949 -0.998871 
-0.0364256 0.0260106 -0.999052 
-0.0376248 0.0193075 -0.99916 
-0.0379689 0.0135806 -0.99925 
-0.0401926 0.00831691 -0.999204 
-0.0387685 0.003513 -0.999306 
-0.0392811 -0.000892703 -0.999283 
-0.0389919 -0.00486223 -0.999283 
-0.0389941 -0.00873545 -0.999256 
-0.0380691 -0.0122018 -0.999256 
-0.0382549 -0.0159199 -0.999197 
-0.0368758 -0.0203661 -0.999169 
-0.034961 -0.0257771 -0.999114 
-0.035133 -0.0329154 -0.998905 
-0.0326033 -0.0417341 -0.99864 
-0.0347668 -0.051116 -0.998147 
-0.0304113 -0.0630759 -0.997607 
-0.0322811 -0.0765667 -0.996604 
-0.0278362 -0.0897762 -0.995635 
-0.0271896 -0.0971289 -0.994964 
-0.0222657 -0.0923622 -0.995544 
-0.0183036 -0.0742186 -0.997142 
-0.00902376 -0.063956 -0.997933 
0.00662284 -0.0634287 0.997991 
0.0128649 -0.0756576 0.997114 
0.0203203 -0.0940513 0.995426 
0.0198164 -0.0988885 0.994964 
0.0243734 -0.0912581 0.99559 
0.0210786 -0.0793483 0.996685 
0.0249122 -0.065691 0.997589 
0.023062 -0.0525436 0.998411 
0.0253047 -0.0404025 0.998922 