# vtk DataFile Version 3.0 
Exported using Morpho https://github.com/Morpho-lang/morpho 
ASCII 
DATASET UNSTRUCTURED_GRID 

POINTS 1978 float 
-12 -4.00001 -6.81311e-10 
-11.6391 -4 4.91364e-09 
-11.3466 -4 4.08412e-09 
-10.988 -4 3.05904e-09 
-10.6675 -4 2.26742e-09 
-10.3298 -4 1.4097e-09 
-10.0085 -4 1.39644e-09 
-9.66882 -4 1.08694e-09 
-9.32057 -4 9.65529e-10 
-8.99795 -4 4.69442e-10 
-8.69468 -4 4.68253e-10 
-8.37707 -4 3.28494e-10 
-8.06909 -4 1.34467e-10 
-7.77557 -4 1.10211e-10 
-7.48766 -4 8.83867e-11 
-7.20864 -4 -2.44077e-10 
-6.91645 -4 -1.74736e-10 
-6.61251 -4 -3.29129e-10 
-6.31227 -4 -4.7304e-10 
-6.01441 -4 -6.43762e-10 
-5.71557 -4 -8.42131e-10 
-5.42223 -4 -1.09413e-09 
-5.13177 -4 -1.46707e-09 
-4.84333 -4 -1.99696e-09 
-4.54294 -4 -2.66973e-09 
-4.23767 -4 -3.56366e-09 
-3.95445 -4 -4.85451e-09 
-3.64367 -4 -6.33427e-09 
-3.32567 -4 -7.65518e-09 
-3.04956 -4 -8.38792e-09 
-2.77407 -4 -9.11321e-09 
-2.53905 -4 -8.94426e-09 
-2.27427 -4 -6.98462e-09 
-1.98427 -4 -6.93454e-09 
-1.70533 -4 -4.93102e-09 
-1.41063 -4 -2.23761e-08 
-1.15096 -4 -4.48557e-08 
-0.832767 -4 -1.28361e-07 
-0.537864 -4 -3.16733e-07 
-0.204342 -4 -1.20729e-08 
0.223126 -4 3.7528e-07 
0.784827 -4 4.34965e-07 
1.06323 -4 6.65749e-08 
1.37893 -4 2.79738e-08 
1.64613 -4 8.32827e-09 
1.94392 -4 4.0545e-09 
2.23615 -4 8.60274e-09 
2.52277 -4 9.10472e-09 
2.79273 -4 8.81335e-09 
3.07936 -4 8.52149e-09 
3.36706 -4 7.45115e-09 
3.64494 -4 6.12303e-09 
3.93272 -4 4.67957e-09 
4.22513 -4 3.7019e-09 
4.52276 -4 2.90547e-09 
4.82109 -4 2.12631e-09 
5.11898 -4 1.59184e-09 
5.41055 -4 1.16202e-09 
5.71013 -4 9.22468e-10 
5.99139 -4 7.09587e-10 
6.29246 -4 4.15091e-10 
6.57846 -4 4.4232e-10 
6.87674 -4 1.48093e-10 
7.17113 -4 1.19542e-10 
7.46841 -4 1.44329e-10 
7.76399 -4 -1.81668e-10 
8.0643 -4 -1.15527e-12 
8.3603 -4 -4.56386e-10 
8.6614 -4 -3.63157e-10 
8.95712 -4 -5.99699e-10 
9.29365 -4 -8.06354e-10 
9.62195 -4 -1.00366e-09 
9.92453 -4 -1.37008e-09 
10.3028 -4 -1.63352e-09 
10.6292 -4 -2.409e-09 
11.003 -4 -3.07183e-09 
11.3267 -4 -4.06392e-09 
11.6111 -4 -4.59774e-09 
12 -4.00001 6.94919e-10 
-12 -3.62763 -4.7324e-09 
-11.7017 -3.68596 -1.94112e-10 
-11.3716 -3.61515 -1.02628e-09 
-11.0689 -3.6884 -1.08826e-09 
-10.7258 -3.65573 -1.1074e-09 
-10.3999 -3.6751 -7.3066e-10 
-10.0611 -3.65895 -6.68205e-10 
-9.7348 -3.68009 -3.59218e-10 
-9.39412 -3.69378 -4.53131e-10 
-9.05128 -3.67446 -2.64647e-10 
-8.72445 -3.65531 -2.0959e-10 
-8.41 -3.67223 -1.41476e-10 
-8.08408 -3.66022 -8.16786e-11 
-7.773 -3.65149 -5.48354e-12 
-7.47684 -3.64863 -8.84496e-11 
-7.17545 -3.66274 1.26878e-10 
-6.86404 -3.674 9.96862e-11 
-6.55386 -3.67273 1.61001e-10 
-6.2467 -3.67302 2.39617e-10 
-5.93903 -3.67588 3.25836e-10 
-5.63603 -3.67078 4.47988e-10 
-5.33612 -3.66817 6.11646e-10 
-5.03819 -3.66633 8.56572e-10 
-4.73371 -3.68014 1.11328e-09 
-4.41956 -3.68557 1.44035e-09 
-4.11896 -3.6613 2.22773e-09 
-3.81183 -3.69398 2.52872e-09 
-3.48819 -3.70166 2.92044e-09 
-3.18299 -3.65402 4.32804e-09 
-2.9035 -3.65207 4.34823e-09 
-2.64315 -3.58581 6.1131e-09 
-2.38977 -3.62833 4.46298e-09 
-2.10982 -3.65552 4.60315e-09 
-1.82252 -3.63822 5.58593e-09 
-1.53417 -3.6478 2.762e-08 
-1.24778 -3.5678 1.88849e-08 
-0.96714 -3.62503 1.17281e-07 
-0.668724 -3.58128 2.13677e-07 
-0.35095 -3.61405 1.77421e-07 
0.00557641 -3.69436 -1.14999e-07 
0.357152 -3.60935 -5.67633e-07 
0.624296 -3.77635 3.74717e-07 
1.00659 -3.57021 2.84949e-09 
1.29314 -3.64023 -6.42821e-08 
1.59244 -3.59731 -8.20962e-09 
1.86949 -3.65704 -4.41482e-09 
2.16667 -3.66392 -3.83601e-09 
2.4656 -3.66623 -4.48334e-09 
2.75345 -3.65016 -5.24959e-09 
3.03922 -3.67122 -4.25682e-09 
3.33954 -3.67636 -3.55457e-09 
3.63741 -3.66633 -3.54451e-09 
3.93312 -3.67363 -2.05283e-09 
4.23351 -3.67111 -1.95534e-09 
4.53789 -3.67257 -1.39765e-09 
4.8425 -3.67254 -1.04745e-09 
5.14117 -3.66655 -8.14453e-10 
5.44617 -3.67653 -5.40476e-10 
5.73554 -3.65508 -4.63844e-10 
6.03892 -3.67821 -2.8112e-10 
6.33288 -3.65972 -2.34327e-10 
6.63366 -3.67169 -1.52805e-10 
6.93327 -3.66355 -8.23031e-11 
7.23356 -3.66359 -3.34562e-11 
7.53375 -3.65877 -5.98615e-11 
7.83284 -3.66165 9.22171e-11 
8.1312 -3.65253 3.95278e-11 
8.43454 -3.65519 1.95272e-10 
8.73506 -3.64625 1.93303e-10 
9.0595 -3.68793 3.39083e-10 
9.39069 -3.67777 2.82611e-10 
9.70342 -3.64677 5.04293e-10 
10.0525 -3.71563 6.10809e-10 
10.3937 -3.66729 8.19401e-10 
10.7521 -3.70765 1.10176e-09 
11.0868 -3.65929 1.14849e-09 
11.3829 -3.61073 9.90698e-10 
11.7221 -3.71464 8.28306e-12 
12 -3.60422 4.76651e-09 
-12 -3.31432 -2.4648e-09 
-11.6493 -3.3325 -4.93252e-10 
-11.3073 -3.27857 -1.73765e-10 
-10.9927 -3.34968 -8.10244e-10 
-10.6674 -3.3173 -6.14119e-10 
-10.3439 -3.34523 -5.66007e-10 
-10.0206 -3.32346 -3.35732e-10 
-9.69606 -3.35798 -3.14747e-10 
-9.37714 -3.37204 -2.16612e-10 
-9.07358 -3.32665 -1.76796e-10 
-8.77379 -3.32786 -1.40087e-10 
-8.45575 -3.33073 -1.08121e-10 
-8.14945 -3.33757 -7.13998e-11 
-7.83278 -3.32046 -2.39046e-11 
-7.52827 -3.30896 -4.68794e-12 
-7.22607 -3.32468 2.85458e-11 
-6.92422 -3.34572 6.15154e-11 
-6.61984 -3.34769 1.01408e-10 
-6.31561 -3.34739 1.48617e-10 
-6.01338 -3.35303 2.15841e-10 
-5.7123 -3.34581 2.86715e-10 
-5.41363 -3.34025 3.76489e-10 
-5.11659 -3.33659 5.02943e-10 
-4.81658 -3.35242 7.37113e-10 
-4.51368 -3.37169 1.10219e-09 
-4.21058 -3.34166 1.23708e-09 
-3.89687 -3.36663 1.82727e-09 
-3.59333 -3.39663 2.66292e-09 
-3.29059 -3.35399 2.85866e-09 
-2.98384 -3.29967 2.6008e-09 
-2.67619 -3.27028 3.02415e-09 
-2.36121 -3.24609 3.028e-09 
-2.10237 -3.29696 1.53146e-09 
-1.82571 -3.27116 3.05512e-09 
-1.54067 -3.28001 3.3612e-09 
-1.24625 -3.18204 4.92551e-08 
-0.955623 -3.22033 4.18979e-08 
-0.651098 -3.20074 -1.29534e-08 
-0.333187 -3.23967 4.35075e-07 
0.0120682 -3.33074 -3.18978e-07 
0.389719 -3.26819 -1.31535e-07 
0.732325 -3.40065 -2.21178e-07 
1.0563 -3.17692 -5.92523e-08 
1.3334 -3.2539 7.29587e-08 
1.56213 -3.14269 -3.54263e-08 
1.81587 -3.26773 -4.21544e-09 
2.09311 -3.31447 -5.9338e-09 
2.38648 -3.33551 -4.81536e-09 
2.6837 -3.31659 -3.31335e-09 
2.97886 -3.33316 -3.20114e-09 
3.27782 -3.35737 -2.80243e-09 
3.58153 -3.34466 -2.31008e-09 
3.88745 -3.35218 -1.76869e-09 
4.18951 -3.34697 -1.39977e-09 
4.49478 -3.34789 -1.04218e-09 
4.8001 -3.34841 -7.7906e-10 
5.1043 -3.33724 -5.54187e-10 
5.4056 -3.35282 -4.347e-10 
5.70499 -3.31979 -2.56538e-10 
6.00326 -3.35218 -2.30616e-10 
6.30286 -3.32891 -1.41642e-10 
6.60467 -3.34355 -1.10399e-10 
6.90776 -3.33468 -6.435e-11 
7.21395 -3.33144 -3.51557e-11 
7.51932 -3.32464 -3.61086e-12 
7.8265 -3.31917 2.65982e-11 
8.13376 -3.3134 5.76856e-11 
8.43838 -3.3093 1.04186e-10 
8.76189 -3.32251 1.36884e-10 
9.08533 -3.36666 2.0838e-10 
9.402 -3.33892 2.00666e-10 
9.72009 -3.3051 2.02955e-10 
10.028 -3.40207 5.08269e-10 
10.3201 -3.31615 4.62296e-10 
10.645 -3.39038 8.21841e-10 
10.9736 -3.34549 7.72374e-10 
11.2923 -3.25795 1.34309e-10 
11.6339 -3.35812 4.83797e-10 
12 -3.30367 2.59017e-09 
-12 -2.9997 -2.23077e-09 
-11.6528 -3.01431 1.64633e-10 
-11.3082 -2.95961 3.79374e-10 
-10.9622 -3.00859 -5.35129e-11 
-10.6316 -2.98551 -1.06097e-10 
-10.3107 -3.0095 -1.33044e-10 
-9.98225 -2.99434 -5.3524e-11 
-9.67122 -3.01238 3.01325e-11 
-9.3657 -3.03151 2.67634e-11 
-9.06092 -2.97847 2.57233e-11 
-8.74158 -2.99936 -6.59599e-12 
-8.43031 -2.99307 -9.76608e-12 
-8.11435 -3.01093 -8.19507e-12 
-7.80794 -2.98558 -4.26607e-12 
-7.49891 -2.98078 3.62668e-12 
-7.19917 -2.98934 2.74852e-12 
-6.90361 -3.0162 6.87926e-12 
-6.60091 -3.02116 8.70702e-12 
-6.30049 -3.02139 1.41631e-11 
-6.00148 -3.02718 2.20604e-11 
-5.70561 -3.01708 3.03338e-11 
-5.40993 -3.01066 4.31153e-11 
-5.10762 -3.01427 6.41819e-11 
-4.8046 -3.02605 1.01884e-10 
-4.50497 -3.04807 1.60966e-10 
-4.20778 -3.01023 1.45315e-10 
-3.91079 -3.05507 2.50972e-10 
-3.59458 -3.07393 4.23587e-10 
-3.28671 -3.03533 3.78489e-10 
-2.98337 -2.9749 2.73725e-10 
-2.66136 -2.95838 7.60762e-10 
-2.35886 -2.91744 9.05542e-10 
-2.05622 -2.91551 3.16059e-09 
-1.77572 -2.90125 8.47596e-09 
-1.48954 -2.90587 1.11007e-08 
-1.19085 -2.77669 4.76224e-08 
-0.914728 -2.84107 1.03641e-07 
-0.608747 -2.83903 1.70242e-07 
-0.266251 -2.89761 -5.82212e-07 
0.0606495 -2.98456 5.47784e-07 
0.425861 -2.92459 -1.70501e-07 
0.739898 -3.04786 7.21904e-08 
0.922549 -2.76351 -2.04308e-07 
1.21125 -2.8153 -1.22761e-07 
1.51247 -2.78134 8.13404e-09 
1.82164 -2.85734 -9.83757e-09 
2.08071 -2.93339 -1.8216e-09 
2.35887 -2.98585 -1.909e-09 
2.64946 -2.98935 -1.22949e-09 
2.94702 -2.99972 -4.72915e-10 
3.2464 -3.03476 -5.64061e-10 
3.55091 -3.02533 -3.17349e-10 
3.86121 -3.03547 -2.1558e-10 
4.16813 -3.02304 -2.21383e-10 
4.47185 -3.02525 -1.3477e-10 
4.77922 -3.02546 -1.21761e-10 
5.08549 -3.01446 -6.40517e-11 
5.39209 -3.02576 -5.55657e-11 
5.69435 -2.9954 -2.57862e-11 
5.99686 -3.02346 -2.29972e-11 
6.29689 -3.00272 -1.08749e-11 
6.59871 -3.01667 -8.38438e-12 
6.90387 -3.01004 -7.31792e-12 
7.20532 -3.00135 -2.71237e-12 
7.50752 -2.99541 -1.64363e-12 
7.81364 -2.98805 1.8896e-12 
8.12125 -2.97892 6.5853e-12 
8.42941 -2.96881 5.50791e-12 
8.73695 -2.99453 6.1343e-12 
9.05924 -3.03511 -5.90571e-12 
9.37984 -3.00914 -3.98671e-11 
9.68143 -2.95923 -4.67056e-11 
10.002 -3.04252 7.49534e-11 
10.327 -2.98078 1.16591e-10 
10.649 -3.05698 1.58119e-10 
10.971 -3.00389 1.91926e-11 
11.3211 -2.94204 -4.22689e-10 
11.6593 -3.04699 -1.29946e-10 
12 -2.98174 2.22808e-09 
-12 -2.6793 -1.65659e-09 
-11.6608 -2.6984 2.327e-10 
-11.3433 -2.62508 4.50591e-10 
-11.0058 -2.68971 1.34112e-10 
-10.665 -2.66033 2.59882e-11 
-10.3311 -2.6745 -2.0162e-11 
-10.0085 -2.66924 2.53982e-11 
-9.67597 -2.67231 9.96266e-11 
-9.3591 -2.68442 8.66574e-11 
-9.03149 -2.65408 5.82313e-11 
-8.71583 -2.66705 2.73626e-11 
-8.39382 -2.67127 1.36833e-11 
-8.08683 -2.67683 9.13573e-12 
-7.77224 -2.66137 6.01627e-12 
-7.46641 -2.65234 1.08822e-12 
-7.1666 -2.65758 -4.53369e-12 
-6.86574 -2.69185 -1.1157e-11 
-6.5652 -2.69553 -1.67203e-11 
-6.26497 -2.69683 -2.33484e-11 
-5.97006 -2.69759 -3.26515e-11 
[...]
POINT_DATA 1978 
VECTORS vectors float
0.00435711 -0.00604841 0.99997 
0.00773867 -0.0184256 0.999801 
0.00536828 -0.0154285 0.999866 
0.00562409 -0.0101122 0.999932 
0.00568234 -0.00783529 0.999953 
0.00587254 -0.00708398 0.999957 
0.00559406 -0.00633823 0.999964 
0.00552639 -0.00514419 0.99997 
0.00574466 -0.00383378 0.999975 
0.00606809 -0.00279557 0.999978 
0.00636769 -0.00199526 0.999978 
0.00649323 -0.00133057 0.999978 
0.00660419 -0.000811084 0.999978 
0.00675995 -0.000333999 0.999977 
0.00664044 2.3242e-05 0.999978 
0.00675496 0.000382861 0.999977 
0.00677365 0.000900506 0.999977 
0.00667175 0.0015035 0.999977 
0.00662491 0.00218173 0.999976 
0.00666908 0.00302524 0.999974 
0.00668518 0.0041144 0.99997 
0.00666487 0.00551088 0.999963 
0.00657834 0.00737696 0.999952 
0.00650735 0.00996523 0.99993 
0.00651194 0.013775 0.999884 
0.00619038 0.0191525 0.999798 
0.00594025 0.0260691 0.999643 
0.00589844 0.0367807 0.999306 
0.00546601 0.052372 0.998613 
0.00505543 0.0709025 0.997471 
0.00436931 0.0956328 0.995408 
0.00351138 0.123663 0.992319 
0.00282037 0.165137 0.986267 
0.00142049 0.226449 0.974023 
-0.00049801 0.303682 0.952774 
-0.00223808 0.408806 0.912619 
-0.00477999 0.523551 0.851981 
-0.00636084 0.690925 0.722898 
-0.00617394 0.843587 0.536956 
-0.00409855 0.972363 0.233435 
0.000515401 0.974805 -0.223033 
0.00353086 0.733188 -0.68001 
0.00445872 0.588726 -0.80832 
0.00338695 0.439475 -0.898249 
0.00101522 0.337011 -0.941501 
-0.000778911 0.245727 -0.969339 
-0.00251415 0.179395 -0.983775 
-0.00360971 0.131703 -0.991283 
-0.00441881 0.0983208 -0.995145 
-0.00517373 0.0719704 -0.997394 
-0.00559877 0.052398 -0.998611 
-0.0057995 0.0388062 -0.99923 
-0.00616161 0.0285575 -0.999573 
-0.00628246 0.0203655 -0.999773 
-0.00635803 0.0146668 -0.999873 
-0.00652843 0.0106321 -0.999923 
-0.00654659 0.00780779 -0.999948 
-0.00671697 0.00582048 -0.999961 
-0.00663977 0.00430463 -0.999969 
-0.00675051 0.00323877 -0.999972 
-0.00675717 0.00235133 -0.999975 
-0.00671145 0.00166978 -0.999976 
-0.00675215 0.00107957 -0.999977 
-0.00671595 0.000567677 -0.999978 
-0.00668661 9.50622e-05 -0.999978 
-0.00670346 -0.000350127 -0.999978 
-0.00667607 -0.000803328 -0.999978 
-0.00665559 -0.00129499 -0.999977 
-0.00641958 -0.00189934 -0.999978 
-0.00623894 -0.00266182 -0.999977 
-0.00616644 -0.00379505 -0.999973 
-0.00569786 -0.00500986 -0.999971 
-0.00550809 -0.00599252 -0.999966 
-0.00511074 -0.00696363 -0.999961 
-0.00499516 -0.00772668 -0.999956 
-0.00541223 -0.0101945 -0.999932 
-0.00523189 -0.0150331 -0.999873 
-0.00787153 -0.0184054 -0.9998 
-0.00465027 -0.00602084 -0.999969 
0.00278926 -0.00733594 0.999973 
0.00821199 -0.0144956 0.999863 
0.0111675 -0.0154951 0.999819 
0.0110368 -0.0118685 0.99987 
0.0118682 -0.00871903 0.999893 
0.0118048 -0.00704126 0.999907 
0.0121249 -0.00598789 0.99991 
0.0119425 -0.00508684 0.999917 
0.0118163 -0.00402832 0.999924 
0.012027 -0.00296666 0.999925 
0.0124593 -0.00210637 0.999922 
0.0122575 -0.00142187 0.999925 
0.0125301 -0.000852443 0.999923 
0.0126361 -0.000369315 0.999922 
0.0128927 3.33352e-05 0.999918 
0.0126484 0.000470181 0.999921 
0.012576 0.00100891 0.999922 
0.0126765 0.00162707 0.99992 
0.0126917 0.00236203 0.999918 
0.0126285 0.00329501 0.999916 
0.0126613 0.00450098 0.999911 
0.0126082 0.00610392 0.999903 
0.0125309 0.00830644 0.999888 
0.0121902 0.0114664 0.999861 
0.0119236 0.0160793 0.999801 
0.0120192 0.0223274 0.99968 
0.0111639 0.0312185 0.999452 
0.0105341 0.0445652 0.998952 
0.0105397 0.0623605 0.997999 
0.00966706 0.0847416 0.996357 
0.00950209 0.112148 0.993648 
0.00788109 0.148156 0.988934 
0.0061032 0.20076 0.979623 
0.00461152 0.270618 0.962677 
0.00276545 0.364378 0.931248 
0.00213301 0.479158 0.877727 
0.000318944 0.618429 0.785841 
0.000759725 0.774631 0.632412 
0.000512066 0.92442 0.381371 
0.00083048 0.999928 0.0117708 
0.00169012 0.936087 -0.351759 
0.00309386 0.819614 -0.572905 
-0.000779484 0.616697 -0.7872 
-0.000923192 0.479659 -0.877455 
-0.00324809 0.357263 -0.933999 
-0.0044019 0.268723 -0.963209 
-0.00623234 0.19652 -0.980481 
-0.00784958 0.142563 -0.989756 
-0.00927584 0.104442 -0.994489 
-0.00986333 0.0764043 -0.997029 
-0.0105098 0.0549547 -0.998435 
-0.0112842 0.0397449 -0.999147 
-0.0114926 0.0286812 -0.999524 
-0.0119332 0.0206111 -0.999718 
-0.0121247 0.0147913 -0.999818 
-0.0123396 0.0106574 -0.999868 
-0.0125829 0.00779411 -0.999892 
-0.0125302 0.00569968 -0.999907 
-0.0129271 0.00424791 -0.999909 
-0.0125847 0.00310482 -0.999917 
-0.0129332 0.00224804 -0.999915 
-0.0127306 0.00154852 -0.999919 
-0.0128559 0.000968126 -0.999918 
-0.0127852 0.000459812 -0.99992 
-0.0128634 -6.91538e-06 -0.999919 
-0.0127857 -0.000456942 -0.999919 
-0.0127882 -0.000921475 -0.999919 
-0.0125965 -0.00146113 -0.999921 
-0.0126314 -0.0021192 -0.99992 
-0.0120829 -0.00301443 -0.999924 
-0.0120931 -0.00403955 -0.99992 
-0.0122979 -0.00493582 -0.999914 
-0.0114135 -0.00599715 -0.999918 
-0.0119458 -0.00696467 -0.999906 
-0.0111965 -0.00877422 -0.9999 
-0.0114087 -0.0121032 -0.999863 
-0.0112173 -0.0157112 -0.999815 
-0.0079095 -0.0142194 -0.99987 
-0.00284855 -0.00734294 -0.999973 
0.00164646 -0.00698266 0.999976 
0.00877816 -0.0155304 0.999843 
0.0105117 -0.0156221 0.999824 
0.0117497 -0.0117378 0.999863 
0.0119521 -0.008605 0.999893 
0.0123592 -0.00660772 0.999903 
0.0122368 -0.00548006 0.999911 
0.0125874 -0.00474924 0.999911 
0.0128849 -0.00398042 0.99991 
0.0126166 -0.0031149 0.999917 
0.0126312 -0.00229214 0.999919 
0.0126943 -0.00155966 0.99992 
0.01284 -0.000989364 0.999918 
0.0127358 -0.0004951 0.99992 
0.0126564 -4.81659e-05 0.999921 
0.0127581 0.000405506 0.99992 
0.0130555 0.000912093 0.999915 
0.0130607 0.00149185 0.999915 
0.0130442 0.00219085 0.999914 
0.0130548 0.00306239 0.999911 
0.0129278 0.00419337 0.999909 
0.01278 0.00569398 0.999903 
0.0126211 0.00772723 0.999892 
0.0126941 0.010643 0.999864 
0.0127481 0.0147597 0.999811 
0.0122241 0.0204213 0.999718 
0.0121728 0.0287938 0.999512 
0.0120723 0.0401674 0.999121 
0.011446 0.0555733 0.99839 
0.0108225 0.0773695 0.996945 
0.0106306 0.108659 0.994023 
0.0103865 0.151799 0.988358 
0.0098837 0.201132 0.979515 
0.00998424 0.269177 0.96304 
0.00965607 0.357958 0.933689 
0.0122307 0.475084 0.879856 
0.0114985 0.616867 0.786984 
0.0110568 0.779185 0.626696 
0.00723172 0.928357 0.371614 
0.00154993 0.999938 0.010831 
-0.00379193 0.924178 -0.381941 
-0.0034856 0.761395 -0.648278 
-0.0120138 0.587396 -0.809211 
-0.00958827 0.457795 -0.889007 
-0.0123317 0.364672 -0.931055 
-0.00975562 0.283381 -0.958959 
-0.00967784 0.212423 -0.977131 
-0.0101296 0.155639 -0.987763 
-0.0106291 0.113275 -0.993508 
-0.0109537 0.0819773 -0.996575 
-0.0113894 0.0592866 -0.998177 
-0.0116781 0.0425019 -0.999029 
-0.0120384 0.0304255 -0.999466 
-0.0122784 0.0219363 -0.999685 
-0.0124728 0.0157516 -0.999799 
-0.0126384 0.0113303 -0.999857 
-0.012708 0.00822268 -0.999887 
-0.0129427 0.00602413 -0.999899 
-0.0126698 0.00441149 -0.999911 
-0.0130562 0.00325029 -0.999911 
-0.0128408 0.00232883 -0.999916 
-0.0130586 0.00161271 -0.999914 
-0.0129452 0.00100778 -0.999917 
-0.0128623 0.000481415 -0.999919 
-0.0128065 6.26065e-06 -0.999919 
-0.0126774 -0.00045521 -0.999921 
-0.0126214 -0.000943604 -0.999921 
-0.0125482 -0.00150907 -0.999921 
-0.0126641 -0.00225503 -0.999918 
-0.0129013 -0.00312919 -0.999913 
-0.012537 -0.00402582 -0.999915 
-0.0121579 -0.00477972 -0.999916 
-0.0129048 -0.00556792 -0.999903 
-0.0121876 -0.00645891 -0.999906 
-0.0126491 -0.0084017 -0.999886 
-0.0117936 -0.0115196 -0.999865 
-0.0103028 -0.0154366 -0.999829 
-0.00919341 -0.0157201 -0.999836 
-0.00169089 -0.00685857 -0.999977 
0.0012121 -0.0065884 0.999979 
0.00631007 -0.0160788 0.999853 
0.00750228 -0.0162515 0.999841 
0.00851194 -0.011832 0.999895 
0.00856302 -0.00835058 0.99993 
0.00893211 -0.00619867 0.999942 
0.00883918 -0.00511351 0.999949 
0.00914501 -0.0046011 0.999949 
0.00944149 -0.00393803 0.999949 
0.00896191 -0.00312667 0.999956 
0.0092404 -0.00225561 0.999956 
0.00921754 -0.00153912 0.999958 
0.00947382 -0.000951654 0.999956 
0.00925904 -0.000471052 0.999958 
0.0092094 -1.64972e-05 0.999959 
0.00933917 0.000443958 0.999957 
0.00956528 0.000937769 0.999955 
0.00963573 0.00152864 0.999954 
0.00962771 0.00223145 0.999952 
0.00964892 0.00310713 0.99995 
0.0094913 0.00423051 0.999947 
0.00937056 0.00573622 0.999941 
0.00937322 0.00786518 0.999926 
0.00941495 0.0107916 0.999899 
0.00955683 0.0148472 0.999846 
0.00918246 0.0205346 0.999748 
0.0095182 0.0282326 0.999557 
0.00964933 0.0396183 0.99917 
0.00956644 0.0552739 0.998427 
0.00977074 0.0765539 0.997019 
0.010724 0.108629 0.994026 
0.012279 0.15028 0.988568 
0.0141431 0.206105 0.978429 
0.016835 0.276111 0.960979 
0.0194404 0.369238 0.929133 
0.0273254 0.486296 0.873368 
0.0268496 0.626376 0.779059 
0.0249977 0.793447 0.608124 
0.012891 0.950738 0.309724 
-0.000924814 0.998941 -0.0459559 
-0.0148159 0.906926 -0.421027 
-0.0154188 0.752883 -0.657973 
-0.0298569 0.644556 -0.763974 
-0.0253715 0.499613 -0.865878 
-0.0227598 0.373166 -0.927486 
-0.0171781 0.274145 -0.961536 
-0.0139331 0.210357 -0.977527 
-0.0120612 0.157692 -0.987416 
-0.0109671 0.11592 -0.993199 
-0.0100298 0.0836322 -0.996448 
-0.00970267 0.0607996 -0.998104 
-0.00938922 0.0435824 -0.999007 
-0.00940936 0.0311831 -0.999471 
-0.00930391 0.0223582 -0.999708 
-0.00935902 0.0161536 -0.999827 
-0.00943388 0.0116287 -0.999889 
-0.00936378 0.00838883 -0.999922 
-0.00951625 0.00608206 -0.999938 
-0.00929337 0.00447651 -0.999948 
-0.0095753 0.00325585 -0.99995 
-0.00944091 0.00235114 -0.999954 
-0.00954388 0.00160712 -0.999955 
-0.0095194 0.0010012 -0.999955 
-0.00945664 0.000485332 -0.999956 
-0.00935885 1.0506e-05 -0.999957 
-0.00925696 -0.000451431 -0.999958 
-0.0091242 -0.000940748 -0.999959 
-0.00896913 -0.00151811 -0.99996 
-0.00917049 -0.00222129 -0.999957 
-0.00953935 -0.00309961 -0.999951 
-0.00916675 -0.00397178 -0.999951 
-0.00854853 -0.00459878 -0.999954 
-0.00933903 -0.00519587 -0.999944 
-0.00863493 -0.00625116 -0.999945 
-0.00933136 -0.00854776 -0.999921 
-0.00848333 -0.0120028 -0.999893 
-0.00731387 -0.0164145 -0.99984 
-0.00648093 -0.015867 -0.999855 
-0.00122682 -0.00701076 -0.999977 
0.000582522 -0.00605387 0.999983 
0.0042871 -0.0165161 0.999856 
0.00498924 -0.0171923 0.999841 
0.00570736 -0.0126289 0.999905 
0.00559509 -0.00856368 0.999949 
0.00575944 -0.0060338 0.999967 
0.00579777 -0.00498541 0.999972 
0.00593633 -0.00455089 0.999973 
0.00614325 -0.00394237 0.999975 
0.00601071 -0.00308798 0.999978 
0.00618298 -0.00222915 0.99998 
0.00626941 -0.00148957 0.999981 
0.00635566 -0.000925688 0.999981 
0.00628909 -0.000434039 0.999981 
0.00625216 1.78229e-05 0.999982 
0.00630031 0.00047968 0.999981 
0.00655711 0.000995164 0.999979 
0.00659148 0.00158923 0.999978 
0.00658818 0.00230536 0.999977 
0.00656671 0.00318975 0.999975 
0.00647489 0.00434601 0.999971 
0.00646605 0.00593961 0.999963 
0.0064928 0.0081539 0.999947 
0.00655518 0.0112293 0.999917 
0.00667596 0.0153794 0.999861 
0.00664405 0.0215068 0.999748 
0.00722047 0.0300394 0.999524 
0.00758377 0.041594 0.999107 
0.00816392 0.0572685 0.998327 
0.00963741 0.0829666 0.996507 
0.0120473 0.11558 0.993226 
0.0155206 0.158667 0.987212 
0.0203939 0.213075 0.976824 
0.0263418 0.288943 0.956985 
0.0337189 0.380205 0.924289 
0.0487679 0.500086 0.864602 
0.0490025 0.653487 0.755351 
0.0721526 0.722569 0.68752 
0.0366482 0.859017 0.510629 
0.0131589 0.984726 0.173603 
-0.0134684 0.978218 -0.207132 
-0.0351804 0.812143 -0.582395 
-0.0559629 0.65891 -0.750137 
-0.0468133 0.508394 -0.859852 
-0.0366181 0.387811 -0.921012 
-0.0259393 0.278413 -0.960112 
-0.0192551 0.202789 -0.979035 
-0.0144924 0.151886 -0.988293 
-0.0115194 0.109231 -0.993951 
-0.00948613 0.0784908 -0.996871 
-0.00821291 0.0562012 -0.998387 
-0.00743182 0.0400071 -0.999173 
-0.00702362 0.0289278 -0.999558 
-0.0067061 0.0208939 -0.99976 
-0.0066387 0.0150485 -0.999866 
-0.00658497 0.0108607 -0.999921 
-0.00652983 0.00783748 -0.999949 
-0.00654218 0.00576005 -0.999963 
-0.00640325 0.00419555 -0.999972 
-0.00654994 0.00308964 -0.999975 
-0.00647065 0.00219921 -0.999978 
-0.00656437 0.00149242 -0.999979 
-0.00646923 0.000908394 -0.99998 
-0.00638342 0.000403303 -0.999981 
-0.00632076 -6.40267e-05 -0.999981 
-0.00622332 -0.000522193 -0.999982 
-0.00610823 -0.00101911 -0.999982 
-0.0059863 -0.00162055 -0.999982 
-0.00605294 -0.00234683 -0.99998 
-0.00640571 -0.00316333 -0.999976 
-0.00596162 -0.00397332 -0.999976 
-0.00562464 -0.00458416 -0.999975 
-0.0061265 -0.00501501 -0.99997 
-0.00557042 -0.00599286 -0.999968 
-0.00605989 -0.0085255 -0.999947 
-0.00567011 -0.0125651 -0.999906 
-0.00492754 -0.0170046 -0.999845 
-0.00441822 -0.0163053 -0.999859 
-0.000754607 -0.00693845 -0.999978 
0.000508169 -0.00619094 0.999983 
0.00273732 -0.0150989 0.999884 
0.00348562 -0.0180767 0.999832 
0.00376955 -0.0137735 0.999899 
0.00376413 -0.00950419 0.999949 
0.00379699 -0.00636479 0.999974 
0.00389585 -0.00509174 0.999981 
0.00410157 -0.00470595 0.999982 
0.00423655 -0.00422151 0.999983 
0.00431953 -0.00343172 0.999986 
0.0043999 -0.00249444 0.999989 
0.00452414 -0.00171009 0.99999 
0.00456731 -0.00108453 0.99999 
0.00462436 -0.000587152 0.99999 
0.00462514 -0.000126837 0.999991 
0.00465805 0.000328506 0.99999 
0.00478117 0.000829347 0.999989 
0.00484886 0.00138137 0.999989 
0.00487636 0.00204861 0.999987 
0.00486019 0.00287145 0.999985 
0.00484198 0.00391517 0.999982 
0.00486317 0.00534168 0.999975 
0.00489585 0.00731325 0.999963 
0.00495247 0.0100524 0.999938 
0.00504107 0.0138475 0.999893 
0.00524634 0.0189452 0.999808 
0.00573204 0.0271329 0.999617 
0.00635082 0.037302 0.999285 
0.00734092 0.051106 0.998668 
0.00921046 0.072078 0.997358 
0.0126791 0.102827 0.99462 
0.0177714 0.142201 0.98968 
0.0254232 0.197167 0.980042 
0.035332 0.262555 0.964271 
0.0483537 0.358204 0.932392 
0.0698982 0.377464 0.923384 
0.0752584 0.520431 0.850584 
0.122387 0.674275 0.72827 
0.05833 0.906988 0.417082 
-0.00617212 0.99858 -0.052853 
-0.045246 0.899 -0.4356 
-0.0831158 0.779083 -0.621385 
-0.0934319 0.594869 -0.798374 
-0.0707362 0.465011 -0.882475 
-0.0528703 0.350932 -0.934908 
-0.0361079 0.27373 -0.96113 
-0.0253608 0.197106 -0.980056 
-0.0177835 0.144471 -0.989351 
-0.0132035 0.107697 -0.994097 
-0.0100057 0.0779142 -0.996911 
-0.00794778 0.0567133 -0.99836 
-0.00666051 0.0410254 -0.999137 
-0.00584369 0.0293485 -0.999553 
-0.00537539 0.0213369 -0.999759 
-0.00514645 0.0154256 -0.999869 
-0.00501567 0.0111641 -0.999926 
-0.00495158 0.00810396 -0.999956 
-0.00488684 0.00588837 -0.999972 
-0.00484752 0.00433874 -0.99998 
-0.00484281 0.00314147 -0.999985 
-0.00484748 0.0022742 -0.999987 
-0.00486156 0.00154259 -0.999988 
-0.0048001 0.00095167 -0.999989 
-0.00472479 0.000440266 -0.99999 
-0.00467383 -2.40766e-05 -0.99999 
-0.00458905 -0.000481408 -0.999991 
-0.00449765 -0.000975413 -0.999991 
-0.004406 -0.00156881 -0.99999 
-0.00432449 -0.00231479 -0.999989 
-0.00442448 -0.00317688 -0.999986 
-0.00422407 -0.00405576 -0.999984 
-0.00397578 -0.00464058 -0.999983 
-0.00411522 -0.0049525 -0.999981 
-0.00378678 -0.0059265 -0.999977 
-0.00398011 -0.00861085 -0.999956 
-0.00379599 -0.0128201 -0.999912 
-0.00350082 -0.0172885 -0.999846 
-0.00312828 -0.0161513 -0.999867 
-0.000552991 -0.00693308 -0.999978 
0.000532999 -0.00646035 0.999981 
0.00244883 -0.0165288 0.999862 
0.00289523 -0.0164814 0.999861 
0.00291818 -0.0119392 0.999926 
0.00300466 -0.00794901 0.999965 
0.00313301 -0.00567721 0.99998 
0.00334402 -0.00494525 0.999983 
0.00354024 -0.00468102 0.999984 
0.00367056 -0.00408486 0.999986 
0.00379137 -0.00316391 0.999989 
0.0038876 -0.00224127 0.999991 
0.0039781 -0.00150578 0.999992 
0.00404035 -0.000930042 0.999993 
0.00410181 -0.000450212 0.999993 
0.00413961 -6.45074e-07 0.999993 
0.00419747 0.000466163 0.999992 
0.00425264 0.000956348 0.999992 
0.00431168 0.00152948 0.999991 
0.00433673 0.00221707 0.999989 
0.00434175 0.00306791 0.999987 
0.00436043 0.00419545 0.999983 
0.00439178 0.00571979 0.999975 
0.00443924 0.00778262 0.999961 
0.00452124 0.0106136 0.999935 
0.00466619 0.0144623 0.999886 
0.00500167 0.0204389 0.99978 
0.00551584 0.0278024 0.9996 
0.00637551 0.0375937 0.999274 
0.00801221 0.0529223 0.998568 
0.0104889 0.0739807 0.997206 
0.0147113 0.1006 0.99482 
0.0217861 0.140871 0.98979 
0.0320887 0.186559 0.981921 
0.0476378 0.256908 0.965262 
0.0667333 0.277723 0.958342 
0.101468 0.380104 0.919362 
0.118423 0.515265 0.848813 
0.211216 0.612026 0.762113 
0.128269 0.831853 0.539967 
0.0383573 0.986462 0.159392 
-0.0646228 0.948401 -0.310406 
-0.147372 0.774945 -0.614602 
-0.141399 0.569388 -0.809817 
-0.10109 0.412505 -0.90533 
-0.0705216 0.316562 -0.945948 
-0.0460285 0.245155 -0.968392 
-0.0315902 0.188231 -0.981618 
-0.0206821 0.135511 -0.990561 
-0.0144277 0.0978254 -0.9951 
-0.0106298 0.0718225 -0.997362 
-0.00808765 0.0524466 -0.998593 
-0.00654037 0.0380777 -0.999255 
-0.00559513 0.0275255 -0.999607 
-0.00501734 0.0198122 -0.999792 
-0.00470689 0.0143374 -0.999887 
-0.00454209 0.0104042 -0.999937 
-0.00445925 0.00756267 -0.999963 
-0.00439427 0.00555831 -0.999976 
-0.0043732 0.00405105 -0.999983 
-0.00433569 0.00297163 -0.999987 
-0.00434137 0.00211269 -0.99999 
-0.00431222 0.00143227 -0.999991 
-0.0042622 0.000863971 -0.999992 
-0.00420612 0.000369025 -0.999992 
-0.00415915 -8.95779e-05 -0.999993 
-0.00409207 -0.000548584 -0.999993 
-0.00401739 -0.00105872 -0.999993 
-0.00393667 -0.00168043 -0.999992 
-0.00386573 -0.00247207 -0.999991 
-0.00380272 -0.00336395 -0.999988 
-0.00364768 -0.00422734 -0.999986 
-0.00345919 -0.00479341 -0.999984 
-0.00335199 -0.00503338 -0.999983 
-0.00308488 -0.00595806 -0.999979 
-0.00304205 -0.00848808 -0.999961 
-0.00293045 -0.0126942 -0.999916 
-0.00280213 -0.0169952 -0.999853 
-0.00255139 -0.0165438 -0.999862 
-0.000438568 -0.00696774 -0.999978 
0.0004269 -0.00727944 0.999976 
0.00202488 -0.0160991 0.99987 
0.00252791 -0.0169806 0.999854 
0.00259012 -0.0121179 0.999925 
0.00277101 -0.00826075 0.999963 
0.00293531 -0.00591082 0.999979 
0.00314759 -0.00511796 0.999983 
0.00333605 -0.00486165 0.999984 
0.00345844 -0.00428334 0.999986 
0.00357291 -0.00335628 0.999989 
0.00365772 -0.00241798 0.999992 
0.00373314 -0.001631 0.999993 
0.00377879 -0.00103194 0.999994 
0.0038287 -0.000534717 0.999994 
0.00385386 -8.9977e-05 0.999994 
0.00389686 0.000362852 0.999994 
0.00391171 0.0008472 0.999993 
0.00399243 0.001394 0.999992 
0.00401741 0.00203323 0.999991 
0.00402746 0.00282739 0.999989 
0.00406848 0.00386668 0.999985 
0.00411889 0.00525811 0.999979 
0.00417622 0.00713206 0.999967 
0.00427197 0.009678 0.999945 
0.00440377 0.0131393 0.999905 
0.00482269 0.0184913 0.999818 
0.00533899 0.0252758 0.999668 
0.00631183 0.034549 0.999384 
0.00788199 0.0473418 0.998849 
0.0108943 0.068195 0.997614 
0.0156969 0.0939226 0.995457 
0.0224828 0.123907 0.99204 
0.030161 0.14483 0.988998 
0.0426311 0.1913 0.980607 
0.0997755 0.298345 0.94923 
0.171602 0.437588 0.88265 
0.197263 0.360189 0.911787 
0.332262 0.574578 0.747974 
0.243125 0.835425 0.492906 
0.0469539 0.993701 0.101742 
-0.151314 0.938517 -0.310307 
-0.295278 0.740041 -0.604277 
-0.221832 0.555852 -0.801136 
-0.143619 0.397461 -0.906311 
-0.0904067 0.287547 -0.953491 
-0.0577581 0.226423 -0.972317 
-0.0386236 0.175872 -0.983656 
-0.0252 0.136658 -0.990299 
-0.0166171 0.0975557 -0.995093 
-0.0116949 0.0704571 -0.997448 
-0.00869688 0.051642 -0.998629 
-0.00689581 0.0382363 -0.999246 
-0.00570189 0.0277425 -0.9996 
-0.00496772 0.0200121 -0.999789 
-0.00455642 0.0144427 -0.999887 
-0.00433942 0.0104929 -0.999937 
-0.00422644 0.00766299 -0.999963 
-0.0041209 0.00559794 -0.999977 
-0.00410003 0.00412156 -0.999984 
-0.00401388 0.00299266 -0.999989 
-0.00405928 0.00216883 -0.99999 
-0.00400885 0.00147801 -0.999992 
-0.00395677 0.000912029 -0.999993 
-0.00390618 0.000423843 -0.999993 
-0.00387141 -3.1171e-05 -0.999994 
-0.00382093 -0.000486272 -0.999994 
-0.00376253 -0.000989365 -0.999994 
-0.00368377 -0.00160532 -0.999993 
-0.00361387 -0.00238731 -0.999992 