# vtk DataFile Version 3.0 
Exported using Morpho https://github.com/Morpho-lang/morpho 
ASCII 
DATASET UNSTRUCTURED_GRID 

POINTS 1978 float 
-8.48528 -2.82843 9.61364e-10 
-8.26175 -2.82843 -9.5369e-10 
-8.0399 -2.82843 -4.11688e-09 
-7.76178 -2.82843 -3.32885e-09 
-7.47486 -2.82843 -2.37757e-09 
-7.22246 -2.82843 -1.76695e-09 
-7.00275 -2.82843 -9.59186e-10 
-6.77841 -2.82843 -9.33092e-10 
-6.5591 -2.82843 -6.06163e-10 
-6.34004 -2.82843 -4.24322e-10 
-6.14441 -2.82843 -3.4326e-10 
-5.929 -2.82843 -2.39572e-10 
-5.71487 -2.82843 -8.16852e-11 
-5.51191 -2.82843 -3.69461e-12 
-5.29469 -2.82843 2.61629e-11 
-5.08367 -2.82843 1.05772e-10 
-4.86571 -2.82843 1.51099e-10 
-4.66228 -2.82843 2.15974e-10 
-4.44369 -2.82843 2.57121e-10 
-4.23044 -2.82843 3.50123e-10 
-4.01303 -2.82843 4.35948e-10 
-3.80321 -2.82843 5.71074e-10 
-3.58655 -2.82843 7.26643e-10 
-3.37364 -2.82843 9.1937e-10 
-3.14994 -2.82843 1.1286e-09 
-2.93896 -2.82843 1.35998e-09 
-2.72666 -2.82843 1.59589e-09 
-2.52953 -2.82843 1.85934e-09 
-2.32042 -2.82843 2.01669e-09 
-2.11036 -2.82843 2.01518e-09 
-1.89858 -2.82843 1.76001e-09 
-1.69356 -2.82843 1.32158e-09 
-1.49635 -2.82843 8.37729e-10 
-1.27614 -2.82843 7.68755e-10 
-1.09847 -2.82843 8.26087e-10 
-0.847678 -2.82843 1.8823e-09 
-0.627386 -2.82843 1.60803e-09 
-0.445854 -2.82843 3.38452e-09 
-0.234836 -2.82843 2.84046e-09 
0.0175287 -2.82843 -6.7714e-09 
0.22567 -2.82843 1.05396e-09 
0.430263 -2.82843 -1.83081e-09 
0.642612 -2.82843 -8.22504e-10 
0.876306 -2.82843 -2.35855e-09 
1.083 -2.82843 -2.68988e-09 
1.26603 -2.82843 1.58267e-09 
1.44176 -2.82843 -5.72394e-10 
1.70084 -2.82843 -1.58635e-09 
1.88406 -2.82843 -1.72419e-09 
2.10281 -2.82843 -2.0725e-09 
2.33038 -2.82843 -2.10648e-09 
2.52017 -2.82843 -1.85879e-09 
2.74512 -2.82843 -1.6487e-09 
2.9654 -2.82843 -1.31127e-09 
3.17728 -2.82843 -1.06493e-09 
3.38635 -2.82843 -9.01119e-10 
3.61304 -2.82843 -7.09688e-10 
3.81637 -2.82843 -5.39545e-10 
4.03065 -2.82843 -4.40839e-10 
4.25561 -2.82843 -3.21164e-10 
4.45297 -2.82843 -2.4446e-10 
4.66363 -2.82843 -2.27919e-10 
4.87187 -2.82843 -1.73201e-10 
5.07354 -2.82843 -1.10358e-10 
5.28961 -2.82843 -5.38962e-11 
5.50012 -2.82843 1.60553e-11 
5.70361 -2.82843 9.75298e-11 
5.92196 -2.82843 1.98523e-10 
6.14158 -2.82843 2.99716e-10 
6.34029 -2.82843 4.71812e-10 
6.58 -2.82843 6.79675e-10 
6.78895 -2.82843 9.1813e-10 
6.99079 -2.82843 1.19885e-09 
7.25066 -2.82843 1.53869e-09 
7.48148 -2.82843 1.92541e-09 
7.72654 -2.82843 2.63646e-09 
7.99428 -2.82843 4.28796e-09 
8.17877 -2.82843 6.26986e-10 
8.48528 -2.82843 -5.14687e-10 
-8.48528 -2.59567 -1.39161e-09 
-8.25342 -2.58511 -4.72883e-14 
-8.01764 -2.58685 -1.5707e-18 
-7.78205 -2.62435 -4.03928e-14 
-7.52431 -2.63675 -1.0952e-18 
-7.23782 -2.61323 -3.43598e-14 
-6.98991 -2.58595 -4.59186e-14 
-6.76835 -2.59843 -2.39043e-14 
-6.54275 -2.59343 -2.64015e-14 
-6.33518 -2.57379 -1.94054e-14 
-6.1114 -2.59929 -1.3522e-14 
-5.89204 -2.59267 -9.52748e-15 
-5.68254 -2.57744 -7.40798e-15 
-5.46534 -2.59453 -3.06659e-15 
-5.24966 -2.58833 -3.2198e-16 
-5.03031 -2.59613 2.32836e-15 
-4.82056 -2.58143 4.8772e-15 
-4.60199 -2.59865 8.51293e-15 
-4.38377 -2.59224 1.14268e-14 
-4.16519 -2.59487 1.52116e-14 
-3.95321 -2.58327 1.95813e-14 
-3.73956 -2.58901 2.46503e-14 
-3.52634 -2.58695 3.20183e-14 
-3.30826 -2.60036 3.92235e-14 
-3.09489 -2.5932 5.03107e-14 
-2.88234 -2.59993 1.02186e-18 
-2.67927 -2.58944 1.20037e-18 
-2.47145 -2.60661 1.43477e-18 
-2.25729 -2.60554 1.42347e-18 
-2.04756 -2.6097 1.49034e-18 
-1.83285 -2.60247 1.51336e-18 
-1.62546 -2.58652 1.01025e-18 
-1.41877 -2.60525 1.18993e-18 
-1.23925 -2.5246 -4.4508e-14 
-1.02171 -2.63016 -4.07067e-15 
-0.800222 -2.58879 -2.98452e-14 
-0.613173 -2.52097 -9.85211e-19 
-0.405516 -2.51523 -1.065e-18 
-0.169374 -2.54498 -5.68164e-19 
0.0864239 -2.56617 -3.75749e-18 
0.2239 -2.34078 4.18083e-18 
0.353573 -2.58333 -9.44048e-15 
0.580315 -2.56028 1.57658e-18 
0.826421 -2.59855 2.40397e-14 
1.08147 -2.57612 6.2366e-19 
1.27538 -2.59552 -3.70104e-14 
1.48692 -2.63071 -7.46787e-19 
1.70537 -2.59799 -1.26158e-18 
1.93334 -2.62158 -1.33812e-18 
2.16663 -2.62522 -1.42211e-18 
2.36705 -2.5819 -1.3669e-18 
2.58158 -2.61828 -1.26123e-18 
2.80367 -2.60793 -1.08038e-18 
3.01197 -2.59334 -8.9149e-19 
3.22072 -2.58637 -4.34105e-14 
3.44335 -2.60416 -3.44515e-14 
3.65031 -2.57771 -2.78885e-14 
3.86494 -2.59124 -2.12785e-14 
4.09205 -2.6036 -1.68386e-14 
4.29967 -2.57331 -1.39517e-14 
4.51403 -2.5918 -9.32412e-15 
4.72802 -2.58878 -6.58034e-15 
4.93983 -2.58301 -3.73179e-15 
5.15466 -2.59837 -6.27692e-16 
5.37389 -2.59223 1.45375e-15 
5.58499 -2.58275 5.0561e-15 
5.80134 -2.59792 8.66481e-15 
6.02569 -2.59747 1.17956e-14 
6.23894 -2.5703 1.71617e-14 
6.45827 -2.61252 2.16371e-14 
6.68498 -2.57766 2.71514e-14 
6.89366 -2.5651 3.54174e-14 
7.12044 -2.6235 4.32686e-14 
7.37064 -2.59452 8.84283e-19 
7.60893 -2.6067 1.01245e-18 
7.8655 -2.6253 1.06244e-18 
8.07776 -2.53154 1.23108e-18 
8.30054 -2.64451 4.27695e-14 
8.48528 -2.52614 1.79606e-09 
-8.48528 -2.36033 -2.38189e-09 
-8.23905 -2.35451 -4.64843e-14 
-7.99728 -2.34331 -4.27296e-14 
-7.75828 -2.40144 -3.84219e-14 
-7.56224 -2.24571 -2.86952e-14 
-7.45939 -2.4503 -9.06096e-19 
-7.18092 -2.39521 -3.89462e-14 
-6.94509 -2.34849 -3.01426e-14 
-6.70562 -2.37555 -2.31958e-14 
-6.48347 -2.3499 -1.88723e-14 
-6.23955 -2.35703 -1.47178e-14 
-6.02335 -2.36185 -1.07064e-14 
-5.80796 -2.3446 -7.63341e-15 
-5.58003 -2.35055 -4.72485e-15 
-5.36507 -2.35573 -1.82326e-15 
-5.14037 -2.36073 3.28372e-16 
-4.92765 -2.34723 2.70032e-15 
-4.70285 -2.36035 5.11911e-15 
-4.48583 -2.36363 8.04829e-15 
-4.26255 -2.36165 1.10116e-14 
-4.04888 -2.34715 1.39681e-14 
-3.83158 -2.34649 1.76596e-14 
-3.61845 -2.34834 2.25519e-14 
-3.40001 -2.36199 2.87564e-14 
-3.18848 -2.36246 3.65473e-14 
-2.97258 -2.36746 4.47342e-14 
-2.76612 -2.35812 7.95e-19 
-2.55414 -2.37148 9.43841e-19 
-2.3458 -2.38825 1.11557e-18 
-2.12747 -2.37891 1.10098e-18 
-1.91915 -2.38899 1.04984e-18 
-1.69765 -2.36472 8.05214e-19 
-1.47409 -2.35493 -1.24576e-14 
-1.26097 -2.28324 1.02006e-18 
-1.02432 -2.39524 -8.21496e-19 
-0.827046 -2.31265 -8.24199e-19 
-0.595896 -2.24698 -1.04417e-18 
-0.387651 -2.16687 2.98698e-18 
-0.199401 -2.24531 -6.46136e-18 
-0.0148237 -2.19503 4.45288e-18 
0.268143 -2.09705 5.11361e-18 
0.47859 -2.26798 4.68411e-18 
0.69122 -2.27783 -1.18881e-18 
0.862435 -2.3605 -1.78624e-14 
1.06258 -2.30481 1.59998e-18 
1.27489 -2.32778 7.28658e-19 
1.4714 -2.42054 -2.6405e-14 
1.65855 -2.35295 -9.14447e-19 
1.86794 -2.40008 -1.26859e-18 
2.0881 -2.41881 -1.29891e-18 
2.29915 -2.3621 -1.13552e-18 
2.52611 -2.38583 -1.03488e-18 
2.73286 -2.39486 -8.91591e-19 
2.94879 -2.35773 -4.63857e-14 
3.15257 -2.34897 -3.67674e-14 
3.3706 -2.37083 -3.05046e-14 
3.57666 -2.33931 -2.28447e-14 
3.79064 -2.34808 -1.81581e-14 
4.00783 -2.37355 -1.51148e-14 
4.21672 -2.33858 -1.08464e-14 
4.43828 -2.34889 -8.37534e-15 
4.64869 -2.35094 -5.72793e-15 
4.86121 -2.34791 -3.31229e-15 
5.07993 -2.35626 -1.3018e-15 
5.29107 -2.36514 1.093e-15 
5.5079 -2.34616 3.22398e-15 
5.72641 -2.35759 5.883e-15 
5.94304 -2.36942 9.33722e-15 
6.15884 -2.33949 1.24761e-14 
6.39265 -2.36161 1.65164e-14 
6.60073 -2.35949 2.16571e-14 
6.82742 -2.31458 2.38888e-14 
7.05707 -2.3706 3.32188e-14 
7.27655 -2.39169 4.22452e-14 
7.53836 -2.37339 4.13397e-14 
7.78106 -2.40523 4.09447e-14 
7.99669 -2.30928 3.26793e-14 
8.2612 -2.37138 3.32585e-14 
8.48528 -2.28056 1.41951e-09 
-8.48528 -2.1012 -1.55353e-09 
-8.26018 -2.10551 -1.27089e-14 
-8.04659 -2.10275 -1.24419e-14 
-7.7974 -2.15163 -1.21125e-14 
-7.50872 -2.03116 -1.46256e-14 
-7.30551 -2.22333 -2.87091e-14 
-7.06195 -2.13001 -1.50589e-14 
-6.80462 -2.14769 -1.40086e-14 
-6.58933 -2.12313 -1.08688e-14 
-6.35164 -2.14289 -8.73385e-15 
-6.12166 -2.11533 -5.96396e-15 
-5.91507 -2.1128 -4.08858e-15 
-5.68987 -2.12283 -2.5823e-15 
-5.46851 -2.11301 -9.25429e-16 
-5.25158 -2.12928 -2.23958e-16 
-5.03902 -2.11429 7.04613e-16 
-4.81522 -2.12662 1.77567e-15 
-4.59854 -2.12805 3.1401e-15 
-4.38087 -2.13408 4.77212e-15 
-4.16907 -2.11548 6.36494e-15 
-3.95342 -2.11075 7.53721e-15 
-3.74 -2.10864 9.7166e-15 
-3.52414 -2.12181 1.31514e-14 
-3.31457 -2.12557 1.62761e-14 
-3.10181 -2.13503 2.10603e-14 
-2.89549 -2.12892 2.42947e-14 
-2.68151 -2.13482 2.92418e-14 
-2.47161 -2.14631 3.4016e-14 
-2.26191 -2.16467 4.58113e-14 
-2.04251 -2.1461 4.87646e-14 
-1.83175 -2.16391 2.85676e-14 
-1.59808 -2.13694 2.92001e-14 
-1.39128 -2.07635 -1.27169e-18 
-1.17319 -1.94036 4.1259e-14 
-1.07737 -2.14189 -2.34597e-18 
-0.837664 -2.06585 -1.60955e-18 
-0.609713 -1.96609 -1.30153e-18 
-0.35356 -1.87284 -4.47083e-18 
-0.119754 -1.88506 3.41668e-18 
0.0550136 -1.62083 2.92961e-14 
0.137349 -1.9085 -1.68438e-18 
0.331173 -1.71507 1.38052e-18 
0.488074 -1.9456 -3.70012e-18 
0.707126 -1.99764 2.62384e-18 
0.934239 -2.05251 3.33779e-18 
1.17374 -2.06167 3.95281e-14 
1.44044 -2.17718 -7.89136e-15 
1.67754 -2.12948 -2.51309e-14 
1.89529 -2.17674 -3.80983e-14 
2.11013 -2.18742 -4.34273e-14 
2.36317 -2.16015 -3.99579e-14 
2.57378 -2.15301 -3.21083e-14 
2.77962 -2.16133 -3.28477e-14 
2.98532 -2.10984 -2.22727e-14 
3.2055 -2.12737 -1.89408e-14 
3.40697 -2.1215 -1.47018e-14 
3.62339 -2.10436 -9.93252e-15 
3.84146 -2.12128 -9.00078e-15 
4.04397 -2.12433 -7.00892e-15 
4.27259 -2.11274 -5.08393e-15 
4.48386 -2.1087 -3.40081e-15 
4.69716 -2.11223 -1.98631e-15 
4.91633 -2.11989 -1.13791e-15 
5.13006 -2.11852 -2.30144e-16 
5.34135 -2.12892 6.47244e-16 
5.56575 -2.11729 1.6262e-15 
5.78293 -2.12573 3.18617e-15 
5.99348 -2.12551 4.97859e-15 
6.23492 -2.12586 7.19342e-15 
6.44439 -2.10869 8.57858e-15 
6.65794 -2.1158 1.12311e-14 
6.91551 -2.10406 1.29324e-14 
7.13243 -2.13319 1.80778e-14 
7.3654 -2.17923 2.57492e-14 
7.55896 -2.08393 1.37754e-14 
7.74126 -2.17289 1.55945e-14 
7.95671 -2.07468 1.08184e-15 
8.20413 -2.14803 1.74234e-14 
8.48528 -2.08391 9.58143e-10 
-8.48528 -1.80979 -9.64825e-10 
-8.30383 -1.86006 1.03833e-14 
-7.8872 -1.91144 1.30299e-14 
[...]
POINT_DATA 1978 
VECTORS vectors float
0.00204691 -0.00745871 0.999971 
0.00244228 -0.0876686 0.996147 
0.00167502 -0.100365 0.994949 
0.00181677 -0.083774 0.996483 
0.00179744 -0.0628291 0.998023 
0.00187274 -0.047939 0.998848 
0.00190195 -0.0382096 0.999268 
0.00188514 -0.0287636 0.999584 
0.00194207 -0.0204526 0.999789 
0.00202635 -0.0146082 0.999891 
0.00205589 -0.0109324 0.999938 
0.00199713 -0.00723493 0.999972 
0.00205252 -0.00358469 0.999991 
0.00208397 -0.00135626 0.999997 
0.00205981 0.000463372 0.999998 
0.00208018 0.00233698 0.999995 
0.00208546 0.00412694 0.999989 
0.00210367 0.00563241 0.999982 
0.00206009 0.00759586 0.999969 
0.0020583 0.0102552 0.999945 
0.00202987 0.0137004 0.999904 
0.00200295 0.0180045 0.999836 
0.00196638 0.0238295 0.999714 
0.0019288 0.0314015 0.999505 
0.00187021 0.0420988 0.999112 
0.00182182 0.0555535 0.998454 
0.00173694 0.0736684 0.997281 
0.00165407 0.0957592 0.995403 
0.00147068 0.126227 0.992 
0.00130934 0.165829 0.986154 
0.00110181 0.215522 0.976498 
0.000858724 0.27528 0.961364 
0.00053874 0.347007 0.937862 
0.000197105 0.444294 0.895881 
-0.000112299 0.537913 0.843 
-0.000321036 0.67407 0.738667 
-0.000559155 0.798748 0.601666 
-0.000515032 0.887342 0.461111 
-0.000266245 0.967523 0.252783 
3.40851e-06 0.999713 -0.0239722 
0.00036755 0.969376 -0.245579 
0.000407914 0.897877 -0.440247 
0.000472646 0.796343 -0.604846 
0.000412016 0.660802 -0.75056 
0.000103521 0.540853 -0.841117 
-0.000209515 0.448015 -0.894026 
-0.000555575 0.368982 -0.929437 
-0.000795038 0.274612 -0.961555 
-0.00117623 0.220874 -0.975302 
-0.00124859 0.168992 -0.985617 
-0.00147221 0.125154 -0.992136 
-0.00168138 0.0974314 -0.995241 
-0.0016824 0.0719861 -0.997404 
-0.00182471 0.0530103 -0.998592 
-0.00190527 0.0400312 -0.999197 
-0.00193477 0.0307031 -0.999527 
-0.00194844 0.0228733 -0.999736 
-0.0020537 0.017526 -0.999844 
-0.00200228 0.0132662 -0.99991 
-0.00204808 0.00965691 -0.999951 
-0.00212007 0.00757827 -0.999969 
-0.00205712 0.00594138 -0.99998 
-0.00210612 0.0042714 -0.999989 
-0.0021004 0.00267654 -0.999994 
-0.0020522 0.000665179 -0.999998 
-0.00209844 -0.00132559 -0.999997 
-0.00206975 -0.00343642 -0.999992 
-0.00199392 -0.00657723 -0.999976 
-0.00206178 -0.0103278 -0.999944 
-0.00198341 -0.0147148 -0.99989 
-0.00189654 -0.0220499 -0.999755 
-0.00201869 -0.0291573 -0.999573 
-0.00186843 -0.037048 -0.999312 
-0.00183876 -0.049704 -0.998762 
-0.00184201 -0.0633605 -0.997989 
-0.00174057 -0.0811428 -0.996701 
-0.00180503 -0.100707 -0.994914 
-0.0022573 -0.094713 -0.995502 
-0.0018951 -0.00460096 -0.999988 
0.00209618 -0.00108916 0.999997 
0.0319433 -0.070598 0.996993 
0.0449138 -0.0892762 0.994994 
0.0408806 -0.0848169 0.995558 
0.04208 -0.0673503 0.996842 
0.0469334 -0.050255 0.997633 
0.052608 -0.0388151 0.997861 
0.0530372 -0.0298097 0.998148 
0.0541143 -0.021499 0.998303 
0.0593338 -0.0159026 0.998112 
0.0570966 -0.0112695 0.998305 
0.0583706 -0.00741739 0.998267 
0.0615708 -0.00430511 0.998093 
0.059826 -0.00173989 0.998207 
0.061606 0.000362575 0.998101 
0.0605933 0.00249565 0.99816 
0.0632955 0.00444636 0.997985 
0.0601411 0.00652321 0.998169 
0.0606725 0.00901602 0.998117 
0.0593632 0.0121507 0.998163 
0.0598311 0.0161066 0.998079 
0.0575359 0.0211342 0.99812 
0.0565862 0.0277374 0.998012 
0.0528876 0.0364915 0.997934 
0.052386 0.0481849 0.997464 
0.0492657 0.0634854 0.996766 
0.0479159 0.083135 0.995386 
0.0423029 0.108343 0.993213 
0.0373543 0.142681 0.989064 
0.0316696 0.186025 0.982035 
0.026003 0.240628 0.970269 
0.0193264 0.306862 0.951558 
0.0112273 0.387166 0.921942 
0.00540069 0.476682 0.879059 
-0.00155475 0.593926 0.804518 
-0.00569732 0.717126 0.69692 
-0.00802451 0.816803 0.576861 
-0.0068417 0.906667 0.421792 
-0.00341881 0.978626 0.20562 
-9.20507e-05 0.999829 -0.0185003 
0.00308285 0.974423 -0.224702 
0.00581392 0.91118 -0.411966 
0.00621964 0.813316 -0.581789 
0.00414619 0.689383 -0.724385 
-0.000722044 0.559074 -0.829117 
-0.00704924 0.454247 -0.890848 
-0.0126023 0.345814 -0.938218 
-0.0230854 0.277874 -0.96034 
-0.0271848 0.214372 -0.976374 
-0.0330281 0.160904 -0.986417 
-0.042303 0.126204 -0.991102 
-0.042103 0.0947148 -0.994614 
-0.0468233 0.0704181 -0.996418 
-0.0510449 0.053336 -0.997271 
-0.0540811 0.0407379 -0.997705 
-0.0535164 0.0305026 -0.998101 
-0.0586489 0.0236487 -0.997999 
-0.0580186 0.0179095 -0.998155 
-0.0574307 0.0132399 -0.998262 
-0.0632088 0.0101691 -0.997949 
-0.061158 0.00758892 -0.998099 
-0.0619726 0.00546553 -0.998063 
-0.063318 0.003445 -0.997987 
-0.0603637 0.00140589 -0.998175 
-0.0611448 -0.000873615 -0.998129 
-0.0617619 -0.00322337 -0.998086 
-0.0583707 -0.00586715 -0.998278 
-0.0573527 -0.00938346 -0.99831 
-0.0600285 -0.0137346 -0.998102 
-0.0525345 -0.01905 -0.998437 
-0.0565185 -0.0263225 -0.998054 
-0.0565393 -0.0340625 -0.997819 
-0.0470465 -0.0437593 -0.997934 
-0.0492429 -0.0573526 -0.997139 
-0.0458005 -0.0726116 -0.996308 
-0.0420354 -0.0887695 -0.995165 
-0.0480477 -0.0870172 -0.995047 
-0.0246397 -0.062885 -0.997717 
-0.00141044 -0.0016603 -0.999997 
0.00020721 -0.00285608 0.999996 
0.0423033 -0.0689389 0.996724 
0.0584106 -0.0877472 0.994429 
0.0593702 -0.0814044 0.994911 
0.0653668 -0.0713892 0.995304 
0.060873 -0.0627782 0.996169 
0.0671225 -0.0477405 0.996602 
0.0708863 -0.0374157 0.996782 
0.071713 -0.0279587 0.997033 
0.0745733 -0.021002 0.996994 
0.0766271 -0.01498 0.996947 
0.0775342 -0.0107343 0.996932 
0.0790582 -0.00731191 0.996843 
0.0803361 -0.004214 0.996759 
0.0811701 -0.00163538 0.996699 
0.0818204 0.000940625 0.996647 
0.0826678 0.00329269 0.996572 
0.0822795 0.00583542 0.996592 
0.0816791 0.00847153 0.996623 
0.0805098 0.0116514 0.996686 
0.0793553 0.0155212 0.996726 
0.0773775 0.0203991 0.996793 
0.0752068 0.026549 0.996814 
0.0724953 0.0347676 0.996763 
0.0700531 0.0454034 0.996509 
0.0669572 0.0598829 0.995957 
0.0636602 0.0783869 0.994888 
0.0588983 0.102647 0.992973 
0.0528882 0.132922 0.989714 
0.0455804 0.174725 0.983562 
0.0372809 0.225474 0.973536 
0.0275625 0.2919 0.956052 
0.0168839 0.374604 0.927031 
0.00813578 0.467279 0.884073 
-0.000329371 0.576807 0.816881 
-0.00593549 0.69043 0.723375 
-0.00881187 0.808905 0.587873 
-0.00813281 0.912494 0.40901 
-0.00587934 0.97443 0.224616 
-0.00223366 0.999963 -0.00834881 
0.00146208 0.963267 -0.268541 
0.00454584 0.884646 -0.466241 
0.00549985 0.784581 -0.620001 
0.00379509 0.682882 -0.730519 
-0.00143067 0.567598 -0.823305 
-0.00913009 0.462595 -0.886523 
-0.0174681 0.369399 -0.929107 
-0.0264492 0.305748 -0.951745 
-0.0356858 0.237268 -0.970789 
-0.0434123 0.182201 -0.982302 
-0.0516547 0.142062 -0.988509 
-0.0575062 0.106141 -0.992687 
-0.0619875 0.0808525 -0.994797 
-0.0667653 0.0614091 -0.995877 
-0.0700659 0.047364 -0.996417 
-0.072173 0.0357866 -0.99675 
-0.0752846 0.0280231 -0.996768 
-0.0771213 0.0215229 -0.996789 
-0.0782376 0.0162493 -0.996802 
-0.0808612 0.0126089 -0.996646 
-0.0818899 0.00926501 -0.996598 
-0.08254 0.00660372 -0.996566 
-0.0829656 0.00413123 -0.996544 
-0.0824878 0.00161973 -0.996591 
-0.0816929 -0.000800869 -0.996657 
-0.081239 -0.00350257 -0.996689 
-0.0796989 -0.00625701 -0.996799 
-0.0779313 -0.0093446 -0.996915 
-0.0772623 -0.0133704 -0.996921 
-0.0749518 -0.0185476 -0.997015 
-0.0735878 -0.0244555 -0.996989 
-0.0724901 -0.0326099 -0.996836 
-0.0695543 -0.0419889 -0.996694 
-0.066867 -0.0530139 -0.996353 
-0.0640265 -0.0689319 -0.995565 
-0.0607714 -0.0837247 -0.994634 
-0.0591162 -0.0881475 -0.994352 
-0.0390603 -0.0635331 -0.997215 
-0.00224961 -0.00291133 -0.999993 
0.00202985 -0.00240333 0.999995 
0.035299 -0.0622685 0.997435 
0.0524049 -0.0862837 0.994891 
0.0598786 -0.0843115 0.994639 
0.0599441 -0.069821 0.995757 
0.0678676 -0.0562179 0.996109 
0.0673401 -0.0441492 0.996753 
0.069911 -0.0326056 0.99702 
0.0713702 -0.0254232 0.997126 
0.0735717 -0.018819 0.997112 
0.0737636 -0.0141007 0.997176 
0.0749778 -0.0105298 0.99713 
0.0767517 -0.00712588 0.997025 
0.0773733 -0.00414798 0.996994 
0.0790547 -0.0011418 0.99687 
0.0789383 0.00164881 0.996878 
0.079841 0.00464267 0.996797 
0.0796404 0.00755549 0.996795 
0.0790315 0.0107108 0.996815 
0.0771162 0.0143617 0.996919 
0.0750336 0.018879 0.997002 
0.0728161 0.0244428 0.997046 
0.0710421 0.0316923 0.99697 
0.068561 0.0409968 0.996804 
0.066033 0.05344 0.996385 
0.0625027 0.0695697 0.995617 
0.0585026 0.0911487 0.994117 
0.0538031 0.118386 0.991509 
0.0484196 0.152581 0.987104 
0.0400047 0.199514 0.979078 
0.0311532 0.25794 0.965658 
0.0204124 0.336377 0.941506 
0.010327 0.423286 0.905937 
0.00136086 0.528171 0.849137 
-0.000229645 0.56942 0.822047 
-0.00610428 0.695433 0.718565 
-0.00819533 0.816531 0.577244 
-0.0072787 0.924875 0.380202 
-0.00460274 0.989142 0.146891 
-0.000727268 0.997813 -0.0661026 
-0.000650551 0.988303 -0.152502 
0.00336683 0.931393 -0.364001 
0.00370965 0.864514 -0.502595 
0.00383013 0.741819 -0.670589 
0.00135375 0.627265 -0.778805 
-0.00411939 0.513769 -0.857919 
-0.0154345 0.391523 -0.920039 
-0.0241493 0.307901 -0.951112 
-0.0344083 0.238517 -0.970529 
-0.0432534 0.184436 -0.981892 
-0.0508687 0.135793 -0.989431 
-0.0563086 0.104239 -0.992957 
-0.0614685 0.0795595 -0.994933 
-0.0635887 0.0616882 -0.996068 
-0.0675864 0.0465264 -0.996628 
-0.069872 0.036383 -0.996892 
-0.0715175 0.0282309 -0.99704 
-0.0745777 0.0216398 -0.99698 
-0.0763375 0.0169364 -0.996938 
-0.0776362 0.0126809 -0.996901 
-0.0783704 0.0093664 -0.99688 
-0.0791237 0.00636504 -0.996845 
-0.0796755 0.00336755 -0.996815 
-0.0791672 0.000476048 -0.996861 
-0.078917 -0.0023533 -0.996878 
-0.0773495 -0.00549944 -0.996989 
-0.0763606 -0.00851718 -0.997044 
-0.0750247 -0.0117876 -0.997112 
-0.0735666 -0.0162957 -0.997157 
-0.0713018 -0.0213487 -0.997226 
-0.0701588 -0.0276066 -0.997154 
-0.0678474 -0.0373123 -0.996998 
-0.067146 -0.0471185 -0.99663 
-0.0666368 -0.059788 -0.995984 
-0.0615112 -0.0726882 -0.995456 
-0.0619411 -0.08298 -0.994624 
-0.0551687 -0.0901528 -0.994399 
-0.0445633 -0.0729134 -0.996342 
-0.00240376 -0.00260239 -0.999994 
0.00227443 -0.00250249 0.999994 
0.0261432 -0.0595088 0.997885 
0.048895 -0.0907631 0.994672 
0.0514022 -0.0812053 0.995371 
0.0485919 -0.0662312 0.99662 
0.0600987 -0.055953 0.996623 
0.0528133 -0.0491821 0.997393 
0.0602204 -0.0390774 0.99742 
0.0584199 -0.030602 0.997823 
0.0622843 -0.0235103 0.997782 
0.0628078 -0.0182522 0.997859 
0.0614382 -0.0143414 0.998008 
0.0643793 -0.0106256 0.997869 
0.065682 -0.00727836 0.997814 
0.0663549 -0.00380989 0.997789 
0.0670231 -0.000595318 0.997751 
0.0680223 0.00294936 0.997679 
0.0680101 0.00626601 0.997665 
0.0679053 0.00958675 0.997646 
0.0662891 0.0130919 0.997715 
0.0645777 0.017191 0.997765 
0.0625596 0.0221978 0.997794 
0.0612248 0.0285137 0.997717 
0.0592793 0.0364331 0.997576 
0.0573198 0.0468708 0.997255 
0.054624 0.0602783 0.996686 
0.0515329 0.0783065 0.995597 
0.0474848 0.101588 0.993693 
0.0430794 0.131375 0.990396 
0.0380874 0.169113 0.98486 
0.0296304 0.223638 0.974222 
0.0218985 0.288552 0.957214 
0.0126091 0.365084 0.930889 
0.00355131 0.46349 0.886095 
-0.00501412 0.65158 0.758564 
-0.00747903 0.767361 0.641172 
-0.0073206 0.882122 0.470964 
-0.00528677 0.933357 0.358911 
-0.00417474 0.980529 0.19633 
-0.00089847 0.999642 0.0267229 
0.00180444 0.973474 -0.22879 
0.00378122 0.887552 -0.460693 
0.0053946 0.816766 -0.576944 
0.00456167 0.708892 -0.705302 
0.00131845 0.586295 -0.810097 
-0.00292565 0.490642 -0.871356 
-0.0100951 0.417944 -0.908417 
-0.0145254 0.351017 -0.936256 
-0.0234865 0.2718 -0.962067 
-0.0325613 0.210822 -0.976982 
-0.0407765 0.159724 -0.986319 
-0.0449343 0.119366 -0.991833 
-0.0499904 0.090663 -0.994626 
-0.0522803 0.0710697 -0.9961 
-0.0562728 0.053246 -0.996995 
-0.057862 0.0413293 -0.997469 
-0.059922 0.0324669 -0.997675 
-0.0625392 0.02495 -0.997731 
-0.0635899 0.0196572 -0.997783 
-0.0663389 0.0151621 -0.997682 
-0.0659246 0.0112654 -0.997761 
-0.0667536 0.00780858 -0.997739 
-0.0678423 0.00441439 -0.997686 
-0.0673115 0.00108073 -0.997731 
-0.0670259 -0.0023171 -0.997749 
-0.0667426 -0.00552026 -0.997755 
-0.0649905 -0.00904461 -0.997845 
-0.0635212 -0.0123984 -0.997904 
-0.0638227 -0.0160305 -0.997832 
-0.0597267 -0.0211426 -0.997991 
-0.0585568 -0.0269914 -0.997919 
-0.0590786 -0.0343693 -0.997662 
-0.0558843 -0.0456054 -0.997395 
-0.0570935 -0.0573709 -0.996719 
-0.0514713 -0.0723597 -0.99605 
-0.0501894 -0.0872059 -0.994925 
-0.0427981 -0.090027 -0.995019 
-0.0332284 -0.0668615 -0.997209 
-0.00182947 -0.00241115 -0.999995 
0.00165753 -0.00260985 0.999995 
0.0206969 -0.0639292 0.99774 
0.03838 -0.0847129 0.995666 
0.0381307 -0.0926997 0.994964 
0.040673 -0.0816468 0.995831 
0.0420886 -0.0587801 0.997383 
0.0449344 -0.0435449 0.998041 
0.0476266 -0.0357131 0.998227 
0.0488844 -0.0270988 0.998437 
0.0505598 -0.0217309 0.998485 
0.0502509 -0.0175892 0.998582 
0.0511852 -0.0134788 0.998598 
0.0533714 -0.00996843 0.998525 
0.0547404 -0.0062613 0.998481 
0.0541613 -0.00251524 0.998529 
0.0560378 0.00130966 0.998428 
0.0559 0.00507275 0.998424 
0.0557565 0.00870295 0.998407 
0.0544306 0.0122629 0.998442 
0.0531214 0.0162146 0.998456 
0.0517607 0.0208709 0.998441 
0.0506181 0.0267399 0.99836 
0.0490128 0.0340833 0.998217 
0.047498 0.0437076 0.997915 
0.0452061 0.0563423 0.997388 
0.0427495 0.0732099 0.9964 
0.0391808 0.0954876 0.994659 
0.0349997 0.125005 0.991539 
0.0302966 0.163271 0.986116 
0.024449 0.212854 0.976778 
0.0156914 0.288927 0.957223 
0.00663016 0.386372 0.922319 
-0.00118883 0.506029 0.862516 
-0.00557016 0.631525 0.775336 
-0.00361504 0.584468 0.811409 
-0.00693713 0.696284 0.717733 
-0.00758645 0.811432 0.584398 
-0.00569395 0.868616 0.495454 
-0.00253168 0.982573 0.185861 
-0.00194051 0.998899 0.0468715 
-0.000981395 0.988717 -0.149791 
0.000661857 0.955349 -0.29548 
0.00265936 0.852408 -0.522871 
0.00539881 0.741641 -0.670776 
0.00417845 0.631334 -0.7755 
0.00128796 0.52037 -0.85394 
-0.00532532 0.416326 -0.9092 
-0.011569 0.326642 -0.945077 
-0.0190357 0.254936 -0.966771 
-0.0277309 0.195756 -0.980261 
-0.0336882 0.149273 -0.988222 
-0.0372231 0.111344 -0.993085 
-0.0396235 0.0874553 -0.99538 
-0.0443445 0.0653081 -0.996879 
-0.0461554 0.0503199 -0.997666 
-0.0474146 0.0392234 -0.998105 
-0.0503249 0.0303888 -0.99827 
-0.0509759 0.0241528 -0.998408 
-0.0524495 0.0189027 -0.998445 
-0.0546633 0.0146248 -0.998398 
-0.0540042 0.0107114 -0.998483 
-0.0551505 0.00696544 -0.998454 
-0.0552681 0.00338177 -0.998466 
-0.0552634 -0.000435113 -0.998472 
-0.0545006 -0.00417512 -0.998505 
-0.0548183 -0.00773858 -0.998466 
-0.0524984 -0.0114364 -0.998556 
-0.0517963 -0.0150363 -0.998544 
-0.0509627 -0.0187443 -0.998525 
-0.0474411 -0.0240857 -0.998584 
-0.0467919 -0.0304296 -0.998441 
-0.0479331 -0.0385973 -0.998105 
-0.0430901 -0.0484011 -0.997898 
-0.0455441 -0.0588518 -0.997227 
-0.0406188 -0.0741992 -0.996416 
-0.0403071 -0.0886977 -0.995243 
-0.0339566 -0.0928697 -0.995099 
-0.0238647 -0.0648034 -0.997613 
-0.00171135 -0.00263269 -0.999995 
0.0010757 -0.00264517 0.999996 
0.0174146 -0.0725329 0.997214 
0.0298476 -0.0915102 0.995357 
0.0299034 -0.0906749 0.995432 
0.03499 -0.073439 0.996686 
0.0313694 -0.0613657 0.997622 
0.0362001 -0.049458 0.99812 
0.0345267 -0.0391749 0.998636 
0.0394102 -0.0319122 0.998713 
0.0386922 -0.0256051 0.998923 
0.0397285 -0.0212098 0.998985 
0.0416429 -0.01691 0.998989 
0.0418129 -0.0131817 0.999039 
0.0440404 -0.0094072 0.998985 
0.0446521 -0.00548958 0.998988 
0.0447619 -0.00105244 0.998997 
0.0458056 0.00290094 0.998946 
0.0455796 0.00684288 0.998937 
0.0444664 0.0104378 0.998956 
0.0435656 0.0141357 0.998951 
0.042668 0.0182934 0.998922 
0.0418806 0.0232167 0.998853 
0.0407963 0.0292796 0.998738 
0.0395905 0.0371339 0.998526 
0.0381432 0.0473643 0.998149 
0.0361817 0.0612532 0.997466 
0.033674 0.0794454 0.99627 
0.0302966 0.104019 0.994114 
0.026156 0.136505 0.990294 
0.0214878 0.17844 0.983716 
0.0161572 0.237619 0.971224 
0.0088003 0.321153 0.946986 
0.00164195 0.422932 0.90616 
-0.00294234 0.533593 0.845736 
-0.0066053 0.746797 0.665019 
-0.00414006 0.869451 0.494002 
-0.00201113 0.938819 0.344404 
0.000500281 0.986108 0.166108 
-0.002923 0.948875 0.315638 
-0.00162366 0.989054 0.147546 
-0.00107804 0.999357 -0.0358651 
-0.0016865 0.973562 -0.228416 
0.000481185 0.913932 -0.405867 
0.00386482 0.79176 -0.61082 
0.00474623 0.719315 -0.694668 
0.00468815 0.594922 -0.80377 
-0.00199004 0.418578 -0.908179 
-0.00666664 0.334255 -0.942459 
-0.0130244 0.257948 -0.966071 
-0.0204541 0.198198 -0.979948 
-0.0217725 0.166779 -0.985754 
-0.0280859 0.133209 -0.99069 
-0.0292384 0.103533 -0.994196 
-0.0342434 0.0769605 -0.996446 
-0.0365506 0.0588936 -0.997595 
-0.037929 0.045335 -0.998252 
-0.0402052 0.034741 -0.998587 
-0.0409288 0.0276463 -0.99878 
-0.0422115 0.021812 -0.998871 
-0.0433646 0.0170335 -0.998914 
-0.0445588 0.0131201 -0.998921 
-0.0446899 0.00890545 -0.998961 
-0.0447763 0.00506077 -0.998984 
-0.0452081 0.000928551 -0.998977 
-0.0445595 -0.00327036 -0.999001 
-0.0445498 -0.00748233 -0.998979 
-0.0434941 -0.0112506 -0.99899 
-0.0424028 -0.0152046 -0.998985 
-0.0406333 -0.019132 -0.998991 
-0.0391962 -0.0233674 -0.998958 
-0.0371976 -0.0298334 -0.998863 
-0.0377132 -0.0378182 -0.998573 
-0.0343261 -0.0491003 -0.998204 
-0.0346491 -0.0630529 -0.997409 
-0.0303714 -0.0780869 -0.996484 
-0.0312641 -0.0905384 -0.995402 
-0.02586 -0.0959884 -0.995047 
-0.0210129 -0.0751116 -0.996954 
-0.00111583 -0.00263062 -0.999996 
0.000991867 -0.00259878 0.999996 
0.01279 -0.0733222 0.997226 
0.0234574 -0.0956921 0.995135 
0.0216045 -0.0928214 0.995448 
0.0266378 -0.0793319 0.996492 
0.024388 -0.0636922 0.997672 
0.0278358 -0.0487379 0.998424 
0.0270274 -0.0385416 0.998891 
0.0308583 -0.0310424 0.999042 
0.0298336 -0.0259375 0.999218 
0.0325488 -0.0211317 0.999247 
0.0340857 -0.0170558 0.999273 
0.034147 -0.0131066 0.999331 
0.0360602 -0.00898398 0.999309 
0.0371522 -0.0042845 0.9993 
0.0365964 0.000469489 0.99933 
0.0375046 0.00470899 0.999285 
0.0363985 0.00862758 0.9993 
0.0355582 0.0124439 0.99929 
0.0350819 0.0164824 0.999249 
0.0344218 0.0210336 0.999186 
0.0336975 0.0264903 0.999081 
0.032821 0.0335675 0.998897 
0.0316369 0.0429174 0.998578 
0.030233 0.0555312 0.997999 
0.0280206 0.0725202 0.996973 
0.0252747 0.0951107 0.995146 
0.0216503 0.125714 0.99183 
0.0172376 0.167433 0.985733 
0.0128458 0.224372 0.974419 
0.00713865 0.302822 0.95302 
0.0013915 0.402957 0.915218 
-0.00226245 0.515056 0.857154 
-0.0037874 0.632654 0.774425 
-0.00485333 0.648507 0.761193 
-0.00276273 0.842852 0.538139 
0.0023592 0.94548 0.325672 
0.00189922 0.999485 0.0320237 
0.00072782 0.999896 0.0143733 
0.00062901 0.999989 -0.00472305 
0.00060381 0.999678 -0.0253809 
-0.00136747 0.994263 -0.106967 
-0.00109047 0.962373 -0.271729 
0.00107294 0.855054 -0.518538 
0.00556935 0.665099 -0.746735 
0.00514586 0.55568 -0.83138 
0.002685 0.489538 -0.871978 
-6.24017e-05 0.398492 -0.917172 
-0.00494076 0.309188 -0.950988 
-0.0108785 0.234987 -0.971938 
-0.0161482 0.175516 -0.984344 
-0.0213788 0.129571 -0.99134 
-0.0254238 0.0920375 -0.995431 
-0.0282243 0.0702615 -0.997129 
-0.0301966 0.0536892 -0.998101 
-0.0321219 0.0405984 -0.998659 
-0.0327945 0.0321115 -0.998946 
-0.033874 0.025403 -0.999103 
-0.0348546 0.0201972 -0.999188 
-0.0352268 0.0159363 -0.999252 
-0.0370734 0.0119293 -0.999241 
-0.036215 0.00795857 -0.999312 
-0.0367635 0.00373687 -0.999317 
-0.0366393 -0.000595567 -0.999328 
-0.0365569 -0.00531945 -0.999317 
-0.0357091 -0.00959343 -0.999316 
-0.0354858 -0.0137408 -0.999276 
-0.0338427 -0.0176823 -0.999271 
-0.031811 -0.021709 -0.999258 
-0.0313623 -0.0264974 -0.999157 
-0.0285698 -0.0327359 -0.999056 
-0.0297797 -0.0393584 -0.998781 
-0.0261059 -0.048862 -0.998464 
-0.0270581 -0.0607547 -0.997786 
-0.0235976 -0.0764236 -0.996796 
-0.0227422 -0.0924459 -0.995458 
-0.0187502 -0.0965314 -0.995153 
-0.0141666 -0.0698851 -0.997455 
-0.000900566 -0.00253459 -0.999996 
0.00100973 -0.00266906 0.999996 
0.00904906 -0.0753066 0.99712 
0.0164746 -0.097231 0.995126 
0.0157636 -0.094366 0.995413 
0.0197435 -0.0782238 0.99674 