# vtk DataFile Version 3.0 
Exported using Morpho https://github.com/Morpho-lang/morpho 
ASCII 
DATASET UNSTRUCTURED_GRID 

POINTS 1978 float 
-8.48528 -2.82843 -1.5588e-15 
-8.25631 -2.82843 -3.75029e-14 
-8.02809 -2.82843 5.7574e-15 
-7.79335 -2.82843 -6.03252e-14 
-7.50166 -2.82843 -8.56829e-15 
-7.25177 -2.82843 -9.61406e-15 
-6.99579 -2.82843 -7.1062e-15 
-6.77399 -2.82843 -3.99744e-14 
-6.5584 -2.82843 8.57761e-14 
-6.35286 -2.82843 -4.14394e-14 
-6.13402 -2.82843 -1.77032e-14 
-5.92716 -2.82843 3.06566e-14 
-5.71071 -2.82843 -4.54386e-15 
-5.51953 -2.82843 -2.54798e-14 
-5.28548 -2.82843 7.13881e-16 
-5.0817 -2.82843 -2.23637e-14 
-4.87055 -2.82843 5.51287e-16 
-4.66124 -2.82843 4.99196e-15 
-4.44794 -2.82843 2.38251e-14 
-4.23211 -2.82843 2.9783e-14 
-4.02159 -2.82843 2.08746e-14 
-3.8215 -2.82843 3.32255e-14 
-3.61271 -2.82843 8.04459e-15 
-3.40188 -2.82843 1.19077e-13 
-3.18125 -2.82843 2.70199e-13 
-2.95892 -2.82843 5.80593e-13 
-2.73179 -2.82843 1.63097e-12 
-2.48831 -2.82843 5.15617e-12 
-2.24247 -2.82843 1.51537e-11 
-2.00823 -2.82843 5.02627e-11 
-1.7581 -2.82843 1.29598e-10 
-1.55434 -2.82843 3.75271e-10 
-1.34479 -2.82843 1.42146e-09 
-1.1597 -2.82843 4.82774e-09 
-0.999187 -2.82843 1.42859e-08 
-0.866438 -2.82843 3.88164e-08 
-0.712811 -2.82843 1.27007e-07 
-0.565239 -2.82843 5.135e-07 
-0.422995 -2.82842 9.65417e-07 
-0.231056 -2.82842 1.29526e-06 
0.353197 -2.82845 -4.79733e-07 
0.592373 -2.82843 -7.25847e-07 
0.714099 -2.82843 -1.562e-07 
0.863846 -2.82843 -6.04864e-08 
1.01539 -2.82843 -2.75632e-08 
1.17567 -2.82843 -5.3899e-09 
1.34154 -2.82843 -2.31124e-09 
1.57022 -2.82843 -6.61079e-10 
1.80117 -2.82843 -1.49128e-10 
2.05941 -2.82843 -3.74298e-11 
2.28076 -2.82843 -9.78645e-12 
2.53786 -2.82843 -5.30066e-12 
2.75627 -2.82843 -8.9926e-13 
2.97345 -2.82843 -7.30461e-13 
3.17928 -2.82843 -7.11272e-13 
3.3932 -2.82843 -1.47989e-13 
3.61229 -2.82843 -1.40114e-13 
3.81493 -2.82843 -7.45347e-14 
4.03266 -2.82843 -5.70097e-14 
4.24947 -2.82843 2.30232e-14 
4.45265 -2.82843 -1.81678e-14 
4.66294 -2.82843 -1.50813e-14 
4.86417 -2.82843 3.89946e-15 
5.07733 -2.82843 -5.47779e-15 
5.28227 -2.82843 2.08158e-14 
5.50176 -2.82843 2.79912e-14 
5.70706 -2.82843 -1.06632e-14 
5.92558 -2.82843 2.33967e-15 
6.15176 -2.82843 1.02095e-14 
6.35912 -2.82843 -1.06916e-14 
6.59046 -2.82843 -2.20626e-15 
6.80669 -2.82843 1.27594e-14 
7.0098 -2.82843 1.38105e-15 
7.29145 -2.82843 1.95246e-14 
7.51053 -2.82843 2.34983e-14 
7.75061 -2.82843 6.26169e-15 
8.03412 -2.82843 1.58442e-14 
8.2253 -2.82843 1.3787e-14 
8.48528 -2.82843 -2.37691e-15 
-8.48528 -2.58485 5.29903e-14 
-8.25564 -2.59276 3.1215e-16 
-8.02397 -2.58571 -7.89736e-17 
-7.79277 -2.59382 2.71705e-17 
-7.54667 -2.64589 -9.79341e-18 
-7.2602 -2.62121 -1.79331e-16 
-6.99951 -2.60435 2.23013e-16 
-6.76857 -2.59723 -1.9734e-16 
-6.54248 -2.58453 -1.21265e-16 
-6.31131 -2.60006 -2.90294e-16 
-6.0878 -2.58556 -4.87934e-16 
-5.86713 -2.59496 -1.06936e-15 
-5.66457 -2.56243 -1.94398e-15 
-5.44141 -2.61263 -3.43836e-15 
-5.22727 -2.58131 -5.44277e-15 
-5.0134 -2.59066 -6.83602e-15 
-4.79894 -2.58966 -7.01471e-15 
-4.58347 -2.59513 -5.05861e-15 
-4.36405 -2.59861 -1.93669e-15 
-4.14745 -2.59366 6.15434e-16 
-3.94046 -2.58168 2.49387e-15 
-3.73216 -2.59073 6.21572e-16 
-3.51872 -2.58986 1.00772e-15 
-3.30011 -2.59523 4.01303e-14 
-3.07534 -2.5903 -2.58644e-20 
-2.84828 -2.59014 -9.50107e-20 
-2.61196 -2.60303 -3.12191e-19 
-2.36517 -2.60614 -1.09358e-18 
-2.12198 -2.6006 -3.79185e-18 
-1.87874 -2.62154 -1.40309e-17 
-1.65177 -2.5934 -4.85666e-17 
-1.4508 -2.62193 -1.54613e-16 
-1.24942 -2.62925 -4.70479e-16 
-1.07903 -2.64287 -1.35018e-15 
-0.926013 -2.64839 -3.56166e-15 
-0.794722 -2.56129 -2.73139e-15 
-0.779577 -2.70924 -8.06261e-15 
-0.625697 -2.71754 -1.28148e-14 
-0.338595 -2.76184 -9.10926e-15 
-0.130682 -2.79007 1.26178e-14 
0.305507 -2.70771 2.21891e-14 
0.680952 -2.68063 7.8777e-15 
0.821874 -2.55414 1.84452e-15 
0.84061 -2.68431 5.05211e-15 
1.01174 -2.67323 2.37983e-15 
1.16489 -2.61335 7.83276e-16 
1.32809 -2.60572 3.15935e-16 
1.52165 -2.63461 9.33176e-17 
1.76618 -2.61552 2.44136e-17 
2.01169 -2.6256 6.38748e-18 
2.26643 -2.58352 1.95187e-18 
2.49463 -2.61691 5.96988e-19 
2.75142 -2.58249 1.95671e-19 
2.97317 -2.577 4.73006e-20 
3.19681 -2.5908 7.31292e-21 
3.42493 -2.59766 1.41326e-14 
3.63515 -2.58061 1.75925e-14 
3.85561 -2.5987 1.13234e-14 
4.07816 -2.5993 2.63148e-15 
4.28854 -2.58451 5.01112e-16 
4.50124 -2.59324 3.5637e-15 
4.70948 -2.58242 5.65631e-15 
4.92367 -2.59612 7.62834e-15 
5.13631 -2.58609 6.50231e-15 
5.35646 -2.60179 4.82472e-15 
5.57119 -2.58419 2.73354e-15 
5.78929 -2.59697 1.5206e-15 
6.0176 -2.60251 7.50527e-16 
6.23713 -2.57903 3.63113e-16 
6.46044 -2.60297 2.10287e-16 
6.68739 -2.58466 1.26494e-16 
6.89872 -2.56713 7.77013e-17 
7.13604 -2.63915 1.3231e-17 
7.38041 -2.58296 1.29164e-17 
7.6101 -2.60407 -3.25318e-17 
7.87415 -2.63785 1.93853e-17 
8.08391 -2.54533 -1.4964e-17 
8.30783 -2.61869 -2.21661e-16 
8.48528 -2.52133 -2.30538e-14 
-8.48528 -2.34163 -1.68191e-14 
-8.25198 -2.35516 3.64144e-16 
-8.01501 -2.3432 5.32142e-18 
-7.76071 -2.38312 6.16936e-17 
-7.5495 -2.23088 2.8336e-17 
-7.49373 -2.44403 7.24685e-17 
-7.21329 -2.42192 -2.86149e-16 
-6.97998 -2.36303 8.48728e-17 
-6.74561 -2.36767 -4.49345e-17 
-6.50054 -2.36162 -1.0698e-16 
-6.26873 -2.36983 -4.13043e-17 
-6.03614 -2.3535 -1.18812e-16 
-5.82828 -2.33776 -4.20692e-16 
-5.58018 -2.35548 -1.60448e-15 
-5.37209 -2.36527 -3.0339e-15 
-5.14209 -2.35119 -4.869e-15 
-4.92246 -2.35706 -5.73174e-15 
-4.70015 -2.36002 -4.66726e-15 
-4.47784 -2.37056 -9.80742e-16 
-4.25627 -2.36731 4.54356e-15 
-4.04258 -2.34786 1.11838e-14 
-3.82728 -2.34844 1.6696e-14 
-3.61534 -2.35597 2.41128e-14 
-3.39531 -2.3592 4.8778e-14 
-3.17389 -2.36049 -1.78026e-20 
-2.94412 -2.35397 -6.14407e-20 
-2.71059 -2.36525 -2.18751e-19 
-2.47437 -2.3801 -7.50787e-19 
-2.23323 -2.37772 -2.45147e-18 
-1.98612 -2.39267 -8.48351e-18 
-1.76214 -2.38553 -2.38148e-17 
-1.5394 -2.37502 -6.1505e-17 
-1.34555 -2.42594 -1.85487e-16 
-1.15627 -2.42787 -3.18228e-16 
-0.997219 -2.46881 -2.61534e-16 
-0.859073 -2.43337 -5.06648e-16 
-0.664226 -2.59565 -6.37437e-15 
-0.489542 -2.72325 -1.71954e-14 
-0.402783 -2.65213 -2.39582e-14 
-0.0237526 -2.74831 1.80694e-14 
0.215166 -2.76278 1.82094e-14 
0.536271 -2.76302 9.11708e-15 
0.636712 -2.55586 5.80807e-15 
0.917911 -2.40555 1.65729e-18 
1.0128 -2.51933 3.65154e-16 
1.10338 -2.36248 1.66444e-16 
1.25427 -2.38574 7.70101e-17 
1.45188 -2.40432 8.62695e-17 
1.66326 -2.42718 4.19044e-17 
1.92463 -2.4111 1.2367e-17 
2.16062 -2.3861 3.37714e-18 
2.42484 -2.36354 9.09042e-19 
2.64861 -2.38256 2.83428e-19 
2.89968 -2.3419 8.66595e-20 
3.13661 -2.35074 2.01463e-20 
3.35946 -2.36933 8.59269e-21 
3.57952 -2.33941 -2.71861e-14 
3.79524 -2.36282 -2.19144e-14 
4.0125 -2.37251 -1.35869e-14 
4.22756 -2.35051 -5.3367e-15 
4.44295 -2.35497 5.20278e-17 
4.65029 -2.34572 4.22006e-15 
4.86578 -2.35779 5.60157e-15 
5.07514 -2.35294 5.68616e-15 
5.29636 -2.36843 3.96846e-15 
5.50927 -2.35281 2.28198e-15 
5.73113 -2.35873 9.7139e-16 
5.95055 -2.37479 3.37577e-16 
6.17098 -2.3496 1.52897e-16 
6.40282 -2.36058 9.30925e-17 
6.61894 -2.35725 7.24885e-17 
6.84158 -2.31839 5.8631e-17 
7.07304 -2.39248 2.37831e-17 
7.28872 -2.38497 3.28877e-17 
7.55147 -2.35972 -5.34732e-19 
7.78408 -2.42 3.46432e-17 
7.99423 -2.32644 -1.5095e-17 
8.24891 -2.35253 -2.17918e-16 
8.48528 -2.29259 -1.62636e-14 
-8.48528 -2.11006 4.10019e-14 
-8.25069 -2.11065 3.84263e-17 
-8.03686 -2.1061 3.89648e-17 
-7.79581 -2.1488 -6.42599e-18 
-7.50954 -2.02451 1.96794e-17 
-7.29609 -2.23196 6.0628e-18 
-7.06082 -2.14925 3.23628e-17 
-6.81031 -2.13327 1.0004e-17 
-6.58705 -2.14555 4.72936e-17 
-6.3467 -2.13756 1.26126e-16 
-6.12904 -2.13087 2.19323e-16 
-5.91429 -2.09154 3.3256e-16 
-5.69116 -2.13731 2.60704e-16 
-5.47218 -2.11274 -5.43235e-17 
-5.26321 -2.13388 -7.70715e-16 
-5.03939 -2.12214 -1.69625e-15 
-4.82289 -2.12872 -2.42055e-15 
-4.60395 -2.13575 -1.98093e-15 
-4.39024 -2.14163 1.07599e-15 
-4.18157 -2.12515 7.95289e-15 
-3.96729 -2.11458 1.98626e-14 
-3.75632 -2.11422 3.67591e-14 
-3.54335 -2.12605 -6.4183e-21 
-3.32521 -2.12601 -7.90224e-21 
-3.10137 -2.12912 -8.79982e-21 
-2.86754 -2.12559 -9.42461e-21 
-2.63408 -2.13719 -2.51119e-20 
-2.39703 -2.15137 -1.29065e-19 
-2.14651 -2.16293 -3.16304e-19 
-1.91342 -2.16011 -1.12415e-18 
-1.68559 -2.15993 -6.62e-19 
-1.47792 -2.13879 7.11447e-19 
-1.30214 -2.21435 4.99045e-18 
-1.12374 -2.20655 9.34591e-17 
-0.962462 -2.27075 -6.90891e-17 
-0.766688 -2.3105 5.58857e-16 
-0.683905 -2.44792 -7.73477e-16 
-0.53574 -2.6035 -1.01743e-14 
-0.205122 -2.71691 -9.50231e-15 
0.11516 -2.80663 4.57129e-14 
0.427608 -2.72734 3.9702e-15 
0.525802 -2.63895 2.48528e-14 
0.724032 -2.44142 8.401e-17 
0.828246 -2.29721 -1.0953e-15 
0.994328 -2.21296 -2.13381e-16 
1.1586 -2.13048 4.31596e-17 
1.3344 -2.17754 2.20658e-18 
1.54314 -2.18788 6.52853e-18 
1.76685 -2.22304 6.25385e-18 
1.99818 -2.17165 2.34062e-18 
2.24566 -2.16752 5.75185e-19 
2.48246 -2.12073 9.55877e-20 
2.71014 -2.15243 4.92783e-20 
2.96381 -2.12252 1.30366e-20 
3.18779 -2.11586 1.00667e-20 
3.40113 -2.12967 6.7041e-21 
3.62265 -2.10634 -4.37256e-14 
3.8375 -2.13356 -2.60251e-14 
4.04871 -2.13657 -1.23362e-14 
4.26793 -2.12052 -3.61523e-15 
4.47469 -2.11311 5.85889e-16 
4.69255 -2.11765 2.13531e-15 
4.90106 -2.11771 2.14656e-15 
5.12419 -2.1303 1.37204e-15 
5.33437 -2.12835 5.03735e-16 
5.55738 -2.12477 -1.61437e-16 
5.77837 -2.12826 -3.34018e-16 
5.993 -2.13585 -2.89721e-16 
6.22967 -2.12821 -1.61769e-16 
6.44596 -2.11565 -7.33421e-17 
6.66236 -2.11243 -3.5437e-17 
6.92077 -2.11268 -1.28646e-17 
7.12822 -2.14146 -6.72459e-17 
7.36886 -2.17293 -2.60724e-17 
7.57004 -2.08268 -6.82372e-17 
7.75929 -2.17756 -1.7415e-17 
7.97191 -2.08175 -2.53281e-17 
8.19806 -2.13522 -1.96365e-17 
8.48528 -2.1032 4.18974e-15 
-8.48528 -1.80239 1.99693e-14 
-8.31743 -1.87315 1.47144e-16 
-7.89802 -1.90085 2.65807e-17 
-7.67916 -1.90207 3.57538e-17 
[...]
POINT_DATA 1978 
VECTORS vectors float
-3.1644e-05 -0.00102605 0.999999 
4.01122e-06 -0.00116193 0.999999 
-2.67654e-06 -0.00121687 0.999999 
-3.3881e-07 -0.00125674 0.999999 
1.95267e-06 -0.00132014 0.999999 
3.89668e-06 -0.00140626 0.999999 
6.71193e-06 -0.0015213 0.999999 
9.31223e-06 -0.00167496 0.999999 
1.04232e-05 -0.00185316 0.999998 
1.27144e-05 -0.002057 0.999998 
1.4689e-05 -0.00232041 0.999997 
1.78438e-05 -0.00260935 0.999997 
2.00859e-05 -0.0029464 0.999996 
2.48592e-05 -0.00325587 0.999995 
2.54734e-05 -0.00362402 0.999993 
3.14508e-05 -0.00392235 0.999992 
3.36975e-05 -0.00420043 0.999991 
3.48198e-05 -0.00441305 0.99999 
3.20866e-05 -0.00452211 0.99999 
2.63813e-05 -0.00447881 0.99999 
1.61051e-05 -0.00423849 0.999991 
-4.07822e-06 -0.0037123 0.999993 
-3.27402e-05 -0.00270429 0.999996 
-7.10349e-05 -0.00105759 0.999999 
-0.000111141 0.00141916 0.999999 
-0.000158057 0.00471217 0.999989 
-0.000217351 0.00906421 0.999959 
-0.000329261 0.0154564 0.99988 
-0.000501755 0.0252043 0.999682 
-0.00073067 0.0391365 0.999234 
-0.00100672 0.0605848 0.998163 
-0.00153026 0.087281 0.996183 
-0.00233279 0.129517 0.991574 
-0.00404502 0.188204 0.982122 
-0.00728716 0.26574 0.964017 
-0.00855369 0.351399 0.936186 
-0.0100097 0.468894 0.883197 
-0.0127458 0.616174 0.787506 
-0.00920592 0.75997 0.649892 
0.00396911 0.949832 0.312736 
0.00126962 0.858278 -0.513187 
0.0127256 0.588942 -0.808074 
0.00801097 0.476726 -0.879015 
0.00813768 0.362608 -0.931906 
0.00674002 0.268438 -0.963273 
0.00386853 0.18896 -0.981977 
0.00265187 0.132924 -0.991123 
0.00150261 0.0846461 -0.99641 
0.000957507 0.0555828 -0.998454 
0.000707539 0.0356297 -0.999365 
0.00040654 0.0244696 -0.9997 
0.000333397 0.0154125 -0.999881 
0.000235433 0.00936745 -0.999956 
0.000152092 0.00477475 -0.999988 
0.000123441 0.00160348 -0.999999 
8.61247e-05 -0.000977729 -1 
4.51761e-05 -0.00286311 -0.999996 
4.34432e-06 -0.00391383 -0.999992 
-2.03295e-05 -0.00439595 -0.99999 
-2.86603e-05 -0.00455082 -0.99999 
-3.22738e-05 -0.00456602 -0.99999 
-3.36562e-05 -0.00446973 -0.99999 
-3.41447e-05 -0.00427737 -0.999991 
-3.29576e-05 -0.00398004 -0.999992 
-2.86032e-05 -0.00364751 -0.999993 
-2.52676e-05 -0.00327685 -0.999995 
-2.11207e-05 -0.00293652 -0.999996 
-1.78257e-05 -0.00259811 -0.999997 
-1.55194e-05 -0.00228187 -0.999997 
-1.32448e-05 -0.00202822 -0.999998 
-1.06187e-05 -0.00179461 -0.999998 
-8.93495e-06 -0.00162063 -0.999999 
-6.27089e-06 -0.00149207 -0.999999 
-3.80053e-06 -0.00136398 -0.999999 
-1.13503e-06 -0.00130374 -0.999999 
1.46891e-06 -0.00126888 -0.999999 
2.30588e-06 -0.00124186 -0.999999 
-1.75653e-06 -0.00121282 -0.999999 
1.75351e-05 -0.00107209 -0.999999 
-0.000273249 -0.00109076 0.999999 
-0.000151421 -0.00121761 0.999999 
-9.27943e-05 -0.00124296 0.999999 
-5.53824e-05 -0.00127096 0.999999 
-1.72187e-05 -0.0013164 0.999999 
1.10989e-05 -0.00140698 0.999999 
3.60505e-05 -0.00152567 0.999999 
5.47684e-05 -0.00167778 0.999999 
6.97943e-05 -0.00186086 0.999998 
7.87921e-05 -0.0021029 0.999998 
9.82344e-05 -0.00239198 0.999997 
0.000131021 -0.00272187 0.999996 
0.000202759 -0.00305935 0.999995 
0.000257423 -0.00341122 0.999994 
0.000404138 -0.00375796 0.999993 
0.000518703 -0.00404611 0.999992 
0.000643497 -0.00427209 0.999991 
0.000730596 -0.00439521 0.99999 
0.000782661 -0.0043727 0.99999 
0.000810136 -0.00414323 0.999991 
0.000804812 -0.0036468 0.999993 
0.000671396 -0.00282219 0.999996 
0.000519886 -0.00146984 0.999999 
0.000320279 0.000531593 1 
0.000121733 0.00339673 0.999994 
-8.97349e-05 0.00727254 0.999974 
-0.000350648 0.0127391 0.999919 
-0.000705285 0.0210413 0.999778 
-0.00115377 0.0332779 0.999445 
-0.00179419 0.0512017 0.998687 
-0.00253336 0.0769715 0.99703 
-0.0034918 0.109887 0.993938 
-0.00488198 0.159309 0.987217 
-0.00562632 0.223587 0.974668 
-0.00625134 0.307665 0.951474 
0.0187326 0.388503 0.921257 
-0.0126172 0.42238 0.906331 
-0.00226312 0.558364 0.829593 
0.0202249 0.844923 0.534505 
0.0140322 0.978682 0.204901 
-0.0434684 0.847554 -0.528926 
-0.0165642 0.492249 -0.870297 
-0.0307961 0.376116 -0.926061 
0.0020929 0.371277 -0.92852 
0.00436853 0.26316 -0.964742 
0.00198511 0.194783 -0.980844 
0.00281574 0.139935 -0.990157 
0.00294767 0.0958996 -0.995387 
0.00220623 0.0620702 -0.998069 
0.00161791 0.0406054 -0.999174 
0.00097666 0.0264743 -0.999649 
0.000578409 0.0174227 -0.999848 
0.000190856 0.0100562 -0.999949 
6.96251e-05 0.00551916 -0.999985 
-8.31514e-05 0.00194654 -0.999998 
-0.000263667 -0.000707174 -1 
-0.000502866 -0.00233785 -0.999997 
-0.000640374 -0.00351002 -0.999994 
-0.000762972 -0.00411291 -0.999991 
-0.000837255 -0.00436718 -0.99999 
-0.000770606 -0.00445203 -0.99999 
-0.000714048 -0.00439393 -0.99999 
-0.000568837 -0.00420555 -0.999991 
-0.000463342 -0.00392912 -0.999992 
-0.00032297 -0.00356816 -0.999994 
-0.000240011 -0.00320658 -0.999995 
-0.000160325 -0.0028317 -0.999996 
-0.000112991 -0.00247286 -0.999997 
-9.57297e-05 -0.00217374 -0.999998 
-7.58731e-05 -0.00191865 -0.999998 
-6.75088e-05 -0.00171538 -0.999999 
-5.38583e-05 -0.00157031 -0.999999 
-2.17621e-05 -0.0014379 -0.999999 
3.13979e-06 -0.00135577 -0.999999 
2.90908e-05 -0.00129978 -0.999999 
5.28077e-05 -0.00126405 -0.999999 
0.000107609 -0.00125615 -0.999999 
0.000129228 -0.00122507 -0.999999 
0.000247889 -0.00111866 -0.999999 
-0.000303695 -0.00123987 0.999999 
-0.000195031 -0.00130046 0.999999 
-0.000126152 -0.00130057 0.999999 
-7.2592e-05 -0.00131822 0.999999 
-2.66807e-05 -0.00138642 0.999999 
-2.2908e-05 -0.00135349 0.999999 
2.37627e-05 -0.00144819 0.999999 
6.54599e-05 -0.00156639 0.999999 
8.96445e-05 -0.00170258 0.999999 
0.000110712 -0.00191239 0.999998 
0.000123499 -0.00217265 0.999998 
0.000157708 -0.0025039 0.999997 
0.000215221 -0.00285031 0.999996 
0.000333391 -0.0032907 0.999995 
0.000477082 -0.00365086 0.999993 
0.000697981 -0.00402224 0.999992 
0.000916474 -0.00428302 0.99999 
0.00112981 -0.00442901 0.99999 
0.0012938 -0.00441273 0.999989 
0.00142618 -0.00419452 0.99999 
0.0015412 -0.00372025 0.999992 
0.00154303 -0.00292085 0.999995 
0.00145589 -0.00175136 0.999997 
0.00132641 -2.16219e-05 0.999999 
0.00117664 0.0023842 0.999996 
0.00108571 0.00581007 0.999983 
0.000936365 0.0106194 0.999943 
0.000783234 0.017448 0.999847 
0.000956237 0.0274841 0.999622 
0.00124107 0.0424929 0.999096 
0.00257863 0.0622351 0.998058 
0.00660304 0.0906508 0.995861 
0.00765362 0.128039 0.99174 
0.0151125 0.178242 0.983871 
0.0240864 0.241918 0.969998 
0.0471344 0.306119 0.950826 
0.0272117 0.5031 0.863799 
0.013249 0.685757 0.72771 
0.0582363 0.747486 0.66172 
0.019661 0.995797 0.0894559 
-0.0182774 0.933534 -0.358022 
-0.00508467 0.648192 -0.76146 
-0.068121 0.483645 -0.872609 
-0.0522337 0.267041 -0.962269 
-0.0192153 0.249379 -0.968215 
-0.0355017 0.186033 -0.981902 
-0.0180268 0.146492 -0.989048 
-0.00686136 0.105679 -0.994377 
-0.00171771 0.0738574 -0.997267 
-0.000612295 0.0473782 -0.998877 
-0.000656547 0.03173 -0.999496 
-0.000958968 0.019868 -0.999802 
-0.000712839 0.0128241 -0.999918 
-0.00106322 0.00708179 -0.999974 
-0.00100549 0.00312311 -0.999995 
-0.0009984 0.000436057 -0.999999 
-0.00130367 -0.0014438 -0.999998 
-0.00135605 -0.00280263 -0.999995 
-0.00142033 -0.00368224 -0.999992 
-0.00146634 -0.00417655 -0.99999 
-0.0013453 -0.00443299 -0.999989 
-0.00119859 -0.00449306 -0.999989 
-0.000978053 -0.00438459 -0.99999 
-0.000775765 -0.0041605 -0.999991 
-0.000558125 -0.00380723 -0.999993 
-0.000401223 -0.00343375 -0.999994 
-0.000271219 -0.0030153 -0.999995 
-0.000188451 -0.00262312 -0.999997 
-0.000152227 -0.00228928 -0.999997 
-0.000126124 -0.00199735 -0.999998 
-0.000109446 -0.00178931 -0.999998 
-9.17325e-05 -0.00163401 -0.999999 
-5.12537e-05 -0.00150095 -0.999999 
-1.58581e-05 -0.00141774 -0.999999 
3.07985e-05 -0.00134789 -0.999999 
7.31094e-05 -0.00130149 -0.999999 
0.000116616 -0.00130331 -0.999999 
0.000178048 -0.00129819 -0.999999 
0.000263228 -0.00126215 -0.999999 
-0.000235054 -0.00132156 0.999999 
-0.000167238 -0.00137413 0.999999 
-0.000114702 -0.00135539 0.999999 
-6.80578e-05 -0.0013574 0.999999 
9.29549e-07 -0.00143433 0.999999 
2.30507e-05 -0.00145384 0.999999 
7.09279e-05 -0.00156076 0.999999 
0.00011154 -0.00169556 0.999999 
0.000133121 -0.00185947 0.999998 
0.000156503 -0.0021077 0.999998 
0.000184793 -0.00240265 0.999997 
0.00024529 -0.00277467 0.999996 
0.000329335 -0.00318356 0.999995 
0.000485644 -0.00362681 0.999993 
0.000676761 -0.00399799 0.999992 
0.000939841 -0.00434462 0.99999 
0.00121072 -0.00454805 0.999989 
0.00148093 -0.00459513 0.999988 
0.00172552 -0.00445234 0.999989 
0.00197616 -0.00410503 0.99999 
0.00220904 -0.00346748 0.999992 
0.00238988 -0.00252142 0.999994 
0.00249385 -0.00119047 0.999996 
0.00262221 0.000646084 0.999996 
0.0027403 0.00320497 0.999991 
0.00302687 0.00686214 0.999972 
0.00344062 0.0119761 0.999922 
0.00417689 0.0192421 0.999806 
0.00579926 0.0300793 0.999531 
0.00913041 0.0442101 0.998981 
0.0148587 0.0636223 0.997863 
0.0261405 0.0860393 0.995949 
0.0317368 0.120384 0.99222 
0.0501642 0.156609 0.986386 
0.0663105 0.221498 0.972904 
0.106814 0.317514 0.942218 
0.0805857 0.426036 0.90111 
0.0593418 0.605994 0.793253 
0.0486386 0.925658 0.375222 
0.0077683 0.980509 -0.196309 
-0.0400338 0.739262 -0.672228 
-0.064436 0.620771 -0.78134 
-0.085385 0.382571 -0.919972 
-0.0986593 0.268291 -0.958273 
-0.0763531 0.188976 -0.979009 
-0.0572421 0.137807 -0.988804 
-0.0333642 0.110456 -0.993321 
-0.0189274 0.0812398 -0.996515 
-0.00919995 0.058251 -0.99826 
-0.00680503 0.0393199 -0.999203 
-0.00464295 0.0259475 -0.999653 
-0.00410935 0.0165938 -0.999854 
-0.00303755 0.0106202 -0.999939 
-0.00276463 0.00555783 -0.999981 
-0.00254795 0.00239738 -0.999994 
-0.00229853 0.000152465 -0.999997 
-0.00231762 -0.0016117 -0.999996 
-0.0021486 -0.00286896 -0.999994 
-0.00203268 -0.00372431 -0.999991 
-0.00187762 -0.00429243 -0.999989 
-0.00165626 -0.00457813 -0.999988 
-0.00138153 -0.00465164 -0.999988 
-0.00111663 -0.00454553 -0.999989 
-0.000843225 -0.00426815 -0.999991 
-0.000623409 -0.00391196 -0.999992 
-0.000439392 -0.00347315 -0.999994 
-0.000310064 -0.00302366 -0.999995 
-0.000231123 -0.00261911 -0.999997 
-0.000185265 -0.00224545 -0.999997 
-0.000161396 -0.00198235 -0.999998 
-0.000138514 -0.00178582 -0.999998 
-0.000102746 -0.00162026 -0.999999 
-6.40551e-05 -0.00152095 -0.999999 
-1.48049e-05 -0.00143529 -0.999999 
1.62841e-05 -0.00139973 -0.999999 
6.30192e-05 -0.00134906 -0.999999 
9.42606e-05 -0.00135172 -0.999999 
0.000146774 -0.00134644 -0.999999 
0.000215421 -0.00131801 -0.999999 
-0.000117656 -0.00137649 0.999999 
-0.000118513 -0.00143534 0.999999 
-5.39702e-05 -0.00139964 0.999999 
-1.58088e-05 -0.0014241 0.999999 
4.56385e-05 -0.00149732 0.999999 
4.69315e-05 -0.00150729 0.999999 
9.19527e-05 -0.00158232 0.999999 
0.000116495 -0.00165307 0.999999 
0.000160019 -0.00179902 0.999998 
0.000184257 -0.00198344 0.999998 
0.00022103 -0.00225272 0.999997 
0.000265539 -0.0025839 0.999997 
0.000345458 -0.00305741 0.999995 
0.000459928 -0.00349705 0.999994 
0.000650822 -0.00398167 0.999992 
0.000880676 -0.00436152 0.99999 
0.00118403 -0.00467781 0.999988 
0.00150556 -0.00481526 0.999987 
0.00184038 -0.00476212 0.999987 
0.00217792 -0.00451271 0.999987 
0.00253664 -0.00399729 0.999989 
0.00291528 -0.0031836 0.999991 
0.00326751 -0.00203201 0.999993 
0.00361463 -0.000517299 0.999993 
0.00399895 0.0015593 0.999991 
0.00448174 0.00439889 0.99998 
0.00531335 0.00847247 0.99995 
0.00664661 0.0141973 0.999877 
0.00905028 0.0226513 0.999702 
0.0138265 0.0334927 0.999343 
0.0218833 0.0479384 0.998611 
0.0355951 0.0635413 0.997344 
0.0522033 0.0913656 0.994448 
0.0778444 0.120539 0.989652 
0.099936 0.17443 0.979585 
0.137302 0.241459 0.960649 
0.166561 0.418044 0.893027 
0.120667 0.529338 0.839787 
0.0859518 0.847922 0.523107 
0.059171 0.972327 0.226005 
-0.0641031 0.937447 -0.342174 
-0.153067 0.591562 -0.791596 
-0.153189 0.343774 -0.926473 
-0.145845 0.241185 -0.959458 
-0.118414 0.16796 -0.978656 
-0.0895137 0.1209 -0.98862 
-0.0588988 0.0934129 -0.993884 
-0.0367944 0.075018 -0.996503 
-0.0214209 0.0546914 -0.998274 
-0.0146146 0.0387014 -0.999144 
-0.00967922 0.0259094 -0.999617 
-0.00743271 0.0168017 -0.999831 
-0.00561556 0.0102825 -0.999931 
-0.00450155 0.00623365 -0.99997 
-0.00403018 0.00272187 -0.999988 
-0.00353974 0.000371547 -0.999994 
-0.00322181 -0.00132595 -0.999994 
-0.00287655 -0.00274079 -0.999992 
-0.00258217 -0.0036819 -0.99999 
-0.00227834 -0.00432893 -0.999988 
-0.00196052 -0.00474499 -0.999987 
-0.00161637 -0.00487346 -0.999987 
-0.00129974 -0.00481656 -0.999988 
-0.00100014 -0.00455131 -0.999989 
-0.000752693 -0.00418981 -0.999991 
-0.000555112 -0.00373924 -0.999993 
-0.000408411 -0.00324914 -0.999995 
-0.000312955 -0.00279223 -0.999996 
-0.000249482 -0.00239947 -0.999997 
-0.000217726 -0.00208955 -0.999998 
-0.00018731 -0.00186901 -0.999998 
-0.00014639 -0.00170431 -0.999999 
-0.000106093 -0.00158615 -0.999999 
-5.66838e-05 -0.00149954 -0.999999 
-2.01004e-05 -0.00144943 -0.999999 
3.32709e-05 -0.00139501 -0.999999 
6.81178e-05 -0.00138658 -0.999999 
0.000124583 -0.00139908 -0.999999 
0.000136056 -0.00135726 -0.999999 
-3.59161e-05 -0.00140344 0.999999 
-3.05281e-05 -0.00144368 0.999999 
-7.65954e-05 -0.00140463 0.999999 
-8.16916e-06 -0.00143067 0.999999 
2.35606e-05 -0.00146538 0.999999 
9.00131e-05 -0.00157497 0.999999 
0.000136604 -0.00167378 0.999999 
0.000167762 -0.001764 0.999998 
0.00021033 -0.00193862 0.999998 
0.000245868 -0.0021502 0.999998 
0.000292779 -0.00246335 0.999997 
0.000349676 -0.00287372 0.999996 
0.000450939 -0.00336014 0.999994 
0.00058658 -0.00383898 0.999992 
0.000796729 -0.00433219 0.99999 
0.00104873 -0.00470052 0.999988 
0.00136883 -0.00498158 0.999987 
0.00171436 -0.00507403 0.999986 
0.00207493 -0.00499135 0.999985 
0.00246777 -0.00467362 0.999986 
0.0028981 -0.00410643 0.999987 
0.00336797 -0.00326639 0.999989 
0.00384872 -0.00214503 0.99999 
0.00435522 -0.000653174 0.99999 
0.00493561 0.00123245 0.999987 
0.0056583 0.00377927 0.999977 
0.00681685 0.00715303 0.999951 
0.00873289 0.0118179 0.999892 
0.0117323 0.0183948 0.999762 
0.0174375 0.0259829 0.99951 
0.0261023 0.0356941 0.999022 
0.0416477 0.0463645 0.998056 
0.0623976 0.0644757 0.995967 
0.0893571 0.072862 0.993331 
0.122657 0.107939 0.986562 
0.162974 0.151254 0.974968 
0.20708 0.322749 0.923553 
0.204832 0.593555 0.778291 
0.146708 0.832824 0.533742 
-0.0017804 0.994541 -0.104323 
-0.104737 0.798746 -0.592481 
-0.183846 0.45445 -0.871594 
-0.189666 0.202347 -0.960772 
-0.158035 0.12971 -0.978877 
-0.118974 0.0934383 -0.988491 
-0.081453 0.071944 -0.994077 
-0.0554552 0.0596365 -0.996679 
-0.0360448 0.0507181 -0.998062 
-0.0245734 0.036885 -0.999017 
-0.0161942 0.0267746 -0.99951 
-0.0115779 0.018234 -0.999767 
-0.00832057 0.0116798 -0.999897 
-0.00658642 0.00711157 -0.999953 
-0.00541341 0.00409335 -0.999977 
-0.0046812 0.00131109 -0.999988 
-0.00413143 -0.000593349 -0.999991 
-0.00359832 -0.00213397 -0.999991 
-0.00318115 -0.00332275 -0.999989 
-0.00277369 -0.00415816 -0.999988 
-0.00237011 -0.00472741 -0.999986 
-0.00196259 -0.00507359 -0.999985 
-0.00160154 -0.00512911 -0.999986 
-0.00125883 -0.00498305 -0.999987 
-0.000980103 -0.00466757 -0.999989 
-0.000747039 -0.00424783 -0.999991 
-0.000565211 -0.00374279 -0.999993 
-0.000436746 -0.00323318 -0.999995 
-0.000349199 -0.00276338 -0.999996 
-0.000289112 -0.00237923 -0.999997 
-0.00024906 -0.00208293 -0.999998 
-0.000207776 -0.00186467 -0.999998 
-0.000164015 -0.00171608 -0.999999 
-0.000126989 -0.00162224 -0.999999 
-7.9972e-05 -0.00153577 -0.999999 
-4.55978e-05 -0.00148229 -0.999999 
-5.86758e-07 -0.00142843 -0.999999 
1.99565e-05 -0.00141849 -0.999999 
6.27977e-05 -0.00142634 -0.999999 
7.28306e-05 -0.0013896 -0.999999 
3.58204e-05 -0.00139224 0.999999 
3.18089e-05 -0.00144557 0.999999 
-8.26564e-06 -0.00143016 0.999999 
4.20353e-05 -0.00146234 0.999999 
6.37352e-05 -0.00152084 0.999999 
0.000100823 -0.00160175 0.999999 
0.000131485 -0.00167352 0.999999 
0.000174132 -0.00178353 0.999998 
0.000208368 -0.00189812 0.999998 
0.000251853 -0.00210132 0.999998 
0.000293984 -0.00235989 0.999997 
0.000352996 -0.00276701 0.999996 
0.000429057 -0.00322789 0.999995 
0.000542741 -0.00375494 0.999993 
0.000701791 -0.0042594 0.999991 
0.000929031 -0.00474207 0.999988 
0.00120566 -0.00508348 0.999986 
0.00153295 -0.00529434 0.999985 
0.0018748 -0.00532258 0.999984 
0.00226168 -0.00512599 0.999984 
0.00269177 -0.00468583 0.999985 
0.00316482 -0.00398542 0.999987 
0.00368794 -0.00300809 0.999989 
0.00427239 -0.00172552 0.999989 
0.00491101 -0.000172696 0.999988 
0.00569866 0.00182067 0.999982 
0.00679148 0.00431507 0.999968 
0.00862771 0.00766842 0.999933 
0.0118379 0.0123121 0.999854 
0.0168834 0.017379 0.999706 
0.0253818 0.022894 0.999416 
0.037739 0.0288132 0.998872 
0.058903 0.0357327 0.997624 
0.0858954 0.0354141 0.995675 
0.125697 0.0493184 0.990842 
0.177686 0.0671491 0.981794 
0.221386 0.221598 0.949675 
0.273964 0.474082 0.836774 
0.136111 0.681906 0.718664 
0.0931982 0.95417 0.284389 
-0.1758 0.788429 -0.589466 
-0.229427 0.320852 -0.918922 
-0.265562 0.238685 -0.93408 
-0.167129 0.0594857 -0.984139 
-0.115295 0.0474809 -0.992196 
-0.07961 0.0372443 -0.99613 
-0.0558376 0.034871 -0.997831 
-0.0394523 0.0340587 -0.998641 
-0.0279016 0.0252965 -0.999291 
-0.019337 0.0208279 -0.999596 
-0.0135355 0.0145075 -0.999803 
-0.00972133 0.0101139 -0.999902 
-0.00736595 0.00604006 -0.999955 
-0.00596685 0.00323947 -0.999977 
-0.00510594 0.00116463 -0.999986 
-0.0043426 -0.000883369 -0.99999 
-0.00379578 -0.00228928 -0.99999 
-0.00329055 -0.00349764 -0.999988 
-0.00283035 -0.0043707 -0.999986 
-0.00240304 -0.004955 -0.999985 
-0.00199656 -0.00529493 -0.999984 
-0.00159448 -0.00538761 -0.999984 
-0.00128131 -0.00523405 -0.999985 
-0.000992297 -0.004905 -0.999987 
-0.000776803 -0.00447804 -0.99999 
-0.000602199 -0.00394443 -0.999992 
-0.000477898 -0.00341536 -0.999994 
-0.00038698 -0.00291038 -0.999996 
-0.00032178 -0.00248453 -0.999997 
-0.0002742 -0.00217781 -0.999998 
-0.000227403 -0.0019327 -0.999998 
-0.00018333 -0.00176939 -0.999998 
-0.000140792 -0.00166138 -0.999999 
-9.5918e-05 -0.00156668 -0.999999 
-6.98492e-05 -0.00151321 -0.999999 
-3.43124e-05 -0.00145737 -0.999999 
-2.18729e-05 -0.00143788 -0.999999 
1.0192e-05 -0.0014431 -0.999999 
1.09711e-05 -0.00139962 -0.999999 
0.00010701 -0.00139369 0.999999 
8.82126e-05 -0.00143797 0.999999 
3.87083e-05 -0.00144161 0.999999 
7.29117e-05 -0.00147139 0.999999 
7.6329e-05 -0.00152429 0.999999 
0.000110189 -0.00162261 0.999999 
0.000142647 -0.00171779 0.999999 
0.000178077 -0.00183672 0.999998 
0.000217887 -0.00197495 0.999998 
0.000255686 -0.00219473 0.999998 
0.000308328 -0.002516 0.999997 
0.000365371 -0.00293003 0.999996 
0.000438296 -0.0034208 0.999994 
0.000536896 -0.00395357 0.999992 
0.000689518 -0.00448779 0.99999 
0.000876193 -0.00495149 0.999987 
0.00113588 -0.00531432 0.999985 
0.00140058 -0.00552082 0.999984 
0.00169866 -0.00553895 0.999983 
0.00205072 -0.00534966 0.999984 
0.00245228 -0.00491036 0.999985 
0.00289959 -0.00421344 0.999987 
0.00339556 -0.00326074 0.999989 
0.00396567 -0.00207305 0.99999 
0.00464255 -0.000626546 0.999989 
0.00546225 0.00103505 0.999985 
0.00666121 0.0030545 0.999973 
0.00866051 0.00556265 0.999947 
0.0119255 0.00847311 0.999893 
0.0174371 0.0117438 0.999779 
0.0252616 0.0133574 0.999592 
0.0388271 0.016513 0.999109 
0.0561311 0.014279 0.998321 
0.0756401 0.00224331 0.997133 
0.113075 0.00489977 0.993574 
0.169039 0.010394 0.985555 
0.243591 0.135867 0.960314 
0.347436 0.301959 0.887755 
0.232031 0.766805 0.598473 
-0.0117782 0.997103 -0.0751357 
-0.252639 0.699206 -0.668794 
-0.30821 0.437027 -0.844993 
-0.218736 0.120504 -0.968315 
-0.17482 0.0138688 -0.984503 
-0.115845 0.00950441 -0.993222 
-0.07573 0.0068748 -0.997105 
-0.0521081 0.0131285 -0.998555 
-0.0371416 0.0168765 -0.999167 
-0.0251228 0.0141592 -0.999584 
-0.0173982 0.0123382 -0.999773 
-0.0119356 0.00897991 -0.999888 
-0.00859774 0.00630256 -0.999943 