# vtk DataFile Version 3.0 
Exported using Morpho https://github.com/Morpho-lang/morpho 
ASCII 
DATASET UNSTRUCTURED_GRID 

POINTS 1978 float 
-8.48528 -2.82843 -3.60278e-13 
-8.23109 -2.82843 3.46986e-13 
-8.00601 -2.82843 -1.25419e-13 
-7.71681 -2.82843 3.47772e-13 
-7.47309 -2.82843 7.53673e-13 
-7.19383 -2.82843 8.21045e-13 
-6.98998 -2.82843 5.54477e-13 
-6.75366 -2.82843 7.5734e-13 
-6.54362 -2.82843 7.08252e-13 
-6.3362 -2.82843 4.92402e-13 
-6.12916 -2.82843 6.18177e-13 
-5.91919 -2.82843 7.18288e-13 
-5.69994 -2.82843 4.11991e-13 
-5.49388 -2.82843 5.08015e-13 
-5.27754 -2.82843 4.42867e-13 
-5.07164 -2.82843 4.07645e-13 
-4.8539 -2.82843 2.98228e-13 
-4.64891 -2.82843 3.91332e-13 
-4.42844 -2.82843 2.9848e-13 
-4.20426 -2.82843 2.66652e-13 
-3.99416 -2.82843 1.03575e-13 
-3.79492 -2.82843 1.09653e-14 
-3.59812 -2.82843 -3.73189e-15 
-3.39491 -2.82843 -5.17533e-14 
-3.18686 -2.82843 -4.55718e-14 
-2.97322 -2.82843 5.95413e-14 
-2.76127 -2.82843 5.48687e-13 
-2.52314 -2.82843 1.40555e-12 
-2.28826 -2.82843 2.44652e-12 
-2.07597 -2.82843 3.88137e-12 
-1.83608 -2.82843 5.43561e-12 
-1.60221 -2.82843 6.21225e-12 
-1.38562 -2.82843 7.13595e-12 
-1.14683 -2.82843 5.91707e-12 
-1.001 -2.82843 3.83904e-12 
-0.79721 -2.82843 2.89033e-12 
-0.623263 -2.82843 1.25796e-12 
-0.480481 -2.82843 -1.2387e-12 
-0.213116 -2.82843 8.39905e-13 
-0.0392156 -2.82843 -4.6129e-12 
0.268422 -2.82843 3.1796e-12 
0.476258 -2.82843 -1.13106e-13 
0.64651 -2.82843 -3.1994e-12 
0.902022 -2.82843 -2.6206e-12 
1.05577 -2.82843 -4.45262e-12 
1.20839 -2.82843 -6.40243e-12 
1.38399 -2.82843 -6.18262e-12 
1.58781 -2.82843 -6.42181e-12 
1.81813 -2.82843 -5.90262e-12 
2.05877 -2.82843 -4.46033e-12 
2.29233 -2.82843 -2.89787e-12 
2.53149 -2.82843 -1.47178e-12 
2.77054 -2.82843 -4.23032e-13 
2.99546 -2.82843 -1.34672e-13 
3.2136 -2.82843 1.41314e-13 
3.41578 -2.82843 1.28948e-14 
3.61921 -2.82843 3.29658e-14 
3.80351 -2.82843 -5.35408e-15 
4.01897 -2.82843 -1.78836e-13 
4.23407 -2.82843 -1.86333e-13 
4.43836 -2.82843 -2.89781e-13 
4.64677 -2.82843 -3.52841e-13 
4.85188 -2.82843 -2.86377e-13 
5.06038 -2.82843 -4.25226e-13 
5.26986 -2.82843 -4.86749e-13 
5.49203 -2.82843 -4.25293e-13 
5.69174 -2.82843 -5.5823e-13 
5.91261 -2.82843 -6.11979e-13 
6.14363 -2.82843 -5.56209e-13 
6.35306 -2.82843 -7.36693e-13 
6.59121 -2.82843 -8.4661e-13 
6.81069 -2.82843 -5.2847e-13 
6.99915 -2.82843 -8.32869e-13 
7.26056 -2.82843 -8.9322e-13 
7.48976 -2.82843 -5.47548e-13 
7.72411 -2.82843 -3.75965e-13 
7.9808 -2.82843 9.68114e-14 
8.17166 -2.82843 3.83648e-13 
8.48528 -2.82843 1.88288e-14 
-8.48528 -2.56667 5.43461e-13 
-8.27014 -2.61218 1.7601e-12 
-8.02523 -2.56497 4.35186e-12 
-7.81031 -2.63357 6.40645e-12 
-7.55722 -2.60665 7.61329e-12 
-7.27891 -2.64496 1.09313e-11 
-7.01982 -2.57618 8.75406e-12 
-6.81042 -2.60921 1.04763e-11 
-6.56985 -2.58643 9.5927e-12 
-6.34961 -2.58633 8.71145e-12 
-6.12634 -2.5788 7.78866e-12 
-5.90363 -2.58999 7.61533e-12 
-5.68733 -2.57837 6.49677e-12 
-5.46554 -2.59274 6.84208e-12 
-5.25255 -2.58207 5.91604e-12 
-5.03261 -2.59446 5.94818e-12 
-4.82261 -2.58111 4.88297e-12 
-4.6027 -2.59712 4.89285e-12 
-4.37803 -2.60157 4.02401e-12 
-4.15973 -2.59213 2.64661e-12 
-3.95277 -2.58296 1.23992e-12 
-3.74653 -2.58108 -2.49495e-13 
-3.5344 -2.58648 -2.18832e-12 
-3.31519 -2.58555 -4.7905e-12 
-3.09059 -2.58491 -7.45517e-12 
-2.86035 -2.57001 -1.00616e-11 
-2.6283 -2.5915 -1.03746e-11 
-2.37647 -2.58045 -9.96578e-12 
-2.149 -2.56093 -8.19121e-12 
-1.93438 -2.60087 -1.69746e-11 
-1.70223 -2.62033 -1.27268e-11 
-1.48705 -2.62941 -3.53999e-11 
-1.27649 -2.67874 -3.57175e-12 
-1.11379 -2.62333 -2.90136e-11 
-0.936647 -2.70634 -2.53752e-11 
-0.847802 -2.58055 1.30259e-11 
-0.751243 -2.70358 -1.55799e-13 
-0.386372 -2.76662 2.73441e-11 
-0.210123 -2.73964 5.52284e-12 
-0.0273162 -2.74377 1.46476e-11 
0.144167 -2.77619 8.54123e-12 
0.417504 -2.74047 6.71792e-12 
0.597371 -2.7187 -1.88957e-11 
0.806154 -2.74296 1.79623e-11 
0.987569 -2.67663 8.70782e-13 
1.15759 -2.61455 -7.68244e-11 
1.31944 -2.6213 1.91269e-11 
1.51791 -2.62129 1.59061e-11 
1.74847 -2.62128 1.38931e-11 
1.99312 -2.60348 1.14054e-11 
2.24261 -2.58782 7.76002e-12 
2.49256 -2.58805 1.09617e-11 
2.74571 -2.59226 1.12854e-11 
2.99741 -2.57486 1.00854e-11 
3.22012 -2.57501 5.9242e-12 
3.44413 -2.5898 3.34685e-12 
3.64331 -2.56672 1.13599e-12 
3.86087 -2.60283 -6.54395e-13 
4.0822 -2.59662 -2.2595e-12 
4.29527 -2.58232 -2.9903e-12 
4.50676 -2.58697 -4.172e-12 
4.71798 -2.58327 -4.84109e-12 
4.92977 -2.58758 -5.3571e-12 
5.14222 -2.58727 -5.91756e-12 
5.36252 -2.60078 -6.7987e-12 
5.57481 -2.57438 -6.03137e-12 
5.78967 -2.59459 -7.55235e-12 
6.01971 -2.60094 -8.30282e-12 
6.24048 -2.57311 -7.59513e-12 
6.46324 -2.60371 -1.03745e-11 
6.69126 -2.58819 -9.79553e-12 
6.89469 -2.5547 -8.11091e-12 
7.11617 -2.63134 -1.26355e-11 
7.36478 -2.59769 -8.9169e-12 
7.59559 -2.59739 -7.01468e-12 
7.84578 -2.61408 -5.36865e-12 
8.06082 -2.53796 -2.18665e-12 
8.29304 -2.65093 -8.4789e-13 
8.48528 -2.53959 -3.27023e-13 
-8.48528 -2.34298 -3.46178e-14 
-8.21288 -2.3694 -7.23204e-13 
-7.96413 -2.32361 2.33392e-12 
-7.73384 -2.40141 2.01765e-12 
-7.54855 -2.27996 -2.67247e-12 
-7.38519 -2.45029 1.94103e-12 
-7.13556 -2.39281 4.66918e-13 
-6.89609 -2.33052 1.91652e-15 
-6.69059 -2.37864 1.13322e-12 
-6.45846 -2.34611 1.03004e-13 
-6.23902 -2.34784 7.87415e-13 
-6.01571 -2.34314 4.46583e-14 
-5.80243 -2.34197 7.00833e-14 
-5.57465 -2.34895 3.647e-13 
-5.36176 -2.34493 -4.03938e-14 
-5.13755 -2.35518 1.45167e-13 
-4.92549 -2.34281 -2.14273e-13 
-4.70432 -2.3565 -9.79325e-14 
-4.48512 -2.36947 3.26131e-14 
-4.26761 -2.36394 -1.33229e-13 
-4.05627 -2.34328 -2.46757e-13 
-3.84827 -2.33901 -1.44221e-13 
-3.6348 -2.34463 3.97683e-15 
-3.41797 -2.34836 -3.7635e-13 
-3.1949 -2.34354 -7.47769e-13 
-2.97139 -2.33836 -1.25174e-12 
-2.73449 -2.33112 1.09542e-12 
-2.50831 -2.36141 -2.8066e-13 
-2.27706 -2.32469 2.86698e-12 
-2.05761 -2.33187 2.32722e-12 
-1.84125 -2.40463 1.37183e-11 
-1.62605 -2.42301 -7.86966e-12 
-1.4061 -2.47074 1.54395e-11 
-1.24009 -2.47628 -1.25407e-11 
-0.999179 -2.53304 4.17933e-11 
-0.834416 -2.43825 6.23395e-12 
-0.602758 -2.69479 2.21085e-11 
-0.344359 -2.6671 1.46985e-11 
-0.216456 -2.6236 -1.85914e-11 
-0.090893 -2.6557 -2.72386e-11 
0.276569 -2.70945 7.41501e-12 
0.417419 -2.61721 2.18963e-11 
0.737797 -2.63986 -3.05095e-11 
0.889437 -2.57423 1.0275e-10 
1.04562 -2.50844 3.92674e-11 
1.22529 -2.41406 -9.66173e-12 
1.3923 -2.42746 1.67953e-11 
1.59807 -2.43199 -1.76319e-11 
1.80396 -2.4087 -1.63812e-12 
2.02859 -2.37852 8.0861e-13 
2.26023 -2.36487 -1.44834e-11 
2.48349 -2.34414 7.83016e-13 
2.71343 -2.35939 2.15395e-12 
2.95154 -2.34741 1.51274e-12 
3.18711 -2.3247 5.61616e-13 
3.40194 -2.35112 4.90565e-13 
3.61028 -2.31233 -2.40183e-13 
3.8155 -2.36232 1.35799e-13 
4.02468 -2.36638 1.35319e-13 
4.23903 -2.34586 2.92784e-13 
4.45378 -2.34264 2.57507e-13 
4.66145 -2.34205 2.24101e-13 
4.87373 -2.34518 3.16371e-13 
5.08363 -2.34623 2.87489e-13 
5.29993 -2.36405 -3.29641e-13 
5.51036 -2.34054 1.43134e-13 
5.73319 -2.34751 -3.33821e-13 
5.9505 -2.36973 -9.51345e-13 
6.17094 -2.34027 -1.64803e-13 
6.40426 -2.35342 -8.01307e-13 
6.61729 -2.35866 -1.10055e-12 
6.83047 -2.30657 6.1708e-13 
7.05902 -2.37421 -1.00691e-12 
7.26911 -2.39892 -3.89875e-13 
7.52135 -2.35896 2.11835e-12 
7.75837 -2.38979 -1.63235e-12 
7.97678 -2.31058 -2.05716e-12 
8.25123 -2.38782 1.22131e-12 
8.48528 -2.29997 -1.72234e-13 
-8.48528 -2.05087 -4.95404e-13 
-8.28562 -2.1567 -2.3498e-12 
-8.0414 -2.09239 -2.82486e-13 
-7.77081 -2.13171 -1.69193e-12 
-7.5106 -2.0485 -5.30434e-12 
-7.29308 -2.22646 -2.038e-12 
-7.04162 -2.13866 -3.093e-12 
-6.78674 -2.10002 -3.2872e-12 
-6.58781 -2.13834 -2.53112e-12 
-6.35314 -2.10989 -2.62525e-12 
-6.13488 -2.10752 -2.72581e-12 
-5.91604 -2.09546 -2.53284e-12 
-5.69483 -2.11537 -2.2271e-12 
-5.47557 -2.10084 -2.46577e-12 
-5.2548 -2.11834 -2.58452e-12 
-5.04147 -2.10738 -2.48155e-12 
-4.81971 -2.11503 -2.19332e-12 
-4.60278 -2.12747 -1.90839e-12 
-4.38864 -2.13128 -1.53598e-12 
-4.18021 -2.11434 -9.5839e-13 
-3.96889 -2.09747 -1.21319e-13 
-3.75467 -2.10384 8.78497e-13 
-3.53703 -2.10728 1.89502e-12 
-3.31664 -2.10692 2.72717e-12 
-3.09373 -2.09653 3.62945e-12 
-2.87252 -2.10304 5.69437e-12 
-2.64078 -2.10215 8.72776e-12 
-2.43534 -2.12542 8.39108e-12 
-2.21587 -2.10068 8.80316e-12 
-2.02656 -2.11069 1.11481e-11 
-1.83851 -2.20803 2.25343e-11 
-1.6311 -2.22966 -1.36704e-11 
-1.44267 -2.29294 2.91371e-11 
-1.26805 -2.27991 -5.1685e-11 
-1.10805 -2.39446 1.72933e-11 
-0.951884 -2.37082 3.23854e-11 
-0.694893 -2.56089 4.31336e-11 
-0.49598 -2.65431 6.93739e-12 
-0.285083 -2.53294 -4.96743e-11 
0.0894661 -2.67826 -3.10527e-11 
0.324489 -2.56219 3.55943e-11 
0.563315 -2.61284 -5.10055e-11 
0.702315 -2.52599 -5.66239e-11 
0.83999 -2.44394 2.73533e-11 
1.0307 -2.38646 -1.01621e-11 
1.27509 -2.23151 2.1404e-11 
1.46087 -2.25689 -1.69407e-11 
1.64155 -2.22477 -2.65463e-11 
1.84745 -2.20497 -4.277e-12 
2.0729 -2.16955 -3.44924e-12 
2.28329 -2.14232 -1.1774e-11 
2.49552 -2.11026 -9.34392e-12 
2.71204 -2.12557 -4.4609e-12 
2.94445 -2.11393 -3.48952e-12 
3.16847 -2.08607 -4.05258e-12 
3.39304 -2.10202 -2.66705e-12 
3.61327 -2.07767 -1.73779e-12 
3.83403 -2.1188 -5.01649e-13 
4.04802 -2.12664 4.24531e-13 
4.26749 -2.10938 1.13533e-12 
4.47718 -2.09709 1.72597e-12 
4.69191 -2.10378 2.18754e-12 
4.90257 -2.10263 2.39346e-12 
5.12158 -2.11373 2.46214e-12 
5.33004 -2.11724 2.42185e-12 
5.55439 -2.10977 2.39759e-12 
5.77443 -2.11105 2.36803e-12 
5.98718 -2.1244 2.49091e-12 
6.22447 -2.11503 2.55292e-12 
6.43785 -2.10299 3.0263e-12 
6.64547 -2.1038 3.301e-12 
6.89616 -2.09563 3.3162e-12 
7.10276 -2.1268 3.31283e-12 
7.32788 -2.17598 4.80591e-12 
7.52775 -2.08339 6.43713e-12 
7.72773 -2.15151 3.69153e-12 
7.94677 -2.06782 2.41525e-13 
8.19106 -2.16767 1.09037e-12 
8.48528 -2.10968 1.71147e-13 
-8.48528 -1.81476 1.14317e-13 
-8.24762 -1.90756 -1.96587e-12 
-7.92365 -1.90217 -7.97354e-13 
[...]
POINT_DATA 1978 
VECTORS vectors float
0.00102927 -0.00110386 0.999999 
0.000190028 -0.0294997 0.999565 
0.000221159 -0.0137762 0.999905 
0.000540387 -0.0196644 0.999806 
0.000478972 -0.0530313 0.998593 
0.000453315 -0.0711062 0.997469 
0.000446176 -0.0712467 0.997459 
0.00021392 -0.0665144 0.997785 
0.000554807 -0.0649945 0.997885 
0.000750042 -0.0638747 0.997958 
0.000574842 -0.0609573 0.99814 
0.000197021 -0.0564519 0.998405 
0.000508597 -0.0514968 0.998673 
0.00055968 -0.0476958 0.998862 
0.000403287 -0.0441359 0.999025 
0.00037379 -0.041468 0.99914 
0.000513187 -0.0394886 0.99922 
0.000510339 -0.0367474 0.999324 
0.000282597 -0.032503 0.999472 
0.000381904 -0.0264912 0.999649 
0.000534108 -0.018803 0.999823 
0.000578259 -0.00916379 0.999958 
0.000473436 0.00342088 0.999994 
0.000356829 0.0205298 0.999789 
0.000364341 0.0425012 0.999096 
0.000385816 0.0692428 0.9976 
0.000284757 0.0999887 0.994989 
0.000230453 0.138218 0.990402 
0.000250182 0.180708 0.983537 
0.000194348 0.222514 0.97493 
0.000177961 0.276126 0.961121 
0.000146177 0.340131 0.940378 
8.3255e-05 0.40922 0.912436 
6.92987e-05 0.504068 0.863664 
0.000273615 0.574398 0.818576 
-7.57652e-05 0.682969 0.730447 
-0.000417565 0.786788 0.617223 
-1.61496e-05 0.867079 0.49817 
-4.29661e-06 0.970705 0.240273 
1.19968e-05 0.999267 0.0382931 
-1.60066e-05 0.95379 -0.300475 
7.83625e-05 0.862002 -0.506905 
0.000235368 0.771836 -0.635822 
1.14809e-06 0.623079 -0.782159 
-0.000420649 0.536004 -0.844215 
-0.000329956 0.477947 -0.878389 
8.78237e-06 0.411627 -0.911352 
-0.000152033 0.340181 -0.94036 
-0.000242846 0.279062 -0.960273 
-0.000103974 0.228563 -0.973529 
-0.000233238 0.181309 -0.983426 
-0.000362682 0.138296 -0.990391 
-0.00020506 0.0998297 -0.995005 
-0.000254065 0.0670472 -0.99775 
-0.000432764 0.0404693 -0.999181 
-0.000431021 0.0197292 -0.999805 
-0.000605325 0.00310716 -0.999995 
-0.000567332 -0.00881767 -0.999961 
-0.000220331 -0.019212 -0.999815 
-0.000431814 -0.0273359 -0.999626 
-0.000626488 -0.0334171 -0.999441 
-0.000481108 -0.0376463 -0.999291 
-0.000467154 -0.0403078 -0.999187 
-0.000470143 -0.0424372 -0.999099 
-0.000335386 -0.0443697 -0.999015 
-0.000535464 -0.046407 -0.998922 
-0.000584087 -0.0492817 -0.998785 
-0.000256401 -0.0535598 -0.998565 
-0.000507038 -0.0586717 -0.998277 
-0.000416759 -0.063082 -0.998008 
-0.000213628 -0.0679681 -0.997687 
-0.000747543 -0.0747217 -0.997204 
-0.000470891 -0.0801584 -0.996782 
-0.000295915 -0.0798294 -0.996808 
-0.000471383 -0.0564946 -0.998403 
-0.000345882 -0.0125408 -0.999921 
-0.000641069 0.0033447 -0.999994 
0.000505564 -0.0112182 -0.999937 
-0.00147637 -0.000808548 -0.999999 
0.00135585 6.42664e-05 0.999999 
0.0135171 -0.027212 0.999538 
0.020665 -0.0214551 0.999556 
0.0222673 -0.0195826 0.99956 
0.0200381 -0.0379296 0.999079 
0.0195393 -0.0624237 0.997858 
0.0225482 -0.0681244 0.997422 
0.0237263 -0.0670194 0.99747 
0.0254366 -0.064178 0.997614 
0.0256112 -0.0612469 0.997794 
0.0257317 -0.057552 0.998011 
0.0253654 -0.0535739 0.998242 
0.0254538 -0.0491462 0.998467 
0.0252674 -0.0454543 0.998647 
0.0251081 -0.0423457 0.998787 
0.0244423 -0.0396839 0.998913 
0.0238315 -0.0370857 0.999028 
0.0229878 -0.0337612 0.999166 
0.0217641 -0.0287709 0.999349 
0.020087 -0.0217004 0.999563 
0.0179867 -0.0128234 0.999756 
0.0153837 -0.00147985 0.999881 
0.0125376 0.0135712 0.999829 
0.00823665 0.034093 0.999385 
0.00129145 0.0605766 0.998163 
-0.00937055 0.0936207 0.995564 
-0.0193453 0.129602 0.991377 
-0.0340352 0.174945 0.98399 
-0.0494999 0.219512 0.974353 
-0.0484977 0.260648 0.964215 
-0.0506228 0.316698 0.947175 
-0.0505855 0.380131 0.923548 
-0.0397413 0.453092 0.890578 
-0.0545392 0.527853 0.847583 
-0.0282035 0.610857 0.791238 
-0.0638317 0.651516 0.755945 
-0.0286334 0.711717 0.701883 
-0.0104222 0.893484 0.448974 
-0.00836626 0.967845 0.251409 
-0.00354702 0.999472 0.0322944 
0.00136558 0.987929 -0.1549 
0.0126187 0.886749 -0.46208 
0.0265539 0.799031 -0.600703 
0.0213923 0.688867 -0.724572 
0.0390134 0.571222 -0.819868 
0.0702041 0.510248 -0.857157 
0.0600486 0.440205 -0.895887 
0.0575896 0.365046 -0.929207 
0.0517492 0.299129 -0.952808 
0.0479623 0.246769 -0.967887 
0.0431186 0.200756 -0.978692 
0.0280558 0.155184 -0.987487 
0.013141 0.110908 -0.993744 
0.00239413 0.0737818 -0.997272 
-0.00508516 0.0459177 -0.998932 
-0.0107145 0.022469 -0.99969 
-0.0132036 0.00687105 -0.999889 
-0.0166739 -0.00793304 -0.99983 
-0.0192042 -0.0185707 -0.999643 
-0.0204772 -0.0263089 -0.999444 
-0.0220524 -0.0322762 -0.999236 
-0.0231735 -0.0363023 -0.999072 
-0.0238114 -0.0392035 -0.998947 
-0.0246897 -0.0415122 -0.998833 
-0.0251378 -0.0437953 -0.998724 
-0.0257453 -0.0460783 -0.998606 
-0.0259026 -0.0494743 -0.998439 
-0.0257348 -0.0538686 -0.998216 
-0.0260357 -0.0584699 -0.99795 
-0.0256791 -0.0640574 -0.997616 
-0.0250599 -0.0701588 -0.997221 
-0.0239391 -0.0748999 -0.996904 
-0.0212049 -0.076372 -0.996854 
-0.0188188 -0.0617904 -0.997912 
-0.0192569 -0.0362052 -0.999159 
-0.0221712 -0.0135959 -0.999662 
-0.0178015 -0.0196169 -0.999649 
-0.01144 -0.0198775 -0.999737 
-0.000205563 -7.38811e-07 -1 
-0.000225171 -0.000834875 1 
0.00639702 -0.0297427 0.999537 
0.0128544 -0.0277066 0.999533 
0.0143335 -0.0276226 0.999516 
0.00309226 -0.0365503 0.999327 
0.0152395 -0.0502113 0.998622 
0.0161481 -0.0635763 0.997846 
0.0180295 -0.0679402 0.997526 
0.0214392 -0.0658259 0.997601 
0.0213588 -0.0613204 0.99789 
0.0223386 -0.0572975 0.998107 
0.0216008 -0.0528747 0.998368 
0.0212006 -0.0488485 0.998581 
0.0211044 -0.0452229 0.998754 
0.0199642 -0.0422798 0.998906 
0.0193861 -0.039504 0.999031 
0.0178007 -0.0368096 0.999164 
0.0171083 -0.0336369 0.999288 
0.015977 -0.0290246 0.999451 
0.013239 -0.0221961 0.999666 
0.00907927 -0.012861 0.999876 
0.00518297 -0.0015869 0.999985 
0.00046635 0.0131702 0.999913 
-0.00543069 0.032813 0.999447 
-0.0157537 0.0595618 0.9981 
-0.0306154 0.0928275 0.995211 
-0.0516026 0.132676 0.989815 
-0.0659538 0.16866 0.983465 
-0.09492 0.215325 0.971918 
-0.114473 0.256368 0.959777 
-0.112188 0.293965 0.949209 
-0.116622 0.348355 0.93008 
-0.110773 0.409567 0.90553 
-0.108798 0.470856 0.875476 
-0.0885604 0.577179 0.811801 
-0.108651 0.672504 0.732075 
-0.0282023 0.798973 0.600706 
-0.0202597 0.922453 0.385577 
-0.0148149 0.973687 0.227407 
-0.00770959 0.996459 0.0837226 
0.00854756 0.946749 -0.321858 
0.0289309 0.885904 -0.462965 
0.0497639 0.724705 -0.68726 
0.0606014 0.645075 -0.761713 
0.0972762 0.579128 -0.809412 
0.139698 0.486763 -0.862291 
0.12835 0.417464 -0.899583 
0.123009 0.351737 -0.927982 
0.115076 0.300168 -0.946919 
0.104584 0.255181 -0.961221 
0.0955932 0.218402 -0.971165 
0.0740232 0.177791 -0.98128 
0.0490208 0.134908 -0.989645 
0.0306677 0.0952757 -0.994978 
0.0181295 0.0626044 -0.997874 
0.00630169 0.0358006 -0.999339 
0.00272713 0.0179027 -0.999836 
-0.00506432 0.000937416 -0.999987 
-0.00939331 -0.0113542 -0.999891 
-0.011495 -0.0206976 -0.99972 
-0.0140626 -0.0280843 -0.999507 
-0.0158629 -0.0331667 -0.999324 
-0.017123 -0.0367255 -0.999179 
-0.0183196 -0.0392607 -0.999061 
-0.0203399 -0.0415923 -0.998928 
-0.0204439 -0.0436786 -0.998836 
-0.0217463 -0.0466606 -0.998674 
-0.0228988 -0.050498 -0.998462 
-0.0219877 -0.0549669 -0.998246 
-0.022536 -0.0613981 -0.997859 
-0.0221319 -0.0678758 -0.997448 
-0.0187963 -0.0732923 -0.997133 
-0.0172332 -0.0730982 -0.997176 
-0.0127219 -0.0640051 -0.997868 
-0.00550656 -0.042728 -0.999072 
-0.011983 -0.0262084 -0.999585 
-0.0111757 -0.0263105 -0.999591 
-0.00628572 -0.028196 -0.999583 
0.000687084 -0.00090983 -0.999999 
-0.000917698 -0.000747149 0.999999 
-0.00575021 -0.0312817 0.999494 
-0.000520655 -0.0334647 0.99944 
-0.00110038 -0.0286545 0.999589 
-0.00620765 -0.0367221 0.999306 
0.00571975 -0.0536807 0.998542 
0.0099156 -0.0661924 0.997758 
0.0145733 -0.0683634 0.997554 
0.0166982 -0.0641793 0.997799 
0.0176029 -0.058041 0.998159 
0.0175512 -0.0529061 0.998445 
0.0172434 -0.0481437 0.998692 
0.0167879 -0.0448147 0.998854 
0.0156506 -0.0417131 0.999007 
0.0141727 -0.0393082 0.999127 
0.013085 -0.0368916 0.999234 
0.0119423 -0.0339743 0.999351 
0.0102094 -0.0297112 0.999506 
0.0075662 -0.0232793 0.9997 
0.00392387 -0.014239 0.999891 
-0.000909289 -0.00208411 0.999997 
-0.00702142 0.0127384 0.999894 
-0.0154285 0.032707 0.999346 
-0.0275737 0.0590012 0.997877 
-0.0459752 0.093654 0.994543 
-0.0690363 0.133113 0.988693 
-0.0973936 0.177494 0.979291 
-0.118991 0.212909 0.9698 
-0.154794 0.261758 0.952639 
-0.181453 0.300081 0.936497 
-0.178825 0.325129 0.928608 
-0.187143 0.372439 0.908992 
-0.184286 0.419733 0.888742 
-0.188974 0.472639 0.860756 
-0.145114 0.53501 0.83229 
-0.151266 0.613624 0.774974 
-0.0598824 0.73946 0.670532 
-0.0318698 0.873681 0.485454 
-0.0255999 0.956912 0.289248 
0.00310763 0.991272 -0.131798 
0.0254961 0.925227 -0.378558 
0.048482 0.814558 -0.578053 
0.0797058 0.747067 -0.659953 
0.111862 0.674214 -0.730016 
0.147125 0.575566 -0.804412 
0.215896 0.476171 -0.852438 
0.199347 0.413059 -0.888619 
0.199389 0.370626 -0.907128 
0.178226 0.321509 -0.929983 
0.160497 0.280571 -0.94632 
0.139623 0.241134 -0.960396 
0.116682 0.205303 -0.971718 
0.0848527 0.159741 -0.983505 
0.058834 0.116484 -0.991448 
0.0408637 0.0830486 -0.995707 
0.0241239 0.0507443 -0.99842 
0.0136266 0.0279981 -0.999515 
0.00494292 0.00746822 -0.99996 
-0.000692038 -0.00669558 -0.999977 
-0.00504211 -0.0177106 -0.99983 
-0.00824945 -0.0257607 -0.999634 
-0.0104601 -0.0317528 -0.999441 
-0.0121559 -0.0354746 -0.999297 
-0.0135326 -0.0381202 -0.999182 
-0.0149611 -0.040196 -0.99908 
-0.016235 -0.042506 -0.998964 
-0.0171522 -0.0453975 -0.998822 
-0.0176311 -0.0492121 -0.998633 
-0.0177467 -0.0547806 -0.998341 
-0.0174827 -0.0614621 -0.997956 
-0.0168016 -0.0685374 -0.997507 
-0.0139539 -0.0740525 -0.997157 
-0.00878308 -0.0707154 -0.997458 
-0.000208127 -0.0572146 -0.998362 
0.00898658 -0.0404278 -0.999142 
0.00567022 -0.0305128 -0.999518 
0.000698804 -0.0307435 -0.999527 
-0.00068417 -0.0330292 -0.999454 
0.000555295 -0.000639615 -1 
-0.000642779 -0.000669397 1 
-0.00687652 -0.034759 0.999372 
-0.00308327 -0.0310702 0.999512 
-0.00594137 -0.0283441 0.999581 
0.00206068 -0.0426384 0.999088 
0.00215913 -0.0559918 0.998429 
0.0120039 -0.064311 0.997858 
0.0151715 -0.0702118 0.997417 
0.0219652 -0.0679181 0.997449 
0.0216946 -0.061769 0.997855 
0.0244685 -0.0539695 0.998243 
0.0246293 -0.0483374 0.998527 
0.0241825 -0.0440376 0.998737 
0.0234292 -0.0411747 0.998877 
0.0227075 -0.0386096 0.998996 
0.0219518 -0.0366298 0.999088 
0.0202381 -0.0342184 0.999209 
0.0186635 -0.0301965 0.99937 
0.0159554 -0.0238496 0.999588 
0.013439 -0.0146209 0.999803 
0.00910709 -0.0024348 0.999956 
0.00218431 0.0137679 0.999903 
-0.00834513 0.0339828 0.999388 
-0.023397 0.0616873 0.997821 
-0.0448325 0.09752 0.994223 
-0.0727785 0.141468 0.987264 
-0.103016 0.184218 0.977472 
-0.137675 0.231734 0.962987 
-0.166711 0.267429 0.949046 
-0.21147 0.320564 0.92332 
-0.236609 0.351043 0.905972 
-0.244045 0.378845 0.892703 
-0.262371 0.428018 0.864848 
-0.276122 0.468998 0.838926 
-0.221023 0.539877 0.812208 
-0.155209 0.697427 0.699646 
-0.0951592 0.748971 0.655734 
-0.0530829 0.817107 0.574037 
-0.0407899 0.905727 0.421894 
-0.01076 0.992425 0.122378 
0.0116318 0.967983 -0.250746 
0.0669359 0.83083 -0.552487 
0.15874 0.720801 -0.67472 
0.173244 0.637132 -0.751032 
0.209518 0.547088 -0.81043 
0.279259 0.461957 -0.84179 
0.280117 0.430975 -0.857785 
0.254585 0.385971 -0.886686 
0.225743 0.342066 -0.912157 
0.215455 0.322147 -0.921846 
0.183369 0.284071 -0.941105 
0.157389 0.252789 -0.954634 
0.12268 0.208392 -0.970321 
0.0893961 0.161349 -0.98284 
0.0605426 0.122354 -0.990638 
0.0339249 0.0801558 -0.996205 
0.0163554 0.0505157 -0.998589 
0.00384793 0.022706 -0.999735 
-0.00411767 0.00440965 -0.999982 
-0.0103342 -0.0094526 -0.999902 
-0.0160793 -0.0199129 -0.999672 
-0.018698 -0.0279289 -0.999435 
-0.0210119 -0.0328616 -0.999239 
-0.0213332 -0.0359871 -0.999125 
-0.0228578 -0.0380541 -0.999014 
-0.0231734 -0.0401137 -0.998926 
-0.0240706 -0.0426135 -0.998802 
-0.0243101 -0.0460489 -0.998643 
-0.0232405 -0.0511463 -0.998421 
-0.0245493 -0.0583111 -0.997997 
-0.0239055 -0.0665218 -0.997499 
-0.0201177 -0.0731059 -0.997121 
-0.0159659 -0.0716743 -0.9973 
-0.00454639 -0.0596247 -0.998211 
0.00281718 -0.0409929 -0.999155 
0.00714281 -0.0301363 -0.99952 
0.00124312 -0.0339612 -0.999422 
0.00291684 -0.0343664 -0.999405 
-4.47818e-05 -0.000392866 -1 
0.000302138 -0.00063265 1 
0.00206751 -0.0332138 0.999446 
-0.00272093 -0.0378238 0.999281 
0.00407732 -0.0290229 0.99957 
0.00420707 -0.0288663 0.999574 
0.018789 -0.0561282 0.998247 
0.0287211 -0.0706676 0.997086 
0.0311441 -0.0705464 0.997022 
0.0347533 -0.0630426 0.997406 
0.0348431 -0.0560312 0.997821 
0.0370803 -0.0485525 0.998132 
0.0368472 -0.0437529 0.998363 
0.0368714 -0.0404462 0.998501 
0.0354341 -0.0382397 0.99864 
0.0362575 -0.036244 0.998685 
0.0348645 -0.034313 0.998803 
0.0335668 -0.0309043 0.998959 
0.0317103 -0.0247751 0.99919 
0.0293849 -0.0157691 0.999444 
0.0255875 -0.00321258 0.999667 
0.0186654 0.0128879 0.999743 
0.0085593 0.0344231 0.999371 
-0.0068018 0.0619599 0.998055 
-0.0290133 0.099392 0.994625 
-0.0584896 0.146046 0.987547 
-0.0941171 0.197284 0.975818 
-0.128851 0.239833 0.962225 
-0.170573 0.292431 0.940951 
-0.20197 0.322782 0.924673 
-0.253253 0.384803 0.887575 
-0.26525 0.381665 0.885423 
-0.29643 0.412441 0.861407 
-0.312863 0.442112 0.840627 
-0.351816 0.48906 0.798152 
-0.371511 0.519955 0.769173 
-0.291326 0.513499 0.807123 
-0.21421 0.61473 0.759092 
-0.0744548 0.820509 0.566764 
-0.0305904 0.967748 0.250057 
0.000420011 0.998637 -0.0521903 
0.0199777 0.959633 -0.280546 
0.110994 0.765035 -0.634352 
0.237226 0.655013 -0.717413 
0.262126 0.595763 -0.759182 
0.293537 0.52943 -0.795952 
0.348468 0.470016 -0.81096 
0.310738 0.427738 -0.848812 
0.280328 0.392832 -0.875842 
0.265022 0.380259 -0.886096 
0.232732 0.350028 -0.907368 
0.198413 0.312519 -0.928959 
0.16215 0.276152 -0.947337 
0.125583 0.23605 -0.963592 
0.0894909 0.186152 -0.978437 
0.052174 0.135497 -0.989403 
0.0253482 0.0963856 -0.995021 
0.00381158 0.0557364 -0.998438 
-0.00974658 0.0287937 -0.999538 
-0.0185699 0.00857115 -0.999791 
-0.0250477 -0.00664747 -0.999664 
-0.0306 -0.0186348 -0.999358 
-0.0333565 -0.0270324 -0.999078 
-0.0351154 -0.032361 -0.998859 
-0.0353774 -0.0352537 -0.998752 
-0.036592 -0.0370494 -0.998643 
-0.0364163 -0.0389819 -0.998576 
-0.0369231 -0.0413699 -0.998461 
-0.0367256 -0.0449248 -0.998315 
-0.0351921 -0.0505237 -0.998103 
-0.0363286 -0.0581538 -0.997646 
-0.0350846 -0.0671572 -0.997125 
-0.0305314 -0.0733875 -0.996836 
-0.0291221 -0.070745 -0.997069 
-0.0182627 -0.0584577 -0.998123 
-0.0108295 -0.0388167 -0.999188 
-0.00240738 -0.0286603 -0.999586 
-0.005596 -0.0324246 -0.999459 
-0.000773841 -0.0351537 -0.999382 
0.000184663 -0.000559268 -1 
0.000453204 -0.000477842 1 
0.00901025 -0.0341607 0.999376 
0.0100405 -0.032867 0.999409 
0.0128388 -0.026405 0.999569 
0.0152593 -0.0382071 0.999153 
0.0277164 -0.0561062 0.99804 
0.0334423 -0.0688094 0.997069 
0.0378924 -0.0709484 0.99676 
0.0395582 -0.0664125 0.997008 
0.0404 -0.0573135 0.997538 
0.0412705 -0.05051 0.99787 
0.041308 -0.044343 0.998162 
0.0413055 -0.0404766 0.998326 
0.0412963 -0.0381429 0.998419 
0.0411973 -0.0364756 0.998485 
0.0408524 -0.0346789 0.998563 
0.0403027 -0.031875 0.998679 
0.0389432 -0.0263227 0.998895 
0.0365759 -0.0172017 0.999183 
0.032837 -0.00470935 0.99945 
0.0266843 0.0124111 0.999567 
0.017624 0.0343873 0.999253 
0.00343381 0.0643664 0.99792 
-0.0173502 0.103515 0.994477 
-0.0463585 0.154668 0.986878 
-0.0827567 0.212312 0.973691 
-0.120582 0.265043 0.956667 
-0.155915 0.303811 0.939888 
-0.19989 0.360125 0.911237 
-0.238453 0.393198 0.887995 
-0.303631 0.451858 0.838828 
-0.318564 0.44159 0.838758 
-0.35022 0.466474 0.812249 
-0.376472 0.4945 0.783415 
-0.444341 0.566386 0.694095 
-0.312872 0.565893 0.762808 
-0.295428 0.62133 0.725722 
-0.119727 0.78727 0.604873 
-0.054251 0.900859 0.430709 
0.00872293 0.987941 -0.154583 
0.0544873 0.876972 -0.477443 
0.111017 0.821524 -0.559261 
0.368585 0.579656 -0.726735 
0.34619 0.509165 -0.787975 
0.364913 0.494403 -0.788926 
0.394383 0.503357 -0.768826 
0.347755 0.461314 -0.816245 
0.325864 0.44647 -0.833353 
0.291141 0.424857 -0.857166 
0.263664 0.415486 -0.870548 
0.220193 0.36897 -0.902982 
0.18153 0.331753 -0.925736 
0.135468 0.281677 -0.949898 
0.097227 0.232757 -0.967663 
0.0641122 0.17985 -0.981603 
0.033145 0.134269 -0.99039 
0.00775511 0.0846778 -0.996378 
-0.0102666 0.0487889 -0.998756 
-0.0217385 0.0224502 -0.999512 
-0.0292254 0.00308458 -0.999568 
-0.0343128 -0.0118047 -0.999341 
-0.0376879 -0.0231213 -0.999022 
-0.0396925 -0.0301699 -0.998756 
-0.0406915 -0.0340336 -0.998592 
-0.0412958 -0.0359461 -0.9985 
-0.0415351 -0.037561 -0.998431 
-0.0416475 -0.0395275 -0.99835 
-0.0414065 -0.0426144 -0.998233 
-0.040767 -0.0477906 -0.998025 
-0.0403581 -0.0547702 -0.997683 
-0.0393897 -0.0642253 -0.997158 
-0.0380228 -0.0717803 -0.996695 
-0.0351942 -0.0698883 -0.996934 
-0.0277233 -0.0548978 -0.998107 
-0.0217725 -0.0367879 -0.999086 
-0.0139876 -0.0281166 -0.999507 
-0.0143693 -0.0311639 -0.999411 
-0.0078495 -0.0347245 -0.999366 
-0.00052035 -0.000595483 -1 
0.000456184 -0.000283702 1 
0.00995282 -0.0327238 0.999415 
0.0152426 -0.0289414 0.999465 
0.0163239 -0.0264679 0.999516 
0.0188831 -0.0342506 0.999235 
0.0268205 -0.0562066 0.998059 
0.033267 -0.0706783 0.996944 
0.0341077 -0.070024 0.996962 
0.0365261 -0.0634514 0.997316 
0.0336827 -0.0546874 0.997935 
0.0362413 -0.0480229 0.998189 
0.0359536 -0.0424868 0.99845 
0.0354639 -0.0390404 0.998608 
0.0359891 -0.0372971 0.998656 
0.0364523 -0.0359805 0.998687 
0.0351061 -0.033854 0.99881 
0.0354721 -0.0298599 0.998924 
0.0335504 -0.0223926 0.999186 
0.0297275 -0.0103562 0.999504 
0.0257305 0.00589853 0.999652 
0.0185368 0.027928 0.999438 
0.00766794 0.0572738 0.998329 
-0.00945131 0.0976811 0.995173 
-0.0347748 0.151541 0.987839 
-0.069814 0.218437 0.97335 
-0.108805 0.286085 0.952007 
-0.148741 0.343886 0.927156 
-0.183619 0.378668 0.907135 
-0.232597 0.444885 0.864856 
-0.270173 0.464746 0.843219 
-0.319714 0.501692 0.803796 
-0.368243 0.502436 0.782276 
-0.405447 0.524438 0.748717 
-0.434654 0.549117 0.713825 
-0.417879 0.538267 0.731878 
-0.474084 0.592585 0.65122 
-0.402802 0.548722 0.732567 
-0.208176 0.67804 0.704928 
-0.0699209 0.868748 0.490293 
-0.00139129 0.999503 0.0314908 
0.0318838 0.920018 -0.390578 
0.196264 0.708223 -0.678159 
0.417339 0.537101 -0.733042 
0.461037 0.568518 -0.681346 
0.43724 0.544076 -0.716102 
0.457457 0.563119 -0.688208 
0.408149 0.520733 -0.749834 
0.378536 0.506255 -0.774865 
0.314901 0.497674 -0.808182 
0.264938 0.469786 -0.842086 
0.225361 0.437365 -0.870588 
0.172216 0.358099 -0.917664 
0.127088 0.310422 -0.942065 
0.0922072 0.260058 -0.96118 
0.0604777 0.200282 -0.97787 
0.0319332 0.146545 -0.988688 
0.00780755 0.0933593 -0.995602 
-0.00788111 0.0556415 -0.99842 
-0.0187965 0.0266382 -0.999468 
-0.0255825 0.00520877 -0.999659 
-0.0305832 -0.0118074 -0.999462 
-0.0325393 -0.0233961 -0.999197 
-0.0349129 -0.0308814 -0.998913 
-0.0351511 -0.0345215 -0.998786 
-0.0358637 -0.0362744 -0.998698 
-0.0357507 -0.0375508 -0.998655 
-0.0358969 -0.0394197 -0.998578 
-0.0359218 -0.0426892 -0.998442 
-0.0353454 -0.0478606 -0.998228 
-0.0354067 -0.056159 -0.997794 
-0.034554 -0.065234 -0.997272 
-0.0359465 -0.0714751 -0.996794 
-0.0330501 -0.070711 -0.996949 
-0.0307173 -0.0590893 -0.99778 
-0.0243997 -0.039388 -0.998926 
-0.0190952 -0.0272791 -0.999445 
-0.0167009 -0.0316183 -0.99936 
-0.0116327 -0.0350434 -0.999318 
-0.000642559 -0.00037103 -1 
0.000608546 -0.000443811 1 
0.0094845 -0.0320703 0.999441 
0.0142458 -0.029039 0.999477 
0.0143722 -0.026449 0.999547 
0.0194576 -0.038099 0.999085 
0.0221756 -0.058044 0.998068 
0.0270645 -0.0702497 0.997162 
0.0261097 -0.0706049 0.997163 
0.0265836 -0.0625604 0.997687 
0.0234862 -0.0524086 0.99835 
0.0259191 -0.0454199 0.998632 