# vtk DataFile Version 3.0 
Exported using Morpho https://github.com/Morpho-lang/morpho 
ASCII 
DATASET UNSTRUCTURED_GRID 

POINTS 1978 float 
-8.48528 -2.82843 -6.80589e-10 
-8.26572 -2.82843 2.90433e-09 
-8.04327 -2.82843 3.11259e-09 
-7.7863 -2.82843 1.90794e-09 
-7.50027 -2.82843 1.40918e-09 
-7.25374 -2.82843 1.41884e-09 
-7.00019 -2.82843 1.31586e-09 
-6.78161 -2.82843 1.08758e-09 
-6.5629 -2.82843 1.09049e-09 
-6.34296 -2.82843 1.02219e-09 
-6.14298 -2.82843 9.05008e-10 
-5.91492 -2.82843 8.68223e-10 
-5.7078 -2.82843 8.39648e-10 
-5.50799 -2.82843 8.80312e-10 
-5.29384 -2.82843 8.62751e-10 
-5.08549 -2.82843 8.15292e-10 
-4.86916 -2.82843 8.20767e-10 
-4.66139 -2.82843 8.18687e-10 
-4.44004 -2.82843 7.85669e-10 
-4.21701 -2.82843 6.82065e-10 
-3.99831 -2.82843 6.03564e-10 
-3.7905 -2.82843 4.66365e-10 
-3.57999 -2.82843 2.93239e-10 
-3.3744 -2.82843 7.22361e-11 
-3.16031 -2.82843 -1.26056e-10 
-2.95162 -2.82843 -2.38983e-10 
-2.75019 -2.82843 -1.43531e-10 
-2.55417 -2.82843 1.83733e-10 
-2.33818 -2.82843 6.16219e-10 
-2.13659 -2.82843 -5.20567e-10 
-1.91484 -2.82843 -3.02993e-09 
-1.73116 -2.82843 -1.45204e-08 
-1.52364 -2.82843 -2.89757e-08 
-1.3492 -2.82843 -6.60886e-08 
-1.16751 -2.82843 -1.21757e-07 
-0.932271 -2.82843 -1.92566e-07 
-0.734053 -2.82842 -9.08701e-08 
-0.534814 -2.82842 -2.62563e-07 
-0.275511 -2.82842 -9.08193e-08 
-0.0267412 -2.82842 -2.8865e-07 
0.339792 -2.82842 3.45885e-07 
0.531517 -2.82842 1.60358e-07 
0.748313 -2.82842 1.80023e-07 
0.948578 -2.82843 1.56915e-07 
1.14937 -2.82843 1.16435e-07 
1.33121 -2.82843 6.22545e-08 
1.53459 -2.82843 3.87885e-08 
1.72928 -2.82843 1.19814e-08 
1.92277 -2.82843 3.35061e-09 
2.12691 -2.82843 8.89935e-10 
2.33196 -2.82843 -8.22233e-10 
2.53897 -2.82843 -5.29653e-10 
2.74638 -2.82843 -6.25303e-11 
2.97942 -2.82843 1.97746e-10 
3.18154 -2.82843 1.52696e-10 
3.38176 -2.82843 -1.08231e-10 
3.6051 -2.82843 -3.35069e-10 
3.80457 -2.82843 -4.73076e-10 
4.01733 -2.82843 -5.68175e-10 
4.24503 -2.82843 -7.61998e-10 
4.44524 -2.82843 -7.59509e-10 
4.66218 -2.82843 -7.9627e-10 
4.86781 -2.82843 -8.34723e-10 
5.07852 -2.82843 -8.12337e-10 
5.28914 -2.82843 -8.5214e-10 
5.50371 -2.82843 -8.82397e-10 
5.70701 -2.82843 -8.32365e-10 
5.92379 -2.82843 -8.7853e-10 
6.14575 -2.82843 -9.73721e-10 
6.34735 -2.82843 -9.25606e-10 
6.58352 -2.82843 -1.04669e-09 
6.80105 -2.82843 -1.24644e-09 
7.002 -2.82843 -1.11548e-09 
7.26953 -2.82843 -1.39039e-09 
7.50675 -2.82843 -1.8473e-09 
7.7471 -2.82843 -1.83016e-09 
8.02183 -2.82843 -3.23617e-09 
8.20419 -2.82843 -2.18556e-09 
8.48528 -2.82843 2.13794e-10 
-8.48528 -2.59341 -1.2339e-09 
-8.26094 -2.58964 -4.56904e-10 
-8.02849 -2.59253 -2.92348e-10 
-7.78904 -2.61925 -3.09092e-10 
-7.53383 -2.64361 -3.09627e-10 
-7.23756 -2.6171 -2.32919e-10 
-6.99444 -2.59547 -2.51911e-10 
-6.77362 -2.594 -1.97492e-10 
-6.53995 -2.59976 -2.24847e-10 
-6.32901 -2.57658 -1.69071e-10 
-6.09969 -2.60988 -1.57367e-10 
-5.88557 -2.58744 -1.59429e-10 
-5.67818 -2.57899 -1.41175e-10 
-5.46149 -2.59701 -1.32058e-10 
-5.24766 -2.58945 -1.2562e-10 
-5.02919 -2.59723 -1.17617e-10 
-4.8168 -2.58568 -1.07759e-10 
-4.59639 -2.59942 -9.24581e-11 
-4.37169 -2.60087 -7.41177e-11 
-4.14961 -2.5971 -4.62055e-11 
-3.93734 -2.58645 -5.59846e-12 
-3.7253 -2.59235 4.30218e-11 
-3.51501 -2.59087 1.02381e-10 
-3.30018 -2.6041 1.62825e-10 
-3.08522 -2.60183 2.2057e-10 
-2.87466 -2.59654 2.55849e-10 
-2.67195 -2.59378 2.53932e-10 
-2.45975 -2.61727 2.10303e-10 
-2.24253 -2.60294 1.40582e-10 
-2.02685 -2.62544 2.80512e-10 
-1.8158 -2.57632 1.00179e-09 
-1.61768 -2.60227 3.37971e-09 
-1.41756 -2.54507 6.98423e-09 
-1.24625 -2.54258 1.54509e-08 
-1.04431 -2.60792 2.74674e-08 
-0.844042 -2.53894 3.92577e-08 
-0.646489 -2.49167 3.92267e-08 
-0.432182 -2.54371 4.51308e-08 
-0.201832 -2.50827 2.45015e-08 
0.00817298 -2.44478 -5.19984e-09 
0.201045 -2.61823 -7.81778e-09 
0.448818 -2.46989 -3.76404e-08 
0.653918 -2.54265 -4.4157e-08 
0.870653 -2.54388 -3.72531e-08 
1.07722 -2.56665 -2.38647e-08 
1.27791 -2.5553 -1.42425e-08 
1.48103 -2.61301 -5.70943e-09 
1.69776 -2.60766 -3.30395e-09 
1.90774 -2.60312 -5.09714e-10 
2.12105 -2.60912 -5.07703e-10 
2.34056 -2.6122 6.6504e-12 
2.5544 -2.60211 -3.23443e-10 
2.7884 -2.62716 -2.42338e-10 
3.00609 -2.59444 -2.51264e-10 
3.21164 -2.5872 -1.84293e-10 
3.43321 -2.61073 -1.21521e-10 
3.6376 -2.58218 -6.84327e-11 
3.85048 -2.59535 -1.07378e-11 
4.0772 -2.60915 3.29282e-11 
4.28481 -2.57747 5.992e-11 
4.50248 -2.5976 8.68589e-11 
4.71452 -2.58506 1.00326e-10 
4.93025 -2.59271 1.13078e-10 
5.14516 -2.59343 1.20519e-10 
5.36502 -2.5987 1.29167e-10 
5.57756 -2.58578 1.36611e-10 
5.79391 -2.5998 1.48954e-10 
6.01935 -2.60259 1.56596e-10 
6.23418 -2.57607 1.74143e-10 
6.45538 -2.61008 1.90607e-10 
6.68467 -2.5876 2.05073e-10 
6.89556 -2.56444 2.27947e-10 
7.12573 -2.6292 2.52034e-10 
7.38039 -2.60233 2.76923e-10 
7.62034 -2.60556 3.28942e-10 
7.87756 -2.63373 3.05546e-10 
8.08211 -2.53428 2.58193e-10 
8.30349 -2.63532 4.89859e-10 
8.48528 -2.53215 2.18136e-10 
-8.48528 -2.35453 2.32165e-10 
-8.25011 -2.35798 -2.96155e-10 
-8.0122 -2.35442 -8.43983e-11 
-7.77335 -2.40059 -2.25179e-10 
-7.56791 -2.25715 -9.6301e-11 
-7.4755 -2.46205 -2.74593e-10 
-7.19422 -2.40669 -1.69388e-10 
-6.9601 -2.35172 -1.28465e-10 
-6.71715 -2.37815 -1.29285e-10 
-6.49395 -2.35418 -1.19767e-10 
-6.24513 -2.367 -1.05037e-10 
-6.03272 -2.36601 -1.02062e-10 
-5.81358 -2.344 -7.91982e-11 
-5.58524 -2.35626 -7.80954e-11 
-5.3701 -2.35979 -7.29339e-11 
-5.14426 -2.36403 -6.68317e-11 
-4.92931 -2.3539 -5.6921e-11 
-4.7032 -2.36316 -4.81402e-11 
-4.48095 -2.37327 -3.63741e-11 
-4.25818 -2.36975 -1.54993e-11 
-4.04343 -2.35259 1.10483e-11 
-3.82835 -2.35266 3.87763e-11 
-3.61896 -2.35572 6.9747e-11 
-3.40379 -2.36964 1.07295e-10 
-3.1934 -2.37729 1.42791e-10 
-2.98088 -2.37284 1.66238e-10 
-2.7731 -2.35948 1.5642e-10 
-2.56292 -2.38159 1.36389e-10 
-2.35645 -2.39508 6.46473e-11 
-2.12939 -2.39307 2.63305e-11 
-1.92868 -2.3859 -1.81404e-12 
-1.68929 -2.35265 5.18217e-10 
-1.49303 -2.33348 8.77157e-10 
-1.27909 -2.23817 5.04024e-09 
-1.08757 -2.34894 1.79928e-09 
-0.890036 -2.26068 3.96997e-09 
-0.657471 -2.20944 7.11119e-09 
-0.429194 -2.22439 1.84579e-09 
-0.215565 -2.1444 6.21055e-09 
0.039385 -2.12014 2.16718e-08 
0.259757 -2.27445 -1.6259e-08 
0.469565 -2.11848 -8.08547e-10 
0.666621 -2.22685 -2.80313e-08 
0.868662 -2.26517 -1.81907e-09 
1.08192 -2.29725 -3.06548e-09 
1.29599 -2.30533 -1.29414e-09 
1.50151 -2.389 -1.8942e-09 
1.70045 -2.37056 3.5198e-10 
1.89646 -2.37864 -4.27898e-11 
2.10806 -2.3929 -1.052e-11 
2.32522 -2.39959 -3.95824e-11 
2.54531 -2.37384 -6.95059e-11 
2.75527 -2.41433 -1.9907e-10 
2.96046 -2.36184 -1.47744e-10 
3.1634 -2.35112 -1.48349e-10 
3.37928 -2.38267 -1.22896e-10 
3.58525 -2.3463 -7.75587e-11 
3.79585 -2.35774 -4.43234e-11 
4.01099 -2.38241 -1.02284e-11 
4.21965 -2.34301 6.46581e-12 
4.43972 -2.35955 3.00434e-11 
4.64957 -2.34845 4.09769e-11 
4.86555 -2.3571 5.33288e-11 
5.0803 -2.35735 6.12573e-11 
5.29634 -2.36949 7.35165e-11 
5.51168 -2.35366 7.40031e-11 
5.73113 -2.36299 8.47417e-11 
5.94833 -2.37698 9.88617e-11 
6.16574 -2.34691 9.57578e-11 
6.39729 -2.36557 1.16187e-10 
6.61031 -2.3659 1.31828e-10 
6.83378 -2.31886 1.08711e-10 
7.06698 -2.37896 1.47111e-10 
7.28741 -2.40158 1.77172e-10 
7.54677 -2.37807 1.88461e-10 
7.79329 -2.41348 2.28258e-10 
8.00258 -2.3123 5.12769e-11 
8.26043 -2.36816 2.85162e-10 
8.48528 -2.29321 -1.1111e-10 
-8.48528 -2.11515 8.34652e-10 
-8.25676 -2.10974 -9.65372e-11 
-8.04747 -2.11313 7.51111e-11 
-7.80311 -2.15765 -3.95963e-11 
-7.52363 -2.04092 -2.82336e-11 
-7.31441 -2.23436 -8.57464e-11 
-7.07199 -2.14412 -4.10497e-11 
-6.80617 -2.14491 -3.11575e-11 
-6.59122 -2.1294 -4.04337e-11 
-6.34723 -2.15189 -3.6343e-11 
-6.12107 -2.11902 -2.97545e-11 
-5.91509 -2.11824 -2.21661e-11 
-5.6855 -2.12771 -2.26358e-11 
-5.46592 -2.12023 -1.90236e-11 
-5.24845 -2.13595 -1.59213e-11 
-5.03396 -2.12126 -9.48584e-12 
-4.81113 -2.13232 -5.3414e-12 
-4.58923 -2.13832 1.67584e-12 
-4.3723 -2.14159 1.04816e-11 
-4.16105 -2.12445 2.1343e-11 
-3.94547 -2.11775 3.0663e-11 
-3.73499 -2.11638 4.02508e-11 
-3.52158 -2.13292 5.29668e-11 
-3.31169 -2.14081 6.58354e-11 
-3.10188 -2.1484 8.02741e-11 
-2.8923 -2.13675 8.20298e-11 
-2.67306 -2.13957 7.159e-11 
-2.46436 -2.15583 3.95422e-11 
-2.24924 -2.18235 8.49644e-12 
-2.03207 -2.14728 -2.49905e-10 
-1.81598 -2.17202 -1.31481e-10 
-1.5869 -2.0934 -8.24233e-10 
-1.39151 -2.04662 -5.12677e-09 
-1.18827 -1.88725 3.87695e-10 
-1.07951 -2.07144 -6.03831e-09 
-0.828071 -1.99725 -6.60769e-09 
-0.590843 -1.91145 2.90124e-08 
-0.375036 -1.85931 -2.85506e-08 
-0.0854586 -1.83768 -1.26701e-08 
0.093852 -1.60472 1.40006e-08 
0.24322 -1.90875 -5.60382e-09 
0.329718 -1.56012 2.81734e-09 
0.505529 -1.82303 2.45295e-08 
0.743458 -1.92103 -7.68216e-10 
0.965287 -2.01058 4.31177e-09 
1.19207 -2.05346 3.46793e-09 
1.45799 -2.1422 2.24413e-10 
1.66808 -2.13258 5.81871e-10 
1.87682 -2.1359 3.97358e-10 
2.08964 -2.17673 1.89013e-10 
2.32489 -2.18364 -1.04527e-10 
2.55603 -2.15028 -2.37011e-11 
2.77125 -2.17883 -1.26034e-10 
2.97567 -2.11422 -6.53009e-11 
3.20088 -2.13247 -7.05782e-11 
3.40391 -2.13969 -5.72797e-11 
3.61979 -2.11353 -4.39837e-11 
3.83684 -2.13242 -3.59437e-11 
4.03931 -2.13625 -2.51547e-11 
4.26781 -2.1186 -1.64285e-11 
4.47623 -2.11771 -8.40125e-12 
4.69546 -2.11655 -1.85424e-12 
4.90973 -2.12319 5.65443e-12 
5.12843 -2.12657 1.15898e-11 
5.34116 -2.13403 1.76335e-11 
5.56522 -2.12663 2.1131e-11 
5.78384 -2.13326 2.51274e-11 
5.99581 -2.13664 2.87131e-11 
6.23529 -2.13028 3.14869e-11 
6.44851 -2.11883 3.22779e-11 
6.66137 -2.11861 3.34118e-11 
6.92188 -2.11221 2.49136e-11 
7.1394 -2.14189 3.11197e-11 
7.3715 -2.18614 6.21356e-11 
7.56132 -2.08571 3.47525e-11 
7.74112 -2.18426 6.47908e-11 
7.95465 -2.08302 -4.99034e-11 
8.20508 -2.14606 -6.74438e-12 
8.48528 -2.09915 2.91596e-10 
-8.48528 -1.81481 1.06565e-09 
-8.30725 -1.86688 -9.07638e-11 
-7.89291 -1.91482 5.57972e-11 
[...]
POINT_DATA 1978 
VECTORS vectors float
0.00332236 -0.011079 0.999934 
0.00360425 -0.0410604 0.999149 
0.00213196 -0.042514 0.999093 
0.00205364 -0.0369266 0.999315 
0.00227469 -0.0310747 0.999513 
0.00228425 -0.0261969 0.999653 
0.00245784 -0.0219295 0.999756 
0.0028086 -0.0187701 0.999819 
0.00276553 -0.0162196 0.999864 
0.00293962 -0.0143996 0.999891 
0.00302529 -0.0130265 0.99991 
0.00292584 -0.01166 0.999927 
0.00308505 -0.0109193 0.999935 
0.00314634 -0.0106659 0.999938 
0.00305139 -0.0103182 0.999941 
0.00307531 -0.00994789 0.999945 
0.00304863 -0.0096999 0.999948 
0.00302738 -0.00943288 0.99995 
0.00291595 -0.00883862 0.999956 
0.00289343 -0.00772824 0.999965 
0.00289213 -0.00611363 0.999976 
0.00284437 -0.00373552 0.999988 
0.00273091 3.15321e-05 0.999996 
0.00253164 0.00553867 0.999981 
0.00231211 0.013834 0.999901 
0.00204162 0.0250638 0.999684 
0.00169577 0.0397214 0.999209 
0.00117696 0.0590315 0.998255 
0.000532734 0.087792 0.996139 
-0.000347702 0.124031 0.992278 
-0.00126953 0.176436 0.984311 
-0.00238001 0.232498 0.972594 
-0.00349894 0.310423 0.950591 
-0.00515107 0.391048 0.920355 
-0.00539912 0.488939 0.872299 
-0.00544092 0.619718 0.784803 
-0.00640933 0.737175 0.675669 
-0.00479183 0.848886 0.52855 
-0.00298679 0.956717 0.291 
0.00038225 0.999627 0.0272883 
0.00249465 0.9326 -0.3609 
0.00528092 0.848527 -0.529122 
0.00589927 0.730259 -0.683141 
0.00612675 0.610366 -0.792094 
0.00564004 0.493725 -0.869598 
0.0046416 0.398846 -0.917005 
0.00370662 0.306973 -0.95171 
0.00244342 0.231091 -0.972929 
0.0012419 0.173848 -0.984772 
0.000214337 0.125988 -0.992032 
-0.00038337 0.0884307 -0.996082 
-0.00117838 0.0606196 -0.99816 
-0.00163982 0.0404204 -0.999181 
-0.0019649 0.0236866 -0.999717 
-0.00234303 0.0129324 -0.999913 
-0.00257815 0.00529717 -0.999982 
-0.00268353 -0.000575945 -0.999996 
-0.00287903 -0.00401134 -0.999987 
-0.00289092 -0.00628842 -0.999975 
-0.00292288 -0.00805318 -0.999963 
-0.00307814 -0.00887934 -0.999955 
-0.00304492 -0.00933734 -0.999951 
-0.00310165 -0.00969514 -0.999948 
-0.00307917 -0.00991645 -0.999945 
-0.00308059 -0.0102622 -0.999942 
-0.0030852 -0.01061 -0.999938 
-0.00305714 -0.0109581 -0.999935 
-0.00296646 -0.0118065 -0.999925 
-0.00295292 -0.0129599 -0.999911 
-0.00285226 -0.0142491 -0.999894 
-0.002752 -0.0166123 -0.999857 
-0.00279922 -0.019088 -0.999813 
-0.00250953 -0.021833 -0.999758 
-0.00232177 -0.0269114 -0.999634 
-0.00236856 -0.031669 -0.999495 
-0.00231785 -0.0364703 -0.999331 
-0.00221998 -0.0423649 -0.999099 
-0.00355387 -0.0413455 -0.999138 
-0.00218148 -0.00854773 -0.999961 
0.00451936 -0.00302794 0.999991 
0.0161589 -0.0307233 0.999397 
0.0170832 -0.0391989 0.999085 
0.0162048 -0.0365926 0.999199 
0.0153803 -0.0315375 0.999384 
0.0166237 -0.0260792 0.999522 
0.0189313 -0.0223848 0.99957 
0.0195238 -0.0191663 0.999626 
0.0206534 -0.016555 0.99965 
0.0219347 -0.0146661 0.999652 
0.020763 -0.0129438 0.999701 
0.0227315 -0.0118147 0.999672 
0.0233638 -0.0110144 0.999666 
0.0225519 -0.0104606 0.999691 
0.0230237 -0.0100098 0.999685 
0.0224946 -0.00959844 0.999701 
0.0229492 -0.00918552 0.999695 
0.0218934 -0.00865999 0.999723 
0.0214974 -0.00771743 0.999739 
0.021258 -0.0061564 0.999755 
0.0211278 -0.00378677 0.99977 
0.0198771 -0.000403039 0.999802 
0.0186499 0.00461661 0.999815 
0.0162888 0.011648 0.9998 
0.0140523 0.0218377 0.999663 
0.0112874 0.0355882 0.999303 
0.00785078 0.0533819 0.998543 
0.00328658 0.0774777 0.996989 
-0.00202235 0.112612 0.993637 
-0.00769503 0.157516 0.987487 
-0.015513 0.218785 0.97565 
-0.0202992 0.285893 0.958047 
-0.0290527 0.373553 0.927154 
-0.0324315 0.458025 0.888348 
-0.0314277 0.565347 0.824254 
-0.0332465 0.679065 0.733325 
-0.0301045 0.789849 0.612562 
-0.020926 0.896457 0.442637 
-0.0106586 0.975043 0.221759 
0.000239523 0.999979 -0.00642889 
0.00877906 0.97487 -0.222602 
0.0240114 0.888025 -0.459167 
0.0285941 0.78399 -0.620114 
0.0331367 0.661197 -0.749481 
0.0327995 0.543973 -0.838461 
0.0308441 0.437635 -0.898624 
0.0239988 0.340291 -0.940014 
0.0178002 0.254713 -0.966853 
0.011999 0.188515 -0.981997 
0.00515568 0.135023 -0.990829 
-0.000447995 0.0947561 -0.9955 
-0.00529121 0.0655713 -0.997834 
-0.00910226 0.0416958 -0.999089 
-0.0130465 0.026871 -0.999554 
-0.0157978 0.0158195 -0.99975 
-0.0170823 0.0068042 -0.999831 
-0.0198111 0.00157086 -0.999803 
-0.0203375 -0.00262562 -0.99979 
-0.0205121 -0.00556675 -0.999774 
-0.0227034 -0.00712002 -0.999717 
-0.0220561 -0.0083112 -0.999722 
-0.0230041 -0.00895019 -0.999695 
-0.0227738 -0.00943578 -0.999696 
-0.0227941 -0.00981884 -0.999692 
-0.0225659 -0.0102444 -0.999693 
-0.0231206 -0.0107349 -0.999675 
-0.0220881 -0.0114242 -0.999691 
-0.0215275 -0.0124909 -0.99969 
-0.0223423 -0.0139025 -0.999654 
-0.0199403 -0.0156787 -0.999678 
-0.0203799 -0.0182459 -0.999626 
-0.0205649 -0.0211074 -0.999566 
-0.0167453 -0.0244205 -0.999562 
-0.0174988 -0.0288747 -0.99943 
-0.0171221 -0.0333192 -0.999298 
-0.0156519 -0.0383766 -0.999141 
-0.0193088 -0.0382677 -0.999081 
-0.0140087 -0.027832 -0.999515 
-0.00346182 -0.00272893 -0.999995 
0.00291106 -0.00346769 0.999995 
0.0188124 -0.0289873 0.999403 
0.0212466 -0.0381201 0.999047 
0.021718 -0.0356881 0.999127 
0.0217853 -0.0318701 0.999255 
0.0215894 -0.0302088 0.999311 
0.0227972 -0.0258834 0.999405 
0.0241701 -0.022763 0.999449 
0.0250775 -0.0193293 0.999499 
0.0262483 -0.0167854 0.999515 
0.0270094 -0.0144584 0.999531 
0.0277691 -0.0129557 0.99953 
0.0282217 -0.0117785 0.999532 
0.0285818 -0.0108431 0.999533 
0.0287772 -0.0102083 0.999534 
0.0287427 -0.0096362 0.99954 
0.0286522 -0.0090918 0.999548 
0.0283246 -0.00842439 0.999563 
0.0278681 -0.00745254 0.999584 
0.0272645 -0.00584686 0.999611 
0.0264666 -0.00335082 0.999644 
0.0252595 0.000214866 0.999681 
0.023599 0.00511451 0.999708 
0.0213758 0.0119046 0.999701 
0.0185593 0.0210598 0.999606 
0.0150467 0.0338844 0.999313 
0.0107631 0.0509813 0.998642 
0.00576937 0.0728442 0.997327 
2.7558e-05 0.101823 0.994803 
-0.00730078 0.144913 0.989418 
-0.0143269 0.195122 0.980674 
-0.0222401 0.271333 0.962228 
-0.0281209 0.347502 0.937257 
-0.0310798 0.447439 0.893774 
-0.0352596 0.543274 0.838815 
-0.0337839 0.653431 0.756232 
-0.0286352 0.782461 0.622041 
-0.0210845 0.893813 0.447943 
-0.0106573 0.971227 0.237915 
0.00218465 0.999295 -0.0374762 
0.0143383 0.96334 -0.267899 
0.0206794 0.880762 -0.473106 
0.0291984 0.775121 -0.631138 
0.0335961 0.658925 -0.751458 
0.0346469 0.541318 -0.840104 
0.0322064 0.435994 -0.899373 
0.0284289 0.34137 -0.939499 
0.0223142 0.266749 -0.963508 
0.015627 0.204069 -0.978832 
0.00820591 0.150409 -0.98859 
0.00145513 0.108652 -0.994079 
-0.0049252 0.0759664 -0.997098 
-0.0103191 0.0513504 -0.998627 
-0.0145182 0.0358403 -0.999252 
-0.0179444 0.0231983 -0.99957 
-0.0210138 0.0125722 -0.9997 
-0.0232998 0.00618109 -0.999709 
-0.0250762 0.000814112 -0.999685 
-0.0263279 -0.00312867 -0.999649 
-0.0273599 -0.00533147 -0.999611 
-0.0279821 -0.00716016 -0.999583 
-0.0284605 -0.00819968 -0.999561 
-0.0286947 -0.00895786 -0.999548 
-0.0288345 -0.00950293 -0.999539 
-0.0288469 -0.010021 -0.999534 
-0.0287944 -0.0106116 -0.999529 
-0.0284846 -0.0114013 -0.999529 
-0.0279757 -0.0124471 -0.999531 
-0.0274913 -0.0138973 -0.999526 
-0.0266165 -0.0158012 -0.999521 
-0.0258137 -0.0180833 -0.999503 
-0.0248524 -0.0211787 -0.999467 
-0.0237194 -0.0243333 -0.999423 
-0.0227063 -0.0275289 -0.999363 
-0.0220405 -0.0315956 -0.999258 
-0.021751 -0.0362157 -0.999107 
-0.0214967 -0.0382151 -0.999038 
-0.0184729 -0.0281726 -0.999432 
-0.00332149 -0.00375185 -0.999991 
0.0016966 -0.00312776 0.999994 
0.0160904 -0.0285799 0.999462 
0.0190478 -0.0379808 0.999097 
0.0203287 -0.0360184 0.999144 
0.0194163 -0.0313587 0.99932 
0.0224035 -0.0280597 0.999355 
0.022506 -0.0250764 0.999432 
0.0234967 -0.0213665 0.999496 
0.0243729 -0.0186188 0.99953 
0.0255188 -0.0159272 0.999548 
0.0259483 -0.0140913 0.999564 
0.0264479 -0.0126921 0.99957 
0.0270721 -0.0114625 0.999568 
0.0272891 -0.0105795 0.999572 
0.0275162 -0.0098596 0.999573 
0.0272852 -0.00920531 0.999585 
0.0272133 -0.00845027 0.999594 
0.0268932 -0.00741077 0.999611 
0.0263468 -0.00586262 0.999636 
0.0253463 -0.00347786 0.999673 
0.0241241 4.5669e-05 0.999709 
0.0226137 0.00483604 0.999733 
0.0208301 0.0112148 0.99972 
0.0184109 0.0197149 0.999636 
0.0153906 0.0309747 0.999402 
0.0115218 0.0463454 0.998859 
0.00689207 0.0674116 0.997702 
0.00187885 0.0934775 0.99562 
-0.00395885 0.128713 0.991674 
-0.0103872 0.177861 0.984001 
-0.0169159 0.237658 0.971202 
-0.0218562 0.322252 0.946402 
-0.0248324 0.40321 0.914771 
-0.0233079 0.502141 0.864471 
-0.0283433 0.551145 0.833928 
-0.0253139 0.689812 0.723546 
-0.0188535 0.817693 0.575346 
-0.0129099 0.916421 0.400007 
-0.00332035 0.99435 0.106101 
0.00272714 0.995085 -0.0989873 
0.00920988 0.963549 -0.267371 
0.00883619 0.937441 -0.348032 
0.0159253 0.858683 -0.51226 
0.0220269 0.736215 -0.676389 
0.0265386 0.613162 -0.789512 
0.0272317 0.494053 -0.869005 
0.0258512 0.370576 -0.928442 
0.0207933 0.289304 -0.957012 
0.0151846 0.221322 -0.975083 
0.00904718 0.163037 -0.986579 
0.00188784 0.114357 -0.993438 
-0.00410329 0.0810841 -0.996699 
-0.00933255 0.0559794 -0.998388 
-0.01269 0.0404733 -0.9991 
-0.0166914 0.0255231 -0.999535 
-0.0195189 0.0156879 -0.999686 
-0.0216145 0.00820027 -0.999733 
-0.0236757 0.00219143 -0.999717 
-0.0249606 -0.00171565 -0.999687 
-0.0258297 -0.00471936 -0.999655 
-0.0264602 -0.00661141 -0.999628 
-0.0268994 -0.00793815 -0.999607 
-0.0272687 -0.0088267 -0.999589 
-0.0274417 -0.0095096 -0.999578 
-0.0275316 -0.0101448 -0.99957 
-0.0273146 -0.010936 -0.999567 
-0.0270539 -0.0119281 -0.999563 
-0.026605 -0.0131746 -0.999559 
-0.025831 -0.0150003 -0.999554 
-0.0248999 -0.0170911 -0.999544 
-0.0240321 -0.0196153 -0.999519 
-0.0228285 -0.0232623 -0.999469 
-0.0221564 -0.0262384 -0.99941 
-0.0217037 -0.0292057 -0.999338 
-0.019917 -0.0319941 -0.99929 
-0.0207795 -0.0350179 -0.999171 
-0.0190235 -0.038078 -0.999094 
-0.0178716 -0.032482 -0.999313 
-0.00304944 -0.00364034 -0.999991 
0.00122079 -0.00364916 0.999992 
0.0116294 -0.0245983 0.99963 
0.0166488 -0.0375473 0.999156 
0.0170115 -0.0341809 0.999271 
0.0165187 -0.0309587 0.999384 
0.0197944 -0.0285266 0.999397 
0.0183879 -0.0274351 0.999455 
0.0206431 -0.0241918 0.999494 
0.0208672 -0.0212719 0.999556 
0.0223552 -0.0181737 0.999585 
0.0229472 -0.0159162 0.99961 
0.0232479 -0.0141719 0.999629 
0.0241571 -0.012578 0.999629 
0.02459 -0.011373 0.999633 
0.0247702 -0.0103901 0.999639 
0.0247954 -0.0096134 0.999646 
0.0247353 -0.00877719 0.999656 
0.0245122 -0.00776151 0.999669 
0.024041 -0.00631667 0.999691 
0.0232717 -0.00422319 0.99972 
0.0222812 -0.0010903 0.999751 
0.02098 0.00329359 0.999775 
0.019491 0.00914453 0.999768 
0.0176469 0.0165925 0.999707 
0.015255 0.0264269 0.999534 
0.0122999 0.0392117 0.999155 
0.00854873 0.0569873 0.998338 
0.00422184 0.0804058 0.996753 
-0.000479286 0.109904 0.993942 
-0.00560183 0.14852 0.988894 
-0.0112305 0.205561 0.97858 
-0.016269 0.269345 0.962906 
-0.0184262 0.348477 0.937136 
-0.0198968 0.434684 0.900363 
-0.021364 0.630592 0.77582 
-0.0168993 0.75511 0.65538 
-0.0112273 0.871164 0.490864 
-0.0064655 0.927115 0.37472 
-0.00627515 0.964574 0.263738 
-0.00177764 0.994291 0.106687 
0.00296885 0.989291 -0.145927 
0.00848255 0.909024 -0.416657 
0.0144541 0.804896 -0.59324 
0.0184431 0.6808 -0.732237 
0.0212161 0.562012 -0.826857 
0.0193456 0.486871 -0.87326 
0.0225052 0.424561 -0.90512 
0.0191861 0.32864 -0.944261 
0.0150637 0.255194 -0.966773 
0.0103222 0.190353 -0.981662 
0.00497212 0.139808 -0.990166 
-0.000613244 0.101134 -0.994873 
-0.00596037 0.0698681 -0.997538 
-0.00925626 0.0524214 -0.998582 
-0.0133649 0.0339493 -0.999334 
-0.016178 0.0220129 -0.999627 
-0.0184154 0.0133722 -0.999741 
-0.0204949 0.00597103 -0.999772 
-0.0217808 0.00103239 -0.999762 
-0.0230395 -0.00269139 -0.999731 
-0.0235665 -0.00532298 -0.999708 
-0.0242237 -0.00710879 -0.999681 
-0.0245791 -0.00833734 -0.999663 
-0.024863 -0.00921425 -0.999648 
-0.0248914 -0.0100003 -0.99964 
-0.0248612 -0.0108242 -0.999632 
-0.0244833 -0.0119247 -0.999629 
-0.0239783 -0.0132644 -0.999625 
-0.0235843 -0.014894 -0.999611 
-0.0223231 -0.0171979 -0.999603 
-0.0213603 -0.0197723 -0.999576 
-0.0207983 -0.0226935 -0.999526 
-0.0193178 -0.0263734 -0.999466 
-0.0189213 -0.0290461 -0.999399 
-0.0170592 -0.032089 -0.999339 
-0.0167886 -0.0359281 -0.999213 
-0.0152402 -0.0379256 -0.999164 
-0.0139975 -0.0288265 -0.999487 
-0.00169073 -0.00367332 -0.999993 
0.00136961 -0.0036689 0.999992 
0.00940183 -0.027634 0.999574 
0.0143895 -0.036693 0.999223 
0.0134625 -0.0381263 0.999182 
0.0143736 -0.0346821 0.999295 
0.0156927 -0.0300087 0.999427 
0.0173785 -0.0264822 0.999498 
0.0184836 -0.023711 0.999548 
0.0196707 -0.0200386 0.999606 
0.020494 -0.0175495 0.999636 
0.020883 -0.0155459 0.999661 
0.0216698 -0.0135521 0.999673 
0.0222637 -0.0121375 0.999679 
0.0226144 -0.0109433 0.999684 
0.0225484 -0.00997468 0.999696 
0.0227186 -0.00905598 0.999701 
0.0225025 -0.00795535 0.999715 
0.0220706 -0.0064706 0.999736 
0.0213025 -0.00433687 0.999764 
0.0205009 -0.00132201 0.999789 
0.019366 0.00297679 0.999808 
0.0180571 0.00879508 0.999798 
0.0163984 0.016317 0.999732 
0.0144207 0.0258624 0.999562 
0.011836 0.0384834 0.999189 
0.00872817 0.0550057 0.998448 
0.0048799 0.0777863 0.996958 
0.000397065 0.108872 0.994056 
-0.00425431 0.147803 0.989008 
-0.00902053 0.198709 0.980017 
-0.0138336 0.273793 0.961689 
-0.0158959 0.363597 0.931421 
-0.0171069 0.473738 0.8805 
-0.0151247 0.583711 0.811821 
-0.0189527 0.563359 0.825995 
-0.0158068 0.681412 0.731729 
-0.0115647 0.79364 0.608277 
-0.0064176 0.876653 0.481083 
-0.00170579 0.988403 0.151838 
2.68219e-05 0.998717 -0.0506303 
0.00297901 0.975654 -0.219296 
0.000713799 0.952809 -0.303574 
0.00684419 0.891974 -0.452035 
0.0125948 0.775461 -0.63127 
0.0161242 0.619963 -0.784466 
0.0161055 0.505095 -0.862914 
0.0181272 0.385596 -0.92249 
0.0150963 0.30427 -0.952466 
0.0114854 0.230745 -0.972947 
0.00714805 0.171701 -0.985123 
0.00264075 0.129205 -0.991614 
-0.0024467 0.0917237 -0.995782 
-0.0058932 0.0699967 -0.99753 
-0.00980276 0.0482235 -0.998789 
-0.0127805 0.033147 -0.999369 
-0.0150384 0.0221694 -0.999641 
-0.0173236 0.0127955 -0.999768 
-0.0187665 0.00625725 -0.999804 
-0.0199859 0.00111656 -0.9998 
-0.0211548 -0.00267996 -0.999773 
-0.0215743 -0.00534851 -0.999753 
-0.0222635 -0.00720411 -0.999726 
-0.022491 -0.00847723 -0.999711 
-0.0227792 -0.00945939 -0.999696 
-0.0226674 -0.01037 -0.999689 
-0.022649 -0.0113689 -0.999679 
-0.022121 -0.0126482 -0.999675 
-0.0216291 -0.0142319 -0.999665 
-0.0210891 -0.0160581 -0.999649 
-0.0198247 -0.0185835 -0.999631 
-0.0189909 -0.0215033 -0.999588 
-0.0184365 -0.0246651 -0.999526 
-0.0168464 -0.027938 -0.999468 
-0.0164845 -0.0301074 -0.999411 
-0.0147226 -0.033151 -0.999342 
-0.0142585 -0.0364835 -0.999233 
-0.0125861 -0.0385129 -0.999179 
-0.0106791 -0.0274301 -0.999567 
-0.00145907 -0.0037579 -0.999992 
0.00114321 -0.00380697 0.999991 
0.00744103 -0.0302656 0.999515 
0.0112622 -0.0383343 0.999202 
0.011493 -0.0375159 0.99923 
0.0135274 -0.0331417 0.999359 
0.0132923 -0.0315463 0.999414 
0.015187 -0.0286368 0.999475 
0.0153869 -0.025469 0.999557 
0.0172633 -0.0223912 0.9996 
0.0174929 -0.0195065 0.999657 
0.0179905 -0.0172779 0.999689 
0.0189168 -0.0149914 0.999709 
0.0191139 -0.0132677 0.999729 
0.0198077 -0.011865 0.999733 
0.0199422 -0.0107248 0.999744 
0.0198866 -0.0096452 0.999756 
0.0201073 -0.00857613 0.999761 
0.0197436 -0.00719899 0.999779 
0.0190651 -0.00533569 0.999804 
0.0182821 -0.00261389 0.99983 
0.0174728 0.00109576 0.999847 
0.0164227 0.00628613 0.999845 
0.0151429 0.0129559 0.999801 
0.0136092 0.0215916 0.999674 
0.0117806 0.032403 0.999406 
0.0093967 0.0468937 0.998856 
0.0065462 0.0657933 0.997812 
0.00295994 0.0924237 0.995715 
-0.00096044 0.127099 0.99189 
-0.00496117 0.169975 0.985436 
-0.00938892 0.228251 0.973557 
-0.012485 0.300226 0.953786 
-0.0141006 0.428476 0.903443 
-0.0125089 0.533956 0.84542 
-0.0110991 0.699699 0.714352 
-0.00599741 0.828446 0.560036 
-0.00183409 0.931919 0.362663 
0.000671323 0.954536 0.298112 
-0.00215688 0.960968 0.276653 
-0.000738178 0.999964 0.00863075 
-0.00161197 0.956068 -0.293145 
-0.000808837 0.890608 -0.454771 
0.00363586 0.888643 -0.458585 
0.00812215 0.790914 -0.611874 
0.0116878 0.716396 -0.697596 
0.0128936 0.586183 -0.810076 
0.015441 0.407406 -0.913117 
0.0131195 0.329801 -0.94396 
0.0105835 0.2555 -0.966751 
0.00705413 0.191214 -0.981523 
0.00305193 0.143387 -0.989662 
-0.000780528 0.10744 -0.994211 
-0.00346408 0.0867405 -0.996225 
-0.00726205 0.0595225 -0.998201 
-0.0100567 0.0423741 -0.999051 
-0.0121508 0.0291041 -0.999503 
-0.0143434 0.0181211 -0.999733 
-0.0157302 0.0104447 -0.999822 
-0.0169734 0.00425647 -0.999847 
-0.0181044 -0.000534418 -0.999836 
-0.0188596 -0.00376642 -0.999815 
-0.0193262 -0.00632094 -0.999793 
-0.0197064 -0.00792304 -0.999774 
-0.0199666 -0.00917859 -0.999759 
-0.0199388 -0.0101948 -0.999749 
-0.0199514 -0.0112973 -0.999737 
-0.0196272 -0.0125482 -0.999729 
-0.0191896 -0.0141778 -0.999715 
-0.0185778 -0.0161384 -0.999697 
-0.0177453 -0.0183908 -0.999673 
-0.0168013 -0.0214651 -0.999628 
-0.0163222 -0.0249397 -0.999556 
-0.0148911 -0.0288289 -0.999474 
-0.0141164 -0.0317215 -0.999397 
-0.0123711 -0.0346174 -0.999324 
-0.0121653 -0.0373401 -0.999229 
-0.0103573 -0.0396293 -0.999161 
-0.00912248 -0.0316496 -0.999457 
-0.00135818 -0.00370212 -0.999992 
0.000912779 -0.00389701 0.999991 
0.00575914 -0.0317793 0.999479 
0.00934138 -0.0397041 0.999168 
0.00895629 -0.0385856 0.999215 
0.0110993 -0.0350127 0.999325 
0.0109765 -0.0328142 0.999401 
0.0126881 -0.0291933 0.999493 
0.0127504 -0.0256141 0.999591 
0.0144524 -0.0222186 0.999649 
0.0140319 -0.0196706 0.999708 
0.0152461 -0.0169974 0.999739 
0.0157625 -0.01491 0.999765 
0.0157483 -0.0131548 0.99979 
0.0163894 -0.0117967 0.999796 
0.0166634 -0.0105811 0.999805 
0.0163894 -0.00937998 0.999822 
0.0166212 -0.00815941 0.999829 
0.0159695 -0.0065179 0.999851 
0.015409 -0.00417647 0.999873 
0.0146542 -0.000828938 0.999892 
0.0139581 0.00368285 0.999896 
0.0129134 0.00966802 0.99987 
0.0117773 0.0174597 0.999778 
0.0103618 0.0274266 0.99957 
0.00872124 0.040246 0.999152 
0.00656547 0.0576113 0.998318 
0.00403376 0.0805416 0.996743 
0.000969916 0.111115 0.993807 
-0.0023289 0.152071 0.988367 
-0.00597812 0.204834 0.978778 
-0.00891933 0.26752 0.963511 
-0.0116011 0.355501 0.934604 
-0.010288 0.445676 0.895135 
-0.00897694 0.55641 0.830859 
-0.00925504 0.677545 0.735423 
-0.00433049 0.805679 0.592337 
-0.000191939 0.886809 0.462135 
0.00153518 0.996868 0.0790754 
0.00055795 0.997079 0.0763806 
0.000476899 0.998805 0.0488798 
-0.000368837 0.999673 0.0255749 
-0.00328244 0.99876 -0.0496773 
0.00213814 0.814548 -0.580093 
0.0052436 0.761789 -0.647805 
0.00931217 0.654031 -0.75641 
0.00947376 0.539769 -0.84176 
0.012178 0.472078 -0.881473 
0.0110981 0.389355 -0.921021 
0.00947648 0.299047 -0.954192 
0.00706484 0.221814 -0.975063 
0.00366025 0.16421 -0.986419 
0.000243549 0.121165 -0.992632 
-0.00375796 0.0806802 -0.996733 
-0.00642404 0.0573646 -0.998333 
-0.00869731 0.0403514 -0.999148 
-0.0105808 0.0262677 -0.999599 
-0.0119277 0.0167778 -0.999788 
-0.0131471 0.00911425 -0.999872 
-0.0142762 0.00311322 -0.999893 
-0.0149011 -0.00114947 -0.999888 
-0.0159909 -0.0045181 -0.999862 
-0.0159049 -0.00677893 -0.999851 
-0.0164654 -0.00843624 -0.999829 
-0.0163251 -0.00965484 -0.99982 
-0.0165084 -0.0107916 -0.999806 
-0.0162696 -0.0119811 -0.999796 
-0.0161871 -0.0134281 -0.999779 
-0.0156854 -0.0152155 -0.999761 
-0.0149435 -0.0173023 -0.999739 
-0.0146198 -0.0199572 -0.999694 
-0.0136381 -0.0231586 -0.999639 
-0.01374 -0.0260902 -0.999565 
-0.0121708 -0.0294639 -0.999492 
-0.0121035 -0.032051 -0.999413 
-0.0103875 -0.0349606 -0.999335 
-0.00963687 -0.0383808 -0.999217 
-0.00795728 -0.0403852 -0.999153 
-0.00664265 -0.0292162 -0.999551 
-0.00081681 -0.00395521 -0.999991 
0.000608608 -0.0041016 0.999991 