# vtk DataFile Version 3.0 
Exported using Morpho https://github.com/Morpho-lang/morpho 
ASCII 
DATASET UNSTRUCTURED_GRID 

POINTS 1978 float 
-8.48528 -2.82843 2.23612e-15 
-8.26574 -2.82843 -8.94537e-15 
-8.04295 -2.82843 -9.26304e-15 
-7.78652 -2.82843 -5.68784e-15 
-7.50054 -2.82843 -3.6303e-15 
-7.25363 -2.82843 -4.24176e-15 
-7.00027 -2.82843 -3.90729e-15 
-6.78149 -2.82843 -3.28699e-15 
-6.56298 -2.82843 -3.28458e-15 
-6.3429 -2.82843 -3.10825e-15 
-6.14299 -2.82843 -2.73375e-15 
-5.91491 -2.82843 -2.62726e-15 
-5.70781 -2.82843 -2.56187e-15 
-5.50799 -2.82843 -2.69021e-15 
-5.29383 -2.82843 -2.63098e-15 
-5.08549 -2.82843 -2.48369e-15 
-4.86915 -2.82843 -2.50437e-15 
-4.66138 -2.82843 -2.50077e-15 
-4.44004 -2.82843 -2.39637e-15 
-4.21701 -2.82843 -2.08563e-15 
-3.99831 -2.82843 -1.86492e-15 
-3.79051 -2.82843 -1.45976e-15 
-3.58001 -2.82843 -9.42769e-16 
-3.3744 -2.82843 -2.8333e-16 
-3.16034 -2.82843 3.06324e-16 
-2.95163 -2.82843 6.49469e-16 
-2.75021 -2.82843 3.57742e-16 
-2.55419 -2.82843 -6.42961e-16 
-2.33817 -2.82843 -2.00167e-15 
-2.13666 -2.82843 1.63081e-15 
-1.91486 -2.82843 8.99433e-15 
-1.73109 -2.82843 4.43413e-14 
-1.52393 -2.82843 8.68215e-14 
-1.34878 -2.82843 2.03292e-13 
-1.16787 -2.82843 3.71651e-13 
-0.932265 -2.82843 5.86171e-13 
-0.734021 -2.82843 2.54767e-13 
-0.534744 -2.82843 7.92891e-13 
-0.27545 -2.82843 2.60923e-13 
-0.026839 -2.82843 9.08284e-13 
0.339649 -2.82843 -1.04484e-12 
0.531536 -2.82843 -4.76524e-13 
0.748348 -2.82843 -5.41878e-13 
0.948585 -2.82843 -4.78728e-13 
1.14944 -2.82843 -3.57579e-13 
1.33109 -2.82843 -1.90795e-13 
1.53466 -2.82843 -1.19702e-13 
1.72937 -2.82843 -3.67359e-14 
1.92279 -2.82843 -1.0187e-14 
2.12696 -2.82843 -2.79407e-15 
2.33198 -2.82843 2.67401e-15 
2.53898 -2.82843 1.7865e-15 
2.74642 -2.82843 3.4173e-16 
2.97936 -2.82843 -4.99617e-16 
3.18161 -2.82843 -4.06624e-16 
3.38178 -2.82843 3.94564e-16 
3.60511 -2.82843 1.0762e-15 
3.80458 -2.82843 1.47841e-15 
4.01734 -2.82843 1.74315e-15 
4.24502 -2.82843 2.34838e-15 
4.44524 -2.82843 2.32309e-15 
4.66219 -2.82843 2.43774e-15 
4.86779 -2.82843 2.55229e-15 
5.07853 -2.82843 2.47655e-15 
5.28912 -2.82843 2.59459e-15 
5.50371 -2.82843 2.69508e-15 
5.70702 -2.82843 2.52646e-15 
5.9238 -2.82843 2.65527e-15 
6.14575 -2.82843 2.96364e-15 
6.34737 -2.82843 2.77948e-15 
6.58351 -2.82843 3.14412e-15 
6.80105 -2.82843 3.80201e-15 
7.002 -2.82843 3.27481e-15 
7.26953 -2.82843 4.0659e-15 
7.50676 -2.82843 5.52292e-15 
7.74709 -2.82843 5.3149e-15 
8.02184 -2.82843 9.93629e-15 
8.20419 -2.82843 6.36519e-15 
8.48528 -2.82843 -1.09467e-15 
-8.48528 -2.59355 4.11027e-15 
-8.26399 -2.58878 -6.48774e-15 
-8.0311 -2.59816 -4.37882e-15 
-7.76783 -2.60815 -3.05746e-15 
-7.50841 -2.64339 -3.90436e-15 
-7.24478 -2.6285 -3.52096e-15 
-6.99553 -2.59867 -3.17842e-15 
-6.77331 -2.59098 -2.35902e-15 
-6.53942 -2.60163 -2.86048e-15 
-6.32949 -2.57571 -2.03263e-15 
-6.09942 -2.6102 -2.0436e-15 
-5.8855 -2.58693 -1.94365e-15 
-5.67821 -2.5786 -1.73261e-15 
-5.46095 -2.59692 -1.67456e-15 
-5.24669 -2.58912 -1.55874e-15 
-5.02786 -2.59705 -1.48707e-15 
-4.81496 -2.58579 -1.34421e-15 
-4.59459 -2.59954 -1.18385e-15 
-4.37007 -2.60099 -9.57708e-16 
-4.14835 -2.59729 -6.18203e-16 
-3.93644 -2.58665 -7.40568e-18 
-3.72461 -2.59255 2.92691e-17 
-3.5143 -2.59138 1.20677e-15 
-3.29962 -2.60388 1.96918e-15 
-3.08478 -2.60158 2.68368e-15 
-2.87461 -2.59571 3.09571e-15 
-2.67215 -2.59209 3.02192e-15 
-2.46133 -2.61559 2.5059e-15 
-2.24662 -2.59948 1.54743e-15 
-2.03421 -2.62486 2.59759e-15 
-1.82626 -2.57501 1.291e-14 
-1.6283 -2.59849 4.54797e-14 
-1.43967 -2.56934 9.93514e-14 
-1.25925 -2.52335 1.90173e-13 
-1.05513 -2.60988 3.25301e-13 
-0.844587 -2.54192 5.06482e-13 
-0.645008 -2.5056 5.15265e-13 
-0.428429 -2.54019 5.79256e-13 
-0.194803 -2.50446 3.06537e-13 
0.0108241 -2.44366 -5.69309e-14 
0.196195 -2.61883 -1.35708e-13 
0.446734 -2.4764 -4.81481e-13 
0.653723 -2.5482 -5.63634e-13 
0.871937 -2.54114 -4.77817e-13 
1.07858 -2.56377 -2.968e-13 
1.2778 -2.54839 -1.8108e-13 
1.47794 -2.61119 -7.09572e-14 
1.69396 -2.60515 -3.38741e-14 
1.90834 -2.59827 -1.48785e-14 
2.11603 -2.61113 -3.915e-15 
2.33541 -2.61116 -2.5978e-15 
2.55487 -2.60665 -3.8993e-15 
2.78734 -2.62585 -2.95807e-15 
3.00496 -2.59525 -2.98801e-15 
3.21101 -2.58688 -2.1752e-15 
3.43322 -2.6106 -1.44806e-15 
3.63825 -2.58238 -7.68004e-16 
3.851 -2.59558 -2.73662e-20 
4.07727 -2.60901 3.68595e-17 
4.28464 -2.57772 7.5179e-16 
4.5019 -2.59799 1.13878e-15 
4.71355 -2.58492 1.24564e-15 
4.92909 -2.59297 1.43896e-15 
5.14397 -2.59292 1.50293e-15 
5.36394 -2.59866 1.63367e-15 
5.57682 -2.58573 1.68925e-15 
5.79347 -2.59939 1.86725e-15 
6.01912 -2.60234 1.97298e-15 
6.23431 -2.57618 2.11912e-15 
6.4556 -2.60943 2.40863e-15 
6.68469 -2.58758 2.54661e-15 
6.89569 -2.56459 2.74964e-15 
7.12575 -2.62926 3.28812e-15 
7.38029 -2.60213 3.44598e-15 
7.61998 -2.6048 4.07207e-15 
7.8772 -2.63349 4.16146e-15 
8.08164 -2.53371 3.22567e-15 
8.30321 -2.6349 6.82261e-15 
8.48528 -2.5322 -1.19833e-15 
-8.48528 -2.35452 -5.50745e-17 
-8.25211 -2.35692 -3.45153e-15 
-8.01184 -2.35679 -8.54561e-16 
-7.7759 -2.40711 -2.7942e-15 
-7.57289 -2.24865 -1.17023e-15 
-7.47767 -2.44279 -2.60622e-15 
-7.19917 -2.41284 -1.85634e-15 
-6.96334 -2.35234 -1.41683e-15 
-6.71745 -2.37743 -1.37446e-15 
-6.49738 -2.35487 -1.31209e-15 
-6.24578 -2.36717 -1.12648e-15 
-6.03367 -2.36574 -1.09292e-15 
-5.81503 -2.34266 -8.50333e-16 
-5.58669 -2.35581 -8.41248e-16 
-5.3715 -2.35936 -7.86377e-16 
-5.14558 -2.36335 -7.18679e-16 
-4.93045 -2.35416 -6.1722e-16 
-4.70438 -2.36292 -5.18866e-16 
-4.48244 -2.37338 -2.11871e-17 
-4.26013 -2.36986 -1.16795e-17 
-4.04605 -2.35292 -2.68404e-18 
-3.83123 -2.353 8.19331e-18 
-3.62174 -2.35634 7.082e-16 
-3.40673 -2.36941 1.09448e-15 
-3.1958 -2.37692 1.47658e-15 
-2.98317 -2.37165 1.7136e-15 
-2.77491 -2.35802 1.58476e-15 
-2.56323 -2.37848 1.46598e-15 
-2.3561 -2.39117 6.95952e-16 
-2.12624 -2.38958 7.2235e-16 
-1.92704 -2.38279 9.5215e-17 
-1.67992 -2.35757 6.88435e-15 
-1.47682 -2.31778 -2.03583e-14 
-1.27715 -2.24546 7.64969e-14 
-1.07296 -2.35523 1.33459e-14 
-0.885673 -2.25481 2.11734e-14 
-0.654184 -2.23618 1.23854e-13 
-0.412508 -2.22069 -3.2549e-14 
-0.209477 -2.13154 8.69187e-14 
0.0463371 -2.1329 1.95188e-13 
0.271482 -2.27584 -1.91921e-13 
0.467703 -2.10312 -1.31917e-14 
0.650779 -2.23029 -2.7936e-13 
0.851345 -2.26314 -7.12067e-15 
1.07068 -2.28981 -3.19936e-14 
1.29321 -2.3039 -1.77569e-14 
1.50571 -2.38274 -2.02877e-14 
1.70795 -2.36635 -3.48956e-15 
1.90638 -2.37998 8.44045e-15 
2.12747 -2.38639 1.61707e-15 
2.33835 -2.40087 1.51982e-16 
2.54614 -2.37273 -7.74279e-16 
2.75251 -2.41165 -2.29385e-15 
2.95766 -2.36246 -1.63327e-15 
3.1621 -2.35107 -1.60419e-15 
3.3792 -2.38265 -1.32215e-15 
3.58635 -2.34691 -8.16151e-16 
3.79755 -2.35784 -1.76234e-17 
4.01227 -2.38234 -3.78851e-18 
4.22126 -2.34311 5.92222e-18 
4.44074 -2.35987 1.63108e-17 
4.65001 -2.34835 2.08204e-17 
4.86593 -2.357 5.73536e-16 
5.08009 -2.35699 6.57642e-16 
5.29657 -2.36901 7.90239e-16 
5.51185 -2.3535 7.96286e-16 
5.73143 -2.36249 9.11652e-16 
5.94894 -2.37632 1.0631e-15 
6.16657 -2.34683 1.03271e-15 
6.39792 -2.36493 1.24833e-15 
6.61132 -2.36501 1.41814e-15 
6.83438 -2.31913 1.1683e-15 
7.06746 -2.37912 1.58506e-15 
7.28767 -2.40127 1.90375e-15 
7.54658 -2.37683 2.01533e-15 
7.79317 -2.41275 2.4429e-15 
8.00219 -2.3113 5.7568e-16 
8.26012 -2.36753 3.41281e-15 
8.48528 -2.29321 3.03534e-16 
-8.48528 -2.11523 -1.85007e-15 
-8.25679 -2.11078 -1.19153e-15 
-8.04908 -2.1108 7.75397e-16 
-7.80666 -2.15788 4.15274e-19 
-7.52257 -2.04052 3.14283e-17 
-7.3118 -2.22978 -8.88419e-16 
-7.07169 -2.14066 -1.40287e-17 
-6.8086 -2.14931 -6.74945e-18 
-6.59194 -2.1255 -2.80196e-17 
-6.35009 -2.15387 -1.67003e-17 
-6.12338 -2.11869 -1.82665e-17 
-5.91734 -2.11732 -1.59058e-17 
-5.68605 -2.12685 -1.23073e-17 
-5.46576 -2.11975 -8.93576e-18 
-5.24781 -2.13532 -8.51446e-18 
-5.03229 -2.121 -3.54593e-18 
-4.80968 -2.13236 -1.59149e-18 
-4.58771 -2.13825 3.62618e-18 
-4.37134 -2.14155 8.95272e-18 
-4.16044 -2.12416 1.76009e-17 
-3.94533 -2.11832 2.224e-17 
-3.73479 -2.11737 3.12926e-17 
-3.52177 -2.13299 6.01632e-16 
-3.31156 -2.14077 7.52137e-16 
-3.102 -2.14685 9.23394e-16 
-2.89234 -2.13509 9.33319e-16 
-2.67238 -2.13856 7.98611e-16 
-2.46277 -2.15197 5.44848e-16 
-2.24741 -2.17968 1.03997e-16 
-2.03236 -2.14108 -3.08362e-15 
-1.81516 -2.17817 -4.3834e-16 
-1.59264 -2.09529 -5.30809e-15 
-1.3926 -2.03054 -5.81542e-14 
-1.17344 -1.87759 5.90425e-15 
-1.09042 -2.07336 -6.7626e-14 
-0.8355 -1.99344 -6.16006e-14 
-0.589178 -1.9555 2.74274e-13 
-0.367373 -1.8449 -3.13708e-13 
-0.0767758 -1.84109 -1.46716e-13 
0.0750764 -1.58453 1.85931e-13 
0.231987 -1.90867 -2.42119e-14 
0.312798 -1.55645 2.67154e-14 
0.490791 -1.80486 2.82383e-14 
0.731993 -1.91437 2.53761e-13 
0.954927 -2.01309 4.07128e-14 
1.19296 -2.05622 2.63695e-14 
1.45885 -2.13426 5.18013e-15 
1.67052 -2.12657 6.30966e-15 
1.88123 -2.13456 4.0194e-15 
2.0893 -2.1727 1.46078e-15 
2.324 -2.17569 -1.47638e-15 
2.55262 -2.14947 -6.02242e-17 
2.76858 -2.17397 -1.44173e-15 
2.97417 -2.11555 -6.15831e-16 
3.20021 -2.13212 -7.53131e-16 
3.40429 -2.1403 -5.87332e-16 
3.62052 -2.11434 -1.34631e-17 
3.83717 -2.13174 -2.3321e-17 
4.04024 -2.13731 -8.18813e-18 
4.26823 -2.11844 -9.35739e-18 
4.47593 -2.11751 -5.29257e-18 
4.6951 -2.11669 -1.16258e-18 
4.90879 -2.1222 2.95449e-18 
5.12789 -2.1267 5.34069e-18 
5.34068 -2.13317 9.44521e-18 
5.56456 -2.1261 1.00823e-17 
5.78365 -2.13267 1.29751e-17 
5.99605 -2.13599 1.50318e-17 
6.23508 -2.12949 1.48897e-17 
6.44906 -2.11871 1.57468e-17 
6.6621 -2.11753 2.02744e-17 
6.92177 -2.1124 7.41037e-18 
7.139 -2.14165 1.43581e-17 
7.37074 -2.18516 6.64816e-16 
7.56012 -2.08411 1.7955e-17 
7.74018 -2.18333 6.90874e-16 
7.95464 -2.08254 -5.19921e-16 
8.20542 -2.14528 1.01783e-16 
8.48528 -2.09917 -1.06889e-15 
-8.48528 -1.81474 -2.55944e-15 
-8.30717 -1.86879 -9.05433e-16 
-7.89368 -1.91153 5.44209e-16 
-7.67668 -1.90294 4.22888e-17 
[...]
POINT_DATA 1978 
VECTORS vectors float
-3.61646e-05 0.000298029 1 
0.000103436 -0.0408619 0.999165 
-3.38348e-05 -0.0424607 0.999098 
-5.38815e-05 -0.0369163 0.999318 
-6.84618e-05 -0.0310695 0.999517 
-2.22709e-05 -0.0261971 0.999657 
-7.37699e-06 -0.0219306 0.999759 
2.62802e-05 -0.0187724 0.999824 
1.58742e-05 -0.0162233 0.999868 
3.41519e-05 -0.0144005 0.999896 
3.62657e-05 -0.0130268 0.999915 
2.35767e-05 -0.0116616 0.999932 
4.36016e-05 -0.0109201 0.99994 
3.04685e-05 -0.0106636 0.999943 
3.30982e-05 -0.0103154 0.999947 
3.73805e-05 -0.00994521 0.999951 
2.77905e-05 -0.00969587 0.999953 
3.30185e-05 -0.00942682 0.999956 
2.62863e-05 -0.00883056 0.999961 
2.99853e-05 -0.00771832 0.99997 
2.99166e-05 -0.00610006 0.999981 
2.88082e-05 -0.00371701 0.999993 
3.05382e-05 5.51675e-05 1 
3.04553e-05 0.00556788 0.999984 
2.73674e-05 0.0138688 0.999904 
2.25742e-05 0.0251047 0.999685 
2.22458e-05 0.0397705 0.999209 
1.12887e-05 0.0590914 0.998253 
7.71532e-06 0.0878659 0.996132 
-4.37063e-06 0.12412 0.992267 
-1.56474e-05 0.17654 0.984293 
-4.94844e-05 0.232608 0.972571 
8.61494e-06 0.310558 0.950555 
-0.000109319 0.391185 0.920312 
-5.90145e-05 0.489011 0.872278 
-3.30855e-05 0.619817 0.784746 
-0.000134142 0.73722 0.675653 
7.9394e-06 0.84887 0.528601 
-8.50006e-05 0.956706 0.291056 
-1.82155e-06 0.999628 0.027284 
-2.36898e-05 0.932585 -0.360951 
0.00010391 0.848533 -0.529142 
2.60363e-05 0.730265 -0.683164 
8.66526e-05 0.61042 -0.792078 
6.83726e-05 0.493807 -0.869572 
4.6468e-05 0.398932 -0.916981 
4.47678e-05 0.307048 -0.951694 
3.3433e-05 0.231201 -0.972906 
1.7148e-05 0.173932 -0.984758 
-8.20281e-08 0.126051 -0.992024 
4.74173e-06 0.0885025 -0.996076 
-2.03983e-05 0.0606808 -0.998157 
-1.8164e-05 0.0404677 -0.999181 
-1.70816e-05 0.0237273 -0.999718 
-3.38808e-05 0.0129667 -0.999916 
-2.60996e-05 0.00532649 -0.999986 
-2.4312e-05 -0.000551594 -1 
-4.22696e-05 -0.00399288 -0.999992 
-2.38606e-05 -0.00627566 -0.99998 
-3.36404e-05 -0.00804225 -0.999968 
-3.92294e-05 -0.00887155 -0.999961 
-2.51292e-05 -0.00933231 -0.999956 
-4.06376e-05 -0.00969093 -0.999953 
-3.28775e-05 -0.00991387 -0.999951 
-3.42761e-05 -0.0102597 -0.999947 
-3.1759e-05 -0.0106083 -0.999944 
-3.92313e-05 -0.0109587 -0.99994 
-2.1835e-05 -0.0118069 -0.99993 
-3.45199e-05 -0.0129608 -0.999916 
-3.27944e-05 -0.0142521 -0.999898 
-9.7449e-06 -0.016614 -0.999862 
-3.16794e-05 -0.0190905 -0.999818 
2.64675e-06 -0.0218365 -0.999762 
1.43284e-05 -0.0269081 -0.999638 
1.46486e-05 -0.0316604 -0.999499 
1.71289e-05 -0.0364586 -0.999335 
3.65793e-05 -0.0423188 -0.999104 
3.40035e-05 -0.0412024 -0.999151 
0.00016727 0.0005793 -1 
-0.000221154 0.000445609 1 
0.0159569 -0.0305961 0.999404 
0.0169811 -0.0391221 0.99909 
0.0161125 -0.0365668 0.999201 
0.0153003 -0.0315239 0.999386 
0.0165162 -0.0260761 0.999524 
0.0188294 -0.0223799 0.999572 
0.0194365 -0.0191677 0.999627 
0.0205334 -0.016553 0.999652 
0.0218395 -0.0146656 0.999654 
0.0206543 -0.0129437 0.999703 
0.0226202 -0.0118136 0.999674 
0.0232565 -0.0110131 0.999669 
0.0224394 -0.0104587 0.999693 
0.0229134 -0.0100073 0.999687 
0.0223835 -0.00959557 0.999703 
0.0228405 -0.0091815 0.999697 
0.0217835 -0.00865431 0.999725 
0.021388 -0.00770976 0.999742 
0.0211506 -0.00614654 0.999757 
0.0210247 -0.00377444 0.999772 
0.0197769 -0.000387684 0.999804 
0.0185537 0.00463474 0.999817 
0.0161992 0.0116703 0.999801 
0.013973 0.0218639 0.999663 
0.0112222 0.0356191 0.999302 
0.00780147 0.0534197 0.998542 
0.00325569 0.0775238 0.996985 
-0.00202408 0.11266 0.993632 
-0.0076587 0.157554 0.987481 
-0.0154407 0.218793 0.975649 
-0.0202134 0.285951 0.958031 
-0.0288606 0.373372 0.927233 
-0.032306 0.457957 0.888387 
-0.0311928 0.565192 0.824369 
-0.0330575 0.679054 0.733343 
-0.0299487 0.789816 0.612613 
-0.0207984 0.896435 0.442686 
-0.0105915 0.975075 0.221622 
0.000240373 0.99998 -0.00639132 
0.00871095 0.974929 -0.222344 
0.0238802 0.888068 -0.459091 
0.0284194 0.783962 -0.620158 
0.0329467 0.661123 -0.749554 
0.0326068 0.543923 -0.838502 
0.030696 0.437628 -0.898632 
0.0238473 0.340345 -0.939998 
0.0177125 0.25478 -0.966837 
0.0119406 0.188571 -0.981987 
0.0051488 0.135146 -0.990812 
-0.000425804 0.0948457 -0.995492 
-0.0052476 0.0656124 -0.997831 
-0.00903914 0.0417361 -0.999088 
-0.0129727 0.026894 -0.999554 
-0.015716 0.015843 -0.999751 
-0.0169868 0.00682307 -0.999832 
-0.0197144 0.00158621 -0.999804 
-0.0202335 -0.00261278 -0.999792 
-0.0204044 -0.00555642 -0.999776 
-0.0225977 -0.00711186 -0.999719 
-0.0219456 -0.00830505 -0.999725 
-0.0228959 -0.00894555 -0.999698 
-0.0226627 -0.00943218 -0.999699 
-0.0226846 -0.00981607 -0.999694 
-0.0224535 -0.0102422 -0.999695 
-0.0230116 -0.0107333 -0.999678 
-0.0219773 -0.0114232 -0.999693 
-0.0214182 -0.0124901 -0.999693 
-0.0222382 -0.0139019 -0.999656 
-0.0198341 -0.0156786 -0.99968 
-0.0202795 -0.0182447 -0.999628 
-0.0204715 -0.0211045 -0.999568 
-0.0166452 -0.024417 -0.999563 
-0.0174058 -0.0288687 -0.999432 
-0.0170271 -0.0333101 -0.9993 
-0.0155553 -0.0383457 -0.999143 
-0.0192057 -0.0381648 -0.999087 
-0.0137979 -0.0276789 -0.999522 
0.000175199 -7.08626e-05 -1 
-0.000102474 -0.000352581 1 
0.018653 -0.0288563 0.99941 
0.021188 -0.0380389 0.999052 
0.0216527 -0.0356673 0.999129 
0.0217583 -0.0318661 0.999255 
0.0215178 -0.0302048 0.999312 
0.0227418 -0.0258768 0.999406 
0.0241179 -0.0227555 0.99945 
0.0250216 -0.0193245 0.9995 
0.0261925 -0.0167843 0.999516 
0.0269537 -0.0144569 0.999532 
0.0277084 -0.0129543 0.999532 
0.0281698 -0.0117773 0.999534 
0.028526 -0.0108416 0.999534 
0.0287191 -0.0102061 0.999535 
0.0286848 -0.00963359 0.999542 
0.0285961 -0.00908852 0.99955 
0.0282673 -0.00841982 0.999565 
0.0278083 -0.00744651 0.999586 
0.0272066 -0.00583933 0.999613 
0.0264133 -0.00334203 0.999646 
0.0252075 0.000224728 0.999682 
0.0235501 0.00512518 0.99971 
0.0213285 0.0119165 0.999702 
0.0185166 0.0210741 0.999606 
0.0150109 0.0339007 0.999312 
0.0107375 0.0509996 0.998641 
0.00575126 0.07287 0.997325 
2.16836e-05 0.10185 0.9948 
-0.0072923 0.144966 0.98941 
-0.0142949 0.195156 0.980668 
-0.0221966 0.271402 0.96221 
-0.0280698 0.347743 0.93717 
-0.031035 0.447445 0.893773 
-0.0351736 0.543479 0.838686 
-0.0337035 0.653475 0.756198 
-0.0285839 0.782438 0.622072 
-0.0210126 0.893986 0.447603 
-0.0106413 0.971177 0.238124 
0.0021767 0.999293 -0.0375365 
0.0143085 0.963221 -0.268331 
0.0206496 0.88068 -0.473262 
0.0291321 0.775285 -0.630939 
0.0335142 0.659095 -0.751312 
0.0345626 0.541433 -0.840033 
0.0321454 0.436034 -0.899356 
0.0283529 0.341376 -0.939499 
0.022266 0.266771 -0.963503 
0.0155956 0.204091 -0.978828 
0.00818458 0.150362 -0.988597 
0.00144449 0.1086 -0.994084 
-0.00490939 0.0759984 -0.997096 
-0.010288 0.0513722 -0.998627 
-0.0144837 0.0358593 -0.999252 
-0.017906 0.0232155 -0.99957 
-0.0209629 0.0125868 -0.999701 
-0.0232533 0.00619307 -0.99971 
-0.0250243 0.00082441 -0.999687 
-0.0262675 -0.00311932 -0.99965 
-0.0273084 -0.00532378 -0.999613 
-0.0279254 -0.0071539 -0.999584 
-0.0284059 -0.00819455 -0.999563 
-0.0286385 -0.00895387 -0.99955 
-0.0287785 -0.00949984 -0.999541 
-0.0287872 -0.0100187 -0.999535 
-0.0287392 -0.0106099 -0.999531 
-0.028427 -0.0113999 -0.999531 
-0.0279148 -0.0124457 -0.999533 
-0.0274383 -0.0138961 -0.999527 
-0.0265595 -0.0157999 -0.999522 
-0.0257567 -0.0180814 -0.999505 
-0.0248072 -0.0211737 -0.999468 
-0.0236646 -0.0243255 -0.999424 
-0.022651 -0.027522 -0.999365 
-0.0219899 -0.0315904 -0.999259 
-0.0216879 -0.0361925 -0.999109 
-0.0214438 -0.0381349 -0.999042 
-0.0183144 -0.0280426 -0.999439 
0.000119854 -0.000132875 -1 
-0.000307186 8.0987e-05 1 
0.0159881 -0.0284451 0.999467 
0.0190122 -0.0378732 0.999102 
0.0203046 -0.0359907 0.999146 
0.0194081 -0.0313561 0.99932 
0.0223746 -0.028053 0.999356 
0.0224838 -0.0250659 0.999433 
0.0234806 -0.0213614 0.999496 
0.024353 -0.0186168 0.99953 
0.0254997 -0.0159259 0.999548 
0.0259297 -0.0140899 0.999564 
0.0264315 -0.0126906 0.99957 
0.0270535 -0.0114607 0.999568 
0.0272705 -0.0105774 0.999572 
0.0274971 -0.00985695 0.999573 
0.0272677 -0.00920185 0.999586 
0.0271942 -0.00844566 0.999594 
0.0268734 -0.00740469 0.999611 
0.0263269 -0.00585507 0.999636 
0.0253284 -0.00346886 0.999673 
0.0241077 5.53733e-05 0.999709 
0.0225983 0.00484652 0.999733 
0.0208142 0.0112262 0.99972 
0.0183962 0.0197278 0.999636 
0.0153772 0.0309906 0.999401 
0.0115117 0.0463654 0.998858 
0.00688504 0.0674347 0.9977 
0.00187443 0.0935105 0.995617 
-0.00395883 0.128751 0.991669 
-0.0103805 0.177898 0.983994 
-0.0169032 0.237691 0.971194 
-0.0218432 0.322177 0.946427 
-0.0248111 0.403198 0.914776 
-0.0233082 0.502281 0.86439 
-0.0283224 0.551039 0.833998 
-0.0252921 0.689652 0.723699 
-0.0188776 0.817606 0.575468 
-0.0128872 0.916464 0.399911 
-0.00330602 0.994388 0.105742 
0.00272166 0.995094 -0.0988984 
0.00919236 0.963646 -0.267025 
0.00882937 0.93751 -0.347847 
0.0159134 0.858826 -0.512021 
0.0220224 0.736243 -0.676359 
0.0265287 0.613169 -0.789506 
0.0272176 0.494004 -0.869034 
0.0258262 0.370541 -0.928457 
0.020777 0.289296 -0.957014 
0.0151723 0.221314 -0.975084 
0.00904351 0.163096 -0.986569 
0.00189598 0.114423 -0.99343 
-0.00409575 0.0811176 -0.996696 
-0.00931823 0.0560106 -0.998387 
-0.0126823 0.0404855 -0.9991 
-0.0166779 0.0255369 -0.999535 
-0.0195037 0.0156984 -0.999687 
-0.0215999 0.00820978 -0.999733 
-0.0236577 0.00220149 -0.999718 
-0.0249424 -0.00170714 -0.999687 
-0.0258127 -0.00471144 -0.999656 
-0.0264431 -0.00660467 -0.999629 
-0.0268833 -0.0079328 -0.999607 
-0.0272511 -0.00882245 -0.99959 
-0.0274243 -0.00950657 -0.999579 
-0.0275129 -0.0101425 -0.99957 
-0.0272964 -0.0109343 -0.999568 
-0.0270349 -0.0119265 -0.999563 
-0.0265856 -0.0131729 -0.99956 
-0.0258125 -0.0149984 -0.999554 
-0.0248828 -0.017089 -0.999544 
-0.0240148 -0.0196119 -0.999519 
-0.0228126 -0.0232542 -0.999469 
-0.0221382 -0.0262276 -0.999411 
-0.0216831 -0.0291994 -0.999338 
-0.0199062 -0.0319905 -0.99929 
-0.0207562 -0.0350021 -0.999172 
-0.0190028 -0.0380137 -0.999097 
-0.017786 -0.032337 -0.999319 
0.000134338 0.000212891 -1 
-0.000364753 -4.81322e-05 1 
0.0115284 -0.0244447 0.999635 
0.0166425 -0.037507 0.999158 
0.0170114 -0.0341713 0.999271 
0.0165184 -0.0309529 0.999384 
0.019788 -0.0285176 0.999397 
0.0183874 -0.0274232 0.999455 
0.0206366 -0.0241819 0.999495 
0.0208654 -0.0212666 0.999556 
0.0223487 -0.0181698 0.999585 
0.0229436 -0.0159137 0.99961 
0.0232411 -0.0141697 0.999629 
0.0241513 -0.0125759 0.999629 
0.0245821 -0.0113711 0.999633 
0.0247631 -0.0103881 0.999639 
0.0247892 -0.00961058 0.999647 
0.0247283 -0.00877318 0.999656 
0.0245057 -0.00775621 0.99967 
0.0240343 -0.00630996 0.999691 
0.0232653 -0.00421559 0.99972 
0.0222747 -0.001082 0.999751 
0.0209743 0.00330169 0.999775 
0.0194855 0.00915234 0.999768 
0.0176415 0.0166012 0.999707 
0.0152506 0.0264366 0.999534 
0.0122963 0.0392233 0.999155 
0.00854689 0.0570017 0.998337 
0.00422192 0.0804216 0.996752 
-0.000478164 0.109933 0.993939 
-0.00559681 0.148535 0.988891 
-0.0112269 0.205599 0.978572 
-0.016258 0.26933 0.962911 
-0.0184225 0.348425 0.937156 
-0.0198879 0.434643 0.900383 
-0.0213499 0.630828 0.775629 
-0.0168827 0.755565 0.654856 
-0.0112356 0.870819 0.491475 
-0.00643724 0.92734 0.374165 
-0.00626822 0.964601 0.263641 
-0.00177362 0.9943 0.106605 
0.00293836 0.989315 -0.145764 
0.00847577 0.908886 -0.416959 
0.0144496 0.804864 -0.593283 
0.0184438 0.680797 -0.732239 
0.0212199 0.561916 -0.826922 
0.0193304 0.487067 -0.87315 
0.0224986 0.424552 -0.905124 
0.0191795 0.328696 -0.944241 
0.0150579 0.255207 -0.966769 
0.0103182 0.190414 -0.98165 
0.00497105 0.139854 -0.99016 
-0.000612952 0.101164 -0.99487 
-0.00595663 0.0698974 -0.997536 
-0.00925532 0.0524311 -0.998582 
-0.013359 0.0339684 -0.999334 
-0.0161729 0.0220259 -0.999627 
-0.0184099 0.0133824 -0.999741 
-0.0204878 0.00598151 -0.999772 
-0.0217749 0.00104123 -0.999762 
-0.0230326 -0.00268301 -0.999731 
-0.0235596 -0.00531559 -0.999708 
-0.0242172 -0.00710272 -0.999681 
-0.0245719 -0.00833255 -0.999663 
-0.0248562 -0.00921086 -0.999649 
-0.0248843 -0.00999787 -0.99964 
-0.0248541 -0.0108224 -0.999633 
-0.0244768 -0.0119229 -0.999629 
-0.0239718 -0.0132625 -0.999625 
-0.0235778 -0.0148919 -0.999611 
-0.0223181 -0.0171952 -0.999603 
-0.021356 -0.0197686 -0.999576 
-0.0207946 -0.0226868 -0.999526 
-0.0193154 -0.0263612 -0.999466 
-0.0189187 -0.0290358 -0.999399 
-0.0170597 -0.0320852 -0.99934 
-0.0167876 -0.0359071 -0.999214 
-0.0152264 -0.0378276 -0.999168 
-0.0139097 -0.0286877 -0.999492 
-1.53656e-05 -4.75185e-05 -1 
-0.000211676 4.84293e-05 1 
0.00934455 -0.0275043 0.999578 
0.0143654 -0.0365721 0.999228 
0.0134601 -0.0380808 0.999184 
0.014373 -0.034672 0.999295 
0.0156886 -0.0299979 0.999427 
0.0173724 -0.0264701 0.999499 
0.0184764 -0.023702 0.999548 
0.0196629 -0.0200355 0.999606 
0.0204832 -0.0175465 0.999636 
0.0208728 -0.0155433 0.999661 
0.021658 -0.0135499 0.999674 
0.0222515 -0.0121355 0.999679 
0.0226019 -0.0109412 0.999685 
0.0225359 -0.00997193 0.999696 
0.0227063 -0.00905233 0.999701 
0.0224905 -0.00795019 0.999715 
0.0220587 -0.00646399 0.999736 
0.0212906 -0.0043291 0.999764 
0.0204894 -0.00131358 0.999789 
0.0193544 0.00298589 0.999808 
0.0180459 0.00880399 0.999798 
0.0163879 0.0163263 0.999732 
0.0144105 0.0258738 0.999561 
0.0118268 0.0384969 0.999189 
0.0087208 0.0550232 0.998447 
0.00487374 0.0778149 0.996956 
0.000393714 0.108911 0.994051 
-0.0042537 0.147854 0.989 
-0.00901589 0.198747 0.980009 
-0.0138248 0.273859 0.96167 
-0.0158836 0.363617 0.931413 
-0.0170915 0.473781 0.880477 
-0.0151016 0.583665 0.811854 
-0.0189501 0.563162 0.826129 
-0.0157966 0.68113 0.731992 
-0.0115332 0.793851 0.608004 
-0.00641316 0.876886 0.480656 
-0.00172658 0.988481 0.151336 
6.18952e-05 0.998728 -0.0504142 
0.00292715 0.975755 -0.218847 
0.000725233 0.953623 -0.301004 
0.00681214 0.892134 -0.451719 
0.0125814 0.775311 -0.631455 
0.0161146 0.619963 -0.784465 
0.0160865 0.504959 -0.862993 
0.0181172 0.385721 -0.922438 
0.0150856 0.304243 -0.952475 
0.0114753 0.230765 -0.972942 
0.0071413 0.17172 -0.98512 
0.00263894 0.129224 -0.991612 
-0.00244468 0.0917499 -0.995779 
-0.00588861 0.070007 -0.997529 
-0.0097962 0.0482352 -0.998788 
-0.0127722 0.0331551 -0.999369 
-0.0150286 0.0221765 -0.999641 
-0.0173128 0.0128044 -0.999768 
-0.0187552 0.00626509 -0.999804 
-0.0199743 0.00112538 -0.9998 
-0.0211431 -0.00267149 -0.999773 
-0.0215618 -0.00534127 -0.999753 
-0.0222509 -0.00719802 -0.999727 
-0.0224782 -0.00847276 -0.999711 
-0.0227666 -0.00945599 -0.999696 
-0.0226546 -0.0103674 -0.99969 
-0.0226368 -0.0113668 -0.999679 
-0.0221093 -0.012646 -0.999676 
-0.0216179 -0.0142293 -0.999665 
-0.0210788 -0.0160553 -0.999649 
-0.0198149 -0.0185798 -0.999631 
-0.0189819 -0.021498 -0.999589 
-0.0184299 -0.0246558 -0.999526 
-0.0168399 -0.0279242 -0.999468 
-0.0164806 -0.0300959 -0.999411 
-0.0147197 -0.0331454 -0.999342 
-0.0142574 -0.0364618 -0.999233 
-0.0125761 -0.0384215 -0.999182 
-0.0106071 -0.0272894 -0.999571 
7.09937e-05 4.44875e-05 -1 
-6.08608e-05 5.03828e-05 1 
0.00740102 -0.0301107 0.999519 
0.01125 -0.038233 0.999206 
0.0114876 -0.037488 0.999231 
0.0135216 -0.0331379 0.999359 
0.0132846 -0.0315341 0.999414 
0.0151772 -0.0286224 0.999475 
0.0153779 -0.0254589 0.999558 
0.0172518 -0.0223848 0.999601 
0.017483 -0.0195024 0.999657 
0.0179785 -0.0172741 0.999689 
0.0189048 -0.0149885 0.999709 
0.0191024 -0.0132651 0.99973 
0.0197946 -0.0118628 0.999734 
0.0199294 -0.0107222 0.999744 
0.0198736 -0.00964188 0.999756 
0.0200938 -0.00857156 0.999761 
0.0197302 -0.00719305 0.999779 
0.0190525 -0.00532854 0.999804 
0.0182705 -0.00260589 0.99983 
0.0174619 0.001104 0.999847 
0.0164117 0.00629409 0.999846 
0.0151325 0.0129635 0.999801 
0.0135992 0.0215984 0.999674 
0.0117706 0.0324115 0.999405 
0.00938727 0.0469082 0.998855 
0.00653879 0.0658105 0.997811 
0.00295516 0.0924434 0.995714 
-0.000960596 0.127109 0.991888 
-0.00495815 0.169995 0.985432 
-0.00938104 0.228257 0.973556 
-0.0124737 0.300244 0.953781 
-0.0140853 0.428405 0.903477 
-0.0124979 0.533954 0.845421 
-0.0110944 0.699983 0.714073 
-0.00599205 0.828159 0.560461 
-0.00188473 0.933442 0.358724 
0.00070722 0.954002 0.299801 
-0.00212838 0.960839 0.277098 
-0.000731677 0.999855 0.0169845 
-0.00158482 0.955624 -0.294584 
-0.000769588 0.89008 -0.455803 
0.00361658 0.888889 -0.458108 
0.00811248 0.790712 -0.612134 
0.011673 0.716618 -0.697368 
0.0128933 0.586291 -0.809998 
0.0154269 0.4073 -0.913164 
0.0131063 0.329869 -0.943936 
0.0105769 0.255523 -0.966745 
0.00704768 0.1912 -0.981526 
0.00304769 0.143379 -0.989663 
-0.000778996 0.107445 -0.994211 
-0.00345727 0.0867667 -0.996223 
-0.00725373 0.05954 -0.9982 
-0.0100475 0.0423817 -0.999051 
-0.0121417 0.0291085 -0.999503 
-0.0143323 0.0181276 -0.999733 
-0.01572 0.0104502 -0.999822 
-0.0169621 0.00426337 -0.999847 
-0.0180922 -0.000526221 -0.999836 
-0.0188474 -0.003759 -0.999815 
-0.0193133 -0.00631461 -0.999794 
-0.0196939 -0.00791798 -0.999775 
-0.0199534 -0.00917486 -0.999759 
-0.0199259 -0.010192 -0.99975 
-0.0199385 -0.0112949 -0.999737 
-0.0196148 -0.012546 -0.999729 
-0.0191771 -0.014175 -0.999716 
-0.0185664 -0.0161352 -0.999697 
-0.0177341 -0.0183873 -0.999674 
-0.0167912 -0.0214595 -0.999629 
-0.016312 -0.0249308 -0.999556 
-0.0148822 -0.0288142 -0.999474 
-0.0141086 -0.0317099 -0.999398 
-0.0123643 -0.0346104 -0.999324 
-0.0121595 -0.0373173 -0.999229 
-0.0103481 -0.0395493 -0.999164 
-0.00908089 -0.0315038 -0.999462 
9.66806e-05 3.91564e-05 -1 
-2.02977e-05 6.35295e-05 1 
0.00573545 -0.0316403 0.999483 
0.00933155 -0.0396185 0.999171 
0.00895312 -0.0385624 0.999216 
0.0110931 -0.0350058 0.999326 
0.0109719 -0.032799 0.999402 
0.0126816 -0.0291788 0.999494 
0.0127455 -0.0256062 0.999591 
0.014444 -0.0222134 0.999649 
0.0140276 -0.0196656 0.999708 
0.0152387 -0.0169933 0.999739 
0.0157557 -0.0149066 0.999765 
0.0157419 -0.0131521 0.99979 
0.016382 -0.0117941 0.999796 
0.0166555 -0.0105781 0.999805 
0.0163824 -0.00937608 0.999822 
0.0166129 -0.0081542 0.999829 
0.0159621 -0.00651132 0.999851 
0.0154022 -0.00416871 0.999873 
0.0146479 -0.00082103 0.999892 
0.0139524 0.0036903 0.999896 
0.0129079 0.00967576 0.99987 
0.0117721 0.0174662 0.999778 
0.0103566 0.0274342 0.99957 
0.00871663 0.0402601 0.999151 
0.00655976 0.057619 0.998317 
0.00403051 0.0805505 0.996742 
0.000969175 0.111114 0.993807 
-0.00232791 0.152067 0.988367 
-0.00597472 0.204847 0.978776 
-0.00891202 0.267501 0.963516 
-0.0115914 0.355481 0.934612 
-0.0102799 0.445727 0.89511 
-0.00897021 0.556612 0.830724 
-0.00924888 0.677309 0.735641 
-0.00430708 0.806296 0.591497 
-0.000268193 0.887193 0.461399 
0.0015335 0.99685 0.079291 
0.000554501 0.997099 0.0761177 
0.000511232 0.998782 0.0493288 
-0.000430488 0.999684 0.0251499 
-0.00328878 0.998753 -0.0498222 
0.00216526 0.814925 -0.579562 
0.00522215 0.761057 -0.648664 
0.0093153 0.654224 -0.756243 
0.00947865 0.539879 -0.841689 
0.0121636 0.472075 -0.881474 
0.0110883 0.389373 -0.921014 
0.00947283 0.29905 -0.95419 
0.00706043 0.221833 -0.975059 
0.00366259 0.164288 -0.986406 
0.000247941 0.121215 -0.992626 
-0.00375349 0.0807022 -0.996731 
-0.00641787 0.0573874 -0.998331 
-0.00869136 0.040364 -0.999147 
-0.0105739 0.0262802 -0.999599 
-0.0119225 0.0167855 -0.999788 
-0.0131411 0.00912343 -0.999872 
-0.0142691 0.0031225 -0.999893 
-0.0148945 -0.00114093 -0.999888 
-0.0159833 -0.00451023 -0.999862 
-0.0158975 -0.00677246 -0.999851 
-0.0164582 -0.00843105 -0.999829 
-0.0163178 -0.00965103 -0.99982 
-0.0165009 -0.0107886 -0.999806 
-0.0162627 -0.0119784 -0.999796 
-0.0161796 -0.0134254 -0.999779 
-0.0156788 -0.0152124 -0.999761 
-0.0149373 -0.0172986 -0.999739 
-0.014613 -0.019953 -0.999694 
-0.0136325 -0.0231525 -0.999639 
-0.0137328 -0.0260804 -0.999566 
-0.0121653 -0.0294491 -0.999492 
-0.0120976 -0.032036 -0.999414 
-0.0103831 -0.0349518 -0.999335 
-0.00963227 -0.0383572 -0.999218 
-0.00795019 -0.040286 -0.999157 
-0.00660281 -0.0290707 -0.999556 
-6.61763e-06 4.09976e-05 -1 
-9.00879e-06 7.32199e-05 1 
0.00398103 -0.0317144 0.999489 