# vtk DataFile Version 3.0 
Exported using Morpho https://github.com/Morpho-lang/morpho 
ASCII 
DATASET UNSTRUCTURED_GRID 

POINTS 1978 float 
-8.48556 -2.82876 -2.15821e-07 
-8.25096 -2.82906 1.65399e-07 
-8.0157 -2.82835 1.37432e-07 
-7.78106 -2.82937 -5.69197e-08 
-7.48952 -2.82909 6.16397e-10 
-7.1737 -2.8292 3.66817e-08 
-6.97649 -2.82881 -4.84561e-08 
-6.73835 -2.82918 1.12652e-07 
-6.55632 -2.82896 3.87226e-08 
-6.37389 -2.82856 3.61296e-08 
-6.16718 -2.82917 -8.48686e-08 
-5.96154 -2.82878 -3.6593e-08 
-5.75085 -2.82896 9.25286e-09 
-5.53885 -2.8288 6.46897e-10 
-5.31036 -2.82901 -6.91243e-11 
-5.09669 -2.829 1.12516e-08 
-4.88443 -2.8289 5.59126e-09 
-4.67559 -2.82892 1.15958e-08 
-4.46611 -2.82905 3.58461e-09 
-4.25618 -2.82895 -9.93551e-09 
-4.05208 -2.8289 -2.71667e-08 
-3.84274 -2.82896 -5.31263e-08 
-3.63506 -2.82885 -5.18623e-08 
-3.43864 -2.82881 -1.40936e-07 
-3.22831 -2.82899 -1.24917e-07 
-3.0319 -2.82886 -8.62659e-08 
-2.83533 -2.82911 -1.18278e-07 
-2.63002 -2.82876 6.22751e-07 
-2.43044 -2.82883 1.05855e-06 
-2.27882 -2.82917 1.78073e-06 
-2.12624 -2.82879 6.32622e-06 
-1.89646 -2.82812 2.50828e-05 
-1.6813 -2.82826 5.06425e-05 
-1.50928 -2.82754 9.52931e-05 
-1.32278 -2.82753 0.000181181 
-1.14778 -2.826 0.000284914 
-0.986608 -2.82391 0.000672319 
-0.65436 -2.81667 0.00154486 
-0.248817 -2.81066 0.0013017 
0.117745 -2.80552 -0.00179878 
0.732163 -2.84214 -0.00866836 
0.757689 -2.80156 0.00708148 
0.928394 -2.82462 -0.000643197 
1.14751 -2.82558 -0.00047958 
1.36475 -2.82714 -6.19535e-05 
1.47316 -2.82786 -0.00017516 
1.63193 -2.82793 -7.90927e-05 
1.80155 -2.82835 -5.53317e-05 
2.06324 -2.82909 -1.33153e-05 
2.28707 -2.82869 -4.29074e-06 
2.51574 -2.82852 -1.93352e-07 
2.68768 -2.82938 -1.65279e-07 
2.85841 -2.82892 -8.03678e-08 
3.06411 -2.82852 -1.35177e-07 
3.25905 -2.82869 -1.804e-07 
3.43639 -2.82924 1.05042e-07 
3.61419 -2.82884 2.68515e-07 
3.82038 -2.82874 3.93691e-08 
4.03473 -2.82908 -2.58646e-08 
4.2468 -2.82888 4.57305e-08 
4.4531 -2.82899 -3.84433e-09 
4.66504 -2.82891 -9.63603e-09 
4.87019 -2.82896 -1.15529e-08 
5.07713 -2.82884 -1.36794e-08 
5.28377 -2.82901 -8.2943e-09 
5.49783 -2.82894 4.37325e-09 
5.71438 -2.8289 -8.37796e-09 
5.93122 -2.82892 9.1423e-09 
6.15956 -2.82888 -3.60782e-10 
6.37472 -2.82903 -3.65517e-09 
6.60376 -2.8288 5.57136e-10 
6.82573 -2.829 -1.1638e-08 
7.03601 -2.82913 5.34961e-09 
7.30289 -2.82877 -5.18896e-10 
7.53387 -2.82915 -2.44141e-09 
7.75996 -2.82901 1.83887e-08 
8.03156 -2.8288 -4.56372e-08 
8.22587 -2.82936 -3.84695e-08 
8.48532 -2.82851 8.17033e-08 
-8.48586 -2.59889 -1.71486e-07 
-8.24809 -2.59646 -1.04809e-18 
-8.01732 -2.5869 2.05233e-18 
-7.78687 -2.59665 1.62251e-18 
-7.553 -2.64294 8.69713e-20 
-7.25497 -2.65777 1.43086e-18 
-6.99061 -2.55604 -2.12093e-18 
-6.79053 -2.60555 4.69246e-18 
-6.57055 -2.53812 1.07263e-18 
-6.33618 -2.61035 5.92615e-19 
-6.08751 -2.57527 -1.5157e-18 
-5.87438 -2.58237 -1.24924e-18 
-5.65937 -2.58635 1.29596e-19 
-5.43327 -2.6077 -4.02818e-19 
-5.20847 -2.5961 -5.71227e-19 
-4.9915 -2.59793 -4.62379e-19 
-4.77705 -2.59681 -4.81412e-19 
-4.56265 -2.59941 -6.67455e-19 
-4.3476 -2.60027 -1.21606e-18 
-4.13497 -2.59288 -1.9236e-18 
-3.9241 -2.59772 -2.63104e-18 
-3.71045 -2.59712 -1.20117e-18 
-3.50023 -2.58526 -1.81111e-18 
-3.29263 -2.60469 -1.50877e-18 
-3.08019 -2.58958 -2.65076e-18 
-2.8757 -2.59084 -4.1447e-18 
-2.67034 -2.60164 -5.04333e-18 
-2.45474 -2.59168 3.55776e-17 
-2.25417 -2.51376 2.54015e-17 
-2.05261 -2.6161 1.46994e-16 
-1.8198 -2.59116 5.20595e-16 
-1.6334 -2.51778 1.00628e-15 
-1.4443 -2.53334 1.78844e-15 
-1.26497 -2.50285 1.57522e-15 
-1.09263 -2.45538 2.75605e-15 
-0.874921 -2.63347 1.09464e-14 
-0.725373 -2.46099 9.20909e-15 
-0.505206 -2.64448 1.92187e-14 
-0.302843 -2.51827 -2.80675e-14 
-0.0324449 -2.62783 3.76622e-15 
0.342301 -2.61504 8.41352e-15 
0.568576 -2.70866 -3.18933e-14 
0.700872 -2.45492 -6.91304e-15 
0.933491 -2.57043 -8.58527e-15 
1.17075 -2.55371 -2.69825e-15 
1.2067 -2.30201 -1.71763e-15 
1.40767 -2.48625 -4.14607e-15 
1.5892 -2.51926 -8.63317e-16 
1.8466 -2.63974 -6.14904e-16 
2.08805 -2.61227 -1.17017e-16 
2.33114 -2.61849 -1.82858e-17 
2.51549 -2.55204 2.70181e-17 
2.75419 -2.59971 -1.99098e-17 
2.9983 -2.6242 -1.05255e-17 
3.22915 -2.58301 3.32247e-18 
3.42954 -2.55739 8.68798e-18 
3.63536 -2.59128 1.36763e-19 
3.85456 -2.6009 1.72293e-18 
4.07076 -2.59964 2.48457e-18 
4.28332 -2.59289 5.64476e-20 
4.49825 -2.59956 7.82346e-19 
4.70915 -2.59173 5.5818e-19 
4.91919 -2.59319 8.10272e-19 
5.13074 -2.59129 3.38599e-19 
5.34601 -2.59738 3.80531e-19 
5.56535 -2.59692 1.45594e-19 
5.78538 -2.59379 8.49738e-20 
6.01294 -2.60301 1.90853e-19 
6.23626 -2.58636 -3.00628e-19 
6.46154 -2.59899 -2.0877e-19 
6.68993 -2.5898 -2.0799e-19 
6.90615 -2.57475 -4.32558e-19 
7.14486 -2.62706 -2.66799e-19 
7.3913 -2.59445 -2.7947e-19 
7.61746 -2.58911 -2.49169e-19 
7.86774 -2.62784 -4.49926e-19 
8.07617 -2.54822 -2.49687e-19 
8.30113 -2.61729 -3.27797e-18 
8.48642 -2.53301 2.23143e-08 
-8.4856 -2.36823 1.65386e-07 
-8.24962 -2.36186 4.04507e-18 
-8.02177 -2.33997 -1.86063e-18 
-7.79634 -2.36058 -2.19697e-19 
-7.56687 -2.2564 -2.69643e-19 
-7.509 -2.46621 6.37255e-19 
-7.24366 -2.45102 2.97946e-21 
-7.00286 -2.33715 -2.61779e-19 
-6.75606 -2.35044 2.49266e-20 
-6.48204 -2.34036 -4.55788e-19 
-6.2611 -2.38374 7.70546e-19 
-6.0344 -2.33167 -2.15238e-19 
-5.81861 -2.34084 -6.82053e-21 
-5.58907 -2.36629 -3.98447e-20 
-5.36838 -2.37893 -5.32602e-20 
-5.14543 -2.36662 3.97616e-21 
-4.9296 -2.3676 1.60709e-20 
-4.71199 -2.37025 -3.39953e-20 
-4.49533 -2.37325 -1.74642e-19 
-4.28198 -2.36871 -2.97391e-19 
-4.06625 -2.36255 -2.6036e-19 
-3.85247 -2.36839 2.35578e-19 
-3.63968 -2.36156 9.49529e-19 
-3.41808 -2.35997 -3.10792e-19 
-3.21195 -2.37146 -1.4409e-18 
-2.99606 -2.35684 -7.65457e-19 
-2.7854 -2.36172 9.08842e-19 
-2.57333 -2.37595 1.14202e-17 
-2.37336 -2.31894 2.61016e-17 
-2.10223 -2.34533 1.26354e-16 
-1.90459 -2.38274 1.98227e-16 
-1.69761 -2.25278 5.18321e-16 
-1.49313 -2.23685 9.81599e-16 
-1.31122 -2.183 2.05965e-15 
-1.12251 -2.14626 2.22826e-15 
-0.929376 -2.27239 2.16418e-15 
-0.579602 -2.27542 4.22763e-15 
-0.39677 -2.22146 4.83837e-14 
-0.218618 -2.22004 -3.44875e-14 
0.0554106 -2.4321 2.5024e-14 
0.240538 -2.29559 -3.71488e-14 
0.482822 -2.36584 1.48299e-14 
0.616789 -2.13029 8.25356e-15 
0.840615 -2.25417 -4.3587e-15 
1.0162 -2.20884 1.66474e-15 
1.20655 -2.08769 -7.64887e-15 
1.47017 -2.26389 -2.67564e-16 
1.72095 -2.24413 -1.14513e-15 
1.82643 -2.42988 -7.82185e-16 
2.06971 -2.3983 -2.34849e-17 
2.3024 -2.40925 -7.48404e-17 
2.52194 -2.28509 -2.10034e-17 
2.70668 -2.38827 -7.23317e-18 
2.92917 -2.39779 6.8887e-18 
3.14602 -2.38615 1.32019e-17 
3.37416 -2.32315 -1.02933e-17 
3.58974 -2.34483 -2.24705e-18 
3.79791 -2.37416 1.16555e-18 
4.01773 -2.37021 -2.02483e-18 
4.23162 -2.36347 2.21056e-18 
4.44854 -2.36887 -3.15939e-20 
4.66053 -2.36062 5.66583e-22 
4.87382 -2.35824 -2.99219e-20 
5.08426 -2.35881 -3.50878e-20 
5.3002 -2.36375 -5.99437e-20 
5.51493 -2.36686 3.67891e-20 
5.7345 -2.36201 7.71428e-20 
5.95889 -2.37327 -6.8112e-20 
6.18143 -2.35649 -7.88638e-20 
6.41126 -2.36027 -6.61223e-20 
6.63213 -2.35988 -7.97409e-20 
6.85734 -2.32963 -5.28763e-20 
7.08644 -2.3868 -4.99923e-21 
7.31023 -2.387 -6.67916e-19 
7.557 -2.34792 4.38891e-19 
7.79071 -2.39732 -1.7765e-18 
8.00538 -2.32076 8.11379e-19 
8.25109 -2.35511 2.56437e-18 
8.48569 -2.30316 4.69685e-09 
-8.48623 -2.13876 3.58809e-08 
-8.25032 -2.12952 -2.1019e-18 
-8.0171 -2.09957 -7.61623e-19 
-7.78138 -2.11863 5.90995e-19 
-7.50656 -2.0443 -2.16057e-21 
-7.31278 -2.24875 3.21583e-19 
-7.0845 -2.1479 1.46274e-20 
-6.81287 -2.12587 -6.26852e-20 
-6.57727 -2.14666 1.19913e-19 
-6.31871 -2.13104 -2.01179e-19 
-6.11473 -2.1142 1.40598e-19 
-5.8871 -2.09488 -1.03238e-19 
-5.66689 -2.13225 7.18966e-21 
-5.44626 -2.14274 9.12572e-21 
-5.2337 -2.14465 2.56885e-20 
-5.01493 -2.13646 -8.21436e-20 
-4.80063 -2.1432 -9.79739e-20 
-4.5847 -2.14564 -1.54175e-19 
-4.37209 -2.14094 -2.82414e-19 
-4.15915 -2.1377 -2.55739e-19 
-3.94166 -2.13513 -2.50664e-19 
-3.73039 -2.13288 2.21857e-19 
-3.5108 -2.13972 7.10266e-19 
-3.29104 -2.12862 -3.92752e-19 
-3.08494 -2.13782 -8.00896e-20 
-2.86537 -2.12794 9.53017e-19 
-2.64947 -2.14232 4.8451e-18 
-2.45166 -2.09852 2.93077e-17 
-2.2059 -2.14964 3.70758e-17 
-1.96363 -2.11467 1.32958e-16 
-1.77964 -2.05443 2.33452e-16 
-1.53114 -1.97431 3.12658e-16 
-1.32893 -1.8743 1.5489e-15 
-1.19735 -1.71207 2.94596e-15 
-1.03352 -1.97456 5.68587e-15 
-0.724154 -2.08273 -2.36353e-15 
-0.518092 -1.89202 -7.29305e-15 
-0.329229 -1.81955 3.64327e-15 
-0.0794273 -2.06235 -4.68598e-15 
0.0261989 -1.807 1.59861e-14 
0.149329 -1.97158 2.14418e-14 
0.412304 -1.74363 1.42135e-14 
0.380719 -2.03303 -2.10211e-14 
0.672345 -1.87591 -5.03178e-15 
0.848944 -1.90021 6.50563e-16 
1.03702 -1.89137 3.65668e-15 
1.45824 -2.04547 1.09951e-15 
1.68686 -2.01723 -4.50102e-16 
1.9506 -2.16094 6.68113e-17 
2.13531 -2.17968 -2.9091e-16 
2.33943 -2.15841 -1.9254e-17 
2.56566 -2.04091 -1.08742e-17 
2.7593 -2.16428 1.12496e-17 
2.97355 -2.16503 -1.34443e-17 
3.19041 -2.1552 -7.25309e-18 
3.41488 -2.09751 1.2365e-17 
3.62715 -2.1131 1.94102e-19 
3.84232 -2.14987 -1.64846e-18 
4.05637 -2.13714 2.53566e-18 
4.27465 -2.13726 -7.70911e-19 
4.48547 -2.13517 2.94678e-19 
4.69934 -2.13015 1.41492e-19 
4.91026 -2.12432 9.80589e-20 
5.12595 -2.13136 3.26815e-20 
5.33838 -2.1303 1.79235e-21 
5.55369 -2.13515 4.03257e-20 
5.77806 -2.13579 2.32458e-20 
5.99565 -2.13752 -3.92712e-21 
6.22572 -2.12939 3.84608e-20 
6.44473 -2.11974 -9.72648e-21 
6.66478 -2.12024 -3.48202e-20 
6.90521 -2.10679 2.25401e-19 
7.12134 -2.14555 7.93981e-20 
7.35625 -2.16228 -1.27996e-19 
7.56198 -2.08471 -3.73375e-19 
7.76528 -2.15791 2.31845e-20 
7.98403 -2.08361 1.71107e-18 
8.21594 -2.13145 -3.27665e-18 
8.48564 -2.10298 -1.23814e-07 
-8.48601 -1.81768 8.56988e-08 
-8.3182 -1.90541 -6.96348e-20 
-7.90554 -1.88564 1.17591e-18 
-7.67489 -1.89027 3.67988e-19 
[...]
POINT_DATA 1978 
VECTORS vectors float
0.00524146 -0.0272244 0.999842 
0.00645619 -0.0208547 0.999997 
0.00764977 -0.0156964 1.00031 
0.00885817 -0.0118237 1.00023 
0.00978177 -0.00809808 1.00026 
0.0106083 -0.00499141 1.00027 
0.0111093 -0.00344614 1.00027 
0.0115389 -0.00207778 1.00026 
0.011809 -0.0012311 1.00016 
0.0119207 -0.000468669 1.00037 
0.0120524 0.000307881 1.00015 
0.0119785 0.00100272 1.00026 
0.0118938 0.00179133 1.00026 
0.0117285 0.00270181 1.00025 
0.0114837 0.00383119 1.00024 
0.0111641 0.00508675 1.00024 
0.0107308 0.00657255 1.00023 
0.0101107 0.00837096 1.00022 
0.00925885 0.0106456 1.00021 
0.00812037 0.0136051 1.00018 
0.00669586 0.0173272 1.00013 
0.00478809 0.0222072 1.00005 
0.00249822 0.0283054 0.999902 
0.000151039 0.035478 0.999674 
-0.00282698 0.045127 0.999276 
-0.00628361 0.056878 0.998658 
-0.0109885 0.0711956 0.997695 
-0.0162851 0.0893462 0.996159 
-0.0241858 0.109757 0.993951 
-0.0316035 0.130822 0.991086 
-0.0404552 0.155893 0.987214 
-0.0561965 0.206272 0.977132 
-0.0752673 0.267405 0.960865 
-0.0898476 0.330775 0.939606 
-0.105927 0.411659 0.90528 
-0.117657 0.501483 0.85718 
-0.123835 0.591881 0.796493 
-0.114006 0.786983 0.606368 
-0.0566728 0.964302 0.258273 
0.0304385 0.990192 -0.138854 
0.111609 0.757125 -0.643489 
0.0986398 0.74153 -0.664898 
0.113669 0.636741 -0.762752 
0.112233 0.514619 -0.850025 
0.0981554 0.405693 -0.908793 
0.0915254 0.356045 -0.930228 
0.0797553 0.291977 -0.953322 
0.0655608 0.235161 -0.96999 
0.0442647 0.1711 -0.984517 
0.0303952 0.131964 -0.991072 
0.0210187 0.102613 -0.994792 
0.0158218 0.0858046 -0.99638 
0.0113551 0.0695533 -0.997813 
0.00577711 0.054426 -0.998903 
0.00145158 0.043823 -0.999344 
-0.000661607 0.0358375 -0.999563 
-0.00255119 0.0288344 -0.999888 
-0.00489075 0.0227797 -1.00004 
-0.00668237 0.017951 -1.00013 
-0.0080234 0.0139135 -1.00018 
-0.00919316 0.0107882 -1.00021 
-0.0101637 0.00848212 -1.00022 
-0.0107714 0.00671794 -1.00023 
-0.0111844 0.00526445 -1.00023 
-0.0114719 0.0040222 -1.00024 
-0.0116873 0.00293715 -1.00024 
-0.0118531 0.00195554 -1.00025 
-0.011957 0.00110466 -1.00025 
-0.0120121 0.000288 -1.00026 
-0.0119654 -0.000486798 -1.00026 
-0.0117092 -0.00141622 -1.00027 
-0.0114067 -0.00250964 -1.00027 
-0.0109686 -0.00389496 -1.00027 
-0.0103543 -0.00611084 -1.00027 
-0.00968435 -0.00853713 -1.00026 
-0.00888402 -0.011509 -1.00024 
-0.00765069 -0.0160072 -1.00019 
-0.00656924 -0.0201735 -1.00011 
-0.00520611 -0.0271861 -0.999846 
0.00366862 -0.0285618 0.99982 
0.00479932 -0.0218528 1.00053 
0.00571517 -0.0167999 1.00053 
0.00664468 -0.0127805 1.00047 
0.00772996 -0.00936185 1.0006 
0.00862546 -0.00616334 1.00061 
0.00816751 -0.00414942 1.00073 
0.00896838 -0.00273061 1.00052 
0.00851227 -0.0016059 1.00073 
0.00941371 -0.000464137 1.00052 
0.0090944 0.00054148 1.00072 
0.00911246 0.0014036 1.00061 
0.00907041 0.002327 1.0006 
0.00908193 0.0034171 1.00059 
0.00873519 0.00471761 1.00058 
0.00840112 0.0062476 1.00056 
0.00790826 0.00810193 1.00055 
0.00727542 0.0104077 1.00053 
0.00637953 0.0133837 1.0005 
0.00510893 0.0172415 1.00045 
0.0035627 0.0220396 1.00036 
0.00158325 0.0281616 1.00021 
-0.000558025 0.035812 0.999967 
-0.00284358 0.0451043 0.999579 
-0.0058263 0.0576842 0.998915 
-0.00944995 0.0725873 0.99791 
-0.0144624 0.0911665 0.99632 
-0.0208855 0.115134 0.993715 
-0.0263677 0.146677 0.989505 
-0.0377284 0.181755 0.983191 
-0.0490976 0.239815 0.970124 
-0.0546185 0.299933 0.952893 
-0.0660396 0.372172 0.926239 
-0.0700603 0.453026 0.888895 
-0.0697261 0.540261 0.838596 
-0.0921881 0.658478 0.746561 
-0.0656469 0.742176 0.666038 
-0.0736604 0.8595 0.503214 
-0.040543 0.943522 0.323942 
-0.00945188 0.997534 0.0317891 
0.0410429 0.933142 -0.352105 
0.072448 0.836728 -0.539208 
0.0520799 0.762205 -0.644329 
0.0747152 0.63025 -0.772577 
0.0728434 0.50392 -0.86071 
0.044393 0.48917 -0.871346 
0.0573986 0.395267 -0.917131 
0.0533223 0.324041 -0.944975 
0.0494009 0.234267 -0.971457 
0.0356291 0.177404 -0.984068 
0.0248387 0.13366 -0.99131 
0.0183582 0.110011 -0.994455 
0.0127131 0.084158 -0.99687 
0.00699594 0.0632271 -0.998582 
0.00275655 0.0492513 -0.999395 
0.000663037 0.0392544 -0.999936 
-0.00131817 0.0305766 -1.00015 
-0.00335749 0.0237823 -1.00033 
-0.00494532 0.0187056 -1.00033 
-0.00606864 0.0145479 -1.00058 
-0.00711384 0.0112564 -1.00052 
-0.00777778 0.0088147 -1.00054 
-0.00831308 0.00686287 -1.00056 
-0.00864968 0.00528082 -1.00057 
-0.0089555 0.00392981 -1.00058 
-0.00912838 0.00277151 -1.00059 
-0.00921751 0.00176841 -1.0006 
-0.00936819 0.000838792 -1.0006 
-0.00920936 -6.76215e-05 -1.00061 
-0.00924591 -0.00103672 -1.00062 
-0.00892564 -0.00217386 -1.00062 
-0.00849751 -0.00351016 -1.00063 
-0.00857676 -0.00520644 -1.00062 
-0.00770021 -0.00761221 -1.00062 
-0.00708511 -0.0103225 -1.0006 
-0.00658498 -0.0139433 -1.00045 
-0.00522383 -0.0180965 -1.0006 
-0.00468091 -0.0231199 -1.00028 
-0.00329073 -0.0287731 -0.999919 
0.00253292 -0.0294039 1.00002 
0.00348767 -0.0228248 1.00042 
0.00418714 -0.0177747 1.00042 
0.00496558 -0.0135929 1.00069 
0.00486795 -0.0105428 1.0005 
0.0063969 -0.00928857 1.00061 
0.00683537 -0.00648258 1.00063 
0.00631058 -0.004603 1.00054 
0.00674944 -0.00285895 1.00075 
0.00683684 -0.00132809 1.00064 
0.00728566 -0.000240047 1.00064 
0.00685928 0.0007631 1.00063 
0.00687427 0.00171926 1.00063 
0.0069616 0.00279086 1.00062 
0.00692885 0.00397275 1.0006 
0.00657662 0.00544189 1.00059 
0.00624202 0.00718973 1.00057 
0.00580547 0.00934971 1.00055 
0.00520851 0.0120243 1.00052 
0.00433585 0.0154526 1.00048 
0.0031184 0.0200168 1.00041 
0.00157814 0.0256066 1.00029 
-0.000199244 0.0324155 1.00009 
-0.00197605 0.0412456 0.999759 
-0.00403725 0.0518419 0.999255 
-0.0069064 0.0662994 0.99838 
-0.0104981 0.0838203 0.997028 
-0.0152541 0.105975 0.994848 
-0.0190753 0.132752 0.99156 
-0.0271668 0.178623 0.984123 
-0.0354341 0.223986 0.974515 
-0.0362158 0.284202 0.958602 
-0.0414155 0.356023 0.934014 
-0.0404744 0.431833 0.901383 
-0.038867 0.520569 0.853164 
-0.0516826 0.6284 0.775672 
-0.0434137 0.817424 0.572846 
-0.0320495 0.905342 0.420175 
-0.022343 0.967202 0.245228 
-0.000908874 0.995907 -0.0589331 
0.00997491 0.965086 -0.255541 
0.0308855 0.871382 -0.487367 
0.0166922 0.799444 -0.598937 
0.0359242 0.682021 -0.729886 
0.0348929 0.587882 -0.807977 
0.0239947 0.488228 -0.872644 
0.0375816 0.372059 -0.927758 
0.0307293 0.280954 -0.959846 
0.0378835 0.246818 -0.968869 
0.0288507 0.188074 -0.98221 
0.0217123 0.143884 -0.989952 
0.0141803 0.115155 -0.99385 
0.0119419 0.0920215 -0.996395 
0.00747871 0.0720435 -0.997894 
0.00379411 0.0564845 -0.999107 
0.0015381 0.0441757 -0.999541 
-7.78601e-05 0.0342257 -1.00003 
-0.00173345 0.0268988 -1.00026 
-0.00318598 0.0210208 -1.00049 
-0.00424274 0.0165625 -1.00038 
-0.00511744 0.0127997 -1.00052 
-0.00571297 0.00997385 -1.00055 
-0.00618538 0.00772422 -1.00057 
-0.00651765 0.00592704 -1.00058 
-0.00679145 0.00441007 -1.00059 
-0.00697896 0.00315856 -1.0006 
-0.00704156 0.00207994 -1.00061 
-0.00719294 0.00108781 -1.00062 
-0.00706327 0.000113024 -1.00063 
-0.00702815 -0.000954935 -1.00063 
-0.00691751 -0.00210113 -1.00064 
-0.0064839 -0.00353241 -1.00064 
-0.00658576 -0.00517969 -1.00064 
-0.00622873 -0.00722268 -1.00063 
-0.00549009 -0.0101204 -1.00072 
-0.00520547 -0.0134018 -1.00057 
-0.00411997 -0.0174753 -1.00051 
-0.00346271 -0.022899 -1.0004 
-0.00224281 -0.0298478 -0.999892 
0.00173272 -0.0306679 0.999868 
0.00256132 -0.0237671 1.00028 
0.00307143 -0.0183189 1.00062 
0.00371977 -0.0139118 1.00068 
0.00393126 -0.0100947 1.00061 
0.00529816 -0.00752724 1.00063 
0.00500755 -0.0055196 1.00075 
0.00519277 -0.0034661 1.00064 
0.00545564 -0.00197803 1.00064 
0.00546618 -0.000620945 1.00064 
0.00539401 0.000361346 1.00064 
0.00524153 0.00144649 1.00063 
0.00541579 0.00249741 1.00062 
0.00535139 0.0036726 1.00061 
0.00517496 0.00503546 1.0006 
0.00488458 0.00674953 1.00058 
0.00460679 0.0087884 1.00056 
0.00417962 0.0113512 1.00054 
0.00354522 0.0145748 1.0005 
0.00267164 0.0188003 1.00043 
0.00148366 0.0242954 1.00032 
4.46742e-05 0.0307004 1.00015 
-0.00154089 0.0386033 0.999869 
-0.00321507 0.0490823 0.999404 
-0.005231 0.0618328 0.998682 
-0.00782207 0.0788159 0.997466 
-0.0112654 0.0996962 0.995558 
-0.0140895 0.124527 0.992718 
-0.0191762 0.16234 0.987145 
-0.0237104 0.212326 0.977488 
-0.0252338 0.259471 0.965978 
-0.025192 0.338135 0.941242 
-0.0204422 0.414472 0.910253 
-0.0102542 0.464462 0.885663 
-0.0265153 0.558839 0.828792 
-0.0333074 0.731762 0.679935 
-0.0171138 0.83622 0.545987 
-0.0112921 0.922427 0.381315 
-0.0134763 0.993547 0.0948406 
-0.0122954 0.997345 -0.0256153 
-0.00651397 0.984587 -0.163978 
-0.0159782 0.888521 -0.454886 
0.00344504 0.912801 -0.404371 
-0.00139699 0.75598 -0.653538 
0.00449006 0.659874 -0.750984 
0.00825378 0.557644 -0.830237 
0.0230827 0.372921 -0.928134 
0.0197136 0.292162 -0.956591 
0.0225972 0.218993 -0.976027 
0.0197278 0.176997 -0.984712 
0.015672 0.141833 -0.990375 
0.00981838 0.111489 -0.994329 
0.008528 0.0891491 -0.996599 
0.0056072 0.0704065 -0.998118 
0.00303049 0.055542 -0.99897 
0.00117371 0.0432041 -0.999777 
-8.91116e-05 0.0340831 -1.00004 
-0.0014719 0.0267387 -1.00026 
-0.00254882 0.0211046 -1.00039 
-0.00339238 0.0164457 -1.00047 
-0.00404556 0.0128521 -1.00052 
-0.00451862 0.00996907 -1.00055 
-0.00484976 0.0077256 -1.00057 
-0.0051114 0.0058523 -1.00059 
-0.00526546 0.0043439 -1.0006 
-0.00542063 0.00306642 -1.00061 
-0.00549217 0.00193851 -1.00062 
-0.00554333 0.000934495 -1.00063 
-0.0055048 -0.000150947 -1.00064 
-0.00536357 -0.00126431 -1.00064 
-0.00525698 -0.00250861 -1.00064 
-0.00499058 -0.00414346 -1.00065 
-0.00495031 -0.00584572 -1.00064 
-0.00475333 -0.0081282 -1.00052 
-0.00401524 -0.0107422 -1.0006 
-0.00392809 -0.0135913 -1.00057 
-0.00314845 -0.0176931 -1.00041 
-0.00268662 -0.0227666 -1.00051 
-0.00166118 -0.0307411 -0.999866 
0.00117428 -0.0316052 0.99984 
0.0017944 -0.0261664 1.00032 
0.00265297 -0.0166362 1.00042 
0.00303805 -0.0127237 1.00058 
0.00299793 -0.00976794 1.00072 
0.0040644 -0.00764703 1.00053 
0.00332992 -0.00678777 1.00064 
0.00411825 -0.00489111 1.00064 
0.00406567 -0.00306981 1.00065 
0.00431717 -0.00160912 1.00064 
0.00403104 -0.000472044 1.00064 
0.00404231 0.000637454 1.00064 
0.00399037 0.00179902 1.00063 
0.00408133 0.00288193 1.00062 
0.0039705 0.00410975 1.00061 
0.00388317 0.00559403 1.00059 
0.00363577 0.0074481 1.00057 
0.00341525 0.00970019 1.00055 
0.00304713 0.0124782 1.00052 
0.00250547 0.0159752 1.00048 
0.00173806 0.0205734 1.0004 
0.000737334 0.0263343 1.00027 
-0.000442402 0.0333518 1.00006 
-0.00179045 0.0416654 0.999748 
-0.00333719 0.0526809 0.999222 
-0.00512898 0.0666736 0.998374 
-0.00690216 0.0845122 0.997009 
-0.00874792 0.104304 0.995115 
-0.0124225 0.137622 0.991013 
-0.015571 0.174637 0.985012 
-0.0154176 0.211428 0.977852 
-0.0169449 0.269918 0.963296 
-0.0121381 0.32648 0.945817 
0.000153907 0.503444 0.864302 
-0.0148932 0.617571 0.786155 
-0.00891097 0.721686 0.691269 
0.00664026 0.80806 0.586977 
0.0154328 0.875036 0.480115 
-0.00808848 0.968479 0.240071 
-0.00975694 0.991543 0.107833 
-0.0232619 0.971222 -0.227047 
-0.0395033 0.842033 -0.535465 
-0.017468 0.749341 -0.660716 
-0.0177202 0.584858 -0.810656 
-0.0108785 0.495983 -0.868423 
-0.00778899 0.4083 -0.913094 
0.00772323 0.456034 -0.890027 
0.0098618 0.360984 -0.93295 
0.0131754 0.257195 -0.966828 
0.0122693 0.209894 -0.978228 
0.0119968 0.169648 -0.986033 
0.00979274 0.135043 -0.991405 
0.00588436 0.0941075 -0.996165 
0.00494432 0.0769682 -0.997642 
0.00313858 0.0609013 -0.998754 
0.00153906 0.0484345 -0.999441 
0.000183697 0.0374093 -0.999917 
-0.000886337 0.029415 -1.00018 
-0.0017449 0.0234211 -1.00034 
-0.00244371 0.0182941 -1.00045 
-0.00295076 0.0142505 -1.00051 
-0.00334377 0.0110785 -1.00054 
-0.00357904 0.00856116 -1.00057 
-0.00382393 0.0065279 -1.00058 
-0.00394595 0.0049023 -1.0006 
-0.00408155 0.00351861 -1.00061 
-0.00422266 0.00231834 -1.00062 
-0.00419477 0.00122806 -1.00063 
-0.00423206 0.00016478 -1.00063 
-0.00409457 -0.00100943 -1.00064 
-0.00402131 -0.00228227 -1.00064 
-0.00396887 -0.00375082 -1.00064 
-0.00378045 -0.00568322 -1.00074 
-0.00375326 -0.00771741 -1.00063 
-0.00321143 -0.0106506 -1.0006 
-0.00293665 -0.0144145 -1.00056 
-0.0023368 -0.0191992 -1.00059 
-0.00192142 -0.02493 -1.00025 
-0.00124951 -0.0315685 -0.999836 
0.000961184 -0.0321177 0.999821 
0.00134408 -0.0255174 1.00034 
0.00207458 -0.0215607 1.00045 
0.00203222 -0.017067 1.00051 
0.00229093 -0.0132885 1.00047 
0.00255033 -0.00823307 1.00062 
0.00285118 -0.00542353 1.00064 
0.00316756 -0.00389433 1.00064 
0.00320069 -0.00216496 1.00064 
0.003022 -0.000985087 1.00064 
0.00293928 0.000257507 1.00064 
0.00300871 0.00138495 1.00063 
0.00300335 0.00258421 1.00062 
0.00295346 0.00376126 1.00061 
0.00285531 0.00516164 1.0006 
0.00271375 0.00684466 1.00058 
0.0025595 0.0090343 1.00056 
0.00236118 0.0116103 1.00053 
0.00204911 0.0148034 1.00049 
0.00157163 0.0189645 1.00043 
0.000847404 0.0243153 1.00032 
-3.52818e-05 0.0310275 1.00014 
-0.000946896 0.0386504 0.999873 
-0.00207926 0.0481129 0.99946 
-0.00367042 0.0619469 0.998692 
-0.00503086 0.0775152 0.997595 
-0.00584536 0.0961878 0.995959 
-0.00797784 0.122576 0.993043 
-0.00961875 0.15625 0.988383 
-0.00882085 0.19229 0.981904 
-0.00903101 0.245288 0.969969 
-0.00420847 0.324514 0.946262 
0.00145118 0.429948 0.903128 
0.022619 0.505171 0.862879 
0.00669207 0.599355 0.800199 
0.0174786 0.690347 0.722628 
0.0499865 0.713783 0.697279 
0.0597621 0.831466 0.549546 
0.0160952 0.951287 0.300277 
-0.0249357 0.995677 -0.0526835 
-0.0429032 0.946075 -0.313491 
-0.0832847 0.875479 -0.472218 
-0.0691618 0.764062 -0.639595 
-0.0373524 0.676381 -0.734963 
-0.0431683 0.538401 -0.84156 
-0.0279787 0.452927 -0.891491 
-0.00217543 0.329846 -0.944653 
0.00579925 0.280072 -0.960488 
0.00390661 0.216731 -0.9768 
0.00502108 0.177302 -0.984645 
0.00549644 0.144969 -0.990135 
0.00563468 0.11448 -0.994026 
0.00331912 0.0930036 -0.996284 
0.00320979 0.0747469 -0.997819 
0.00213845 0.0597684 -0.99883 
0.000915931 0.046364 -0.999543 
-0.000222089 0.0360492 -0.999968 
-0.00101301 0.0287835 -1.0002 
-0.0016384 0.0225137 -1.00036 
-0.00208652 0.0176284 -1.00045 
-0.002379 0.0137597 -1.00051 
-0.00261055 0.0106524 -1.00055 
-0.00276582 0.00808354 -1.00057 
-0.0028862 0.00618822 -1.00059 
-0.00295699 0.00462748 -1.0006 
-0.00304139 0.0032707 -1.00061 
-0.00313925 0.00207181 -1.00062 
-0.00311555 0.000960507 -1.00063 
-0.00311588 -0.0001366 -1.00064 
-0.00299364 -0.00137851 -1.00064 
-0.00294718 -0.00273517 -1.00064 
-0.00300432 -0.00440381 -1.00054 
-0.00280132 -0.00633701 -1.00063 
-0.00276955 -0.0085048 -1.00062 
-0.00233836 -0.0112651 -1.00059 
-0.00233277 -0.0142373 -1.00056 
-0.00185801 -0.0184595 -1.00049 
-0.00156646 -0.0241929 -1.00037 
-0.00106141 -0.0319594 -0.999822 
0.000774855 -0.0324018 0.999802 
0.00102897 -0.0253676 1.00033 
0.00152781 -0.0205287 1.00046 
0.00163847 -0.0153541 1.00065 
0.00209073 -0.011087 1.0006 
0.00188527 -0.00873008 1.00061 
0.00220525 -0.00636693 1.00052 
0.00220508 -0.0043293 1.00074 
0.00250629 -0.00293175 1.00054 
0.00230276 -0.00158144 1.00064 
0.00228995 -0.000358174 1.00063 
0.00227762 0.00086851 1.00062 
0.00232991 0.00201679 1.00062 
0.00223285 0.00322691 1.00061 
0.00218832 0.00453073 1.0006 
0.00211738 0.00604306 1.00058 
0.00206564 0.0079068 1.00056 
0.00192773 0.0102322 1.00054 
0.00176006 0.0130791 1.00051 
0.00153386 0.0167437 1.00047 
0.00112265 0.0213353 1.00038 
0.000463213 0.0273693 1.00024 
-0.000227101 0.0343431 1.00003 
-0.000890314 0.0424565 0.999721 
-0.00187651 0.053563 0.999186 
-0.0031443 0.0683905 0.998278 
-0.0040784 0.0843997 0.997046 
-0.00480041 0.109126 0.994641 
-0.00559979 0.136448 0.991257 
-0.00481195 0.166823 0.98659 
-0.00363786 0.213997 0.977419 
-0.00184572 0.273348 0.962459 
0.0065458 0.370257 0.929354 
0.0217228 0.435348 0.900338 
0.0391996 0.582063 0.811985 
0.0748052 0.584204 0.807836 
0.105311 0.682936 0.721579 
0.198298 0.594904 0.777934 
0.120609 0.822794 0.551174 
0.0373941 0.969198 0.230501 
-0.0681679 0.968738 -0.221993 
-0.15857 0.805236 -0.567778 
-0.1107 0.689771 -0.714093 
-0.0926167 0.543738 -0.833786 
-0.0712169 0.615631 -0.784676 
-0.0569609 0.463841 -0.884205 
-0.0166692 0.359912 -0.933258 
-0.00678822 0.282531 -0.95978 
-0.00137774 0.241695 -0.970831 
-0.000532553 0.185293 -0.983385 
0.00149295 0.148214 -0.989475 
0.00277415 0.119392 -0.993368 
0.00131264 0.0975554 -0.995857 
0.00183085 0.0757764 -0.997748 
0.00137934 0.0609386 -0.998766 
0.000695328 0.0489253 -0.999426 
-0.000280103 0.0386049 -0.999875 
-0.00109738 0.0298751 -1.00017 
-0.00152065 0.023719 -1.00033 
-0.00179898 0.0186018 -1.00044 
-0.00195594 0.014531 -1.0005 
-0.00206296 0.01117 -1.00054 
-0.00217793 0.00858466 -1.00056 
-0.00220917 0.00657532 -1.00058 
-0.00226925 0.00500039 -1.00059 
-0.00231812 0.00356929 -1.0006 
-0.00236952 0.00230711 -1.00061 
-0.00239407 0.00118786 -1.00062 
-0.00240323 4.14047e-05 -1.00063 
-0.0023701 -0.0011473 -1.00063 
-0.00228798 -0.00255806 -1.00064 
-0.00233584 -0.00415033 -1.00074 
-0.00219961 -0.00614959 -1.00063 
-0.00211674 -0.00859189 -1.00062 
-0.00181431 -0.011627 -1.00058 
-0.00168727 -0.0152155 -1.00054 
-0.00136929 -0.0198569 -1.00046 
-0.00121921 -0.025029 -1.00034 
-0.000892815 -0.0322851 -0.99981 
0.000580978 -0.032608 0.999794 
0.00084193 -0.0254302 1.00033 
0.00122274 -0.0195853 1.00048 
0.00126483 -0.0154517 1.00053 
0.00159548 -0.0120276 1.00058 
0.0015289 -0.00889739 1.00061 
0.00174842 -0.00624278 1.00072 
0.00169155 -0.00432688 1.00053 
0.00182715 -0.00271802 1.00064 
0.00160281 -0.00130928 1.00064 
0.00164948 -9.63623e-06 1.00063 
0.00162618 0.0012259 1.00062 
0.00158026 0.0023678 1.00061 
0.00148691 0.00363149 1.0006 
0.00147117 0.00497526 1.00059 
0.00146314 0.00654423 1.00067 
0.0014197 0.00847482 1.00047 
0.00130416 0.010921 1.00063 
0.00122292 0.0140965 1.00041 
0.0010844 0.0179792 1.00054 
0.000780042 0.0231351 1.00035 
0.000257004 0.0292724 1.0001 
-0.000293946 0.0365256 0.999957 
-0.000802024 0.045893 0.999576 
-0.00145346 0.0579302 0.998952 
-0.00215703 0.0728931 0.99797 
-0.00313868 0.0937343 0.996227 
-0.00328108 0.117496 0.993705 
-0.00299113 0.142599 0.990407 
-0.00121058 0.181104 0.984079 
0.00130094 0.233782 0.97286 
0.00573787 0.301223 0.954053 
0.0173882 0.356628 0.93452 
0.0355112 0.407237 0.912966 
0.0519158 0.486877 0.872108 
0.122074 0.517202 0.84694 
0.157615 0.425035 0.891172 
0.321292 0.557572 0.765587 
0.259228 0.808528 0.528375 
0.0552801 0.986077 0.150345 
-0.166891 0.948223 -0.268973 
-0.329411 0.747332 -0.577252 
-0.177028 0.623971 -0.760006 
-0.122117 0.489524 -0.863349 
-0.0707522 0.416291 -0.906794 
-0.0373363 0.350887 -0.936257 
-0.0344196 0.393516 -0.918998 
-0.0206479 0.317106 -0.948569 
-0.0109702 0.258649 -0.966474 
-0.00495489 0.202836 -0.9799 
-0.00171869 0.151393 -0.989101 
-2.56762e-07 0.120965 -0.99339 
0.000267809 0.0894521 -0.996726 
0.000663827 0.0722785 -0.997914 
0.000481154 0.0579204 -0.998952 
-1.41524e-05 0.0463061 -0.999555 
-0.000768519 0.0361213 -1.00007 
-0.00126725 0.0285648 -1.00011 
-0.00147961 0.0225811 -1.00036 
-0.00153132 0.0177023 -1.00054 
-0.00151458 0.0137193 -1.00041 
-0.00150176 0.0104922 -1.00064 
-0.00154492 0.00810385 -1.00056 
-0.00153087 0.00627027 -1.00058 
-0.00159576 0.00473475 -1.00059 
-0.00163765 0.00333764 -1.0006 
-0.00166753 0.00210737 -1.00061 
-0.00169626 0.00096367 -1.00062 
-0.00167855 -0.000169297 -1.00063 
-0.00171289 -0.00145616 -1.00063 
-0.0016938 -0.00296891 -1.00064 
-0.00175703 -0.00461036 -1.00053 
-0.00162782 -0.00649026 -1.00062 
-0.00168216 -0.00862424 -1.00061 
-0.00146891 -0.0116055 -1.00058 
-0.00135648 -0.0154301 -1.00053 
-0.00110089 -0.0202153 -1.00045 
-0.000909685 -0.0260656 -1.00031 
-0.000607198 -0.0325048 -0.999798 
0.000486885 -0.032857 0.999682 
0.000646499 -0.0254048 1.00042 
0.000953208 -0.0200451 1.00046 
0.000960076 -0.0154998 1.00053 
0.00129269 -0.0117415 1.00058 
0.00112824 -0.00893881 1.0006 