# vtk DataFile Version 3.0 
Exported using Morpho https://github.com/Morpho-lang/morpho 
ASCII 
DATASET UNSTRUCTURED_GRID 

POINTS 1978 float 
-8.48529 -2.82844 -2.88328e-09 
-8.25178 -2.82844 1.79475e-09 
-8.01814 -2.82842 2.04009e-09 
-7.77739 -2.82844 -5.19271e-10 
-7.47732 -2.82846 2.93226e-10 
-7.17935 -2.82844 5.12425e-10 
-6.98035 -2.82843 -7.03541e-10 
-6.75071 -2.82844 1.49867e-09 
-6.5662 -2.82845 4.42642e-10 
-6.38144 -2.82842 3.2014e-10 
-6.15736 -2.82844 -1.06406e-09 
-5.94844 -2.82844 -4.27376e-10 
-5.74574 -2.82844 1.17809e-10 
-5.536 -2.82844 4.55e-12 
-5.30918 -2.82844 3.18673e-12 
-5.09582 -2.82844 1.52352e-10 
-4.88498 -2.82844 9.37078e-11 
-4.67634 -2.82844 1.86388e-10 
-4.46616 -2.82844 1.17972e-10 
-4.25578 -2.82844 -1.27924e-11 
-4.05184 -2.82844 -1.97204e-10 
-3.84449 -2.82844 -4.64821e-10 
-3.63785 -2.82844 -3.88796e-10 
-3.44147 -2.82844 -1.6167e-09 
-3.23077 -2.82844 -1.50038e-09 
-3.03248 -2.82844 -1.53497e-09 
-2.83758 -2.82844 -3.63758e-09 
-2.63506 -2.82843 4.08438e-09 
-2.45592 -2.82844 2.72667e-09 
-2.27702 -2.82844 -1.08805e-09 
-2.10296 -2.82843 4.91596e-08 
-1.8971 -2.82843 2.50212e-07 
-1.69192 -2.82842 6.08218e-07 
-1.52062 -2.82841 1.07593e-06 
-1.33859 -2.8284 2.14002e-06 
-1.15883 -2.82833 4.51972e-06 
-0.904102 -2.82839 8.6872e-06 
-0.657803 -2.82815 1.36129e-05 
-0.23236 -2.82803 1.38914e-05 
0.147782 -2.82795 -7.90869e-06 
0.492138 -2.82853 5.82866e-06 
0.822428 -2.828 -1.57112e-05 
0.995548 -2.82836 -9.52322e-06 
1.14892 -2.8284 -6.42157e-06 
1.30198 -2.82837 -1.18827e-06 
1.50517 -2.82842 -2.16396e-06 
1.67644 -2.8284 -9.25109e-07 
1.87077 -2.82846 -5.96983e-07 
2.05371 -2.82844 -2.03928e-07 
2.27313 -2.82844 -4.26226e-08 
2.49148 -2.82841 5.30002e-09 
2.66995 -2.82845 3.63881e-10 
2.87537 -2.82844 2.59099e-10 
3.07809 -2.82843 -9.62937e-10 
3.26793 -2.82844 -2.12506e-09 
3.44906 -2.82844 1.07708e-09 
3.63316 -2.82844 3.23305e-09 
3.82035 -2.82843 3.18869e-10 
4.03623 -2.82844 -4.46158e-10 
4.24714 -2.82844 4.39752e-10 
4.45405 -2.82844 -8.39715e-11 
4.66553 -2.82844 -1.52143e-10 
4.87037 -2.82844 -1.61907e-10 
5.0774 -2.82844 -1.78987e-10 
5.28467 -2.82844 -1.03594e-10 
5.49864 -2.82844 5.51054e-11 
5.71504 -2.82844 -1.00539e-10 
5.93164 -2.82844 1.16589e-10 
6.16013 -2.82844 1.1677e-12 
6.37508 -2.82844 -4.02149e-11 
6.60369 -2.82844 1.52643e-11 
6.82581 -2.82844 -1.19381e-10 
7.04019 -2.82844 7.06112e-11 
7.2997 -2.82843 -2.26808e-11 
7.53504 -2.82844 -1.02074e-11 
7.76055 -2.82844 1.04478e-10 
8.03175 -2.82844 -9.14697e-10 
8.2253 -2.82845 2.10599e-12 
8.48528 -2.82843 8.46369e-10 
-8.4853 -2.59862 -2.47902e-09 
-8.25316 -2.59671 -2.4178e-10 
-8.02467 -2.58922 7.29576e-10 
-7.78987 -2.60185 3.49977e-10 
-7.53801 -2.64851 -2.55736e-10 
-7.25294 -2.64832 7.28618e-11 
-6.98644 -2.55951 1.25701e-10 
-6.78105 -2.60057 -5.05886e-11 
-6.5566 -2.54898 1.30541e-10 
-6.32887 -2.60085 6.58195e-11 
-6.1012 -2.58953 -3.21592e-11 
-5.88567 -2.58043 -5.62266e-11 
-5.66936 -2.58601 -5.07672e-11 
-5.43952 -2.60731 -7.50822e-11 
-5.21191 -2.59676 -9.68773e-11 
-4.99304 -2.59723 -1.22202e-10 
-4.77763 -2.5966 -1.31799e-10 
-4.56264 -2.59921 -1.44644e-10 
-4.34721 -2.59997 -1.53973e-10 
-4.13438 -2.59296 -1.50798e-10 
-3.92359 -2.59715 -9.23745e-11 
-3.71011 -2.59698 5.41789e-11 
-3.49983 -2.58593 1.35561e-10 
-3.29158 -2.60326 2.25715e-10 
-3.0764 -2.58925 -3.44016e-11 
-2.87006 -2.5932 -6.33307e-10 
-2.66189 -2.6028 -3.06653e-09 
-2.44504 -2.56821 -2.31356e-09 
-2.25521 -2.5549 -1.41252e-08 
-2.0428 -2.60004 -8.9006e-08 
-1.81863 -2.59812 -6.68011e-08 
-1.62361 -2.53519 -3.07752e-07 
-1.43641 -2.5253 1.08931e-07 
-1.24784 -2.49715 -4.27109e-07 
-1.06657 -2.43312 -2.27843e-06 
-0.931755 -2.60734 2.67922e-07 
-0.737354 -2.47918 -1.583e-06 
-0.508481 -2.65782 -4.15066e-07 
-0.31152 -2.53043 4.54543e-06 
-0.0295642 -2.63207 -2.43719e-06 
0.310295 -2.57843 -4.09679e-06 
0.569013 -2.63201 -1.48491e-05 
0.751322 -2.5272 1.47905e-07 
0.952855 -2.51858 9.87723e-07 
1.13935 -2.50664 1.7812e-06 
1.26058 -2.31956 -1.23969e-06 
1.37123 -2.58685 9.94321e-07 
1.58198 -2.52512 2.78055e-07 
1.80179 -2.5868 3.54764e-08 
2.06236 -2.63004 1.40719e-07 
2.31531 -2.61962 3.40692e-08 
2.53825 -2.55969 4.16373e-09 
2.75698 -2.60989 -1.30793e-10 
2.98879 -2.61294 3.38853e-10 
3.21235 -2.59207 1.95173e-10 
3.41729 -2.57326 -3.23493e-10 
3.61866 -2.57028 -3.03577e-10 
3.84397 -2.60475 8.88685e-11 
4.06495 -2.59966 1.12676e-10 
4.28012 -2.59311 1.75372e-10 
4.49691 -2.59887 1.36679e-10 
4.70864 -2.59154 1.38177e-10 
4.91925 -2.59304 1.1902e-10 
5.13128 -2.59144 1.01697e-10 
5.34652 -2.59695 8.1993e-11 
5.56556 -2.59671 6.46863e-11 
5.78542 -2.5936 3.56446e-11 
6.01296 -2.60295 2.46671e-11 
6.23596 -2.58608 -1.99723e-13 
6.46073 -2.59848 -2.44119e-11 
6.68872 -2.58935 -2.51034e-11 
6.90561 -2.57884 -9.63928e-11 
7.14401 -2.61969 -8.50143e-11 
7.39156 -2.59776 -6.82294e-11 
7.61812 -2.58789 -2.34648e-10 
7.86802 -2.62754 -4.62051e-10 
8.07563 -2.54761 -6.30055e-10 
8.30055 -2.61722 5.28048e-10 
8.48531 -2.53305 4.64658e-10 
-8.48529 -2.36732 1.50865e-09 
-8.24717 -2.36267 2.17743e-10 
-8.00927 -2.35003 1.77472e-10 
-7.78205 -2.37989 2.98261e-11 
-7.5686 -2.23689 -2.52812e-10 
-7.52425 -2.45061 6.72596e-11 
-7.24502 -2.44821 2.02816e-11 
-6.99496 -2.3427 -1.72123e-10 
-6.74466 -2.35285 -1.06464e-10 
-6.48611 -2.33987 -1.1821e-10 
-6.26276 -2.36894 3.72485e-11 
-6.04169 -2.34565 3.21889e-11 
-5.82185 -2.34031 5.51634e-11 
-5.59044 -2.36819 8.89244e-11 
-5.36816 -2.37908 1.27038e-10 
-5.14545 -2.36743 1.97294e-10 
-4.92957 -2.36729 2.49282e-10 
-4.71252 -2.36997 2.94154e-10 
-4.49577 -2.37316 3.18606e-10 
-4.28164 -2.36908 3.25678e-10 
-4.06614 -2.3627 3.09844e-10 
-3.85272 -2.36822 2.8193e-10 
-3.64033 -2.36233 2.97926e-10 
-3.42021 -2.35979 2.52283e-10 
-3.21196 -2.37088 5.27619e-10 
-2.99382 -2.35704 1.72506e-09 
-2.78217 -2.36646 4.60555e-09 
-2.57447 -2.36945 1.21248e-08 
-2.36138 -2.31626 3.56651e-08 
-2.12697 -2.34862 7.03989e-08 
-1.91827 -2.36926 7.73462e-08 
-1.72848 -2.29905 4.55943e-07 
-1.52788 -2.23227 2.69596e-07 
-1.32978 -2.20875 1.12892e-06 
-1.12785 -2.15969 1.95843e-06 
-0.881624 -2.25802 3.76029e-06 
-0.547349 -2.31628 -1.04109e-06 
-0.410265 -2.1399 7.79608e-06 
-0.185074 -2.2888 -1.01967e-05 
0.0547676 -2.39185 8.02477e-06 
0.224081 -2.26575 -6.89967e-06 
0.478431 -2.33162 -5.0637e-06 
0.640814 -2.18738 -2.90506e-06 
0.833953 -2.20431 -4.37376e-06 
1.02034 -2.21381 -2.01583e-06 
1.21921 -2.06802 -5.90939e-07 
1.46337 -2.29533 -9.59369e-07 
1.68561 -2.2611 -5.37212e-07 
1.85782 -2.38546 -6.89129e-08 
2.07845 -2.39892 -3.61451e-08 
2.29838 -2.40549 -2.78763e-08 
2.50423 -2.31144 -1.12571e-08 
2.71949 -2.37067 -8.35958e-09 
2.93186 -2.4034 -2.38464e-09 
3.15748 -2.38261 -6.79669e-10 
3.37781 -2.33637 -4.60623e-10 
3.58656 -2.33019 -4.77644e-10 
3.7991 -2.37697 -2.99672e-10 
4.01719 -2.37325 -2.89129e-10 
4.23206 -2.36325 -3.49152e-10 
4.44866 -2.36842 -3.27496e-10 
4.6606 -2.36087 -3.13085e-10 
4.87397 -2.35853 -2.67545e-10 
5.08461 -2.35925 -2.19076e-10 
5.30055 -2.36358 -1.63567e-10 
5.51528 -2.36674 -1.14976e-10 
5.73462 -2.3623 -7.60788e-11 
5.95918 -2.37349 -3.16439e-11 
6.18166 -2.35646 6.01722e-12 
6.41135 -2.36013 4.52516e-11 
6.63222 -2.35993 8.66534e-11 
6.8586 -2.3324 1.43641e-10 
7.08353 -2.38187 1.39545e-10 
7.3129 -2.38777 1.69324e-10 
7.55655 -2.34788 1.94515e-10 
7.79066 -2.39667 -1.27172e-10 
8.00479 -2.32021 -9.45043e-11 
8.25024 -2.35502 5.03865e-10 
8.48529 -2.3037 4.18961e-11 
-8.48529 -2.13872 2.6559e-09 
-8.24109 -2.13499 -2.24012e-09 
-8.03868 -2.09312 1.09545e-10 
-7.80629 -2.13446 2.52384e-11 
-7.50846 -2.03705 -1.5748e-10 
-7.30631 -2.25503 -2.88524e-10 
-7.08475 -2.14261 -1.94314e-10 
-6.81467 -2.13306 -1.13436e-10 
-6.57638 -2.13866 -7.75409e-11 
-6.32398 -2.12839 -2.67266e-11 
-6.1107 -2.11412 -5.18052e-13 
-5.89039 -2.10084 3.1673e-11 
-5.66574 -2.13254 7.39648e-11 
-5.44542 -2.14302 1.14227e-10 
-5.2325 -2.14468 1.51155e-10 
-5.01448 -2.13708 1.81933e-10 
-4.79951 -2.14244 2.236e-10 
-4.5838 -2.14567 2.5874e-10 
-4.37083 -2.1418 2.65462e-10 
-4.15776 -2.13736 2.44773e-10 
-3.94072 -2.13531 2.21622e-10 
-3.72951 -2.13391 2.02478e-10 
-3.51161 -2.1388 1.35699e-10 
-3.29301 -2.12824 8.75807e-11 
-3.08618 -2.13697 4.76081e-10 
-2.86473 -2.13208 1.59168e-09 
-2.65047 -2.13581 5.41575e-09 
-2.44688 -2.10849 9.35065e-09 
-2.1952 -2.13368 3.94724e-08 
-1.95882 -2.11097 6.84195e-08 
-1.75394 -2.03825 8.38447e-08 
-1.52626 -1.96952 1.3514e-07 
-1.3177 -1.9278 4.41717e-07 
-1.25161 -1.70951 -4.00777e-07 
-1.04263 -1.95495 8.25792e-07 
-0.756491 -2.07883 3.04339e-06 
-0.544821 -1.90924 5.26903e-06 
-0.296401 -1.86767 1.97615e-06 
-0.0964414 -2.0315 -9.78081e-07 
0.00539152 -1.76037 4.25149e-06 
0.166521 -1.99189 4.74127e-06 
0.381669 -1.74418 -2.48616e-06 
0.40211 -2.03657 -3.19596e-06 
0.612956 -1.89966 -3.85758e-06 
0.850229 -1.86995 -3.98785e-07 
1.04283 -1.89954 -6.10974e-07 
1.43851 -2.04834 -2.02602e-07 
1.67713 -2.03207 -8.67592e-08 
1.92868 -2.14689 -1.56909e-07 
2.13907 -2.16053 -5.34243e-08 
2.33896 -2.14089 -2.02007e-08 
2.57 -2.06286 -4.48774e-09 
2.75826 -2.1444 -1.18471e-09 
2.97398 -2.1834 -1.08092e-09 
3.18935 -2.15315 2.06416e-11 
3.40952 -2.10124 -6.77387e-11 
3.6287 -2.10726 -1.76971e-10 
3.84188 -2.1506 -2.433e-10 
4.05558 -2.13982 -2.40553e-10 
4.27405 -2.13684 -2.63304e-10 
4.48507 -2.13481 -2.46889e-10 
4.69913 -2.13093 -2.17006e-10 
4.91012 -2.12474 -1.81242e-10 
5.12586 -2.13173 -1.57798e-10 
5.33867 -2.13048 -1.21866e-10 
5.55401 -2.13521 -8.99746e-11 
5.7784 -2.13663 -5.75537e-11 
5.99617 -2.13785 -2.39538e-11 
6.22647 -2.12973 1.35663e-11 
6.44593 -2.12029 4.81324e-11 
6.66725 -2.12199 8.65857e-11 
6.90166 -2.10056 1.19162e-10 
7.12182 -2.14978 1.78545e-10 
7.35541 -2.16056 2.37966e-10 
7.56131 -2.08499 1.5542e-10 
7.76466 -2.15759 6.43485e-11 
7.98424 -2.08385 -2.02844e-10 
8.21594 -2.13161 4.93863e-10 
8.48529 -2.10339 -2.18833e-09 
-8.48531 -1.80919 5.4472e-13 
-8.32487 -1.91114 6.58431e-10 
-7.89707 -1.88942 3.49191e-10 
[...]
POINT_DATA 1978 
VECTORS vectors float
0.00621771 -0.011544 0.999918 
0.00394031 -0.0133957 0.999904 
0.00256404 -0.0152974 0.999884 
0.00208836 -0.0124079 0.999924 
0.00201609 -0.00860971 0.999964 
0.00227112 -0.00566413 0.999985 
0.00289962 -0.00398295 0.999991 
0.00289103 -0.00254491 0.999995 
0.00299725 -0.0015187 0.999998 
0.00298992 -0.000610744 0.999998 
0.00307933 0.000183193 0.999999 
0.00309156 0.00103308 0.999998 
0.00307109 0.00192574 0.999997 
0.00300568 0.00289406 0.999995 
0.0029515 0.00405093 0.999991 
0.00288055 0.00538132 0.999985 
0.00277503 0.00700983 0.999975 
0.0026119 0.00899123 0.999959 
0.00239296 0.0115001 0.999934 
0.00210164 0.0146919 0.999893 
0.00174521 0.0186568 0.999827 
0.00132433 0.0237367 0.99972 
0.000805185 0.0300618 0.999551 
0.000143047 0.0376323 0.999295 
-0.000636901 0.0476973 0.998865 
-0.00160186 0.0594468 0.998233 
-0.00289062 0.0742245 0.99724 
-0.00420619 0.0933456 0.995628 
-0.00530759 0.113532 0.993523 
-0.00752211 0.138606 0.990324 
-0.0104052 0.170559 0.985297 
-0.0152673 0.21644 0.976184 
-0.018495 0.280886 0.959576 
-0.0218741 0.344192 0.938661 
-0.0232745 0.419322 0.907562 
-0.0265716 0.496224 0.867819 
-0.0296689 0.644619 0.763929 
-0.0231392 0.780477 0.624666 
-0.0113796 0.964894 0.262306 
0.0122134 0.98734 -0.158074 
0.017935 0.858799 -0.511743 
0.0339999 0.684703 -0.728099 
0.0275114 0.606675 -0.794463 
0.0325262 0.528629 -0.848249 
0.0276805 0.443869 -0.895678 
0.0167003 0.352425 -0.935708 
0.0142535 0.295887 -0.955129 
0.0159195 0.234596 -0.97197 
0.0124207 0.186504 -0.982379 
0.00797391 0.140118 -0.990107 
0.00540227 0.109201 -0.994009 
0.00351714 0.0898815 -0.99595 
0.00224927 0.0720754 -0.9974 
0.00149935 0.057545 -0.998345 
0.000595291 0.0462446 -0.998933 
-0.000264889 0.0375272 -0.999299 
-0.000846771 0.0303781 -0.99954 
-0.00128817 0.0244347 -0.999704 
-0.00175918 0.0190193 -0.999821 
-0.00212814 0.0149144 -0.99989 
-0.00238868 0.0117326 -0.999931 
-0.00261572 0.00914226 -0.999958 
-0.00278051 0.00715507 -0.999974 
-0.00290303 0.00554091 -0.999984 
-0.00297544 0.00421295 -0.99999 
-0.00303534 0.00306591 -0.999994 
-0.00306436 0.00204986 -0.999997 
-0.00306893 0.00114004 -0.999998 
-0.00307648 0.000233841 -0.999999 
-0.00303413 -0.000687416 -0.999999 
-0.00301121 -0.00171905 -0.999997 
-0.00292645 -0.00298496 -0.999995 
-0.00267888 -0.00448766 -0.99999 
-0.00255997 -0.00661921 -0.999978 
-0.00243883 -0.00915767 -0.999959 
-0.00216376 -0.012168 -0.999927 
-0.00266674 -0.0156007 -0.999878 
-0.00373666 -0.013292 -0.999907 
-0.00584859 -0.0118227 -0.999917 
0.00529968 -0.013211 0.999903 
0.00361673 -0.0103938 0.999947 
0.00236293 -0.0127928 0.999922 
0.00232426 -0.0123399 0.999928 
0.00261069 -0.00948433 0.999957 
0.00275718 -0.00643887 0.999982 
0.0030839 -0.00424066 0.999993 
0.00304671 -0.0028167 0.999997 
0.00327057 -0.00165206 1 
0.00311794 -0.00055665 1 
0.00322016 0.000377385 1 
0.00327485 0.00131341 1 
0.00324036 0.00229696 0.999998 
0.00311449 0.00345123 0.999995 
0.003058 0.00480718 0.99999 
0.0029177 0.0063687 0.999981 
0.00272272 0.00827362 0.999968 
0.00242853 0.0106735 0.999946 
0.00203442 0.013736 0.999909 
0.00155544 0.0175992 0.99985 
0.000990778 0.0223974 0.999754 
0.000306747 0.0285717 0.999597 
-0.000612608 0.0363389 0.999345 
-0.00164472 0.0457977 0.998955 
-0.00309354 0.0582419 0.998303 
-0.00461497 0.0733457 0.997301 
-0.00646351 0.0927461 0.995674 
-0.00913406 0.117886 0.992992 
-0.0118112 0.147493 0.988997 
-0.0140172 0.187913 0.982092 
-0.0173453 0.244317 0.969545 
-0.0211693 0.306565 0.951616 
-0.0241404 0.380504 0.924465 
-0.0259396 0.462922 0.886017 
-0.026486 0.549382 0.835138 
-0.0265062 0.621714 0.782826 
-0.0236456 0.733338 0.679427 
-0.0242501 0.858945 0.511481 
-0.0148286 0.940178 0.340294 
-0.00277959 0.999218 0.0388362 
0.00794481 0.943327 -0.331711 
0.0074339 0.817238 -0.576286 
0.015995 0.727922 -0.685395 
0.0189221 0.631312 -0.775297 
0.0216618 0.530017 -0.847716 
0.0261434 0.462588 -0.886187 
0.018839 0.410903 -0.911479 
0.0186167 0.324331 -0.94576 
0.0151386 0.255284 -0.966757 
0.012482 0.186499 -0.982383 
0.00906961 0.137329 -0.990489 
0.0073387 0.107754 -0.994157 
0.00454519 0.0843305 -0.996434 
0.00311612 0.0651616 -0.997876 
0.00199193 0.0505668 -0.998724 
0.000786407 0.0400414 -0.999203 
-0.000204171 0.0317783 -0.999502 
-0.000950958 0.0244958 -0.999705 
-0.0015482 0.0189908 -0.999824 
-0.0020304 0.014848 -0.999893 
-0.00240509 0.0115548 -0.999936 
-0.00270844 0.00901077 -0.999962 
-0.00292146 0.00698688 -0.999977 
-0.00308122 0.00535605 -0.999987 
-0.00316739 0.00399099 -0.999993 
-0.00323742 0.0028191 -0.999997 
-0.00328208 0.0017865 -0.999999 
-0.00326283 0.000802388 -1 
-0.00327714 -0.000150065 -1 
-0.00319004 -0.00116095 -1 
-0.00314942 -0.0023403 -0.999999 
-0.00304803 -0.0036864 -0.999995 
-0.00284192 -0.00544837 -0.999988 
-0.00270138 -0.00782311 -0.999972 
-0.0024665 -0.0104589 -0.999949 
-0.00226817 -0.0131411 -0.999917 
-0.00240882 -0.011833 -0.999934 
-0.00384503 -0.00975629 -0.99995 
-0.0043037 -0.0134521 -0.999906 
0.00379207 -0.0118443 0.999928 
0.00307655 -0.00822163 0.999968 
0.00293946 -0.0124277 0.999925 
0.00315647 -0.0125293 0.999923 
0.00387539 -0.0104955 0.999943 
0.00307187 -0.00955631 0.999957 
0.00339604 -0.00659431 0.999978 
0.00430938 -0.00460161 0.999987 
0.00446127 -0.00287321 0.999993 
0.004743 -0.00143864 0.999994 
0.00466459 -0.000363913 0.999995 
0.00483785 0.000659038 0.999994 
0.0048257 0.00167439 0.999993 
0.00464376 0.00278712 0.999991 
0.00450915 0.00400343 0.999988 
0.00445001 0.00546764 0.999981 
0.0042295 0.00719424 0.999971 
0.00387785 0.00937152 0.999954 
0.00337801 0.0121299 0.999926 
0.0027445 0.015586 0.999881 
0.00194297 0.0199561 0.999805 
0.000975291 0.0253673 0.999684 
-0.000199877 0.032285 0.999484 
-0.00176006 0.0413358 0.99915 
-0.00344843 0.0518483 0.998655 
-0.00568554 0.0660537 0.997806 
-0.00818822 0.0837459 0.996459 
-0.0110883 0.105816 0.994329 
-0.0152313 0.134593 0.990789 
-0.019238 0.175287 0.984334 
-0.0225376 0.220891 0.975041 
-0.0274337 0.276703 0.960566 
-0.0298654 0.34269 0.938976 
-0.0322614 0.4246 0.904808 
-0.0324859 0.518498 0.854458 
-0.0318101 0.650086 0.759184 
-0.024206 0.837817 0.545373 
-0.0221975 0.899284 0.436761 
-0.0133962 0.979962 0.198636 
-0.00343461 0.998113 -0.0608702 
0.00163442 0.968391 -0.249343 
0.011958 0.870451 -0.492072 
0.0153201 0.792894 -0.609153 
0.0195472 0.691459 -0.722142 
0.0221626 0.585104 -0.810648 
0.0200473 0.474827 -0.879853 
0.0266017 0.371496 -0.928055 
0.0243984 0.292929 -0.955826 
0.0194876 0.241394 -0.970234 
0.0166789 0.185465 -0.982512 
0.0133334 0.143678 -0.989541 
0.0114896 0.115978 -0.993191 
0.00802408 0.0910888 -0.995815 
0.00542408 0.0714778 -0.997433 
0.00337813 0.0554132 -0.998463 
0.00154307 0.0435542 -0.999056 
2.48795e-05 0.0344836 -0.999411 
-0.00110921 0.0269335 -0.999642 
-0.0020209 0.0210301 -0.999782 
-0.00281429 0.0164753 -0.999866 
-0.00342018 0.0128205 -0.999918 
-0.00392457 0.0100176 -0.999948 
-0.0042856 0.00774955 -0.999967 
-0.00453255 0.00594686 -0.999978 
-0.00467243 0.00444006 -0.999985 
-0.00475407 0.00318555 -0.999989 
-0.00481834 0.00207194 -0.999992 
-0.00475009 0.00102835 -0.999994 
-0.004808 2.96941e-05 -0.999994 
-0.00469609 -0.00104858 -0.999995 
-0.00458716 -0.00221091 -0.999993 
-0.00454053 -0.00362754 -0.99999 
-0.00410246 -0.00525481 -0.999983 
-0.0038032 -0.00733058 -0.999972 
-0.00360816 -0.0101066 -0.99995 
-0.00303676 -0.0126751 -0.999921 
-0.00298871 -0.0127401 -0.99992 
-0.00279162 -0.00840976 -0.999967 
-0.00312618 -0.0111264 -0.999939 
0.00216457 -0.0133478 0.999916 
0.00266983 -0.00819004 0.999969 
0.00288095 -0.0125214 0.999922 
0.00339268 -0.0132942 0.999913 
0.00372553 -0.0101009 0.999948 
0.00421913 -0.00748354 0.999971 
0.00453512 -0.0056177 0.999979 
0.00469802 -0.00354788 0.999989 
0.00490218 -0.00206336 0.999992 
0.00495409 -0.000727032 0.999994 
0.00494282 0.000332262 0.999994 
0.00487406 0.00138227 0.999993 
0.00490531 0.00249024 0.999991 
0.00483734 0.00369749 0.999987 
0.00470209 0.00506176 0.999982 
0.00445904 0.00676091 0.999973 
0.00415007 0.00882569 0.999958 
0.00369998 0.0114434 0.999933 
0.00307701 0.0147136 0.999893 
0.00227737 0.0187774 0.999827 
0.0012919 0.0239265 0.999719 
0.000141091 0.0302973 0.999547 
-0.00132173 0.0386775 0.999257 
-0.0030905 0.0492599 0.998787 
-0.00502541 0.0614869 0.998101 
-0.00747295 0.0783278 0.996905 
-0.0102737 0.0990549 0.995035 
-0.0133162 0.124259 0.992166 
-0.0179504 0.163667 0.986358 
-0.0215012 0.213804 0.976646 
-0.0230539 0.267062 0.963408 
-0.0232162 0.340172 0.940082 
-0.022391 0.418703 0.907851 
-0.0111914 0.437254 0.899278 
-0.0235647 0.556623 0.830428 
-0.0278411 0.71592 0.697617 
-0.0168858 0.827401 0.561333 
-0.0136775 0.941527 0.336607 
-0.0132712 0.992857 0.118335 
-0.0130221 0.999889 -0.00189301 
-0.00643223 0.981972 -0.188786 
-0.0153704 0.908283 -0.418046 
0.000902407 0.904313 -0.426842 
-0.00203549 0.798127 -0.602513 
0.00144449 0.656736 -0.754109 
0.00823981 0.554388 -0.832217 
0.0201419 0.379723 -0.924884 
0.0188985 0.29562 -0.955123 
0.0193979 0.223585 -0.974498 
0.0165474 0.175805 -0.98429 
0.0134766 0.141396 -0.989867 
0.00953441 0.110505 -0.993836 
0.00771707 0.0892348 -0.995988 
0.00540827 0.0700846 -0.997532 
0.00322081 0.0552042 -0.998476 
0.00131201 0.0434094 -0.999062 
-0.00016382 0.0340523 -0.999426 
-0.0013278 0.0266656 -0.999649 
-0.0022406 0.0209967 -0.999783 
-0.00302245 0.0163905 -0.999867 
-0.00361241 0.0128659 -0.999917 
-0.00406662 0.0100019 -0.999947 
-0.0043896 0.0077393 -0.999966 
-0.00466416 0.00586456 -0.999978 
-0.00483204 0.00436553 -0.999985 
-0.00495395 0.00308502 -0.999989 
-0.00502807 0.00191282 -0.999992 
-0.00504115 0.000860022 -0.999993 
-0.00500647 -0.000236927 -0.999994 
-0.0049107 -0.00135002 -0.999993 
-0.00480301 -0.00260584 -0.999991 
-0.00460999 -0.00419187 -0.999986 
-0.00445822 -0.00588166 -0.99998 
-0.00420041 -0.00815879 -0.999963 
-0.00375411 -0.0106604 -0.999942 
-0.0034903 -0.0129011 -0.999917 
-0.00296428 -0.0135643 -0.999909 
-0.00256869 -0.00882473 -0.999964 
-0.0020234 -0.0121044 -0.99993 
0.00138474 -0.0139233 0.999909 
0.00184366 -0.00821348 0.999969 
0.00261178 -0.0142024 0.999902 
0.00302839 -0.0124125 0.999924 
0.00293771 -0.00969535 0.999956 
0.00390721 -0.00769011 0.999969 
0.00330839 -0.00684848 0.999976 
0.00397724 -0.00495923 0.999987 
0.00400253 -0.00315706 0.999993 
0.00417941 -0.00167921 0.999996 
0.00404657 -0.000534139 0.999998 
0.00398932 0.000566476 0.999998 
0.00397494 0.00172884 0.999997 
0.0040222 0.00287817 0.999994 
0.00393668 0.00414975 0.99999 
0.00381537 0.00563268 0.999983 
0.00357986 0.00747227 0.999971 
0.00330101 0.00972497 0.999953 
0.00288299 0.012537 0.999923 
0.00231944 0.0160531 0.999874 
0.00159995 0.0204715 0.999795 
0.000711473 0.025903 0.99967 
-0.000373597 0.032945 0.999463 
-0.00166448 0.0418226 0.999129 
-0.00308219 0.0527269 0.99861 
-0.00484135 0.0661845 0.997802 
-0.00689931 0.084118 0.996438 
-0.0088344 0.104339 0.994508 
-0.0118413 0.134798 0.990808 
-0.0147598 0.17229 0.984941 
-0.0151033 0.213044 0.976932 
-0.0152224 0.276386 0.96093 
-0.0113019 0.341616 0.939779 
-0.000849674 0.527937 0.849287 
-0.0132343 0.607631 0.794109 
-0.00851916 0.718005 0.695976 
0.00130878 0.825122 0.564934 
0.016134 0.869866 0.492983 
-0.00563038 0.953952 0.299848 
-0.0115222 0.997969 0.0621371 
-0.0215504 0.970467 -0.240146 
-0.0369826 0.835921 -0.54757 
-0.0210446 0.736698 -0.675884 
-0.0198527 0.598843 -0.800621 
-0.00974327 0.504968 -0.863084 
-0.0063286 0.399589 -0.916676 
0.00606197 0.443596 -0.89621 
0.0086161 0.354792 -0.93491 
0.0122582 0.259617 -0.965639 
0.0124912 0.208946 -0.977852 
0.0109897 0.168225 -0.985694 
0.00921246 0.133551 -0.991004 
0.00593239 0.0935462 -0.995603 
0.00485437 0.0760891 -0.997094 
0.00317268 0.0610665 -0.998135 
0.00161459 0.0485794 -0.998824 
0.000219389 0.0374444 -0.999305 
-0.000839738 0.0291614 -0.99958 
-0.00164827 0.023194 -0.999735 
-0.0023438 0.0182023 -0.999837 
-0.00285798 0.0142443 -0.9999 
-0.0032574 0.0111048 -0.999939 
-0.00352313 0.00860106 -0.999963 
-0.00377765 0.00654426 -0.999977 
-0.003915 0.00489705 -0.999986 
-0.00403392 0.00351538 -0.999992 
-0.00414656 0.00230326 -0.999995 
-0.00415044 0.00116572 -0.999997 
-0.00417703 7.38954e-05 -0.999997 
-0.00404596 -0.0010929 -0.999997 
-0.00396872 -0.00235544 -0.999996 
-0.00385751 -0.00378986 -0.999992 
-0.0037236 -0.00571444 -0.999983 
-0.00362817 -0.00772168 -0.999971 
-0.0031472 -0.010597 -0.999945 
-0.00284413 -0.0134921 -0.999911 
-0.00230486 -0.0130421 -0.999919 
-0.00202596 -0.00840754 -0.999968 
-0.00165282 -0.0125389 -0.999926 
0.00119996 -0.0130769 0.99992 
0.00121128 -0.00869327 0.999968 
0.00199416 -0.0101622 0.999953 
0.00197721 -0.0146736 0.999895 
0.00229799 -0.0129249 0.99992 
0.00251828 -0.00829594 0.999969 
0.0028965 -0.00547745 0.999987 
0.00317205 -0.00395855 0.999993 
0.00323554 -0.00224163 0.999998 
0.00310518 -0.00104615 1 
0.0030509 0.000135049 1 
0.00308454 0.0012994 1 
0.00304523 0.00254352 0.999998 
0.00301606 0.00377066 0.999994 
0.00294011 0.00520429 0.999988 
0.00282031 0.00689497 0.999978 
0.00261822 0.0090383 0.999961 
0.00232752 0.0116687 0.999935 
0.0019257 0.01494 0.999892 
0.00142436 0.0190076 0.999824 
0.000777799 0.024001 0.999717 
-4.22267e-05 0.0304356 0.999543 
-0.00103661 0.0385472 0.999262 
-0.0020854 0.0483713 0.998833 
-0.00329882 0.0612575 0.998122 
-0.00472562 0.0766617 0.997052 
-0.00593981 0.0960108 0.995368 
-0.00800855 0.121721 0.992538 
-0.00949586 0.155093 0.987861 
-0.00929237 0.193 0.981159 
-0.00866441 0.244383 0.969646 
-0.00392572 0.321332 0.946963 
0.00168201 0.420795 0.907158 
0.0175682 0.501864 0.86477 
0.00887784 0.63384 0.773413 
0.022964 0.693792 0.719795 
0.0485241 0.723503 0.688599 
0.0584423 0.835592 0.546194 
0.0156794 0.952512 0.303994 
-0.0269638 0.99807 -0.0553025 
-0.0407629 0.945621 -0.322611 
-0.0848755 0.879733 -0.467784 
-0.0674378 0.771637 -0.632458 
-0.0421981 0.669389 -0.741706 
-0.0407859 0.533059 -0.845095 
-0.0258485 0.457908 -0.888625 
-0.00251839 0.322046 -0.946726 
0.00456996 0.277959 -0.960586 
0.00441188 0.215612 -0.976475 
0.00551466 0.178063 -0.984009 
0.00577662 0.144889 -0.989437 
0.00583062 0.11311 -0.993571 
0.00350334 0.0919731 -0.995761 
0.00307986 0.0745804 -0.997217 
0.00199067 0.0598048 -0.998214 
0.000886164 0.0463572 -0.99893 
-0.00011687 0.0357668 -0.999366 
-0.000848163 0.0285054 -0.999599 
-0.00149551 0.0224352 -0.999753 
-0.00198796 0.017633 -0.999848 
-0.00234098 0.0137346 -0.999909 
-0.00259571 0.0107064 -0.999945 
-0.00278867 0.0082028 -0.999968 
-0.00293497 0.00625656 -0.999982 
-0.00302887 0.00462794 -0.999991 
-0.00312023 0.00325828 -0.999996 
-0.00320376 0.00205425 -0.999999 
-0.00319624 0.000897331 -1 
-0.00320396 -0.000227022 -1 
-0.00309636 -0.00145712 -1 
-0.00302632 -0.0027898 -0.999998 
-0.00302312 -0.00445794 -0.999992 
-0.00283589 -0.00637692 -0.999982 
-0.00279556 -0.00858845 -0.999964 
-0.00234634 -0.0112285 -0.99994 
-0.00230288 -0.0136128 -0.999911 
-0.00186643 -0.0142214 -0.999903 
-0.00164996 -0.00917246 -0.999962 
-0.00135026 -0.0121327 -0.999931 
0.000647561 -0.012797 0.999924 
0.000916532 -0.00885919 0.999966 
0.00146782 -0.0126989 0.999924 
0.00160302 -0.0143491 0.999903 
0.00210595 -0.0111068 0.999942 
0.00188469 -0.00878388 0.999966 
0.00225713 -0.00640698 0.999982 
0.00222812 -0.00436521 0.999995 
0.00252151 -0.00299193 0.999997 
0.00230411 -0.0016648 1 
0.00229944 -0.00045593 1 
0.00229051 0.000787719 1 
0.00231504 0.00197261 1 
0.00221936 0.00321821 0.999998 
0.00219638 0.00453281 0.999993 
0.00212301 0.0060945 0.999985 
0.00203502 0.00798065 0.999972 
0.00185967 0.010326 0.999951 
0.00161326 0.0132132 0.999917 
0.00128596 0.0168494 0.999863 
0.000871231 0.0212353 0.99978 
0.000334227 0.0268754 0.999645 
-0.000360459 0.0338947 0.999431 
-0.00116455 0.0425346 0.9991 
-0.00206322 0.053787 0.998556 
-0.00291031 0.0678603 0.997696 
-0.00371808 0.0837223 0.996488 
-0.00491029 0.10873 0.994065 
-0.00580308 0.13601 0.990696 
-0.00526607 0.166711 0.985998 
-0.00417889 0.209687 0.977765 
-0.00172988 0.265556 0.964099 
0.00808836 0.370536 0.928788 
0.0248452 0.436965 0.899138 
0.0373093 0.579744 0.813941 
0.0752369 0.591727 0.802618 
0.11276 0.69183 0.713185 
0.191652 0.516844 0.834331 
0.142849 0.813307 0.563974 
0.0356074 0.968985 0.244354 
-0.0736421 0.972009 -0.222837 
-0.164464 0.809873 -0.563034 
-0.116772 0.694381 -0.710056 
-0.0969235 0.552659 -0.827749 
-0.0682154 0.613385 -0.786828 
-0.0570259 0.47543 -0.877905 
-0.0180971 0.36856 -0.929431 
-0.00910759 0.291506 -0.95653 
-0.00184168 0.237876 -0.9713 
-0.000182008 0.181121 -0.983466 
0.00169806 0.148027 -0.988988 
0.00327012 0.119822 -0.992796 
0.00191474 0.0979571 -0.995194 
0.00167842 0.0753743 -0.99716 
0.00111886 0.0608263 -0.998154 
0.000583734 0.0487586 -0.998816 
-0.000115495 0.0381493 -0.999278 
-0.000749781 0.0296359 -0.999566 
-0.0012155 0.0235834 -0.999727 
-0.00158246 0.0185267 -0.999833 
-0.00183242 0.0145101 -0.999899 
-0.00198433 0.0112774 -0.99994 
-0.00211977 0.00873746 -0.999965 
-0.00218651 0.00662211 -0.999981 
-0.00226081 0.00495718 -0.999991 
-0.00232602 0.00353152 -0.999997 
-0.0023811 0.00228146 -1 
-0.00239944 0.00112572 -1 
-0.00238469 -5.59239e-05 -1 
-0.00234293 -0.00125712 -1 
-0.0022732 -0.00265398 -1 
-0.00233366 -0.00423608 -0.999994 
-0.00217996 -0.0061625 -0.999986 
-0.00211834 -0.00856666 -0.999967 
-0.00180296 -0.0115275 -0.999938 
-0.0016926 -0.0142758 -0.999903 
-0.00138096 -0.0138548 -0.999909 
-0.00126527 -0.00913722 -0.999963 
-0.000840956 -0.0132465 -0.999918 
0.000498665 -0.0126747 0.999926 
0.000727614 -0.00926799 0.999962 
0.0011933 -0.0141071 0.999906 
0.00120116 -0.0145475 0.9999 
0.00159235 -0.0119393 0.999934 
0.00146038 -0.00893221 0.999965 
0.00173508 -0.00630923 0.999984 
0.00168292 -0.00438968 0.999995 
0.00183832 -0.00278376 1 
0.00170529 -0.00140536 1 
0.00175918 -0.000103766 1 
0.00172713 0.00114445 1 
0.00173125 0.00232845 1 
0.00164624 0.003582 0.999999 
0.00162872 0.00496746 0.999992 
0.00157577 0.00662757 0.999982 
0.00151472 0.00862723 0.999966 
0.00138962 0.0110731 0.999943 
0.00120915 0.0142114 0.999904 
0.000945077 0.0180529 0.999842 
0.000605697 0.0229295 0.999743 
0.000174735 0.0289782 0.999586 
-0.000371292 0.036429 0.999342 
-0.00108318 0.0462688 0.998934 
-0.00179039 0.0584877 0.998292 
-0.0022598 0.0728189 0.997349 
-0.00296953 0.0927728 0.995689 
-0.00310547 0.117326 0.993095 
-0.00267838 0.143307 0.989681 
-0.00160596 0.18258 0.983195 
0.00165273 0.23352 0.972356 
0.0063416 0.304954 0.952351 
0.0193417 0.357914 0.933558 
0.0373972 0.400727 0.915436 
0.047752 0.487074 0.872055 
0.119666 0.520516 0.845424 
0.114461 0.391249 0.913148 
0.330062 0.61558 0.715606 
0.258234 0.790209 0.555784 
0.0495694 0.988514 0.142695 
-0.163062 0.948282 -0.272333 
-0.320909 0.751885 -0.575924 
-0.188569 0.622909 -0.759213 
-0.121494 0.493747 -0.861076 
-0.0640141 0.416226 -0.907007 
-0.0404774 0.345516 -0.937544 
-0.0366442 0.391486 -0.919457 
-0.021916 0.315428 -0.948702 
-0.0113705 0.251151 -0.967886 
-0.00490163 0.206343 -0.978473 
-0.00183694 0.153249 -0.988193 
0.00060826 0.122268 -0.992503 
0.000714128 0.0894709 -0.995995 
0.000543578 0.0719465 -0.997414 
0.000320394 0.0574496 -0.998355 
2.87752e-06 0.0458966 -0.998952 
-0.000466292 0.0359405 -0.99936 
-0.000892854 0.0282318 -0.999608 
-0.00121245 0.0224506 -0.999752 
-0.00142736 0.0176401 -0.999849 
-0.00155771 0.0138294 -0.999909 
-0.00161131 0.0107466 -0.999947 
-0.00168116 0.008311 -0.99997 
-0.00168385 0.00632367 -0.999984 
-0.00173673 0.00468275 -0.999993 
-0.00177016 0.00330313 -0.999999 
-0.0017906 0.00209223 -1 
-0.00181251 0.000910951 -1 
-0.00178923 -0.000265331 -1 
-0.00177591 -0.00154752 -1 
-0.00174065 -0.00305052 -1 
-0.00176754 -0.004663 -0.999993 
-0.00162505 -0.00652854 -0.999983 
-0.00162983 -0.00867055 -0.999967 
-0.00138986 -0.0115435 -0.999939 
-0.00129369 -0.0144613 -0.999901 
-0.00104579 -0.0140014 -0.999907 
-0.000874047 -0.00877556 -0.999967 
-0.000700539 -0.0127959 -0.999924 