# vtk DataFile Version 3.0 
Exported using Morpho https://github.com/Morpho-lang/morpho 
ASCII 
DATASET UNSTRUCTURED_GRID 

POINTS 1978 float 
-8.48528 -2.82843 -2.69959e-15 
-8.25894 -2.82843 9.5799e-15 
-8.03131 -2.82843 1.48417e-14 
-7.78194 -2.82843 2.19447e-14 
-7.49124 -2.82843 3.52302e-14 
-7.24433 -2.82843 2.77037e-14 
-6.99911 -2.82843 2.36917e-14 
-6.78246 -2.82843 1.79545e-14 
-6.55968 -2.82843 1.40541e-14 
-6.34687 -2.82843 1.08356e-14 
-6.14211 -2.82843 1.2039e-14 
-5.91296 -2.82843 1.10421e-14 
-5.70974 -2.82843 8.6105e-15 
-5.5107 -2.82843 9.40304e-15 
-5.29236 -2.82843 9.7869e-15 
-5.08335 -2.82843 7.91512e-15 
-4.86728 -2.82843 7.67084e-15 
-4.65475 -2.82843 6.86889e-15 
-4.43582 -2.82843 5.95433e-15 
-4.21197 -2.82843 3.71627e-15 
-3.99938 -2.82843 9.79366e-16 
-3.79455 -2.82843 -1.10826e-15 
-3.58994 -2.82843 -4.34066e-15 
-3.38805 -2.82843 -7.71613e-15 
-3.17677 -2.82843 -1.12782e-14 
-2.96843 -2.82843 -1.21742e-14 
-2.77399 -2.82843 -1.16234e-14 
-2.57585 -2.82843 -1.4283e-14 
-2.36778 -2.82843 -1.30686e-14 
-2.16314 -2.82843 -1.21709e-14 
-1.93636 -2.82843 -7.79169e-15 
-1.74236 -2.82843 1.21113e-15 
-1.55915 -2.82843 5.56447e-14 
-1.38566 -2.82843 -1.29856e-13 
-1.15556 -2.82843 -1.29714e-13 
-0.96153 -2.82843 -1.97252e-13 
-0.754469 -2.82843 3.27508e-13 
-0.541262 -2.82843 -1.388e-12 
-0.22367 -2.82843 7.04599e-13 
0.00592935 -2.82843 -1.00435e-12 
0.321091 -2.82843 9.77206e-13 
0.518114 -2.82843 2.03086e-13 
0.725496 -2.82843 2.17777e-13 
0.947791 -2.82843 3.18047e-13 
1.14682 -2.82843 1.17605e-13 
1.33253 -2.82843 3.6599e-14 
1.54543 -2.82843 3.33003e-14 
1.73253 -2.82843 7.04656e-15 
1.9378 -2.82843 1.47713e-15 
2.14719 -2.82843 6.65535e-15 
2.36036 -2.82843 1.04445e-14 
2.56585 -2.82843 1.1228e-14 
2.77008 -2.82843 1.59082e-14 
2.99711 -2.82843 1.25399e-14 
3.1894 -2.82843 8.92122e-15 
3.38964 -2.82843 8.44206e-15 
3.60618 -2.82843 4.21758e-15 
3.80547 -2.82843 1.14701e-15 
4.01628 -2.82843 -1.38643e-15 
4.23825 -2.82843 -3.61126e-15 
4.43849 -2.82843 -5.41666e-15 
4.6578 -2.82843 -6.73786e-15 
4.85967 -2.82843 -7.73547e-15 
5.07674 -2.82843 -8.43499e-15 
5.28573 -2.82843 -9.12528e-15 
5.50386 -2.82843 -9.89674e-15 
5.71181 -2.82843 -9.55303e-15 
5.92814 -2.82843 -1.18111e-14 
6.15276 -2.82843 -1.13957e-14 
6.35825 -2.82843 -1.24905e-14 
6.58672 -2.82843 -1.55855e-14 
6.80745 -2.82843 -1.44065e-14 
7.01028 -2.82843 -2.53321e-14 
7.27958 -2.82843 -3.38461e-14 
7.51212 -2.82843 -2.98334e-14 
7.74812 -2.82843 -2.22806e-14 
8.02526 -2.82843 -1.57468e-14 
8.21539 -2.82843 -1.20025e-14 
8.48528 -2.82843 1.0179e-16 
-8.48528 -2.58512 5.08391e-15 
-8.25955 -2.59162 -9.21577e-15 
-8.02766 -2.59296 -1.6426e-14 
-7.77881 -2.6105 -1.95635e-14 
-7.52241 -2.646 -2.25297e-14 
-7.23795 -2.60867 -1.62544e-14 
-6.99226 -2.59492 -1.63587e-14 
-6.76913 -2.59487 -1.39448e-14 
-6.54018 -2.59262 -1.34598e-14 
-6.3267 -2.57962 -1.09183e-14 
-6.09559 -2.60804 -1.11549e-14 
-5.88526 -2.57968 -9.11616e-15 
-5.67835 -2.5755 -8.47124e-15 
-5.45857 -2.59825 -8.48672e-15 
-5.24225 -2.58703 -7.25562e-15 
-5.02361 -2.59396 -6.55642e-15 
-4.80682 -2.58936 -5.39851e-15 
-4.58723 -2.59638 -4.19955e-15 
-4.36272 -2.60237 -2.48662e-15 
-4.14387 -2.59382 -1.09884e-16 
-3.93366 -2.58829 2.46382e-15 
-3.72523 -2.59069 5.39257e-15 
-3.518 -2.59067 8.79608e-15 
-3.30514 -2.60333 1.32876e-14 
-3.0891 -2.60176 1.73165e-14 
-2.88151 -2.58727 1.92035e-14 
-2.67853 -2.59335 2.19566e-14 
-2.46718 -2.60279 2.30553e-14 
-2.25175 -2.60205 1.77381e-14 
-2.02905 -2.62255 1.29564e-14 
-1.80346 -2.58595 9.32773e-16 
-1.5981 -2.55918 -2.06912e-14 
-1.403 -2.51888 1.34596e-13 
-1.22045 -2.60375 -3.61579e-14 
-0.984786 -2.54189 9.97668e-14 
-0.783046 -2.55778 3.48829e-13 
-0.634908 -2.39774 6.32935e-14 
-0.468118 -2.62075 2.05341e-13 
-0.25443 -2.48449 1.2866e-13 
-0.0313104 -2.48321 1.35086e-13 
0.212197 -2.59067 1.93244e-13 
0.468954 -2.45637 -5.19657e-13 
0.671894 -2.5198 -3.4356e-13 
0.888125 -2.55836 -2.08103e-13 
1.10915 -2.54733 -1.03768e-13 
1.30458 -2.54748 -5.35887e-14 
1.50433 -2.6096 -1.35575e-14 
1.72175 -2.58341 1.04675e-15 
1.92324 -2.60298 -9.3332e-15 
2.14206 -2.60724 -2.19096e-14 
2.36313 -2.60567 -1.91164e-14 
2.57405 -2.5983 -2.18446e-14 
2.80322 -2.61953 -2.35984e-14 
3.01171 -2.58323 -1.78256e-14 
3.21533 -2.58909 -1.38784e-14 
3.43277 -2.60421 -1.07562e-14 
3.63832 -2.58431 -6.54763e-15 
3.85071 -2.59604 -3.61898e-15 
4.07249 -2.60545 -6.94374e-16 
4.27979 -2.57965 1.43737e-15 
4.49687 -2.60011 3.53142e-15 
4.70505 -2.57905 4.59951e-15 
4.92166 -2.59667 6.20134e-15 
5.13576 -2.58722 6.9069e-15 
5.35587 -2.5985 8.07286e-15 
5.57176 -2.58701 8.42994e-15 
5.78964 -2.59522 9.55572e-15 
6.01624 -2.60221 1.06733e-14 
6.23272 -2.57766 1.07212e-14 
6.45405 -2.60093 1.31542e-14 
6.68138 -2.58869 1.32877e-14 
6.89409 -2.56745 1.30659e-14 
7.12793 -2.62965 1.89415e-14 
7.37873 -2.59467 1.894e-14 
7.61135 -2.59919 2.12859e-14 
7.87026 -2.63255 2.11318e-14 
8.08003 -2.54207 1.18171e-14 
8.30549 -2.62449 9.43815e-15 
8.48528 -2.52347 -7.45887e-16 
-8.48528 -2.34152 4.93749e-15 
-8.25491 -2.35241 -5.63855e-16 
-8.01271 -2.35668 -4.22006e-15 
-7.76904 -2.40276 -6.83038e-15 
-7.56707 -2.24036 -1.27312e-15 
-7.48354 -2.44573 -1.00515e-14 
-7.19907 -2.40085 -5.98222e-15 
-6.96633 -2.35206 -1.60885e-15 
-6.72621 -2.37206 -3.17786e-15 
-6.50054 -2.35069 -2.95456e-15 
-6.25358 -2.36755 -3.62564e-15 
-6.04244 -2.35697 -3.23477e-15 
-5.8229 -2.33474 -2.14886e-15 
-5.59291 -2.35415 -2.35843e-15 
-5.37626 -2.35982 -2.18704e-15 
-5.14859 -2.35793 -1.78889e-15 
-4.92952 -2.35691 -1.44181e-15 
-4.70589 -2.3604 -9.74876e-16 
-4.48258 -2.37258 -5.1526e-16 
-4.26354 -2.3679 2.12123e-16 
-4.0491 -2.35367 9.46603e-16 
-3.83842 -2.35258 1.74466e-15 
-3.631 -2.35442 2.6884e-15 
-3.41829 -2.36804 3.77193e-15 
-3.20727 -2.3784 5.30776e-15 
-2.99809 -2.36373 5.48317e-15 
-2.78848 -2.35221 5.6647e-15 
-2.58218 -2.36937 6.92089e-15 
-2.37218 -2.37612 6.63874e-15 
-2.15436 -2.39034 3.47119e-15 
-1.94254 -2.39511 1.70498e-15 
-1.72434 -2.33407 2.66631e-16 
-1.52746 -2.27761 2.15212e-15 
-1.30728 -2.25673 -1.87271e-14 
-1.12235 -2.34772 8.72837e-14 
-0.889602 -2.24923 -8.85714e-14 
-0.629724 -2.13087 4.67928e-13 
-0.418098 -2.24739 -6.65865e-13 
-0.177748 -2.12043 -3.71231e-13 
0.0405166 -2.11916 5.14063e-14 
0.233896 -2.29627 5.10818e-14 
0.41732 -2.08816 -1.2192e-13 
0.636868 -2.17863 -9.41507e-14 
0.845186 -2.2593 9.34986e-14 
1.05956 -2.28654 3.45278e-14 
1.27876 -2.26083 3.26196e-14 
1.48287 -2.36029 -2.79752e-15 
1.68408 -2.35663 7.14e-16 
1.89836 -2.3611 2.29184e-15 
2.10825 -2.39111 -4.80181e-15 
2.32742 -2.39089 -6.29043e-15 
2.54898 -2.36732 -5.70529e-15 
2.76124 -2.39817 -9.59805e-15 
2.9701 -2.35319 -4.89543e-15 
3.1802 -2.34619 -4.62809e-15 
3.38468 -2.37477 -4.83591e-15 
3.59344 -2.34829 -2.84301e-15 
3.80373 -2.36056 -2.08846e-15 
4.01709 -2.37764 -1.25402e-15 
4.22666 -2.34475 -4.65519e-16 
4.44432 -2.36306 3.04389e-16 
4.65169 -2.34095 6.59348e-16 
4.86833 -2.35855 1.3461e-15 
5.08001 -2.35144 1.56544e-15 
5.29865 -2.36505 2.15381e-15 
5.51418 -2.35454 2.10758e-15 
5.73467 -2.35876 2.47347e-15 
5.95506 -2.37385 3.22218e-15 
6.17377 -2.34531 2.65312e-15 
6.40235 -2.35883 3.42965e-15 
6.619 -2.35987 3.53997e-15 
6.84192 -2.32167 1.37193e-15 
7.07165 -2.3831 3.57189e-15 
7.29164 -2.39244 5.28798e-15 
7.54848 -2.36025 4.90555e-15 
7.78516 -2.41027 7.74106e-15 
7.99617 -2.31782 1.53371e-15 
8.25204 -2.35974 1.16068e-15 
8.48528 -2.29043 -3.00804e-15 
-8.48528 -2.10253 4.38917e-16 
-8.25252 -2.10025 2.75079e-15 
-8.04589 -2.11434 1.34141e-15 
-7.80445 -2.15897 3.06082e-16 
-7.52467 -2.02674 1.75958e-15 
-7.31143 -2.22565 -7.38145e-16 
-7.06649 -2.13751 2.03759e-15 
-6.8086 -2.13967 2.59736e-15 
-6.59116 -2.12523 1.46482e-15 
-6.3478 -2.14883 5.83618e-16 
-6.12485 -2.11165 1.05291e-15 
-5.91564 -2.10694 1.42001e-15 
-5.68388 -2.12277 1.0627e-15 
-5.46247 -2.11974 1.11282e-15 
-5.24513 -2.13246 1.02247e-15 
-5.02342 -2.12274 1.01117e-15 
-4.80394 -2.12899 8.74049e-16 
-4.58174 -2.13791 7.88155e-16 
-4.36688 -2.1387 7.91321e-16 
-4.15483 -2.12627 7.43386e-16 
-3.94174 -2.11736 5.33005e-16 
-3.73333 -2.11712 2.33337e-16 
-3.5209 -2.13223 9.38744e-17 
-3.30919 -2.14339 -2.42071e-16 
-3.10201 -2.14079 -7.15908e-16 
-2.8888 -2.12806 -1.63755e-15 
-2.67037 -2.1278 -1.80598e-15 
-2.461 -2.14454 -1.35163e-15 
-2.24249 -2.15853 5.36699e-16 
-2.02651 -2.16374 -7.20761e-16 
-1.81906 -2.14017 5.43305e-15 
-1.60027 -2.04116 -1.04547e-14 
-1.37024 -2.0303 -5.34211e-14 
-1.1617 -1.85802 -3.18319e-13 
-1.08574 -2.0734 2.01215e-13 
-0.827011 -1.97591 -2.70656e-13 
-0.560294 -1.83646 -8.31744e-13 
-0.342469 -1.9122 1.02668e-12 
-0.0519043 -1.75428 4.51589e-13 
0.110469 -1.42094 -1.13548e-14 
0.208472 -1.90015 -9.08226e-13 
0.287608 -1.6221 1.99142e-13 
0.522326 -1.81387 5.56035e-13 
0.752572 -1.90777 -8.1349e-14 
0.962175 -1.99209 -2.34998e-13 
1.17841 -2.01324 -1.9133e-14 
1.45747 -2.1035 -2.0997e-14 
1.66283 -2.10583 1.53895e-15 
1.87488 -2.12967 2.51005e-15 
2.10008 -2.16874 -2.64258e-15 
2.32926 -2.17271 3.32919e-15 
2.55403 -2.14107 2.77864e-15 
2.76552 -2.16499 -1.17851e-15 
2.9764 -2.11527 2.1033e-15 
3.19725 -2.12042 1.01468e-15 
3.41245 -2.13663 3.41213e-16 
3.62786 -2.11633 2.23203e-16 
3.84179 -2.13285 -3.81391e-16 
4.04622 -2.13579 -5.31684e-16 
4.27085 -2.12 -7.31336e-16 
4.47499 -2.11781 -8.3431e-16 
4.69646 -2.11243 -9.48585e-16 
4.90584 -2.11893 -1.00512e-15 
5.12683 -2.12269 -1.06218e-15 
5.33973 -2.12819 -1.01048e-15 
5.5615 -2.12478 -1.10528e-15 
5.78372 -2.13005 -1.07561e-15 
5.99651 -2.13306 -9.76103e-16 
6.23189 -2.122 -1.02273e-15 
6.44671 -2.11557 -1.41291e-15 
6.66302 -2.11605 -2.08781e-15 
6.91191 -2.10669 -2.90327e-15 
7.12387 -2.13894 -2.00464e-15 
7.35957 -2.17419 -3.50504e-16 
7.55974 -2.08528 -8.54704e-16 
7.75403 -2.17077 -4.49865e-16 
7.96809 -2.07789 -2.02495e-15 
8.20595 -2.14055 -2.23482e-15 
8.48528 -2.0979 -5.5786e-15 
-8.48528 -1.80987 -2.73372e-15 
-8.30417 -1.86199 1.83424e-15 
-7.89145 -1.91278 2.74383e-15 
[...]
POINT_DATA 1978 
VECTORS vectors float
5.3221e-05 -0.000277253 1 
0.000248641 -0.0234161 0.999726 
-4.11618e-05 -0.02364 0.999721 
1.54464e-05 -0.0251093 0.999685 
7.45352e-07 -0.0318442 0.999493 
2.9457e-05 -0.033851 0.999427 
6.01833e-05 -0.0313337 0.999509 
7.09997e-05 -0.0270325 0.999635 
8.0688e-05 -0.0232394 0.99973 
8.61465e-05 -0.0202812 0.999794 
8.97602e-05 -0.0180244 0.999838 
8.65342e-05 -0.016303 0.999867 
9.30787e-05 -0.0151949 0.999885 
8.6536e-05 -0.0145077 0.999895 
9.07497e-05 -0.0135841 0.999908 
9.14634e-05 -0.0123328 0.999924 
8.38361e-05 -0.0109867 0.99994 
8.7537e-05 -0.00941466 0.999956 
8.55668e-05 -0.0072327 0.999974 
8.62951e-05 -0.00425895 0.999991 
8.51895e-05 -0.000304064 1 
8.1403e-05 0.00488762 0.999988 
8.18184e-05 0.0116853 0.999932 
8.24042e-05 0.0204032 0.999792 
7.67639e-05 0.0320902 0.999485 
7.07989e-05 0.0469433 0.998898 
6.43657e-05 0.0649094 0.997891 
5.14691e-05 0.0885401 0.996073 
5.001e-05 0.120884 0.992667 
2.91003e-05 0.160966 0.98696 
2.33598e-05 0.216645 0.976251 
-3.16591e-06 0.27426 0.961656 
-1.33555e-05 0.341529 0.939871 
-2.36366e-05 0.41013 0.912027 
-6.41842e-05 0.519169 0.854671 
-5.24835e-05 0.627866 0.778321 
-7.62216e-05 0.742895 0.669408 
-2.65625e-05 0.854547 0.519373 
-3.14828e-05 0.970816 0.239825 
3.24976e-05 0.999997 -0.00232292 
3.14329e-05 0.941496 -0.337025 
7.43487e-05 0.862734 -0.505658 
6.60536e-05 0.756553 -0.653933 
7.77218e-05 0.629622 -0.776902 
5.85217e-05 0.522647 -0.852549 
2.24322e-05 0.433773 -0.901022 
2.22741e-05 0.347599 -0.937643 
2.34618e-06 0.27779 -0.960642 
-2.29072e-05 0.216498 -0.976283 
-2.67981e-05 0.165226 -0.986256 
-4.31931e-05 0.120618 -0.992699 
-5.78404e-05 0.0891117 -0.996022 
-6.61305e-05 0.0652917 -0.997866 
-6.75839e-05 0.0449697 -0.998988 
-8.0419e-05 0.0314622 -0.999505 
-7.49764e-05 0.0206968 -0.999786 
-8.20632e-05 0.0111978 -0.999937 
-8.89023e-05 0.00443517 -0.99999 
-8.33036e-05 -0.000660461 -1 
-8.96332e-05 -0.00473066 -0.999989 
-9.027e-05 -0.00746888 -0.999972 
-8.513e-05 -0.009575 -0.999954 
-9.33057e-05 -0.0110894 -0.999939 
-8.73274e-05 -0.0123413 -0.999924 
-9.1821e-05 -0.013432 -0.99991 
-8.5858e-05 -0.0143853 -0.999897 
-9.06401e-05 -0.0153604 -0.999882 
-8.30164e-05 -0.0165647 -0.999863 
-8.62004e-05 -0.0182443 -0.999834 
-8.58546e-05 -0.0204626 -0.999791 
-7.19172e-05 -0.0236564 -0.99972 
-7.48123e-05 -0.0275734 -0.99962 
-5.77458e-05 -0.0311729 -0.999514 
-4.53477e-05 -0.0343263 -0.999411 
-5.00842e-05 -0.0329597 -0.999457 
-5.86569e-05 -0.0271002 -0.999633 
3.68514e-06 -0.0242649 -0.999706 
-0.000136418 -0.0241738 -0.999708 
-0.000131078 -2.72277e-05 -1 
-0.000306767 0.00029854 1 
0.0116667 -0.021338 0.999704 
0.0148237 -0.0251352 0.999574 
0.0152173 -0.0261372 0.999543 
0.013929 -0.0292792 0.999474 
0.0143368 -0.0310944 0.999414 
0.0150811 -0.0295009 0.999451 
0.0150519 -0.026362 0.999539 
0.0154602 -0.0228752 0.999619 
0.0158836 -0.0200679 0.999672 
0.0154999 -0.0178012 0.999721 
0.0165223 -0.0162837 0.999731 
0.0167442 -0.0150421 0.999747 
0.0162445 -0.0139974 0.99977 
0.0166464 -0.0129274 0.999778 
0.0164205 -0.0116136 0.999798 
0.0165115 -0.0100514 0.999813 
0.0162251 -0.00810205 0.999836 
0.0158579 -0.00546717 0.999859 
0.0156837 -0.00192248 0.999875 
0.0152386 0.00266111 0.99988 
0.0144957 0.00857948 0.999858 
0.0137391 0.0162541 0.999773 
0.0126108 0.0263632 0.999573 
0.0115457 0.039876 0.999138 
0.0104556 0.0569215 0.998324 
0.0089984 0.0782368 0.996894 
0.0073015 0.107168 0.994214 
0.0054094 0.145864 0.98929 
0.00311536 0.195631 0.980673 
0.000970807 0.259523 0.965736 
-0.00123679 0.328136 0.94463 
-0.00379011 0.404646 0.914466 
-0.00585752 0.486658 0.873573 
-0.00803552 0.608977 0.793147 
-0.00801412 0.72029 0.693627 
-0.00695456 0.799231 0.600984 
-0.00546414 0.892932 0.450158 
-0.0027284 0.969501 0.245071 
0.000644638 0.99994 0.0109545 
0.0040565 0.969302 -0.24584 
0.00684171 0.882522 -0.470222 
0.00812606 0.781365 -0.624021 
0.00859796 0.664202 -0.747504 
0.0074367 0.548331 -0.836228 
0.00531871 0.453937 -0.891018 
0.00281963 0.367055 -0.930195 
0.000671789 0.2897 -0.957117 
-0.00179476 0.22505 -0.974346 
-0.00428071 0.167716 -0.985826 
-0.00631067 0.125039 -0.992132 
-0.00811712 0.0916546 -0.995758 
-0.00957995 0.0642219 -0.99789 
-0.0113319 0.0461116 -0.998872 
-0.0122647 0.0318966 -0.999416 
-0.0130036 0.0200731 -0.999714 
-0.0142649 0.011703 -0.99983 
-0.0147542 0.00476586 -0.99988 
-0.0151995 -0.000608699 -0.999884 
-0.0162762 -0.00421624 -0.999859 
-0.0160117 -0.00725594 -0.999845 
-0.0167501 -0.0092658 -0.999817 
-0.0163822 -0.0109758 -0.999806 
-0.0166938 -0.0122954 -0.999785 
-0.0163708 -0.0134855 -0.999775 
-0.0165647 -0.0145625 -0.999757 
-0.0161935 -0.0157486 -0.999745 
-0.0157984 -0.0172436 -0.999726 
-0.0161069 -0.0192003 -0.999686 
-0.015297 -0.0218184 -0.999645 
-0.0152206 -0.0251718 -0.999567 
-0.0154412 -0.0282822 -0.999481 
-0.0140375 -0.0310401 -0.99942 
-0.0154488 -0.0306568 -0.999411 
-0.0158126 -0.0287545 -0.999461 
-0.0145751 -0.0263054 -0.999548 
-0.0151637 -0.0260323 -0.999546 
-0.0103927 -0.0197358 -0.999751 
-8.6887e-05 0.000109527 -1 
0.000547613 3.51921e-05 1 
0.0118768 -0.0226648 0.999673 
0.0155162 -0.0267143 0.999523 
0.0165694 -0.0263576 0.999515 
0.014204 -0.0256037 0.999571 
0.0168144 -0.0277593 0.999473 
0.0162131 -0.0288376 0.999453 
0.0155229 -0.0281274 0.999484 
0.0160289 -0.0256951 0.999541 
0.0161961 -0.0224654 0.999616 
0.0169441 -0.0194768 0.999667 
0.0172128 -0.017556 0.999698 
0.0171237 -0.01596 0.999726 
0.0175489 -0.0145833 0.99974 
0.01777 -0.0134515 0.999752 
0.0177999 -0.0120944 0.999768 
0.017735 -0.0105035 0.999788 
0.0176072 -0.00853297 0.999809 
0.0174439 -0.00604419 0.99983 
0.0169681 -0.00276931 0.999852 
0.0162183 0.00152431 0.999867 
0.0154443 0.0069488 0.999857 
0.0145203 0.013825 0.999799 
0.0134976 0.0228957 0.999647 
0.0123421 0.0346087 0.999325 
0.0107535 0.0499947 0.998692 
0.00909689 0.0698916 0.997513 
0.00767408 0.0949162 0.995456 
0.00595841 0.128108 0.991742 
0.00401463 0.17264 0.984977 
0.0020699 0.224714 0.974423 
5.08899e-05 0.293696 0.955899 
-0.00146206 0.364664 0.931138 
-0.00305735 0.457625 0.88914 
-0.00568635 0.539299 0.842095 
-0.0049059 0.653919 0.756549 
-0.003304 0.787809 0.615911 
-0.00344661 0.901794 0.432153 
-0.000339306 0.976906 0.21367 
0.00118449 0.9997 -0.0244516 
0.00344499 0.97041 -0.241438 
0.00341813 0.899215 -0.437494 
0.00486504 0.792435 -0.609937 
0.00607758 0.680134 -0.733062 
0.00579543 0.570604 -0.821205 
0.00395858 0.46773 -0.883862 
0.00263059 0.378737 -0.925501 
0.00067348 0.304219 -0.952602 
-0.00137318 0.238712 -0.971089 
-0.00364605 0.183159 -0.983077 
-0.00532304 0.137403 -0.990501 
-0.00715616 0.0999301 -0.994969 
-0.00937223 0.0720255 -0.997359 
-0.0104281 0.0521678 -0.998584 
-0.0117354 0.03637 -0.999269 
-0.0133768 0.0243494 -0.999614 
-0.0141615 0.0151879 -0.999784 
-0.0152741 0.00779035 -0.999853 
-0.0163025 0.0019914 -0.999865 
-0.0166515 -0.00210569 -0.999859 
-0.0173701 -0.0056223 -0.999833 
-0.0175168 -0.00801214 -0.999814 
-0.0178345 -0.0100741 -0.99979 
-0.0178409 -0.0116439 -0.999773 
-0.0179125 -0.0130245 -0.999755 
-0.0176483 -0.0142425 -0.999743 
-0.0174685 -0.0155112 -0.999727 
-0.0173503 -0.0169613 -0.999706 
-0.0167699 -0.0188209 -0.999682 
-0.016579 -0.0213493 -0.999635 
-0.0162732 -0.0243121 -0.999572 
-0.0155321 -0.0272357 -0.999508 
-0.0159115 -0.0288775 -0.999456 
-0.016048 -0.0285095 -0.999465 
-0.0158082 -0.0269426 -0.999512 
-0.0166588 -0.0270839 -0.999494 
-0.0148646 -0.0273538 -0.999515 
-0.0119554 -0.022618 -0.999673 
-0.000169427 -4.0873e-05 -1 
0.000533913 0.000385071 1 
0.00971887 -0.0240217 0.999664 
0.0121999 -0.0275581 0.999546 
0.0130081 -0.0259913 0.999578 
0.0109191 -0.0238646 0.999656 
0.0140986 -0.0266166 0.999546 
0.0130929 -0.0274276 0.999538 
0.0133717 -0.0265658 0.999558 
0.0136982 -0.023968 0.999619 
0.014363 -0.020744 0.999682 
0.0142785 -0.0184731 0.999727 
0.0143843 -0.0167902 0.999756 
0.0148766 -0.0152647 0.999773 
0.0150544 -0.0139858 0.999789 
0.015244 -0.0126293 0.999804 
0.0151653 -0.0110018 0.999824 
0.0151718 -0.00905367 0.999844 
0.0150789 -0.00660746 0.999864 
0.0147018 -0.00357739 0.999886 
0.0140116 0.000324312 0.999902 
0.0131516 0.00535275 0.999899 
0.0122432 0.0116051 0.999858 
0.0113039 0.0197063 0.999742 
0.0101368 0.0302313 0.999492 
0.00874757 0.0436864 0.999007 
0.00715167 0.0618991 0.998057 
0.00568732 0.0861816 0.996263 
0.0044583 0.116089 0.993229 
0.00320945 0.156192 0.987722 
0.00184513 0.205687 0.978616 
0.000670548 0.265715 0.964051 
-8.02648e-05 0.342147 0.939647 
-0.000594927 0.427266 0.904126 
0.000199966 0.527151 0.849772 
-0.00169673 0.55795 0.829873 
-0.00102934 0.694151 0.719828 
-0.000203829 0.842994 0.537923 
0.000193061 0.932179 0.361997 
0.000723276 0.998714 0.0507009 
-0.000694919 0.996772 -0.0802814 
0.000919273 0.971986 -0.235039 
-0.00039245 0.95027 -0.311428 
0.000618835 0.870488 -0.492188 
0.00102344 0.743314 -0.668941 
0.00162375 0.624965 -0.780651 
0.0014158 0.513165 -0.858289 
0.00127995 0.394456 -0.918914 
0.000196134 0.315189 -0.949029 
-0.000848355 0.246126 -0.969237 
-0.00229231 0.187691 -0.982225 
-0.0036391 0.137311 -0.990521 
-0.00491417 0.101034 -0.994871 
-0.006769 0.0735433 -0.997269 
-0.00759858 0.0538059 -0.998523 
-0.00913096 0.0372204 -0.999265 
-0.010587 0.0249037 -0.999634 
-0.0115718 0.0155893 -0.999812 
-0.0127944 0.00814428 -0.999885 
-0.0136465 0.00274191 -0.999903 
-0.0142316 -0.00186184 -0.999897 
-0.0147239 -0.00512508 -0.999878 
-0.0149906 -0.00790632 -0.999856 
-0.0152133 -0.0100147 -0.999834 
-0.0152517 -0.0117895 -0.999814 
-0.0152428 -0.0132275 -0.999796 
-0.015016 -0.0145876 -0.999781 
-0.0148341 -0.0159675 -0.999762 
-0.0146533 -0.017488 -0.99974 
-0.0142563 -0.0196094 -0.999706 
-0.0139 -0.0221471 -0.999658 
-0.0135728 -0.0250126 -0.999595 
-0.0131483 -0.0275673 -0.999533 
-0.0130864 -0.0276556 -0.999532 
-0.0130351 -0.026059 -0.999575 
-0.0115892 -0.0244197 -0.999635 
-0.0130138 -0.0261851 -0.999572 
-0.0117994 -0.0275416 -0.999551 
-0.0110047 -0.0256007 -0.999612 
-0.000198309 9.87787e-05 -1 
0.000436558 0.000326525 1 
0.00762848 -0.0214305 0.999741 
0.00991974 -0.0257354 0.99962 
0.00962127 -0.0234019 0.99968 
0.0104883 -0.0231002 0.999678 
0.0112842 -0.0252542 0.999617 
0.0114024 -0.0264751 0.999584 
0.0119462 -0.0274472 0.999552 
0.0126073 -0.0259139 0.999585 
0.0128987 -0.0228644 0.999655 
0.0133338 -0.0202022 0.999707 
0.013933 -0.0181395 0.999738 
0.0140862 -0.0164151 0.999766 
0.014433 -0.0149971 0.999783 
0.014545 -0.0135764 0.999802 
0.01449 -0.0120495 0.999822 
0.0144988 -0.0101713 0.999843 
0.0143499 -0.00788789 0.999866 
0.0141252 -0.00509403 0.999887 
0.013769 -0.00166318 0.999904 
0.0132633 0.00269812 0.999908 
0.0126182 0.00812852 0.999887 
0.0116656 0.0150267 0.999819 
0.0105082 0.0237633 0.999662 
0.00920105 0.0349834 0.999346 
0.00767103 0.049722 0.998734 
0.00598457 0.0699687 0.997531 
0.00438144 0.0958139 0.99539 
0.0029596 0.128097 0.991757 
0.00177151 0.16998 0.985446 
0.000814179 0.222155 0.975011 
0.000265525 0.282956 0.959133 
0.000200247 0.364896 0.931048 
0.000313842 0.448519 0.893773 
0.000557656 0.649598 0.760278 
0.000396497 0.779931 0.625866 
2.21123e-05 0.889489 0.456957 
2.50955e-05 0.933922 0.357477 
7.99053e-05 0.966892 0.255187 
-0.00105245 0.994213 0.107418 
-0.00134436 0.981335 -0.192299 
-0.00154694 0.908708 -0.417428 
-0.000984011 0.838052 -0.54559 
-0.000572875 0.716144 -0.697952 
-0.000197281 0.592583 -0.805509 
2.36842e-05 0.500146 -0.865941 
0.000267659 0.431271 -0.902222 
0.000104519 0.345363 -0.938469 
-0.000125758 0.270885 -0.962612 
-0.000795208 0.208083 -0.978111 
-0.00184172 0.158346 -0.987382 
-0.00312098 0.116591 -0.993175 
-0.00473057 0.0842489 -0.996434 
-0.00622346 0.0638518 -0.99794 
-0.00810178 0.0439587 -0.999 
-0.00955254 0.0300507 -0.999503 
-0.0107573 0.0201625 -0.999739 
-0.0119371 0.0115664 -0.999862 
-0.0128539 0.00548873 -0.999902 
-0.0134974 0.000581549 -0.999909 
-0.0142637 -0.00335701 -0.999893 
-0.0144939 -0.00649383 -0.999874 
-0.0147833 -0.00908469 -0.999849 
-0.0147188 -0.0110991 -0.99983 
-0.0146691 -0.0127902 -0.999811 
-0.0144578 -0.0142197 -0.999794 
-0.0142316 -0.0156626 -0.999776 
-0.014022 -0.0172005 -0.999754 
-0.0136688 -0.0190257 -0.999726 
-0.0134363 -0.0215779 -0.999677 
-0.0130419 -0.0244726 -0.999615 
-0.0124362 -0.0270387 -0.999557 
-0.0118083 -0.027348 -0.999556 
-0.010942 -0.0252696 -0.999621 
-0.00994569 -0.0229124 -0.999688 
-0.00981915 -0.024808 -0.999644 
-0.00998774 -0.0269364 -0.999587 
-0.00876707 -0.0230309 -0.999696 
-0.000418928 3.50764e-05 -1 
0.000186056 0.000199072 1 
0.00842722 -0.0221474 0.999719 
0.00946803 -0.0270659 0.999589 
0.00977919 -0.0245878 0.99965 
0.0102241 -0.0223931 0.999697 
0.0126358 -0.0246655 0.999616 
0.0137713 -0.0277919 0.999519 
0.014318 -0.0273187 0.999524 
0.0151167 -0.0242194 0.999592 
0.0157393 -0.0214788 0.999645 
0.016729 -0.0191722 0.999676 
0.0170944 -0.0171301 0.999707 
0.0173474 -0.0156021 0.999728 
0.0174471 -0.0141224 0.999748 
0.0174991 -0.0124903 0.999769 
0.0173016 -0.0106803 0.999793 
0.0170983 -0.0083466 0.999819 
0.0169191 -0.00551383 0.999842 
0.0167286 -0.00206491 0.999858 
0.0163709 0.00209847 0.999864 
0.0159614 0.00730037 0.999846 
0.0150888 0.0138499 0.99979 
0.0139579 0.0221893 0.999656 
0.0125993 0.0328281 0.999382 
0.0108697 0.0467703 0.998847 
0.00878971 0.065229 0.997832 
0.00668237 0.090754 0.995851 
0.0043557 0.124732 0.992181 
0.00243276 0.166446 0.986048 
0.00103237 0.221958 0.975056 
0.000237509 0.293415 0.955985 
-0.000342123 0.377194 0.926134 
-0.000641063 0.476336 0.879263 
-0.00137803 0.582797 0.812617 
0.000105115 0.570192 0.821511 
-0.000219827 0.693724 0.720241 
-0.000311579 0.819093 0.573661 
0.00219833 0.863037 0.505136 
0.000936356 0.991522 0.129938 
-0.000714104 0.999804 -0.0197767 
-0.0009888 0.987049 -0.160415 
-0.00466834 0.944142 -0.329506 
-0.00107998 0.885359 -0.464907 
-0.000434014 0.735826 -0.677171 
0.00037131 0.611796 -0.791016 
0.00106005 0.498488 -0.866896 
0.000535605 0.406539 -0.913633 
0.000471611 0.323444 -0.946247 
-8.2777e-05 0.251599 -0.967832 
-0.00107053 0.194277 -0.980946 
-0.00245479 0.148231 -0.98895 
-0.00479941 0.107614 -0.994181 
-0.0072445 0.0826468 -0.996553 
-0.00890166 0.0587766 -0.998231 
-0.0111949 0.0412934 -0.999084 
-0.0130272 0.028966 -0.999496 
-0.0139125 0.0185712 -0.999731 
-0.0152312 0.0111064 -0.999822 
-0.0160524 0.00507257 -0.999858 
-0.0164615 0.000306421 -0.999864 
-0.0173546 -0.00363638 -0.999843 
-0.0173947 -0.00683164 -0.999825 
-0.0178189 -0.00941366 -0.999797 
-0.0176123 -0.0114703 -0.999779 
-0.0177137 -0.0131602 -0.999756 
-0.0173039 -0.014671 -0.999743 
-0.0171824 -0.0161506 -0.999722 
-0.0169187 -0.0178103 -0.999698 
-0.0162677 -0.0197905 -0.999672 
-0.0162769 -0.0224768 -0.999615 
-0.0155286 -0.0255126 -0.999554 
-0.0143012 -0.0277495 -0.999513 
-0.0139023 -0.0274199 -0.999527 
-0.0120411 -0.0245557 -0.999626 
-0.0111005 -0.0220453 -0.999695 
-0.00984004 -0.0235174 -0.999675 
-0.0100356 -0.0255606 -0.999623 
-0.00882779 -0.0229135 -0.999698 
-7.50036e-05 5.31926e-05 -1 
8.59768e-05 7.22777e-05 1 
0.00850732 -0.022133 0.999719 
0.0100363 -0.0257395 0.999618 
0.0112867 -0.0229885 0.999672 
0.012372 -0.0220172 0.999681 
0.014562 -0.0248045 0.999586 
0.0156137 -0.0278217 0.999491 
0.0169035 -0.0280733 0.999463 
0.0172566 -0.0260845 0.999511 
0.0182274 -0.0230783 0.999567 
0.018839 -0.0205905 0.99961 
0.0192794 -0.0182563 0.999647 
0.0196988 -0.0164727 0.99967 
0.0198699 -0.0149462 0.999691 
0.0198744 -0.0133575 0.999713 
0.0198136 -0.0115627 0.999737 
0.0195896 -0.00947792 0.999763 
0.0193521 -0.00684623 0.999789 
0.0190848 -0.00365496 0.999811 
0.0187572 0.000229125 0.999824 
0.0183228 0.00491316 0.99982 
0.0176916 0.0109617 0.999783 
0.0168217 0.0184968 0.999687 
0.0156424 0.0281295 0.999482 
0.0140753 0.040619 0.999076 
0.0120972 0.057023 0.9983 
0.00979867 0.0786343 0.996855 
0.00715932 0.109042 0.994011 
0.00467413 0.146848 0.989148 
0.00248445 0.192887 0.981218 
0.00072751 0.257132 0.966376 
-0.000297272 0.327039 0.945011 
-0.00146067 0.438408 0.898775 
-0.00168682 0.543662 0.839302 
-0.0005566 0.717307 0.696757 
0.0026968 0.824432 0.565954 
0.00300076 0.922629 0.385677 
0.00299565 0.889753 0.456433 
0.00146313 0.981203 0.19297 
0.00510466 0.958946 0.283542 
-0.00801734 0.952141 -0.305554 
-0.00777667 0.88752 -0.460703 
-0.00280733 0.912595 -0.408856 
-0.00184288 0.795519 -0.605925 
-0.000275682 0.748825 -0.662767 
0.000722177 0.594295 -0.804247 
0.00133111 0.401173 -0.916002 
0.00121018 0.341528 -0.939871 
0.000260921 0.276527 -0.961006 
-0.00134607 0.212444 -0.977172 
-0.0032304 0.16445 -0.98638 
-0.005313 0.12594 -0.992024 
-0.00795309 0.0977209 -0.995182 
-0.010348 0.0694846 -0.997529 
-0.0124632 0.0504139 -0.998651 
-0.0144655 0.0356065 -0.999261 
-0.0159185 0.0234075 -0.999599 
-0.017057 0.014998 -0.999742 
-0.0179303 0.00807507 -0.999807 
-0.018564 0.0026084 -0.999824 
-0.0190463 -0.00160467 -0.999817 
-0.0194266 -0.00545318 -0.999796 
-0.0197162 -0.00826863 -0.999771 
-0.0198976 -0.0107265 -0.999744 
-0.0199971 -0.0125713 -0.999721 
-0.0199216 -0.0142658 -0.9997 
-0.0197864 -0.0157984 -0.999679 
-0.0194865 -0.017464 -0.999658 
-0.0190061 -0.0194973 -0.999629 
-0.0185506 -0.0219437 -0.999587 
-0.017802 -0.0252874 -0.999522 
-0.0168467 -0.0278445 -0.99947 
-0.015824 -0.0279343 -0.999485 
-0.0141042 -0.0242119 -0.999607 
-0.0127825 -0.0217893 -0.999681 
-0.0112822 -0.0229793 -0.999672 
-0.0105626 -0.024994 -0.999632 
-0.00902994 -0.0228459 -0.999698 
-0.000216636 3.22694e-05 -1 
0.000138659 2.39059e-05 1 
0.00731793 -0.0222046 0.999727 
0.0105491 -0.0246606 0.99964 
0.0109373 -0.0227318 0.999682 
0.0126363 -0.0218089 0.999682 
0.0136866 -0.0250086 0.999594 
0.0155161 -0.0287789 0.999465 
0.0158872 -0.0285343 0.999467 
0.017184 -0.0257495 0.999521 
0.0170407 -0.0228995 0.999593 
0.0182008 -0.0201669 0.999631 
0.0186962 -0.0179692 0.999664 
0.0186701 -0.0161871 0.999695 
0.0189989 -0.0145949 0.999713 
0.0189714 -0.012872 0.999737 
0.0187035 -0.0108697 0.999766 
0.0186679 -0.00862003 0.999789 
0.0182268 -0.00578084 0.999817 
0.0178088 -0.00233264 0.999839 
0.0173447 0.00188506 0.999848 
0.0170063 0.00716084 0.99983 
0.0163619 0.013826 0.999771 
0.015543 0.0222472 0.999632 
0.0143812 0.0331611 0.999347 
0.0128359 0.0474311 0.998792 
0.0109459 0.0662498 0.997743 
0.00878963 0.0915441 0.995762 
0.00633798 0.124468 0.992203 
0.00409153 0.165037 0.986279 
0.00203573 0.216251 0.976336 
0.00042432 0.276827 0.96092 
-0.00106043 0.361822 0.932247 
-0.0016818 0.453987 0.891007 
-5.47918e-05 0.567669 0.823257 
-4.20825e-05 0.674499 0.738276 
0.00452994 0.819043 0.573714 
0.00448651 0.869451 0.493999 
0.00932451 0.988093 0.153573 
0.00656476 0.99482 0.101443 
-0.00156279 0.999958 -0.00905029 
-0.00823456 0.997866 -0.0647736 
-0.011105 0.996269 -0.0855906 
-0.00552109 0.827862 -0.560905 
-0.00407365 0.836306 -0.548248 
-0.000479145 0.656936 -0.753946 
0.000298203 0.529847 -0.848093 
0.00124568 0.479946 -0.877297 
0.00110937 0.401996 -0.915641 
0.000582358 0.299563 -0.954076 
-0.000942931 0.232633 -0.972564 
-0.00324654 0.17383 -0.98477 
-0.00553297 0.131944 -0.991242 
-0.00836593 0.0916795 -0.995753 
-0.0105583 0.066964 -0.9977 
-0.0125657 0.0481291 -0.998762 
-0.0143217 0.0322583 -0.999377 
-0.0154221 0.0217426 -0.999645 
-0.0164199 0.0132779 -0.999777 
-0.0171083 0.00666943 -0.999831 
-0.017484 0.00160069 -0.999846 
-0.018198 -0.00277015 -0.999831 
-0.0181376 -0.00618978 -0.999816 
-0.0187166 -0.0090549 -0.999784 
-0.0186956 -0.0112667 -0.999762 
-0.0190222 -0.0132 -0.999732 
-0.018957 -0.0148727 -0.99971 
-0.0188671 -0.0165227 -0.999685 
-0.0186013 -0.0183602 -0.999658 
-0.0179766 -0.0204902 -0.999628 
-0.0175654 -0.0233002 -0.999574 
-0.0167282 -0.026545 -0.999508 
-0.0164295 -0.0289016 -0.999447 
-0.015157 -0.028983 -0.999465 
-0.0145269 -0.0256838 -0.999565 
-0.0125605 -0.0223447 -0.999671 
-0.0111038 -0.0228809 -0.999677 
-0.00951093 -0.0251898 -0.999637 
-0.00766659 -0.0211129 -0.999748 
-0.000275177 2.76218e-05 -1 